FOO
141312
    1MOL0     O    1   5.982   5.744   5.901  0.3380 -0.6127 -0.3307
    1MOL0     C    2   5.962   5.870   5.913 -0.4228 -0.4898 -0.0493
    1MOL0     O    3   6.059   5.963   5.925  0.6272 -0.6904  0.3286
    1MOL0     C    4   6.183   5.936   5.880 -0.4363  0.4798  0.0532
    1MOL0     C    5   6.299   5.997   5.946  0.7608 -0.3440  0.3979
    1MOL0     C    6   6.427   5.956   5.923 -0.0332  0.7629 -0.4040
    1MOL0     C    7   6.448   5.852   5.839 -0.3716  0.5586  0.3260
    1MOL0     O    8   6.590   5.824   5.815  0.2134 -0.2811 -0.1755
    1MOL0     C    9   6.605   5.756   5.682  0.4509 -1.0026 -0.0478
    1MOL0     C   10   6.744   5.778   5.622 -0.0323  0.3660  0.5157
    1MOL0     C   11   6.781   5.924   5.586  0.8649  0.2156  0.1839
    1MOL0     C   12   6.929   5.917   5.538 -0.5207 -0.6023  0.6209
    1MOL0     C   13   6.987   6.051   5.504  0.3540  1.0299 -0.2360
    1MOL0     C   14   7.069   6.103   5.614 -0.0596 -0.4939  0.0692
    1MOL0     C   15   7.145   6.234   5.598  0.4007  0.2430 -0.2149
    1MOL0     C   16   7.047   6.354   5.590  0.1025 -0.0639  1.3451
    1MOL0     N   17   6.982   6.374   5.723  0.2807 -0.0494 -0.7776
    1MOL0     C   18   6.850   6.338   5.739 -0.2536  0.7317  0.5891
    1MOL0     C   19   6.822   6.382   5.863 -0.1735 -0.1632 -0.3875
    1MOL0     C   20   6.692   6.367   5.942  0.6873 -0.0018 -0.0211
    1MOL0     C   21   6.648   6.228   5.977 -0.4045 -0.1710 -0.1789
    1MOL0     C   22   6.750   6.152   6.063  0.1853  0.4282  0.8868
    1MOL0     C   23   6.842   6.225   6.163  0.9641  0.4837  0.3886
    1MOL0     O   24   6.761   6.306   6.246 -0.5901 -0.1238  0.1593
    1MOL0     C   25   6.825   6.411   6.304 -0.1725 -0.6802 -0.1341
    1MOL0     C   26   6.771   6.539   6.304  0.6290 -0.0549  0.1739
    1MOL0     C   27   6.831   6.652   6.355  0.1692 -0.6132 -0.6245
    1MOL0     C   28   6.771   6.789   6.316 -0.5189  0.7083 -0.5458
    1MOL0     C   29   6.955   6.635   6.430  0.4648  0.3563  1.2998
    1MOL0     C   30   7.035   6.751   6.485  0.6026  0.2362  0.2844
    1MOL0     O   31   7.163   6.722   6.525  0.1723  0.3673 -0.3224
    1MOL0     C   32   7.234   6.815   6.595 -0.9040 -0.6154  0.8178
    1MOL0     C   33   7.185   6.884   6.703 -0.2668 -0.4394 -0.0006
    1MOL0     C   34   7.243   6.987   6.764 -0.0607 -0.7625 -0.8903
    1MOL0     C   35   7.370   7.026   6.725  0.6602 -0.2140  0.1598
    1MOL0     O   36   7.437   7.126   6.787 -0.0861 -0.1640 -0.3825
    1MOL0     C   37   7.435   7.263   6.723 -0.1891 -0.3407 -0.2917
    1MOL0     C   38   7.527   7.357   6.808  0.3279 -1.0386  0.7092
    1MOL0     C   39   7.507   7.500   6.744  0.3140  0.1707  0.4915
    1MOL0     C   40   7.615   7.602   6.793  0.3308  0.2793  0.3475
    1MOL0     C   41   7.755   7.576   6.758  0.3683  0.9483  1.1580
    1MOL0     C   42   7.848   7.679   6.807 -1.1755 -0.5534 -0.6527
    1MOL0     C   43   7.998   7.669   6.758 -0.3541  0.9229 -0.5643
    1MOL0     C   44   8.084   7.547   6.804 -0.2827  0.4150  0.0325
    1MOL0    Cl   45   8.106   7.523   6.973 -0.3905 -0.1015  0.3296
    1MOL0     C   46   7.438   6.950   6.628  0.2037  0.6619  0.1646
    1MOL0     C   47   7.370   6.848   6.558 -0.1498  0.5493  0.6936
    1MOL0     O   48   6.979   6.862   6.480 -0.9287 -0.3644  0.7342
    1MOL0     C   49   7.014   6.507   6.430 -0.7200 -0.4817 -0.4918
    1MOL0     C   50   6.943   6.398   6.377 -0.4237 -0.0829 -0.6196
    1MOL0     N   51   6.933   6.458   5.909 -0.1405  0.2986  0.3583
    1MOL0     N   52   7.037   6.447   5.828  0.7061  0.4952 -0.1916
    1MOL0     C   53   6.342   5.800   5.758 -0.2800 -0.1734 -0.3861
    1MOL0     C   54   6.208   5.847   5.780 -0.2340 -0.0017  0.7045
    1MOL0     C   55   5.817   5.908   5.926 -1.0330  0.5727 -0.8616
    1MOL0     C   56   5.727   5.808   5.955 -0.3234  0.4476 -0.0333
    1MOL0     C   57   5.590   5.836   5.969  0.1724 -0.2781  0.2312
    1MOL0     C   58   5.542   5.967   5.951 -0.0506 -0.0101  0.5056
    1MOL0     O   59   5.413   6.014   5.959  0.7754 -0.3565 -0.0087
    1MOL0     C   60   5.313   5.926   6.014 -0.3543  0.2623 -0.9279
    1MOL0     C   61   5.320   5.922   6.171  0.2000 -0.1918  0.5233
    1MOL0     C   62   5.193   5.852   6.226 -0.1677  0.7590  0.0430
    1MOL0     C   63   5.192   5.838   6.377 -0.1070  0.6896  0.0142
    1MOL0     C   64   5.069   5.782   6.422 -0.3151  0.0386 -1.5922
    1MOL0     C   65   4.960   5.744   6.460  0.2152  0.1291  0.2345
    1MOL0     C   66   5.633   6.069   5.918  0.8761 -0.6710 -0.2092
    1MOL0     C   67   5.767   6.037   5.916 -0.8500  0.2237  0.3017
    1MOL0     C   68   5.856   6.161   5.899 -0.3711 -0.9480 -0.8090
    1MOL0     H   69   6.285   6.069   6.026  2.9434  1.1351 -0.4340
    1MOL0     H   70   6.509   5.996   5.982 -0.0064 -0.6778  0.5695
    1MOL0     H   71   6.538   5.804   5.610  0.6154  0.6161  0.8330
    1MOL0     H   72   6.574   5.652   5.687 -1.2181 -0.4533  2.9083
    1MOL0     H   73   6.825   5.726   5.673 -1.3725 -1.4056  0.8998
    1MOL0     H   74   6.745   5.727   5.525  0.7556  1.0886  0.1258
    1MOL0     H   75   6.725   5.964   5.502  1.2095 -1.0674 -0.6923
    1MOL0     H   76   6.768   5.989   5.673 -0.5477  2.8967 -1.8824
    1MOL0     H   77   7.000   5.870   5.608  1.7200  3.6500  1.5321
    1MOL0     H   78   6.918   5.862   5.444  1.1290 -1.2092  0.7345
    1MOL0     H   79   6.909   6.120   5.468 -1.1917 -0.0079  1.0162
    1MOL0     H   80   7.061   6.041   5.423  1.1320  2.3132  0.2877
    1MOL0     H   81   7.011   6.103   5.707 -0.7337 -0.1863 -0.3465
    1MOL0     H   82   7.155   6.035   5.620  0.0425 -0.2609  2.2701
    1MOL0     H   83   7.204   6.231   5.506 -3.0536  1.3551 -2.6491
    1MOL0     H   84   7.208   6.235   5.688  2.3068 -2.0825 -1.3898
    1MOL0     H   85   7.098   6.445   5.557  2.0735 -2.0190 -1.4248
    1MOL0     H   86   6.970   6.343   5.513 -1.9440  1.1942  3.1093
    1MOL0     H   87   6.796   6.278   5.666 -1.1168  0.5021  1.3904
    1MOL0     H   88   6.613   6.411   5.880  0.2595  0.9461  1.1406
    1MOL0     H   89   6.688   6.429   6.033 -2.2702  0.1939 -0.1680
    1MOL0     H   90   6.548   6.236   6.022 -0.6585 -0.2461 -0.7233
    1MOL0     H   91   6.631   6.172   5.885 -0.6545 -0.5372  0.0861
    1MOL0     H   92   6.694   6.069   6.108 -1.1870  1.4605  1.1459
    1MOL0     H   93   6.818   6.103   5.993 -2.5259 -0.3415 -1.3887
    1MOL0     H   94   6.886   6.151   6.230 -1.4436 -0.8984  0.5770
    1MOL0     H   95   6.919   6.281   6.110  0.3640 -1.3462 -2.6963
    1MOL0     H   96   6.681   6.550   6.244  0.6501 -2.6615 -0.4449
    1MOL0     H   97   6.736   6.844   6.403 -0.1414  0.9482 -0.5459
    1MOL0     H   98   6.682   6.778   6.253 -2.4385 -0.0679  2.1302
    1MOL0     H   99   6.845   6.833   6.249  1.6132  1.7790  2.3156
    1MOL0     H  100   7.081   6.868   6.730 -1.8894  1.5523 -4.1877
    1MOL0     H  101   7.196   7.037   6.848  3.5907 -0.7437  1.3462
    1MOL0     H  102   7.474   7.242   6.623  2.8369 -0.1170  0.7331
    1MOL0     H  103   7.329   7.288   6.723 -0.1729 -0.2462 -1.2062
    1MOL0     H  104   7.489   7.356   6.911 -0.2412  1.9804  0.6199
    1MOL0     H  105   7.630   7.324   6.793  0.6954  0.8959 -1.5641
    1MOL0     H  106   7.410   7.536   6.779 -1.8499 -2.4098 -2.2910
    1MOL0     H  107   7.511   7.493   6.635 -2.4185  1.3428  0.2390
    1MOL0     H  108   7.624   7.609   6.901  1.7681  2.3407  0.1591
    1MOL0     H  109   7.597   7.699   6.745  1.2408  0.1710 -0.2425
    1MOL0     H  110   7.787   7.475   6.784  3.3958  0.5884 -2.9334
    1MOL0     H  111   7.754   7.572   6.649 -0.0533 -2.6252  1.1645
    1MOL0     H  112   7.848   7.685   6.916  1.6896  1.0615 -0.6370
    1MOL0     H  113   7.803   7.770   6.766  1.1945  0.1038 -2.0089
    1MOL0     H  114   8.047   7.747   6.817  2.9349 -1.5639  0.3111
    1MOL0     H  115   8.003   7.689   6.650 -1.8316  0.5874 -0.7083
    1MOL0     H  116   8.184   7.554   6.760 -0.0536 -1.5367  0.1295
    1MOL0     H  117   8.031   7.461   6.763 -0.8665  1.0321 -0.5301
    1MOL0     H  118   7.544   6.966   6.611  0.2741  0.5313  0.4860
    1MOL0     H  119   7.426   6.801   6.478  0.5354  1.1738  0.7848
    1MOL0     H  120   7.108   6.495   6.483 -0.9429  0.0398  0.0295
    1MOL0     H  121   6.990   6.301   6.395 -2.4242 -0.6117  2.4784
    1MOL0     H  122   6.358   5.726   5.680  2.1449  0.5536 -0.6461
    1MOL0     H  123   6.125   5.814   5.717  0.1318  0.0400  0.1939
    1MOL0     H  124   5.761   5.706   5.969  0.9688  0.3819 -2.9031
    1MOL0     H  125   5.510   5.767   5.995 -0.8276  0.6288 -0.3517
    1MOL0     H  126   5.215   5.972   5.997 -0.6715  0.5674  1.4250
    1MOL0     H  127   5.317   5.826   5.970  1.9355 -0.8746  1.5938
    1MOL0     H  128   5.328   6.025   6.206  1.0578  0.6544 -1.9697
    1MOL0     H  129   5.414   5.876   6.203  0.1208 -2.0932 -1.7122
    1MOL0     H  130   5.107   5.904   6.184 -1.3796 -1.4104 -0.3126
    1MOL0     H  131   5.201   5.752   6.182 -1.2872  1.3193 -1.5202
    1MOL0     H  132   5.207   5.932   6.431  0.8574  1.4944 -1.5935
    1MOL0     H  133   5.268   5.765   6.404 -0.0133  0.0091 -1.9617
    1MOL0     H  134   4.860   5.718   6.488 -0.5416  0.2121 -2.1532
    1MOL0     H  135   5.588   6.167   5.903 -0.7211 -1.3511 -0.0832
    1MOL0     H  136   5.913   6.131   5.810 -0.5476 -2.4612 -0.4473
    1MOL0     H  137   5.793   6.244   5.867  0.2708 -0.1195  0.0382
    1MOL0     H  138   5.924   6.181   5.982  1.6936  0.0988 -2.6579
    2MOL0     O  139   0.870   6.516   2.350 -0.0545 -1.0356  0.0192
    2MOL0     C  140   0.838   6.626   2.398 -0.2264 -0.5570  0.2578
    2MOL0     O  141   0.922   6.710   2.458 -0.6020 -0.4186  0.6022
    2MOL0     C  142   1.051   6.684   2.495  0.1259  0.3255  0.3963
    2MOL0     C  143   1.089   6.563   2.562 -0.4968 -0.7565  0.2355
    2MOL0     C  144   1.226   6.541   2.599 -0.2472 -0.0171  0.5444
    2MOL0     C  145   1.321   6.645   2.586  0.1795 -0.4298  0.0788
    2MOL0     O  146   1.451   6.643   2.635 -0.1785 -0.2289 -0.7639
    2MOL0     C  147   1.504   6.516   2.692  0.0388  1.1682 -0.5413
    2MOL0     C  148   1.650   6.529   2.693 -0.4940  0.6951 -1.0441
    2MOL0     C  149   1.715   6.479   2.570  0.4320 -0.0858 -0.0377
    2MOL0     C  150   1.708   6.578   2.444 -0.7166 -0.1216  0.5326
    2MOL0     C  151   1.801   6.516   2.330  0.6081  0.1168 -0.0659
    2MOL0     C  152   1.949   6.506   2.358  0.1042  0.1203 -0.4047
    2MOL0     C  153   2.016   6.634   2.411  0.0485 -0.6529  0.1564
    2MOL0     C  154   2.167   6.623   2.437  0.5832 -0.4417 -0.0663
    2MOL0     N  155   2.192   6.502   2.515 -0.1761  1.0271  0.4286
    2MOL0     C  156   2.263   6.390   2.483  0.1304  0.4150 -0.9391
    2MOL0     C  157   2.255   6.319   2.602 -0.4574  0.7599  0.7449
    2MOL0     C  158   2.315   6.183   2.621  0.0019  0.2095 -0.0425
    2MOL0     C  159   2.289   6.082   2.502  0.3948 -0.7119  0.0118
    2MOL0     C  160   2.334   5.948   2.540 -0.4205  0.2790 -0.8873
    2MOL0     C  161   2.312   5.843   2.421  0.2450 -0.0480 -0.0537
    2MOL0     O  162   2.417   5.843   2.322 -0.2510 -0.6395  0.4280
    2MOL0     C  163   2.541   5.857   2.364 -1.2636 -0.0134 -0.0051
    2MOL0     C  164   2.638   5.930   2.295 -0.0423 -0.6399 -1.1169
    2MOL0     C  165   2.772   5.937   2.322 -0.3389 -0.4603  0.1646
    2MOL0     C  166   2.861   6.015   2.226 -0.4848 -0.0966  0.7141
    2MOL0     C  167   2.827   5.860   2.425 -0.5384  0.0483  0.7637
    2MOL0     C  168   2.974   5.860   2.461  0.9758  0.3480  0.3275
    2MOL0     O  169   3.005   5.744   2.533  0.4830 -0.2901 -0.3870
    2MOL0     C  170   3.134   5.717   2.570 -0.4371 -0.8121  0.8779
    2MOL0     C  171   3.150   5.686   2.705  0.9112 -0.1838  0.0691
    2MOL0     C  172   3.271   5.656   2.759  0.1312 -0.2461  0.0775
    2MOL0     C  173   3.384   5.660   2.678 -0.2450  1.1809  0.2167
    2MOL0     O  174   3.504   5.615   2.740 -0.8258 -0.2719 -0.1384
    2MOL0     C  175   3.619   5.620   2.649  0.0568  0.7542  0.3294
    2MOL0     C  176   3.734   5.543   2.731 -0.2721  0.0745 -0.5026
    2MOL0     C  177   3.851   5.481   2.650  0.8297 -0.7200  0.7080
    2MOL0     C  178   3.925   5.582   2.553  0.2681  0.9566 -0.4188
    2MOL0     C  179   4.052   5.525   2.477  0.0510 -0.0306  0.4275
    2MOL0     C  180   4.010   5.424   2.374 -0.6803  0.0892  0.0369
    2MOL0     C  181   4.127   5.346   2.332 -0.5631 -0.6680 -0.6700
    2MOL0     C  182   4.095   5.220   2.258  0.2228 -0.5825 -0.3644
    2MOL0    Cl  183   4.249   5.128   2.228 -0.1685  0.1939  0.5681
    2MOL0     C  184   3.370   5.687   2.539 -0.6016  0.1154 -0.2688
    2MOL0     C  185   3.244   5.720   2.487 -0.0324 -0.1087  0.3936
    2MOL0     O  186   3.046   5.950   2.421 -0.1088  0.3107 -0.5813
    2MOL0     C  187   2.729   5.772   2.496 -0.4074 -0.6586 -0.1435
    2MOL0     C  188   2.594   5.772   2.462 -0.7997  0.2678  0.7740
    2MOL0     N  189   2.173   6.381   2.692 -0.5084 -0.2073 -0.2369
    2MOL0     N  190   2.141   6.493   2.641 -0.6170  0.0653 -0.0380
    2MOL0     C  191   1.277   6.757   2.524 -0.3871 -0.6520  0.2228
    2MOL0     C  192   1.145   6.783   2.479 -1.0590  0.1389  0.3855
    2MOL0     C  193   0.700   6.659   2.382 -0.0811 -0.1124 -0.5348
    2MOL0     C  194   0.668   6.793   2.357 -1.1415 -0.0599  0.5577
    2MOL0     C  195   0.541   6.835   2.356 -0.3423 -0.0707 -0.3670
    2MOL0     C  196   0.436   6.742   2.365  0.5683 -0.0240  0.4951
    2MOL0     O  197   0.314   6.811   2.357  0.6205 -0.3340 -0.2747
    2MOL0     C  198   0.194   6.739   2.392  1.2346  0.5047 -0.4818
    2MOL0     C  199   0.195   6.719   2.541  0.1535  0.1670 -0.6223
    2MOL0     C  200   0.060   6.680   2.590 -0.1016  0.0053 -0.6039
    2MOL0     C  201  -0.020   6.805   2.641  0.1964  0.0536  0.0788
    2MOL0     C  202   0.024   6.850   2.771 -0.1100  1.3249  0.1143
    2MOL0     C  203   0.054   6.910   2.873  1.0131  0.5226  0.1730
    2MOL0     C  204   0.461   6.605   2.392  0.1440  0.2895 -0.2825
    2MOL0     C  205   0.596   6.562   2.405  0.6571 -0.0593  0.3796
    2MOL0     C  206   0.609   6.410   2.436 -0.2118  0.0266 -0.3508
    2MOL0     H  207   1.024   6.476   2.561 -1.9042  0.2396 -1.9765
    2MOL0     H  208   1.235   6.443   2.645 -5.8826 -1.1362 -0.0456
    2MOL0     H  209   1.464   6.424   2.649  0.4365  0.4823  0.5090
    2MOL0     H  210   1.464   6.516   2.794  1.1626  1.5339 -0.0891
    2MOL0     H  211   1.669   6.635   2.711 -0.2986  0.7173 -1.3616
    2MOL0     H  212   1.686   6.463   2.773 -2.5695 -1.1728 -1.5652
    2MOL0     H  213   1.819   6.472   2.601  1.2739  0.9813 -2.3830
    2MOL0     H  214   1.682   6.378   2.543  0.5299 -0.8496  2.4313
    2MOL0     H  215   1.609   6.599   2.404  0.5068  3.1275 -1.1328
    2MOL0     H  216   1.754   6.674   2.470  1.9473 -0.0891 -3.4016
    2MOL0     H  217   1.787   6.586   2.248  0.2770  0.0173 -0.0981
    2MOL0     H  218   1.775   6.415   2.297 -0.3552  0.3042  0.0891
    2MOL0     H  219   1.963   6.421   2.425  0.6869  0.0140 -0.6564
    2MOL0     H  220   1.993   6.477   2.262 -0.9291  1.0376 -1.1825
    2MOL0     H  221   1.970   6.654   2.509 -0.3079 -0.3395 -0.0694
    2MOL0     H  222   2.001   6.719   2.344 -1.2021 -1.3450 -0.4683
    2MOL0     H  223   2.231   6.617   2.349  0.6640 -0.4908 -0.0051
    2MOL0     H  224   2.202   6.705   2.501  0.6329 -0.1132 -0.5110
    2MOL0     H  225   2.315   6.368   2.390  0.5038  4.3942 -1.8338
    2MOL0     H  226   2.289   6.149   2.722  2.4627  0.9095  0.9034
    2MOL0     H  227   2.421   6.210   2.632 -0.5973  3.6049 -1.3438
    2MOL0     H  228   2.182   6.076   2.481  0.3428 -2.4877  0.6820
    2MOL0     H  229   2.346   6.112   2.413 -1.3686 -0.4638 -1.0833
    2MOL0     H  230   2.438   5.945   2.575 -0.8578 -0.4549  0.3803
    2MOL0     H  231   2.264   5.913   2.615  3.2226 -0.8123  2.3395
    2MOL0     H  232   2.322   5.739   2.454  0.5156  0.5871  1.9805
    2MOL0     H  233   2.218   5.866   2.371 -0.2370 -1.5956  0.0840
    2MOL0     H  234   2.592   5.981   2.210  2.2183  3.4772 -0.1318
    2MOL0     H  235   2.915   6.100   2.267 -0.3506 -0.2871  0.9338
    2MOL0     H  236   2.802   6.053   2.142 -0.1503 -2.0632 -0.4652
    2MOL0     H  237   2.932   5.948   2.177  0.4201  1.1236  0.3158
    2MOL0     H  238   3.066   5.699   2.772 -0.6141  3.0928 -2.2273
    2MOL0     H  239   3.270   5.621   2.861 -1.5139 -1.8783 -0.4339
    2MOL0     H  240   3.596   5.560   2.561  1.1217  0.0706  0.4955
    2MOL0     H  241   3.653   5.722   2.628  1.7881  0.2591  0.5035
    2MOL0     H  242   3.765   5.613   2.809 -1.8219  1.1385 -0.7924
    2MOL0     H  243   3.690   5.468   2.797 -1.8197  2.1251  0.9535
    2MOL0     H  244   3.811   5.398   2.591  2.0090  0.1724 -1.4812
    2MOL0     H  245   3.919   5.431   2.720  0.5075  0.0982  1.6351
    2MOL0     H  246   3.967   5.671   2.600  0.6135  0.5145  0.1127
    2MOL0     H  247   3.850   5.614   2.480 -1.4502  1.2031  1.3558
    2MOL0     H  248   4.116   5.601   2.431 -1.1316 -1.0220 -3.1707
    2MOL0     H  249   4.111   5.473   2.553  0.0137  0.3354  0.7108
    2MOL0     H  250   3.957   5.470   2.290 -1.1779  4.9475  2.6470
    2MOL0     H  251   3.951   5.347   2.423 -0.0719 -0.7751 -0.5626
    2MOL0     H  252   4.187   5.332   2.422 -1.8917 -0.0453  0.3426
    2MOL0     H  253   4.191   5.401   2.262 -1.1239  2.3249  1.0131
    2MOL0     H  254   4.041   5.231   2.164  0.2578  0.5661 -0.2585
    2MOL0     H  255   4.035   5.156   2.323 -3.9377  0.4206 -2.8184
    2MOL0     H  256   3.455   5.676   2.472 -0.3946  3.3110 -0.6581
    2MOL0     H  257   3.241   5.742   2.381  2.0930 -0.5242  0.2059
    2MOL0     H  258   2.752   5.696   2.570 -0.1768 -0.8917 -0.4519
    2MOL0     H  259   2.525   5.705   2.512 -1.8388 -0.3647 -1.3954
    2MOL0     H  260   1.348   6.837   2.503  1.3689 -2.7164 -2.3765
    2MOL0     H  261   1.122   6.879   2.433  2.0483  1.1497  0.6966
    2MOL0     H  262   0.742   6.872   2.342 -0.9709 -0.1525  0.9023
    2MOL0     H  263   0.528   6.940   2.330  1.9262  0.6874  1.2277
    2MOL0     H  264   0.104   6.794   2.362 -0.8860 -2.3118  0.3476
    2MOL0     H  265   0.174   6.644   2.342  0.3850  0.5241 -0.1953
    2MOL0     H  266   0.224   6.813   2.587 -0.5193  0.2762 -0.4158
    2MOL0     H  267   0.270   6.641   2.563 -0.3722 -0.7990 -2.0747
    2MOL0     H  268   0.003   6.635   2.508 -2.6391  2.5184 -0.3583
    2MOL0     H  269   0.061   6.602   2.667 -1.1707  0.4362 -0.1444
    2MOL0     H  270  -0.125   6.778   2.656  0.8527 -1.5912  2.2270
    2MOL0     H  271  -0.015   6.881   2.562 -1.9796 -2.2250 -2.4277
    2MOL0     H  272   0.083   6.978   2.950  1.3467 -0.3155  0.7997
    2MOL0     H  273   0.373   6.545   2.410 -0.5773  1.2273 -0.5758
    2MOL0     H  274   0.692   6.385   2.503 -1.0452  0.4969  0.9103
    2MOL0     H  275   0.514   6.384   2.484 -0.9774  2.4692 -0.3784
    2MOL0     H  276   0.627   6.346   2.349  1.7807  1.0711 -0.7788
    3MOL0     O  277   0.041   2.575   5.821 -0.1010 -0.4174  0.6565
    3MOL0     C  278  -0.058   2.555   5.753  1.0544  0.0537  0.2090
    3MOL0     O  279  -0.108   2.631   5.651  0.5148  0.1236  0.1812
    3MOL0     C  280  -0.024   2.713   5.582 -0.4893 -0.4372  0.7174
    3MOL0     C  281  -0.080   2.818   5.510 -0.2220  0.0540 -0.1378
    3MOL0     C  282  -0.009   2.905   5.425 -0.0598  0.4468  0.6064
    3MOL0     C  283   0.121   2.869   5.389  1.0661 -1.3191 -0.9238
    3MOL0     O  284   0.192   2.940   5.297  0.4662 -0.4002 -0.0300
    3MOL0     C  285   0.178   3.080   5.281 -0.3106 -0.0614  0.3321
    3MOL0     C  286   0.306   3.142   5.216  0.3559  0.7576 -0.4962
    3MOL0     C  287   0.315   3.101   5.065  0.5570 -0.3004 -0.8513
    3MOL0     C  288   0.417   3.189   4.994  0.1090  0.2352 -1.1017
    3MOL0     C  289   0.398   3.175   4.844  0.5835 -0.4087  0.2487
    3MOL0     C  290   0.504   3.251   4.766  1.3154  0.1651  0.0922
    3MOL0     C  291   0.644   3.201   4.799 -0.3452 -0.0542 -0.4512
    3MOL0     C  292   0.734   3.234   4.681 -0.7495  0.7169  1.5980
    3MOL0     N  293   0.859   3.159   4.662  0.4354  0.4433  0.0884
    3MOL0     C  294   0.951   3.125   4.767  0.8441  0.5912 -0.3849
    3MOL0     C  295   1.037   3.039   4.716 -0.2030 -0.1645  0.2715
    3MOL0     C  296   1.149   2.981   4.788 -0.1920 -0.6621 -0.4032
    3MOL0     C  297   1.136   2.824   4.826  0.1752 -0.1718 -0.4999
    3MOL0     C  298   1.271   2.782   4.887  0.8501 -0.3065  0.0311
    3MOL0     C  299   1.257   2.631   4.931  0.2929  0.5624  0.6671
    3MOL0     O  300   1.340   2.606   5.046 -0.1418 -0.6908  0.3807
    3MOL0     C  301   1.481   2.623   5.033  0.5027 -0.4483  0.2378
    3MOL0     C  302   1.554   2.619   4.912  0.0239 -0.7062 -0.6542
    3MOL0     C  303   1.698   2.651   4.915  0.1545  0.2171  0.1950
    3MOL0     C  304   1.778   2.651   4.791 -0.1865 -0.0518  0.1600
    3MOL0     C  305   1.760   2.683   5.038 -0.9672 -0.3758 -0.1067
    3MOL0     C  306   1.912   2.700   5.071 -0.2299 -0.6868  0.0748
    3MOL0     O  307   1.957   2.675   5.202  0.4566 -0.5185 -0.1560
    3MOL0     C  308   2.088   2.664   5.234 -0.5541 -0.0243 -0.5324
    3MOL0     C  309   2.119   2.676   5.366  0.1191  0.2006 -0.6932
    3MOL0     C  310   2.252   2.665   5.407  1.1370  0.6662  0.4124
    3MOL0     C  311   2.353   2.625   5.323  0.1616  0.3829 -0.1895
    3MOL0     O  312   2.469   2.611   5.384 -0.6011 -0.1893  0.6984
    3MOL0     C  313   2.596   2.659   5.327 -0.6388 -0.8413  0.1718
    3MOL0     C  314   2.689   2.711   5.434  0.2685 -0.1686 -0.3965
    3MOL0     C  315   2.788   2.814   5.377 -0.8208 -0.5870 -0.4890
    3MOL0     C  316   2.886   2.858   5.490  0.7507 -0.1408 -0.8887
    3MOL0     C  317   2.975   2.977   5.438  0.7028  0.3307  0.1496
    3MOL0     C  318   3.047   3.040   5.562  0.0152  1.0968  0.0289
    3MOL0     C  319   3.072   3.192   5.543 -0.0013 -0.5972  0.3191
    3MOL0     C  320   3.164   3.243   5.659  0.2014 -0.1079  0.5926
    3MOL0    Cl  321   3.099   3.222   5.823  0.4238 -0.4884  0.1510
    3MOL0     C  322   2.318   2.616   5.186 -0.2716  0.1596 -0.3297
    3MOL0     C  323   2.188   2.643   5.141 -0.0624 -0.3290  0.7523
    3MOL0     O  324   1.975   2.764   4.994 -0.2102 -0.4013 -0.0982
    3MOL0     C  325   1.677   2.691   5.151  0.1240 -0.1864 -0.2878
    3MOL0     C  326   1.542   2.654   5.148 -0.3587 -0.3365  0.0754
    3MOL0     N  327   1.000   3.006   4.582  0.0291 -0.2612 -0.3986
    3MOL0     N  328   0.895   3.077   4.558 -0.6852 -0.8792 -0.4331
    3MOL0     C  329   0.184   2.760   5.461  0.2348 -0.0460  0.3749
    3MOL0     C  330   0.109   2.682   5.549  0.0846  0.0706 -0.2092
    3MOL0     C  331  -0.155   2.444   5.796 -1.2020 -0.4248  0.0296
    3MOL0     C  332  -0.280   2.442   5.737 -0.1720  0.0106  0.2988
    3MOL0     C  333  -0.377   2.352   5.772  0.0004  0.6168 -0.2408
    3MOL0     C  334  -0.342   2.237   5.840  0.0505  0.5110 -0.2873
    3MOL0     O  335  -0.439   2.146   5.864 -0.3041 -0.3806 -0.2648
    3MOL0     C  336  -0.403   2.004   5.831 -0.3720  0.3341  0.8557
    3MOL0     C  337  -0.521   1.939   5.749 -0.0799  0.8436  0.1402
    3MOL0     C  338  -0.551   2.012   5.624 -1.1718 -0.4684 -0.8814
    3MOL0     C  339  -0.664   1.962   5.542 -0.4286 -0.2594  0.1233
    3MOL0     C  340  -0.642   1.829   5.484  0.0509 -0.6152 -0.5509
    3MOL0     C  341  -0.609   1.728   5.422 -0.3134 -0.5169  0.0984
    3MOL0     C  342  -0.211   2.226   5.885  0.4496 -0.3755 -0.5645
    3MOL0     C  343  -0.118   2.331   5.875  0.2102 -0.7434  0.4008
    3MOL0     C  344   0.012   2.308   5.942  0.2256 -0.0332  0.0541
    3MOL0     H  345  -0.183   2.842   5.536 -0.1095  0.1589  0.2183
    3MOL0     H  346  -0.056   2.997   5.392 -1.7862 -0.9127 -0.9146
    3MOL0     H  347   0.174   3.130   5.378  0.3356  1.1927 -0.2563
    3MOL0     H  348   0.088   3.113   5.227  0.3316 -1.2107 -1.5072
    3MOL0     H  349   0.306   3.251   5.222 -0.9922  0.7352  0.5589
    3MOL0     H  350   0.390   3.098   5.272 -0.6675 -1.4824 -0.5966
    3MOL0     H  351   0.345   2.996   5.052 -1.6268 -1.2904  1.3211
    3MOL0     H  352   0.222   3.103   5.009  1.9866 -4.0200 -3.7418
    3MOL0     H  353   0.414   3.294   5.024 -0.3846 -0.3042  0.8777
    3MOL0     H  354   0.508   3.140   5.029 -0.7188 -0.6236 -0.0515
    3MOL0     H  355   0.300   3.206   4.808  0.8852 -1.0140 -1.1703
    3MOL0     H  356   0.399   3.066   4.829 -3.8198 -0.4269 -1.3603
    3MOL0     H  357   0.479   3.238   4.660  0.3823 -0.4867  0.3688
    3MOL0     H  358   0.487   3.359   4.771 -1.5578 -0.2698  2.4117
    3MOL0     H  359   0.648   3.093   4.820 -1.4283  0.1883  1.1187
    3MOL0     H  360   0.696   3.249   4.882  0.9934  2.4087 -2.5721
    3MOL0     H  361   0.677   3.205   4.593 -1.0941 -1.7382  2.5385
    3MOL0     H  362   0.751   3.342   4.675  0.9760  0.4570  1.0286
    3MOL0     H  363   0.941   3.150   4.872 -2.1271 -4.5393  0.9086
    3MOL0     H  364   1.176   3.033   4.881  1.9027 -1.3414 -0.5690
    3MOL0     H  365   1.232   2.998   4.719  0.1005 -0.0024  0.0969
    3MOL0     H  366   1.052   2.808   4.895  0.1702  1.1571 -0.1672
    3MOL0     H  367   1.112   2.764   4.738  2.2863 -1.8957  0.0031
    3MOL0     H  368   1.354   2.801   4.817 -0.2650  2.0818 -0.7482
    3MOL0     H  369   1.297   2.843   4.974  0.8056  0.2426 -0.3298
    3MOL0     H  370   1.154   2.616   4.966 -0.1574  2.4563  0.2593
    3MOL0     H  371   1.271   2.555   4.854 -2.2789  1.1678 -0.5232
    3MOL0     H  372   1.503   2.603   4.817 -1.1478 -0.8146 -0.0146
    3MOL0     H  373   1.740   2.588   4.710  3.1947 -1.2159 -0.6755
    3MOL0     H  374   1.875   2.608   4.816 -0.0048 -0.0575 -0.5296
    3MOL0     H  375   1.789   2.759   4.774  1.2420 -0.4268 -1.6065
    3MOL0     H  376   2.032   2.699   5.426 -1.2449  1.5733 -3.0140
    3MOL0     H  377   2.263   2.668   5.515 -2.8412  0.2958  1.0041
    3MOL0     H  378   2.647   2.583   5.268 -0.1887 -1.2982  1.1334
    3MOL0     H  379   2.578   2.743   5.259  2.6965  2.1796  2.6519
    3MOL0     H  380   2.633   2.755   5.517 -0.8707 -0.0375 -1.2051
    3MOL0     H  381   2.743   2.623   5.470  0.4937  0.1440  0.0326
    3MOL0     H  382   2.745   2.912   5.353 -1.1698 -0.4655  0.5672
    3MOL0     H  383   2.845   2.769   5.296  2.3043 -1.2018  1.8750
    3MOL0     H  384   2.944   2.768   5.510  2.7036  0.4105 -3.4808
    3MOL0     H  385   2.830   2.888   5.579  2.9748  1.0508  0.2108
    3MOL0     H  386   3.051   2.943   5.368  0.1838  1.3725 -0.9543
    3MOL0     H  387   2.918   3.050   5.380  1.9665  1.7305  0.6137
    3MOL0     H  388   3.139   2.984   5.581 -0.0964  0.5462 -0.9609
    3MOL0     H  389   2.989   3.035   5.655  1.4539  1.6337  0.9752
    3MOL0     H  390   2.976   3.245   5.550 -1.0675 -2.4112  0.1278
    3MOL0     H  391   3.114   3.215   5.445 -2.8603  0.5615 -0.7396
    3MOL0     H  392   3.178   3.350   5.643 -1.1340 -0.2036 -1.7367
    3MOL0     H  393   3.257   3.186   5.649 -0.4815 -1.1894  0.1486
    3MOL0     H  394   2.384   2.592   5.102  0.0649 -0.2595  0.0490
    3MOL0     H  395   2.167   2.634   5.035  0.6457 -0.1510  0.5897
    3MOL0     H  396   1.725   2.714   5.245 -0.1972 -0.1111 -0.1401
    3MOL0     H  397   1.481   2.648   5.238  0.3155  0.2755  0.5799
    3MOL0     H  398   0.283   2.739   5.422  0.1449 -0.2408  0.2479
    3MOL0     H  399   0.138   2.584   5.586 -2.8262 -0.1031  1.9767
    3MOL0     H  400  -0.322   2.514   5.669  2.3756 -1.1305 -2.7128
    3MOL0     H  401  -0.482   2.362   5.744  0.1061  0.1997 -0.8000
    3MOL0     H  402  -0.309   1.987   5.779  1.1033  0.4596  3.3317
    3MOL0     H  403  -0.402   1.945   5.923  1.0683 -0.7959  0.1429
    3MOL0     H  404  -0.614   1.944   5.807 -1.8854  0.6161 -2.5658
    3MOL0     H  405  -0.503   1.833   5.734 -0.1576  0.8598 -0.0719
    3MOL0     H  406  -0.551   2.120   5.641  1.2046 -0.7594  1.9071
    3MOL0     H  407  -0.464   2.009   5.558 -1.4731  0.9488 -1.3780
    3MOL0     H  408  -0.688   2.026   5.456 -1.1706 -3.9348 -2.6790
    3MOL0     H  409  -0.761   1.957   5.593 -0.9383 -0.8084 -0.8673
    3MOL0     H  410  -0.568   1.640   5.376  0.6154 -0.4664  0.8044
    3MOL0     H  411  -0.202   2.138   5.947 -4.3972 -0.8830 -0.2266
    3MOL0     H  412   0.090   2.307   5.865  1.3272  2.3187  1.0171
    3MOL0     H  413   0.032   2.392   6.010 -3.0748  2.6188 -1.9545
    3MOL0     H  414   0.025   2.214   5.997  1.1755 -0.6506 -1.1665
    4MOL0     O  415   4.775   4.762   1.019  0.1722 -0.7698 -0.6098
    4MOL0     C  416   4.858   4.668   1.007  0.9244  1.0656  0.2236
    4MOL0     O  417   4.821   4.533   1.023  0.6749  0.2551 -0.1049
    4MOL0     C  418   4.689   4.490   1.021 -0.1670 -0.9443  0.3570
    4MOL0     C  419   4.581   4.552   0.952 -0.0839  0.6470  0.1967
    4MOL0     C  420   4.459   4.483   0.947 -0.4128 -0.2349  0.0365
    4MOL0     C  421   4.445   4.364   1.020  1.0567 -0.0590 -0.4914
    4MOL0     O  422   4.329   4.294   1.036  0.8208  0.0774 -0.7918
    4MOL0     C  423   4.201   4.359   1.046 -0.1953 -0.2172 -0.4733
    4MOL0     C  424   4.093   4.252   1.042 -0.2339  1.6185 -0.1162
    4MOL0     C  425   3.954   4.308   1.078 -0.1805 -0.5227 -0.1472
    4MOL0     C  426   3.938   4.351   1.227 -0.3771 -0.3357 -0.7681
    4MOL0     C  427   3.799   4.410   1.250  0.3832 -0.1847  0.5441
    4MOL0     C  428   3.779   4.487   1.380 -0.0630  0.2249  0.7352
    4MOL0     C  429   3.756   4.382   1.500  0.2328 -0.1233 -0.7147
    4MOL0     C  430   3.685   4.436   1.618 -0.1679  0.5773  0.8053
    4MOL0     N  431   3.786   4.508   1.699 -0.5418 -0.5212 -0.7612
    4MOL0     C  432   3.854   4.628   1.672 -0.0203 -0.2342 -0.8641
    4MOL0     C  433   3.906   4.667   1.798  0.5649  0.0723 -1.4284
    4MOL0     C  434   3.972   4.798   1.829  0.6931 -0.2271 -0.0527
    4MOL0     C  435   4.073   4.810   1.932 -0.6887  0.6656  0.4346
    4MOL0     C  436   4.107   4.957   1.951  0.0962 -0.4012 -0.5681
    4MOL0     C  437   4.156   5.039   1.834 -0.1691 -0.2931 -0.2280
    4MOL0     O  438   4.251   4.976   1.754 -0.4258  0.1821  0.8237
    4MOL0     C  439   4.378   4.970   1.806  0.6605 -0.4302  0.5266
    4MOL0     C  440   4.419   5.040   1.922 -0.4086  0.0858 -0.4201
    4MOL0     C  441   4.545   5.019   1.987 -0.3607 -0.1570  0.3336
    4MOL0     C  442   4.580   5.101   2.103  0.1778  0.1006  0.1292
    4MOL0     C  443   4.632   4.925   1.921 -0.7716 -0.3226  0.1587
    4MOL0     C  444   4.773   4.892   1.966  0.7815 -0.3816  0.0220
    4MOL0     O  445   4.791   4.875   2.099  0.1651  0.1710 -0.9792
    4MOL0     C  446   4.923   4.877   2.141  1.4580  0.1229  1.1589
    4MOL0     C  447   4.987   4.770   2.201 -0.4098 -0.4367  0.3471
    4MOL0     C  448   5.122   4.783   2.245  0.0625  0.4901  0.1036
    4MOL0     C  449   5.187   4.910   2.230  0.1054  0.2255 -0.7779
    4MOL0     O  450   5.317   4.927   2.259 -0.3186 -0.4405 -0.0207
    4MOL0     C  451   5.365   4.893   2.388  0.0876  0.3321  1.1116
    4MOL0     C  452   5.508   4.919   2.413  0.1794  1.2269 -0.1679
    4MOL0     C  453   5.560   5.036   2.350 -0.4449 -0.4298 -0.0786
    4MOL0     C  454   5.713   5.026   2.369  0.0609  0.1608 -0.1652
    4MOL0     C  455   5.790   5.127   2.282 -0.0204 -0.2451  0.2340
    4MOL0     C  456   5.843   5.077   2.150 -0.3136  0.8706  0.0351
    4MOL0     C  457   5.961   4.979   2.162 -0.3257 -0.0387 -0.1663
    4MOL0     C  458   6.028   4.959   2.023  0.0094  0.2762 -0.1866
    4MOL0    Cl  459   6.108   5.116   1.981 -0.3696 -0.0196  0.1405
    4MOL0     C  460   5.114   5.027   2.188 -0.2876  0.3872  0.4179
    4MOL0     C  461   4.982   5.003   2.141  0.0516  1.1516  0.9015
    4MOL0     O  462   4.867   4.889   1.881  0.6511 -0.6594  0.5888
    4MOL0     C  463   4.593   4.866   1.798  0.2880 -0.5173  0.7053
    4MOL0     C  464   4.473   4.895   1.738  0.0721 -0.3176 -0.1156
    4MOL0     N  465   3.870   4.574   1.894  0.1131  0.4575 -0.0701
    4MOL0     N  466   3.806   4.483   1.828  0.8266  0.4891  0.4608
    4MOL0     C  467   4.550   4.314   1.100  0.1530  0.4578 -0.1879
    4MOL0     C  468   4.669   4.380   1.103 -0.0871  0.0568  0.9860
    4MOL0     C  469   5.002   4.698   0.987 -0.9217  0.1592  0.3862
    4MOL0     C  470   5.094   4.604   1.041 -0.3857  0.1205  0.3696
    4MOL0     C  471   5.231   4.624   1.031 -0.5980 -0.9119 -0.4484
    4MOL0     C  472   5.280   4.736   0.958 -0.4414  0.9914  0.0532
    4MOL0     O  473   5.419   4.765   0.936 -0.2018  0.1376  0.2140
    4MOL0     C  474   5.532   4.699   0.987  0.2128 -0.5486  0.3026
    4MOL0     C  475   5.654   4.777   0.924 -0.2362 -0.4603 -0.8318
    4MOL0     C  476   5.672   4.920   0.979  0.6626  0.4922 -0.0595
    4MOL0     C  477   5.794   4.993   0.933 -0.2904 -0.4624 -0.3293
    4MOL0     C  478   5.806   5.007   0.796 -0.0328 -0.1910  0.2509
    4MOL0     C  479   5.829   5.017   0.679  0.1090 -0.2016 -0.3185
    4MOL0     C  480   5.190   4.826   0.901  0.5126 -0.0803  0.0359
    4MOL0     C  481   5.056   4.809   0.909 -0.0079  0.1446 -0.3076
    4MOL0     C  482   4.968   4.921   0.853  0.2765  0.6620 -0.1039
    4MOL0     H  483   4.593   4.652   0.911  0.2014  1.8357  2.9431
    4MOL0     H  484   4.376   4.516   0.886  1.9111  1.7503 -2.2868
    4MOL0     H  485   4.181   4.425   0.961 -1.2513 -1.3616 -1.1430
    4MOL0     H  486   4.193   4.413   1.141 -0.3991  0.5818 -0.9286
    4MOL0     H  487   4.080   4.212   0.941 -2.1711  3.7055 -0.7741
    4MOL0     H  488   4.113   4.170   1.111 -0.9373  0.2518 -1.4650
    4MOL0     H  489   3.913   4.390   1.017  2.1403  1.6762  1.0499
    4MOL0     H  490   3.886   4.224   1.066 -0.1510 -0.9206  2.0055
    4MOL0     H  491   3.972   4.282   1.305 -1.7402  1.3655  1.4359
    4MOL0     H  492   4.016   4.425   1.247 -2.2233  1.5779 -0.2517
    4MOL0     H  493   3.724   4.333   1.230  1.9074 -1.4510 -0.5077
    4MOL0     H  494   3.788   4.487   1.173  3.1362  0.4235  0.6746
    4MOL0     H  495   3.870   4.542   1.406  0.0803 -0.4358  1.6839
    4MOL0     H  496   3.688   4.546   1.382 -0.2225 -0.0279  1.4207
    4MOL0     H  497   3.853   4.344   1.532  0.0523 -0.9434 -1.1248
    4MOL0     H  498   3.700   4.295   1.464  0.9069 -1.2237  0.7962
    4MOL0     H  499   3.598   4.496   1.591 -0.4281  0.3541  1.1361
    4MOL0     H  500   3.650   4.347   1.673  1.0541  0.3680  1.2683
    4MOL0     H  501   3.883   4.681   1.581 -2.8862  1.5096 -0.8690
    4MOL0     H  502   3.887   4.857   1.864  1.1398 -0.7000  1.9720
    4MOL0     H  503   3.998   4.841   1.732 -2.6762  1.4946 -0.3371
    4MOL0     H  504   4.037   4.759   2.022 -0.6400 -0.6856 -0.3003
    4MOL0     H  505   4.167   4.762   1.902 -1.5214 -0.2181 -0.8131
    4MOL0     H  506   4.023   5.018   1.985  0.9782  0.4075  0.2398
    4MOL0     H  507   4.190   4.962   2.023  1.4690 -1.4647 -2.0042
    4MOL0     H  508   4.062   5.043   1.777 -1.1208 -1.1315  1.2337
    4MOL0     H  509   4.199   5.138   1.853  0.6965 -1.0439  2.0478
    4MOL0     H  510   4.352   5.106   1.975 -0.9452 -1.3231  0.7344
    4MOL0     H  511   4.522   5.194   2.105 -1.6314 -0.9913  1.6129
    4MOL0     H  512   4.688   5.113   2.115  0.1448 -1.1195  2.0007
    4MOL0     H  513   4.554   5.049   2.196  0.7777  3.1839  2.1927
    4MOL0     H  514   4.939   4.673   2.211  1.0810 -1.1638  0.6841
    4MOL0     H  515   5.176   4.695   2.278  0.2981 -0.0226 -1.5915
    4MOL0     H  516   5.312   4.963   2.453  0.1822  0.9443  0.5354
    4MOL0     H  517   5.339   4.792   2.422  1.7816  0.0677  1.6988
    4MOL0     H  518   5.523   4.935   2.520 -1.5822  0.9373  0.1606
    4MOL0     H  519   5.556   4.825   2.384 -2.2237  0.0040 -0.3983
    4MOL0     H  520   5.528   5.133   2.388 -0.2713 -1.1577  2.0528
    4MOL0     H  521   5.540   5.022   2.243 -1.2840  1.8276 -0.2671
    4MOL0     H  522   5.753   4.925   2.364 -0.4786 -0.2559  2.5681
    4MOL0     H  523   5.732   5.054   2.473  1.3322  1.1344 -0.6366
    4MOL0     H  524   5.714   5.204   2.266 -1.8180 -2.4001 -2.5935
    4MOL0     H  525   5.870   5.165   2.346  0.5968 -0.5214 -0.3742
    4MOL0     H  526   5.875   5.165   2.094 -0.4236  0.4665 -0.6761
    4MOL0     H  527   5.762   5.031   2.092  1.2117  0.8376 -2.1707
    4MOL0     H  528   5.924   4.886   2.206  1.5939 -0.0519  1.6104
    4MOL0     H  529   6.031   5.023   2.234 -1.8261 -0.8251  1.8783
    4MOL0     H  530   5.948   4.935   1.952  0.4714 -3.5202  0.3371
    4MOL0     H  531   6.101   4.878   2.023  2.2098  2.1090  2.0085
    4MOL0     H  532   5.147   5.130   2.200 -2.0871  1.3740 -2.1112
    4MOL0     H  533   4.942   5.097   2.104  0.9661  1.3208  0.3098
    4MOL0     H  534   4.666   4.799   1.753 -1.5053 -2.1248  0.0273
    4MOL0     H  535   4.445   4.847   1.645  0.1608  2.0144 -1.4222
    4MOL0     H  536   4.545   4.233   1.173 -2.1551  1.6017  1.0512
    4MOL0     H  537   4.751   4.335   1.158  0.2127  0.2356  0.6865
    4MOL0     H  538   5.054   4.519   1.095  1.3267  0.1630  1.8251
    4MOL0     H  539   5.305   4.562   1.081 -0.2315 -1.1483 -1.2638
    4MOL0     H  540   5.527   4.709   1.096  0.1750 -1.7422  0.4217
    4MOL0     H  541   5.540   4.597   0.950 -1.6709 -0.3695 -0.7421
    4MOL0     H  542   5.638   4.779   0.816  3.4481  4.0002 -1.6344
    4MOL0     H  543   5.736   4.708   0.945 -2.5689 -3.2133 -0.1909
    4MOL0     H  544   5.580   4.971   0.953  0.1141 -0.6659 -0.4763
    4MOL0     H  545   5.664   4.912   1.088 -3.6516 -3.0086 -0.3396
    4MOL0     H  546   5.887   4.952   0.973 -1.4543 -2.2046  0.7748
    4MOL0     H  547   5.783   5.096   0.968  3.9104 -0.6404  2.1401
    4MOL0     H  548   5.855   5.019   0.575  1.3260 -1.6055 -0.0810
    4MOL0     H  549   5.223   4.919   0.856 -2.6419  1.0410 -0.2754
    4MOL0     H  550   5.002   4.940   0.751  3.8721 -1.5145  0.5404
    4MOL0     H  551   4.866   4.881   0.843 -0.2316  0.7222  3.5852
    4MOL0     H  552   4.972   5.013   0.911  1.8248  1.0407 -0.7734
    5MOL0     O  553   1.726   6.570   0.358  0.0779 -0.8110 -1.5804
    5MOL0     C  554   1.642   6.655   0.395  0.4186  0.3098  0.9002
    5MOL0     O  555   1.663   6.791   0.386  0.0445 -0.3629  0.6887
    5MOL0     C  556   1.792   6.830   0.349  0.7700 -0.5751  0.4373
    5MOL0     C  557   1.892   6.800   0.437 -0.4643 -0.2090 -0.3819
    5MOL0     C  558   2.022   6.835   0.416  0.1864  0.2951  0.6837
    5MOL0     C  559   2.053   6.895   0.292  0.1007 -0.5191 -0.8645
    5MOL0     O  560   2.178   6.931   0.265  0.0774 -0.2430  0.0625
    5MOL0     C  561   2.236   7.025   0.348 -0.5382  0.8466  0.0062
    5MOL0     C  562   2.357   7.075   0.280 -0.2493  0.1645  0.5307
    5MOL0     C  563   2.459   7.138   0.376  1.0072 -0.0540 -0.3610
    5MOL0     C  564   2.561   7.213   0.296  0.2293 -0.0709 -0.8432
    5MOL0     C  565   2.680   7.256   0.386  1.0655 -0.1760  0.1743
    5MOL0     C  566   2.799   7.290   0.292 -0.1780 -0.5134  0.5537
    5MOL0     C  567   2.910   7.358   0.371 -0.7811  0.5782  0.5312
    5MOL0     C  568   3.015   7.404   0.266  0.5112 -0.5010  0.1759
    5MOL0     N  569   3.138   7.447   0.320 -0.1589  0.3389 -0.4597
    5MOL0     C  570   3.160   7.519   0.432 -0.0274  0.3918  0.0670
    5MOL0     C  571   3.293   7.541   0.437 -0.5578 -0.0599 -0.2760
    5MOL0     C  572   3.360   7.609   0.547  0.6580 -0.3818  0.0459
    5MOL0     C  573   3.316   7.764   0.554 -0.3992 -0.2003  1.1540
    5MOL0     C  574   3.411   7.855   0.639 -0.4964 -0.5525 -0.7965
    5MOL0     C  575   3.537   7.902   0.556 -0.0329 -0.1863 -0.1582
    5MOL0     O  576   3.607   7.790   0.497  0.5221 -0.1201  0.3471
    5MOL0     C  577   3.731   7.820   0.433  0.2409  0.4382  0.1310
    5MOL0     C  578   3.785   7.944   0.423 -0.4684 -0.2051  0.5407
    5MOL0     C  579   3.909   7.973   0.351 -0.6914  1.0306 -0.6293
    5MOL0     C  580   3.972   8.111   0.385  1.2943  0.2844  0.4911
    5MOL0     C  581   3.984   7.868   0.292  0.7894  0.2459 -0.4462
    5MOL0     C  582   4.111   7.884   0.225  1.3200 -0.4314 -0.5560
    5MOL0     O  583   4.184   7.773   0.209  0.4124 -0.3261  0.0255
    5MOL0     C  584   4.293   7.773   0.131  0.1785  0.0043  0.1287
    5MOL0     C  585   4.282   7.820  -0.004 -0.0878  0.1046  1.2401
    5MOL0     C  586   4.383   7.819  -0.095  0.1769  0.2740 -0.8319
    5MOL0     C  587   4.510   7.771  -0.045 -0.3765 -0.1948  0.4874
    5MOL0     O  588   4.618   7.752  -0.121  0.0399  0.7984 -0.3008
    5MOL0     C  589   4.637   7.845  -0.224 -0.3232 -0.5427 -0.2514
    5MOL0     C  590   4.753   7.805  -0.314  0.1524  0.4748  0.3698
    5MOL0     C  591   4.878   7.789  -0.233 -0.5673 -0.1893 -0.1959
    5MOL0     C  592   5.002   7.762  -0.320 -0.3489 -0.3008 -0.0520
    5MOL0     C  593   5.117   7.716  -0.231 -0.3402  0.0240  0.4441
    5MOL0     C  594   5.241   7.667  -0.319  0.6252 -0.3474 -0.6161
    5MOL0     C  595   5.354   7.623  -0.229 -0.1356 -0.4477 -0.0144
    5MOL0     C  596   5.479   7.586  -0.315  0.5198  0.0211  0.6050
    5MOL0    Cl  597   5.614   7.531  -0.211  0.0785  0.3820  0.0045
    5MOL0     C  598   4.521   7.732   0.080 -0.3717 -0.0737  0.3817
    5MOL0     C  599   4.417   7.730   0.174 -0.2487  0.4046  0.5482
    5MOL0     O  600   4.150   8.000   0.190  0.3809 -0.7175 -0.5278
    5MOL0     C  601   3.924   7.736   0.294 -0.0440 -0.0267  1.3677
    5MOL0     C  602   3.795   7.720   0.362 -1.1718 -0.0936 -0.4125
    5MOL0     N  603   3.345   7.477   0.330 -0.4667 -0.1862  0.0321
    5MOL0     N  604   3.255   7.418   0.253  0.5495 -0.9165 -0.6645
    5MOL0     C  605   1.955   6.938   0.203  0.1352 -0.7310  0.1052
    5MOL0     C  606   1.821   6.901   0.230 -0.6562  0.5384 -0.4990
    5MOL0     C  607   1.506   6.619   0.433 -0.3684 -0.1396 -0.8288
    5MOL0     C  608   1.403   6.714   0.443 -0.2896  0.2488  0.8265
    5MOL0     C  609   1.269   6.684   0.444 -0.9911 -0.5775  0.5190
    5MOL0     C  610   1.227   6.551   0.464 -0.7228 -0.1077 -0.5245
    5MOL0     O  611   1.088   6.532   0.483  0.1768 -0.4664  0.3951
    5MOL0     C  612   1.046   6.401   0.511 -0.0000  0.9729 -0.6989
    5MOL0     C  613   1.030   6.295   0.402 -0.7485 -0.0416  0.5518
    5MOL0     C  614   0.908   6.319   0.303  0.7398  0.3241 -0.0241
    5MOL0     C  615   0.775   6.347   0.374  0.9250  0.0181  0.1144
    5MOL0     C  616   0.729   6.257   0.473  0.2694  0.2071 -0.0255
    5MOL0     C  617   0.692   6.192   0.568  0.1488 -0.2124  0.8053
    5MOL0     C  618   1.331   6.456   0.478  0.7275 -0.5507  0.3584
    5MOL0     C  619   1.470   6.493   0.473  0.2324  0.0259 -0.3061
    5MOL0     C  620   1.559   6.378   0.502 -0.1832 -0.9722  0.5564
    5MOL0     H  621   1.866   6.752   0.531  0.7130  0.1829  0.1509
    5MOL0     H  622   2.094   6.808   0.493 -2.8539 -2.1667  2.9035
    5MOL0     H  623   2.266   6.986   0.446  1.3601  1.0628 -0.4651
    5MOL0     H  624   2.169   7.109   0.373 -2.3484 -0.1940 -1.1239
    5MOL0     H  625   2.409   6.992   0.230 -0.7500 -0.4815  1.0602
    5MOL0     H  626   2.323   7.145   0.203 -2.6462 -0.2499  1.1358
    5MOL0     H  627   2.405   7.195   0.452  0.8988  0.9364 -1.1591
    5MOL0     H  628   2.515   7.062   0.432 -0.6566  0.4289  2.0893
    5MOL0     H  629   2.599   7.153   0.213  1.5857  0.0722 -0.3510
    5MOL0     H  630   2.503   7.295   0.253 -0.6734 -0.5170 -0.4882
    5MOL0     H  631   2.712   7.184   0.463 -0.1841  3.0190  4.0250
    5MOL0     H  632   2.656   7.352   0.433  2.8851  0.3750  0.0502
    5MOL0     H  633   2.843   7.203   0.243  0.1782  1.4389 -3.0169
    5MOL0     H  634   2.760   7.357   0.214 -1.7812 -0.5742  1.2657
    5MOL0     H  635   2.951   7.287   0.444 -0.7827  0.3335  0.2975
    5MOL0     H  636   2.869   7.448   0.417 -0.8681  1.4511 -1.1788
    5MOL0     H  637   3.046   7.326   0.195  0.5403  1.5149 -2.1569
    5MOL0     H  638   2.981   7.492   0.211  2.8637  0.2727 -0.1562
    5MOL0     H  639   3.089   7.543   0.511  1.1145  1.8802  0.6831
    5MOL0     H  640   3.468   7.594   0.542  0.3637 -3.0683  0.5488
    5MOL0     H  641   3.338   7.554   0.640 -1.4660 -1.0448 -0.7807
    5MOL0     H  642   3.298   7.794   0.451 -1.2841 -3.0606  0.3895
    5MOL0     H  643   3.219   7.770   0.606 -1.0093  0.8052 -0.0564
    5MOL0     H  644   3.350   7.941   0.668  0.6895 -0.2330  0.8630
    5MOL0     H  645   3.447   7.794   0.722 -2.1991 -0.9508 -0.3037
    5MOL0     H  646   3.508   7.969   0.475 -2.2476 -0.0985  0.6499
    5MOL0     H  647   3.609   7.946   0.625  3.4706 -3.0946 -1.5714
    5MOL0     H  648   3.743   8.029   0.477  2.1494  0.5479  1.5788
    5MOL0     H  649   3.984   8.161   0.288 -1.9531 -1.1567 -0.8066
    5MOL0     H  650   4.063   8.099   0.445  1.3416 -0.3527  0.3013
    5MOL0     H  651   3.901   8.176   0.436 -0.8390 -2.3062  1.0105
    5MOL0     H  652   4.184   7.853  -0.036  0.2711 -1.1219 -1.3846
    5MOL0     H  653   4.362   7.858  -0.195 -1.7213  0.8265 -0.2712
    5MOL0     H  654   4.552   7.847  -0.294 -0.7320  0.3156  0.2556
    5MOL0     H  655   4.650   7.944  -0.179 -0.4918 -0.4856 -0.3264
    5MOL0     H  656   4.733   7.709  -0.364 -1.0386  1.4068 -1.0581
    5MOL0     H  657   4.770   7.873  -0.398  0.3584 -0.3870 -0.2931
    5MOL0     H  658   4.854   7.710  -0.162 -3.9533 -0.5401 -1.5637
    5MOL0     H  659   4.895   7.880  -0.174  1.1170 -0.9570  0.5588
    5MOL0     H  660   5.035   7.845  -0.383  0.5897 -1.4489 -1.1177
    5MOL0     H  661   4.983   7.678  -0.387  0.0697 -2.4396  2.3723
    5MOL0     H  662   5.142   7.800  -0.165 -1.5953  1.9774 -1.3995
    5MOL0     H  663   5.086   7.624  -0.180  1.0249 -1.3646 -1.1291
    5MOL0     H  664   5.265   7.742  -0.396  0.4379  1.6921  1.1968
    5MOL0     H  665   5.217   7.573  -0.368  1.1962 -0.6340 -0.3429
    5MOL0     H  666   5.320   7.530  -0.181  1.0337 -1.2757 -0.7353
    5MOL0     H  667   5.376   7.696  -0.150 -0.3292 -0.7923  0.3666
    5MOL0     H  668   5.508   7.667  -0.382 -0.7210 -0.5023 -0.6225
    5MOL0     H  669   5.446   7.503  -0.379  0.1020  1.9354 -1.8052
    5MOL0     H  670   4.616   7.682   0.098  0.5552  2.0475  1.8027
    5MOL0     H  671   4.428   7.692   0.274 -2.6336 -1.9590  0.0245
    5MOL0     H  672   3.972   7.650   0.250 -2.6465 -1.9750  2.1291
    5MOL0     H  673   3.735   7.629   0.358  0.1360 -0.9974 -0.0198
    5MOL0     H  674   1.985   6.988   0.111  1.0851  0.3957  1.0036
    5MOL0     H  675   1.743   6.927   0.159 -0.7639 -1.8005 -1.3254
    5MOL0     H  676   1.423   6.819   0.424  0.1343  0.0746  0.3001
    5MOL0     H  677   1.205   6.771   0.432 -0.5898 -0.2291  0.8614
    5MOL0     H  678   1.117   6.358   0.582  1.7184  5.4733  0.6921
    5MOL0     H  679   0.953   6.402   0.569 -0.9765 -0.5343 -2.1429
    5MOL0     H  680   1.010   6.199   0.451 -2.9771  1.0057  1.8949
    5MOL0     H  681   1.127   6.292   0.353 -2.2921  2.0697 -2.9271
    5MOL0     H  682   0.941   6.405   0.244  4.5480  1.0965  2.8739
    5MOL0     H  683   0.891   6.236   0.233 -2.0764  0.1449  0.7330
    5MOL0     H  684   0.708   6.338   0.288 -1.7464  0.5101  2.0203
    5MOL0     H  685   0.782   6.445   0.422  0.1271  0.0920  0.0957
    5MOL0     H  686   0.677   6.118   0.644  2.9382 -1.2773  0.4463
    5MOL0     H  687   1.311   6.351   0.500 -0.7218 -0.6010 -1.0171
    5MOL0     H  688   1.595   6.322   0.415 -2.9361 -1.3509 -0.4505
    5MOL0     H  689   1.645   6.423   0.552  1.1863  2.2396 -4.0376
    5MOL0     H  690   1.516   6.311   0.576 -3.4341  0.7878  0.4358
    6MOL0     O  691   5.614   9.783   1.908  0.0598  0.3454 -0.1265
    6MOL0     C  692   5.627   9.673   1.853  0.4600  0.4195 -1.6845
    6MOL0     O  693   5.747   9.600   1.826 -0.8206 -0.5874  0.5992
    6MOL0     C  694   5.869   9.643   1.863 -0.2118 -0.3401  0.3798
    6MOL0     C  695   5.891   9.719   1.983 -0.1578 -0.4209 -0.0936
    6MOL0     C  696   6.018   9.776   2.017 -0.7611 -0.2998  0.8162
    6MOL0     C  697   6.126   9.760   1.924 -0.0697  0.6075  0.6204
    6MOL0     O  698   6.246   9.823   1.946  0.3294  0.0276 -0.5732
    6MOL0     C  699   6.251   9.964   1.894 -0.3806  0.4505  0.3449
    6MOL0     C  700   6.399  10.002   1.867 -1.0285  0.2372 -0.4998
    6MOL0     C  701   6.492   9.995   1.986 -1.1337  0.7945 -0.1163
    6MOL0     C  702   6.634  10.050   1.963  0.1239  0.2968 -0.0808
    6MOL0     C  703   6.748   9.992   2.058  1.3185 -0.6401  0.1475
    6MOL0     C  704   6.882  10.066   2.039 -0.0556 -0.4148 -0.5783
    6MOL0     C  705   6.997   9.993   2.106 -0.4111  0.6673  0.3709
    6MOL0     C  706   6.988   9.979   2.257  0.6417  0.3717  0.0846
    6MOL0     N  707   7.101   9.902   2.293  0.2666  0.2139  0.5923
    6MOL0     C  708   7.103   9.765   2.325  0.2854  0.1024 -0.7744
    6MOL0     C  709   7.237   9.745   2.345 -0.0026 -0.0202 -0.4507
    6MOL0     C  710   7.298   9.614   2.396 -0.1862  0.2325 -0.1059
    6MOL0     C  711   7.301   9.631   2.550  0.6032 -0.0293 -0.4195
    6MOL0     C  712   7.374   9.524   2.623  0.2501 -0.1104 -0.0945
    6MOL0     C  713   7.302   9.390   2.610  0.5286 -0.2825  0.9214
    6MOL0     O  714   7.370   9.295   2.691 -0.3906  0.6027 -0.1049
    6MOL0     C  715   7.462   9.213   2.641 -0.0195  0.4096  0.0592
    6MOL0     C  716   7.501   9.104   2.713 -0.1108  0.1796 -0.1208
    6MOL0     C  717   7.593   9.009   2.663 -0.3511 -0.2618  0.4396
    6MOL0     C  718   7.620   8.886   2.740 -1.0340 -0.5892 -0.2670
    6MOL0     C  719   7.657   9.032   2.539  0.5161  0.0497  0.5463
    6MOL0     C  720   7.764   8.943   2.480  1.1110  0.0649 -0.0010
    6MOL0     O  721   7.834   9.006   2.383  0.6249  0.7912 -0.5649
    6MOL0     C  722   7.931   8.931   2.321 -0.6852  0.1137  0.1102
    6MOL0     C  723   7.927   8.908   2.183 -0.2922 -1.0910  0.7341
    6MOL0     C  724   8.018   8.826   2.116 -0.2952 -0.3070  0.2981
    6MOL0     C  725   8.116   8.761   2.186 -0.2486  0.4240  0.9281
    6MOL0     O  726   8.179   8.655   2.120 -0.6166 -0.5564  0.8752
    6MOL0     C  727   8.325   8.659   2.121  0.3857  0.2190 -0.0981
    6MOL0     C  728   8.364   8.546   2.028 -0.3528 -0.1168  0.3839
    6MOL0     C  729   8.508   8.560   1.987  0.2799 -0.8378 -0.5545
    6MOL0     C  730   8.536   8.453   1.885  0.0221 -0.2957 -0.0367
    6MOL0     C  731   8.655   8.364   1.928  0.5362  1.1920 -0.2025
    6MOL0     C  732   8.688   8.267   1.808  0.0044  0.6747 -0.2376
    6MOL0     C  733   8.819   8.196   1.854 -0.6945 -1.0611  0.2231
    6MOL0     C  734   8.876   8.104   1.747  0.0603 -0.3148  0.3736
    6MOL0    Cl  735   8.933   7.962   1.823  0.0929 -0.3683 -0.0194
    6MOL0     C  736   8.132   8.788   2.322  0.4120  0.2498  0.6728
    6MOL0     C  737   8.045   8.878   2.388 -1.0446 -0.3752  0.8310
    6MOL0     O  738   7.766   8.820   2.500  1.0208 -0.0634 -0.3417
    6MOL0     C  739   7.614   9.144   2.474  2.0468  0.4464  0.9233
    6MOL0     C  740   7.519   9.225   2.515  1.2988 -0.5732 -0.1442
    6MOL0     N  741   7.306   9.863   2.328  0.2661 -0.0845  0.2707
    6MOL0     N  742   7.223   9.955   2.301 -0.2721 -0.0846 -1.3054
    6MOL0     C  743   6.114   9.664   1.825 -0.2144 -0.2578 -0.5425
    6MOL0     C  744   5.981   9.607   1.795 -0.2652  0.3251 -0.2092
    6MOL0     C  745   5.503   9.595   1.840 -0.6411  0.1010 -0.4273
    6MOL0     C  746   5.514   9.453   1.856 -0.6205  0.2787 -0.1677
    6MOL0     C  747   5.401   9.367   1.850  0.5487  0.1732  0.4726
    6MOL0     C  748   5.283   9.425   1.814  0.9150 -0.2111  0.4019
    6MOL0     O  749   5.166   9.358   1.783  0.4690 -0.3184 -0.2292
    6MOL0     C  750   5.146   9.217   1.776 -0.1972  0.1969  1.1290
    6MOL0     C  751   5.011   9.191   1.827  0.3853  0.2613  0.1067
    6MOL0     C  752   4.983   9.220   1.972  0.3560  0.0447  0.0417
    6MOL0     C  753   4.848   9.160   2.013 -0.5372  1.2243  0.1516
    6MOL0     C  754   4.870   9.011   2.015  0.2908  0.4213  0.5961
    6MOL0     C  755   4.892   8.886   2.004  0.2100  0.9931 -0.6273
    6MOL0     C  756   5.274   9.559   1.797  0.3252  0.0751  0.4224
    6MOL0     C  757   5.380   9.647   1.812  0.7680  0.4024 -0.6968
    6MOL0     C  758   5.354   9.788   1.772 -0.5651  0.1159  0.2010
    6MOL0     H  759   5.809   9.747   2.049 -0.5276  3.2431 -1.8247
    6MOL0     H  760   6.038   9.832   2.108  0.7930 -1.5993  1.3189
    6MOL0     H  761   6.201  10.035   1.961  1.6466  0.5033  1.9412
    6MOL0     H  762   6.206   9.961   1.795  2.4920 -1.6441 -1.0631
    6MOL0     H  763   6.439   9.945   1.782  0.2445 -2.5827  1.8126
    6MOL0     H  764   6.405  10.109   1.843  0.6808  0.5181  0.9771
    6MOL0     H  765   6.453  10.040   2.078 -0.3690 -1.1915  1.2650
    6MOL0     H  766   6.508   9.889   2.012  3.2246  1.5785  1.2350
    6MOL0     H  767   6.645  10.017   1.860  0.6926 -2.3167  0.7400
    6MOL0     H  768   6.638  10.160   1.957 -2.6848  0.5694  1.2904
    6MOL0     H  769   6.751   9.888   2.022 -3.8205 -1.0025  0.0142
    6MOL0     H  770   6.710  10.003   2.160  1.4767 -1.7838  0.3441
    6MOL0     H  771   6.908  10.087   1.935  3.0779 -0.0172  0.2066
    6MOL0     H  772   6.877  10.167   2.082  0.8790 -0.1494 -1.0760
    6MOL0     H  773   7.092  10.036   2.074 -0.0908 -0.1615  0.1827
    6MOL0     H  774   6.988   9.889   2.073 -1.3835  1.1271 -0.8749
    6MOL0     H  775   6.993  10.076   2.307  1.3240 -0.4033  1.5997
    6MOL0     H  776   6.895   9.925   2.275  2.0381 -1.7507  1.3446
    6MOL0     H  777   7.017   9.699   2.330  0.7172 -0.4186 -0.1061
    6MOL0     H  778   7.395   9.601   2.347  0.0586  0.6740  0.2577
    6MOL0     H  779   7.224   9.538   2.367 -1.3622  1.1465  0.4050
    6MOL0     H  780   7.358   9.722   2.574  0.2314 -0.6892  3.7018
    6MOL0     H  781   7.199   9.633   2.589  0.2442 -0.8396 -1.2859
    6MOL0     H  782   7.473   9.515   2.577  1.8765 -0.4308  3.2347
    6MOL0     H  783   7.403   9.557   2.723  2.2050 -0.9578 -0.3321
    6MOL0     H  784   7.197   9.394   2.640  0.2068  2.3759 -0.2241
    6MOL0     H  785   7.299   9.354   2.507  0.7214 -0.0469  0.8320
    6MOL0     H  786   7.468   9.101   2.817 -0.0553  0.2806 -0.1000
    6MOL0     H  787   7.588   8.791   2.696 -1.1898 -0.5076 -0.3303
    6MOL0     H  788   7.568   8.881   2.836 -0.3933 -1.6601  0.0389
    6MOL0     H  789   7.727   8.879   2.762 -0.7927 -1.1159 -1.5506
    6MOL0     H  790   7.848   8.952   2.124  1.2932 -0.6576 -1.1548
    6MOL0     H  791   8.015   8.828   2.008  0.4911  0.4244  0.2799
    6MOL0     H  792   8.363   8.754   2.081 -2.1155  1.8745  1.2216
    6MOL0     H  793   8.375   8.653   2.218  3.6053 -2.4067 -1.7002
    6MOL0     H  794   8.343   8.447   2.070 -1.5272 -0.2995 -0.5842
    6MOL0     H  795   8.296   8.548   1.942 -0.5048 -1.7625  0.4467
    6MOL0     H  796   8.582   8.555   2.068  1.2516 -3.9099 -1.5165
    6MOL0     H  797   8.512   8.659   1.940  0.6484 -1.2231 -1.3433
    6MOL0     H  798   8.564   8.495   1.788 -1.7645 -0.7087 -0.7658
    6MOL0     H  799   8.443   8.398   1.870 -0.6579  1.4291 -2.8397
    6MOL0     H  800   8.750   8.414   1.949  0.1666  1.8842 -0.1500
    6MOL0     H  801   8.635   8.307   2.019  0.2115  1.4784 -0.0911
    6MOL0     H  802   8.704   8.319   1.713  2.4957 -2.3154 -1.6099
    6MOL0     H  803   8.602   8.200   1.794  0.0770  0.9286 -2.2021
    6MOL0     H  804   8.792   8.143   1.945  0.4653 -1.3900  0.3973
    6MOL0     H  805   8.899   8.262   1.890  0.8061 -3.1993  0.9838
    6MOL0     H  806   8.949   8.156   1.684  0.9910 -2.8924 -0.8426
    6MOL0     H  807   8.794   8.063   1.687  0.1305 -2.4303  1.6145
    6MOL0     H  808   8.213   8.744   2.378  0.7384  0.7545  0.6082
    6MOL0     H  809   8.047   8.905   2.493  2.5402 -0.4266  0.9259
    6MOL0     H  810   7.638   9.153   2.368  1.1925  0.7767  0.7500
    6MOL0     H  811   7.502   9.301   2.440  0.3702  0.1984  0.8119
    6MOL0     H  812   6.196   9.637   1.759  2.6189  1.9533  1.7875
    6MOL0     H  813   5.986   9.539   1.711  3.0532 -0.9323  0.8250
    6MOL0     H  814   5.603   9.398   1.885 -0.4898  0.7702  0.3819
    6MOL0     H  815   5.409   9.260   1.865  1.1362  0.2095  0.4095
    6MOL0     H  816   5.144   9.180   1.673  0.0757  1.4990  0.6314
    6MOL0     H  817   5.225   9.160   1.825  0.0731 -1.2724 -0.9157
    6MOL0     H  818   4.987   9.086   1.803 -1.5728  0.9107 -1.0148
    6MOL0     H  819   4.943   9.249   1.765  0.0443  0.9644  1.1208
    6MOL0     H  820   5.068   9.188   2.032  0.3610  2.0339  1.1855
    6MOL0     H  821   4.974   9.328   1.982  0.0211  0.0964 -0.7043
    6MOL0     H  822   4.767   9.177   1.941 -1.5295  1.4350  1.2761
    6MOL0     H  823   4.806   9.200   2.106 -0.6184  0.8038  0.2992
    6MOL0     H  824   4.916   8.783   1.992 -1.1600  0.3811  1.3161
    6MOL0     H  825   5.172   9.588   1.778  0.9023  0.7094 -2.0633
    6MOL0     H  826   5.391   9.859   1.846  4.3336 -1.0809 -0.6999
    6MOL0     H  827   5.413   9.810   1.683  0.8406 -1.8848  0.5654
    6MOL0     H  828   5.253   9.809   1.736  0.1719 -0.4391 -2.4134
    7MOL0     O  829   4.957   1.938   6.110  0.3850  0.2213  0.2653
    7MOL0     C  830   5.000   2.043   6.151  0.7312 -0.0639 -0.3959
    7MOL0     O  831   4.922   2.124   6.241  0.4607  0.2276 -0.0172
    7MOL0     C  832   4.813   2.054   6.295  0.0008  0.1530 -1.8341
    7MOL0     C  833   4.677   2.104   6.289  0.0729  0.4150 -0.7380
    7MOL0     C  834   4.578   2.058   6.370  0.1187 -0.1548 -0.7580
    7MOL0     C  835   4.599   1.948   6.447 -0.1149  0.3400 -0.5197
    7MOL0     O  836   4.505   1.871   6.518 -0.4482 -0.5593  0.1256
    7MOL0     C  837   4.363   1.883   6.501 -0.3874 -0.3730 -0.2760
    7MOL0     C  838   4.282   1.789   6.591  0.4690 -0.0636  0.1487
    7MOL0     C  839   4.152   1.752   6.518 -1.1708  0.3949  0.8158
    7MOL0     C  840   4.061   1.679   6.615  0.3072  0.5219  0.0005
    7MOL0     C  841   3.992   1.756   6.729  0.3483  0.5785 -0.1708
    7MOL0     C  842   3.891   1.865   6.689  1.2004  0.1955 -0.3895
    7MOL0     C  843   3.749   1.815   6.655  0.6286 -0.6957  0.2055
    7MOL0     C  844   3.632   1.911   6.666  0.2961 -0.1000  0.3337
    7MOL0     N  845   3.596   1.959   6.805  0.4650  0.0931 -0.0945
    7MOL0     C  846   3.633   1.888   6.917  0.3158  0.2774 -0.5677
    7MOL0     C  847   3.593   1.961   7.023 -0.6946 -0.7020  0.0966
    7MOL0     C  848   3.611   1.906   7.166 -0.3627 -0.5434 -0.0369
    7MOL0     C  849   3.741   1.960   7.225 -0.5149 -0.1317  0.6226
    7MOL0     C  850   3.767   1.897   7.359 -0.1326  0.3048  0.4642
    7MOL0     C  851   3.879   1.980   7.433 -0.1643 -0.1900 -0.1149
    7MOL0     O  852   4.005   1.957   7.367 -0.8159  0.0591 -0.6830
    7MOL0     C  853   4.110   2.043   7.404 -1.0679  0.3195  0.8646
    7MOL0     C  854   4.157   2.052   7.531  0.3191  0.2865  0.4594
    7MOL0     C  855   4.262   2.144   7.566 -0.6468  0.4182  0.3269
    7MOL0     C  856   4.310   2.134   7.710 -0.4692 -0.1683 -0.2523
    7MOL0     C  857   4.316   2.235   7.466 -0.5083  0.8757 -0.1355
    7MOL0     C  858   4.424   2.335   7.494  0.9272  0.5510  0.5902
    7MOL0     O  859   4.440   2.431   7.403  0.4677 -0.1558 -0.4649
    7MOL0     C  860   4.545   2.517   7.418 -0.0491  0.4432 -0.4479
    7MOL0     C  861   4.666   2.481   7.346  0.3456  0.0670  0.3331
    7MOL0     C  862   4.776   2.557   7.375 -0.1663 -0.4794  0.8137
    7MOL0     C  863   4.776   2.678   7.454  0.3499  0.1967 -0.3121
    7MOL0     O  864   4.894   2.740   7.467 -0.3170  0.8462  0.0164
    7MOL0     C  865   4.933   2.786   7.595  0.4296 -0.4995 -1.1210
    7MOL0     C  866   5.064   2.863   7.573 -0.1584  0.2468 -0.1182
    7MOL0     C  867   5.121   2.939   7.692  0.5472 -0.7535  0.1088
    7MOL0     C  868   5.265   2.982   7.666  0.1396 -0.2862 -0.2330
    7MOL0     C  869   5.325   3.041   7.788  0.2175 -0.6002  0.5481
    7MOL0     C  870   5.461   3.096   7.758 -0.4740 -0.0167  0.6688
    7MOL0     C  871   5.543   3.117   7.882  0.8811 -0.2165 -0.2784
    7MOL0     C  872   5.666   3.204   7.849  0.2715 -0.0912 -0.7353
    7MOL0    Cl  873   5.784   3.122   7.738  0.3282  0.0680 -0.2322
    7MOL0     C  874   4.655   2.701   7.527 -0.4091 -0.1062 -0.3992
    7MOL0     C  875   4.543   2.620   7.505  0.2814 -0.0430 -0.9858
    7MOL0     O  876   4.489   2.318   7.601 -0.3158  0.6384  0.1216
    7MOL0     C  877   4.253   2.225   7.338  0.1962 -0.0673  0.1751
    7MOL0     C  878   4.154   2.125   7.305 -0.7786 -0.6678  0.2067
    7MOL0     N  879   3.536   2.082   6.978 -0.6882  0.0929 -0.3612
    7MOL0     N  880   3.527   2.070   6.850  0.8273  0.1672  0.1397
    7MOL0     C  881   4.728   1.898   6.458 -0.0610  0.9995 -0.3899
    7MOL0     C  882   4.836   1.956   6.402 -0.2275 -0.1347  0.1737
    7MOL0     C  883   5.138   2.081   6.121 -0.2443  0.2274 -0.2056
    7MOL0     C  884   5.205   2.163   6.213 -0.3263  0.7184 -0.0897
    7MOL0     C  885   5.342   2.197   6.198  0.1722  0.6084 -0.5814
    7MOL0     C  886   5.417   2.140   6.096  0.6194 -0.4120 -0.6495
    7MOL0     O  887   5.548   2.167   6.067  0.4988 -0.3937  0.1873
    7MOL0     C  888   5.609   2.254   6.150  0.4170  0.1435 -0.3232
    7MOL0     C  889   5.755   2.286   6.119  0.5539  0.1571  0.2566
    7MOL0     C  890   5.840   2.169   6.161  0.1124 -0.6428 -0.4624
    7MOL0     C  891   5.949   2.141   6.050 -0.2182  0.3344  0.0259
    7MOL0     C  892   5.887   2.048   5.951 -0.9027  0.0052  0.9566
    7MOL0     C  893   5.821   1.968   5.887 -0.1189 -0.5398  0.3816
    7MOL0     C  894   5.348   2.050   6.017 -0.7164 -0.6617 -0.7323
    7MOL0     C  895   5.215   2.024   6.019 -0.5467 -0.2154 -0.5148
    7MOL0     C  896   5.160   1.934   5.918  0.1089 -0.4146  0.1192
    7MOL0     H  897   4.668   2.190   6.223  1.0643  1.3354  0.2788
    7MOL0     H  898   4.480   2.104   6.367 -1.2990 -2.9761 -0.6709
    7MOL0     H  899   4.345   1.859   6.396  4.2558 -0.7935 -1.2050
    7MOL0     H  900   4.340   1.986   6.526 -2.4704 -0.9064  0.1783
    7MOL0     H  901   4.332   1.692   6.598  1.7862  0.5741 -0.0332
    7MOL0     H  902   4.260   1.836   6.687  3.0257 -0.2095  0.8771
    7MOL0     H  903   4.098   1.838   6.478  0.6723  0.1517 -2.5927
    7MOL0     H  904   4.178   1.690   6.431 -0.3463  0.4397  1.0192
    7MOL0     H  905   3.986   1.631   6.551  0.1347 -0.6057  1.0069
    7MOL0     H  906   4.122   1.597   6.656  0.6242 -1.1132 -3.4200
    7MOL0     H  907   4.072   1.803   6.788  0.9815 -1.5874  0.8071
    7MOL0     H  908   3.946   1.690   6.803  0.0731  0.8025 -0.1422
    7MOL0     H  909   3.889   1.934   6.774  1.9527  0.3006 -0.4489
    7MOL0     H  910   3.940   1.914   6.604  0.2967  0.8280 -0.5536
    7MOL0     H  911   3.729   1.729   6.720 -0.1120 -0.4752  0.2725
    7MOL0     H  912   3.749   1.769   6.556 -0.3241 -2.4757  0.9705
    7MOL0     H  913   3.667   1.992   6.601  0.3859  0.4039  0.9979
    7MOL0     H  914   3.544   1.866   6.619  0.6954 -0.1271 -0.4009
    7MOL0     H  915   3.662   1.784   6.907 -1.0876 -0.2143  0.2590
    7MOL0     H  916   3.605   1.797   7.170  2.1452 -0.6982  1.3248
    7MOL0     H  917   3.527   1.950   7.221  0.1305  0.6043 -0.1730
    7MOL0     H  918   3.823   1.936   7.158 -0.5650 -0.2017  0.5855
    7MOL0     H  919   3.725   2.068   7.232  1.7540  0.5743 -2.9201
    7MOL0     H  920   3.676   1.891   7.420 -0.0182 -0.8578  0.5366
    7MOL0     H  921   3.817   1.802   7.341 -0.1375 -0.0966  2.3640
    7MOL0     H  922   3.861   2.088   7.438  3.2477  0.4621  0.3303
    7MOL0     H  923   3.879   1.955   7.540 -2.8352 -1.4404 -0.3173
    7MOL0     H  924   4.112   1.985   7.604 -1.7970 -1.2299 -2.0754
    7MOL0     H  925   4.260   2.044   7.748  0.0176 -0.5469 -0.4959
    7MOL0     H  926   4.284   2.215   7.779 -2.0808 -0.9126  0.0650
    7MOL0     H  927   4.417   2.113   7.711 -0.4346 -0.0180 -0.6147
    7MOL0     H  928   4.661   2.389   7.290  2.8762  1.2088 -1.9964
    7MOL0     H  929   4.871   2.525   7.332 -0.6763 -2.1234  0.8518
    7MOL0     H  930   4.863   2.862   7.630  0.9141 -0.8466  0.6660
    7MOL0     H  931   4.941   2.711   7.673 -0.2064 -0.6017 -1.1510
    7MOL0     H  932   5.138   2.788   7.545 -1.4212 -0.8176 -0.7097
    7MOL0     H  933   5.048   2.940   7.497 -0.6208  0.2423 -0.0248
    7MOL0     H  934   5.122   2.876   7.781 -1.7105  0.7191  1.2583
    7MOL0     H  935   5.063   3.031   7.700 -0.6515 -0.9555 -4.0606
    7MOL0     H  936   5.268   3.057   7.587  3.2214  0.0058  0.0443
    7MOL0     H  937   5.326   2.895   7.637  0.7039 -0.0518  0.2451
    7MOL0     H  938   5.259   3.117   7.831  1.3108 -0.8318  2.8182
    7MOL0     H  939   5.330   2.963   7.866  0.5223 -0.1536  0.9810
    7MOL0     H  940   5.453   3.188   7.700 -1.4812 -1.5376 -1.7290
    7MOL0     H  941   5.515   3.024   7.696  1.9763  1.5018  0.9067
    7MOL0     H  942   5.572   3.021   7.928 -2.0625 -0.8123  0.5688
    7MOL0     H  943   5.478   3.173   7.950  2.8745  1.4310  0.3851
    7MOL0     H  944   5.711   3.235   7.944 -2.3091 -0.1895  0.6255
    7MOL0     H  945   5.629   3.290   7.793  1.1509  0.9281  0.1974
    7MOL0     H  946   4.650   2.783   7.598  1.3339  0.6567 -1.1071
    7MOL0     H  947   4.448   2.631   7.554  0.5852 -0.8954 -0.1802
    7MOL0     H  948   4.287   2.289   7.257 -0.0481  0.1630  0.2541
    7MOL0     H  949   4.125   2.108   7.201 -2.7430 -0.2419  0.6370
    7MOL0     H  950   4.756   1.804   6.505  1.5228  1.0732 -1.1277
    7MOL0     H  951   4.940   1.927   6.414 -0.3730 -0.2028  1.3661
    7MOL0     H  952   5.146   2.198   6.297 -4.4625  0.0721 -2.4324
    7MOL0     H  953   5.382   2.278   6.257  3.0137 -1.8351  1.1205
    7MOL0     H  954   5.567   2.355   6.150  0.1307  0.0625 -2.0681
    7MOL0     H  955   5.598   2.216   6.252  1.4603  0.9162  0.0894
    7MOL0     H  956   5.786   2.372   6.179 -0.3623  0.1337  0.7808
    7MOL0     H  957   5.770   2.319   6.015  0.9024 -1.0040 -0.0725
    7MOL0     H  958   5.881   2.198   6.258  2.0373  1.6683 -1.8552
    7MOL0     H  959   5.782   2.077   6.176 -0.0673 -0.4306  0.1757
    7MOL0     H  960   6.028   2.094   6.109 -0.6101  0.6401  0.8040
    7MOL0     H  961   5.987   2.232   6.000 -0.5555  1.9558  2.5683
    7MOL0     H  962   5.783   1.895   5.817 -0.3774 -2.2007  2.1610
    7MOL0     H  963   5.410   2.007   5.939  1.5171  0.4296  0.3656
    7MOL0     H  964   5.081   1.983   5.860  0.4414  0.7911  0.6401
    7MOL0     H  965   5.235   1.899   5.847 -0.8173 -0.2919 -0.9564
    7MOL0     H  966   5.114   1.847   5.965 -0.6990 -0.1532 -0.1703
    8MOL0     O  967   0.623   8.155   0.507  0.4952  0.3269  0.2821
    8MOL0     C  968   0.625   8.054   0.431  0.2899  0.2381 -0.3706
    8MOL0     O  969   0.689   8.044   0.313  0.3375 -0.5108 -0.1724
    8MOL0     C  970   0.778   8.149   0.290 -0.3197  0.2406 -0.3048
    8MOL0     C  971   0.916   8.118   0.282  0.6001 -0.3851 -0.8254
    8MOL0     C  972   1.010   8.219   0.236 -0.2241  0.5560 -0.4101
    8MOL0     C  973   0.972   8.351   0.235 -0.1688 -0.8019  0.2792
    8MOL0     O  974   1.057   8.452   0.209  0.6053  0.1285 -0.0135
    8MOL0     C  975   1.182   8.421   0.151 -0.3283  0.3066 -1.0189
    8MOL0     C  976   1.251   8.559   0.127  0.5205 -0.7531  0.5514
    8MOL0     C  977   1.397   8.564   0.169 -1.4084  0.6167 -0.1155
    8MOL0     C  978   1.470   8.675   0.090 -0.1478  0.5838  0.2999
    8MOL0     C  979   1.625   8.662   0.117  0.4923 -0.6694  0.4476
    8MOL0     C  980   1.718   8.773   0.055  1.3830 -0.0093  0.8957
    8MOL0     C  981   1.860   8.750   0.092  0.1134  0.2058 -0.0617
    8MOL0     C  982   1.926   8.632   0.027  0.2860  0.7139 -1.5224
    8MOL0     N  983   2.068   8.615   0.068  0.1914 -0.8672 -0.0813
    8MOL0     C  984   2.184   8.592  -0.013  1.5190 -0.5674 -0.1210
    8MOL0     C  985   2.291   8.608   0.060 -0.1957  0.3014 -0.2753
    8MOL0     C  986   2.437   8.582   0.027  0.6325 -0.0110  0.7794
    8MOL0     C  987   2.501   8.446   0.068  0.2645 -0.1880  0.1079
    8MOL0     C  988   2.643   8.433   0.044 -0.6860 -0.0558  0.7244
    8MOL0     C  989   2.671   8.408  -0.097  0.1248  1.3499  0.4475
    8MOL0     O  990   2.819   8.397  -0.121  0.3425 -0.8813 -0.3771
    8MOL0     C  991   2.868   8.331  -0.230 -0.0404 -0.4731 -0.3603
    8MOL0     C  992   2.804   8.225  -0.297 -0.3324 -0.1683 -0.4339
    8MOL0     C  993   2.849   8.176  -0.424  0.4695 -0.2738  0.1340
    8MOL0     C  994   2.786   8.052  -0.482 -0.2413 -0.0751  0.8782
    8MOL0     C  995   2.964   8.238  -0.482  0.3912  0.0833 -0.0957
    8MOL0     C  996   3.017   8.205  -0.612 -0.6517  0.3878 -0.3581
    8MOL0     O  997   3.123   8.294  -0.660  0.5292  0.2654 -0.2394
    8MOL0     C  998   3.169   8.279  -0.790  0.4199  0.3202  1.1131
    8MOL0     C  999   3.301   8.236  -0.828 -0.3717  0.6357 -0.4392
    8MOL0     C 1000   3.339   8.225  -0.965 -0.4281 -0.5200  0.2096
    8MOL0     C 1001   3.270   8.283  -1.072 -0.0569 -0.9117  0.1502
    8MOL0     O 1002   3.302   8.284  -1.204  0.1878 -0.6234 -0.7196
    8MOL0     C 1003   3.442   8.258  -1.242  0.1128  1.0651  0.2547
    8MOL0     C 1004   3.529   8.375  -1.194 -0.5173  1.3877  0.1327
    8MOL0     C 1005   3.461   8.511  -1.208 -0.1127 -0.2475  0.1049
    8MOL0     C 1006   3.549   8.635  -1.208 -0.1305 -0.2550 -0.0794
    8MOL0     C 1007   3.643   8.656  -1.087  0.2265 -0.1353 -0.3821
    8MOL0     C 1008   3.731   8.780  -1.085 -0.5668  0.3327  0.1342
    8MOL0     C 1009   3.822   8.797  -0.959  0.4618 -0.1731  0.7223
    8MOL0     C 1010   3.927   8.689  -0.962  0.3270  0.5070 -0.3125
    8MOL0    Cl 1011   4.062   8.724  -0.864  0.2610 -0.1397 -0.1504
    8MOL0     C 1012   3.152   8.340  -1.026 -0.2921  0.1680  0.3398
    8MOL0     C 1013   3.096   8.334  -0.896 -0.8918  0.4554  1.1924
    8MOL0     O 1014   2.970   8.115  -0.682 -0.8919 -0.1070  0.2292
    8MOL0     C 1015   3.029   8.337  -0.401 -0.4743 -0.5909 -0.4377
    8MOL0     C 1016   2.986   8.381  -0.278 -0.2678 -0.6470 -0.3844
    8MOL0     N 1017   2.253   8.628   0.192  0.3961 -0.2050 -0.7636
    8MOL0     N 1018   2.122   8.638   0.195  0.8830 -0.4514 -0.2517
    8MOL0     C 1019   0.837   8.383   0.237  0.1993 -0.5588 -0.3306
    8MOL0     C 1020   0.742   8.280   0.262 -0.3561  0.1827  0.8132
    8MOL0     C 1021   0.528   7.940   0.456 -0.0974  0.7175  0.5716
    8MOL0     C 1022   0.510   7.842   0.350 -0.8499  0.0020 -0.2863
    8MOL0     C 1023   0.438   7.728   0.373  0.6516  0.7116 -0.2649
    8MOL0     C 1024   0.379   7.700   0.498  0.1197 -0.9539 -0.3243
    8MOL0     O 1025   0.303   7.585   0.528  0.7099 -0.6697  0.0430
    8MOL0     C 1026   0.353   7.456   0.490  0.8928 -0.3490 -0.1615
    8MOL0     C 1027   0.274   7.410   0.361 -0.8065  0.3898 -0.1717
    8MOL0     C 1028   0.304   7.268   0.320  0.7163 -0.1935  0.1857
    8MOL0     C 1029   0.189   7.173   0.341  0.1834  0.0444 -0.4391
    8MOL0     C 1030   0.135   7.161   0.479  0.5935 -0.5519  0.5673
    8MOL0     C 1031   0.101   7.125   0.588 -0.2961  0.1899 -0.7775
    8MOL0     C 1032   0.382   7.801   0.590  0.3306 -0.0787 -0.4898
    8MOL0     C 1033   0.459   7.917   0.584 -1.0911 -1.0466  0.4079
    8MOL0     C 1034   0.469   7.998   0.711  0.1228 -0.2960  0.8070
    8MOL0     H 1035   0.952   8.018   0.303  0.2798 -0.0366  1.7269
    8MOL0     H 1036   1.111   8.179   0.230 -0.4175 -0.2475  1.1686
    8MOL0     H 1037   1.168   8.370   0.056  3.2882 -1.4070 -0.8112
    8MOL0     H 1038   1.242   8.362   0.221 -1.4030 -0.3666 -0.6412
    8MOL0     H 1039   1.237   8.578   0.020 -0.6262 -0.7864  0.6760
    8MOL0     H 1040   1.194   8.638   0.178 -1.7693 -2.7222  1.2407
    8MOL0     H 1041   1.414   8.582   0.275  0.3220 -0.0433 -0.2533
    8MOL0     H 1042   1.447   8.470   0.144 -1.9572  0.4785 -0.7522
    8MOL0     H 1043   1.458   8.650  -0.016  0.4302 -0.5202  0.4822
    8MOL0     H 1044   1.429   8.771   0.122 -0.5912  1.6694 -3.1704
    8MOL0     H 1045   1.672   8.572   0.075  2.2016  0.2353  0.3577
    8MOL0     H 1046   1.639   8.659   0.225  0.8422  0.9057  0.4651
    8MOL0     H 1047   1.716   8.754  -0.053  0.1215  1.8780  0.5492
    8MOL0     H 1048   1.681   8.875   0.066  2.1394  0.3812 -0.0761
    8MOL0     H 1049   1.871   8.747   0.201 -0.2690 -1.5956 -0.0450
    8MOL0     H 1050   1.922   8.825   0.042 -0.9135 -1.1521 -3.6703
    8MOL0     H 1051   1.871   8.540   0.049  2.5073  0.1927  3.0201
    8MOL0     H 1052   1.923   8.624  -0.082 -2.1580  0.0170 -1.4606
    8MOL0     H 1053   2.193   8.559  -0.116  0.5192  1.2660 -0.8426
    8MOL0     H 1054   2.494   8.657   0.083 -1.0066 -0.5580  3.3255
    8MOL0     H 1055   2.449   8.593  -0.081 -0.1525 -5.4546 -0.1605
    8MOL0     H 1056   2.487   8.425   0.174  4.3351 -2.1263  0.4806
    8MOL0     H 1057   2.451   8.363   0.018  1.7915 -1.4460  0.5860
    8MOL0     H 1058   2.690   8.529   0.068 -2.5922  1.1059  0.0196
    8MOL0     H 1059   2.688   8.359   0.110 -0.7044 -0.3893  0.3696
    8MOL0     H 1060   2.620   8.319  -0.134  1.5144  0.9800 -0.6565
    8MOL0     H 1061   2.630   8.491  -0.155  0.1643  2.7515  2.3111
    8MOL0     H 1062   2.717   8.172  -0.261  1.4154 -3.1413 -0.2064
    8MOL0     H 1063   2.705   8.001  -0.428 -0.3673 -2.2847 -1.2340
    8MOL0     H 1064   2.872   7.988  -0.505 -0.1329  1.2097 -2.9870
    8MOL0     H 1065   2.733   8.087  -0.570 -0.7603  1.5578  1.8129
    8MOL0     H 1066   3.364   8.204  -0.746 -0.3010  1.9147  0.0287
    8MOL0     H 1067   3.435   8.178  -0.986  1.0322  0.9431  3.0008
    8MOL0     H 1068   3.471   8.161  -1.199 -0.1318  2.0706  2.8483
    8MOL0     H 1069   3.451   8.238  -1.349  1.5769 -0.1684  0.5703
    8MOL0     H 1070   3.568   8.350  -1.095  2.8912 -2.2260 -1.8077
    8MOL0     H 1071   3.611   8.363  -1.265 -0.6026  0.4215  0.1856
    8MOL0     H 1072   3.387   8.524  -1.128 -1.1102  2.9874 -1.1662
    8MOL0     H 1073   3.401   8.502  -1.300 -0.5720 -1.2997  0.4931
    8MOL0     H 1074   3.493   8.726  -1.232  0.6684 -0.1278 -1.6109
    8MOL0     H 1075   3.617   8.636  -1.294 -1.8741  3.0317 -1.6125
    8MOL0     H 1076   3.592   8.658  -0.990  0.0356  1.5298 -0.4881
    8MOL0     H 1077   3.708   8.568  -1.094 -1.4108 -1.2379 -3.2259
    8MOL0     H 1078   3.673   8.870  -1.108  0.4532  0.7213 -1.0009
    8MOL0     H 1079   3.796   8.758  -1.170 -0.8159 -1.2140  0.3137
    8MOL0     H 1080   3.760   8.802  -0.868 -1.0920 -0.9327 -0.2605
    8MOL0     H 1081   3.872   8.895  -0.963 -1.6331  1.4378  5.6832
    8MOL0     H 1082   3.968   8.675  -1.063 -1.2744 -0.4011 -0.8692
    8MOL0     H 1083   3.894   8.589  -0.930  0.0320  0.7553  0.1679
    8MOL0     H 1084   3.084   8.377  -1.102  2.7436  0.7527 -2.3179
    8MOL0     H 1085   2.998   8.370  -0.866 -1.5360  0.7620 -1.1050
    8MOL0     H 1086   3.123   8.380  -0.433 -0.1668 -1.5201 -0.8164
    8MOL0     H 1087   3.031   8.457  -0.215 -0.7914  0.6380 -1.5140
    8MOL0     H 1088   0.806   8.484   0.212 -1.5325 -1.2637 -1.1995
    8MOL0     H 1089   0.636   8.292   0.283 -0.5712 -1.0023  0.4987
    8MOL0     H 1090   0.554   7.850   0.251 -3.0844  3.3848 -1.1872
    8MOL0     H 1091   0.420   7.664   0.287  1.3278  1.0282 -0.6591
    8MOL0     H 1092   0.460   7.461   0.473  0.7294  2.0559 -0.9273
    8MOL0     H 1093   0.342   7.395   0.580 -1.4348  0.1564 -0.0235
    8MOL0     H 1094   0.309   7.467   0.274 -1.8001 -1.3112 -1.7518
    8MOL0     H 1095   0.167   7.425   0.380 -0.7256 -1.5355  2.2352
    8MOL0     H 1096   0.318   7.272   0.212 -2.4732  0.1600 -0.3286
    8MOL0     H 1097   0.392   7.228   0.370  0.3132 -1.0024  0.2797
    8MOL0     H 1098   0.207   7.075   0.296 -1.0388 -0.2882 -0.2203
    8MOL0     H 1099   0.100   7.214   0.292  1.1539  0.3715 -1.9869
    8MOL0     H 1100   0.069   7.100   0.687  0.6410  3.3977  0.4719
    8MOL0     H 1101   0.332   7.786   0.685  2.3022  0.3198  0.6738
    8MOL0     H 1102   0.401   8.083   0.704 -3.0829 -2.1697  4.6049
    8MOL0     H 1103   0.425   7.936   0.790  0.4526 -1.1997  0.2989
    8MOL0     H 1104   0.576   8.019   0.726 -0.2765  0.5713  2.8401
    9MOL0     O 1105   7.234   4.975   7.478 -1.1670 -0.0185 -0.9853
    9MOL0     C 1106   7.252   5.049   7.577  0.7803  0.2608  0.0261
    9MOL0     O 1107   7.369   5.072   7.635  0.5800 -0.2239  0.6518
    9MOL0     C 1108   7.487   5.042   7.570 -0.0995  0.1066  0.4016
    9MOL0     C 1109   7.591   5.031   7.658 -0.5986  0.3717  0.3242
    9MOL0     C 1110   7.725   4.994   7.619  0.2470  0.2699 -0.7798
    9MOL0     C 1111   7.756   4.983   7.476 -0.0526  0.2067 -0.1785
    9MOL0     O 1112   7.878   4.952   7.416  0.5461  0.2300 -0.0174
    9MOL0     C 1113   7.989   4.964   7.509  0.0985  0.9062  0.3601
    9MOL0     C 1114   8.122   4.915   7.444  0.1686 -0.2143  0.9473
    9MOL0     C 1115   8.106   4.761   7.428 -0.0073  0.4113 -0.6787
    9MOL0     C 1116   8.218   4.680   7.366 -0.2010 -0.8721  0.2600
    9MOL0     C 1117   8.209   4.529   7.362 -0.8754 -0.2374  0.2464
    9MOL0     C 1118   8.289   4.466   7.246 -0.7402  0.2271  0.0293
    9MOL0     C 1119   8.214   4.470   7.111  0.5764  0.6477 -0.8363
    9MOL0     C 1120   8.297   4.410   6.992  0.4841 -0.1531  0.5962
    9MOL0     N 1121   8.217   4.437   6.863 -0.4842 -0.3085  0.4443
    9MOL0     C 1122   8.248   4.525   6.762 -0.6722  0.1805 -0.3767
    9MOL0     C 1123   8.151   4.520   6.679  0.8355  0.2327  0.0050
    9MOL0     C 1124   8.128   4.585   6.553  0.9328 -0.5795 -0.4621
    9MOL0     C 1125   8.217   4.528   6.443  0.5715 -0.0363 -0.3000
    9MOL0     C 1126   8.144   4.427   6.360 -0.3253 -0.0828  0.3530
    9MOL0     C 1127   8.246   4.360   6.266 -0.3936 -0.0847 -0.2221
    9MOL0     O 1128   8.302   4.465   6.188  0.0271 -0.0670 -0.3832
    9MOL0     C 1129   8.414   4.425   6.110  1.0097 -0.3997 -0.2323
    9MOL0     C 1130   8.399   4.375   5.981 -0.2739 -0.2152 -0.1998
    9MOL0     C 1131   8.493   4.363   5.888 -0.2328  0.3735 -0.1349
    9MOL0     C 1132   8.463   4.305   5.752  0.4033  0.5720  0.1491
    9MOL0     C 1133   8.629   4.390   5.936 -0.4260  0.8126 -0.5007
    9MOL0     C 1134   8.746   4.387   5.846 -1.3422  0.7613 -0.1450
    9MOL0     O 1135   8.731   4.451   5.726 -0.3197 -0.2857  0.5961
    9MOL0     C 1136   8.842   4.477   5.645  0.3419 -0.3433 -0.5896
    9MOL0     C 1137   8.918   4.392   5.570 -0.4967 -0.0435  1.6158
    9MOL0     C 1138   9.028   4.433   5.490 -0.4258  0.2433  0.6691
    9MOL0     C 1139   9.075   4.562   5.499 -0.0357  0.3739 -0.0504
    9MOL0     O 1140   9.179   4.600   5.418 -0.2183  0.1912  0.4745
    9MOL0     C 1141   9.141   4.697   5.326 -0.5684 -0.3572  0.1097
    9MOL0     C 1142   9.260   4.684   5.230  1.2758 -0.1708  0.0605
    9MOL0     C 1143   9.264   4.786   5.119  0.5111 -0.9575 -0.4627
    9MOL0     C 1144   9.382   4.783   5.017 -0.0334 -0.1614  0.0595
    9MOL0     C 1145   9.352   4.878   4.897  1.3148 -0.0580 -1.3435
    9MOL0     C 1146   9.464   4.956   4.837 -0.2121  0.3311 -0.5377
    9MOL0     C 1147   9.428   5.049   4.727 -0.4258 -0.5019 -0.3734
    9MOL0     C 1148   9.533   5.075   4.625 -0.0547 -0.7754 -0.1504
    9MOL0    Cl 1149   9.494   5.230   4.539 -0.2128 -0.0609 -0.0249
    9MOL0     C 1150   8.992   4.654   5.564  0.3492  0.0629 -1.0045
    9MOL0     C 1151   8.880   4.613   5.642 -0.0687  0.6794  0.0019
    9MOL0     O 1152   8.850   4.327   5.888 -0.3751  0.3121 -0.1592
    9MOL0     C 1153   8.656   4.427   6.069 -0.1761  0.3686  0.6467
    9MOL0     C 1154   8.550   4.458   6.146 -0.3639  0.1039  0.4179
    9MOL0     N 1155   8.060   4.429   6.728  0.8020  0.3168 -0.4687
    9MOL0     N 1156   8.095   4.382   6.841  0.5681  0.4863 -0.7537
    9MOL0     C 1157   7.646   4.985   7.394 -0.3653 -0.6183 -0.0620
    9MOL0     C 1158   7.520   5.024   7.438  0.3377  0.0234  1.3998
    9MOL0     C 1159   7.137   5.111   7.650 -0.1218  0.6825 -0.2043
    9MOL0     C 1160   7.170   5.163   7.781 -1.7351 -0.1052  0.7157
    9MOL0     C 1161   7.080   5.248   7.846 -0.2435  0.1981 -0.2614
    9MOL0     C 1162   6.964   5.293   7.780 -0.6831  0.3570 -0.1723
    9MOL0     O 1163   6.897   5.383   7.856  0.0826  0.9260  0.3475
    9MOL0     C 1164   6.757   5.404   7.835  0.0404  0.2133  0.0272
    9MOL0     C 1165   6.701   5.486   7.954  0.0887  0.8031  0.1306
    9MOL0     C 1166   6.738   5.442   8.097 -0.2338  0.2747 -0.3889
    9MOL0     C 1167   6.676   5.303   8.134  0.1159  0.0475  1.1489
    9MOL0     C 1168   6.538   5.317   8.150  0.0543  0.0836 -0.1840
    9MOL0     C 1169   6.419   5.342   8.145 -0.1040 -0.3044 -0.0607
    9MOL0     C 1170   6.929   5.233   7.668 -0.2838  0.2207  0.5047
    9MOL0     C 1171   7.013   5.151   7.593 -0.3553  0.5357  0.2522
    9MOL0     C 1172   6.978   5.114   7.454 -0.3060  0.5156  0.4416
    9MOL0     H 1173   7.568   5.033   7.764 -2.8468 -3.1386  0.0662
    9MOL0     H 1174   7.802   4.993   7.696 -0.8875  1.2963  0.4210
    9MOL0     H 1175   7.974   4.895   7.593 -1.1999  0.9242  0.1701
    9MOL0     H 1176   7.999   5.067   7.543 -3.2140  0.9273  1.6037
    9MOL0     H 1177   8.141   4.962   7.347 -0.4984 -0.6482  0.5982
    9MOL0     H 1178   8.208   4.935   7.508  1.1465  1.0095 -0.6611
    9MOL0     H 1179   8.093   4.724   7.530  0.4487  2.1545  0.0479
    9MOL0     H 1180   8.008   4.738   7.384 -0.1228  0.3125 -0.3724
    9MOL0     H 1181   8.247   4.713   7.266  0.8718 -2.0707  0.1515
    9MOL0     H 1182   8.311   4.699   7.420 -0.7633 -2.4265  1.8714
    9MOL0     H 1183   8.108   4.496   7.336 -0.5758 -0.1710 -1.0481
    9MOL0     H 1184   8.241   4.483   7.456 -2.7072 -1.6929  0.2244
    9MOL0     H 1185   8.389   4.512   7.246 -1.4075  1.8401  1.8458
    9MOL0     H 1186   8.297   4.360   7.270 -1.5615  0.9016  4.2182
    9MOL0     H 1187   8.198   4.574   7.081  1.1068  0.3784 -2.1431
    9MOL0     H 1188   8.117   4.422   7.125  1.4092 -1.1747 -0.9719
    9MOL0     H 1189   8.389   4.468   6.978 -0.8578  1.7784 -0.7268
    9MOL0     H 1190   8.315   4.302   6.998  1.2213 -0.0456  0.4011
    9MOL0     H 1191   8.342   4.578   6.750  0.1618 -0.9067  0.9574
    9MOL0     H 1192   8.168   4.686   6.569  3.2068 -1.0999 -2.3894
    9MOL0     H 1193   8.025   4.599   6.518  0.1521  0.2267  1.9241
    9MOL0     H 1194   8.241   4.610   6.375  1.0824  0.1761  0.1329
    9MOL0     H 1195   8.312   4.500   6.489 -0.5548  0.2779  2.3961
    9MOL0     H 1196   8.105   4.350   6.427 -1.2492  0.9499  1.0438
    9MOL0     H 1197   8.058   4.469   6.307 -0.3371  2.3082  2.1017
    9MOL0     H 1198   8.324   4.313   6.325 -1.4772  1.6281  2.7824
    9MOL0     H 1199   8.189   4.291   6.203 -1.7082  0.9216 -0.1956
    9MOL0     H 1200   8.298   4.350   5.951 -0.5757  1.3967 -0.6437
    9MOL0     H 1201   8.507   4.206   5.740  0.9101  0.4447  2.5530
    9MOL0     H 1202   8.490   4.377   5.674 -1.2555 -0.5158 -1.5173
    9MOL0     H 1203   8.354   4.297   5.753  0.4274 -0.3603 -1.4919
    9MOL0     H 1204   8.888   4.288   5.568 -1.4032  0.2247  0.8807
    9MOL0     H 1205   9.071   4.366   5.416 -3.3582  0.2730 -1.2132
    9MOL0     H 1206   9.051   4.674   5.268  0.6893 -0.6606 -1.8322
    9MOL0     H 1207   9.131   4.800   5.362 -1.3473 -0.3719 -0.0406
    9MOL0     H 1208   9.353   4.694   5.287  1.3085  0.3182 -0.0678
    9MOL0     H 1209   9.242   4.583   5.193 -0.9661 -0.5750  2.0381
    9MOL0     H 1210   9.252   4.882   5.170 -0.7986 -2.9397  3.4378
    9MOL0     H 1211   9.170   4.763   5.069 -0.7562 -1.9702  2.1802
    9MOL0     H 1212   9.388   4.682   4.974 -2.9236 -0.9523  1.2072
    9MOL0     H 1213   9.477   4.813   5.060  0.1004  0.5013 -0.6918
    9MOL0     H 1214   9.323   4.822   4.808  0.1185  3.3079 -3.2354
    9MOL0     H 1215   9.267   4.943   4.918  0.6683 -0.9316 -1.1859
    9MOL0     H 1216   9.523   4.875   4.795 -3.1962 -2.0980 -0.3497
    9MOL0     H 1217   9.519   4.999   4.922  0.8942  1.8923 -1.9813
    9MOL0     H 1218   9.397   5.142   4.775 -3.6073 -0.1508 -2.7528
    9MOL0     H 1219   9.335   5.009   4.686  0.1806 -1.7682 -0.5396
    9MOL0     H 1220   9.552   4.993   4.554 -0.2333  0.6683 -1.9164
    9MOL0     H 1221   9.627   5.098   4.678 -1.4110  2.3666  1.1251
    9MOL0     H 1222   9.032   4.755   5.571 -1.2678  0.8607 -2.4810
    9MOL0     H 1223   8.834   4.687   5.708  2.0998 -0.2699  2.7933
    9MOL0     H 1224   8.751   4.443   6.119 -1.5902  0.7793  3.4166
    9MOL0     H 1225   8.556   4.514   6.239 -2.1338  0.1602  0.5374
    9MOL0     H 1226   7.649   4.970   7.287 -0.8273 -0.5642 -0.0861
    9MOL0     H 1227   7.443   5.023   7.361  1.5462 -2.6661  0.1120
    9MOL0     H 1228   7.259   5.131   7.834 -0.5895  0.1299 -1.0075
    9MOL0     H 1229   7.113   5.298   7.937 -1.2193  0.2811  0.0624
    9MOL0     H 1230   6.740   5.457   7.741 -1.7925  1.9231  1.2320
    9MOL0     H 1231   6.722   5.301   7.840  1.7227 -0.4019 -0.2218
    9MOL0     H 1232   6.594   5.501   7.935  0.7543  2.7158 -2.6470
    9MOL0     H 1233   6.750   5.581   7.932  1.0180 -0.0207 -1.5669
    9MOL0     H 1234   6.845   5.452   8.119 -0.5302  0.7514  0.9750
    9MOL0     H 1235   6.706   5.513   8.174  3.2681 -0.7187  2.2834
    9MOL0     H 1236   6.717   5.265   8.228 -0.1793 -0.6710  0.9940
    9MOL0     H 1237   6.692   5.231   8.053  0.1633  0.0476  1.1573
    9MOL0     H 1238   6.316   5.360   8.125  0.5649  2.8817 -1.2688
    9MOL0     H 1239   6.846   5.283   7.619  1.3652  3.5995  0.8476
    9MOL0     H 1240   7.038   5.159   7.374 -2.8661  0.8233 -1.4480
    9MOL0     H 1241   6.977   5.005   7.441 -0.4159  0.2381  2.4331
    9MOL0     H 1242   6.874   5.142   7.433 -0.4295 -1.5413 -2.2063
   10MOL0     O 1243   3.511   6.839   3.850 -0.9241 -0.6017 -0.1054
   10MOL0     C 1244   3.489   6.716   3.858  0.0018 -0.1679  0.6955
   10MOL0     O 1245   3.583   6.627   3.874  0.2995 -0.2483  0.6411
   10MOL0     C 1246   3.710   6.671   3.871 -0.2798 -0.3399  0.2819
   10MOL0     C 1247   3.785   6.708   3.751 -0.4672 -0.4859  0.7797
   10MOL0     C 1248   3.924   6.726   3.754  0.9105  0.4357  0.3944
   10MOL0     C 1249   3.987   6.732   3.877 -0.1156 -1.0258 -0.3053
   10MOL0     O 1250   4.121   6.761   3.869  0.1525 -0.2187  0.0659
   10MOL0     C 1251   4.193   6.811   3.979 -0.8521  0.1124 -0.0106
   10MOL0     C 1252   4.313   6.882   3.926  0.5002 -0.5372  0.7276
   10MOL0     C 1253   4.429   6.789   3.892  0.1064 -0.1905  0.7224
   10MOL0     C 1254   4.545   6.882   3.832  0.4532  0.6387 -0.3986
   10MOL0     C 1255   4.678   6.818   3.809 -0.6772 -0.4765 -0.0824
   10MOL0     C 1256   4.782   6.910   3.754 -0.8257 -0.4311  0.3192
   10MOL0     C 1257   4.926   6.856   3.782 -0.2496  0.1221 -0.2500
   10MOL0     C 1258   4.968   6.756   3.663  0.3568  1.0127 -0.7514
   10MOL0     N 1259   5.070   6.654   3.709 -0.3361 -0.1706 -0.2758
   10MOL0     C 1260   5.196   6.649   3.672 -0.3546  0.2699  0.1755
   10MOL0     C 1261   5.250   6.534   3.728 -1.0043  0.4033  0.5733
   10MOL0     C 1262   5.387   6.488   3.703 -0.6105 -0.0571 -0.2879
   10MOL0     C 1263   5.389   6.367   3.607 -0.4630 -0.1708  0.7543
   10MOL0     C 1264   5.519   6.370   3.515  0.3270  0.9830  0.3300
   10MOL0     C 1265   5.655   6.382   3.587 -0.7377 -0.5745  0.4569
   10MOL0     O 1266   5.680   6.247   3.643 -0.2378  0.3119  0.4175
   10MOL0     C 1267   5.807   6.239   3.697  0.4239 -0.0431  0.1869
   10MOL0     C 1268   5.819   6.138   3.796  0.2222  0.2512 -0.0137
   10MOL0     C 1269   5.947   6.108   3.847  0.2951 -0.5171  0.5301
   10MOL0     C 1270   5.946   5.999   3.952 -0.0859 -0.2971 -0.2705
   10MOL0     C 1271   6.062   6.175   3.796 -0.1226  0.0290 -0.0931
   10MOL0     C 1272   6.209   6.148   3.829  0.8096  0.3892  0.0081
   10MOL0     O 1273   6.296   6.253   3.812 -0.2334  0.3207  0.3776
   10MOL0     C 1274   6.412   6.252   3.880  0.5871 -0.0421 -0.7156
   10MOL0     C 1275   6.535   6.246   3.818  1.0905  0.0965  0.4937
   10MOL0     C 1276   6.657   6.240   3.892  0.1139  0.3741  0.0319
   10MOL0     C 1277   6.655   6.251   4.027  1.1274 -0.4992  0.0167
   10MOL0     O 1278   6.767   6.247   4.110 -0.5827 -0.1925  0.6742
   10MOL0     C 1279   6.832   6.124   4.115  0.2578  0.6638 -0.2607
   10MOL0     C 1280   6.930   6.108   4.236 -0.0866 -0.3613  1.3575
   10MOL0     C 1281   7.043   6.216   4.246  0.5531  0.0744 -0.2694
   10MOL0     C 1282   7.124   6.255   4.129  0.1790 -0.7996  0.5555
   10MOL0     C 1283   7.215   6.379   4.146  0.1407 -0.7958 -0.4993
   10MOL0     C 1284   7.311   6.365   4.267  0.3722  0.1736  0.2351
   10MOL0     C 1285   7.428   6.455   4.247 -0.6781  0.5802  0.4228
   10MOL0     C 1286   7.559   6.416   4.335  0.5870  0.0373  0.2613
   10MOL0    Cl 1287   7.624   6.262   4.270  0.1284 -0.4758 -0.2700
   10MOL0     C 1288   6.529   6.245   4.092  0.5695 -0.1786  0.5029
   10MOL0     C 1289   6.409   6.251   4.017 -0.0018  0.5821 -0.4060
   10MOL0     O 1290   6.243   6.048   3.901  0.5998 -0.3051  0.2352
   10MOL0     C 1291   6.049   6.279   3.701 -0.9145  0.1483  0.7773
   10MOL0     C 1292   5.923   6.308   3.663 -0.0244  0.3255  0.9878
   10MOL0     N 1293   5.149   6.460   3.781 -0.2726  0.3402 -0.0804
   10MOL0     N 1294   5.044   6.537   3.780 -0.8314  0.2958  0.0134
   10MOL0     C 1295   3.923   6.710   4.000 -0.2118  0.4767 -0.1052
   10MOL0     C 1296   3.781   6.673   3.999  0.3539  0.7925 -0.4465
   10MOL0     C 1297   3.348   6.655   3.849  0.5094  0.3879 -0.0557
   10MOL0     C 1298   3.323   6.536   3.911 -0.7603 -0.3824  0.0249
   10MOL0     C 1299   3.195   6.485   3.940 -0.3013  0.0632 -0.5026
   10MOL0     C 1300   3.085   6.564   3.892 -0.9459  0.0397 -0.3327
   10MOL0     O 1301   2.954   6.534   3.923  0.1530  0.1639  0.8590
   10MOL0     C 1302   2.893   6.630   4.017 -1.2744 -0.4614 -0.7407
   10MOL0     C 1303   2.792   6.551   4.103  0.1106  0.2801 -0.6339
   10MOL0     C 1304   2.857   6.435   4.187 -0.2815 -0.1227  1.2737
   10MOL0     C 1305   2.758   6.403   4.298 -0.1706 -0.3047 -0.0038
   10MOL0     C 1306   2.787   6.282   4.369  0.1772  0.2078 -0.5537
   10MOL0     C 1307   2.817   6.185   4.435  0.5666 -0.4997 -0.2232
   10MOL0     C 1308   3.110   6.676   3.817 -0.5540  0.0836  0.0594
   10MOL0     C 1309   3.238   6.723   3.792  0.1869 -0.2185  1.0697
   10MOL0     C 1310   3.251   6.859   3.722  0.5247  0.2733  0.4270
   10MOL0     H 1311   3.743   6.710   3.651 -2.1781  2.0205  1.4553
   10MOL0     H 1312   3.985   6.735   3.664  1.8044 -0.4103  0.8962
   10MOL0     H 1313   4.218   6.735   4.053 -0.8704 -0.4002 -0.5202
   10MOL0     H 1314   4.125   6.882   4.027 -3.2435 -2.1149  0.1787
   10MOL0     H 1315   4.279   6.941   3.840  0.6886  2.7780  2.7770
   10MOL0     H 1316   4.346   6.957   3.998 -1.2744 -0.0176  1.0567
   10MOL0     H 1317   4.483   6.742   3.974  0.5857 -2.1999 -0.6615
   10MOL0     H 1318   4.404   6.710   3.820  0.7644 -0.5705  0.8952
   10MOL0     H 1319   4.504   6.925   3.740  1.5605  2.7886  0.0324
   10MOL0     H 1320   4.558   6.967   3.899 -3.6522  0.7313  0.5172
   10MOL0     H 1321   4.669   6.743   3.730  2.3165  0.3909 -1.4270
   10MOL0     H 1322   4.706   6.767   3.902  1.4617 -2.1284 -1.5433
   10MOL0     H 1323   4.761   6.916   3.647 -1.3766 -4.4871  0.0307
   10MOL0     H 1324   4.765   7.010   3.795 -1.2821 -0.7610  0.9567
   10MOL0     H 1325   4.912   6.799   3.874 -1.3011 -0.4172 -0.7229
   10MOL0     H 1326   5.004   6.931   3.800  2.4318 -3.0487  2.8786
   10MOL0     H 1327   4.885   6.699   3.621  1.1512  0.1745 -1.2099
   10MOL0     H 1328   5.007   6.820   3.584 -2.4590  2.1123 -1.3836
   10MOL0     H 1329   5.242   6.724   3.608 -0.0486  0.2867  0.4144
   10MOL0     H 1330   5.430   6.458   3.799  1.0762  0.1558 -0.9482
   10MOL0     H 1331   5.444   6.569   3.657  0.8099 -1.2645 -0.7375
   10MOL0     H 1332   5.398   6.276   3.668  1.4258 -1.1142 -0.8164
   10MOL0     H 1333   5.300   6.353   3.545 -0.4068 -0.6823  0.7815
   10MOL0     H 1334   5.522   6.282   3.450 -1.0135  0.8658  0.3871
   10MOL0     H 1335   5.500   6.455   3.448  0.7546  0.7432 -0.1038
   10MOL0     H 1336   5.726   6.423   3.514 -0.0723 -1.5973  0.5071
   10MOL0     H 1337   5.645   6.440   3.679  2.1719  0.8888 -0.0252
   10MOL0     H 1338   5.736   6.081   3.836  2.3816 -1.6977  2.0389
   10MOL0     H 1339   5.865   5.926   3.939 -1.6736  0.5934  3.4407
   10MOL0     H 1340   5.924   6.035   4.052  1.3712 -0.2656  0.0611
   10MOL0     H 1341   6.043   5.949   3.937 -0.4718 -0.9735 -0.6008
   10MOL0     H 1342   6.543   6.236   3.710  2.3005 -1.4378  0.6872
   10MOL0     H 1343   6.753   6.236   3.842  0.2185 -0.1563  0.2758
   10MOL0     H 1344   6.759   6.044   4.122  0.5414  0.5827  2.9791
   10MOL0     H 1345   6.893   6.109   4.025 -0.1832 -1.3711 -0.2626
   10MOL0     H 1346   6.876   6.120   4.331 -0.3848  1.6360  0.9881
   10MOL0     H 1347   6.967   6.005   4.236 -0.9078 -0.6613  1.0393
   10MOL0     H 1348   7.117   6.180   4.318 -0.6596  1.7620  1.9375
   10MOL0     H 1349   7.010   6.307   4.296  3.0056  0.7960  0.1717
   10MOL0     H 1350   7.060   6.265   4.041  0.6500 -2.5635 -0.0449
   10MOL0     H 1351   7.199   6.177   4.115  0.7231 -0.2066  0.1603
   10MOL0     H 1352   7.275   6.393   4.055  0.0521 -0.8263 -0.5625
   10MOL0     H 1353   7.161   6.470   4.170  1.3319 -0.8235  2.7519
   10MOL0     H 1354   7.342   6.260   4.266 -1.2242 -0.4204  3.0719
   10MOL0     H 1355   7.270   6.383   4.367  1.8969 -2.0659  1.3792
   10MOL0     H 1356   7.399   6.558   4.273  2.5677  1.8436 -0.4960
   10MOL0     H 1357   7.454   6.461   4.141  2.8834  1.3612  1.2328
   10MOL0     H 1358   7.538   6.415   4.443  1.3240 -0.7353  0.4113
   10MOL0     H 1359   7.625   6.503   4.329 -2.3350  2.5144  1.2407
   10MOL0     H 1360   6.524   6.251   4.200 -3.4900  0.5577  0.4697
   10MOL0     H 1361   6.312   6.244   4.065 -0.0720 -2.4573 -0.7753
   10MOL0     H 1362   6.135   6.324   3.652 -1.2394 -2.3030 -2.3608
   10MOL0     H 1363   5.905   6.392   3.597 -1.4142  0.1922  1.1633
   10MOL0     H 1364   3.980   6.712   4.093  0.5436  0.6272 -0.5626
   10MOL0     H 1365   3.731   6.641   4.089  1.0174 -0.8429 -0.6233
   10MOL0     H 1366   3.405   6.480   3.955 -0.9416  1.4521  2.8965
   10MOL0     H 1367   3.177   6.391   3.992 -2.6132  0.5335 -0.3436
   10MOL0     H 1368   2.981   6.670   4.069  0.1693 -2.3099 -1.6173
   10MOL0     H 1369   2.843   6.721   3.983  1.3659  1.8872  1.1139
   10MOL0     H 1370   2.722   6.514   4.028  2.0891 -2.1835 -1.4474
   10MOL0     H 1371   2.730   6.612   4.169  0.5206  3.2534 -2.7897
   10MOL0     H 1372   2.872   6.346   4.125 -3.1369 -0.8177  1.4369
   10MOL0     H 1373   2.945   6.481   4.233  0.6473  1.5264 -1.8829
   10MOL0     H 1374   2.658   6.397   4.255 -0.0562 -0.7568 -0.2153
   10MOL0     H 1375   2.763   6.487   4.368  4.0833  1.0044 -1.5594
   10MOL0     H 1376   2.861   6.108   4.495  0.2934 -0.6946 -0.2719
   10MOL0     H 1377   3.023   6.734   3.789  1.3994  1.5827 -3.6492
   10MOL0     H 1378   3.148   6.892   3.707 -1.4804 -4.8952  0.5505
   10MOL0     H 1379   3.301   6.939   3.776  3.9937 -0.3036 -1.6206
   10MOL0     H 1380   3.293   6.853   3.621 -0.5639 -3.1265  0.0277
   11MOL0     O 1381   8.285  10.351   1.143  0.6803  0.8900 -0.0071
   11MOL0     C 1382   8.246  10.375   1.258 -0.5497  0.5701  0.1761
   11MOL0     O 1383   8.317  10.360   1.366  0.4701  0.1699  0.1418
   11MOL0     C 1384   8.440  10.301   1.361  0.2905  1.1561  0.5507
   11MOL0     C 1385   8.536  10.370   1.430 -0.1741  1.4768 -0.0672
   11MOL0     C 1386   8.663  10.311   1.439 -0.2282 -0.5374  0.0218
   11MOL0     C 1387   8.705  10.197   1.369  0.6382  0.7812  0.2415
   11MOL0     O 1388   8.837  10.149   1.380 -0.1799  0.1347  0.3465
   11MOL0     C 1389   8.874  10.027   1.311  0.0210 -0.0566  1.0342
   11MOL0     C 1390   9.013   9.974   1.358  0.7563  0.1092  0.0908
   11MOL0     C 1391   9.111  10.083   1.322  0.3129 -0.5577  0.4759
   11MOL0     C 1392   9.260  10.063   1.354 -0.7321  0.4353 -0.7953
   11MOL0     C 1393   9.342  10.178   1.284  0.0725  0.1151 -0.0521
   11MOL0     C 1394   9.493  10.169   1.321 -0.0827 -0.2417 -0.8110
   11MOL0     C 1395   9.575  10.272   1.229  0.6206 -0.7088 -0.7223
   11MOL0     C 1396   9.732  10.262   1.241 -0.1681  0.4553 -0.3543
   11MOL0     N 1397   9.797  10.351   1.151 -0.6146  0.0323 -0.4362
   11MOL0     C 1398   9.833  10.482   1.181  0.0267  0.4813 -0.3044
   11MOL0     C 1399   9.931  10.508   1.088  0.4953 -0.4682  1.1394
   11MOL0     C 1400  10.010  10.640   1.076  0.4640  0.4942  0.4596
   11MOL0     C 1401  10.157  10.613   1.042  0.7479 -0.0054  0.0468
   11MOL0     C 1402  10.234  10.740   0.993 -0.3264  0.3648  0.0382
   11MOL0     C 1403  10.374  10.710   0.942  2.2459  0.8161 -1.1943
   11MOL0     O 1404  10.441  10.833   0.920  0.1565  0.1581  0.5001
   11MOL0     C 1405  10.562  10.821   0.856 -1.1519  0.0203 -0.1238
   11MOL0     C 1406  10.609  10.946   0.802  0.1329  0.7370  0.3084
   11MOL0     C 1407  10.720  10.948   0.708 -0.2576  1.0493  0.7961
   11MOL0     C 1408  10.764  11.089   0.653  0.0724 -0.2789 -0.5926
   11MOL0     C 1409  10.787  10.820   0.673 -0.1604  0.1172 -0.5365
   11MOL0     C 1410  10.908  10.810   0.584  0.1296 -0.6634 -0.5304
   11MOL0     O 1411  10.967  10.690   0.560 -0.0792 -0.2880  0.3104
   11MOL0     C 1412  11.095  10.685   0.493  0.1038 -0.4052 -0.1624
   11MOL0     C 1413  11.189  10.789   0.482 -1.2395 -0.0449 -1.1749
   11MOL0     C 1414  11.313  10.764   0.412 -0.2576 -0.2589 -0.5875
   11MOL0     C 1415  11.340  10.637   0.359 -0.1985 -0.1773  0.5651
   11MOL0     O 1416  11.462  10.608   0.303  0.5219  0.6980 -0.0467
   11MOL0     C 1417  11.560  10.710   0.297 -0.9299  0.4404 -0.3725
   11MOL0     C 1418  11.694  10.649   0.251  0.4017  0.2645 -0.4227
   11MOL0     C 1419  11.796  10.759   0.226  0.3628  1.2021 -0.1503
   11MOL0     C 1420  11.949  10.710   0.230 -0.1147  0.2863  0.0325
   11MOL0     C 1421  12.050  10.814   0.188 -0.2230  0.2740  1.0000
   11MOL0     C 1422  12.204  10.757   0.200  0.5184 -0.0388 -0.2245
   11MOL0     C 1423  12.234  10.669   0.317 -0.0194  0.2972 -0.4205
   11MOL0     C 1424  12.386  10.643   0.326 -0.5724 -0.0726 -0.1174
   11MOL0    Cl 1425  12.480  10.785   0.361 -0.1966 -0.2295  0.1298
   11MOL0     C 1426  11.240  10.543   0.374  0.6786  0.3914 -0.4808
   11MOL0     C 1427  11.119  10.562   0.439 -0.2975 -0.1768 -0.3467
   11MOL0     O 1428  10.939  10.914   0.527 -1.1146  0.8261  0.6679
   11MOL0     C 1429  10.738  10.706   0.726 -0.8436  0.0509 -0.5250
   11MOL0     C 1430  10.626  10.704   0.813 -1.2814  0.4245  0.3346
   11MOL0     N 1431   9.949  10.395   1.010 -0.1820  1.3103  0.0153
   11MOL0     N 1432   9.876  10.306   1.052  0.0980  0.0201 -0.1154
   11MOL0     C 1433   8.603  10.141   1.292 -0.1055  0.2108  0.0894
   11MOL0     C 1434   8.468  10.189   1.288  0.2154  0.0627  0.5125
   11MOL0     C 1435   8.118  10.436   1.268  0.2941 -0.1931  0.6635
   11MOL0     C 1436   8.104  10.547   1.356  0.2347  1.0867 -0.3798
   11MOL0     C 1437   7.970  10.598   1.388 -0.9721 -0.2407  0.5786
   11MOL0     C 1438   7.864  10.546   1.318  0.3308  0.1213  0.4949
   11MOL0     O 1439   7.732  10.576   1.346 -0.2183 -0.4106 -0.2187
   11MOL0     C 1440   7.703  10.666   1.453 -0.2281 -0.4751  0.6659
   11MOL0     C 1441   7.549  10.693   1.447  1.1610  0.6509 -0.1847
   11MOL0     C 1442   7.476  10.566   1.506 -0.1987 -0.1508  0.0706
   11MOL0     C 1443   7.320  10.594   1.514  0.2274  0.7780 -0.0234
   11MOL0     C 1444   7.243  10.579   1.385 -0.8969 -0.0983 -0.2702
   11MOL0     C 1445   7.192  10.558   1.281 -0.2863 -0.6963 -0.0469
   11MOL0     C 1446   7.877  10.448   1.220 -0.3290  0.3300 -0.2847
   11MOL0     C 1447   8.004  10.391   1.193  0.3355 -0.7144  1.1425
   11MOL0     C 1448   8.005  10.296   1.068 -0.7789 -0.0003  0.0318
   11MOL0     H 1449   8.502  10.460   1.480 -0.8995  2.7216 -2.6231
   11MOL0     H 1450   8.741  10.365   1.492 -1.4642  1.1010  0.2503
   11MOL0     H 1451   8.865  10.044   1.204 -0.5167 -0.4799  1.0024
   11MOL0     H 1452   8.793   9.954   1.321 -1.7441  1.1122 -2.8764
   11MOL0     H 1453   8.997   9.963   1.466 -1.4162 -0.7421 -0.2806
   11MOL0     H 1454   9.035   9.881   1.305  0.9700  0.2287 -0.0322
   11MOL0     H 1455   9.111  10.102   1.215 -0.0595 -0.8047  0.4269
   11MOL0     H 1456   9.073  10.177   1.362 -1.5579 -0.0536 -2.2239
   11MOL0     H 1457   9.263  10.062   1.464 -3.1020 -1.2308 -0.6721
   11MOL0     H 1458   9.300   9.968   1.319  3.0673  0.8264  1.9380
   11MOL0     H 1459   9.296  10.267   1.326 -2.7962 -0.2452 -2.1735
   11MOL0     H 1460   9.331  10.170   1.176  2.1349 -1.9989 -0.2034
   11MOL0     H 1461   9.499  10.185   1.429 -1.4651  2.0517 -1.0032
   11MOL0     H 1462   9.534  10.069   1.306  0.4427  0.0168 -1.1006
   11MOL0     H 1463   9.541  10.373   1.253  0.3832 -0.9925  0.1678
   11MOL0     H 1464   9.550  10.268   1.122 -0.6420  1.5759 -0.5754
   11MOL0     H 1465   9.768  10.280   1.343  1.0667 -5.5053  0.6381
   11MOL0     H 1466   9.754  10.158   1.215 -1.1235  0.2255 -0.2823
   11MOL0     H 1467   9.798  10.549   1.258 -1.6122  1.0473 -1.5103
   11MOL0     H 1468  10.006  10.710   1.160 -0.6935  2.8359 -1.4193
   11MOL0     H 1469   9.971  10.700   0.993  0.4100  0.5553  0.5292
   11MOL0     H 1470  10.203  10.577   1.135 -0.3052 -1.4771  0.0311
   11MOL0     H 1471  10.156  10.531   0.971 -1.6409  0.1141 -0.1309
   11MOL0     H 1472  10.178  10.781   0.908  0.1503  1.8579  0.4038
   11MOL0     H 1473  10.234  10.818   1.069 -0.6400  1.5457 -1.1310
   11MOL0     H 1474  10.422  10.649   1.019  0.5179 -2.2039 -2.2804
   11MOL0     H 1475  10.354  10.641   0.859 -0.7653  2.3812 -1.9228
   11MOL0     H 1476  10.552  11.037   0.821  1.0524  1.0635  1.7013
   11MOL0     H 1477  10.710  11.165   0.711 -0.2758 -1.6974  1.0653
   11MOL0     H 1478  10.736  11.102   0.548 -0.2661  0.2221 -0.4470
   11MOL0     H 1479  10.871  11.109   0.663 -0.3595  1.2602  2.4440
   11MOL0     H 1480  11.178  10.886   0.530 -2.3534 -1.1227  0.8942
   11MOL0     H 1481  11.381  10.846   0.393 -1.8965  1.0802 -0.8716
   11MOL0     H 1482  11.533  10.793   0.231  3.4261  0.5139 -2.4268
   11MOL0     H 1483  11.576  10.746   0.399  1.9902  2.6427 -1.4819
   11MOL0     H 1484  11.727  10.588   0.336  0.9339 -0.5290 -1.1921
   11MOL0     H 1485  11.681  10.591   0.160  0.2513 -1.0392  0.4096
   11MOL0     H 1486  11.787  10.835   0.303  2.9675 -0.8762  2.4382
   11MOL0     H 1487  11.781  10.804   0.127 -0.7588  1.9129  0.3315
   11MOL0     H 1488  11.961  10.623   0.165  0.3869  1.0450 -0.9172
   11MOL0     H 1489  11.961  10.677   0.333 -0.2613  4.6297  1.6420
   11MOL0     H 1490  12.033  10.838   0.083 -0.6813 -0.6813  0.8391
   11MOL0     H 1491  12.037  10.906   0.245 -1.3610  1.6349 -1.3325
   11MOL0     H 1492  12.272  10.841   0.213 -0.1989  0.5523 -0.2191
   11MOL0     H 1493  12.226  10.689   0.117  1.9810 -1.2781  1.1240
   11MOL0     H 1494  12.186  10.572   0.302  2.1068 -0.5057 -2.7474
   11MOL0     H 1495  12.213  10.722   0.411  1.6888  0.3724 -0.0478
   11MOL0     H 1496  12.420  10.598   0.232 -3.4834  0.0061 -1.3184
   11MOL0     H 1497  12.398  10.566   0.403 -1.2713 -0.4456 -0.3656
   11MOL0     H 1498  11.268  10.443   0.341  3.8461  1.4814 -1.4500
   11MOL0     H 1499  11.056  10.474   0.453 -1.2276  0.3210 -1.2691
   11MOL0     H 1500  10.776  10.606   0.710  1.6594  0.9550 -0.7593
   11MOL0     H 1501  10.586  10.612   0.856  1.1889 -0.0075  1.8804
   11MOL0     H 1502   8.619  10.056   1.227 -6.6574 -0.9193 -0.7881
   11MOL0     H 1503   8.397  10.138   1.224  0.7389 -0.3470  0.2474
   11MOL0     H 1504   8.188  10.577   1.419 -0.9417  0.3613  1.6448
   11MOL0     H 1505   7.965  10.666   1.472 -0.3728  0.5075  0.0280
   11MOL0     H 1506   7.737  10.622   1.546 -2.1005 -2.1415  0.6298
   11MOL0     H 1507   7.747  10.764   1.430  0.8825 -0.5013  2.5235
   11MOL0     H 1508   7.510  10.703   1.346  0.8746 -2.0286 -0.4073
   11MOL0     H 1509   7.520  10.782   1.504  0.6702  1.0148 -0.9892
   11MOL0     H 1510   7.487  10.476   1.445  0.0714  0.8743 -1.4541
   11MOL0     H 1511   7.507  10.557   1.610  1.0258  0.2737 -0.2391
   11MOL0     H 1512   7.299  10.688   1.566  0.5285 -0.4135  2.4039
   11MOL0     H 1513   7.284  10.519   1.585 -0.3403 -0.7210 -1.8046
   11MOL0     H 1514   7.139  10.554   1.188 -0.4942  0.1832  0.0300
   11MOL0     H 1515   7.781  10.418   1.177 -1.2884  1.5243  0.9483
   11MOL0     H 1516   7.929  10.220   1.086 -0.2883 -0.6599 -0.6183
   11MOL0     H 1517   7.979  10.360   0.984  0.3528  0.1682 -0.2112
   11MOL0     H 1518   8.099  10.241   1.054 -1.0783 -0.8282  1.0870
   12MOL0     O 1519   2.291  11.008   8.048  0.0497 -0.3521  0.4756
   12MOL0     C 1520   2.289  11.090   7.951 -0.4440 -0.2863  0.6327
   12MOL0     O 1521   2.250  11.215   7.960 -0.2406 -0.3805 -0.5529
   12MOL0     C 1522   2.249  11.286   8.085  0.7371  0.5176 -0.1954
   12MOL0     C 1523   2.129  11.342   8.120  0.7039  0.4494  0.1815
   12MOL0     C 1524   2.121  11.409   8.247  0.3224 -0.9700 -0.2810
   12MOL0     C 1525   2.236  11.403   8.338  0.0414 -0.6222  0.8230
   12MOL0     O 1526   2.243  11.478   8.454  0.7992  0.5495 -0.8325
   12MOL0     C 1527   2.132  11.565   8.484 -0.4240 -0.3355  0.9677
   12MOL0     C 1528   2.168  11.623   8.626  0.4704 -0.0187  0.1484
   12MOL0     C 1529   2.293  11.711   8.632  0.1797 -0.4975  0.7092
   12MOL0     C 1530   2.356  11.732   8.768  0.0843 -0.1328  0.0442
   12MOL0     C 1531   2.458  11.845   8.789 -0.2531 -0.5554 -0.7149
   12MOL0     C 1532   2.609  11.815   8.752 -0.2814 -0.3538 -0.6743
   12MOL0     C 1533   2.669  11.706   8.850  0.5030 -0.5098  0.5757
   12MOL0     C 1534   2.818  11.684   8.812  0.4009  0.6649  0.4271
   12MOL0     N 1535   2.874  11.553   8.871 -0.5047 -0.3451 -0.6599
   12MOL0     C 1536   2.970  11.536   8.973  0.0156  1.1465  0.0823
   12MOL0     C 1537   3.019  11.410   8.957  0.2278 -0.2272 -0.4289
   12MOL0     C 1538   3.109  11.332   9.057 -0.6857  0.1733  0.6455
   12MOL0     C 1539   3.254  11.320   9.001  0.0981 -0.0933  1.0182
   12MOL0     C 1540   3.258  11.211   8.889  0.1391 -0.2199 -0.0516
   12MOL0     C 1541   3.393  11.200   8.827 -0.0672  0.0378 -0.3376
   12MOL0     O 1542   3.417  11.313   8.746  0.0072  0.1037  0.0359
   12MOL0     C 1543   3.375  11.318   8.615  0.1750  0.6820 -0.4642
   12MOL0     C 1544   3.421  11.424   8.539 -0.3153  0.1450  0.5953
   12MOL0     C 1545   3.405  11.435   8.402  0.5085  0.1137 -0.5293
   12MOL0     C 1546   3.467  11.561   8.333  0.4940  0.4804  0.0086
   12MOL0     C 1547   3.321  11.345   8.340  0.3848 -0.7581 -0.2219
   12MOL0     C 1548   3.270  11.363   8.196  0.9969 -1.4047  0.3549
   12MOL0     O 1549   3.322  11.268   8.113  0.2254 -0.9372  0.1914
   12MOL0     C 1550   3.300  11.280   7.978  0.1710  0.6429 -0.3925
   12MOL0     C 1551   3.167  11.256   7.929 -0.9696  0.1332 -0.4164
   12MOL0     C 1552   3.136  11.265   7.795 -0.6444  0.7222  0.1977
   12MOL0     C 1553   3.232  11.314   7.700 -0.1362  0.0362 -0.4362
   12MOL0     O 1554   3.196  11.323   7.568 -0.2919 -0.4349  0.4788
   12MOL0     C 1555   3.271  11.399   7.475 -0.5126 -0.5597 -0.0603
   12MOL0     C 1556   3.198  11.411   7.347 -0.4258 -0.0500  0.8561
   12MOL0     C 1557   3.291  11.466   7.225  0.0190  0.2027 -0.3286
   12MOL0     C 1558   3.200  11.552   7.129 -0.1867 -0.4948  0.4170
   12MOL0     C 1559   3.088  11.485   7.052 -0.6200 -0.0540  0.1689
   12MOL0     C 1560   3.126  11.362   6.968  0.0090  0.0072  0.2733
   12MOL0     C 1561   3.007  11.332   6.880 -0.0981 -0.4659 -0.3101
   12MOL0     C 1562   3.048  11.226   6.779 -0.3346 -0.6724 -0.0419
   12MOL0    Cl 1563   3.134  11.089   6.865  0.2289  0.1160  0.2839
   12MOL0     C 1564   3.366  11.337   7.750 -0.0823  0.1677 -0.0233
   12MOL0     C 1565   3.398  11.313   7.881  0.5761  0.1527  0.0668
   12MOL0     O 1566   3.189  11.448   8.169 -0.7037 -0.2944  0.9639
   12MOL0     C 1567   3.272  11.238   8.411 -0.2498 -0.0978 -0.2336
   12MOL0     C 1568   3.304  11.229   8.546 -0.0702  0.7296 -0.6440
   12MOL0     N 1569   2.955  11.361   8.840 -0.2080 -0.5374 -0.4393
   12MOL0     N 1570   2.869  11.448   8.796 -0.4333 -0.8574  0.4599
   12MOL0     C 1571   2.354  11.347   8.294  0.7841 -0.3792 -0.2696
   12MOL0     C 1572   2.352  11.289   8.170 -0.5688  0.7495 -0.4458
   12MOL0     C 1573   2.308  11.043   7.809  0.2003  0.8757 -1.4672
   12MOL0     C 1574   2.211  11.031   7.717  0.8092  0.9896  0.1813
   12MOL0     C 1575   2.236  10.980   7.593  0.0226 -0.3072  0.6400
   12MOL0     C 1576   2.351  10.909   7.568  0.4893 -0.5174  0.0934
   12MOL0     O 1577   2.394  10.856   7.450  0.0149 -0.3019  0.4927
   12MOL0     C 1578   2.290  10.838   7.353  0.4876 -0.1598 -0.6955
   12MOL0     C 1579   2.272  10.951   7.255  0.2543 -0.2263 -0.4400
   12MOL0     C 1580   2.397  11.040   7.228  0.2562  0.1438  0.5959
   12MOL0     C 1581   2.351  11.167   7.159  0.0197  0.0035 -0.1495
   12MOL0     C 1582   2.464  11.246   7.115 -0.1542 -0.3325  0.5284
   12MOL0     C 1583   2.562  11.312   7.084  0.7575 -0.7392 -0.3725
   12MOL0     C 1584   2.446  10.914   7.663  1.0250  0.8420 -0.8358
   12MOL0     C 1585   2.430  10.989   7.779 -0.5239  0.9311 -0.3489
   12MOL0     C 1586   2.549  10.983   7.871 -1.7051 -0.2357 -0.3429
   12MOL0     H 1587   2.045  11.341   8.052 -0.9674 -0.2564  2.1427
   12MOL0     H 1588   2.033  11.467   8.274  0.8159 -0.3641  0.0519
   12MOL0     H 1589   2.035  11.514   8.489 -0.8261  0.2910 -0.0950
   12MOL0     H 1590   2.120  11.643   8.409  0.3345 -1.7811 -0.7577
   12MOL0     H 1591   2.082  11.684   8.656 -1.5173 -2.6774  0.2505
   12MOL0     H 1592   2.193  11.539   8.692  0.8292  1.2051  1.6351
   12MOL0     H 1593   2.370  11.659   8.574 -0.1525  1.4635 -1.6459
   12MOL0     H 1594   2.279  11.805   8.578  0.7387 -0.8899 -0.1359
   12MOL0     H 1595   2.273  11.738   8.839  2.4191  0.3699  2.9157
   12MOL0     H 1596   2.402  11.637   8.795  0.5076  0.0037 -0.1964
   12MOL0     H 1597   2.456  11.876   8.894  0.0435 -2.6464 -0.0437
   12MOL0     H 1598   2.418  11.926   8.727 -1.2423 -1.9840 -2.0365
   12MOL0     H 1599   2.621  11.778   8.650 -2.2334  1.8465 -1.8110
   12MOL0     H 1600   2.659  11.910   8.772 -0.0259 -0.3913 -1.1275
   12MOL0     H 1601   2.617  11.610   8.843 -0.0569 -0.1030 -1.8865
   12MOL0     H 1602   2.658  11.748   8.950 -0.6975  1.6001 -0.3816
   12MOL0     H 1603   2.815  11.668   8.704 -0.8381 -0.5121  0.6092
   12MOL0     H 1604   2.874  11.776   8.832 -0.1735  1.0984  0.0724
   12MOL0     H 1605   2.991  11.604   9.054 -0.4901  1.5371 -0.1107
   12MOL0     H 1606   3.064  11.236   9.084 -0.3510  0.1673  1.2123
   12MOL0     H 1607   3.116  11.397   9.144 -0.8953  1.2627 -0.1395
   12MOL0     H 1608   3.278  11.418   8.958  2.7718 -0.7310  0.9304
   12MOL0     H 1609   3.325  11.303   9.082  1.6225  0.4477 -0.1687
   12MOL0     H 1610   3.225  11.112   8.922 -1.4269  0.6718  1.2342
   12MOL0     H 1611   3.187  11.242   8.811  0.0713 -2.6374 -1.0423
   12MOL0     H 1612   3.469  11.196   8.906 -1.6666  0.1803  1.2703
   12MOL0     H 1613   3.399  11.102   8.778  2.5252 -0.2160  0.3351
   12MOL0     H 1614   3.463  11.508   8.593 -1.2677 -0.5354  2.4570
   12MOL0     H 1615   3.388  11.599   8.268 -1.2525 -3.9089 -0.7424
   12MOL0     H 1616   3.548  11.525   8.269 -0.2790  0.4749 -0.9826
   12MOL0     H 1617   3.495  11.644   8.398 -1.6144  1.6745 -0.5178
   12MOL0     H 1618   3.093  11.235   8.006  0.1125  1.5873  1.0881
   12MOL0     H 1619   3.034  11.232   7.777 -0.5002 -1.2440  2.4759
   12MOL0     H 1620   3.292  11.494   7.527 -2.5484 -0.1673  0.1052
   12MOL0     H 1621   3.365  11.344   7.461 -0.8548 -1.5250  1.2573
   12MOL0     H 1622   3.153  11.313   7.325  0.2041 -0.5819  1.8675
   12MOL0     H 1623   3.122  11.488   7.363 -0.0095  0.9250 -1.4606
   12MOL0     H 1624   3.329  11.380   7.170  0.8783  0.7220 -0.5675
   12MOL0     H 1625   3.377  11.515   7.271 -2.3084  0.1784  4.8548
   12MOL0     H 1626   3.266  11.603   7.058 -0.5755  0.7369  0.9104
   12MOL0     H 1627   3.157  11.633   7.189 -1.1799  2.3265 -3.6591
   12MOL0     H 1628   3.019  11.450   7.130 -0.7891  0.7427  0.3874
   12MOL0     H 1629   3.037  11.564   6.997 -0.2894 -1.1764 -1.8635
   12MOL0     H 1630   3.140  11.276   7.034  1.6297 -2.5224 -3.0871
   12MOL0     H 1631   3.218  11.370   6.910 -0.7290 -2.0246 -1.3013
   12MOL0     H 1632   2.987  11.422   6.822  3.2462  0.2132 -0.6162
   12MOL0     H 1633   2.923  11.296   6.940  1.8846 -1.0898  2.2739
   12MOL0     H 1634   3.095  11.267   6.689 -0.2874 -0.1751  0.2037
   12MOL0     H 1635   2.948  11.200   6.745 -0.8999 -0.5279  1.4320
   12MOL0     H 1636   3.449  11.362   7.684  0.8087 -3.0695 -0.3054
   12MOL0     H 1637   3.503  11.322   7.909  1.1646 -3.3822 -0.5473
   12MOL0     H 1638   3.205  11.162   8.372  2.8123 -4.2360  1.8013
   12MOL0     H 1639   3.245  11.155   8.598  1.0331 -0.5339 -1.1121
   12MOL0     H 1640   2.439  11.368   8.359 -0.2676 -0.0562  1.0577
   12MOL0     H 1641   2.448  11.250   8.136 -0.2080  2.3827 -1.4239
   12MOL0     H 1642   2.113  11.079   7.727  0.0471  0.4744 -3.5128
   12MOL0     H 1643   2.161  10.996   7.516 -0.0152 -0.1116  0.7168
   12MOL0     H 1644   2.319  10.752   7.293  0.4248  1.1778 -2.7455
   12MOL0     H 1645   2.191  10.819   7.397  1.4821  0.1884  1.8990
   12MOL0     H 1646   2.190  11.020   7.276  0.9032  0.8299 -1.2952
   12MOL0     H 1647   2.248  10.909   7.157  0.2488  0.3606 -0.6888
   12MOL0     H 1648   2.452  11.049   7.322 -1.1215 -0.7594  1.5205
   12MOL0     H 1649   2.463  10.989   7.157 -1.0171 -0.3993 -0.2281
   12MOL0     H 1650   2.298  11.234   7.227 -0.5437 -1.7658  1.2194
   12MOL0     H 1651   2.280  11.143   7.079 -2.3114  1.8317  1.2457
   12MOL0     H 1652   2.648  11.374   7.072 -0.6723  1.7180  1.1735
   12MOL0     H 1653   2.531  10.853   7.634  1.6265  1.5294 -0.5343
   12MOL0     H 1654   2.547  10.899   7.941 -1.8106  1.0377  1.2383
   12MOL0     H 1655   2.641  10.984   7.813 -0.0406  3.1173  2.0158
   12MOL0     H 1656   2.555  11.081   7.920 -1.2532  0.5069 -1.8386
   13MOL0     O 1657   2.116   3.863   7.604  0.3121 -0.4217 -0.0192
   13MOL0     C 1658   2.188   3.962   7.608 -0.4393 -0.0962  0.2792
   13MOL0     O 1659   2.160   4.087   7.583 -0.2200  0.6415 -0.4988
   13MOL0     C 1660   2.029   4.117   7.563  0.8768 -0.0795 -0.0162
   13MOL0     C 1661   2.008   4.141   7.434 -0.6688  0.5157 -0.4429
   13MOL0     C 1662   1.880   4.147   7.390  0.1825 -0.4120 -0.0227
   13MOL0     C 1663   1.774   4.157   7.487 -0.0171 -0.2551  0.6137
   13MOL0     O 1664   1.648   4.201   7.460 -0.3127 -0.2784 -0.4691
   13MOL0     C 1665   1.597   4.161   7.333 -0.3766 -0.0300  0.1020
   13MOL0     C 1666   1.500   4.272   7.289  0.5472  0.3197 -0.3263
   13MOL0     C 1667   1.561   4.398   7.215  0.7550 -0.4046 -0.7484
   13MOL0     C 1668   1.643   4.374   7.091  0.0442  1.2471  0.0830
   13MOL0     C 1669   1.705   4.501   7.035 -0.4031  0.9103 -0.3265
   13MOL0     C 1670   1.615   4.587   6.956 -0.6423  0.0411  0.3282
   13MOL0     C 1671   1.706   4.705   6.908  0.3556 -0.2317 -0.1946
   13MOL0     C 1672   1.606   4.818   6.864 -0.7072 -0.1827  0.0210
   13MOL0     N 1673   1.656   4.953   6.894 -0.1342  0.6673  0.0808
   13MOL0     C 1674   1.776   5.001   6.843 -0.2811 -0.1279 -0.2851
   13MOL0     C 1675   1.815   5.095   6.937 -0.0616 -0.4202  0.1064
   13MOL0     C 1676   1.946   5.183   6.941  0.6169  0.0868  0.4475
   13MOL0     C 1677   2.055   5.101   7.008  0.7840  0.5224  0.4555
   13MOL0     C 1678   2.185   5.189   7.019  0.2281  0.1387 -0.5378
   13MOL0     C 1679   2.306   5.108   7.073  0.2397 -0.7020  0.3605
   13MOL0     O 1680   2.365   5.045   6.963  0.1941  0.4527  0.3495
   13MOL0     C 1681   2.491   4.998   6.984 -0.3116  0.4375  0.1260
   13MOL0     C 1682   2.550   4.958   7.107 -0.8723  0.0367 -0.0416
   13MOL0     C 1683   2.679   4.919   7.125  0.3059  1.2572 -0.1921
   13MOL0     C 1684   2.731   4.890   7.265  0.5517 -0.7383  0.3340
   13MOL0     C 1685   2.766   4.902   7.010 -0.0506 -0.3771  0.0491
   13MOL0     C 1686   2.900   4.850   7.013 -0.3007  0.4803  0.9018
   13MOL0     O 1687   2.988   4.883   6.908  0.1757  0.3684  0.3851
   13MOL0     C 1688   3.096   4.813   6.881  0.1451 -0.0526 -0.2897
   13MOL0     C 1689   3.221   4.883   6.863  0.3095  0.0733  0.0174
   13MOL0     C 1690   3.343   4.808   6.847 -0.0693 -0.2133 -0.0739
   13MOL0     C 1691   3.340   4.667   6.826  0.9183 -0.4948  0.0803
   13MOL0     O 1692   3.451   4.590   6.818  0.6242  0.3523 -0.7219
   13MOL0     C 1693   3.533   4.615   6.712 -0.4452  0.3438  1.5243
   13MOL0     C 1694   3.642   4.512   6.696 -0.3367 -0.8258  1.0145
   13MOL0     C 1695   3.753   4.515   6.814  0.2558 -0.0528 -0.4261
   13MOL0     C 1696   3.823   4.381   6.805  0.5412  0.9645 -0.4768
   13MOL0     C 1697   3.931   4.371   6.914  0.2097  0.3603 -0.2017
   13MOL0     C 1698   4.081   4.410   6.881 -0.1927  1.2382 -0.8887
   13MOL0     C 1699   4.174   4.389   7.007 -0.5858  0.7301  0.9133
   13MOL0     C 1700   4.324   4.433   6.984 -0.4611 -0.3676 -0.0788
   13MOL0    Cl 1701   4.370   4.408   6.819 -0.2604 -0.2347  0.2228
   13MOL0     C 1702   3.218   4.608   6.838 -0.5045  0.6313  0.4215
   13MOL0     C 1703   3.099   4.678   6.864  0.1206  0.2963 -0.3589
   13MOL0     O 1704   2.928   4.771   7.099 -0.8813 -0.3931  0.4074
   13MOL0     C 1705   2.714   4.947   6.891 -0.1536 -0.7494 -0.8351
   13MOL0     C 1706   2.575   4.990   6.875  0.2003  0.2879  0.8081
   13MOL0     N 1707   1.708   5.109   7.026 -0.6491  0.3860  0.0886
   13MOL0     N 1708   1.614   5.028   6.996  0.0119  0.6644 -0.3592
   13MOL0     C 1709   1.797   4.129   7.622  0.2463 -0.0050  0.6703
   13MOL0     C 1710   1.927   4.113   7.658 -0.3769  0.0734  0.0617
   13MOL0     C 1711   2.332   3.934   7.627 -0.2364  0.7900  0.8136
   13MOL0     C 1712   2.414   4.047   7.653  0.2882  0.0531 -0.4925
   13MOL0     C 1713   2.549   4.030   7.695 -0.2806  0.3542  0.0062
   13MOL0     C 1714   2.604   3.905   7.714  0.1337  0.3319  0.7159
   13MOL0     O 1715   2.736   3.887   7.755  0.7519  0.8696  0.5030
   13MOL0     C 1716   2.815   3.998   7.799 -0.4440 -0.5756  0.4754
   13MOL0     C 1717   2.951   3.944   7.861 -0.0492 -0.4755  0.3100
   13MOL0     C 1718   3.043   4.065   7.878  0.1421 -0.2112  0.6777
   13MOL0     C 1719   3.170   4.018   7.949  0.3902 -0.2545 -0.7539
   13MOL0     C 1720   3.296   4.064   7.889  0.4320  0.1268 -0.2992
   13MOL0     C 1721   3.392   4.094   7.827 -0.1760  0.6784 -0.6163
   13MOL0     C 1722   2.528   3.794   7.666  0.3634  0.2647 -0.1604
   13MOL0     C 1723   2.395   3.803   7.621  0.3445 -0.2969 -0.6725
   13MOL0     C 1724   2.332   3.687   7.595  0.3602  0.3754  0.6133
   13MOL0     H 1725   2.094   4.129   7.369 -1.0590 -2.9410 -0.4990
   13MOL0     H 1726   1.872   4.169   7.284  1.6372  1.0559  0.1423
   13MOL0     H 1727   1.549   4.065   7.349  0.5398 -0.5642 -0.2431
   13MOL0     H 1728   1.671   4.148   7.253  2.3688 -1.3163  2.6385
   13MOL0     H 1729   1.429   4.223   7.222 -0.7683  0.2983  1.0273
   13MOL0     H 1730   1.446   4.304   7.379 -0.3239 -1.0926 -0.3120
   13MOL0     H 1731   1.471   4.452   7.183 -2.0894 -2.8642  2.3710
   13MOL0     H 1732   1.622   4.455   7.286 -1.9363  2.4456 -0.4766
   13MOL0     H 1733   1.730   4.314   7.114 -1.8586 -1.8845 -0.3315
   13MOL0     H 1734   1.583   4.318   7.019 -1.7820  1.0981  1.6363
   13MOL0     H 1735   1.788   4.471   6.971 -1.0075 -0.5821 -0.4438
   13MOL0     H 1736   1.729   4.563   7.123  2.6651 -1.1197  0.4308
   13MOL0     H 1737   1.575   4.533   6.870 -1.3448  1.6093 -0.3705
   13MOL0     H 1738   1.539   4.622   7.026 -0.3582  1.5018 -0.0524
   13MOL0     H 1739   1.782   4.677   6.836 -0.2471  2.1485 -1.8733
   13MOL0     H 1740   1.758   4.738   6.999  0.8083  0.4568 -0.6986
   13MOL0     H 1741   1.581   4.816   6.757  0.8259  2.1935 -0.4778
   13MOL0     H 1742   1.509   4.811   6.914 -0.1017 -0.4549  1.1957
   13MOL0     H 1743   1.837   4.958   6.764  0.1170 -0.9034  0.4393
   13MOL0     H 1744   1.917   5.278   6.985  0.7188  0.5356 -0.4299
   13MOL0     H 1745   1.972   5.203   6.836  1.4933  1.1737  0.8546
   13MOL0     H 1746   2.029   5.070   7.110  1.2255 -0.0230  0.4054
   13MOL0     H 1747   2.087   5.011   6.956  2.8355  1.4238  0.0547
   13MOL0     H 1748   2.213   5.235   6.924 -0.5750  0.3710 -0.6685
   13MOL0     H 1749   2.160   5.268   7.091 -1.7352 -0.6324 -0.3169
   13MOL0     H 1750   2.371   5.185   7.115 -1.4454 -1.1194  4.1736
   13MOL0     H 1751   2.277   5.040   7.154  1.5869  0.5467  1.9746
   13MOL0     H 1752   2.499   4.959   7.203  1.3893  0.2656  1.2366
   13MOL0     H 1753   2.668   4.930   7.346  1.0652  0.6797  0.0606
   13MOL0     H 1754   2.831   4.932   7.282  1.5122 -1.7301 -2.4217
   13MOL0     H 1755   2.745   4.782   7.276  1.4573 -0.4819  2.0290
   13MOL0     H 1756   3.227   4.991   6.870  2.1308  0.0217 -0.2978
   13MOL0     H 1757   3.431   4.871   6.862 -0.9707  1.0083  0.2076
   13MOL0     H 1758   3.477   4.618   6.618  0.0410  1.6892  1.2584
   13MOL0     H 1759   3.586   4.710   6.715 -0.0444  0.2801 -0.9916
   13MOL0     H 1760   3.600   4.411   6.703 -0.7040 -0.7014  0.6063
   13MOL0     H 1761   3.706   4.535   6.610  1.1498 -0.8174  2.0853
   13MOL0     H 1762   3.713   4.523   6.916  0.6160 -2.5753 -0.0097
   13MOL0     H 1763   3.824   4.597   6.802 -0.3153  1.1844  3.3270
   13MOL0     H 1764   3.867   4.353   6.709  1.0672  1.2394 -0.3188
   13MOL0     H 1765   3.745   4.308   6.829 -1.1449  2.1253 -2.1867
   13MOL0     H 1766   3.894   4.419   7.004 -0.9548 -0.0432 -0.4479
   13MOL0     H 1767   3.936   4.263   6.934 -0.5271  0.3309 -0.1592
   13MOL0     H 1768   4.089   4.517   6.856  0.7026  1.8275  1.5958
   13MOL0     H 1769   4.116   4.359   6.792  4.1952  3.6458 -0.8180
   13MOL0     H 1770   4.173   4.281   7.018 -0.9982  0.3825 -1.9099
   13MOL0     H 1771   4.142   4.432   7.103  0.5244  0.5633  1.3749
   13MOL0     H 1772   4.401   4.390   7.048 -0.0944 -1.7596 -1.4043
   13MOL0     H 1773   4.315   4.540   7.006 -4.5861 -1.2108  4.0582
   13MOL0     H 1774   3.215   4.500   6.836 -0.2208  0.6138  0.8411
   13MOL0     H 1775   3.006   4.626   6.885 -1.9901  3.5193 -1.0179
   13MOL0     H 1776   2.768   4.934   6.798  0.4011  1.3652 -0.8536
   13MOL0     H 1777   2.534   5.008   6.776  1.5937  2.4476  0.5507
   13MOL0     H 1778   1.714   4.125   7.692  1.5596  1.5021  2.4028
   13MOL0     H 1779   1.956   4.101   7.761 -3.5099  4.2201  1.7149
   13MOL0     H 1780   2.392   4.153   7.658  1.9037  0.5118 -2.0662
   13MOL0     H 1781   2.600   4.123   7.718 -0.8617  0.7748 -0.3973
   13MOL0     H 1782   2.825   4.053   7.705 -0.2878 -3.0353 -1.0448
   13MOL0     H 1783   2.763   4.068   7.865 -1.7668  1.5075 -2.5115
   13MOL0     H 1784   2.989   3.872   7.789 -1.9878 -0.6300 -0.6253
   13MOL0     H 1785   2.924   3.896   7.956 -0.0628 -0.3631  0.3626
   13MOL0     H 1786   3.069   4.104   7.779 -2.2570 -0.8421 -0.2799
   13MOL0     H 1787   2.995   4.139   7.943  0.0311 -1.7555  2.4506
   13MOL0     H 1788   3.172   3.910   7.936  0.8908 -0.4901  0.9779
   13MOL0     H 1789   3.159   4.057   8.051  0.7941 -0.8552 -0.4721
   13MOL0     H 1790   3.483   4.117   7.775 -1.2962  1.0602 -2.4999
   13MOL0     H 1791   2.584   3.701   7.661  0.9202  0.6496 -2.4978
   13MOL0     H 1792   2.248   3.670   7.663  0.0511 -0.0147  0.1366
   13MOL0     H 1793   2.304   3.690   7.490 -2.5892 -0.6097  1.2808
   13MOL0     H 1794   2.397   3.599   7.602 -0.8588 -0.6148 -0.1307
   14MOL0     O 1795   2.075   4.616   7.772  0.2752 -1.0820 -1.2556
   14MOL0     C 1796   2.101   4.514   7.838 -0.1730 -1.0193  0.1284
   14MOL0     O 1797   2.227   4.471   7.870  0.1146 -0.1894 -0.3171
   14MOL0     C 1798   2.334   4.553   7.833 -0.9254  0.9239 -0.4539
   14MOL0     C 1799   2.410   4.597   7.940 -0.3506 -0.1720 -0.2962
   14MOL0     C 1800   2.519   4.676   7.908  0.4803 -0.3300  0.2577
   14MOL0     C 1801   2.544   4.734   7.785  0.0756  0.4463  0.0194
   14MOL0     O 1802   2.660   4.805   7.773  0.7602 -0.2814  0.2829
   14MOL0     C 1803   2.666   4.900   7.665  0.1778  0.4235  0.3659
   14MOL0     C 1804   2.736   5.017   7.719 -0.2394 -0.2212  0.5049
   14MOL0     C 1805   2.894   5.004   7.720  0.7215  0.7996 -0.3492
   14MOL0     C 1806   2.961   5.132   7.735 -0.7294 -0.8221 -0.2030
   14MOL0     C 1807   3.108   5.100   7.758 -0.0731 -0.0780  0.4010
   14MOL0     C 1808   3.188   5.227   7.777  0.7375 -0.3938 -0.5784
   14MOL0     C 1809   3.327   5.202   7.836  0.2081  0.1464  0.2807
   14MOL0     C 1810   3.407   5.328   7.837 -0.0494 -0.6403 -0.2189
   14MOL0     N 1811   3.539   5.325   7.893 -0.5188 -0.9629 -0.1181
   14MOL0     C 1812   3.626   5.430   7.875 -0.2018 -0.3366 -0.1768
   14MOL0     C 1813   3.728   5.391   7.953  0.1358  0.0791  0.3092
   14MOL0     C 1814   3.849   5.478   7.948  0.6486 -0.4588  0.3249
   14MOL0     C 1815   3.944   5.462   8.068 -0.2456 -0.3615 -0.0537
   14MOL0     C 1816   4.075   5.521   8.022 -0.3471 -0.3515 -0.7033
   14MOL0     C 1817   4.153   5.573   8.146  0.9968 -0.5823  0.3127
   14MOL0     O 1818   4.258   5.658   8.094 -0.2784 -0.1047 -0.1501
   14MOL0     C 1819   4.383   5.631   8.136 -0.2946  0.3086 -0.0413
   14MOL0     C 1820   4.457   5.735   8.194  0.2675 -0.1889 -0.6254
   14MOL0     C 1821   4.586   5.719   8.225 -0.2349  0.3111 -0.7951
   14MOL0     C 1822   4.671   5.842   8.274  0.1510  0.4711  0.0333
   14MOL0     C 1823   4.660   5.592   8.211  0.0774 -0.6758 -0.6608
   14MOL0     C 1824   4.792   5.552   8.248 -0.4093 -0.7890  0.4437
   14MOL0     O 1825   4.845   5.598   8.365 -0.0264 -0.2942 -0.5141
   14MOL0     C 1826   4.960   5.537   8.407 -0.2949 -0.4773  0.1120
   14MOL0     C 1827   4.978   5.467   8.522  0.1410  0.5947 -0.8492
   14MOL0     C 1828   5.093   5.397   8.557  0.5950  0.1569  0.6749
   14MOL0     C 1829   5.202   5.402   8.464  0.1687  0.8346 -0.6751
   14MOL0     O 1830   5.311   5.325   8.492  0.7669 -0.5250 -0.5171
   14MOL0     C 1831   5.413   5.309   8.396 -0.3983  0.4824  0.9024
   14MOL0     C 1832   5.539   5.232   8.449 -0.3070 -0.1011 -0.9791
   14MOL0     C 1833   5.502   5.087   8.465 -0.1615 -0.2420 -0.1928
   14MOL0     C 1834   5.591   5.012   8.564  0.6968  0.3117  0.3874
   14MOL0     C 1835   5.561   4.859   8.553  0.0491 -0.6280  0.3660
   14MOL0     C 1836   5.583   4.783   8.416 -0.7789  0.6372  0.0946
   14MOL0     C 1837   5.732   4.798   8.354  0.1871 -0.1756  0.4025
   14MOL0     C 1838   5.717   4.744   8.211 -0.6073 -0.4372 -0.4676
   14MOL0    Cl 1839   5.717   4.567   8.184  0.0047 -0.1233 -0.0746
   14MOL0     C 1840   5.191   5.473   8.346  0.2601 -0.0972 -0.1441
   14MOL0     C 1841   5.079   5.545   8.324  0.5470  0.9287  0.4107
   14MOL0     O 1842   4.851   5.472   8.175 -0.1837  0.1513  0.4990
   14MOL0     C 1843   4.573   5.491   8.161  0.3195 -0.0785  0.5550
   14MOL0     C 1844   4.438   5.506   8.121 -0.9518  0.7403  0.5515
   14MOL0     N 1845   3.707   5.267   8.008  0.0659 -0.8506 -0.3333
   14MOL0     N 1846   3.586   5.232   7.984  0.4876  0.2899  0.7362
   14MOL0     C 1847   2.466   4.689   7.676 -1.2986 -0.7014 -0.2823
   14MOL0     C 1848   2.368   4.597   7.696  0.1189  0.7036 -0.0042
   14MOL0     C 1849   1.993   4.426   7.895 -0.5037 -0.5613  0.4987
   14MOL0     C 1850   2.031   4.363   8.014  0.2313  0.1060  0.5843
   14MOL0     C 1851   1.941   4.283   8.082 -0.5946 -0.5413  1.1463
   14MOL0     C 1852   1.820   4.254   8.019  0.1982  0.2003 -0.1095
   14MOL0     O 1853   1.752   4.148   8.063  0.5577  0.4915  0.0082
   14MOL0     C 1854   1.817   4.042   8.140 -0.5438  0.8935 -0.4226
   14MOL0     C 1855   1.719   3.919   8.150  0.1867 -0.9461 -0.6306
   14MOL0     C 1856   1.679   3.858   8.009  0.5830 -0.5655  0.4690
   14MOL0     C 1857   1.618   3.714   8.043 -1.2322 -0.0317 -0.3968
   14MOL0     C 1858   1.727   3.619   8.058  0.1177  0.5130 -0.5257
   14MOL0     C 1859   1.834   3.461   8.071  0.4245  0.6316 -0.7934
   14MOL0     C 1860   1.774   4.334   7.912 -0.3362 -0.8857  0.1281
   14MOL0     C 1861   1.860   4.422   7.850  0.0366  0.4387 -0.6409
   14MOL0     C 1862   1.794   4.513   7.750  0.2417  0.0035  0.7863
   14MOL0     H 1863   2.404   4.577   8.047  1.1704 -0.8209 -0.2962
   14MOL0     H 1864   2.578   4.707   7.994 -0.0819 -4.9902  2.6935
   14MOL0     H 1865   2.574   4.940   7.623  0.4238 -1.0764 -1.7868
   14MOL0     H 1866   2.731   4.856   7.588  1.4755 -2.2520  2.7946
   14MOL0     H 1867   2.714   5.108   7.662 -2.4443  0.2291  1.9488
   14MOL0     H 1868   2.693   5.037   7.817  0.2656 -1.3173  0.9668
   14MOL0     H 1869   2.919   4.938   7.803  0.0186  0.8766 -0.0729
   14MOL0     H 1870   2.926   4.959   7.625  1.0927 -0.7035  0.4555
   14MOL0     H 1871   2.951   5.189   7.643  3.2906  0.5111 -0.0316
   14MOL0     H 1872   2.928   5.187   7.824  1.7954 -0.0529  0.3476
   14MOL0     H 1873   3.146   5.056   7.665  1.1407  0.8122  0.4540
   14MOL0     H 1874   3.118   5.049   7.854 -5.3976 -0.7324  0.9030
   14MOL0     H 1875   3.196   5.273   7.677  2.8097  0.3525 -0.1242
   14MOL0     H 1876   3.129   5.292   7.842  1.7707  1.1084 -1.0761
   14MOL0     H 1877   3.384   5.125   7.784 -0.1577  0.3643 -0.4454
   14MOL0     H 1878   3.314   5.161   7.937  1.8704 -1.6042 -0.1533
   14MOL0     H 1879   3.415   5.352   7.731  0.1122 -0.3657 -0.1463
   14MOL0     H 1880   3.351   5.406   7.890 -0.9700 -2.0824  1.0257
   14MOL0     H 1881   3.620   5.515   7.808  1.1483 -0.7080 -0.8014
   14MOL0     H 1882   3.827   5.584   7.931  0.1854 -0.6526 -0.2964
   14MOL0     H 1883   3.903   5.445   7.859  0.3313  0.7222 -0.3340
   14MOL0     H 1884   3.891   5.502   8.155 -2.6691  1.0991 -2.0661
   14MOL0     H 1885   3.963   5.359   8.097 -1.1106 -0.6358 -0.4126
   14MOL0     H 1886   4.137   5.449   7.969  1.9092 -1.4739  3.0906
   14MOL0     H 1887   4.060   5.602   7.950  0.1331 -0.2311 -0.6728
   14MOL0     H 1888   4.092   5.635   8.211  0.5783 -1.6218  0.9387
   14MOL0     H 1889   4.173   5.484   8.206 -2.3540 -1.0175  0.9556
   14MOL0     H 1890   4.401   5.828   8.198 -0.7383 -0.8450  1.5112
   14MOL0     H 1891   4.618   5.929   8.234  0.1700  0.4117 -0.1210
   14MOL0     H 1892   4.771   5.827   8.231  0.3442 -0.3497  0.7341
   14MOL0     H 1893   4.667   5.855   8.382 -1.1840 -1.3123  0.2591
   14MOL0     H 1894   4.900   5.467   8.598  1.6989  1.9071  0.8635
   14MOL0     H 1895   5.109   5.335   8.645  2.6318 -0.3834 -0.0133
   14MOL0     H 1896   5.378   5.251   8.310 -0.1542  1.4319  0.1396
   14MOL0     H 1897   5.448   5.409   8.370 -0.9301  1.0239  2.1711
   14MOL0     H 1898   5.632   5.239   8.392  1.3238  1.0148  1.6459
   14MOL0     H 1899   5.560   5.279   8.545  0.9685 -4.8759  1.4066
   14MOL0     H 1900   5.509   5.041   8.366  0.0520 -1.3027  0.2926
   14MOL0     H 1901   5.404   5.084   8.515  1.5185 -1.2140  3.3728
   14MOL0     H 1902   5.577   5.047   8.667  0.0939 -0.5446  0.6062
   14MOL0     H 1903   5.695   5.039   8.541 -0.0543  0.4162 -3.5090
   14MOL0     H 1904   5.645   4.824   8.614  1.1124  0.4706 -0.4185
   14MOL0     H 1905   5.472   4.821   8.603  0.6391 -0.1791  1.8340
   14MOL0     H 1906   5.512   4.824   8.344 -0.6525 -2.1667 -1.7686
   14MOL0     H 1907   5.558   4.678   8.435  3.5612 -0.3295  1.7577
   14MOL0     H 1908   5.802   4.732   8.407  2.0228 -0.5282 -2.2667
   14MOL0     H 1909   5.772   4.899   8.346 -1.6437  0.4332 -2.0426
   14MOL0     H 1910   5.800   4.789   8.155  2.2725 -0.2707  3.4906
   14MOL0     H 1911   5.632   4.782   8.154  0.0771 -0.3438 -1.4529
   14MOL0     H 1912   5.275   5.485   8.279 -0.6329  1.1423 -1.0731
   14MOL0     H 1913   5.088   5.615   8.242 -2.7503 -0.2149 -1.0861
   14MOL0     H 1914   4.611   5.396   8.125 -0.5238  0.0790 -0.8272
   14MOL0     H 1915   4.375   5.430   8.076  1.5791  0.1487 -2.2560
   14MOL0     H 1916   2.485   4.739   7.582  1.8397  1.5911  1.3605
   14MOL0     H 1917   2.314   4.562   7.608  3.0748 -0.7220 -1.3968
   14MOL0     H 1918   2.121   4.385   8.070  0.2395 -1.9404  1.4546
   14MOL0     H 1919   1.978   4.238   8.174  1.4527 -0.9018  0.2030
   14MOL0     H 1920   1.914   4.024   8.093 -0.2102  1.9566 -0.1698
   14MOL0     H 1921   1.847   4.066   8.242  0.3357 -1.3617 -0.0930
   14MOL0     H 1922   1.631   3.941   8.210  0.1405  0.2949 -1.1277
   14MOL0     H 1923   1.770   3.850   8.218 -1.0828  0.2705  1.6592
   14MOL0     H 1924   1.603   3.909   7.949  1.0467  0.4907  0.7476
   14MOL0     H 1925   1.766   3.862   7.942 -0.1628  1.6238 -0.4727
   14MOL0     H 1926   1.556   3.680   7.960 -3.9357  1.5169  0.8680
   14MOL0     H 1927   1.558   3.714   8.134 -1.3830 -2.2254 -0.4611
   14MOL0     H 1928   1.891   3.371   8.065  0.2174  0.1543  2.3501
   14MOL0     H 1929   1.672   4.329   7.874 -0.3098  3.1105 -0.8988
   14MOL0     H 1930   1.688   4.487   7.739  0.4072 -0.5511  0.5035
   14MOL0     H 1931   1.798   4.616   7.787  0.9196  0.5412 -0.7279
   14MOL0     H 1932   1.841   4.504   7.652  0.4225 -1.0053  0.9596
   15MOL0     O 1933   5.768   6.498   5.903 -0.0830  0.0113  0.4518
   15MOL0     C 1934   5.792   6.489   5.779 -0.8681 -0.0044 -0.3376
   15MOL0     O 1935   5.919   6.476   5.724 -0.4309 -0.2419  0.2480
   15MOL0     C 1936   6.021   6.474   5.819  0.2991 -0.6084  0.0762
   15MOL0     C 1937   6.112   6.376   5.790  0.2718 -0.1792  0.2377
   15MOL0     C 1938   6.216   6.342   5.877  0.4110 -0.7434 -0.0523
   15MOL0     C 1939   6.238   6.429   5.991  0.1842 -0.0659  0.1692
   15MOL0     O 1940   6.344   6.389   6.062 -0.3106 -0.5956  0.4359
   15MOL0     C 1941   6.390   6.484   6.164  0.0365  0.9352  0.1810
   15MOL0     C 1942   6.325   6.459   6.302 -0.9235  0.6283  0.1658
   15MOL0     C 1943   6.401   6.558   6.393  0.0207  0.3130 -0.0476
   15MOL0     C 1944   6.336   6.530   6.533  0.9565 -0.6397 -1.0826
   15MOL0     C 1945   6.380   6.619   6.648 -0.6409 -0.0586 -0.0612
   15MOL0     C 1946   6.532   6.632   6.649 -0.4078  1.2229  0.1055
   15MOL0     C 1947   6.578   6.715   6.770  0.2227  0.1665  0.1114
   15MOL0     C 1948   6.730   6.703   6.790  0.2455 -0.1694 -0.0405
   15MOL0     N 1949   6.780   6.801   6.892 -0.8358 -0.3084  1.2884
   15MOL0     C 1950   6.747   6.794   7.018  0.3823 -0.0463  0.0093
   15MOL0     C 1951   6.814   6.902   7.073  0.0297  0.6381 -0.5861
   15MOL0     C 1952   6.793   6.950   7.214 -0.8712  0.6852 -0.4266
   15MOL0     C 1953   6.910   7.031   7.274 -0.0393  0.3260  0.5930
   15MOL0     C 1954   7.046   6.950   7.297  0.2534 -1.4444  0.4517
   15MOL0     C 1955   7.071   6.812   7.224 -0.8744 -0.0482 -0.2816
   15MOL0     O 1956   7.184   6.745   7.285  0.2426 -0.2417 -1.0735
   15MOL0     C 1957   7.309   6.749   7.219  0.3081  0.1797  0.2742
   15MOL0     C 1958   7.395   6.645   7.236 -1.1706  0.0556 -0.4692
   15MOL0     C 1959   7.520   6.635   7.169  1.4032 -0.0985 -0.2271
   15MOL0     C 1960   7.604   6.519   7.222  0.1723 -0.0545  0.4094
   15MOL0     C 1961   7.546   6.724   7.068  0.6618  0.2833 -0.0833
   15MOL0     C 1962   7.664   6.712   6.984  0.8334  0.6201 -0.1498
   15MOL0     O 1963   7.686   6.807   6.902 -0.2347 -0.4660  0.8231
   15MOL0     C 1964   7.819   6.819   6.859 -1.0445 -0.0591 -0.0466
   15MOL0     C 1965   7.931   6.852   6.944 -0.3030  0.2524 -0.0006
   15MOL0     C 1966   8.067   6.833   6.885  0.0262 -0.0293 -1.1483
   15MOL0     C 1967   8.080   6.785   6.755  0.1843  0.3367  0.0511
   15MOL0     O 1968   8.204   6.753   6.703 -0.0994 -0.8825 -0.6696
   15MOL0     C 1969   8.322   6.830   6.750  0.7846  0.6796 -0.4458
   15MOL0     C 1970   8.450   6.775   6.686  0.3800 -0.2029  0.9682
   15MOL0     C 1971   8.581   6.828   6.751 -0.6339 -0.5518 -1.2292
   15MOL0     C 1972   8.694   6.825   6.647  0.3345  0.8591 -0.3156
   15MOL0     C 1973   8.818   6.883   6.706 -0.1555  1.2652 -0.9264
   15MOL0     C 1974   8.935   6.842   6.623 -0.0300 -0.0074 -0.3091
   15MOL0     C 1975   9.063   6.901   6.664 -0.5865 -0.2230 -0.4040
   15MOL0     C 1976   9.183   6.860   6.580  0.4882  0.3594 -0.1227
   15MOL0    Cl 1977   9.322   6.967   6.634  0.0108  0.2350 -0.0571
   15MOL0     C 1978   7.970   6.751   6.679  0.6816  0.0996 -0.0514
   15MOL0     C 1979   7.842   6.779   6.726 -0.1231  0.9628 -0.1110
   15MOL0     O 1980   7.737   6.610   6.989  0.6320  0.0978 -0.4328
   15MOL0     C 1981   7.467   6.839   7.051  1.1077  0.1347 -0.0734
   15MOL0     C 1982   7.346   6.853   7.130  0.0707  0.5566 -0.1166
   15MOL0     N 1983   6.880   6.961   6.977 -0.7414 -0.7271 -0.0713
   15MOL0     N 1984   6.866   6.906   6.867 -0.0347 -1.3199  0.3046
   15MOL0     C 1985   6.159   6.548   6.008  0.6389 -0.5759  0.2880
   15MOL0     C 1986   6.049   6.567   5.920 -0.8635 -0.0148 -0.6184
   15MOL0     C 1987   5.675   6.475   5.693 -0.3909 -0.1982 -0.4722
   15MOL0     C 1988   5.697   6.399   5.573 -0.1163  0.1553  0.1995
   15MOL0     C 1989   5.593   6.365   5.491  0.4354  0.5450 -0.0795
   15MOL0     C 1990   5.459   6.404   5.521 -0.1620 -0.2646 -0.1322
   15MOL0     O 1991   5.363   6.352   5.431 -0.1275  0.0271  0.3246
   15MOL0     C 1992   5.289   6.247   5.478  0.5383 -0.2681  0.4683
   15MOL0     C 1993   5.203   6.179   5.370 -0.3891  0.1807  0.3171
   15MOL0     C 1994   5.109   6.081   5.437  0.0388  0.6453  0.6345
   15MOL0     C 1995   4.967   6.084   5.379 -1.1051  0.2175  0.2715
   15MOL0     C 1996   4.899   6.204   5.444 -0.8927 -0.0540 -0.4053
   15MOL0     C 1997   4.874   6.308   5.507  0.5024  0.0860  0.1088
   15MOL0     C 1998   5.439   6.477   5.633  0.5631  0.2462 -0.4703
   15MOL0     C 1999   5.538   6.523   5.722  0.2889  0.3018 -0.1909
   15MOL0     C 2000   5.486   6.616   5.832  0.3339 -0.0924  0.5709
   15MOL0     H 2001   6.105   6.318   5.698  1.7584  2.9897 -2.0647
   15MOL0     H 2002   6.286   6.261   5.862  0.2142 -1.1072  0.9109
   15MOL0     H 2003   6.376   6.589   6.136  1.0974  0.1726 -3.9167
   15MOL0     H 2004   6.499   6.471   6.171  0.3435  2.9983 -0.1762
   15MOL0     H 2005   6.218   6.480   6.301 -2.1362 -4.2587 -1.9473
   15MOL0     H 2006   6.329   6.356   6.340 -0.1159  1.9892  4.2820
   15MOL0     H 2007   6.508   6.537   6.395 -0.2052 -1.8490 -3.0019
   15MOL0     H 2008   6.388   6.660   6.357 -1.0471  0.3506  0.3998
   15MOL0     H 2009   6.227   6.539   6.532  0.8706 -0.3157  1.8445
   15MOL0     H 2010   6.365   6.429   6.564  2.1198 -0.1379 -0.4600
   15MOL0     H 2011   6.345   6.570   6.739  2.6204 -0.9334  0.8572
   15MOL0     H 2012   6.340   6.721   6.649 -0.1344  0.1412  0.0435
   15MOL0     H 2013   6.573   6.530   6.655 -1.6937  0.6577 -0.3589
   15MOL0     H 2014   6.575   6.668   6.555 -1.0264 -1.4002 -1.2873
   15MOL0     H 2015   6.535   6.681   6.865 -0.2624  0.9478  0.1759
   15MOL0     H 2016   6.554   6.821   6.757 -0.7699 -0.0234  0.3663
   15MOL0     H 2017   6.763   6.602   6.817 -2.0002 -0.5194  1.7079
   15MOL0     H 2018   6.778   6.728   6.695 -2.5746  1.4917 -1.1350
   15MOL0     H 2019   6.674   6.733   7.071  1.6352 -1.2672  0.3879
   15MOL0     H 2020   6.782   6.864   7.281 -0.6393  1.5167  0.7033
   15MOL0     H 2021   6.707   7.017   7.216 -0.7716  0.9089 -2.2429
   15MOL0     H 2022   6.931   7.121   7.216 -0.7271  0.6450  0.8261
   15MOL0     H 2023   6.887   7.073   7.373  2.2593 -1.4302  1.9922
   15MOL0     H 2024   7.131   7.015   7.274 -2.0481  0.8555 -2.3110
   15MOL0     H 2025   7.046   6.950   7.406 -0.3242  3.5567  0.7167
   15MOL0     H 2026   6.987   6.745   7.243 -1.8145  1.0765 -0.3442
   15MOL0     H 2027   7.085   6.824   7.116  2.7307 -0.0842  0.0799
   15MOL0     H 2028   7.372   6.569   7.311 -2.9263  0.3134 -0.6984
   15MOL0     H 2029   7.563   6.473   7.313 -1.2235 -0.2191 -0.2678
   15MOL0     H 2030   7.706   6.554   7.240 -0.2411  2.4281 -1.5768
   15MOL0     H 2031   7.607   6.444   7.142  0.4560  0.8993 -0.4923
   15MOL0     H 2032   7.916   6.877   7.048 -0.4493  0.6131 -0.1070
   15MOL0     H 2033   8.153   6.849   6.950 -0.5319 -0.8327 -0.1873
   15MOL0     H 2034   8.313   6.938   6.734  2.2058  1.2936  2.3559
   15MOL0     H 2035   8.339   6.802   6.854  2.4525  1.2302 -0.5443
   15MOL0     H 2036   8.446   6.667   6.701 -1.2396 -0.5950 -1.6672
   15MOL0     H 2037   8.447   6.793   6.578 -0.7827 -1.0194  0.8443
   15MOL0     H 2038   8.599   6.762   6.836  0.4319  2.2284  0.8637
   15MOL0     H 2039   8.571   6.931   6.787  0.2855 -0.8578 -0.0784
   15MOL0     H 2040   8.663   6.882   6.559 -1.6344 -0.6585 -0.6918
   15MOL0     H 2041   8.710   6.721   6.615 -2.6728  0.0828  0.3553
   15MOL0     H 2042   8.805   6.991   6.709 -0.7378  1.1824  0.2031
   15MOL0     H 2043   8.826   6.836   6.805  0.1395  0.6464 -1.2376
   15MOL0     H 2044   8.918   6.879   6.521  1.2487 -1.1287 -0.9535
   15MOL0     H 2045   8.952   6.734   6.614  1.8032  0.3680 -2.3135
   15MOL0     H 2046   9.074   6.875   6.770 -0.8992  1.1147 -0.0277
   15MOL0     H 2047   9.060   7.010   6.661  0.0252 -0.1285  1.2635
   15MOL0     H 2048   9.165   6.862   6.473 -1.3368  2.6554  0.1420
   15MOL0     H 2049   9.204   6.755   6.604 -2.0503 -0.4318 -1.1017
   15MOL0     H 2050   7.980   6.717   6.576 -1.1306 -5.0411  1.1784
   15MOL0     H 2051   7.761   6.760   6.656  1.3424 -1.1883 -1.3431
   15MOL0     H 2052   7.495   6.918   6.983 -1.2802  2.0512  1.0172
   15MOL0     H 2053   7.287   6.942   7.110 -1.9552 -0.9919 -1.3929
   15MOL0     H 2054   6.171   6.622   6.086 -2.6180  1.3470 -0.8724
   15MOL0     H 2055   5.987   6.654   5.934  0.0210  0.6855 -0.9390
   15MOL0     H 2056   5.792   6.363   5.537 -0.4829 -2.9798  1.9380
   15MOL0     H 2057   5.612   6.305   5.403  0.7786  0.3016  0.1607
   15MOL0     H 2058   5.355   6.173   5.524 -1.5101 -1.9411  0.8411
   15MOL0     H 2059   5.214   6.296   5.541 -0.0609  0.9277 -1.0937
   15MOL0     H 2060   5.261   6.133   5.290 -1.7208  0.2240 -0.7049
   15MOL0     H 2061   5.139   6.255   5.323  0.2142  0.0099 -0.8004
   15MOL0     H 2062   5.157   5.985   5.414  0.4238  1.5695 -3.1518
   15MOL0     H 2063   5.102   6.088   5.545 -2.7124  1.1471  0.4901
   15MOL0     H 2064   4.912   5.996   5.414  0.2401  0.0190  2.0664
   15MOL0     H 2065   4.976   6.075   5.270 -0.9386  3.6920 -0.1147
   15MOL0     H 2066   4.876   6.394   5.571  0.4998 -1.0139  1.6243
   15MOL0     H 2067   5.339   6.509   5.657  0.6940  0.5611 -0.3424
   15MOL0     H 2068   5.566   6.642   5.901  0.2182  0.3420  0.5427
   15MOL0     H 2069   5.463   6.709   5.779  1.0971  0.9621  2.0302
   15MOL0     H 2070   5.395   6.575   5.878 -0.6569  1.7504  0.3308
   16MOL0     O 2071   7.267   9.239   8.283  0.0556  0.6587  0.2735
   16MOL0     C 2072   7.305   9.232   8.166  0.4393 -0.2169  0.1719
   16MOL0     O 2073   7.436   9.219   8.129 -0.3146  0.8765  0.4207
   16MOL0     C 2074   7.536   9.197   8.218  0.1069  0.5789  0.5086
   16MOL0     C 2075   7.571   9.307   8.299  0.4257 -0.7255  0.0190
   16MOL0     C 2076   7.682   9.287   8.389  0.2484 -0.1692  0.7097
   16MOL0     C 2077   7.756   9.171   8.387  0.2817 -0.8241 -0.0384
   16MOL0     O 2078   7.854   9.147   8.477 -0.5381 -0.3256  0.4479
   16MOL0     C 2079   7.836   9.032   8.563 -0.5955 -0.7250 -0.2305
   16MOL0     C 2080   7.899   9.054   8.695  0.5937  0.5138 -0.2137
   16MOL0     C 2081   7.859   9.178   8.773  0.5424 -0.9276 -0.3986
   16MOL0     C 2082   7.723   9.169   8.848 -0.6175 -0.4000 -0.2489
   16MOL0     C 2083   7.700   9.307   8.910 -0.1793  1.0435 -0.5402
   16MOL0     C 2084   7.571   9.312   8.984  0.9783  0.2559  0.2007
   16MOL0     C 2085   7.515   9.455   8.983  1.1334  0.1445 -0.3175
   16MOL0     C 2086   7.361   9.445   9.018 -0.6851 -0.6379  0.0183
   16MOL0     N 2087   7.292   9.573   8.981 -0.3716 -0.1135 -0.7233
   16MOL0     C 2088   7.175   9.590   8.913  0.2967 -0.1074 -0.3763
   16MOL0     C 2089   7.126   9.713   8.944 -0.7377  0.6410  0.0292
   16MOL0     C 2090   7.002   9.758   8.874  0.9644 -0.1889 -0.5267
   16MOL0     C 2091   7.015   9.877   8.795 -0.7583 -0.5047 -0.0159
   16MOL0     C 2092   6.879   9.913   8.731  0.4895 -0.1117 -0.7625
   16MOL0     C 2093   6.755   9.945   8.817 -0.1082  0.4052 -0.4338
   16MOL0     O 2094   6.711   9.815   8.868  0.7422 -0.3745 -0.3146
   16MOL0     C 2095   6.604   9.817   8.948  0.2206  0.6606 -0.0642
   16MOL0     C 2096   6.578   9.699   9.018  0.7520  0.8662 -0.5237
   16MOL0     C 2097   6.461   9.689   9.095 -0.5382 -0.0447  0.5052
   16MOL0     C 2098   6.436   9.564   9.169  0.0530 -0.3588 -0.0414
   16MOL0     C 2099   6.367   9.795   9.102  0.0432 -0.0270 -0.2966
   16MOL0     C 2100   6.240   9.799   9.179 -0.0470 -0.3347  0.2894
   16MOL0     O 2101   6.222   9.901   9.271 -0.3128  0.4614  0.4689
   16MOL0     C 2102   6.097   9.898   9.321 -0.7533 -0.0948 -0.0763
   16MOL0     C 2103   6.016  10.002   9.297  0.5237  1.0500  0.4011
   16MOL0     C 2104   5.893  10.017   9.362 -0.0430 -0.8381  0.0187
   16MOL0     C 2105   5.846   9.929   9.460 -0.3130  0.8452  0.3880
   16MOL0     O 2106   5.722   9.930   9.524 -0.8856 -0.2756  0.0616
   16MOL0     C 2107   5.626  10.032   9.500  0.3379 -0.1694 -0.5125
   16MOL0     C 2108   5.485   9.986   9.552 -0.9614 -0.0584 -0.2992
   16MOL0     C 2109   5.441   9.855   9.488  0.3058  0.5721  0.3292
   16MOL0     C 2110   5.285   9.828   9.523 -0.5038  0.5033  0.2951
   16MOL0     C 2111   5.254   9.690   9.469 -0.1992 -0.6553  0.1613
   16MOL0     C 2112   5.136   9.625   9.532  0.7385 -0.6439  0.3992
   16MOL0     C 2113   5.008   9.706   9.535 -0.5142 -0.4262 -0.4942
   16MOL0     C 2114   4.895   9.622   9.618  0.1988  0.2059 -0.0156
   16MOL0    Cl 2115   4.934   9.637   9.790  0.1091  0.1150 -0.0485
   16MOL0     C 2116   5.936   9.830   9.496  0.6314 -0.7105 -0.0060
   16MOL0     C 2117   6.058   9.809   9.421 -0.1705  0.0513 -0.2560
   16MOL0     O 2118   6.170   9.697   9.161  0.1333 -0.4348  0.8771
   16MOL0     C 2119   6.402   9.916   9.033  0.1602 -0.1625 -0.7032
   16MOL0     C 2120   6.520   9.925   8.964 -0.3906 -0.1127 -0.4728
   16MOL0     N 2121   7.220   9.772   9.023  0.1270  0.6972 -0.1159
   16MOL0     N 2122   7.318   9.691   9.045 -0.5205  0.3574  0.1920
   16MOL0     C 2123   7.718   9.066   8.298 -0.0768 -0.1729 -0.2819
   16MOL0     C 2124   7.612   9.077   8.209  0.6240  0.3304  0.5499
   16MOL0     C 2125   7.213   9.239   8.050 -0.3875 -0.2084  0.3657
   16MOL0     C 2126   7.258   9.203   7.914  0.8033  0.6250 -0.5905
   16MOL0     C 2127   7.172   9.200   7.802 -0.1688 -0.0960 -0.3136
   16MOL0     C 2128   7.039   9.240   7.811 -0.1243  0.2653  0.7194
   16MOL0     O 2129   6.946   9.257   7.712  0.1336 -0.0654  0.4829
   16MOL0     C 2130   6.998   9.208   7.582 -0.2071  0.0358 -0.4042
   16MOL0     C 2131   6.872   9.193   7.496 -0.2627 -0.8818 -0.9647
   16MOL0     C 2132   6.869   9.112   7.368 -0.4602  0.5785 -0.4364
   16MOL0     C 2133   6.745   9.140   7.280 -0.2140 -0.3872  0.2809
   16MOL0     C 2134   6.778   9.233   7.178  0.6590 -0.2720  0.0330
   16MOL0     C 2135   6.812   9.298   7.080  0.0001  0.4713 -0.3432
   16MOL0     C 2136   6.994   9.276   7.939 -1.0083  0.3639 -0.6704
   16MOL0     C 2137   7.073   9.276   8.055 -1.2212 -0.2457 -0.4562
   16MOL0     C 2138   7.002   9.306   8.188 -0.5383 -0.5181  1.0643
   16MOL0     H 2139   7.519   9.402   8.307  1.4822 -0.2467  1.9964
   16MOL0     H 2140   7.720   9.370   8.448  2.2116 -0.8715  0.5031
   16MOL0     H 2141   7.897   8.952   8.521  1.9608 -0.1947  2.1800
   16MOL0     H 2142   7.728   9.016   8.575 -0.7628 -0.0862 -0.8022
   16MOL0     H 2143   7.886   8.967   8.759  5.4403  2.0651  3.5228
   16MOL0     H 2144   8.009   9.056   8.692  0.6389 -1.3110 -1.9031
   16MOL0     H 2145   7.938   9.195   8.847 -0.6147  0.1566  0.6363
   16MOL0     H 2146   7.865   9.266   8.709  2.6994 -1.1957 -0.6555
   16MOL0     H 2147   7.646   9.147   8.773 -0.0293 -1.2207 -0.6373
   16MOL0     H 2148   7.728   9.088   8.922  0.4284  0.7281  0.9634
   16MOL0     H 2149   7.713   9.381   8.830 -0.6390 -0.0042 -1.6073
   16MOL0     H 2150   7.783   9.332   8.976 -1.9541  2.8490  1.1692
   16MOL0     H 2151   7.502   9.231   8.959  0.1541 -0.0215  3.0553
   16MOL0     H 2152   7.606   9.293   9.086 -0.8808 -0.7160  0.7121
   16MOL0     H 2153   7.527   9.502   8.885  3.3276 -0.6213 -0.4705
   16MOL0     H 2154   7.573   9.519   9.051  1.9986 -1.8065  0.8611
   16MOL0     H 2155   7.326   9.371   8.946 -3.2502  0.8217 -0.3339
   16MOL0     H 2156   7.346   9.413   9.122  3.4914 -2.2991  0.3096
   16MOL0     H 2157   7.129   9.509   8.858 -4.0358  1.4949  0.4871
   16MOL0     H 2158   6.926   9.779   8.950  0.0774 -1.2116 -1.1108
   16MOL0     H 2159   6.969   9.691   8.794  0.3334  0.5404 -0.8925
   16MOL0     H 2160   7.043   9.961   8.859 -2.6611 -2.7366  4.0938
   16MOL0     H 2161   7.087   9.850   8.717 -0.0291  1.3611 -0.0455
   16MOL0     H 2162   6.896  10.004   8.672 -0.7919  1.3995  1.0779
   16MOL0     H 2163   6.839   9.830   8.672 -3.1934  1.0851 -0.2149
   16MOL0     H 2164   6.792  10.013   8.894  1.1450 -1.2527  0.5066
   16MOL0     H 2165   6.681   9.991   8.751  2.1159  1.2832 -2.4650
   16MOL0     H 2166   6.656   9.624   9.020  0.2018  0.2444  2.7463
   16MOL0     H 2167   6.511   9.485   9.158  0.2948 -0.1412  0.0207
   16MOL0     H 2168   6.344   9.520   9.129  1.7308 -1.9990 -2.3768
   16MOL0     H 2169   6.405   9.578   9.273 -1.2115  1.4360 -0.6027
   16MOL0     H 2170   6.043  10.077   9.223 -3.0176  1.5123 -0.6092
   16MOL0     H 2171   5.838  10.104   9.330  2.0383  0.3857 -0.4022
   16MOL0     H 2172   5.648  10.122   9.558  0.2900 -0.1996 -0.4464
   16MOL0     H 2173   5.604  10.064   9.398  1.9158  1.4274 -0.3995
   16MOL0     H 2174   5.473   9.995   9.661 -1.2543  1.5542 -0.4379
   16MOL0     H 2175   5.416  10.064   9.520  1.5198  2.7222  0.6106
   16MOL0     H 2176   5.503   9.768   9.513 -0.1691  0.0416 -0.2985
   16MOL0     H 2177   5.433   9.854   9.379  0.4597 -2.4889  0.2620
   16MOL0     H 2178   5.207   9.888   9.476 -1.4821  1.6928  3.1792
   16MOL0     H 2179   5.288   9.827   9.633  2.3158 -0.0932  0.2837
   16MOL0     H 2180   5.243   9.680   9.361  1.0820  3.6147 -0.5592
   16MOL0     H 2181   5.339   9.626   9.493  0.3364  0.2260  0.6600
   16MOL0     H 2182   5.162   9.595   9.634 -0.5193  0.0861  0.9540
   16MOL0     H 2183   5.108   9.527   9.493 -0.3413 -0.3732  0.4678
   16MOL0     H 2184   4.978   9.737   9.435  0.8294 -0.1369 -0.8252
   16MOL0     H 2185   5.024   9.803   9.585  0.3777 -0.7566 -0.1226
   16MOL0     H 2186   4.874   9.521   9.580 -4.9764  1.0370  0.0538
   16MOL0     H 2187   4.802   9.675   9.598  0.6324  0.6145 -1.0419
   16MOL0     H 2188   5.905   9.768   9.580 -0.9998  0.5042  0.3309
   16MOL0     H 2189   6.111   9.717   9.442 -2.9795 -1.4366  0.7740
   16MOL0     H 2190   6.338  10.001   9.054  0.5582 -0.1677  0.6157
   16MOL0     H 2191   6.543  10.024   8.927  1.0006  0.5034  1.7761
   16MOL0     H 2192   7.773   8.975   8.277 -1.5890 -0.5939 -3.0360
   16MOL0     H 2193   7.585   9.001   8.136 -1.0807 -0.3319  1.8078
   16MOL0     H 2194   7.359   9.167   7.904 -0.1357 -2.1212 -0.9525
   16MOL0     H 2195   7.211   9.173   7.704 -1.4320  0.4238 -0.9851
   16MOL0     H 2196   7.068   9.279   7.535  0.7879 -0.8140 -0.2528
   16MOL0     H 2197   7.043   9.108   7.586  0.6876  0.2134 -3.5961
   16MOL0     H 2198   6.840   9.297   7.482  4.0724  2.2415  6.3607
   16MOL0     H 2199   6.791   9.154   7.558 -0.0848  1.9840  1.3030
   16MOL0     H 2200   6.959   9.135   7.310 -0.0800 -1.7287 -0.8756
   16MOL0     H 2201   6.884   9.005   7.388 -0.6691  0.5417 -0.4723
   16MOL0     H 2202   6.655   9.174   7.331 -0.3840 -0.3370 -0.0466
   16MOL0     H 2203   6.713   9.053   7.220 -1.4549 -0.4118  0.9484
   16MOL0     H 2204   6.828   9.352   6.989  0.1899 -1.2633 -1.3826
   16MOL0     H 2205   6.889   9.301   7.948 -1.8247 -1.6787 -3.3235
   16MOL0     H 2206   6.904   9.345   8.159 -0.0140 -0.3197 -0.5261
   16MOL0     H 2207   6.996   9.217   8.252  1.9849 -2.0995 -0.7056
   16MOL0     H 2208   7.051   9.388   8.242  2.6775 -0.8511 -1.0639
   17MOL0     O 2209   5.958   5.425   8.578 -0.0682  0.6194  0.9968
   17MOL0     C 2210   6.005   5.457   8.685  0.6613 -0.6495 -0.0996
   17MOL0     O 2211   6.130   5.434   8.731 -0.0757 -0.0721  0.0093
   17MOL0     C 2212   6.210   5.339   8.666  0.4572  0.0883 -0.7654
   17MOL0     C 2213   6.208   5.216   8.723 -0.1185  0.4541 -0.2997
   17MOL0     C 2214   6.278   5.111   8.669 -0.3282  0.3507  0.6555
   17MOL0     C 2215   6.346   5.124   8.551 -0.5109 -0.9124  0.0215
   17MOL0     O 2216   6.404   5.008   8.495 -0.0534 -0.2092 -0.1578
   17MOL0     C 2217   6.483   5.031   8.378  0.1680 -0.5539  0.1617
   17MOL0     C 2218   6.527   4.902   8.313  0.1616  0.0481  0.0179
   17MOL0     C 2219   6.638   4.826   8.393  0.0424  0.4106  0.2476
   17MOL0     C 2220   6.684   4.697   8.324  1.3279  0.8831 -0.2230
   17MOL0     C 2221   6.766   4.589   8.404 -0.3088 -0.5214  0.1369
   17MOL0     C 2222   6.910   4.626   8.424  0.2049  0.3804 -1.9311
   17MOL0     C 2223   6.939   4.735   8.531  0.0567  0.9754  0.8230
   17MOL0     C 2224   6.924   4.695   8.671 -0.0744 -0.5026  0.0423
   17MOL0     N 2225   7.014   4.777   8.748  0.1743 -0.9896  0.3300
   17MOL0     C 2226   7.148   4.762   8.768  0.1209 -1.0064  0.6786
   17MOL0     C 2227   7.180   4.876   8.839 -0.2426 -1.4549 -0.5919
   17MOL0     C 2228   7.313   4.906   8.891  0.2022 -0.0339  0.7757
   17MOL0     C 2229   7.400   4.973   8.776  0.3763  0.7731 -0.4310
   17MOL0     C 2230   7.541   5.015   8.820 -0.1641  0.4915  0.3429
   17MOL0     C 2231   7.613   5.065   8.687 -0.6591 -0.0445  0.1642
   17MOL0     O 2232   7.621   4.952   8.594 -0.0264  0.3080 -0.7498
   17MOL0     C 2233   7.654   4.982   8.470 -0.6043 -0.2597  0.6175
   17MOL0     C 2234   7.629   4.882   8.369 -0.0103  0.9095 -0.2525
   17MOL0     C 2235   7.675   4.905   8.237 -0.1273  0.5074  0.5869
   17MOL0     C 2236   7.659   4.780   8.140 -0.9976 -0.0034 -0.0882
   17MOL0     C 2237   7.733   5.026   8.193  0.9321 -0.0705 -0.3819
   17MOL0     C 2238   7.789   5.062   8.065  0.0879 -0.1226 -0.4400
   17MOL0     O 2239   7.846   5.182   8.052  0.2597  0.3118  0.1589
   17MOL0     C 2240   7.883   5.224   7.921 -0.8661  0.9536  0.7840
   17MOL0     C 2241   8.004   5.189   7.861 -0.0847  0.2253 -0.0627
   17MOL0     C 2242   8.045   5.246   7.735  1.0317  0.1145  0.3648
   17MOL0     C 2243   7.966   5.336   7.667  0.3827  0.0816  0.7248
   17MOL0     O 2244   7.990   5.391   7.547 -0.2540 -0.7725  0.1386
   17MOL0     C 2245   8.115   5.368   7.475  0.3220 -0.4542 -0.1649
   17MOL0     C 2246   8.147   5.471   7.375  0.4623  0.1417  0.3733
   17MOL0     C 2247   8.130   5.617   7.425 -0.9626  0.5760 -0.3790
   17MOL0     C 2248   8.177   5.716   7.309  0.3661  0.7422 -0.7926
   17MOL0     C 2249   8.150   5.864   7.352  0.3260  0.0398 -0.0212
   17MOL0     C 2250   8.211   5.949   7.243  0.4570  0.3995 -0.2215
   17MOL0     C 2251   8.274   6.075   7.304 -0.5104 -0.2205 -0.1816
   17MOL0     C 2252   8.330   6.187   7.208 -0.1737 -0.0452 -0.2752
   17MOL0    Cl 2253   8.454   6.124   7.084  0.2253  0.2184 -0.0470
   17MOL0     C 2254   7.844   5.367   7.723 -0.4231  0.2667  0.0946
   17MOL0     C 2255   7.798   5.312   7.846 -0.1498 -0.4528 -0.4132
   17MOL0     O 2256   7.773   4.985   7.971 -0.1402  0.5182 -0.1025
   17MOL0     C 2257   7.757   5.119   8.293  0.4392 -0.1680  0.4717
   17MOL0     C 2258   7.723   5.096   8.425  0.0093  0.4220 -0.1903
   17MOL0     N 2259   7.071   4.953   8.872 -0.0909 -0.6562 -0.6701
   17MOL0     N 2260   6.973   4.887   8.820 -0.4009  0.1536 -0.0637
   17MOL0     C 2261   6.353   5.259   8.496 -0.2033 -0.0112  0.2767
   17MOL0     C 2262   6.288   5.366   8.559  0.4675 -0.2725 -0.4934
   17MOL0     C 2263   5.925   5.540   8.783  0.9035 -0.4033 -1.1196
   17MOL0     C 2264   5.994   5.602   8.886  0.2048 -0.5462  0.2740
   17MOL0     C 2265   5.931   5.668   8.989 -0.2840 -0.1108 -0.5657
   17MOL0     C 2266   5.790   5.677   8.994  1.1751 -0.2067 -0.2444
   17MOL0     O 2267   5.716   5.748   9.092 -0.5668  0.0023  0.4066
   17MOL0     C 2268   5.796   5.813   9.194  0.3452 -0.3114  0.4072
   17MOL0     C 2269   5.702   5.905   9.273 -0.6807 -0.1669 -0.2929
   17MOL0     C 2270   5.573   5.846   9.336  0.3629  0.2342  0.6761
   17MOL0     C 2271   5.486   5.944   9.420 -0.0539 -0.8882 -0.1028
   17MOL0     C 2272   5.548   5.957   9.556 -0.3796 -0.6903 -0.0367
   17MOL0     C 2273   5.591   5.965   9.668  0.9398  0.4305  0.6119
   17MOL0     C 2274   5.717   5.614   8.892  0.5846 -1.2148 -0.2590
   17MOL0     C 2275   5.780   5.543   8.794  0.4390 -0.3497 -0.0379
   17MOL0     C 2276   5.701   5.459   8.708  1.0018  0.0734  0.6598
   17MOL0     H 2277   6.152   5.207   8.815 -2.0143 -0.5749 -1.4826
   17MOL0     H 2278   6.277   5.011   8.710  2.4009 -0.9761 -2.1224
   17MOL0     H 2279   6.578   5.078   8.403  0.5435  0.0395 -2.1657
   17MOL0     H 2280   6.436   5.100   8.307  0.4304 -0.8669 -0.3258
   17MOL0     H 2281   6.440   4.836   8.313  0.8658 -0.9264  1.3388
   17MOL0     H 2282   6.571   4.923   8.215  0.5994 -1.1864 -0.0622
   17MOL0     H 2283   6.728   4.887   8.396  0.8025 -0.2456 -3.4212
   17MOL0     H 2284   6.592   4.800   8.489  0.3449 -0.0036  0.2821
   17MOL0     H 2285   6.594   4.645   8.291  1.9937  0.2328 -1.0699
   17MOL0     H 2286   6.741   4.715   8.233  1.4311 -3.3792 -1.2305
   17MOL0     H 2287   6.759   4.496   8.347 -1.3265 -0.4976  0.2008
   17MOL0     H 2288   6.723   4.570   8.503  0.1622 -1.1133  0.2343
   17MOL0     H 2289   6.961   4.529   8.427 -0.0780 -0.0744 -6.1577
   17MOL0     H 2290   6.955   4.673   8.336 -1.2726  4.9190 -0.5451
   17MOL0     H 2291   6.884   4.828   8.519  0.6132  1.6751  3.1841
   17MOL0     H 2292   7.047   4.748   8.516  0.5086 -1.2526  1.6268
   17MOL0     H 2293   6.822   4.705   8.708  0.0945  0.8349  0.1982
   17MOL0     H 2294   6.960   4.592   8.684 -0.1531 -0.2746  2.4749
   17MOL0     H 2295   7.221   4.685   8.745 -0.0331 -0.7688 -0.6543
   17MOL0     H 2296   7.357   4.815   8.934 -3.0137 -1.9232  0.3921
   17MOL0     H 2297   7.294   4.976   8.973 -0.7557 -0.7567  1.1756
   17MOL0     H 2298   7.407   4.897   8.697  0.2545  0.3682 -0.0531
   17MOL0     H 2299   7.339   5.047   8.725 -2.0805 -1.4213 -0.8603
   17MOL0     H 2300   7.541   5.089   8.901  1.0725  0.4817  0.3676
   17MOL0     H 2301   7.592   4.923   8.849  0.7932  0.6737 -0.6787
   17MOL0     H 2302   7.561   5.146   8.635 -0.4736  0.5318  0.8634
   17MOL0     H 2303   7.716   5.093   8.712 -0.4585  0.6021 -1.2863
   17MOL0     H 2304   7.591   4.786   8.403  1.9865  0.7180  1.6746
   17MOL0     H 2305   7.610   4.815   8.048 -1.9773  1.9094  1.1054
   17MOL0     H 2306   7.600   4.697   8.180  0.1295 -0.0157  1.6348
   17MOL0     H 2307   7.760   4.747   8.114 -1.1190 -0.6055  0.1868
   17MOL0     H 2308   8.071   5.120   7.911 -0.6428 -2.2036 -2.3987
   17MOL0     H 2309   8.143   5.216   7.700  0.7575 -0.8007  0.3636
   17MOL0     H 2310   8.201   5.372   7.542 -0.8348 -0.9672  1.4057
   17MOL0     H 2311   8.112   5.272   7.421 -3.0725 -0.6420  0.1687
   17MOL0     H 2312   8.246   5.447   7.336  0.1242 -1.6518  0.4876
   17MOL0     H 2313   8.085   5.455   7.286 -2.0485 -0.7246  2.1676
   17MOL0     H 2314   8.186   5.625   7.518  0.2463  1.9797 -1.1794
   17MOL0     H 2315   8.023   5.637   7.437 -1.5033 -2.5433  0.8730
   17MOL0     H 2316   8.120   5.700   7.217  0.6728  0.7817 -0.9900
   17MOL0     H 2317   8.284   5.715   7.287  0.1273  2.6430 -2.2959
   17MOL0     H 2318   8.042   5.882   7.357  0.4408  0.7235  0.0137
   17MOL0     H 2319   8.205   5.881   7.445  0.8178 -0.4232 -0.2249
   17MOL0     H 2320   8.129   5.971   7.175 -0.0974 -2.3811 -0.5790
   17MOL0     H 2321   8.284   5.906   7.174  1.3311  1.2485  0.1449
   17MOL0     H 2322   8.351   6.038   7.373 -1.3792  3.7087  3.3110
   17MOL0     H 2323   8.202   6.131   7.364  0.2840  0.4561  0.1647
   17MOL0     H 2324   8.372   6.263   7.274 -3.8888  3.1398 -1.1820
   17MOL0     H 2325   8.261   6.248   7.150 -0.2788  1.2549  1.1404
   17MOL0     H 2326   7.781   5.442   7.678 -1.9329  1.6827  4.0795
   17MOL0     H 2327   7.699   5.337   7.880 -0.2083  0.6795 -1.3397
   17MOL0     H 2328   7.792   5.220   8.278  0.3447  0.2280  2.5557
   17MOL0     H 2329   7.759   5.175   8.491  1.1620 -2.2611  2.6450
   17MOL0     H 2330   6.413   5.270   8.405 -0.3664 -0.1044  0.1577
   17MOL0     H 2331   6.305   5.467   8.523 -1.1392  1.3569  2.8817
   17MOL0     H 2332   6.101   5.590   8.901  0.2182 -1.9444 -0.7239
   17MOL0     H 2333   5.995   5.690   9.074 -4.0164 -1.3365  2.9165
   17MOL0     H 2334   5.834   5.737   9.263 -2.7220  0.7730  3.5810
   17MOL0     H 2335   5.870   5.868   9.136 -1.3121 -1.4652 -3.1084
   17MOL0     H 2336   5.666   5.984   9.206 -0.4874 -0.1959 -0.4290
   17MOL0     H 2337   5.750   5.947   9.362 -0.7700  0.1573 -0.3954
   17MOL0     H 2338   5.514   5.805   9.254  1.2187 -1.3479  0.8207
   17MOL0     H 2339   5.606   5.761   9.396  0.5360 -1.1593 -1.3063
   17MOL0     H 2340   5.389   5.896   9.437  1.3210 -3.3820  1.3431
   17MOL0     H 2341   5.487   6.042   9.372  0.9065 -1.2755 -0.9053
   17MOL0     H 2342   5.622   5.980   9.769  1.6272  0.7107  0.3641
   17MOL0     H 2343   5.610   5.614   8.906  0.3874 -2.8259 -1.4833
   17MOL0     H 2344   5.744   5.360   8.692  0.3875 -0.0473 -0.3611
   17MOL0     H 2345   5.595   5.451   8.736 -0.4032  1.0310 -3.5424
   17MOL0     H 2346   5.700   5.488   8.602 -2.5422  1.3697  0.8938
   18MOL0     O 2347   4.173   1.700   8.695 -0.7731  0.2805 -0.3297
   18MOL0     C 2348   4.085   1.631   8.747 -0.7298 -0.7582 -0.0717
   18MOL0     O 2349   4.107   1.525   8.825  0.5853 -0.0559 -0.2671
   18MOL0     C 2350   4.233   1.471   8.822 -0.3643 -0.4502 -0.2670
   18MOL0     C 2351   4.329   1.538   8.887 -0.3364  0.0479 -0.2950
   18MOL0     C 2352   4.460   1.485   8.894 -0.0827  0.4104 -0.0620
   18MOL0     C 2353   4.506   1.371   8.825 -0.6137 -0.2910  0.9018
   18MOL0     O 2354   4.641   1.340   8.836  0.5198  0.1358  0.2082
   18MOL0     C 2355   4.680   1.208   8.781 -0.1802  0.2570  0.0544
   18MOL0     C 2356   4.828   1.191   8.796  0.0997  0.0608 -0.3221
   18MOL0     C 2357   4.891   1.085   8.709  0.3494 -0.2303 -0.7844
   18MOL0     C 2358   4.996   1.013   8.791  0.1038  0.0061 -0.2083
   18MOL0     C 2359   5.086   0.914   8.704 -1.0875 -0.4256  0.5293
   18MOL0     C 2360   5.169   0.811   8.782 -0.3193 -0.0861 -0.2512
   18MOL0     C 2361   5.269   0.873   8.874  0.4109  0.3413  0.1886
   18MOL0     C 2362   5.368   0.782   8.944 -0.4862  0.2493 -0.4492
   18MOL0     N 2363   5.439   0.850   9.053  0.3312  0.3418  0.6140
   18MOL0     C 2364   5.560   0.911   9.053 -0.0997  0.2442  0.7048
   18MOL0     C 2365   5.575   0.985   9.162 -0.8705  0.1094  0.1962
   18MOL0     C 2366   5.688   1.080   9.206 -0.5374 -0.3473 -0.3030
   18MOL0     C 2367   5.816   1.015   9.151  0.6678  0.3894  0.1194
   18MOL0     C 2368   5.856   0.878   9.199 -0.5650 -0.6267 -0.2295
   18MOL0     C 2369   5.964   0.798   9.125  0.7206  0.2186 -0.5052
   18MOL0     O 2370   6.056   0.894   9.063  0.0783  0.0796 -0.1654
   18MOL0     C 2371   6.180   0.859   9.023  0.2083  0.3574  0.1823
   18MOL0     C 2372   6.236   0.732   9.051  0.0607  0.5885 -0.0920
   18MOL0     C 2373   6.375   0.697   9.033  0.7547  0.1929  0.5432
   18MOL0     C 2374   6.421   0.554   9.074 -0.1483 -1.4668 -1.2914
   18MOL0     C 2375   6.459   0.789   8.968  0.3987  0.2825  0.3652
   18MOL0     C 2376   6.593   0.769   8.915  0.5136 -0.8435 -0.0127
   18MOL0     O 2377   6.648   0.867   8.828  0.6348 -0.2353 -0.2137
   18MOL0     C 2378   6.780   0.856   8.785 -0.0800 -0.5162 -0.3382
   18MOL0     C 2379   6.875   0.862   8.888 -0.1216  0.9598  0.1155
   18MOL0     C 2380   7.009   0.843   8.854 -0.8774 -0.7235 -0.3005
   18MOL0     C 2381   7.052   0.827   8.720  0.2286 -0.5478 -0.2304
   18MOL0     O 2382   7.179   0.803   8.697 -0.8299  0.4944  0.2353
   18MOL0     C 2383   7.203   0.690   8.609 -0.3815 -0.7806 -0.5886
   18MOL0     C 2384   7.353   0.691   8.551  0.6606  0.8249 -0.6114
   18MOL0     C 2385   7.461   0.698   8.666 -0.1996 -0.9943  0.2648
   18MOL0     C 2386   7.519   0.566   8.704 -0.0241 -0.8878  0.4392
   18MOL0     C 2387   7.611   0.582   8.828 -0.3754  0.0841  0.1852
   18MOL0     C 2388   7.662   0.448   8.882  0.2613  0.4939 -0.5449
   18MOL0     C 2389   7.734   0.484   9.010 -0.4049 -0.9449  0.6850
   18MOL0     C 2390   7.765   0.351   9.084  0.8887  0.1183 -0.3740
   18MOL0    Cl 2391   7.608   0.288   9.156 -0.0898 -0.0901 -0.5000
   18MOL0     C 2392   6.950   0.817   8.623 -0.7085  0.2707  0.3999
   18MOL0     C 2393   6.817   0.834   8.657 -0.6758  0.0180 -0.7022
   18MOL0     O 2394   6.642   0.666   8.946 -0.2314 -0.4027 -0.2823
   18MOL0     C 2395   6.397   0.915   8.932  0.0034  0.3886  0.8673
   18MOL0     C 2396   6.263   0.947   8.961 -0.4570  0.2461 -0.6063
   18MOL0     N 2397   5.477   0.948   9.246 -0.2077  0.1131  0.1131
   18MOL0     N 2398   5.394   0.876   9.180 -0.3431 -0.2402 -0.2683
   18MOL0     C 2399   4.402   1.308   8.747 -0.7738 -0.4183  0.3640
   18MOL0     C 2400   4.268   1.352   8.763  0.7281  0.0574 -0.8121
   18MOL0     C 2401   3.945   1.686   8.730 -0.8555  1.0064 -0.4896
   18MOL0     C 2402   3.843   1.603   8.775  0.7572  0.1131 -0.4623
   18MOL0     C 2403   3.715   1.643   8.775  0.1786 -0.6209  0.1025
   18MOL0     C 2404   3.671   1.761   8.716 -0.6771  1.3111  0.4961
   18MOL0     O 2405   3.542   1.786   8.701  0.2893 -0.0938  0.2863
   18MOL0     C 2406   3.460   1.777   8.816 -0.3932  0.3246 -0.0429
   18MOL0     C 2407   3.367   1.902   8.833 -0.2027 -0.6551 -0.0233
   18MOL0     C 2408   3.315   1.913   8.977 -1.0139 -0.4560  0.0052
   18MOL0     C 2409   3.230   1.791   9.003 -0.6676 -0.9605 -0.3439
   18MOL0     C 2410   3.164   1.815   9.131 -0.3463  0.6250 -0.3490
   18MOL0     C 2411   3.097   1.829   9.235 -0.6661 -0.3212  0.8935
   18MOL0     C 2412   3.775   1.846   8.663 -0.4664 -0.1385 -0.3591
   18MOL0     C 2413   3.905   1.813   8.681 -0.5138  1.3629  0.2171
   18MOL0     C 2414   4.000   1.925   8.655 -0.5241  0.0868  0.1099
   18MOL0     H 2415   4.303   1.632   8.933 -2.0231 -0.5359 -0.0136
   18MOL0     H 2416   4.524   1.545   8.958 -0.1241  1.2888 -0.8194
   18MOL0     H 2417   4.663   1.191   8.674  0.9926 -1.3428  0.0889
   18MOL0     H 2418   4.633   1.128   8.838  2.3869 -1.9068 -0.6701
   18MOL0     H 2419   4.886   1.280   8.771 -0.1257 -0.4183 -2.8469
   18MOL0     H 2420   4.856   1.181   8.901  2.2491 -0.4757 -0.9049
   18MOL0     H 2421   4.823   1.020   8.654  0.9260 -1.5402 -0.0140
   18MOL0     H 2422   4.947   1.142   8.635  1.9119  0.7906  1.0633
   18MOL0     H 2423   5.061   1.085   8.842 -2.7154  2.7367 -0.1734
   18MOL0     H 2424   4.948   0.939   8.855 -0.4891 -0.4186 -1.1164
   18MOL0     H 2425   5.149   0.986   8.650 -4.3809  2.4439  0.1717
   18MOL0     H 2426   5.027   0.862   8.628  0.1728  0.7833 -1.3914
   18MOL0     H 2427   5.093   0.753   8.836 -0.2239  3.3687  4.1562
   18MOL0     H 2428   5.218   0.751   8.705  0.2004 -1.6566  1.2326
   18MOL0     H 2429   5.208   0.932   8.944 -1.1871  3.0366 -3.1764
   18MOL0     H 2430   5.326   0.955   8.830  0.4851  0.4962  0.5625
   18MOL0     H 2431   5.310   0.699   8.984 -1.8331  1.0012 -0.7831
   18MOL0     H 2432   5.438   0.741   8.871 -1.6152  0.5784 -1.7549
   18MOL0     H 2433   5.624   0.909   8.965 -1.3878 -2.9498 -0.3017
   18MOL0     H 2434   5.685   1.078   9.316 -0.4734 -4.7536 -0.2084
   18MOL0     H 2435   5.674   1.182   9.167 -2.8711 -0.2135  0.7045
   18MOL0     H 2436   5.809   0.997   9.043  0.6691  2.1648 -0.2098
   18MOL0     H 2437   5.901   1.081   9.171 -0.3026  1.1337  1.9532
   18MOL0     H 2438   5.879   0.893   9.304 -0.1083  0.1147 -0.4276
   18MOL0     H 2439   5.765   0.816   9.198 -2.0193  1.4051 -0.9760
   18MOL0     H 2440   6.011   0.735   9.200 -0.3895 -2.7481 -2.1016
   18MOL0     H 2441   5.915   0.735   9.050 -1.7359 -0.8460  1.8439
   18MOL0     H 2442   6.174   0.659   9.102  2.2198  1.3006  4.0140
   18MOL0     H 2443   6.345   0.501   9.131  1.2312 -0.4252  1.7549
   18MOL0     H 2444   6.503   0.556   9.147 -1.7398  0.4987  0.5780
   18MOL0     H 2445   6.462   0.503   8.986 -1.4884 -1.1177 -2.1511
   18MOL0     H 2446   6.839   0.872   8.990 -1.9137  0.8171 -0.4779
   18MOL0     H 2447   7.083   0.850   8.933  2.7510 -1.1004 -3.3878
   18MOL0     H 2448   7.191   0.600   8.671 -0.1824  1.2256  2.5712
   18MOL0     H 2449   7.134   0.688   8.525  0.3143 -0.8515 -1.1675
   18MOL0     H 2450   7.356   0.594   8.501  0.6494  0.0428  0.8343
   18MOL0     H 2451   7.359   0.770   8.476 -0.2715 -1.1252 -2.8802
   18MOL0     H 2452   7.429   0.763   8.747  2.8887 -0.0968  0.8978
   18MOL0     H 2453   7.543   0.756   8.623 -2.0477  1.0925 -0.6635
   18MOL0     H 2454   7.574   0.537   8.614  0.5902  0.1461  0.4722
   18MOL0     H 2455   7.438   0.493   8.717  0.2147 -1.7824 -2.3486
   18MOL0     H 2456   7.692   0.653   8.810  1.2091 -0.9097  2.8480
   18MOL0     H 2457   7.559   0.629   8.912 -2.7442  0.5401 -1.4302
   18MOL0     H 2458   7.735   0.405   8.812  0.6021 -1.0569  0.7028
   18MOL0     H 2459   7.584   0.374   8.900  1.1770 -0.6187 -0.9785
   18MOL0     H 2460   7.671   0.546   9.074 -0.3766  0.0941 -0.2636
   18MOL0     H 2461   7.828   0.536   8.990 -1.9526  1.2018 -1.5930
   18MOL0     H 2462   7.827   0.375   9.171  0.2459  2.8422 -0.5844
   18MOL0     H 2463   7.804   0.282   9.009  1.3760  1.9277 -1.8531
   18MOL0     H 2464   6.961   0.799   8.516 -1.9674 -2.1405  0.6076
   18MOL0     H 2465   6.742   0.838   8.578 -3.1928  1.2732  1.5819
   18MOL0     H 2466   6.451   0.997   8.884 -1.1359  0.1620 -0.8677
   18MOL0     H 2467   6.240   1.050   8.934  0.6478  0.6303 -0.1692
   18MOL0     H 2468   4.438   1.227   8.685 -3.3206 -0.0737 -1.7199
   18MOL0     H 2469   4.186   1.305   8.710 -0.2694 -1.1620  1.6666
   18MOL0     H 2470   3.862   1.501   8.809  1.4139  0.0943 -0.8667
   18MOL0     H 2471   3.648   1.571   8.822  1.9228 -1.5089  1.3589
   18MOL0     H 2472   3.410   1.680   8.816 -0.2847  0.2606 -0.6961
   18MOL0     H 2473   3.523   1.790   8.904  0.1446  2.7719 -0.7101
   18MOL0     H 2474   3.277   1.888   8.773 -1.5429  0.1400  1.7164
   18MOL0     H 2475   3.424   1.992   8.810 -0.4272 -1.0880 -2.6530
   18MOL0     H 2476   3.398   1.917   9.047 -1.5611 -2.9664  0.9048
   18MOL0     H 2477   3.257   2.004   8.996 -0.3969 -0.1086  0.2382
   18MOL0     H 2478   3.292   1.702   9.017  1.5517  0.6454  0.6192
   18MOL0     H 2479   3.158   1.771   8.924 -3.0775  2.9016  0.6019
   18MOL0     H 2480   3.045   1.835   9.329  0.9481  0.4310  1.7839
   18MOL0     H 2481   3.754   1.948   8.634  5.0928  1.2088 -0.8439
   18MOL0     H 2482   4.051   1.899   8.562  0.9908  0.9506  0.6549
   18MOL0     H 2483   3.958   2.027   8.651  2.1959  1.2637 -0.4796
   18MOL0     H 2484   4.081   1.931   8.728 -0.0950  0.3346 -0.3779
   19MOL0     O 2485   8.584   2.810   6.781  0.1357  0.0669  1.1259
   19MOL0     C 2486   8.533   2.760   6.885  0.2001 -0.4290 -0.5888
   19MOL0     O 2487   8.463   2.643   6.887 -0.1854  0.2708 -0.2422
   19MOL0     C 2488   8.422   2.596   6.762  0.4256 -0.6958 -0.0356
   19MOL0     C 2489   8.289   2.620   6.724 -0.4863  0.6387 -0.5845
   19MOL0     C 2490   8.231   2.565   6.605 -0.0377 -0.2265 -0.4937
   19MOL0     C 2491   8.320   2.498   6.522  0.0542 -0.5673  0.9606
   19MOL0     O 2492   8.292   2.464   6.393  0.1924 -0.2583  0.5884
   19MOL0     C 2493   8.153   2.436   6.369  0.7145  0.0279  0.1204
   19MOL0     C 2494   8.137   2.319   6.277 -0.6212 -0.3636  0.8119
   19MOL0     C 2495   8.128   2.185   6.358  0.6400  0.0820  0.4010
   19MOL0     C 2496   7.984   2.134   6.390 -0.3847 -0.1689  0.4109
   19MOL0     C 2497   7.983   2.028   6.500  0.4755  0.2680 -0.5271
   19MOL0     C 2498   8.056   1.904   6.452 -0.0771  0.0670  0.6063
   19MOL0     C 2499   8.071   1.790   6.544 -0.2288  0.0837 -0.2522
   19MOL0     C 2500   8.149   1.819   6.674 -0.5323 -0.1543  0.3210
   19MOL0     N 2501   8.177   1.698   6.746  0.2344 -0.2452  0.2750
   19MOL0     C 2502   8.286   1.626   6.715  1.1347  0.0020 -0.2240
   19MOL0     C 2503   8.301   1.557   6.833  0.7424  0.3465 -0.4312
   19MOL0     C 2504   8.415   1.462   6.871 -0.6972 -0.0118 -0.5906
   19MOL0     C 2505   8.515   1.541   6.950 -0.4030 -0.4043 -0.0354
   19MOL0     C 2506   8.633   1.463   6.995  0.4541 -0.1607  0.6866
   19MOL0     C 2507   8.745   1.540   7.062 -0.8496 -0.2444 -0.0299
   19MOL0     O 2508   8.790   1.655   6.987 -0.1721 -0.3424  0.4411
   19MOL0     C 2509   8.913   1.645   6.917  0.0521 -0.3527 -0.3717
   19MOL0     C 2510   8.939   1.743   6.817  0.3640  0.3961 -1.2435
   19MOL0     C 2511   9.065   1.739   6.739  0.1037 -0.0438 -0.0228
   19MOL0     C 2512   9.068   1.818   6.613 -0.3394  0.3440 -0.5111
   19MOL0     C 2513   9.153   1.635   6.767  0.4934  1.1857  0.0419
   19MOL0     C 2514   9.285   1.623   6.700  0.6594  0.9527 -1.1287
   19MOL0     O 2515   9.345   1.492   6.692  0.1986  0.2766  0.3581
   19MOL0     C 2516   9.441   1.476   6.603 -1.0338 -0.4154  0.9022
   19MOL0     C 2517   9.416   1.413   6.481  0.1668 -0.5145  0.2562
   19MOL0     C 2518   9.513   1.404   6.388  0.7539 -0.0555 -0.1925
   19MOL0     C 2519   9.641   1.446   6.413 -1.1486 -0.0848  0.5171
   19MOL0     O 2520   9.734   1.420   6.315 -0.0449  0.1463  0.4991
   19MOL0     C 2521   9.875   1.458   6.327  0.9387  0.0672  0.4023
   19MOL0     C 2522   9.951   1.425   6.196 -0.7894  0.7094  0.2041
   19MOL0     C 2523  10.095   1.471   6.200 -0.4351 -0.6406 -0.5229
   19MOL0     C 2524  10.172   1.436   6.075  0.1668 -0.6396  0.4044
   19MOL0     C 2525  10.307   1.511   6.049 -0.0692 -0.6959 -0.6119
   19MOL0     C 2526  10.385   1.461   5.927  0.1480  0.3138  0.0962
   19MOL0     C 2527  10.515   1.529   5.892  0.5604  0.3555 -0.2562
   19MOL0     C 2528  10.473   1.671   5.833 -0.1283  0.2624  0.7287
   19MOL0    Cl 2529  10.616   1.766   5.800 -0.2069 -0.0309  0.2260
   19MOL0     C 2530   9.669   1.501   6.539 -0.4332  0.7555  0.3666
   19MOL0     C 2531   9.572   1.514   6.633 -0.7031 -0.5631  0.3920
   19MOL0     O 2532   9.326   1.722   6.639 -0.8418 -0.4278 -0.6083
   19MOL0     C 2533   9.130   1.546   6.874 -0.4794  0.5114  0.0852
   19MOL0     C 2534   9.014   1.545   6.943  0.4245 -0.1328  0.0308
   19MOL0     N 2535   8.200   1.583   6.926 -0.3050 -0.5953  0.3764
   19MOL0     N 2536   8.125   1.672   6.871 -0.0912 -0.2499  0.3886
   19MOL0     C 2537   8.450   2.469   6.561  0.3934 -0.1631 -0.5429
   19MOL0     C 2538   8.503   2.525   6.678 -0.6172 -1.1284  0.4779
   19MOL0     C 2539   8.586   2.816   7.023  0.2527  0.1858  0.8288
   19MOL0     C 2540   8.504   2.801   7.133 -0.7302  0.3640 -0.2944
   19MOL0     C 2541   8.529   2.870   7.252 -0.3815 -0.5859 -0.5024
   19MOL0     C 2542   8.652   2.940   7.265  0.9083  0.5690 -0.4472
   19MOL0     O 2543   8.697   2.999   7.382 -0.1201 -0.0927 -0.5921
   19MOL0     C 2544   8.609   3.024   7.493  0.3238 -0.1516  0.4407
   19MOL0     C 2545   8.679   3.051   7.628 -0.1968 -0.2270  0.1263
   19MOL0     C 2546   8.771   3.176   7.620  0.1980  0.3426 -0.4001
   19MOL0     C 2547   8.684   3.299   7.642 -0.1257  0.2456 -0.2913
   19MOL0     C 2548   8.760   3.422   7.611 -0.1875  0.3682  0.4222
   19MOL0     C 2549   8.810   3.531   7.582 -0.2567  0.5185 -0.3329
   19MOL0     C 2550   8.732   2.945   7.159  0.0745 -0.4949  0.0749
   19MOL0     C 2551   8.703   2.894   7.032 -0.4704 -0.7886  0.0484
   19MOL0     C 2552   8.808   2.903   6.928  0.5020 -0.5179  0.6319
   19MOL0     H 2553   8.221   2.674   6.790  1.4125  0.6337  1.5229
   19MOL0     H 2554   8.130   2.595   6.581  0.2453 -0.1647 -1.6225
   19MOL0     H 2555   8.106   2.529   6.334  2.8895  0.7427 -1.0758
   19MOL0     H 2556   8.105   2.410   6.464  2.2086 -1.0248  0.6202
   19MOL0     H 2557   8.045   2.334   6.221 -0.4015  0.6841  0.7172
   19MOL0     H 2558   8.220   2.316   6.206 -0.9837 -0.9502  0.4025
   19MOL0     H 2559   8.178   2.113   6.293  1.3058 -0.1647  1.1714
   19MOL0     H 2560   8.198   2.185   6.442  1.5619  1.6775 -0.3283
   19MOL0     H 2561   7.932   2.226   6.421  1.2397  0.6293  0.9279
   19MOL0     H 2562   7.941   2.096   6.297 -0.2465 -0.3273  0.4116
   19MOL0     H 2563   7.883   1.999   6.534  1.4900 -1.5072  1.1999
   19MOL0     H 2564   8.032   2.065   6.591 -0.0809  0.9557 -0.4998
   19MOL0     H 2565   8.001   1.876   6.361 -1.4342  1.7140  0.8741
   19MOL0     H 2566   8.162   1.920   6.426 -0.2741 -0.5846 -0.7067
   19MOL0     H 2567   8.125   1.713   6.487  0.6917  2.3639 -2.6502
   19MOL0     H 2568   7.971   1.752   6.566 -1.1619  0.7432 -2.9832
   19MOL0     H 2569   8.238   1.880   6.654 -1.3913  1.6455  1.6835
   19MOL0     H 2570   8.080   1.881   6.733  0.5906  1.0707  0.4142
   19MOL0     H 2571   8.353   1.620   6.629 -0.2276  0.6484 -1.3734
   19MOL0     H 2572   8.469   1.421   6.786 -0.3645 -1.2701  0.2040
   19MOL0     H 2573   8.365   1.384   6.928  0.9424 -1.4654 -1.0693
   19MOL0     H 2574   8.552   1.627   6.894  3.5624 -0.3205  2.3539
   19MOL0     H 2575   8.464   1.584   7.037  0.2421 -0.1378  0.2155
   19MOL0     H 2576   8.583   1.393   7.062  2.7206 -0.7638  1.8426
   19MOL0     H 2577   8.670   1.405   6.911 -0.8416 -0.6884  0.4557
   19MOL0     H 2578   8.694   1.584   7.148  1.0385  1.5514  0.2450
   19MOL0     H 2579   8.820   1.475   7.108 -1.2025  1.3516  3.0155
   19MOL0     H 2580   8.858   1.808   6.790 -0.4850  0.2418  0.7480
   19MOL0     H 2581   9.094   1.763   6.522 -0.2002  2.2481 -1.6803
   19MOL0     H 2582   9.134   1.906   6.618 -1.8871  1.5240 -0.0045
   19MOL0     H 2583   8.967   1.859   6.601  0.4465  1.7702 -3.1707
   19MOL0     H 2584   9.319   1.366   6.469 -0.4534  0.5892  0.8234
   19MOL0     H 2585   9.498   1.348   6.297 -1.5562  2.1687 -1.3088
   19MOL0     H 2586   9.888   1.566   6.338  1.6712  0.1022 -0.6672
   19MOL0     H 2587   9.927   1.418   6.415  1.0809  0.9828  0.7454
   19MOL0     H 2588   9.949   1.316   6.182  3.1354  0.3850  1.0086
   19MOL0     H 2589   9.906   1.465   6.105  2.1468  0.1877 -1.5916
   19MOL0     H 2590  10.148   1.432   6.287  2.1011 -0.5874 -1.9639
   19MOL0     H 2591  10.093   1.578   6.222  0.7131 -0.6993 -0.0967
   19MOL0     H 2592  10.106   1.439   5.987 -0.0420 -1.3778  0.5296
   19MOL0     H 2593  10.193   1.329   6.079 -2.4423 -1.1941  2.0781
   19MOL0     H 2594  10.278   1.617   6.046 -1.3259 -0.6637  4.0375
   19MOL0     H 2595  10.368   1.490   6.137 -2.7757 -1.4801  1.2021
   19MOL0     H 2596  10.319   1.452   5.840 -0.4100 -2.8216  0.7039
   19MOL0     H 2597  10.414   1.360   5.957 -0.1771 -0.1791 -1.1680
   19MOL0     H 2598  10.562   1.472   5.811  0.0781  1.8069 -1.6139
   19MOL0     H 2599  10.584   1.540   5.977  2.8853  1.5575 -2.1694
   19MOL0     H 2600  10.409   1.733   5.896 -0.7791  1.4965 -1.0671
   19MOL0     H 2601  10.413   1.651   5.743  1.0287 -4.4392  0.7603
   19MOL0     H 2602   9.767   1.548   6.547  0.8222 -1.1995 -2.0923
   19MOL0     H 2603   9.598   1.556   6.729 -0.8792  0.3537  0.0438
   19MOL0     H 2604   9.208   1.477   6.904  1.1062  1.8348 -0.8234
   19MOL0     H 2605   8.993   1.461   7.008  0.4931 -0.3357 -0.2062
   19MOL0     H 2606   8.516   2.423   6.488  3.6760 -0.5835  2.4379
   19MOL0     H 2607   8.608   2.508   6.700 -0.3549  0.8420  0.9938
   19MOL0     H 2608   8.408   2.751   7.121 -3.2053  4.9939 -1.9834
   19MOL0     H 2609   8.471   2.851   7.341 -0.2588 -4.1294 -1.0306
   19MOL0     H 2610   8.537   3.105   7.478 -3.1973 -3.3539 -1.5360
   19MOL0     H 2611   8.549   2.936   7.517 -0.3905  0.8820  2.7720
   19MOL0     H 2612   8.733   2.959   7.650 -5.4139 -4.0335 -1.1452
   19MOL0     H 2613   8.603   3.050   7.707  0.0415  0.6979  0.3833
   19MOL0     H 2614   8.846   3.162   7.698  0.1901 -0.6987 -0.5665
   19MOL0     H 2615   8.823   3.181   7.525  1.1819  1.2442  0.1667
   19MOL0     H 2616   8.638   3.307   7.741  1.5493 -2.9203  0.8816
   19MOL0     H 2617   8.596   3.308   7.578  0.1217  1.4603 -0.4791
   19MOL0     H 2618   8.858   3.622   7.550 -0.6434  0.8515  0.0252
   19MOL0     H 2619   8.827   2.996   7.168  0.0646 -0.2705 -0.9292
   19MOL0     H 2620   8.776   2.957   6.839  1.4361 -1.8177 -0.5187
   19MOL0     H 2621   8.887   2.971   6.961 -0.2809  0.1579  1.1666
   19MOL0     H 2622   8.835   2.801   6.899 -1.7982 -1.4405  1.4580
   20MOL0     O 2623   6.632   5.205   5.164  0.7696  0.1433 -0.2487
   20MOL0     C 2624   6.567   5.229   5.062 -0.1557  0.6968 -0.5546
   20MOL0     O 2625   6.620   5.244   4.935 -0.3398  0.4807  0.0441
   20MOL0     C 2626   6.753   5.224   4.930 -0.6241  0.3471  0.5164
   20MOL0     C 2627   6.805   5.095   4.923  0.0847 -0.1660 -0.7580
   20MOL0     C 2628   6.937   5.069   4.934 -0.1802 -1.3435  0.4025
   20MOL0     C 2629   7.034   5.171   4.916  0.1330 -0.9841 -0.5008
   20MOL0     O 2630   7.173   5.149   4.920  0.0055  0.0214 -0.2458
   20MOL0     C 2631   7.262   5.243   4.979  0.4954  0.2203  0.2134
   20MOL0     C 2632   7.398   5.166   5.004  0.0439 -0.0992 -0.0042
   20MOL0     C 2633   7.389   5.048   5.107  0.1908  0.8913 -0.1945
   20MOL0     C 2634   7.505   4.950   5.132 -0.4012 -0.2645  0.3478
   20MOL0     C 2635   7.641   5.026   5.171  0.2087  0.2394  0.6307
   20MOL0     C 2636   7.728   5.047   5.046  0.1884 -0.1847 -0.9991
   20MOL0     C 2637   7.782   4.913   4.986 -0.4917 -0.2333 -0.1860
   20MOL0     C 2638   7.857   4.939   4.850 -0.2068 -0.0286  0.2961
   20MOL0     N 2639   7.990   5.007   4.863 -0.4926  1.0917  0.3926
   20MOL0     C 2640   8.019   5.135   4.845  0.5182 -0.2000 -0.2519
   20MOL0     C 2641   8.153   5.150   4.867  0.4407  0.7598 -0.2977
   20MOL0     C 2642   8.226   5.285   4.835 -0.5107  0.4226 -0.2647
   20MOL0     C 2643   8.376   5.260   4.810  0.7389 -0.3575  0.5363
   20MOL0     C 2644   8.452   5.391   4.807 -0.3589 -0.4734  0.1852
   20MOL0     C 2645   8.601   5.369   4.780  0.5507  0.1342 -0.2801
   20MOL0     O 2646   8.614   5.287   4.656  0.0922 -0.2701 -0.5402
   20MOL0     C 2647   8.627   5.349   4.535 -0.3129  0.5575  1.1101
   20MOL0     C 2648   8.543   5.307   4.426 -0.4916 -0.4227 -0.5937
   20MOL0     C 2649   8.556   5.365   4.298 -0.0489 -0.2754 -0.4943
   20MOL0     C 2650   8.455   5.315   4.201 -0.0600  0.8848 -0.5586
   20MOL0     C 2651   8.665   5.451   4.269  0.2654 -0.6699  0.0137
   20MOL0     C 2652   8.719   5.474   4.135  0.2471  0.3473 -0.5218
   20MOL0     O 2653   8.802   5.584   4.116 -0.2334  0.2597  0.8692
   20MOL0     C 2654   8.844   5.624   3.987  0.7955  0.0041 -0.2586
   20MOL0     C 2655   8.760   5.678   3.894  0.4279  0.0827 -0.4398
   20MOL0     C 2656   8.796   5.720   3.771  0.5608  0.3506  0.8146
   20MOL0     C 2657   8.927   5.702   3.725 -0.0196  0.4226 -0.2193
   20MOL0     O 2658   8.942   5.743   3.597 -0.1676  0.1267  0.0578
   20MOL0     C 2659   9.075   5.761   3.544  0.7147  0.0786  0.2359
   20MOL0     C 2660   9.144   5.884   3.592  0.0019  0.3119  0.0245
   20MOL0     C 2661   9.264   5.918   3.510 -0.2610  0.3708  0.3244
   20MOL0     C 2662   9.319   6.062   3.532  1.1177 -0.5835 -0.4484
   20MOL0     C 2663   9.461   6.066   3.499 -0.2809 -0.4386  0.2099
   20MOL0     C 2664   9.499   6.021   3.353  0.2804 -0.1772 -0.2766
   20MOL0     C 2665   9.628   6.090   3.295  0.5268  0.6738 -0.2489
   20MOL0     C 2666   9.743   6.044   3.395 -0.3866 -0.8122  0.2947
   20MOL0    Cl 2667   9.754   5.857   3.406  0.0690 -0.2434  0.7787
   20MOL0     C 2668   9.018   5.649   3.815 -0.5832  0.1167  0.6232
   20MOL0     C 2669   8.975   5.600   3.937  0.4495 -0.2729 -0.9437
   20MOL0     O 2670   8.674   5.403   4.045 -1.4056 -0.1478 -0.1910
   20MOL0     C 2671   8.732   5.499   4.384 -0.7368  0.2673  0.9469
   20MOL0     C 2672   8.721   5.448   4.517  0.4018  0.0472  0.1921
   20MOL0     N 2673   8.198   5.029   4.911 -0.5315 -0.2184  0.2892
   20MOL0     N 2674   8.100   4.938   4.914 -0.5433  0.3400 -0.1149
   20MOL0     C 2675   6.982   5.304   4.894  0.1160 -0.1825 -0.5115
   20MOL0     C 2676   6.841   5.331   4.898 -0.4478 -0.0719 -0.3604
   20MOL0     C 2677   6.422   5.264   5.074 -0.0607  0.9945  0.1266
   20MOL0     C 2678   6.349   5.250   4.957 -0.9767  0.0291  0.5428
   20MOL0     C 2679   6.211   5.270   4.959 -0.1924  0.4656  0.7268
   20MOL0     C 2680   6.141   5.310   5.072  0.2860 -0.6781  0.1176
   20MOL0     O 2681   6.006   5.332   5.059 -1.0688  0.0341 -0.3860
   20MOL0     C 2682   5.918   5.248   5.140  0.0578  0.9369 -0.6153
   20MOL0     C 2683   5.791   5.214   5.049  0.3311 -0.9481  0.1357
   20MOL0     C 2684   5.706   5.106   5.136 -1.1027  0.2253  0.9101
   20MOL0     C 2685   5.766   4.967   5.094 -0.1738 -0.1221 -0.1021
   20MOL0     C 2686   5.683   4.861   5.159 -1.2006  0.9446  0.5311
   20MOL0     C 2687   5.620   4.778   5.220 -0.1773 -0.0810 -0.5683
   20MOL0     C 2688   6.210   5.324   5.191  0.1651 -0.1865  0.8882
   20MOL0     C 2689   6.347   5.305   5.193 -0.5687  0.1598 -0.4672
   20MOL0     C 2690   6.414   5.310   5.325  0.1156 -0.0846  0.2915
   20MOL0     H 2691   6.735   5.014   4.943 -0.2397 -0.0325 -1.3372
   20MOL0     H 2692   6.969   4.968   4.958  0.8602 -1.6985 -2.1670
   20MOL0     H 2693   7.238   5.288   5.076  3.1637  0.2662  0.9489
   20MOL0     H 2694   7.281   5.325   4.909 -1.2206  1.4672  1.1301
   20MOL0     H 2695   7.425   5.121   4.908  0.6148  0.8407 -0.3031
   20MOL0     H 2696   7.481   5.234   5.025 -0.2716  0.6339 -1.0390
   20MOL0     H 2697   7.375   5.093   5.205 -1.6935 -0.2929  0.1376
   20MOL0     H 2698   7.294   4.999   5.084  0.3102 -0.4487  1.9042
   20MOL0     H 2699   7.484   4.894   5.223  2.8370  1.6121  2.4562
   20MOL0     H 2700   7.517   4.877   5.051  0.6206 -1.2174  1.3378
   20MOL0     H 2701   7.693   4.953   5.234 -0.7513  0.0719  1.2598
   20MOL0     H 2702   7.619   5.126   5.209  2.0197  1.4242 -1.2655
   20MOL0     H 2703   7.670   5.093   4.965  0.9999  0.9232 -0.9753
   20MOL0     H 2704   7.811   5.115   5.068 -1.1132  0.7477  1.4356
   20MOL0     H 2705   7.697   4.847   4.967 -0.4217 -1.0928  2.1901
   20MOL0     H 2706   7.844   4.868   5.063 -0.2264 -2.0011 -1.3806
   20MOL0     H 2707   7.876   4.845   4.798  0.4874  1.3612 -2.1287
   20MOL0     H 2708   7.801   4.999   4.778  1.2980  1.9712  0.6867
   20MOL0     H 2709   7.959   5.215   4.803  0.3206 -2.1648 -4.2167
   20MOL0     H 2710   8.195   5.350   4.917 -1.1392  1.4051 -1.2683
   20MOL0     H 2711   8.177   5.329   4.748 -0.0143  1.4755 -0.0303
   20MOL0     H 2712   8.421   5.201   4.890 -1.1595 -2.1849  0.3460
   20MOL0     H 2713   8.375   5.195   4.723 -0.7387 -2.0643  1.7341
   20MOL0     H 2714   8.413   5.450   4.723  0.8821 -0.6991 -0.5877
   20MOL0     H 2715   8.427   5.449   4.896  0.8158  0.0605  0.1920
   20MOL0     H 2716   8.658   5.461   4.763  2.4966 -0.8307  0.7525
   20MOL0     H 2717   8.640   5.325   4.872 -0.2343  2.5721  1.3018
   20MOL0     H 2718   8.465   5.234   4.447 -1.6200  1.1720  0.9940
   20MOL0     H 2719   8.434   5.407   4.145  2.0071  0.9184 -1.3578
   20MOL0     H 2720   8.363   5.269   4.238 -0.7268  1.8524 -0.9858
   20MOL0     H 2721   8.508   5.255   4.126  0.5089  1.4787 -0.6434
   20MOL0     H 2722   8.657   5.704   3.918 -0.2438 -1.0944 -1.8832
   20MOL0     H 2723   8.733   5.769   3.698 -0.7667 -2.0189  0.2671
   20MOL0     H 2724   9.137   5.671   3.544  4.2834  2.3610 -0.0694
   20MOL0     H 2725   9.067   5.773   3.435  0.7425 -0.4815  0.1667
   20MOL0     H 2726   9.079   5.972   3.600  0.9224  0.9313  0.9099
   20MOL0     H 2727   9.179   5.862   3.693 -0.9294 -0.6377  0.1674
   20MOL0     H 2728   9.240   5.900   3.405  0.1414  0.2314  0.2558
   20MOL0     H 2729   9.345   5.852   3.542  0.8230  2.3241  1.8136
   20MOL0     H 2730   9.307   6.082   3.639 -2.2344 -2.2835 -0.3769
   20MOL0     H 2731   9.250   6.130   3.482  0.4304  0.2581  1.5527
   20MOL0     H 2732   9.497   6.170   3.503  2.9683 -1.5011  2.1475
   20MOL0     H 2733   9.513   6.006   3.574 -2.8028  1.0934  3.4329
   20MOL0     H 2734   9.420   6.035   3.279  0.1059  0.3865  0.0131
   20MOL0     H 2735   9.520   5.913   3.357  1.1093  0.0042  0.5195
   20MOL0     H 2736   9.622   6.199   3.296  0.9895  0.7384 -1.7238
   20MOL0     H 2737   9.652   6.053   3.194 -1.8761 -3.7606  0.5159
   20MOL0     H 2738   9.713   6.085   3.492 -1.7078  3.0648 -1.5330
   20MOL0     H 2739   9.840   6.079   3.358  0.0713 -3.6632 -1.5045
   20MOL0     H 2740   9.122   5.643   3.785 -1.1668  0.9140 -1.7911
   20MOL0     H 2741   9.041   5.563   4.016  0.7909  1.2639 -0.4735
   20MOL0     H 2742   8.814   5.570   4.375  1.2446 -2.1275 -1.7374
   20MOL0     H 2743   8.787   5.483   4.595  1.0309 -0.5619 -0.0546
   20MOL0     H 2744   7.055   5.382   4.878 -0.7659  0.6855 -0.4038
   20MOL0     H 2745   6.804   5.432   4.879  2.9081  1.3020 -0.2029
   20MOL0     H 2746   6.396   5.228   4.861  0.2071  3.1965  0.2902
   20MOL0     H 2747   6.153   5.266   4.868 -2.7963  2.3760  2.1635
   20MOL0     H 2748   5.973   5.155   5.156 -1.2037  0.1091 -0.8940
   20MOL0     H 2749   5.892   5.292   5.237 -1.6847 -1.0274 -0.1221
   20MOL0     H 2750   5.814   5.170   4.952 -0.2989 -2.7437  0.7391
   20MOL0     H 2751   5.741   5.308   5.024 -0.4628 -1.9199 -2.2038
   20MOL0     H 2752   5.697   5.146   5.237 -2.6897  1.8284  0.1932
   20MOL0     H 2753   5.604   5.101   5.096 -0.4444 -3.4831 -0.7650
   20MOL0     H 2754   5.870   4.946   5.122  0.2253 -1.2952 -2.2432
   20MOL0     H 2755   5.759   4.959   4.985  3.0432 -1.5577 -0.3094
   20MOL0     H 2756   5.572   4.712   5.290 -0.6429  2.1679  1.3710
   20MOL0     H 2757   6.168   5.355   5.286  1.6618 -0.3248  1.6263
   20MOL0     H 2758   6.349   5.336   5.410  0.1597  0.9538  0.0137
   20MOL0     H 2759   6.463   5.214   5.343 -0.1337 -0.7568 -2.2250
   20MOL0     H 2760   6.483   5.394   5.326 -1.7725  1.6868 -2.7202
   21MOL0     O 2761   1.299  10.164  11.218  0.7517  0.4195 -0.4782
   21MOL0     C 2762   1.377  10.157  11.317 -0.2568 -0.0470 -0.0236
   21MOL0     O 2763   1.478  10.249  11.342  0.0708  0.4415 -0.0606
   21MOL0     C 2764   1.517  10.330  11.247 -0.5844  0.1342 -0.4217
   21MOL0     C 2765   1.441  10.409  11.172  0.5063  0.3434  0.3435
   21MOL0     C 2766   1.499  10.506  11.079 -0.2372 -0.3019 -0.0407
   21MOL0     C 2767   1.643  10.518  11.070 -0.1722  0.1779 -0.5727
   21MOL0     O 2768   1.681  10.622  10.987 -0.0866 -0.4443 -0.3709
   21MOL0     C 2769   1.822  10.665  10.965 -0.4136 -0.5515 -0.1090
   21MOL0     C 2770   1.843  10.797  10.887  0.3097  0.5901 -0.3646
   21MOL0     C 2771   1.803  10.929  10.959  0.1823 -0.3660  0.1916
   21MOL0     C 2772   1.876  10.943  11.094  0.7578 -0.2030 -0.0322
   21MOL0     C 2773   2.027  10.946  11.078 -0.2365  0.3187 -0.5393
   21MOL0     C 2774   2.111  10.976  11.212  0.8269 -0.1640  0.9110
   21MOL0     C 2775   2.261  10.958  11.181  0.8241 -0.4138 -0.4306
   21MOL0     C 2776   2.308  10.813  11.195  0.1685 -0.3142 -0.0334
   21MOL0     N 2777   2.421  10.787  11.107  0.0598 -0.7110  1.0109
   21MOL0     C 2778   2.545  10.757  11.158  0.3882  0.4788 -0.1446
   21MOL0     C 2779   2.626  10.729  11.051  0.8761 -0.7994 -0.1949
   21MOL0     C 2780   2.774  10.692  11.057 -0.6691  0.1998 -0.8177
   21MOL0     C 2781   2.810  10.565  11.143 -0.1122  0.2047  0.4416
   21MOL0     C 2782   2.747  10.437  11.080 -1.0514 -0.4594  0.2956
   21MOL0     C 2783   2.848  10.328  11.111 -1.0146 -0.6498  0.4070
   21MOL0     O 2784   2.880  10.316  11.249 -0.6260 -0.5596 -0.8394
   21MOL0     C 2785   2.983  10.233  11.277 -0.5530  0.2490 -1.0802
   21MOL0     C 2786   3.097  10.292  11.340 -0.0445  0.2130 -0.1442
   21MOL0     C 2787   3.198  10.208  11.399  0.9316 -0.1402 -1.4575
   21MOL0     C 2788   3.287  10.270  11.503 -0.2667  0.7622 -0.1242
   21MOL0     C 2789   3.190  10.071  11.367 -0.1048 -0.6243  0.4198
   21MOL0     C 2790   3.298   9.974  11.401 -0.1308 -0.0244 -0.3739
   21MOL0     O 2791   3.386  10.005  11.502 -0.1805  0.1197 -0.1874
   21MOL0     C 2792   3.480   9.923  11.559 -0.4762  0.1739  1.0156
   21MOL0     C 2793   3.577   9.995  11.628 -0.1991  0.3106 -1.2495
   21MOL0     C 2794   3.681   9.923  11.695 -0.5821 -0.4436  0.1917
   21MOL0     C 2795   3.687   9.786  11.689  0.1838  0.3845  0.3438
   21MOL0     O 2796   3.785   9.732  11.762 -0.3536  0.1613  0.3873
   21MOL0     C 2797   3.814   9.593  11.732 -0.5918 -0.2642 -0.4560
   21MOL0     C 2798   3.935   9.562  11.810  0.1872 -1.3623  0.3399
   21MOL0     C 2799   3.996   9.429  11.761 -0.4013 -0.5326 -0.5713
   21MOL0     C 2800   4.119   9.387  11.852 -0.5415 -0.2118 -0.5893
   21MOL0     C 2801   4.075   9.321  11.984  0.0473  0.0821  0.2955
   21MOL0     C 2802   4.202   9.271  12.062 -0.5214 -0.2116 -0.7164
   21MOL0     C 2803   4.289   9.162  12.005  0.1148 -0.7106  0.5726
   21MOL0     C 2804   4.382   9.092  12.098 -0.8622  0.2076  0.7182
   21MOL0    Cl 2805   4.531   9.182  12.148 -0.3557  0.2554  0.5418
   21MOL0     C 2806   3.592   9.716  11.613  0.6568  0.1664  0.2337
   21MOL0     C 2807   3.495   9.783  11.548 -0.3307  0.2575 -0.7070
   21MOL0     O 2808   3.314   9.871  11.329  0.3040 -0.5439  1.0830
   21MOL0     C 2809   3.080  10.018  11.296 -0.1082 -0.7506 -0.1356
   21MOL0     C 2810   2.979  10.097  11.251 -0.5026  1.0610  0.0818
   21MOL0     N 2811   2.546  10.752  10.936 -0.0263 -0.0145 -0.8143
   21MOL0     N 2812   2.427  10.797  10.972  0.2397 -0.1772  0.4879
   21MOL0     C 2813   1.723  10.431  11.148  0.2898 -0.0459  0.2122
   21MOL0     C 2814   1.655  10.342  11.233  0.2632 -0.2254  0.1015
   21MOL0     C 2815   1.361  10.046  11.410 -0.2161 -0.6312  0.1464
   21MOL0     C 2816   1.242   9.979  11.409  0.6587 -0.2809 -0.2260
   21MOL0     C 2817   1.221   9.862  11.487 -0.4430  0.5551  0.0763
   21MOL0     C 2818   1.307   9.834  11.593  0.2932 -0.6857 -0.2614
   21MOL0     O 2819   1.269   9.755  11.699  0.0546  0.7721  0.0156
   21MOL0     C 2820   1.276   9.608  11.671 -0.4342 -0.2815 -0.1225
   21MOL0     C 2821   1.128   9.555  11.692 -0.8804 -0.2322  0.0715
   21MOL0     C 2822   1.060   9.595  11.831 -0.2660 -0.3501  0.7705
   21MOL0     C 2823   0.915   9.599  11.814  0.2244  0.3019  0.8078
   21MOL0     C 2824   0.860   9.698  11.716  0.1604 -0.0873  0.7016
   21MOL0     C 2825   0.810   9.785  11.646  0.6894  0.3108  0.8441
   21MOL0     C 2826   1.437   9.895  11.583 -0.2444 -0.2147 -0.9387
   21MOL0     C 2827   1.470   9.997  11.489  0.3491  0.2155  0.3337
   21MOL0     C 2828   1.611  10.044  11.474  0.2979  0.6781 -0.6932
   21MOL0     H 2829   1.333  10.410  11.181  0.1081  5.3070 -1.6272
   21MOL0     H 2830   1.447  10.570  11.008  2.1720  0.2092 -1.4663
   21MOL0     H 2831   1.875  10.579  10.923 -2.3681 -2.6866  1.5290
   21MOL0     H 2832   1.865  10.681  11.064  0.1085  1.0263 -0.5664
   21MOL0     H 2833   1.950  10.790  10.862 -0.0118 -0.6932 -1.5340
   21MOL0     H 2834   1.795  10.809  10.789  2.8202  2.7606 -1.4790
   21MOL0     H 2835   1.823  11.021  10.903 -1.6081  1.7459  2.8029
   21MOL0     H 2836   1.698  10.932  10.990  0.5367  0.0790  1.3839
   21MOL0     H 2837   1.824  11.034  11.123 -1.6122 -0.1907 -3.5870
   21MOL0     H 2838   1.852  10.866  11.168  2.0812 -1.5999 -0.9726
   21MOL0     H 2839   2.049  11.026  11.007  0.7137  0.2566 -0.3311
   21MOL0     H 2840   2.057  10.847  11.044 -5.3067 -0.3705 -4.0833
   21MOL0     H 2841   2.104  11.078  11.250  0.2382  0.5084 -0.9023
   21MOL0     H 2842   2.077  10.916  11.297  2.8632  1.1765  2.7620
   21MOL0     H 2843   2.319  11.027  11.243 -1.0980  0.1542  0.8085
   21MOL0     H 2844   2.288  10.994  11.081 -0.9699 -0.2354 -0.8780
   21MOL0     H 2845   2.339  10.790  11.298  4.6831  1.9429 -0.6351
   21MOL0     H 2846   2.217  10.759  11.166 -1.3272  1.1023  1.6975
   21MOL0     H 2847   2.578  10.744  11.260 -1.0266 -0.5740  0.2147
   21MOL0     H 2848   2.824  10.765  11.122  1.3631  0.2387 -2.3030
   21MOL0     H 2849   2.811  10.672  10.956  1.9405  0.2731  0.0555
   21MOL0     H 2850   2.919  10.562  11.143 -0.0287  1.9216  0.9912
   21MOL0     H 2851   2.762  10.577  11.241 -2.9891  1.1563 -0.9669
   21MOL0     H 2852   2.656  10.400  11.128 -1.6165 -0.8212 -1.0329
   21MOL0     H 2853   2.737  10.442  10.972  0.7651 -1.3605  0.0458
   21MOL0     H 2854   2.805  10.234  11.076 -2.1969 -0.1436  0.4280
   21MOL0     H 2855   2.945  10.351  11.066 -1.3615 -1.5919 -0.8677
   21MOL0     H 2856   3.086  10.399  11.348 -3.9561  0.0052 -0.8000
   21MOL0     H 2857   3.280  10.231  11.605 -0.1938 -2.0167 -1.0931
   21MOL0     H 2858   3.276  10.378  11.517  1.4567  0.6657  2.8231
   21MOL0     H 2859   3.395  10.264  11.485 -0.1767  1.0138  0.3082
   21MOL0     H 2860   3.565  10.102  11.624  1.1661  0.6138  1.0032
   21MOL0     H 2861   3.756   9.977  11.752 -1.2224 -0.6119  1.2249
   21MOL0     H 2862   3.729   9.525  11.747 -1.0671  0.0831 -1.5095
   21MOL0     H 2863   3.848   9.584  11.629  1.7043 -2.0712  0.3775
   21MOL0     H 2864   4.015   9.635  11.796 -2.7156  1.5064 -3.4134
   21MOL0     H 2865   3.917   9.560  11.918 -0.3822  1.6160  0.3789
   21MOL0     H 2866   4.031   9.440  11.658 -0.3462 -0.5434 -0.5537
   21MOL0     H 2867   3.910   9.362  11.764  0.1364 -1.1979  1.1323
   21MOL0     H 2868   4.187   9.473  11.855 -1.4405  0.5048  0.8555
   21MOL0     H 2869   4.161   9.298  11.804  1.5653 -1.3077  2.9193
   21MOL0     H 2870   4.035   9.391  12.057  0.2867  0.9707 -0.4123
   21MOL0     H 2871   4.004   9.240  11.963 -0.4857  0.4505  0.6555
   21MOL0     H 2872   4.166   9.234  12.159  1.5871 -0.9092 -0.1563
   21MOL0     H 2873   4.270   9.355  12.081  2.4407 -2.2316 -1.7563
   21MOL0     H 2874   4.348   9.193  11.918  0.2875  1.4584  1.4031
   21MOL0     H 2875   4.212   9.090  11.975 -0.6283 -0.5381  1.9916
   21MOL0     H 2876   4.418   9.000  12.053  0.1260  1.4247 -1.1005
   21MOL0     H 2877   4.336   9.054  12.190  3.0994 -1.4715  2.2158
   21MOL0     H 2878   3.602   9.611  11.590 -2.8182 -0.4226  0.9633
   21MOL0     H 2879   3.428   9.740  11.474  3.0801 -1.8642 -2.8163
   21MOL0     H 2880   3.073   9.913  11.268 -0.6667 -0.9155  0.5882
   21MOL0     H 2881   2.886  10.059  11.210  0.5975  0.0665 -1.6488
   21MOL0     H 2882   1.830  10.443  11.153  0.1476  0.6095  3.2304
   21MOL0     H 2883   1.708  10.286  11.309  0.5990  1.3528  1.0577
   21MOL0     H 2884   1.156  10.013  11.352  1.0905  2.8921  0.7996
   21MOL0     H 2885   1.138   9.792  11.479  1.8627 -2.4525  0.4493
   21MOL0     H 2886   1.315   9.576  11.574 -1.7956  1.3538 -1.2757
   21MOL0     H 2887   1.350   9.568  11.740 -2.0646  1.3946  2.8111
   21MOL0     H 2888   1.117   9.448  11.674  1.4289 -0.5765  0.4724
   21MOL0     H 2889   1.071   9.599  11.609 -0.6246 -0.2642 -0.1247
   21MOL0     H 2890   1.079   9.536  11.921  0.4181 -0.7102  0.4001
   21MOL0     H 2891   1.093   9.698  11.851  0.0718  0.5217 -3.4078
   21MOL0     H 2892   0.868   9.606  11.912  2.9640  1.4361  2.1272
   21MOL0     H 2893   0.889   9.500  11.774 -0.8075  0.3984  1.2272
   21MOL0     H 2894   0.769   9.862  11.584 -0.3864 -0.7825  0.1550
   21MOL0     H 2895   1.520   9.859  11.644 -0.8323 -1.3379 -0.7826
   21MOL0     H 2896   1.627  10.141  11.522 -2.0666  1.5375 -1.5059
   21MOL0     H 2897   1.681   9.976  11.523  2.2198  0.8605 -3.0353
   21MOL0     H 2898   1.642  10.045  11.369  2.7867  0.5194 -0.0244
   22MOL0     O 2899  10.585   5.116   1.550  0.1224  0.3138 -0.0415
   22MOL0     C 2900  10.605   5.184   1.651 -1.0473 -0.2109  0.4631
   22MOL0     O 2901  10.711   5.269   1.671 -0.3206  0.7496 -0.9958
   22MOL0     C 2902  10.824   5.291   1.589  0.9945  0.7296  0.6645
   22MOL0     C 2903  10.951   5.321   1.638 -0.3943 -0.1509 -0.9766
   22MOL0     C 2904  11.053   5.355   1.553  0.8421 -0.7737  1.2849
   22MOL0     C 2905  11.039   5.335   1.415 -0.5791  0.2238  0.4298
   22MOL0     O 2906  11.140   5.330   1.319 -0.2425 -0.7537 -0.7591
   22MOL0     C 2907  11.275   5.361   1.371  0.1736  0.4363 -0.1641
   22MOL0     C 2908  11.371   5.343   1.253 -0.1016 -0.3553 -0.9619
   22MOL0     C 2909  11.343   5.446   1.142 -0.1776  0.3769 -0.5426
   22MOL0     C 2910  11.465   5.423   1.051 -0.4052 -0.5203  0.3651
   22MOL0     C 2911  11.460   5.485   0.919  0.3016 -1.2905  0.2305
   22MOL0     C 2912  11.590   5.499   0.843 -0.1533 -0.7703  0.7138
   22MOL0     C 2913  11.562   5.581   0.707  0.3385 -0.3731 -0.2176
   22MOL0     C 2914  11.702   5.610   0.648  0.1607 -0.3835  0.7990
   22MOL0     N 2915  11.779   5.485   0.615  0.0259  0.3829 -0.7117
   22MOL0     C 2916  11.864   5.410   0.690  0.8993  0.0533  0.1542
   22MOL0     C 2917  11.936   5.331   0.604  0.0007  0.2411  1.4468
   22MOL0     C 2918  12.046   5.237   0.648 -0.0118  0.0562  0.0574
   22MOL0     C 2919  12.169   5.309   0.666  0.1949 -0.3544 -0.1190
   22MOL0     C 2920  12.285   5.221   0.670 -0.1892  0.9473 -0.7885
   22MOL0     C 2921  12.405   5.309   0.698 -0.6727  0.0294  0.9824
   22MOL0     O 2922  12.442   5.380   0.571 -0.0702  0.1505  0.1487
   22MOL0     C 2923  12.563   5.445   0.576  0.9004  0.7132 -0.2931
   22MOL0     C 2924  12.636   5.476   0.696 -0.4349 -0.9294  0.5235
   22MOL0     C 2925  12.764   5.536   0.690 -1.0004 -0.0746 -0.3473
   22MOL0     C 2926  12.837   5.548   0.831  0.3104  0.5803  0.5248
   22MOL0     C 2927  12.816   5.568   0.554 -1.1331 -0.1334  0.1573
   22MOL0     C 2928  12.944   5.643   0.537  0.1093  0.2124  0.6590
   22MOL0     O 2929  13.027   5.641   0.643 -0.9995  0.0278 -0.3185
   22MOL0     C 2930  13.166   5.653   0.635 -0.7133 -0.0595  0.8394
   22MOL0     C 2931  13.228   5.634   0.762 -0.4220 -0.4730  0.5748
   22MOL0     C 2932  13.364   5.655   0.781  0.1057  0.4237  0.0462
   22MOL0     C 2933  13.450   5.683   0.669  0.2082 -0.7566  0.0344
   22MOL0     O 2934  13.582   5.680   0.701  0.2570  0.3211 -0.4421
   22MOL0     C 2935  13.671   5.749   0.612 -0.3388  0.6245 -0.2468
   22MOL0     C 2936  13.697   5.891   0.663  0.4913 -0.3377  0.1517
   22MOL0     C 2937  13.808   5.948   0.585 -0.0270 -0.3305  0.0299
   22MOL0     C 2938  13.865   6.084   0.631  0.6037 -0.2161 -0.2595
   22MOL0     C 2939  13.987   6.127   0.554 -0.5636  0.3107 -0.1003
   22MOL0     C 2940  14.081   6.222   0.628 -1.0111  0.5441  0.6123
   22MOL0     C 2941  14.181   6.289   0.535  0.3785  0.3087 -0.1501
   22MOL0     C 2942  14.272   6.387   0.606 -0.2874 -0.7756  0.0324
   22MOL0    Cl 2943  14.394   6.459   0.499 -0.1395 -0.1557 -0.3395
   22MOL0     C 2944  13.388   5.705   0.539  0.9479  0.3562  0.4396
   22MOL0     C 2945  13.250   5.683   0.524  0.4407  0.0044 -0.4949
   22MOL0     O 2946  12.956   5.699   0.430  0.6283 -0.9250  0.6792
   22MOL0     C 2947  12.738   5.533   0.444 -0.3520 -0.4082 -0.1535
   22MOL0     C 2948  12.611   5.482   0.453 -0.6096  1.0511  1.4616
   22MOL0     N 2949  11.877   5.342   0.481  0.4023  0.2953 -0.8655
   22MOL0     N 2950  11.790   5.440   0.489  0.0772 -0.5938 -0.1597
   22MOL0     C 2951  10.916   5.305   1.364  0.3524  0.0675 -0.3695
   22MOL0     C 2952  10.803   5.283   1.451  0.6454 -0.5498  0.2673
   22MOL0     C 2953  10.501   5.159   1.761 -1.0742  0.3268  0.9782
   22MOL0     C 2954  10.424   5.034   1.753  0.0626 -0.2765  1.1889
   22MOL0     C 2955  10.321   5.005   1.846 -0.3607 -0.7686  0.2579
   22MOL0     C 2956  10.296   5.092   1.950  0.5334 -0.6919  0.2870
   22MOL0     O 2957  10.198   5.073   2.047 -0.3744 -0.0389  0.1882
   22MOL0     C 2958  10.111   4.962   2.026 -0.0288 -0.2900 -0.3507
   22MOL0     C 2959  10.027   4.942   2.151 -0.5900 -0.6978 -0.7292
   22MOL0     C 2960   9.925   4.834   2.128 -0.4053 -0.4059  0.2527
   22MOL0     C 2961   9.883   4.746   2.249 -0.2779  0.7754  0.2609
   22MOL0     C 2962   9.792   4.642   2.207  0.1696 -0.3309  1.1357
   22MOL0     C 2963   9.711   4.555   2.172 -0.1718  0.7931  0.2565
   22MOL0     C 2964  10.380   5.206   1.968 -0.1110 -0.0653 -0.8504
   22MOL0     C 2965  10.483   5.244   1.876 -0.1174 -0.3335  0.5016
   22MOL0     C 2966  10.555   5.371   1.919 -0.1091 -0.1425 -0.3093
   22MOL0     H 2967  10.974   5.327   1.744  0.5079  0.2124 -1.1861
   22MOL0     H 2968  11.144   5.389   1.601  0.7152 -1.1872  1.8263
   22MOL0     H 2969  11.308   5.302   1.457  1.9208  0.9602 -0.4279
   22MOL0     H 2970  11.263   5.466   1.400 -1.4764 -0.2502  1.8467
   22MOL0     H 2971  11.473   5.359   1.290 -0.1516 -0.9811 -0.5458
   22MOL0     H 2972  11.373   5.242   1.210  3.4124 -0.8619  0.0181
   22MOL0     H 2973  11.251   5.427   1.086 -1.0598  1.7935  0.3866
   22MOL0     H 2974  11.343   5.547   1.183 -1.2124  0.9702 -1.9101
   22MOL0     H 2975  11.555   5.459   1.100  0.4808 -1.6996 -0.3503
   22MOL0     H 2976  11.475   5.314   1.045 -0.4743 -0.4974 -0.3287
   22MOL0     H 2977  11.416   5.584   0.929  2.0306 -0.2279 -1.8435
   22MOL0     H 2978  11.389   5.429   0.857  0.1389 -0.6349 -0.1894
   22MOL0     H 2979  11.669   5.545   0.901  0.1172  1.1393 -1.0600
   22MOL0     H 2980  11.626   5.400   0.812  1.1158 -0.0273 -0.2828
   22MOL0     H 2981  11.507   5.673   0.729  2.7881  1.3468 -0.8069
   22MOL0     H 2982  11.500   5.525   0.638 -2.6515  1.3298  0.9232
   22MOL0     H 2983  11.694   5.668   0.555 -0.6262 -1.4801  0.1642
   22MOL0     H 2984  11.760   5.666   0.723  1.5718 -1.8865  0.8741
   22MOL0     H 2985  11.888   5.424   0.795  0.7009 -1.7343  0.4763
   22MOL0     H 2986  12.052   5.170   0.561 -0.6069  0.1671 -0.0711
   22MOL0     H 2987  12.026   5.187   0.743  0.1229 -0.6208 -0.2644
   22MOL0     H 2988  12.183   5.381   0.584  2.0963  0.7588  1.0934
   22MOL0     H 2989  12.169   5.368   0.758  2.6612 -1.4473  0.6829
   22MOL0     H 2990  12.277   5.148   0.751 -0.8793  0.0680 -1.6222
   22MOL0     H 2991  12.305   5.174   0.574  3.7474 -1.0528  0.7868
   22MOL0     H 2992  12.367   5.374   0.777 -1.2340 -1.8604  2.3465
   22MOL0     H 2993  12.480   5.245   0.745 -0.8567 -2.2466 -1.5145
   22MOL0     H 2994  12.593   5.458   0.794 -1.3860 -4.1590 -0.3419
   22MOL0     H 2995  12.769   5.521   0.913  1.9620 -1.6908  1.2501
   22MOL0     H 2996  12.875   5.650   0.844  0.4329  0.9715 -2.3287
   22MOL0     H 2997  12.926   5.485   0.837  0.3975  0.4087 -1.8278
   22MOL0     H 2998  13.170   5.602   0.848  1.5231  0.0570  2.1609
   22MOL0     H 2999  13.407   5.645   0.880  0.8611  1.4944 -0.1548
   22MOL0     H 3000  13.762   5.692   0.589 -0.3585  1.0349 -1.4430
   22MOL0     H 3001  13.629   5.761   0.512 -0.8336 -0.3448 -0.1645
   22MOL0     H 3002  13.607   5.953   0.660  0.0698 -0.9900 -1.1929
   22MOL0     H 3003  13.723   5.893   0.770 -1.1313 -1.7614  0.6101
   22MOL0     H 3004  13.776   5.948   0.480  1.7236 -1.9475 -0.5475
   22MOL0     H 3005  13.894   5.882   0.575  1.0135  1.2588 -2.8268
   22MOL0     H 3006  13.883   6.077   0.739  0.0939  0.1102 -0.1486
   22MOL0     H 3007  13.781   6.152   0.619  0.3430 -0.2489  1.1565
   22MOL0     H 3008  14.041   6.041   0.514 -1.0784 -0.3312  0.5654
   22MOL0     H 3009  13.940   6.177   0.469 -2.0996  0.4173  0.7778
   22MOL0     H 3010  14.128   6.178   0.717  0.2531 -1.9363 -1.1618
   22MOL0     H 3011  14.014   6.300   0.666 -0.6060  0.8299  0.7391
   22MOL0     H 3012  14.129   6.348   0.458  0.6476 -1.4001 -1.7250
   22MOL0     H 3013  14.245   6.210   0.496  1.6079  1.0363  0.3672
   22MOL0     H 3014  14.322   6.334   0.687 -0.2726  1.7614  1.7939
   22MOL0     H 3015  14.205   6.460   0.651  1.0128  0.1436  0.5164
   22MOL0     H 3016  13.436   5.733   0.445 -2.3278 -2.6882 -2.4488
   22MOL0     H 3017  13.203   5.704   0.428 -0.7259  0.5153  0.1548
   22MOL0     H 3018  12.764   5.558   0.342  1.2910  1.7575  0.7052
   22MOL0     H 3019  12.553   5.478   0.362  3.2729 -0.2191 -1.2140
   22MOL0     H 3020  10.909   5.303   1.256 -1.3158 -1.3082 -0.2721
   22MOL0     H 3021  10.704   5.261   1.412  1.6290 -2.5231 -1.3241
   22MOL0     H 3022  10.429   4.968   1.667  0.3025  1.6965 -0.3786
   22MOL0     H 3023  10.272   4.911   1.824  0.6552 -1.1874 -0.3018
   22MOL0     H 3024  10.050   4.987   1.939 -3.6880 -4.7657  0.5191
   22MOL0     H 3025  10.150   4.862   2.003  0.1860  0.4411 -3.4946
   22MOL0     H 3026   9.994   5.036   2.196  4.3193  1.8169 -1.6485
   22MOL0     H 3027  10.099   4.914   2.229 -1.5036 -0.8897  0.0585
   22MOL0     H 3028   9.831   4.873   2.088 -0.0306 -0.8003 -1.0710
   22MOL0     H 3029   9.975   4.768   2.056  0.9970  0.2517  0.5760
   22MOL0     H 3030   9.823   4.798   2.325 -1.1599 -1.4285  1.1632
   22MOL0     H 3031   9.963   4.699   2.307 -0.1427  0.3563 -0.2645
   22MOL0     H 3032   9.658   4.466   2.143  0.6965  1.0274 -2.3673
   22MOL0     H 3033  10.352   5.263   2.056  0.8931 -1.2546  0.2815
   22MOL0     H 3034  10.490   5.427   1.988 -0.3558  0.2174 -0.8222
   22MOL0     H 3035  10.647   5.340   1.969 -0.4565  1.1781  1.2586
   22MOL0     H 3036  10.569   5.433   1.829  4.3459 -0.1613  0.1421
   23MOL0     O 3037   5.003   9.416  11.412  0.5238 -0.0665  0.2071
   23MOL0     C 3038   4.945   9.408  11.518 -0.4280  0.5354 -0.2389
   23MOL0     O 3039   5.012   9.389  11.631 -0.5845  0.4295  0.5239
   23MOL0     C 3040   5.143   9.382  11.630 -0.8755  0.0542  0.6254
   23MOL0     C 3041   5.207   9.268  11.676 -0.7722  0.8144  0.2607
   23MOL0     C 3042   5.347   9.254  11.684 -0.1944  0.0169 -0.3644
   23MOL0     C 3043   5.426   9.347  11.624 -1.0101  0.5411 -0.8398
   23MOL0     O 3044   5.563   9.343  11.633 -0.8094 -0.3359  0.1744
   23MOL0     C 3045   5.635   9.225  11.683  0.4319 -0.8227  0.2489
   23MOL0     C 3046   5.787   9.227  11.651 -0.3093 -0.1308  0.0116
   23MOL0     C 3047   5.861   9.108  11.705 -0.2652  0.4140  0.4017
   23MOL0     C 3048   6.009   9.125  11.652  0.0844 -0.1941 -0.2659
   23MOL0     C 3049   6.094   9.004  11.687  0.0540  0.5439 -0.3671
   23MOL0     C 3050   6.126   8.994  11.845 -0.1916  0.7954  0.1195
   23MOL0     C 3051   6.214   8.865  11.873 -0.9905 -0.2240 -0.6470
   23MOL0     C 3052   6.283   8.894  12.013 -0.0701  0.5880  0.4939
   23MOL0     N 3053   6.370   8.777  12.055 -0.8126 -0.0842 -0.9185
   23MOL0     C 3054   6.336   8.644  12.075 -0.1703  0.2273 -0.2009
   23MOL0     C 3055   6.458   8.580  12.106 -0.3475 -1.3813 -0.7919
   23MOL0     C 3056   6.476   8.433  12.136 -0.5756  0.3782  0.0460
   23MOL0     C 3057   6.531   8.362  12.012  0.1884 -0.1703  0.2193
   23MOL0     C 3058   6.515   8.212  12.034  0.0382  0.2556 -0.4908
   23MOL0     C 3059   6.617   8.133  11.945 -0.1322 -0.3680  0.4503
   23MOL0     O 3060   6.615   8.007  12.003 -0.1863  0.4666 -0.4602
   23MOL0     C 3061   6.736   7.929  11.997  0.3364 -0.6248 -0.5083
   23MOL0     C 3062   6.811   7.919  11.882  0.3675 -1.4452  0.2940
   23MOL0     C 3063   6.936   7.853  11.880  0.5881 -0.7508 -0.6683
   23MOL0     C 3064   7.024   7.868  11.759  0.5728  0.2932 -0.3607
   23MOL0     C 3065   6.978   7.777  11.994  0.3471 -0.4749 -0.3926
   23MOL0     C 3066   7.098   7.693  11.993  0.4163  0.9867 -0.3135
   23MOL0     O 3067   7.224   7.748  11.967 -0.1011  0.0265  0.1984
   23MOL0     C 3068   7.343   7.680  11.947 -0.5501  0.2443 -1.0155
   23MOL0     C 3069   7.433   7.744  11.863 -0.1880 -0.0340  0.6578
   23MOL0     C 3070   7.549   7.677  11.833 -0.5075  0.0502  0.3698
   23MOL0     C 3071   7.583   7.550  11.882  0.2306  0.3272 -0.1903
   23MOL0     O 3072   7.709   7.486  11.872 -0.2730  0.7523  0.0651
   23MOL0     C 3073   7.815   7.557  11.797  0.1344  0.4555  0.1785
   23MOL0     C 3074   7.913   7.465  11.744 -0.6069  0.0972  0.5279
   23MOL0     C 3075   8.032   7.536  11.684 -0.0322  0.2538 -0.3333
   23MOL0     C 3076   8.137   7.435  11.623 -0.4788 -0.1124 -0.2005
   23MOL0     C 3077   8.273   7.497  11.587  0.6411 -0.0880 -0.3299
   23MOL0     C 3078   8.389   7.388  11.568  0.7836  0.9210 -0.3274
   23MOL0     C 3079   8.350   7.303  11.443  0.0620  0.0144  0.6657
   23MOL0     C 3080   8.466   7.205  11.419 -0.1328  0.1621 -0.0784
   23MOL0    Cl 3081   8.401   7.071  11.301  0.1751 -0.0246 -0.0561
   23MOL0     C 3082   7.495   7.498  11.973 -0.4265  0.4558  0.7444
   23MOL0     C 3083   7.374   7.549  12.001  1.0590 -0.2655 -0.6387
   23MOL0     O 3084   7.072   7.581  12.035  0.2088 -0.4826  0.1973
   23MOL0     C 3085   6.884   7.782  12.099 -0.2918  0.3539  0.5835
   23MOL0     C 3086   6.769   7.859  12.108  0.1830  0.4299  0.3359
   23MOL0     N 3087   6.552   8.675  12.103  0.2077 -0.3050  0.5932
   23MOL0     N 3088   6.501   8.787  12.068  0.1182 -0.2294 -0.5838
   23MOL0     C 3089   5.365   9.462  11.571 -0.2457  0.5764  0.0973
   23MOL0     C 3090   5.228   9.483  11.577  0.1120  0.3230  0.1728
   23MOL0     C 3091   4.798   9.402  11.527  0.8328 -0.1506  0.0625
   23MOL0     C 3092   4.724   9.459  11.422 -0.3894  0.6800  0.5173
   23MOL0     C 3093   4.585   9.474  11.428 -0.4108 -1.0115  0.0918
   23MOL0     C 3094   4.521   9.415  11.522 -0.4703  0.8401  0.1035
   23MOL0     O 3095   4.381   9.396  11.530  0.3650  0.0053  0.4444
   23MOL0     C 3096   4.300   9.431  11.414 -0.3882  0.5543 -0.2780
   23MOL0     C 3097   4.295   9.581  11.389  0.8754 -0.4676 -0.0248
   23MOL0     C 3098   4.146   9.619  11.385  0.2665  0.9093 -0.0431
   23MOL0     C 3099   4.127   9.760  11.348 -0.7147 -0.1397 -0.1085
   23MOL0     C 3100   3.985   9.798  11.364  0.5067  0.6719 -0.8769
   23MOL0     C 3101   3.872   9.835  11.387  0.0496 -0.2186  0.6737
   23MOL0     C 3102   4.583   9.367  11.632 -0.8842  0.4084 -0.1410
   23MOL0     C 3103   4.720   9.357  11.647 -1.0804  0.4571  0.6161
   23MOL0     C 3104   4.781   9.314  11.784 -0.3810 -0.2753 -0.1450
   23MOL0     H 3105   5.158   9.184  11.724 -0.7580  0.4390 -0.3704
   23MOL0     H 3106   5.394   9.168  11.731  3.5009  2.3971  0.7185
   23MOL0     H 3107   5.589   9.132  11.647  1.2366 -0.6724 -1.2552
   23MOL0     H 3108   5.619   9.226  11.791  0.2160  1.8289  0.2419
   23MOL0     H 3109   5.807   9.249  11.546 -0.2440 -3.8453 -0.8872
   23MOL0     H 3110   5.828   9.316  11.701 -1.3289  0.8696 -0.8669
   23MOL0     H 3111   5.857   9.105  11.814 -0.7009  1.6286  0.4376
   23MOL0     H 3112   5.829   9.007  11.678  1.7121 -0.3834  0.8503
   23MOL0     H 3113   5.999   9.125  11.543  0.9155 -0.2998 -0.3483
   23MOL0     H 3114   6.046   9.219  11.692  0.1226  0.2756 -1.3789
   23MOL0     H 3115   6.198   9.017  11.655  1.2328  0.4260  2.9806
   23MOL0     H 3116   6.051   8.907  11.660  1.3504 -0.4743  1.0043
   23MOL0     H 3117   6.166   9.087  11.886  0.6899  1.6898 -2.5636
   23MOL0     H 3118   6.025   8.982  11.887 -0.5826  4.8615  0.7111
   23MOL0     H 3119   6.292   8.850  11.798 -1.2204  2.4985 -1.5590
   23MOL0     H 3120   6.160   8.770  11.876  0.2294 -0.9536 -1.1162
   23MOL0     H 3121   6.347   8.982  12.003  1.7540 -0.8180 -0.7644
   23MOL0     H 3122   6.219   8.912  12.100  2.7570  2.5271  2.3862
   23MOL0     H 3123   6.239   8.596  12.074 -0.8511  1.4872  1.3852
   23MOL0     H 3124   6.382   8.400  12.181 -0.1618  0.7061  1.2008
   23MOL0     H 3125   6.552   8.442  12.214 -1.3024  0.4773  0.7527
   23MOL0     H 3126   6.475   8.390  11.923 -0.6774 -1.5511  0.3009
   23MOL0     H 3127   6.633   8.385  11.980  0.2045  0.7358  0.8953
   23MOL0     H 3128   6.521   8.188  12.141  0.7465  0.8279 -0.3944
   23MOL0     H 3129   6.412   8.191  12.003  0.5224  0.4910 -2.3399
   23MOL0     H 3130   6.574   8.133  11.844  0.5069 -0.7664  0.1734
   23MOL0     H 3131   6.718   8.173  11.942 -0.5342  0.6991  0.7908
   23MOL0     H 3132   6.782   7.963  11.787 -1.7760 -2.4139  0.4425
   23MOL0     H 3133   6.967   7.909  11.675 -0.8882 -1.7215 -0.4229
   23MOL0     H 3134   7.057   7.766  11.736 -1.5885 -0.7622  0.8875
   23MOL0     H 3135   7.116   7.917  11.792  0.4087 -0.1695  0.8391
   23MOL0     H 3136   7.411   7.841  11.820  2.3038 -0.0429 -0.8163
   23MOL0     H 3137   7.611   7.738  11.767 -2.2272 -0.3652 -1.7710
   23MOL0     H 3138   7.772   7.602  11.708 -0.1477 -1.4125 -0.6698
   23MOL0     H 3139   7.860   7.634  11.861 -1.5036  0.5179  1.3051
   23MOL0     H 3140   7.958   7.403  11.823  0.3820  0.0543 -0.0587
   23MOL0     H 3141   7.874   7.394  11.671  1.9845 -0.0537 -0.8244
   23MOL0     H 3142   8.078   7.590  11.767 -1.9836  0.8685  0.4023
   23MOL0     H 3143   7.993   7.609  11.612  0.2501  0.5905 -0.1487
   23MOL0     H 3144   8.100   7.384  11.533 -0.2295 -1.8495  0.6505
   23MOL0     H 3145   8.146   7.349  11.690  0.0998 -0.5867 -0.8640
   23MOL0     H 3146   8.262   7.558  11.497 -2.5502 -0.3198 -0.2030
   23MOL0     H 3147   8.302   7.570  11.664 -1.5965 -0.3296  0.7992
   23MOL0     H 3148   8.399   7.324  11.656 -2.1785 -0.5576 -0.9427
   23MOL0     H 3149   8.486   7.439  11.563  1.0885  0.5474  1.1807
   23MOL0     H 3150   8.325   7.365  11.357 -2.0234  0.8821  1.8303
   23MOL0     H 3151   8.266   7.239  11.471  0.4865  0.1432  2.3633
   23MOL0     H 3152   8.502   7.158  11.511  1.5220  0.2105 -0.6513
   23MOL0     H 3153   8.549   7.266  11.382  0.2141 -0.0639  0.3199
   23MOL0     H 3154   7.534   7.409  12.021 -3.4853 -1.6865 -0.4310
   23MOL0     H 3155   7.301   7.503  12.067  0.7470 -2.3223 -2.3156
   23MOL0     H 3156   6.903   7.716  12.183 -0.9473  0.6163  0.9495
   23MOL0     H 3157   6.726   7.874  12.206  1.2778 -2.3489  1.3340
   23MOL0     H 3158   5.425   9.545  11.535 -0.8923  0.8256 -0.4236
   23MOL0     H 3159   5.185   9.572  11.532  1.1390 -0.8878 -3.5645
   23MOL0     H 3160   4.774   9.503  11.336 -2.7182 -1.2030 -1.9704
   23MOL0     H 3161   4.544   9.536  11.349  1.0150  1.8532  1.4567
   23MOL0     H 3162   4.337   9.376  11.327 -0.1439  0.6874 -0.2594
   23MOL0     H 3163   4.198   9.395  11.435 -1.3664  3.8136  1.1449
   23MOL0     H 3164   4.349   9.608  11.298  2.0303  1.5794  1.1980
   23MOL0     H 3165   4.355   9.633  11.465  1.1284 -1.0041  0.1447
   23MOL0     H 3166   4.089   9.547  11.325  1.1605 -0.9950  1.2761
   23MOL0     H 3167   4.104   9.619  11.486 -1.7523  1.6647 -0.8156
   23MOL0     H 3168   4.147   9.772  11.241 -2.8380 -0.8041 -0.6210
   23MOL0     H 3169   4.202   9.827  11.393 -1.4503  2.3108 -2.2482
   23MOL0     H 3170   3.778   9.883  11.405  0.7355  3.4314 -3.6438
   23MOL0     H 3171   4.516   9.323  11.705  0.3803 -0.4988  0.4901
   23MOL0     H 3172   4.858   9.236  11.778 -0.4744 -0.4027  0.2882
   23MOL0     H 3173   4.823   9.403  11.832 -1.0679 -0.8120  1.5410
   23MOL0     H 3174   4.707   9.281  11.857  1.5555 -1.0322  1.5590
   24MOL0     O 3175   7.728   1.534   7.465 -0.1203 -0.0408  0.8756
   24MOL0     C 3176   7.819   1.564   7.381  0.7974  0.4317 -0.2164
   24MOL0     O 3177   7.941   1.600   7.414  0.1052 -0.7702 -0.1617
   24MOL0     C 3178   7.989   1.598   7.541  0.6505 -0.1347  0.9628
   24MOL0     C 3179   7.987   1.486   7.621 -0.8834  0.0631 -0.7788
   24MOL0     C 3180   8.076   1.485   7.728 -0.2281  0.0276  0.0191
   24MOL0     C 3181   8.160   1.588   7.763  0.6379 -0.5681  0.5764
   24MOL0     O 3182   8.238   1.580   7.879 -0.4118 -0.2186  0.3654
   24MOL0     C 3183   8.359   1.517   7.864 -0.2533  0.7664  0.7054
   24MOL0     C 3184   8.431   1.516   8.003  0.2881 -0.2472 -0.6040
   24MOL0     C 3185   8.552   1.427   7.985 -0.0279  0.7632 -0.2011
   24MOL0     C 3186   8.621   1.395   8.117  0.3274 -0.4082 -0.8191
   24MOL0     C 3187   8.750   1.308   8.102 -0.5532 -0.3676 -0.6082
   24MOL0     C 3188   8.796   1.279   8.250 -0.8224  0.2250  0.6795
   24MOL0     C 3189   8.933   1.212   8.243 -0.1899  0.7373 -0.0448
   24MOL0     C 3190   8.973   1.177   8.382  0.2126  0.0135  0.2286
   24MOL0     N 3191   8.904   1.059   8.440 -0.2652  0.4006  0.3355
   24MOL0     C 3192   8.931   0.929   8.389 -0.8028 -0.0885 -0.0339
   24MOL0     C 3193   8.849   0.843   8.452  0.2568 -0.5741  0.5405
   24MOL0     C 3194   8.849   0.696   8.442 -0.1368  0.0729  0.0143
   24MOL0     C 3195   8.978   0.641   8.515 -0.2794  0.8619 -0.9436
   24MOL0     C 3196   8.937   0.612   8.665 -0.7072 -0.0479 -0.3704
   24MOL0     C 3197   9.042   0.536   8.739 -0.5690  0.3157  0.5435
   24MOL0     O 3198   9.071   0.406   8.694  0.5768  0.7336  0.4444
   24MOL0     C 3199   9.190   0.356   8.662  0.4876  0.5582 -0.5328
   24MOL0     C 3200   9.297   0.432   8.604  0.6413  0.1790  0.4547
   24MOL0     C 3201   9.412   0.362   8.557  0.1329 -0.3680  0.4336
   24MOL0     C 3202   9.513   0.440   8.473  0.4912  0.6408  0.3691
   24MOL0     C 3203   9.426   0.222   8.585  0.3350 -0.8820 -0.9499
   24MOL0     C 3204   9.549   0.138   8.571  0.2257 -1.1819  0.3368
   24MOL0     O 3205   9.546   0.006   8.588 -0.5823 -0.2609  0.2016
   24MOL0     C 3206   9.668  -0.053   8.601 -0.5499  0.6344  0.1798
   24MOL0     C 3207   9.729  -0.125   8.498 -0.0336 -0.3895  0.8421
   24MOL0     C 3208   9.867  -0.170   8.504  0.7176  0.4650 -0.4270
   24MOL0     C 3209   9.929  -0.173   8.635 -0.1924  0.2437 -1.0260
   24MOL0     O 3210  10.046  -0.240   8.658 -0.0207  0.0196 -0.1843
   24MOL0     C 3211  10.036  -0.346   8.753  0.1199 -0.2480  0.0291
   24MOL0     C 3212  10.008  -0.476   8.694  0.1051 -0.0026  0.3262
   24MOL0     C 3213   9.882  -0.469   8.611 -0.0442 -0.2356  0.5122
   24MOL0     C 3214   9.827  -0.606   8.578  0.1223  0.0760  0.2774
   24MOL0     C 3215   9.699  -0.616   8.504 -0.3507 -0.0259  0.1853
   24MOL0     C 3216   9.692  -0.743   8.414  0.7372  0.1917  0.3970
   24MOL0     C 3217   9.584  -0.743   8.305 -0.2223  0.4402 -0.8125
   24MOL0     C 3218   9.602  -0.679   8.169 -0.2019 -0.7238 -0.3327
   24MOL0    Cl 3219   9.468  -0.738   8.067  0.0387  0.0126  0.0079
   24MOL0     C 3220   9.868  -0.103   8.743  0.0864 -0.3028 -0.0593
   24MOL0     C 3221   9.746  -0.037   8.715  0.5721  0.3024 -0.3737
   24MOL0     O 3222   9.655   0.203   8.556 -0.5393  0.1307 -0.4194
   24MOL0     C 3223   9.318   0.158   8.643 -0.7673 -0.1256  0.0851
   24MOL0     C 3224   9.208   0.218   8.677  0.2364 -1.1664  0.8318
   24MOL0     N 3225   8.778   0.919   8.536  1.3653  0.0044  0.1935
   24MOL0     N 3226   8.798   1.044   8.520 -0.0243  0.0707 -0.3891
   24MOL0     C 3227   8.165   1.694   7.687  0.2960 -0.3898  0.4823
   24MOL0     C 3228   8.082   1.702   7.574 -0.2103  1.3247 -0.1759
   24MOL0     C 3229   7.792   1.557   7.241 -0.0475  0.0638 -0.3309
   24MOL0     C 3230   7.893   1.513   7.154  0.0146  0.3294  0.3139
   24MOL0     C 3231   7.875   1.515   7.017 -0.0761 -1.0041  0.2365
   24MOL0     C 3232   7.752   1.564   6.964  0.1733  0.4110  0.4261
   24MOL0     O 3233   7.721   1.573   6.829  0.2042 -0.0442 -0.2555
   24MOL0     C 3234   7.821   1.597   6.730  0.1334  0.4241 -0.7595
   24MOL0     C 3235   7.762   1.601   6.588 -0.3703  0.1961 -0.0038
   24MOL0     C 3236   7.688   1.736   6.570 -0.4863 -0.4625 -1.1120
   24MOL0     C 3237   7.670   1.791   6.424 -0.1811  0.0156 -0.4942
   24MOL0     C 3238   7.523   1.827   6.407  0.1775 -0.0558 -0.2913
   24MOL0     C 3239   7.400   1.847   6.392  0.0738 -0.6138  0.6936
   24MOL0     C 3240   7.648   1.592   7.058  0.1969 -0.2493 -0.1750
   24MOL0     C 3241   7.668   1.597   7.191  0.7696  0.0111 -0.2204
   24MOL0     C 3242   7.559   1.658   7.272 -0.1888  0.3375  0.6923
   24MOL0     H 3243   7.932   1.395   7.601 -1.6667  0.6402 -1.3012
   24MOL0     H 3244   8.083   1.401   7.797  0.8642  1.4635  1.7684
   24MOL0     H 3245   8.422   1.558   7.784  1.4621 -0.6974  1.2365
   24MOL0     H 3246   8.345   1.415   7.828 -0.0346  1.3164 -1.0617
   24MOL0     H 3247   8.472   1.615   8.027  0.0960 -0.4013  0.4453
   24MOL0     H 3248   8.369   1.476   8.084  1.9635  1.5299  1.7177
   24MOL0     H 3249   8.511   1.336   7.943  2.2181 -1.9139  2.8583
   24MOL0     H 3250   8.634   1.466   7.923 -0.5500 -1.7250 -2.6368
   24MOL0     H 3251   8.650   1.488   8.166 -2.6878  1.1758 -1.7400
   24MOL0     H 3252   8.554   1.351   8.191  3.5054  0.2388  2.7305
   24MOL0     H 3253   8.826   1.367   8.050  0.7530 -0.5454  1.0251
   24MOL0     H 3254   8.735   1.208   8.061  0.4815 -0.4943 -0.6885
   24MOL0     H 3255   8.793   1.379   8.293 -1.9292  1.5262 -2.2229
   24MOL0     H 3256   8.715   1.213   8.283 -0.6200 -0.5538 -0.3492
   24MOL0     H 3257   9.001   1.287   8.201 -1.1103  0.4656 -2.1058
   24MOL0     H 3258   8.943   1.125   8.178  1.8133  1.3137 -0.6040
   24MOL0     H 3259   9.079   1.149   8.381 -0.3969 -2.4792  0.1945
   24MOL0     H 3260   8.953   1.262   8.449 -0.0111 -0.5389  0.8809
   24MOL0     H 3261   9.007   0.908   8.314 -2.1119 -3.3484 -0.5984
   24MOL0     H 3262   8.859   0.674   8.335  0.9585  5.0823 -1.1856
   24MOL0     H 3263   8.759   0.660   8.493  0.9173 -1.6205  0.7466
   24MOL0     H 3264   9.017   0.554   8.462 -3.4467 -2.3882  1.5635
   24MOL0     H 3265   9.061   0.712   8.508  4.5213 -4.0385 -0.4076
   24MOL0     H 3266   8.916   0.704   8.722  0.7340 -1.2604  2.2947
   24MOL0     H 3267   8.846   0.553   8.668  0.5214 -2.0204  2.3625
   24MOL0     H 3268   9.135   0.593   8.748  0.3817 -0.5867 -2.3696
   24MOL0     H 3269   9.001   0.532   8.841  2.8192  2.6329  2.1756
   24MOL0     H 3270   9.275   0.535   8.580  0.1304 -0.3205 -1.4161
   24MOL0     H 3271   9.595   0.485   8.530 -0.6172  2.8385  0.3583
   24MOL0     H 3272   9.465   0.531   8.434  2.2162  1.1399 -0.7320
   24MOL0     H 3273   9.544   0.371   8.395 -0.0872  1.6306 -0.7762
   24MOL0     H 3274   9.681  -0.140   8.401  0.0174  3.3509  0.0955
   24MOL0     H 3275   9.906  -0.230   8.423 -0.7761 -0.7536 -0.2769
   24MOL0     H 3276  10.128  -0.340   8.812 -0.0707  2.2801  0.1629
   24MOL0     H 3277   9.949  -0.316   8.812  0.9968  0.8184  0.8170
   24MOL0     H 3278  10.096  -0.505   8.635 -0.0012 -0.5424  0.4354
   24MOL0     H 3279   9.972  -0.544   8.771 -1.8701  0.7782  0.1461
   24MOL0     H 3280   9.905  -0.422   8.515  0.3767 -0.5787  0.4390
   24MOL0     H 3281   9.804  -0.406   8.654  0.1275  1.5226 -1.5651
   24MOL0     H 3282   9.807  -0.657   8.672  2.3753 -2.9212 -0.6728
   24MOL0     H 3283   9.893  -0.663   8.511  0.2724  2.1992 -1.5120
   24MOL0     H 3284   9.613  -0.607   8.571  0.0264  0.5055  0.6003
   24MOL0     H 3285   9.696  -0.536   8.428 -1.2686 -2.0231 -2.0078
   24MOL0     H 3286   9.665  -0.831   8.474 -0.4264  0.5249  0.3836
   24MOL0     H 3287   9.790  -0.766   8.371  0.2960  0.3821 -0.7437
   24MOL0     H 3288   9.493  -0.708   8.354  0.8071 -1.8054  3.1077
   24MOL0     H 3289   9.566  -0.846   8.273 -2.7733 -0.0108  1.6412
   24MOL0     H 3290   9.702  -0.698   8.130  0.4743  4.5838 -1.9296
   24MOL0     H 3291   9.605  -0.570   8.176 -3.0744 -0.6441  2.4364
   24MOL0     H 3292   9.934  -0.085   8.827 -0.1409  0.8191 -0.1080
   24MOL0     H 3293   9.706   0.018   8.800 -0.5153 -1.2379  0.1503
   24MOL0     H 3294   9.344   0.057   8.672  0.0819 -0.1208 -0.6090
   24MOL0     H 3295   9.125   0.162   8.719  1.2855 -2.9836  0.5967
   24MOL0     H 3296   8.238   1.770   7.708  0.6171 -0.8787  1.1576
   24MOL0     H 3297   8.087   1.790   7.510 -1.6102  1.2391 -0.4445
   24MOL0     H 3298   7.993   1.484   7.185 -0.7602 -1.2473  1.5217
   24MOL0     H 3299   7.953   1.497   6.944 -0.6111 -0.4349 -0.4913
   24MOL0     H 3300   7.873   1.692   6.745  2.0255 -0.7261  0.3132
   24MOL0     H 3301   7.892   1.513   6.736  2.9130  2.6686  0.0681
   24MOL0     H 3302   7.684   1.525   6.586 -0.6202  0.4060  1.2594
   24MOL0     H 3303   7.839   1.588   6.512  0.5329  0.5757  0.8277
   24MOL0     H 3304   7.597   1.734   6.630  0.6412  0.0189  0.6869
   24MOL0     H 3305   7.748   1.815   6.616  0.1762 -1.7320  0.2723
   24MOL0     H 3306   7.706   1.713   6.356  1.4651 -0.0381  0.3811
   24MOL0     H 3307   7.727   1.884   6.414  1.4804 -0.4100  3.1177
   24MOL0     H 3308   7.295   1.865   6.380  0.1163 -0.7326  0.1301
   24MOL0     H 3309   7.555   1.624   7.014 -1.2151 -1.6587  1.6299
   24MOL0     H 3310   7.503   1.577   7.318  1.9191 -0.5567  1.8383
   24MOL0     H 3311   7.611   1.715   7.350  0.4501  1.2636 -0.3728
   24MOL0     H 3312   7.498   1.726   7.211 -1.7591 -1.0646  0.6551
   25MOL0     O 3313   3.530   9.088   1.913 -0.6629 -0.3417 -0.0813
   25MOL0     C 3314   3.454   9.040   1.995  0.3262  0.3027  0.3711
   25MOL0     O 3315   3.440   9.086   2.119  0.7830  0.4359 -0.1301
   25MOL0     C 3316   3.501   9.210   2.157  1.0793 -0.3062 -0.4690
   25MOL0     C 3317   3.420   9.326   2.178 -0.2941  0.0499 -0.1233
   25MOL0     C 3318   3.483   9.444   2.218  0.2208 -0.7454 -0.0697
   25MOL0     C 3319   3.621   9.460   2.228  0.2710 -0.4258 -0.6039
   25MOL0     O 3320   3.669   9.587   2.258 -0.3077 -0.1782 -0.2107
   25MOL0     C 3321   3.797   9.582   2.314 -0.0978  1.0634  1.0757
   25MOL0     C 3322   3.861   9.721   2.326  0.2092  0.0445  0.3517
   25MOL0     C 3323   3.864   9.791   2.185  0.3943  0.3427  0.0096
   25MOL0     C 3324   3.969   9.901   2.164  0.7811 -0.3617  0.3705
   25MOL0     C 3325   4.036   9.887   2.029 -0.3417 -0.8544  0.6463
   25MOL0     C 3326   3.940   9.924   1.922 -0.4112 -0.2447  0.2302
   25MOL0     C 3327   3.997   9.889   1.788  0.2594  0.3509  0.1646
   25MOL0     C 3328   3.947   9.993   1.683 -0.0290  0.2368  0.4531
   25MOL0     N 3329   3.996   9.955   1.544 -0.4650 -0.0499 -0.0525
   25MOL0     C 3330   4.120   9.983   1.489  0.7273 -0.1921 -0.6900
   25MOL0     C 3331   4.107   9.937   1.357 -0.8868  0.2138  0.1266
   25MOL0     C 3332   4.206   9.956   1.247  0.2871 -0.1947  0.3237
   25MOL0     C 3333   4.136  10.052   1.146 -0.5185  0.1530 -0.0607
   25MOL0     C 3334   4.216  10.065   1.010 -0.3795  0.8715 -0.1719
   25MOL0     C 3335   4.140  10.156   0.911  0.4323  0.0488  0.5667
   25MOL0     O 3336   4.155  10.295   0.958 -0.1562  0.4794 -0.0238
   25MOL0     C 3337   4.033  10.366   0.964 -0.7067 -0.0387  0.1595
   25MOL0     C 3338   4.040  10.497   0.941 -0.3183 -0.4105 -0.3503
   25MOL0     C 3339   3.929  10.585   0.950  0.5585 -0.3384  0.9569
   25MOL0     C 3340   3.961  10.730   0.924  0.3904 -0.0486 -0.1060
   25MOL0     C 3341   3.804  10.532   0.981  1.6574  1.1471  0.2355
   25MOL0     C 3342   3.682  10.621   1.012  0.8956  0.4796  0.2782
   25MOL0     O 3343   3.587  10.567   1.093 -0.3493  0.3094 -0.2375
   25MOL0     C 3344   3.490  10.646   1.144 -1.3278 -0.0987 -0.5700
   25MOL0     C 3345   3.520  10.730   1.253  0.0400 -0.1389 -0.3737
   25MOL0     C 3346   3.417  10.806   1.312  0.2213 -0.4606 -0.0771
   25MOL0     C 3347   3.282  10.809   1.272  0.0372 -0.1708 -0.3624
   25MOL0     O 3348   3.184  10.890   1.330 -0.1960  0.2107  0.6374
   25MOL0     C 3349   3.225  10.992   1.423  0.3672 -1.4446  1.0003
   25MOL0     C 3350   3.088  11.031   1.490 -0.3860 -0.6829  0.3593
   25MOL0     C 3351   3.024  10.932   1.588  0.4607 -0.2264  0.1392
   25MOL0     C 3352   2.875  10.940   1.577 -0.0537  0.3619 -0.5480
   25MOL0     C 3353   2.816  10.826   1.656 -0.6436  0.4707  0.4234
   25MOL0     C 3354   2.659  10.825   1.675  0.6013  0.3466  0.2083
   25MOL0     C 3355   2.580  10.867   1.550  0.0938 -0.4530  0.7808
   25MOL0     C 3356   2.432  10.838   1.567 -0.6524  0.0103 -1.1499
   25MOL0    Cl 3357   2.365  10.837   1.400 -0.2207 -0.0118  0.2926
   25MOL0     C 3358   3.254  10.730   1.159 -0.9290  0.0984  0.8697
   25MOL0     C 3359   3.356  10.654   1.093 -0.6081 -0.2092 -0.1968
   25MOL0     O 3360   3.683  10.733   0.967 -0.0142  0.3527  0.5296
   25MOL0     C 3361   3.793  10.394   1.007  0.0064 -0.7586  0.2238
   25MOL0     C 3362   3.905  10.310   1.003 -0.4644 -0.1959 -0.5297
   25MOL0     N 3363   3.982   9.887   1.339  0.9326 -0.5474 -0.2584
   25MOL0     N 3364   3.917   9.893   1.449 -0.3660  0.4658 -0.1933
   25MOL0     C 3365   3.695   9.346   2.193 -0.0980  0.1459  0.1068
   25MOL0     C 3366   3.636   9.223   2.167  0.2672  1.1875  0.1240
   25MOL0     C 3367   3.349   8.933   1.949 -0.2959  0.6283 -0.4201
   25MOL0     C 3368   3.227   8.931   2.018  0.5096  0.0074 -0.1514
   25MOL0     C 3369   3.120   8.839   1.985  0.3577  0.4486  0.5729
   25MOL0     C 3370   3.136   8.745   1.884  0.1352  0.3813 -1.2228
   25MOL0     O 3371   3.027   8.667   1.865 -0.5585  0.5208  0.8943
   25MOL0     C 3372   2.969   8.661   1.735  0.8179  0.4152 -0.6073
   25MOL0     C 3373   2.967   8.513   1.680 -0.3117  0.1596  0.0625
   25MOL0     C 3374   2.886   8.412   1.772 -0.1463 -0.2189  0.4778
   25MOL0     C 3375   2.900   8.275   1.732 -0.2976  0.3658  0.1656
   25MOL0     C 3376   2.816   8.185   1.819  0.4673 -0.1321  0.1771
   25MOL0     C 3377   2.749   8.127   1.901 -0.1257 -0.5302 -0.2444
   25MOL0     C 3378   3.263   8.740   1.822  0.5559 -0.9671  0.4787
   25MOL0     C 3379   3.370   8.828   1.854 -0.1277  0.3059  0.8131
   25MOL0     C 3380   3.501   8.825   1.784 -0.3304  0.3314  0.4589
   25MOL0     H 3381   3.311   9.327   2.181 -0.2841  0.9861  0.4251
   25MOL0     H 3382   3.420   9.531   2.237  1.3602 -0.1325  1.0935
   25MOL0     H 3383   3.861   9.527   2.244 -2.4030  0.4449 -0.6915
   25MOL0     H 3384   3.787   9.534   2.411  1.9833  2.0181  1.8258
   25MOL0     H 3385   3.804   9.780   2.398  2.1051  2.6362 -0.1139
   25MOL0     H 3386   3.962   9.717   2.369 -0.0884 -0.6511  1.0096
   25MOL0     H 3387   3.886   9.708   2.116  1.2015 -0.4920  1.2309
   25MOL0     H 3388   3.762   9.820   2.156  0.9952  1.3522 -1.1936
   25MOL0     H 3389   3.924  10.000   2.174  0.5098 -0.5829  1.5108
   25MOL0     H 3390   4.043   9.894   2.244  2.8974  0.6591 -1.4162
   25MOL0     H 3391   4.071   9.784   2.020 -2.7894 -1.9092  2.2093
   25MOL0     H 3392   4.121   9.955   2.036 -1.0421  0.3453 -1.4431
   25MOL0     H 3393   3.842   9.879   1.939  0.1245 -0.6662  2.4913
   25MOL0     H 3394   3.929  10.033   1.924 -0.0034 -0.1093 -2.1106
   25MOL0     H 3395   3.967   9.786   1.771  1.5259 -0.2427  1.3405
   25MOL0     H 3396   4.106   9.887   1.782  0.2254 -3.4127 -1.4310
   25MOL0     H 3397   3.838  10.000   1.692  0.1330  2.8681  1.0725
   25MOL0     H 3398   3.995  10.091   1.689  0.2627  0.6874 -4.8529
   25MOL0     H 3399   4.201  10.040   1.535 -0.3241  1.9052 -1.2820
   25MOL0     H 3400   4.231   9.868   1.188  1.4386  0.2371  0.1465
   25MOL0     H 3401   4.304   9.993   1.280  0.6921 -1.0000  0.0431
   25MOL0     H 3402   4.039  10.009   1.120  0.6266 -1.7302 -1.4768
   25MOL0     H 3403   4.126  10.152   1.191  1.5310  1.1467 -1.6523
   25MOL0     H 3404   4.313  10.112   1.026 -0.3171  0.0550  2.2494
   25MOL0     H 3405   4.245   9.967   0.972 -0.4908  0.3406  1.0447
   25MOL0     H 3406   4.193  10.140   0.816 -1.3887  0.3063 -0.5308
   25MOL0     H 3407   4.039  10.116   0.903  0.3810  0.0387  1.2331
   25MOL0     H 3408   4.135  10.543   0.917 -1.2399  0.5472 -2.4229
   25MOL0     H 3409   3.953  10.791   1.014  2.0930 -3.0510  2.2740
   25MOL0     H 3410   3.907  10.762   0.835  2.2701  1.9189 -0.6452
   25MOL0     H 3411   4.067  10.737   0.895  0.9474 -0.0422  1.8085
   25MOL0     H 3412   3.620  10.745   1.295 -0.3623  1.9089 -0.0232
   25MOL0     H 3413   3.462  10.863   1.394  2.7849  0.6779 -2.1329
   25MOL0     H 3414   3.298  10.957   1.496  2.2727  0.6642  0.2073
   25MOL0     H 3415   3.259  11.079   1.366 -0.7125 -0.7411  1.4082
   25MOL0     H 3416   3.094  11.127   1.542  2.8092  0.0891 -1.2056
   25MOL0     H 3417   3.019  11.054   1.408 -1.0008 -1.6642  0.5814
   25MOL0     H 3418   3.051  10.950   1.693 -2.3820 -0.8569  1.0676
   25MOL0     H 3419   3.055  10.832   1.557 -2.1041 -0.4880 -1.9613
   25MOL0     H 3420   2.842  10.933   1.473  0.9311 -0.0068 -0.8486
   25MOL0     H 3421   2.846  11.035   1.622  2.5498 -0.4132  3.3702
   25MOL0     H 3422   2.845  10.736   1.602 -0.3503  1.3769 -0.9727
   25MOL0     H 3423   2.858  10.823   1.757 -0.4965 -0.6704  0.3349
   25MOL0     H 3424   2.629  10.900   1.749 -2.7446  2.6512 -3.1024
   25MOL0     H 3425   2.621  10.729   1.710 -0.1199  0.4210 -0.3507
   25MOL0     H 3426   2.607  10.806   1.464 -4.5261 -0.0880 -1.2517
   25MOL0     H 3427   2.597  10.974   1.534 -3.3120  0.0112 -0.7230
   25MOL0     H 3428   2.391  10.913   1.635  0.8375  0.5188 -0.7812
   25MOL0     H 3429   2.434  10.736   1.606  2.1135  0.5334  0.2730
   25MOL0     H 3430   3.155  10.730   1.115 -0.0654  1.5819 -1.2447
   25MOL0     H 3431   3.320  10.588   1.014  1.4825  0.3947 -1.7641
   25MOL0     H 3432   3.697  10.344   1.022 -0.4100 -0.1524 -0.3782
   25MOL0     H 3433   3.886  10.206   1.025 -0.9899 -0.5120 -2.3366
   25MOL0     H 3434   3.803   9.353   2.181 -0.2781  1.3941 -1.0120
   25MOL0     H 3435   3.703   9.145   2.133  0.4049  1.9657 -1.4581
   25MOL0     H 3436   3.204   9.000   2.099  3.3462  2.4805 -1.2727
   25MOL0     H 3437   3.030   8.847   2.047 -0.1028  0.6766 -0.1118
   25MOL0     H 3438   2.865   8.696   1.741  0.6284 -0.2287  0.0106
   25MOL0     H 3439   3.030   8.724   1.669 -2.4590  0.8063 -3.5666
   25MOL0     H 3440   3.068   8.473   1.674 -0.3152  0.0804  0.4944
   25MOL0     H 3441   2.927   8.514   1.578 -3.7251  0.3704  1.2499
   25MOL0     H 3442   2.918   8.416   1.877 -2.1302 -0.0195  1.1039
   25MOL0     H 3443   2.782   8.444   1.768  0.0611  0.3722 -2.3836
   25MOL0     H 3444   3.004   8.241   1.735 -0.1305  0.2859 -2.9752
   25MOL0     H 3445   2.853   8.255   1.635 -0.6552 -1.1711  0.6231
   25MOL0     H 3446   2.682   8.076   1.968  0.9413  0.0054  1.3003
   25MOL0     H 3447   3.274   8.659   1.751 -1.6059 -0.0112 -1.0814
   25MOL0     H 3448   3.492   8.877   1.689  0.3075  1.0409  0.7847
   25MOL0     H 3449   3.578   8.875   1.844  0.2916  0.7149 -0.6412
   25MOL0     H 3450   3.529   8.721   1.761 -0.3542  0.0993  1.4305
   26MOL0     O 3451   8.531   6.682   0.987 -0.0942  0.1008 -0.3927
   26MOL0     C 3452   8.611   6.588   1.016 -1.0771 -0.3843  0.2187
   26MOL0     O 3453   8.580   6.458   1.062 -0.2159 -0.1186 -0.0186
   26MOL0     C 3454   8.450   6.425   1.066 -0.6428 -0.2045 -0.2285
   26MOL0     C 3455   8.352   6.490   1.129  0.2161  1.2020  0.5759
   26MOL0     C 3456   8.221   6.434   1.137 -0.6989  0.9733 -0.2482
   26MOL0     C 3457   8.190   6.332   1.054 -0.1503 -0.0694 -0.2495
   26MOL0     O 3458   8.073   6.276   1.067  0.3666 -0.1665 -0.2269
   26MOL0     C 3459   8.009   6.233   0.941  0.1213 -0.5678 -0.4913
   26MOL0     C 3460   7.854   6.250   0.943 -0.4775 -0.5605  0.1105
   26MOL0     C 3461   7.790   6.189   1.067  0.5736  0.4989  0.4237
   26MOL0     C 3462   7.635   6.184   1.056  0.2906  0.7228 -0.4030
   26MOL0     C 3463   7.571   6.108   1.176 -0.5852  0.3337 -0.8906
   26MOL0     C 3464   7.421   6.104   1.151 -0.0067  0.4281 -0.5493
   26MOL0     C 3465   7.349   6.064   1.278 -0.5851  0.5882 -0.5076
   26MOL0     C 3466   7.231   5.974   1.237  0.3399  1.0766 -0.1381
   26MOL0     N 3467   7.131   6.044   1.152 -0.8531  0.1647  0.8269
   26MOL0     C 3468   7.019   6.104   1.194 -0.0847 -0.9062 -0.4818
   26MOL0     C 3469   6.952   6.147   1.089  0.3996 -0.1600  1.0044
   26MOL0     C 3470   6.816   6.207   1.091  0.6503 -0.1348  0.2394
   26MOL0     C 3471   6.704   6.098   1.096 -0.2310  0.5937  0.0473
   26MOL0     C 3472   6.623   6.078   0.965 -0.1073 -0.0961  0.0082
   26MOL0     C 3473   6.516   6.190   0.946 -0.0509 -0.1313  1.1127
   26MOL0     O 3474   6.451   6.159   0.821  0.5741  0.3643  0.0883
   26MOL0     C 3475   6.347   6.068   0.815 -0.2587 -0.1250 -0.0953
   26MOL0     C 3476   6.287   6.075   0.699 -0.2404  0.0683 -0.0561
   26MOL0     C 3477   6.184   5.988   0.661  0.1386  0.4967 -0.7333
   26MOL0     C 3478   6.123   6.010   0.532  0.0744  0.0838 -0.2248
   26MOL0     C 3479   6.135   5.895   0.756 -0.0457 -0.0525 -0.8496
   26MOL0     C 3480   6.016   5.800   0.740  0.1761 -0.0828  0.0682
   26MOL0     O 3481   6.006   5.716   0.839 -0.1032 -0.5239 -0.2470
   26MOL0     C 3482   5.906   5.624   0.841  0.4542 -0.7881  0.4608
   26MOL0     C 3483   5.773   5.666   0.855  0.5957 -0.1557 -0.0308
   26MOL0     C 3484   5.662   5.572   0.847 -0.5843 -0.8160 -0.4389
   26MOL0     C 3485   5.695   5.434   0.828 -0.3265 -0.0999  0.3837
   26MOL0     O 3486   5.595   5.342   0.828 -0.1168 -0.6853  0.8956
   26MOL0     C 3487   5.544   5.290   0.954 -0.1223 -1.7980 -0.8218
   26MOL0     C 3488   5.401   5.329   0.965  0.6110 -0.6599 -0.9557
   26MOL0     C 3489   5.345   5.285   1.095 -0.0763 -0.2577  0.8619
   26MOL0     C 3490   5.208   5.223   1.071 -0.1643 -0.1186  1.3583
   26MOL0     C 3491   5.127   5.173   1.194  0.4350 -0.8537  0.0643
   26MOL0     C 3492   5.222   5.112   1.298  0.1858  0.2103 -0.3381
   26MOL0     C 3493   5.301   4.984   1.255 -0.7441  0.2338  0.2817
   26MOL0     C 3494   5.411   4.946   1.351 -0.6185  1.0251 -0.2045
   26MOL0    Cl 3495   5.536   5.060   1.395 -0.1051 -0.9969 -0.2265
   26MOL0     C 3496   5.832   5.394   0.813 -0.8155 -0.1180 -0.1859
   26MOL0     C 3497   5.933   5.489   0.827 -0.5448  0.5749 -0.6771
   26MOL0     O 3498   5.946   5.805   0.638  0.0307  0.2009 -0.1749
   26MOL0     C 3499   6.197   5.892   0.885 -0.3128  0.5032  0.0463
   26MOL0     C 3500   6.298   5.984   0.918 -0.4693  0.5578  0.6215
   26MOL0     N 3501   7.035   6.125   0.977  0.6108  0.3698 -0.8595
   26MOL0     N 3502   7.143   6.065   1.012  1.0420 -0.5232 -0.1525
   26MOL0     C 3503   8.293   6.271   0.973 -0.1462  1.3668 -0.1117
   26MOL0     C 3504   8.416   6.320   0.979 -0.8044 -0.3802  0.0927
   26MOL0     C 3505   8.762   6.621   1.017  0.1650  0.1541  0.6191
   26MOL0     C 3506   8.849   6.535   1.084 -0.7806  0.0893 -0.0072
   26MOL0     C 3507   8.985   6.546   1.095  0.1697  0.3682  0.6242
   26MOL0     C 3508   9.049   6.651   1.042 -0.3893  1.4767 -0.1296
   26MOL0     O 3509   9.184   6.655   1.059 -0.1805  0.8533  1.0356
   26MOL0     C 3510   9.264   6.749   0.991 -0.8851  0.9147  0.3322
   26MOL0     C 3511   9.263   6.728   0.846 -0.1122 -0.5225  0.0870
   26MOL0     C 3512   9.359   6.805   0.750 -0.1474 -0.4393 -0.3738
   26MOL0     C 3513   9.299   6.946   0.719  0.0939 -0.1036 -0.5402
   26MOL0     C 3514   9.334   7.046   0.823 -0.4831 -0.1629  0.1885
   26MOL0     C 3515   9.368   7.118   0.916 -0.3745 -0.4850  0.3070
   26MOL0     C 3516   8.971   6.748   0.970 -0.1032 -0.0214 -0.5506
   26MOL0     C 3517   8.829   6.734   0.955 -0.8302 -0.7011 -0.1771
   26MOL0     C 3518   8.759   6.838   0.881 -0.3285  0.0463  0.1318
   26MOL0     H 3519   8.370   6.579   1.187 -0.6004  3.2894 -2.1255
   26MOL0     H 3520   8.145   6.469   1.206  0.4504  3.5381 -0.1276
   26MOL0     H 3521   8.037   6.132   0.910 -0.8328 -0.9255 -0.2370
   26MOL0     H 3522   8.040   6.300   0.860 -0.6939  0.5398  0.0792
   26MOL0     H 3523   7.823   6.354   0.939  2.6568  0.4599 -0.6382
   26MOL0     H 3524   7.826   6.219   0.841 -1.6418  1.6283 -0.2826
   26MOL0     H 3525   7.824   6.086   1.071 -0.7261 -0.0602 -1.4793
   26MOL0     H 3526   7.812   6.250   1.156  0.6440 -4.1918  4.0513
   26MOL0     H 3527   7.586   6.282   1.054 -0.8399  0.1995  0.7184
   26MOL0     H 3528   7.600   6.133   0.966 -1.2761 -0.2436  0.6961
   26MOL0     H 3529   7.595   6.166   1.266  0.5428 -1.5856  0.1073
   26MOL0     H 3530   7.609   6.007   1.193 -0.5616  0.1840 -1.7934
   26MOL0     H 3531   7.383   6.204   1.129  1.6695  1.3752  0.6397
   26MOL0     H 3532   7.407   6.031   1.071 -0.6884  1.9135 -1.8411
   26MOL0     H 3533   7.314   6.151   1.336 -2.9619  1.0247 -2.4488
   26MOL0     H 3534   7.417   6.008   1.342 -0.7737 -0.6765 -1.4017
   26MOL0     H 3535   7.270   5.881   1.193  0.4270  0.1446  1.8027
   26MOL0     H 3536   7.182   5.941   1.329 -0.9607  0.1159 -1.1357
   26MOL0     H 3537   6.976   6.114   1.294 -0.8410 -0.2081 -0.8685
   26MOL0     H 3538   6.806   6.267   1.000 -0.5244 -0.6176  0.0360
   26MOL0     H 3539   6.796   6.277   1.172 -0.3746  0.1957 -0.2865
   26MOL0     H 3540   6.746   6.002   1.126 -1.8903  0.7416  3.2603
   26MOL0     H 3541   6.638   6.126   1.178  0.7517  0.9091  0.7443
   26MOL0     H 3542   6.693   6.078   0.882  0.5992  1.8633  0.5375
   26MOL0     H 3543   6.587   5.975   0.960  3.4900 -1.4346 -3.0029
   26MOL0     H 3544   6.437   6.200   1.022 -0.6470 -0.0746  0.5004
   26MOL0     H 3545   6.571   6.282   0.925  1.1145 -0.9180  0.6727
   26MOL0     H 3546   6.314   6.156   0.633 -2.3528 -0.1741 -1.2917
   26MOL0     H 3547   6.124   5.923   0.464 -5.2011  1.1368 -2.1228
   26MOL0     H 3548   6.172   6.093   0.480 -1.7918  1.3330 -0.0648
   26MOL0     H 3549   6.023   6.050   0.551 -0.1325  0.1533 -1.3653
   26MOL0     H 3550   5.751   5.772   0.866 -1.6387 -0.0045 -4.1096
   26MOL0     H 3551   5.560   5.608   0.849  0.4869  2.5345 -0.9406
   26MOL0     H 3552   5.560   5.182   0.948 -1.4300 -2.0065 -0.7462
   26MOL0     H 3553   5.601   5.320   1.042 -2.0668  0.5663 -0.2689
   26MOL0     H 3554   5.381   5.434   0.944 -0.3235 -1.5737 -5.6227
   26MOL0     H 3555   5.347   5.283   0.882 -0.9190  1.3528 -1.1421
   26MOL0     H 3556   5.318   5.378   1.147  1.5168 -0.1530  1.5671
   26MOL0     H 3557   5.413   5.219   1.150  0.4579  1.4803  2.3880
   26MOL0     H 3558   5.225   5.145   0.997 -3.0712  1.2766 -1.0088
   26MOL0     H 3559   5.148   5.287   1.006  0.6470  0.3581  1.0594
   26MOL0     H 3560   5.064   5.251   1.238 -1.9177 -2.2238 -0.7206
   26MOL0     H 3561   5.059   5.095   1.160  1.1891 -0.8157 -1.6219
   26MOL0     H 3562   5.152   5.077   1.374  1.0578  1.2276  0.9702
   26MOL0     H 3563   5.282   5.192   1.342  0.5942 -2.4978  4.7539
   26MOL0     H 3564   5.340   4.997   1.154 -0.1763 -1.3250  0.2678
   26MOL0     H 3565   5.231   4.901   1.246 -0.5091 -0.1909  1.9759
   26MOL0     H 3566   5.462   4.863   1.301  2.3587  0.4451  3.3113
   26MOL0     H 3567   5.368   4.913   1.446 -0.7566 -2.8279 -1.4072
   26MOL0     H 3568   5.848   5.288   0.798 -1.6942 -0.1179 -1.2165
   26MOL0     H 3569   6.036   5.455   0.826 -0.7090 -0.2850  2.1440
   26MOL0     H 3570   6.174   5.818   0.962 -1.5314 -0.6042 -1.3238
   26MOL0     H 3571   6.333   5.980   1.021 -2.6354 -1.6266  1.3642
   26MOL0     H 3572   8.264   6.177   0.928  2.2291 -0.3507  1.6614
   26MOL0     H 3573   8.488   6.288   0.903  0.2090  0.3658  0.7132
   26MOL0     H 3574   8.801   6.450   1.132  2.3251 -1.6980  0.1502
   26MOL0     H 3575   9.029   6.465   1.152 -0.2929 -0.7547 -0.5593
   26MOL0     H 3576   9.218   6.845   1.016  1.3615  2.1093  0.1458
   26MOL0     H 3577   9.367   6.754   1.027  0.0710  3.2735 -2.2968
   26MOL0     H 3578   9.163   6.720   0.802 -0.9335  0.1113  1.7578
   26MOL0     H 3579   9.315   6.632   0.836  0.7388 -0.0744  0.1698
   26MOL0     H 3580   9.464   6.802   0.779 -0.1602 -0.5635 -0.3383
   26MOL0     H 3581   9.348   6.753   0.654 -1.3642  1.9163 -1.6185
   26MOL0     H 3582   9.194   6.935   0.689  0.5382 -4.0267 -1.2260
   26MOL0     H 3583   9.348   6.985   0.630  0.1575  0.4294 -0.2749
   26MOL0     H 3584   9.400   7.176   1.000  1.3646 -0.5593 -0.2726
   26MOL0     H 3585   9.027   6.832   0.931 -0.7142  0.8409  0.3725
   26MOL0     H 3586   8.690   6.793   0.809 -0.4739 -0.3648  0.5193
   26MOL0     H 3587   8.693   6.905   0.937 -0.9621 -0.3200 -0.1688
   26MOL0     H 3588   8.817   6.904   0.817 -1.0296  1.9255  1.3340
   27MOL0     O 3589   9.226   4.576   9.417 -0.7683 -0.2780  0.5507
   27MOL0     C 3590   9.249   4.636   9.522 -0.0810  0.8005  0.3315
   27MOL0     O 3591   9.369   4.691   9.557 -0.1163  0.1761  0.2092
   27MOL0     C 3592   9.444   4.748   9.455  0.6112  0.2693  0.3343
   27MOL0     C 3593   9.587   4.736   9.466 -0.4593  0.5566 -0.2429
   27MOL0     C 3594   9.668   4.809   9.381  0.7076  0.0735  0.1570
   27MOL0     C 3595   9.617   4.900   9.285 -0.3458  0.3714 -0.6352
   27MOL0     O 3596   9.689   5.002   9.222  0.4240 -0.3485 -1.0249
   27MOL0     C 3597   9.789   4.938   9.131  0.7269 -0.3580 -0.5913
   27MOL0     C 3598   9.853   5.051   9.056  0.1066  0.2456  0.3656
   27MOL0     C 3599   9.955   5.119   9.142  0.2285 -0.7097  0.5626
   27MOL0     C 3600  10.076   5.181   9.062  0.2732 -0.7956 -0.1857
   27MOL0     C 3601  10.149   5.284   9.144 -0.0690 -0.1748  0.0153
   27MOL0     C 3602  10.162   5.420   9.089 -0.5918  0.3658  0.8272
   27MOL0     C 3603  10.237   5.510   9.176 -0.3662 -0.0810  0.6678
   27MOL0     C 3604  10.230   5.659   9.127  0.6959 -0.4855 -0.7893
   27MOL0     N 3605  10.312   5.690   9.007  0.1776  0.5923  0.2482
   27MOL0     C 3606  10.445   5.730   8.993  0.6448  0.3758  0.4205
   27MOL0     C 3607  10.454   5.743   8.854  0.0475  0.4211  0.1611
   27MOL0     C 3608  10.571   5.799   8.780 -0.6189 -0.3228 -0.2895
   27MOL0     C 3609  10.694   5.810   8.876  0.3573  0.2580 -0.2673
   27MOL0     C 3610  10.815   5.854   8.807 -0.3409  0.0083  0.0912
   27MOL0     C 3611  10.806   5.992   8.739  0.0174 -0.2725 -0.5029
   27MOL0     O 3612  10.748   6.083   8.846 -0.2814  0.3570  0.4517
   27MOL0     C 3613  10.719   6.221   8.812 -0.1740  0.9467 -0.3883
   27MOL0     C 3614  10.664   6.296   8.912  0.0021 -0.2021  0.7258
   27MOL0     C 3615  10.631   6.436   8.890 -0.3314  0.0165 -0.5415
   27MOL0     C 3616  10.575   6.518   9.001  0.2248  0.0800 -0.6160
   27MOL0     C 3617  10.664   6.491   8.765  0.4294 -0.4394  1.3076
   27MOL0     C 3618  10.660   6.635   8.728  0.0686  1.3559  0.1092
   27MOL0     O 3619  10.594   6.670   8.618 -0.4851 -0.1787 -0.1661
   27MOL0     C 3620  10.608   6.801   8.584  1.0273  0.1303  0.1223
   27MOL0     C 3621  10.518   6.887   8.642  0.5828  0.2404 -0.2098
   27MOL0     C 3622  10.513   7.017   8.593  0.8253 -0.7076 -0.5760
   27MOL0     C 3623  10.600   7.069   8.502  0.0916 -0.4002 -0.0958
   27MOL0     O 3624  10.592   7.202   8.466 -0.3744 -0.0197 -0.0912
   27MOL0     C 3625  10.714   7.273   8.432 -0.1999 -0.3273  0.4995
   27MOL0     C 3626  10.714   7.285   8.279 -0.3883  0.0862  0.6752
   27MOL0     C 3627  10.851   7.343   8.227 -0.5179 -0.2925 -0.3609
   27MOL0     C 3628  10.858   7.364   8.075  0.5140  0.0002 -0.1942
   27MOL0     C 3629  10.946   7.485   8.042 -0.2189  0.8342 -1.3072
   27MOL0     C 3630  10.988   7.484   7.890 -0.1020  0.0294 -0.1605
   27MOL0     C 3631  11.083   7.584   7.851  0.0284  0.0648  0.0916
   27MOL0     C 3632  11.152   7.541   7.724 -0.5714  0.0687  0.2295
   27MOL0    Cl 3633  11.255   7.677   7.682 -0.6252 -0.4729  0.3360
   27MOL0     C 3634  10.704   6.983   8.452  0.5726  0.4143 -0.7069
   27MOL0     C 3635  10.704   6.850   8.498 -0.3483  0.2108 -0.2735
   27MOL0     O 3636  10.724   6.707   8.802 -0.4692 -0.0886 -0.0157
   27MOL0     C 3637  10.733   6.414   8.665  0.4302  0.2970 -0.0540
   27MOL0     C 3638  10.760   6.279   8.694  0.0600 -0.5035  0.2079
   27MOL0     N 3639  10.345   5.687   8.795 -0.2592  0.2279 -0.3866
   27MOL0     N 3640  10.268   5.648   8.889  0.1678  0.0539  0.1454
   27MOL0     C 3641   9.482   4.882   9.258  0.5647  0.4696  1.4285
   27MOL0     C 3642   9.395   4.825   9.348  0.9542  0.7492  0.3157
   27MOL0     C 3643   9.139   4.640   9.623 -0.1141  0.2690  0.0085
   27MOL0     C 3644   9.173   4.705   9.742  0.4368  0.3658  0.6881
   27MOL0     C 3645   9.082   4.728   9.840  0.5249  0.7795 -0.1306
   27MOL0     C 3646   8.952   4.681   9.827  0.0814  0.1376 -0.2836
   27MOL0     O 3647   8.861   4.705   9.926  0.1527  0.1897  0.1565
   27MOL0     C 3648   8.738   4.628   9.926  0.4266 -0.2436 -1.2169
   27MOL0     C 3649   8.678   4.638  10.064 -0.4891 -0.0593 -0.2468
   27MOL0     C 3650   8.671   4.783  10.108  0.2075 -0.2065 -0.2393
   27MOL0     C 3651   8.584   4.798  10.236 -0.0766  1.1444  0.1630
   27MOL0     C 3652   8.446   4.739  10.219  0.0683  0.1471 -0.5016
   27MOL0     C 3653   8.326   4.716  10.223  0.1907  0.9683  0.3355
   27MOL0     C 3654   8.911   4.634   9.705 -0.5999  0.1260 -0.5222
   27MOL0     C 3655   9.002   4.608   9.595  0.2152 -0.5567 -0.7487
   27MOL0     C 3656   8.945   4.593   9.455  0.1477 -0.0242  0.0467
   27MOL0     H 3657   9.628   4.680   9.549 -0.4151  1.5264  0.4089
   27MOL0     H 3658   9.770   4.811   9.417 -0.3975  0.6812  3.6831
   27MOL0     H 3659   9.743   4.880   9.050  1.2285 -1.3405 -0.1860
   27MOL0     H 3660   9.862   4.876   9.184  0.9182 -0.7139 -1.2650
   27MOL0     H 3661   9.890   5.012   8.960  1.0013  1.2785  0.2709
   27MOL0     H 3662   9.781   5.129   9.029  0.1456  0.9414  2.1827
   27MOL0     H 3663   9.908   5.206   9.190  1.3229 -0.3662  1.0586
   27MOL0     H 3664   9.997   5.058   9.222  0.6201  0.6255  1.4060
   27MOL0     H 3665  10.147   5.103   9.033 -0.3862 -1.0056 -1.3314
   27MOL0     H 3666  10.039   5.228   8.970  1.0391 -1.0422 -0.6302
   27MOL0     H 3667  10.243   5.233   9.170  0.1667  0.1115 -0.2533
   27MOL0     H 3668  10.100   5.292   9.241  1.6936 -1.9596  1.1197
   27MOL0     H 3669  10.220   5.415   8.996  0.6313  0.8101  1.5488
   27MOL0     H 3670  10.065   5.462   9.060  0.0318  1.4564  0.2335
   27MOL0     H 3671  10.341   5.481   9.192 -0.3092  1.1172  2.9151
   27MOL0     H 3672  10.192   5.512   9.276  1.4129  0.1870  1.5064
   27MOL0     H 3673  10.123   5.678   9.110 -0.1240 -1.8176  2.1421
   27MOL0     H 3674  10.265   5.725   9.207 -1.5674  0.1661 -0.2606
   27MOL0     H 3675  10.512   5.761   9.072  2.1645  3.6648 -1.9000
   27MOL0     H 3676  10.537   5.895   8.739  0.8654 -0.4710 -1.9772
   27MOL0     H 3677  10.597   5.735   8.695  1.8047  0.3985 -0.1631
   27MOL0     H 3678  10.667   5.871   8.963 -0.9678  1.9801 -1.8020
   27MOL0     H 3679  10.718   5.713   8.921 -1.1354 -0.1409 -0.3007
   27MOL0     H 3680  10.896   5.861   8.881  1.1249 -1.4686 -1.2998
   27MOL0     H 3681  10.844   5.778   8.735 -3.2564 -1.7517  0.6134
   27MOL0     H 3682  10.911   6.020   8.733  0.5826 -2.2709 -0.6974
   27MOL0     H 3683  10.746   5.991   8.647  2.3279  1.8214 -2.1364
   27MOL0     H 3684  10.630   6.255   9.006 -1.3667 -1.1817 -0.1504
   27MOL0     H 3685  10.553   6.619   8.968  2.3273  1.9470  3.0197
   27MOL0     H 3686  10.635   6.542   9.090  1.6820 -2.2407 -0.8660
   27MOL0     H 3687  10.484   6.461   9.024  0.8520 -1.4333 -1.7244
   27MOL0     H 3688  10.440   6.854   8.709  0.0393  0.6384 -0.6303
   27MOL0     H 3689  10.442   7.085   8.639  0.2688 -1.4868 -0.2631
   27MOL0     H 3690  10.706   7.364   8.492 -0.1919 -0.7190  1.0959
   27MOL0     H 3691  10.803   7.213   8.451  0.3137  0.7615  1.7147
   27MOL0     H 3692  10.694   7.188   8.232 -2.6539  0.6553  0.3805
   27MOL0     H 3693  10.633   7.358   8.271 -1.4472 -1.1524 -0.4268
   27MOL0     H 3694  10.935   7.283   8.261  0.0196  0.1586 -0.8816
   27MOL0     H 3695  10.848   7.443   8.271  0.0267 -0.5392  0.2423
   27MOL0     H 3696  10.759   7.368   8.029  0.7699 -4.2156 -1.5125
   27MOL0     H 3697  10.903   7.274   8.032  3.5644  1.3139 -0.0399
   27MOL0     H 3698  10.880   7.567   8.071  1.3287  1.3517  1.0380
   27MOL0     H 3699  11.038   7.483   8.101 -0.8420 -0.0649 -0.3529
   27MOL0     H 3700  10.900   7.501   7.827 -0.0698 -2.0573 -0.8546
   27MOL0     H 3701  11.038   7.388   7.869  3.0810  1.5812 -0.2766
   27MOL0     H 3702  11.148   7.595   7.938 -0.4912  1.3817  0.3392
   27MOL0     H 3703  11.034   7.679   7.828 -2.7177 -1.4889 -0.9315
   27MOL0     H 3704  11.083   7.518   7.642 -0.6385  0.3034  0.2210
   27MOL0     H 3705  11.217   7.453   7.733 -3.5880 -2.6240 -2.1036
   27MOL0     H 3706  10.789   7.013   8.393  0.8467 -0.1314 -0.5932
   27MOL0     H 3707  10.778   6.779   8.464  0.2254  1.0643 -0.8236
   27MOL0     H 3708  10.772   6.454   8.572  1.3904  1.6711  0.9025
   27MOL0     H 3709  10.806   6.215   8.619 -0.3922 -0.7970  0.1726
   27MOL0     H 3710   9.443   4.953   9.186 -0.0769  2.1606  3.3436
   27MOL0     H 3711   9.287   4.829   9.331  1.1644  0.0986 -1.4361
   27MOL0     H 3712   9.272   4.747   9.758 -0.5747  3.5594 -0.4703
   27MOL0     H 3713   9.110   4.772   9.935 -0.3693 -4.3611  2.9043
   27MOL0     H 3714   8.668   4.656   9.847  1.0520  1.0904 -1.3118
   27MOL0     H 3715   8.761   4.523   9.906 -1.4452 -1.0741  0.6016
   27MOL0     H 3716   8.753   4.585  10.124  0.0225 -0.6493 -1.3791
   27MOL0     H 3717   8.584   4.583  10.068  0.3176 -1.6972 -2.3321
   27MOL0     H 3718   8.770   4.822  10.134  0.2499  0.6985 -1.6590
   27MOL0     H 3719   8.623   4.836  10.026  0.0129  1.6778  1.0338
   27MOL0     H 3720   8.572   4.905  10.258 -0.2323  1.6208 -1.9997
   27MOL0     H 3721   8.646   4.756  10.315 -0.2882  1.5697  0.5638
   27MOL0     H 3722   8.219   4.710  10.219 -0.0432  3.9690 -1.7220
   27MOL0     H 3723   8.811   4.602   9.679 -0.4330  0.2931 -1.4313
   27MOL0     H 3724   8.958   4.490   9.420  1.7006  0.7583 -1.9153
   27MOL0     H 3725   8.838   4.617   9.448  0.4357  1.0991 -0.9666
   27MOL0     H 3726   8.988   4.672   9.392 -0.4927  1.5263  1.4671
   28MOL0     O 3727   8.266   4.895   1.898 -0.2269  0.6474  0.3829
   28MOL0     C 3728   8.251   4.988   1.818 -0.6275  0.5440  0.4715
   28MOL0     O 3729   8.351   5.084   1.792 -0.2778  0.0494 -0.3504
   28MOL0     C 3730   8.479   5.064   1.857  0.3186  0.0034 -0.3277
   28MOL0     C 3731   8.558   4.955   1.823  0.7528  0.1689  0.1697
   28MOL0     C 3732   8.672   4.923   1.892  0.5624 -0.3190 -0.1105
   28MOL0     C 3733   8.729   5.024   1.969  0.7253  0.2447  0.3293
   28MOL0     O 3734   8.851   4.995   2.029  0.4220 -0.4127  0.2252
   28MOL0     C 3735   8.956   5.100   2.014  0.4297  0.3594 -0.1040
   28MOL0     C 3736   8.989   5.127   1.874 -0.4256  0.1657 -0.7565
   28MOL0     C 3737   9.112   5.220   1.853  0.5904  0.1372 -0.2590
   28MOL0     C 3738   9.100   5.364   1.916  1.3404  0.1740 -0.6847
   28MOL0     C 3739   9.118   5.483   1.823  0.6061 -0.6687  0.1128
   28MOL0     C 3740   8.995   5.511   1.734 -0.3650  0.3344 -0.0351
   28MOL0     C 3741   8.858   5.536   1.793 -0.7065 -0.6599 -0.6974
   28MOL0     C 3742   8.853   5.661   1.877 -0.8238  0.7016  0.6359
   28MOL0     N 3743   8.716   5.706   1.896  0.3636 -0.0668 -0.8843
   28MOL0     C 3744   8.653   5.821   1.853  0.9070 -0.9328 -0.0256
   28MOL0     C 3745   8.521   5.813   1.890 -0.1080 -0.6925 -0.1225
   28MOL0     C 3746   8.421   5.918   1.866 -0.2826  0.3391  0.4899
   28MOL0     C 3747   8.281   5.872   1.917  0.4865 -0.1723  0.5801
   28MOL0     C 3748   8.176   5.977   1.879 -0.2757 -0.4653 -0.1118
   28MOL0     C 3749   8.030   5.934   1.900  0.3693  0.2832  0.7349
   28MOL0     O 3750   7.985   5.819   1.819  0.4636 -0.3967 -0.1209
   28MOL0     C 3751   7.846   5.799   1.806  0.2533 -0.4266 -0.0514
   28MOL0     C 3752   7.757   5.843   1.905 -0.3617 -0.1976  0.0008
   28MOL0     C 3753   7.618   5.809   1.911  0.5010  0.5550  0.3646
   28MOL0     C 3754   7.538   5.841   2.040  0.1964 -0.8813  0.1028
   28MOL0     C 3755   7.571   5.721   1.810  0.0149 -0.3374  0.4626
   28MOL0     C 3756   7.429   5.671   1.801  0.4724  0.2763  0.0708
   28MOL0     O 3757   7.408   5.550   1.735 -0.1962 -0.7035  0.0520
   28MOL0     C 3758   7.275   5.504   1.741  0.2235  0.9043 -0.0783
   28MOL0     C 3759   7.242   5.383   1.804  0.3861 -0.3951 -0.5773
   28MOL0     C 3760   7.109   5.329   1.792 -1.4199 -0.8069 -0.7551
   28MOL0     C 3761   7.000   5.402   1.732 -0.7525  0.5979  0.2657
   28MOL0     O 3762   6.874   5.347   1.726 -0.3865 -0.1952 -0.4903
   28MOL0     C 3763   6.760   5.439   1.739  0.5038  0.3392 -1.0569
   28MOL0     C 3764   6.647   5.357   1.798 -0.9459  0.3580 -0.2521
   28MOL0     C 3765   6.617   5.235   1.715 -0.1306  0.0746  0.4178
   28MOL0     C 3766   6.476   5.182   1.751 -0.2136 -0.7351 -0.3783
   28MOL0     C 3767   6.426   5.053   1.685  0.0420  0.4272 -0.3091
   28MOL0     C 3768   6.477   4.936   1.754 -0.8125  0.0707  0.2557
   28MOL0     C 3769   6.443   4.801   1.680 -0.2430 -0.7337  0.9334
   28MOL0     C 3770   6.488   4.671   1.753 -0.5070  0.1220  0.0088
   28MOL0    Cl 3771   6.446   4.526   1.670  0.5367  0.6272  0.1685
   28MOL0     C 3772   7.030   5.523   1.687 -0.3936 -0.6472 -0.0738
   28MOL0     C 3773   7.161   5.569   1.680  0.7820  0.1310 -0.2339
   28MOL0     O 3774   7.339   5.724   1.866  0.0975 -0.0577 -0.1823
   28MOL0     C 3775   7.661   5.681   1.715 -0.2674  0.0498  0.2546
   28MOL0     C 3776   7.801   5.713   1.709 -0.1984  0.0268  0.4486
   28MOL0     N 3777   8.512   5.695   1.962 -0.1734  0.3135  0.6588
   28MOL0     N 3778   8.623   5.628   1.961 -0.6758  0.0006  0.2553
   28MOL0     C 3779   8.666   5.149   1.990  0.2989 -0.7483  0.1561
   28MOL0     C 3780   8.534   5.168   1.938  0.8751  0.1407  0.5893
   28MOL0     C 3781   8.135   4.984   1.721  0.0100 -1.0385  0.3713
   28MOL0     C 3782   8.153   4.929   1.591  0.2934  0.0550  0.4093
   28MOL0     C 3783   8.053   4.933   1.495 -0.3342  0.3463 -0.2670
   28MOL0     C 3784   7.937   4.996   1.524  0.0058  0.8062 -0.2224
   28MOL0     O 3785   7.837   5.001   1.423 -0.6386  0.0432  0.0367
   28MOL0     C 3786   7.889   5.056   1.303  0.5160 -0.2518  0.1492
   28MOL0     C 3787   7.869   5.207   1.288  0.7295 -0.0836 -0.4049
   28MOL0     C 3788   7.934   5.287   1.399  0.4338 -0.0986  0.5639
   28MOL0     C 3789   7.930   5.437   1.374  0.0456  0.2012  0.4337
   28MOL0     C 3790   8.015   5.485   1.266  0.2641 -0.6561  0.5495
   28MOL0     C 3791   8.093   5.519   1.175 -0.0058 -0.2923  0.2844
   28MOL0     C 3792   7.915   5.052   1.651 -0.3061  0.4673  0.5867
   28MOL0     C 3793   8.014   5.037   1.748 -0.0548 -0.8027  0.3783
   28MOL0     C 3794   7.977   5.081   1.886 -0.0422 -0.2633 -0.1490
   28MOL0     H 3795   8.521   4.868   1.770  0.5046  0.5677 -0.3143
   28MOL0     H 3796   8.712   4.824   1.876 -0.5939 -0.5885 -1.5812
   28MOL0     H 3797   9.041   5.044   2.054 -2.5629 -3.7898  1.1798
   28MOL0     H 3798   8.934   5.194   2.066 -0.9048 -0.1140  0.2452
   28MOL0     H 3799   9.014   5.029   1.831  1.0688 -0.6114  1.7235
   28MOL0     H 3800   8.906   5.180   1.826  0.1698  2.6091  0.7308
   28MOL0     H 3801   9.199   5.175   1.900  1.6308  1.1245 -1.1936
   28MOL0     H 3802   9.146   5.233   1.750  1.3497  1.4375  0.1422
   28MOL0     H 3803   9.008   5.382   1.972  1.3883 -2.5096  0.4143
   28MOL0     H 3804   9.176   5.368   1.994  1.0349 -3.0140 -0.1226
   28MOL0     H 3805   9.200   5.469   1.752  1.6722  0.2578  1.1167
   28MOL0     H 3806   9.143   5.576   1.875  0.6656  1.3329 -3.1645
   28MOL0     H 3807   9.018   5.594   1.666 -1.4166 -0.2517 -1.1305
   28MOL0     H 3808   8.988   5.422   1.671  1.9820 -0.9587  1.3711
   28MOL0     H 3809   8.818   5.453   1.851 -2.3618  1.0187  0.6926
   28MOL0     H 3810   8.792   5.557   1.707 -2.7781  0.3885  1.0495
   28MOL0     H 3811   8.897   5.636   1.974 -0.3529 -1.8853 -0.1662
   28MOL0     H 3812   8.912   5.740   1.831 -1.0556  0.8770  0.6360
   28MOL0     H 3813   8.691   5.907   1.799 -0.4231  0.9615  1.8810
   28MOL0     H 3814   8.428   5.942   1.759  2.0193 -0.6598  0.3464
   28MOL0     H 3815   8.454   6.009   1.917 -1.9894  1.9304 -1.0709
   28MOL0     H 3816   8.251   5.778   1.869 -1.5104  0.7407 -0.0758
   28MOL0     H 3817   8.292   5.857   2.025  1.2936 -0.7422  0.4256
   28MOL0     H 3818   8.195   6.066   1.939  2.3111 -0.9333 -0.1025
   28MOL0     H 3819   8.201   6.019   1.781  1.3437 -1.6897 -0.2601
   28MOL0     H 3820   8.015   5.939   2.008 -0.7688 -0.9995  0.6622
   28MOL0     H 3821   7.970   6.019   1.868 -1.2346 -0.6011  1.2794
   28MOL0     H 3822   7.789   5.900   1.992 -1.0790  0.8453 -0.3991
   28MOL0     H 3823   7.451   5.903   2.017  0.2606 -1.4088 -1.6942
   28MOL0     H 3824   7.597   5.890   2.118 -2.3230  1.4321  0.6867
   28MOL0     H 3825   7.483   5.759   2.088  0.2561 -1.7161 -1.1875
   28MOL0     H 3826   7.318   5.338   1.868 -0.8335 -0.4557  0.9113
   28MOL0     H 3827   7.094   5.224   1.816  1.7297 -1.6613 -1.9312
   28MOL0     H 3828   6.773   5.517   1.814 -0.4918 -4.4825  4.8242
   28MOL0     H 3829   6.728   5.477   1.641 -1.1604 -0.9105 -1.0493
   28MOL0     H 3830   6.677   5.332   1.900  1.6745  1.2735 -0.7228
   28MOL0     H 3831   6.559   5.418   1.820 -1.4632  0.3111 -2.0456
   28MOL0     H 3832   6.694   5.158   1.722 -0.0003  0.1302 -0.3292
   28MOL0     H 3833   6.616   5.265   1.610  0.7324 -1.6975 -0.1329
   28MOL0     H 3834   6.405   5.261   1.725  0.3485  0.8817  2.5416
   28MOL0     H 3835   6.463   5.154   1.856 -1.3756  0.3874 -0.1928
   28MOL0     H 3836   6.317   5.050   1.683 -0.0095  1.5941  0.1693
   28MOL0     H 3837   6.462   5.053   1.581 -2.1903 -1.2805 -1.1512
   28MOL0     H 3838   6.454   4.924   1.861 -2.4509 -0.0520 -0.0901
   28MOL0     H 3839   6.587   4.937   1.753 -0.7961 -0.6609  0.6472
   28MOL0     H 3840   6.494   4.802   1.583 -0.7638 -0.9679  0.6576
   28MOL0     H 3841   6.335   4.790   1.666 -0.1121 -2.1102  0.8083
   28MOL0     H 3842   6.429   4.666   1.845 -0.1160  1.0470  0.3292
   28MOL0     H 3843   6.590   4.674   1.794 -1.0948 -0.4965  1.5906
   28MOL0     H 3844   6.946   5.588   1.664 -0.7251 -0.5656  1.2518
   28MOL0     H 3845   7.182   5.659   1.624 -0.2710  0.4255 -0.1939
   28MOL0     H 3846   7.620   5.609   1.645 -2.7557 -0.2225  1.8668
   28MOL0     H 3847   7.873   5.669   1.641  0.7773  0.0251  1.4618
   28MOL0     H 3848   8.715   5.230   2.043 -1.3822  0.0542  0.5311
   28MOL0     H 3849   8.475   5.257   1.954  1.2677  0.3529  0.8595
   28MOL0     H 3850   8.246   4.886   1.556  0.2184 -0.7566  1.1634
   28MOL0     H 3851   8.073   4.890   1.397 -0.4320  3.1846 -1.6489
   28MOL0     H 3852   7.997   5.045   1.290  1.0616  3.9378 -0.2519
   28MOL0     H 3853   7.838   5.018   1.213  1.1496  1.6882 -1.1048
   28MOL0     H 3854   7.763   5.232   1.281  0.5866 -0.7801 -0.7812
   28MOL0     H 3855   7.919   5.230   1.193  1.3620 -2.0744 -0.5999
   28MOL0     H 3856   7.871   5.262   1.485  2.0037 -2.4772  1.1323
   28MOL0     H 3857   8.035   5.248   1.416  0.6707  0.7041  0.9991
   28MOL0     H 3858   7.982   5.480   1.460 -1.0626  0.3278  1.0741
   28MOL0     H 3859   7.830   5.480   1.360  0.9310  1.7406 -1.6662
   28MOL0     H 3860   8.161   5.540   1.096 -0.3541  3.0831  0.7585
   28MOL0     H 3861   7.825   5.111   1.663  0.2893  1.6853 -0.6623
   28MOL0     H 3862   7.894   5.153   1.883 -0.7592 -0.8958  2.4077
   28MOL0     H 3863   7.950   4.991   1.942  2.4077  0.5224  2.5517
   28MOL0     H 3864   8.063   5.124   1.937  1.0783 -3.2596  0.7042
   29MOL0     O 3865   8.587   1.624   3.495  0.5128  0.3022 -0.4094
   29MOL0     C 3866   8.614   1.541   3.407  0.0910 -0.0992 -0.0173
   29MOL0     O 3867   8.736   1.544   3.335  0.3748  0.1828  0.9148
   29MOL0     C 3868   8.827   1.649   3.337 -0.0826 -0.2439  0.3452
   29MOL0     C 3869   8.781   1.776   3.340 -0.4642 -1.3799 -0.2507
   29MOL0     C 3870   8.861   1.882   3.378  0.1100  0.8403  0.1576
   29MOL0     C 3871   8.998   1.857   3.390  0.6189 -0.2295  0.9583
   29MOL0     O 3872   9.081   1.967   3.410 -0.3785  0.8374 -0.8338
   29MOL0     C 3873   9.230   1.951   3.423 -0.3704 -0.8098  0.2092
   29MOL0     C 3874   9.297   2.087   3.445 -0.4667 -0.7678  0.0470
   29MOL0     C 3875   9.446   2.105   3.478  0.0769 -0.3789 -0.0595
   29MOL0     C 3876   9.517   1.988   3.540 -1.1006 -1.2734  0.6779
   29MOL0     C 3877   9.668   2.024   3.572 -0.0935  0.9007  0.2252
   29MOL0     C 3878   9.752   1.931   3.653 -0.1123 -0.4323  0.0486
   29MOL0     C 3879   9.893   1.995   3.669  0.6467 -0.2162 -0.2655
   29MOL0     C 3880   9.981   1.896   3.748 -0.6469 -0.2125  0.3050
   29MOL0     N 3881  10.120   1.945   3.757 -0.6129 -0.5437 -0.2304
   29MOL0     C 3882  10.222   1.901   3.673  0.8360  0.2292  0.2762
   29MOL0     C 3883  10.330   1.987   3.702 -0.3333  0.2095  0.9995
   29MOL0     C 3884  10.466   2.011   3.626 -0.5025  0.6162 -0.7849
   29MOL0     C 3885  10.450   1.947   3.484  0.1563  0.5099  0.0903
   29MOL0     C 3886  10.557   2.005   3.387  0.8074  0.4035 -0.1042
   29MOL0     C 3887  10.694   1.971   3.444 -0.4591 -0.0400 -0.4269
   29MOL0     O 3888  10.780   2.016   3.343  0.2294  0.3227 -0.9707
   29MOL0     C 3889  10.901   1.947   3.343  0.5543  0.2579 -0.5813
   29MOL0     C 3890  10.939   1.866   3.240 -0.5457  0.2165  0.5065
   29MOL0     C 3891  11.063   1.805   3.247 -0.3541 -0.1431  0.4454
   29MOL0     C 3892  11.106   1.734   3.121 -0.4746 -0.4727 -0.4172
   29MOL0     C 3893  11.146   1.823   3.355  0.2009 -0.2805  0.1013
   29MOL0     C 3894  11.289   1.783   3.360  0.7041  0.4303  0.7729
   29MOL0     O 3895  11.348   1.774   3.240 -0.2520 -0.1563  0.0095
   29MOL0     C 3896  11.481   1.739   3.231 -0.0071 -0.2443  0.1898
   29MOL0     C 3897  11.593   1.774   3.310  0.7753  0.2335  0.1954
   29MOL0     C 3898  11.720   1.720   3.285 -0.7332  0.1154  0.5078
   29MOL0     C 3899  11.746   1.638   3.169  0.0013 -0.2715 -0.6723
   29MOL0     O 3900  11.876   1.580   3.145 -0.0270  0.4018  0.0538
   29MOL0     C 3901  11.999   1.625   3.213 -0.0286  0.3318  0.3599
   29MOL0     C 3902  12.118   1.549   3.155 -0.4113  0.5516 -0.8561
   29MOL0     C 3903  12.245   1.597   3.234  0.0970  0.8185 -0.0488
   29MOL0     C 3904  12.260   1.520   3.366  0.4472  0.4623  0.2981
   29MOL0     C 3905  12.391   1.560   3.436  0.3167 -0.1478 -0.1482
   29MOL0     C 3906  12.510   1.517   3.354  0.0948  0.4460 -0.1105
   29MOL0     C 3907  12.641   1.554   3.416 -0.4167  0.2364  0.2038
   29MOL0     C 3908  12.759   1.463   3.351 -0.5205 -0.3985  0.6531
   29MOL0    Cl 3909  12.779   1.500   3.175 -0.3023  0.1486  0.2841
   29MOL0     C 3910  11.633   1.611   3.082 -0.5364  0.5329  0.4682
   29MOL0     C 3911  11.510   1.674   3.114  0.4187 -0.0811 -1.0473
   29MOL0     O 3912  11.342   1.793   3.464  0.1596 -0.6866 -0.5917
   29MOL0     C 3913  11.106   1.904   3.454 -0.2720  0.8956 -0.1676
   29MOL0     C 3914  10.982   1.960   3.453 -0.5933  0.1118 -0.2725
   29MOL0     N 3915  10.292   2.067   3.808  0.0292 -0.1110 -0.4536
   29MOL0     N 3916  10.166   2.038   3.847  0.1839  0.3436  0.1098
   29MOL0     C 3917   9.051   1.735   3.364 -0.3831 -0.4279  0.2155
   29MOL0     C 3918   8.962   1.632   3.337 -0.0005  0.4494  0.3580
   29MOL0     C 3919   8.514   1.435   3.380 -0.6347 -0.9710 -0.5415
   29MOL0     C 3920   8.561   1.336   3.283 -0.0101 -0.1442 -0.1554
   29MOL0     C 3921   8.473   1.245   3.224 -0.0856  0.3703 -0.6747
   29MOL0     C 3922   8.333   1.256   3.261 -1.1371  0.6325  0.5702
   29MOL0     O 3923   8.233   1.183   3.207 -0.1585  0.6059 -0.2701
   29MOL0     C 3924   8.269   1.110   3.089  0.3254  1.0134 -0.8661
   29MOL0     C 3925   8.150   1.047   3.023 -0.8416  0.2751 -0.3953
   29MOL0     C 3926   8.025   1.141   3.005 -0.9711 -0.0919 -0.3390
   29MOL0     C 3927   7.912   1.066   2.936 -0.4831 -0.7328  0.0355
   29MOL0     C 3928   7.776   1.126   2.952  0.0447 -0.5368 -0.3199
   29MOL0     C 3929   7.663   1.178   2.953  0.3293 -0.3793 -0.1249
   29MOL0     C 3930   8.298   1.337   3.360  0.3357 -0.4238  0.6298
   29MOL0     C 3931   8.380   1.433   3.419 -0.2440 -1.0544 -0.6896
   29MOL0     C 3932   8.324   1.536   3.516 -0.1553  0.7363  0.9956
   29MOL0     H 3933   8.677   1.807   3.351  0.1406  0.7440  0.0209
   29MOL0     H 3934   8.823   1.982   3.401  3.1099  2.0169  0.4273
   29MOL0     H 3935   9.280   1.907   3.336  0.6815  1.0120 -0.1587
   29MOL0     H 3936   9.254   1.897   3.514 -1.2618  1.5064  1.9128
   29MOL0     H 3937   9.283   2.128   3.345  4.4420  1.5545  0.0605
   29MOL0     H 3938   9.236   2.140   3.519  2.2905  2.7904  0.0351
   29MOL0     H 3939   9.495   2.115   3.381  3.0392 -0.7422  1.2834
   29MOL0     H 3940   9.457   2.199   3.533  0.5394 -0.7370  0.4766
   29MOL0     H 3941   9.461   1.952   3.627 -0.6135  1.9844  2.4791
   29MOL0     H 3942   9.521   1.905   3.469  0.2064  2.5374 -4.2667
   29MOL0     H 3943   9.661   2.121   3.622  0.8515  0.0468  2.1397
   29MOL0     H 3944   9.720   2.028   3.477  1.0673 -5.6915  0.0965
   29MOL0     H 3945   9.709   1.912   3.751 -0.0674  0.1324  0.1840
   29MOL0     H 3946   9.751   1.835   3.601 -0.9226 -0.8247  0.7750
   29MOL0     H 3947   9.884   2.086   3.729 -2.0474  0.1842 -1.1312
   29MOL0     H 3948   9.939   2.011   3.571  1.3347 -0.5158  0.0054
   29MOL0     H 3949   9.937   1.883   3.848  0.6517 -2.8145  0.6232
   29MOL0     H 3950   9.980   1.796   3.704 -2.0604 -1.1444  2.2657
   29MOL0     H 3951  10.206   1.826   3.597 -0.2975  0.4848  0.2462
   29MOL0     H 3952  10.548   1.958   3.676  0.7612  0.0183 -3.3500
   29MOL0     H 3953  10.485   2.118   3.622 -1.8978  0.8653 -1.3609
   29MOL0     H 3954  10.446   1.838   3.483 -1.4715  0.5454 -0.0091
   29MOL0     H 3955  10.350   1.978   3.451 -0.2421  0.2997  1.0829
   29MOL0     H 3956  10.542   1.948   3.295 -0.4567  2.4609 -1.2448
   29MOL0     H 3957  10.546   2.112   3.370 -1.2001  0.1388 -0.7712
   29MOL0     H 3958  10.708   2.027   3.537 -0.8741  0.3646 -0.6013
   29MOL0     H 3959  10.698   1.863   3.461 -0.1353 -0.6482 -3.7662
   29MOL0     H 3960  10.886   1.875   3.145  1.3344 -1.4237 -0.7637
   29MOL0     H 3961  11.028   1.713   3.047  1.0270  0.1729 -2.2563
   29MOL0     H 3962  11.165   1.646   3.147  2.3005  0.9008 -1.6311
   29MOL0     H 3963  11.175   1.803   3.071 -2.0413  0.7109 -1.0676
   29MOL0     H 3964  11.579   1.835   3.399  1.5449 -0.8322  1.0768
   29MOL0     H 3965  11.801   1.748   3.351 -0.6583  1.0180  0.0498
   29MOL0     H 3966  12.021   1.732   3.206 -0.6876  0.4652  0.2917
   29MOL0     H 3967  11.995   1.594   3.318 -0.5126  1.2393  0.6238
   29MOL0     H 3968  12.101   1.441   3.162  0.9190  0.4234  2.6367
   29MOL0     H 3969  12.124   1.577   3.049  0.4860  1.6358 -0.5325
   29MOL0     H 3970  12.246   1.706   3.241 -0.4010  1.1438 -3.3763
   29MOL0     H 3971  12.329   1.570   3.169 -0.3855  0.0736 -0.3744
   29MOL0     H 3972  12.263   1.411   3.355 -3.3867  0.0320  1.9388
   29MOL0     H 3973  12.183   1.547   3.439 -1.7484  1.7800 -2.3231
   29MOL0     H 3974  12.384   1.667   3.458  1.6491 -0.2697  1.0256
   29MOL0     H 3975  12.404   1.503   3.528 -0.1004 -1.0673 -0.6451
   29MOL0     H 3976  12.508   1.570   3.259 -0.4309 -0.8459 -0.8448
   29MOL0     H 3977  12.504   1.411   3.329 -1.4645  0.5183 -0.1353
   29MOL0     H 3978  12.632   1.546   3.524  1.5906  0.0523  0.3931
   29MOL0     H 3979  12.675   1.657   3.409  0.8919 -0.2383 -1.2027
   29MOL0     H 3980  12.718   1.362   3.362 -2.2455 -0.5460 -4.5392
   29MOL0     H 3981  12.857   1.465   3.400  1.2488 -2.0953 -2.5300
   29MOL0     H 3982  11.641   1.557   2.988 -0.0711  1.2636  0.0852
   29MOL0     H 3983  11.423   1.644   3.056 -0.0921 -0.9254  0.1316
   29MOL0     H 3984  11.169   1.934   3.537 -0.9300  4.5018 -0.7831
   29MOL0     H 3985  10.965   2.027   3.537  2.3572  1.8238 -0.8805
   29MOL0     H 3986   9.153   1.703   3.348 -0.6038 -0.2869 -1.7020
   29MOL0     H 3987   9.002   1.533   3.319 -2.6755 -0.1789 -3.1313
   29MOL0     H 3988   8.664   1.328   3.249 -0.5755 -3.1696 -1.4989
   29MOL0     H 3989   8.504   1.171   3.151 -2.4577  1.6541 -3.1949
   29MOL0     H 3990   8.319   1.181   3.022  0.4336 -0.4400 -2.3768
   29MOL0     H 3991   8.336   1.026   3.108 -1.4924 -0.4590 -0.6641
   29MOL0     H 3992   8.128   0.956   3.080 -1.4174 -0.5029 -1.8266
   29MOL0     H 3993   8.188   1.010   2.928 -0.5587  0.7113 -0.4564
   29MOL0     H 3994   7.990   1.159   3.107 -0.5589 -2.6174  0.3381
   29MOL0     H 3995   8.051   1.229   2.947  1.4223 -1.5743 -1.6617
   29MOL0     H 3996   7.907   0.961   2.965  2.5275 -0.7474  0.8199
   29MOL0     H 3997   7.927   1.069   2.828  1.5937  1.3688  0.2848
   29MOL0     H 3998   7.565   1.220   2.947  1.2260  1.6560 -1.7887
   29MOL0     H 3999   8.201   1.330   3.407  0.1914 -0.6200  0.3047
   29MOL0     H 4000   8.342   1.638   3.481  2.7817 -0.1315 -0.2844
   29MOL0     H 4001   8.220   1.517   3.546  0.1502 -0.6949  1.2067
   29MOL0     H 4002   8.377   1.535   3.612  1.7386 -0.0424 -0.0060
   30MOL0     O 4003   3.721   0.290   0.736 -1.1648  0.4634 -0.0487
   30MOL0     C 4004   3.817   0.285   0.657  0.7545  0.2890 -0.0721
   30MOL0     O 4005   3.895   0.172   0.640 -0.2780  1.0207  0.3414
   30MOL0     C 4006   3.877   0.078   0.736  0.2968  0.7443 -0.3576
   30MOL0     C 4007   3.789  -0.026   0.701  0.4239 -0.0697  0.6990
   30MOL0     C 4008   3.760  -0.133   0.789 -0.8101 -0.9906 -0.8583
   30MOL0     C 4009   3.823  -0.141   0.917  0.6498 -0.7296  0.0971
   30MOL0     O 4010   3.809  -0.240   1.015 -0.2685 -0.2172 -0.5350
   30MOL0     C 4011   3.721  -0.351   0.993 -0.3949  0.0225 -0.4915
   30MOL0     C 4012   3.581  -0.310   1.025  0.1011 -0.3338 -0.3533
   30MOL0     C 4013   3.490  -0.413   0.961  0.5369 -0.0006 -0.2944
   30MOL0     C 4014   3.344  -0.354   0.943 -0.7837  0.4947  0.6374
   30MOL0     C 4015   3.258  -0.461   0.870  0.1614 -0.0751 -0.1096
   30MOL0     C 4016   3.121  -0.411   0.815  1.2998 -0.6232 -0.6559
   30MOL0     C 4017   3.018  -0.374   0.926 -0.5301  0.2397  0.0292
   30MOL0     C 4018   2.893  -0.307   0.876 -0.7697 -0.5530 -0.4909
   30MOL0     N 4019   2.818  -0.395   0.794 -0.2299  0.3359  0.1273
   30MOL0     C 4020   2.762  -0.515   0.831  0.0900 -0.4176 -0.4518
   30MOL0     C 4021   2.760  -0.591   0.719 -0.2057 -0.7463  0.1573
   30MOL0     C 4022   2.707  -0.727   0.712  0.4022 -0.0296 -0.0163
   30MOL0     C 4023   2.642  -0.758   0.574 -0.7783 -0.2716  0.2678
   30MOL0     C 4024   2.587  -0.901   0.572  0.4144  0.3931  0.1598
   30MOL0     C 4025   2.660  -1.026   0.631 -0.0012  0.4216  0.7940
   30MOL0     O 4026   2.571  -1.131   0.591 -0.6503  0.3769  0.3009
   30MOL0     C 4027   2.605  -1.260   0.595 -0.8319  0.4157 -0.0627
   30MOL0     C 4028   2.638  -1.326   0.706  0.2503 -0.3984 -0.4506
   30MOL0     C 4029   2.671  -1.463   0.711 -0.4740 -0.3165 -0.2601
   30MOL0     C 4030   2.701  -1.533   0.841  0.3307 -0.5860  0.1075
   30MOL0     C 4031   2.669  -1.533   0.589 -0.3639  0.5990  0.9773
   30MOL0     C 4032   2.720  -1.676   0.570  0.2691 -0.1778  0.2366
   30MOL0     O 4033   2.825  -1.713   0.643 -0.4652  0.7392 -0.2930
   30MOL0     C 4034   2.878  -1.842   0.628  0.0502  0.5304 -0.0039
   30MOL0     C 4035   2.968  -1.870   0.526 -0.3037  0.6693 -1.0046
   30MOL0     C 4036   3.010  -2.004   0.502  0.4620 -0.6142  0.1865
   30MOL0     C 4037   2.978  -2.104   0.597  0.7478  0.7896 -0.2980
   30MOL0     O 4038   3.019  -2.234   0.601  0.2110 -0.4624 -0.1705
   30MOL0     C 4039   3.112  -2.283   0.509 -0.2853 -0.8470  1.2456
   30MOL0     C 4040   3.144  -2.428   0.540 -0.4108 -0.3289 -0.5919
   30MOL0     C 4041   3.143  -2.471   0.681 -0.2871 -1.8273  0.5996
   30MOL0     C 4042   3.201  -2.608   0.695 -0.2410 -0.3436  0.0460
   30MOL0     C 4043   3.356  -2.609   0.672 -0.2843 -0.4161 -0.4100
   30MOL0     C 4044   3.422  -2.742   0.698  0.8542 -0.2055 -0.6776
   30MOL0     C 4045   3.459  -2.772   0.842 -0.5131 -0.9983  0.7454
   30MOL0     C 4046   3.530  -2.912   0.855  0.3962  0.5688 -0.6837
   30MOL0    Cl 4047   3.690  -2.895   0.763  0.2328  0.4076 -0.4010
   30MOL0     C 4048   2.895  -2.071   0.705 -0.3162 -0.6017 -0.6760
   30MOL0     C 4049   2.841  -1.940   0.717 -0.3473 -0.0737 -0.3524
   30MOL0     O 4050   2.674  -1.734   0.470 -0.0548  0.2811  0.4951
   30MOL0     C 4051   2.636  -1.469   0.465  0.4315 -0.2133 -0.3758
   30MOL0     C 4052   2.614  -1.322   0.477 -0.0329 -0.3129  0.3759
   30MOL0     N 4053   2.807  -0.510   0.622  0.3726 -0.3248  0.6408
   30MOL0     N 4054   2.831  -0.396   0.661 -0.2459  0.1732  0.2429
   30MOL0     C 4055   3.908  -0.043   0.950 -0.5796 -0.4416  0.3793
   30MOL0     C 4056   3.931   0.069   0.860 -0.1789 -0.6809 -0.1412
   30MOL0     C 4057   3.863   0.402   0.571  0.7221  0.6203 -0.4710
   30MOL0     C 4058   3.995   0.399   0.523  0.3902 -0.4052 -0.0831
   30MOL0     C 4059   4.043   0.507   0.432  0.5628 -0.6874  1.7972
   30MOL0     C 4060   3.955   0.605   0.384  0.7690 -0.3863 -0.3686
   30MOL0     O 4061   3.985   0.695   0.279  0.3339  0.7052 -0.5515
   30MOL0     C 4062   4.120   0.728   0.268  0.3900 -0.4439 -0.6940
   30MOL0     C 4063   4.132   0.856   0.180 -0.2017 -0.1049 -0.0189
   30MOL0     C 4064   4.272   0.881   0.137 -0.5073  0.7683 -0.0167
   30MOL0     C 4065   4.282   0.982   0.017  0.7368  0.5028  0.0224
   30MOL0     C 4066   4.426   0.983   0.001 -0.7289  0.6040 -0.3348
   30MOL0     C 4067   4.539   0.959  -0.032  0.6883 -0.0309 -0.7442
   30MOL0     C 4068   3.826   0.597   0.432 -0.3611  0.3219  0.7768
   30MOL0     C 4069   3.778   0.506   0.525 -0.1634 -0.6346  0.1415
   30MOL0     C 4070   3.634   0.519   0.574  0.6216  0.8207  0.0940
   30MOL0     H 4071   3.742  -0.013   0.604 -0.9834  0.0618  1.3806
   30MOL0     H 4072   3.699  -0.216   0.758  0.7823 -2.8123  0.6445
   30MOL0     H 4073   3.739  -0.446   1.043 -2.6662 -1.7805 -2.8271
   30MOL0     H 4074   3.723  -0.376   0.887 -0.7574  0.5866 -0.6394
   30MOL0     H 4075   3.557  -0.293   1.130  0.6952 -1.2560 -0.0604
   30MOL0     H 4076   3.566  -0.217   0.970 -0.3369 -0.5116 -0.5329
   30MOL0     H 4077   3.524  -0.440   0.861  1.8017 -1.3567  0.4485
   30MOL0     H 4078   3.491  -0.508   1.016 -0.1781  0.4586  0.5350
   30MOL0     H 4079   3.291  -0.333   1.036 -1.6289  0.1304  0.2556
   30MOL0     H 4080   3.355  -0.257   0.893 -0.3307  0.5702  0.8851
   30MOL0     H 4081   3.231  -0.541   0.939  2.4260 -1.0392 -0.2349
   30MOL0     H 4082   3.307  -0.514   0.787 -1.6004 -1.6725 -0.1876
   30MOL0     H 4083   3.139  -0.330   0.744  0.7110  0.6602  0.6120
   30MOL0     H 4084   3.082  -0.491   0.752  4.4746 -0.8429 -2.5886
   30MOL0     H 4085   3.064  -0.294   0.986  0.7576  0.2363 -0.9292
   30MOL0     H 4086   2.986  -0.457   0.990  1.4164  0.6292  1.6102
   30MOL0     H 4087   2.830  -0.267   0.956  0.1090 -0.8501  0.3775
   30MOL0     H 4088   2.942  -0.226   0.822  0.2161  0.2102  1.4588
   30MOL0     H 4089   2.721  -0.556   0.923 -0.0709  0.4448 -0.1242
   30MOL0     H 4090   2.625  -0.738   0.784  2.3062  1.3486  2.5414
   30MOL0     H 4091   2.775  -0.807   0.743 -0.2583 -0.8903 -0.7480
   30MOL0     H 4092   2.566  -0.682   0.552 -0.5008 -0.2617 -0.7268
   30MOL0     H 4093   2.728  -0.750   0.506  0.5944  1.8947  2.0870
   30MOL0     H 4094   2.489  -0.893   0.619 -1.0776  2.6529 -2.9857
   30MOL0     H 4095   2.578  -0.928   0.467  3.9542 -1.0556  0.1000
   30MOL0     H 4096   2.757  -1.040   0.583  0.8093 -3.4919  3.1310
   30MOL0     H 4097   2.666  -1.024   0.740  0.4898 -0.1904  0.7805
   30MOL0     H 4098   2.630  -1.281   0.805  1.7246 -1.8683  0.4035
   30MOL0     H 4099   2.653  -1.632   0.843 -1.1930 -0.0040 -2.4795
   30MOL0     H 4100   2.668  -1.469   0.924  0.7239 -1.2997  0.8260
   30MOL0     H 4101   2.807  -1.554   0.853  0.4139  0.4834  1.4807
   30MOL0     H 4102   2.995  -1.789   0.459  1.7547  1.9474  1.1882
   30MOL0     H 4103   3.087  -2.034   0.432 -1.1340  0.0679 -1.9429
   30MOL0     H 4104   3.067  -2.272   0.410 -0.4048  2.9126  1.5526
   30MOL0     H 4105   3.205  -2.225   0.518 -1.6203  1.4346  1.3113
   30MOL0     H 4106   3.057  -2.477   0.495  0.5218  0.5046 -3.4833
   30MOL0     H 4107   3.232  -2.460   0.485 -2.3220 -2.7805 -2.4784
   30MOL0     H 4108   3.047  -2.453   0.730  1.3962  0.2287  3.4656
   30MOL0     H 4109   3.213  -2.399   0.724 -0.3347  0.1328 -2.3147
   30MOL0     H 4110   3.151  -2.681   0.630 -1.5717 -0.2733  0.9596
   30MOL0     H 4111   3.177  -2.648   0.794 -0.4715 -1.7127 -0.5319
   30MOL0     H 4112   3.381  -2.585   0.568 -0.1002  1.0416 -0.0586
   30MOL0     H 4113   3.400  -2.529   0.733 -1.6188  0.5060 -0.6204
   30MOL0     H 4114   3.521  -2.744   0.652  1.8406  0.7419  1.2975
   30MOL0     H 4115   3.352  -2.819   0.662 -1.3387  0.4965  1.7907
   30MOL0     H 4116   3.366  -2.768   0.899 -2.7752 -3.0053 -2.4693
   30MOL0     H 4117   3.520  -2.689   0.879 -0.3853  0.4087 -2.3181
   30MOL0     H 4118   3.462  -2.983   0.808  2.3321 -0.2708 -2.3715
   30MOL0     H 4119   3.533  -2.936   0.962  0.8075 -0.7785 -0.9796
   30MOL0     H 4120   2.853  -2.154   0.761 -2.0330 -1.5254 -3.1429
   30MOL0     H 4121   2.775  -1.917   0.800  1.6387 -1.2745  1.6710
   30MOL0     H 4122   2.639  -1.528   0.373 -0.3818 -0.5702 -0.1862
   30MOL0     H 4123   2.575  -1.261   0.396 -1.7253 -1.4968  0.2491
   30MOL0     H 4124   3.964  -0.043   1.043  0.7830 -0.7386 -0.4252
   30MOL0     H 4125   4.008   0.143   0.881 -0.6454  0.1373 -1.2121
   30MOL0     H 4126   4.058   0.314   0.547  2.4072  1.0164 -0.1571
   30MOL0     H 4127   4.144   0.500   0.391  1.1612 -0.7963  3.2394
   30MOL0     H 4128   4.161   0.760   0.365 -1.1810  3.2673 -1.0858
   30MOL0     H 4129   4.186   0.652   0.226 -1.6754 -2.1814 -0.9609
   30MOL0     H 4130   4.083   0.934   0.238 -1.2877 -0.7002 -0.1140
   30MOL0     H 4131   4.073   0.828   0.092 -1.8544 -2.9433  1.8354
   30MOL0     H 4132   4.333   0.918   0.220 -1.0324  0.5468  0.4741
   30MOL0     H 4133   4.310   0.787   0.097 -2.7483  0.2227 -1.0135
   30MOL0     H 4134   4.249   1.085   0.032  1.6264  0.8951 -0.6642
   30MOL0     H 4135   4.229   0.931  -0.064  3.5520 -0.6611 -1.2225
   30MOL0     H 4136   4.643   0.933  -0.041  1.1677  1.0865  0.8944
   30MOL0     H 4137   3.758   0.671   0.390  0.4164  0.9756  0.6405
   30MOL0     H 4138   3.573   0.450   0.514  1.7751 -1.5314  1.4798
   30MOL0     H 4139   3.622   0.500   0.681  2.7442  0.2903  0.2748
   30MOL0     H 4140   3.597   0.619   0.552  0.4935 -0.0237 -4.5207
   31MOL0     O 4141   0.294   5.777   2.992  0.1835  0.2001 -0.7039
   31MOL0     C 4142   0.231   5.718   3.083 -0.4156 -0.6815 -0.5402
   31MOL0     O 4143   0.287   5.670   3.200 -0.4796  0.8631  0.3761
   31MOL0     C 4144   0.424   5.674   3.211 -0.3492 -0.0601 -0.1331
   31MOL0     C 4145   0.490   5.788   3.214 -0.5569 -0.5480  0.0105
   31MOL0     C 4146   0.632   5.781   3.215  0.1994 -0.3697  0.2917
   31MOL0     C 4147   0.700   5.655   3.193  0.6036 -0.7942  0.5193
   31MOL0     O 4148   0.831   5.675   3.192  0.0137 -0.3726  0.2703
   31MOL0     C 4149   0.914   5.567   3.251 -0.4318  0.2745 -0.1435
   31MOL0     C 4150   1.020   5.526   3.147 -0.1823  0.8190  0.4736
   31MOL0     C 4151   1.150   5.458   3.205 -0.4395 -1.1134  1.0213
   31MOL0     C 4152   1.231   5.388   3.103  0.1413  0.1175  0.6910
   31MOL0     C 4153   1.336   5.297   3.171 -0.7359 -0.1109 -0.1654
   31MOL0     C 4154   1.363   5.168   3.092 -0.1676 -0.4262 -0.1181
   31MOL0     C 4155   1.494   5.108   3.157  0.1854 -0.2508  0.0360
   31MOL0     C 4156   1.551   4.992   3.076 -0.0239  0.9725  0.6231
   31MOL0     N 4157   1.636   4.905   3.163 -0.1901 -0.2715 -0.0475
   31MOL0     C 4158   1.776   4.899   3.186 -0.1131  0.9356 -0.2881
   31MOL0     C 4159   1.792   4.797   3.271 -0.0254 -0.3804 -0.2226
   31MOL0     C 4160   1.921   4.735   3.310 -0.3582  0.1769 -0.2899
   31MOL0     C 4161   1.964   4.773   3.442 -0.2398 -0.4111 -1.0878
   31MOL0     C 4162   2.045   4.669   3.512 -0.1403 -0.2040  0.6353
   31MOL0     C 4163   2.185   4.660   3.442 -0.1335  0.3892  0.5786
   31MOL0     O 4164   2.260   4.784   3.408  0.0988 -0.2303 -0.3632
   31MOL0     C 4165   2.303   4.858   3.517 -0.1911 -0.1937 -0.2005
   31MOL0     C 4166   2.328   4.988   3.482  0.1833  0.1182  0.1192
   31MOL0     C 4167   2.382   5.086   3.574 -0.8496  0.1762  0.0634
   31MOL0     C 4168   2.416   5.223   3.519 -0.0604 -0.1906 -0.5749
   31MOL0     C 4169   2.406   5.051   3.709 -0.1783  0.0886  0.0246
   31MOL0     C 4170   2.466   5.130   3.815  0.4574 -1.1811 -0.0123
   31MOL0     O 4171   2.466   5.074   3.937 -0.5924  0.2574  0.4935
   31MOL0     C 4172   2.491   5.152   4.048  1.3268  0.5065 -0.4447
   31MOL0     C 4173   2.387   5.181   4.132  0.5688  0.2022  0.0959
   31MOL0     C 4174   2.413   5.256   4.247  0.4351  0.0229  0.3529
   31MOL0     C 4175   2.539   5.315   4.268 -0.1930  0.2748  0.6613
   31MOL0     O 4176   2.571   5.397   4.371  0.0086  0.3099  0.6816
   31MOL0     C 4177   2.492   5.398   4.489 -1.0159 -1.0118 -0.2009
   31MOL0     C 4178   2.575   5.490   4.581 -0.1025  0.1890  1.2938
   31MOL0     C 4179   2.493   5.557   4.692 -0.1782  0.2464 -0.0521
   31MOL0     C 4180   2.465   5.467   4.811  1.1945 -0.0519  0.4642
   31MOL0     C 4181   2.380   5.543   4.918 -0.2480  0.6966  0.3832
   31MOL0     C 4182   2.345   5.437   5.016 -0.0581  0.8093  0.5286
   31MOL0     C 4183   2.454   5.393   5.114  0.3808 -0.6158 -0.1766
   31MOL0     C 4184   2.532   5.502   5.191  0.6503 -0.3818  0.0404
   31MOL0    Cl 4185   2.412   5.620   5.261 -0.3695 -0.1029 -0.3003
   31MOL0     C 4186   2.640   5.288   4.176  0.4355 -0.0644  0.1534
   31MOL0     C 4187   2.619   5.207   4.063 -0.8774 -0.2480  0.0649
   31MOL0     O 4188   2.495   5.249   3.794  0.7066  0.0145  0.5942
   31MOL0     C 4189   2.354   4.924   3.747  0.3440  0.1950  0.1288
   31MOL0     C 4190   2.313   4.831   3.654 -0.4387  0.8593 -0.2352
   31MOL0     N 4191   1.672   4.744   3.295  0.6310 -0.9966 -0.2878
   31MOL0     N 4192   1.581   4.808   3.232  1.0159  0.1346  1.1205
   31MOL0     C 4193   0.625   5.541   3.186  0.7242  0.2434 -0.2590
   31MOL0     C 4194   0.483   5.550   3.195 -0.9084 -0.3104  0.4978
   31MOL0     C 4195   0.095   5.676   3.049  0.4570 -0.3636  0.9301
   31MOL0     C 4196   0.041   5.565   3.114  0.0575  0.1022 -0.3504
   31MOL0     C 4197  -0.090   5.525   3.086  0.1392 -0.0390  0.3380
   31MOL0     C 4198  -0.165   5.589   2.994  0.3928  0.3439  0.6838
   31MOL0     O 4199  -0.299   5.547   2.972  0.3310 -0.0400 -0.0823
   31MOL0     C 4200  -0.362   5.579   2.844  0.6537 -0.6532 -0.4808
   31MOL0     C 4201  -0.476   5.483   2.816  0.4475  0.0694  0.7404
   31MOL0     C 4202  -0.517   5.503   2.674  0.2766  0.5966  0.0884
   31MOL0     C 4203  -0.618   5.389   2.616  0.4006 -0.6586  0.3397
   31MOL0     C 4204  -0.744   5.361   2.683 -0.3799  0.4814  0.7642
   31MOL0     C 4205  -0.850   5.329   2.734 -0.5271 -0.0625 -0.3292
   31MOL0     C 4206  -0.112   5.696   2.935  0.6673 -1.6105  0.3137
   31MOL0     C 4207   0.016   5.750   2.957  0.8223 -0.8896  0.2998
   31MOL0     C 4208   0.064   5.875   2.884  1.3344 -0.0135 -0.9811
   31MOL0     H 4209   0.437   5.883   3.219  1.0024  0.4638 -1.3413
   31MOL0     H 4210   0.692   5.872   3.217  3.1238 -2.1493  2.6006
   31MOL0     H 4211   0.868   5.480   3.299 -0.8723  0.2060 -0.6892
   31MOL0     H 4212   0.963   5.619   3.334 -0.2907  0.2163 -0.1886
   31MOL0     H 4213   0.976   5.461   3.071 -0.2664  1.9174 -0.4425
   31MOL0     H 4214   1.061   5.609   3.088  2.0877  1.4286  2.7295
   31MOL0     H 4215   1.216   5.532   3.252 -1.6266  1.3110 -0.8355
   31MOL0     H 4216   1.119   5.385   3.279 -3.2378  0.7310  1.8424
   31MOL0     H 4217   1.165   5.323   3.044  2.2682 -2.1045  0.5649
   31MOL0     H 4218   1.283   5.452   3.031  0.3149 -1.0369 -0.2523
   31MOL0     H 4219   1.315   5.264   3.274  2.6234  0.0716  0.7038
   31MOL0     H 4220   1.430   5.353   3.171 -1.0614  0.5205 -2.5725
   31MOL0     H 4221   1.285   5.092   3.100  1.5847 -2.2297  0.9045
   31MOL0     H 4222   1.383   5.198   2.989 -1.7610  0.6130 -0.1546
   31MOL0     H 4223   1.477   5.068   3.257  1.7085 -1.0979 -0.0034
   31MOL0     H 4224   1.580   5.175   3.156  1.6307 -1.9713  1.7994
   31MOL0     H 4225   1.471   4.920   3.053 -0.0545 -0.0289  3.4023
   31MOL0     H 4226   1.607   5.017   2.986  0.6826 -2.1477  0.0651
   31MOL0     H 4227   1.863   4.948   3.143 -0.8062  1.0051 -1.6460
   31MOL0     H 4228   2.009   4.760   3.250 -0.5489  0.4323 -0.4626
   31MOL0     H 4229   1.910   4.626   3.307  1.8001 -0.1221  0.8240
   31MOL0     H 4230   2.011   4.872   3.433 -1.4958  0.3537  0.2940
   31MOL0     H 4231   1.873   4.793   3.500  0.9770  1.6072  0.2416
   31MOL0     H 4232   2.061   4.700   3.615 -1.1704  1.1367  0.4217
   31MOL0     H 4233   1.990   4.574   3.513 -2.7154  1.2198  1.5832
   31MOL0     H 4234   2.252   4.599   3.503  0.4916  1.3859  0.9000
   31MOL0     H 4235   2.159   4.610   3.348  0.1616  0.4680  0.4548
   31MOL0     H 4236   2.325   5.005   3.374  0.3415  2.3696  0.4318
   31MOL0     H 4237   2.352   5.303   3.559 -1.9150 -1.8654 -0.0697
   31MOL0     H 4238   2.394   5.226   3.412 -1.7691  1.0608 -0.2457
   31MOL0     H 4239   2.520   5.253   3.533 -0.7475  0.6161  5.1660
   31MOL0     H 4240   2.293   5.126   4.133  1.6912 -1.8227 -0.0857
   31MOL0     H 4241   2.331   5.274   4.315  1.3564  1.7542  1.0685
   31MOL0     H 4242   2.395   5.444   4.465 -0.9579  0.4706  2.1214
   31MOL0     H 4243   2.474   5.297   4.526 -0.9437 -2.0630 -2.7604
   31MOL0     H 4244   2.650   5.430   4.634 -1.3606 -2.1350  0.5811
   31MOL0     H 4245   2.639   5.561   4.527  1.1133  0.4241  2.9602
   31MOL0     H 4246   2.398   5.592   4.651  0.4002  1.3684 -0.4832
   31MOL0     H 4247   2.550   5.644   4.724  2.7699 -1.8624  0.8492
   31MOL0     H 4248   2.561   5.437   4.853  0.9471 -3.4703 -1.0527
   31MOL0     H 4249   2.403   5.383   4.778  1.5470 -0.4350  0.7746
   31MOL0     H 4250   2.435   5.624   4.966 -1.7710  1.1219  1.4929
   31MOL0     H 4251   2.289   5.580   4.870 -1.0468 -2.2220 -0.5290
   31MOL0     H 4252   2.315   5.346   4.962  2.4548  0.7769 -1.0188
   31MOL0     H 4253   2.264   5.479   5.075 -1.1202  0.5051 -0.6776
   31MOL0     H 4254   2.531   5.333   5.063  2.2476  3.0846 -2.0633
   31MOL0     H 4255   2.411   5.324   5.187 -0.8387  1.2726  0.9625
   31MOL0     H 4256   2.598   5.557   5.123  0.6703  2.5337  2.2309
   31MOL0     H 4257   2.591   5.455   5.270 -0.1002 -1.5151 -0.0548
   31MOL0     H 4258   2.738   5.332   4.187  0.8337 -0.6995 -0.7612
   31MOL0     H 4259   2.703   5.188   3.998  1.1363  3.1203  1.4208
   31MOL0     H 4260   2.362   4.893   3.850 -0.5432  2.1657  0.8586
   31MOL0     H 4261   2.279   4.734   3.688  0.4093  0.5735 -0.1690
   31MOL0     H 4262   0.674   5.447   3.167  0.7705  0.5826 -1.9549
   31MOL0     H 4263   0.435   5.453   3.185  1.4380 -1.3819 -1.2609
   31MOL0     H 4264   0.109   5.524   3.189 -1.2399  0.6035  1.1526
   31MOL0     H 4265  -0.126   5.439   3.142  1.5551 -0.2636  0.9608
   31MOL0     H 4266  -0.397   5.681   2.860 -0.6033 -1.2049  0.4022
   31MOL0     H 4267  -0.286   5.570   2.766 -0.3062  3.3911 -2.1378
   31MOL0     H 4268  -0.556   5.516   2.882 -0.0144 -0.6176  0.5290
   31MOL0     H 4269  -0.459   5.376   2.828  0.2596 -0.1033 -0.3934
   31MOL0     H 4270  -0.555   5.605   2.660 -0.7370  0.4703  1.6536
   31MOL0     H 4271  -0.433   5.504   2.605 -0.2451  1.0774 -0.5572
   31MOL0     H 4272  -0.560   5.297   2.630  2.6839  1.0409  3.0352
   31MOL0     H 4273  -0.634   5.408   2.509 -0.4289 -1.7160  0.2626
   31MOL0     H 4274  -0.949   5.314   2.772 -1.0620 -0.5632 -1.8627
   31MOL0     H 4275  -0.175   5.756   2.870 -0.8300 -2.6819  0.7263
   31MOL0     H 4276   0.148   5.858   2.816  1.0135 -0.2968 -1.3087
   31MOL0     H 4277  -0.014   5.896   2.810  0.8169  1.3395 -0.0898
   31MOL0     H 4278   0.087   5.950   2.960  1.3572 -1.7989  0.8526
   32MOL0     O 4279   1.183   0.309   1.733  0.2976 -0.2523  0.7927
   32MOL0     C 4280   1.124   0.382   1.659  0.2524 -0.9553  1.2598
   32MOL0     O 4281   1.178   0.492   1.600 -0.5003  0.3585  0.1790
   32MOL0     C 4282   1.298   0.536   1.652 -0.2374 -0.6785  0.1944
   32MOL0     C 4283   1.320   0.662   1.715 -0.7575 -0.4178 -0.4113
   32MOL0     C 4284   1.443   0.714   1.746 -0.0138 -0.0837  0.3550
   32MOL0     C 4285   1.555   0.641   1.709 -0.6234  0.2454  0.2250
   32MOL0     O 4286   1.670   0.701   1.751 -0.2114  0.0915  0.2258
   32MOL0     C 4287   1.783   0.668   1.675 -0.0617 -0.0807 -0.6866
   32MOL0     C 4288   1.896   0.760   1.709  0.1751 -0.0831 -0.2703
   32MOL0     C 4289   1.945   0.721   1.849 -0.4742 -0.3071 -0.0234
   32MOL0     C 4290   2.074   0.797   1.868 -0.1037  0.6191 -0.1159
   32MOL0     C 4291   2.186   0.688   1.864 -0.5251 -0.6513 -0.4512
   32MOL0     C 4292   2.323   0.746   1.861 -0.7886  0.5836  0.6646
   32MOL0     C 4293   2.440   0.647   1.844  0.4626  0.9541 -0.3360
   32MOL0     C 4294   2.438   0.556   1.721  0.8804  0.5178  0.1292
   32MOL0     N 4295   2.551   0.463   1.724 -0.0354 -0.8035  0.1810
   32MOL0     C 4296   2.676   0.488   1.678  0.7389 -0.2423 -1.2947
   32MOL0     C 4297   2.737   0.365   1.685  0.1531 -0.1250 -0.0652
   32MOL0     C 4298   2.881   0.334   1.647 -0.4176 -0.2481 -0.8857
   32MOL0     C 4299   2.910   0.330   1.497 -0.3923 -0.0338 -0.4687
   32MOL0     C 4300   2.961   0.468   1.441 -0.1183  0.4795 -0.3397
   32MOL0     C 4301   2.994   0.463   1.294 -0.4192 -0.1675  0.2051
   32MOL0     O 4302   3.095   0.364   1.282 -0.2577  0.1258 -0.8627
   32MOL0     C 4303   3.221   0.398   1.317  0.1896  0.6794  0.4160
   32MOL0     C 4304   3.274   0.528   1.329 -0.3733 -1.2313 -0.1053
   32MOL0     C 4305   3.412   0.553   1.345 -0.1700 -0.2624 -0.0817
   32MOL0     C 4306   3.445   0.698   1.367  0.0609 -0.3261 -0.1200
   32MOL0     C 4307   3.503   0.445   1.359 -0.3899  0.6668  0.0216
   32MOL0     C 4308   3.650   0.472   1.372  0.4071 -0.0165 -0.6102
   32MOL0     O 4309   3.703   0.596   1.406  0.3699  0.6577 -0.0712
   32MOL0     C 4310   3.840   0.620   1.446 -1.3693 -0.0999 -0.1238
   32MOL0     C 4311   3.895   0.756   1.447  0.3259  0.3807  0.3556
   32MOL0     C 4312   4.037   0.778   1.457  0.4008 -0.0978 -0.1090
   32MOL0     C 4313   4.120   0.670   1.482 -0.3752  0.3423 -0.0543
   32MOL0     O 4314   4.261   0.669   1.475  0.1392  0.1300 -0.2810
   32MOL0     C 4315   4.328   0.792   1.496  0.2717 -0.2611 -0.7281
   32MOL0     C 4316   4.481   0.779   1.502 -0.5885 -0.1710  0.3304
   32MOL0     C 4317   4.541   0.713   1.378  1.0211  0.4951 -0.1534
   32MOL0     C 4318   4.520   0.778   1.242  0.2746 -0.7440  0.7906
   32MOL0     C 4319   4.566   0.689   1.127 -0.5563 -0.6160 -0.8246
   32MOL0     C 4320   4.565   0.763   0.986 -0.6973 -0.0378  0.1913
   32MOL0     C 4321   4.613   0.660   0.876  0.3443  0.0631  0.7014
   32MOL0     C 4322   4.588   0.717   0.735  0.3981  0.3878  0.1447
   32MOL0    Cl 4323   4.709   0.854   0.717 -0.5105 -0.0870 -0.2509
   32MOL0     C 4324   4.071   0.543   1.483 -0.0532 -0.1829 -0.4616
   32MOL0     C 4325   3.931   0.515   1.470 -0.0157 -0.1470  0.0999
   32MOL0     O 4326   3.716   0.377   1.341  0.2203  0.3329 -0.4345
   32MOL0     C 4327   3.452   0.312   1.343  0.7074  0.1098 -0.1008
   32MOL0     C 4328   3.308   0.300   1.325 -0.1842 -0.2105 -0.0628
   32MOL0     N 4329   2.640   0.266   1.719  0.3547  1.2398 -0.9406
   32MOL0     N 4330   2.533   0.331   1.750  0.6914 -0.1371 -0.5140
   32MOL0     C 4331   1.542   0.525   1.639 -0.0172 -0.1981  0.6807
   32MOL0     C 4332   1.414   0.467   1.608 -0.2753 -0.5273 -0.2676
   32MOL0     C 4333   0.978   0.344   1.627 -0.2562  0.7490 -0.1548
   32MOL0     C 4334   0.882   0.443   1.609 -0.4925 -0.3029 -0.5836
   32MOL0     C 4335   0.751   0.417   1.592 -0.0580  0.4262  0.7321
   32MOL0     C 4336   0.705   0.285   1.576 -0.7321  1.0264  0.4712
   32MOL0     O 4337   0.571   0.255   1.569  0.4428 -0.2865 -0.4127
   32MOL0     C 4338   0.478   0.353   1.614  0.4421 -0.3897  0.4063
   32MOL0     C 4339   0.359   0.278   1.658  0.2306 -0.7057 -0.0730
   32MOL0     C 4340   0.399   0.162   1.753 -0.1698 -0.2107 -1.1117
   32MOL0     C 4341   0.288   0.119   1.848  0.3840 -0.8215 -0.0739
   32MOL0     C 4342   0.160   0.095   1.781  1.1749 -0.0699 -0.3706
   32MOL0     C 4343   0.045   0.082   1.728  0.1510  0.5159 -0.3428
   32MOL0     C 4344   0.800   0.188   1.576 -1.4936 -0.4103  0.0936
   32MOL0     C 4345   0.936   0.211   1.614  0.2259 -0.2072  0.3633
   32MOL0     C 4346   1.032   0.098   1.615  0.4660  0.3676 -0.2748
   32MOL0     H 4347   1.232   0.725   1.729 -0.1337  0.6948 -1.2452
   32MOL0     H 4348   1.452   0.812   1.792  1.2688  0.4476 -0.9355
   32MOL0     H 4349   1.759   0.686   1.570  0.4979  0.7723 -0.6837
   32MOL0     H 4350   1.812   0.564   1.694 -1.2268  0.1553  3.4169
   32MOL0     H 4351   1.970   0.757   1.628  1.1805 -0.8386  0.6420
   32MOL0     H 4352   1.868   0.865   1.713  0.6372  0.0190  2.7187
   32MOL0     H 4353   1.869   0.770   1.910 -2.0969 -0.5227 -1.7622
   32MOL0     H 4354   1.942   0.614   1.869  2.6695  0.1825  4.2804
   32MOL0     H 4355   2.085   0.873   1.790  1.4190 -0.4285 -0.9577
   32MOL0     H 4356   2.070   0.849   1.965  1.6523  0.7103 -0.0639
   32MOL0     H 4357   2.170   0.626   1.775 -0.8621 -0.0197 -0.8357
   32MOL0     H 4358   2.169   0.632   1.956  2.1986  1.2511  1.3770
   32MOL0     H 4359   2.323   0.824   1.784  0.2413  1.2433  1.3218
   32MOL0     H 4360   2.344   0.802   1.952  0.8675  0.9578  0.0937
   32MOL0     H 4361   2.448   0.583   1.932  1.5122  0.6667 -0.6239
   32MOL0     H 4362   2.533   0.704   1.846 -0.0340  1.8022 -0.6870
   32MOL0     H 4363   2.343   0.502   1.730  1.5677 -0.6409  0.6829
   32MOL0     H 4364   2.437   0.605   1.623  1.0455 -1.7403 -1.0713
   32MOL0     H 4365   2.720   0.581   1.644 -2.9917  1.2513 -2.4930
   32MOL0     H 4366   2.900   0.232   1.683 -2.2840 -0.6174 -0.8244
   32MOL0     H 4367   2.950   0.404   1.694  1.0376 -0.6879 -2.2629
   32MOL0     H 4368   2.990   0.258   1.476 -1.5033 -1.6661  0.6378
   32MOL0     H 4369   2.821   0.301   1.440 -0.2949 -0.9350 -0.1764
   32MOL0     H 4370   2.887   0.548   1.449 -0.5083  0.3014 -1.9859
   32MOL0     H 4371   3.051   0.498   1.497  0.8075 -0.0673 -1.4783
   32MOL0     H 4372   2.906   0.428   1.240 -0.6295  0.5213  0.0906
   32MOL0     H 4373   3.019   0.557   1.244 -1.3401 -1.2140 -2.3418
   32MOL0     H 4374   3.209   0.614   1.335  1.4533  0.1273  1.5020
   32MOL0     H 4375   3.514   0.740   1.294  0.4770  1.3435  1.1476
   32MOL0     H 4376   3.483   0.717   1.468  0.4544  2.1340 -0.6521
   32MOL0     H 4377   3.353   0.758   1.355 -1.3600 -2.7490 -2.4290
   32MOL0     H 4378   3.835   0.842   1.419  1.5192  1.4656  0.9891
   32MOL0     H 4379   4.068   0.882   1.464 -1.3989  0.4744 -0.1661
   32MOL0     H 4380   4.303   0.862   1.416 -1.1471 -0.1116 -0.1798
   32MOL0     H 4381   4.294   0.841   1.588 -1.3743 -0.9096 -0.9568
   32MOL0     H 4382   4.529   0.876   1.518  1.7783 -0.8248 -2.0084
   32MOL0     H 4383   4.502   0.711   1.585  3.0117 -0.6260 -0.7789
   32MOL0     H 4384   4.483   0.621   1.362 -1.5840  2.3139 -2.1595
   32MOL0     H 4385   4.645   0.685   1.393  1.5051  2.0214 -0.4795
   32MOL0     H 4386   4.562   0.879   1.246 -0.5675 -0.3296 -0.3031
   32MOL0     H 4387   4.412   0.794   1.233  0.6625  1.9839 -0.0834
   32MOL0     H 4388   4.664   0.641   1.143 -0.9186 -1.5171 -1.2237
   32MOL0     H 4389   4.489   0.611   1.128 -0.9139 -0.2665 -1.2297
   32MOL0     H 4390   4.634   0.848   0.980  0.1061 -0.6738  0.3026
   32MOL0     H 4391   4.464   0.797   0.965 -1.6456 -4.1471 -3.1049
   32MOL0     H 4392   4.561   0.564   0.884 -0.5300  0.4393 -0.2765
   32MOL0     H 4393   4.721   0.646   0.883  0.8256  2.8505 -0.1083
   32MOL0     H 4394   4.487   0.757   0.721  0.0704  0.5651  2.6253
   32MOL0     H 4395   4.595   0.634   0.665 -1.1075 -0.9046  1.4529
   32MOL0     H 4396   4.146   0.466   1.499 -0.0811  0.2268  2.0298
   32MOL0     H 4397   3.900   0.412   1.487  1.7331 -1.1823 -2.2499
   32MOL0     H 4398   3.523   0.230   1.335  0.0227 -0.3242 -2.5778
   32MOL0     H 4399   3.267   0.201   1.306 -2.8916  0.7653  0.2339
   32MOL0     H 4400   1.631   0.469   1.612  0.8302  1.9965 -1.5443
   32MOL0     H 4401   1.394   0.366   1.573 -1.7925 -0.6306  0.7755
   32MOL0     H 4402   0.912   0.547   1.608 -2.1682  0.2204  0.1973
   32MOL0     H 4403   0.685   0.502   1.583 -2.3416 -1.1765  1.5785
   32MOL0     H 4404   0.509   0.416   1.697 -1.6013 -0.3208  1.1629
   32MOL0     H 4405   0.451   0.406   1.522  1.7619 -1.5754 -0.6971
   32MOL0     H 4406   0.302   0.238   1.574 -1.5397 -1.2694  1.3093
   32MOL0     H 4407   0.295   0.350   1.710  0.6034 -0.5794  0.2179
   32MOL0     H 4408   0.446   0.076   1.704  2.0956 -0.9479  2.0439
   32MOL0     H 4409   0.475   0.202   1.820  0.6433 -1.8936 -0.9785
   32MOL0     H 4410   0.269   0.206   1.912 -1.0168  0.4782 -2.1614
   32MOL0     H 4411   0.330   0.036   1.906  0.6091  0.3734  1.5414
   32MOL0     H 4412  -0.050   0.091   1.679  0.3547  2.5088 -0.4432
   32MOL0     H 4413   0.769   0.085   1.561  2.7238 -1.6228 -1.9304
   32MOL0     H 4414   0.985   0.014   1.563  2.1638 -0.6319 -0.2756
   32MOL0     H 4415   1.122   0.110   1.554 -0.9315  0.2148 -2.4741
   32MOL0     H 4416   1.059   0.063   1.716 -0.6100 -1.2674 -0.5108
   33MOL0     O 4417   5.811  10.129   1.925 -0.5565  0.5702  0.2922
   33MOL0     C 4418   5.770  10.220   1.858  0.1899 -0.2985 -0.1519
   33MOL0     O 4419   5.845  10.300   1.778  0.0609  0.8397 -0.0213
   33MOL0     C 4420   5.973  10.330   1.811 -0.4577 -0.6368  0.8623
   33MOL0     C 4421   6.065  10.323   1.705 -0.7895 -0.6624 -0.1213
   33MOL0     C 4422   6.203  10.333   1.733  0.3484  0.4504  0.0888
   33MOL0     C 4423   6.246  10.354   1.856  0.0572 -0.3728 -0.8873
   33MOL0     O 4424   6.378  10.381   1.868 -0.5136  0.3965  0.6207
   33MOL0     C 4425   6.430  10.475   1.962  0.2121 -0.6376 -0.9554
   33MOL0     C 4426   6.570  10.507   1.913 -0.7206 -0.0354  0.2969
   33MOL0     C 4427   6.665  10.554   2.032 -0.7348  0.0449 -0.7486
   33MOL0     C 4428   6.802  10.578   1.977 -0.3288  0.2121  0.0058
   33MOL0     C 4429   6.904  10.578   2.084  0.1893 -0.4239  0.4947
   33MOL0     C 4430   7.042  10.584   2.041 -1.0146  0.2098  0.8326
   33MOL0     C 4431   7.145  10.585   2.161  0.2018  0.5709  0.3410
   33MOL0     C 4432   7.283  10.626   2.112  0.6022 -0.2117  1.0653
   33MOL0     N 4433   7.342  10.521   2.031 -0.0663  0.5895 -0.1282
   33MOL0     C 4434   7.355  10.386   2.063 -0.0451 -0.1212  0.2490
   33MOL0     C 4435   7.426  10.334   1.964  0.1746 -0.2693 -0.1463
   33MOL0     C 4436   7.470  10.192   1.961  0.1064  1.1399 -0.0942
   33MOL0     C 4437   7.538  10.152   2.092  0.0929  0.2586 -0.3890
   33MOL0     C 4438   7.607  10.013   2.086 -0.7694  0.1208  0.9277
   33MOL0     C 4439   7.761  10.026   2.079  0.3075 -0.6733  0.0604
   33MOL0     O 4440   7.822   9.908   2.035 -0.2827  0.0911 -0.1719
   33MOL0     C 4441   7.958   9.879   2.058 -1.1133  0.5580  0.7026
   33MOL0     C 4442   8.053   9.980   2.068  0.6063 -0.2418 -0.4209
   33MOL0     C 4443   8.188   9.956   2.095 -0.1694  0.2930  0.5197
   33MOL0     C 4444   8.280  10.072   2.099 -0.2756  0.7754 -0.7312
   33MOL0     C 4445   8.227   9.819   2.091  0.1272 -0.4449  0.0977
   33MOL0     C 4446   8.370   9.779   2.100 -0.0508  0.9430  0.7870
   33MOL0     O 4447   8.446   9.837   2.192  0.1958  0.3092 -0.4312
   33MOL0     C 4448   8.581   9.811   2.214  0.1405  0.5110  0.2201
   33MOL0     C 4449   8.661   9.921   2.246 -0.7331  0.2585 -0.6244
   33MOL0     C 4450   8.804   9.902   2.271 -0.1060  0.9392  0.0101
   33MOL0     C 4451   8.870   9.776   2.247  0.3844 -0.0104  0.4390
   33MOL0     O 4452   9.002   9.771   2.249 -0.0076 -0.4366 -0.7045
   33MOL0     C 4453   9.075   9.649   2.242 -0.7225 -0.2472  0.8238
   33MOL0     C 4454   9.094   9.626   2.092 -0.1833  1.0139 -0.4030
   33MOL0     C 4455   9.177   9.499   2.076  0.3207 -0.4233 -0.0853
   33MOL0     C 4456   9.316   9.512   2.123 -0.7478 -0.2140  0.3088
   33MOL0     C 4457   9.400   9.386   2.089  0.2382 -0.5289  0.4179
   33MOL0     C 4458   9.538   9.421   2.150 -0.0198  0.1642 -0.5678
   33MOL0     C 4459   9.636   9.305   2.103  0.2309  0.1640  0.2039
   33MOL0     C 4460   9.606   9.163   2.159 -1.2483  0.4947 -0.4316
   33MOL0    Cl 4461   9.615   9.176   2.341  0.3476 -0.3088  0.0964
   33MOL0     C 4462   8.790   9.662   2.219 -0.4271 -0.7599 -0.3651
   33MOL0     C 4463   8.646   9.686   2.199 -0.1967 -0.3624 -0.0199
   33MOL0     O 4464   8.400   9.684   2.026 -0.0644 -0.6996  0.3218
   33MOL0     C 4465   8.133   9.717   2.067  0.2252 -0.3701 -0.1427
   33MOL0     C 4466   8.001   9.749   2.066 -0.0481  0.4438  0.0548
   33MOL0     N 4467   7.448  10.429   1.867  0.7625  0.1095 -0.7251
   33MOL0     N 4468   7.402  10.539   1.912 -0.4030 -0.8204 -0.1619
   33MOL0     C 4469   6.148  10.365   1.961 -0.3541 -0.8551 -0.5718
   33MOL0     C 4470   6.017  10.357   1.940 -0.3584  0.7214  0.2421
   33MOL0     C 4471   5.627  10.249   1.847  0.0225  1.1878  0.2558
   33MOL0     C 4472   5.534  10.143   1.887  0.5292 -0.5297 -0.1672
   33MOL0     C 4473   5.401  10.176   1.898 -0.4067  0.0586  0.0534
   33MOL0     C 4474   5.346  10.296   1.866  0.4111 -0.2042 -0.0464
   33MOL0     O 4475   5.212  10.315   1.863  0.2690 -0.1185  0.0923
   33MOL0     C 4476   5.136  10.209   1.817  0.0919  0.5957  0.6605
   33MOL0     C 4477   4.993  10.234   1.771 -0.1578  0.1470 -0.4789
   33MOL0     C 4478   4.920  10.292   1.897  0.4318  0.0149 -0.3687
   33MOL0     C 4479   4.781  10.343   1.849  0.2158  0.1955 -0.1023
   33MOL0     C 4480   4.782  10.488   1.826 -0.0943 -0.4094  0.5810
   33MOL0     C 4481   4.779  10.613   1.825  0.3677 -0.4384 -0.1327
   33MOL0     C 4482   5.429  10.390   1.810 -0.0891  0.0018 -0.3173
   33MOL0     C 4483   5.567  10.370   1.814 -0.0194  0.3542  0.3227
   33MOL0     C 4484   5.648  10.496   1.789 -0.3206  0.2895 -0.3859
   33MOL0     H 4485   6.026  10.316   1.604  0.0716  0.5280 -0.5597
   33MOL0     H 4486   6.270  10.327   1.648  1.0267 -3.8723  0.6815
   33MOL0     H 4487   6.428  10.425   2.060  1.9478 -0.9485 -1.0513
   33MOL0     H 4488   6.363  10.560   1.976 -0.7948 -0.7360 -4.3351
   33MOL0     H 4489   6.608  10.414   1.870 -1.4246 -0.2821  0.1819
   33MOL0     H 4490   6.568  10.584   1.835  0.3639  0.6366  0.9135
   33MOL0     H 4491   6.629  10.648   2.074  2.2584  0.0580  2.1800
   33MOL0     H 4492   6.662  10.476   2.109  3.4062 -0.1568 -0.5651
   33MOL0     H 4493   6.821  10.492   1.913  0.1486 -0.8810  1.5497
   33MOL0     H 4494   6.799  10.669   1.917 -0.1363 -0.3510 -0.8752
   33MOL0     H 4495   6.896  10.490   2.148  1.4150  0.2087  1.5590
   33MOL0     H 4496   6.876  10.666   2.143 -0.4018 -2.4608  3.4992
   33MOL0     H 4497   7.073  10.505   1.972  2.4094  2.2891 -0.2648
   33MOL0     H 4498   7.059  10.682   1.996  1.5680 -0.5175  0.0436
   33MOL0     H 4499   7.138  10.491   2.217  2.1940  0.0143 -0.2608
   33MOL0     H 4500   7.112  10.656   2.237  1.1503  1.6670 -0.2390
   33MOL0     H 4501   7.275  10.715   2.050  1.8668  0.5421  1.9417
   33MOL0     H 4502   7.355  10.637   2.194  1.6445 -1.5827  0.3908
   33MOL0     H 4503   7.321  10.331   2.150  0.6587  0.1634  0.7098
   33MOL0     H 4504   7.536  10.183   1.874 -0.7600  2.3643 -0.9072
   33MOL0     H 4505   7.380  10.131   1.944 -0.7256  2.5835 -1.0505
   33MOL0     H 4506   7.607  10.231   2.119  0.8379 -1.0004  1.6342
   33MOL0     H 4507   7.468  10.135   2.174  1.0633  1.9706  0.8328
   33MOL0     H 4508   7.587   9.950   2.174 -1.2368  1.2686  1.6710
   33MOL0     H 4509   7.577   9.964   1.993  1.1018 -0.7352  0.7281
   33MOL0     H 4510   7.786  10.108   2.011 -3.7140  0.3787 -0.4064
   33MOL0     H 4511   7.782  10.059   2.181 -0.0408 -0.8536  0.1921
   33MOL0     H 4512   8.019  10.082   2.057  0.4252 -0.4962 -2.7095
   33MOL0     H 4513   8.362  10.065   2.027  1.0721 -0.8225  0.8628
   33MOL0     H 4514   8.321  10.066   2.200  2.1411 -0.6847 -1.7309
   33MOL0     H 4515   8.222  10.164   2.083 -0.6197  0.5985 -0.5209
   33MOL0     H 4516   8.603  10.012   2.253 -0.9752  0.1283 -0.9675
   33MOL0     H 4517   8.867   9.990   2.277  2.6297 -0.4623 -4.1192
   33MOL0     H 4518   9.173   9.672   2.283 -0.8156 -0.4572  1.1652
   33MOL0     H 4519   9.027   9.570   2.301 -2.6127 -0.4094 -0.8330
   33MOL0     H 4520   8.994   9.601   2.053 -1.5001  1.6337  2.3490
   33MOL0     H 4521   9.144   9.713   2.050 -0.6323  0.2840 -2.5921
   33MOL0     H 4522   9.163   9.457   1.976 -1.8450 -1.5181  0.6096
   33MOL0     H 4523   9.136   9.417   2.135 -1.0360 -0.9706 -1.6879
   33MOL0     H 4524   9.316   9.534   2.230  1.5914 -1.7246  0.6798
   33MOL0     H 4525   9.350   9.598   2.064 -2.1029 -0.8718 -1.4991
   33MOL0     H 4526   9.350   9.299   2.133 -2.5761  0.9593  0.4132
   33MOL0     H 4527   9.396   9.380   1.980 -2.5199  1.0321  0.3388
   33MOL0     H 4528   9.526   9.416   2.259 -2.8151  2.7145 -0.6282
   33MOL0     H 4529   9.579   9.519   2.124 -1.8337  1.9356  2.5723
   33MOL0     H 4530   9.742   9.327   2.122  0.7691 -0.9326 -1.3609
   33MOL0     H 4531   9.629   9.301   1.994  1.0452  2.3672  0.0029
   33MOL0     H 4532   9.681   9.085   2.140  0.2457  1.8839 -0.4345
   33MOL0     H 4533   9.509   9.118   2.134 -0.5241 -0.8279 -0.9878
   33MOL0     H 4534   8.835   9.565   2.204  0.1268 -0.2281 -2.4935
   33MOL0     H 4535   8.581   9.601   2.182 -2.7989  1.8891 -2.4256
   33MOL0     H 4536   8.167   9.614   2.060  2.8441  0.4224 -0.1254
   33MOL0     H 4537   7.930   9.668   2.056 -0.5270  0.7141  1.0917
   33MOL0     H 4538   6.176  10.401   2.059  0.4061  1.6203 -1.6215
   33MOL0     H 4539   5.936  10.364   2.013 -0.1525  0.3566  0.5064
   33MOL0     H 4540   5.549  10.036   1.895 -1.4934 -0.7172  2.2204
   33MOL0     H 4541   5.341  10.087   1.915 -0.3080 -0.5314 -2.3231
   33MOL0     H 4542   5.180  10.165   1.726  2.9468  1.5680  1.4606
   33MOL0     H 4543   5.135  10.135   1.898  2.4096  2.5126  2.5790
   33MOL0     H 4544   4.942  10.142   1.741 -0.0807 -0.2832  0.6385
   33MOL0     H 4545   4.995  10.303   1.687 -1.0514  1.4063  0.5029
   33MOL0     H 4546   4.911  10.216   1.976  3.6794 -0.3236 -0.1772
   33MOL0     H 4547   4.984  10.365   1.946  0.6394 -1.5128  1.8377
   33MOL0     H 4548   4.703  10.324   1.924  1.0414 -2.2555  0.2484
   33MOL0     H 4549   4.755  10.299   1.753  0.0377 -1.5144  0.6796
   33MOL0     H 4550   4.777  10.720   1.827  0.0265 -0.4522  1.0670
   33MOL0     H 4551   5.389  10.481   1.766 -2.4612 -0.9536 -0.2569
   33MOL0     H 4552   5.693  10.505   1.690 -1.4514 -0.1333 -0.9594
   33MOL0     H 4553   5.589  10.587   1.798 -0.2871  0.6748 -3.1719
   33MOL0     H 4554   5.724  10.500   1.867 -0.1319 -1.0667 -0.4820
   34MOL0     O 4555   9.263   3.731   6.917  0.6189  0.2068 -0.5509
   34MOL0     C 4556   9.233   3.730   7.038 -0.8195  0.4093  0.2065
   34MOL0     O 4557   9.325   3.723   7.138 -0.4677 -0.5153 -0.8379
   34MOL0     C 4558   9.461   3.747   7.108  0.1371 -0.4598  0.1995
   34MOL0     C 4559   9.547   3.650   7.067  0.2562 -0.5603 -0.9265
   34MOL0     C 4560   9.681   3.667   7.074  1.2076  0.3287  0.4273
   34MOL0     C 4561   9.742   3.789   7.108  0.4635 -0.6210 -0.1221
   34MOL0     O 4562   9.879   3.823   7.120 -0.1658  0.6249  0.7712
   34MOL0     C 4563   9.972   3.720   7.094 -0.0228  1.1748  0.5240
   34MOL0     C 4564  10.101   3.740   7.173 -0.1469  0.0650 -0.5854
   34MOL0     C 4565  10.147   3.884   7.184  0.1411  0.0527  0.0208
   34MOL0     C 4566  10.276   3.903   7.266  0.1229  0.2418  0.0743
   34MOL0     C 4567  10.327   4.050   7.270 -0.3668  0.0365 -0.5222
   34MOL0     C 4568  10.259   4.114   7.389 -0.3603  0.5714 -0.9593
   34MOL0     C 4569  10.310   4.257   7.421  0.0676 -0.2564 -0.4198
   34MOL0     C 4570  10.445   4.302   7.353  0.4489 -0.2408  0.2073
   34MOL0     N 4571  10.482   4.440   7.386  0.1988 -0.1471  0.6242
   34MOL0     C 4572  10.618   4.479   7.396  0.3274 -1.2293 -0.6715
   34MOL0     C 4573  10.608   4.617   7.416  0.1457 -1.0614  0.2213
   34MOL0     C 4574  10.726   4.704   7.431 -0.0783 -0.5486 -0.4094
   34MOL0     C 4575  10.818   4.710   7.304 -0.3657  0.4486 -0.9783
   34MOL0     C 4576  10.903   4.837   7.328 -0.2244  0.0514  0.1358
   34MOL0     C 4577  10.983   4.834   7.464 -0.2634  0.2771  0.0278
   34MOL0     O 4578  11.062   4.714   7.471  0.1369  0.1673 -0.3167
   34MOL0     C 4579  11.186   4.726   7.534  0.2625  0.0533  0.3308
   34MOL0     C 4580  11.202   4.798   7.652 -0.5126 -0.5242 -1.1374
   34MOL0     C 4581  11.322   4.811   7.730 -0.7487 -0.2882  1.0013
   34MOL0     C 4582  11.316   4.915   7.842  0.1369 -0.2388  0.4382
   34MOL0     C 4583  11.442   4.749   7.676  0.6280 -0.5150 -0.2337
   34MOL0     C 4584  11.576   4.760   7.735  0.0855  0.3954  0.1744
   34MOL0     O 4585  11.677   4.697   7.673  0.2916 -0.0682  0.2028
   34MOL0     C 4586  11.811   4.736   7.694 -0.4896  0.5224  0.2773
   34MOL0     C 4587  11.849   4.870   7.730 -0.1082 -0.6345 -0.5653
   34MOL0     C 4588  11.979   4.900   7.765 -0.0353 -0.1596  0.4005
   34MOL0     C 4589  12.083   4.809   7.762  0.5914 -0.4735  0.4151
   34MOL0     O 4590  12.209   4.834   7.786 -0.0486 -0.1265 -0.7136
   34MOL0     C 4591  12.262   4.786   7.908  0.0221 -0.0629 -0.3614
   34MOL0     C 4592  12.364   4.898   7.936 -0.3599 -0.4767 -0.0113
   34MOL0     C 4593  12.437   4.884   8.061  0.1768 -0.1392 -0.6846
   34MOL0     C 4594  12.563   4.976   8.070 -0.3027 -0.7562 -0.4804
   34MOL0     C 4595  12.619   4.974   8.214  0.1895  0.4620  0.2678
   34MOL0     C 4596  12.726   5.085   8.213  0.3199  1.0966  0.7559
   34MOL0     C 4597  12.816   5.097   8.333  0.2344 -0.4024 -0.7612
   34MOL0     C 4598  12.892   5.226   8.310  0.0768  0.4362  0.2715
   34MOL0    Cl 4599  13.018   5.201   8.175  0.0212  0.1718  0.0067
   34MOL0     C 4600  12.053   4.673   7.732  0.0886  0.1191  0.4208
   34MOL0     C 4601  11.915   4.638   7.695 -0.7144 -1.1066 -0.2703
   34MOL0     O 4602  11.584   4.819   7.844  0.3962  0.1822  0.2943
   34MOL0     C 4603  11.428   4.681   7.548  0.6240  0.3271 -0.0732
   34MOL0     C 4604  11.300   4.666   7.487  0.6384  0.8435 -0.6949
   34MOL0     N 4605  10.477   4.664   7.394  0.1190 -0.3482 -0.0456
   34MOL0     N 4606  10.399   4.561   7.380 -0.2117  1.2504 -0.8605
   34MOL0     C 4607   9.660   3.886   7.149  1.0381  0.8909  0.8152
   34MOL0     C 4608   9.517   3.868   7.151 -0.6044  0.9654 -0.2984
   34MOL0     C 4609   9.084   3.730   7.073 -0.4507 -0.2160 -0.6442
   34MOL0     C 4610   8.995   3.706   6.970  0.4531  0.4196  0.0217
   34MOL0     C 4611   8.852   3.703   6.990 -0.5583 -0.5877  0.4481
   34MOL0     C 4612   8.803   3.714   7.111  0.7086  0.1204 -0.5736
   34MOL0     O 4613   8.662   3.717   7.121 -0.3638  0.1246  0.3271
   34MOL0     C 4614   8.607   3.692   7.250 -0.1494  0.2196  0.6194
   34MOL0     C 4615   8.455   3.701   7.225 -0.0225  0.4106 -0.8136
   34MOL0     C 4616   8.365   3.700   7.346  0.1461  0.0615 -0.2097
   34MOL0     C 4617   8.398   3.600   7.454 -0.8225  0.0786  0.1368
   34MOL0     C 4618   8.416   3.469   7.404 -0.5142  0.1765  0.0821
   34MOL0     C 4619   8.450   3.359   7.348 -0.2041 -0.6471 -0.3498
   34MOL0     C 4620   8.895   3.735   7.221 -0.2202 -0.2296  0.6659
   34MOL0     C 4621   9.030   3.748   7.208  0.0227  1.0274  1.2540
   34MOL0     C 4622   9.108   3.791   7.332  0.4531 -0.0233  0.1413
   34MOL0     H 4623   9.518   3.548   7.045  0.4104 -0.8793  0.2837
   34MOL0     H 4624   9.746   3.589   7.036  0.6016 -1.9421  3.6241
   34MOL0     H 4625   9.995   3.721   6.987 -0.1014 -0.8135  0.4380
   34MOL0     H 4626   9.933   3.620   7.119  1.5733  0.3770 -0.0543
   34MOL0     H 4627  10.081   3.709   7.276 -0.4687 -0.2756 -0.7514
   34MOL0     H 4628  10.173   3.675   7.123 -2.6223 -0.4254 -3.7628
   34MOL0     H 4629  10.156   3.925   7.083  0.5099  1.9285  0.7666
   34MOL0     H 4630  10.072   3.947   7.233 -0.5113  0.5411 -1.5399
   34MOL0     H 4631  10.256   3.862   7.365 -3.3695  2.7067  0.5711
   34MOL0     H 4632  10.353   3.847   7.211 -0.5005 -0.1210 -0.4398
   34MOL0     H 4633  10.304   4.101   7.176 -1.8309  2.3717  0.9866
   34MOL0     H 4634  10.436   4.056   7.272  0.0388 -0.8422 -6.0750
   34MOL0     H 4635  10.150   4.110   7.380 -0.3939 -2.1445 -0.1048
   34MOL0     H 4636  10.282   4.062   7.483 -0.1762  1.4196 -0.5221
   34MOL0     H 4637  10.342   4.266   7.525 -1.8349 -0.1302  0.1960
   34MOL0     H 4638  10.227   4.327   7.411  0.0561 -0.2865 -0.5371
   34MOL0     H 4639  10.520   4.228   7.382  0.1282 -0.4997  0.3846
   34MOL0     H 4640  10.426   4.297   7.245 -0.0577 -0.7541  0.3165
   34MOL0     H 4641  10.708   4.419   7.405  2.4393  1.9391  1.5445
   34MOL0     H 4642  10.776   4.668   7.522  0.1996 -2.2863 -1.2034
   34MOL0     H 4643  10.688   4.804   7.453  0.2134  0.1626 -2.8425
   34MOL0     H 4644  10.882   4.622   7.309 -0.5343  0.3738  2.3044
   34MOL0     H 4645  10.766   4.713   7.208  0.5014  1.5611 -1.4364
   34MOL0     H 4646  10.974   4.843   7.245  2.4483  0.4640  2.2969
   34MOL0     H 4647  10.848   4.931   7.334 -2.6255 -1.3604  1.3710
   34MOL0     H 4648  11.035   4.930   7.455 -1.4774  0.8895 -0.6802
   34MOL0     H 4649  10.922   4.849   7.554 -1.1017  4.0095 -1.0178
   34MOL0     H 4650  11.111   4.848   7.683 -0.9582 -2.3500  0.7214
   34MOL0     H 4651  11.210   4.939   7.859 -0.8992 -2.1586 -2.3930
   34MOL0     H 4652  11.383   4.992   7.804  0.7945 -0.7818  0.4774
   34MOL0     H 4653  11.356   4.874   7.935  0.8561 -0.5115  0.0177
   34MOL0     H 4654  11.776   4.950   7.743  0.3824 -0.5737  2.7007
   34MOL0     H 4655  12.005   5.004   7.783  1.0873 -0.0926 -1.4462
   34MOL0     H 4656  12.187   4.784   7.987  0.7093  3.1177  0.5311
   34MOL0     H 4657  12.311   4.689   7.902  1.9703  0.8643 -0.3993
   34MOL0     H 4658  12.433   4.904   7.852 -2.0266 -2.0209 -1.5798
   34MOL0     H 4659  12.333   5.002   7.928  0.5911 -0.1057  0.7606
   34MOL0     H 4660  12.472   4.781   8.073  3.9412  1.1071  0.3888
   34MOL0     H 4661  12.373   4.903   8.147 -0.9382  1.4463 -1.7942
   34MOL0     H 4662  12.537   5.079   8.044 -2.4459 -0.9215  0.7809
   34MOL0     H 4663  12.643   4.939   8.005  2.1443 -0.3859  2.1325
   34MOL0     H 4664  12.533   4.976   8.281 -0.7688 -1.5834 -0.8071
   34MOL0     H 4665  12.658   4.873   8.230 -0.2664  0.1305 -0.6194
   34MOL0     H 4666  12.664   5.172   8.189 -1.0372 -0.4576 -1.7338
   34MOL0     H 4667  12.795   5.069   8.130 -0.5385 -0.5819  0.3128
   34MOL0     H 4668  12.889   5.017   8.350  1.0231  0.5253  0.4177
   34MOL0     H 4669  12.747   5.103   8.418 -3.3913 -0.2775 -3.4563
   34MOL0     H 4670  12.942   5.256   8.402  1.1344 -0.7909  0.1140
   34MOL0     H 4671  12.832   5.309   8.272  2.4803  1.4302 -1.6323
   34MOL0     H 4672  12.132   4.599   7.730 -1.6569 -2.1190 -5.0892
   34MOL0     H 4673  11.884   4.537   7.671  0.7394 -1.2151 -1.8692
   34MOL0     H 4674  11.524   4.652   7.509  0.9793  3.2320 -1.6506
   34MOL0     H 4675  11.287   4.607   7.396 -1.2107  0.3671 -0.1817
   34MOL0     H 4676   9.697   3.981   7.187 -0.2817  1.0444  1.8170
   34MOL0     H 4677   9.458   3.945   7.199  0.3623  1.0423  0.8136
   34MOL0     H 4678   9.021   3.681   6.868 -0.9060  1.7065 -0.6832
   34MOL0     H 4679   8.781   3.691   6.909 -1.3815 -1.4916  1.2734
   34MOL0     H 4680   8.634   3.592   7.287 -0.3500 -0.8595 -1.9046
   34MOL0     H 4681   8.629   3.772   7.320 -1.7754 -0.6584  2.2174
   34MOL0     H 4682   8.417   3.619   7.163 -4.3133  1.2884  0.2775
   34MOL0     H 4683   8.439   3.793   7.168  1.0162  0.5159 -0.9461
   34MOL0     H 4684   8.363   3.801   7.388  2.3657  0.8830 -1.8771
   34MOL0     H 4685   8.263   3.681   7.311  0.2917 -0.6373 -0.2701
   34MOL0     H 4686   8.316   3.588   7.526 -3.6856  4.9673 -1.7991
   34MOL0     H 4687   8.488   3.638   7.503  0.8197 -0.9276 -1.9697
   34MOL0     H 4688   8.484   3.274   7.291  0.6974 -1.5811  1.4821
   34MOL0     H 4689   8.851   3.760   7.318 -0.5921 -1.3577  0.8081
   34MOL0     H 4690   9.041   3.826   7.411  1.9945 -0.0424  1.5360
   34MOL0     H 4691   9.175   3.715   7.376  0.1899 -1.7721 -2.2861
   34MOL0     H 4692   9.179   3.870   7.304 -0.0412  0.4720  0.2863
   35MOL0     O 4693   3.127   6.629   5.413 -0.0048 -0.3373  0.3898
   35MOL0     C 4694   3.148   6.519   5.462 -0.8027  0.7811  0.4563
   35MOL0     O 4695   3.060   6.414   5.465  0.2722 -0.0893 -0.0900
   35MOL0     C 4696   2.935   6.430   5.405 -0.7365 -0.2982 -1.3064
   35MOL0     C 4697   2.893   6.365   5.287  0.7706  0.1191  0.3859
   35MOL0     C 4698   2.758   6.358   5.270 -0.2634 -0.7036  0.4575
   35MOL0     C 4699   2.664   6.415   5.353  0.7662 -0.6094  0.0763
   35MOL0     O 4700   2.531   6.407   5.315  0.4136  0.3399 -0.1863
   35MOL0     C 4701   2.436   6.407   5.424  0.5197 -0.4581 -0.3704
   35MOL0     C 4702   2.325   6.310   5.359 -0.0569  0.3789  0.5090
   35MOL0     C 4703   2.176   6.345   5.390 -0.2752  0.1229 -0.5884
   35MOL0     C 4704   2.115   6.448   5.301 -0.9050 -0.5902  0.1956
   35MOL0     C 4705   1.972   6.479   5.315 -0.5702 -0.6158 -0.7039
   35MOL0     C 4706   1.924   6.571   5.201  1.3398 -0.5919 -0.0504
   35MOL0     C 4707   1.784   6.620   5.241  0.5474 -0.1543  0.3107
   35MOL0     C 4708   1.703   6.677   5.133  0.8129 -0.0525 -0.2894
   35MOL0     N 4709   1.771   6.797   5.082  0.0754  0.3028  0.6174
   35MOL0     C 4710   1.808   6.901   5.166 -0.3899  0.4130  0.2815
   35MOL0     C 4711   1.814   7.011   5.092  0.4666  0.6261  0.0208
   35MOL0     C 4712   1.842   7.151   5.138  0.2936  0.4285  0.7679
   35MOL0     C 4713   1.981   7.207   5.084  0.1349 -0.7938  0.7545
   35MOL0     C 4714   1.944   7.273   4.951 -0.7510  0.4460  0.1337
   35MOL0     C 4715   2.069   7.304   4.872 -1.3505  0.4417 -0.1437
   35MOL0     O 4716   2.177   7.364   4.950  0.2693 -0.6442 -0.0323
   35MOL0     C 4717   2.310   7.371   4.902 -0.2113  0.4434 -0.3169
   35MOL0     C 4718   2.398   7.459   4.966 -0.5947 -0.6241  0.1035
   35MOL0     C 4719   2.539   7.472   4.943  0.5713  0.0048 -0.4709
   35MOL0     C 4720   2.624   7.568   5.028  0.3528 -0.6295 -0.4710
   35MOL0     C 4721   2.586   7.385   4.840  0.3134  0.4096  0.2235
   35MOL0     C 4722   2.733   7.376   4.808  1.0452 -0.2357 -0.4508
   35MOL0     O 4723   2.830   7.412   4.901 -0.1862 -0.1395 -0.2021
   35MOL0     C 4724   2.959   7.379   4.882 -0.0440 -0.0895 -0.3626
   35MOL0     C 4725   3.048   7.472   4.827  0.6574  0.2478  0.3404
   35MOL0     C 4726   3.173   7.429   4.810 -0.3940 -0.0590 -0.1199
   35MOL0     C 4727   3.224   7.305   4.844 -0.0022 -0.1055 -0.1347
   35MOL0     O 4728   3.359   7.268   4.831  0.3413  0.0738 -0.3873
   35MOL0     C 4729   3.451   7.347   4.759 -0.2704 -0.1420  0.3589
   35MOL0     C 4730   3.575   7.257   4.739  0.1253 -0.1309  0.6391
   35MOL0     C 4731   3.641   7.213   4.872 -0.1946  0.1377  0.3146
   35MOL0     C 4732   3.755   7.109   4.859 -0.6600 -0.5884 -0.0439
   35MOL0     C 4733   3.893   7.155   4.824  0.5742 -0.0580 -0.3685
   35MOL0     C 4734   4.010   7.065   4.876 -0.1234  0.3201 -0.4713
   35MOL0     C 4735   4.048   7.113   5.010  0.0080 -0.5451 -0.8124
   35MOL0     C 4736   4.146   7.020   5.090  0.0980 -0.5566  0.1675
   35MOL0    Cl 4737   4.171   7.082   5.262 -0.2544  0.3435 -0.2415
   35MOL0     C 4738   3.136   7.219   4.906 -0.1878 -0.1453 -0.8127
   35MOL0     C 4739   2.999   7.253   4.927 -0.3866 -0.5618  1.3670
   35MOL0     O 4740   2.767   7.322   4.704 -0.3006  0.0562 -0.2714
   35MOL0     C 4741   2.496   7.306   4.763  0.0357 -0.3356 -0.8522
   35MOL0     C 4742   2.357   7.302   4.797 -0.3569  1.0333 -0.1248
   35MOL0     N 4743   1.793   6.967   4.960 -0.5011  0.2495 -0.0252
   35MOL0     N 4744   1.760   6.839   4.960  0.4195 -0.0376  1.1341
   35MOL0     C 4745   2.711   6.491   5.464  0.1119  0.0775 -0.0640
   35MOL0     C 4746   2.841   6.493   5.494 -0.2498  0.1535  0.8607
   35MOL0     C 4747   3.279   6.496   5.520 -0.1076  0.3422  0.6385
   35MOL0     C 4748   3.388   6.571   5.464 -0.1031 -0.2379  0.0375
   35MOL0     C 4749   3.515   6.559   5.505 -0.4307  0.1261 -0.8830
   35MOL0     C 4750   3.548   6.463   5.602 -0.1933  0.4481  0.4253
   35MOL0     O 4751   3.678   6.436   5.652  0.5346  0.3565  0.1849
   35MOL0     C 4752   3.796   6.472   5.581  0.3817  0.2899 -0.6733
   35MOL0     C 4753   3.932   6.449   5.654  0.5235 -0.7554  0.7858
   35MOL0     C 4754   4.041   6.486   5.554  0.3667 -0.7740  0.1438
   35MOL0     C 4755   4.163   6.390   5.574 -0.1837 -0.2713  0.1353
   35MOL0     C 4756   4.233   6.421   5.702 -0.2366  1.2997 -0.1315
   35MOL0     C 4757   4.303   6.461   5.796 -0.0503  0.3190  0.2091
   35MOL0     C 4758   3.446   6.388   5.658 -0.4776  0.4529  0.0040
   35MOL0     C 4759   3.309   6.401   5.621  0.8516  0.8367 -0.1411
   35MOL0     C 4760   3.210   6.308   5.671 -0.3431  0.6230  0.1948
   35MOL0     H 4761   2.965   6.304   5.234  0.0673 -0.5372  0.1731
   35MOL0     H 4762   2.731   6.306   5.179  1.1919 -0.3796 -0.1762
   35MOL0     H 4763   2.386   6.501   5.449 -1.0404 -1.7127  1.4979
   35MOL0     H 4764   2.466   6.370   5.522  1.4630 -0.0826 -0.5061
   35MOL0     H 4765   2.345   6.315   5.252 -0.1324  4.7338  0.4920
   35MOL0     H 4766   2.344   6.206   5.385 -2.7985  0.2887  2.5588
   35MOL0     H 4767   2.115   6.258   5.364  0.1039  0.6599 -3.6188
   35MOL0     H 4768   2.165   6.367   5.497 -0.8722 -1.3681 -0.3234
   35MOL0     H 4769   2.179   6.535   5.318 -0.7063 -0.3638 -1.5631
   35MOL0     H 4770   2.129   6.413   5.198 -1.8426 -0.7332  0.1024
   35MOL0     H 4771   1.968   6.530   5.412 -0.8398  0.7616 -1.4167
   35MOL0     H 4772   1.908   6.391   5.304 -0.7473 -0.3345 -2.0096
   35MOL0     H 4773   1.979   6.664   5.183  1.0949 -0.0261  1.8405
   35MOL0     H 4774   1.939   6.511   5.111  1.2741 -1.7864  0.7147
   35MOL0     H 4775   1.795   6.697   5.318 -0.4658  1.4748 -1.1023
   35MOL0     H 4776   1.736   6.533   5.285  0.2674 -0.8881 -1.3765
   35MOL0     H 4777   1.674   6.601   5.060 -3.2852 -0.1426  1.1548
   35MOL0     H 4778   1.603   6.715   5.158 -1.4157 -3.6233 -2.8356
   35MOL0     H 4779   1.832   6.895   5.272  2.4709 -0.4143 -0.3266
   35MOL0     H 4780   1.842   7.144   5.248 -2.0711  0.8343  0.8384
   35MOL0     H 4781   1.764   7.221   5.109 -0.3051 -0.2487  0.7254
   35MOL0     H 4782   2.027   7.288   5.141 -1.1075 -0.1153  0.8434
   35MOL0     H 4783   2.054   7.129   5.065  1.3797  0.3129  0.8836
   35MOL0     H 4784   1.872   7.210   4.899  0.8887 -0.5741 -1.0119
   35MOL0     H 4785   1.900   7.371   4.970 -0.5862  1.4211 -3.8012
   35MOL0     H 4786   2.106   7.205   4.843  0.3463  0.9861  0.0382
   35MOL0     H 4787   2.048   7.365   4.783 -0.5599 -0.6985 -1.1429
   35MOL0     H 4788   2.354   7.509   5.052  1.2798 -1.1034  1.4068
   35MOL0     H 4789   2.699   7.507   5.080  1.3301 -0.0795 -1.2040
   35MOL0     H 4790   2.562   7.616   5.105  0.5148 -1.0737 -0.0529
   35MOL0     H 4791   2.664   7.641   4.958  0.8726 -1.8503 -1.4831
   35MOL0     H 4792   3.030   7.577   4.805 -1.5273 -0.5169 -2.0285
   35MOL0     H 4793   3.235   7.512   4.778 -3.9765  3.0932  0.4147
   35MOL0     H 4794   3.410   7.378   4.662  1.2528 -0.0938 -0.2963
   35MOL0     H 4795   3.484   7.427   4.826 -1.1181 -0.2524  0.9251
   35MOL0     H 4796   3.541   7.164   4.691 -2.0543  0.8836  0.1085
   35MOL0     H 4797   3.651   7.319   4.692  0.7309 -0.9223  0.5499
   35MOL0     H 4798   3.561   7.172   4.934  1.2739  0.7367  2.7602
   35MOL0     H 4799   3.685   7.295   4.931 -1.4608 -0.7954  2.7081
   35MOL0     H 4800   3.720   7.034   4.787 -0.9790 -0.6492  0.1681
   35MOL0     H 4801   3.752   7.056   4.956 -0.0708  0.0284  0.3154
   35MOL0     H 4802   3.883   7.169   4.716  1.0220  1.6056 -0.2184
   35MOL0     H 4803   3.903   7.256   4.867 -3.1183 -0.2636  1.3675
   35MOL0     H 4804   4.095   7.061   4.807 -1.5049 -3.0539 -2.2131
   35MOL0     H 4805   3.975   6.962   4.877 -0.7589  0.5174  1.4326
   35MOL0     H 4806   3.960   7.140   5.070  0.7327  0.3195 -0.1143
   35MOL0     H 4807   4.102   7.207   5.003 -0.5367 -0.1833 -0.3096
   35MOL0     H 4808   4.239   7.016   5.033  1.1541 -1.8225  1.8892
   35MOL0     H 4809   4.100   6.921   5.087  4.2210 -2.7253 -3.8056
   35MOL0     H 4810   3.178   7.128   4.947  0.7592 -0.3511 -2.1695
   35MOL0     H 4811   2.916   7.197   4.968 -0.8068  0.0673  1.3797
   35MOL0     H 4812   2.524   7.228   4.693 -2.1313 -0.5481 -1.5714
   35MOL0     H 4813   2.293   7.250   4.726 -1.5711  1.5083  0.5936
   35MOL0     H 4814   2.648   6.540   5.538  0.4397  1.4920 -0.6951
   35MOL0     H 4815   2.872   6.553   5.579  3.2883  1.6725 -1.2845
   35MOL0     H 4816   3.372   6.651   5.393 -2.0382 -1.2332 -0.7463
   35MOL0     H 4817   3.598   6.619   5.470  0.0547 -0.2493 -0.3853
   35MOL0     H 4818   3.797   6.416   5.487  0.6635 -2.5808  0.8895
   35MOL0     H 4819   3.790   6.578   5.556  4.0174  0.5599 -0.9153
   35MOL0     H 4820   3.932   6.347   5.693 -0.4048  0.0637  3.1523
   35MOL0     H 4821   3.933   6.523   5.735  0.0182  0.4585 -0.2952
   35MOL0     H 4822   4.008   6.478   5.451  0.1354 -0.0560  0.1549
   35MOL0     H 4823   4.071   6.592   5.555 -1.1386 -0.3204  0.9394
   35MOL0     H 4824   4.230   6.398   5.488 -0.6953 -0.3568 -0.2723
   35MOL0     H 4825   4.132   6.286   5.573  1.8219 -0.9070  0.1738
   35MOL0     H 4826   4.362   6.475   5.884 -0.3484  0.0545  0.4512
   35MOL0     H 4827   3.473   6.307   5.724 -1.9368 -0.1240 -0.0653
   35MOL0     H 4828   3.209   6.210   5.622  1.0214  0.4466  0.4793
   35MOL0     H 4829   3.219   6.292   5.778 -3.9584  0.8934  0.6798
   35MOL0     H 4830   3.106   6.342   5.671 -1.4334 -2.4054  0.6278
   36MOL0     O 4831   9.529   2.557   5.942 -0.7604  0.3321  0.5595
   36MOL0     C 4832   9.587   2.471   5.997  0.0243  0.1894  0.0569
   36MOL0     O 4833   9.677   2.499   6.086 -0.1379 -0.4340 -0.4285
   36MOL0     C 4834   9.771   2.595   6.072  1.0104 -0.8962  0.1787
   36MOL0     C 4835   9.821   2.642   6.186 -0.3477 -0.1180 -0.0908
   36MOL0     C 4836   9.923   2.734   6.183  0.5284 -0.5224  0.3916
   36MOL0     C 4837   9.971   2.779   6.059 -0.5712  0.3029 -0.2625
   36MOL0     O 4838  10.057   2.885   6.047  0.3040 -0.5839 -0.4204
   36MOL0     C 4839  10.095   2.952   6.171  0.0556 -0.4363 -0.2564
   36MOL0     C 4840  10.196   3.063   6.143 -0.2756  0.2404 -1.0080
   36MOL0     C 4841  10.340   3.022   6.122  0.0580  0.0840 -0.9836
   36MOL0     C 4842  10.407   2.988   6.257 -0.6033  0.1544 -0.1844
   36MOL0     C 4843  10.547   2.938   6.219 -0.7136  0.6046  0.3317
   36MOL0     C 4844  10.635   2.928   6.346  0.9172  0.1082  1.1748
   36MOL0     C 4845  10.781   2.862   6.338  1.0520 -0.0902 -0.5728
   36MOL0     C 4846  10.883   2.945   6.263  0.5608  0.1249 -0.8941
   36MOL0     N 4847  11.013   2.926   6.328  0.5218 -0.9371 -0.2709
   36MOL0     C 4848  11.087   2.820   6.307  0.1363  0.5973 -0.7977
   36MOL0     C 4849  11.218   2.868   6.298 -0.3824  0.4554 -0.1291
   36MOL0     C 4850  11.341   2.782   6.265  0.4214 -0.4401 -0.3543
   36MOL0     C 4851  11.431   2.848   6.165  0.0693 -0.7900 -0.0236
   36MOL0     C 4852  11.361   2.885   6.035 -0.0715 -0.5777 -0.2937
   36MOL0     C 4853  11.472   2.900   5.934 -0.0238  0.0401 -0.5336
   36MOL0     O 4854  11.530   3.032   5.958  0.1586 -0.0378  0.7328
   36MOL0     C 4855  11.607   3.084   5.862 -0.4734  1.1429  0.4762
   36MOL0     C 4856  11.641   3.216   5.883 -0.3145  0.7803  0.7615
   36MOL0     C 4857  11.730   3.285   5.805 -0.1594 -0.4013  0.8231
   36MOL0     C 4858  11.785   3.420   5.840  0.8165 -0.4677 -0.8286
   36MOL0     C 4859  11.782   3.208   5.698 -0.6608  0.3407 -0.0684
   36MOL0     C 4860  11.885   3.266   5.599 -1.0597  0.4848 -0.3239
   36MOL0     O 4861  11.973   3.359   5.645  0.6099 -0.4147 -0.2255
   36MOL0     C 4862  12.070   3.403   5.569  0.0653 -0.2923 -0.3500
   36MOL0     C 4863  12.104   3.537   5.594  0.5571 -0.2428  0.3362
   36MOL0     C 4864  12.227   3.585   5.548 -0.4400  0.3667  0.8374
   36MOL0     C 4865  12.320   3.501   5.481  0.5779  0.2056 -0.7597
   36MOL0     O 4866  12.443   3.552   5.440  0.4454 -0.1726  0.9880
   36MOL0     C 4867  12.523   3.610   5.542 -0.1809  0.3645  0.1732
   36MOL0     C 4868  12.652   3.657   5.484 -0.1112  1.6471 -0.6248
   36MOL0     C 4869  12.636   3.765   5.373  0.0110  0.2396 -0.0632
   36MOL0     C 4870  12.567   3.895   5.413 -0.3837  0.4790 -0.0617
   36MOL0     C 4871  12.656   3.993   5.491 -0.6881 -0.1131 -0.7244
   36MOL0     C 4872  12.787   4.054   5.430 -0.2930 -0.4330  0.3632
   36MOL0     C 4873  12.755   4.142   5.301 -0.5652 -0.0920  0.8838
   36MOL0     C 4874  12.828   4.101   5.164  0.0352  0.2018 -0.7219
   36MOL0    Cl 4875  12.994   4.169   5.166  0.1962  0.3682 -0.6820
   36MOL0     C 4876  12.277   3.374   5.450 -0.2140  0.8396  0.7931
   36MOL0     C 4877  12.158   3.326   5.494  0.4473  0.7838 -0.1934
   36MOL0     O 4878  11.880   3.221   5.482  0.0530  0.2858  0.7068
   36MOL0     C 4879  11.744   3.075   5.665  0.0845  0.0682  0.6716
   36MOL0     C 4880  11.667   3.015   5.756  0.8958  0.7221  0.2684
   36MOL0     N 4881  11.222   3.000   6.341 -0.1380  0.6009  0.4345
   36MOL0     N 4882  11.095   3.030   6.339 -0.1035 -0.6822  0.4777
   36MOL0     C 4883   9.913   2.729   5.946 -0.6024 -0.7133  0.6342
   36MOL0     C 4884   9.805   2.647   5.945 -0.5288  0.1348  0.1410
   36MOL0     C 4885   9.537   2.335   5.967 -1.4360  0.7211 -0.5242
   36MOL0     C 4886   9.413   2.316   5.904  0.0900 -0.3979 -0.4518
   36MOL0     C 4887   9.368   2.185   5.882 -0.6501 -0.1222  0.2666
   36MOL0     C 4888   9.451   2.075   5.909  0.1658 -0.1064  0.2512
   36MOL0     O 4889   9.402   1.944   5.902  0.1524  0.3265 -0.2474
   36MOL0     C 4890   9.491   1.845   5.845 -0.3388 -0.2245  0.3639
   36MOL0     C 4891   9.419   1.738   5.761 -0.1374  0.1815  0.0393
   36MOL0     C 4892   9.518   1.653   5.678 -0.3958  0.0005 -0.7438
   36MOL0     C 4893   9.578   1.724   5.552  0.6790  0.9798  0.6058
   36MOL0     C 4894   9.695   1.652   5.498 -0.2285  0.2126 -0.5923
   36MOL0     C 4895   9.789   1.594   5.462 -0.0965 -0.9437 -0.2032
   36MOL0     C 4896   9.582   2.095   5.957  1.1671  0.4919  0.5086
   36MOL0     C 4897   9.626   2.221   5.981  0.5695  0.0860  0.4488
   36MOL0     C 4898   9.762   2.225   6.039 -0.7053  1.2954 -0.9699
   36MOL0     H 4899   9.792   2.598   6.280 -1.7963 -0.0971 -0.5038
   36MOL0     H 4900   9.952   2.769   6.281 -0.2887 -0.3887  0.5933
   36MOL0     H 4901  10.128   2.888   6.253 -2.1919  0.1620  1.2166
   36MOL0     H 4902  10.009   3.008   6.209 -0.2668  0.1499 -1.7834
   36MOL0     H 4903  10.171   3.113   6.049  0.3703 -1.1594 -1.9620
   36MOL0     H 4904  10.204   3.137   6.223  2.7232  1.4562 -2.2796
   36MOL0     H 4905  10.343   2.934   6.056  1.1183 -0.2076 -0.5622
   36MOL0     H 4906  10.387   3.103   6.066 -0.0430  1.4143  0.7783
   36MOL0     H 4907  10.427   3.075   6.320  3.6861  1.7990 -3.3458
   36MOL0     H 4908  10.363   2.908   6.317  2.3220 -2.1841 -0.9288
   36MOL0     H 4909  10.592   2.999   6.140 -2.2992  0.9513 -0.3369
   36MOL0     H 4910  10.536   2.837   6.177  4.2302 -1.0738  2.3204
   36MOL0     H 4911  10.637   3.026   6.395 -1.9541  1.0616 -0.3964
   36MOL0     H 4912  10.584   2.862   6.418  1.3579  0.5989  1.9574
   36MOL0     H 4913  10.775   2.763   6.290  1.8983  0.9988 -3.0862
   36MOL0     H 4914  10.821   2.850   6.439  3.3414 -0.4715 -1.4713
   36MOL0     H 4915  10.890   2.918   6.157 -1.4395 -0.1524 -0.9950
   36MOL0     H 4916  10.855   3.050   6.276 -0.8288 -0.4321  1.0719
   36MOL0     H 4917  11.065   2.717   6.282 -0.9539  0.3699  0.9462
   36MOL0     H 4918  11.312   2.686   6.221  0.5384 -0.8529  0.4453
   36MOL0     H 4919  11.394   2.768   6.360 -0.2409  0.8119  0.2265
   36MOL0     H 4920  11.478   2.938   6.205  1.4565 -2.2713  1.9244
   36MOL0     H 4921  11.520   2.788   6.144  0.2086 -0.2284 -1.0874
   36MOL0     H 4922  11.287   2.812   6.000 -3.8965  2.5921  0.4473
   36MOL0     H 4923  11.304   2.978   6.041  2.9089  1.3237  0.7967
   36MOL0     H 4924  11.556   2.832   5.950  1.1596  2.2163  3.6399
   36MOL0     H 4925  11.433   2.881   5.833  0.2123  0.3537 -0.6874
   36MOL0     H 4926  11.605   3.270   5.971  2.0165  3.7481  0.0711
   36MOL0     H 4927  11.893   3.422   5.857  0.5436  0.1113  1.0373
   36MOL0     H 4928  11.737   3.457   5.931 -0.5326 -2.3035 -0.7411
   36MOL0     H 4929  11.766   3.495   5.762  0.0320 -0.8901 -1.0600
   36MOL0     H 4930  12.039   3.609   5.642  1.4771  2.4960 -2.2235
   36MOL0     H 4931  12.264   3.685   5.569 -0.8416  0.8606 -0.7005
   36MOL0     H 4932  12.465   3.692   5.583 -2.2121 -1.3814  0.9872
   36MOL0     H 4933  12.539   3.536   5.622  0.5040  1.4733  1.0898
   36MOL0     H 4934  12.717   3.681   5.568  2.2073  0.9748 -2.1198
   36MOL0     H 4935  12.698   3.566   5.446 -1.4925  0.6915 -0.0630
   36MOL0     H 4936  12.564   3.714   5.308 -2.2184  0.3463  2.1690
   36MOL0     H 4937  12.734   3.787   5.330  0.7960  0.8344  1.9554
   36MOL0     H 4938  12.487   3.870   5.483 -0.6015 -0.1979 -0.5438
   36MOL0     H 4939  12.528   3.950   5.327  3.4861  2.5832 -0.6794
   36MOL0     H 4940  12.595   4.077   5.522  2.6297  1.3634  2.5953
   36MOL0     H 4941  12.679   3.944   5.586 -2.0860  0.5197 -0.0431
   36MOL0     H 4942  12.860   3.981   5.393  1.3935  2.2892 -2.0853
   36MOL0     H 4943  12.843   4.118   5.498 -0.9031  1.0582 -0.4804
   36MOL0     H 4944  12.775   4.246   5.328  1.0113 -0.5663  1.6464
   36MOL0     H 4945  12.648   4.130   5.284 -1.1750  2.6896  2.2997
   36MOL0     H 4946  12.777   4.140   5.075 -1.0065 -1.2737 -0.8129
   36MOL0     H 4947  12.838   3.992   5.156  0.9073  0.2214 -0.0113
   36MOL0     H 4948  12.341   3.302   5.398 -0.7158 -1.1425  2.7834
   36MOL0     H 4949  12.130   3.223   5.480 -0.3765  0.9976 -0.1878
   36MOL0     H 4950  11.778   3.027   5.574  1.0703  1.0634  0.4924
   36MOL0     H 4951  11.648   2.911   5.733  2.6874  0.1659  1.0939
   36MOL0     H 4952   9.930   2.772   5.848 -2.1672 -3.2088 -0.8189
   36MOL0     H 4953   9.758   2.613   5.854 -2.6009 -0.1767  1.2618
   36MOL0     H 4954   9.351   2.404   5.889  1.3584  0.4977 -0.6144
   36MOL0     H 4955   9.263   2.168   5.858 -1.5235 -0.5102  3.7694
   36MOL0     H 4956   9.551   1.899   5.772 -1.4834  1.4530  0.5994
   36MOL0     H 4957   9.557   1.797   5.917  1.4550 -0.9729 -1.6804
   36MOL0     H 4958   9.347   1.787   5.694  0.9636  1.3626 -0.3149
   36MOL0     H 4959   9.363   1.669   5.825  0.8315  0.3022  1.0396
   36MOL0     H 4960   9.595   1.612   5.744 -1.3401 -3.0145 -1.3750
   36MOL0     H 4961   9.481   1.559   5.635  2.2321 -1.3391 -0.2755
   36MOL0     H 4962   9.619   1.824   5.565  1.2606  0.8827 -0.3528
   36MOL0     H 4963   9.501   1.732   5.474  0.5090  0.6946  0.7427
   36MOL0     H 4964   9.878   1.539   5.439  0.6876 -0.9523  2.5708
   36MOL0     H 4965   9.646   2.009   5.970  1.3637  0.6242  0.4261
   36MOL0     H 4966   9.827   2.147   5.998  0.6870  3.4449 -3.1579
   36MOL0     H 4967   9.823   2.314   6.017  1.3445  0.0387 -0.6026
   36MOL0     H 4968   9.764   2.199   6.145  1.6756  2.5268 -0.6382
   37MOL0     O 4969   8.532   0.745   5.706 -0.2215  0.4084 -0.0273
   37MOL0     C 4970   8.478   0.639   5.681  1.2021 -0.4780 -0.5938
   37MOL0     O 4971   8.552   0.523   5.664 -0.6688  0.6918 -0.4385
   37MOL0     C 4972   8.687   0.529   5.713  0.9802 -0.4940  0.6603
   37MOL0     C 4973   8.784   0.556   5.616 -0.5629  0.2818  0.9060
   37MOL0     C 4974   8.922   0.543   5.645  0.5671  0.7332  0.9911
   37MOL0     C 4975   8.961   0.494   5.767 -0.1295 -0.0959 -0.2762
   37MOL0     O 4976   9.099   0.480   5.793  0.5353  0.6286  0.3493
   37MOL0     C 4977   9.149   0.373   5.872 -0.2721 -0.2206 -0.4689
   37MOL0     C 4978   9.294   0.399   5.913 -1.2796 -0.0731 -0.6094
   37MOL0     C 4979   9.336   0.330   6.044 -0.3873 -0.4309  0.6921
   37MOL0     C 4980   9.253   0.387   6.165  0.3102 -0.1725  0.3647
   37MOL0     C 4981   9.249   0.284   6.266  0.5218 -0.3170  0.7764
   37MOL0     C 4982   9.206   0.344   6.405 -0.0994  0.4469  0.5465
   37MOL0     C 4983   9.278   0.278   6.518  0.2619 -0.4971 -0.6260
   37MOL0     C 4984   9.214   0.333   6.653  0.4481 -0.4425 -0.3368
   37MOL0     N 4985   9.268   0.266   6.769 -0.3301  0.8341  0.0263
   37MOL0     C 4986   9.394   0.281   6.813 -0.3846  0.1746  0.3455
   37MOL0     C 4987   9.391   0.240   6.945  0.0866 -0.7499 -1.0127
   37MOL0     C 4988   9.510   0.245   7.041  0.6462  0.0732 -0.3560
   37MOL0     C 4989   9.578   0.110   7.057  0.9473 -0.6676  0.8888
   37MOL0     C 4990   9.628   0.055   6.922 -0.5626 -0.6625  0.1278
   37MOL0     C 4991   9.712  -0.073   6.940  0.0302 -0.9397  0.1348
   37MOL0     O 4992   9.730  -0.120   6.812 -0.7258  0.4530  1.1144
   37MOL0     C 4993   9.840  -0.087   6.741 -0.2018  0.8007 -0.3816
   37MOL0     C 4994   9.840  -0.160   6.625  0.8124  0.4404  0.1819
   37MOL0     C 4995   9.947  -0.170   6.534  0.4388 -0.1133 -0.1315
   37MOL0     C 4996   9.910  -0.233   6.400 -0.6066 -1.0607 -0.7206
   37MOL0     C 4997  10.061  -0.090   6.564  1.2210 -0.3816  0.0096
   37MOL0     C 4998  10.184  -0.085   6.475  0.0747  0.4568 -0.3084
   37MOL0     O 4999  10.181  -0.151   6.356 -0.1882 -0.5147  0.1877
   37MOL0     C 5000  10.275  -0.128   6.256 -0.3770 -0.1825  0.1085
   37MOL0     C 5001  10.409  -0.093   6.281 -0.7668 -0.3175  0.2512
   37MOL0     C 5002  10.503  -0.071   6.180  0.1843  0.3572 -0.5490
   37MOL0     C 5003  10.470  -0.082   6.049 -0.1103  1.1525 -0.4111
   37MOL0     O 5004  10.559  -0.076   5.944 -0.2155  0.0132 -0.5366
   37MOL0     C 5005  10.679  -0.015   5.969 -0.0967 -0.1231  0.7431
   37MOL0     C 5006  10.757   0.029   5.838  0.7232 -0.6661 -0.7907
   37MOL0     C 5007  10.799  -0.096   5.771 -0.2099 -0.4743 -0.4391
   37MOL0     C 5008  10.871  -0.047   5.644  0.6238 -0.4309  0.4040
   37MOL0     C 5009  10.956  -0.171   5.600  0.3070 -0.7064 -0.6789
   37MOL0     C 5010  11.079  -0.124   5.527 -0.2314  0.1192 -0.5517
   37MOL0     C 5011  11.199  -0.114   5.626 -0.2954 -0.5116 -0.9509
   37MOL0     C 5012  11.308  -0.019   5.576  0.6344 -1.3398 -0.6129
   37MOL0    Cl 5013  11.386  -0.064   5.424  0.4253  0.2824 -0.0239
   37MOL0     C 5014  10.341  -0.122   6.014  0.4741 -0.4884  0.0707
   37MOL0     C 5015  10.244  -0.145   6.119 -0.5116 -0.2987  0.0073
   37MOL0     O 5016  10.279  -0.019   6.516 -0.3467  0.3164  0.0292
   37MOL0     C 5017  10.056  -0.006   6.677 -0.2136  0.2124  0.4498
   37MOL0     C 5018   9.952  -0.010   6.768 -0.3442  0.1213  0.4559
   37MOL0     N 5019   9.258   0.195   6.967 -0.2254 -0.0261 -0.7363
   37MOL0     N 5020   9.192   0.205   6.857 -0.1519 -0.1738  0.1160
   37MOL0     C 5021   8.864   0.465   5.867  0.2167  0.4677 -0.0619
   37MOL0     C 5022   8.727   0.490   5.841 -0.1858  0.0998 -0.2589
   37MOL0     C 5023   8.334   0.646   5.646 -0.2076  0.6029  0.2809
   37MOL0     C 5024   8.278   0.525   5.586  0.0554 -1.0358  0.7799
   37MOL0     C 5025   8.143   0.510   5.542  0.5307  0.0308 -0.5588
   37MOL0     C 5026   8.064   0.625   5.540 -0.7718 -0.4444  0.7720
   37MOL0     O 5027   7.932   0.634   5.507 -0.0358  1.1418  0.8315
   37MOL0     C 5028   7.859   0.516   5.470 -0.3212 -0.4791  1.5201
   37MOL0     C 5029   7.712   0.542   5.443 -0.1572  0.0105  0.1211
   37MOL0     C 5030   7.626   0.575   5.576  0.0532  0.4310 -1.3250
   37MOL0     C 5031   7.653   0.716   5.637  0.8445  0.1033  0.6886
   37MOL0     C 5032   7.554   0.748   5.743  0.3485 -0.4470  0.3419
   37MOL0     C 5033   7.476   0.792   5.819 -0.6514 -0.8166  0.8946
   37MOL0     C 5034   8.116   0.745   5.604  0.4786 -0.6990  0.2191
   37MOL0     C 5035   8.242   0.748   5.670 -0.6612  0.2953  0.3232
   37MOL0     C 5036   8.278   0.866   5.756  0.6824 -1.1475 -0.4830
   37MOL0     H 5037   8.753   0.608   5.526  1.2692  0.5638  0.3948
   37MOL0     H 5038   8.999   0.572   5.574  0.7551 -0.0475  0.8720
   37MOL0     H 5039   9.159   0.279   5.817  4.1345  0.0332 -0.4899
   37MOL0     H 5040   9.089   0.349   5.960  1.6349  1.4876  1.4104
   37MOL0     H 5041   9.352   0.353   5.832 -0.9142 -0.5826 -0.0638
   37MOL0     H 5042   9.324   0.504   5.905 -0.1948 -0.3314 -0.1256
   37MOL0     H 5043   9.330   0.221   6.037  0.6331 -0.6575  2.7497
   37MOL0     H 5044   9.444   0.342   6.052 -0.3543 -1.0935  1.2554
   37MOL0     H 5045   9.311   0.476   6.190  1.0896  0.2071 -2.4776
   37MOL0     H 5046   9.155   0.427   6.136  0.0336 -0.0389  1.4291
   37MOL0     H 5047   9.354   0.252   6.268  1.4026  2.3073  1.3125
   37MOL0     H 5048   9.186   0.202   6.230  0.1394  0.0647  0.5742
   37MOL0     H 5049   9.228   0.451   6.408 -3.0796  1.1699  0.1789
   37MOL0     H 5050   9.101   0.324   6.427 -0.2172 -0.0586 -0.4262
   37MOL0     H 5051   9.385   0.295   6.511 -0.0925  1.4690 -2.8669
   37MOL0     H 5052   9.275   0.169   6.510  0.4104 -0.5814  0.3526
   37MOL0     H 5053   9.249   0.437   6.657 -2.0876  0.4633  0.1374
   37MOL0     H 5054   9.104   0.332   6.651  0.3431 -0.0917  2.0390
   37MOL0     H 5055   9.481   0.329   6.769 -0.7531  0.5044 -0.0299
   37MOL0     H 5056   9.471   0.273   7.139 -1.1785  0.0874 -1.0547
   37MOL0     H 5057   9.582   0.317   7.000 -2.3260  1.3630 -3.8883
   37MOL0     H 5058   9.653   0.124   7.135 -1.0664 -2.4851  3.3451
   37MOL0     H 5059   9.503   0.034   7.081 -2.1729  1.6112 -0.8628
   37MOL0     H 5060   9.542   0.024   6.862 -1.5721  0.8564  0.7307
   37MOL0     H 5061   9.677   0.135   6.866 -0.7400  0.0959  1.0429
   37MOL0     H 5062   9.804  -0.045   6.991  0.2005  2.2712 -1.6990
   37MOL0     H 5063   9.659  -0.145   7.003 -3.0357 -0.2007 -1.4067
   37MOL0     H 5064   9.749  -0.213   6.599  0.4276  0.0961  2.0720
   37MOL0     H 5065   9.892  -0.159   6.321 -2.3632  0.5694  1.1059
   37MOL0     H 5066   9.820  -0.296   6.398 -1.0598 -0.5438  1.3258
   37MOL0     H 5067   9.993  -0.299   6.371 -0.4916 -0.1490 -2.6596
   37MOL0     H 5068  10.449  -0.101   6.381 -2.0058  2.3343  1.0274
   37MOL0     H 5069  10.593  -0.030   6.225  0.1273 -0.9093  0.7975
   37MOL0     H 5070  10.667   0.085   6.011  0.1012  0.4345 -0.4866
   37MOL0     H 5071  10.733  -0.079   6.040  1.4670  0.8609  0.5017
   37MOL0     H 5072  10.682   0.082   5.778  1.8522  1.5237 -0.3519
   37MOL0     H 5073  10.843   0.092   5.858 -0.0549  0.3460 -0.5280
   37MOL0     H 5074  10.727  -0.177   5.759 -0.1671 -1.0048  2.1418
   37MOL0     H 5075  10.878  -0.136   5.836 -2.0778  0.3553  2.5300
   37MOL0     H 5076  10.939   0.037   5.658 -1.8258  1.6104  0.7388
   37MOL0     H 5077  10.798  -0.012   5.570 -0.9492  0.5067  2.2913
   37MOL0     H 5078  10.975  -0.241   5.682 -2.1442 -0.9524 -0.2229
   37MOL0     H 5079  10.890  -0.228   5.533 -1.6720  1.4564 -0.6725
   37MOL0     H 5080  11.048  -0.025   5.492 -3.1193  0.3506  2.1406
   37MOL0     H 5081  11.094  -0.185   5.438 -0.8121 -0.2306 -0.4168
   37MOL0     H 5082  11.248  -0.203   5.664  3.4510  2.2558  1.3542
   37MOL0     H 5083  11.157  -0.076   5.719 -3.1684  1.2576 -2.8083
   37MOL0     H 5084  11.377  -0.005   5.659 -1.0591 -0.5954  0.7336
   37MOL0     H 5085  11.267   0.081   5.561  1.6017 -0.9706 -0.8487
   37MOL0     H 5086  10.309  -0.126   5.911 -0.5988 -1.4734  0.4155
   37MOL0     H 5087  10.142  -0.169   6.093 -1.8741  0.3824  3.9519
   37MOL0     H 5088  10.144   0.055   6.697  0.6080 -1.6771  3.3242
   37MOL0     H 5089   9.958   0.048   6.860  0.3086 -1.5715  1.5429
   37MOL0     H 5090   8.897   0.414   5.957  0.2184  1.3618  0.4500
   37MOL0     H 5091   8.668   0.466   5.929 -1.2951  3.0449 -0.0923
   37MOL0     H 5092   8.343   0.440   5.569 -0.1492 -0.9879 -0.3359
   37MOL0     H 5093   8.105   0.419   5.497 -0.1388 -0.2481  0.5461
   37MOL0     H 5094   7.899   0.463   5.384  0.7293  1.3135  0.8431
   37MOL0     H 5095   7.864   0.449   5.556 -1.5637 -0.5972  1.5091
   37MOL0     H 5096   7.671   0.449   5.404 -4.3641  1.3531  0.8273
   37MOL0     H 5097   7.698   0.620   5.367 -0.9009 -0.2534 -0.0253
   37MOL0     H 5098   7.518   0.582   5.561 -0.1592  0.9612  0.2502
   37MOL0     H 5099   7.634   0.500   5.655 -6.3849  0.7287  0.2137
   37MOL0     H 5100   7.634   0.792   5.560 -2.0258 -4.1944 -3.4145
   37MOL0     H 5101   7.750   0.719   5.686  1.1849 -0.9844  0.1085
   37MOL0     H 5102   7.395   0.837   5.874 -0.4908  1.6060 -0.6907
   37MOL0     H 5103   8.042   0.824   5.611  2.9474  1.7458  0.5138
   37MOL0     H 5104   8.188   0.895   5.812  1.8391  1.2137  0.3243
   37MOL0     H 5105   8.348   0.849   5.839 -0.9702 -0.1229  1.1970
   37MOL0     H 5106   8.318   0.945   5.692 -0.6592 -0.1238 -0.1099
   38MOL0     O 5107   7.480   5.783   1.165 -0.9458  0.3121 -0.6946
   38MOL0     C 5108   7.477   5.683   1.237  0.2363  0.0052 -0.0138
   38MOL0     O 5109   7.570   5.664   1.337 -0.5002 -0.5929  0.9382
   38MOL0     C 5110   7.664   5.762   1.340  0.3672 -0.0170 -0.6294
   38MOL0     C 5111   7.784   5.755   1.259 -0.1250  0.4473 -0.1428
   38MOL0     C 5112   7.880   5.854   1.261 -0.0298  0.7806 -0.1720
   38MOL0     C 5113   7.864   5.966   1.346  0.9214  0.2497  0.0497
   38MOL0     O 5114   7.954   6.066   1.330  0.7185 -0.1456 -0.4993
   38MOL0     C 5115   7.977   6.160   1.425  0.0611 -0.5221 -0.1347
   38MOL0     C 5116   8.114   6.227   1.410  0.1053 -0.1711  0.1592
   38MOL0     C 5117   8.228   6.130   1.425 -0.2536  1.0326 -0.3842
   38MOL0     C 5118   8.366   6.197   1.389  0.3979 -0.0449 -0.0230
   38MOL0     C 5119   8.471   6.100   1.422  0.2227 -0.0882  0.3345
   38MOL0     C 5120   8.602   6.172   1.403 -0.6196  0.0729 -0.0898
   38MOL0     C 5121   8.730   6.091   1.459 -0.0316  0.8127  0.3220
   38MOL0     C 5122   8.854   6.188   1.438 -0.4403  0.5927  0.4223
   38MOL0     N 5123   8.976   6.119   1.479  0.1530  0.1519  0.6254
   38MOL0     C 5124   9.001   6.083   1.604 -0.9646 -0.2472 -0.3470
   38MOL0     C 5125   9.123   6.026   1.601  1.0854 -0.0432 -0.2166
   38MOL0     C 5126   9.182   5.966   1.726 -0.4693  0.4248 -0.4541
   38MOL0     C 5127   9.262   5.821   1.712  0.4129 -0.3075  0.5214
   38MOL0     C 5128   9.360   5.786   1.823 -0.2803 -0.0378 -0.5443
   38MOL0     C 5129   9.467   5.680   1.790 -0.6976  0.0539  0.0152
   38MOL0     O 5130   9.512   5.609   1.909  0.0294  0.6245  0.0193
   38MOL0     C 5131   9.608   5.514   1.888 -0.6764  0.3477 -1.1158
   38MOL0     C 5132   9.603   5.400   1.965  0.1582  0.4026  0.5619
   38MOL0     C 5133   9.691   5.296   1.945 -0.7147  0.2328 -0.2370
   38MOL0     C 5134   9.671   5.180   2.041  0.9488  0.2853 -0.0471
   38MOL0     C 5135   9.782   5.289   1.829  0.3801  0.3276 -0.5650
   38MOL0     C 5136   9.855   5.168   1.782 -0.2893 -0.4665 -0.5500
   38MOL0     O 5137   9.940   5.187   1.675  0.0642  0.1246  0.4423
   38MOL0     C 5138  10.019   5.091   1.614 -0.5769 -0.1549  0.5008
   38MOL0     C 5139  10.143   5.137   1.558 -0.1830  0.4401 -0.4137
   38MOL0     C 5140  10.219   5.057   1.474  0.2193 -0.6832 -0.2771
   38MOL0     C 5141  10.183   4.926   1.449  0.0134  0.1881  0.0750
   38MOL0     O 5142  10.256   4.850   1.361 -0.1550  1.3487  0.0310
   38MOL0     C 5143  10.326   4.735   1.411 -0.8757 -0.1502 -0.0541
   38MOL0     C 5144  10.439   4.693   1.315  1.1883  0.3605  0.1987
   38MOL0     C 5145  10.538   4.816   1.293  0.4305  0.2175 -0.0155
   38MOL0     C 5146  10.657   4.806   1.391 -0.1394 -0.0302  0.6897
   38MOL0     C 5147  10.775   4.906   1.343 -0.9307  0.4991  0.5907
   38MOL0     C 5148  10.877   4.852   1.241 -0.1233  0.4752 -0.1536
   38MOL0     C 5149  10.999   4.941   1.226 -0.4209 -0.0269 -0.5396
   38MOL0     C 5150  11.109   4.869   1.150  0.0419  0.3862  0.7019
   38MOL0    Cl 5151  11.075   4.798   0.982  0.1380  0.1347  0.0167
   38MOL0     C 5152  10.060   4.879   1.506 -0.3627  0.0519  0.2576
   38MOL0     C 5153   9.977   4.960   1.584  0.1605  0.4706 -0.1889
   38MOL0     O 5154   9.845   5.065   1.847  0.1338 -0.0720  0.0725
   38MOL0     C 5155   9.771   5.407   1.754 -0.0871  0.6260  0.6407
   38MOL0     C 5156   9.701   5.517   1.782  0.0469 -0.0427 -0.7815
   38MOL0     N 5157   9.166   6.028   1.465  0.3528 -0.4540 -0.1542
   38MOL0     N 5158   9.073   6.083   1.394 -0.2145  0.1149  0.3864
   38MOL0     C 5159   7.754   5.966   1.437  0.5878  0.5022 -0.1869
   38MOL0     C 5160   7.655   5.872   1.428  0.1361  0.3920 -0.8818
   38MOL0     C 5161   7.363   5.586   1.230  0.3581 -0.3093 -0.1189
   38MOL0     C 5162   7.330   5.511   1.344  0.8902  1.3593 -0.4062
   38MOL0     C 5163   7.214   5.432   1.349  0.3320 -0.4361  0.2173
   38MOL0     C 5164   7.125   5.421   1.242 -0.6119  0.4438  0.3407
   38MOL0     O 5165   7.008   5.350   1.245  0.0142 -0.3106  0.2748
   38MOL0     C 5166   6.931   5.371   1.367 -0.6495  0.7418  0.4558
   38MOL0     C 5167   6.795   5.324   1.346  0.1356  0.1707  0.3239
   38MOL0     C 5168   6.720   5.403   1.240  0.3522  1.3225  1.0184
   38MOL0     C 5169   6.563   5.365   1.227 -0.6136  0.8688 -0.3138
   38MOL0     C 5170   6.488   5.453   1.317 -0.0454  0.6350  0.3593
   38MOL0     C 5171   6.431   5.524   1.402 -0.2294 -0.1869  0.1464
   38MOL0     C 5172   7.163   5.489   1.122  0.2431 -0.2043 -1.4696
   38MOL0     C 5173   7.282   5.568   1.114 -0.7524  0.1893 -0.5421
   38MOL0     C 5174   7.323   5.635   0.986  0.7736  0.4376  0.6094
   38MOL0     H 5175   7.783   5.680   1.182 -2.5742 -1.8670  1.9219
   38MOL0     H 5176   7.958   5.857   1.185 -0.5453 -2.8753 -1.0677
   38MOL0     H 5177   7.973   6.120   1.527  0.7044 -2.1929 -0.7345
   38MOL0     H 5178   7.907   6.243   1.409  1.2371  0.4616 -0.2784
   38MOL0     H 5179   8.113   6.284   1.316  0.7922 -0.1990  0.1331
   38MOL0     H 5180   8.121   6.300   1.492 -0.2565  0.6664 -0.5334
   38MOL0     H 5181   8.231   6.087   1.525  0.6272 -2.0304 -1.5984
   38MOL0     H 5182   8.211   6.041   1.363  0.3416 -1.3508  2.6673
   38MOL0     H 5183   8.386   6.226   1.285  1.8475 -0.9645 -0.0270
   38MOL0     H 5184   8.361   6.286   1.452  0.1869 -1.0429  1.3943
   38MOL0     H 5185   8.458   6.015   1.355 -0.0223  0.9956 -1.0237
   38MOL0     H 5186   8.465   6.061   1.524  4.0223  0.3978  0.8679
   38MOL0     H 5187   8.624   6.189   1.297  0.5578 -0.0975  0.1163
   38MOL0     H 5188   8.599   6.269   1.455 -1.5909 -0.7209  1.3834
   38MOL0     H 5189   8.745   6.008   1.389  0.9409 -1.8279  3.4491
   38MOL0     H 5190   8.726   6.064   1.565  1.6268  1.3918  0.5555
   38MOL0     H 5191   8.853   6.225   1.335 -0.7703  0.6598  0.4481
   38MOL0     H 5192   8.839   6.280   1.494 -0.9510  0.8862 -0.1793
   38MOL0     H 5193   8.942   6.092   1.695  0.7476  1.9350  0.6361
   38MOL0     H 5194   9.103   5.961   1.801  0.2389 -0.4567  0.2719
   38MOL0     H 5195   9.254   6.035   1.772  1.5944 -1.6085 -0.4306
   38MOL0     H 5196   9.188   5.742   1.702  2.9406 -2.7522 -0.1668
   38MOL0     H 5197   9.316   5.820   1.617  2.0932 -0.2495  1.4390
   38MOL0     H 5198   9.413   5.877   1.855 -0.6434  0.1298 -0.4115
   38MOL0     H 5199   9.306   5.747   1.910 -0.8063  1.0530 -0.3599
   38MOL0     H 5200   9.416   5.603   1.731 -1.8928  0.3560  0.6403
   38MOL0     H 5201   9.549   5.735   1.743  0.4428 -0.0159  1.8397
   38MOL0     H 5202   9.530   5.400   2.045  2.2059 -1.8035  2.5825
   38MOL0     H 5203   9.771   5.156   2.079  0.4330 -0.0255  1.1785
   38MOL0     H 5204   9.618   5.098   1.992  1.7114 -1.3132  1.6592
   38MOL0     H 5205   9.614   5.209   2.130  2.1566 -0.3010  0.9525
   38MOL0     H 5206  10.173   5.240   1.573  1.2256  0.0395 -0.3610
   38MOL0     H 5207  10.301   5.103   1.421  2.4779 -4.2243 -0.2088
   38MOL0     H 5208  10.373   4.757   1.507  0.7319 -0.7094 -0.6677
   38MOL0     H 5209  10.256   4.651   1.423  1.0921 -1.7418  0.9863
   38MOL0     H 5210  10.491   4.604   1.353  0.5393 -0.7634 -1.4644
   38MOL0     H 5211  10.392   4.663   1.221 -2.4032 -0.2402  2.0036
   38MOL0     H 5212  10.482   4.909   1.301 -1.5653 -0.7189 -2.1188
   38MOL0     H 5213  10.583   4.807   1.194 -1.0886 -2.4697 -0.5578
   38MOL0     H 5214  10.697   4.705   1.404 -1.6903 -1.3053 -3.1491
   38MOL0     H 5215  10.626   4.849   1.487  0.7469 -0.0937  1.0115
   38MOL0     H 5216  10.727   4.998   1.310 -3.0361 -0.3147  1.2425
   38MOL0     H 5217  10.841   4.913   1.430  0.9267 -1.4964 -0.5768
   38MOL0     H 5218  10.845   4.842   1.137  1.0948 -0.6694 -0.4617
   38MOL0     H 5219  10.907   4.755   1.284 -1.1893  0.6862  1.1204
   38MOL0     H 5220  11.033   4.967   1.326 -2.7727 -2.1334  0.9493
   38MOL0     H 5221  10.964   5.024   1.164 -0.7592 -0.6347 -1.1776
   38MOL0     H 5222  11.148   4.793   1.219 -1.3181 -0.8965  0.1293
   38MOL0     H 5223  11.190   4.940   1.132  1.8324 -2.0594 -1.5878
   38MOL0     H 5224  10.025   4.776   1.498  0.3318 -0.1477 -0.3691
   38MOL0     H 5225   9.880   4.924   1.618  0.0412  1.5873  0.7444
   38MOL0     H 5226   9.834   5.410   1.666 -0.6313 -1.1188  0.1440
   38MOL0     H 5227   9.697   5.601   1.713 -1.3149  1.3089  0.8461
   38MOL0     H 5228   7.731   6.042   1.512 -0.4573  0.2529 -0.2474
   38MOL0     H 5229   7.565   5.869   1.488  0.4872 -0.2862 -0.3785
   38MOL0     H 5230   7.384   5.519   1.438  0.3163  0.9786 -0.0376
   38MOL0     H 5231   7.199   5.376   1.441  2.0984  0.1373  0.8993
   38MOL0     H 5232   6.973   5.328   1.458  1.6154  0.3054 -0.7111
   38MOL0     H 5233   6.926   5.481   1.371  1.8129  0.9677 -0.7342
   38MOL0     H 5234   6.751   5.340   1.445 -1.8559  2.8016 -0.8738
   38MOL0     H 5235   6.789   5.216   1.331 -3.0291  0.0297  1.8572
   38MOL0     H 5236   6.728   5.512   1.248 -1.4520  1.7074 -1.4748
   38MOL0     H 5237   6.770   5.383   1.145 -1.4215  2.5595 -0.2216
   38MOL0     H 5238   6.565   5.261   1.262  0.1384  0.5913 -1.1545
   38MOL0     H 5239   6.529   5.371   1.123 -0.8283 -1.1208 -0.3879
   38MOL0     H 5240   6.385   5.595   1.468 -0.8395  0.9608 -1.4671
   38MOL0     H 5241   7.101   5.487   1.034 -4.8084  0.4023  1.6875
   38MOL0     H 5242   7.429   5.634   0.959  0.5957 -2.7221 -0.3944
   38MOL0     H 5243   7.263   5.595   0.904  0.6928  0.9741  0.4012
   38MOL0     H 5244   7.303   5.743   0.988  1.0925  0.4930  2.2162
   39MOL0     O 5245   4.731   1.668   9.851  1.0408 -0.4750  0.5695
   39MOL0     C 5246   4.663   1.567   9.853 -0.5913  0.4424  0.0781
   39MOL0     O 5247   4.707   1.444   9.822 -0.0008  0.5526  0.1347
   39MOL0     C 5248   4.850   1.428   9.811 -0.0986  0.1326 -0.0390
   39MOL0     C 5249   4.945   1.474   9.907  0.5706 -0.3806  0.8599
   39MOL0     C 5250   5.080   1.452   9.877 -0.5454  0.2792 -0.9378
   39MOL0     C 5251   5.124   1.403   9.750 -0.2456 -0.8865 -0.5945
   39MOL0     O 5252   5.256   1.402   9.735  0.3409 -0.3823  0.1252
   39MOL0     C 5253   5.311   1.315   9.645 -1.1436  0.3681  0.2608
   39MOL0     C 5254   5.464   1.339   9.646 -0.1911 -1.3518 -0.5553
   39MOL0     C 5255   5.524   1.289   9.782 -0.0355  0.5572  0.6304
   39MOL0     C 5256   5.671   1.331   9.827 -1.1609 -0.6860  0.2124
   39MOL0     C 5257   5.735   1.237   9.930 -0.0178 -0.1765 -0.2417
   39MOL0     C 5258   5.753   1.095   9.893  0.2387 -0.3931 -0.2097
   39MOL0     C 5259   5.785   1.005  10.017  0.2392  0.7950  0.3631
   39MOL0     C 5260   5.921   1.032  10.079  0.1595 -0.0194 -0.8636
   39MOL0     N 5261   6.031   0.965  10.003 -0.4253 -0.3018 -0.1366
   39MOL0     C 5262   6.061   0.835  10.015 -0.2592 -0.3796  0.0283
   39MOL0     C 5263   6.153   0.820   9.921 -0.5404  0.2522 -0.0625
   39MOL0     C 5264   6.221   0.687   9.884  0.7279  0.0790  0.1093
   39MOL0     C 5265   6.369   0.712   9.843 -0.3434 -0.5761 -0.6094
   39MOL0     C 5266   6.450   0.577   9.833  0.9398  0.7415  0.1729
   39MOL0     C 5267   6.590   0.600   9.794 -0.2939  0.2414  0.0777
   39MOL0     O 5268   6.599   0.623   9.650 -0.0463 -0.2082 -0.1115
   39MOL0     C 5269   6.722   0.658   9.600  0.1912  0.0417  0.4705
   39MOL0     C 5270   6.833   0.677   9.665  0.3351 -0.1990 -0.9847
   39MOL0     C 5271   6.948   0.728   9.607  0.2259 -1.0786  0.7431
   39MOL0     C 5272   7.068   0.753   9.703 -1.0473 -0.3917  0.4672
   39MOL0     C 5273   6.947   0.757   9.467  0.8240  0.8249  0.1941
   39MOL0     C 5274   7.076   0.788   9.389  0.3884 -0.7269 -0.6967
   39MOL0     O 5275   7.070   0.878   9.290  0.2965  0.8499 -0.7877
   39MOL0     C 5276   7.185   0.898   9.220  0.2226 -0.4399  0.1221
   39MOL0     C 5277   7.235   0.797   9.134  0.4477  0.4935  0.7265
   39MOL0     C 5278   7.355   0.814   9.055 -0.2940  0.1209 -0.3641
   39MOL0     C 5279   7.422   0.935   9.076 -0.3985 -0.0075  0.5456
   39MOL0     O 5280   7.536   0.943   8.990 -0.1900 -0.2113  0.1298
   39MOL0     C 5281   7.594   1.074   8.984 -0.2217  0.2198 -1.4008
   39MOL0     C 5282   7.725   1.084   8.924 -0.9320 -0.3702 -0.0154
   39MOL0     C 5283   7.766   1.224   8.914  0.3840 -0.5411 -0.7530
   39MOL0     C 5284   7.862   1.242   8.793 -0.5192  0.6298  0.9223
   39MOL0     C 5285   7.909   1.384   8.808 -0.0041  0.5004 -0.6998
   39MOL0     C 5286   8.018   1.426   8.710 -0.3078 -0.1923 -0.5624
   39MOL0     C 5287   8.059   1.566   8.727 -0.6453 -1.2997 -0.1127
   39MOL0     C 5288   8.184   1.607   8.647  0.3464  0.2242  0.1593
   39MOL0    Cl 5289   8.182   1.795   8.646  0.2868  0.3987 -0.0091
   39MOL0     C 5290   7.372   1.039   9.158  0.2221  0.0665  0.3429
   39MOL0     C 5291   7.256   1.023   9.232 -0.3454  1.0129 -0.3364
   39MOL0     O 5292   7.176   0.723   9.423 -0.0523 -0.1454 -0.4887
   39MOL0     C 5293   6.826   0.741   9.391 -0.2918  0.0542  0.3295
   39MOL0     C 5294   6.714   0.698   9.463  0.1291 -0.7412  0.4279
   39MOL0     N 5295   6.177   0.944   9.859  0.3167  1.3382  1.0681
   39MOL0     N 5296   6.120   1.026   9.921  1.0424 -0.1959  0.4330
   39MOL0     C 5297   5.034   1.351   9.655  0.1479 -0.5078 -0.2937
   39MOL0     C 5298   4.905   1.368   9.695 -0.0684  0.6093  0.1968
   39MOL0     C 5299   4.523   1.583   9.879 -0.5010 -1.2529 -0.0645
   39MOL0     C 5300   4.436   1.550   9.778  0.3072 -0.5869  0.2223
   39MOL0     C 5301   4.296   1.572   9.791 -0.6253  0.2346  0.7628
   39MOL0     C 5302   4.237   1.624   9.904 -0.3649 -0.8920 -0.6574
   39MOL0     O 5303   4.099   1.656   9.909  0.2392 -0.2424  0.3614
   39MOL0     C 5304   4.050   1.701  10.033  0.4969 -0.0758 -0.1258
   39MOL0     C 5305   3.896   1.721  10.020  0.3074 -0.1553 -0.3478
   39MOL0     C 5306   3.862   1.834   9.925  0.6455  0.4361  0.2398
   39MOL0     C 5307   3.829   1.972   9.997  0.2265 -0.5982 -0.3280
   39MOL0     C 5308   3.957   2.027  10.046  0.6128  0.4843 -1.5299
   39MOL0     C 5309   4.057   2.079  10.083 -0.9998  1.1203  0.3024
   39MOL0     C 5310   4.328   1.659  10.005 -0.1356 -1.2090  0.4289
   39MOL0     C 5311   4.468   1.641   9.994 -0.8075 -0.1780 -0.0975
   39MOL0     C 5312   4.559   1.688  10.099 -0.6341  0.0404 -0.1085
   39MOL0     H 5313   4.903   1.506  10.002 -0.4807  0.4967  0.1226
   39MOL0     H 5314   5.153   1.472   9.955 -0.4236 -3.0670 -0.0274
   39MOL0     H 5315   5.276   1.355   9.549  0.0150  0.7808 -0.0018
   39MOL0     H 5316   5.287   1.212   9.674 -0.2700 -0.2165 -0.9631
   39MOL0     H 5317   5.513   1.296   9.557 -1.5509  0.2611 -2.1682
   39MOL0     H 5318   5.480   1.447   9.649  3.8665 -1.7835 -0.5531
   39MOL0     H 5319   5.458   1.302   9.868  0.2265 -0.2291  0.9634
   39MOL0     H 5320   5.520   1.182   9.758 -2.7102  1.4098 -3.8818
   39MOL0     H 5321   5.740   1.338   9.742  0.9221 -1.9733  1.7363
   39MOL0     H 5322   5.656   1.431   9.869  0.2946 -0.4045  0.1067
   39MOL0     H 5323   5.671   1.239  10.019 -0.3026  2.4993 -0.4132
   39MOL0     H 5324   5.827   1.282   9.971 -0.4872  0.5539  0.0388
   39MOL0     H 5325   5.661   1.047   9.858 -0.6840 -0.8381  2.6044
   39MOL0     H 5326   5.827   1.084   9.813  0.1064  0.5124 -0.4630
   39MOL0     H 5327   5.783   0.902   9.981 -0.8466  0.7694  0.4785
   39MOL0     H 5328   5.714   1.017  10.099  1.4316  1.8467  1.2994
   39MOL0     H 5329   5.938   1.140  10.078 -0.0717  0.0175 -1.7288
   39MOL0     H 5330   5.921   0.987  10.178  0.5446 -0.9967 -1.2904
   39MOL0     H 5331   6.014   0.771  10.090 -0.8393 -1.1753 -0.9935
   39MOL0     H 5332   6.167   0.643   9.800  0.5244  0.0583  0.2477
   39MOL0     H 5333   6.214   0.617   9.969 -1.8615 -0.1455 -0.1951
   39MOL0     H 5334   6.369   0.749   9.740  0.9073 -0.1096 -0.4660
   39MOL0     H 5335   6.417   0.779   9.915  1.0607 -1.5112 -0.6298
   39MOL0     H 5336   6.431   0.513   9.919  0.9977 -0.2143 -0.5107
   39MOL0     H 5337   6.401   0.520   9.753  0.1198  0.6178  0.7478
   39MOL0     H 5338   6.617   0.694   9.843  1.1491 -0.2810  0.3355
   39MOL0     H 5339   6.661   0.524   9.829  2.4492  2.1827 -0.9358
   39MOL0     H 5340   6.847   0.662   9.772  2.5246  1.0313 -1.0294
   39MOL0     H 5341   7.039   0.788   9.802  1.0067 -2.6658  1.9802
   39MOL0     H 5342   7.131   0.836   9.668 -4.9191  1.6037 -2.5438
   39MOL0     H 5343   7.129   0.662   9.698  0.4910  0.6518 -0.4820
   39MOL0     H 5344   7.165   0.715   9.127 -1.9997  2.4780  0.7424
   39MOL0     H 5345   7.391   0.742   8.983 -2.7471 -0.5471 -1.0153
   39MOL0     H 5346   7.516   1.133   8.936 -1.9816  2.7220  3.7659
   39MOL0     H 5347   7.615   1.106   9.087  0.4513 -2.4525 -0.6362
   39MOL0     H 5348   7.801   1.032   8.983  1.1520  0.7575 -1.5685
   39MOL0     H 5349   7.724   1.038   8.825 -0.8753  1.2712 -0.8114
   39MOL0     H 5350   7.829   1.254   8.998  0.4200 -0.0825 -0.9440
   39MOL0     H 5351   7.685   1.297   8.907  2.0554  1.2675 -1.9739
   39MOL0     H 5352   7.827   1.231   8.690  3.5523 -2.1127 -0.4200
   39MOL0     H 5353   7.944   1.170   8.806 -0.6637  0.3991  0.5684
   39MOL0     H 5354   7.819   1.443   8.791  0.2715  0.8366 -1.0047
   39MOL0     H 5355   7.935   1.413   8.910 -0.3100  0.4241 -0.5988
   39MOL0     H 5356   7.971   1.403   8.614 -1.2959  1.8180 -0.5959
   39MOL0     H 5357   8.108   1.365   8.727 -1.0290 -1.6975 -1.9494
   39MOL0     H 5358   8.093   1.584   8.829  1.0423  0.0186 -0.8626
   39MOL0     H 5359   7.974   1.631   8.704 -1.8273 -2.6554  0.2685
   39MOL0     H 5360   8.179   1.568   8.545  0.7393  1.2350 -0.2489
   39MOL0     H 5361   8.271   1.563   8.697  0.7031 -0.5239 -1.0743
   39MOL0     H 5362   7.429   1.131   9.160  0.0047  0.2777  3.9267
   39MOL0     H 5363   7.211   1.085   9.309 -0.5415 -1.4536  1.6337
   39MOL0     H 5364   6.825   0.770   9.287 -0.2146 -0.1539  0.2689
   39MOL0     H 5365   6.625   0.693   9.402  1.0113 -1.5105 -0.8634
   39MOL0     H 5366   5.070   1.295   9.569  0.8445 -1.0282  0.3244
   39MOL0     H 5367   4.827   1.331   9.629  1.1395 -0.3140 -0.7711
   39MOL0     H 5368   4.471   1.514   9.682  2.6619 -0.3905  0.9599
   39MOL0     H 5369   4.237   1.551   9.702 -0.3479  3.0280 -0.1559
   39MOL0     H 5370   4.074   1.622  10.105  0.5483  0.1861  0.1478
   39MOL0     H 5371   4.095   1.794  10.069  1.0567 -0.2541 -0.3605
   39MOL0     H 5372   3.849   1.732  10.118 -0.0052 -0.6311 -0.4417
   39MOL0     H 5373   3.851   1.634   9.971  0.1333 -0.7370  0.8133
   39MOL0     H 5374   3.930   1.833   9.840  0.8562 -0.8713  0.3976
   39MOL0     H 5375   3.776   1.796   9.869  2.8617 -3.5899 -0.8348
   39MOL0     H 5376   3.767   1.954  10.086  1.7003 -1.6299  0.5326
   39MOL0     H 5377   3.775   2.041   9.931 -1.1152 -1.3038 -0.0115
   39MOL0     H 5378   4.142   2.119  10.134 -0.1309 -2.4648  1.9739
   39MOL0     H 5379   4.302   1.709  10.098 -0.0435  0.7023 -0.5093
   39MOL0     H 5380   4.618   1.600  10.129  0.1990  0.5220 -0.2920
   39MOL0     H 5381   4.625   1.768  10.063 -1.2813 -0.1992 -1.9561
   39MOL0     H 5382   4.508   1.725  10.188  0.6696  2.1500 -0.1578
   40MOL0     O 5383   3.806   3.715   6.113  1.0359 -0.3305  0.1187
   40MOL0     C 5384   3.815   3.838   6.087  0.3916 -0.2100  0.2059
   40MOL0     O 5385   3.930   3.906   6.047 -1.0698 -0.1908  0.0025
   40MOL0     C 5386   4.060   3.853   6.055 -0.1209  0.0467  0.0532
   40MOL0     C 5387   4.079   3.718   6.010  0.2208  0.1720 -0.2521
   40MOL0     C 5388   4.210   3.671   6.022  0.7625 -0.5102 -1.3592
   40MOL0     C 5389   4.320   3.743   6.071 -0.4869 -0.4264 -0.0094
   40MOL0     O 5390   4.443   3.677   6.067  0.0347  0.8160  0.1261
   40MOL0     C 5391   4.551   3.762   6.037 -0.3529  0.9856 -0.4271
   40MOL0     C 5392   4.562   3.792   5.892 -0.3590  0.1093 -0.5712
   40MOL0     C 5393   4.535   3.666   5.800 -0.2059  0.3930 -1.3170
   40MOL0     C 5394   4.499   3.705   5.665  0.2644 -0.7594  0.3900
   40MOL0     C 5395   4.488   3.582   5.572  0.6989 -0.1550 -0.1939
   40MOL0     C 5396   4.573   3.608   5.448  0.0314  0.0114  0.6061
   40MOL0     C 5397   4.720   3.601   5.491  0.5278 -0.0731 -0.2883
   40MOL0     C 5398   4.798   3.619   5.368 -0.3889  0.0612  1.0457
   40MOL0     N 5399   4.941   3.625   5.408 -0.4670 -0.6839  1.0878
   40MOL0     C 5400   5.034   3.519   5.415 -0.1079 -0.3624  0.4789
   40MOL0     C 5401   5.147   3.579   5.467 -0.5883  0.4768 -0.3682
   40MOL0     C 5402   5.284   3.513   5.476 -0.4233 -0.5354 -1.0922
   40MOL0     C 5403   5.298   3.452   5.625 -0.5461 -0.6159 -0.0336
   40MOL0     C 5404   5.317   3.570   5.724 -0.3392  1.5279  0.2536
   40MOL0     C 5405   5.354   3.517   5.860 -0.3020  0.2875  0.0742
   40MOL0     O 5406   5.485   3.455   5.856  0.0639 -0.5289  0.2458
   40MOL0     C 5407   5.595   3.544   5.858  0.4129  1.2186 -0.3756
   40MOL0     C 5408   5.717   3.480   5.838 -0.2173 -0.1529 -0.2848
   40MOL0     C 5409   5.832   3.559   5.833 -0.1098  0.4192 -0.9636
   40MOL0     C 5410   5.957   3.476   5.809  0.0588 -0.4711 -0.7081
   40MOL0     C 5411   5.826   3.696   5.869  0.2590  0.3381  0.4249
   40MOL0     C 5412   5.956   3.774   5.871 -0.0287  1.1436  0.4649
   40MOL0     O 5413   6.031   3.754   5.760  0.6216 -0.6416 -0.1528
   40MOL0     C 5414   6.142   3.831   5.735  0.2127 -0.2463  0.2459
   40MOL0     C 5415   6.151   3.913   5.620  1.0125  0.2820 -0.4084
   40MOL0     C 5416   6.255   3.999   5.606  0.5260 -0.2703 -0.2235
   40MOL0     C 5417   6.359   4.010   5.705  0.4351  0.4934 -0.7481
   40MOL0     O 5418   6.472   4.086   5.690  0.4254 -0.2981 -0.4889
   40MOL0     C 5419   6.604   4.030   5.696 -0.1315  0.0165 -0.2005
   40MOL0     C 5420   6.627   3.906   5.603 -0.2710 -0.0988  0.3940
   40MOL0     C 5421   6.768   3.860   5.617 -0.6815  0.5226  0.3074
   40MOL0     C 5422   6.782   3.709   5.604  0.4141  0.3649 -0.7760
   40MOL0     C 5423   6.924   3.671   5.566 -0.1932 -0.2118  0.1312
   40MOL0     C 5424   6.972   3.710   5.426 -1.2004  0.1136 -0.8679
   40MOL0     C 5425   6.897   3.638   5.310 -0.1893 -0.7042 -0.3637
   40MOL0     C 5426   6.904   3.717   5.175 -0.0755 -1.1206  0.3020
   40MOL0    Cl 5427   6.841   3.888   5.189 -0.2631  0.0091  0.2796
   40MOL0     C 5428   6.347   3.933   5.821 -0.3580 -0.0818 -0.1045
   40MOL0     C 5429   6.249   3.841   5.827 -0.6193  1.1492 -0.2182
   40MOL0     O 5430   5.977   3.855   5.960  0.1066  0.1409  0.7312
   40MOL0     C 5431   5.707   3.756   5.883 -0.9120  0.1237  0.1746
   40MOL0     C 5432   5.593   3.688   5.877  0.2306  0.3401 -0.8618
   40MOL0     N 5433   5.119   3.712   5.495 -0.2119  0.1787 -0.5568
   40MOL0     N 5434   4.993   3.742   5.458 -0.3725  0.4711 -0.2931
   40MOL0     C 5435   4.297   3.874   6.114  0.3770  0.1919 -0.1508
   40MOL0     C 5436   4.169   3.924   6.106 -0.0823 -0.5711 -0.1006
   40MOL0     C 5437   3.696   3.922   6.110  0.3748 -0.1638 -0.0493
   40MOL0     C 5438   3.719   4.059   6.134  0.2085 -0.1501  0.2968
   40MOL0     C 5439   3.601   4.143   6.140  0.0504  0.5569 -0.2714
   40MOL0     C 5440   3.469   4.093   6.143 -0.4732  0.7391 -0.6543
   40MOL0     O 5441   3.374   4.182   6.168  0.5992 -0.1122  0.2776
   40MOL0     C 5442   3.242   4.142   6.127  0.6918 -0.6761  0.9691
   40MOL0     C 5443   3.159   4.260   6.073 -0.3698  0.6717  0.0512
   40MOL0     C 5444   3.205   4.305   5.931 -0.1802 -0.4834 -0.2504
   40MOL0     C 5445   3.167   4.199   5.826  0.5688 -0.4500 -0.7501
   40MOL0     C 5446   3.268   4.107   5.805  0.6607  0.4027 -0.7625
   40MOL0     C 5447   3.362   4.033   5.800  0.1394 -0.5297 -0.8140
   40MOL0     C 5448   3.450   3.951   6.118 -0.0161 -0.0087  0.7736
   40MOL0     C 5449   3.563   3.865   6.101  0.7803  0.0177 -0.7685
   40MOL0     C 5450   3.525   3.724   6.058 -0.1048  0.9722 -0.4306
   40MOL0     H 5451   3.993   3.655   5.994 -0.4404  0.5235  1.6922
   40MOL0     H 5452   4.212   3.572   5.977 -0.5144 -0.6236 -1.2036
   40MOL0     H 5453   4.645   3.708   6.049  0.3187  2.3965  1.0984
   40MOL0     H 5454   4.553   3.848   6.105 -1.4507  0.3294  0.4742
   40MOL0     H 5455   4.485   3.866   5.870  0.6997  0.9482 -1.6742
   40MOL0     H 5456   4.656   3.842   5.863  1.9823 -1.7803  3.0391
   40MOL0     H 5457   4.627   3.606   5.795 -0.9420 -0.8547 -0.3664
   40MOL0     H 5458   4.452   3.604   5.832 -0.6901  0.9162 -1.5296
   40MOL0     H 5459   4.400   3.754   5.665  0.1800 -0.8614  2.1916
   40MOL0     H 5460   4.571   3.783   5.638 -1.5972  0.9015 -0.1160
   40MOL0     H 5461   4.383   3.572   5.545  1.4394 -1.0781 -3.1634
   40MOL0     H 5462   4.518   3.499   5.636 -1.3556  0.7349  2.0289
   40MOL0     H 5463   4.557   3.531   5.372 -0.5249  3.2371 -2.8058
   40MOL0     H 5464   4.549   3.703   5.399 -2.1144 -1.5195 -1.5002
   40MOL0     H 5465   4.740   3.506   5.541  1.9055 -0.5427 -1.6475
   40MOL0     H 5466   4.740   3.685   5.559  0.2024 -1.6362  1.8214
   40MOL0     H 5467   4.796   3.524   5.313 -0.5926 -0.6356  2.2218
   40MOL0     H 5468   4.762   3.697   5.300 -2.7163 -0.7041  1.3051
   40MOL0     H 5469   5.022   3.414   5.388 -1.5349 -0.0797 -0.0919
   40MOL0     H 5470   5.363   3.588   5.468 -1.6532  1.1994  1.3930
   40MOL0     H 5471   5.300   3.432   5.405  1.8392 -3.0570  1.9979
   40MOL0     H 5472   5.207   3.395   5.647 -1.0132  0.2706  0.4074
   40MOL0     H 5473   5.389   3.392   5.624  1.5192  1.9153  4.5426
   40MOL0     H 5474   5.399   3.633   5.688 -0.3809  0.0922 -2.5801
   40MOL0     H 5475   5.219   3.617   5.737 -1.9430 -1.4040 -0.3638
   40MOL0     H 5476   5.353   3.604   5.926  2.1230  0.9548 -0.6443
   40MOL0     H 5477   5.277   3.445   5.886  0.6841 -1.0722 -0.6132
   40MOL0     H 5478   5.728   3.375   5.816  3.1189  0.0044  0.1445
   40MOL0     H 5479   5.935   3.382   5.860  0.0868  0.3955  0.9983
   40MOL0     H 5480   6.037   3.524   5.866 -0.8823  1.8211 -1.1779
   40MOL0     H 5481   5.989   3.456   5.706  0.4540  2.1490 -1.1839
   40MOL0     H 5482   6.062   3.919   5.558  0.2156 -0.8168  0.5729
   40MOL0     H 5483   6.250   4.061   5.516  0.5591 -0.6493 -0.4881
   40MOL0     H 5484   6.680   4.106   5.679  0.8674 -0.6473  1.1407
   40MOL0     H 5485   6.616   4.014   5.803 -1.6139  1.9672  0.3293
   40MOL0     H 5486   6.557   3.827   5.634 -1.1277  0.4520 -0.0905
   40MOL0     H 5487   6.599   3.933   5.501 -1.2569  4.6704  1.7063
   40MOL0     H 5488   6.815   3.896   5.709 -1.1391  2.2764 -0.0910
   40MOL0     H 5489   6.813   3.902   5.526  0.7972 -3.5527 -1.0750
   40MOL0     H 5490   6.705   3.664   5.540  0.3243 -1.8269  0.7510
   40MOL0     H 5491   6.768   3.660   5.701  0.3792  3.8156  1.1500
   40MOL0     H 5492   6.987   3.725   5.636 -0.6886  0.2124  0.2585
   40MOL0     H 5493   6.944   3.563   5.570  1.4362  0.0517 -0.2338
   40MOL0     H 5494   7.077   3.683   5.421 -1.1055 -0.2654  1.6373
   40MOL0     H 5495   6.970   3.819   5.419  2.4636  0.8809  4.2396
   40MOL0     H 5496   6.791   3.614   5.318  0.0222 -2.2585 -1.7270
   40MOL0     H 5497   6.952   3.547   5.285  1.5302  0.4196 -0.8399
   40MOL0     H 5498   6.841   3.668   5.100 -1.3518  2.6779 -1.3955
   40MOL0     H 5499   7.008   3.715   5.140  0.0104  0.2936  0.3995
   40MOL0     H 5500   6.419   3.932   5.902  0.3996 -1.0250 -0.7619
   40MOL0     H 5501   6.254   3.780   5.917  2.7357 -0.1844 -1.1383
   40MOL0     H 5502   5.697   3.861   5.906  4.8270  1.1091 -0.4494
   40MOL0     H 5503   5.502   3.744   5.898 -0.8560 -2.3224  2.4581
   40MOL0     H 5504   4.379   3.931   6.157  1.0930 -1.7559  1.2073
   40MOL0     H 5505   4.146   4.023   6.145 -0.8109 -0.6232 -0.3798
   40MOL0     H 5506   3.812   4.114   6.132 -1.2140  2.5675  2.6477
   40MOL0     H 5507   3.619   4.247   6.162 -0.9202  0.3952  1.4979
   40MOL0     H 5508   3.229   4.060   6.056 -3.1468 -0.0321  0.6922
   40MOL0     H 5509   3.187   4.105   6.215 -0.6606 -0.3803  0.2849
   40MOL0     H 5510   3.159   4.351   6.134  0.7838  1.8923 -1.6768
   40MOL0     H 5511   3.055   4.227   6.063 -0.6330  1.8707 -1.5337
   40MOL0     H 5512   3.152   4.399   5.912  1.0741  0.5811  1.2667
   40MOL0     H 5513   3.312   4.324   5.936  0.1321 -2.2810  0.7257
   40MOL0     H 5514   3.151   4.245   5.728  0.6686  0.3838 -0.3835
   40MOL0     H 5515   3.081   4.144   5.866  0.6188 -0.7954 -1.1155
   40MOL0     H 5516   3.453   3.976   5.788  0.1335 -0.8072  0.3927
   40MOL0     H 5517   3.349   3.913   6.109 -0.4061  1.1012  0.2533
   40MOL0     H 5518   3.584   3.684   5.976  0.7758 -1.3967  1.2592
   40MOL0     H 5519   3.530   3.651   6.139 -0.2614  0.6594 -0.7031
   40MOL0     H 5520   3.421   3.723   6.024  1.0812  0.6024 -4.5589
   41MOL0     O 5521   6.949   4.721   0.694 -0.1461 -0.2596 -0.1288
   41MOL0     C 5522   7.042   4.800   0.657  0.8342 -0.0466  0.0833
   41MOL0     O 5523   7.055   4.837   0.521  0.3109 -0.7329  0.0560
   41MOL0     C 5524   6.959   4.802   0.430 -0.0960 -0.1746 -0.0316
   41MOL0     C 5525   6.829   4.844   0.451 -0.2984 -0.2476 -1.1454
   41MOL0     C 5526   6.730   4.813   0.358 -0.6484 -0.0404 -0.3641
   41MOL0     C 5527   6.755   4.733   0.242 -0.3105 -0.1600 -0.3959
   41MOL0     O 5528   6.659   4.702   0.146  0.5161  0.2930 -0.1414
   41MOL0     C 5529   6.521   4.732   0.182  0.2856  0.6199  0.0878
   41MOL0     C 5530   6.424   4.652   0.084  0.2591  0.3524 -0.2903
   41MOL0     C 5531   6.355   4.742  -0.019 -0.0241 -0.4491  0.3954
   41MOL0     C 5532   6.256   4.666  -0.122 -0.6288  0.7169  0.4543
   41MOL0     C 5533   6.125   4.627  -0.055  0.3572  0.4924 -0.9462
   41MOL0     C 5534   6.033   4.555  -0.145 -0.7188 -0.1864 -0.0024
   41MOL0     C 5535   6.019   4.621  -0.284 -0.3245  0.1550 -0.3497
   41MOL0     C 5536   5.873   4.616  -0.348 -0.4730 -0.9884 -0.5905
   41MOL0     N 5537   5.826   4.483  -0.401 -0.1061  0.5949  0.0769
   41MOL0     C 5538   5.899   4.405  -0.489  0.5396  0.6884  0.2272
   41MOL0     C 5539   5.819   4.295  -0.518 -0.8038 -0.1031 -0.5400
   41MOL0     C 5540   5.843   4.178  -0.607  0.5299  0.0871 -0.0632
   41MOL0     C 5541   5.975   4.107  -0.586 -0.3042  0.8185 -0.4086
   41MOL0     C 5542   6.001   4.073  -0.439  0.5059 -0.1120 -0.0474
   41MOL0     C 5543   6.154   4.052  -0.396  0.3087 -0.4090  0.3029
   41MOL0     O 5544   6.228   4.168  -0.446  0.2104  0.9691 -0.7786
   41MOL0     C 5545   6.334   4.213  -0.375  0.1685  0.1680  0.6554
   41MOL0     C 5546   6.429   4.134  -0.311 -0.3458 -0.2860  0.1186
   41MOL0     C 5547   6.541   4.195  -0.244  0.1933  0.6500 -0.0367
   41MOL0     C 5548   6.637   4.108  -0.178 -0.2037  0.0624 -0.5458
   41MOL0     C 5549   6.549   4.340  -0.242 -1.1663  0.0188 -0.6317
   41MOL0     C 5550   6.641   4.422  -0.148  0.1930  0.4481 -0.2599
   41MOL0     O 5551   6.732   4.362  -0.060  0.0913  0.0647  0.1542
   41MOL0     C 5552   6.848   4.426  -0.049 -0.2238  0.3909  0.0905
   41MOL0     C 5553   6.910   4.491  -0.159  1.2131  0.9200 -0.3300
   41MOL0     C 5554   7.038   4.524  -0.140 -0.1598  0.3135  0.1822
   41MOL0     C 5555   7.115   4.484  -0.024  1.4263 -0.2914 -0.3525
   41MOL0     O 5556   7.246   4.503  -0.006  0.3667 -0.1295  0.0295
   41MOL0     C 5557   7.320   4.586  -0.097 -0.5070  1.0072 -0.3057
   41MOL0     C 5558   7.418   4.641   0.004 -0.1734 -0.5059  0.3757
   41MOL0     C 5559   7.512   4.746  -0.066 -0.1379 -0.6146 -0.6118
   41MOL0     C 5560   7.605   4.805   0.049  0.0283 -0.1547  0.4046
   41MOL0     C 5561   7.696   4.908  -0.024 -0.1571  1.0828  0.7492
   41MOL0     C 5562   7.845   4.913   0.024 -0.0568 -0.4379  0.0260
   41MOL0     C 5563   7.874   4.959   0.166  0.5305  0.1210  0.2853
   41MOL0     C 5564   8.025   4.964   0.192  0.2906 -0.3109  0.0355
   41MOL0    Cl 5565   8.094   5.130   0.142  0.2639 -0.0460 -0.2696
   41MOL0     C 5566   7.044   4.414   0.079  0.0384  0.0332  0.3413
   41MOL0     C 5567   6.911   4.393   0.068  0.5609 -0.5341  0.7270
   41MOL0     O 5568   6.628   4.545  -0.155  0.1872  0.1365 -0.4040
   41MOL0     C 5569   6.462   4.415  -0.323  0.5690  0.1581 -0.0304
   41MOL0     C 5570   6.356   4.347  -0.380 -0.2464 -0.4264  0.0599
   41MOL0     N 5571   5.702   4.309  -0.445  0.3052 -0.5622  0.2872
   41MOL0     N 5572   5.710   4.418  -0.373 -0.2443 -0.2148  0.2848
   41MOL0     C 5573   6.889   4.695   0.217 -0.9173  0.3973 -0.1034
   41MOL0     C 5574   6.991   4.720   0.311  0.5577  0.9139 -0.2536
   41MOL0     C 5575   7.139   4.843   0.759  0.4147 -0.5901 -0.9755
   41MOL0     C 5576   7.124   4.797   0.889  0.7281 -0.3215 -0.3473
   41MOL0     C 5577   7.223   4.814   0.984  0.0832  0.7649  0.1171
   41MOL0     C 5578   7.327   4.900   0.955 -0.3927 -0.9886 -0.0979
   41MOL0     O 5579   7.430   4.912   1.051  0.0913 -0.0964  0.2866
   41MOL0     C 5580   7.396   4.998   1.152 -0.3184  0.0218 -0.0848
   41MOL0     C 5581   7.501   5.112   1.165  0.1256 -0.7018 -0.2081
   41MOL0     C 5582   7.520   5.208   1.038  0.4467  0.0790  0.2053
   41MOL0     C 5583   7.622   5.314   1.064  0.5626 -1.6243 -0.9385
   41MOL0     C 5584   7.638   5.415   0.952  0.5999  0.6374  0.7576
   41MOL0     C 5585   7.650   5.505   0.872 -0.4842 -0.3846 -0.1324
   41MOL0     C 5586   7.349   4.940   0.820 -0.4410 -1.3323 -0.2023
   41MOL0     C 5587   7.252   4.919   0.724  0.1532  0.3496 -0.6793
   41MOL0     C 5588   7.288   4.971   0.588 -0.4339 -0.3944 -0.2592
   41MOL0     H 5589   6.797   4.904   0.536 -3.4041 -1.6513 -1.1804
   41MOL0     H 5590   6.625   4.835   0.374 -0.6255  1.2122 -1.7357
   41MOL0     H 5591   6.502   4.840   0.188  1.4887  0.8405  0.1003
   41MOL0     H 5592   6.493   4.690   0.279 -3.3403 -2.0960 -1.8859
   41MOL0     H 5593   6.480   4.574   0.031  2.5289  1.0080  0.9851
   41MOL0     H 5594   6.348   4.603   0.144 -0.6554  1.4993 -0.4670
   41MOL0     H 5595   6.287   4.815   0.026 -1.7902 -1.9966  0.3124
   41MOL0     H 5596   6.428   4.802  -0.076 -0.6811  0.3462  0.3752
   41MOL0     H 5597   6.242   4.734  -0.206 -0.9772 -1.0238 -0.9602
   41MOL0     H 5598   6.299   4.573  -0.160  2.2161  1.4419  1.6484
   41MOL0     H 5599   6.072   4.716  -0.018 -3.2237 -2.6374  2.3076
   41MOL0     H 5600   6.145   4.559   0.028  0.0202  3.1753  1.4707
   41MOL0     H 5601   6.063   4.450  -0.153  1.1976  0.2855  0.5607
   41MOL0     H 5602   5.945   4.566  -0.081  2.6221 -0.3258  5.2264
   41MOL0     H 5603   6.092   4.579  -0.354  1.3072  3.1074 -0.6058
   41MOL0     H 5604   6.050   4.726  -0.286 -1.5713  0.5300 -1.5653
   41MOL0     H 5605   5.806   4.659  -0.272  2.9186  0.3903  1.8811
   41MOL0     H 5606   5.867   4.691  -0.427  1.1101  0.5147  0.6455
   41MOL0     H 5607   5.993   4.433  -0.536  1.6287 -2.3626  0.3854
   41MOL0     H 5608   5.852   4.215  -0.710  0.2145  0.7123  0.1262
   41MOL0     H 5609   5.752   4.117  -0.607 -0.7257  1.8457  1.8318
   41MOL0     H 5610   5.983   4.010  -0.636  1.5809  0.0187  1.2835
   41MOL0     H 5611   6.059   4.171  -0.614 -0.3313  1.1068  0.1560
   41MOL0     H 5612   5.961   4.152  -0.376 -3.2745 -0.4650 -1.7587
   41MOL0     H 5613   5.941   3.989  -0.401  1.8287 -0.4360  1.4750
   41MOL0     H 5614   6.156   4.049  -0.287 -0.5040 -0.4640  0.3283
   41MOL0     H 5615   6.193   3.959  -0.438  0.5061  1.0809 -3.2058
   41MOL0     H 5616   6.426   4.026  -0.310 -4.0814 -0.4908  5.2384
   41MOL0     H 5617   6.610   4.106  -0.072  2.5285 -3.2845  0.2936
   41MOL0     H 5618   6.740   4.141  -0.197 -0.0705 -0.9238 -1.6804
   41MOL0     H 5619   6.633   4.004  -0.212 -2.5530 -0.4040  0.9181
   41MOL0     H 5620   6.861   4.512  -0.254 -0.2377 -2.1625 -0.3780
   41MOL0     H 5621   7.080   4.572  -0.227 -1.0948 -0.3841 -0.6722
   41MOL0     H 5622   7.370   4.530  -0.176 -0.5085  1.3317 -0.5401
   41MOL0     H 5623   7.248   4.656  -0.141 -1.7523 -0.3830 -0.5862
   41MOL0     H 5624   7.362   4.692   0.083  1.2049  3.0177 -0.7185
   41MOL0     H 5625   7.481   4.562   0.046  2.0155  1.0213  0.1639
   41MOL0     H 5626   7.461   4.828  -0.116 -1.5956 -0.0428  1.6342
   41MOL0     H 5627   7.577   4.693  -0.136  0.5693  0.0797 -0.4940
   41MOL0     H 5628   7.653   4.726   0.107  0.1196  1.5140  2.7133
   41MOL0     H 5629   7.544   4.867   0.115  0.5629  0.9486 -0.1064
   41MOL0     H 5630   7.694   4.890  -0.132 -1.6321 -1.7393  1.1278
   41MOL0     H 5631   7.658   5.009  -0.012 -2.5484  0.2324  0.8692
   41MOL0     H 5632   7.902   4.971  -0.050  0.1335 -0.8527 -0.1612
   41MOL0     H 5633   7.886   4.813   0.009 -0.9184 -0.4866 -2.6659
   41MOL0     H 5634   7.818   4.883   0.220 -0.7526 -1.7945 -3.4126
   41MOL0     H 5635   7.839   5.061   0.184  0.1829 -0.0910  0.8503
   41MOL0     H 5636   8.077   4.882   0.141  0.7938  0.0983 -0.1189
   41MOL0     H 5637   8.050   4.936   0.294 -0.3875 -1.9059 -0.1980
   41MOL0     H 5638   7.088   4.401   0.178 -0.3345  3.1289  1.0384
   41MOL0     H 5639   6.862   4.355   0.157  3.2407  0.3222  2.6960
   41MOL0     H 5640   6.451   4.523  -0.327 -3.2613 -0.0102  1.4931
   41MOL0     H 5641   6.290   4.418  -0.429  2.3529  1.9277 -0.3043
   41MOL0     H 5642   6.923   4.652   0.123 -0.8947 -0.4362  0.2792
   41MOL0     H 5643   7.096   4.703   0.285  0.7273  0.9438  0.3968
   41MOL0     H 5644   7.037   4.734   0.903 -0.8868  0.3435 -5.3767
   41MOL0     H 5645   7.212   4.765   1.080  3.2152 -2.4988 -0.9765
   41MOL0     H 5646   7.299   5.048   1.140  0.1716  0.5126 -2.4222
   41MOL0     H 5647   7.415   4.936   1.241 -0.2801  0.6339  0.3386
   41MOL0     H 5648   7.595   5.058   1.172  0.8560  0.3002 -1.7665
   41MOL0     H 5649   7.485   5.177   1.251 -1.0894 -2.2057  0.7736
   41MOL0     H 5650   7.544   5.146   0.951 -1.2365  2.5646 -2.1616
   41MOL0     H 5651   7.425   5.261   1.032  1.8346  3.4294  3.6004
   41MOL0     H 5652   7.721   5.272   1.081  1.8099  1.6578  0.7496
   41MOL0     H 5653   7.588   5.367   1.154  0.8552 -1.6143 -0.8340
   41MOL0     H 5654   7.683   5.572   0.795 -0.5004  1.2753  1.2566
   41MOL0     H 5655   7.434   5.005   0.802 -3.9270  3.7511 -0.3601
   41MOL0     H 5656   7.215   5.029   0.531 -0.0010  0.2064 -0.2124
   41MOL0     H 5657   7.373   5.037   0.607  0.6470 -1.5083 -1.0649
   41MOL0     H 5658   7.316   4.890   0.521 -1.9106 -1.5191  0.4120
   42MOL0     O 5659   4.517   4.937   4.655 -0.0308  0.5342  0.3048
   42MOL0     C 5660   4.462   4.876   4.752  0.3571  0.0720 -0.3848
   42MOL0     O 5661   4.522   4.848   4.873 -0.0836  0.3349  0.0784
   42MOL0     C 5662   4.648   4.892   4.885 -0.3092  0.2401 -0.0676
   42MOL0     C 5663   4.668   5.012   4.950 -0.4624 -0.2133 -0.4912
   42MOL0     C 5664   4.800   5.057   4.959  0.5373  0.0962  0.8351
   42MOL0     C 5665   4.905   4.975   4.920  0.1865 -0.0091  0.5601
   42MOL0     O 5666   5.029   5.035   4.905 -0.6814  0.2983 -0.5729
   42MOL0     C 5667   5.026   5.151   4.827  0.9885 -0.5455  0.0580
   42MOL0     C 5668   5.162   5.193   4.761  0.2934 -0.0241  0.4699
   42MOL0     C 5669   5.252   5.259   4.864  0.7782 -0.4216 -0.0681
   42MOL0     C 5670   5.366   5.323   4.793 -0.7444  0.2084 -0.5008
   42MOL0     C 5671   5.444   5.420   4.872 -0.3750  0.0739 -0.2665
   42MOL0     C 5672   5.556   5.461   4.768  0.2077 -0.3571  0.7585
   42MOL0     C 5673   5.679   5.543   4.827 -0.1892 -0.1722  0.4324
   42MOL0     C 5674   5.748   5.636   4.717  0.1734  0.6042  0.1874
   42MOL0     N 5675   5.859   5.707   4.771 -0.7456 -0.0645  0.0378
   42MOL0     C 5676   5.837   5.820   4.852  0.4579  0.2144 -0.0358
   42MOL0     C 5677   5.959   5.871   4.870 -0.5551  0.0322  0.9392
   42MOL0     C 5678   5.995   5.993   4.945  0.5649 -0.5753 -0.9745
   42MOL0     C 5679   6.136   6.047   4.906 -0.2066 -0.7776 -0.7613
   42MOL0     C 5680   6.191   6.125   5.035 -0.1663  0.2873  1.0273
   42MOL0     C 5681   6.345   6.108   5.053  0.1091  0.8314 -0.3302
   42MOL0     O 5682   6.422   6.158   4.940  0.2489 -0.4400 -0.5629
   42MOL0     C 5683   6.560   6.151   4.939  0.0052  0.2500 -0.4172
   42MOL0     C 5684   6.643   6.114   5.045 -0.2582  0.5920  0.3423
   42MOL0     C 5685   6.786   6.105   5.044  0.0840  0.5430  0.0805
   42MOL0     C 5686   6.856   6.061   5.167 -0.4076  0.0737  0.2401
   42MOL0     C 5687   6.848   6.143   4.929 -0.1195  0.0947 -0.7211
   42MOL0     C 5688   6.992   6.128   4.910  0.3340 -1.2793  1.6903
   42MOL0     O 5689   7.042   6.225   4.810  0.4470 -0.2828 -0.1552
   42MOL0     C 5690   7.182   6.236   4.793  1.1327  0.1336 -0.6884
   42MOL0     C 5691   7.239   6.197   4.671  0.2419  1.0384 -0.5215
   42MOL0     C 5692   7.369   6.229   4.644 -1.2194 -0.2613 -0.2098
   42MOL0     C 5693   7.459   6.262   4.743  0.4891 -0.2840 -0.7548
   42MOL0     O 5694   7.589   6.295   4.705  0.2717  0.1076  0.4804
   42MOL0     C 5695   7.679   6.355   4.806  0.5346  0.1123  0.4509
   42MOL0     C 5696   7.820   6.368   4.738 -1.1937  0.7627 -0.0159
   42MOL0     C 5697   7.820   6.416   4.591 -0.5048 -0.1782  0.5895
   42MOL0     C 5698   7.970   6.459   4.569 -0.5319  0.3276  0.5377
   42MOL0     C 5699   7.972   6.556   4.449 -0.0902 -0.3112  0.1281
   42MOL0     C 5700   8.115   6.595   4.407  0.3704  0.2653 -0.3408
   42MOL0     C 5701   8.113   6.687   4.284 -0.0314  0.0240  0.5427
   42MOL0     C 5702   8.259   6.721   4.245  0.1993  0.5922  0.6168
   42MOL0    Cl 5703   8.354   6.790   4.377 -0.4430  0.3677 -0.0672
   42MOL0     C 5704   7.409   6.278   4.875 -0.3485 -0.5191  0.9557
   42MOL0     C 5705   7.269   6.264   4.895  0.6724 -0.7154 -0.7434
   42MOL0     O 5706   7.058   6.046   4.971  0.1282  0.4044 -0.2550
   42MOL0     C 5707   6.773   6.190   4.820 -0.6185 -0.1006 -0.6836
   42MOL0     C 5708   6.635   6.179   4.824  0.1174 -0.9955  0.4776
   42MOL0     N 5709   6.039   5.816   4.775  0.8677  0.0323 -0.1244
   42MOL0     N 5710   5.981   5.711   4.724 -0.2993  0.9657  0.2945
   42MOL0     C 5711   4.882   4.850   4.870 -0.7311 -0.1043  0.0988
   42MOL0     C 5712   4.754   4.804   4.855 -0.1548  0.1385  0.6970
   42MOL0     C 5713   4.330   4.816   4.736 -0.6302 -0.1168  0.4582
   42MOL0     C 5714   4.303   4.707   4.815  0.7600  0.0114  1.1557
   42MOL0     C 5715   4.184   4.630   4.794 -0.5813  0.4977 -0.0431
   42MOL0     C 5716   4.089   4.663   4.702 -0.1923  0.3777  0.5210
   42MOL0     O 5717   3.984   4.576   4.691  0.1279  0.4812  0.4280
   42MOL0     C 5718   3.857   4.623   4.669  0.0862 -0.2003 -0.2168
   42MOL0     C 5719   3.782   4.665   4.795  0.4977 -0.1383 -0.2816
   42MOL0     C 5720   3.744   4.547   4.899 -0.1721  0.3547  0.4565
   42MOL0     C 5721   3.872   4.489   4.966 -0.5538  0.1607  0.1610
   42MOL0     C 5722   3.939   4.578   5.056 -0.4318 -0.1775 -0.6800
   42MOL0     C 5723   3.991   4.659   5.118 -0.5795  0.5046 -0.3360
   42MOL0     C 5724   4.118   4.772   4.619  0.5697 -0.4072 -1.2664
   42MOL0     C 5725   4.238   4.853   4.636  0.1325  0.1702 -0.2293
   42MOL0     C 5726   4.272   4.963   4.530  0.5444  0.1098 -0.1697
   42MOL0     H 5727   4.585   5.080   4.965 -0.9847 -0.4913 -1.9066
   42MOL0     H 5728   4.812   5.154   5.005  0.3946  0.6272 -0.2080
   42MOL0     H 5729   4.992   5.229   4.895 -1.3523 -0.0019 -1.6175
   42MOL0     H 5730   4.952   5.139   4.748  1.4643  0.2000 -0.5152
   42MOL0     H 5731   5.209   5.105   4.715 -0.1026  0.2734 -0.5252
   42MOL0     H 5732   5.137   5.259   4.678 -4.6080  0.3421  1.9030
   42MOL0     H 5733   5.201   5.338   4.919  1.0454 -0.5529  0.3740
   42MOL0     H 5734   5.280   5.184   4.938 -0.6083 -2.1433 -1.2217
   42MOL0     H 5735   5.426   5.244   4.747  0.0621  1.6406 -2.0133
   42MOL0     H 5736   5.325   5.380   4.710  0.1612  1.9511  0.2117
   42MOL0     H 5737   5.471   5.368   4.964 -1.4928 -0.1180 -0.0320
   42MOL0     H 5738   5.386   5.505   4.907 -0.3281  0.4652 -1.1028
   42MOL0     H 5739   5.596   5.376   4.712  0.0409  0.1143 -0.0907
   42MOL0     H 5740   5.505   5.524   4.694  2.3196 -1.1015 -1.4754
   42MOL0     H 5741   5.749   5.483   4.886 -0.0138 -1.7760 -1.3044
   42MOL0     H 5742   5.632   5.603   4.905 -2.0533  0.2768 -0.9706
   42MOL0     H 5743   5.797   5.562   4.653  4.1804  1.2537  2.2177
   42MOL0     H 5744   5.677   5.707   4.673  0.4734  1.4320  1.0077
   42MOL0     H 5745   5.744   5.857   4.893  0.2902  0.2753 -0.4691
   42MOL0     H 5746   5.981   5.963   5.049 -2.4176  1.9744 -0.4818
   42MOL0     H 5747   5.923   6.076   4.940 -0.8788 -1.7119  0.2407
   42MOL0     H 5748   6.200   5.959   4.894 -0.1304 -0.8304 -0.0099
   42MOL0     H 5749   6.145   6.109   4.816  1.1711 -0.7933 -0.6491
   42MOL0     H 5750   6.163   6.231   5.027 -3.2376 -0.3903  1.7130
   42MOL0     H 5751   6.146   6.079   5.123  0.1837 -2.3487 -0.0617
   42MOL0     H 5752   6.378   6.164   5.141  0.5310 -1.5027  1.0588
   42MOL0     H 5753   6.368   6.002   5.065 -0.1910  0.5783 -1.7409
   42MOL0     H 5754   6.606   6.086   5.143  4.1279 -0.6818  1.8802
   42MOL0     H 5755   6.931   6.130   5.207 -0.8450 -0.7795  2.7134
   42MOL0     H 5756   6.907   5.966   5.155  1.5043  0.9274  1.1520
   42MOL0     H 5757   6.789   6.070   5.253 -1.8189  2.0831 -0.9709
   42MOL0     H 5758   7.170   6.154   4.599  0.5422 -1.1780  0.4394
   42MOL0     H 5759   7.398   6.212   4.541  0.6632 -0.1479  0.2621
   42MOL0     H 5760   7.640   6.450   4.845 -0.5108  0.2075 -0.7713
   42MOL0     H 5761   7.690   6.285   4.890  0.7705 -0.9937 -0.4896
   42MOL0     H 5762   7.884   6.436   4.795  0.0246 -0.8960  0.6805
   42MOL0     H 5763   7.864   6.268   4.736  2.1262  2.0269  1.5139
   42MOL0     H 5764   7.754   6.504   4.595  0.6584  0.7417  4.1715
   42MOL0     H 5765   7.790   6.356   4.505 -1.0299  1.2481 -0.2556
   42MOL0     H 5766   8.027   6.368   4.547  0.8781  1.0495  1.0505
   42MOL0     H 5767   8.020   6.500   4.657  0.0060 -2.9194  1.8853
   42MOL0     H 5768   7.922   6.503   4.367  2.6909 -2.0856 -0.5485
   42MOL0     H 5769   7.914   6.648   4.464  0.0093  0.2991 -2.5668
   42MOL0     H 5770   8.162   6.502   4.374 -0.9190 -0.3163 -0.5891
   42MOL0     H 5771   8.164   6.651   4.487  0.6440  0.8564 -0.9152
   42MOL0     H 5772   8.058   6.780   4.298 -3.6470 -1.8536 -0.0393
   42MOL0     H 5773   8.061   6.640   4.200 -1.4185 -0.6583  1.7316
   42MOL0     H 5774   8.269   6.785   4.156  2.1652 -1.3852 -0.7086
   42MOL0     H 5775   8.314   6.630   4.218  1.7523  1.5006  0.5589
   42MOL0     H 5776   7.474   6.303   4.958  0.8144 -0.4392  0.0433
   42MOL0     H 5777   7.224   6.278   4.993  4.9848  0.7312  1.2900
   42MOL0     H 5778   6.816   6.217   4.724 -1.6837  1.8541 -0.6699
   42MOL0     H 5779   6.574   6.212   4.741 -0.5377  0.8902  1.6461
   42MOL0     H 5780   4.973   4.800   4.841 -0.6326 -1.9025  3.0469
   42MOL0     H 5781   4.735   4.706   4.812  1.5737 -0.5429  1.3842
   42MOL0     H 5782   4.374   4.669   4.888  1.6237  2.3061  1.5692
   42MOL0     H 5783   4.173   4.542   4.857  1.8144  0.5670  0.5820
   42MOL0     H 5784   3.859   4.699   4.590  0.4318 -0.1921 -0.2027
   42MOL0     H 5785   3.799   4.544   4.620  1.0769 -0.6168 -0.7514
   42MOL0     H 5786   3.685   4.694   4.753  1.5761  1.2271 -1.9593
   42MOL0     H 5787   3.823   4.752   4.845 -1.5145  0.9194 -0.3455
   42MOL0     H 5788   3.682   4.587   4.980  1.4975 -0.1883  2.0846
   42MOL0     H 5789   3.704   4.470   4.833  2.4535 -0.9171  0.2016
   42MOL0     H 5790   3.953   4.457   4.900 -0.5674 -0.5377  0.4704
   42MOL0     H 5791   3.834   4.404   5.023 -3.2143  2.1393  1.5693
   42MOL0     H 5792   4.023   4.748   5.169 -1.1832  0.2880  0.4408
   42MOL0     H 5793   4.051   4.788   4.535 -0.5421 -2.5882 -0.8754
   42MOL0     H 5794   4.272   5.060   4.581 -3.6995 -0.4038  1.1931
   42MOL0     H 5795   4.372   4.934   4.496  0.9462 -1.6315  2.2173
   42MOL0     H 5796   4.203   4.967   4.445 -0.3124  1.7897  0.5712
   43MOL0     O 5797  11.280   6.844   4.737 -0.2955 -0.7571  0.1624
   43MOL0     C 5798  11.197   6.799   4.820  0.1692  0.4689 -0.5821
   43MOL0     O 5799  11.232   6.736   4.942  0.4110 -0.3132  0.5402
   43MOL0     C 5800  11.361   6.702   4.969  0.0744  0.3553  0.3693
   43MOL0     C 5801  11.394   6.562   4.945 -0.3410 -0.6844  0.7917
   43MOL0     C 5802  11.524   6.518   4.979 -0.5931  0.7247 -0.3827
   43MOL0     C 5803  11.621   6.610   5.025  0.3496  0.3638 -0.6454
   43MOL0     O 5804  11.750   6.581   5.056  0.0193  0.0885 -0.5621
   43MOL0     C 5805  11.754   6.484   5.164 -0.2754 -0.1385  0.6245
   43MOL0     C 5806  11.880   6.496   5.244 -0.2973 -0.6024 -0.0697
   43MOL0     C 5807  11.856   6.607   5.348  0.6614  0.0591  0.4828
   43MOL0     C 5808  11.987   6.637   5.427  0.2630  0.0304  0.0167
   43MOL0     C 5809  11.967   6.755   5.523 -0.6577 -0.5065 -1.0522
   43MOL0     C 5810  12.101   6.793   5.586 -0.2426 -0.4832 -0.2663
   43MOL0     C 5811  12.169   6.688   5.673  0.7093  0.2298 -1.2427
   43MOL0     C 5812  12.073   6.627   5.781  0.1639 -0.5381 -0.3432
   43MOL0     N 5813  12.141   6.526   5.864 -0.1886  0.0289 -0.0195
   43MOL0     C 5814  12.190   6.539   5.988  0.3278  0.4537 -0.1290
   43MOL0     C 5815  12.260   6.427   6.020 -0.2791 -0.4864  1.2495
   43MOL0     C 5816  12.332   6.414   6.150  0.3383  0.4509 -0.0127
   43MOL0     C 5817  12.480   6.450   6.128 -1.0104  0.6445 -0.3756
   43MOL0     C 5818  12.559   6.424   6.248  0.4897 -0.7542  0.0161
   43MOL0     C 5819  12.702   6.477   6.232  0.6921  0.2750  0.7566
   43MOL0     O 5820  12.793   6.396   6.313  0.5800 -0.8017 -0.2428
   43MOL0     C 5821  12.927   6.424   6.290 -0.2977 -0.3935 -0.6625
   43MOL0     C 5822  12.981   6.520   6.197 -0.0230 -0.1397 -0.6972
   43MOL0     C 5823  13.107   6.544   6.176  0.8726  0.3551 -0.1094
   43MOL0     C 5824  13.152   6.640   6.064  0.0979 -0.1635 -0.0528
   43MOL0     C 5825  13.195   6.473   6.260 -1.1527  0.2690  0.7556
   43MOL0     C 5826  13.346   6.490   6.248 -0.2779  0.0235  0.4307
   43MOL0     O 5827  13.412   6.380   6.276 -0.2185  0.1667  0.8107
   43MOL0     C 5828  13.550   6.369   6.289  0.1093 -0.5186  0.2646
   43MOL0     C 5829  13.588   6.240   6.275  0.5009  1.3027 -0.6682
   43MOL0     C 5830  13.724   6.207   6.289 -0.3826  0.2605  0.7547
   43MOL0     C 5831  13.816   6.309   6.319 -0.5282 -0.0424 -0.1780
   43MOL0     O 5832  13.947   6.268   6.341 -0.1219  0.2354 -0.0264
   43MOL0     C 5833  14.043   6.354   6.390  0.0335 -0.7574  0.4628
   43MOL0     C 5834  14.178   6.289   6.406 -0.4175  0.5410  0.8169
   43MOL0     C 5835  14.160   6.177   6.519 -0.4373 -0.0441  0.3091
   43MOL0     C 5836  14.290   6.100   6.547 -0.2545  0.1891  0.6586
   43MOL0     C 5837  14.386   6.180   6.635  0.6980 -0.8072  0.7206
   43MOL0     C 5838  14.509   6.091   6.668  0.3416 -0.4891 -0.1421
   43MOL0     C 5839  14.608   6.181   6.731  0.0119  0.4219  0.2333
   43MOL0     C 5840  14.735   6.102   6.765 -0.6696 -0.1997 -0.2676
   43MOL0    Cl 5841  14.707   5.936   6.840 -0.5409 -0.0469  0.1158
   43MOL0     C 5842  13.771   6.446   6.339  0.2215  0.3277 -0.6281
   43MOL0     C 5843  13.638   6.478   6.326 -0.1541 -0.0571 -0.5105
   43MOL0     O 5844  13.394   6.592   6.208  0.4864  0.0002  0.3414
   43MOL0     C 5845  13.143   6.390   6.363 -0.2959 -0.1031  0.4968
   43MOL0     C 5846  13.013   6.361   6.379  0.3296 -0.0106 -0.8027
   43MOL0     N 5847  12.229   6.335   5.917  0.0101  0.2488 -0.2162
   43MOL0     N 5848  12.162   6.397   5.825 -0.3397  0.4603  1.0908
   43MOL0     C 5849  11.589   6.742   5.047 -0.3618  0.1942 -0.6869
   43MOL0     C 5850  11.455   6.787   5.020 -0.6932  0.1575  0.2278
   43MOL0     C 5851  11.052   6.790   4.767 -0.1932  0.0288  0.3906
   43MOL0     C 5852  10.972   6.683   4.810  0.3367  0.4102 -0.2252
   43MOL0     C 5853  10.837   6.671   4.776  0.1053  0.2265  0.9930
   43MOL0     C 5854  10.777   6.762   4.685  0.2997  0.4582 -0.4067
   43MOL0     O 5855  10.648   6.772   4.644  0.5120 -1.1094 -0.4593
   43MOL0     C 5856  10.548   6.711   4.719  0.1430  0.3515  0.2491
   43MOL0     C 5857  10.403   6.715   4.647 -0.0901  0.1450  0.8604
   43MOL0     C 5858  10.279   6.658   4.724 -0.0980  0.4711 -0.0871
   43MOL0     C 5859  10.161   6.664   4.624  0.3413  0.2682 -0.5130
   43MOL0     C 5860  10.040   6.625   4.696 -0.1189  0.3703 -0.6006
   43MOL0     C 5861   9.950   6.583   4.763  0.4831 -0.9500  0.1705
   43MOL0     C 5862  10.856   6.863   4.623 -0.8193 -0.1230 -0.3924
   43MOL0     C 5863  10.994   6.879   4.667 -0.4916 -0.1167 -0.3781
   43MOL0     C 5864  11.071   6.999   4.627 -0.3847 -0.1765  0.3043
   43MOL0     H 5865  11.327   6.500   4.885  1.2506  0.8181 -2.8688
   43MOL0     H 5866  11.548   6.414   4.961 -0.8628  0.0761  2.5105
   43MOL0     H 5867  11.735   6.385   5.122  2.6617  0.2857 -2.1112
   43MOL0     H 5868  11.672   6.508   5.232 -0.4559  1.8892 -0.2649
   43MOL0     H 5869  11.907   6.405   5.299  1.6429  0.3545  0.6588
   43MOL0     H 5870  11.961   6.525   5.177  1.3164 -0.4016  1.8582
   43MOL0     H 5871  11.810   6.690   5.294 -0.6760 -0.8838  0.1136
   43MOL0     H 5872  11.783   6.570   5.421  0.9679 -0.2903  0.6185
   43MOL0     H 5873  12.020   6.544   5.474  2.6801  1.1022  0.6067
   43MOL0     H 5874  12.068   6.661   5.357  1.5975 -2.1407  0.6850
   43MOL0     H 5875  11.884   6.736   5.591  0.3742 -2.7821 -0.3346
   43MOL0     H 5876  11.942   6.846   5.467 -0.8181  0.3364  0.3430
   43MOL0     H 5877  12.174   6.824   5.511 -1.6799  0.2782 -1.4052
   43MOL0     H 5878  12.085   6.879   5.651  2.1088 -2.0492  2.6339
   43MOL0     H 5879  12.254   6.728   5.730  0.2669  0.6089 -0.8424
   43MOL0     H 5880  12.210   6.611   5.607 -0.7435  1.1532 -3.3228
   43MOL0     H 5881  12.041   6.715   5.838 -1.2135  0.3047 -2.3087
   43MOL0     H 5882  11.988   6.572   5.742 -0.2353 -0.3244  0.2060
   43MOL0     H 5883  12.191   6.632   6.045 -1.5956  0.6030 -0.2741
   43MOL0     H 5884  12.321   6.309   6.180  0.3466  0.2518 -0.6787
   43MOL0     H 5885  12.286   6.483   6.221 -0.7327 -0.2557  0.0128
   43MOL0     H 5886  12.525   6.400   6.042 -0.0344 -0.2903  0.6658
   43MOL0     H 5887  12.478   6.555   6.097  2.4812  0.8099 -0.4225
   43MOL0     H 5888  12.516   6.488   6.326  0.2516  0.9377 -1.4245
   43MOL0     H 5889  12.552   6.323   6.287  0.1158 -1.1526 -1.0333
   43MOL0     H 5890  12.726   6.461   6.127  1.1759 -2.1818  1.1843
   43MOL0     H 5891  12.701   6.581   6.266  3.3708  0.2764  1.1010
   43MOL0     H 5892  12.909   6.581   6.143  1.2567  0.3896 -1.8890
   43MOL0     H 5893  13.224   6.591   5.999  0.0714 -1.3715  0.8095
   43MOL0     H 5894  13.185   6.734   6.109  1.9728  0.2013 -2.0476
   43MOL0     H 5895  13.064   6.658   6.001 -1.8361 -0.0718  2.4914
   43MOL0     H 5896  13.522   6.163   6.236  1.8636 -0.7197  0.7981
   43MOL0     H 5897  13.756   6.104   6.284 -0.3448  0.2005  1.9497
   43MOL0     H 5898  14.056   6.438   6.322  1.9295  2.4322  4.3645
   43MOL0     H 5899  14.016   6.403   6.483 -1.9682  1.3780 -1.1271
   43MOL0     H 5900  14.204   6.243   6.311  0.2571 -1.6241  1.9921
   43MOL0     H 5901  14.258   6.360   6.432  1.7338 -1.5447  0.2143
   43MOL0     H 5902  14.090   6.104   6.476 -1.7006  0.1761  1.8948
   43MOL0     H 5903  14.114   6.211   6.613 -0.4397  0.9233 -0.0319
   43MOL0     H 5904  14.331   6.075   6.449 -3.8526  1.6567 -1.3693
   43MOL0     H 5905  14.272   6.003   6.596  0.9562 -0.9222 -0.9731
   43MOL0     H 5906  14.416   6.267   6.575 -0.8841  0.0514  1.1362
   43MOL0     H 5907  14.333   6.229   6.717 -0.9023  2.3987 -1.9594
   43MOL0     H 5908  14.541   6.038   6.578  2.9317 -0.9773  0.9726
   43MOL0     H 5909  14.482   6.022   6.749  0.5925 -0.4529 -0.0254
   43MOL0     H 5910  14.560   6.216   6.823  1.7628 -1.1632  1.8272
   43MOL0     H 5911  14.629   6.261   6.659  1.8557  0.1375  0.3911
   43MOL0     H 5912  14.800   6.161   6.830  1.4091  1.2118 -3.4303
   43MOL0     H 5913  14.793   6.090   6.673 -0.5926  2.7552 -0.6999
   43MOL0     H 5914  13.828   6.534   6.366 -2.0995  1.3042  1.5726
   43MOL0     H 5915  13.594   6.576   6.340 -0.7312 -0.3398 -0.3379
   43MOL0     H 5916  13.211   6.343   6.434 -0.8914 -0.5508  0.7869
   43MOL0     H 5917  12.973   6.294   6.455  0.2417  0.2997 -0.5706
   43MOL0     H 5918  11.662   6.810   5.090 -0.6529 -0.5556  1.0818
   43MOL0     H 5919  11.426   6.890   5.036  0.1755  0.4378  0.0627
   43MOL0     H 5920  11.008   6.608   4.880 -0.5021  1.0017  0.8706
   43MOL0     H 5921  10.773   6.594   4.819 -2.7347  2.3592  0.9051
   43MOL0     H 5922  10.568   6.607   4.743  2.4119  1.1417  2.2040
   43MOL0     H 5923  10.539   6.772   4.810  1.8855 -0.4037  0.9721
   43MOL0     H 5924  10.408   6.658   4.554 -1.1197  0.1534  0.7869
   43MOL0     H 5925  10.391   6.819   4.613  0.0333 -0.3778 -0.8548
   43MOL0     H 5926  10.292   6.558   4.766  2.1818  0.2902 -1.1125
   43MOL0     H 5927  10.252   6.720   4.810  0.3948 -0.0549  0.4584
   43MOL0     H 5928  10.173   6.600   4.537 -0.3515  0.5991 -0.8537
   43MOL0     H 5929  10.142   6.766   4.589  1.4158  1.5388  2.2696
   43MOL0     H 5930   9.883   6.532   4.829  0.5724 -0.2626  0.8094
   43MOL0     H 5931  10.810   6.933   4.554 -3.2220 -0.7265  0.5061
   43MOL0     H 5932  11.068   7.081   4.700 -2.5289  1.5388 -1.5667
   43MOL0     H 5933  11.169   6.975   4.587 -0.5321  0.2005 -0.2977
   43MOL0     H 5934  11.007   7.036   4.546 -1.1677 -0.0708  0.9519
   44MOL0     O 5935   8.085   0.454   1.601  0.3109  0.2379  0.7060
   44MOL0     C 5936   8.091   0.355   1.529 -0.6595  0.1225 -0.6686
   44MOL0     O 5937   8.180   0.253   1.542 -0.0147 -0.1209  0.1225
   44MOL0     C 5938   8.298   0.264   1.610  0.3635 -0.1089  0.9774
   44MOL0     C 5939   8.412   0.193   1.561  0.3110  0.2546  0.9416
   44MOL0     C 5940   8.539   0.212   1.630  0.6544  0.2621  0.7785
   44MOL0     C 5941   8.546   0.306   1.737 -0.6082  0.0749 -0.1663
   44MOL0     O 5942   8.662   0.341   1.802  0.0403 -0.1446  0.3114
   44MOL0     C 5943   8.782   0.282   1.764 -0.1567 -0.5247 -0.4083
   44MOL0     C 5944   8.903   0.339   1.855  1.1836 -0.9251  0.6101
   44MOL0     C 5945   8.870   0.346   2.005 -0.2128  0.0451 -0.4517
   44MOL0     C 5946   8.988   0.358   2.099  1.6073  0.7587  0.3521
   44MOL0     C 5947   8.956   0.344   2.249 -0.2839 -0.3504 -0.3968
   44MOL0     C 5948   8.875   0.446   2.319  0.5882 -0.9198  0.3045
   44MOL0     C 5949   8.923   0.593   2.306  0.8257 -0.1488 -0.4708
   44MOL0     C 5950   8.841   0.694   2.386  0.1907 -0.0214  0.4734
   44MOL0     N 5951   8.891   0.697   2.530  1.0084 -0.1848 -0.0633
   44MOL0     C 5952   8.946   0.802   2.601 -0.6661 -0.4415 -0.0619
   44MOL0     C 5953   8.968   0.762   2.726 -0.3086  0.1530 -0.0979
   44MOL0     C 5954   9.027   0.848   2.830 -1.6879 -0.0246  0.0286
   44MOL0     C 5955   9.183   0.855   2.816 -0.4409 -0.8922 -0.3846
   44MOL0     C 5956   9.255   0.728   2.865 -1.0094 -0.2713  0.2275
   44MOL0     C 5957   9.406   0.719   2.829 -0.4274  0.2681 -0.9447
   44MOL0     O 5958   9.460   0.844   2.870  0.3148  0.0355  0.2392
   44MOL0     C 5959   9.589   0.878   2.848  0.3369 -0.3411  0.7551
   44MOL0     C 5960   9.686   0.807   2.782  0.2455  0.0423 -0.4722
   44MOL0     C 5961   9.817   0.857   2.772 -0.0325 -0.1668 -0.1427
   44MOL0     C 5962   9.916   0.762   2.710 -0.6202 -0.4445  0.2796
   44MOL0     C 5963   9.854   0.981   2.832 -0.5382 -0.5518 -0.0897
   44MOL0     C 5964   9.996   1.039   2.836  0.1083  0.4535  0.0487
   44MOL0     O 5965  10.100   0.958   2.801  0.5893  0.1691 -0.6522
   44MOL0     C 5966  10.228   0.995   2.831 -0.0532 -0.0213  0.4109
   44MOL0     C 5967  10.270   1.035   2.958 -0.5936 -0.3367 -0.6315
   44MOL0     C 5968  10.397   1.079   2.992  0.4718 -0.0093  0.0608
   44MOL0     C 5969  10.492   1.084   2.886 -0.0423 -0.4292 -0.4699
   44MOL0     O 5970  10.622   1.129   2.918 -0.0867  0.6010 -0.1756
   44MOL0     C 5971  10.699   1.022   2.975 -0.2720  0.3352 -0.5890
   44MOL0     C 5972  10.788   0.948   2.869 -0.4930 -1.3097 -0.1001
   44MOL0     C 5973  10.862   1.058   2.800 -0.6102  0.9582 -0.0074
   44MOL0     C 5974  10.972   1.010   2.701  0.7434  0.1978 -0.0065
   44MOL0     C 5975  11.017   1.139   2.624 -0.0801 -0.5498  0.9302
   44MOL0     C 5976  11.106   1.083   2.510  0.2776 -1.0696  0.2817
   44MOL0     C 5977  11.163   1.203   2.430  0.2489  0.3327 -0.5167
   44MOL0     C 5978  11.220   1.166   2.295 -0.8583 -0.0256 -0.1223
   44MOL0    Cl 5979  11.331   1.301   2.224  0.0443  0.0075  0.2762
   44MOL0     C 5980  10.461   1.041   2.753  0.3581  0.8091 -0.2211
   44MOL0     C 5981  10.324   0.999   2.728 -0.0618 -0.1397  0.3743
   44MOL0     O 5982  10.010   1.151   2.876  0.4717  0.1091  0.1405
   44MOL0     C 5983   9.755   1.052   2.904 -0.5582  0.4649  0.1691
   44MOL0     C 5984   9.622   1.005   2.898 -0.6667 -0.7983 -0.4720
   44MOL0     N 5985   8.917   0.637   2.748 -0.5958 -0.4264  0.0237
   44MOL0     N 5986   8.872   0.596   2.631 -0.3510 -0.3698  0.1098
   44MOL0     C 5987   8.432   0.361   1.789  1.0959 -0.0372 -0.2607
   44MOL0     C 5988   8.317   0.340   1.723  0.4571  0.1184  0.3972
   44MOL0     C 5989   7.973   0.322   1.435 -0.9008 -0.1307 -0.2773
   44MOL0     C 5990   7.973   0.193   1.372 -0.4317 -0.9096 -0.8220
   44MOL0     C 5991   7.877   0.166   1.272 -0.2595  0.1655  0.4926
   44MOL0     C 5992   7.778   0.254   1.238 -0.1281  0.4501 -0.3047
   44MOL0     O 5993   7.693   0.224   1.138  0.4153 -0.5288 -0.4497
   44MOL0     C 5994   7.718   0.307   1.032  0.4644  0.3323  0.7448
   44MOL0     C 5995   7.662   0.254   0.905  0.3333  0.2725  0.3903
   44MOL0     C 5996   7.507   0.248   0.887 -0.4401  0.1407 -0.0026
   44MOL0     C 5997   7.449   0.387   0.881  0.5355 -0.2668  0.1370
   44MOL0     C 5998   7.455   0.451   1.016  0.2616  0.5315 -0.2628
   44MOL0     C 5999   7.451   0.504   1.124 -0.0223 -0.6699 -0.0831
   44MOL0     C 6000   7.765   0.368   1.310  0.6584  0.3103  0.0850
   44MOL0     C 6001   7.865   0.416   1.400 -0.7032  0.3405 -0.1049
   44MOL0     C 6002   7.858   0.551   1.444 -0.2045  0.3210  0.2816
   44MOL0     H 6003   8.383   0.131   1.477 -1.0180  3.8329 -1.4442
   44MOL0     H 6004   8.622   0.167   1.576  0.8952  0.8747  0.6195
   44MOL0     H 6005   8.804   0.312   1.661 -1.8542  1.8855 -0.1314
   44MOL0     H 6006   8.787   0.174   1.779  2.2079 -0.4078  0.0448
   44MOL0     H 6007   8.988   0.271   1.846  1.0814 -1.1206  1.0951
   44MOL0     H 6008   8.946   0.431   1.814  0.1083 -0.3938  0.6515
   44MOL0     H 6009   8.809   0.436   2.020 -0.9276 -0.3452 -0.9484
   44MOL0     H 6010   8.820   0.250   2.022 -1.1060  0.4866 -0.5192
   44MOL0     H 6011   9.057   0.275   2.081  0.2132 -0.6778  1.3520
   44MOL0     H 6012   9.041   0.452   2.083  2.4261  0.6709  2.2552
   44MOL0     H 6013   9.055   0.335   2.296 -0.9016  0.1647  1.0606
   44MOL0     H 6014   8.895   0.254   2.256 -1.4929  0.3755 -1.1611
   44MOL0     H 6015   8.773   0.433   2.281  0.9570 -0.5295 -0.8637
   44MOL0     H 6016   8.875   0.421   2.425 -1.6413 -1.0963  0.3123
   44MOL0     H 6017   8.916   0.615   2.199 -0.0769  0.4066 -0.3027
   44MOL0     H 6018   9.026   0.606   2.342  0.5738 -0.7350  0.4878
   44MOL0     H 6019   8.844   0.789   2.331 -1.7585 -1.3190 -2.0389
   44MOL0     H 6020   8.736   0.662   2.381  0.3903 -0.9484  1.6699
   44MOL0     H 6021   8.971   0.901   2.563  1.4621 -0.8435  0.1514
   44MOL0     H 6022   9.006   0.785   2.917  0.4366 -3.7592 -1.8796
   44MOL0     H 6023   8.979   0.946   2.834 -1.8585 -0.1406  2.8474
   44MOL0     H 6024   9.196   0.888   2.713 -1.2621  0.7842  0.0070
   44MOL0     H 6025   9.216   0.941   2.875 -5.8480  2.5137 -1.5640
   44MOL0     H 6026   9.246   0.716   2.973  2.0695 -0.7076  0.5118
   44MOL0     H 6027   9.211   0.638   2.822  1.0707 -0.6063 -1.3290
   44MOL0     H 6028   9.458   0.633   2.872 -1.3828  0.4642  0.6906
   44MOL0     H 6029   9.410   0.716   2.720 -0.9665  3.9647 -1.1937
   44MOL0     H 6030   9.661   0.720   2.722  0.3849 -0.2488 -0.1121
   44MOL0     H 6031   9.865   0.683   2.654 -2.5140  0.7900  0.1467
   44MOL0     H 6032   9.976   0.712   2.787 -1.7907 -3.2217 -0.4797
   44MOL0     H 6033   9.975   0.818   2.637 -0.2846 -0.8655  0.2291
   44MOL0     H 6034  10.197   1.032   3.038 -0.9529 -3.5857 -0.9644
   44MOL0     H 6035  10.426   1.114   3.091 -1.6535 -0.1029  0.7684
   44MOL0     H 6036  10.766   1.069   3.048 -1.3885 -1.4429  1.6939
   44MOL0     H 6037  10.638   0.949   3.028  1.1058  0.0036  0.6141
   44MOL0     H 6038  10.853   0.872   2.915 -1.2384 -1.6313  0.4388
   44MOL0     H 6039  10.722   0.901   2.795  0.3420  0.4151 -2.0424
   44MOL0     H 6040  10.926   1.110   2.871  0.9898  1.9976 -2.0765
   44MOL0     H 6041  10.799   1.140   2.765  0.4751  1.2559 -1.3834
   44MOL0     H 6042  10.929   0.931   2.637  4.0684 -2.9583  1.3150
   44MOL0     H 6043  11.052   0.962   2.758  0.2701 -3.8658 -2.3551
   44MOL0     H 6044  10.938   1.203   2.583  1.0438  0.1450 -0.2191
   44MOL0     H 6045  11.078   1.203   2.688 -0.2744  0.7547 -0.1654
   44MOL0     H 6046  11.047   1.021   2.442 -1.9550  0.5720  0.5985
   44MOL0     H 6047  11.183   1.020   2.555  1.5258  0.2004  0.0044
   44MOL0     H 6048  11.236   1.256   2.492 -1.4904  0.7461  1.3101
   44MOL0     H 6049  11.087   1.278   2.404  2.9366  2.4723 -2.8627
   44MOL0     H 6050  11.135   1.143   2.231  0.2435 -2.5366 -0.8106
   44MOL0     H 6051  11.288   1.081   2.296 -1.1316 -0.3064 -1.7864
   44MOL0     H 6052  10.535   1.054   2.675 -1.8634  2.0195 -2.2542
   44MOL0     H 6053  10.292   0.971   2.628  0.5739 -2.3584  0.7473
   44MOL0     H 6054   9.769   1.145   2.958 -2.6785  0.4622  0.7889
   44MOL0     H 6055   9.533   1.049   2.943 -0.8372  1.8511 -3.1134
   44MOL0     H 6056   8.441   0.410   1.885 -0.5608  1.2477 -0.7127
   44MOL0     H 6057   8.235   0.390   1.774 -0.8404 -0.8291 -0.6951
   44MOL0     H 6058   8.054   0.122   1.383  2.7977  2.2637 -1.9333
   44MOL0     H 6059   7.877   0.077   1.211 -0.3946  2.0390 -2.4682
   44MOL0     H 6060   7.694   0.413   1.047 -1.8300  0.2552 -1.6443
   44MOL0     H 6061   7.826   0.296   1.017  0.2489 -3.5170  1.2571
   44MOL0     H 6062   7.705   0.157   0.882 -1.6381 -0.5113 -0.2150
   44MOL0     H 6063   7.706   0.322   0.832  2.1895  0.3305  1.5175
   44MOL0     H 6064   7.484   0.194   0.795 -0.5702  1.2407 -0.6383
   44MOL0     H 6065   7.458   0.203   0.974  0.3089  2.7447  1.9078
   44MOL0     H 6066   7.345   0.396   0.850  0.8388 -1.1249 -1.2378
   44MOL0     H 6067   7.510   0.447   0.813  0.8084 -1.4222 -0.6643
   44MOL0     H 6068   7.457   0.562   1.213 -0.6024  0.0808 -0.5227
   44MOL0     H 6069   7.687   0.439   1.284  0.0631 -0.8810 -1.5571
   44MOL0     H 6070   7.775   0.607   1.400 -0.5089  1.2939  2.0401
   44MOL0     H 6071   7.845   0.545   1.552 -1.5310  1.8658  0.2537
   44MOL0     H 6072   7.945   0.606   1.408 -0.3762  0.6362  0.3451
   45MOL0     O 6073   2.089   9.101   5.371 -0.5784 -0.5622 -0.6174
   45MOL0     C 6074   2.035   9.010   5.299 -0.6596  0.7291 -0.6615
   45MOL0     O 6075   2.105   8.925   5.222  0.1178  0.0454  0.1675
   45MOL0     C 6076   2.243   8.940   5.203 -0.0434  0.3676 -0.2674
   45MOL0     C 6077   2.290   9.065   5.164  0.4286 -0.3023 -0.9234
   45MOL0     C 6078   2.432   9.078   5.141 -0.0678  0.4785  0.1460
   45MOL0     C 6079   2.520   8.968   5.141 -0.6384 -0.8911 -0.7754
   45MOL0     O 6080   2.650   9.001   5.111 -0.1930  0.4442  0.6682
   45MOL0     C 6081   2.750   8.898   5.126  0.5463  0.1023 -0.7678
   45MOL0     C 6082   2.877   8.938   5.043  0.4710  0.3320 -0.1502
   45MOL0     C 6083   2.998   8.843   5.079  0.3906  0.8582 -0.7419
   45MOL0     C 6084   3.101   8.816   4.975 -0.2395  0.3187 -0.1437
   45MOL0     C 6085   3.162   8.965   4.940 -0.2524 -0.9135  0.0900
   45MOL0     C 6086   3.268   8.962   4.830 -0.0286  0.7332 -0.3990
   45MOL0     C 6087   3.221   8.903   4.690  0.0848  0.1781 -0.3785
   45MOL0     C 6088   3.304   8.935   4.565 -0.2193  0.6557  0.7833
   45MOL0     N 6089   3.420   8.852   4.552 -0.4570 -0.0472  0.4776
   45MOL0     C 6090   3.550   8.890   4.581 -0.5973  0.0063  0.2668
   45MOL0     C 6091   3.632   8.811   4.501  0.1098  0.2815 -0.1100
   45MOL0     C 6092   3.789   8.827   4.494 -0.4783  0.5354 -0.5810
   45MOL0     C 6093   3.868   8.715   4.563  0.2458 -0.0767 -0.9110
   45MOL0     C 6094   3.907   8.605   4.458 -0.0597  0.1653  0.2403
   45MOL0     C 6095   4.010   8.506   4.512 -0.7116 -0.4817  0.1188
   45MOL0     O 6096   4.038   8.413   4.414 -0.5008 -0.3667  0.2150
   45MOL0     C 6097   4.155   8.334   4.436  1.3741  0.2254  0.3451
   45MOL0     C 6098   4.249   8.347   4.342  0.3068 -0.3524 -0.3090
   45MOL0     C 6099   4.375   8.289   4.361  0.0795 -0.2484  0.6807
   45MOL0     C 6100   4.482   8.325   4.262 -0.1987 -0.7141  1.3621
   45MOL0     C 6101   4.398   8.198   4.467 -0.3213  0.3382 -0.8554
   45MOL0     C 6102   4.528   8.127   4.479 -0.1737  0.2893  0.8198
   45MOL0     O 6103   4.544   8.020   4.395  0.3980 -0.6344  0.5083
   45MOL0     C 6104   4.671   7.967   4.389  0.4203 -0.3098  0.2415
   45MOL0     C 6105   4.767   8.021   4.303  0.2463  0.1822  0.3248
   45MOL0     C 6106   4.901   7.984   4.302  0.0934  0.0421 -0.3226
   45MOL0     C 6107   4.940   7.873   4.377  1.0674 -1.2407  0.2739
   45MOL0     O 6108   5.061   7.811   4.357  0.2115  0.0704  0.2054
   45MOL0     C 6109   5.155   7.849   4.257  0.3085 -0.1895  0.4352
   45MOL0     C 6110   5.283   7.781   4.304  0.0085  0.4137 -0.0931
   45MOL0     C 6111   5.323   7.665   4.219 -0.1496 -0.3858  0.4401
   45MOL0     C 6112   5.463   7.633   4.244  0.6423 -0.3782 -0.1527
   45MOL0     C 6113   5.490   7.550   4.367 -0.4957  0.0821  0.4389
   45MOL0     C 6114   5.635   7.525   4.405  0.0527  0.0493 -0.3079
   45MOL0     C 6115   5.644   7.416   4.514 -1.1695 -0.3232 -0.0278
   45MOL0     C 6116   5.597   7.272   4.484  1.0226  0.1147  0.2231
   45MOL0    Cl 6117   5.647   7.180   4.631 -0.4302 -0.6891 -0.1182
   45MOL0     C 6118   4.839   7.817   4.467 -0.2169  0.9685  0.2520
   45MOL0     C 6119   4.704   7.856   4.463  0.4679 -0.0788 -0.1534
   45MOL0     O 6120   4.606   8.175   4.565 -0.4042  0.5206  0.7536
   45MOL0     C 6121   4.298   8.187   4.563 -0.0286 -0.9297  0.1443
   45MOL0     C 6122   4.179   8.249   4.549  0.5477 -0.1916 -0.4835
   45MOL0     N 6123   3.554   8.718   4.434 -0.0637 -0.8109 -0.3519
   45MOL0     N 6124   3.426   8.741   4.464 -0.3893  0.4838  0.3525
   45MOL0     C 6125   2.464   8.849   5.175 -0.0799 -0.0154  0.1815
   45MOL0     C 6126   2.327   8.828   5.213 -0.8176 -0.4097  0.6885
   45MOL0     C 6127   1.883   8.994   5.299 -0.1559  0.2100  0.7644
   45MOL0     C 6128   1.822   8.898   5.206 -0.5733  0.0013 -0.1699
   45MOL0     C 6129   1.683   8.878   5.198  0.4895 -0.3514  0.3356
   45MOL0     C 6130   1.598   8.953   5.291  0.1524 -0.1414 -0.2379
   45MOL0     O 6131   1.463   8.938   5.305  0.5101 -0.0045 -0.2234
   45MOL0     C 6132   1.387   8.854   5.221  0.4844  0.0039  1.1213
   45MOL0     C 6133   1.248   8.913   5.187  0.1177 -0.6385 -0.5940
   45MOL0     C 6134   1.244   9.041   5.100  0.5033  0.5891  0.0500
   45MOL0     C 6135   1.323   9.019   4.968  0.0152  0.2636  1.3053
   45MOL0     C 6136   1.279   9.125   4.879 -0.4738 -0.4308  0.3528
   45MOL0     C 6137   1.246   9.204   4.796 -0.2435  0.1064 -0.8324
   45MOL0     C 6138   1.659   9.041   5.373 -0.7681 -0.3843  0.2171
   45MOL0     C 6139   1.795   9.062   5.388 -0.9834 -0.7926 -0.2095
   45MOL0     C 6140   1.837   9.152   5.495 -0.0754  0.0260 -0.4717
   45MOL0     H 6141   2.225   9.151   5.149  0.4056 -0.1123  0.1994
   45MOL0     H 6142   2.468   9.177   5.116  2.6138 -0.3872  0.1837
   45MOL0     H 6143   2.718   8.806   5.077 -0.0787  0.4034 -0.9327
   45MOL0     H 6144   2.774   8.897   5.233  0.4311 -3.6513 -0.6535
   45MOL0     H 6145   2.862   8.940   4.935 -1.4783  1.2170  0.1031
   45MOL0     H 6146   2.903   9.039   5.074 -2.9789  0.8668  1.4947
   45MOL0     H 6147   3.044   8.871   5.174 -1.4061  1.7309 -0.0906
   45MOL0     H 6148   2.955   8.747   5.108  0.6174  0.5408 -1.4242
   45MOL0     H 6149   3.191   8.759   5.004 -0.9597 -1.7431 -1.7457
   45MOL0     H 6150   3.054   8.777   4.885  0.1059  3.3193 -1.7162
   45MOL0     H 6151   3.216   9.006   5.026  0.8272 -2.5920  0.2685
   45MOL0     H 6152   3.084   9.040   4.925 -0.8163 -1.5101 -0.0556
   45MOL0     H 6153   3.302   9.064   4.812 -0.5308  0.6292 -2.0496
   45MOL0     H 6154   3.348   8.895   4.864  0.1363  0.4821 -1.2503
   45MOL0     H 6155   3.119   8.935   4.666  0.3392 -0.8832 -3.2439
   45MOL0     H 6156   3.206   8.795   4.684  2.1477 -0.0775 -2.5180
   45MOL0     H 6157   3.232   8.917   4.484 -1.7296 -3.2389  2.7328
   45MOL0     H 6158   3.333   9.040   4.566 -0.8117  0.9696 -2.5973
   45MOL0     H 6159   3.573   8.971   4.649 -1.4866 -0.5704  1.2693
   45MOL0     H 6160   3.815   8.917   4.551  1.8140 -2.2197  3.1097
   45MOL0     H 6161   3.823   8.837   4.390 -1.0462 -0.2934 -0.8582
   45MOL0     H 6162   3.952   8.769   4.607 -0.0308 -0.8854  0.6716
   45MOL0     H 6163   3.815   8.658   4.640 -0.6824  1.9474  0.0088
   45MOL0     H 6164   3.815   8.559   4.419  1.8709 -1.6182 -2.6094
   45MOL0     H 6165   3.959   8.656   4.377  0.0723 -0.5247 -0.1216
   45MOL0     H 6166   4.105   8.559   4.512 -0.4764 -0.8734 -0.6090
   45MOL0     H 6167   3.987   8.457   4.607 -0.9130 -2.9924 -1.1113
   45MOL0     H 6168   4.236   8.415   4.259  0.3202 -1.1335 -0.9566
   45MOL0     H 6169   4.510   8.227   4.221 -3.5257 -0.8717 -0.9515
   45MOL0     H 6170   4.567   8.383   4.300  0.0349  0.2372 -0.4666
   45MOL0     H 6171   4.437   8.387   4.184  3.0764 -0.1765 -0.2803
   45MOL0     H 6172   4.732   8.106   4.246  1.7016  0.2970 -0.4676
   45MOL0     H 6173   4.974   8.038   4.243  0.3479 -1.6578 -1.6198
   45MOL0     H 6174   5.128   7.815   4.157  0.3428 -1.4747  0.8416
   45MOL0     H 6175   5.163   7.958   4.254 -2.3154  0.0818  0.5518
   45MOL0     H 6176   5.357   7.860   4.322  1.2347 -0.7307  0.0957
   45MOL0     H 6177   5.260   7.735   4.401 -0.1746  1.0477  0.1723
   45MOL0     H 6178   5.318   7.698   4.115  0.2730 -0.4504  0.3942
   45MOL0     H 6179   5.264   7.574   4.221  0.4085 -0.7692 -0.0872
   45MOL0     H 6180   5.523   7.724   4.253  2.6857 -1.7464  1.1911
   45MOL0     H 6181   5.499   7.580   4.155 -0.1447  1.5773 -1.7064
   45MOL0     H 6182   5.448   7.598   4.456 -0.6788 -2.1958  1.6555
   45MOL0     H 6183   5.422   7.464   4.361 -2.3500  1.2576  2.7928
   45MOL0     H 6184   5.670   7.620   4.446 -0.6147 -0.2592  1.0356
   45MOL0     H 6185   5.695   7.506   4.316  0.6615  0.6219 -0.0307
   45MOL0     H 6186   5.608   7.452   4.611  1.1737  0.6308  0.5643
   45MOL0     H 6187   5.752   7.413   4.531 -1.1529 -4.0306  0.0039
   45MOL0     H 6188   5.646   7.234   4.394 -0.6393  0.2976 -0.7844
   45MOL0     H 6189   5.490   7.265   4.464  1.5502 -0.2599 -2.9448
   45MOL0     H 6190   4.857   7.744   4.545 -0.7881  1.5503  0.9374
   45MOL0     H 6191   4.628   7.814   4.528  1.7134 -0.6217  0.9991
   45MOL0     H 6192   4.303   8.114   4.643 -0.7267  0.4207  1.4573
   45MOL0     H 6193   4.096   8.241   4.619 -0.3439 -1.0816 -1.5924
   45MOL0     H 6194   2.527   8.764   5.199 -0.8849 -0.6339  0.1627
   45MOL0     H 6195   2.283   8.737   5.253 -1.1606 -0.3995  0.3412
   45MOL0     H 6196   1.885   8.830   5.149  2.0448  0.7980  1.6105
   45MOL0     H 6197   1.648   8.794   5.140 -0.3816 -0.5917  1.1880
   45MOL0     H 6198   1.428   8.818   5.126  1.2032  1.5722  0.7968
   45MOL0     H 6199   1.365   8.762   5.276  2.0634  0.0309  1.8510
   45MOL0     H 6200   1.204   8.931   5.286  1.3103  0.9799 -0.3198
   45MOL0     H 6201   1.178   8.841   5.144 -1.2591  0.1612  0.2150
   45MOL0     H 6202   1.140   9.065   5.078  0.8983  2.1391 -0.2779
   45MOL0     H 6203   1.288   9.133   5.141  2.9405 -0.0086 -1.0134
   45MOL0     H 6204   1.315   8.923   4.917  0.1975  0.7723  0.2932
   45MOL0     H 6205   1.428   9.035   4.993  1.0839 -0.6989 -2.0399
   45MOL0     H 6206   1.213   9.273   4.721  0.0260 -0.8871 -1.8861
   45MOL0     H 6207   1.579   9.087   5.430  1.0799  1.9917  1.0870
   45MOL0     H 6208   1.907   9.108   5.566 -2.9986  2.0198  4.1326
   45MOL0     H 6209   1.874   9.249   5.460  0.4531 -0.4029 -1.1379
   45MOL0     H 6210   1.755   9.170   5.565  1.9750 -2.1203  2.7181
   46MOL0     O 6211   9.555   8.320   8.893 -0.6732 -0.2571 -0.2157
   46MOL0     C 6212   9.572   8.216   8.828 -0.5011 -0.0465  0.8836
   46MOL0     O 6213   9.697   8.161   8.793  0.1225 -0.0823 -0.3966
   46MOL0     C 6214   9.804   8.234   8.839  0.4595  1.4468 -0.2349
   46MOL0     C 6215   9.841   8.254   8.971 -0.5032 -0.0462  0.8854
   46MOL0     C 6216   9.950   8.340   9.008  0.7507  0.5020 -0.7224
   46MOL0     C 6217  10.026   8.397   8.911 -0.0914  1.1691  0.0327
   46MOL0     O 6218  10.138   8.461   8.947  0.7804  0.1224 -0.1962
   46MOL0     C 6219  10.175   8.576   8.863  0.2234  0.5215  1.1739
   46MOL0     C 6220  10.313   8.548   8.804  0.6695 -0.8014  0.4591
   46MOL0     C 6221  10.307   8.467   8.674  0.8627  0.6559  0.3382
   46MOL0     C 6222  10.462   8.456   8.636  0.5974  0.1968 -1.2779
   46MOL0     C 6223  10.488   8.396   8.496 -0.8083  0.1754 -0.1364
   46MOL0     C 6224  10.641   8.389   8.477 -0.1810  0.4628 -0.1453
   46MOL0     C 6225  10.681   8.379   8.331  0.1842  0.6424  0.1862
   46MOL0     C 6226  10.835   8.425   8.305  0.3395 -0.0198  1.0877
   46MOL0     N 6227  10.855   8.397   8.162 -0.7700  1.0385 -0.5213
   46MOL0     C 6228  10.942   8.306   8.095  0.7178  0.0766  0.2974
   46MOL0     C 6229  10.948   8.343   7.961 -0.2277 -0.8459 -0.2810
   46MOL0     C 6230  11.017   8.278   7.849 -0.8123  0.6313 -0.4225
   46MOL0     C 6231  10.969   8.131   7.855 -0.4730  0.2833  0.6760
   46MOL0     C 6232  11.044   8.043   7.755 -0.3327 -0.9293 -0.4354
   46MOL0     C 6233  11.178   8.004   7.804  0.6647  0.5868 -0.1396
   46MOL0     O 6234  11.277   8.108   7.784  0.1231  0.0693 -0.9001
   46MOL0     C 6235  11.397   8.054   7.748  0.6358 -0.6250  0.2737
   46MOL0     C 6236  11.395   8.002   7.616  0.0009 -0.0009  0.5152
   46MOL0     C 6237  11.500   7.951   7.554 -0.2413  0.1005  0.8419
   46MOL0     C 6238  11.481   7.886   7.418 -0.4132 -0.8243  1.2964
   46MOL0     C 6239  11.627   7.950   7.624  0.8393  0.1934 -0.0609
   46MOL0     C 6240  11.756   7.898   7.572 -0.1310 -0.4009 -0.3020
   46MOL0     O 6241  11.853   7.898   7.661 -0.0676 -0.2530 -0.2719
   46MOL0     C 6242  11.984   7.876   7.611 -0.6314  0.2397 -0.0946
   46MOL0     C 6243  12.033   7.751   7.602 -0.4101 -0.3408  0.5081
   46MOL0     C 6244  12.153   7.719   7.548  0.9145  0.8621 -0.5642
   46MOL0     C 6245  12.239   7.820   7.512 -0.8411 -0.3259 -0.5914
   46MOL0     O 6246  12.366   7.791   7.460  0.2709  0.2442  0.1862
   46MOL0     C 6247  12.416   7.654   7.479 -0.9464 -0.7299 -0.2156
   46MOL0     C 6248  12.558   7.642   7.441 -0.3897 -2.0081 -0.5872
   46MOL0     C 6249  12.637   7.773   7.429 -0.3494  0.3419 -0.4263
   46MOL0     C 6250  12.788   7.733   7.405 -0.8347 -0.2534  1.1567
   46MOL0     C 6251  12.878   7.859   7.374  0.2656  0.6858  0.1636
   46MOL0     C 6252  13.024   7.823   7.338 -0.7543  0.0070  0.4805
   46MOL0     C 6253  13.102   7.942   7.283  0.8469  0.2310 -0.6199
   46MOL0     C 6254  13.221   7.904   7.204 -1.0179  0.7475  0.2641
   46MOL0    Cl 6255  13.302   8.050   7.159  0.2344  0.2913  0.3212
   46MOL0     C 6256  12.199   7.952   7.530  0.1812 -0.3347  0.5742
   46MOL0     C 6257  12.075   7.982   7.584 -0.1475 -0.5359 -1.0466
   46MOL0     O 6258  11.762   7.854   7.462  1.2185  0.8731  0.5745
   46MOL0     C 6259  11.631   8.015   7.750  0.0422 -0.7368 -0.4775
   46MOL0     C 6260  11.513   8.062   7.819 -0.3254  1.2694 -0.3667
   46MOL0     N 6261  10.877   8.456   7.950  0.2435 -0.1617 -0.2285
   46MOL0     N 6262  10.821   8.488   8.066 -0.6927  0.1172  0.2245
   46MOL0     C 6263   9.989   8.378   8.776  0.2200  0.6022 -0.0438
   46MOL0     C 6264   9.881   8.299   8.736  0.4301  0.4274 -0.4493
   46MOL0     C 6265   9.467   8.122   8.786 -0.3221 -0.1510 -0.3852
   46MOL0     C 6266   9.510   8.001   8.726  0.8076 -0.6916  0.5741
   46MOL0     C 6267   9.410   7.907   8.694  0.7102 -0.0849 -0.8062
   46MOL0     C 6268   9.273   7.934   8.727  1.1070  1.3327  1.0159
   46MOL0     O 6269   9.198   7.826   8.690  1.3828  0.4882  0.1391
   46MOL0     C 6270   9.063   7.815   8.739  0.4299 -0.0233 -0.0450
   46MOL0     C 6271   8.960   7.822   8.617  0.0264  0.2677 -0.4301
   46MOL0     C 6272   8.814   7.770   8.659 -0.3940  0.2613 -0.2296
   46MOL0     C 6273   8.720   7.727   8.539  0.1432 -0.3453  0.5453
   46MOL0     C 6274   8.731   7.823   8.433  0.6195  0.4827 -0.2000
   46MOL0     C 6275   8.751   7.899   8.350  0.1747 -0.0271  1.1687
   46MOL0     C 6276   9.232   8.058   8.770  0.2704 -0.2500  0.6564
   46MOL0     C 6277   9.323   8.155   8.805 -0.1745  0.9350  0.2172
   46MOL0     C 6278   9.264   8.284   8.868 -0.5361  0.3030 -0.2667
   46MOL0     H 6279   9.784   8.210   9.053  0.4133  0.9518  2.0873
   46MOL0     H 6280   9.972   8.352   9.114  1.9366  0.0011 -0.9000
   46MOL0     H 6281  10.198   8.653   8.937 -0.3921  0.1752  1.7298
   46MOL0     H 6282  10.101   8.607   8.789  1.0080 -0.9368 -0.2898
   46MOL0     H 6283  10.357   8.644   8.773 -0.4474  0.2023  1.7998
   46MOL0     H 6284  10.374   8.493   8.876  0.6840 -0.3955  0.7593
   46MOL0     H 6285  10.264   8.368   8.695  0.9456  0.8823  1.6554
   46MOL0     H 6286  10.259   8.521   8.592 -0.0580  0.7604  0.9326
   46MOL0     H 6287  10.490   8.562   8.629 -0.4247  0.7589  1.5108
   46MOL0     H 6288  10.520   8.411   8.718 -0.0869  0.5507 -0.5803
   46MOL0     H 6289  10.451   8.469   8.424 -1.0406 -0.9094 -1.1562
   46MOL0     H 6290  10.434   8.303   8.472 -2.1939  1.3368 -1.7762
   46MOL0     H 6291  10.674   8.489   8.506 -0.4670  0.1505  1.3136
   46MOL0     H 6292  10.679   8.307   8.539 -0.3126  2.3364  2.5931
   46MOL0     H 6293  10.622   8.446   8.268 -2.1844 -2.3894 -1.0211
   46MOL0     H 6294  10.658   8.279   8.295 -1.4087  1.0868 -0.0859
   46MOL0     H 6295  10.831   8.532   8.330  0.4573 -0.0501  1.2436
   46MOL0     H 6296  10.910   8.379   8.370  2.5587  1.8943  0.0143
   46MOL0     H 6297  10.990   8.215   8.130 -0.2602 -0.8140 -0.6113
   46MOL0     H 6298  11.124   8.284   7.873  0.0217 -4.7946 -1.5225
   46MOL0     H 6299  10.999   8.320   7.750  0.3337  1.2298 -0.3951
   46MOL0     H 6300  11.007   8.087   7.947 -0.9414 -4.6906 -1.1536
   46MOL0     H 6301  10.860   8.121   7.851 -0.7803  2.9759  0.2603
   46MOL0     H 6302  10.991   7.948   7.745 -3.0261  0.5253 -1.1329
   46MOL0     H 6303  11.045   8.096   7.659  0.5019 -0.4004 -0.1434
   46MOL0     H 6304  11.179   7.962   7.905  0.3700  0.3870 -0.2193
   46MOL0     H 6305  11.212   7.916   7.748  2.7795 -0.0039  1.9108
   46MOL0     H 6306  11.305   8.017   7.556  0.4396 -1.8829 -0.6993
   46MOL0     H 6307  11.500   7.779   7.426  2.2549 -0.8121 -2.2955
   46MOL0     H 6308  11.544   7.930   7.340 -1.6017  1.2962  1.4442
   46MOL0     H 6309  11.380   7.891   7.377 -0.6834  0.8861  2.0667
   46MOL0     H 6310  11.961   7.676   7.632 -0.4136 -0.0289  1.3106
   46MOL0     H 6311  12.170   7.615   7.522 -1.1938 -1.4416  5.5030
   46MOL0     H 6312  12.420   7.611   7.580  2.5701 -2.0861 -0.7708
   46MOL0     H 6313  12.369   7.574   7.421 -1.7725  2.1410 -3.9004
   46MOL0     H 6314  12.610   7.583   7.516  0.8447 -2.1905 -1.5510
   46MOL0     H 6315  12.573   7.579   7.353 -0.0557 -1.6789 -0.7734
   46MOL0     H 6316  12.625   7.841   7.514  0.5203  2.0445 -1.6055
   46MOL0     H 6317  12.607   7.826   7.337 -1.3879 -2.9177 -2.1270
   46MOL0     H 6318  12.796   7.663   7.321  1.9860  0.6229  0.5933
   46MOL0     H 6319  12.831   7.683   7.492 -1.4675 -0.8472  1.1394
   46MOL0     H 6320  12.837   7.914   7.288  0.8011 -1.0799 -1.2948
   46MOL0     H 6321  12.877   7.925   7.461 -1.2270 -1.7754  2.1706
   46MOL0     H 6322  13.024   7.749   7.257  0.6581  1.0218 -0.4888
   46MOL0     H 6323  13.073   7.794   7.431  1.4302  0.5428 -0.4351
   46MOL0     H 6324  13.154   8.006   7.355 -0.4487 -2.2228  2.7874
   46MOL0     H 6325  13.037   7.994   7.212  1.4389  0.3410 -1.0849
   46MOL0     H 6326  13.191   7.866   7.106 -0.6691  1.3081 -0.0659
   46MOL0     H 6327  13.286   7.836   7.259  1.4462  2.9908  0.2985
   46MOL0     H 6328  12.269   8.027   7.496 -1.5826  0.9223 -0.4765
   46MOL0     H 6329  12.052   8.088   7.584  2.3157  0.0694 -1.2702
   46MOL0     H 6330  11.725   8.023   7.804  1.5366 -0.9260 -2.9276
   46MOL0     H 6331  11.504   8.102   7.919 -1.5064 -2.2278  1.0903
   46MOL0     H 6332  10.049   8.424   8.698  1.5141  2.5373  1.9782
   46MOL0     H 6333   9.848   8.295   8.633  0.0570 -0.7346 -0.2933
   46MOL0     H 6334   9.613   7.972   8.707  1.2228  1.5951 -0.9981
   46MOL0     H 6335   9.427   7.815   8.638 -1.7275  0.2107 -2.1843
   46MOL0     H 6336   9.048   7.721   8.793 -0.6622  1.9931  3.4707
   46MOL0     H 6337   9.039   7.901   8.803  0.3678  0.2213 -0.3944
   46MOL0     H 6338   8.990   7.758   8.533  0.0111 -1.0377  0.5394
   46MOL0     H 6339   8.955   7.925   8.578  2.1207  1.1890  1.5135
   46MOL0     H 6340   8.827   7.684   8.726  0.6668  0.5073 -0.1093
   46MOL0     H 6341   8.767   7.855   8.708  0.3991 -0.4194  1.8268
   46MOL0     H 6342   8.614   7.718   8.565  0.2085 -1.8658  0.3753
   46MOL0     H 6343   8.755   7.636   8.489 -0.7271  1.2939 -3.3650
   46MOL0     H 6344   8.772   7.965   8.268 -3.5211  0.5025  0.4561
   46MOL0     H 6345   9.127   8.086   8.767  0.4087  0.5736  2.3517
   46MOL0     H 6346   9.283   8.371   8.805  1.1969  0.5669  0.5602
   46MOL0     H 6347   9.156   8.269   8.882 -0.6046  0.1159 -0.9362
   46MOL0     H 6348   9.297   8.309   8.968 -2.2561 -0.3679  0.5150
   47MOL0     O 6349   0.753   7.395   7.773  0.2852  0.4205  0.1452
   47MOL0     C 6350   0.706   7.333   7.865  0.5371  0.2755  0.0711
   47MOL0     O 6351   0.773   7.285   7.968 -0.2560 -0.7060  0.2816
   47MOL0     C 6352   0.911   7.292   7.961  0.0761  0.3321 -0.1021
   47MOL0     C 6353   0.994   7.188   7.924 -0.6708 -0.1002 -0.1374
   47MOL0     C 6354   1.134   7.202   7.910  1.2938 -0.2019 -0.1621
   47MOL0     C 6355   1.185   7.331   7.937 -0.3665  0.2600  0.0553
   47MOL0     O 6356   1.321   7.373   7.939  1.3036  0.1993 -0.5950
   47MOL0     C 6357   1.402   7.272   7.887  0.5175 -0.1234 -0.2725
   47MOL0     C 6358   1.541   7.328   7.866 -0.6187 -0.4799 -0.0820
   47MOL0     C 6359   1.634   7.367   7.983 -1.0195 -0.0583 -0.0350
   47MOL0     C 6360   1.735   7.475   7.937 -1.0165  0.1564  0.6026
   47MOL0     C 6361   1.831   7.502   8.045 -0.9274 -0.7884  0.3005
   47MOL0     C 6362   1.938   7.613   8.022  0.6884  0.1529  0.2068
   47MOL0     C 6363   2.035   7.621   8.144  0.9051 -0.7703 -0.7350
   47MOL0     C 6364   2.099   7.488   8.178 -0.5194  0.1050 -0.8005
   47MOL0     N 6365   2.162   7.426   8.059  0.3436  0.2544 -0.6047
   47MOL0     C 6366   2.124   7.309   7.986  1.1092 -0.3693  0.6628
   47MOL0     C 6367   2.222   7.293   7.899  0.1252 -0.0268  0.5535
   47MOL0     C 6368   2.229   7.195   7.788  0.2700 -0.0466  0.5563
   47MOL0     C 6369   2.096   7.143   7.731  0.0479 -0.2676  0.0034
   47MOL0     C 6370   2.022   7.251   7.644  0.8056  0.0230  0.7334
   47MOL0     C 6371   1.877   7.213   7.608  0.7973 -0.0359  0.6538
   47MOL0     O 6372   1.889   7.106   7.508  0.0438  0.5084 -0.0230
   47MOL0     C 6373   1.785   7.043   7.445 -0.3404 -0.7628 -0.9679
   47MOL0     C 6374   1.829   6.944   7.364  0.1738  0.0827  0.2349
   47MOL0     C 6375   1.736   6.867   7.307 -0.0978 -0.1149  0.3174
   47MOL0     C 6376   1.795   6.766   7.204  0.1551 -0.4330 -0.1349
   47MOL0     C 6377   1.596   6.888   7.322 -0.2049  0.0923 -0.1111
   47MOL0     C 6378   1.492   6.802   7.272 -0.6255 -0.5357 -0.2363
   47MOL0     O 6379   1.373   6.796   7.341 -0.2619 -0.1654  0.6841
   47MOL0     C 6380   1.253   6.741   7.304 -0.0061  0.5928  0.8097
   47MOL0     C 6381   1.228   6.684   7.183  0.4147 -0.6016  0.8989
   47MOL0     C 6382   1.098   6.635   7.157 -0.5689  0.0741  0.3239
   47MOL0     C 6383   1.001   6.633   7.257 -0.4307  0.1830 -0.8411
   47MOL0     O 6384   0.892   6.568   7.215  0.6792 -0.5106 -0.1811
   47MOL0     C 6385   0.799   6.537   7.323  0.1744  0.7485  0.8078
   47MOL0     C 6386   0.666   6.493   7.256 -0.1023  0.0905 -0.0807
   47MOL0     C 6387   0.557   6.501   7.367  0.5479  0.4321  0.0203
   47MOL0     C 6388   0.419   6.488   7.298 -0.4063 -0.1336 -0.9477
   47MOL0     C 6389   0.305   6.485   7.390  0.3660  0.4182  0.4192
   47MOL0     C 6390   0.239   6.620   7.426  0.2541 -0.4645  0.0162
   47MOL0     C 6391   0.173   6.622   7.563 -0.0692 -0.0949 -0.1267
   47MOL0     C 6392   0.090   6.750   7.571  0.8067 -0.2065  0.5135
   47MOL0    Cl 6393  -0.075   6.710   7.512 -0.0268 -0.1440  0.3548
   47MOL0     C 6394   1.028   6.685   7.386  0.5426  0.3361  0.7424
   47MOL0     C 6395   1.154   6.741   7.404  1.4923 -0.6961  0.6013
   47MOL0     O 6396   1.521   6.730   7.175  0.3743 -0.6453 -0.9464
   47MOL0     C 6397   1.558   7.000   7.407 -0.4236  0.5615 -0.6171
   47MOL0     C 6398   1.652   7.076   7.469 -0.0921  0.3335 -0.9745
   47MOL0     N 6399   2.315   7.394   7.916  0.2169 -0.3479  0.7889
   47MOL0     N 6400   2.280   7.477   8.008  0.4239  0.1253 -0.6309
   47MOL0     C 6401   1.109   7.439   7.980  0.1140  0.4635 -0.3933
   47MOL0     C 6402   0.969   7.416   7.988 -0.3276 -0.3400 -0.1376
   47MOL0     C 6403   0.559   7.329   7.875  0.4471  0.8840  1.0758
   47MOL0     C 6404   0.492   7.315   7.990 -0.0231  0.4335 -0.4565
   47MOL0     C 6405   0.360   7.319   8.010  0.7772  0.2534  1.0807
   47MOL0     C 6406   0.270   7.336   7.901  0.0344  0.2974 -1.5286
   47MOL0     O 6407   0.131   7.335   7.902 -0.7134  0.3188 -0.4790
   47MOL0     C 6408   0.073   7.286   8.022  0.2265 -0.0920 -0.8590
   47MOL0     C 6409  -0.076   7.296   8.005 -0.2041  0.0924 -0.4722
   47MOL0     C 6410  -0.152   7.267   8.132 -0.0240  0.6084 -0.1793
   47MOL0     C 6411  -0.113   7.131   8.207  0.9532  0.2662  0.0941
   47MOL0     C 6412  -0.237   7.107   8.288 -0.6277  0.6717  0.3341
   47MOL0     C 6413  -0.343   7.104   8.341  0.5729 -0.1910 -0.8952
   47MOL0     C 6414   0.333   7.353   7.774 -0.0149  0.5002 -0.7574
   47MOL0     C 6415   0.473   7.350   7.753 -1.0514 -0.1955  0.0847
   47MOL0     C 6416   0.526   7.319   7.617 -0.2742 -0.5198  0.3316
   47MOL0     H 6417   0.956   7.089   7.900 -1.6544  0.8039 -2.7263
   47MOL0     H 6418   1.199   7.118   7.889  1.6771  0.2620 -0.8537
   47MOL0     H 6419   1.366   7.240   7.788 -1.3986 -2.1656  0.9882
   47MOL0     H 6420   1.417   7.191   7.959  1.8868  1.4775  1.3533
   47MOL0     H 6421   1.595   7.248   7.815  0.4494 -0.4007  0.8824
   47MOL0     H 6422   1.533   7.417   7.802 -2.0859 -0.7609 -0.3262
   47MOL0     H 6423   1.577   7.420   8.060 -2.5095 -1.9378  0.2358
   47MOL0     H 6424   1.688   7.284   8.031 -1.9741 -2.4378 -2.7760
   47MOL0     H 6425   1.793   7.447   7.849  1.1865 -0.3017  2.1137
   47MOL0     H 6426   1.683   7.567   7.910  0.7619  0.6475 -1.3875
   47MOL0     H 6427   1.872   7.403   8.064 -1.1298 -1.3408 -1.8637
   47MOL0     H 6428   1.774   7.532   8.134 -1.0493 -2.7993  0.9386
   47MOL0     H 6429   2.005   7.594   7.938  1.9221  0.2519  1.1430
   47MOL0     H 6430   1.888   7.708   8.000 -0.1351 -0.2447  0.3250
   47MOL0     H 6431   1.977   7.667   8.224  2.6516 -1.5835  1.0879
   47MOL0     H 6432   2.119   7.688   8.121  1.4947 -1.9640 -2.2253
   47MOL0     H 6433   2.174   7.508   8.255 -0.0134  1.0528 -1.5162
   47MOL0     H 6434   2.026   7.426   8.230  0.5835  1.2844  2.3927
   47MOL0     H 6435   2.031   7.254   8.000  1.7647 -1.5154  0.5730
   47MOL0     H 6436   2.279   7.106   7.827  1.4913  0.7944  0.9594
   47MOL0     H 6437   2.291   7.235   7.707 -1.4731  1.4273 -0.1331
   47MOL0     H 6438   2.122   7.058   7.668  3.1777 -1.8191  3.0048
   47MOL0     H 6439   2.028   7.117   7.812 -2.0820 -0.3287 -1.7409
   47MOL0     H 6440   2.015   7.346   7.699  0.1054 -0.3595  1.3216
   47MOL0     H 6441   2.086   7.276   7.559 -1.0698  0.9982 -0.4568
   47MOL0     H 6442   1.823   7.176   7.695  2.1061  1.3499  2.1145
   47MOL0     H 6443   1.821   7.294   7.562  1.8797 -0.8113 -2.2667
   47MOL0     H 6444   1.936   6.926   7.367  0.7023  2.4381 -1.8294
   47MOL0     H 6445   1.771   6.664   7.236  2.0986 -0.1939  2.3769
   47MOL0     H 6446   1.903   6.777   7.208  0.3082 -1.8458  0.1398
   47MOL0     H 6447   1.763   6.786   7.101  0.1551  0.9147  0.1049
   47MOL0     H 6448   1.295   6.689   7.098 -1.8664 -0.8191 -0.9969
   47MOL0     H 6449   1.069   6.596   7.060 -0.7299  0.7757  0.0862
   47MOL0     H 6450   0.841   6.458   7.387  0.1956  0.2663  0.2054
   47MOL0     H 6451   0.773   6.629   7.376  2.4969  2.8574 -1.4690
   47MOL0     H 6452   0.643   6.559   7.172  0.3560 -0.0042 -0.2787
   47MOL0     H 6453   0.682   6.394   7.213  1.2602  0.4262 -0.3750
   47MOL0     H 6454   0.561   6.598   7.416  0.4731  0.2362  0.4171
   47MOL0     H 6455   0.572   6.423   7.443 -0.3197  0.3204  0.0812
   47MOL0     H 6456   0.420   6.393   7.242  2.9959 -1.5749  1.2817
   47MOL0     H 6457   0.416   6.561   7.216 -0.1412 -1.0819 -1.8291
   47MOL0     H 6458   0.227   6.423   7.347 -0.1137  1.2880  0.0201
   47MOL0     H 6459   0.331   6.429   7.481  0.6692 -1.9205 -1.0042
   47MOL0     H 6460   0.176   6.656   7.344 -1.0048 -1.0240  0.7128
   47MOL0     H 6461   0.317   6.695   7.440 -1.8064  1.3535  2.7544
   47MOL0     H 6462   0.252   6.628   7.639 -2.2207 -0.6459  2.3222
   47MOL0     H 6463   0.118   6.531   7.591  0.8437 -0.8662 -0.7636
   47MOL0     H 6464   0.133   6.834   7.515 -3.0983  2.1206  0.6036
   47MOL0     H 6465   0.087   6.797   7.669  0.1013 -0.5220  0.6510
   47MOL0     H 6466   0.962   6.683   7.473 -0.1051  1.5431  0.3026
   47MOL0     H 6467   1.177   6.791   7.497  4.1020  0.9187 -0.7886
   47MOL0     H 6468   1.451   7.007   7.428 -1.0014 -3.5471 -1.2929
   47MOL0     H 6469   1.621   7.164   7.525  0.3000  0.4236 -0.8957
   47MOL0     H 6470   1.142   7.540   8.001  1.3224 -0.1636  0.9028
   47MOL0     H 6471   0.905   7.492   8.030  2.1637 -0.6265  4.9052
   47MOL0     H 6472   0.560   7.293   8.073  2.4414 -0.0769 -2.4784
   47MOL0     H 6473   0.327   7.300   8.112 -3.6320 -0.0618 -0.1951
   47MOL0     H 6474   0.090   7.178   8.029 -2.6612 -0.7300 -2.3025
   47MOL0     H 6475   0.107   7.348   8.106 -1.0710  0.8022 -0.9728
   47MOL0     H 6476  -0.121   7.224   7.936 -0.2460  1.0370 -1.4598
   47MOL0     H 6477  -0.096   7.393   7.959  0.7232 -0.4200 -2.0580
   47MOL0     H 6478  -0.122   7.347   8.200 -0.9140  0.2344  0.6839
   47MOL0     H 6479  -0.259   7.264   8.110  0.1403 -2.4967 -0.9570
   47MOL0     H 6480  -0.022   7.152   8.265  2.5633  3.4518 -3.2275
   47MOL0     H 6481  -0.109   7.050   8.133 -1.1155 -1.8579  2.1007
   47MOL0     H 6482  -0.437   7.107   8.393 -0.3828 -1.0958 -2.4908
   47MOL0     H 6483   0.277   7.364   7.682  0.7498  0.0507 -1.2954
   47MOL0     H 6484   0.561   7.413   7.574  0.4512  0.8730  3.6091
   47MOL0     H 6485   0.605   7.243   7.615 -1.3015 -1.5963 -0.7823
   47MOL0     H 6486   0.439   7.290   7.557 -0.3533 -0.8350  0.5967
   48MOL0     O 6487   8.363  10.264   4.019  0.2344 -0.4714  0.9079
   48MOL0     C 6488   8.285  10.305   3.926 -0.5610 -0.0274 -1.3222
   48MOL0     O 6489   8.281  10.257   3.795 -0.1658  0.2059  0.5053
   48MOL0     C 6490   8.397  10.194   3.761  0.0841  0.3459  0.2458
   48MOL0     C 6491   8.408  10.059   3.806  0.5939 -0.0740 -0.0293
   48MOL0     C 6492   8.524   9.987   3.774  0.6634  0.1838 -0.2238
   48MOL0     C 6493   8.626  10.039   3.686  0.2576  0.0855  0.7876
   48MOL0     O 6494   8.737   9.975   3.639  0.1963 -0.8738  0.0387
   48MOL0     C 6495   8.778   9.858   3.722  0.2613 -0.4028 -0.2284
   48MOL0     C 6496   8.918   9.829   3.672 -0.2036  1.2526  0.6132
   48MOL0     C 6497   9.020   9.940   3.700  0.6122  0.7478  0.5271
   48MOL0     C 6498   9.154   9.907   3.632  0.4383 -0.8485  0.5889
   48MOL0     C 6499   9.152   9.930   3.489  0.5988 -0.2622  0.6320
   48MOL0     C 6500   9.292   9.907   3.417  0.7505  0.2374 -0.3877
   48MOL0     C 6501   9.278   9.877   3.260 -0.5816  0.4378 -0.0282
   48MOL0     C 6502   9.223  10.009   3.196  0.7356  0.0867  0.2605
   48MOL0     N 6503   9.222  10.006   3.048  0.4186 -0.2584 -0.2541
   48MOL0     C 6504   9.135   9.936   2.979  0.9571 -0.2065 -0.6113
   48MOL0     C 6505   9.164   9.941   2.846  0.0050  0.4590 -0.3358
   48MOL0     C 6506   9.094   9.880   2.737  0.3341  0.3706  0.1554
   48MOL0     C 6507   9.103   9.733   2.756 -0.1295  1.0053 -0.3907
   48MOL0     C 6508   9.047   9.669   2.627 -0.8988  0.4710  0.3821
   48MOL0     C 6509   8.903   9.708   2.582 -0.2901 -0.5683 -0.4490
   48MOL0     O 6510   8.816   9.703   2.705  0.0178 -0.1301  0.6794
   48MOL0     C 6511   8.689   9.772   2.696  0.2856  0.3534  0.1340
   48MOL0     C 6512   8.644   9.825   2.819  0.2224  0.3655  0.2922
   48MOL0     C 6513   8.514   9.880   2.833  0.1413  0.1478 -0.1720
   48MOL0     C 6514   8.464   9.903   2.977 -0.0211  0.9734  0.3242
   48MOL0     C 6515   8.433   9.898   2.714 -0.1550  0.2314  0.4161
   48MOL0     C 6516   8.299   9.959   2.723  0.6532 -0.5514 -0.1238
   48MOL0     O 6517   8.218   9.939   2.614 -0.8146  0.1590  0.9293
   48MOL0     C 6518   8.114  10.022   2.574  0.1720  1.2480 -0.2040
   48MOL0     C 6519   8.113  10.051   2.437 -0.1609 -0.2143  0.7139
   48MOL0     C 6520   8.016  10.143   2.377  0.1118  0.4657 -0.3013
   48MOL0     C 6521   7.924  10.201   2.459 -0.7003 -1.3915 -0.0475
   48MOL0     O 6522   7.831  10.294   2.406  0.9480  1.1818  0.1825
   48MOL0     C 6523   7.873  10.364   2.292 -0.3563  0.7045  0.3223
   48MOL0     C 6524   7.805  10.498   2.294  0.2044 -1.1128 -0.0449
   48MOL0     C 6525   7.822  10.574   2.424  0.8954  0.4221  1.1321
   48MOL0     C 6526   7.800  10.723   2.408  0.1185  0.0620 -0.2205
   48MOL0     C 6527   7.811  10.793   2.545  0.5138  0.1590 -0.9028
   48MOL0     C 6528   7.804  10.945   2.529 -0.0567  0.7837 -0.4757
   48MOL0     C 6529   7.727  11.014   2.639 -0.8863  0.4511 -0.7808
   48MOL0     C 6530   7.718  11.155   2.601 -0.4331 -0.2385 -0.1811
   48MOL0    Cl 6531   7.864  11.225   2.576 -0.3349  0.0974 -0.0539
   48MOL0     C 6532   7.930  10.183   2.599  0.0715 -0.0837 -0.1695
   48MOL0     C 6533   8.024  10.095   2.659  0.6872  0.6354  0.2858
   48MOL0     O 6534   8.274  10.040   2.812  0.2311 -0.5518 -0.2907
   48MOL0     C 6535   8.489   9.851   2.590  0.0167 -0.7139 -0.5251
   48MOL0     C 6536   8.618   9.792   2.575  0.9010  0.0395 -0.0788
   48MOL0     N 6537   9.289  10.010   2.838 -0.3237  0.0506 -0.7050
   48MOL0     N 6538   9.320  10.042   2.956 -0.6255  0.5704 -0.3175
   48MOL0     C 6539   8.603  10.161   3.625 -0.2584  0.2598  0.2454
   48MOL0     C 6540   8.493  10.233   3.668  0.3196  0.7291 -0.5173
   48MOL0     C 6541   8.173  10.391   3.973 -0.8860 -0.9020  0.6612
   48MOL0     C 6542   8.061  10.412   3.887  0.2942 -0.1512  0.5663
   48MOL0     C 6543   7.947  10.484   3.924 -0.3355 -0.2648  0.5354
   48MOL0     C 6544   7.952  10.558   4.038 -0.3571  0.6603 -0.6635
   48MOL0     O 6545   7.838  10.621   4.078  0.1359 -0.4314  0.0567
   48MOL0     C 6546   7.820  10.667   4.211  0.0096 -0.2730  0.1662
   48MOL0     C 6547   7.676  10.730   4.203  0.1595 -0.5057  0.1721
   48MOL0     C 6548   7.571  10.627   4.169 -0.9648  0.1855  0.3188
   48MOL0     C 6549   7.545  10.528   4.279 -0.5585  0.4679  0.2467
   48MOL0     C 6550   7.498  10.596   4.399 -0.1647 -0.8016  0.0656
   48MOL0     C 6551   7.460  10.643   4.502  0.1276 -0.5605  0.7533
   48MOL0     C 6552   8.067  10.546   4.116 -0.3955 -0.3975 -0.1269
   48MOL0     C 6553   8.176  10.463   4.093 -0.1654 -0.5281  0.0807
   48MOL0     C 6554   8.280  10.468   4.196  0.1087 -0.1786  0.5102
   48MOL0     H 6555   8.332  10.009   3.865  1.9240 -1.1477  0.8442
   48MOL0     H 6556   8.516   9.890   3.821 -3.4422  0.9820  1.1676
   48MOL0     H 6557   8.707   9.779   3.695  1.0788 -0.7342 -1.4781
   48MOL0     H 6558   8.782   9.894   3.825  3.2227  2.8639 -1.2912
   48MOL0     H 6559   8.947   9.732   3.714  0.5762  0.4241 -1.6566
   48MOL0     H 6560   8.922   9.816   3.563 -1.0311 -0.0220  0.7153
   48MOL0     H 6561   8.971  10.032   3.667  0.1278 -0.0039 -0.9247
   48MOL0     H 6562   9.045   9.943   3.807 -0.7901  2.2617  0.8618
   48MOL0     H 6563   9.225   9.970   3.688 -0.9520  0.2974  1.1111
   48MOL0     H 6564   9.175   9.800   3.643 -0.4823 -1.0748  0.1853
   48MOL0     H 6565   9.118  10.031   3.464  1.8605 -0.2969 -1.4040
   48MOL0     H 6566   9.085   9.856   3.445  1.6082 -0.1341 -1.1903
   48MOL0     H 6567   9.351   9.997   3.437  0.5028 -0.1194  2.3074
   48MOL0     H 6568   9.334   9.820   3.468  0.0873 -1.2895 -2.3386
   48MOL0     H 6569   9.203   9.801   3.234  1.2825 -0.9463 -1.6513
   48MOL0     H 6570   9.372   9.839   3.220 -1.3618 -2.9272  1.0347
   48MOL0     H 6571   9.123  10.036   3.233  1.1334  2.4284 -0.2289
   48MOL0     H 6572   9.296  10.088   3.212  0.1226  0.7585 -0.1784
   48MOL0     H 6573   9.055   9.880   3.026  0.8909 -0.2990 -0.8354
   48MOL0     H 6574   9.135   9.906   2.639  3.5777  1.5868  1.6986
   48MOL0     H 6575   8.990   9.914   2.734 -0.5441 -2.1207  0.0051
   48MOL0     H 6576   9.208   9.704   2.768 -0.7380 -0.4559  2.1861
   48MOL0     H 6577   9.048   9.691   2.841  0.8623 -0.6813 -0.5277
   48MOL0     H 6578   9.116   9.684   2.544 -2.0245 -1.3354 -0.9470
   48MOL0     H 6579   9.029   9.562   2.642 -3.7205  0.5072 -1.8707
   48MOL0     H 6580   8.905   9.813   2.550  2.3892 -0.4251  0.0183
   48MOL0     H 6581   8.863   9.649   2.499 -0.6655  0.1625 -0.8026
   48MOL0     H 6582   8.705   9.800   2.906 -2.4015 -0.9186  1.9287
   48MOL0     H 6583   8.466  10.011   2.994 -2.5130  0.8612  1.7377
   48MOL0     H 6584   8.523   9.840   3.044  1.2357 -0.7902 -2.2691
   48MOL0     H 6585   8.361   9.869   2.980  0.2094 -0.0581 -1.6948
   48MOL0     H 6586   8.193   9.997   2.389 -0.4570  0.0511 -0.0867
   48MOL0     H 6587   8.010  10.144   2.269 -0.7478 -2.6702 -0.3735
   48MOL0     H 6588   7.982  10.374   2.296 -0.1892 -0.6007 -0.4930
   48MOL0     H 6589   7.835  10.315   2.202 -3.3763  1.3008  1.1799
   48MOL0     H 6590   7.865  10.552   2.219  1.9412 -1.9678  0.6744
   48MOL0     H 6591   7.700  10.486   2.266 -0.9484  2.4084  2.1981
   48MOL0     H 6592   7.923  10.558   2.463  1.1027 -0.8902  0.1337
   48MOL0     H 6593   7.752  10.525   2.492 -2.9261  1.5185 -1.7247
   48MOL0     H 6594   7.705  10.746   2.358  0.5571  1.7055 -0.3422
   48MOL0     H 6595   7.878  10.768   2.346  0.6786  2.4254  2.0523
   48MOL0     H 6596   7.728  10.761   2.609  1.8705  0.1877  0.9503
   48MOL0     H 6597   7.896  10.774   2.610 -1.7928 -1.5545  1.8607
   48MOL0     H 6598   7.756  10.970   2.434  0.6309  0.3161 -0.9465
   48MOL0     H 6599   7.905  10.983   2.543 -1.0860  2.5876  3.4080
   48MOL0     H 6600   7.783  11.010   2.733 -0.9150 -2.7196 -0.7634
   48MOL0     H 6601   7.628  10.967   2.642  0.1249 -1.9926 -2.4742
   48MOL0     H 6602   7.674  11.206   2.688  0.7300  1.3001 -0.4496
   48MOL0     H 6603   7.664  11.172   2.507 -0.2500 -0.8843 -0.4112
   48MOL0     H 6604   7.849  10.221   2.661 -0.2119 -1.7572  0.5456
   48MOL0     H 6605   8.028  10.085   2.767 -1.7142 -0.9839  0.3020
   48MOL0     H 6606   8.437   9.874   2.497 -1.0081  0.5150  0.3072
   48MOL0     H 6607   8.652   9.755   2.479 -2.2889 -2.3692 -0.4496
   48MOL0     H 6608   8.670  10.210   3.555  0.2503  1.3158  1.4401
   48MOL0     H 6609   8.479  10.333   3.627  1.4717  1.2011  0.1918
   48MOL0     H 6610   8.047  10.356   3.795 -1.1641 -2.7240  2.2584
   48MOL0     H 6611   7.860  10.491   3.859 -0.4093  2.2403  0.8216
   48MOL0     H 6612   7.818  10.578   4.275 -1.1306  0.0979  0.6861
   48MOL0     H 6613   7.902  10.733   4.239  0.4087 -0.0047 -1.5288
   48MOL0     H 6614   7.676  10.806   4.124  2.2588  0.0152  0.6260
   48MOL0     H 6615   7.661  10.769   4.304  2.5486 -0.4710  0.5690
   48MOL0     H 6616   7.472  10.672   4.157 -1.5702 -1.0070  0.6979
   48MOL0     H 6617   7.588  10.577   4.073  0.6740 -0.9106  1.1232
   48MOL0     H 6618   7.624  10.453   4.295 -1.3629  0.0577  2.8020
   48MOL0     H 6619   7.460  10.467   4.247 -0.2137  0.7011 -1.1714
   48MOL0     H 6620   7.426  10.688   4.594 -1.6619  2.2509 -1.1215
   48MOL0     H 6621   8.060  10.583   4.218  0.7390 -0.4839 -0.0080
   48MOL0     H 6622   8.374  10.497   4.149 -0.4291 -0.4092 -0.7540
   48MOL0     H 6623   8.253  10.539   4.274 -1.6517  0.7385 -0.8417
   48MOL0     H 6624   8.281  10.364   4.230 -3.1441 -1.0683 -1.5823
   49MOL0     O 6625   8.329   3.711   8.237 -0.5712  0.0392  0.0755
   49MOL0     C 6626   8.300   3.756   8.351  0.2213  0.2989  0.5588
   49MOL0     O 6627   8.372   3.837   8.424  0.5627 -0.0623 -0.3880
   49MOL0     C 6628   8.504   3.862   8.392 -0.3024  0.7919  0.0965
   49MOL0     C 6629   8.549   3.931   8.285 -0.1716  0.4691 -0.6248
   49MOL0     C 6630   8.684   3.943   8.252 -0.8860  0.3444  0.0904
   49MOL0     C 6631   8.783   3.886   8.341  1.0826  0.1816  0.9837
   49MOL0     O 6632   8.912   3.912   8.307  0.0935 -0.3566  0.0990
   49MOL0     C 6633   9.016   3.893   8.407 -0.0032 -0.0686 -0.3146
   49MOL0     C 6634   9.069   3.753   8.402 -1.1702  0.1202  0.0811
   49MOL0     C 6635   9.139   3.730   8.271 -0.4164  0.3654  0.7035
   49MOL0     C 6636   9.200   3.592   8.266  0.1601 -0.4511 -0.5604
   49MOL0     C 6637   9.289   3.587   8.141 -0.0194 -0.5590  0.1449
   49MOL0     C 6638   9.357   3.454   8.134  0.3675 -0.4644  0.1355
   49MOL0     C 6639   9.445   3.449   8.014  0.0078  0.7889  0.4007
   49MOL0     C 6640   9.573   3.528   8.043  0.3367 -0.3036  0.4226
   49MOL0     N 6641   9.685   3.476   7.959 -0.5141  0.0025 -1.0232
   49MOL0     C 6642   9.776   3.383   7.999  0.1247  1.8237 -0.7095
   49MOL0     C 6643   9.869   3.358   7.906  0.6490  0.2029  0.6437
   49MOL0     C 6644   9.979   3.253   7.887  0.0788 -0.6975 -0.2039
   49MOL0     C 6645  10.124   3.307   7.874 -0.2181 -0.4449 -0.4123
   49MOL0     C 6646  10.223   3.206   7.824 -0.4735 -0.5510  0.4381
   49MOL0     C 6647  10.363   3.280   7.816  0.1632  0.6507 -0.2210
   49MOL0     O 6648  10.459   3.183   7.765  0.2634  0.0964 -0.4702
   49MOL0     C 6649  10.592   3.221   7.749  0.2099  0.0773  1.2285
   49MOL0     C 6650  10.643   3.354   7.759  0.2260  0.5649  0.6183
   49MOL0     C 6651  10.779   3.387   7.724 -0.4594  0.1437 -0.3616
   49MOL0     C 6652  10.827   3.533   7.749  0.5674  0.2339  0.0610
   49MOL0     C 6653  10.870   3.284   7.686 -0.1972  0.2100 -0.3783
   49MOL0     C 6654  11.005   3.315   7.652  0.1992 -0.0570 -0.9595
   49MOL0     O 6655  11.092   3.224   7.709 -0.6240  0.4456  0.6103
   49MOL0     C 6656  11.227   3.249   7.683 -0.0914  0.9264 -0.8250
   49MOL0     C 6657  11.285   3.249   7.567  0.3058  0.0709  0.1273
   49MOL0     C 6658  11.419   3.272   7.557 -0.2154 -0.6624 -0.2686
   49MOL0     C 6659  11.500   3.270   7.674 -0.4164  0.3606 -0.3294
   49MOL0     O 6660  11.634   3.270   7.675 -0.5325 -0.5622 -0.0078
   49MOL0     C 6661  11.707   3.229   7.558 -0.0873 -0.2948 -0.4396
   49MOL0     C 6662  11.861   3.231   7.569  0.0493  0.4285  0.0088
   49MOL0     C 6663  11.903   3.101   7.647  0.2518  0.8609  0.3968
   49MOL0     C 6664  12.050   3.081   7.647 -0.9831 -0.5256  0.3667
   49MOL0     C 6665  12.085   2.961   7.744 -0.4663 -0.2269 -0.3186
   49MOL0     C 6666  12.072   2.826   7.680 -0.2622  0.5112  0.4992
   49MOL0     C 6667  12.161   2.729   7.746  0.6708  0.0413 -0.3299
   49MOL0     C 6668  12.139   2.585   7.706  0.1832 -0.3545  0.9471
   49MOL0    Cl 6669  12.150   2.561   7.528 -0.5367 -0.3783  0.1665
   49MOL0     C 6670  11.438   3.268   7.797  0.3354 -0.0330 -0.3263
   49MOL0     C 6671  11.301   3.268   7.805  0.5696  0.1545 -0.4513
   49MOL0     O 6672  11.030   3.380   7.557 -0.8612 -0.1714  0.3285
   49MOL0     C 6673  10.816   3.149   7.690 -0.3503  0.8255 -0.3777
   49MOL0     C 6674  10.688   3.116   7.723 -0.3779  1.0712 -0.2901
   49MOL0     N 6675   9.839   3.452   7.812 -0.7464 -0.5495 -0.7306
   49MOL0     N 6676   9.733   3.517   7.843 -0.4478 -0.1521  0.0474
   49MOL0     C 6677   8.737   3.819   8.455  0.1972  0.5899 -0.0465
   49MOL0     C 6678   8.598   3.809   8.476  0.0682  0.7459 -0.6684
   49MOL0     C 6679   8.163   3.712   8.398  0.1121 -0.0392  0.7176
   49MOL0     C 6680   8.057   3.700   8.302 -0.8464  0.6026 -0.5494
   49MOL0     C 6681   7.926   3.681   8.340  0.5813  1.1558  0.4720
   49MOL0     C 6682   7.887   3.676   8.473 -0.4088  0.2961 -0.1407
   49MOL0     O 6683   7.766   3.652   8.517 -0.4411 -0.2090 -0.9687
   49MOL0     C 6684   7.658   3.653   8.429  0.5617  0.2094  2.0626
   49MOL0     C 6685   7.533   3.640   8.503 -0.3878 -0.0893 -0.0305
   49MOL0     C 6686   7.406   3.686   8.424  0.8829  0.1111  0.6239
   49MOL0     C 6687   7.274   3.647   8.494 -0.5026  0.2713  0.1421
   49MOL0     C 6688   7.152   3.705   8.430 -0.0381 -0.0633 -0.5688
   49MOL0     C 6689   7.052   3.732   8.374  1.2251 -0.9008 -0.0734
   49MOL0     C 6690   7.989   3.685   8.559 -0.1278 -0.2088 -0.0399
   49MOL0     C 6691   8.127   3.702   8.528 -0.0733 -0.1828  0.6578
   49MOL0     C 6692   8.232   3.682   8.638 -0.4587  0.6032  0.4863
   49MOL0     H 6693   8.476   3.975   8.217 -2.4445 -1.9924  0.0829
   49MOL0     H 6694   8.714   3.997   8.162 -0.1037  2.3287  1.4652
   49MOL0     H 6695   8.976   3.916   8.506 -0.0750  1.0903 -0.5945
   49MOL0     H 6696   9.095   3.965   8.383  1.6843 -1.6950  0.1836
   49MOL0     H 6697   9.136   3.738   8.487  0.5962 -0.8326 -1.4008
   49MOL0     H 6698   8.986   3.683   8.411  0.5475 -1.9653  0.4837
   49MOL0     H 6699   9.059   3.715   8.197  0.7908  0.0106 -0.5913
   49MOL0     H 6700   9.204   3.811   8.236 -0.1050 -0.7602 -1.5616
   49MOL0     H 6701   9.250   3.583   8.363 -1.4989  1.8007  0.5845
   49MOL0     H 6702   9.118   3.520   8.265  0.5092 -0.8579 -0.5690
   49MOL0     H 6703   9.366   3.662   8.159 -1.8002  1.1946  0.7871
   49MOL0     H 6704   9.230   3.615   8.053  1.7848 -0.9824 -1.2858
   49MOL0     H 6705   9.404   3.431   8.230  1.9043  2.0830  0.0880
   49MOL0     H 6706   9.288   3.369   8.131 -0.9344  0.5217  1.0871
   49MOL0     H 6707   9.401   3.498   7.926 -1.6242  0.0617  0.7845
   49MOL0     H 6708   9.464   3.346   7.982 -0.1496  1.3345 -1.5930
   49MOL0     H 6709   9.561   3.637   8.041  1.0466 -0.1635  2.1535
   49MOL0     H 6710   9.586   3.509   8.150 -0.9142  4.0941  1.5705
   49MOL0     H 6711   9.749   3.325   8.087 -1.2135 -0.1155 -2.2830
   49MOL0     H 6712   9.966   3.195   7.795 -0.9288  1.7606 -1.7305
   49MOL0     H 6713   9.984   3.182   7.970  1.7526 -0.8868 -0.4322
   49MOL0     H 6714  10.119   3.390   7.803 -2.0376 -2.6535 -3.0524
   49MOL0     H 6715  10.152   3.340   7.975  0.3483 -0.2817 -0.6202
   49MOL0     H 6716  10.226   3.128   7.900  0.6350 -1.6002 -0.6348
   49MOL0     H 6717  10.199   3.166   7.725  2.9469 -0.5659 -0.4907
   49MOL0     H 6718  10.362   3.364   7.745  1.2631  1.9750  1.2735
   49MOL0     H 6719  10.398   3.318   7.912 -0.2158 -1.8511  0.9923
   49MOL0     H 6720  10.575   3.433   7.791  0.7616  1.0412  0.6051
   49MOL0     H 6721  10.855   3.574   7.651 -0.1788 -0.1497 -0.3225
   49MOL0     H 6722  10.917   3.525   7.811 -0.3850  0.1890  1.4823
   49MOL0     H 6723  10.750   3.596   7.794 -2.1562 -3.3742  0.9195
   49MOL0     H 6724  11.225   3.226   7.480  0.2187  0.6705  0.0281
   49MOL0     H 6725  11.467   3.291   7.461  2.0232  0.4120  0.9831
   49MOL0     H 6726  11.678   3.129   7.527 -1.8892  0.2742 -0.7383
   49MOL0     H 6727  11.687   3.290   7.469  3.7802  0.5278 -0.9136
   49MOL0     H 6728  11.910   3.244   7.472 -1.2325  5.0157 -0.2753
   49MOL0     H 6729  11.886   3.325   7.617 -1.4835  0.5847  0.5475
   49MOL0     H 6730  11.851   3.014   7.606 -1.0007  1.6668  0.2399
   49MOL0     H 6731  11.868   3.109   7.750 -2.4319  3.3849 -0.5668
   49MOL0     H 6732  12.095   3.173   7.686 -0.7513 -1.5135  2.6182
   49MOL0     H 6733  12.081   3.074   7.543 -2.6705  2.9686 -0.4954
   49MOL0     H 6734  12.192   2.966   7.769 -0.6316 -1.5897  0.7746
   49MOL0     H 6735  12.041   2.963   7.844 -0.7843  2.2799 -0.4543
   49MOL0     H 6736  12.105   2.833   7.575  0.9574 -2.0907  0.6493
   49MOL0     H 6737  11.971   2.787   7.691 -0.6851  2.0715  2.6894
   49MOL0     H 6738  12.133   2.738   7.852 -1.5053 -1.5482 -0.7055
   49MOL0     H 6739  12.266   2.759   7.735  0.7197 -0.1795 -0.4648
   49MOL0     H 6740  12.041   2.552   7.740 -0.1750  0.4759  0.7322
   49MOL0     H 6741  12.215   2.523   7.755 -0.0877  0.2454  2.1505
   49MOL0     H 6742  11.509   3.279   7.879  0.7324  0.2127 -0.6948
   49MOL0     H 6743  11.262   3.275   7.906  1.3797  0.7107 -0.1668
   49MOL0     H 6744  10.887   3.069   7.670 -1.6894 -1.3968  2.9829
   49MOL0     H 6745  10.648   3.015   7.725  0.7215  0.6229  1.1498
   49MOL0     H 6746   8.800   3.774   8.529 -0.4208  1.6570  1.1743
   49MOL0     H 6747   8.573   3.768   8.574  3.1237  0.3155  0.0266
   49MOL0     H 6748   8.081   3.700   8.196 -0.6355  0.8582 -0.5011
   49MOL0     H 6749   7.862   3.665   8.254  0.2065  0.7036  0.8330
   49MOL0     H 6750   7.662   3.743   8.366  0.5187 -1.4190 -0.3842
   49MOL0     H 6751   7.657   3.569   8.360 -1.5198  0.3728  1.8147
   49MOL0     H 6752   7.541   3.683   8.603 -1.0347 -0.6409  0.2682
   49MOL0     H 6753   7.515   3.533   8.517 -2.0258  0.4958  3.2390
   49MOL0     H 6754   7.407   3.795   8.419  1.8764  0.0432 -2.3637
   49MOL0     H 6755   7.400   3.648   8.321 -1.8250  2.9983 -0.4686
   49MOL0     H 6756   7.281   3.685   8.597  2.2650  0.2635  0.0466
   49MOL0     H 6757   7.275   3.538   8.497  1.9160  0.2633  2.3513
   49MOL0     H 6758   6.955   3.755   8.332  2.7699  1.4684 -2.7349
   49MOL0     H 6759   7.954   3.675   8.662 -1.6338 -2.8857 -0.7251
   49MOL0     H 6760   8.295   3.597   8.611  0.8742  1.4638  0.8242
   49MOL0     H 6761   8.293   3.772   8.647 -1.7854  2.1106 -3.5100
   49MOL0     H 6762   8.184   3.654   8.733 -0.0501  0.6283  0.7046
   50MOL0     O 6763   0.565   0.030   5.803  0.7880  0.3962 -0.7340
   50MOL0     C 6764   0.641   0.007   5.900 -0.5193  0.5430  0.7059
   50MOL0     O 6765   0.726  -0.096   5.904 -0.4222  0.3312 -0.4193
   50MOL0     C 6766   0.755  -0.163   5.797  0.7853 -0.8435  0.2791
   50MOL0     C 6767   0.815  -0.292   5.817 -0.3793 -0.5200 -0.0513
   50MOL0     C 6768   0.865  -0.375   5.712  0.0754  0.3238  0.1233
   50MOL0     C 6769   0.847  -0.329   5.577 -0.4207  0.6356 -0.1182
   50MOL0     O 6770   0.904  -0.382   5.468  0.7541  0.9801 -0.1061
   50MOL0     C 6771   1.014  -0.479   5.483 -1.0930 -0.2866  0.2513
   50MOL0     C 6772   0.955  -0.619   5.481  0.6979  0.4936 -0.2771
   50MOL0     C 6773   1.060  -0.727   5.509 -0.0767  0.1787 -0.2068
   50MOL0     C 6774   1.075  -0.726   5.665  0.2347  0.1893  0.6200
   50MOL0     C 6775   1.204  -0.823   5.695 -0.0140 -0.0246 -1.0378
   50MOL0     C 6776   1.163  -0.966   5.702 -0.3220 -0.2776 -0.1688
   50MOL0     C 6777   1.261  -1.049   5.776 -0.0886 -0.3856 -0.1964
   50MOL0     C 6778   1.232  -1.193   5.734  0.3802  0.3270 -0.3331
   50MOL0     N 6779   1.296  -1.288   5.828 -0.5212  0.0255  0.5463
   50MOL0     C 6780   1.421  -1.272   5.884  0.0180  0.2818  0.5097
   50MOL0     C 6781   1.454  -1.391   5.933 -0.3382  0.4908  0.3047
   50MOL0     C 6782   1.573  -1.418   6.023 -0.7015  0.6566  0.0239
   50MOL0     C 6783   1.670  -1.513   5.958  0.0281  0.3370  0.2701
   50MOL0     C 6784   1.772  -1.550   6.058  0.3806 -0.6354  0.0223
   50MOL0     C 6785   1.868  -1.663   6.010  0.4128  0.4607  0.2517
   50MOL0     O 6786   1.951  -1.626   5.902  0.3317  0.3727  0.0507
   50MOL0     C 6787   2.065  -1.561   5.942 -0.2546  0.9635 -0.9685
   50MOL0     C 6788   2.061  -1.425   5.910  0.2869  0.5994  0.1152
   50MOL0     C 6789   2.163  -1.341   5.965  1.3062  0.2013  1.4541
   50MOL0     C 6790   2.160  -1.196   5.919  0.5173  0.2767 -0.5299
   50MOL0     C 6791   2.258  -1.397   6.045 -0.3645 -0.0138 -0.6804
   50MOL0     C 6792   2.366  -1.329   6.112 -0.2042 -0.4622  0.6706
   50MOL0     O 6793   2.425  -1.383   6.225 -0.1069 -0.7796 -0.5376
   50MOL0     C 6794   2.493  -1.300   6.317 -0.3732  0.6837 -0.1082
   50MOL0     C 6795   2.443  -1.174   6.347 -0.0442 -0.1644 -0.0044
   50MOL0     C 6796   2.507  -1.093   6.439  0.5458 -0.5297  0.0023
   50MOL0     C 6797   2.618  -1.136   6.512 -0.1669 -0.5896 -0.1201
   50MOL0     O 6798   2.680  -1.047   6.601  0.3078  0.2184 -0.4307
   50MOL0     C 6799   2.771  -1.103   6.703 -0.3190 -0.4045 -0.0005
   50MOL0     C 6800   2.706  -1.110   6.836  0.0102  0.1287 -0.6384
   50MOL0     C 6801   2.817  -1.103   6.954 -0.1653  0.1328  0.9307
   50MOL0     C 6802   2.753  -1.109   7.092 -0.3973 -0.4139  0.1051
   50MOL0     C 6803   2.658  -1.002   7.134  0.1496 -0.7498 -0.0793
   50MOL0     C 6804   2.646  -0.994   7.286  0.5336  0.3253 -0.1996
   50MOL0     C 6805   2.531  -0.914   7.343  1.2112 -0.4446  0.3765
   50MOL0     C 6806   2.527  -0.913   7.494 -0.1169 -0.4697 -0.1819
   50MOL0    Cl 6807   2.387  -0.991   7.557  0.1033 -0.2481  0.0135
   50MOL0     C 6808   2.658  -1.272   6.484 -0.2680 -0.5473  0.3528
   50MOL0     C 6809   2.603  -1.352   6.387  0.6707 -0.6294  0.2084
   50MOL0     O 6810   2.422  -1.236   6.052 -0.8257 -0.8213 -0.0582
   50MOL0     C 6811   2.255  -1.534   6.070 -0.3509 -0.2867 -1.3024
   50MOL0     C 6812   2.161  -1.620   6.019 -0.7782  0.7324 -0.8133
   50MOL0     N 6813   1.344  -1.476   5.918 -0.0453  0.3419  0.5008
   50MOL0     N 6814   1.264  -1.419   5.833 -0.1243  0.6405 -0.8163
   50MOL0     C 6815   0.780  -0.209   5.563  1.1505  0.4109  0.5728
   50MOL0     C 6816   0.752  -0.125   5.662  0.0263  0.3052 -0.3942
   50MOL0     C 6817   0.631   0.084   6.031 -0.0606  0.3612  0.4457
   50MOL0     C 6818   0.716   0.054   6.133 -0.2115 -0.2654  0.3183
   50MOL0     C 6819   0.721   0.133   6.253 -0.1379  0.1648 -0.3424
   50MOL0     C 6820   0.628   0.237   6.271 -0.2542  0.6938  0.2815
   50MOL0     O 6821   0.640   0.314   6.395 -0.2955  0.7027 -1.0060
   50MOL0     C 6822   0.538   0.409   6.427  0.0971  0.8308 -0.5599
   50MOL0     C 6823   0.541   0.536   6.346  0.3894 -0.0466 -0.6744
   50MOL0     C 6824   0.427   0.630   6.383 -0.0763 -0.4583  0.4465
   50MOL0     C 6825   0.429   0.752   6.292  0.3378 -0.2668 -0.0412
   50MOL0     C 6826   0.560   0.823   6.309 -0.6634  0.0829 -0.0456
   50MOL0     C 6827   0.656   0.896   6.331 -1.1049 -0.2119  0.2037
   50MOL0     C 6828   0.536   0.259   6.165  0.1119  0.7697 -0.3196
   50MOL0     C 6829   0.534   0.190   6.051  0.2031  0.2687  0.5856
   50MOL0     C 6830   0.418   0.210   5.952 -0.1183 -0.0987  0.4772
   50MOL0     H 6831   0.816  -0.325   5.921  2.3082 -0.0071  0.1570
   50MOL0     H 6832   0.924  -0.461   5.740  0.8834  1.1948  1.1604
   50MOL0     H 6833   1.079  -0.451   5.566  2.9117  0.1861 -2.7183
   50MOL0     H 6834   1.072  -0.471   5.390  2.2359 -0.9562  2.1342
   50MOL0     H 6835   0.870  -0.627   5.550  0.0813  0.4212 -1.0256
   50MOL0     H 6836   0.909  -0.639   5.383 -0.8132  1.2669  0.2337
   50MOL0     H 6837   1.040  -0.828   5.472  2.9621 -0.0594 -1.5228
   50MOL0     H 6838   1.156  -0.697   5.464  0.5193 -0.1516  0.8181
   50MOL0     H 6839   1.094  -0.626   5.704 -0.1792  1.0139 -1.1780
   50MOL0     H 6840   0.981  -0.762   5.708  0.4112 -2.0015 -0.6305
   50MOL0     H 6841   1.238  -0.799   5.796 -1.6477  1.0324 -0.6920
   50MOL0     H 6842   1.288  -0.825   5.626  1.7974 -0.6583  1.0529
   50MOL0     H 6843   1.068  -0.964   5.755 -0.4691  0.6689 -0.4544
   50MOL0     H 6844   1.146  -1.000   5.599  0.2872 -0.5489 -0.1877
   50MOL0     H 6845   1.240  -1.036   5.883  1.3467 -2.3188  0.3818
   50MOL0     H 6846   1.368  -1.042   5.755  0.0312 -1.1313  0.1184
   50MOL0     H 6847   1.125  -1.219   5.731  0.6766 -0.8990 -1.1701
   50MOL0     H 6848   1.269  -1.211   5.633 -1.4552 -0.2124 -0.9590
   50MOL0     H 6849   1.468  -1.176   5.904  1.5577 -0.7165  1.8057
   50MOL0     H 6850   1.536  -1.452   6.120  1.0471  0.4630  0.6551
   50MOL0     H 6851   1.633  -1.329   6.038  1.0524 -0.1707 -1.6045
   50MOL0     H 6852   1.631  -1.606   5.916  2.7277  0.1134 -2.0584
   50MOL0     H 6853   1.722  -1.459   5.878  2.0598  0.9289  1.8932
   50MOL0     H 6854   1.827  -1.457   6.076 -1.3380  0.0706  2.2678
   50MOL0     H 6855   1.731  -1.566   6.159  1.6222 -1.3830  0.4366
   50MOL0     H 6856   1.933  -1.701   6.088  1.2605 -0.2733 -0.7866
   50MOL0     H 6857   1.807  -1.748   5.979  0.5793  0.7064 -0.7991
   50MOL0     H 6858   1.983  -1.371   5.858 -0.9903  2.1168  3.3669
   50MOL0     H 6859   2.256  -1.168   5.876 -0.1478  1.3696 -1.3786
   50MOL0     H 6860   2.147  -1.134   6.009  1.7024 -0.5293  0.2284
   50MOL0     H 6861   2.081  -1.187   5.844 -0.1943 -0.1833  0.1530
   50MOL0     H 6862   2.346  -1.153   6.303 -0.6448  0.4309  1.5216
   50MOL0     H 6863   2.463  -0.995   6.456  1.3323 -0.1736  0.0198
   50MOL0     H 6864   2.807  -1.203   6.677  1.4382 -0.3526  1.8906
   50MOL0     H 6865   2.858  -1.036   6.711 -0.1857 -0.7474  2.1286
   50MOL0     H 6866   2.651  -1.015   6.837 -0.7269 -0.2895  0.2259
   50MOL0     H 6867   2.641  -1.197   6.856  1.8034 -0.5598  2.9530
   50MOL0     H 6868   2.873  -1.009   6.949 -0.9812  0.6386  1.0382
   50MOL0     H 6869   2.895  -1.179   6.953 -0.0193  0.2349  2.3320
   50MOL0     H 6870   2.839  -1.104   7.158 -1.3418 -2.9822  1.6772
   50MOL0     H 6871   2.701  -1.204   7.108  0.3218 -0.6943  0.7940
   50MOL0     H 6872   2.704  -0.908   7.103  0.2619 -0.5289  0.7568
   50MOL0     H 6873   2.567  -1.022   7.076  0.1292  0.5657 -0.5297
   50MOL0     H 6874   2.739  -0.962   7.333  0.1640  3.5685 -1.4198
   50MOL0     H 6875   2.626  -1.100   7.305  0.1907  0.5940  0.9999
   50MOL0     H 6876   2.435  -0.943   7.298  0.4893  0.7338  1.0947
   50MOL0     H 6877   2.532  -0.809   7.312 -2.4709 -0.0211  1.2274
   50MOL0     H 6878   2.526  -0.811   7.534 -1.4026 -0.7691  0.6091
   50MOL0     H 6879   2.614  -0.960   7.542 -0.5074  0.8894  1.9864
   50MOL0     H 6880   2.734  -1.318   6.546  0.2422 -1.6956 -1.0690
   50MOL0     H 6881   2.629  -1.456   6.371 -0.0942 -1.0073  1.2853
   50MOL0     H 6882   2.330  -1.572   6.138  0.6032  1.7865 -1.1067
   50MOL0     H 6883   2.168  -1.727   6.036  0.3432  1.0159  0.8010
   50MOL0     H 6884   0.776  -0.180   5.458  2.4639 -1.2064  0.0241
   50MOL0     H 6885   0.717  -0.029   5.627 -0.9139 -1.2307 -4.1064
   50MOL0     H 6886   0.796  -0.019   6.123  0.3074  0.1221  1.4803
   50MOL0     H 6887   0.802   0.125   6.326  1.3440  0.5621 -1.8860
   50MOL0     H 6888   0.442   0.359   6.410 -0.7753  2.1136  0.3904
   50MOL0     H 6889   0.539   0.422   6.536  0.3894  0.5547 -0.5281
   50MOL0     H 6890   0.551   0.527   6.238  1.9274 -0.6293 -0.5150
   50MOL0     H 6891   0.631   0.579   6.393  0.7280 -2.7580  1.3973
   50MOL0     H 6892   0.336   0.571   6.367  0.2372 -2.1215  3.9240
   50MOL0     H 6893   0.437   0.666   6.486  0.5310  1.5993 -0.2789
   50MOL0     H 6894   0.350   0.826   6.310 -0.3667 -0.9207 -0.3707
   50MOL0     H 6895   0.423   0.715   6.189 -2.9839 -3.5815  1.1208
   50MOL0     H 6896   0.740   0.948   6.372  0.3590 -3.2350  1.3336
   50MOL0     H 6897   0.453   0.324   6.190 -0.2637  0.2224 -0.1289
   50MOL0     H 6898   0.352   0.291   5.984 -3.9387 -2.0989 -1.6941
   50MOL0     H 6899   0.456   0.242   5.855  1.0265 -4.3219 -0.6773
   50MOL0     H 6900   0.357   0.121   5.939  1.1081 -0.9421  0.3311
   51MOL0     O 6901   5.391   0.072   2.288 -0.1290  0.2543 -0.2219
   51MOL0     C 6902   5.416   0.046   2.403  0.1707 -0.4297 -0.4112
   51MOL0     O 6903   5.362   0.100   2.513 -0.3353  0.6074  0.2052
   51MOL0     C 6904   5.293   0.205   2.498  0.3319 -0.6301 -0.5749
   51MOL0     C 6905   5.360   0.327   2.522 -0.2784 -0.6046  0.8584
   51MOL0     C 6906   5.290   0.448   2.510  0.6435  1.0830  0.2865
   51MOL0     C 6907   5.150   0.450   2.493  0.6543  0.2403  0.2144
   51MOL0     O 6908   5.078   0.562   2.522 -0.2881 -1.3857  0.6923
   51MOL0     C 6909   5.128   0.675   2.446  0.1668  0.9197 -0.0815
   51MOL0     C 6910   5.067   0.694   2.307 -0.0758  0.7200 -0.1361
   51MOL0     C 6911   4.915   0.687   2.322  0.6819  0.3968 -0.3021
   51MOL0     C 6912   4.846   0.823   2.329  0.4388 -0.0575 -0.4738
   51MOL0     C 6913   4.833   0.887   2.190 -0.2397 -0.1686 -0.4667
   51MOL0     C 6914   4.850   1.039   2.198 -0.6092  0.5488 -0.5485
   51MOL0     C 6915   4.869   1.103   2.059 -0.0575  0.7826 -0.3733
   51MOL0     C 6916   4.885   1.258   2.080  0.0147  0.2816 -0.0648
   51MOL0     N 6917   5.008   1.286   2.155  0.1588  0.3078  0.1428
   51MOL0     C 6918   5.132   1.241   2.126  0.1616  0.6279 -0.9983
   51MOL0     C 6919   5.217   1.320   2.205 -0.9120  0.1200 -0.0294
   51MOL0     C 6920   5.364   1.320   2.210  0.4709 -0.4099  0.2779
   51MOL0     C 6921   5.414   1.384   2.076 -0.8464  0.4055 -0.0366
   51MOL0     C 6922   5.567   1.376   2.081 -0.0889 -0.5090 -0.3903
   51MOL0     C 6923   5.620   1.506   2.142 -0.7040 -0.5253 -0.2516
   51MOL0     O 6924   5.759   1.462   2.174  0.3281  0.2172  0.0491
   51MOL0     C 6925   5.834   1.585   2.178  0.3172  0.3762  0.4570
   51MOL0     C 6926   5.839   1.673   2.282 -0.6332  0.0546  0.3818
   51MOL0     C 6927   5.919   1.787   2.283 -0.4936  0.9659  0.5896
   51MOL0     C 6928   5.928   1.855   2.411  0.4914 -0.7587  0.5812
   51MOL0     C 6929   6.002   1.822   2.166 -0.1391 -0.2520 -0.0436
   51MOL0     C 6930   6.112   1.928   2.170 -0.9792 -0.3992  0.0580
   51MOL0     O 6931   6.213   1.909   2.086 -0.5315  0.9099  0.1882
   51MOL0     C 6932   6.326   1.999   2.095  1.2812  0.5729  0.2496
   51MOL0     C 6933   6.340   2.088   1.989 -0.0681 -0.4092  0.7720
   51MOL0     C 6934   6.441   2.186   1.998  0.0334  0.0748  0.4995
   51MOL0     C 6935   6.525   2.195   2.116 -0.8107  0.1904 -0.0127
   51MOL0     O 6936   6.624   2.289   2.118  0.5014 -0.1401 -0.6810
   51MOL0     C 6937   6.711   2.303   2.237  0.6069 -0.1297  0.7057
   51MOL0     C 6938   6.803   2.428   2.211 -0.2058  0.2583 -0.2704
   51MOL0     C 6939   6.881   2.469   2.341  0.3800  0.3180 -0.0833
   51MOL0     C 6940   7.031   2.490   2.307  0.3006  0.5848 -0.4859
   51MOL0     C 6941   7.108   2.539   2.432  0.1862  0.0035 -0.8397
   51MOL0     C 6942   7.040   2.662   2.487 -0.3765 -0.4495 -0.1842
   51MOL0     C 6943   7.138   2.730   2.584  0.7715 -0.4956 -0.1918
   51MOL0     C 6944   7.226   2.839   2.518 -1.0239 -0.0052 -0.4243
   51MOL0    Cl 6945   7.113   2.974   2.469 -0.0233  0.2477  0.5826
   51MOL0     C 6946   6.505   2.099   2.215  0.1765 -0.0194 -1.7018
   51MOL0     C 6947   6.402   2.008   2.204 -0.7934 -0.2308 -1.5007
   51MOL0     O 6948   6.112   2.018   2.249  0.6236 -0.8848 -0.1846
   51MOL0     C 6949   5.992   1.731   2.058 -0.0072  0.4319  0.0833
   51MOL0     C 6950   5.900   1.627   2.062  0.6378  0.6692 -0.2495
   51MOL0     N 6951   5.140   1.404   2.274 -0.1307  0.0910  0.6514
   51MOL0     N 6952   5.019   1.389   2.249 -0.3436  0.9225  0.4775
   51MOL0     C 6953   5.088   0.326   2.475 -0.1924  1.1146 -0.3748
   51MOL0     C 6954   5.153   0.204   2.476 -0.7928  0.5404  0.3873
   51MOL0     C 6955   5.488  -0.093   2.431 -0.0768  0.1068 -0.1332
   51MOL0     C 6956   5.514  -0.177   2.319 -0.4205 -0.2622  0.4374
   51MOL0     C 6957   5.603  -0.289   2.325 -0.0546 -0.2374  0.2604
   51MOL0     C 6958   5.667  -0.323   2.444 -0.1794  0.0323 -0.1197
   51MOL0     O 6959   5.753  -0.444   2.437 -0.6535 -0.0647 -0.2072
   51MOL0     C 6960   5.884  -0.419   2.492  1.1931 -1.1087  0.0207
   51MOL0     C 6961   5.978  -0.356   2.392 -0.4094 -0.0881 -0.1540
   51MOL0     C 6962   6.131  -0.373   2.408  0.4734  0.1928  0.3844
   51MOL0     C 6963   6.169  -0.324   2.544  0.8344 -0.4408  0.0199
   51MOL0     C 6964   6.314  -0.288   2.556  0.6282 -0.1134 -0.2872
   51MOL0     C 6965   6.427  -0.250   2.583 -0.4371 -0.7281 -0.1727
   51MOL0     C 6966   5.634  -0.247   2.565 -0.2786  0.2500 -0.2623
   51MOL0     C 6967   5.545  -0.132   2.553 -0.1308 -0.0758  0.6075
   51MOL0     C 6968   5.507  -0.075   2.691  0.5198 -0.0163  0.0077
   51MOL0     H 6969   5.462   0.338   2.558  0.3318  0.2406 -1.0010
   51MOL0     H 6970   5.342   0.539   2.537  1.2383  1.0969 -0.8480
   51MOL0     H 6971   5.237   0.677   2.440  0.0903  1.4245 -2.0607
   51MOL0     H 6972   5.098   0.766   2.498 -3.0264 -1.4750  2.7449
   51MOL0     H 6973   5.096   0.791   2.268  2.3883 -0.2527 -0.9264
   51MOL0     H 6974   5.098   0.623   2.230 -1.0359  1.0285 -0.8272
   51MOL0     H 6975   4.885   0.637   2.230  0.7846 -1.8660  0.8235
   51MOL0     H 6976   4.880   0.626   2.406 -1.5758 -0.3973 -1.7265
   51MOL0     H 6977   4.745   0.796   2.363  0.8734  0.6773  1.5342
   51MOL0     H 6978   4.893   0.895   2.396 -1.5457  2.1764 -1.3627
   51MOL0     H 6979   4.731   0.880   2.150 -1.1240  1.8110  1.2484
   51MOL0     H 6980   4.894   0.837   2.115  2.5145 -0.4352  1.7928
   51MOL0     H 6981   4.753   1.069   2.239 -0.4558 -2.1816  2.1618
   51MOL0     H 6982   4.931   1.064   2.267  0.8034  0.8899 -2.2340
   51MOL0     H 6983   4.787   1.088   1.989  1.0091 -3.1609 -1.0307
   51MOL0     H 6984   4.960   1.061   2.014 -0.4011 -1.4701  0.8846
   51MOL0     H 6985   4.886   1.307   1.983 -0.5909 -1.8999 -1.2398
   51MOL0     H 6986   4.791   1.286   2.129 -1.3019 -3.4477 -0.1115
   51MOL0     H 6987   5.163   1.167   2.052 -0.8845  1.4581 -2.3176
   51MOL0     H 6988   5.394   1.215   2.209 -0.0117 -0.5521 -0.7796
   51MOL0     H 6989   5.403   1.373   2.297  1.6695 -1.7311  0.5734
   51MOL0     H 6990   5.372   1.326   1.993 -0.8553  5.0278 -3.6969
   51MOL0     H 6991   5.381   1.486   2.055 -0.5687  0.3266 -0.8938
   51MOL0     H 6992   5.601   1.286   2.132 -1.5130 -1.8720 -1.7289
   51MOL0     H 6993   5.609   1.365   1.981 -1.3475 -1.1546 -0.8770
   51MOL0     H 6994   5.616   1.591   2.075  0.3585  2.5076  3.1772
   51MOL0     H 6995   5.565   1.522   2.236  0.0985 -2.5355  0.6360
   51MOL0     H 6996   5.781   1.644   2.369  2.0396  0.3647  2.4004
   51MOL0     H 6997   6.034   1.859   2.436 -0.0361  1.5382  2.8681
   51MOL0     H 6998   5.880   1.804   2.495  0.2538  2.4564  2.5431
   51MOL0     H 6999   5.893   1.957   2.398  0.7470 -0.8192 -0.6643
   51MOL0     H 7000   6.272   2.077   1.905  0.2594  0.0463  0.4389
   51MOL0     H 7001   6.462   2.250   1.912 -1.8086 -0.7756 -0.6506
   51MOL0     H 7002   6.654   2.317   2.329  1.9988 -0.3887  1.6410
   51MOL0     H 7003   6.771   2.215   2.260 -0.3180 -1.2823 -1.0790
   51MOL0     H 7004   6.857   2.408   2.118  1.7031  2.0921  0.3641
   51MOL0     H 7005   6.739   2.511   2.180  1.2186  1.4908 -0.0074
   51MOL0     H 7006   6.877   2.390   2.416 -0.1066  0.1629 -0.2663
   51MOL0     H 7007   6.824   2.556   2.375  1.3792  0.4713  1.2829
   51MOL0     H 7008   7.036   2.561   2.224 -0.7920 -0.0388 -1.1126
   51MOL0     H 7009   7.080   2.395   2.285  0.6488  0.7191 -0.3000
   51MOL0     H 7010   7.118   2.469   2.515 -1.7400  0.1359 -0.4506
   51MOL0     H 7011   7.208   2.563   2.394  0.2831 -0.1791 -0.6964
   51MOL0     H 7012   6.945   2.631   2.532 -1.9100  2.4010 -1.2314
   51MOL0     H 7013   7.010   2.736   2.413 -2.7821 -0.6403  0.4928
   51MOL0     H 7014   7.205   2.670   2.646  0.8127 -0.8492 -0.5797
   51MOL0     H 7015   7.084   2.775   2.669  2.0691  1.4134 -0.3009
   51MOL0     H 7016   7.279   2.788   2.438  2.1617 -0.2284  1.6306
   51MOL0     H 7017   7.300   2.871   2.593 -0.0183 -0.0405 -1.3720
   51MOL0     H 7018   6.572   2.093   2.301  0.2352 -0.6447 -1.7869
   51MOL0     H 7019   6.385   1.941   2.287  0.9803  0.6316 -0.3679
   51MOL0     H 7020   6.044   1.738   1.963 -2.1007 -0.1418 -1.1759
   51MOL0     H 7021   5.889   1.575   1.967  1.0740  2.7749 -1.5165
   51MOL0     H 7022   4.982   0.328   2.450 -0.3060 -0.4058 -0.0750
   51MOL0     H 7023   5.093   0.113   2.472 -1.5601  1.0178  0.7074
   51MOL0     H 7024   5.463  -0.144   2.228  1.6598  1.3705 -0.2230
   51MOL0     H 7025   5.620  -0.361   2.245 -2.5944  0.7677 -1.2874
   51MOL0     H 7026   5.877  -0.344   2.571 -0.4373  0.5226 -1.5962
   51MOL0     H 7027   5.923  -0.512   2.535  2.9124 -0.1734  0.5905
   51MOL0     H 7028   5.956  -0.249   2.387  1.5284  0.4967  2.1167
   51MOL0     H 7029   5.947  -0.394   2.294 -4.1553 -0.1096  0.8659
   51MOL0     H 7030   6.168  -0.476   2.399 -0.4907 -0.0326 -1.5960
   51MOL0     H 7031   6.182  -0.317   2.329  1.1130 -0.7655  0.0942
   51MOL0     H 7032   6.149  -0.396   2.624 -2.2163 -0.0737 -0.3087
   51MOL0     H 7033   6.118  -0.231   2.569  0.0780 -0.8464  0.0304
   51MOL0     H 7034   6.515  -0.191   2.596  1.2139 -2.8085 -1.2066
   51MOL0     H 7035   5.679  -0.269   2.661 -1.4361 -0.2921  0.1697
   51MOL0     H 7036   5.539  -0.142   2.771 -2.0785 -3.8978 -1.8630
   51MOL0     H 7037   5.551   0.024   2.701  0.5442 -0.0341  0.0840
   51MOL0     H 7038   5.398  -0.061   2.690  0.2203 -1.8644 -2.4252
   52MOL0     O 7039   0.666   3.735   4.549  0.3745  0.5283 -0.1319
   52MOL0     C 7040   0.705   3.804   4.641  0.0580 -0.3782 -0.3246
   52MOL0     O 7041   0.838   3.802   4.685 -0.1261  0.1652  0.0486
   52MOL0     C 7042   0.935   3.742   4.607  0.5207  0.3181  0.3071
   52MOL0     C 7043   1.048   3.813   4.564 -0.3676  0.3896  0.3971
   52MOL0     C 7044   1.155   3.765   4.482  0.6290 -0.0734 -0.4036
   52MOL0     C 7045   1.158   3.631   4.453  0.9896 -0.1273  0.6233
   52MOL0     O 7046   1.255   3.585   4.375  0.3379  0.4144 -0.4690
   52MOL0     C 7047   1.220   3.575   4.232  0.4829 -0.2840 -0.4581
   52MOL0     C 7048   1.328   3.507   4.142  0.5616  0.1135  1.0416
   52MOL0     C 7049   1.436   3.613   4.105 -0.5811 -0.3621  0.6115
   52MOL0     C 7050   1.545   3.621   4.220 -0.3924  0.6481  0.6211
   52MOL0     C 7051   1.651   3.727   4.188 -0.6503  0.4615  0.3307
   52MOL0     C 7052   1.762   3.746   4.296  1.1193 -0.6359 -0.4286
   52MOL0     C 7053   1.884   3.830   4.252  0.5854  0.2179  0.5392
   52MOL0     C 7054   1.981   3.820   4.372 -0.3028  0.8509 -0.6504
   52MOL0     N 7055   2.066   3.937   4.366 -0.3789 -0.5969 -0.1324
   52MOL0     C 7056   2.075   4.038   4.458 -0.2927 -0.0397  0.6581
   52MOL0     C 7057   2.160   4.131   4.404 -0.0574  0.4037 -0.1386
   52MOL0     C 7058   2.190   4.265   4.463  0.0249 -0.2765  0.1973
   52MOL0     C 7059   2.339   4.285   4.462 -0.1930  0.5295 -0.2766
   52MOL0     C 7060   2.387   4.425   4.458  0.8784 -0.2237 -0.7923
   52MOL0     C 7061   2.533   4.428   4.477 -0.2224  0.2014  0.3717
   52MOL0     O 7062   2.591   4.376   4.352  0.4483 -0.8488  0.1223
   52MOL0     C 7063   2.731   4.382   4.334 -0.0484 -0.3244 -0.9361
   52MOL0     C 7064   2.803   4.445   4.440 -0.4380  0.2841  0.0665
   52MOL0     C 7065   2.943   4.430   4.438 -0.7588 -0.3622 -0.4752
   52MOL0     C 7066   3.024   4.487   4.560  0.6154  0.1745 -0.1113
   52MOL0     C 7067   3.009   4.365   4.326  0.4583  0.3798 -0.8861
   52MOL0     C 7068   3.153   4.342   4.308 -0.4638  0.2795 -0.1316
   52MOL0     O 7069   3.198   4.323   4.184 -0.5501  0.3268  0.5797
   52MOL0     C 7070   3.333   4.314   4.161 -0.4645 -0.0179 -0.7908
   52MOL0     C 7071   3.419   4.425   4.179 -0.4409 -0.0209  1.5219
   52MOL0     C 7072   3.552   4.409   4.131  0.1262  0.4470 -0.9457
   52MOL0     C 7073   3.596   4.287   4.077 -0.4177  0.6044 -0.4391
   52MOL0     O 7074   3.721   4.269   4.017  0.7939  0.0143 -0.6284
   52MOL0     C 7075   3.814   4.372   4.036 -0.6369 -0.2704  0.0660
   52MOL0     C 7076   3.953   4.329   3.977  0.3911  0.0027 -0.4562
   52MOL0     C 7077   4.062   4.440   4.004  0.4134 -0.0786 -0.3878
   52MOL0     C 7078   4.135   4.429   4.139 -0.2879 -0.3052 -0.7688
   52MOL0     C 7079   4.230   4.545   4.168 -0.1404 -0.0068 -0.2866
   52MOL0     C 7080   4.311   4.506   4.299 -0.6363 -0.0085 -0.7336
   52MOL0     C 7081   4.379   4.630   4.361 -0.0661 -0.8465  0.6114
   52MOL0     C 7082   4.446   4.594   4.492 -0.2153  0.2480  0.0584
   52MOL0    Cl 7083   4.620   4.538   4.483 -0.0779 -0.0564 -0.3605
   52MOL0     C 7084   3.513   4.174   4.071 -0.5999  0.1262  0.1280
   52MOL0     C 7085   3.386   4.190   4.122 -0.2504  0.6320  0.3848
   52MOL0     O 7086   3.224   4.347   4.408 -0.2878 -0.1513  0.0854
   52MOL0     C 7087   2.929   4.332   4.219 -0.0317 -0.0079 -0.5990
   52MOL0     C 7088   2.790   4.335   4.219 -0.1601  0.2041  0.2047
   52MOL0     N 7089   2.192   4.076   4.279  0.4735 -0.4850  0.5388
   52MOL0     N 7090   2.138   3.960   4.257 -0.2483  0.3723  0.4451
   52MOL0     C 7091   1.047   3.550   4.490 -0.0271 -1.0246  0.3429
   52MOL0     C 7092   0.936   3.608   4.561  0.8238  0.2078  0.4777
   52MOL0     C 7093   0.610   3.892   4.721  1.0185  0.8784 -0.0533
   52MOL0     C 7094   0.663   3.995   4.800  0.0143 -0.2721 -0.1444
   52MOL0     C 7095   0.581   4.064   4.888 -0.3118  0.7189 -0.1922
   52MOL0     C 7096   0.443   4.035   4.908 -0.4024  0.0759  0.4259
   52MOL0     O 7097   0.377   4.108   5.014  0.3489  0.1047  0.1063
   52MOL0     C 7098   0.313   4.231   4.985 -0.1475 -0.0420  0.7897
   52MOL0     C 7099   0.161   4.224   5.012  0.1585 -0.6444 -0.1099
   52MOL0     C 7100   0.087   4.103   4.937  0.2945  0.1287 -0.1233
   52MOL0     C 7101  -0.053   4.067   4.962 -0.6366  0.2643  0.0686
   52MOL0     C 7102  -0.085   3.951   4.877 -0.2698 -0.4701  1.2476
   52MOL0     C 7103  -0.096   3.859   4.798  0.3072 -0.2618 -0.8031
   52MOL0     C 7104   0.385   3.939   4.828 -0.2125  0.4333 -0.5120
   52MOL0     C 7105   0.461   3.869   4.727 -0.4894  0.4286  1.1675
   52MOL0     C 7106   0.400   3.760   4.650  0.1333 -0.2000  0.0783
   52MOL0     H 7107   1.048   3.916   4.596  0.9861  0.4539  0.2598
   52MOL0     H 7108   1.230   3.829   4.436  0.2106  0.8088  0.1293
   52MOL0     H 7109   1.194   3.671   4.185 -0.6060  0.3608  1.3802
   52MOL0     H 7110   1.136   3.506   4.226 -1.1444  1.3895  1.3719
   52MOL0     H 7111   1.370   3.424   4.199  0.6037  0.4733  1.5393
   52MOL0     H 7112   1.275   3.465   4.056  1.0132  3.6781 -1.1831
   52MOL0     H 7113   1.479   3.591   4.007 -0.3563 -0.1558  0.6640
   52MOL0     H 7114   1.392   3.712   4.088  0.6221 -0.3110 -3.0912
   52MOL0     H 7115   1.486   3.641   4.310 -0.8763 -2.1243  1.0076
   52MOL0     H 7116   1.590   3.522   4.232  1.5404  1.4866  0.6999
   52MOL0     H 7117   1.598   3.822   4.183 -2.1330 -0.3076  0.8229
   52MOL0     H 7118   1.704   3.699   4.097 -0.0389  3.6790 -0.4375
   52MOL0     H 7119   1.721   3.798   4.384  1.2670  2.0586 -1.8397
   52MOL0     H 7120   1.798   3.644   4.312 -0.3699 -1.1084  0.0775
   52MOL0     H 7121   1.859   3.935   4.231 -0.7218 -0.2832 -0.5729
   52MOL0     H 7122   1.931   3.780   4.167 -2.5825 -1.9852 -0.0978
   52MOL0     H 7123   1.923   3.810   4.464 -0.1530  0.6120 -0.5811
   52MOL0     H 7124   2.049   3.734   4.372 -1.5373 -0.1894  1.1613
   52MOL0     H 7125   2.026   4.051   4.554  0.3587 -2.3896  1.3838
   52MOL0     H 7126   2.132   4.276   4.556 -2.7934 -1.8548 -1.2519
   52MOL0     H 7127   2.139   4.339   4.400 -1.7354 -0.1009  1.7120
   52MOL0     H 7128   2.386   4.233   4.546  1.2414  2.6420  0.2996
   52MOL0     H 7129   2.381   4.228   4.378 -0.2289  0.3350 -0.1639
   52MOL0     H 7130   2.352   4.478   4.369 -3.1706  2.2181  1.9264
   52MOL0     H 7131   2.347   4.483   4.542  1.9316  2.1450 -1.8409
   52MOL0     H 7132   2.563   4.533   4.485  0.4298  0.2527 -2.0284
   52MOL0     H 7133   2.567   4.379   4.568  0.4049  2.3603  1.3758
   52MOL0     H 7134   2.757   4.497   4.524 -1.8226 -0.3638 -0.2598
   52MOL0     H 7135   3.061   4.404   4.621  1.6777  0.9353  0.2943
   52MOL0     H 7136   2.966   4.555   4.622 -0.2199 -1.2894  0.7680
   52MOL0     H 7137   3.114   4.546   4.541 -0.9769  2.2836 -1.4730
   52MOL0     H 7138   3.396   4.526   4.211 -2.7509  0.0849 -0.2544
   52MOL0     H 7139   3.622   4.491   4.136 -0.3319  0.8366 -0.7887
   52MOL0     H 7140   3.796   4.460   3.974  2.4183 -1.2512 -2.4715
   52MOL0     H 7141   3.826   4.395   4.142 -0.3272  0.8824 -0.2086
   52MOL0     H 7142   3.986   4.231   4.014 -1.8626  0.2856  2.7040
   52MOL0     H 7143   3.946   4.321   3.868  1.3599  2.0615 -0.7232
   52MOL0     H 7144   4.013   4.537   4.002 -2.4443 -1.4115 -0.0366
   52MOL0     H 7145   4.144   4.428   3.932 -0.2554  1.4156 -1.4338
   52MOL0     H 7146   4.189   4.336   4.159 -0.5763 -0.0037  1.6679
   52MOL0     H 7147   4.063   4.435   4.221 -0.9045  1.4606 -1.4098
   52MOL0     H 7148   4.306   4.558   4.090  1.8420 -2.7343  1.0219
   52MOL0     H 7149   4.162   4.627   4.192 -1.1895 -1.1916  1.0165
   52MOL0     H 7150   4.387   4.429   4.282  2.0629  2.7133 -1.9865
   52MOL0     H 7151   4.247   4.457   4.373  0.4491 -1.5707 -0.7734
   52MOL0     H 7152   4.306   4.710   4.378 -0.1387 -0.6314 -0.5987
   52MOL0     H 7153   4.442   4.666   4.279 -2.4386  1.1486 -0.4619
   52MOL0     H 7154   4.376   4.527   4.541  3.2812 -3.2481  0.8313
   52MOL0     H 7155   4.451   4.679   4.560 -1.6471  0.7777 -0.4610
   52MOL0     H 7156   3.540   4.082   4.020 -3.2784 -1.5184  1.4736
   52MOL0     H 7157   3.317   4.108   4.106 -0.5262  1.1619 -1.3504
   52MOL0     H 7158   2.973   4.286   4.131 -1.3438 -2.2890 -0.1308
   52MOL0     H 7159   2.738   4.297   4.131 -2.6540 -0.2436  1.7878
   52MOL0     H 7160   1.046   3.450   4.448 -0.1618 -0.1134 -1.9386
   52MOL0     H 7161   0.845   3.549   4.570  0.2004  1.3684  2.4720
   52MOL0     H 7162   0.770   4.010   4.804 -0.2655  3.1420 -1.3469
   52MOL0     H 7163   0.630   4.141   4.946 -1.2032  0.8549  0.4068
   52MOL0     H 7164   0.371   4.306   5.039  1.4903 -0.8683  0.2461
   52MOL0     H 7165   0.326   4.264   4.881 -2.0746  1.9373  1.0958
   52MOL0     H 7166   0.109   4.314   4.978  1.0981  1.1022  2.7633
   52MOL0     H 7167   0.152   4.217   5.120 -0.1302 -0.7189 -0.1384
   52MOL0     H 7168   0.093   4.134   4.832 -2.6617 -1.5582 -0.9277
   52MOL0     H 7169   0.139   4.009   4.957 -0.5954 -0.3297  0.0987
   52MOL0     H 7170  -0.118   4.149   4.927 -4.0347 -2.7286 -1.2629
   52MOL0     H 7171  -0.066   4.034   5.065 -1.6965 -1.2599 -0.5258
   52MOL0     H 7172  -0.120   3.772   4.742  1.6473 -0.3024 -1.3630
   52MOL0     H 7173   0.278   3.920   4.830 -0.6381  2.3201 -1.9219
   52MOL0     H 7174   0.448   3.665   4.673  0.0226 -0.3835 -0.4519
   52MOL0     H 7175   0.292   3.745   4.664  0.0767 -3.3247 -2.5159
   52MOL0     H 7176   0.422   3.775   4.544  1.4199  1.5989  0.5433
   53MOL0     O 7177  11.063   3.670  10.633 -0.4869  0.3237  0.0819
   53MOL0     C 7178  10.972   3.746  10.594 -0.5322  0.8377 -0.7791
   53MOL0     O 7179  10.989   3.846  10.497  0.5736 -0.9240 -0.1229
   53MOL0     C 7180  11.105   3.871  10.438 -0.0210 -0.4139  1.1261
   53MOL0     C 7181  11.205   3.771  10.412 -0.2412 -0.0551 -0.4127
   53MOL0     C 7182  11.307   3.810  10.333 -0.1446 -0.0454 -0.9658
   53MOL0     C 7183  11.345   3.940  10.297  1.1200 -0.4101 -0.0309
   53MOL0     O 7184  11.452   3.971  10.217  0.4956 -0.8651  0.0270
   53MOL0     C 7185  11.487   4.108  10.208 -0.0740  0.2792  0.9200
   53MOL0     C 7186  11.627   4.108  10.151 -0.2486  0.1975  0.4366
   53MOL0     C 7187  11.666   4.257  10.122 -0.3335  0.3246 -0.8418
   53MOL0     C 7188  11.806   4.267  10.044 -0.4952 -0.1479 -0.8749
   53MOL0     C 7189  11.880   4.399  10.054 -0.4289  0.8137 -0.3580
   53MOL0     C 7190  12.007   4.394   9.973 -1.3492 -0.1544  0.8757
   53MOL0     C 7191  12.097   4.525   9.989  0.4623 -0.0442 -1.0406
   53MOL0     C 7192  12.240   4.498   9.948  0.0693  0.3085 -0.1058
   53MOL0     N 7193  12.317   4.618   9.988  0.0345 -0.2349 -0.3505
   53MOL0     C 7194  12.286   4.706  10.099  0.1787 -0.5461  0.7812
   53MOL0     C 7195  12.377   4.815  10.085  0.0699  0.6446 -0.1360
   53MOL0     C 7196  12.375   4.939  10.176 -0.1163  0.1461 -0.6284
   53MOL0     C 7197  12.515   4.971  10.244 -0.0930  0.7691  0.2622
   53MOL0     C 7198  12.632   5.002  10.139  0.9564 -0.0283 -0.8050
   53MOL0     C 7199  12.607   5.129  10.056 -0.4613 -0.3770 -0.1835
   53MOL0     O 7200  12.723   5.149   9.967 -0.5867  0.4391 -0.2620
   53MOL0     C 7201  12.847   5.191  10.013 -0.7619 -0.4956  0.2243
   53MOL0     C 7202  12.969   5.149   9.951  0.5295 -0.6016 -0.6752
   53MOL0     C 7203  13.097   5.193   9.998  2.0577 -0.1273 -0.8074
   53MOL0     C 7204  13.209   5.132   9.925  0.2634 -0.7888  0.0110
   53MOL0     C 7205  13.096   5.282  10.112 -0.1278  0.4655 -0.5662
   53MOL0     C 7206  13.229   5.333  10.171  0.6205  0.1354  0.3831
   53MOL0     O 7207  13.223   5.420  10.278 -0.4946  0.3296  0.6664
   53MOL0     C 7208  13.327   5.478  10.341 -0.8209  0.1914  0.1559
   53MOL0     C 7209  13.365   5.598  10.284 -0.8036 -0.3608 -0.1866
   53MOL0     C 7210  13.466   5.676  10.347  0.5258  0.1178  0.4281
   53MOL0     C 7211  13.524   5.630  10.467  0.3038 -0.3889 -0.3957
   53MOL0     O 7212  13.613   5.701  10.554 -0.1463 -1.1429 -0.1394
   53MOL0     C 7213  13.636   5.843  10.526  0.3841 -0.7683 -0.4031
   53MOL0     C 7214  13.734   5.893  10.622 -0.1745 -0.6233 -0.2314
   53MOL0     C 7215  13.786   6.036  10.616 -0.0580 -0.0988  0.4338
   53MOL0     C 7216  13.894   6.068  10.719 -0.7667 -0.1207  0.4230
   53MOL0     C 7217  13.958   6.203  10.695 -0.2334 -0.4178  0.1557
   53MOL0     C 7218  14.070   6.234  10.799 -0.5629  0.0428 -0.0707
   53MOL0     C 7219  14.091   6.390  10.806 -1.2331 -0.1082  0.7545
   53MOL0     C 7220  14.176   6.448  10.689 -0.0171 -0.3078 -1.4341
   53MOL0    Cl 7221  14.169   6.624  10.700 -0.2548 -0.1000  0.1933
   53MOL0     C 7222  13.487   5.505  10.521 -0.1603 -0.3411  0.2748
   53MOL0     C 7223  13.391   5.432  10.461  0.8059  1.0670 -0.3476
   53MOL0     O 7224  13.336   5.302  10.119 -0.5636  0.8388 -0.2712
   53MOL0     C 7225  12.985   5.330  10.167  0.2805 -0.2429 -0.3126
   53MOL0     C 7226  12.859   5.290  10.117 -0.1093 -1.0493 -0.1501
   53MOL0     N 7227  12.452   4.792   9.969 -0.3516 -0.9897 -0.4206
   53MOL0     N 7228  12.408   4.686   9.910 -0.3604 -0.2899  0.6729
   53MOL0     C 7229  11.243   4.036  10.316 -0.2634 -0.3936  0.6150
   53MOL0     C 7230  11.129   4.001  10.394 -1.0963  0.3355  0.3902
   53MOL0     C 7231  10.831   3.723  10.638  0.2484 -0.7282 -0.0460
   53MOL0     C 7232  10.726   3.810  10.594 -0.0981  0.3993 -0.5377
   53MOL0     C 7233  10.596   3.782  10.622 -0.2534  0.8363 -0.0816
   53MOL0     C 7234  10.557   3.683  10.707 -0.0066  0.3291  0.4657
   53MOL0     O 7235  10.428   3.660  10.749 -0.1949  0.5967 -0.7093
   53MOL0     C 7236  10.314   3.698  10.669 -0.2374  0.6684  0.2335
   53MOL0     C 7237  10.195   3.639  10.730  0.5067 -1.0361 -0.4258
   53MOL0     C 7238  10.182   3.492  10.758 -0.4117  0.2114  0.6808
   53MOL0     C 7239  10.045   3.456  10.813 -1.0992  0.3717 -0.4874
   53MOL0     C 7240  10.052   3.326  10.879 -0.5156 -0.1871  0.2955
   53MOL0     C 7241  10.044   3.222  10.944 -0.4785  0.1435 -0.5131
   53MOL0     C 7242  10.657   3.603  10.758  0.3543 -0.3663  0.1301
   53MOL0     C 7243  10.788   3.611  10.714  0.1668 -0.4115  0.6375
   53MOL0     C 7244  10.882   3.506  10.755 -1.2233 -0.2913 -0.2463
   53MOL0     H 7245  11.195   3.663  10.417  0.0340 -0.1183 -1.0583
   53MOL0     H 7246  11.381   3.741  10.293  0.5162  0.5460 -0.7793
   53MOL0     H 7247  11.497   4.143  10.312  0.8385 -1.4090  1.4421
   53MOL0     H 7248  11.423   4.173  10.148  2.2746  0.8282 -1.1509
   53MOL0     H 7249  11.695   4.058  10.221  1.6725 -0.5185 -1.8122
   53MOL0     H 7250  11.621   4.048  10.060 -5.3321 -0.5818  0.9488
   53MOL0     H 7251  11.582   4.298  10.065 -1.8259 -1.3775  0.0064
   53MOL0     H 7252  11.690   4.312  10.214  2.6497 -1.6142 -0.3326
   53MOL0     H 7253  11.869   4.181  10.072  1.0189  1.1688 -0.0390
   53MOL0     H 7254  11.791   4.236   9.941 -1.1983 -0.4912 -0.6758
   53MOL0     H 7255  11.903   4.419  10.159 -3.0785  0.6842  0.3134
   53MOL0     H 7256  11.812   4.480  10.024 -2.0793 -0.7621 -1.0177
   53MOL0     H 7257  12.065   4.308  10.007 -2.2088  0.3075  3.8105
   53MOL0     H 7258  11.989   4.382   9.866  0.0252  2.0704  0.3365
   53MOL0     H 7259  12.087   4.545  10.096  0.5252 -0.6281 -0.9207
   53MOL0     H 7260  12.065   4.619   9.944  4.0971  2.6561  1.4280
   53MOL0     H 7261  12.290   4.422  10.009  1.1658  1.4903  0.5299
   53MOL0     H 7262  12.249   4.475   9.841 -3.0541  0.2311 -0.4252
   53MOL0     H 7263  12.206   4.688  10.170  0.0470 -3.1184  0.0493
   53MOL0     H 7264  12.291   4.931  10.245 -1.2740 -0.6135 -2.0808
   53MOL0     H 7265  12.355   5.022  10.107  3.4147  0.9741 -0.8763
   53MOL0     H 7266  12.511   5.050  10.319 -1.2390  0.8426  0.1440
   53MOL0     H 7267  12.548   4.875  10.284  1.0765 -0.0804 -2.4882
   53MOL0     H 7268  12.729   5.023  10.186  0.8476  1.6986 -1.2822
   53MOL0     H 7269  12.638   4.915  10.074 -0.2261 -1.6502  1.1539
   53MOL0     H 7270  12.520   5.118   9.991  1.3606 -1.2471 -2.6620
   53MOL0     H 7271  12.592   5.215  10.122  0.5731 -0.9584  0.8277
   53MOL0     H 7272  12.955   5.087   9.863 -0.7122 -0.9581 -0.2423
   53MOL0     H 7273  13.299   5.195   9.920 -1.1905  1.3435 -0.7612
   53MOL0     H 7274  13.182   5.097   9.825 -0.5530  0.4373 -0.2242
   53MOL0     H 7275  13.229   5.041   9.983 -1.8116 -0.6394  1.0443
   53MOL0     H 7276  13.311   5.626  10.194 -1.1854  1.1259  0.4834
   53MOL0     H 7277  13.509   5.751  10.281  2.7038 -2.9999 -2.0627
   53MOL0     H 7278  13.674   5.845  10.424  0.5362 -1.6672 -0.3714
   53MOL0     H 7279  13.547   5.904  10.544  1.8832  1.4407 -0.0703
   53MOL0     H 7280  13.688   5.869  10.719  1.4562  0.6293  0.8940
   53MOL0     H 7281  13.820   5.825  10.618 -1.9568 -3.1410  1.4427
   53MOL0     H 7282  13.707   6.112  10.619 -0.1371 -0.1257 -0.6802
   53MOL0     H 7283  13.819   6.053  10.513 -0.4065  0.2621  0.3808
   53MOL0     H 7284  13.974   5.994  10.707 -0.1033  0.7392 -0.6875
   53MOL0     H 7285  13.850   6.070  10.819 -1.0553  0.0472  0.2953
   53MOL0     H 7286  13.996   6.211  10.593 -1.2149  2.0032 -0.0868
   53MOL0     H 7287  13.877   6.276  10.702  0.4561  0.2078  2.2655
   53MOL0     H 7288  14.158   6.191  10.751 -1.4992 -0.2895 -1.5697
   53MOL0     H 7289  14.057   6.187  10.897  1.7891  0.8240  0.6932
   53MOL0     H 7290  14.148   6.404  10.899 -3.6853  2.6423  2.0193
   53MOL0     H 7291  14.001   6.450  10.822  0.5395  3.4253 -1.3183
   53MOL0     H 7292  14.129   6.413  10.597  0.1811 -3.9142 -0.3260
   53MOL0     H 7293  14.278   6.408  10.701 -0.5306 -1.4117 -0.6189
   53MOL0     H 7294  13.541   5.475  10.610  0.7787  1.3712  0.3302
   53MOL0     H 7295  13.367   5.335  10.502 -1.1417  0.8338 -1.8588
   53MOL0     H 7296  12.980   5.404  10.247 -0.7105 -1.0352  0.3771
   53MOL0     H 7297  12.773   5.337  10.163 -0.5912 -2.6875  0.6998
   53MOL0     H 7298  11.258   4.141  10.291 -1.1630 -0.4847 -0.3685
   53MOL0     H 7299  11.051   4.070  10.426 -0.2304  0.3444  2.6277
   53MOL0     H 7300  10.752   3.897  10.533 -0.8396 -1.8580 -4.3931
   53MOL0     H 7301  10.518   3.834  10.567  0.2109  1.6142 -0.0191
   53MOL0     H 7302  10.309   3.807  10.671  2.0327  0.8977 -1.5743
   53MOL0     H 7303  10.325   3.670  10.563  1.6194  1.7286  0.0982
   53MOL0     H 7304  10.113   3.667  10.663  2.9052  0.7092 -2.8304
   53MOL0     H 7305  10.171   3.698  10.818 -2.5280 -1.1937 -1.0255
   53MOL0     H 7306  10.206   3.443  10.663 -0.6105  0.9768  0.2233
   53MOL0     H 7307  10.253   3.470  10.838  0.0731 -2.0116 -0.2808
   53MOL0     H 7308   9.966   3.442  10.739  0.0546  1.8546 -2.0731
   53MOL0     H 7309  10.018   3.533  10.885  1.6653 -0.3280  1.5000
   53MOL0     H 7310  10.030   3.128  10.994  0.7105  0.1293 -0.1894
   53MOL0     H 7311  10.633   3.530  10.835 -0.4508  0.1536  0.3808
   53MOL0     H 7312  10.968   3.534  10.817  0.4005 -1.2145 -1.9660
   53MOL0     H 7313  10.826   3.433  10.815 -0.7594 -1.4345 -1.1577
   53MOL0     H 7314  10.916   3.455  10.664 -1.1449 -1.0140  0.1800
   54MOL0     O 7315   3.592   3.661   1.844  0.1269 -0.5911 -0.3337
   54MOL0     C 7316   3.569   3.732   1.942 -0.7564  0.3424 -0.1852
   54MOL0     O 7317   3.667   3.797   2.008  0.5053  0.1723 -1.0444
   54MOL0     C 7318   3.795   3.766   1.972  0.4854  0.4548 -0.0539
   54MOL0     C 7319   3.859   3.855   1.890 -0.5745 -0.0534  0.5964
   54MOL0     C 7320   3.989   3.830   1.835 -0.6439  0.3199 -0.0062
   54MOL0     C 7321   4.053   3.712   1.866 -0.2891  0.2930 -0.0236
   54MOL0     O 7322   4.181   3.701   1.817 -0.0402  0.0247 -0.1487
   54MOL0     C 7323   4.248   3.576   1.813  0.3583  0.7563 -0.2972
   54MOL0     C 7324   4.387   3.595   1.744  0.0432 -0.1595 -1.1071
   54MOL0     C 7325   4.376   3.626   1.593  0.3036 -0.0941 -0.1219
   54MOL0     C 7326   4.335   3.508   1.519 -0.5706 -0.5277  0.3197
   54MOL0     C 7327   4.295   3.558   1.379  0.1516 -0.3224  0.0820
   54MOL0     C 7328   4.278   3.441   1.287  0.1863 -0.0179  0.6290
   54MOL0     C 7329   4.255   3.498   1.143  0.3991 -0.3914  0.0343
   54MOL0     C 7330   4.254   3.384   1.034  0.4956  0.4773 -0.6237
   54MOL0     N 7331   4.357   3.274   1.046 -0.1632  0.9663  0.1235
   54MOL0     C 7332   4.470   3.253   0.967 -0.4407 -0.1297 -0.4263
   54MOL0     C 7333   4.535   3.149   1.026 -0.8234 -0.4413  0.0201
   54MOL0     C 7334   4.666   3.090   0.965  0.3258 -0.5084 -0.0719
   54MOL0     C 7335   4.685   2.954   1.031  0.1186 -0.3529  0.0152
   54MOL0     C 7336   4.790   2.873   0.960  0.4157 -0.2956 -0.7873
   54MOL0     C 7337   4.930   2.922   0.947 -0.0727  0.1516  0.1240
   54MOL0     O 7338   4.985   2.938   1.080 -0.5672 -0.1939  0.2449
   54MOL0     C 7339   5.117   2.916   1.099  0.4141 -0.3778  0.0618
   54MOL0     C 7340   5.157   2.917   1.236  0.6084  1.7763 -1.1902
   54MOL0     C 7341   5.298   2.913   1.270  1.1116  0.1031 -0.3830
   54MOL0     C 7342   5.326   2.914   1.416  0.9444  0.0215 -0.2640
   54MOL0     C 7343   5.398   2.916   1.167  0.1970  0.2637 -0.0721
   54MOL0     C 7344   5.548   2.919   1.175  0.5021  0.2096 -0.3736
   54MOL0     O 7345   5.614   2.966   1.067 -0.3723 -0.0138 -0.2094
   54MOL0     C 7346   5.755   2.958   1.075  0.6411  0.2935 -0.6821
   54MOL0     C 7347   5.830   2.994   1.184 -0.6185  0.0703  0.8676
   54MOL0     C 7348   5.968   2.966   1.195 -0.0697  0.2398 -0.0845
   54MOL0     C 7349   6.025   2.897   1.090 -0.4928  0.2806  0.2421
   54MOL0     O 7350   6.160   2.869   1.096 -0.2374  0.2824  0.3164
   54MOL0     C 7351   6.260   2.968   1.138  0.0744 -0.4321  0.2858
   54MOL0     C 7352   6.409   2.909   1.130 -0.0247  0.1655  0.2207
   54MOL0     C 7353   6.447   2.849   0.989  0.3830  0.7411 -0.2881
   54MOL0     C 7354   6.586   2.874   0.954  0.5503 -0.7070  0.5145
   54MOL0     C 7355   6.681   2.827   1.069  0.5242 -0.1344  0.4605
   54MOL0     C 7356   6.792   2.737   1.010 -0.2826 -0.0404 -0.7765
   54MOL0     C 7357   6.896   2.700   1.121  0.5135 -0.7056 -1.0588
   54MOL0     C 7358   7.014   2.632   1.064 -0.2928  0.5600 -0.2736
   54MOL0    Cl 7359   7.134   2.644   1.193 -0.5442 -0.0634 -0.4268
   54MOL0     C 7360   5.949   2.861   0.970 -1.0465  0.1357 -0.4881
   54MOL0     C 7361   5.813   2.890   0.966  0.4021 -0.0287  0.3981
   54MOL0     O 7362   5.599   2.866   1.270 -0.2644  0.0610 -0.0545
   54MOL0     C 7363   5.349   2.918   1.032 -0.8802  0.6030 -0.1155
   54MOL0     C 7364   5.215   2.907   0.995 -0.2495 -0.8391  0.1502
   54MOL0     N 7365   4.456   3.099   1.124 -0.8303 -0.7813  0.1804
   54MOL0     N 7366   4.353   3.178   1.137  0.4777  0.6366  0.1971
   54MOL0     C 7367   3.994   3.630   1.961 -0.9024  0.1710  0.5548
   54MOL0     C 7368   3.861   3.653   2.011 -0.3558 -0.1387 -0.0846
   54MOL0     C 7369   3.432   3.755   1.997 -0.2721  0.5432  0.2550
   54MOL0     C 7370   3.404   3.878   2.053 -0.4847  0.4231  0.6291
   54MOL0     C 7371   3.282   3.906   2.111 -0.9355 -0.0241  0.1705
   54MOL0     C 7372   3.174   3.818   2.100  0.8973 -0.1097  0.1348
   54MOL0     O 7373   3.055   3.861   2.157 -0.4596 -0.5828 -0.0309
   54MOL0     C 7374   2.946   3.769   2.149  0.9571  1.0592  0.4319
   54MOL0     C 7375   2.831   3.834   2.230 -0.0704  0.8706 -0.3337
   54MOL0     C 7376   2.858   3.867   2.377 -0.7464 -0.4290  0.7814
   54MOL0     C 7377   2.832   4.014   2.400  1.1578 -0.7718  0.2514
   54MOL0     C 7378   2.691   4.051   2.378 -0.1850 -0.3780  0.7230
   54MOL0     C 7379   2.577   4.087   2.355 -0.0989  0.3033 -0.8461
   54MOL0     C 7380   3.196   3.698   2.042 -0.5581  0.1968  0.0817
   54MOL0     C 7381   3.320   3.667   1.982  0.3741  0.7192  0.4972
   54MOL0     C 7382   3.319   3.544   1.893 -0.1346  0.0110  0.0087
   54MOL0     H 7383   3.811   3.950   1.869 -2.0299 -0.4345  2.0131
   54MOL0     H 7384   4.041   3.907   1.779  0.1551 -0.4585 -0.3725
   54MOL0     H 7385   4.184   3.502   1.765 -2.2316  2.6563  0.0711
   54MOL0     H 7386   4.274   3.537   1.912  3.2061 -1.0961 -1.6300
   54MOL0     H 7387   4.435   3.678   1.797  1.6807 -1.6570 -0.1055
   54MOL0     H 7388   4.457   3.515   1.772 -1.0901 -0.0949  2.5307
   54MOL0     H 7389   4.296   3.700   1.588  0.3073  0.1167  1.9860
   54MOL0     H 7390   4.471   3.662   1.551  1.8251 -1.5490  1.8678
   54MOL0     H 7391   4.419   3.439   1.508  0.9017  1.5197 -2.9007
   54MOL0     H 7392   4.246   3.462   1.563 -1.9836  1.7157 -0.0138
   54MOL0     H 7393   4.376   3.618   1.337 -1.6307  1.0827 -1.5188
   54MOL0     H 7394   4.205   3.620   1.386  0.8892  0.9117 -0.9347
   54MOL0     H 7395   4.372   3.385   1.289 -0.0504 -0.4301  0.2641
   54MOL0     H 7396   4.198   3.374   1.317  2.0694 -2.0861  1.3305
   54MOL0     H 7397   4.328   3.578   1.125 -1.2196  1.9594  3.0265
   54MOL0     H 7398   4.161   3.553   1.147  1.5897  1.7269  0.1287
   54MOL0     H 7399   4.155   3.338   1.029  0.6501  0.0886 -0.2211
   54MOL0     H 7400   4.255   3.423   0.932 -1.1113  1.5819 -0.2510
   54MOL0     H 7401   4.506   3.309   0.881  1.1381 -1.4779 -0.6940
   54MOL0     H 7402   4.754   3.153   0.980 -0.2981  0.1661  0.8928
   54MOL0     H 7403   4.642   3.076   0.859  0.7438  0.1509 -0.2615
   54MOL0     H 7404   4.711   2.980   1.134 -1.5985 -1.6780  0.8155
   54MOL0     H 7405   4.596   2.891   1.039  0.5470 -1.0740 -0.6517
   54MOL0     H 7406   4.794   2.776   1.010  1.9321  0.9192  1.6438
   54MOL0     H 7407   4.753   2.851   0.859  1.6394  0.9133 -1.5309
   54MOL0     H 7408   4.991   2.850   0.893 -0.7649  0.3031 -0.8861
   54MOL0     H 7409   4.931   3.019   0.895 -1.9271 -0.1186 -0.4864
   54MOL0     H 7410   5.091   2.930   1.321  0.9590  1.7346 -0.9108
   54MOL0     H 7411   5.432   2.931   1.437  0.3909 -0.8251  4.2424
   54MOL0     H 7412   5.303   2.816   1.457  2.8367 -0.2807  0.1703
   54MOL0     H 7413   5.269   2.990   1.471 -0.3641  0.9984 -2.7825
   54MOL0     H 7414   5.782   3.036   1.272 -2.8382 -0.1849 -0.1538
   54MOL0     H 7415   6.027   3.002   1.278  0.6965  0.4794 -0.7271
   54MOL0     H 7416   6.254   3.061   1.080  0.6302 -1.4777 -1.5366
   54MOL0     H 7417   6.226   3.005   1.235 -1.3014  2.5485 -1.1826
   54MOL0     H 7418   6.471   2.984   1.179  0.6360  1.0643 -1.8690
   54MOL0     H 7419   6.421   2.821   1.195  3.7695 -1.0243 -1.7793
   54MOL0     H 7420   6.375   2.883   0.913 -0.9008 -0.0651  0.5210
   54MOL0     H 7421   6.435   2.741   1.004 -0.1636  0.8050 -0.2547
   54MOL0     H 7422   6.601   2.981   0.940  1.7957 -0.8595  0.5589
   54MOL0     H 7423   6.608   2.825   0.859 -2.6368  0.1848 -0.8189
   54MOL0     H 7424   6.735   2.908   1.119  3.2370 -0.7682 -1.2423
   54MOL0     H 7425   6.633   2.763   1.144  2.1319 -1.0736  0.7282
   54MOL0     H 7426   6.835   2.783   0.920  0.0951  1.6406  0.2194
   54MOL0     H 7427   6.739   2.644   0.988 -1.5588  0.0078  1.7455
   54MOL0     H 7428   6.840   2.641   1.193 -3.8362  0.0775 -3.4624
   54MOL0     H 7429   6.931   2.793   1.167  1.3225 -0.7814 -1.4921
   54MOL0     H 7430   7.044   2.692   0.977  0.5570  1.6720  0.7694
   54MOL0     H 7431   6.993   2.527   1.042 -0.7731  0.7463 -0.7537
   54MOL0     H 7432   6.001   2.811   0.890  0.8851 -2.0967  1.9825
   54MOL0     H 7433   5.768   2.878   0.868 -0.7772 -0.8638  1.0124
   54MOL0     H 7434   5.420   2.923   0.950 -0.5160  0.4998  0.1911
   54MOL0     H 7435   5.187   2.924   0.892 -1.3799  0.5891  0.6496
   54MOL0     H 7436   4.051   3.542   1.987  1.8000  1.3802 -0.9295
   54MOL0     H 7437   3.813   3.581   2.076  2.1886 -1.7307  0.1644
   54MOL0     H 7438   3.481   3.955   2.058  1.2782 -1.1705 -0.5344
   54MOL0     H 7439   3.267   3.995   2.170  2.4332 -0.2633  1.6074
   54MOL0     H 7440   2.917   3.758   2.044 -1.8366  0.3506  1.1654
   54MOL0     H 7441   2.989   3.678   2.191  1.6775  0.4527 -1.5263
   54MOL0     H 7442   2.748   3.762   2.226  1.6529 -1.1637 -2.3625
   54MOL0     H 7443   2.795   3.921   2.174  0.7883  1.1209 -0.4995
   54MOL0     H 7444   2.784   3.805   2.428 -2.2909 -1.0959 -2.0380
   54MOL0     H 7445   2.955   3.824   2.404 -0.5881 -2.8935 -2.9365
   54MOL0     H 7446   2.887   4.079   2.331 -1.9340  1.7700 -0.0610
   54MOL0     H 7447   2.865   4.053   2.497  0.4518 -0.5659  0.4116
   54MOL0     H 7448   2.481   4.121   2.322 -1.7497 -2.7450  0.4525
   54MOL0     H 7449   3.122   3.619   2.040  0.4037 -0.7523  0.5517
   54MOL0     H 7450   3.402   3.476   1.910 -2.0484 -2.5297 -0.1859
   54MOL0     H 7451   3.232   3.486   1.925  0.9635 -2.1577 -0.7264
   54MOL0     H 7452   3.316   3.569   1.786  2.8001  0.2021 -0.1153
   55MOL0     O 7453   5.594   2.961   0.671  0.2921  0.0658  0.5009
   55MOL0     C 7454   5.612   2.926   0.559  0.4416  0.2935 -0.0741
   55MOL0     O 7455   5.724   2.952   0.486 -0.0293  0.6517 -0.7568
   55MOL0     C 7456   5.832   3.006   0.552  0.4416 -0.1353 -0.2853
   55MOL0     C 7457   5.949   2.939   0.553 -0.1422  0.4997 -1.2675
   55MOL0     C 7458   6.056   3.000   0.619  0.7750 -0.3434 -0.1500
   55MOL0     C 7459   6.047   3.129   0.681  0.0401  0.2206  0.2405
   55MOL0     O 7460   6.160   3.161   0.763 -0.1269 -0.0561  0.2492
   55MOL0     C 7461   6.167   3.282   0.838  0.5680  0.5138 -0.3334
   55MOL0     C 7462   6.311   3.333   0.867  0.7094  0.4622 -0.1522
   55MOL0     C 7463   6.415   3.253   0.789  0.0511  0.8943  0.2648
   55MOL0     C 7464   6.559   3.311   0.808 -0.5386  0.6020  0.5955
   55MOL0     C 7465   6.579   3.456   0.758 -0.0990  0.9486  0.3204
   55MOL0     C 7466   6.558   3.445   0.611  0.5868 -0.0075 -0.4612
   55MOL0     C 7467   6.588   3.572   0.525 -0.0883  0.9577 -0.3592
   55MOL0     C 7468   6.515   3.694   0.573  0.7050 -0.6577 -0.3338
   55MOL0     N 7469   6.366   3.679   0.592 -0.2099 -0.4913  0.4105
   55MOL0     C 7470   6.270   3.645   0.504 -0.3222 -0.1590 -0.2216
   55MOL0     C 7471   6.155   3.640   0.580  0.5134  0.6545  0.1409
   55MOL0     C 7472   6.025   3.588   0.515 -0.5445  0.2908  0.1688
   55MOL0     C 7473   5.898   3.634   0.586  0.0081 -0.2735  0.7978
   55MOL0     C 7474   5.773   3.572   0.517  0.1029 -0.7444  0.4733
   55MOL0     C 7475   5.643   3.613   0.598 -0.1587  0.2634  0.7160
   55MOL0     O 7476   5.535   3.571   0.513 -0.0423 -0.1761  0.5932
   55MOL0     C 7477   5.411   3.586   0.560  0.2749 -0.2846  0.3393
   55MOL0     C 7478   5.363   3.639   0.683 -0.9013 -0.0429  1.3738
   55MOL0     C 7479   5.229   3.686   0.696  0.4952 -0.5455  0.5569
   55MOL0     C 7480   5.186   3.742   0.831 -0.4455  0.7605 -0.5748
   55MOL0     C 7481   5.134   3.664   0.592  1.1186  0.5361  0.1256
   55MOL0     C 7482   4.991   3.718   0.597  0.4983  0.3545 -0.4591
   55MOL0     O 7483   4.905   3.647   0.519 -0.4166 -0.6795 -0.6058
   55MOL0     C 7484   4.772   3.663   0.531 -0.1986 -0.9421 -0.9183
   55MOL0     C 7485   4.704   3.785   0.513 -0.0369 -0.1121  0.3069
   55MOL0     C 7486   4.568   3.798   0.524  0.6138  0.1270 -0.1419
   55MOL0     C 7487   4.492   3.685   0.577 -0.3371  0.0205 -0.8226
   55MOL0     O 7488   4.352   3.687   0.590 -0.3579  0.1034 -0.6021
   55MOL0     C 7489   4.271   3.797   0.547  0.2516  1.1348 -0.6941
   55MOL0     C 7490   4.136   3.789   0.621 -0.6646 -0.5360 -0.0321
   55MOL0     C 7491   4.043   3.905   0.590 -0.9165  0.2948  0.3812
   55MOL0     C 7492   3.940   3.920   0.699 -0.1851  0.7161  0.0048
   55MOL0     C 7493   3.872   4.058   0.679  0.0790  0.2077  0.5707
   55MOL0     C 7494   3.758   4.077   0.792  0.6833  0.3312  0.1133
   55MOL0     C 7495   3.712   4.223   0.792  0.5488 -0.1537 -0.6800
   55MOL0     C 7496   3.586   4.256   0.873  0.2973 -0.3705  0.3070
   55MOL0    Cl 7497   3.596   4.190   1.032  0.1233 -0.0346 -0.1100
   55MOL0     C 7498   4.568   3.565   0.598 -1.0775  0.9283 -0.2247
   55MOL0     C 7499   4.700   3.549   0.569  0.1368 -1.2924 -0.4029
   55MOL0     O 7500   4.958   3.818   0.665 -0.4382  0.7248 -0.7910
   55MOL0     C 7501   5.178   3.595   0.481 -0.7668 -0.2978 -0.2359
   55MOL0     C 7502   5.311   3.571   0.458 -0.3013  0.7909  0.5578
   55MOL0     N 7503   6.187   3.658   0.714 -0.6942 -0.3371  0.3112
   55MOL0     N 7504   6.308   3.690   0.718  0.1346 -0.8245 -0.5051
   55MOL0     C 7505   5.922   3.204   0.665 -0.4203  0.1236 -0.6288
   55MOL0     C 7506   5.813   3.144   0.596  0.2229  1.2945 -0.4109
   55MOL0     C 7507   5.498   2.855   0.494  0.1502  0.1830 -0.0954
   55MOL0     C 7508   5.367   2.877   0.536  0.1288 -0.0807 -0.2315
   55MOL0     C 7509   5.259   2.823   0.474 -0.2605  0.1689 -0.2471
   55MOL0     C 7510   5.274   2.750   0.360  0.1968 -0.0168  0.4430
   55MOL0     O 7511   5.174   2.686   0.284  0.1141 -1.3008 -0.4900
   55MOL0     C 7512   5.038   2.736   0.306  0.5749  0.1001  0.0253
   55MOL0     C 7513   4.951   2.682   0.196 -1.2319 -0.2740  0.7065
   55MOL0     C 7514   4.798   2.682   0.215  1.0629 -0.9338  0.2289
   55MOL0     C 7515   4.725   2.613   0.099  0.0629  0.0600 -0.1486
   55MOL0     C 7516   4.745   2.664  -0.035  0.2139 -0.0091  0.2977
   55MOL0     C 7517   4.752   2.707  -0.148  0.1063 -0.7106  0.0883
   55MOL0     C 7518   5.406   2.739   0.312 -0.2053 -0.2462 -0.2944
   55MOL0     C 7519   5.515   2.785   0.376 -0.1227  0.5347 -0.1499
   55MOL0     C 7520   5.642   2.755   0.310  0.2219  0.6133  0.4775
   55MOL0     H 7521   5.950   2.840   0.509 -2.7119  0.4100 -1.2846
   55MOL0     H 7522   6.146   2.939   0.615  0.4638 -0.8238  0.0958
   55MOL0     H 7523   6.109   3.267   0.929  0.2659  0.7891 -0.4766
   55MOL0     H 7524   6.113   3.363   0.788 -0.8698  2.0916  3.4408
   55MOL0     H 7525   6.313   3.439   0.838 -0.3837  0.9288  1.2988
   55MOL0     H 7526   6.315   3.335   0.977 -3.3761  0.2633  0.1707
   55MOL0     H 7527   6.414   3.153   0.835 -0.8433  0.3051 -0.9516
   55MOL0     H 7528   6.380   3.242   0.686 -1.2061  3.6119  0.3190
   55MOL0     H 7529   6.582   3.313   0.915 -0.2588 -0.8638  0.5803
   55MOL0     H 7530   6.635   3.249   0.759  0.5624  1.6280  0.9633
   55MOL0     H 7531   6.681   3.489   0.783  0.6760  0.9930 -2.5421
   55MOL0     H 7532   6.510   3.526   0.805 -1.8361 -2.0073  2.5132
   55MOL0     H 7533   6.612   3.359   0.570 -2.6568 -1.8910 -1.1514
   55MOL0     H 7534   6.450   3.433   0.592  0.7366 -1.4265 -0.5168
   55MOL0     H 7535   6.561   3.546   0.422  0.8553 -1.1293 -0.1435
   55MOL0     H 7536   6.697   3.581   0.527  0.2401 -1.7094 -1.8189
   55MOL0     H 7537   6.557   3.723   0.670 -0.6949  0.3431 -0.0005
   55MOL0     H 7538   6.534   3.769   0.496 -3.9063  0.5391 -0.5538
   55MOL0     H 7539   6.284   3.630   0.397  1.1739  1.9063 -0.3813
   55MOL0     H 7540   6.032   3.479   0.524 -4.0671  0.1108  2.7278
   55MOL0     H 7541   6.016   3.613   0.409  0.7749 -0.7814 -0.2349
   55MOL0     H 7542   5.893   3.603   0.691  0.1252 -0.1579  0.8372
   55MOL0     H 7543   5.893   3.742   0.573  2.0923 -0.3386 -1.4352
   55MOL0     H 7544   5.769   3.599   0.411 -1.5035 -2.0239  0.1802
   55MOL0     H 7545   5.791   3.465   0.510  0.8544 -0.5287 -2.5432
   55MOL0     H 7546   5.634   3.563   0.695 -3.0069 -1.5511 -0.3434
   55MOL0     H 7547   5.633   3.718   0.627  0.7326  0.0510  1.9037
   55MOL0     H 7548   5.428   3.642   0.770 -0.2709  3.2158  0.8986
   55MOL0     H 7549   5.086   3.705   0.855  0.0012 -1.1002 -1.3553
   55MOL0     H 7550   5.177   3.851   0.834 -3.5787  0.5708  2.1603
   55MOL0     H 7551   5.254   3.712   0.911 -2.8312  0.1314  1.3597
   55MOL0     H 7552   4.766   3.871   0.489  2.0135 -0.7632  2.7416
   55MOL0     H 7553   4.519   3.891   0.496  1.1348  0.7765  1.0064
   55MOL0     H 7554   4.318   3.893   0.571  1.3554  0.5016 -0.2251
   55MOL0     H 7555   4.253   3.792   0.439  0.4449 -4.3766 -0.7162
   55MOL0     H 7556   4.089   3.692   0.601  2.3352 -2.1350 -0.0080
   55MOL0     H 7557   4.160   3.791   0.728 -2.5649  0.3347  0.4126
   55MOL0     H 7558   3.986   3.891   0.498 -0.4216  4.3180 -0.7517
   55MOL0     H 7559   4.104   3.994   0.574  0.4595 -0.9028 -1.4677
   55MOL0     H 7560   3.979   3.908   0.800  0.6336  0.2144 -0.3611
   55MOL0     H 7561   3.861   3.846   0.688  0.4129 -0.0695  0.8774
   55MOL0     H 7562   3.945   4.140   0.679 -1.5369  1.7987 -2.3390
   55MOL0     H 7563   3.835   4.051   0.576  0.4263  0.3531  0.4369
   55MOL0     H 7564   3.815   4.061   0.884 -0.2966  2.3901  1.1427
   55MOL0     H 7565   3.669   4.018   0.768 -0.3002  1.5422  0.6295
   55MOL0     H 7566   3.701   4.245   0.685  1.4400 -0.4592 -0.8469
   55MOL0     H 7567   3.796   4.286   0.821 -0.7596  1.3154  0.0504
   55MOL0     H 7568   3.501   4.213   0.820  0.8623 -0.2432 -0.7203
   55MOL0     H 7569   3.562   4.363   0.867  0.6399 -0.2114  1.4783
   55MOL0     H 7570   4.512   3.480   0.637  0.5704  0.0388  0.3132
   55MOL0     H 7571   4.749   3.453   0.584 -0.7872 -1.4411  2.0767
   55MOL0     H 7572   5.110   3.546   0.411 -0.4180 -3.5102  1.4405
   55MOL0     H 7573   5.345   3.543   0.358  0.8256 -2.0610  1.6338
   55MOL0     H 7574   5.926   3.304   0.706  1.1907 -0.1191 -0.1007
   55MOL0     H 7575   5.724   3.201   0.572 -1.3464 -1.2326 -1.0400
   55MOL0     H 7576   5.344   2.940   0.622  1.6903  0.7506 -0.3807
   55MOL0     H 7577   5.161   2.832   0.521  0.5011 -0.3918  1.5272
   55MOL0     H 7578   4.989   2.699   0.397  0.7809 -1.8349 -0.6018
   55MOL0     H 7579   5.031   2.845   0.314 -2.8060  0.0824 -1.0844
   55MOL0     H 7580   4.979   2.579   0.175 -1.2319 -0.3095  0.8752
   55MOL0     H 7581   4.974   2.744   0.109  0.0272  0.1904  1.3408
   55MOL0     H 7582   4.779   2.636   0.312 -1.2759 -1.8579 -0.5910
   55MOL0     H 7583   4.757   2.784   0.216 -0.0086 -1.3506  0.2661
   55MOL0     H 7584   4.618   2.608   0.122 -0.6392  1.5270 -2.6179
   55MOL0     H 7585   4.768   2.513   0.090  0.3398  0.1771 -0.1470
   55MOL0     H 7586   4.754   2.740  -0.250  1.0280 -3.1600 -0.7572
   55MOL0     H 7587   5.430   2.669   0.233  0.3100 -2.7698  1.9401
   55MOL0     H 7588   5.720   2.720   0.378  1.8855 -1.3323 -2.1919
   55MOL0     H 7589   5.640   2.668   0.243 -2.1152  0.3054  0.8801
   55MOL0     H 7590   5.686   2.842   0.260  0.3398  1.2524  1.6596
   56MOL0     O 7591   7.681   1.115   0.724 -0.0842  0.4964  0.0227
   56MOL0     C 7592   7.665   1.054   0.829 -0.6295 -0.0757 -0.7302
   56MOL0     O 7593   7.571   0.960   0.847 -0.1826 -0.4590  0.3765
   56MOL0     C 7594   7.478   0.912   0.756 -0.2079 -0.3101  0.0896
   56MOL0     C 7595   7.440   0.775   0.772  0.4390 -0.9269  0.0807
   56MOL0     C 7596   7.332   0.737   0.697  0.3136  0.4468 -0.3566
   56MOL0     C 7597   7.262   0.812   0.604 -0.4102 -0.5099 -0.5739
   56MOL0     O 7598   7.166   0.762   0.515  0.4590 -0.2084 -0.0063
   56MOL0     C 7599   7.038   0.770   0.580  0.2460 -0.2622 -0.3090
   56MOL0     C 7600   6.966   0.639   0.541 -0.2825  0.6240  0.3403
   56MOL0     C 7601   6.810   0.635   0.567 -0.0524 -0.5035  0.5043
   56MOL0     C 7602   6.738   0.748   0.496 -0.0855 -0.4736  0.6292
   56MOL0     C 7603   6.585   0.740   0.512 -0.1309  1.0193  0.4245
   56MOL0     C 7604   6.512   0.869   0.495 -0.0939 -0.0025  0.9420
   56MOL0     C 7605   6.357   0.870   0.522 -0.2470  0.0768 -0.0690
   56MOL0     C 7606   6.286   0.784   0.416 -1.0071 -1.0590 -0.4584
   56MOL0     N 7607   6.145   0.772   0.453 -0.8999 -0.0142  0.1466
   56MOL0     C 7608   6.052   0.880   0.465  0.0956  0.4954 -0.3446
   56MOL0     C 7609   5.930   0.822   0.498 -0.3695 -0.1061  0.3787
   56MOL0     C 7610   5.801   0.897   0.528  0.4263  0.2210  0.2391
   56MOL0     C 7611   5.765   0.908   0.673 -0.1196 -0.8820  0.6049
   56MOL0     C 7612   5.848   1.008   0.747 -1.1494 -0.5144  0.1528
   56MOL0     C 7613   5.967   0.946   0.811 -0.7372  0.3251  0.3630
   56MOL0     O 7614   6.048   1.036   0.891  0.0631 -0.3830 -0.3789
   56MOL0     C 7615   6.164   0.989   0.950  0.2272  0.3485 -0.4369
   56MOL0     C 7616   6.220   0.866   0.910 -0.8137 -0.1016 -0.0127
   56MOL0     C 7617   6.343   0.824   0.966 -0.0995  0.2798  0.3806
   56MOL0     C 7618   6.379   0.678   0.943  0.1336  0.5547  0.2461
   56MOL0     C 7619   6.422   0.905   1.048  0.4165 -0.0107  0.2785
   56MOL0     C 7620   6.556   0.875   1.102 -0.0528  0.2961  0.7640
   56MOL0     O 7621   6.579   0.895   1.233 -0.4390 -0.7219  0.2842
   56MOL0     C 7622   6.705   0.879   1.290  0.1666 -0.0481 -0.2615
   56MOL0     C 7623   6.723   0.970   1.391  0.3770  0.0393 -0.3188
   56MOL0     C 7624   6.842   0.973   1.468  0.0657 -0.1688  0.4751
   56MOL0     C 7625   6.937   0.877   1.441 -0.7148  0.1382  0.0044
   56MOL0     O 7626   7.060   0.861   1.512 -0.3266 -0.3927 -0.2403
   56MOL0     C 7627   7.139   0.980   1.536  0.0216 -0.3919  1.1516
   56MOL0     C 7628   7.277   0.955   1.485 -0.2564 -0.2069  0.0824
   56MOL0     C 7629   7.355   1.090   1.483 -0.1956  0.3061  0.4309
   56MOL0     C 7630   7.322   1.159   1.348  0.3606  0.1683  0.7539
   56MOL0     C 7631   7.438   1.247   1.300  0.3355 -0.0287  1.0374
   56MOL0     C 7632   7.401   1.335   1.184 -0.1870 -0.3418  0.3168
   56MOL0     C 7633   7.525   1.406   1.125 -0.6822  0.0993 -0.0401
   56MOL0     C 7634   7.489   1.508   1.030  0.2930 -0.0241  0.3683
   56MOL0    Cl 7635   7.398   1.448   0.883  0.0174  0.1512  0.2048
   56MOL0     C 7636   6.920   0.790   1.332 -0.6995 -1.1318  0.3935
   56MOL0     C 7637   6.805   0.785   1.261  0.2026  0.1757  0.2926
   56MOL0     O 7638   6.625   0.806   1.028  0.0527  0.3470 -0.1422
   56MOL0     C 7639   6.369   1.029   1.078  0.3977  0.2448 -0.0642
   56MOL0     C 7640   6.242   1.071   1.040  0.5919 -0.6560  0.6463
   56MOL0     N 7641   5.952   0.686   0.497  1.0032 -0.2714  0.1789
   56MOL0     N 7642   6.075   0.661   0.479 -0.1174 -0.3737  0.3229
   56MOL0     C 7643   7.299   0.947   0.592  0.0380  0.1636  0.2620
   56MOL0     C 7644   7.403   0.999   0.670  0.7146  0.6542  0.2091
   56MOL0     C 7645   7.742   1.103   0.951  0.1707  0.1502  0.1644
   56MOL0     C 7646   7.855   1.179   0.922  0.7830  0.4324  0.6944
   56MOL0     C 7647   7.934   1.237   1.025  0.6129 -1.0390 -0.0713
   56MOL0     C 7648   7.909   1.214   1.151 -0.2137  0.2921  0.0038
   56MOL0     O 7649   8.001   1.266   1.239  0.1983 -0.0969  0.4657
   56MOL0     C 7650   8.000   1.229   1.373  0.0347  0.2793  0.8842
   56MOL0     C 7651   7.889   1.296   1.459 -0.2020 -0.4374 -0.0041
   56MOL0     C 7652   7.871   1.222   1.589  1.0216  0.0235  0.4493
   56MOL0     C 7653   7.723   1.189   1.622 -0.8078 -0.9704 -0.0505
   56MOL0     C 7654   7.716   1.056   1.577  0.1929  0.1817 -0.2473
   56MOL0     C 7655   7.726   0.938   1.548 -0.4522 -0.4507 -0.1089
   56MOL0     C 7656   7.806   1.124   1.189  0.2864  0.7388 -0.6886
   56MOL0     C 7657   7.725   1.064   1.082 -0.7568 -0.2510  0.9409
   56MOL0     C 7658   7.639   0.949   1.123 -0.3770  0.4612  0.4699
   56MOL0     H 7659   7.486   0.711   0.846 -1.3846  0.8010  2.8715
   56MOL0     H 7660   7.293   0.635   0.705  1.2570  0.1872  1.2455
   56MOL0     H 7661   6.989   0.856   0.534  1.6638  1.0425  0.5236
   56MOL0     H 7662   7.034   0.767   0.689  0.1718 -3.2694 -0.3139
   56MOL0     H 7663   6.976   0.623   0.434 -1.3146  1.7067  0.0694
   56MOL0     H 7664   7.014   0.558   0.598 -0.2027  0.5916  0.2278
   56MOL0     H 7665   6.770   0.535   0.549 -0.5541  0.2667 -3.8862
   56MOL0     H 7666   6.798   0.650   0.674 -1.2644 -2.2218  0.6436
   56MOL0     H 7667   6.765   0.853   0.511 -1.0807 -0.2824  1.1529
   56MOL0     H 7668   6.756   0.736   0.389  4.5303  1.5902  0.9077
   56MOL0     H 7669   6.563   0.716   0.617  0.3541 -0.3571  0.2229
   56MOL0     H 7670   6.553   0.658   0.447  0.9982  0.4482  0.5708
   56MOL0     H 7671   6.555   0.950   0.555 -0.3854 -0.0877  1.2709
   56MOL0     H 7672   6.527   0.896   0.390 -4.5212 -0.6927 -0.0697
   56MOL0     H 7673   6.325   0.975   0.518  0.4761  0.2822 -0.7299
   56MOL0     H 7674   6.336   0.832   0.622 -1.9259 -2.1873 -1.2106
   56MOL0     H 7675   6.289   0.827   0.315 -1.0934 -0.7512 -0.3312
   56MOL0     H 7676   6.318   0.680   0.424  1.6954 -0.1599  2.3760
   56MOL0     H 7677   6.062   0.988   0.457 -1.9633  0.7198 -0.5227
   56MOL0     H 7678   5.719   0.838   0.486 -1.2499  0.9644  2.2798
   56MOL0     H 7679   5.804   0.989   0.470  0.8805 -2.4470 -4.5538
   56MOL0     H 7680   5.660   0.938   0.672  0.3249  0.8004 -1.3947
   56MOL0     H 7681   5.758   0.810   0.722 -1.0811 -2.1292 -1.8358
   56MOL0     H 7682   5.875   1.093   0.684 -0.4325 -0.7449  0.1432
   56MOL0     H 7683   5.784   1.042   0.829  1.0766  2.0717  0.9290
   56MOL0     H 7684   5.934   0.859   0.869  1.0450 -0.1637  0.6923
   56MOL0     H 7685   6.039   0.915   0.735  1.4100  1.8822  1.6564
   56MOL0     H 7686   6.185   0.801   0.830 -0.0400  2.0607 -2.2235
   56MOL0     H 7687   6.296   0.607   0.933  1.0860 -0.8637  1.8842
   56MOL0     H 7688   6.442   0.627   1.016 -0.3620 -1.4525 -0.6252
   56MOL0     H 7689   6.432   0.671   0.847 -1.2898  1.5399 -0.6589
   56MOL0     H 7690   6.644   1.041   1.416 -1.5108 -1.5410 -1.4809
   56MOL0     H 7691   6.862   1.046   1.546 -1.6840 -0.8187  1.5677
   56MOL0     H 7692   7.102   1.069   1.485  1.1615  0.2358  1.3819
   56MOL0     H 7693   7.137   0.986   1.646  1.0323 -2.1567  1.3225
   56MOL0     H 7694   7.336   0.883   1.542  2.0326  1.4859 -0.0372
   56MOL0     H 7695   7.269   0.910   1.385 -1.4553  0.0378  0.0533
   56MOL0     H 7696   7.461   1.063   1.481  0.2428  1.9509 -0.2117
   56MOL0     H 7697   7.327   1.151   1.570 -3.3474 -2.3442  1.4856
   56MOL0     H 7698   7.235   1.226   1.349 -0.1708 -0.4837  2.8062
   56MOL0     H 7699   7.302   1.079   1.276 -0.8988  0.6039  0.5899
   56MOL0     H 7700   7.468   1.314   1.381 -2.1990 -0.5343  2.4770
   56MOL0     H 7701   7.525   1.188   1.269 -0.1512  0.8276 -2.3852
   56MOL0     H 7702   7.331   1.410   1.222  0.0191  0.7686 -1.3568
   56MOL0     H 7703   7.349   1.265   1.118  0.3514 -2.3861  1.9835
   56MOL0     H 7704   7.608   1.340   1.097  0.2960  1.1339  0.3766
   56MOL0     H 7705   7.561   1.463   1.211  2.1667 -0.2259 -0.9056
   56MOL0     H 7706   7.582   1.551   0.992 -2.1638  1.6774 -4.6318
   56MOL0     H 7707   7.435   1.592   1.076 -0.6474 -1.2018  1.4722
   56MOL0     H 7708   6.994   0.713   1.314  1.5523  1.3560 -1.8279
   56MOL0     H 7709   6.789   0.703   1.191 -3.2204 -0.3087  1.4224
   56MOL0     H 7710   6.411   1.104   1.145  0.4344 -2.1928  2.8514
   56MOL0     H 7711   6.197   1.166   1.068  1.2134  0.0900 -0.7541
   56MOL0     H 7712   7.254   1.012   0.517  0.8338  3.1109  2.1651
   56MOL0     H 7713   7.419   1.106   0.662 -0.3010  0.8407  0.5358
   56MOL0     H 7714   7.868   1.213   0.820  0.5757 -1.5044 -0.0208
   56MOL0     H 7715   8.017   1.303   1.001 -0.1647  0.4961  1.3128
   56MOL0     H 7716   7.996   1.120   1.371 -0.6922  0.2730 -2.2094
   56MOL0     H 7717   8.098   1.253   1.416 -0.1869 -1.8675  2.8135
   56MOL0     H 7718   7.797   1.312   1.402  0.4951  1.6536 -0.6234
   56MOL0     H 7719   7.932   1.395   1.478  3.1655 -2.0341  1.4501
   56MOL0     H 7720   7.933   1.136   1.613  1.0858  0.1385  0.7045
   56MOL0     H 7721   7.902   1.297   1.663  1.4042  1.1802 -0.8512
   56MOL0     H 7722   7.663   1.257   1.561  0.7735 -3.0526 -4.3571
   56MOL0     H 7723   7.712   1.195   1.730  1.0966  0.4114  0.1170
   56MOL0     H 7724   7.734   0.832   1.533 -0.1037 -0.1139 -2.8428
   56MOL0     H 7725   7.781   1.094   1.291 -4.6701 -2.4094 -2.4802
   56MOL0     H 7726   7.536   0.981   1.136 -1.0178 -1.7975  1.4072
   56MOL0     H 7727   7.655   0.860   1.061 -3.3164 -0.5756  1.0742
   56MOL0     H 7728   7.678   0.918   1.220  0.0514  1.0580  0.4934
   57MOL0     O 7729   9.490   7.283   8.640  0.0305  0.6756  0.6135
   57MOL0     C 7730   9.376   7.236   8.624  0.0996 -0.4457  0.1032
   57MOL0     O 7731   9.331   7.112   8.669  0.1391 -0.1172  0.4090
   57MOL0     C 7732   9.422   7.016   8.710  0.5593 -0.2821 -1.1415
   57MOL0     C 7733   9.394   6.943   8.830  0.3678 -0.8187 -0.5530
   57MOL0     C 7734   9.477   6.841   8.867 -0.0469 -0.0566 -1.1778
   57MOL0     C 7735   9.600   6.822   8.794 -0.2249 -0.1023 -0.8863
   57MOL0     O 7736   9.698   6.737   8.842 -0.0877 -0.2009 -0.1859
   57MOL0     C 7737   9.707   6.695   8.981  0.1005 -0.3733  0.5740
   57MOL0     C 7738   9.793   6.576   8.994  0.2610  0.2899  0.1065
   57MOL0     C 7739   9.724   6.441   8.956 -0.0930  0.0592  1.5454
   57MOL0     C 7740   9.836   6.334   8.961 -0.6450 -0.7639  0.5444
   57MOL0     C 7741   9.791   6.194   8.913  0.3299  0.5942 -0.5122
   57MOL0     C 7742   9.892   6.080   8.953  0.4904 -0.3458  0.1007
   57MOL0     C 7743  10.021   6.073   8.873  0.2770 -0.8299  0.3524
   57MOL0     C 7744  10.108   5.971   8.940 -0.2582  1.2641 -0.0534
   57MOL0     N 7745  10.180   6.016   9.062  0.4927  0.3095 -0.3998
   57MOL0     C 7746  10.310   6.063   9.074  0.3586  1.1475 -0.0659
   57MOL0     C 7747  10.322   6.090   9.202  1.0690  0.0520 -0.3112
   57MOL0     C 7748  10.445   6.146   9.273  0.6939 -0.6069 -0.5517
   57MOL0     C 7749  10.571   6.063   9.266  0.9102  0.1478  0.1052
   57MOL0     C 7750  10.578   5.937   9.352  0.0601 -0.3334  0.0455
   57MOL0     C 7751  10.715   5.866   9.352  0.3385  0.9510  0.7249
   57MOL0     O 7752  10.760   5.824   9.220 -0.1824  0.1063 -0.2447
   57MOL0     C 7753  10.889   5.852   9.181  0.1673  1.0026  0.5936
   57MOL0     C 7754  10.938   5.975   9.175 -0.6899  0.1201 -0.3392
   57MOL0     C 7755  11.068   6.004   9.142 -0.1281 -0.5747  0.1740
   57MOL0     C 7756  11.100   6.155   9.118  0.3023 -0.0026 -0.9523
   57MOL0     C 7757  11.157   5.900   9.102 -0.4544  0.2274  0.2206
   57MOL0     C 7758  11.295   5.920   9.049  0.5714 -0.0194  0.3315
   57MOL0     O 7759  11.334   5.837   8.946 -0.3362 -0.1478 -0.2519
   57MOL0     C 7760  11.472   5.832   8.912  0.2299  0.1194  0.0528
   57MOL0     C 7761  11.552   5.722   8.949  0.0825 -0.2489  0.0465
   57MOL0     C 7762  11.682   5.709   8.900 -0.1181  0.3357 -0.4981
   57MOL0     C 7763  11.734   5.802   8.822  1.1438 -0.3673 -0.2077
   57MOL0     O 7764  11.862   5.780   8.782 -0.5315  0.7217  0.4137
   57MOL0     C 7765  11.898   5.805   8.639 -0.0885  0.2423  0.1004
   57MOL0     C 7766  12.034   5.744   8.605 -0.7951  0.4131 -0.7442
   57MOL0     C 7767  12.074   5.768   8.460  0.4894  0.1713  0.0290
   57MOL0     C 7768  12.213   5.714   8.419  0.4691 -0.1547 -0.0560
   57MOL0     C 7769  12.258   5.782   8.288 -0.2212 -0.0301 -0.4027
   57MOL0     C 7770  12.419   5.793   8.284  0.3185  0.1002 -0.0863
   57MOL0     C 7771  12.474   5.849   8.160 -0.5662 -0.4694 -0.9670
   57MOL0     C 7772  12.625   5.836   8.165  0.3486  0.4617 -0.2416
   57MOL0    Cl 7773  12.682   5.685   8.076 -0.0122 -0.0594  0.5245
   57MOL0     C 7774  11.655   5.907   8.784 -0.2185  0.1939 -0.0195
   57MOL0     C 7775  11.527   5.929   8.839 -0.0511 -0.2976  0.3884
   57MOL0     O 7776  11.363   6.006   9.110  0.0096 -0.4199  0.4710
   57MOL0     C 7777  11.109   5.770   9.097  0.8985 -0.2791  0.3320
   57MOL0     C 7778  10.967   5.753   9.131 -0.6665  0.5521  0.0646
   57MOL0     N 7779  10.204   6.051   9.272 -0.2677 -0.1944 -0.2841
   57MOL0     N 7780  10.124   5.998   9.185  0.4745  0.2370 -0.3836
   57MOL0     C 7781   9.623   6.892   8.677 -1.0172 -1.0644 -0.0267
   57MOL0     C 7782   9.541   6.991   8.627 -0.4027  0.5364  0.5721
   57MOL0     C 7783   9.277   7.312   8.538 -0.0439 -0.0146 -0.8709
   57MOL0     C 7784   9.180   7.231   8.472  0.5099 -0.1543 -0.0741
   57MOL0     C 7785   9.084   7.291   8.393 -0.1556  1.2695 -0.1742
   57MOL0     C 7786   9.084   7.429   8.372 -0.4661 -0.9704 -0.1891
   57MOL0     O 7787   8.987   7.502   8.306  0.1126 -1.3462 -0.1701
   57MOL0     C 7788   8.866   7.424   8.268 -0.4458 -0.2290 -0.0756
   57MOL0     C 7789   8.762   7.515   8.198  0.1038 -0.0293 -0.0132
   57MOL0     C 7790   8.631   7.432   8.168  0.5058  0.4169 -0.6598
   57MOL0     C 7791   8.550   7.502   8.056 -0.5806 -1.0694  0.2976
   57MOL0     C 7792   8.434   7.444   7.997  0.0852  0.5057 -0.1340
   57MOL0     C 7793   8.326   7.399   7.955  0.9722 -0.0657 -1.0198
   57MOL0     C 7794   9.184   7.512   8.425 -0.0110  0.2657 -0.5014
   57MOL0     C 7795   9.271   7.454   8.518 -0.6763  0.5389  0.2797
   57MOL0     C 7796   9.364   7.553   8.596 -0.5771  0.7527  0.1388
   57MOL0     H 7797   9.294   6.966   8.867  0.7413 -1.0450  0.6280
   57MOL0     H 7798   9.454   6.779   8.952 -0.3516  1.8960  0.2391
   57MOL0     H 7799   9.603   6.670   9.007 -1.0439  1.8784 -1.4399
   57MOL0     H 7800   9.743   6.776   9.045 -2.1213 -0.0856  1.5628
   57MOL0     H 7801   9.875   6.600   8.925 -1.1815 -2.4471 -2.7903
   57MOL0     H 7802   9.821   6.572   9.100 -0.9013 -1.5717  0.3909
   57MOL0     H 7803   9.654   6.427   9.040 -2.4239  0.7284 -0.1972
   57MOL0     H 7804   9.674   6.441   8.859  1.5386  1.9766  0.6293
   57MOL0     H 7805   9.923   6.368   8.903 -0.8455  0.1462  0.7611
   57MOL0     H 7806   9.882   6.323   9.059  2.5281  0.3258 -0.6653
   57MOL0     H 7807   9.787   6.210   8.805  3.0438 -0.9149 -0.9147
   57MOL0     H 7808   9.697   6.163   8.959  1.8473 -0.2530  2.3002
   57MOL0     H 7809   9.914   6.065   9.060  0.0976 -0.0985  0.2179
   57MOL0     H 7810   9.833   5.993   8.921  0.1374 -0.4756  1.0583
   57MOL0     H 7811  10.059   6.176   8.878 -2.3570  0.1892  0.6697
   57MOL0     H 7812   9.987   6.045   8.773  0.4499  1.5230 -0.4357
   57MOL0     H 7813  10.050   5.880   8.960  2.3278 -0.1968  1.3089
   57MOL0     H 7814  10.183   5.932   8.871  1.0009  0.2071  1.8452
   57MOL0     H 7815  10.381   6.075   8.992 -0.7103  0.4720 -1.1277
   57MOL0     H 7816  10.415   6.162   9.377 -1.7293  0.0629 -1.2785
   57MOL0     H 7817  10.454   6.243   9.223  2.4694 -0.6981 -0.4829
   57MOL0     H 7818  10.584   6.020   9.166 -0.9912 -0.2128 -0.0113
   57MOL0     H 7819  10.644   6.136   9.303 -0.4692  0.4456  2.4394
   57MOL0     H 7820  10.553   5.959   9.457  3.2813 -2.5551  1.4467
   57MOL0     H 7821  10.497   5.872   9.317  0.1323 -0.1063 -0.5640
   57MOL0     H 7822  10.789   5.918   9.413  0.8354 -0.2055  1.1293
   57MOL0     H 7823  10.697   5.778   9.413 -1.4677  0.6311 -0.2010
   57MOL0     H 7824  10.885   6.064   9.210  2.7224  0.9901  3.3935
   57MOL0     H 7825  11.011   6.217   9.137 -0.2099 -1.2074  0.8066
   57MOL0     H 7826  11.144   6.160   9.018  0.4113  0.4604 -0.8843
   57MOL0     H 7827  11.178   6.197   9.182 -1.0384 -1.1834  1.5986
   57MOL0     H 7828  11.499   5.650   9.010 -2.0313  2.0752  1.1184
   57MOL0     H 7829  11.748   5.632   8.937  0.5411  1.6581  1.2257
   57MOL0     H 7830  11.827   5.758   8.571  2.0365 -1.2747 -1.1859
   57MOL0     H 7831  11.900   5.913   8.620  0.0192  0.1764 -0.2556
   57MOL0     H 7832  12.115   5.790   8.661  1.1007 -0.7601 -2.3675
   57MOL0     H 7833  12.032   5.637   8.628  2.7465  0.3213 -0.2979
   57MOL0     H 7834  12.060   5.875   8.443 -3.4956  0.4266  3.1331
   57MOL0     H 7835  12.003   5.730   8.386  2.1063  0.4048 -1.7102
   57MOL0     H 7836  12.200   5.606   8.410  0.8503 -0.3523  1.4670
   57MOL0     H 7837  12.285   5.742   8.497  1.1847 -1.1613 -0.3400
   57MOL0     H 7838  12.219   5.719   8.208 -4.5360  2.9028 -0.9416
   57MOL0     H 7839  12.208   5.879   8.275 -0.5970 -0.1932 -0.1614
   57MOL0     H 7840  12.446   5.688   8.296  0.9115  0.1574 -0.8306
   57MOL0     H 7841  12.450   5.843   8.376  0.0192 -0.4217  0.3022
   57MOL0     H 7842  12.454   5.956   8.172  1.6188 -0.3149  2.8507
   57MOL0     H 7843  12.440   5.803   8.067 -0.0584 -1.7039 -0.5620
   57MOL0     H 7844  12.654   5.829   8.270 -0.2218 -0.0061 -0.1070
   57MOL0     H 7845  12.669   5.919   8.110 -1.3322  0.7273 -1.2848
   57MOL0     H 7846  11.687   5.979   8.710 -1.3052 -0.0146 -0.7123
   57MOL0     H 7847  11.458   6.007   8.810 -1.9759 -2.1785 -0.4016
   57MOL0     H 7848  11.167   5.686   9.060  2.0806  0.8579 -0.4831
   57MOL0     H 7849  10.917   5.657   9.122 -1.4796  1.1195 -1.9261
   57MOL0     H 7850   9.714   6.862   8.626 -0.7656 -0.1300 -0.1502
   57MOL0     H 7851   9.555   7.036   8.529 -0.1062 -1.2103 -0.2178
   57MOL0     H 7852   9.180   7.123   8.480  1.2523 -0.4879 -3.2176
   57MOL0     H 7853   9.011   7.220   8.355  0.7357 -1.5203  2.8310
   57MOL0     H 7854   8.901   7.352   8.193  2.4095  2.0358 -1.0648
   57MOL0     H 7855   8.822   7.370   8.352 -0.3188  0.0195  0.1487
   57MOL0     H 7856   8.801   7.558   8.106 -1.9062  0.3720 -0.7172
   57MOL0     H 7857   8.738   7.603   8.259  1.6767 -0.1714  0.8677
   57MOL0     H 7858   8.649   7.331   8.129 -0.3494 -1.2539  2.8987
   57MOL0     H 7859   8.562   7.417   8.252  0.2513 -2.4529 -1.2728
   57MOL0     H 7860   8.622   7.519   7.975  0.5240 -0.6599  1.3536
   57MOL0     H 7861   8.532   7.604   8.091 -0.1984 -0.7982 -0.2864
   57MOL0     H 7862   8.231   7.365   7.919 -0.6580  1.7556  1.2646
   57MOL0     H 7863   9.201   7.616   8.398 -1.8299  0.6794 -0.1994
   57MOL0     H 7864   9.360   7.656   8.559 -0.9537  0.7760  0.2354
   57MOL0     H 7865   9.328   7.549   8.699 -2.9634  0.7473 -0.6169
   57MOL0     H 7866   9.471   7.531   8.596 -0.4871  1.1019  1.3583
   58MOL0     O 7867   8.411   8.018   0.889 -0.0853 -0.4580 -0.1504
   58MOL0     C 7868   8.386   8.125   0.952  0.8979 -1.0639  0.3097
   58MOL0     O 7869   8.469   8.231   0.967  0.3280 -0.1829 -0.8138
   58MOL0     C 7870   8.605   8.211   0.950  0.6251  0.1233 -1.4343
   58MOL0     C 7871   8.658   8.248   0.824 -0.0874  0.1856  0.1048
   58MOL0     C 7872   8.788   8.244   0.805 -0.3548 -0.5364 -0.6889
   58MOL0     C 7873   8.873   8.203   0.904 -0.1370 -0.1469 -0.9346
   58MOL0     O 7874   9.009   8.196   0.885 -1.1139  0.8370 -0.0477
   58MOL0     C 7875   9.059   8.167   0.750 -0.5828 -0.5560  0.3117
   58MOL0     C 7876   9.208   8.174   0.744  0.3277  0.8373 -0.2826
   58MOL0     C 7877   9.267   8.294   0.823  0.3615 -0.4116 -0.3599
   58MOL0     C 7878   9.417   8.282   0.818  0.2318 -0.1427 -0.3100
   58MOL0     C 7879   9.494   8.401   0.878 -0.0974 -0.5053  0.8959
   58MOL0     C 7880   9.644   8.376   0.891  0.3620  0.2006  0.2445
   58MOL0     C 7881   9.727   8.493   0.943  0.1188  0.1609 -0.4563
   58MOL0     C 7882   9.861   8.444   1.000 -0.2217  0.1071 -0.2359
   58MOL0     N 7883   9.945   8.364   0.907 -1.2102 -0.5594  0.3060
   58MOL0     C 7884   9.998   8.384   0.779 -1.0327  0.3003 -0.1518
   58MOL0     C 7885  10.057   8.266   0.740 -0.0597  0.2765 -0.5837
   58MOL0     C 7886  10.115   8.228   0.614 -1.0343 -0.7454  0.4373
   58MOL0     C 7887  10.262   8.170   0.646 -0.5928 -0.3421  0.4077
   58MOL0     C 7888  10.365   8.269   0.714  0.6416  0.0883 -0.5667
   58MOL0     C 7889  10.431   8.366   0.619  0.0079 -0.8704 -0.1546
   58MOL0     O 7890  10.521   8.290   0.544 -0.3018  0.1727 -0.8014
   58MOL0     C 7891  10.619   8.349   0.479 -1.2854 -0.7521 -0.1863
   58MOL0     C 7892  10.603   8.484   0.422  0.8986  1.2575  1.3194
   58MOL0     C 7893  10.707   8.541   0.351  0.0076  0.5090 -0.5946
   58MOL0     C 7894  10.669   8.656   0.261  0.2962 -0.0651 -0.4396
   58MOL0     C 7895  10.833   8.467   0.332  0.2929  0.5927 -0.7957
   58MOL0     C 7896  10.955   8.521   0.269  0.1984 -0.0944  1.0768
   58MOL0     O 7897  10.943   8.608   0.169  0.3333  0.1875  0.1833
   58MOL0     C 7898  11.063   8.654   0.113  0.5851 -0.1790  0.0968
   58MOL0     C 7899  11.129   8.589   0.007  0.4306 -0.1774 -0.6978
   58MOL0     C 7900  11.253   8.636  -0.045  0.1171  0.1196 -0.0312
   58MOL0     C 7901  11.309   8.757   0.004  0.6116  1.1887 -0.4658
   58MOL0     O 7902  11.429   8.801  -0.052 -0.4977  0.6577 -0.3011
   58MOL0     C 7903  11.513   8.889   0.032  0.5299  0.4710  0.1294
   58MOL0     C 7904  11.654   8.877  -0.026 -1.2908 -0.3715 -0.1660
   58MOL0     C 7905  11.745   8.954   0.075 -0.0595  0.0507  0.5029
   58MOL0     C 7906  11.896   8.926   0.051 -0.0566  0.0702 -0.2141
   58MOL0     C 7907  11.952   8.980  -0.084 -0.6055  0.4326  0.0152
   58MOL0     C 7908  12.004   9.127  -0.086  0.2200  0.6018 -0.8118
   58MOL0     C 7909  12.147   9.127  -0.029  0.3117 -0.5024 -0.2218
   58MOL0     C 7910  12.210   9.261  -0.061  0.5277  0.4209  1.3256
   58MOL0    Cl 7911  12.365   9.272   0.039  0.6117 -0.4837 -0.4089
   58MOL0     C 7912  11.233   8.826   0.108 -0.7226  0.2560 -0.7030
   58MOL0     C 7913  11.118   8.770   0.157 -0.3833 -0.3382  0.2376
   58MOL0     O 7914  11.063   8.485   0.323 -0.6073 -0.8254  0.5635
   58MOL0     C 7915  10.842   8.342   0.400 -0.0371 -0.4692  1.0943
   58MOL0     C 7916  10.737   8.283   0.463  0.6675  0.0461 -0.5989
   58MOL0     N 7917  10.044   8.177   0.849 -0.7264 -0.5427  0.1328
   58MOL0     N 7918   9.983   8.241   0.947 -0.3196  0.0550  0.0040
   58MOL0     C 7919   8.829   8.174   1.029 -0.3660 -0.4566 -0.6673
   58MOL0     C 7920   8.696   8.173   1.057  1.2831  0.3559 -0.1471
   58MOL0     C 7921   8.245   8.139   1.001 -0.7269  0.1848  0.5748
   58MOL0     C 7922   8.139   8.080   0.931 -0.4432  0.2331 -0.3977
   58MOL0     C 7923   8.011   8.072   0.992 -0.0250 -0.1813  1.1311
   58MOL0     C 7924   7.985   8.131   1.117 -0.2704 -0.2322  0.0247
   58MOL0     O 7925   7.876   8.115   1.197 -0.2995  1.1488 -0.4933
   58MOL0     C 7926   7.757   8.080   1.131  0.5237 -0.6019  0.1680
   58MOL0     C 7927   7.647   8.106   1.239  0.0881  1.0228 -0.2231
   58MOL0     C 7928   7.518   8.033   1.209  0.5169  0.1419  0.3753
   58MOL0     C 7929   7.427   8.010   1.331 -0.0537  0.2015 -0.5769
   58MOL0     C 7930   7.323   7.915   1.288 -0.3426 -0.6700 -0.0291
   58MOL0     C 7931   7.247   7.843   1.227  0.0775 -0.5259  0.3420
   58MOL0     C 7932   8.092   8.195   1.178 -0.2313  0.1619 -1.1043
   58MOL0     C 7933   8.222   8.199   1.120  0.3393  0.5511 -0.3199
   58MOL0     C 7934   8.333   8.245   1.219  0.4996 -0.0138  0.2324
   58MOL0     H 7935   8.593   8.293   0.750 -1.0381  1.2264  1.5245
   58MOL0     H 7936   8.838   8.283   0.717  2.6169 -0.8684  0.7416
   58MOL0     H 7937   9.031   8.237   0.671 -1.8541  0.8007  1.9197
   58MOL0     H 7938   9.031   8.063   0.730 -0.5301 -0.4734 -0.2201
   58MOL0     H 7939   9.244   8.077   0.778  2.7778  0.6471 -3.0486
   58MOL0     H 7940   9.236   8.186   0.639 -2.3209 -1.0607 -1.3291
   58MOL0     H 7941   9.246   8.389   0.773  1.2482  0.1463  0.2982
   58MOL0     H 7942   9.238   8.302   0.928  1.0802  2.4732 -0.2907
   58MOL0     H 7943   9.440   8.190   0.872 -2.5054 -0.0958  1.1039
   58MOL0     H 7944   9.448   8.272   0.713  2.8259  2.4295  0.0720
   58MOL0     H 7945   9.454   8.422   0.978  0.6293  0.7145  0.9450
   58MOL0     H 7946   9.469   8.484   0.811  1.1169  0.1885  1.2683
   58MOL0     H 7947   9.651   8.290   0.958  0.0917 -2.0871 -2.4658
   58MOL0     H 7948   9.677   8.344   0.792 -0.5948  0.2410 -0.1000
   58MOL0     H 7949   9.661   8.540   1.016 -0.5622 -0.1622 -0.8539
   58MOL0     H 7950   9.742   8.574   0.872 -0.3729  0.6777  0.0193
   58MOL0     H 7951   9.918   8.524   1.049  0.0087 -0.3083  0.1811
   58MOL0     H 7952   9.832   8.373   1.079 -0.3533 -0.5424 -0.8610
   58MOL0     H 7953   9.980   8.474   0.720  1.6635 -0.2371 -1.9856
   58MOL0     H 7954  10.118   8.308   0.540 -1.9693 -0.0184  1.1573
   58MOL0     H 7955  10.060   8.145   0.568 -1.5512  0.1420 -0.5866
   58MOL0     H 7956  10.261   8.092   0.722  1.6971  2.8475  4.0498
   58MOL0     H 7957  10.309   8.146   0.550 -0.8714 -0.5443  0.3180
   58MOL0     H 7958  10.317   8.331   0.790  0.5540 -0.8770  0.1835
   58MOL0     H 7959  10.448   8.223   0.769 -0.7456 -1.5259  0.2334
   58MOL0     H 7960  10.343   8.408   0.568  0.4952 -0.3759 -0.6061
   58MOL0     H 7961  10.479   8.443   0.680 -3.1278 -0.7402  2.4357
   58MOL0     H 7962  10.503   8.526   0.419 -0.2187 -1.2459 -0.1589
   58MOL0     H 7963  10.573   8.702   0.288  0.2590 -0.5578  0.3216
   58MOL0     H 7964  10.677   8.627   0.156 -0.3679  1.1569 -0.8473
   58MOL0     H 7965  10.741   8.736   0.281  1.9096 -2.1635  3.0246
   58MOL0     H 7966  11.091   8.504  -0.048  0.6380 -0.3460 -0.5793
   58MOL0     H 7967  11.303   8.591  -0.129  1.2692  2.0980 -0.4838
   58MOL0     H 7968  11.481   8.993   0.023  0.1470  0.2521 -1.1552
   58MOL0     H 7969  11.512   8.852   0.135 -2.7322 -0.5096 -0.1486
   58MOL0     H 7970  11.688   8.773  -0.030  0.3431  0.0832  0.8048
   58MOL0     H 7971  11.667   8.930  -0.121 -0.4904 -2.4448 -1.2930
   58MOL0     H 7972  11.712   8.943   0.179 -3.2739  0.5548 -0.3601
   58MOL0     H 7973  11.722   9.056   0.045  1.3369  0.7979  1.8911
   58MOL0     H 7974  11.911   8.818   0.057  0.1755  0.1648  1.2633
   58MOL0     H 7975  11.948   8.970   0.137 -0.5482  1.5737 -0.6540
   58MOL0     H 7976  12.034   8.918  -0.122  0.5850  1.2211  1.2149
   58MOL0     H 7977  11.865   8.982  -0.150 -1.1381  1.8467  0.7258
   58MOL0     H 7978  11.939   9.189  -0.024 -1.5213 -2.2150  0.4223
   58MOL0     H 7979  12.001   9.168  -0.187 -1.5199  2.3307 -0.1300
   58MOL0     H 7980  12.203   9.042  -0.068  0.5646 -0.6163  0.3759
   58MOL0     H 7981  12.144   9.125   0.080  1.7370  1.7148 -0.0751
   58MOL0     H 7982  12.141   9.332  -0.017  2.1990  0.7392  3.6235
   58MOL0     H 7983  12.235   9.272  -0.167  0.7730  0.9751  1.4404
   58MOL0     H 7984  11.262   8.925   0.142 -1.7618 -0.0540  1.1869
   58MOL0     H 7985  11.069   8.821   0.239  0.6315 -1.5198  1.6541
   58MOL0     H 7986  10.940   8.295   0.410  0.2042  0.0641  1.2849
   58MOL0     H 7987  10.750   8.180   0.494 -1.9794 -0.6130 -1.4172
   58MOL0     H 7988   8.904   8.155   1.105 -2.8112  0.2260  2.0700
   58MOL0     H 7989   8.663   8.139   1.154  0.4916  2.2687  0.2941
   58MOL0     H 7990   8.156   8.036   0.834  0.8611 -0.0588 -0.0547
   58MOL0     H 7991   7.928   8.014   0.953 -0.2673  1.0260 -0.2414
   58MOL0     H 7992   7.751   8.147   1.044 -0.1195  0.6299  1.1306
   58MOL0     H 7993   7.748   7.976   1.097 -2.4496 -1.3139  2.6698
   58MOL0     H 7994   7.625   8.213   1.237  2.2191  1.5119  0.0101
   58MOL0     H 7995   7.693   8.078   1.335  0.1559  2.6427  0.2382
   58MOL0     H 7996   7.459   8.090   1.137  1.2634 -1.5533 -1.6710
   58MOL0     H 7997   7.520   7.933   1.164 -2.4645 -1.3648  3.1467
   58MOL0     H 7998   7.382   8.102   1.369 -2.3373 -1.6963  1.7805
   58MOL0     H 7999   7.489   7.966   1.410  0.5194  0.1666 -1.0449
   58MOL0     H 8000   7.179   7.779   1.174 -2.5538  2.1027  0.2468
   58MOL0     H 8001   8.077   8.236   1.278 -0.3414 -2.9354  0.2638
   58MOL0     H 8002   8.392   8.331   1.187 -0.6689  1.4725  1.8679
   58MOL0     H 8003   8.288   8.275   1.314 -0.3972  0.3214 -0.2892
   58MOL0     H 8004   8.403   8.161   1.229  0.3592 -0.2186 -0.4544
   59MOL0     O 8005   7.971   2.474   6.801 -0.3146  0.5374  0.2015
   59MOL0     C 8006   7.886   2.392   6.830 -0.4864 -0.2309 -0.0255
   59MOL0     O 8007   7.914   2.271   6.898  0.3856  0.8855 -0.8573
   59MOL0     C 8008   8.040   2.223   6.884  0.4932  0.5201 -0.2622
   59MOL0     C 8009   8.085   2.138   6.982  0.0700 -1.1416 -0.4438
   59MOL0     C 8010   8.214   2.087   6.983 -0.0963 -0.2815  0.0142
   59MOL0     C 8011   8.298   2.101   6.871 -0.8294  0.2230 -0.6663
   59MOL0     O 8012   8.425   2.053   6.853  0.3767  0.1512 -0.1191
   59MOL0     C 8013   8.458   1.936   6.927  0.6660 -0.3200 -0.5028
   59MOL0     C 8014   8.555   1.960   7.051  0.7389 -1.3173 -0.5798
   59MOL0     C 8015   8.686   2.016   7.002 -0.2981  0.3103  0.9841
   59MOL0     C 8016   8.775   2.036   7.131 -0.3819 -0.9147 -0.7766
   59MOL0     C 8017   8.912   2.100   7.078  0.9335 -0.2682 -0.8913
   59MOL0     C 8018   9.002   1.995   7.006 -0.0570 -0.0824 -0.2334
   59MOL0     C 8019   9.146   2.035   6.995 -0.2255 -0.5847 -0.1234
   59MOL0     C 8020   9.161   2.181   6.939  0.1959 -1.0209 -0.5366
   59MOL0     N 8021   9.300   2.215   6.903  0.8924  0.5054  0.4113
   59MOL0     C 8022   9.386   2.162   6.817 -0.2733 -0.1557 -0.2729
   59MOL0     C 8023   9.505   2.225   6.836 -0.5608  0.0228  0.0895
   59MOL0     C 8024   9.627   2.178   6.777 -0.2658  0.0833 -0.4927
   59MOL0     C 8025   9.708   2.068   6.852  0.7516  0.2859  0.0677
   59MOL0     C 8026   9.648   1.929   6.830  0.5897  0.5199 -0.1773
   59MOL0     C 8027   9.649   1.871   6.686 -1.0005 -0.2301 -0.3316
   59MOL0     O 8028   9.777   1.839   6.642  0.0804 -0.2547  0.3317
   59MOL0     C 8029   9.797   1.849   6.502 -0.7118  0.7686 -0.2794
   59MOL0     C 8030   9.702   1.815   6.406 -0.3326 -0.1784 -1.0866
   59MOL0     C 8031   9.741   1.801   6.272  0.1331 -0.1799  1.0993
   59MOL0     C 8032   9.642   1.753   6.167  0.5980  0.4058  0.3609
   59MOL0     C 8033   9.879   1.835   6.235  0.1597 -0.5022 -0.2444
   59MOL0     C 8034   9.922   1.842   6.095  0.0976  0.7509 -0.2717
   59MOL0     O 8035  10.058   1.833   6.072  0.2221 -0.0984  1.0132
   59MOL0     C 8036  10.099   1.837   5.941  0.3059  0.3197  0.5580
   59MOL0     C 8037  10.078   1.737   5.847  1.1130  0.7538 -0.0689
   59MOL0     C 8038  10.113   1.751   5.718 -0.4601  0.7108  0.6610
   59MOL0     C 8039  10.189   1.861   5.675  0.7952  0.1582  0.4304
   59MOL0     O 8040  10.212   1.876   5.542  0.5217  0.5984 -0.1460
   59MOL0     C 8041  10.223   2.008   5.491 -0.1484  0.4700  0.1020
   59MOL0     C 8042  10.157   2.004   5.353  0.0029 -0.3784 -0.2972
   59MOL0     C 8043  10.178   2.123   5.263 -0.1030  0.0244  0.2950
   59MOL0     C 8044  10.184   2.256   5.337  0.1854  0.1337 -0.6827
   59MOL0     C 8045  10.044   2.299   5.404 -0.3673  0.1067  0.2092
   59MOL0     C 8046  10.041   2.445   5.448 -0.1593  0.7177  0.0014
   59MOL0     C 8047  10.109   2.486   5.576  0.0559 -0.5870 -0.1787
   59MOL0     C 8048  10.036   2.448   5.709 -0.5988  0.1493  0.8668
   59MOL0    Cl 8049  10.058   2.268   5.754 -0.8120 -0.5202 -0.6601
   59MOL0     C 8050  10.202   1.968   5.765  0.2789  0.7379 -0.4004
   59MOL0     C 8051  10.159   1.955   5.896 -0.0056  0.9821  0.1594
   59MOL0     O 8052   9.838   1.878   6.019 -0.1320 -0.4131  0.2642
   59MOL0     C 8053   9.968   1.876   6.335  0.0128 -0.5940  0.2264
   59MOL0     C 8054   9.931   1.876   6.470  0.5862 -0.2744  0.5604
   59MOL0     N 8055   9.483   2.309   6.943 -0.8079 -0.0250 -0.1166
   59MOL0     N 8056   9.360   2.307   6.981  0.2927 -0.3740  0.0697
   59MOL0     C 8057   8.255   2.181   6.775 -0.0405 -0.6901  0.0260
   59MOL0     C 8058   8.123   2.232   6.772 -0.2157 -0.1046  0.7013
   59MOL0     C 8059   7.747   2.430   6.802 -0.0788 -0.3380 -0.0077
   59MOL0     C 8060   7.647   2.396   6.897  0.8642 -0.1265 -0.2492
   59MOL0     C 8061   7.514   2.436   6.879 -1.3354 -1.0738 -0.2290
   59MOL0     C 8062   7.476   2.512   6.774  0.4711 -0.9350 -0.7073
   59MOL0     O 8063   7.353   2.572   6.750  0.1514 -0.5464  0.3060
   59MOL0     C 8064   7.243   2.471   6.757  0.9705 -0.0451  0.4133
   59MOL0     C 8065   7.152   2.514   6.864  0.6324 -0.3957  0.0893
   59MOL0     C 8066   7.072   2.640   6.825 -0.2590 -1.0074  0.8391
   59MOL0     C 8067   6.975   2.697   6.935  0.3485  0.1168  0.1678
   59MOL0     C 8068   7.036   2.740   7.060  1.0992  0.7257  0.6046
   59MOL0     C 8069   7.102   2.754   7.160 -0.5968  0.3679 -0.7656
   59MOL0     C 8070   7.570   2.549   6.687 -0.4215  0.0288  0.9034
   59MOL0     C 8071   7.710   2.513   6.694  0.3337 -0.2512 -0.6355
   59MOL0     C 8072   7.799   2.552   6.579 -0.0169 -0.3013 -0.0808
   59MOL0     H 8073   8.016   2.107   7.059  0.5925 -2.8551 -0.6182
   59MOL0     H 8074   8.239   2.030   7.072 -0.7382  1.7271  1.5850
   59MOL0     H 8075   8.508   1.865   6.861 -3.6879 -3.0824 -1.2217
   59MOL0     H 8076   8.361   1.899   6.962 -0.0824  3.8768  2.8917
   59MOL0     H 8077   8.512   2.035   7.118 -1.6258 -1.3227 -1.9821
   59MOL0     H 8078   8.566   1.865   7.106 -1.8994 -2.2161 -1.4432
   59MOL0     H 8079   8.726   1.957   6.919 -0.1536 -0.1095  1.3471
   59MOL0     H 8080   8.673   2.113   6.955  5.5111  0.6987 -0.6494
   59MOL0     H 8081   8.725   2.105   7.200 -1.2761 -1.4238 -0.8968
   59MOL0     H 8082   8.786   1.939   7.180 -1.9307 -0.0188  1.5463
   59MOL0     H 8083   8.959   2.145   7.166  0.6723 -0.9872 -0.3795
   59MOL0     H 8084   8.885   2.187   7.016 -0.8910 -1.2994 -1.6140
   59MOL0     H 8085   9.016   1.901   7.061 -0.7063 -0.4415 -0.6767
   59MOL0     H 8086   8.957   1.964   6.911  0.1862  0.1926 -0.4393
   59MOL0     H 8087   9.205   1.965   6.935  0.5459  1.3364 -1.7260
   59MOL0     H 8088   9.178   2.045   7.099 -6.8836  1.1847  2.2967
   59MOL0     H 8089   9.093   2.183   6.854 -2.4255  1.4924  1.4090
   59MOL0     H 8090   9.128   2.263   7.004  1.1090  1.1963 -2.7053
   59MOL0     H 8091   9.366   2.080   6.749 -2.0920  0.4271 -0.4930
   59MOL0     H 8092   9.696   2.263   6.771  1.1141 -0.8780  0.8729
   59MOL0     H 8093   9.612   2.137   6.677 -0.3480 -2.2214  0.4157
   59MOL0     H 8094   9.805   2.074   6.803 -0.8926 -2.1347 -4.0074
   59MOL0     H 8095   9.710   2.088   6.960 -1.5150  0.3288  0.1574
   59MOL0     H 8096   9.707   1.857   6.887 -1.3881 -1.2261 -0.2432
   59MOL0     H 8097   9.551   1.909   6.877  1.4609 -1.3002  0.9251
   59MOL0     H 8098   9.594   1.776   6.680 -1.4033  0.0884 -3.9768
   59MOL0     H 8099   9.597   1.932   6.612  0.6157 -0.6022 -1.8306
   59MOL0     H 8100   9.606   1.775   6.436 -2.1553  1.9928 -3.6346
   59MOL0     H 8101   9.685   1.698   6.083  0.8149  1.9679 -0.5909
   59MOL0     H 8102   9.574   1.832   6.132 -3.4013 -2.6276  0.5688
   59MOL0     H 8103   9.579   1.681   6.221  1.4264 -0.7609 -0.1973
   59MOL0     H 8104  10.031   1.650   5.891  0.0721  2.1737  1.7587
   59MOL0     H 8105  10.093   1.676   5.642  2.2878 -0.2651  0.7687
   59MOL0     H 8106  10.161   2.077   5.549 -0.7592  2.6994 -2.9856
   59MOL0     H 8107  10.325   2.047   5.487  0.3070 -0.7812 -2.2670
   59MOL0     H 8108  10.179   1.909   5.305  0.2465 -1.6581  2.1834
   59MOL0     H 8109  10.050   2.019   5.371  0.2979 -0.9308  2.3524
   59MOL0     H 8110  10.094   2.116   5.193  0.1231 -0.0101  0.0272
   59MOL0     H 8111  10.269   2.099   5.208 -2.1151 -1.3279 -2.7231
   59MOL0     H 8112  10.205   2.329   5.258 -2.5997 -0.2306 -1.8558
   59MOL0     H 8113  10.267   2.272   5.407 -0.5924 -0.7176  0.4692
   59MOL0     H 8114   9.965   2.304   5.327  0.0660  1.6347 -0.1598
   59MOL0     H 8115  10.003   2.228   5.476 -4.1478  1.6548 -0.1541
   59MOL0     H 8116   9.933   2.462   5.443 -0.1701  0.2951 -2.5861
   59MOL0     H 8117  10.081   2.501   5.363 -0.9110  1.0555 -0.1385
   59MOL0     H 8118  10.117   2.595   5.577 -1.2153 -0.4670  1.5023
   59MOL0     H 8119  10.210   2.446   5.563 -0.4081 -2.4113  1.2615
   59MOL0     H 8120   9.929   2.465   5.694 -0.0874  1.2344 -2.4770
   59MOL0     H 8121  10.079   2.504   5.792 -3.2096 -1.4216  3.4793
   59MOL0     H 8122  10.242   2.066   5.743 -1.3117  1.5913  0.3981
   59MOL0     H 8123  10.158   2.038   5.966 -4.5830  0.0485  1.4994
   59MOL0     H 8124  10.069   1.911   6.317  0.1419 -0.9609  0.2238
   59MOL0     H 8125  10.001   1.902   6.548 -0.2563  1.1272  0.8861
   59MOL0     H 8126   8.328   2.196   6.696 -1.2855  0.1143 -1.0045
   59MOL0     H 8127   8.092   2.280   6.680  1.2801  0.2559  0.3564
   59MOL0     H 8128   7.677   2.327   6.975 -0.5656 -0.2514  0.2104
   59MOL0     H 8129   7.439   2.402   6.951 -3.6194  1.2084 -1.3759
   59MOL0     H 8130   7.186   2.477   6.663  1.6219  1.7683  0.0916
   59MOL0     H 8131   7.279   2.369   6.774 -0.1129 -0.2957  1.3386
   59MOL0     H 8132   7.206   2.534   6.957 -0.7102 -0.8990  1.0060
   59MOL0     H 8133   7.079   2.433   6.870 -0.1814  0.3307  0.2144
   59MOL0     H 8134   7.141   2.717   6.788 -0.5519 -1.1103  0.0620
   59MOL0     H 8135   7.008   2.622   6.739 -0.1339  3.3558 -0.4051
   59MOL0     H 8136   6.893   2.630   6.960 -3.1365  4.3802  1.5367
   59MOL0     H 8137   6.919   2.784   6.900 -0.0501 -0.3193 -0.2885
   59MOL0     H 8138   7.157   2.776   7.249  0.1837 -0.1222 -1.1167
   59MOL0     H 8139   7.543   2.603   6.596 -0.9742  0.4875  1.3313
   59MOL0     H 8140   7.858   2.464   6.554 -2.7533 -2.7707  1.4365
   59MOL0     H 8141   7.742   2.589   6.494  0.2450  1.1413  0.3398
   59MOL0     H 8142   7.872   2.623   6.619  1.1148 -0.6666 -1.4344
   60MOL0     O 8143   1.344   9.202   4.315  0.4317  0.9193  0.5731
   60MOL0     C 8144   1.273   9.258   4.398  0.0904  0.2842  0.6919
   60MOL0     O 8145   1.305   9.370   4.471 -0.5823  0.3007 -0.2242
   60MOL0     C 8146   1.432   9.418   4.463 -0.5128 -0.2651  0.4741
   60MOL0     C 8147   1.530   9.345   4.514 -0.6741  0.2533 -0.8330
   60MOL0     C 8148   1.662   9.404   4.515  0.7328 -0.0021  0.1062
   60MOL0     C 8149   1.694   9.527   4.446 -0.0679  0.4745 -0.8704
   60MOL0     O 8150   1.812   9.594   4.455  0.4052 -0.5380  0.3435
   60MOL0     C 8151   1.941   9.543   4.498  0.7027 -0.4940 -0.0723
   60MOL0     C 8152   1.988   9.440   4.394 -0.0740 -0.3367 -0.5189
   60MOL0     C 8153   2.113   9.378   4.438 -0.1159  0.4943 -0.4004
   60MOL0     C 8154   2.228   9.473   4.427  0.5836  0.0127  0.1402
   60MOL0     C 8155   2.355   9.398   4.426 -0.3728 -0.0682 -0.1009
   60MOL0     C 8156   2.472   9.491   4.393  0.2935  0.2697  0.4454
   60MOL0     C 8157   2.609   9.423   4.417  0.1746 -0.7899  0.0319
   60MOL0     C 8158   2.650   9.309   4.323  0.5840 -0.4201  0.3382
   60MOL0     N 8159   2.643   9.353   4.183 -0.1491  1.0872 -1.2335
   60MOL0     C 8160   2.712   9.461   4.131  0.5444  0.8867 -0.7562
   60MOL0     C 8161   2.707   9.436   3.999  0.3244 -0.3038  0.1550
   60MOL0     C 8162   2.777   9.527   3.901 -0.0385 -0.5664 -0.7365
   60MOL0     C 8163   2.928   9.510   3.901 -0.3573  0.3781 -0.3947
   60MOL0     C 8164   2.969   9.368   3.891 -0.0876  0.1270  0.0530
   60MOL0     C 8165   3.123   9.359   3.867  0.1746  0.0883 -1.0812
   60MOL0     O 8166   3.204   9.429   3.973 -0.0163  0.0802  0.1149
   60MOL0     C 8167   3.341   9.410   3.974  0.0433 -0.2470 -0.0466
   60MOL0     C 8168   3.418   9.496   4.063 -0.5995  0.0309  0.5769
   60MOL0     C 8169   3.554   9.511   4.046 -0.3626 -0.8229  0.2655
   60MOL0     C 8170   3.632   9.604   4.143  0.5447 -0.2487 -0.5033
   60MOL0     C 8171   3.614   9.440   3.941 -0.8563  0.4577  0.2077
   60MOL0     C 8172   3.761   9.442   3.932 -0.5875  0.5634 -1.3881
   60MOL0     O 8173   3.829   9.323   3.927  0.0012  0.2564  0.1313
   60MOL0     C 8174   3.960   9.317   3.950 -0.3280  0.3529  0.0713
   60MOL0     C 8175   4.030   9.207   3.909 -0.2947  0.2343  0.1586
   60MOL0     C 8176   4.169   9.201   3.919 -0.1284  0.3596  0.2452
   60MOL0     C 8177   4.241   9.299   3.997  1.3859  0.6116  0.8989
   60MOL0     O 8178   4.368   9.268   4.028  0.4642  0.1093 -0.7062
   60MOL0     C 8179   4.460   9.362   4.077  0.1168  0.0441 -0.2525
   60MOL0     C 8180   4.577   9.258   4.095 -0.1480 -0.3915  0.2721
   60MOL0     C 8181   4.722   9.315   4.078 -0.4751 -0.0341 -1.2367
   60MOL0     C 8182   4.824   9.206   4.077 -0.0683  0.2158 -0.3988
   60MOL0     C 8183   4.963   9.255   4.107 -0.4244  0.3617  0.4757
   60MOL0     C 8184   5.002   9.378   4.035  0.0780 -0.3900  0.6629
   60MOL0     C 8185   5.145   9.424   4.076 -0.3708 -0.2651 -0.3499
   60MOL0     C 8186   5.178   9.557   4.022 -0.4166  0.5407 -0.4862
   60MOL0    Cl 8187   5.063   9.674   4.091 -0.1319  0.1453  0.1234
   60MOL0     C 8188   4.172   9.408   4.044  1.2674 -0.6218  0.5848
   60MOL0     C 8189   4.033   9.410   4.027  0.3108  0.3148  0.1634
   60MOL0     O 8190   3.817   9.554   3.933  0.2474  0.1134 -0.3634
   60MOL0     C 8191   3.548   9.356   3.855  0.3496  0.2332  0.0077
   60MOL0     C 8192   3.411   9.344   3.868 -0.6025 -0.1657  0.4642
   60MOL0     N 8193   2.623   9.329   3.975  0.0857  0.4602  0.2422
   60MOL0     N 8194   2.580   9.289   4.081 -0.0653 -0.0008  0.1629
   60MOL0     C 8195   1.586   9.588   4.390  0.0116 -0.1536 -0.5002
   60MOL0     C 8196   1.452   9.543   4.400  0.2462 -0.1383 -0.1635
   60MOL0     C 8197   1.130   9.214   4.415  0.5212  0.8304 -0.5072
   60MOL0     C 8198   1.042   9.291   4.496  0.2939  0.5849 -0.3159
   60MOL0     C 8199   0.906   9.258   4.528 -0.9155 -0.0423  0.3356
   60MOL0     C 8200   0.856   9.137   4.471  0.0619 -0.7807 -0.0414
   60MOL0     O 8201   0.736   9.103   4.518 -0.0126  0.0700 -0.3562
   60MOL0     C 8202   0.662   9.003   4.452 -0.0201  0.4646 -0.2048
   60MOL0     C 8203   0.525   9.051   4.462  0.6234 -0.1677  0.5903
   60MOL0     C 8204   0.420   8.965   4.386  0.4034 -0.1377 -0.1366
   60MOL0     C 8205   0.398   8.997   4.238 -0.2222 -0.1201 -0.9902
   60MOL0     C 8206   0.317   9.119   4.226  0.2230  0.2586 -0.2511
   60MOL0     C 8207   0.258   9.213   4.197  0.9610  0.1226  0.2905
   60MOL0     C 8208   0.943   9.057   4.398  0.2014 -0.2553 -0.6187
   60MOL0     C 8209   1.075   9.091   4.365 -0.2108 -0.1333 -0.5525
   60MOL0     C 8210   1.158   8.990   4.291  0.4483 -0.3640  0.2442
   60MOL0     H 8211   1.522   9.243   4.551 -1.3373  0.8471  0.7222
   60MOL0     H 8212   1.743   9.350   4.563  0.5293 -0.6401 -0.2709
   60MOL0     H 8213   1.930   9.496   4.596 -1.3046 -0.9353 -0.4699
   60MOL0     H 8214   2.011   9.627   4.507 -0.5344  0.5252  0.3654
   60MOL0     H 8215   1.917   9.359   4.375 -2.6349  1.7120 -0.3071
   60MOL0     H 8216   1.986   9.510   4.309 -3.4804  1.7213  1.0309
   60MOL0     H 8217   2.092   9.336   4.537 -4.1790  0.7972 -0.9491
   60MOL0     H 8218   2.130   9.298   4.366  0.8571  0.1358  0.1982
   60MOL0     H 8219   2.219   9.542   4.343  1.2639  0.4341  0.4072
   60MOL0     H 8220   2.240   9.535   4.516  3.6060 -3.1092  2.1567
   60MOL0     H 8221   2.357   9.312   4.358 -0.2155  0.7039 -1.0979
   60MOL0     H 8222   2.371   9.352   4.524  1.4828  0.2677 -0.1989
   60MOL0     H 8223   2.461   9.508   4.285  0.2425  3.5355  0.8808
   60MOL0     H 8224   2.467   9.591   4.436  0.9297  0.4106  0.2111
   60MOL0     H 8225   2.616   9.391   4.521 -4.6250  1.8699  1.4330
   60MOL0     H 8226   2.686   9.501   4.410 -0.1920 -0.5631 -2.3943
   60MOL0     H 8227   2.743   9.267   4.361  0.7200 -0.1483  0.3052
   60MOL0     H 8228   2.583   9.222   4.327 -2.0257  1.3601 -1.1982
   60MOL0     H 8229   2.765   9.539   4.184  0.2278 -0.3418  1.4913
   60MOL0     H 8230   2.759   9.629   3.938  0.8004 -0.4246 -0.7049
   60MOL0     H 8231   2.735   9.529   3.800 -2.3071 -0.7803  0.1543
   60MOL0     H 8232   2.974   9.570   3.822 -0.6972  0.9768 -0.1473
   60MOL0     H 8233   2.965   9.545   3.998  0.3719 -0.0033 -0.5294
   60MOL0     H 8234   2.943   9.320   3.986  1.5314  0.5156  0.7310
   60MOL0     H 8235   2.908   9.316   3.817  1.4126  0.5857 -1.5826
   60MOL0     H 8236   3.159   9.257   3.855  0.5885  0.3835 -2.5404
   60MOL0     H 8237   3.138   9.413   3.773 -0.4190  2.2772  0.0043
   60MOL0     H 8238   3.373   9.559   4.139  0.2674  0.0490  1.0822
   60MOL0     H 8239   3.564   9.638   4.222 -0.0135 -4.0057  0.8872
   60MOL0     H 8240   3.676   9.690   4.092 -0.1678  0.0625 -0.6125
   60MOL0     H 8241   3.709   9.553   4.201  0.0332  1.8378  2.2201
   60MOL0     H 8242   3.975   9.129   3.855 -0.8921  0.3131  0.6393
   60MOL0     H 8243   4.218   9.117   3.870  2.5109  2.7927 -1.5670
   60MOL0     H 8244   4.484   9.436   4.001  0.3991  3.4111  2.8600
   60MOL0     H 8245   4.421   9.396   4.173  1.2767 -2.2415  1.1228
   60MOL0     H 8246   4.554   9.215   4.193  1.2329 -0.9058  0.3995
   60MOL0     H 8247   4.575   9.182   4.016  0.3903  0.7915 -0.9142
   60MOL0     H 8248   4.730   9.376   4.168  1.3775 -2.8769  0.6830
   60MOL0     H 8249   4.738   9.376   3.988  1.8574  1.3716  0.0300
   60MOL0     H 8250   4.818   9.146   3.985 -0.5748 -2.4055  1.2498
   60MOL0     H 8251   4.799   9.144   4.163 -0.5465  0.6764 -0.2008
   60MOL0     H 8252   4.959   9.276   4.214  0.3707  2.7524  0.1101
   60MOL0     H 8253   5.041   9.185   4.075 -0.1953  0.7725  0.1239
   60MOL0     H 8254   4.936   9.464   4.054  2.4216  0.9128  3.7531
   60MOL0     H 8255   4.994   9.356   3.928 -3.2157  1.4818  0.3636
   60MOL0     H 8256   5.226   9.363   4.035 -0.5219 -0.6261 -0.1171
   60MOL0     H 8257   5.148   9.422   4.185  1.6756 -1.2090 -0.3976
   60MOL0     H 8258   5.163   9.566   3.914 -0.1549  2.5344 -0.4037
   60MOL0     H 8259   5.284   9.579   4.039 -0.5197  0.2718  0.5614
   60MOL0     H 8260   4.229   9.478   4.105  0.5797  0.9099 -0.4719
   60MOL0     H 8261   3.973   9.481   4.082 -2.5287 -0.2036 -2.0124
   60MOL0     H 8262   3.598   9.304   3.774 -0.5977 -0.4990 -0.1284
   60MOL0     H 8263   3.357   9.294   3.788 -1.8832 -1.0722  1.8513
   60MOL0     H 8264   1.598   9.691   4.358 -1.5501  0.6846  1.3829
   60MOL0     H 8265   1.367   9.599   4.364  0.3954  0.1756 -0.0223
   60MOL0     H 8266   1.078   9.387   4.531 -1.6795  1.5468 -0.7949
   60MOL0     H 8267   0.852   9.318   4.600 -1.4877 -0.5506  0.3372
   60MOL0     H 8268   0.689   8.997   4.346  0.2264 -0.4563 -0.1054
   60MOL0     H 8269   0.689   8.908   4.499  0.3318 -0.5972 -2.3898
   60MOL0     H 8270   0.517   9.153   4.426  0.3498 -0.1464  0.7089
   60MOL0     H 8271   0.488   9.062   4.564  0.9611  2.4305  0.5049
   60MOL0     H 8272   0.455   8.862   4.396  0.4496  0.0946  3.7358
   60MOL0     H 8273   0.326   8.969   4.440 -0.4321  3.0478 -1.5825
   60MOL0     H 8274   0.342   8.918   4.187 -0.7427  0.4047 -1.2494
   60MOL0     H 8275   0.492   9.006   4.183  0.0858 -0.0312 -0.4481
   60MOL0     H 8276   0.192   9.292   4.166 -2.0206 -3.2159 -2.8286
   60MOL0     H 8277   0.908   8.956   4.384  0.1630 -0.3727  0.2758
   60MOL0     H 8278   1.256   8.969   4.336 -0.1879 -2.7114  0.6599
   60MOL0     H 8279   1.116   8.889   4.294 -1.3273  0.2269 -2.2306
   60MOL0     H 8280   1.165   9.012   4.184  1.6095 -1.0464  0.1567
   61MOL0     O 8281   0.041   0.574   8.708 -0.2721 -0.0795 -0.1507
   61MOL0     C 8282  -0.007   0.481   8.775  0.5344  0.8431  0.3842
   61MOL0     O 8283   0.060   0.416   8.887  0.4983 -0.2819 -0.1649
   61MOL0     C 8284   0.184   0.469   8.926  0.1249 -0.1315 -0.1175
   61MOL0     C 8285   0.291   0.459   8.845 -0.3303  0.8782  0.0411
   61MOL0     C 8286   0.414   0.509   8.874 -1.1963 -0.1854  0.4118
   61MOL0     C 8287   0.437   0.571   8.997 -0.8046 -0.8574  0.6987
   61MOL0     O 8288   0.563   0.601   9.023  0.3468  0.1914 -0.2704
   61MOL0     C 8289   0.590   0.663   9.151 -1.0665  0.8058 -0.2443
   61MOL0     C 8290   0.723   0.735   9.164 -0.6541  0.2833  0.2842
   61MOL0     C 8291   0.840   0.637   9.121  0.4116  0.0698 -0.0919
   61MOL0     C 8292   0.966   0.716   9.143  0.1421  0.1248  0.1906
   61MOL0     C 8293   1.091   0.637   9.108 -0.2743 -0.0250  0.3716
   61MOL0     C 8294   1.116   0.506   9.204  0.6787 -0.1810  0.0284
   61MOL0     C 8295   1.134   0.549   9.351  0.6969  0.6348 -1.1841
   61MOL0     C 8296   1.200   0.441   9.440  0.3539  0.2459  0.0572
   61MOL0     N 8297   1.128   0.316   9.437  1.0664  0.3836  0.5244
   61MOL0     C 8298   1.024   0.269   9.511 -0.1947 -0.2082  0.8209
   61MOL0     C 8299   1.010   0.139   9.474  0.0172 -0.6946  0.1321
   61MOL0     C 8300   0.924   0.041   9.548  0.3719 -0.0227  0.0806
   61MOL0     C 8301   1.005  -0.067   9.611 -0.4382  0.1513 -0.1656
   61MOL0     C 8302   1.066  -0.020   9.749 -0.8388  0.1545 -0.1638
   61MOL0     C 8303   0.969   0.032   9.843  0.5454  0.0122 -0.6772
   61MOL0     O 8304   0.853  -0.046   9.840  0.4821  0.3635  0.1568
   61MOL0     C 8305   0.740  -0.001   9.907  0.1669 -0.1792  0.0456
   61MOL0     C 8306   0.633  -0.096   9.910 -0.2928 -0.2350 -0.1625
   61MOL0     C 8307   0.522  -0.065   9.985  0.3664 -0.1041 -0.1376
   61MOL0     C 8308   0.400  -0.161   9.981  0.1096 -1.0003 -0.7260
   61MOL0     C 8309   0.512   0.054  10.066 -0.0366  0.0250 -0.3778
   61MOL0     C 8310   0.395   0.092  10.151 -0.0679  0.4916  0.2875
   61MOL0     O 8311   0.416   0.163  10.269  0.1621 -1.2614 -0.0521
   61MOL0     C 8312   0.311   0.197  10.342  0.5672 -0.4567  0.5431
   61MOL0     C 8313   0.248   0.111  10.414  1.1675  0.5720 -0.6619
   61MOL0     C 8314   0.133   0.144  10.493  0.0537 -0.2742  0.6967
   61MOL0     C 8315   0.090   0.278  10.492 -0.1672  1.0868 -0.2369
   61MOL0     O 8316  -0.002   0.329  10.577  0.0399  0.5418 -0.0399
   61MOL0     C 8317  -0.088   0.223  10.624 -0.9218  0.0315 -0.4714
   61MOL0     C 8318  -0.229   0.281  10.658 -0.1335  0.9536 -0.7276
   61MOL0     C 8319  -0.318   0.177  10.731 -0.3238 -0.0452  0.0300
   61MOL0     C 8320  -0.444   0.247  10.776 -0.5490 -0.2057  0.9101
   61MOL0     C 8321  -0.529   0.159  10.863 -0.7807 -0.1116  0.2308
   61MOL0     C 8322  -0.615   0.245  10.952  0.6055  0.4208  0.0513
   61MOL0     C 8323  -0.674   0.154  11.066  0.8151 -1.0963  0.3956
   61MOL0     C 8324  -0.723   0.252  11.173  0.0744 -0.1856  0.1071
   61MOL0    Cl 8325  -0.883   0.314  11.120  0.1546  0.3521  0.0747
   61MOL0     C 8326   0.155   0.374  10.414  0.1014 -0.4086  0.2033
   61MOL0     C 8327   0.268   0.329  10.344 -0.3154 -0.0460  0.0660
   61MOL0     O 8328   0.282   0.064  10.114 -0.8470 -0.0652  1.0049
   61MOL0     C 8329   0.617   0.148  10.056 -0.2203 -0.6910 -0.2412
   61MOL0     C 8330   0.723   0.121   9.971 -0.4104  0.1485 -0.3881
   61MOL0     N 8331   1.107   0.112   9.380 -0.9952  0.7519  0.4532
   61MOL0     N 8332   1.178   0.213   9.363  0.1377  0.0848  0.0194
   61MOL0     C 8333   0.324   0.586   9.084 -0.1399  0.2757 -0.1799
   61MOL0     C 8334   0.203   0.541   9.044  1.0200  0.1628 -0.8608
   61MOL0     C 8335  -0.138   0.423   8.732  0.1140  0.9399 -0.0655
   61MOL0     C 8336  -0.188   0.304   8.806  0.8198  0.5343 -0.2993
   61MOL0     C 8337  -0.304   0.245   8.769  0.3747  0.3580  0.2230
   61MOL0     C 8338  -0.384   0.284   8.664  0.8026 -0.2118 -0.4259
   61MOL0     O 8339  -0.505   0.213   8.643 -0.4635 -0.5592 -0.7554
   61MOL0     C 8340  -0.602   0.256   8.548  0.3356 -0.0532  0.4352
   61MOL0     C 8341  -0.717   0.157   8.564  0.8215 -0.3901 -0.2091
   61MOL0     C 8342  -0.833   0.190   8.467 -0.1383  0.6358 -0.0177
   61MOL0     C 8343  -0.944   0.085   8.482 -0.0511  0.2097  0.2318
   61MOL0     C 8344  -1.027   0.057   8.367  0.2003  0.4151 -0.1617
   61MOL0     C 8345  -1.097   0.026   8.269  0.5449 -0.0090  0.3428
   61MOL0     C 8346  -0.340   0.389   8.585 -0.6426 -0.7751 -0.7502
   61MOL0     C 8347  -0.221   0.467   8.619  0.5496  0.7021 -0.8367
   61MOL0     C 8348  -0.177   0.561   8.516 -0.5920 -0.1397  0.3941
   61MOL0     H 8349   0.282   0.407   8.749  1.0221 -0.8104  0.7663
   61MOL0     H 8350   0.504   0.489   8.816 -0.3108  2.9679  0.5424
   61MOL0     H 8351   0.588   0.588   9.230 -0.3001  1.3228  0.2719
   61MOL0     H 8352   0.520   0.744   9.171 -0.1485  1.7549 -0.7992
   61MOL0     H 8353   0.721   0.819   9.093  1.0185 -0.3598 -0.5968
   61MOL0     H 8354   0.735   0.790   9.257  0.7323  0.2205  0.1613
   61MOL0     H 8355   0.827   0.547   9.182 -0.9599  1.7148  2.1907
   61MOL0     H 8356   0.828   0.607   9.016  0.2761 -2.2114  0.5221
   61MOL0     H 8357   0.958   0.803   9.078 -0.5710 -0.5925 -0.6941
   61MOL0     H 8358   0.957   0.758   9.244 -1.8704  0.8322 -0.2475
   61MOL0     H 8359   1.173   0.705   9.132 -2.5029  3.6429 -1.5010
   61MOL0     H 8360   1.098   0.614   9.001  2.3186  2.8862 -0.2434
   61MOL0     H 8361   1.028   0.442   9.197  1.2011 -0.8136 -0.8841
   61MOL0     H 8362   1.193   0.440   9.163  0.0919 -0.2148 -1.0664
   61MOL0     H 8363   1.036   0.571   9.395  0.0584 -4.0915  0.3416
   61MOL0     H 8364   1.199   0.635   9.338  1.5199  0.0041 -1.3522
   61MOL0     H 8365   1.303   0.424   9.408 -0.2587  1.2409 -2.6794
   61MOL0     H 8366   1.212   0.481   9.542 -0.0164 -0.6389  0.4599
   61MOL0     H 8367   0.973   0.331   9.585  1.3182  0.8763  1.0077
   61MOL0     H 8368   0.858   0.007   9.468  0.3134  0.6465 -0.1539
   61MOL0     H 8369   0.858   0.089   9.620  1.0815 -0.0125  0.7340
   61MOL0     H 8370   0.944  -0.158   9.620  1.0683 -0.9558 -0.8003
   61MOL0     H 8371   1.081  -0.095   9.538 -0.9479 -1.9641  0.0414
   61MOL0     H 8372   1.118  -0.099   9.805 -0.6400  0.5579  0.2193
   61MOL0     H 8373   1.136   0.060   9.725 -1.3795  1.7897  3.1330
   61MOL0     H 8374   0.999   0.024   9.948 -0.9478 -0.2477 -0.2520
   61MOL0     H 8375   0.952   0.138   9.822 -0.4893  0.7432  3.1101
   61MOL0     H 8376   0.639  -0.183   9.845  1.3069  0.5084 -1.0551
   61MOL0     H 8377   0.380  -0.206  10.079  0.8858  0.9595  0.3893
   61MOL0     H 8378   0.435  -0.243   9.917 -0.7853 -2.0318  0.0566
   61MOL0     H 8379   0.309  -0.113   9.946  1.4824  1.2086 -1.4486
   61MOL0     H 8380   0.282   0.008  10.409 -0.9579 -0.1754 -0.8916
   61MOL0     H 8381   0.095   0.064  10.555 -1.6120 -1.8179 -2.0906
   61MOL0     H 8382  -0.106   0.137  10.559 -0.0689 -2.8240  2.7596
   61MOL0     H 8383  -0.032   0.191  10.712  1.6037  0.6680 -1.7630
   61MOL0     H 8384  -0.218   0.377  10.710  5.2647  1.7770 -2.7901
   61MOL0     H 8385  -0.275   0.304  10.562 -1.9002  0.0067 -0.1645
   61MOL0     H 8386  -0.259   0.144  10.817 -2.1692 -1.4258  0.8348
   61MOL0     H 8387  -0.335   0.091  10.666  0.4439 -0.5158  0.4417
   61MOL0     H 8388  -0.482   0.288  10.681  3.0803  1.7495  0.0862
   61MOL0     H 8389  -0.418   0.333  10.839 -1.7871 -0.3324  1.6167
   61MOL0     H 8390  -0.596   0.096  10.804  0.0790 -1.6077  0.8036
   61MOL0     H 8391  -0.466   0.093  10.924 -0.2302  0.1213 -0.0779
   61MOL0     H 8392  -0.692   0.295  10.892 -1.0511  0.5971  2.2193
   61MOL0     H 8393  -0.542   0.311  11.000  2.7102 -2.4150  1.0905
   61MOL0     H 8394  -0.595   0.091  11.106  1.8808  0.7173  1.3142
   61MOL0     H 8395  -0.756   0.098  11.020 -2.6447  1.8104  2.4123
   61MOL0     H 8396  -0.653   0.331  11.198  0.6970 -0.3817 -0.9395
   61MOL0     H 8397  -0.740   0.188  11.261  0.3292  0.7366  0.8368
   61MOL0     H 8398   0.126   0.478  10.408  0.6095 -0.2916 -0.4067
   61MOL0     H 8399   0.307   0.405  10.277 -2.8559  1.1323 -0.1952
   61MOL0     H 8400   0.607   0.240  10.113 -0.8104 -0.2883 -0.9838
   61MOL0     H 8401   0.807   0.190   9.974  0.1270 -0.4564  3.3560
   61MOL0     H 8402   0.338   0.635   9.180 -3.0250  0.6550  0.1421
   61MOL0     H 8403   0.113   0.552   9.103  2.4955  0.3061  1.4799
   61MOL0     H 8404  -0.131   0.255   8.884 -0.2778 -0.7939 -0.2802
   61MOL0     H 8405  -0.321   0.148   8.813  0.0642 -1.2487 -3.0967
   61MOL0     H 8406  -0.637   0.357   8.573  0.0655 -0.6749  2.7877
   61MOL0     H 8407  -0.563   0.252   8.446 -0.2037  0.8749  0.1731
   61MOL0     H 8408  -0.762   0.158   8.664 -0.3848 -3.2033 -0.6313
   61MOL0     H 8409  -0.697   0.050   8.555 -0.0039 -0.5415 -0.3608
   61MOL0     H 8410  -0.873   0.288   8.496  0.4859  0.7993  0.3204
   61MOL0     H 8411  -0.798   0.194   8.364  0.1946 -0.0600  0.0673
   61MOL0     H 8412  -1.006   0.105   8.570 -0.0294 -0.6356  0.4475
   61MOL0     H 8413  -0.895  -0.009   8.508  1.0929  0.3268 -1.3627
   61MOL0     H 8414  -1.160   0.008   8.185  0.2961  1.5788  0.1532
   61MOL0     H 8415  -0.387   0.403   8.488 -3.0470 -0.6209  0.3606
   61MOL0     H 8416  -0.080   0.522   8.483 -0.8524 -0.6469  0.2167
   61MOL0     H 8417  -0.235   0.549   8.424  2.1737 -0.6491 -1.3907
   61MOL0     H 8418  -0.150   0.661   8.551 -0.2293  0.2648 -0.9721
   62MOL0     O 8419   5.796   5.756   5.303  0.1300  0.7050 -0.4277
   62MOL0     C 8420   5.806   5.636   5.332  0.3601 -0.1716  0.4667
   62MOL0     O 8421   5.918   5.574   5.353 -0.3189  0.2538  0.0255
   62MOL0     C 8422   6.031   5.629   5.303  0.1593  0.9952  0.6829
   62MOL0     C 8423   6.124   5.674   5.389  0.0535  0.7090  0.0280
   62MOL0     C 8424   6.249   5.715   5.343  0.5407 -0.1186 -0.0176
   62MOL0     C 8425   6.278   5.715   5.208 -0.5583  0.7270  0.0109
   62MOL0     O 8426   6.412   5.724   5.160 -0.0453  0.7854 -0.3003
   62MOL0     C 8427   6.459   5.645   5.048 -0.8069 -0.5626 -0.3958
   62MOL0     C 8428   6.613   5.647   5.029  0.5492 -0.1601  0.9519
   62MOL0     C 8429   6.678   5.581   5.157 -0.0350  0.4443  0.0283
   62MOL0     C 8430   6.830   5.584   5.141  0.3287 -0.0389  0.7832
   62MOL0     C 8431   6.905   5.542   5.275  0.7266  0.2991  0.3862
   62MOL0     C 8432   7.059   5.562   5.285 -0.0266 -0.1996  0.2902
   62MOL0     C 8433   7.097   5.709   5.274  0.0189  0.8442  0.2784
   62MOL0     C 8434   7.236   5.715   5.257 -0.7248 -0.0657 -0.1277
   62MOL0     N 8435   7.282   5.679   5.126 -0.1491 -0.1040 -0.1617
   62MOL0     C 8436   7.246   5.741   5.002 -0.5669 -0.9525 -0.0713
   62MOL0     C 8437   7.302   5.661   4.905 -0.5859  0.8417  0.5530
   62MOL0     C 8438   7.307   5.676   4.759  0.1346 -0.5706 -0.1251
   62MOL0     C 8439   7.437   5.722   4.690 -0.5899 -0.7991 -0.2279
   62MOL0     C 8440   7.467   5.862   4.724 -1.2137 -0.0574  0.2640
   62MOL0     C 8441   7.584   5.912   4.639 -0.5356 -0.4455 -0.4261
   62MOL0     O 8442   7.685   5.812   4.618  0.1033 -0.2825 -0.7983
   62MOL0     C 8443   7.810   5.863   4.633 -0.6743  0.4389  0.1551
   62MOL0     C 8444   7.885   5.824   4.750 -0.1154  0.1643 -0.7091
   62MOL0     C 8445   8.009   5.890   4.778  0.5092 -0.5573  0.7515
   62MOL0     C 8446   8.072   5.841   4.906 -0.3065  0.9206  0.2480
   62MOL0     C 8447   8.064   5.987   4.691 -0.4385  0.2738  0.4286
   62MOL0     C 8448   8.198   6.048   4.713  0.6864 -0.5445  0.0883
   62MOL0     O 8449   8.289   5.964   4.773 -1.3217  0.2345 -0.1185
   62MOL0     C 8450   8.422   6.004   4.803  1.1408  0.7230 -0.2917
   62MOL0     C 8451   8.481   5.904   4.881 -0.3807  1.1440 -0.2597
   62MOL0     C 8452   8.605   5.930   4.940 -0.0841 -0.6633  0.1100
   62MOL0     C 8453   8.668   6.052   4.912  0.4575 -0.8727  0.5128
   62MOL0     O 8454   8.778   6.074   4.985 -0.0876  0.1669  0.0853
   62MOL0     C 8455   8.863   6.176   4.928 -0.6539  0.8180 -0.5901
   62MOL0     C 8456   8.996   6.188   5.005  0.2061  0.4399  0.5251
   62MOL0     C 8457   9.060   6.321   4.956  0.2941 -0.0819  0.3159
   62MOL0     C 8458   9.194   6.334   5.009  0.2137 -0.8777 -0.4016
   62MOL0     C 8459   9.281   6.453   4.976 -0.0117 -0.5545  1.3285
   62MOL0     C 8460   9.437   6.434   4.990 -0.4495  0.6546  0.0928
   62MOL0     C 8461   9.485   6.475   5.123  0.2549  0.5307  0.4466
   62MOL0     C 8462   9.521   6.344   5.208  0.0785  0.6780  0.4403
   62MOL0    Cl 8463   9.695   6.297   5.166 -0.1626  0.2758 -0.0387
   62MOL0     C 8464   8.608   6.142   4.822 -0.2435  0.7112 -0.4342
   62MOL0     C 8465   8.491   6.118   4.761 -0.7686 -0.4371 -0.2946
   62MOL0     O 8466   8.221   6.164   4.669  0.0672  0.3192  0.0685
   62MOL0     C 8467   7.987   6.023   4.576 -0.4995  0.9470 -0.6547
   62MOL0     C 8468   7.865   5.969   4.546  0.4981 -0.0985  0.5916
   62MOL0     N 8469   7.379   5.559   4.975 -0.7312 -0.4377  0.2339
   62MOL0     N 8470   7.365   5.572   5.096  0.3291 -0.8023 -0.3830
   62MOL0     C 8471   6.177   5.675   5.120  0.4385 -0.7827  0.4762
   62MOL0     C 8472   6.052   5.630   5.167 -0.6212  0.8498  0.5874
   62MOL0     C 8473   5.684   5.555   5.332 -0.2054 -0.0940 -0.0523
   62MOL0     C 8474   5.675   5.441   5.418  0.4656  0.2895 -0.0646
   62MOL0     C 8475   5.559   5.358   5.405 -0.5386  0.1101 -0.4945
   62MOL0     C 8476   5.456   5.384   5.318 -0.3725  0.5238  0.2966
   62MOL0     O 8477   5.356   5.292   5.328 -0.0854 -0.0529 -0.1284
   62MOL0     C 8478   5.278   5.267   5.211  0.7617 -0.2011  0.4978
   62MOL0     C 8479   5.150   5.194   5.255  0.1600  0.8881  0.0026
   62MOL0     C 8480   5.165   5.055   5.308  0.3382  0.8468  0.6620
   62MOL0     C 8481   5.035   5.005   5.387  0.1845  0.0107 -0.8367
   62MOL0     C 8482   5.020   5.074   5.515 -0.8458 -0.2678 -0.7757
   62MOL0     C 8483   5.005   5.132   5.622 -0.4055 -0.9537  0.3326
   62MOL0     C 8484   5.462   5.492   5.237 -1.4031 -0.6178  0.0223
   62MOL0     C 8485   5.570   5.587   5.252  0.6280 -0.2184  0.7154
   62MOL0     C 8486   5.570   5.697   5.154 -0.2722 -0.8947  0.9473
   62MOL0     H 8487   6.096   5.675   5.494 -0.7690 -3.6049  0.0405
   62MOL0     H 8488   6.329   5.747   5.408 -1.3571  2.1352  1.3936
   62MOL0     H 8489   6.413   5.694   4.961  0.5001  1.5597  0.0253
   62MOL0     H 8490   6.409   5.548   5.048 -2.4772  0.0770 -4.3528
   62MOL0     H 8491   6.648   5.598   4.937 -0.9318  1.3838 -0.5192
   62MOL0     H 8492   6.638   5.753   5.018  0.8400 -0.2856  0.3651
   62MOL0     H 8493   6.648   5.639   5.244  0.4526  1.6603 -0.5881
   62MOL0     H 8494   6.653   5.474   5.157 -1.1234  0.6839  0.5952
   62MOL0     H 8495   6.858   5.515   5.061  0.6724  0.5885  0.3551
   62MOL0     H 8496   6.857   5.685   5.110 -0.4314 -0.2684 -0.7561
   62MOL0     H 8497   6.874   5.438   5.288 -0.1001  0.3253 -1.1527
   62MOL0     H 8498   6.871   5.596   5.364  0.3222  0.9177 -0.1308
   62MOL0     H 8499   7.096   5.538   5.385  4.2543  1.1663 -0.7618
   62MOL0     H 8500   7.114   5.506   5.209 -0.6848  1.0473 -1.1492
   62MOL0     H 8501   7.080   5.756   5.372  1.4555  2.6008 -0.2628
   62MOL0     H 8502   7.049   5.764   5.192  1.2671  0.2729 -0.8556
   62MOL0     H 8503   7.275   5.817   5.267  0.9771 -0.7710  0.9154
   62MOL0     H 8504   7.284   5.650   5.331  2.6938 -0.0254 -2.0548
   62MOL0     H 8505   7.202   5.833   4.965  1.3891 -0.6854 -1.9347
   62MOL0     H 8506   7.238   5.758   4.737  3.1180  2.1296 -0.1582
   62MOL0     H 8507   7.268   5.581   4.720 -2.5273  0.7172 -0.8754
   62MOL0     H 8508   7.519   5.655   4.717 -1.9914 -2.5354 -0.0487
   62MOL0     H 8509   7.414   5.703   4.585 -0.3876  0.0898 -0.4414
   62MOL0     H 8510   7.375   5.912   4.689 -1.0767 -2.1931 -3.7872
   62MOL0     H 8511   7.492   5.868   4.830  0.8118 -1.2386 -0.1114
   62MOL0     H 8512   7.542   5.946   4.544  0.0626  0.2671 -0.4447
   62MOL0     H 8513   7.628   6.000   4.687 -0.8964 -0.2913 -0.3753
   62MOL0     H 8514   7.845   5.752   4.821 -0.9211  1.9263  0.7046
   62MOL0     H 8515   8.133   5.918   4.952 -1.7422  1.8541  0.6620
   62MOL0     H 8516   8.135   5.754   4.883 -2.3446 -0.0176 -2.3299
   62MOL0     H 8517   7.999   5.818   4.985  1.3789  0.3302  1.6909
   62MOL0     H 8518   8.418   5.820   4.907 -0.0877  1.4364  1.5368
   62MOL0     H 8519   8.642   5.860   5.015 -1.9703 -3.8515 -1.7183
   62MOL0     H 8520   8.896   6.150   4.827  1.5424 -0.1349  0.3153
   62MOL0     H 8521   8.808   6.270   4.935 -0.9695  0.7175 -1.5808
   62MOL0     H 8522   8.970   6.197   5.111  2.9013 -0.6260  1.3606
   62MOL0     H 8523   9.069   6.107   4.993  0.7977  0.7678  1.7291
   62MOL0     H 8524   8.999   6.405   4.991 -3.0778 -0.8339 -3.1511
   62MOL0     H 8525   9.055   6.329   4.847  0.0228 -1.3445  0.2242
   62MOL0     H 8526   9.245   6.240   4.986 -0.8577 -1.5563 -0.1000
   62MOL0     H 8527   9.185   6.334   5.118  0.9103  1.4675 -0.2855
   62MOL0     H 8528   9.273   6.473   4.869 -0.2965  2.5478  1.8215
   62MOL0     H 8529   9.252   6.546   5.027 -0.6114  0.5523 -0.9241
   62MOL0     H 8530   9.487   6.507   4.927  0.4503 -1.1460 -1.3724
   62MOL0     H 8531   9.459   6.336   4.946 -2.1405  0.7266 -0.9806
   62MOL0     H 8532   9.412   6.539   5.174 -0.6912  0.9362 -1.3249
   62MOL0     H 8533   9.585   6.518   5.107  0.4858 -0.3307 -0.4797
   62MOL0     H 8534   9.450   6.267   5.177 -2.8455  2.9437  1.1105
   62MOL0     H 8535   9.507   6.362   5.315 -1.6676 -2.7312  0.9180
   62MOL0     H 8536   8.661   6.231   4.787 -0.8735  0.8791 -0.9837
   62MOL0     H 8537   8.449   6.191   4.692 -1.6954 -0.6369  0.0472
   62MOL0     H 8538   8.031   6.089   4.502  1.8425  1.6641  1.2402
   62MOL0     H 8539   7.801   6.002   4.465  1.7132  0.3072 -0.2241
   62MOL0     H 8540   6.191   5.664   5.013 -0.3495 -0.4062  0.3286
   62MOL0     H 8541   5.986   5.575   5.101 -0.5998  0.9643  0.4704
   62MOL0     H 8542   5.757   5.403   5.478 -0.3899 -2.8571 -0.6998
   62MOL0     H 8543   5.544   5.278   5.476 -0.9095  1.6791  1.2699
   62MOL0     H 8544   5.245   5.362   5.168 -0.8138  0.3984  2.8679
   62MOL0     H 8545   5.334   5.212   5.135 -0.2796  0.9136 -1.1619
   62MOL0     H 8546   5.067   5.202   5.185  0.9273 -0.4523 -1.1253
   62MOL0     H 8547   5.109   5.252   5.337 -0.9449 -0.5016  0.4701
   62MOL0     H 8548   5.176   4.995   5.217 -1.1856  1.8441 -0.2538
   62MOL0     H 8549   5.253   5.055   5.372 -0.0334 -0.0433  1.1807
   62MOL0     H 8550   5.045   4.898   5.402  1.4693 -0.0642 -1.9703
   62MOL0     H 8551   4.945   5.027   5.329 -1.5807  0.9241  2.0351
   62MOL0     H 8552   4.976   5.202   5.698 -2.4897 -1.7709  0.3556
   62MOL0     H 8553   5.380   5.519   5.173  0.0454  2.8731 -0.5942
   62MOL0     H 8554   5.669   5.708   5.109 -1.0008 -4.7849 -2.1320
   62MOL0     H 8555   5.497   5.684   5.074 -0.7490  3.9817  0.2589
   62MOL0     H 8556   5.540   5.788   5.207  0.6208 -0.7623  1.2390
   63MOL0     O 8557   8.066   9.335   1.147  0.1940 -0.4538 -0.3655
   63MOL0     C 8558   8.002   9.403   1.056 -0.0148  0.4163 -0.5420
   63MOL0     O 8559   8.066   9.478   0.964 -0.2482  0.4295  0.1361
   63MOL0     C 8560   8.196   9.432   0.937  0.9091  0.2909 -0.4747
   63MOL0     C 8561   8.313   9.487   0.982  0.5748 -0.0566 -0.6807
   63MOL0     C 8562   8.436   9.444   0.928 -0.0460  0.0700  0.9169
   63MOL0     C 8563   8.445   9.347   0.829 -0.7363  0.8504  0.9716
   63MOL0     O 8564   8.575   9.326   0.786  0.6117  1.0359 -0.8655
   63MOL0     C 8565   8.599   9.213   0.703 -0.1135 -0.2894 -0.8790
   63MOL0     C 8566   8.736   9.146   0.735 -0.2891  0.1400  0.5111
   63MOL0     C 8567   8.760   9.117   0.888  0.0682 -0.8951 -0.2959
   63MOL0     C 8568   8.895   9.067   0.916  0.5735 -0.2919  0.5342
   63MOL0     C 8569   8.928   9.023   1.058  0.2505 -0.6067  0.2203
   63MOL0     C 8570   8.926   9.149   1.148 -0.0202  0.2870 -0.3577
   63MOL0     C 8571   8.900   9.108   1.295  0.4739  1.2033 -0.1534
   63MOL0     C 8572   9.016   9.037   1.363 -0.0889 -0.7563  0.4398
   63MOL0     N 8573   9.146   9.113   1.355  0.1677 -0.0556  0.6510
   63MOL0     C 8574   9.186   9.205   1.448  0.4065 -0.7910 -0.7917
   63MOL0     C 8575   9.309   9.239   1.405  0.0595  0.2481 -0.7746
   63MOL0     C 8576   9.399   9.333   1.473 -0.1641  0.1077 -0.6018
   63MOL0     C 8577   9.526   9.266   1.529  0.0761 -0.3580  0.1862
   63MOL0     C 8578   9.617   9.362   1.616 -0.8022 -0.4484  0.6451
   63MOL0     C 8579   9.755   9.314   1.588  1.0523  1.1237 -0.2538
   63MOL0     O 8580   9.782   9.192   1.658  0.1120  0.2136 -0.0300
   63MOL0     C 8581   9.908   9.174   1.707  0.1272  0.3489  0.0226
   63MOL0     C 8582   9.933   9.160   1.844  0.3952 -0.9593 -0.0186
   63MOL0     C 8583  10.059   9.144   1.899 -0.9396  0.3099  0.5444
   63MOL0     C 8584  10.060   9.119   2.047 -1.2017  0.8115  0.2182
   63MOL0     C 8585  10.173   9.148   1.810  0.6200  0.3123 -0.9105
   63MOL0     C 8586  10.307   9.135   1.869  0.4356 -0.5476  0.9091
   63MOL0     O 8587  10.421   9.205   1.820 -0.2614 -0.3756 -0.6061
   63MOL0     C 8588  10.547   9.155   1.855 -0.2292  0.5662  0.2432
   63MOL0     C 8589  10.641   9.240   1.871 -0.8241 -0.8546 -1.0468
   63MOL0     C 8590  10.780   9.211   1.874 -0.0610 -0.2194 -0.6086
   63MOL0     C 8591  10.822   9.078   1.860 -0.9711  0.4832 -1.2031
   63MOL0     O 8592  10.949   9.023   1.848  0.0744  0.1766  1.1532
   63MOL0     C 8593  11.058   9.115   1.858  0.2085 -0.2398  0.0138
   63MOL0     C 8594  11.174   9.056   1.936  0.7550  0.0303  0.4599
   63MOL0     C 8595  11.307   9.123   1.922 -0.1144  0.1646 -0.6385
   63MOL0     C 8596  11.399   9.086   2.033 -0.3283  0.0943 -0.4365
   63MOL0     C 8597  11.536   9.155   2.028  0.1402  0.4172  0.3053
   63MOL0     C 8598  11.624   9.100   2.148 -0.1272  0.6951  0.0684
   63MOL0     C 8599  11.761   9.164   2.137  0.9125  0.4429  0.4961
   63MOL0     C 8600  11.758   9.315   2.151  0.1928 -0.5316 -0.9273
   63MOL0    Cl 8601  11.917   9.377   2.199  0.2476  0.1861  0.2613
   63MOL0     C 8602  10.718   8.989   1.863  0.5024  1.0756  0.3610
   63MOL0     C 8603  10.582   9.016   1.867  0.4396 -0.8235 -0.1373
   63MOL0     O 8604  10.318   9.042   1.946  1.1915 -0.1456  0.2125
   63MOL0     C 8605  10.153   9.172   1.673 -0.5988  0.0951 -0.3609
   63MOL0     C 8606  10.022   9.172   1.626  0.0947  0.1151  0.1648
   63MOL0     N 8607   9.347   9.160   1.298 -0.2275 -0.5848  0.6882
   63MOL0     N 8608   9.242   9.089   1.260  0.5237  0.2376  0.2151
   63MOL0     C 8609   8.330   9.277   0.788  1.1025 -0.2572  0.3346
   63MOL0     C 8610   8.201   9.328   0.846  0.0781  0.4205  0.4890
   63MOL0     C 8611   7.853   9.405   1.054  0.1414 -0.2491 -0.0577
   63MOL0     C 8612   7.782   9.349   1.163  0.5798 -0.0694  0.6338
   63MOL0     C 8613   7.647   9.341   1.159 -0.6296 -0.4819  0.5771
   63MOL0     C 8614   7.570   9.398   1.059  0.1742 -0.3360  0.0095
   63MOL0     O 8615   7.437   9.397   1.051  0.5023 -0.2556 -0.2676
   63MOL0     C 8616   7.362   9.328   1.157 -0.5405  0.2312  0.0304
   63MOL0     C 8617   7.220   9.291   1.109  0.2259  0.1236  0.3062
   63MOL0     C 8618   7.226   9.197   0.988 -0.4512  0.1017 -0.1015
   63MOL0     C 8619   7.095   9.194   0.904 -0.7502 -0.2712 -0.3393
   63MOL0     C 8620   6.980   9.157   0.988 -0.4285  0.4863 -0.5946
   63MOL0     C 8621   6.881   9.134   1.055  0.4492 -0.0053 -0.3286
   63MOL0     C 8622   7.637   9.458   0.953 -0.2309 -0.5711 -0.0050
   63MOL0     C 8623   7.778   9.454   0.948  0.2262 -0.6405  0.5208
   63MOL0     C 8624   7.835   9.523   0.824 -0.7252 -0.3489 -0.1702
   63MOL0     H 8625   8.303   9.568   1.053  1.9737 -0.2864 -0.1806
   63MOL0     H 8626   8.525   9.495   0.963  0.9048 -0.6377 -0.3895
   63MOL0     H 8627   8.603   9.239   0.597  2.9921  1.9065 -0.3601
   63MOL0     H 8628   8.525   9.134   0.721 -1.9882  1.4158 -0.7130
   63MOL0     H 8629   8.727   9.047   0.689 -0.9689  1.2827 -1.9553
   63MOL0     H 8630   8.818   9.200   0.687 -1.8459  2.2348  0.0720
   63MOL0     H 8631   8.749   9.211   0.943 -1.3734 -1.1158 -0.1670
   63MOL0     H 8632   8.689   9.047   0.933  0.5232  0.5857  2.9653
   63MOL0     H 8633   8.904   8.972   0.862  0.3826  0.0319 -0.0741
   63MOL0     H 8634   8.962   9.149   0.888 -1.0439  1.0226  0.3502
   63MOL0     H 8635   9.028   8.979   1.056  1.2372  1.5005  0.1310
   63MOL0     H 8636   8.852   8.962   1.108 -1.2875  3.4513  3.4183
   63MOL0     H 8637   9.013   9.213   1.131 -2.4799  3.8112 -0.7740
   63MOL0     H 8638   8.839   9.209   1.120  0.1033 -0.8559 -3.4638
   63MOL0     H 8639   8.814   9.042   1.307  1.9666 -0.3694  3.2195
   63MOL0     H 8640   8.871   9.198   1.350 -0.9406  0.5459  0.2057
   63MOL0     H 8641   8.985   8.994   1.459  0.3933 -1.4489  0.2988
   63MOL0     H 8642   9.036   8.948   1.302 -0.0934  1.3844 -2.9745
   63MOL0     H 8643   9.130   9.252   1.527  2.0109  2.4224 -1.4136
   63MOL0     H 8644   9.344   9.384   1.553 -2.5392  1.0867 -2.6951
   63MOL0     H 8645   9.438   9.403   1.398  2.9158 -0.2683  0.5206
   63MOL0     H 8646   9.500   9.180   1.591 -0.0291  0.2453  0.9907
   63MOL0     H 8647   9.577   9.241   1.436  0.2350  0.9419 -0.0874
   63MOL0     H 8648   9.616   9.467   1.587  0.0401 -0.9787 -1.4226
   63MOL0     H 8649   9.585   9.350   1.720  0.8265  0.2593  1.2514
   63MOL0     H 8650   9.773   9.286   1.484  2.1603 -1.3920  0.5342
   63MOL0     H 8651   9.830   9.391   1.605  0.3850  2.1602 -1.7253
   63MOL0     H 8652   9.845   9.164   1.907  0.0888 -3.7950 -0.1450
   63MOL0     H 8653  10.081   9.012   2.059 -0.7104  0.9124  0.2576
   63MOL0     H 8654   9.967   9.149   2.097 -1.3383  2.7157 -1.1104
   63MOL0     H 8655  10.139   9.180   2.091 -0.7544  1.0529 -0.8963
   63MOL0     H 8656  10.606   9.342   1.871 -0.5685 -0.7436  0.3445
   63MOL0     H 8657  10.842   9.299   1.890 -1.4757  0.6788  0.1869
   63MOL0     H 8658  11.082   9.133   1.753 -1.2096 -1.9011 -0.6464
   63MOL0     H 8659  11.040   9.218   1.889  0.8802  0.6881 -2.4517
   63MOL0     H 8660  11.147   9.045   2.042 -0.5256 -2.2323 -0.0378
   63MOL0     H 8661  11.178   8.952   1.901  4.2518 -0.2122  1.1880
   63MOL0     H 8662  11.286   9.230   1.922 -0.1101  0.1865 -2.1716
   63MOL0     H 8663  11.345   9.090   1.826  0.4284  0.5187 -0.5498
   63MOL0     H 8664  11.421   8.979   2.039  0.2878  0.0718 -2.3900
   63MOL0     H 8665  11.338   9.105   2.122 -1.5057 -0.4131 -1.1183
   63MOL0     H 8666  11.588   9.129   1.935  1.9971 -3.6172  2.2194
   63MOL0     H 8667  11.502   9.259   2.029 -2.5289 -0.3630 -0.5756
   63MOL0     H 8668  11.651   8.996   2.129 -1.6150 -0.9006  5.1166
   63MOL0     H 8669  11.581   9.106   2.248  1.8087  1.8229  0.8942
   63MOL0     H 8670  11.801   9.142   2.038 -1.3253  2.1163 -0.8837
   63MOL0     H 8671  11.820   9.115   2.215 -0.3580 -3.1080 -0.6086
   63MOL0     H 8672  11.686   9.341   2.229  1.2758 -1.2266  0.3452
   63MOL0     H 8673  11.729   9.356   2.054 -0.7746  1.9107  0.2988
   63MOL0     H 8674  10.742   8.888   1.832 -0.3196  1.2857 -1.0477
   63MOL0     H 8675  10.500   8.948   1.850 -0.2892 -0.2053  0.7592
   63MOL0     H 8676  10.233   9.165   1.601 -1.5559  0.6497 -1.5147
   63MOL0     H 8677  10.007   9.174   1.518  2.0134 -0.3608 -0.1613
   63MOL0     H 8678   8.326   9.195   0.718  0.2598  1.1335 -1.3473
   63MOL0     H 8679   8.107   9.287   0.811  1.0524 -0.5349 -1.1288
   63MOL0     H 8680   7.834   9.301   1.246 -0.2776  0.5383  1.5468
   63MOL0     H 8681   7.597   9.296   1.245  0.1651 -0.0972  1.2599
   63MOL0     H 8682   7.408   9.232   1.181 -0.1712  0.4345  0.1374
   63MOL0     H 8683   7.368   9.392   1.246  1.0230 -1.0406  0.8871
   63MOL0     H 8684   7.167   9.380   1.072  0.9668  0.4635  0.0504
   63MOL0     H 8685   7.166   9.253   1.196  1.9911  0.2221  1.4802
   63MOL0     H 8686   7.315   9.217   0.928  0.8063  0.3738  1.7604
   63MOL0     H 8687   7.230   9.097   1.034 -1.0474 -0.5523 -1.4235
   63MOL0     H 8688   7.122   9.125   0.824  1.6922  0.1802  0.0156
   63MOL0     H 8689   7.088   9.291   0.854 -1.4136  0.5227  1.2243
   63MOL0     H 8690   6.801   9.097   1.116  3.0029 -1.7700  2.2995
   63MOL0     H 8691   7.576   9.488   0.869  0.6901 -2.0503 -1.2501
   63MOL0     H 8692   7.752   9.552   0.759 -1.4796  0.5796  1.1575
   63MOL0     H 8693   7.891   9.614   0.849  0.0470  0.0301 -2.9932
   63MOL0     H 8694   7.895   9.453   0.765 -0.4296 -0.7122  0.5387
   64MOL0     O 8695   5.798   8.566   9.407 -0.1935 -0.7291 -0.1064
   64MOL0     C 8696   5.839   8.669   9.466 -0.0835  1.2359 -0.2520
   64MOL0     O 8697   5.968   8.721   9.464  0.4658  0.0985 -0.8361
   64MOL0     C 8698   6.058   8.675   9.375  0.7528 -0.7468 -0.2636
   64MOL0     C 8699   6.014   8.642   9.240 -0.2437  0.6556 -0.2450
   64MOL0     C 8700   6.106   8.584   9.149 -1.0258 -0.0693  0.8253
   64MOL0     C 8701   6.232   8.548   9.197 -0.2195 -0.3924 -0.4289
   64MOL0     O 8702   6.329   8.490   9.118  0.0476 -0.2520 -0.6697
   64MOL0     C 8703   6.292   8.434   8.998  0.7959 -0.0882  0.2296
   64MOL0     C 8704   6.409   8.349   8.939 -0.0671  0.0244 -0.2406
   64MOL0     C 8705   6.551   8.413   8.946  0.3403  0.7587  0.0053
   64MOL0     C 8706   6.658   8.321   8.900 -1.0973 -0.0528  0.2181
   64MOL0     C 8707   6.786   8.407   8.880  0.0250 -0.7000  0.5471
   64MOL0     C 8708   6.900   8.328   8.819 -0.4720 -0.7386 -0.0262
   64MOL0     C 8709   6.960   8.220   8.907  0.1622 -0.5323  0.1912
   64MOL0     C 8710   7.065   8.166   8.818  0.5375  0.3718  0.4713
   64MOL0     N 8711   7.165   8.257   8.763 -0.5431 -0.1776 -0.0280
   64MOL0     C 8712   7.193   8.290   8.634  0.4315 -0.3885  0.1251
   64MOL0     C 8713   7.297   8.379   8.644 -0.0843 -0.4249  0.1422
   64MOL0     C 8714   7.337   8.469   8.531  0.3111 -0.5443  0.1386
   64MOL0     C 8715   7.463   8.409   8.448 -0.0762 -0.7594  0.0840
   64MOL0     C 8716   7.596   8.430   8.525  0.3309  0.3573  0.8009
   64MOL0     C 8717   7.713   8.353   8.452  0.1605 -0.6887 -0.5193
   64MOL0     O 8718   7.841   8.382   8.505 -0.7436  0.7051 -0.3106
   64MOL0     C 8719   7.900   8.299   8.607  0.4233  0.7358  0.1549
   64MOL0     C 8720   7.837   8.180   8.654 -0.0309 -0.7786  0.7693
   64MOL0     C 8721   7.897   8.096   8.752 -0.1194 -0.0435 -0.6749
   64MOL0     C 8722   7.836   7.958   8.779  0.3176  0.6175 -0.3559
   64MOL0     C 8723   8.034   8.133   8.805  0.7697  0.3096  0.1405
   64MOL0     C 8724   8.111   8.056   8.897 -0.4671 -0.0458  0.0188
   64MOL0     O 8725   8.242   8.049   8.880  0.0768 -0.3533 -0.0530
   64MOL0     C 8726   8.321   7.964   8.949 -0.0193  0.2051  0.3432
   64MOL0     C 8727   8.435   7.905   8.888 -0.2796 -0.1440 -0.7587
   64MOL0     C 8728   8.520   7.813   8.955  0.1270 -0.2838 -0.0951
   64MOL0     C 8729   8.487   7.787   9.091 -0.0436  1.2756  0.6969
   64MOL0     O 8730   8.576   7.706   9.147 -0.4252  0.2914 -0.4947
   64MOL0     C 8731   8.562   7.666   9.286  0.0963  0.2092  0.7952
   64MOL0     C 8732   8.696   7.605   9.336  0.5667  0.5722  0.9984
   64MOL0     C 8733   8.696   7.570   9.485 -0.2905 -0.4854 -0.6219
   64MOL0     C 8734   8.832   7.557   9.546  0.1863  0.4872  0.4937
   64MOL0     C 8735   8.927   7.464   9.466  0.0710  0.3900  0.2431
   64MOL0     C 8736   8.904   7.311   9.490  1.0163 -0.8925  0.1686
   64MOL0     C 8737   9.040   7.248   9.460 -0.1681 -0.5381  0.3284
   64MOL0     C 8738   9.081   7.247   9.309 -0.9248 -1.2336 -0.0605
   64MOL0    Cl 8739   9.253   7.200   9.315 -0.2995  0.2177 -0.1424
   64MOL0     C 8740   8.380   7.844   9.157 -0.3789 -0.4021 -0.2397
   64MOL0     C 8741   8.300   7.932   9.088 -0.1435 -0.3896 -0.5179
   64MOL0     O 8742   8.053   7.987   8.980  0.8016  0.0674  0.2298
   64MOL0     C 8743   8.091   8.256   8.752 -0.1735  0.1385 -0.1010
   64MOL0     C 8744   8.017   8.336   8.661 -0.1298 -0.3415  0.0299
   64MOL0     N 8745   7.326   8.393   8.782 -0.7123 -0.2048 -1.1553
   64MOL0     N 8746   7.253   8.313   8.850  0.2509  0.3401 -0.2050
   64MOL0     C 8747   6.271   8.578   9.327  0.4205 -0.0348 -0.0912
   64MOL0     C 8748   6.186   8.643   9.416  0.0822  0.2322 -0.7534
   64MOL0     C 8749   5.746   8.729   9.566 -0.1342  0.0368 -0.1266
   64MOL0     C 8750   5.617   8.668   9.585 -0.1801 -0.7162  0.0785
   64MOL0     C 8751   5.510   8.721   9.657  0.6504 -1.1242  0.6703
   64MOL0     C 8752   5.527   8.846   9.715 -0.1576  0.3589  0.0315
   64MOL0     O 8753   5.421   8.895   9.781 -0.1890  0.9679  0.3121
   64MOL0     C 8754   5.421   9.010   9.859  0.3308 -0.4386  0.5464
   64MOL0     C 8755   5.281   9.049   9.894  0.2917 -0.0211  0.0884
   64MOL0     C 8756   5.193   9.067   9.762  0.4393  0.4888 -0.0308
   64MOL0     C 8757   5.060   9.152   9.776 -0.5636  0.5252 -0.6915
   64MOL0     C 8758   5.083   9.259   9.871  0.3897 -0.3867  0.0529
   64MOL0     C 8759   5.111   9.357   9.937 -0.2749  0.1546  0.5631
   64MOL0     C 8760   5.658   8.908   9.709 -0.1116 -0.9706 -0.3844
   64MOL0     C 8761   5.770   8.845   9.645  0.6171 -0.0651  0.1362
   64MOL0     C 8762   5.907   8.917   9.652 -0.0607  0.4917 -0.3431
   64MOL0     H 8763   5.913   8.665   9.207  0.0307  0.3299 -1.3588
   64MOL0     H 8764   6.073   8.584   9.046  0.2471  1.4044  0.3782
   64MOL0     H 8765   6.269   8.515   8.929  0.6956 -0.5948 -0.3436
   64MOL0     H 8766   6.203   8.374   9.016  0.8044  0.5479  2.7190
   64MOL0     H 8767   6.413   8.256   8.995 -0.9825  0.2043  0.1373
   64MOL0     H 8768   6.373   8.333   8.837 -2.2510 -2.8878  0.8513
   64MOL0     H 8769   6.552   8.506   8.889 -1.2262  0.0941 -1.1581
   64MOL0     H 8770   6.574   8.450   9.046  1.4564  2.6563 -0.9046
   64MOL0     H 8771   6.676   8.242   8.973  2.0003  0.0631 -0.2932
   64MOL0     H 8772   6.628   8.274   8.806  0.4732 -1.0550  0.1900
   64MOL0     H 8773   6.818   8.454   8.974 -0.3988 -0.1882  0.4400
   64MOL0     H 8774   6.761   8.483   8.806  2.8907 -2.7478 -2.8740
   64MOL0     H 8775   6.862   8.285   8.726 -1.6010  0.2067 -0.0264
   64MOL0     H 8776   6.977   8.403   8.797 -3.0600  2.4362  1.0127
   64MOL0     H 8777   6.895   8.137   8.937  1.6561 -1.3106  1.4196
   64MOL0     H 8778   6.993   8.264   9.002  0.9230  3.4622 -1.7121
   64MOL0     H 8779   7.113   8.083   8.871 -0.9602 -0.3450  0.7399
   64MOL0     H 8780   7.013   8.122   8.732 -0.7563  1.2248  0.7953
   64MOL0     H 8781   7.136   8.251   8.549 -3.6695 -2.3299  3.3984
   64MOL0     H 8782   7.351   8.568   8.574  1.3111 -0.2771 -0.7391
   64MOL0     H 8783   7.252   8.473   8.461  0.4453  1.5521  0.0131
   64MOL0     H 8784   7.439   8.303   8.436  2.7315 -1.5783  0.9495
   64MOL0     H 8785   7.468   8.440   8.343  2.2048  0.0684  0.3945
   64MOL0     H 8786   7.620   8.536   8.538 -0.7651  0.7464 -0.2079
   64MOL0     H 8787   7.570   8.394   8.625 -3.5507  3.5048  1.1571
   64MOL0     H 8788   7.681   8.248   8.443 -2.0956  0.0395 -1.8899
   64MOL0     H 8789   7.700   8.383   8.348 -3.8415  0.2463  0.0804
   64MOL0     H 8790   7.737   8.156   8.621  0.5941 -3.1375  0.4481
   64MOL0     H 8791   7.734   7.945   8.741 -0.2999 -1.5455  1.7786
   64MOL0     H 8792   7.826   7.952   8.887 -1.2682  2.6761 -0.3289
   64MOL0     H 8793   7.910   7.885   8.745  0.2386  0.2802  0.1792
   64MOL0     H 8794   8.453   7.937   8.786 -0.3078  1.9186 -0.1490
   64MOL0     H 8795   8.601   7.770   8.898 -0.5871 -0.4992 -0.9634
   64MOL0     H 8796   8.533   7.751   9.349 -0.7000 -0.2265  1.0306
   64MOL0     H 8797   8.485   7.589   9.293  0.5265 -0.0844  3.1295
   64MOL0     H 8798   8.715   7.515   9.276  0.9559  0.2366  1.6128
   64MOL0     H 8799   8.776   7.679   9.324  1.0803  0.0301  1.0080
   64MOL0     H 8800   8.632   7.483   9.500 -2.0387  0.8749  0.2336
   64MOL0     H 8801   8.645   7.652   9.538  1.0776 -0.6096  0.9719
   64MOL0     H 8802   8.817   7.505   9.641 -1.6984 -0.9538 -0.5289
   64MOL0     H 8803   8.873   7.658   9.557  0.8079  0.0709  2.1938
   64MOL0     H 8804   8.933   7.488   9.360  0.7368  0.6679  0.3395
   64MOL0     H 8805   9.019   7.477   9.524 -1.0205  1.1203  1.9209
   64MOL0     H 8806   8.832   7.273   9.416  0.8132 -1.9459  0.8844
   64MOL0     H 8807   8.869   7.306   9.593  1.1033 -0.9616  0.1944
   64MOL0     H 8808   9.040   7.142   9.491  1.1688 -1.0911 -1.4318
   64MOL0     H 8809   9.120   7.300   9.513 -2.8524  3.2314  1.0623
   64MOL0     H 8810   9.084   7.350   9.273  0.2049 -1.3597 -0.3807
   64MOL0     H 8811   9.015   7.193   9.241  0.1589 -1.8553 -0.6523
   64MOL0     H 8812   8.352   7.809   9.256  1.3495 -4.0001 -0.8639
   64MOL0     H 8813   8.219   7.988   9.135  0.1112 -0.6932  0.3004
   64MOL0     H 8814   8.193   8.274   8.786 -0.4202 -1.4040  1.6069
   64MOL0     H 8815   8.055   8.427   8.615 -0.1194 -1.4476 -2.3171
   64MOL0     H 8816   6.371   8.544   9.350  0.1333 -1.7939 -1.2118
   64MOL0     H 8817   6.213   8.662   9.519  0.6384 -1.4956 -0.5451
   64MOL0     H 8818   5.609   8.570   9.538  0.7953 -0.0517 -1.5650
   64MOL0     H 8819   5.417   8.667   9.669  0.9723 -2.1935 -1.1824
   64MOL0     H 8820   5.473   8.986   9.952 -0.0486  0.8163  1.0978
   64MOL0     H 8821   5.470   9.096   9.814 -1.9078  1.4045  1.4299
   64MOL0     H 8822   5.292   9.145   9.945  0.1112  1.5436 -2.6133
   64MOL0     H 8823   5.233   8.970   9.952  1.0216 -2.1805 -2.0772
   64MOL0     H 8824   5.262   9.112   9.689  1.6620 -1.5748 -0.2407
   64MOL0     H 8825   5.167   8.966   9.729 -1.6470  0.8202  0.4689
   64MOL0     H 8826   4.984   9.081   9.811 -1.3390  0.3771 -2.5597
   64MOL0     H 8827   5.025   9.180   9.676  1.2016 -2.2480 -2.2287
   64MOL0     H 8828   5.144   9.449   9.980 -2.3036  1.0840  0.2949
   64MOL0     H 8829   5.674   9.002   9.760 -1.1619 -1.0299  0.0880
   64MOL0     H 8830   5.926   8.991   9.730 -3.0933  0.4385  0.5732
   64MOL0     H 8831   5.983   8.839   9.665  0.6125  1.1452 -0.2716
   64MOL0     H 8832   5.928   8.966   9.556 -1.5245 -0.1967 -1.0408
   65MOL0     O 8833   4.753   2.768   5.721  0.8342  0.8185  0.3289
   65MOL0     C 8834   4.694   2.866   5.762  0.7064 -0.9395  0.7097
   65MOL0     O 8835   4.754   2.983   5.789  0.1767 -0.2465  0.2505
   65MOL0     C 8836   4.880   2.991   5.834 -0.3305 -0.2096  0.5047
   65MOL0     C 8837   4.940   2.904   5.927 -0.6348  0.3443  0.0873
   65MOL0     C 8838   5.061   2.933   5.988  0.2214  0.0950  0.6206
   65MOL0     C 8839   5.139   3.047   5.964 -0.1831  0.7881 -1.0128
   65MOL0     O 8840   5.262   3.050   6.036  0.4903 -0.0179 -0.4755
   65MOL0     C 8841   5.337   3.166   6.041  0.3222  0.1962  0.7134
   65MOL0     C 8842   5.440   3.147   6.154 -0.9009 -0.0061  0.0059
   65MOL0     C 8843   5.549   3.251   6.135  0.5216  0.1208  0.3957
   65MOL0     C 8844   5.656   3.275   6.227 -0.5487  0.3173 -0.4206
   65MOL0     C 8845   5.717   3.420   6.211  0.1109 -0.3749  0.3548
   65MOL0     C 8846   5.837   3.444   6.305 -0.1571 -0.4858  0.3861
   65MOL0     C 8847   5.914   3.563   6.267  0.0708 -0.5191 -0.1884
   65MOL0     C 8848   6.016   3.553   6.149  0.7521 -0.1188 -0.1018
   65MOL0     N 8849   6.127   3.454   6.170  0.5548 -0.7781 -0.3323
   65MOL0     C 8850   6.229   3.468   6.259 -0.0096 -0.9087 -0.6653
   65MOL0     C 8851   6.287   3.344   6.275  0.2552 -0.2932  0.3228
   65MOL0     C 8852   6.426   3.333   6.341  0.0942 -0.0602  0.5107
   65MOL0     C 8853   6.438   3.408   6.477 -0.0745  1.0158  0.1205
   65MOL0     C 8854   6.355   3.319   6.578 -0.4768 -0.5310  0.0486
   65MOL0     C 8855   6.439   3.208   6.642  0.0065  0.0100 -0.3151
   65MOL0     O 8856   6.374   3.166   6.766  0.4281  0.1449 -1.1558
   65MOL0     C 8857   6.437   3.163   6.890  0.0341 -0.2202 -0.6880
   65MOL0     C 8858   6.577   3.145   6.909  0.2204 -0.5899  0.5593
   65MOL0     C 8859   6.632   3.124   7.032  0.3832 -0.8539 -0.2647
   65MOL0     C 8860   6.785   3.099   7.039 -0.8488  0.7369 -0.4616
   65MOL0     C 8861   6.559   3.132   7.154  0.2091 -0.1620 -0.9782
   65MOL0     C 8862   6.621   3.131   7.293  1.0526  0.2784  0.2783
   65MOL0     O 8863   6.714   3.045   7.320 -0.4129  1.2378  0.2701
   65MOL0     C 8864   6.762   3.029   7.448  0.1308 -0.7075 -0.8061
   65MOL0     C 8865   6.701   3.053   7.576  0.6338 -0.6831 -0.0401
   65MOL0     C 8866   6.770   3.014   7.697  0.4742 -0.1923  0.1864
   65MOL0     C 8867   6.895   2.952   7.691  0.1111 -0.5436  0.5301
   65MOL0     O 8868   6.963   2.928   7.799 -0.3799  0.1626 -0.0019
   65MOL0     C 8869   7.047   2.812   7.809  0.2820 -0.5008 -0.9314
   65MOL0     C 8870   7.023   2.738   7.937  1.1158 -0.1857 -0.3441
   65MOL0     C 8871   7.107   2.797   8.053  0.7391 -0.3660  0.1159
   65MOL0     C 8872   7.109   2.710   8.175 -0.0264 -0.1940  0.0699
   65MOL0     C 8873   6.968   2.672   8.219  0.1546 -0.1202 -0.5587
   65MOL0     C 8874   6.978   2.614   8.359  0.7837  1.1317 -0.1676
   65MOL0     C 8875   6.874   2.511   8.390  0.7282  0.3066  0.1965
   65MOL0     C 8876   6.922   2.401   8.480 -0.2091  0.1952 -0.3446
   65MOL0    Cl 8877   6.796   2.267   8.483 -0.2084  0.0527  0.0117
   65MOL0     C 8878   6.958   2.941   7.571 -0.4248  0.2022  0.5438
   65MOL0     C 8879   6.893   2.979   7.456  0.1732  0.3538 -0.0265
   65MOL0     O 8880   6.575   3.217   7.367  1.1914 -0.1719  0.0480
   65MOL0     C 8881   6.428   3.154   7.133  0.2115  0.6934 -0.0891
   65MOL0     C 8882   6.363   3.172   7.004  0.1940  0.2610 -0.0592
   65MOL0     N 8883   6.216   3.261   6.184 -0.6952 -0.6185  0.3779
   65MOL0     N 8884   6.123   3.325   6.121 -0.5165  0.1760 -0.5108
   65MOL0     C 8885   5.072   3.143   5.881 -0.5041 -0.2820 -0.0616
   65MOL0     C 8886   4.951   3.107   5.820 -0.1928  0.4449  0.0001
   65MOL0     C 8887   4.545   2.862   5.786  0.8258  0.1684  0.1542
   65MOL0     C 8888   4.504   2.892   5.914 -0.1677  0.0223  0.5771
   65MOL0     C 8889   4.369   2.869   5.948 -0.1287  0.0669 -0.5432
   65MOL0     C 8890   4.276   2.820   5.861 -1.2677 -0.3540  0.4669
   65MOL0     O 8891   4.151   2.795   5.914  0.1501  0.9924  0.7980
   65MOL0     C 8892   4.054   2.726   5.830 -0.5342 -0.1309  0.1814
   65MOL0     C 8893   3.944   2.666   5.909 -0.1158 -0.5648  0.3259
   65MOL0     C 8894   3.859   2.782   5.953  0.6226  1.5315 -0.5969
   65MOL0     C 8895   3.725   2.738   6.016  0.5255  0.7299  1.1276
   65MOL0     C 8896   3.738   2.662   6.143 -0.0486 -0.1386 -0.3627
   65MOL0     C 8897   3.749   2.594   6.242 -0.5548  0.6998 -0.1480
   65MOL0     C 8898   4.323   2.787   5.732 -0.1476  0.1706  0.8819
   65MOL0     C 8899   4.453   2.808   5.699  0.0261 -1.0683 -0.5919
   65MOL0     C 8900   4.489   2.782   5.554 -0.7773 -0.3029 -0.3278
   65MOL0     H 8901   4.880   2.816   5.946  0.1993 -0.3020 -0.2002
   65MOL0     H 8902   5.096   2.866   6.066 -0.5868 -0.6590  0.3455
   65MOL0     H 8903   5.276   3.256   6.055 -0.1555  0.1478 -0.8976
   65MOL0     H 8904   5.384   3.165   5.943  0.8330 -0.7507  0.9532
   65MOL0     H 8905   5.400   3.165   6.254 -1.2708  1.8131 -0.4393
   65MOL0     H 8906   5.468   3.042   6.161 -2.6764 -0.5210  0.0374
   65MOL0     H 8907   5.590   3.236   6.035 -3.1791 -1.2246 -1.0940
   65MOL0     H 8908   5.486   3.341   6.136  1.4894  0.8130  1.5897
   65MOL0     H 8909   5.621   3.266   6.331  0.4067  0.2652 -0.0953
   65MOL0     H 8910   5.736   3.204   6.206 -0.0792  1.8337 -4.7252
   65MOL0     H 8911   5.637   3.491   6.235 -1.8306 -2.6241  0.9270
   65MOL0     H 8912   5.747   3.433   6.106 -0.3543 -0.0286  0.2606
   65MOL0     H 8913   5.799   3.465   6.406 -0.7531 -2.4711  0.6305
   65MOL0     H 8914   5.902   3.356   6.315  1.7414  0.9223  0.8508
   65MOL0     H 8915   5.967   3.582   6.360  2.3670 -0.6544 -1.3931
   65MOL0     H 8916   5.839   3.643   6.253 -1.3304 -2.1108 -2.5209
   65MOL0     H 8917   5.966   3.533   6.054  2.1650  0.1528 -0.9324
   65MOL0     H 8918   6.054   3.656   6.144 -2.0892  1.0827  1.3007
   65MOL0     H 8919   6.260   3.564   6.298 -2.4574  0.3310 -1.5377
   65MOL0     H 8920   6.499   3.388   6.280  0.9119  0.5298  1.9615
   65MOL0     H 8921   6.460   3.229   6.348 -2.8331 -1.1658 -0.4269
   65MOL0     H 8922   6.544   3.402   6.502  1.0387  0.7153 -3.9710
   65MOL0     H 8923   6.412   3.514   6.477 -0.7362  0.9021  2.5546
   65MOL0     H 8924   6.336   3.394   6.655  1.5418  1.7058 -1.5355
   65MOL0     H 8925   6.253   3.293   6.548 -0.8235  1.5560 -0.7216
   65MOL0     H 8926   6.441   3.119   6.577 -1.8705 -0.9766  0.8946
   65MOL0     H 8927   6.543   3.242   6.653  1.0675 -2.7030 -1.0802
   65MOL0     H 8928   6.641   3.151   6.822 -2.2260 -2.5451 -1.5086
   65MOL0     H 8929   6.807   2.994   7.061  1.4165  1.7113  2.7123
   65MOL0     H 8930   6.835   3.166   7.110  0.3459  0.4622 -1.0278
   65MOL0     H 8931   6.837   3.119   6.945  1.0829  0.1084  0.4243
   65MOL0     H 8932   6.599   3.092   7.583  0.9636  0.0123  1.2677
   65MOL0     H 8933   6.719   3.034   7.791 -0.7986  1.2270 -0.7520
   65MOL0     H 8934   7.042   2.753   7.716 -2.7986 -1.7038 -0.1582
   65MOL0     H 8935   7.146   2.857   7.815 -1.6606  4.4071 -0.7356
   65MOL0     H 8936   6.917   2.738   7.960  0.9658  2.6401 -0.5842
   65MOL0     H 8937   7.051   2.633   7.930 -0.7601 -0.8787  1.7061
   65MOL0     H 8938   7.077   2.901   8.071 -0.6049 -0.6576 -0.3475
   65MOL0     H 8939   7.209   2.799   8.014  0.4987 -1.7353 -0.6362
   65MOL0     H 8940   7.145   2.778   8.253  0.2006  0.0420 -0.2368
   65MOL0     H 8941   7.168   2.619   8.167  1.0851  0.5658 -0.7182
   65MOL0     H 8942   6.889   2.746   8.206  0.7449  0.8348  1.0281
   65MOL0     H 8943   6.929   2.590   8.158  0.0677  0.1670 -0.8921
   65MOL0     H 8944   6.968   2.696   8.431  0.5680  2.0128 -1.1739
   65MOL0     H 8945   7.077   2.569   8.368  0.8274  1.1026 -0.7541
   65MOL0     H 8946   6.837   2.455   8.304  2.5387 -1.4743  0.4914
   65MOL0     H 8947   6.787   2.557   8.439  0.4351 -1.2489  1.2108
   65MOL0     H 8948   6.934   2.449   8.578 -2.3387 -0.1763  0.1533
   65MOL0     H 8949   7.021   2.368   8.448 -0.1582  0.6862 -0.6970
   65MOL0     H 8950   7.057   2.898   7.569  0.4580  2.1764  0.0468
   65MOL0     H 8951   6.936   2.961   7.358 -0.9551  1.2634 -0.7157
   65MOL0     H 8952   6.357   3.164   7.214 -0.8192 -2.4412 -0.4877
   65MOL0     H 8953   6.259   3.202   6.997  0.2835  0.1978 -2.1076
   65MOL0     H 8954   5.123   3.235   5.855 -0.3665 -0.5191 -0.6497
   65MOL0     H 8955   4.902   3.178   5.754 -0.9298  0.2572  0.3350
   65MOL0     H 8956   4.562   2.931   5.997 -0.9149  2.3214  0.1014
   65MOL0     H 8957   4.327   2.887   6.046 -0.7537  0.2997 -0.8494
   65MOL0     H 8958   4.028   2.794   5.749  2.1813  0.6043 -0.1880
   65MOL0     H 8959   4.106   2.645   5.778  1.0260 -0.5972  2.2837
   65MOL0     H 8960   3.985   2.615   5.997  2.3048  1.4770  0.5207
   65MOL0     H 8961   3.892   2.601   5.838  0.6959 -0.0401 -0.7824
   65MOL0     H 8962   3.907   2.838   6.034  0.7288  0.5223  0.0582
   65MOL0     H 8963   3.826   2.841   5.868 -4.8568  0.1590  0.1916
   65MOL0     H 8964   3.660   2.686   5.945 -0.3655  0.6782  1.9520
   65MOL0     H 8965   3.682   2.837   6.034  0.4303  0.5793  1.7595
   65MOL0     H 8966   3.760   2.549   6.339 -0.3849  3.6978  1.3360
   65MOL0     H 8967   4.263   2.747   5.651  0.4461 -0.7583  0.8789
   65MOL0     H 8968   4.406   2.788   5.483 -0.4177  0.0338 -0.7295
   65MOL0     H 8969   4.560   2.862   5.530 -1.6716  1.1187  1.4869
   65MOL0     H 8970   4.543   2.689   5.536 -1.6363 -0.7516 -0.6404
   66MOL0     O 8971   0.627  10.627   3.548 -0.2053  0.1418 -0.2900
   66MOL0     C 8972   0.615  10.680   3.663  0.2569  0.0067  0.5135
   66MOL0     O 8973   0.718  10.714   3.740 -0.0897  0.6591 -0.3459
   66MOL0     C 8974   0.849  10.684   3.710  0.0839 -0.5188 -0.2919
   66MOL0     C 8975   0.896  10.555   3.685  0.4098 -1.3909 -0.2793
   66MOL0     C 8976   1.034  10.538   3.664  0.9835  0.1121  0.5354
   66MOL0     C 8977   1.132  10.641   3.691 -0.0791 -0.0694 -0.4309
   66MOL0     O 8978   1.267  10.606   3.683  0.3718 -0.5628  0.1276
   66MOL0     C 8979   1.375  10.698   3.682  0.1233 -0.3812 -0.2392
   66MOL0     C 8980   1.475  10.648   3.579 -0.0768 -0.8089  0.2360
   66MOL0     C 8981   1.564  10.761   3.521  0.1869  0.5066 -1.0959
   66MOL0     C 8982   1.682  10.712   3.438  0.0293  0.4369  0.1203
   66MOL0     C 8983   1.767  10.824   3.378  0.4748  0.0521 -0.0410
   66MOL0     C 8984   1.876  10.762   3.291 -0.5761  0.4134  0.1745
   66MOL0     C 8985   1.969  10.865   3.229  0.0417  0.0715  0.1027
   66MOL0     C 8986   2.072  10.793   3.154 -0.0843 -0.4764 -0.6366
   66MOL0     N 8987   2.175  10.888   3.114  0.5859 -0.1829 -0.6330
   66MOL0     C 8988   2.175  10.976   3.012  0.3360 -0.4258  0.0006
   66MOL0     C 8989   2.275  11.056   3.031  0.2841  0.1534 -0.8089
   66MOL0     C 8990   2.312  11.187   2.968 -0.3416  0.2584  0.8528
   66MOL0     C 8991   2.186  11.271   2.945 -0.9251 -0.9867  0.3672
   66MOL0     C 8992   2.217  11.429   2.916 -0.3396  1.3696  0.3383
   66MOL0     C 8993   2.347  11.457   2.841  0.2621 -0.0253 -0.7200
   66MOL0     O 8994   2.354  11.371   2.725  0.6837 -0.1716 -0.3177
   66MOL0     C 8995   2.443  11.398   2.629  0.6979 -0.3527 -0.3806
   66MOL0     C 8996   2.541  11.500   2.628 -0.0898 -0.6404 -0.7640
   66MOL0     C 8997   2.634  11.507   2.522  0.7069  0.0920  0.2568
   66MOL0     C 8998   2.743  11.612   2.516  0.0938 -0.3621 -0.1587
   66MOL0     C 8999   2.616  11.408   2.409  0.5711  0.3566  0.3041
   66MOL0     C 9000   2.706  11.387   2.289  0.1750 -0.0648 -0.2217
   66MOL0     O 9001   2.662  11.335   2.170  0.0640 -0.2066 -0.1179
   66MOL0     C 9002   2.762  11.297   2.092 -0.3706 -0.3212 -0.7206
   66MOL0     C 9003   2.791  11.159   2.077  0.0557  0.0002 -0.3866
   66MOL0     C 9004   2.889  11.108   1.988  0.5424 -0.0364  0.1526
   66MOL0     C 9005   2.968  11.201   1.918  0.3460 -0.0879  0.7154
   66MOL0     O 9006   3.062  11.163   1.826 -0.4142 -0.6605 -0.0529
   66MOL0     C 9007   3.192  11.220   1.810 -0.8208 -0.6209 -0.0805
   66MOL0     C 9008   3.304  11.115   1.829 -0.0492  0.7751 -0.8020
   66MOL0     C 9009   3.421  11.158   1.739 -0.7511 -0.0098 -0.5702
   66MOL0     C 9010   3.535  11.055   1.734  0.5656  0.6811  0.4320
   66MOL0     C 9011   3.660  11.123   1.699 -0.2026 -0.1602 -1.0648
   66MOL0     C 9012   3.776  11.032   1.665  0.2439 -0.1382  0.2247
   66MOL0     C 9013   3.888  11.100   1.607  0.2345  0.0953  0.8795
   66MOL0     C 9014   3.978  11.004   1.537 -0.3262  0.3368  0.5640
   66MOL0    Cl 9015   3.908  10.929   1.394  0.3695 -0.0843 -0.4570
   66MOL0     C 9016   2.934  11.343   1.923 -0.6351 -0.3303  0.1378
   66MOL0     C 9017   2.833  11.385   2.007  0.0660  0.2127 -0.2126
   66MOL0     O 9018   2.821  11.410   2.317 -0.6130  0.4375  0.0465
   66MOL0     C 9019   2.512  11.311   2.417  0.8513  0.2969  0.2218
   66MOL0     C 9020   2.423  11.317   2.522 -0.6216 -0.3702 -0.0811
   66MOL0     N 9021   2.354  11.013   3.136 -0.3459  0.3803  0.2678
   66MOL0     N 9022   2.286  10.914   3.191  0.3239 -0.0327  0.0359
   66MOL0     C 9023   1.084  10.770   3.720  1.5278 -0.0978 -0.1120
   66MOL0     C 9024   0.942  10.785   3.730  0.3353  0.2825 -0.3663
   66MOL0     C 9025   0.480  10.693   3.716  0.3974  0.1036 -0.8553
   66MOL0     C 9026   0.477  10.735   3.852 -0.7288  0.7083  0.0314
   66MOL0     C 9027   0.356  10.727   3.927 -1.1407  0.0643 -0.3656
   66MOL0     C 9028   0.233  10.696   3.879 -0.3062 -0.5718  0.3586
   66MOL0     O 9029   0.116  10.698   3.947  1.0350 -0.4926  0.2864
   66MOL0     C 9030   0.015  10.599   3.917 -0.3206 -0.3300 -0.6510
   66MOL0     C 9031  -0.100  10.639   3.824  0.2570 -0.0355  0.7494
   66MOL0     C 9032  -0.220  10.551   3.826  0.1947 -0.8704  0.2937
   66MOL0     C 9033  -0.199  10.406   3.782  0.5392 -0.4302  0.2485
   66MOL0     C 9034  -0.161  10.385   3.638 -0.5579  0.2864 -0.2716
   66MOL0     C 9035  -0.104  10.360   3.530 -0.5850  0.5439 -1.1350
   66MOL0     C 9036   0.234  10.669   3.742 -0.3075 -0.1556 -0.1398
   66MOL0     C 9037   0.353  10.669   3.656  0.3792  0.8773  0.5801
   66MOL0     C 9038   0.321  10.635   3.509 -1.2091  0.0754  0.9183
   66MOL0     H 9039   0.835  10.468   3.663  0.0101 -0.8932 -1.2238
   66MOL0     H 9040   1.071  10.441   3.632 -0.0683 -0.1012 -0.0797
   66MOL0     H 9041   1.427  10.710   3.777  0.0830  2.2139 -0.4687
   66MOL0     H 9042   1.336  10.793   3.644 -2.3335 -1.4494 -0.5337
   66MOL0     H 9043   1.536  10.571   3.627  0.8393 -0.7789 -0.8628
   66MOL0     H 9044   1.419  10.597   3.500  0.3726  0.3722 -0.8677
   66MOL0     H 9045   1.518  10.830   3.449  1.7614 -0.1648 -2.8420
   66MOL0     H 9046   1.607  10.816   3.605 -2.4389  0.5110  0.3680
   66MOL0     H 9047   1.727  10.640   3.508 -1.4851 -0.0659  0.5993
   66MOL0     H 9048   1.642  10.652   3.356  3.0365 -2.2815  0.4219
   66MOL0     H 9049   1.803  10.882   3.463 -1.4778 -2.2618  2.5555
   66MOL0     H 9050   1.702  10.889   3.319  0.6421  1.2081  1.0296
   66MOL0     H 9051   1.932  10.702   3.363 -0.2018  1.0376  0.4111
   66MOL0     H 9052   1.845  10.691   3.214  3.4189 -0.5573 -0.7533
   66MOL0     H 9053   2.022  10.918   3.309  3.5498 -3.4713  0.4370
   66MOL0     H 9054   1.913  10.935   3.166  0.9701  0.1537 -0.6655
   66MOL0     H 9055   2.118  10.710   3.208  3.3077 -0.6880 -3.4972
   66MOL0     H 9056   2.030  10.748   3.063  1.1067  0.4302 -1.6569
   66MOL0     H 9057   2.099  10.989   2.935 -1.1696  3.2637  1.8636
   66MOL0     H 9058   2.354  11.169   2.869 -3.7905  0.4468 -0.8008
   66MOL0     H 9059   2.386  11.240   3.028  2.4304  1.2136 -3.0366
   66MOL0     H 9060   2.129  11.236   2.858 -1.8550 -0.8504  0.9036
   66MOL0     H 9061   2.117  11.263   3.030 -1.3101  0.8952  0.2608
   66MOL0     H 9062   2.131  11.465   2.859 -1.2611 -1.6504 -0.3983
   66MOL0     H 9063   2.231  11.488   3.007  3.3522 -1.0505  1.5547
   66MOL0     H 9064   2.351  11.565   2.823  1.3635  0.0534 -0.1116
   66MOL0     H 9065   2.433  11.437   2.906 -0.3019  1.0072  0.3973
   66MOL0     H 9066   2.568  11.558   2.715  1.4014 -1.4590 -0.6400
   66MOL0     H 9067   2.839  11.560   2.514 -0.3971 -1.3492  0.8426
   66MOL0     H 9068   2.745  11.674   2.606  2.0449 -1.5624  0.6980
   66MOL0     H 9069   2.734  11.680   2.431 -1.4052  0.9536  0.9943
   66MOL0     H 9070   2.732  11.090   2.138 -1.3220 -0.2275 -1.8840
   66MOL0     H 9071   2.897  11.000   1.998 -0.8405 -0.0977  0.8849
   66MOL0     H 9072   3.200  11.260   1.708 -2.3172 -0.3931 -0.1416
   66MOL0     H 9073   3.198  11.312   1.869 -2.4423 -0.0097 -0.7868
   66MOL0     H 9074   3.336  11.097   1.932  0.1400 -0.6296 -1.0798
   66MOL0     H 9075   3.269  11.020   1.788 -0.0437  2.0150 -3.9696
   66MOL0     H 9076   3.451  11.257   1.776 -1.5305 -0.1882  0.5585
   66MOL0     H 9077   3.383  11.167   1.636 -1.2582  1.2421 -0.2995
   66MOL0     H 9078   3.508  10.982   1.657  2.5436 -0.6103  0.9028
   66MOL0     H 9079   3.554  11.025   1.838 -0.1437 -2.0846 -0.1750
   66MOL0     H 9080   3.644  11.192   1.616 -0.6585  0.2346 -0.6628
   66MOL0     H 9081   3.696  11.194   1.774 -1.1450  1.0952 -1.7622
   66MOL0     H 9082   3.729  10.960   1.597 -1.8943  2.3901 -1.1432
   66MOL0     H 9083   3.799  10.975   1.756 -2.3066 -0.2838  0.8470
   66MOL0     H 9084   3.931  11.154   1.692 -0.5664 -0.2760  1.5337
   66MOL0     H 9085   3.849  11.171   1.534 -0.3968 -0.9943  0.1282
   66MOL0     H 9086   3.996  10.915   1.597  3.3775  1.3579  1.2163
   66MOL0     H 9087   4.075  11.045   1.507 -0.0395 -0.6446  0.1346
   66MOL0     H 9088   2.989  11.413   1.861 -0.8137  0.2651  0.6460
   66MOL0     H 9089   2.797  11.488   2.009 -1.7408 -0.2805 -2.4723
   66MOL0     H 9090   2.502  11.236   2.339  2.4377 -1.1368  1.3345
   66MOL0     H 9091   2.346  11.243   2.536  0.7800 -2.0946 -1.1453
   66MOL0     H 9092   1.136  10.865   3.722  0.3065  0.5855  0.3946
   66MOL0     H 9093   0.890  10.881   3.733  0.2122  0.2644 -1.3838
   66MOL0     H 9094   0.566  10.766   3.907  0.6492 -0.9410 -1.1606
   66MOL0     H 9095   0.362  10.764   4.029  3.3773  1.2745 -0.8286
   66MOL0     H 9096   0.058  10.510   3.869  0.6750 -1.4540  2.1236
   66MOL0     H 9097  -0.013  10.558   4.014 -0.3478 -0.9439 -0.9152
   66MOL0     H 9098  -0.066  10.660   3.722  2.6490 -2.9765  0.7812
   66MOL0     H 9099  -0.140  10.733   3.864 -0.0990 -0.0292  0.3746
   66MOL0     H 9100  -0.260  10.547   3.928  1.2469  0.1952  0.7811
   66MOL0     H 9101  -0.291  10.599   3.758  0.7689  0.1160  0.3760
   66MOL0     H 9102  -0.289  10.345   3.793  1.6662 -2.3861 -0.7922
   66MOL0     H 9103  -0.124  10.363   3.850  3.6238  1.0605 -1.9704
   66MOL0     H 9104  -0.081  10.331   3.429 -2.0299  1.4483 -1.7560
   66MOL0     H 9105   0.140  10.653   3.691 -0.1716  1.1555 -0.8424
   66MOL0     H 9106   0.382  10.701   3.447 -2.3904 -0.7749 -1.2368
   66MOL0     H 9107   0.357  10.535   3.483 -0.5330 -0.0206  2.1123
   66MOL0     H 9108   0.215  10.654   3.490 -0.3847  3.4523 -1.1859
   67MOL0     O 9109   2.602   4.538   5.064 -0.1990  0.4562 -0.1228
   67MOL0     C 9110   2.619   4.559   4.946  0.7790 -0.3346 -0.6720
   67MOL0     O 9111   2.528   4.528   4.844 -0.0776 -0.6281 -0.0886
   67MOL0     C 9112   2.397   4.503   4.892  0.0260 -0.2950  0.5345
   67MOL0     C 9113   2.328   4.396   4.833 -0.5881 -0.8465 -0.4395
   67MOL0     C 9114   2.195   4.371   4.863 -0.0889 -0.2903  1.0354
   67MOL0     C 9115   2.121   4.457   4.949 -0.2590 -0.5194  0.1069
   67MOL0     O 9116   1.989   4.429   4.979  0.1015 -0.2406  0.3261
   67MOL0     C 9117   1.890   4.525   4.960  0.5727 -0.0006  0.0768
   67MOL0     C 9118   1.750   4.449   4.994 -0.8112 -0.1429  0.0725
   67MOL0     C 9119   1.633   4.544   4.966  0.7311  0.8418 -0.5082
   67MOL0     C 9120   1.500   4.470   4.952  0.1575 -0.0087 -0.5582
   67MOL0     C 9121   1.373   4.564   4.974 -0.6044 -0.3050 -0.8078
   67MOL0     C 9122   1.242   4.477   4.985  0.1713 -0.1869  0.4578
   67MOL0     C 9123   1.179   4.467   4.842 -0.0787  0.5551 -0.0050
   67MOL0     C 9124   1.047   4.395   4.845 -0.1145  0.6887 -0.0008
   67MOL0     N 9125   1.052   4.253   4.857 -0.5156  0.4227 -0.1830
   67MOL0     C 9126   1.013   4.183   4.973  0.2550  0.3626  0.5703
   67MOL0     C 9127   1.043   4.052   4.937 -0.5328 -0.1069  0.4960
   67MOL0     C 9128   1.013   3.934   5.030 -0.3171 -0.1107  0.6841
   67MOL0     C 9129   0.876   3.942   5.091  0.5762 -0.4143 -0.1528
   67MOL0     C 9130   0.841   3.820   5.176 -0.3422  0.7252 -0.0460
   67MOL0     C 9131   0.730   3.845   5.273  0.7212  0.0650  0.3383
   67MOL0     O 9132   0.775   3.945   5.369 -0.6471 -0.0896 -0.9248
   67MOL0     C 9133   0.711   4.062   5.390 -1.0126  0.0611 -0.6333
   67MOL0     C 9134   0.755   4.139   5.496  0.1001  0.7775 -0.8012
   67MOL0     C 9135   0.699   4.259   5.530 -0.4582 -0.2183 -0.0246
   67MOL0     C 9136   0.745   4.327   5.653  0.9991 -0.0200 -0.1021
   67MOL0     C 9137   0.584   4.305   5.455 -0.4627  0.1702  0.1904
   67MOL0     C 9138   0.503   4.421   5.500  0.4126  0.3070  0.1720
   67MOL0     O 9139   0.373   4.409   5.461  0.4043 -0.8131  0.7239
   67MOL0     C 9140   0.272   4.510   5.472  0.5328 -0.6299 -0.4596
   67MOL0     C 9141   0.145   4.460   5.469  0.4222 -0.2988  1.4295
   67MOL0     C 9142   0.043   4.552   5.481 -0.4056  0.3667 -0.2880
   67MOL0     C 9143   0.056   4.686   5.507  0.0735 -0.6625  0.0559
   67MOL0     O 9144  -0.062   4.746   5.520  0.4750 -0.0752  0.2517
   67MOL0     C 9145  -0.063   4.886   5.537  0.0460 -1.1303 -0.3604
   67MOL0     C 9146  -0.202   4.933   5.554 -1.2082 -0.0567 -1.1768
   67MOL0     C 9147  -0.281   4.900   5.432 -0.3529 -0.7559  0.4869
   67MOL0     C 9148  -0.416   4.980   5.442 -1.0847  0.6643  0.5099
   67MOL0     C 9149  -0.522   4.948   5.333 -1.2574  0.0487  0.5398
   67MOL0     C 9150  -0.643   5.035   5.360 -0.0911 -0.6610 -0.4012
   67MOL0     C 9151  -0.779   4.974   5.315 -0.0343  0.4235  0.7820
   67MOL0     C 9152  -0.894   5.081   5.329  0.1207  0.1441 -0.0366
   67MOL0    Cl 9153  -0.875   5.204   5.209 -0.3649  0.0304 -0.0883
   67MOL0     C 9154   0.182   4.744   5.504 -0.8406  0.8499  0.5876
   67MOL0     C 9155   0.297   4.656   5.477 -0.0953  0.1482 -0.3629
   67MOL0     O 9156   0.555   4.521   5.551  0.4479 -0.6870 -0.1944
   67MOL0     C 9157   0.549   4.223   5.344  0.0736 -0.1724  0.1232
   67MOL0     C 9158   0.608   4.110   5.315  0.1643 -0.1530 -0.1616
   67MOL0     N 9159   1.089   4.048   4.805 -0.6978 -0.3523  0.1204
   67MOL0     N 9160   1.100   4.171   4.763  0.5020 -0.0656 -0.6603
   67MOL0     C 9161   2.189   4.576   5.004  0.3949 -0.3515 -0.1631
   67MOL0     C 9162   2.325   4.594   4.976 -0.6264 -0.0183 -0.3051
   67MOL0     C 9163   2.745   4.614   4.897 -0.0870  0.4357  0.1578
   67MOL0     C 9164   2.743   4.693   4.781  0.1362  0.1074 -0.1920
   67MOL0     C 9165   2.852   4.766   4.738 -0.9934 -0.5005  0.4410
   67MOL0     C 9166   2.970   4.766   4.809  0.2906 -0.1138 -0.3372
   67MOL0     O 9167   3.092   4.825   4.775  0.2913  0.2388  0.3586
   67MOL0     C 9168   3.077   4.943   4.695 -0.3149  0.1191  1.3154
   67MOL0     C 9169   3.007   5.061   4.758  0.1595 -0.1278  0.7928
   67MOL0     C 9170   3.103   5.108   4.878 -0.0163  0.8662  0.3278
   67MOL0     C 9171   3.034   5.232   4.955 -0.7069  0.7198  0.0022
   67MOL0     C 9172   3.138   5.290   5.048 -0.2130  0.6445 -0.2056
   67MOL0     C 9173   3.216   5.342   5.125 -0.8691 -0.1230 -0.0450
   67MOL0     C 9174   2.980   4.678   4.917  0.5006 -0.1832 -0.3512
   67MOL0     C 9175   2.864   4.607   4.971 -1.2224 -0.5492  0.2440
   67MOL0     C 9176   2.880   4.547   5.108  0.0074 -0.6231  0.0131
   67MOL0     H 9177   2.383   4.320   4.779  1.1138  1.4203 -2.1087
   67MOL0     H 9178   2.139   4.286   4.825 -1.6120 -0.6370  3.7542
   67MOL0     H 9179   1.896   4.555   4.855 -1.1801 -0.1140 -0.0891
   67MOL0     H 9180   1.894   4.618   5.018 -3.2001  1.8561 -2.2149
   67MOL0     H 9181   1.760   4.374   4.915 -0.6526  0.4118 -0.4397
   67MOL0     H 9182   1.756   4.405   5.094 -0.6667 -0.7482 -0.1950
   67MOL0     H 9183   1.638   4.606   5.057  1.0175 -1.9263  1.4947
   67MOL0     H 9184   1.645   4.605   4.876 -0.5245 -0.8366 -1.8911
   67MOL0     H 9185   1.496   4.431   4.850  1.6185 -3.8338  0.6779
   67MOL0     H 9186   1.491   4.381   5.014 -1.1855 -0.0142 -0.7303
   67MOL0     H 9187   1.365   4.644   4.900  1.5974 -0.6733 -1.5184
   67MOL0     H 9188   1.375   4.612   5.072  0.7526 -1.2897 -0.3291
   67MOL0     H 9189   1.263   4.380   5.033  3.6762 -0.7493 -1.8023
   67MOL0     H 9190   1.176   4.538   5.048  0.9371  0.6724  0.4495
   67MOL0     H 9191   1.241   4.408   4.774 -0.7554 -0.7942  0.5138
   67MOL0     H 9192   1.154   4.568   4.809 -0.7271  0.3375 -0.2011
   67MOL0     H 9193   0.985   4.433   4.926 -0.0817 -1.9192  1.3440
   67MOL0     H 9194   1.000   4.403   4.747 -0.8591 -0.7561  0.2172
   67MOL0     H 9195   0.960   4.225   5.057  0.0982  2.8441 -0.6436
   67MOL0     H 9196   1.096   3.921   5.099  0.0775  0.2360  0.2806
   67MOL0     H 9197   1.010   3.841   4.973  0.5530  0.4539 -0.3171
   67MOL0     H 9198   0.873   4.019   5.169  1.1749 -1.0928  0.5601
   67MOL0     H 9199   0.799   3.953   5.015  1.5721 -1.2882 -1.3203
   67MOL0     H 9200   0.812   3.735   5.114  0.4002  0.8672 -0.5995
   67MOL0     H 9201   0.928   3.788   5.235 -2.3101 -2.4238  1.4298
   67MOL0     H 9202   0.639   3.876   5.221 -0.4202  1.3591  2.9487
   67MOL0     H 9203   0.708   3.752   5.326  2.8457 -0.3469  0.5698
   67MOL0     H 9204   0.838   4.099   5.553 -1.2223 -0.9346 -0.0106
   67MOL0     H 9205   0.801   4.414   5.618 -0.0919  0.3322 -1.0385
   67MOL0     H 9206   0.798   4.251   5.711 -2.7885 -1.6082  1.5450
   67MOL0     H 9207   0.659   4.350   5.716  1.2141 -0.2903  0.2955
   67MOL0     H 9208   0.129   4.356   5.443  0.5079  0.1511 -0.6192
   67MOL0     H 9209  -0.057   4.511   5.494 -0.5734  0.4065 -1.3960
   67MOL0     H 9210  -0.002   4.921   5.620 -1.3347 -0.2469  0.3227
   67MOL0     H 9211  -0.021   4.930   5.446  0.5430 -1.4065 -0.2663
   67MOL0     H 9212  -0.245   4.886   5.643 -0.1317  2.1705  0.6304
   67MOL0     H 9213  -0.206   5.040   5.576  1.4800 -0.3052  0.9692
   67MOL0     H 9214  -0.297   4.792   5.434  1.6209 -1.0749  0.7319
   67MOL0     H 9215  -0.245   4.938   5.336 -3.2530  0.7345 -0.1282
   67MOL0     H 9216  -0.393   5.087   5.449  1.1020  0.3957 -1.3446
   67MOL0     H 9217  -0.455   4.950   5.540 -1.1856 -0.2903  0.1875
   67MOL0     H 9218  -0.469   4.969   5.239 -0.4053  0.8332  1.1848
   67MOL0     H 9219  -0.564   4.847   5.325  1.2343 -0.9259 -2.5742
   67MOL0     H 9220  -0.635   5.139   5.326 -1.0588  0.2028  1.7898
   67MOL0     H 9221  -0.646   5.046   5.469  3.8211  1.0840 -0.2803
   67MOL0     H 9222  -0.798   4.897   5.390 -1.8619  1.5627  1.5691
   67MOL0     H 9223  -0.767   4.942   5.211 -0.2069 -1.2629  1.2669
   67MOL0     H 9224  -0.872   5.127   5.425  2.6905  2.0309 -1.4207
   67MOL0     H 9225  -0.993   5.035   5.328  1.1194 -2.1703 -1.5462
   67MOL0     H 9226   0.188   4.853   5.504 -1.2948  0.9315 -1.4801
   67MOL0     H 9227   0.393   4.699   5.448 -0.7453  0.3704 -2.3225
   67MOL0     H 9228   0.458   4.244   5.290  0.7161  1.2619 -0.4623
   67MOL0     H 9229   0.564   4.064   5.227 -0.9708 -0.9812  0.8123
   67MOL0     H 9230   2.126   4.652   5.049 -0.9417 -1.1725 -0.5649
   67MOL0     H 9231   2.364   4.677   5.034 -2.5313  0.2358  0.7024
   67MOL0     H 9232   2.645   4.697   4.734  0.4290  0.3788 -0.7811
   67MOL0     H 9233   2.836   4.831   4.652 -0.4312 -0.1938  0.5666
   67MOL0     H 9234   3.180   4.966   4.668  0.2715 -1.5225  1.9926
   67MOL0     H 9235   3.024   4.919   4.602  0.6431  2.1511  0.1845
   67MOL0     H 9236   2.908   5.036   4.797 -0.4934 -0.9390 -1.2562
   67MOL0     H 9237   3.005   5.140   4.682 -0.9557 -0.4842  0.4335
   67MOL0     H 9238   3.144   5.038   4.952 -0.6107 -0.9287 -0.9850
   67MOL0     H 9239   3.191   5.135   4.818 -1.8005  0.6924 -2.5564
   67MOL0     H 9240   2.949   5.202   5.016  1.2370  0.3735  2.7291
   67MOL0     H 9241   3.012   5.316   4.888  2.1106  3.5248  2.2538
   67MOL0     H 9242   3.292   5.380   5.190 -1.2371  0.7295 -0.1102
   67MOL0     H 9243   3.073   4.677   4.972 -0.7484 -0.3880  1.8823
   67MOL0     H 9244   2.984   4.542   5.142 -0.0351  0.4360  0.3205
   67MOL0     H 9245   2.825   4.595   5.189  1.1561 -1.7704  1.5185
   67MOL0     H 9246   2.853   4.441   5.103 -0.7403 -0.5694  2.0142
   68MOL0     O 9247   2.867   3.451   1.998  0.5146 -0.2041  0.8628
   68MOL0     C 9248   2.765   3.496   1.939 -0.7213 -0.1434 -0.2203
   68MOL0     O 9249   2.761   3.558   1.818 -0.5747 -0.3397 -0.5768
   68MOL0     C 9250   2.885   3.558   1.758 -0.6741  0.4130  0.5318
   68MOL0     C 9251   2.979   3.664   1.770  0.1775 -0.2686  0.2111
   68MOL0     C 9252   3.099   3.667   1.693  0.0639 -0.2029 -0.5459
   68MOL0     C 9253   3.124   3.570   1.591 -0.2838 -0.2174  0.3195
   68MOL0     O 9254   3.233   3.569   1.502 -0.6167 -0.6127 -0.5662
   68MOL0     C 9255   3.327   3.677   1.495 -0.4666  0.0871  0.4721
   68MOL0     C 9256   3.450   3.637   1.416 -0.1151  0.2988  0.4673
   68MOL0     C 9257   3.528   3.519   1.484  0.2224 -0.9982  0.4059
   68MOL0     C 9258   3.639   3.457   1.400 -0.0173  0.1310 -0.6153
   68MOL0     C 9259   3.727   3.363   1.479 -0.1369 -0.0570  0.0348
   68MOL0     C 9260   3.832   3.313   1.391  0.1116 -0.0028 -0.3412
   68MOL0     C 9261   3.929   3.209   1.448  0.1696 -1.2045  0.1215
   68MOL0     C 9262   4.008   3.263   1.574  0.4975  0.8959  0.7694
   68MOL0     N 9263   4.113   3.158   1.597  0.5548  0.2272 -0.3290
   68MOL0     C 9264   4.195   3.084   1.505 -0.0742 -0.2577 -0.0115
   68MOL0     C 9265   4.296   3.052   1.582 -0.9319  0.2051  0.4784
   68MOL0     C 9266   4.423   2.986   1.541  0.4351  0.7877 -0.1859
   68MOL0     C 9267   4.518   3.109   1.502  0.2361 -0.3711  0.3192
   68MOL0     C 9268   4.638   3.042   1.441 -0.0780  0.0798 -0.1791
   68MOL0     C 9269   4.718   3.157   1.365 -0.1154  0.2367 -0.2411
   68MOL0     O 9270   4.855   3.122   1.356 -0.8583  0.0412 -0.2427
   68MOL0     C 9271   4.957   3.183   1.424  0.8131  0.1494 -0.0511
   68MOL0     C 9272   4.999   3.145   1.551 -0.2049 -0.6010  0.3906
   68MOL0     C 9273   5.114   3.204   1.607  1.0926  0.8474 -0.0951
   68MOL0     C 9274   5.146   3.146   1.738 -0.4654 -0.1348 -0.3503
   68MOL0     C 9275   5.182   3.311   1.542 -0.0157  0.1561 -0.3246
   68MOL0     C 9276   5.306   3.381   1.585 -0.1197 -0.1147  0.0104
   68MOL0     O 9277   5.328   3.377   1.717 -0.2138 -0.0208  0.0953
   68MOL0     C 9278   5.425   3.469   1.763  0.2972  0.1533  0.9934
   68MOL0     C 9279   5.413   3.601   1.734 -1.0144 -0.3393  0.5990
   68MOL0     C 9280   5.512   3.695   1.766 -1.2522 -0.0880 -0.2680
   68MOL0     C 9281   5.618   3.648   1.847 -0.4013  0.3175 -0.5690
   68MOL0     O 9282   5.705   3.738   1.898  0.5350  0.1592 -0.5506
   68MOL0     C 9283   5.804   3.790   1.810 -0.0690  0.0267  0.1497
   68MOL0     C 9284   5.907   3.684   1.764 -0.2101 -0.4671 -0.4260
   68MOL0     C 9285   6.042   3.740   1.742 -0.1959 -0.2937  0.3177
   68MOL0     C 9286   6.154   3.654   1.682 -0.1632  0.5155  0.4636
   68MOL0     C 9287   6.269   3.739   1.636  0.2536 -0.7177  0.6764
   68MOL0     C 9288   6.401   3.661   1.629  0.7104 -0.3261  0.3821
   68MOL0     C 9289   6.521   3.748   1.589 -0.6400 -0.4291  0.5092
   68MOL0     C 9290   6.652   3.697   1.645  0.2444  0.0910 -0.6502
   68MOL0    Cl 9291   6.789   3.800   1.578  0.1097  0.1525  0.1550
   68MOL0     C 9292   5.628   3.512   1.892 -0.0216 -0.4064  0.0399
   68MOL0     C 9293   5.523   3.428   1.843 -0.3134 -0.4834  1.1029
   68MOL0     O 9294   5.392   3.410   1.498  0.5735  0.4540 -0.4109
   68MOL0     C 9295   5.137   3.357   1.410  0.2855  0.2865 -0.0236
   68MOL0     C 9296   5.026   3.283   1.355  0.4402 -0.0810 -0.5454
   68MOL0     N 9297   4.277   3.083   1.715  1.0147  0.2147 -0.5421
   68MOL0     N 9298   4.169   3.151   1.723  0.5409 -0.1438 -0.4322
   68MOL0     C 9299   3.036   3.457   1.590  0.1229  0.2010  0.1922
   68MOL0     C 9300   2.917   3.459   1.659 -0.0341  0.5652  0.4076
   68MOL0     C 9301   2.638   3.470   2.016  0.7619 -0.9827 -0.7036
   68MOL0     C 9302   2.520   3.490   1.941 -0.7903 -0.5397  0.8031
   68MOL0     C 9303   2.396   3.499   2.000  0.5140  0.1463 -0.1864
   68MOL0     C 9304   2.384   3.458   2.133  0.0127  0.3418  0.9678
   68MOL0     O 9305   2.257   3.450   2.180 -0.2070  0.4532  0.2555
   68MOL0     C 9306   2.229   3.377   2.306  0.1169  0.4427  0.0052
   68MOL0     C 9307   2.089   3.400   2.368  0.2522  0.5948 -0.3418
   68MOL0     C 9308   2.050   3.546   2.379 -0.3225 -0.1334  0.0133
   68MOL0     C 9309   1.957   3.577   2.500  0.1585 -0.7082  0.0664
   68MOL0     C 9310   2.014   3.531   2.630  0.2376  0.0887 -0.0489
   68MOL0     C 9311   2.054   3.462   2.716  0.2436 -0.1519  0.1497
   68MOL0     C 9312   2.500   3.431   2.205 -0.5035  0.2965  0.0948
   68MOL0     C 9313   2.628   3.452   2.155 -1.2103  0.7206  0.0999
   68MOL0     C 9314   2.743   3.426   2.250 -0.4220  0.6575  0.4185
   68MOL0     H 9315   2.963   3.742   1.843  0.6832  1.3571 -1.3464
   68MOL0     H 9316   3.168   3.751   1.703  0.0598 -0.2306 -0.2691
   68MOL0     H 9317   3.364   3.715   1.591 -1.8239  0.2240  0.9647
   68MOL0     H 9318   3.291   3.761   1.435  4.1474  0.3337 -2.4226
   68MOL0     H 9319   3.417   3.599   1.318 -1.2309 -0.3894  1.0917
   68MOL0     H 9320   3.519   3.720   1.398 -1.0695  1.0697  0.2185
   68MOL0     H 9321   3.563   3.559   1.580 -0.8921  0.1160  0.3726
   68MOL0     H 9322   3.456   3.438   1.496 -0.7402 -0.2758 -0.3402
   68MOL0     H 9323   3.596   3.418   1.308  1.3075  0.4540 -1.3939
   68MOL0     H 9324   3.710   3.529   1.359  2.3971 -2.4208 -1.1628
   68MOL0     H 9325   3.673   3.275   1.515 -0.9456  1.7440  3.6667
   68MOL0     H 9326   3.773   3.416   1.563  0.7331 -2.5767  1.2542
   68MOL0     H 9327   3.774   3.255   1.318 -2.1482 -1.5624  2.5164
   68MOL0     H 9328   3.890   3.391   1.340  0.7772 -0.7410 -0.7533
   68MOL0     H 9329   4.000   3.181   1.369  0.1017 -3.4215  0.7827
   68MOL0     H 9330   3.871   3.122   1.478 -1.9747  0.3611  0.7426
   68MOL0     H 9331   4.054   3.360   1.557  0.5429  0.9172  1.0166
   68MOL0     H 9332   3.944   3.266   1.663 -1.7229  1.6998 -0.7597
   68MOL0     H 9333   4.188   3.069   1.398  1.5294  0.9717 -0.3283
   68MOL0     H 9334   4.410   2.927   1.450  0.9384  1.4945 -0.7254
   68MOL0     H 9335   4.463   2.928   1.625  0.2129  3.3832  1.8448
   68MOL0     H 9336   4.475   3.185   1.436  1.4620 -1.2869 -1.6437
   68MOL0     H 9337   4.546   3.147   1.600 -1.3582 -1.6654  1.3230
   68MOL0     H 9338   4.691   2.984   1.516 -1.3552 -3.4318 -1.7764
   68MOL0     H 9339   4.609   2.971   1.363  1.1943  0.1349 -0.7363
   68MOL0     H 9340   4.677   3.168   1.264 -3.5951 -0.7827  0.9221
   68MOL0     H 9341   4.713   3.252   1.419  0.5307 -0.1575  0.5319
   68MOL0     H 9342   4.933   3.074   1.600 -2.2167  0.3781 -0.7681
   68MOL0     H 9343   5.253   3.124   1.751 -0.9599 -2.2924  0.3845
   68MOL0     H 9344   5.099   3.048   1.747  2.0506 -1.5210 -1.1531
   68MOL0     H 9345   5.109   3.219   1.811  0.2606  1.7477 -1.7596
   68MOL0     H 9346   5.330   3.638   1.673  0.7232  1.1205 -0.9871
   68MOL0     H 9347   5.508   3.799   1.737 -0.4758  0.6528  2.0827
   68MOL0     H 9348   5.752   3.829   1.722 -0.4856 -0.2266  0.2788
   68MOL0     H 9349   5.860   3.862   1.870 -3.1090  2.6148  0.1208
   68MOL0     H 9350   5.916   3.605   1.839 -4.8718  0.7347  1.7725
   68MOL0     H 9351   5.869   3.646   1.668 -2.7512  2.4437 -0.7298
   68MOL0     H 9352   6.086   3.791   1.828 -3.0396 -0.7965  2.2161
   68MOL0     H 9353   6.025   3.823   1.672 -0.5306 -0.1883  0.5256
   68MOL0     H 9354   6.117   3.585   1.606 -0.0082  1.3956 -0.4338
   68MOL0     H 9355   6.190   3.588   1.762 -2.2217 -2.5204 -0.9279
   68MOL0     H 9356   6.249   3.790   1.541 -1.2052 -0.2551  1.1912
   68MOL0     H 9357   6.279   3.826   1.702  0.9699 -1.7561  1.9789
   68MOL0     H 9358   6.398   3.580   1.556  0.8709  2.0037 -2.3776
   68MOL0     H 9359   6.413   3.609   1.725 -0.2698 -2.5375 -0.6135
   68MOL0     H 9360   6.500   3.847   1.631 -0.5174 -0.0995 -0.1747
   68MOL0     H 9361   6.535   3.754   1.480  2.5093 -1.1184  0.7815
   68MOL0     H 9362   6.670   3.594   1.614  2.6013  0.0494  0.5763
   68MOL0     H 9363   6.646   3.683   1.753  0.1525 -3.6896 -1.0359
   68MOL0     H 9364   5.699   3.479   1.966  0.8244 -0.8282 -0.9363
   68MOL0     H 9365   5.524   3.322   1.865 -0.3935 -0.1409  2.8952
   68MOL0     H 9366   5.179   3.434   1.346  2.7059  0.4929  1.6808
   68MOL0     H 9367   4.989   3.321   1.261  0.0356 -1.9650 -1.2009
   68MOL0     H 9368   3.073   3.380   1.523 -0.7111 -0.1459  0.1222
   68MOL0     H 9369   2.837   3.388   1.643 -0.3549  0.4950  2.0885
   68MOL0     H 9370   2.529   3.502   1.834 -0.1849  0.0583  0.9111
   68MOL0     H 9371   2.307   3.514   1.940  0.7158  0.0068 -0.5267
   68MOL0     H 9372   2.252   3.270   2.302 -1.0464  0.2101 -0.9029
   68MOL0     H 9373   2.293   3.425   2.381 -1.9961 -0.4068  2.4896
   68MOL0     H 9374   2.094   3.352   2.466 -0.8049  1.2973  0.0650
   68MOL0     H 9375   2.012   3.346   2.311  0.5945 -0.9086  0.5432
   68MOL0     H 9376   2.139   3.609   2.373 -0.0074 -0.5829 -0.0131
   68MOL0     H 9377   1.992   3.575   2.290 -3.7035 -1.4208  1.6063
   68MOL0     H 9378   1.856   3.544   2.477  0.9823 -1.4647 -2.8053
   68MOL0     H 9379   1.948   3.685   2.509 -2.3083 -0.7610 -1.0274
   68MOL0     H 9380   2.096   3.392   2.785  1.9032  0.2335 -0.4273
   68MOL0     H 9381   2.493   3.411   2.312 -0.2842  0.2835  0.1058
   68MOL0     H 9382   2.836   3.480   2.231 -0.4405 -0.0874 -2.1441
   68MOL0     H 9383   2.708   3.439   2.353  0.7800  0.4765  0.8687
   68MOL0     H 9384   2.764   3.319   2.237 -0.3538  1.0164 -4.1731
   69MOL0     O 9385   7.909   1.244   6.782  0.0207 -0.3454 -1.0929
   69MOL0     C 9386   7.861   1.135   6.745  0.0255  0.2341  0.8258
   69MOL0     O 9387   7.927   1.020   6.736  0.4248  0.0444  0.4997
   69MOL0     C 9388   8.054   0.994   6.791 -0.6624  0.0389  0.2002
   69MOL0     C 9389   8.124   1.072   6.892 -0.0179  0.1690 -0.2114
   69MOL0     C 9390   8.248   1.034   6.942  0.0624  0.3213  0.9516
   69MOL0     C 9391   8.319   0.921   6.886 -0.1611  0.0956 -0.5572
   69MOL0     O 9392   8.447   0.874   6.916 -0.1193 -0.7155  0.1638
   69MOL0     C 9393   8.501   0.916   7.046 -0.0276 -0.2292 -0.0935
   69MOL0     C 9394   8.600   1.033   7.021 -0.4540 -0.6266 -0.3338
   69MOL0     C 9395   8.737   0.984   6.992  0.0095  0.0946 -0.6354
   69MOL0     C 9396   8.835   1.087   6.929  0.4203 -0.3374  0.5350
   69MOL0     C 9397   8.976   1.045   6.946  0.2132  0.4229 -0.0921
   69MOL0     C 9398   9.073   1.149   6.892 -0.1394 -0.1201  0.4574
   69MOL0     C 9399   9.209   1.091   6.853  0.5316 -0.4508  0.5103
   69MOL0     C 9400   9.311   1.057   6.964 -0.0410  0.3087 -0.4375
   69MOL0     N 9401   9.357   1.171   7.038  1.3354 -0.3956 -0.3426
   69MOL0     C 9402   9.418   1.283   6.985  0.2421 -0.1226 -0.5015
   69MOL0     C 9403   9.430   1.371   7.086 -0.3900  0.1166 -0.3187
   69MOL0     C 9404   9.486   1.511   7.086  0.1996 -0.9678 -0.6970
   69MOL0     C 9405   9.633   1.526   7.050  0.8573  0.3944 -0.1253
   69MOL0     C 9406   9.728   1.488   7.159  0.6868 -0.1258  0.4471
   69MOL0     C 9407   9.873   1.517   7.113  0.4349  0.5219 -0.7197
   69MOL0     O 9408   9.916   1.423   7.013  0.1383  0.8779  0.5688
   69MOL0     C 9409  10.004   1.473   6.916  0.3213 -0.2686  0.3892
   69MOL0     C 9410  10.119   1.404   6.903 -0.7382 -0.2563  0.3343
   69MOL0     C 9411  10.221   1.432   6.809 -0.2136 -0.0681 -0.1005
   69MOL0     C 9412  10.342   1.355   6.801 -0.2704  0.6564 -0.0821
   69MOL0     C 9413  10.199   1.545   6.726  0.5733 -0.2911  0.6028
   69MOL0     C 9414  10.296   1.601   6.624  0.3318 -0.5132 -0.0570
   69MOL0     O 9415  10.288   1.731   6.595 -0.6061 -0.1134 -0.7725
   69MOL0     C 9416  10.393   1.788   6.524  0.1277  0.4256  0.0423
   69MOL0     C 9417  10.482   1.877   6.588 -0.2325  0.5697  0.4106
   69MOL0     C 9418  10.594   1.930   6.515 -0.9006  0.6226 -0.5124
   69MOL0     C 9419  10.615   1.890   6.392  0.5740 -1.2592  0.3530
   69MOL0     O 9420  10.720   1.927   6.312 -0.5415 -0.5951  0.1166
   69MOL0     C 9421  10.823   2.002   6.375  0.0500 -0.2725 -0.9402
   69MOL0     C 9422  10.938   2.028   6.279 -0.5339  1.1492 -0.0365
   69MOL0     C 9423  11.055   2.111   6.340  0.7573  0.4052 -0.6470
   69MOL0     C 9424  11.167   2.125   6.254 -0.3116  0.5091  0.0572
   69MOL0     C 9425  11.292   2.169   6.323 -1.7537 -0.5131 -0.9621
   69MOL0     C 9426  11.284   2.330   6.344  0.5256  0.3575  0.1717
   69MOL0     C 9427  11.406   2.394   6.415  0.3006 -0.4262 -0.8872
   69MOL0     C 9428  11.440   2.338   6.558  0.3225  0.2305 -0.0255
   69MOL0    Cl 9429  11.308   2.352   6.678 -0.2493 -0.1602 -0.0767
   69MOL0     C 9430  10.513   1.827   6.323  1.2376 -0.2533 -0.4800
   69MOL0     C 9431  10.408   1.772   6.390  0.4832 -0.1784  0.4044
   69MOL0     O 9432  10.372   1.520   6.578 -0.1069  0.0353  0.3681
   69MOL0     C 9433  10.088   1.628   6.752  0.0391  0.0965  0.7833
   69MOL0     C 9434   9.994   1.592   6.844  0.2999  1.3355  0.5534
   69MOL0     N 9435   9.373   1.318   7.198 -0.3720  0.5008 -0.6112
   69MOL0     N 9436   9.315   1.208   7.167  0.6360  0.1586  0.2594
   69MOL0     C 9437   8.257   0.856   6.787  1.0623  0.4033  0.5964
   69MOL0     C 9438   8.128   0.891   6.742 -1.0747 -0.4515 -0.3720
   69MOL0     C 9439   7.715   1.129   6.728  0.0428  0.6707  0.1245
   69MOL0     C 9440   7.651   1.254   6.695  0.1767 -0.0787  0.4989
   69MOL0     C 9441   7.512   1.250   6.680 -0.0179 -0.0248 -0.1549
   69MOL0     C 9442   7.434   1.136   6.714 -0.0985  0.5253  0.8498
   69MOL0     O 9443   7.296   1.143   6.704 -0.4918  0.5748 -0.4878
   69MOL0     C 9444   7.214   1.027   6.718 -0.0683 -0.8907 -0.0089
   69MOL0     C 9445   7.068   1.060   6.744  0.1514 -1.3147 -0.1951
   69MOL0     C 9446   6.975   0.935   6.754 -0.9742 -0.5562 -0.2529
   69MOL0     C 9447   7.020   0.815   6.672  0.1880  0.1304 -0.8980
   69MOL0     C 9448   6.941   0.699   6.719 -0.0578 -0.8005  0.0342
   69MOL0     C 9449   6.872   0.602   6.759  0.8290  0.3743  0.6066
   69MOL0     C 9450   7.498   1.017   6.731  0.5070  0.1927  0.0514
   69MOL0     C 9451   7.638   1.011   6.732 -0.1158 -0.8537 -0.5053
   69MOL0     C 9452   7.700   0.875   6.761 -0.4172 -0.8375  1.0678
   69MOL0     H 9453   8.071   1.156   6.934 -0.8440 -0.6177  0.3420
   69MOL0     H 9454   8.289   1.096   7.021  1.7184  0.5254 -0.0196
   69MOL0     H 9455   8.531   0.824   7.098 -0.3810 -0.9352 -1.0997
   69MOL0     H 9456   8.425   0.949   7.117  0.2525 -0.4975  0.3373
   69MOL0     H 9457   8.568   1.097   6.938 -0.8902  1.4285  1.3411
   69MOL0     H 9458   8.613   1.095   7.110 -1.1061  1.6592 -1.7105
   69MOL0     H 9459   8.776   0.949   7.087 -3.1580 -1.4811  0.2191
   69MOL0     H 9460   8.724   0.894   6.932  0.4656 -1.2596  1.2218
   69MOL0     H 9461   8.824   1.092   6.820  4.1720 -1.6229 -0.0657
   69MOL0     H 9462   8.819   1.188   6.967  1.4023 -0.0905  0.3310
   69MOL0     H 9463   8.986   0.941   6.915  0.0176  0.0937  0.8918
   69MOL0     H 9464   9.007   1.034   7.050 -1.5838  1.8978  0.6732
   69MOL0     H 9465   9.034   1.204   6.806 -1.0336  1.8906  2.0655
   69MOL0     H 9466   9.082   1.222   6.973  0.9011  1.3547 -0.9225
   69MOL0     H 9467   9.252   1.165   6.785 -0.7864 -0.3788 -0.2834
   69MOL0     H 9468   9.185   1.004   6.792 -0.8322  2.0232 -2.7820
   69MOL0     H 9469   9.277   0.971   7.024 -0.2696  1.2345  0.8076
   69MOL0     H 9470   9.404   1.019   6.922  0.8130  1.2456  0.5437
   69MOL0     H 9471   9.453   1.298   6.884 -0.4106 -0.8088 -0.8415
   69MOL0     H 9472   9.459   1.557   7.181  1.3049  4.6851 -2.7511
   69MOL0     H 9473   9.429   1.583   7.027 -0.7743  0.9721  2.3971
   69MOL0     H 9474   9.647   1.455   6.967  1.6705  1.0525 -0.5699
   69MOL0     H 9475   9.654   1.627   7.014 -1.3954  1.4957  1.4102
   69MOL0     H 9476   9.700   1.549   7.246 -1.6350 -0.8187  0.2568
   69MOL0     H 9477   9.709   1.385   7.190  2.1447 -0.3275  0.7226
   69MOL0     H 9478   9.876   1.621   7.079  0.6670  0.1094 -2.0070
   69MOL0     H 9479   9.943   1.498   7.195  1.4332 -2.8559 -2.2018
   69MOL0     H 9480  10.137   1.313   6.960 -0.6578  0.5552  1.6405
   69MOL0     H 9481  10.331   1.287   6.716  4.7036 -0.7911  0.1079
   69MOL0     H 9482  10.358   1.291   6.888  1.7919 -0.8608 -1.4812
   69MOL0     H 9483  10.431   1.416   6.784  0.0905 -0.3711 -2.1415
   69MOL0     H 9484  10.463   1.879   6.695  2.4999 -4.6798  1.3224
   69MOL0     H 9485  10.666   1.974   6.583 -0.9224 -0.3169  0.1327
   69MOL0     H 9486  10.789   2.099   6.413  1.8030  0.0776 -0.1852
   69MOL0     H 9487  10.859   1.943   6.460  1.0222 -0.2660 -1.3386
   69MOL0     H 9488  10.975   1.933   6.241 -0.7454  0.4555  1.4311
   69MOL0     H 9489  10.904   2.087   6.194  1.0827  2.3261  0.0798
   69MOL0     H 9490  11.089   2.052   6.426 -4.0471 -2.8859 -0.6247
   69MOL0     H 9491  11.020   2.208   6.375  1.2222 -0.2694  1.8922
   69MOL0     H 9492  11.148   2.183   6.164  0.6396  1.8575  0.6862
   69MOL0     H 9493  11.198   2.028   6.214 -0.7205  1.5354 -2.9671
   69MOL0     H 9494  11.306   2.110   6.414 -2.7941  1.5031  0.6092
   69MOL0     H 9495  11.381   2.153   6.262 -0.5949 -4.1268  1.4137
   69MOL0     H 9496  11.193   2.348   6.401 -0.1349 -0.0967 -0.7068
   69MOL0     H 9497  11.264   2.390   6.254  3.4931  0.9478 -0.1979
   69MOL0     H 9498  11.369   2.496   6.430 -3.2408 -1.8999  2.0388
   69MOL0     H 9499  11.488   2.395   6.343 -0.3271 -1.4264 -1.6479
   69MOL0     H 9500  11.523   2.388   6.606  1.3976 -0.9460 -0.5968
   69MOL0     H 9501  11.470   2.234   6.542  0.3510  0.1687  0.4205
   69MOL0     H 9502  10.526   1.799   6.219  0.3538 -1.8040 -0.1954
   69MOL0     H 9503  10.353   1.698   6.332  0.5696 -0.2459  0.4084
   69MOL0     H 9504  10.083   1.720   6.694  1.0408 -0.1754  0.2327
   69MOL0     H 9505   9.918   1.669   6.855  0.8401  1.9122  0.2862
   69MOL0     H 9506   8.302   0.769   6.740  2.7178  0.2565  2.3298
   69MOL0     H 9507   8.089   0.821   6.669  0.6586 -0.2428 -1.5635
   69MOL0     H 9508   7.712   1.344   6.691 -1.2127  1.0749  2.8807
   69MOL0     H 9509   7.472   1.350   6.665  1.6604  0.2783 -3.2525
   69MOL0     H 9510   7.225   0.970   6.626  1.0630 -0.6068 -0.0707
   69MOL0     H 9511   7.249   0.968   6.803  1.4453  0.7250  0.5649
   69MOL0     H 9512   7.036   1.116   6.655 -1.2686 -0.1805  0.9822
   69MOL0     H 9513   7.065   1.124   6.832 -0.3153  0.1229 -1.2209
   69MOL0     H 9514   6.968   0.917   6.862 -2.6413 -0.1889 -0.2848
   69MOL0     H 9515   6.877   0.968   6.719 -0.9117  1.3299  1.2361
   69MOL0     H 9516   7.126   0.793   6.689 -0.5661 -0.9386  3.4662
   69MOL0     H 9517   6.991   0.838   6.569  2.2633 -1.5593 -1.9515
   69MOL0     H 9518   6.818   0.512   6.784  0.8411 -0.1158 -1.0184
   69MOL0     H 9519   7.441   0.927   6.750  1.5434  0.0012  2.7348
   69MOL0     H 9520   7.757   0.840   6.675  1.5483  4.4731 -0.1722
   69MOL0     H 9521   7.764   0.878   6.850 -1.4002 -0.6353  1.7889
   69MOL0     H 9522   7.622   0.799   6.771 -1.7176  0.6770  3.2588
   70MOL0     O 9523   1.211   9.142   1.133 -0.3235  0.4346 -0.0504
   70MOL0     C 9524   1.108   9.177   1.187  1.0433  0.6061 -0.9424
   70MOL0     O 9525   1.099   9.264   1.301 -0.4113  0.5410  0.0921
   70MOL0     C 9526   1.221   9.320   1.340 -0.2678  0.0510 -0.1730
   70MOL0     C 9527   1.263   9.447   1.314  0.5075 -0.6763  0.2230
   70MOL0     C 9528   1.391   9.498   1.349 -0.5625  0.4620  0.6505
   70MOL0     C 9529   1.487   9.411   1.402  0.3933 -0.4660  0.9774
   70MOL0     O 9530   1.617   9.448   1.430 -0.0096 -0.0249  0.0438
   70MOL0     C 9531   1.690   9.508   1.322  0.3473  0.2052  0.8802
   70MOL0     C 9532   1.696   9.657   1.323 -0.3830 -0.1472  0.6349
   70MOL0     C 9533   1.726   9.719   1.185 -0.1101 -0.5401  0.6447
   70MOL0     C 9534   1.883   9.742   1.170  0.0201  0.7798  0.1698
   70MOL0     C 9535   1.930   9.802   1.036 -0.1087  0.1934  1.0454
   70MOL0     C 9536   1.877   9.730   0.916 -0.0597 -0.3914 -0.2867
   70MOL0     C 9537   1.888   9.817   0.790  0.1068 -0.1922 -0.1465
   70MOL0     C 9538   1.812   9.762   0.678  0.9899  0.3786 -0.6308
   70MOL0     N 9539   1.849   9.838   0.563  0.1892 -0.3252 -0.1719
   70MOL0     C 9540   1.801   9.968   0.540 -0.4476  0.0266  0.9683
   70MOL0     C 9541   1.857   9.999   0.418 -0.2836 -0.0969 -0.2001
   70MOL0     C 9542   1.828  10.124   0.340 -0.0025  0.3322 -0.5929
   70MOL0     C 9543   1.940  10.220   0.373 -0.1393 -1.1001 -0.3696
   70MOL0     C 9544   1.887  10.365   0.386  0.0019 -0.0497  0.1445
   70MOL0     C 9545   1.835  10.440   0.267 -0.1668  0.2380  0.3680
   70MOL0     O 9546   1.701  10.384   0.234  0.2944 -0.5042  0.5427
   70MOL0     C 9547   1.603  10.466   0.179 -0.6964 -1.3904 -0.2758
   70MOL0     C 9548   1.640  10.582   0.101  0.3259  0.7060  0.6122
   70MOL0     C 9549   1.544  10.644   0.020 -0.1163 -0.1538  1.0585
   70MOL0     C 9550   1.601  10.762  -0.066  0.2605  0.3286  0.0348
   70MOL0     C 9551   1.403  10.613   0.025 -1.3204  0.1747 -0.1502
   70MOL0     C 9552   1.303  10.665  -0.065  0.0626 -0.2269 -0.4780
   70MOL0     O 9553   1.185  10.588  -0.085 -0.1663  0.2196 -0.8500
   70MOL0     C 9554   1.083  10.633  -0.170 -0.1286 -0.2099 -1.2621
   70MOL0     C 9555   0.976  10.700  -0.105 -0.9622  0.8781 -0.7504
   70MOL0     C 9556   0.871  10.752  -0.174  0.1847 -0.2447  0.2845
   70MOL0     C 9557   0.870  10.741  -0.316 -0.9116  0.0890 -1.2440
   70MOL0     O 9558   0.778  10.804  -0.384  0.5398  0.1606  0.3889
   70MOL0     C 9559   0.643  10.816  -0.324 -0.1968  0.4826 -0.2452
   70MOL0     C 9560   0.546  10.873  -0.429 -0.5774 -0.2390  0.3514
   70MOL0     C 9561   0.396  10.853  -0.402 -0.5307  0.0928 -0.7026
   70MOL0     C 9562   0.311  10.905  -0.521 -0.1067 -0.2650  0.3695
   70MOL0     C 9563   0.166  10.854  -0.519  0.6890 -0.1707  0.5275
   70MOL0     C 9564   0.082  10.967  -0.456 -0.5447 -1.2130  0.4769
   70MOL0     C 9565  -0.078  10.951  -0.448  0.6886  0.5410 -0.0526
   70MOL0     C 9566  -0.137  10.952  -0.597 -0.3129  0.0139 -0.3614
   70MOL0    Cl 9567  -0.103  10.805  -0.696 -0.4267 -0.2286  0.3811
   70MOL0     C 9568   0.969  10.669  -0.383 -0.9048 -0.0717 -0.6487
   70MOL0     C 9569   1.081  10.614  -0.313 -0.1663  1.1495  0.8984
   70MOL0     O 9570   1.315  10.786  -0.091 -0.1740 -0.5565 -0.0147
   70MOL0     C 9571   1.371  10.511   0.119  0.9972  0.2514 -0.1549
   70MOL0     C 9572   1.467  10.430   0.185 -0.4045 -0.1263  0.0661
   70MOL0     N 9573   1.928   9.892   0.375  0.0791  0.2929 -0.0524
   70MOL0     N 9574   1.926   9.800   0.467 -0.2796 -0.3954 -0.4608
   70MOL0     C 9575   1.453   9.277   1.418  0.2476  0.0632 -0.9555
   70MOL0     C 9576   1.315   9.233   1.395 -0.1232  0.6164  0.1905
   70MOL0     C 9577   0.986   9.097   1.146  0.6173  1.1281 -0.0616
   70MOL0     C 9578   0.970   9.056   1.005 -0.4853 -0.0873 -1.1972
   70MOL0     C 9579   0.856   8.991   0.965  0.6754 -0.0755  0.3225
   70MOL0     C 9580   0.755   8.956   1.050  0.4073 -0.3720  0.0436
   70MOL0     O 9581   0.635   8.901   1.012 -0.8082 -0.2098 -0.2643
   70MOL0     C 9582   0.635   8.760   0.984 -0.5087  1.0255  0.1600
   70MOL0     C 9583   0.502   8.712   1.028  0.2165  0.2371 -1.0865
   70MOL0     C 9584   0.489   8.721   1.181 -0.6445 -0.4706  0.5011
   70MOL0     C 9585   0.344   8.722   1.232  0.4345  0.0373 -0.0648
   70MOL0     C 9586   0.285   8.596   1.212 -0.4654  0.2128  0.0744
   70MOL0     C 9587   0.245   8.491   1.180  0.2575 -0.0689  0.2000
   70MOL0     C 9588   0.769   8.995   1.179  0.8352  0.2916 -0.2942
   70MOL0     C 9589   0.876   9.061   1.226  0.0397 -0.3231 -0.1503
   70MOL0     C 9590   0.879   9.098   1.372  0.1780 -0.3417 -0.0584
   70MOL0     H 9591   1.195   9.518   1.269  1.5371  0.2259  0.0348
   70MOL0     H 9592   1.405   9.604   1.327 -1.1282  0.1586 -1.4422
   70MOL0     H 9593   1.649   9.471   1.228  3.4645  0.2204 -0.6209
   70MOL0     H 9594   1.795   9.478   1.321  0.8055  1.7291 -0.3004
   70MOL0     H 9595   1.603   9.695   1.367 -1.9413 -0.5710 -2.0992
   70MOL0     H 9596   1.776   9.687   1.392  0.0168 -2.6397  1.3574
   70MOL0     H 9597   1.676   9.658   1.110 -1.6339  1.5619 -0.1264
   70MOL0     H 9598   1.677   9.817   1.178  0.5217 -0.3411 -1.7867
   70MOL0     H 9599   1.903   9.804   1.258 -1.0425 -3.3553  3.6673
   70MOL0     H 9600   1.933   9.647   1.188 -1.1922 -0.0389 -0.5881
   70MOL0     H 9601   2.039   9.801   1.032 -0.1467 -1.3335 -0.8225
   70MOL0     H 9602   1.886   9.902   1.048 -0.6259  0.0162  0.6169
   70MOL0     H 9603   1.951   9.652   0.896  1.5664  0.9678  0.1545
   70MOL0     H 9604   1.772   9.699   0.918 -1.1343  2.7018 -1.8926
   70MOL0     H 9605   1.994   9.819   0.764  0.4741 -1.7563  1.1266
   70MOL0     H 9606   1.838   9.912   0.813  0.0676 -0.2948  0.1995
   70MOL0     H 9607   1.854   9.665   0.651 -2.2170 -1.0124 -1.0940
   70MOL0     H 9608   1.704   9.749   0.689  0.6310  3.3741  0.4424
   70MOL0     H 9609   1.744  10.039   0.600 -1.0598  0.4866 -0.1307
   70MOL0     H 9610   1.734  10.166   0.376  0.8078  0.8450  1.0034
   70MOL0     H 9611   1.817  10.108   0.232 -2.8584 -2.9991  0.0228
   70MOL0     H 9612   1.986  10.201   0.471  0.7367 -1.9516 -0.9266
   70MOL0     H 9613   2.009  10.228   0.289 -0.5066 -2.0188 -0.7659
   70MOL0     H 9614   1.809  10.364   0.463  0.5741 -0.8703  0.7234
   70MOL0     H 9615   1.967  10.431   0.420 -0.3001  0.6627 -0.4988
   70MOL0     H 9616   1.826  10.544   0.299 -0.1407  0.1033  0.8171
   70MOL0     H 9617   1.896  10.444   0.176 -3.3839  1.3934 -1.9424
   70MOL0     H 9618   1.740  10.625   0.097  0.3464  0.5978 -0.5977
   70MOL0     H 9619   1.578  10.856  -0.015  2.5314  0.0460  1.7561
   70MOL0     H 9620   1.550  10.774  -0.161 -1.9699  1.7632  1.3193
   70MOL0     H 9621   1.708  10.762  -0.091  0.0276  1.3865 -1.0428
   70MOL0     H 9622   0.979  10.695   0.003 -0.9746  1.0806 -0.7398
   70MOL0     H 9623   0.799  10.808  -0.115  0.6435  1.1946 -0.4796
   70MOL0     H 9624   0.606  10.715  -0.304 -0.6508  0.1940 -2.4007
   70MOL0     H 9625   0.643  10.880  -0.235 -1.4740 -0.1311  0.2119
   70MOL0     H 9626   0.582  10.974  -0.453 -0.5714  0.1900  2.0435
   70MOL0     H 9627   0.556  10.820  -0.525 -1.7783 -2.8271  1.5705
   70MOL0     H 9628   0.373  10.901  -0.307 -1.5279 -0.7322 -0.5209
   70MOL0     H 9629   0.374  10.750  -0.372 -1.1962  0.5629  0.4767
   70MOL0     H 9630   0.360  10.856  -0.605  1.5332  0.5782  0.7906
   70MOL0     H 9631   0.304  11.013  -0.535 -1.4804 -0.5456 -1.3979
   70MOL0     H 9632   0.132  10.824  -0.618 -0.8791 -1.6398  1.4582
   70MOL0     H 9633   0.160  10.760  -0.464 -0.5749 -0.2983  0.2116
   70MOL0     H 9634   0.099  11.060  -0.511  2.3737 -1.2052  1.2456
   70MOL0     H 9635   0.113  10.985  -0.353 -2.2855 -0.0643  0.8599
   70MOL0     H 9636  -0.125  11.034  -0.394 -1.1994  0.2570 -1.1787
   70MOL0     H 9637  -0.095  10.853  -0.403  0.7269  0.9257  0.8127
   70MOL0     H 9638  -0.087  11.034  -0.649 -2.7253  1.3707 -0.7070
   70MOL0     H 9639  -0.243  10.977  -0.592 -0.4683 -0.8408  1.6947
   70MOL0     H 9640   0.974  10.666  -0.491  1.2226 -1.2788 -0.5941
   70MOL0     H 9641   1.158  10.555  -0.361 -2.9683 -2.9808  0.9940
   70MOL0     H 9642   1.273  10.467   0.102  1.7323 -2.5853  2.0607
   70MOL0     H 9643   1.447  10.344   0.250 -3.6095 -1.0014 -1.8752
   70MOL0     H 9644   1.526   9.212   1.467  0.3079  0.4418 -0.5395
   70MOL0     H 9645   1.291   9.128   1.399  0.6961  0.1266 -3.7765
   70MOL0     H 9646   1.044   9.086   0.931  2.7693  1.3305  2.2666
   70MOL0     H 9647   0.834   8.963   0.862 -3.6380  0.9178  0.7812
   70MOL0     H 9648   0.650   8.736   0.878  2.5017  1.1917  0.4777
   70MOL0     H 9649   0.719   8.715   1.037  0.3355  0.3507 -1.6630
   70MOL0     H 9650   0.494   8.605   1.004  0.7330  0.2610 -1.3769
   70MOL0     H 9651   0.435   8.779   0.974 -0.6304  0.2872 -0.0210
   70MOL0     H 9652   0.542   8.634   1.222 -1.1864 -1.1864 -0.2756
   70MOL0     H 9653   0.554   8.798   1.223  0.9488 -0.6220 -1.5548
   70MOL0     H 9654   0.290   8.807   1.188  0.6671  0.5965  0.7001
   70MOL0     H 9655   0.354   8.731   1.341 -1.1075  0.1964  0.0894
   70MOL0     H 9656   0.207   8.395   1.152 -3.3639  1.6536 -1.3754
   70MOL0     H 9657   0.684   8.974   1.243  1.5956 -1.0388  0.3251
   70MOL0     H 9658   0.819   9.019   1.417  0.5712 -0.8849 -0.4780
   70MOL0     H 9659   0.979   9.088   1.415  0.3334 -2.9318 -0.8541
   70MOL0     H 9660   0.839   9.197   1.396 -0.8383 -0.4653 -1.1977
   71MOL0     O 9661  10.745   2.504   0.537  0.3382 -0.5422 -0.4543
   71MOL0     C 9662  10.653   2.420   0.528 -0.6594  0.2932  0.5095
   71MOL0     O 9663  10.665   2.290   0.494  0.1826  0.6481 -0.6132
   71MOL0     C 9664  10.789   2.234   0.482 -0.9174 -0.1511 -0.6093
   71MOL0     C 9665  10.818   2.172   0.364 -0.6345 -0.5835  0.0014
   71MOL0     C 9666  10.945   2.115   0.341  0.1867 -0.0501 -0.5329
   71MOL0     C 9667  11.042   2.119   0.441 -0.3058  0.9041 -0.0355
   71MOL0     O 9668  11.166   2.068   0.404 -0.2634 -0.1996 -0.0685
   71MOL0     C 9669  11.256   2.027   0.508  0.6275 -0.4979  0.3815
   71MOL0     C 9670  11.348   1.921   0.442  0.0354  0.0104 -0.2657
   71MOL0     C 9671  11.468   1.907   0.539  0.6531 -0.4037  0.0585
   71MOL0     C 9672  11.577   1.827   0.469  0.6833  0.3164 -0.2595
   71MOL0     C 9673  11.666   1.920   0.382  0.9408 -0.0380 -1.3999
   71MOL0     C 9674  11.795   1.855   0.336 -0.8129 -0.7020  0.4077
   71MOL0     C 9675  11.885   1.945   0.261 -1.0861  0.2197  0.1604
   71MOL0     C 9676  11.850   1.957   0.109 -0.2033  0.3921  0.3050
   71MOL0     N 9677  11.953   2.022   0.026 -0.2866  0.1918 -0.3374
   71MOL0     C 9678  12.054   1.954  -0.034 -0.8465  0.0441 -0.4179
   71MOL0     C 9679  12.140   2.043  -0.088 -0.4320 -0.0619  0.5937
   71MOL0     C 9680  12.269   2.025  -0.162  0.0357  0.5321  0.3149
   71MOL0     C 9681  12.257   2.051  -0.315  0.2102 -0.0127  0.0685
   71MOL0     C 9682  12.404   2.046  -0.369 -0.3885  0.4422  0.1117
   71MOL0     C 9683  12.401   2.092  -0.512 -0.6984 -0.0847 -0.0053
   71MOL0     O 9684  12.403   2.234  -0.504  0.1625 -0.0970  0.4700
   71MOL0     C 9685  12.391   2.308  -0.625 -0.1231 -0.3269  0.6027
   71MOL0     C 9686  12.374   2.250  -0.748  0.6503 -0.5970 -0.7126
   71MOL0     C 9687  12.336   2.326  -0.854  0.2614  0.1215 -0.4220
   71MOL0     C 9688  12.296   2.244  -0.978  0.1166  0.7674 -0.1568
   71MOL0     C 9689  12.329   2.463  -0.841  0.4348 -0.7097 -0.6649
   71MOL0     C 9690  12.274   2.554  -0.943  0.3933  0.4123  0.6236
   71MOL0     O 9691  12.196   2.504  -1.043 -0.2224 -0.7282 -0.3190
   71MOL0     C 9692  12.166   2.583  -1.155  0.0338  1.2256 -0.8209
   71MOL0     C 9693  12.269   2.618  -1.238 -0.3228  0.0140 -0.0044
   71MOL0     C 9694  12.243   2.695  -1.348  0.0502  0.2040  0.7653
   71MOL0     C 9695  12.111   2.729  -1.380  0.7956  0.4051 -0.0017
   71MOL0     O 9696  12.095   2.785  -1.503 -0.1907 -0.3355 -0.2110
   71MOL0     C 9697  12.055   2.920  -1.501 -0.2435 -0.0688  0.5398
   71MOL0     C 9698  12.064   2.980  -1.643  0.7592  0.1868 -0.5700
   71MOL0     C 9699  12.210   2.978  -1.693  0.0496  0.8032  0.0753
   71MOL0     C 9700  12.221   2.991  -1.850  0.1721 -0.5397 -0.0318
   71MOL0     C 9701  12.376   2.977  -1.890 -0.7264 -0.1760  0.3422
   71MOL0     C 9702  12.405   2.995  -2.046 -0.3382  0.7429 -0.2184
   71MOL0     C 9703  12.563   2.994  -2.063  0.1149 -0.4225  0.0341
   71MOL0     C 9704  12.631   2.864  -2.030  0.4453  0.3060  0.3303
   71MOL0    Cl 9705  12.536   2.729  -2.106 -0.0365 -0.5178  0.1601
   71MOL0     C 9706  12.007   2.685  -1.298 -0.0243 -0.6879  0.1508
   71MOL0     C 9707  12.033   2.618  -1.182 -0.8418  0.5033 -0.1229
   71MOL0     O 9708  12.296   2.676  -0.931 -0.2349  0.2879  0.6521
   71MOL0     C 9709  12.346   2.528  -0.717 -0.3645 -0.6559 -0.0524
   71MOL0     C 9710  12.379   2.448  -0.612 -0.7295  0.0227  0.4415
   71MOL0     N 9711  12.100   2.163  -0.045 -0.1036 -0.6628 -0.1850
   71MOL0     N 9712  11.984   2.153   0.016  0.6407  0.3956 -0.1303
   71MOL0     C 9713  11.009   2.187   0.558 -0.3437 -0.3920  0.2976
   71MOL0     C 9714  10.881   2.245   0.584  0.2863 -0.2031 -0.0492
   71MOL0     C 9715  10.507   2.464   0.541  0.0744  0.5400  0.4579
   71MOL0     C 9716  10.490   2.580   0.614 -0.5821 -0.3824  0.2943
   71MOL0     C 9717  10.359   2.633   0.628  0.3721  0.7204 -0.4883
   71MOL0     C 9718  10.243   2.568   0.570 -0.8370  0.3252  0.2830
   71MOL0     O 9719  10.114   2.615   0.560 -0.0471  0.1269  0.0962
   71MOL0     C 9720  10.070   2.717   0.649 -0.7853  0.6602 -0.0297
   71MOL0     C 9721   9.934   2.760   0.589 -0.2084  0.9435  0.2750
   71MOL0     C 9722   9.867   2.873   0.660 -0.5732  1.0954 -0.6060
   71MOL0     C 9723   9.734   2.916   0.588 -0.4965  0.0420  0.1633
   71MOL0     C 9724   9.627   2.977   0.672  0.1045  0.2440  0.2537
   71MOL0     C 9725   9.574   3.049   0.752  0.3978  0.3354 -0.3196
   71MOL0     C 9726  10.263   2.444   0.501 -0.9693 -0.1414 -0.2014
   71MOL0     C 9727  10.393   2.385   0.492 -0.1785  0.0409  0.2721
   71MOL0     C 9728  10.396   2.251   0.409 -0.0532  0.2683 -0.4114
   71MOL0     H 9729  10.744   2.148   0.288 -0.5104  0.0332 -0.3152
   71MOL0     H 9730  10.976   2.064   0.251  1.2998 -1.6620  0.6917
   71MOL0     H 9731  11.205   1.989   0.597  0.4594  0.8006  0.8637
   71MOL0     H 9732  11.321   2.111   0.536 -0.6026  1.0653 -1.2608
   71MOL0     H 9733  11.296   1.826   0.426 -1.0109  0.4247  0.4917
   71MOL0     H 9734  11.376   1.961   0.344  1.4082 -1.9304 -0.7313
   71MOL0     H 9735  11.488   2.007   0.577 -0.8587 -0.4881  1.1908
   71MOL0     H 9736  11.444   1.850   0.630 -1.6177  2.9149  1.7415
   71MOL0     H 9737  11.630   1.772   0.547 -2.6874  1.2613  3.0329
   71MOL0     H 9738  11.538   1.751   0.401  2.0330 -0.5612 -0.0753
   71MOL0     H 9739  11.695   2.002   0.449 -0.8019 -0.2809 -0.2847
   71MOL0     H 9740  11.600   1.962   0.305 -2.0993 -0.4542  0.8000
   71MOL0     H 9741  11.843   1.805   0.421 -0.7405  3.8348  3.3921
   71MOL0     H 9742  11.763   1.776   0.267  0.1810  0.1630 -1.1131
   71MOL0     H 9743  11.987   1.907   0.272 -2.0014 -2.6820 -0.5507
   71MOL0     H 9744  11.888   2.044   0.307 -0.4947  0.7759 -1.0171
   71MOL0     H 9745  11.857   1.857   0.065  0.7355  1.2843 -1.6863
   71MOL0     H 9746  11.753   2.005   0.088 -1.5775 -2.9561 -1.7879
   71MOL0     H 9747  12.065   1.848  -0.055  0.1615  0.4082 -1.9310
   71MOL0     H 9748  12.309   1.924  -0.144 -1.9545 -0.6846 -1.6014
   71MOL0     H 9749  12.334   2.095  -0.108 -2.3836  2.9378  0.3141
   71MOL0     H 9750  12.196   1.976  -0.366  0.4673 -0.1409 -0.0499
   71MOL0     H 9751  12.212   2.150  -0.332 -0.5576 -0.5850 -1.4160
   71MOL0     H 9752  12.460   2.112  -0.302  1.5000  2.6188 -3.3241
   71MOL0     H 9753  12.444   1.945  -0.362 -0.8042  0.0292 -2.5689
   71MOL0     H 9754  12.493   2.060  -0.561 -1.5976 -1.5981 -0.7835
   71MOL0     H 9755  12.318   2.048  -0.568  0.1459 -0.1843 -1.2124
   71MOL0     H 9756  12.382   2.143  -0.764 -0.5793 -1.2447  2.2488
   71MOL0     H 9757  12.364   2.158  -0.978 -3.0328 -1.9310 -1.4458
   71MOL0     H 9758  12.302   2.287  -1.078 -2.9160 -0.3756 -0.9209
   71MOL0     H 9759  12.197   2.202  -0.962  1.1194 -1.2349  1.1837
   71MOL0     H 9760  12.366   2.571  -1.222 -0.1959  1.1383  3.5137
   71MOL0     H 9761  12.318   2.728  -1.419 -0.2949 -2.8472 -1.1809
   71MOL0     H 9762  11.951   2.916  -1.466 -0.9454 -1.5816 -1.5660
   71MOL0     H 9763  12.120   2.975  -1.432 -0.7181  0.0611  0.8976
   71MOL0     H 9764  11.987   2.934  -1.706 -1.6069  0.0926  2.1695
   71MOL0     H 9765  12.036   3.084  -1.627  3.5797  0.8288  0.8390
   71MOL0     H 9766  12.253   2.884  -1.659 -0.6206 -0.0923 -1.4632
   71MOL0     H 9767  12.257   3.056  -1.632 -3.4462  2.7506  0.5920
   71MOL0     H 9768  12.184   3.086  -1.892 -0.5599 -1.6285 -2.0100
   71MOL0     H 9769  12.171   2.911  -1.905 -2.0779  1.1254 -0.5836
   71MOL0     H 9770  12.421   3.060  -1.834 -0.3790  0.0449 -0.2514
   71MOL0     H 9771  12.430   2.888  -1.857  1.5230  0.7646 -0.6332
   71MOL0     H 9772  12.362   3.084  -2.093 -2.0954 -0.4461 -0.9916
   71MOL0     H 9773  12.362   2.908  -2.097 -4.1486  0.2031  3.3924
   71MOL0     H 9774  12.611   3.074  -2.007  2.0267 -1.1772 -0.4501
   71MOL0     H 9775  12.588   3.016  -2.167 -1.4491 -1.5720 -0.6144
   71MOL0     H 9776  12.639   2.847  -1.922  2.2020  1.1682  0.3801
   71MOL0     H 9777  12.732   2.861  -2.074  0.8776  2.7003  0.9910
   71MOL0     H 9778  11.905   2.695  -1.332  0.6601 -0.2863 -1.9147
   71MOL0     H 9779  11.952   2.578  -1.122 -0.0485 -2.9802 -1.1589
   71MOL0     H 9780  12.328   2.632  -0.692  1.8075 -0.6043  1.5527
   71MOL0     H 9781  12.421   2.494  -0.524  0.5828 -0.9149  0.3287
   71MOL0     H 9782  11.084   2.196   0.636  1.5884 -3.2619 -1.0437
   71MOL0     H 9783  10.853   2.290   0.679 -1.0225  0.0838 -0.5594
   71MOL0     H 9784  10.573   2.640   0.650 -1.4096  2.7301 -2.4694
   71MOL0     H 9785  10.358   2.731   0.673 -2.2879  1.8212 -2.6789
   71MOL0     H 9786  10.068   2.678   0.751  0.1046  1.4166  0.2940
   71MOL0     H 9787  10.142   2.800   0.648  2.6603 -2.0735  1.2396
   71MOL0     H 9788   9.865   2.675   0.588 -1.2050  1.6026  3.5847
   71MOL0     H 9789   9.948   2.795   0.486  0.1392  2.0578  0.6936
   71MOL0     H 9790   9.862   2.863   0.769 -2.9566 -0.4573 -0.7771
   71MOL0     H 9791   9.932   2.961   0.648 -1.3520  1.7001 -0.5203
   71MOL0     H 9792   9.696   2.835   0.525 -0.9438  0.3405  0.0533
   71MOL0     H 9793   9.762   3.000   0.524 -0.3121  1.3150  1.8528
   71MOL0     H 9794   9.525   3.088   0.839  1.6565  0.9957  0.1081
   71MOL0     H 9795  10.178   2.389   0.461 -0.4826  0.2330 -1.8049
   71MOL0     H 9796  10.459   2.178   0.461 -0.5413  0.7471  0.8951
   71MOL0     H 9797  10.298   2.203   0.399  0.8593 -1.1848 -4.1500
   71MOL0     H 9798  10.432   2.264   0.306  1.0428  1.4879  0.1010
   72MOL0     O 9799  11.256   5.693   5.570 -0.0272 -0.0937  0.0710
   72MOL0     C 9800  11.211   5.764   5.474 -0.1123  0.5956 -0.5943
   72MOL0     O 9801  11.280   5.786   5.365  0.3568  0.3858  0.3136
   72MOL0     C 9802  11.406   5.735   5.344 -0.4628 -0.0489  0.4134
   72MOL0     C 9803  11.438   5.621   5.275  0.2887 -0.1434 -0.4662
   72MOL0     C 9804  11.573   5.576   5.258  0.3829  0.1570  0.6639
   72MOL0     C 9805  11.679   5.645   5.326 -0.0543 -0.1076  0.6545
   72MOL0     O 9806  11.812   5.612   5.331 -0.0636  0.4995 -0.0482
   72MOL0     C 9807  11.853   5.487   5.277 -0.2857  0.4099 -0.9085
   72MOL0     C 9808  12.002   5.454   5.311 -0.4958  0.1067 -0.8643
   72MOL0     C 9809  12.044   5.478   5.466 -0.4892  1.0179  0.3952
   72MOL0     C 9810  12.198   5.440   5.473 -0.2951  0.7284  0.5677
   72MOL0     C 9811  12.238   5.435   5.620 -0.2943  1.0788 -0.2639
   72MOL0     C 9812  12.222   5.563   5.696 -0.1430  0.8293 -0.3307
   72MOL0     C 9813  12.318   5.585   5.819 -0.4248 -0.0801  0.1843
   72MOL0     C 9814  12.290   5.481   5.926  0.3411 -0.0326 -0.3620
   72MOL0     N 9815  12.400   5.475   6.018  0.3659  0.0997  0.0650
   72MOL0     C 9816  12.424   5.566   6.117 -0.3068 -0.4859 -0.4899
   72MOL0     C 9817  12.516   5.518   6.203  0.5067 -0.6741 -0.5167
   72MOL0     C 9818  12.549   5.563   6.338 -0.4159 -0.1712  0.2922
   72MOL0     C 9819  12.574   5.448   6.432 -1.0528  0.6034  0.5027
   72MOL0     C 9820  12.500   5.465   6.565 -1.0083 -0.5673  0.0321
   72MOL0     C 9821  12.546   5.580   6.660 -0.6551  0.2497  0.2440
   72MOL0     O 9822  12.664   5.639   6.604 -0.1187 -0.1042  0.1543
   72MOL0     C 9823  12.789   5.580   6.621  0.3935 -0.6811  0.7700
   72MOL0     C 9824  12.814   5.462   6.688 -0.7718 -0.1739 -0.6473
   72MOL0     C 9825  12.940   5.405   6.711  1.4778  0.1565 -0.5560
   72MOL0     C 9826  12.943   5.282   6.791  0.8820 -0.9059 -0.1408
   72MOL0     C 9827  13.049   5.481   6.664  0.7243  0.0089  0.6119
   72MOL0     C 9828  13.196   5.454   6.682  0.2180 -0.3943  1.3477
   72MOL0     O 9829  13.282   5.560   6.679 -0.5793  0.7643  0.1350
   72MOL0     C 9830  13.406   5.545   6.736 -0.7226  0.0830 -1.0486
   72MOL0     C 9831  13.456   5.643   6.820  0.9018  0.2689 -0.7922
   72MOL0     C 9832  13.587   5.639   6.866 -0.4455 -0.0563 -0.5480
   72MOL0     C 9833  13.663   5.526   6.840  0.1906  0.7012 -0.3303
   72MOL0     O 9834  13.790   5.526   6.895  0.1687 -0.0292 -0.2206
   72MOL0     C 9835  13.887   5.425   6.857 -0.3865 -0.3963 -0.0925
   72MOL0     C 9836  14.017   5.433   6.940 -0.8462  0.1405 -0.2265
   72MOL0     C 9837  14.106   5.558   6.918 -0.2079 -0.1632  0.6642
   72MOL0     C 9838  14.241   5.550   6.985  0.6414  0.7457 -0.3795
   72MOL0     C 9839  14.327   5.666   6.963 -0.1159 -0.0474 -0.0716
   72MOL0     C 9840  14.472   5.633   6.954  0.1037  0.6432 -0.8129
   72MOL0     C 9841  14.538   5.533   7.057 -0.0119 -0.2272  0.3162
   72MOL0     C 9842  14.686   5.513   7.026 -0.4717 -0.7939  0.2982
   72MOL0    Cl 9843  14.760   5.675   7.056  0.2067 -0.0619 -0.1958
   72MOL0     C 9844  13.620   5.432   6.744 -0.2238  0.2415 -0.1291
   72MOL0     C 9845  13.493   5.436   6.698 -0.2904  0.0065 -0.2574
   72MOL0     O 9846  13.230   5.338   6.692 -0.3231  0.2101  0.0373
   72MOL0     C 9847  13.018   5.597   6.593  0.5759 -0.3090 -0.6991
   72MOL0     C 9848  12.893   5.648   6.569 -0.2927 -0.0820 -0.4383
   72MOL0     N 9849  12.551   5.401   6.153  0.2285  0.8025  0.3507
   72MOL0     N 9850  12.479   5.367   6.048  0.7382 -0.1893  0.5658
   72MOL0     C 9851  11.637   5.770   5.379  0.0949  0.3801 -0.9450
   72MOL0     C 9852  11.512   5.816   5.386  0.6295 -0.2788 -0.0850
   72MOL0     C 9853  11.075   5.833   5.476 -0.2858  0.1181 -1.2965
   72MOL0     C 9854  11.012   5.863   5.350  0.6438  1.1054 -1.2953
   72MOL0     C 9855  10.894   5.938   5.353 -0.2161  0.9974  0.5169
   72MOL0     C 9856  10.839   5.990   5.476 -0.6230 -0.1800  1.0030
   72MOL0     O 9857  10.748   6.085   5.484 -0.2839 -0.5394 -0.4943
   72MOL0     C 9858  10.687   6.146   5.366  0.3312  0.5731 -0.6865
   72MOL0     C 9859  10.772   6.258   5.316 -0.9493 -0.2803  0.6210
   72MOL0     C 9860  10.713   6.294   5.181 -0.5455  0.5678  0.2964
   72MOL0     C 9861  10.762   6.422   5.131 -0.9192 -0.4301 -0.4619
   72MOL0     C 9862  10.910   6.414   5.109  0.6269  0.1199 -0.3666
   72MOL0     C 9863  11.028   6.407   5.076  0.0045 -0.5096  0.5490
   72MOL0     C 9864  10.906   5.961   5.596  0.0752 -0.5118 -1.1139
   72MOL0     C 9865  11.023   5.880   5.602 -0.1994  0.0446  0.1601
   72MOL0     C 9866  11.098   5.871   5.733 -0.0529  0.0112 -1.3277
   72MOL0     H 9867  11.360   5.561   5.230 -0.5104 -2.7415  3.8292
   72MOL0     H 9868  11.601   5.492   5.195  0.2350 -1.3268  2.4734
   72MOL0     H 9869  11.845   5.484   5.168 -1.0805 -0.1165 -0.8447
   72MOL0     H 9870  11.792   5.408   5.321  0.4562  0.1764 -0.2896
   72MOL0     H 9871  12.011   5.348   5.286 -1.6733 -0.4505  0.8727
   72MOL0     H 9872  12.065   5.516   5.246  0.8593  1.2772  1.4571
   72MOL0     H 9873  12.025   5.578   5.507  1.4269  0.5797  2.5443
   72MOL0     H 9874  11.988   5.416   5.536  2.0169 -1.3033  0.5305
   72MOL0     H 9875  12.210   5.337   5.439  2.4998  1.4425 -0.9105
   72MOL0     H 9876  12.259   5.510   5.415 -0.8840 -0.5829 -1.7435
   72MOL0     H 9877  12.344   5.408   5.627 -0.0198  2.3151  0.9169
   72MOL0     H 9878  12.186   5.358   5.677  2.2013 -0.3578  0.2142
   72MOL0     H 9879  12.246   5.644   5.627  2.5524 -1.3617 -2.1910
   72MOL0     H 9880  12.117   5.572   5.724  0.2900  2.6779  0.9173
   72MOL0     H 9881  12.301   5.686   5.857 -1.7513  0.3760 -1.5266
   72MOL0     H 9882  12.425   5.580   5.796 -0.3112  0.6718  0.5253
   72MOL0     H 9883  12.203   5.520   5.979 -1.2005 -3.3572 -0.2018
   72MOL0     H 9884  12.260   5.381   5.894 -4.1293  0.6620  1.0360
   72MOL0     H 9885  12.375   5.659   6.143 -1.5771 -1.6655  1.5698
   72MOL0     H 9886  12.462   5.617   6.377 -1.0530 -0.3523 -0.8438
   72MOL0     H 9887  12.633   5.633   6.331 -2.7240  2.7677 -0.3423
   72MOL0     H 9888  12.530   5.360   6.384 -0.2231  1.2399 -1.5312
   72MOL0     H 9889  12.682   5.434   6.439 -1.2072 -0.3707  1.2317
   72MOL0     H 9890  12.393   5.480   6.552 -0.8776  2.0347  1.4379
   72MOL0     H 9891  12.506   5.373   6.625  0.6628  0.2353  1.1678
   72MOL0     H 9892  12.474   5.662   6.668  0.9663  1.7540  0.1568
   72MOL0     H 9893  12.562   5.543   6.761  0.7500 -0.7701 -0.3140
   72MOL0     H 9894  12.726   5.413   6.729  0.1336 -1.7262 -0.4757
   72MOL0     H 9895  12.959   5.310   6.896 -2.5496 -2.0600  0.8131
   72MOL0     H 9896  13.021   5.220   6.748  3.3641  3.8822 -3.4159
   72MOL0     H 9897  12.852   5.225   6.771  0.8137 -0.6823 -0.4653
   72MOL0     H 9898  13.395   5.728   6.848 -3.1177 -2.8602  0.8362
   72MOL0     H 9899  13.625   5.729   6.912 -3.0759  1.6328 -1.4427
   72MOL0     H 9900  13.840   5.328   6.875  0.9268 -1.4595 -2.0147
   72MOL0     H 9901  13.906   5.432   6.749  1.6638  0.4518  0.2771
   72MOL0     H 9902  13.995   5.439   7.046  0.8860  1.9083  0.0990
   72MOL0     H 9903  14.077   5.343   6.921 -0.6385  0.1334  0.4673
   72MOL0     H 9904  14.051   5.647   6.952  0.9182  0.4717  0.8918
   72MOL0     H 9905  14.122   5.564   6.809 -0.1842 -0.4374  0.6531
   72MOL0     H 9906  14.277   5.459   6.938 -2.0237 -0.6659  0.0825
   72MOL0     H 9907  14.232   5.530   7.093  2.1909 -0.2626 -0.4120
   72MOL0     H 9908  14.302   5.716   6.869 -1.2653 -0.7922 -0.1884
   72MOL0     H 9909  14.315   5.725   7.054  0.6946 -2.5755  1.8019
   72MOL0     H 9910  14.517   5.732   6.960 -4.0548  2.8672 -2.2188
   72MOL0     H 9911  14.491   5.578   6.861 -0.5584 -3.3183  1.1644
   72MOL0     H 9912  14.496   5.432   7.046  2.2712 -1.4885  2.2076
   72MOL0     H 9913  14.513   5.578   7.154 -0.8188 -2.5409  1.2570
   72MOL0     H 9914  14.700   5.458   6.932 -0.9163  1.2696 -1.0316
   72MOL0     H 9915  14.725   5.453   7.109 -0.5263 -0.2915  0.6974
   72MOL0     H 9916  13.672   5.342   6.712 -0.4988  0.9829 -2.9125
   72MOL0     H 9917  13.473   5.359   6.624  2.8163 -0.1651 -1.0315
   72MOL0     H 9918  13.095   5.660   6.550 -0.7529  1.2323 -0.9016
   72MOL0     H 9919  12.884   5.740   6.511  1.0658  0.2396 -0.1932
   72MOL0     H 9920  11.705   5.826   5.443 -1.8085  1.6312  0.0722
   72MOL0     H 9921  11.483   5.906   5.439  1.2913  1.5515 -2.6485
   72MOL0     H 9922  11.051   5.840   5.251  2.9164  2.1514 -0.6911
   72MOL0     H 9923  10.845   5.958   5.258 -1.5691 -1.1113  0.6881
   72MOL0     H 9924  10.675   6.067   5.292 -1.2500 -0.4703  0.6149
   72MOL0     H 9925  10.587   6.186   5.384  0.0454 -0.4849  0.1258
   72MOL0     H 9926  10.877   6.227   5.311  0.3798  3.4139  1.8258
   72MOL0     H 9927  10.766   6.338   5.390 -0.8808  0.0433  0.2793
   72MOL0     H 9928  10.741   6.216   5.110  0.2550  1.3747 -0.2956
   72MOL0     H 9929  10.605   6.277   5.175 -0.2082 -1.0210 -2.6105
   72MOL0     H 9930  10.751   6.504   5.202 -0.4821  1.5216 -2.5314
   72MOL0     H 9931  10.712   6.464   5.043 -1.4888 -1.6576 -0.7389
   72MOL0     H 9932  11.128   6.396   5.040  0.5749 -0.6592  2.0820
   72MOL0     H 9933  10.867   6.000   5.690  0.4946  2.1880 -1.9531
   72MOL0     H 9934  11.145   5.775   5.755  0.2151  0.6591  1.2325
   72MOL0     H 9935  11.182   5.941   5.727  0.7811 -0.9371 -1.0017
   72MOL0     H 9936  11.040   5.905   5.819 -0.5244 -0.7701 -1.3341
   73MOL0     O 9937   4.969   4.936   0.126 -0.4533  0.9560  0.1651
   73MOL0     C 9938   4.869   4.971   0.184 -0.1106  0.8736 -0.3066
   73MOL0     O 9939   4.873   5.043   0.297 -0.5433 -0.6954  0.1493
   73MOL0     C 9940   4.978   5.043   0.389  0.3787 -0.2996 -1.0595
   73MOL0     C 9941   5.076   4.951   0.406 -1.0292 -0.8600  0.6491
   73MOL0     C 9942   5.186   4.974   0.492  0.8131  0.6393 -0.2018
   73MOL0     C 9943   5.194   5.090   0.566 -0.3458  0.1427 -0.2393
   73MOL0     O 9944   5.297   5.125   0.650 -1.0022  0.2704 -0.3892
   73MOL0     C 9945   5.423   5.050   0.657 -0.4449  0.2397  0.3144
   73MOL0     C 9946   5.518   5.055   0.544  0.5837 -0.0910  0.7024
   73MOL0     C 9947   5.588   5.190   0.544  0.7103  0.5561 -0.0820
   73MOL0     C 9948   5.671   5.210   0.423  0.4707 -0.2477  0.6887
   73MOL0     C 9949   5.761   5.335   0.429  0.1314  0.6406 -0.5869
   73MOL0     C 9950   5.824   5.364   0.306 -0.1762  0.2468  0.0588
   73MOL0     C 9951   5.907   5.494   0.292 -0.4230  0.8020 -0.2994
   73MOL0     C 9952   6.032   5.481   0.380  0.1124 -0.6332  0.5851
   73MOL0     N 9953   6.148   5.569   0.342 -0.6566  0.1330  0.6882
   73MOL0     C 9954   6.267   5.533   0.279  0.0659  0.2227  0.0184
   73MOL0     C 9955   6.320   5.652   0.246  0.3813  0.4645 -0.5087
   73MOL0     C 9956   6.452   5.656   0.181 -0.4372 -0.4741 -0.2133
   73MOL0     C 9957   6.474   5.575   0.057  0.1734 -0.8078  0.5155
   73MOL0     C 9958   6.620   5.525   0.058 -0.3273  0.0006  0.2770
   73MOL0     C 9959   6.656   5.442  -0.065 -0.2436  0.3215 -0.4189
   73MOL0     O 9960   6.786   5.374  -0.042  0.2628 -1.0042  0.0081
   73MOL0     C 9961   6.853   5.332  -0.154 -1.1622 -0.2353 -0.1219
   73MOL0     C 9962   6.839   5.369  -0.291 -0.2354  0.5136 -0.1935
   73MOL0     C 9963   6.929   5.331  -0.386 -0.8372 -0.1044  0.6136
   73MOL0     C 9964   6.934   5.406  -0.521  0.0417  0.3400 -0.3863
   73MOL0     C 9965   7.038   5.244  -0.343  0.2169  1.1047  0.2483
   73MOL0     C 9966   7.141   5.201  -0.436  0.5283  0.5997 -0.3718
   73MOL0     O 9967   7.260   5.151  -0.389 -0.0870 -0.7278  0.4552
   73MOL0     C 9968   7.375   5.134  -0.470 -0.4566 -0.4241  0.3459
   73MOL0     C 9969   7.397   5.169  -0.602  0.2713 -0.3535  0.4581
   73MOL0     C 9970   7.522   5.157  -0.657  0.5986 -0.0532  0.7001
   73MOL0     C 9971   7.624   5.109  -0.587  0.0037  0.1809  0.0319
   73MOL0     O 9972   7.753   5.084  -0.632 -0.3141 -0.0745 -0.4091
   73MOL0     C 9973   7.829   5.195  -0.675 -0.2954 -0.3767 -1.2334
   73MOL0     C 9974   7.868   5.298  -0.573  0.7052 -0.4053  0.3903
   73MOL0     C 9975   7.991   5.271  -0.487 -0.6614  0.7890  0.0348
   73MOL0     C 9976   7.988   5.137  -0.425 -0.1054  0.9182  0.2703
   73MOL0     C 9977   8.067   5.136  -0.295  0.0378  0.3726 -0.6153
   73MOL0     C 9978   8.216   5.142  -0.320  0.1449 -0.3168  0.0592
   73MOL0     C 9979   8.296   5.144  -0.187 -0.3049 -0.6305 -0.6726
   73MOL0     C 9980   8.439   5.171  -0.209  0.4310  0.5255  0.0396
   73MOL0    Cl 9981   8.519   5.174  -0.051  0.3908  0.0238 -0.0183
   73MOL0     C 9982   7.605   5.076  -0.455  0.6304  0.7330 -0.5650
   73MOL0     C 9983   7.479   5.091  -0.393 -0.2334 -0.5445  0.3286
   73MOL0     O 9984   7.112   5.195  -0.553 -0.0530 -0.9341 -0.0533
   73MOL0     C 9985   7.046   5.211  -0.210 -0.2742  0.0142 -0.8332
   73MOL0     C 9986   6.960   5.257  -0.118  0.1251  0.3731 -0.5882
   73MOL0     N 9987   6.236   5.755   0.275  0.1424 -0.2445  0.0107
   73MOL0     N 9988   6.132   5.703   0.330 -0.1302  0.2178 -0.0172
   73MOL0     C 9989   5.098   5.185   0.545  0.8348 -0.3165  0.7910
   73MOL0     C 9990   4.989   5.160   0.466  0.4615 -0.4209 -0.1698
   73MOL0     C 9991   4.736   4.954   0.124  0.3419 -0.1017 -0.1503
   73MOL0     C 9992   4.636   4.916   0.219  0.4694 -1.0447 -0.3496
   73MOL0     C 9993   4.498   4.905   0.178 -0.1626 -0.6770 -0.1878
   73MOL0     C 9994   4.455   4.928   0.047  0.3770 -0.0279 -1.0181
   73MOL0     O 9995   4.323   4.919   0.020  0.1819 -0.3500 -0.3458
   73MOL0     C 9996   4.283   4.965  -0.116 -0.0070  0.0926  0.1259
   73MOL0     C 9997   4.137   5.003  -0.115  0.0319  0.4388  0.0059
   73MOL0     C 9998   4.059   4.878  -0.093  0.0858 -1.1096  1.1994
   73MOL0     C 9999   3.908   4.882  -0.138  0.4099 -0.3189 -0.9820
   73MOL0     C10000   3.840   4.981  -0.039 -1.1199  0.7738  0.3223
   73MOL0     C10001   3.813   5.043   0.061  0.1980  0.3650 -0.6085
   73MOL0     C10002   4.559   4.954  -0.047  0.5273 -0.4337  0.5692
   73MOL0     C10003   4.694   4.977  -0.012 -0.6548 -1.3590 -0.6895
   73MOL0     C10004   4.794   5.032  -0.113  0.0014  0.1939 -0.2852
   73MOL0     H10005   5.057   4.864   0.345  0.7332  0.6229 -2.2661
   73MOL0     H10006   5.272   4.910   0.508  0.2374 -0.3080 -0.8121
   73MOL0     H10007   5.396   4.945   0.675 -0.5247  0.3130  0.6348
   73MOL0     H10008   5.479   5.089   0.743 -0.4386  2.4504 -0.6528
   73MOL0     H10009   5.594   4.978   0.551 -0.6108 -1.5634 -1.4069
   73MOL0     H10010   5.471   5.044   0.445  2.1310  2.7166 -0.4705
   73MOL0     H10011   5.513   5.270   0.541 -0.4008 -0.4758 -0.8532
   73MOL0     H10012   5.651   5.196   0.633 -1.4136  1.6785  1.4391
   73MOL0     H10013   5.733   5.120   0.430  0.1875 -0.3120  3.2177
   73MOL0     H10014   5.617   5.197   0.328  0.7237  0.7348  0.3989
   73MOL0     H10015   5.825   5.312   0.514 -1.5165 -0.9222  0.3061
   73MOL0     H10016   5.708   5.427   0.456 -1.6680 -0.2356 -0.9516
   73MOL0     H10017   5.887   5.277   0.284 -0.9060 -0.2118 -0.2432
   73MOL0     H10018   5.741   5.364   0.234 -1.0191  0.5473  1.0128
   73MOL0     H10019   5.841   5.572   0.332 -1.7234 -0.7240  0.6300
   73MOL0     H10020   5.930   5.519   0.188  1.6453 -0.9351 -0.3151
   73MOL0     H10021   6.007   5.534   0.473 -1.9884 -0.2900 -0.1235
   73MOL0     H10022   6.063   5.378   0.401  2.9274 -0.1852 -0.8661
   73MOL0     H10023   6.305   5.433   0.263 -1.2510 -0.1231 -1.1441
   73MOL0     H10024   6.519   5.632   0.263 -0.7379  0.0936  0.2088
   73MOL0     H10025   6.492   5.755   0.155 -0.4254 -1.0848 -2.8811
   73MOL0     H10026   6.405   5.491   0.053  0.3381 -1.0641  2.2569
   73MOL0     H10027   6.462   5.644  -0.027 -1.6893 -1.8363 -0.1010
   73MOL0     H10028   6.691   5.608   0.063 -1.1249  0.6745  0.7815
   73MOL0     H10029   6.632   5.468   0.151 -0.9207  1.9994  1.6612
   73MOL0     H10030   6.580   5.366  -0.086  2.0487 -1.3139 -3.8480
   73MOL0     H10031   6.660   5.507  -0.153 -1.7825  1.1812  0.1123
   73MOL0     H10032   6.748   5.418  -0.322 -0.0423  1.4953  0.7339
   73MOL0     H10033   6.858   5.485  -0.515 -3.1972 -2.6207  2.8523
   73MOL0     H10034   6.902   5.341  -0.603  1.5761 -0.9092 -0.0524
   73MOL0     H10035   7.019   5.468  -0.551  1.1055 -1.3012 -0.8618
   73MOL0     H10036   7.314   5.200  -0.665 -0.9789  0.0039  2.2399
   73MOL0     H10037   7.545   5.182  -0.760  0.6419  0.5176  0.8469
   73MOL0     H10038   7.928   5.166  -0.710 -0.7720 -0.9478 -2.1324
   73MOL0     H10039   7.783   5.244  -0.761  0.2509  2.0850 -0.2031
   73MOL0     H10040   7.885   5.391  -0.628 -1.7154  0.3546  0.8163
   73MOL0     H10041   7.789   5.326  -0.504  0.8051 -0.5385  0.5596
   73MOL0     H10042   7.993   5.339  -0.402 -0.9813  0.3743  0.3759
   73MOL0     H10043   8.083   5.289  -0.544 -1.3447  2.2608 -0.6715
   73MOL0     H10044   8.037   5.077  -0.503  3.5982  1.6963  1.8022
   73MOL0     H10045   7.888   5.098  -0.405 -0.4161  2.8832  3.0148
   73MOL0     H10046   8.028   5.220  -0.237  1.3234  1.6451 -1.5088
   73MOL0     H10047   8.051   5.045  -0.237  0.3935  0.9835  0.4706
   73MOL0     H10048   8.240   5.232  -0.379  1.1282 -0.4707  0.2117
   73MOL0     H10049   8.249   5.050  -0.368 -0.5702 -2.9081  4.0824
   73MOL0     H10050   8.283   5.057  -0.121  2.7253 -0.8174 -0.1869
   73MOL0     H10051   8.247   5.226  -0.134 -1.8534  0.3190 -3.3740
   73MOL0     H10052   8.458   5.264  -0.265 -1.9014  0.6511 -0.6647
   73MOL0     H10053   8.480   5.084  -0.260  0.3893 -0.1245  1.0947
   73MOL0     H10054   7.685   5.039  -0.391  2.4088  4.7399 -0.2072
   73MOL0     H10055   7.460   5.078  -0.287  0.5907 -1.2048  0.4107
   73MOL0     H10056   7.136   5.164  -0.172 -1.6329 -0.6181  1.8529
   73MOL0     H10057   6.977   5.228  -0.015 -0.0591  0.6334 -0.4846
   73MOL0     H10058   5.115   5.285   0.584 -2.7766  1.1337 -0.9705
   73MOL0     H10059   4.907   5.231   0.462  0.8670  0.0976  0.4747
   73MOL0     H10060   4.656   4.900   0.325  0.1570 -0.8534 -0.2596
   73MOL0     H10061   4.426   4.873   0.253  0.1572  2.8620  1.8818
   73MOL0     H10062   4.353   5.044  -0.147 -0.2730  0.6881  1.0090
   73MOL0     H10063   4.299   4.879  -0.182 -0.2115 -0.5598  0.9087
   73MOL0     H10064   4.100   5.055  -0.204 -2.0573 -0.9439 -0.0028
   73MOL0     H10065   4.122   5.075  -0.035 -1.8187 -1.8189  1.8462
   73MOL0     H10066   4.106   4.799  -0.152 -0.8324  0.0320 -1.1613
   73MOL0     H10067   4.068   4.857   0.014 -0.2967 -0.2009  1.4146
   73MOL0     H10068   3.859   4.785  -0.127  0.1202 -0.1802 -1.0343
   73MOL0     H10069   3.898   4.919  -0.240  2.4479 -1.6142 -1.7143
   73MOL0     H10070   3.778   5.092   0.149  0.4849  0.1908 -0.3938
   73MOL0     H10071   4.537   4.976  -0.151 -0.2994  1.2519  1.0541
   73MOL0     H10072   4.738   5.079  -0.195 -1.5554  1.7368  1.5517
   73MOL0     H10073   4.853   5.113  -0.069  1.2560 -0.8037 -0.0659
   73MOL0     H10074   4.863   4.954  -0.147  0.3321  0.6000 -0.5658
   74MOL0     O10075   4.501   1.834   5.301  0.0053  0.1941  0.0343
   74MOL0     C10076   4.433   1.776   5.212  0.7312 -0.3616 -0.0923
   74MOL0     O10077   4.481   1.746   5.084 -0.4795  0.2370  0.4408
   74MOL0     C10078   4.600   1.798   5.037 -0.3837  0.6745 -0.2093
   74MOL0     C10079   4.711   1.763   5.110  0.6848 -0.4524 -0.2237
   74MOL0     C10080   4.834   1.809   5.073 -0.3434  0.1829  0.0188
   74MOL0     C10081   4.847   1.898   4.959 -0.5968  0.1963  0.4602
   74MOL0     O10082   4.963   1.961   4.915 -1.1612  1.0569 -0.2928
   74MOL0     C10083   5.077   1.947   4.998  0.3245  0.3997  1.2094
   74MOL0     C10084   5.192   1.994   4.907 -0.0270 -1.1847 -0.4426
   74MOL0     C10085   5.306   1.890   4.921  0.1098  0.2085 -0.4854
   74MOL0     C10086   5.432   1.930   4.848 -0.3946 -0.7289  0.2006
   74MOL0     C10087   5.563   1.872   4.915 -0.4073 -0.7802 -0.6083
   74MOL0     C10088   5.695   1.944   4.861 -0.5647 -0.5211 -0.1628
   74MOL0     C10089   5.820   1.850   4.863  0.1706  0.2430  0.0295
   74MOL0     C10090   5.838   1.790   5.003 -0.2705 -0.5649  0.3930
   74MOL0     N10091   5.986   1.762   5.021  0.4128  0.0328  1.2467
   74MOL0     C10092   6.048   1.653   4.975 -0.6422 -1.5834 -0.0441
   74MOL0     C10093   6.181   1.676   4.999 -0.6104 -0.3062  0.3084
   74MOL0     C10094   6.295   1.593   4.940 -0.4039  0.9904 -0.7991
   74MOL0     C10095   6.355   1.635   4.804 -0.1355  0.3858  0.0036
   74MOL0     C10096   6.455   1.753   4.822  0.8110  1.0774  1.7768
   74MOL0     C10097   6.563   1.711   4.914  0.0772 -0.1147 -0.0653
   74MOL0     O10098   6.688   1.772   4.873  0.2888 -0.6503  0.2728
   74MOL0     C10099   6.797   1.725   4.944  0.6322  0.1520  0.2470
   74MOL0     C10100   6.797   1.622   5.042 -0.3442 -0.1514  0.9166
   74MOL0     C10101   6.915   1.582   5.111  1.1107  0.2411  0.3136
   74MOL0     C10102   6.894   1.485   5.229  0.5990  0.3168 -0.4889
   74MOL0     C10103   7.039   1.633   5.064 -0.7319 -0.0561 -0.4859
   74MOL0     C10104   7.175   1.587   5.108 -0.5896 -0.4167 -0.0124
   74MOL0     O10105   7.269   1.681   5.088 -0.1206 -0.6291  0.5682
   74MOL0     C10106   7.389   1.657   5.149 -0.2882  0.0338  0.7868
   74MOL0     C10107   7.493   1.600   5.083  0.5697 -0.8449  0.4750
   74MOL0     C10108   7.615   1.580   5.137  0.1693  0.4000  0.2276
   74MOL0     C10109   7.635   1.620   5.269 -1.3888  0.2097  0.4017
   74MOL0     O10110   7.758   1.595   5.328 -0.2782  0.3760  0.6147
   74MOL0     C10111   7.770   1.575   5.475 -0.4517 -0.3607  0.8109
   74MOL0     C10112   7.911   1.513   5.512 -1.2098 -0.3802 -0.2229
   74MOL0     C10113   7.920   1.492   5.659  0.1050  0.5405 -0.7544
   74MOL0     C10114   8.053   1.427   5.691  0.1992 -0.1689 -0.6246
   74MOL0     C10115   8.052   1.279   5.682  0.3804 -0.6237 -0.0725
   74MOL0     C10116   7.968   1.217   5.791  0.5571 -0.9854 -0.1795
   74MOL0     C10117   7.921   1.076   5.751 -0.1390 -0.3135 -0.1992
   74MOL0     C10118   7.827   1.022   5.875  0.4334  0.9065 -0.5585
   74MOL0    Cl10119   7.840   0.846   5.905 -0.3725 -0.0740 -0.0938
   74MOL0     C10120   7.531   1.680   5.337  0.0384 -0.3214  0.0494
   74MOL0     C10121   7.404   1.700   5.280  0.0593 -0.2884 -0.1268
   74MOL0     O10122   7.184   1.488   5.179 -0.6912  0.4832  0.5326
   74MOL0     C10123   7.038   1.735   4.952 -0.5087 -0.4876 -0.2824
   74MOL0     C10124   6.919   1.777   4.898 -0.2138  0.5948 -0.5673
   74MOL0     N10125   6.197   1.801   5.046  0.3260  0.6850 -0.3208
   74MOL0     N10126   6.075   1.849   5.059 -1.1282  0.7632  0.2808
   74MOL0     C10127   4.733   1.931   4.890 -0.2700 -0.1315 -0.4711
   74MOL0     C10128   4.612   1.873   4.925  0.0888  0.1946 -0.2753
   74MOL0     C10129   4.292   1.734   5.247  0.5035 -0.7649 -0.0519
   74MOL0     C10130   4.220   1.666   5.146 -0.4822 -0.1232 -0.1391
   74MOL0     C10131   4.097   1.622   5.160  1.0826  0.0538  0.8726
   74MOL0     C10132   4.020   1.663   5.269 -1.1372 -0.0080 -0.7962
   74MOL0     O10133   3.885   1.621   5.278  0.1055  0.4086 -0.0722
   74MOL0     C10134   3.803   1.734   5.261  0.7105  0.5186  0.0013
   74MOL0     C10135   3.654   1.696   5.228 -0.7954 -0.0422  0.2372
   74MOL0     C10136   3.641   1.648   5.075  0.0203  0.0086  0.3543
   74MOL0     C10137   3.612   1.754   4.973 -0.6316  0.3296 -0.3018
   74MOL0     C10138   3.577   1.691   4.846 -0.3435  0.0060 -0.0509
   74MOL0     C10139   3.557   1.638   4.736  0.2583  0.3521  0.3846
   74MOL0     C10140   4.079   1.739   5.368  0.5474  0.3090  0.5995
   74MOL0     C10141   4.216   1.770   5.360  0.2152 -1.1122  0.6434
   74MOL0     C10142   4.268   1.862   5.468 -0.1205 -0.0714 -0.1772
   74MOL0     H10143   4.710   1.691   5.191 -0.0860 -1.2247 -0.8919
   74MOL0     H10144   4.923   1.781   5.129 -0.9887 -1.7254  0.1735
   74MOL0     H10145   5.090   1.842   5.023  0.8546  0.4845  1.3041
   74MOL0     H10146   5.060   2.012   5.085 -0.9014  2.6284 -0.5910
   74MOL0     H10147   5.166   1.988   4.801  2.0978 -1.8755 -0.9736
   74MOL0     H10148   5.242   2.088   4.933 -0.8228 -1.4829  2.4618
   74MOL0     H10149   5.327   1.869   5.026  0.5951  2.0749 -0.1706
   74MOL0     H10150   5.268   1.797   4.877  1.8080 -0.3606 -0.8430
   74MOL0     H10151   5.434   1.901   4.743 -0.1856  1.0975 -0.3395
   74MOL0     H10152   5.433   2.039   4.854 -2.0038 -0.6668 -0.2828
   74MOL0     H10153   5.561   1.763   4.900 -0.9317 -1.0429  1.0942
   74MOL0     H10154   5.562   1.897   5.022 -2.3195  0.9873 -0.9807
   74MOL0     H10155   5.683   1.980   4.759  2.8987  2.2906  0.2461
   74MOL0     H10156   5.715   2.041   4.907  0.4938  1.2697 -3.9922
   74MOL0     H10157   5.910   1.909   4.844 -0.3125  0.4898 -1.6482
   74MOL0     H10158   5.801   1.782   4.779 -1.0567  2.0284 -1.2023
   74MOL0     H10159   5.817   1.865   5.080  1.1827 -0.1164  0.3774
   74MOL0     H10160   5.775   1.701   5.014  1.4291 -2.1803 -1.9444
   74MOL0     H10161   5.990   1.569   4.937 -4.2759 -0.4686  2.5147
   74MOL0     H10162   6.259   1.493   4.914  0.6445  0.9541 -2.2255
   74MOL0     H10163   6.366   1.582   5.022 -1.9648  0.0068  0.4897
   74MOL0     H10164   6.402   1.554   4.749  0.0409 -0.3804  1.2382
   74MOL0     H10165   6.273   1.668   4.739 -0.0861  0.7268  0.1126
   74MOL0     H10166   6.493   1.777   4.722 -1.2597 -0.5402  0.5237
   74MOL0     H10167   6.404   1.842   4.858 -0.8456  0.3145  1.4063
   74MOL0     H10168   6.540   1.735   5.019 -1.6676 -3.3076  0.4098
   74MOL0     H10169   6.573   1.602   4.910 -0.6932 -0.1525 -1.7401
   74MOL0     H10170   6.702   1.579   5.074 -0.4128 -0.1511  0.7166
   74MOL0     H10171   6.918   1.385   5.192  2.2034  1.5006 -2.8918
   74MOL0     H10172   6.788   1.493   5.257  0.7309  0.7333 -0.1144
   74MOL0     H10173   6.938   1.513   5.325  0.1146  0.7261 -0.3817
   74MOL0     H10174   7.471   1.562   4.984 -1.8751 -1.9784  1.3853
   74MOL0     H10175   7.702   1.532   5.094  1.1620  3.1197 -0.9966
   74MOL0     H10176   7.744   1.664   5.532 -1.5259  1.8188 -2.7539
   74MOL0     H10177   7.702   1.492   5.495  2.5244 -3.5976 -1.2548
   74MOL0     H10178   7.921   1.414   5.466 -1.0008 -2.0447  3.1474
   74MOL0     H10179   7.991   1.570   5.463 -0.4799 -2.3278 -1.4021
   74MOL0     H10180   7.833   1.441   5.703  0.6683  2.0734  2.4654
   74MOL0     H10181   7.927   1.593   5.702  0.0592  0.8204 -1.3927
   74MOL0     H10182   8.092   1.460   5.788  0.5763 -0.9561 -0.4960
   74MOL0     H10183   8.131   1.467   5.626  0.3592 -0.0433 -0.3563
   74MOL0     H10184   8.004   1.266   5.585 -1.9198  1.0029  0.7631
   74MOL0     H10185   8.154   1.240   5.693  0.9230  1.0664  1.7358
   74MOL0     H10186   7.886   1.285   5.817  0.9384  0.7322 -3.0882
   74MOL0     H10187   8.033   1.204   5.878  0.4973  1.8100  0.3660
   74MOL0     H10188   8.006   1.008   5.748 -1.5240 -2.1048 -0.6999
   74MOL0     H10189   7.881   1.078   5.649  2.0407  2.0497 -1.1322
   74MOL0     H10190   7.722   1.052   5.874 -0.7759 -1.8607  5.0702
   74MOL0     H10191   7.848   1.070   5.971 -0.1690 -2.2831  1.3261
   74MOL0     H10192   7.558   1.730   5.430  1.9173  1.7819 -1.5218
   74MOL0     H10193   7.319   1.735   5.337 -0.5505 -3.8150  1.3690
   74MOL0     H10194   7.124   1.777   4.901  0.0376  3.6138  3.4652
   74MOL0     H10195   6.928   1.855   4.823  0.8197  2.3878  1.3181
   74MOL0     H10196   4.747   1.996   4.804 -1.7290  1.2620  0.2662
   74MOL0     H10197   4.528   1.903   4.863  0.4877  0.5716 -0.6394
   74MOL0     H10198   4.274   1.645   5.054  1.6294 -2.5188  1.5006
   74MOL0     H10199   4.039   1.561   5.092  0.2453  0.5496  1.1339
   74MOL0     H10200   3.786   1.792   5.353 -2.2580 -0.7721  0.3802
   74MOL0     H10201   3.843   1.796   5.180 -0.7278  0.8259 -0.4991
   74MOL0     H10202   3.584   1.777   5.251  1.4463  1.7956  0.9191
   74MOL0     H10203   3.621   1.608   5.283 -2.4199 -2.7867 -4.4967
   74MOL0     H10204   3.732   1.590   5.057  0.4754  0.9957 -0.5730
   74MOL0     H10205   3.560   1.576   5.064  0.5206 -0.3168 -1.4686
   74MOL0     H10206   3.703   1.813   4.959 -0.4644 -0.0520 -0.8260
   74MOL0     H10207   3.534   1.827   4.997  0.6225  2.2082 -1.6013
   74MOL0     H10208   3.535   1.606   4.636  0.9282 -0.4312  0.4716
   74MOL0     H10209   4.020   1.777   5.450 -3.5164 -1.4322 -1.1965
   74MOL0     H10210   4.207   1.869   5.558 -1.6264 -1.5239 -1.0277
   74MOL0     H10211   4.367   1.834   5.503  1.0198  4.0874  0.4009
   74MOL0     H10212   4.272   1.962   5.424  3.6818  0.3973  0.8975
   75MOL0     O10213   6.392   0.145   4.631  0.1598  0.0408  0.3138
   75MOL0     C10214   6.286   0.136   4.692  0.2979  0.7008  0.7891
   75MOL0     O10215   6.278   0.094   4.820  0.1953 -0.2917 -0.2346
   75MOL0     C10216   6.402   0.049   4.865  0.1770 -0.1454 -0.0588
   75MOL0     C10217   6.489   0.147   4.918 -0.9576  0.4306 -0.6471
   75MOL0     C10218   6.609   0.103   4.978 -0.2394 -0.3755 -0.2433
   75MOL0     C10219   6.642  -0.028   4.981 -0.7533  0.8948 -0.0343
   75MOL0     O10220   6.755  -0.071   5.039  0.3629  0.0325  0.5876
   75MOL0     C10221   6.869   0.003   5.001  0.1611  0.1370  1.1609
   75MOL0     C10222   6.978  -0.101   4.990 -0.2778  1.1023 -0.1790
   75MOL0     C10223   7.114  -0.048   4.950 -0.1850 -0.3373  0.3138
   75MOL0     C10224   7.223  -0.123   5.030 -0.3783  0.1210 -0.4638
   75MOL0     C10225   7.353  -0.041   5.031  0.4867  0.1061  0.1959
   75MOL0     C10226   7.476  -0.100   5.106  0.7498  0.3340  0.6545
   75MOL0     C10227   7.584   0.007   5.124  0.0826  0.3946  0.1321
   75MOL0     C10228   7.678  -0.037   5.235  0.1203  0.1990 -0.2604
   75MOL0     N10229   7.784   0.058   5.221 -0.3329 -0.5706 -0.7074
   75MOL0     C10230   7.876   0.061   5.123  0.6472  0.1081 -0.4719
   75MOL0     C10231   7.939   0.175   5.143 -0.3380  0.2759 -0.0846
   75MOL0     C10232   8.043   0.239   5.057  0.6631  0.7346  0.4504
   75MOL0     C10233   8.168   0.157   5.082 -0.1750  0.9996 -0.9359
   75MOL0     C10234   8.279   0.218   4.997 -0.8123 -0.2789  0.1566
   75MOL0     C10235   8.401   0.143   5.033  0.1493  1.0147 -0.2803
   75MOL0     O10236   8.505   0.160   4.926 -0.0531 -0.2928 -0.6220
   75MOL0     C10237   8.537   0.057   4.839  0.3644 -0.2129 -0.0706
   75MOL0     C10238   8.455  -0.047   4.809 -0.0065 -0.4076  0.8756
   75MOL0     C10239   8.486  -0.144   4.711  0.2171 -0.3898  0.1297
   75MOL0     C10240   8.394  -0.249   4.684 -0.4305 -0.3101 -0.0759
   75MOL0     C10241   8.623  -0.150   4.667  0.7680 -0.0399 -0.1205
   75MOL0     C10242   8.690  -0.247   4.578 -0.8826 -0.2667  1.0330
   75MOL0     O10243   8.828  -0.253   4.574 -0.0959  0.9990 -0.3468
   75MOL0     C10244   8.900  -0.337   4.488  0.3767 -0.1705  0.5527
   75MOL0     C10245   8.861  -0.389   4.361  0.4303  0.0960  0.9212
   75MOL0     C10246   8.928  -0.479   4.286 -0.1673 -0.1075 -0.4879
   75MOL0     C10247   9.040  -0.542   4.333 -1.0781 -0.2981 -0.0124
   75MOL0     O10248   9.103  -0.640   4.262  0.1929 -0.3882  0.1082
   75MOL0     C10249   9.230  -0.684   4.318 -0.4753  0.2168  0.2373
   75MOL0     C10250   9.291  -0.802   4.245 -0.2349 -0.6386 -0.1685
   75MOL0     C10251   9.329  -0.739   4.105  0.4655 -0.5960 -0.2779
   75MOL0     C10252   9.366  -0.837   4.007 -0.3675 -0.3229  0.6439
   75MOL0     C10253   9.509  -0.886   4.028  0.2649  1.2570  0.8342
   75MOL0     C10254   9.550  -1.013   3.958 -0.1995 -1.2368 -0.3473
   75MOL0     C10255   9.691  -1.054   4.004 -0.4464 -0.5905  0.2537
   75MOL0     C10256   9.731  -1.183   3.942 -0.0979 -0.2438  0.1589
   75MOL0    Cl10257   9.742  -1.164   3.768  0.1660  0.4006 -0.1437
   75MOL0     C10258   9.087  -0.486   4.456 -0.2731  0.5135 -0.0112
   75MOL0     C10259   9.021  -0.388   4.526 -0.3293  0.3936  0.1669
   75MOL0     O10260   8.625  -0.290   4.487  0.2068  0.2159 -0.8967
   75MOL0     C10261   8.706  -0.045   4.699  0.3397  0.9590 -0.4908
   75MOL0     C10262   8.661   0.063   4.771 -0.2209 -0.2201 -0.2028
   75MOL0     N10263   7.886   0.247   5.243  0.8526  0.0440  0.2463
   75MOL0     N10264   7.788   0.180   5.283  0.1647 -1.0103 -0.2326
   75MOL0     C10265   6.558  -0.122   4.920 -0.0408 -0.6071  0.7404
   75MOL0     C10266   6.439  -0.081   4.857  0.0384  0.1502 -0.4671
   75MOL0     C10267   6.162   0.186   4.625  0.0542  0.7780  0.0721
   75MOL0     C10268   6.060   0.220   4.714  0.4791 -0.3705 -0.6755
   75MOL0     C10269   5.936   0.262   4.666  0.6268  0.4837 -0.5789
   75MOL0     C10270   5.911   0.271   4.528  0.1453 -1.1961  0.6431
   75MOL0     O10271   5.788   0.323   4.499 -0.5725  0.1995  0.1303
   75MOL0     C10272   5.755   0.388   4.376 -0.0506  0.2539 -0.0143
   75MOL0     C10273   5.723   0.289   4.258 -0.0750 -0.1598  0.5163
   75MOL0     C10274   5.667   0.356   4.131 -0.3511  0.1828  0.9330
   75MOL0     C10275   5.521   0.392   4.145 -0.3740 -1.0820  0.2528
   75MOL0     C10276   5.431   0.279   4.168  0.2519  0.8241 -1.0031
   75MOL0     C10277   5.349   0.184   4.177 -0.0284  0.0029 -0.4849
   75MOL0     C10278   6.013   0.232   4.441 -0.0337  0.5152  0.2477
   75MOL0     C10279   6.140   0.196   4.486 -0.3719 -0.0976 -0.2147
   75MOL0     C10280   6.261   0.170   4.378  0.5865  0.3461  0.0693
   75MOL0     H10281   6.465   0.252   4.922  2.0300  1.1587  2.3179
   75MOL0     H10282   6.674   0.181   5.016 -3.9871  3.0781 -0.2472
   75MOL0     H10283   6.894   0.070   5.084  1.6388 -2.6630  3.1007
   75MOL0     H10284   6.872   0.054   4.904  2.2758  0.0812  1.1409
   75MOL0     H10285   6.990  -0.146   5.089 -1.1162 -1.3541 -1.1256
   75MOL0     H10286   6.936  -0.169   4.916  1.2641 -0.0004 -0.0730
   75MOL0     H10287   7.125  -0.060   4.842 -1.8547 -3.1719  0.3389
   75MOL0     H10288   7.106   0.059   4.972 -1.7819 -0.3711  0.0187
   75MOL0     H10289   7.202  -0.130   5.137 -1.9376 -0.5146 -0.7812
   75MOL0     H10290   7.234  -0.224   4.989 -6.0154 -1.5452  1.2428
   75MOL0     H10291   7.333   0.060   5.070 -0.7899  0.5026 -1.4117
   75MOL0     H10292   7.383  -0.034   4.926 -0.2159  0.5613  0.0213
   75MOL0     H10293   7.440  -0.119   5.207  0.6039 -1.7695  0.2656
   75MOL0     H10294   7.521  -0.187   5.056 -0.8815 -1.4140  2.0645
   75MOL0     H10295   7.541   0.104   5.151  0.4562  1.0389 -1.4879
   75MOL0     H10296   7.616   0.014   5.020 -1.2456  0.2212 -0.3020
   75MOL0     H10297   7.628  -0.029   5.331  1.1920  1.6839  0.2008
   75MOL0     H10298   7.716  -0.137   5.211 -0.1253  0.0410  0.0021
   75MOL0     H10299   7.911  -0.004   5.043  1.9497 -1.2327  1.1071
   75MOL0     H10300   8.043   0.344   5.086 -1.4563  0.5782  1.2105
   75MOL0     H10301   8.009   0.241   4.952  0.1066  1.6596  0.6350
   75MOL0     H10302   8.205   0.170   5.184  0.2273 -1.1452 -0.7666
   75MOL0     H10303   8.146   0.051   5.069 -1.2253  0.9121  1.1642
   75MOL0     H10304   8.271   0.191   4.891 -0.6880  2.8720 -0.7589
   75MOL0     H10305   8.296   0.326   5.005  1.0288 -0.3723 -1.6999
   75MOL0     H10306   8.449   0.175   5.125 -2.6797  1.2720  1.2144
   75MOL0     H10307   8.387   0.036   5.051  0.4506  1.1155  0.5997
   75MOL0     H10308   8.358  -0.045   4.858 -0.1482  0.7530  0.5684
   75MOL0     H10309   8.295  -0.222   4.721  0.5885 -0.7436  3.3995
   75MOL0     H10310   8.430  -0.335   4.741 -1.7304 -1.9349 -1.6060
   75MOL0     H10311   8.387  -0.277   4.579  1.5270 -2.4072  0.2788
   75MOL0     H10312   8.769  -0.357   4.313  0.8079  1.1942  0.8980
   75MOL0     H10313   8.884  -0.500   4.189 -1.4612 -1.6667  0.3926
   75MOL0     H10314   9.300  -0.600   4.323  1.6566 -1.3563 -1.4925
   75MOL0     H10315   9.215  -0.722   4.420 -0.7848  0.5343  0.3142
   75MOL0     H10316   9.384  -0.840   4.288  1.3318  3.6591  0.7238
   75MOL0     H10317   9.218  -0.883   4.232 -0.8323 -0.4549  1.6758
   75MOL0     H10318   9.409  -0.670   4.135  2.0782 -2.5208  0.0677
   75MOL0     H10319   9.246  -0.689   4.054  0.3358 -0.5289 -0.0051
   75MOL0     H10320   9.363  -0.783   3.913  0.8204  2.1002  1.9034
   75MOL0     H10321   9.299  -0.922   4.020 -1.9634  0.8042  0.0249
   75MOL0     H10322   9.587  -0.809   4.019  1.5586 -0.0232  0.5869
   75MOL0     H10323   9.522  -0.912   4.134  1.5315  1.8341  0.8469
   75MOL0     H10324   9.555  -0.983   3.852  0.9345 -1.0862 -0.2643
   75MOL0     H10325   9.472  -1.088   3.968 -0.2450 -1.2179 -0.5468
   75MOL0     H10326   9.681  -1.066   4.112  0.2839  2.7448  0.8091
   75MOL0     H10327   9.768  -0.978   3.989  1.2733 -1.2233  4.5318
   75MOL0     H10328   9.659  -1.260   3.971  0.2528 -0.8682 -0.6078
   75MOL0     H10329   9.822  -1.222   3.990  0.7955  3.2487  1.6537
   75MOL0     H10330   9.190  -0.505   4.486  0.0183 -0.3482 -1.4129
   75MOL0     H10331   9.068  -0.358   4.619  1.2623 -2.9532  0.5889
   75MOL0     H10332   8.801  -0.030   4.647 -0.5053 -0.8639 -2.7472
   75MOL0     H10333   8.733   0.143   4.788  1.4142 -1.4214 -1.2318
   75MOL0     H10334   6.585  -0.226   4.907  2.4682  0.3941 -5.3087
   75MOL0     H10335   6.385  -0.158   4.804 -2.3098  1.8055 -0.6388
   75MOL0     H10336   6.075   0.220   4.821 -0.4837 -0.3041 -0.5321
   75MOL0     H10337   5.851   0.293   4.726 -1.7778 -2.2516 -2.2647
   75MOL0     H10338   5.672   0.455   4.399 -0.0368  0.2517  0.0416
   75MOL0     H10339   5.833   0.461   4.354  0.1292 -0.0238 -0.3158
   75MOL0     H10340   5.655   0.213   4.297 -1.5984 -0.1060 -1.8173
   75MOL0     H10341   5.820   0.243   4.238 -0.9919 -1.0897 -2.2756
   75MOL0     H10342   5.724   0.444   4.100  0.1125 -1.2831 -2.8226
   75MOL0     H10343   5.675   0.283   4.050  1.6853  1.1031  0.2304
   75MOL0     H10344   5.501   0.441   4.049 -1.0069  1.2571  1.4997
   75MOL0     H10345   5.506   0.464   4.226 -3.2098 -1.4553  0.1321
   75MOL0     H10346   5.291   0.094   4.180  1.2082 -0.8095 -0.2937
   75MOL0     H10347   6.001   0.247   4.335 -2.1872 -2.6091 -0.0834
   75MOL0     H10348   6.224   0.181   4.276 -1.1756  0.2259  0.6505
   75MOL0     H10349   6.355   0.224   4.390  1.4844 -1.5153  2.1146
   75MOL0     H10350   6.299   0.068   4.382 -0.5189 -0.1738 -1.5964
   76MOL0     O10351   1.307   6.549   3.234 -0.3287  0.6098 -0.4038
   76MOL0     C10352   1.296   6.595   3.123  0.2339  0.3653  0.0195
   76MOL0     O10353   1.400   6.612   3.029 -0.3760  0.6383  0.2481
   76MOL0     C10354   1.529   6.577   3.064  0.6202  0.0955  0.9104
   76MOL0     C10355   1.621   6.680   3.072 -0.1205 -0.0637 -0.2017
   76MOL0     C10356   1.751   6.639   3.086 -0.1624  0.4744  0.0535
   76MOL0     C10357   1.787   6.507   3.110 -0.7393  0.1884 -0.2575
   76MOL0     O10358   1.924   6.463   3.107  0.1189 -0.0602 -0.1314
   76MOL0     C10359   2.014   6.545   3.020 -0.1633 -0.3315 -0.3023
   76MOL0     C10360   2.108   6.635   3.099 -0.1305 -0.3331  1.1855
   76MOL0     C10361   2.176   6.740   3.010  0.5653 -0.0354 -0.0834
   76MOL0     C10362   2.273   6.672   2.914  0.5866 -0.0865  0.1034
   76MOL0     C10363   2.334   6.766   2.814  0.2270 -0.9389  0.0134
   76MOL0     C10364   2.442   6.698   2.733 -0.2237  0.4297 -0.2647
   76MOL0     C10365   2.497   6.795   2.618  0.2605 -0.4141 -0.4934
   76MOL0     C10366   2.579   6.902   2.657  0.5435 -0.0876  0.1237
   76MOL0     N10367   2.709   6.857   2.712 -0.1764 -0.2958 -0.6268
   76MOL0     C10368   2.735   6.830   2.843 -0.2961  0.2805  0.4578
   76MOL0     C10369   2.860   6.782   2.844  0.1754  0.8390 -0.5963
   76MOL0     C10370   2.955   6.734   2.955 -0.4304  0.8647  0.6428
   76MOL0     C10371   3.038   6.835   3.021 -0.1639 -0.2681 -0.6238
   76MOL0     C10372   3.140   6.901   2.930  0.6504  0.5129 -0.4776
   76MOL0     C10373   3.247   6.976   3.014 -0.0956  0.4271 -0.0698
   76MOL0     O10374   3.327   7.044   2.920 -0.6878 -0.0868  0.0115
   76MOL0     C10375   3.462   7.071   2.947 -0.3428  0.0246  0.2661
   76MOL0     C10376   3.536   7.123   2.839 -0.3736 -0.5611  0.1858
   76MOL0     C10377   3.673   7.162   2.864 -0.3830  0.1262  1.0570
   76MOL0     C10378   3.729   7.233   2.743  1.0501  0.3396 -0.0588
   76MOL0     C10379   3.725   7.146   2.990 -0.3479  0.1687 -0.1803
   76MOL0     C10380   3.864   7.169   3.027 -0.7023  0.1002 -0.8000
   76MOL0     O10381   3.961   7.150   2.923 -0.4818  0.3418 -0.0891
   76MOL0     C10382   4.088   7.201   2.935  0.7804 -1.0871  0.0579
   76MOL0     C10383   4.196   7.119   2.978  0.1042  1.2031 -0.7188
   76MOL0     C10384   4.331   7.155   2.962 -1.6163  0.3479  0.3469
   76MOL0     C10385   4.355   7.289   2.923 -0.4613 -0.3526  0.5303
   76MOL0     O10386   4.497   7.322   2.933  0.1198  0.1252 -0.7713
   76MOL0     C10387   4.538   7.444   2.873 -0.4336 -0.5089  0.6340
   76MOL0     C10388   4.689   7.470   2.879  0.0574  0.1174 -0.3063
   76MOL0     C10389   4.738   7.540   3.008  0.1901  0.4884 -0.1860
   76MOL0     C10390   4.893   7.534   3.013 -0.6052  0.4294 -0.5017
   76MOL0     C10391   4.959   7.616   2.901  0.8124 -0.2688 -0.6822
   76MOL0     C10392   5.111   7.625   2.920 -0.4682  0.4235 -0.1712
   76MOL0     C10393   5.138   7.729   3.027 -0.0107 -0.0014 -0.3884
   76MOL0     C10394   5.283   7.757   3.049 -0.2044  0.1998 -0.1632
   76MOL0    Cl10395   5.364   7.609   3.100  0.0349 -0.1724  0.1512
   76MOL0     C10396   4.251   7.380   2.904 -0.0078  0.3600  0.7123
   76MOL0     C10397   4.121   7.335   2.898  0.0523  0.3868  0.2252
   76MOL0     O10398   3.894   7.184   3.144  0.4609  0.1914 -0.2317
   76MOL0     C10399   3.645   7.089   3.090 -0.4080  0.4993  0.1480
   76MOL0     C10400   3.514   7.045   3.073  0.5840 -0.1357  0.9221
   76MOL0     N10401   2.906   6.785   2.702 -0.9644  0.1914  0.1601
   76MOL0     N10402   2.814   6.831   2.629  0.8849 -0.0444 -0.3862
   76MOL0     C10403   1.690   6.406   3.121 -0.2529  0.1085 -0.3203
   76MOL0     C10404   1.562   6.441   3.089 -0.4532  0.0044  0.1710
   76MOL0     C10405   1.155   6.619   3.072 -0.4774  0.1843 -0.5812
   76MOL0     C10406   1.144   6.627   2.934 -0.9861 -0.7937  1.0586
   76MOL0     C10407   1.022   6.656   2.876  0.1796  0.0335  0.7110
   76MOL0     C10408   0.917   6.710   2.943  0.7342  0.1978  0.7242
   76MOL0     O10409   0.796   6.755   2.890 -0.1560  0.7332 -0.4144
   76MOL0     C10410   0.762   6.764   2.754  0.0430  0.1924  0.4604
   76MOL0     C10411   0.623   6.826   2.745 -0.1263  0.2017 -0.9458
   76MOL0     C10412   0.517   6.726   2.791  0.8400 -0.4975  0.1343
   76MOL0     C10413   0.415   6.795   2.892 -0.9380 -0.9456  0.0655
   76MOL0     C10414   0.311   6.697   2.912 -0.0247 -0.5773  0.4560
   76MOL0     C10415   0.227   6.610   2.921 -0.1192 -0.1336 -0.4182
   76MOL0     C10416   0.929   6.700   3.081 -0.5541 -0.0849 -0.2420
   76MOL0     C10417   1.048   6.662   3.153 -0.0111 -0.7162 -0.2512
   76MOL0     C10418   1.051   6.696   3.300 -0.5497  0.4051  0.7551
   76MOL0     H10419   1.606   6.786   3.054  0.2948  0.1616  0.7096
   76MOL0     H10420   1.832   6.711   3.081  0.5901 -0.4267 -1.2899
   76MOL0     H10421   1.966   6.607   2.943  3.1782  1.1289 -1.4343
   76MOL0     H10422   2.077   6.470   2.973  0.8702 -1.9547  3.3264
   76MOL0     H10423   2.048   6.686   3.176 -1.1062  3.1593 -1.6008
   76MOL0     H10424   2.187   6.573   3.143  0.3977 -1.7652 -1.5606
   76MOL0     H10425   2.101   6.795   2.951 -0.3891 -1.3799 -0.1834
   76MOL0     H10426   2.218   6.809   3.083 -4.9069  0.4593  3.1435
   76MOL0     H10427   2.354   6.632   2.976  0.3277  0.9723  1.1557
   76MOL0     H10428   2.236   6.576   2.878  1.6079 -0.8583  1.0456
   76MOL0     H10429   2.383   6.854   2.858  0.8808 -2.1011  1.7130
   76MOL0     H10430   2.249   6.808   2.760 -1.4079 -0.0344  3.0139
   76MOL0     H10431   2.517   6.668   2.807 -2.7960 -1.3612  1.8335
   76MOL0     H10432   2.407   6.607   2.684  1.9983 -0.4380 -0.3607
   76MOL0     H10433   2.412   6.832   2.560  0.4812  0.6020 -0.1780
   76MOL0     H10434   2.552   6.729   2.551  0.8544 -1.0869  0.6175
   76MOL0     H10435   2.603   6.976   2.579 -0.6196  2.7666  2.2897
   76MOL0     H10436   2.529   6.965   2.731 -1.8329 -0.9852 -0.6389
   76MOL0     H10437   2.672   6.861   2.925 -0.1400  2.4715 -0.1892
   76MOL0     H10438   3.015   6.652   2.915 -1.8866 -1.3594  2.6953
   76MOL0     H10439   2.886   6.694   3.031 -0.9654  2.5905  1.1318
   76MOL0     H10440   2.977   6.912   3.069 -1.0809 -0.6890 -1.0946
   76MOL0     H10441   3.094   6.784   3.100 -1.8255 -0.5830  0.4065
   76MOL0     H10442   3.196   6.836   2.862 -1.6439 -1.0557 -0.9642
   76MOL0     H10443   3.086   6.973   2.867 -0.6717  0.8779  1.0198
   76MOL0     H10444   3.196   7.050   3.076 -1.4774  1.2291 -2.0392
   76MOL0     H10445   3.296   6.899   3.074 -1.2627 -0.0419  0.3302
   76MOL0     H10446   3.479   7.140   2.748 -2.0317 -1.0560  1.0905
   76MOL0     H10447   3.699   7.177   2.655  4.0435 -1.1248 -0.2748
   76MOL0     H10448   3.839   7.232   2.737  1.1217  2.3248  0.1575
   76MOL0     H10449   3.703   7.340   2.743 -2.2388 -0.3424  1.1442
   76MOL0     H10450   4.163   7.031   3.032  0.4184  2.3968  1.5827
   76MOL0     H10451   4.404   7.077   2.982 -1.0269  0.7540 -0.1527
   76MOL0     H10452   4.508   7.436   2.769 -0.2362  2.6090  0.2521
   76MOL0     H10453   4.482   7.529   2.913 -4.1188 -2.2166 -0.5459
   76MOL0     H10454   4.739   7.373   2.871 -0.8764 -0.2963 -1.4341
   76MOL0     H10455   4.709   7.539   2.797 -0.0551 -0.3666 -0.7436
   76MOL0     H10456   4.704   7.480   3.093  1.3439 -1.6034 -1.1343
   76MOL0     H10457   4.683   7.633   3.028  0.5786  0.6933 -0.0573
   76MOL0     H10458   4.933   7.432   3.013  1.9722  1.2745  2.1615
   76MOL0     H10459   4.906   7.585   3.109 -2.2486  1.1093 -0.6079
   76MOL0     H10460   4.954   7.564   2.805 -0.3735  0.4619 -1.0427
   76MOL0     H10461   4.922   7.719   2.895 -1.2000 -0.9646 -1.1134
   76MOL0     H10462   5.169   7.650   2.830  2.5409 -2.4813  0.7948
   76MOL0     H10463   5.144   7.529   2.959 -3.0819 -0.0915  0.9886
   76MOL0     H10464   5.090   7.698   3.120 -1.8244  1.8435 -0.6399
   76MOL0     H10465   5.100   7.831   3.017 -0.4482  0.0008  1.0548
   76MOL0     H10466   5.293   7.831   3.128 -2.0789  0.8963 -0.5154
   76MOL0     H10467   5.323   7.809   2.961 -0.3031 -1.4014 -1.2060
   76MOL0     H10468   4.268   7.488   2.903 -1.2694  0.5987  2.1390
   76MOL0     H10469   4.049   7.411   2.869  0.1731  0.9842  1.4521
   76MOL0     H10470   3.679   7.091   3.193  4.7277  1.9846 -1.2449
   76MOL0     H10471   3.466   7.013   3.165  0.1688 -1.1115  0.3876
   76MOL0     H10472   1.724   6.303   3.129  1.2684  0.6691  1.2497
   76MOL0     H10473   1.486   6.364   3.081 -0.8906  0.5949 -1.9657
   76MOL0     H10474   1.231   6.604   2.873 -1.4745 -2.9339  1.0955
   76MOL0     H10475   1.018   6.660   2.767  0.7529 -1.0751  0.6267
   76MOL0     H10476   0.825   6.824   2.688 -0.6107 -0.7627 -1.1055
   76MOL0     H10477   0.756   6.665   2.707  0.1572  0.5439 -0.3123
   76MOL0     H10478   0.602   6.861   2.644  0.1413  0.2913 -0.9702
   76MOL0     H10479   0.620   6.916   2.807  1.2486  0.7825 -1.6833
   76MOL0     H10480   0.462   6.678   2.710  2.6858 -1.1424 -0.7944
   76MOL0     H10481   0.560   6.650   2.857  0.5931  1.3515  2.5597
   76MOL0     H10482   0.367   6.883   2.847  2.2498 -0.0023 -1.8325
   76MOL0     H10483   0.459   6.822   2.988  0.4979 -5.0143  0.7367
   76MOL0     H10484   0.160   6.528   2.937 -0.9360  0.8235  1.2971
   76MOL0     H10485   0.841   6.717   3.141 -0.1096  0.0939  0.3759
   76MOL0     H10486   0.956   6.725   3.346 -0.0146  0.3332  1.9572
   76MOL0     H10487   1.094   6.614   3.358 -0.0386 -0.2928 -0.5881
   76MOL0     H10488   1.112   6.785   3.318 -1.1478  1.1215 -0.6154
   77MOL0     O10489   8.986   0.548  10.230  0.8082  0.1160  0.2785
   77MOL0     C10490   8.924   0.635  10.296  0.6252 -0.0556 -0.6657
   77MOL0     O10491   8.970   0.760  10.312  0.3774 -0.0225 -0.3242
   77MOL0     C10492   9.079   0.800  10.229 -0.3978 -0.0008 -0.7420
   77MOL0     C10493   9.198   0.821  10.301 -0.7567  0.0420 -0.3036
   77MOL0     C10494   9.310   0.867  10.229  0.3768  0.0862 -0.5115
   77MOL0     C10495   9.308   0.884  10.090 -0.7904  0.5712 -0.5783
   77MOL0     O10496   9.416   0.916  10.014 -0.4777 -0.6305 -0.4571
   77MOL0     C10497   9.532   0.961  10.078 -0.8412  0.6508 -0.1569
   77MOL0     C10498   9.636   0.972   9.965  0.5659 -0.2252  0.0947
   77MOL0     C10499   9.784   0.954  10.009 -0.3665 -0.2941 -0.7934
   77MOL0     C10500   9.826   1.024  10.142 -1.4607 -0.4035  0.0645
   77MOL0     C10501   9.985   0.999  10.137  0.3511  0.3763  0.5745
   77MOL0     C10502  10.053   1.064  10.250  1.1051 -0.9654 -1.0052
   77MOL0     C10503  10.202   1.043  10.253  0.1872  0.1540 -0.1100
   77MOL0     C10504  10.278   1.110  10.143 -0.4654  0.3567  0.7842
   77MOL0     N10505  10.406   1.048  10.111  0.3069 -0.0941  0.0048
   77MOL0     C10506  10.521   1.092  10.153  0.1739  0.0051 -0.3198
   77MOL0     C10507  10.609   1.011  10.086  0.3496 -0.3558  0.7182
   77MOL0     C10508  10.762   0.990  10.078  0.7062  0.1859 -0.3324
   77MOL0     C10509  10.838   1.070   9.980  0.1607  0.6926 -0.4319
   77MOL0     C10510  10.989   1.068  10.030 -0.1391 -0.4281  0.0436
   77MOL0     C10511  11.066   1.174   9.961 -0.4037 -0.4984  0.1984
   77MOL0     O10512  11.011   1.304   9.982 -0.3963  0.1716 -0.1035
   77MOL0     C10513  11.082   1.412   9.933 -0.7224 -0.4151 -0.0046
   77MOL0     C10514  11.191   1.414   9.845  0.0861 -0.6583 -0.7308
   77MOL0     C10515  11.257   1.528   9.803  0.1350 -0.4988 -0.0678
   77MOL0     C10516  11.383   1.500   9.725 -0.7429 -0.3881 -0.0786
   77MOL0     C10517  11.214   1.656   9.833 -0.0919 -0.4988  0.0309
   77MOL0     C10518  11.283   1.782   9.782  0.7653 -0.8938  0.3832
   77MOL0     O10519  11.197   1.889   9.739  0.0669 -0.4220  0.3873
   77MOL0     C10520  11.250   2.020   9.746 -0.4456  0.4530 -1.3546
   77MOL0     C10521  11.263   2.100   9.634 -0.3301  1.7479 -0.1271
   77MOL0     C10522  11.290   2.238   9.643  0.5433  0.1864 -0.0651
   77MOL0     C10523  11.288   2.309   9.760  0.4754  0.2450  0.5397
   77MOL0     O10524  11.301   2.446   9.782 -0.2743  0.0917 -0.2662
   77MOL0     C10525  11.289   2.527   9.674 -0.3341  0.0489  0.0493
   77MOL0     C10526  11.144   2.555   9.652  0.8294  0.3472 -1.0061
   77MOL0     C10527  11.110   2.653   9.544  0.3672  0.5705  0.4003
   77MOL0     C10528  11.124   2.584   9.415  0.1066 -0.1730  0.4133
   77MOL0     C10529  11.115   2.684   9.293 -0.1667 -0.0732 -0.4731
   77MOL0     C10530  11.228   2.783   9.291 -0.4364  0.4373  0.2842
   77MOL0     C10531  11.369   2.716   9.277 -0.3667 -0.7495  1.0897
   77MOL0     C10532  11.451   2.758   9.145  0.0488  0.3245 -0.5701
   77MOL0    Cl10533  11.396   2.662   9.006  0.5132  0.0712  0.0545
   77MOL0     C10534  11.276   2.227   9.872 -0.4036 -0.6604 -0.6270
   77MOL0     C10535  11.260   2.090   9.865  0.1928 -0.5057  0.5771
   77MOL0     O10536  11.401   1.798   9.809  0.6057  0.2186 -0.4392
   77MOL0     C10537  11.096   1.658   9.909  0.5299  0.0516 -0.4183
   77MOL0     C10538  11.035   1.543   9.958  0.8343  0.1914 -0.3408
   77MOL0     N10539  10.545   0.924  10.009 -0.2427 -0.1400 -0.2326
   77MOL0     N10540  10.421   0.937  10.026 -0.7445 -0.6437 -0.2737
   77MOL0     C10541   9.186   0.875  10.026  0.5700  0.2304  0.1101
   77MOL0     C10542   9.069   0.833  10.096 -0.8832 -0.2635 -0.2898
   77MOL0     C10543   8.800   0.600  10.367  0.9310  0.2786 -0.1608
   77MOL0     C10544   8.780   0.462  10.405  0.9993 -1.2861  0.0823
   77MOL0     C10545   8.657   0.413  10.452  0.3764  0.3413  0.4031
   77MOL0     C10546   8.553   0.510  10.469  0.6537 -0.8420 -0.5810
   77MOL0     O10547   8.426   0.484  10.523  1.2638 -0.0830  0.0249
   77MOL0     C10548   8.370   0.347  10.522 -0.0310  0.0405  0.1664
   77MOL0     C10549   8.230   0.346  10.571  0.5978  1.4490  0.1558
   77MOL0     C10550   8.118   0.368  10.471  0.3472 -0.6747 -0.3696
   77MOL0     C10551   8.126   0.278  10.351 -0.4041 -0.0206 -0.3900
   77MOL0     C10552   8.092   0.138  10.389 -0.4164  0.3087 -0.3846
   77MOL0     C10553   8.054   0.029  10.412  0.0585  0.6818  0.4279
   77MOL0     C10554   8.584   0.644  10.444  0.0377  0.1735 -0.1345
   77MOL0     C10555   8.695   0.696  10.390 -0.6690  0.5084 -0.1414
   77MOL0     C10556   8.699   0.844  10.368 -0.4133 -0.2216 -0.6693
   77MOL0     H10557   9.199   0.812  10.409  4.4458 -2.5139 -0.2436
   77MOL0     H10558   9.399   0.864  10.291 -0.9484  0.9067  1.5149
   77MOL0     H10559   9.565   0.893  10.157 -0.4380  2.0509  0.9198
   77MOL0     H10560   9.519   1.055  10.133  2.1812  1.1140 -0.0552
   77MOL0     H10561   9.610   0.902   9.885 -0.4551 -0.0751  0.2757
   77MOL0     H10562   9.624   1.076   9.931  0.6226 -0.1448  0.3191
   77MOL0     H10563   9.820   0.851  10.014  2.1228  0.5840  1.6938
   77MOL0     H10564   9.837   0.991   9.921 -0.1063 -0.3281 -0.6504
   77MOL0     H10565   9.815   1.132  10.140  2.1551  0.1257  0.6094
   77MOL0     H10566   9.784   0.981  10.233  0.7476 -2.9610  0.0247
   77MOL0     H10567  10.032   1.036  10.046  1.3644 -1.7875  0.1772
   77MOL0     H10568  10.009   0.893  10.130 -1.3154  0.0347 -0.7297
   77MOL0     H10569  10.024   1.169  10.242  1.3457 -0.7592  0.6328
   77MOL0     H10570  10.011   1.016  10.338  2.1850 -0.6107 -0.2814
   77MOL0     H10571  10.206   0.933  10.254  1.4425  0.1804 -1.2179
   77MOL0     H10572  10.243   1.061  10.353  0.6623 -1.6435  0.0520
   77MOL0     H10573  10.220   1.097  10.051  1.7883 -3.2869 -0.3464
   77MOL0     H10574  10.306   1.211  10.174  0.9193  0.2449 -0.0079
   77MOL0     H10575  10.545   1.176  10.218  0.6313 -1.3943  1.3983
   77MOL0     H10576  10.778   0.883  10.068 -0.7945  0.0458 -1.8217
   77MOL0     H10577  10.802   1.035  10.169  2.1978 -0.5079 -0.6153
   77MOL0     H10578  10.840   1.025   9.880  0.0293 -2.3177  0.8310
   77MOL0     H10579  10.795   1.171   9.984  0.0774  0.6113  1.4420
   77MOL0     H10580  10.996   1.083  10.138  2.5030  4.1314 -0.5086
   77MOL0     H10581  11.016   0.964  10.009 -1.8886 -0.7860 -0.6133
   77MOL0     H10582  11.170   1.184   9.994 -0.8351  1.6510  1.0424
   77MOL0     H10583  11.063   1.163   9.852  2.1528  1.0413 -0.1115
   77MOL0     H10584  11.240   1.320   9.823  2.5965 -0.1617  2.0976
   77MOL0     H10585  11.433   1.591   9.692 -0.6566  0.0787  1.2553
   77MOL0     H10586  11.370   1.432   9.640  1.5977  1.1374 -1.7668
   77MOL0     H10587  11.448   1.445   9.795  1.0898  1.7766  0.0292
   77MOL0     H10588  11.276   2.051   9.538  0.1758 -1.5458  1.4669
   77MOL0     H10589  11.294   2.297   9.552 -0.6507  1.8447  0.9045
   77MOL0     H10590  11.337   2.624   9.692  0.9699 -0.1985 -1.8216
   77MOL0     H10591  11.345   2.497   9.585 -0.7927  0.6633 -0.4638
   77MOL0     H10592  11.086   2.465   9.629  0.1147  0.8357 -1.1635
   77MOL0     H10593  11.098   2.586   9.746 -1.2277  0.2886 -1.9173
   77MOL0     H10594  11.169   2.744   9.546 -1.1195  1.5726  0.4950
   77MOL0     H10595  11.004   2.680   9.544  0.3423  0.4792  0.6426
   77MOL0     H10596  11.039   2.517   9.398 -0.2422  0.6156 -1.2127
   77MOL0     H10597  11.214   2.522   9.407  0.7650  0.6229  1.4658
   77MOL0     H10598  11.120   2.626   9.201  2.6287  0.5501 -0.8043
   77MOL0     H10599  11.020   2.739   9.289 -2.1292 -3.1220  0.6267
   77MOL0     H10600  11.218   2.856   9.372 -1.0016  0.0380  0.5761
   77MOL0     H10601  11.216   2.843   9.199  0.0880  0.6603  0.3626
   77MOL0     H10602  11.352   2.608   9.286  0.0184 -0.7172  2.3447
   77MOL0     H10603  11.422   2.740   9.369 -2.4042  0.0798  2.1034
   77MOL0     H10604  11.554   2.730   9.170 -0.4578 -0.4149  0.8608
   77MOL0     H10605  11.455   2.865   9.126  1.6797  0.3162 -0.4119
   77MOL0     H10606  11.267   2.268   9.972 -0.9886  2.5760 -1.8499
   77MOL0     H10607  11.242   2.029   9.954 -0.4825 -2.1726 -0.6517
   77MOL0     H10608  11.056   1.758   9.923  0.4910  0.1528 -1.2568
   77MOL0     H10609  10.962   1.557  10.036 -0.1171  0.1653 -1.2072
   77MOL0     H10610   9.168   0.896   9.921  0.0265  1.0919  0.3655
   77MOL0     H10611   8.975   0.834  10.042 -0.3139 -1.5995 -1.3582
   77MOL0     H10612   8.856   0.387  10.384  1.8152 -0.5378  0.3164
   77MOL0     H10613   8.640   0.307  10.470 -1.7329  0.2105 -1.8007
   77MOL0     H10614   8.390   0.290  10.431  0.5984 -1.2963  1.1125
   77MOL0     H10615   8.422   0.282  10.592  1.3959  0.5973 -0.3513
   77MOL0     H10616   8.222   0.407  10.661  1.8499 -0.2608  1.4887
   77MOL0     H10617   8.221   0.243  10.607  0.6658  0.8310 -1.4675
   77MOL0     H10618   8.027   0.356  10.530 -0.2585 -1.3179 -1.4063
   77MOL0     H10619   8.122   0.473  10.443 -2.3825 -0.3041  0.3269
   77MOL0     H10620   8.229   0.283  10.317  0.6236 -0.6987  2.3014
   77MOL0     H10621   8.066   0.321  10.270 -2.1983  1.5154  1.6191
   77MOL0     H10622   8.022  -0.074  10.412 -0.4777  0.7995 -1.4726
   77MOL0     H10623   8.504   0.717  10.444 -0.0357  0.1321 -1.9726
   77MOL0     H10624   8.714   0.858  10.261 -3.9696  2.7093 -1.0068
   77MOL0     H10625   8.603   0.892  10.390  0.6104  1.8103 -0.3996
   77MOL0     H10626   8.777   0.891  10.429  0.1446 -1.6017 -0.2910
   78MOL0     O10627   6.433   8.289   6.118 -0.1486 -0.3928 -0.1628
   78MOL0     C10628   6.443   8.182   6.166 -0.7864  0.3647 -0.1056
   78MOL0     O10629   6.549   8.144   6.249  0.1729  0.0289 -0.4268
   78MOL0     C10630   6.662   8.213   6.259  0.8595 -1.0197  0.5582
   78MOL0     C10631   6.717   8.195   6.382  0.4314 -0.5875  0.4422
   78MOL0     C10632   6.836   8.267   6.420  0.7997 -0.2947 -0.3309
   78MOL0     C10633   6.902   8.343   6.330  0.5188  0.2551 -0.7943
   78MOL0     O10634   7.029   8.386   6.373 -0.7384  0.2982  0.5892
   78MOL0     C10635   7.077   8.511   6.330  0.2164 -0.7258  0.3050
   78MOL0     C10636   7.230   8.530   6.371  0.6938 -0.6777  0.7861
   78MOL0     C10637   7.324   8.410   6.343  0.0066 -0.2903  0.6316
   78MOL0     C10638   7.465   8.443   6.367 -0.4760 -0.2961 -0.4584
   78MOL0     C10639   7.554   8.326   6.336 -0.4471 -0.5145  0.1537
   78MOL0     C10640   7.701   8.333   6.393  0.2171 -0.2529  0.2074
   78MOL0     C10641   7.788   8.425   6.310 -0.8084 -0.0052  0.0188
   78MOL0     C10642   7.935   8.408   6.341  0.0512 -0.4821  0.2377
   78MOL0     N10643   8.015   8.520   6.298 -0.0570  0.0218  1.0218
   78MOL0     C10644   8.119   8.505   6.211 -0.8587  0.3296 -0.4500
   78MOL0     C10645   8.161   8.631   6.204  1.0906  0.4034 -0.0915
   78MOL0     C10646   8.283   8.683   6.129  1.1038  0.1006 -1.1825
   78MOL0     C10647   8.408   8.647   6.204  0.2895  1.5197  0.2672
   78MOL0     C10648   8.451   8.743   6.313  0.3152 -0.3204 -1.1227
   78MOL0     C10649   8.606   8.768   6.330  0.3141 -0.4265  0.5172
   78MOL0     O10650   8.618   8.776   6.470 -0.5608 -0.0419 -0.5999
   78MOL0     C10651   8.745   8.788   6.521  0.1418  0.2037  0.1357
   78MOL0     C10652   8.774   8.741   6.642 -1.1680 -0.7981  0.2580
   78MOL0     C10653   8.892   8.769   6.716 -0.5227 -0.2690  0.5615
   78MOL0     C10654   8.901   8.716   6.860  1.1724 -0.5876 -0.1188
   78MOL0     C10655   8.994   8.851   6.658 -0.3721  0.3757 -0.7647
   78MOL0     C10656   9.114   8.891   6.734  0.2791 -0.0169 -0.9411
   78MOL0     O10657   9.179   8.785   6.803  0.3122 -0.1855 -0.6043
   78MOL0     C10658   9.286   8.830   6.881  0.3796  0.2590  0.4769
   78MOL0     C10659   9.406   8.866   6.828 -0.4159 -0.2022  0.3953
   78MOL0     C10660   9.511   8.907   6.922  0.2038 -0.4257  1.2822
   78MOL0     C10661   9.486   8.908   7.059 -0.1301  1.1090 -0.0335
   78MOL0     O10662   9.585   8.954   7.140  0.8143  0.5569 -0.1732
   78MOL0     C10663   9.558   8.990   7.273  0.7481 -1.0739  0.2047
   78MOL0     C10664   9.650   9.092   7.315  0.3196 -0.1799 -0.1064
   78MOL0     C10665   9.794   9.056   7.332 -0.4794 -0.3981 -0.0647
   78MOL0     C10666   9.877   9.177   7.372  0.3462  0.1649 -0.4748
   78MOL0     C10667  10.015   9.134   7.413 -0.4991 -0.7000  0.2692
   78MOL0     C10668  10.074   9.259   7.451 -1.0217  0.5193 -1.1189
   78MOL0     C10669  10.215   9.250   7.495 -0.3947 -0.5561  0.2251
   78MOL0     C10670  10.240   9.358   7.597 -0.4700  0.7973  0.4448
   78MOL0    Cl10671  10.229   9.521   7.516 -0.0285  0.1420 -0.2264
   78MOL0     C10672   9.348   8.881   7.100  0.4870 -0.2914  0.5242
   78MOL0     C10673   9.247   8.847   7.011 -0.6002  0.8787 -0.8566
   78MOL0     O10674   9.156   9.008   6.712 -0.2245  0.0014 -0.4414
   78MOL0     C10675   8.968   8.902   6.524  0.1224  0.4731  0.6223
   78MOL0     C10676   8.846   8.870   6.457  0.1027  0.4412 -0.7293
   78MOL0     N10677   8.093   8.718   6.286 -0.0694 -0.5292 -0.0866
   78MOL0     N10678   8.003   8.647   6.343 -0.0891  0.4620  0.1000
   78MOL0     C10679   6.857   8.352   6.198  0.1353  0.1223 -0.4600
   78MOL0     C10680   6.739   8.282   6.167 -0.2474 -0.4655 -0.5538
   78MOL0     C10681   6.337   8.079   6.142  0.4894 -0.6258 -1.1289
   78MOL0     C10682   6.352   7.950   6.199 -0.1009  0.3243  0.1725
   78MOL0     C10683   6.245   7.862   6.180 -0.0223  0.0745  0.0068
   78MOL0     C10684   6.134   7.892   6.104  0.7705  0.0582  0.5568
   78MOL0     O10685   6.022   7.809   6.091 -0.1690 -0.2407  0.1897
   78MOL0     C10686   6.041   7.662   6.092 -0.6806 -0.4149  0.0111
   78MOL0     C10687   5.911   7.592   6.079  0.0142  0.0981  0.1539
   78MOL0     C10688   5.875   7.514   6.205 -0.4167 -1.3573  0.3038
   78MOL0     C10689   5.739   7.435   6.191 -0.0331 -0.3212 -0.0547
   78MOL0     C10690   5.640   7.535   6.168  0.2656 -0.6804 -0.3348
   78MOL0     C10691   5.551   7.618   6.146 -0.3209  0.1066  0.4109
   78MOL0     C10692   6.118   8.013   6.051  0.7891  0.3191  0.5954
   78MOL0     C10693   6.217   8.107   6.064  0.6583  0.0367  0.2318
   78MOL0     C10694   6.186   8.243   5.993  0.3123  0.4987 -0.5942
   78MOL0     H10695   6.672   8.138   6.462  1.6332 -2.8415 -0.3650
   78MOL0     H10696   6.894   8.241   6.508  0.1806 -1.6307 -0.2993
   78MOL0     H10697   7.025   8.594   6.377 -0.0329  1.1127 -2.9224
   78MOL0     H10698   7.072   8.521   6.221  0.8916  2.4979  0.4748
   78MOL0     H10699   7.263   8.626   6.329 -0.6895 -0.6623 -0.3457
   78MOL0     H10700   7.229   8.538   6.480  3.5438  2.3612  0.7684
   78MOL0     H10701   7.292   8.321   6.399 -0.2261 -0.1874  0.6599
   78MOL0     H10702   7.317   8.390   6.236  0.8126 -0.0198  0.5229
   78MOL0     H10703   7.490   8.539   6.320 -0.0786  1.7053  3.4161
   78MOL0     H10704   7.468   8.464   6.474  0.6289 -0.8655 -0.3706
   78MOL0     H10705   7.557   8.311   6.228 -0.5384 -0.4276  0.1395
   78MOL0     H10706   7.509   8.237   6.381 -4.3570 -0.2094 -2.6745
   78MOL0     H10707   7.701   8.370   6.496 -0.4754  1.2164 -0.2858
   78MOL0     H10708   7.751   8.236   6.397 -0.2196 -0.6307 -1.9907
   78MOL0     H10709   7.757   8.525   6.342 -1.3945 -0.2613  0.2580
   78MOL0     H10710   7.773   8.414   6.203 -1.4531 -2.3154  0.2939
   78MOL0     H10711   7.946   8.400   6.449  2.1528  1.6553  0.2635
   78MOL0     H10712   7.970   8.317   6.291  1.1592  0.2526 -0.3711
   78MOL0     H10713   8.165   8.417   6.168  2.2713  2.2762 -1.3705
   78MOL0     H10714   8.282   8.792   6.124  2.1740  0.0871 -1.9246
   78MOL0     H10715   8.272   8.646   6.026 -1.0496 -1.6790 -0.3918
   78MOL0     H10716   8.408   8.546   6.246  1.2903  1.6560  0.6455
   78MOL0     H10717   8.491   8.640   6.133 -1.3398 -2.3951 -1.5207
   78MOL0     H10718   8.393   8.835   6.323  1.5427  0.2558  2.0982
   78MOL0     H10719   8.410   8.688   6.399 -0.6787  1.8250 -0.1637
   78MOL0     H10720   8.671   8.689   6.291  0.2975  0.1497 -0.7301
   78MOL0     H10721   8.634   8.863   6.281  0.4362 -0.4039  0.6299
   78MOL0     H10722   8.699   8.678   6.689 -2.2587 -1.1315 -1.7984
   78MOL0     H10723   8.987   8.649   6.869  1.7325 -0.0751 -1.4281
   78MOL0     H10724   8.814   8.653   6.877  0.9649 -0.7194 -1.5992
   78MOL0     H10725   8.925   8.787   6.940  1.7051  0.5894 -1.2964
   78MOL0     H10726   9.434   8.856   6.724  1.1552 -0.6343  0.8227
   78MOL0     H10727   9.608   8.947   6.894  0.3720 -2.4386 -1.3647
   78MOL0     H10728   9.456   9.022   7.298  0.6002 -1.7525  0.4982
   78MOL0     H10729   9.570   8.897   7.330 -1.6363 -1.0932  0.7598
   78MOL0     H10730   9.623   9.176   7.250  0.2930 -0.3593 -0.3267
   78MOL0     H10731   9.620   9.115   7.418  2.0046  0.1177  0.3506
   78MOL0     H10732   9.830   9.016   7.237 -5.2482 -1.6114 -1.6299
   78MOL0     H10733   9.794   8.976   7.407 -0.2056 -1.1261 -0.8244
   78MOL0     H10734   9.828   9.234   7.451 -1.2104  1.1643 -2.0991
   78MOL0     H10735   9.891   9.236   7.281  1.2705 -2.1039 -1.9208
   78MOL0     H10736  10.018   9.054   7.487 -0.1954 -1.3857 -0.4633
   78MOL0     H10737  10.069   9.095   7.326 -0.0157 -1.2662  0.8172
   78MOL0     H10738  10.026   9.295   7.543  2.7910  2.0078  0.4846
   78MOL0     H10739  10.063   9.330   7.368 -0.6212  2.9334  0.7688
   78MOL0     H10740  10.283   9.264   7.410 -0.9232 -0.2718 -0.1545
   78MOL0     H10741  10.242   9.155   7.540  2.1455 -0.2223 -0.4421
   78MOL0     H10742  10.342   9.347   7.635 -0.7707  1.9609  1.6683
   78MOL0     H10743  10.170   9.335   7.678 -1.9304  0.6609 -0.8066
   78MOL0     H10744   9.313   8.890   7.202 -2.3444  1.9094 -0.5032
   78MOL0     H10745   9.145   8.816   7.032 -0.7466  0.6079 -1.9173
   78MOL0     H10746   9.039   8.962   6.468  0.7947 -0.1297  0.8071
   78MOL0     H10747   8.823   8.909   6.358  2.8409  0.1069 -1.5894
   78MOL0     H10748   6.919   8.398   6.122 -1.2675  0.0283 -1.7072
   78MOL0     H10749   6.703   8.280   6.064 -2.3386  0.7948  0.0874
   78MOL0     H10750   6.454   7.931   6.231 -0.3686  2.5565  2.7467
   78MOL0     H10751   6.259   7.762   6.221 -0.6054  0.3504  0.8944
   78MOL0     H10752   6.110   7.627   6.015  0.0023 -1.9823  1.2644
   78MOL0     H10753   6.097   7.627   6.179  3.0711 -0.8484 -2.3721
   78MOL0     H10754   5.933   7.509   6.012  4.5950  1.1276  0.0971
   78MOL0     H10755   5.837   7.668   6.052 -2.7221 -2.4615 -0.0622
   78MOL0     H10756   5.947   7.432   6.217  1.0408 -0.6005 -2.4313
   78MOL0     H10757   5.882   7.577   6.294  1.0607  1.0819 -1.4388
   78MOL0     H10758   5.712   7.386   6.285 -2.6043  0.9005 -0.0799
   78MOL0     H10759   5.742   7.360   6.112  1.0107  0.8104 -1.1318
   78MOL0     H10760   5.476   7.695   6.142 -1.0986 -0.6573  0.1024
   78MOL0     H10761   6.039   8.029   5.978 -0.3177 -0.3903  1.6051
   78MOL0     H10762   6.266   8.265   5.922 -0.2759  0.9168 -1.1413
   78MOL0     H10763   6.090   8.247   5.940 -1.7638  1.9348  2.8627
   78MOL0     H10764   6.164   8.326   6.061  0.2223 -0.7185  0.9113
   79MOL0     O10765   1.343   6.817   1.300  0.2093 -0.3664  0.3957
   79MOL0     C10766   1.244   6.850   1.230 -0.6228 -0.9927 -0.8839
   79MOL0     O10767   1.256   6.954   1.138  0.2662  0.3796 -0.5027
   79MOL0     C10768   1.384   6.986   1.092 -0.1553  0.2674  0.1453
   79MOL0     C10769   1.458   7.083   1.163 -0.2949  0.8112 -0.6361
   79MOL0     C10770   1.590   7.106   1.127 -0.9095 -0.4265  0.1946
   79MOL0     C10771   1.645   7.039   1.016  0.2689 -0.1695 -0.2840
   79MOL0     O10772   1.774   7.073   0.976 -0.9229  0.5089  0.1327
   79MOL0     C10773   1.811   7.205   0.955 -0.9475 -0.6431  0.0521
   79MOL0     C10774   1.895   7.287   1.054  0.0128  0.3461  0.0065
   79MOL0     C10775   2.014   7.203   1.111  0.4984  0.0908  0.1086
   79MOL0     C10776   2.143   7.290   1.117  0.4327 -0.1138  0.3050
   79MOL0     C10777   2.261   7.195   1.158 -0.4439 -0.8392  0.4977
   79MOL0     C10778   2.399   7.264   1.147 -0.2150  0.2755  0.4514
   79MOL0     C10779   2.499   7.154   1.174  0.4406  0.5164 -1.0227
   79MOL0     C10780   2.651   7.185   1.141  0.6501 -0.2202  0.3837
   79MOL0     N10781   2.712   7.269   1.249  0.0109 -0.1840  0.6104
   79MOL0     C10782   2.840   7.315   1.219 -0.7106 -0.3624  0.0429
   79MOL0     C10783   2.891   7.348   1.342  0.2746 -1.1066  0.2498
   79MOL0     C10784   3.024   7.415   1.358  0.1814 -0.6812  0.3608
   79MOL0     C10785   3.026   7.539   1.442  0.2443 -0.2202 -0.3024
   79MOL0     C10786   3.172   7.598   1.436 -0.4548 -0.5286  0.2563
   79MOL0     C10787   3.269   7.535   1.540 -0.0971 -0.0201 -0.9190
   79MOL0     O10788   3.383   7.618   1.534 -0.2419 -1.2787  0.9157
   79MOL0     C10789   3.488   7.583   1.458 -0.3064  0.0248 -0.3198
   79MOL0     C10790   3.615   7.637   1.494 -0.4824  0.0968 -0.5578
   79MOL0     C10791   3.735   7.611   1.428 -0.5157 -0.2609 -0.3824
   79MOL0     C10792   3.857   7.666   1.488  0.1400  0.6995 -0.5379
   79MOL0     C10793   3.734   7.534   1.302 -0.3863  0.2755 -0.2629
   79MOL0     C10794   3.853   7.518   1.214  0.5817  0.2135  0.0471
   79MOL0     O10795   3.964   7.595   1.236 -0.4764 -0.5482  0.4341
   79MOL0     C10796   4.083   7.548   1.196 -0.4339  0.3476 -0.2773
   79MOL0     C10797   4.126   7.413   1.209 -0.6279 -0.9359  0.2271
   79MOL0     C10798   4.252   7.375   1.160  0.6594  0.3086 -0.1080
   79MOL0     C10799   4.335   7.464   1.104 -0.9199 -0.1163  0.2213
   79MOL0     O10800   4.453   7.411   1.043  0.5658 -0.1606 -0.3758
   79MOL0     C10801   4.548   7.502   0.975 -0.0997  0.1147 -0.3810
   79MOL0     C10802   4.674   7.426   0.933 -0.7411 -0.1712  0.0095
   79MOL0     C10803   4.761   7.376   1.049 -0.4323  0.7327 -0.2187
   79MOL0     C10804   4.860   7.258   1.016 -0.3910 -0.4109 -0.0514
   79MOL0     C10805   4.933   7.197   1.137  0.1238  0.0066  0.6107
   79MOL0     C10806   5.004   7.074   1.099 -0.3153  0.5647 -0.5256
   79MOL0     C10807   5.136   7.106   1.037 -1.8912 -0.1728  0.3373
   79MOL0     C10808   5.220   6.985   0.997 -0.0681 -0.0726  0.0406
   79MOL0    Cl10809   5.265   6.901   1.148 -0.0016 -0.0929  0.0606
   79MOL0     C10810   4.296   7.598   1.096 -0.0399 -0.0388 -0.0977
   79MOL0     C10811   4.173   7.637   1.146 -0.1766 -0.1633  0.0079
   79MOL0     O10812   3.843   7.413   1.137 -0.5086  0.3884 -0.1565
   79MOL0     C10813   3.614   7.478   1.268  0.5215 -0.2615  0.2747
   79MOL0     C10814   3.499   7.490   1.350  1.2174  0.2607  0.1027
   79MOL0     N10815   2.787   7.319   1.432 -0.8007 -0.6856 -0.2223
   79MOL0     N10816   2.688   7.267   1.380 -0.4278 -0.9558  0.4900
   79MOL0     C10817   1.573   6.938   0.947 -0.3500  0.7049 -0.8712
   79MOL0     C10818   1.441   6.907   0.991 -0.4221  0.6538 -0.6166
   79MOL0     C10819   1.109   6.806   1.242  0.2700 -0.9388 -0.4699
   79MOL0     C10820   1.005   6.903   1.222 -0.1650  0.0749  0.0870
   79MOL0     C10821   0.876   6.859   1.242  0.3522  0.6117 -0.1919
   79MOL0     C10822   0.844   6.740   1.299  0.2280 -0.9292 -0.5800
   79MOL0     O10823   0.717   6.702   1.329 -0.1256  0.8011 -0.2584
   79MOL0     C10824   0.611   6.786   1.285 -0.2684 -0.0269  0.0106
   79MOL0     C10825   0.475   6.727   1.334  0.3352  0.9094  0.1314
   79MOL0     C10826   0.365   6.771   1.236  0.6506 -0.8359  0.0729
   79MOL0     C10827   0.238   6.672   1.219  0.0188 -0.8854 -0.2988
   79MOL0     C10828   0.157   6.666   1.335 -0.5938 -0.7263  0.8364
   79MOL0     C10829   0.095   6.635   1.434  0.1709 -0.4775 -0.0335
   79MOL0     C10830   0.954   6.654   1.331  0.5648  1.0641  0.0585
   79MOL0     C10831   1.083   6.679   1.297  0.0212 -1.0024  0.3361
   79MOL0     C10832   1.190   6.573   1.320 -0.2128 -0.2441 -0.0772
   79MOL0     H10833   1.411   7.127   1.251 -0.7124 -1.5646  0.4087
   79MOL0     H10834   1.662   7.157   1.190  1.4620 -3.1515 -0.0661
   79MOL0     H10835   1.720   7.265   0.941  0.9398  2.8300  1.4567
   79MOL0     H10836   1.866   7.211   0.860  3.7189  0.9229  2.5681
   79MOL0     H10837   1.927   7.384   1.017 -2.1165  1.4839  0.9414
   79MOL0     H10838   1.829   7.321   1.135 -1.0468  1.5258 -1.3116
   79MOL0     H10839   1.985   7.174   1.212 -1.2514  0.3446 -0.2937
   79MOL0     H10840   2.019   7.112   1.050 -0.8714  0.2303 -0.2395
   79MOL0     H10841   2.148   7.330   1.015 -1.7300 -0.9873 -0.2094
   79MOL0     H10842   2.121   7.373   1.186 -2.7724 -1.4884  1.1276
   79MOL0     H10843   2.267   7.105   1.097  1.9144 -0.9179  0.7389
   79MOL0     H10844   2.240   7.169   1.262  0.5471  2.9427  1.8279
   79MOL0     H10845   2.423   7.294   1.045  0.1467  0.3181  0.5503
   79MOL0     H10846   2.396   7.351   1.213  0.0192  0.3734  0.3312
   79MOL0     H10847   2.478   7.067   1.112 -0.8863  1.4028 -1.8604
   79MOL0     H10848   2.492   7.124   1.279  0.0417  1.2545 -0.8277
   79MOL0     H10849   2.703   7.089   1.131  3.6050  1.3068  0.0511
   79MOL0     H10850   2.650   7.234   1.043  0.2654 -2.7108 -0.9419
   79MOL0     H10851   2.889   7.316   1.123 -2.6720  0.6425 -1.0213
   79MOL0     H10852   3.074   7.430   1.262  0.4791 -2.2275  0.2546
   79MOL0     H10853   3.093   7.349   1.411 -0.5784 -1.7560  0.0371
   79MOL0     H10854   2.965   7.610   1.385 -2.4276 -0.8685  1.5823
   79MOL0     H10855   2.989   7.527   1.544 -1.0872  0.1095 -0.7302
   79MOL0     H10856   3.201   7.579   1.332 -3.7036 -0.6519 -0.7426
   79MOL0     H10857   3.168   7.705   1.458  2.5610  0.4620 -2.9444
   79MOL0     H10858   3.233   7.530   1.643  2.5381  0.2978  0.1053
   79MOL0     H10859   3.293   7.430   1.518 -2.5047 -1.4910  2.5814
   79MOL0     H10860   3.614   7.707   1.576 -1.5339 -0.2465 -0.2524
   79MOL0     H10861   3.849   7.693   1.593  0.9166  0.9614 -0.5310
   79MOL0     H10862   3.876   7.755   1.426  4.0889  0.0298 -0.5677
   79MOL0     H10863   3.935   7.590   1.485 -1.4050 -0.9163 -1.2174
   79MOL0     H10864   4.071   7.349   1.279 -3.3021 -0.1923 -1.0676
   79MOL0     H10865   4.277   7.270   1.151 -1.5964 -0.3027  0.0687
   79MOL0     H10866   4.504   7.525   0.877 -0.9148  0.2778  0.0165
   79MOL0     H10867   4.577   7.593   1.028 -0.0010 -0.8017  1.2145
   79MOL0     H10868   4.639   7.345   0.870  0.8368  0.5354 -1.8898
   79MOL0     H10869   4.744   7.487   0.875  1.1457 -1.2605  1.0332
   79MOL0     H10870   4.690   7.339   1.124  1.0972 -0.9267  0.4796
   79MOL0     H10871   4.815   7.453   1.103  0.2784 -0.2206  0.4633
   79MOL0     H10872   4.940   7.302   0.957  0.7708 -1.5205  0.6347
   79MOL0     H10873   4.804   7.184   0.957 -2.5146  1.0055  0.0823
   79MOL0     H10874   4.993   7.275   1.185  0.0093  0.8353 -0.5470
   79MOL0     H10875   4.860   7.175   1.215 -0.1316  1.3159  0.7747
   79MOL0     H10876   4.939   7.016   1.033  1.1688 -0.0098 -1.5233
   79MOL0     H10877   5.025   7.011   1.186 -2.4936 -0.8427 -0.9589
   79MOL0     H10878   5.204   7.167   1.097 -2.1286 -0.2817  0.7165
   79MOL0     H10879   5.125   7.152   0.938  0.1932 -1.5235 -0.5917
   79MOL0     H10880   5.314   7.011   0.948  0.8286 -2.5558  0.3260
   79MOL0     H10881   5.160   6.933   0.922 -2.4568  0.5939  1.3497
   79MOL0     H10882   4.344   7.676   1.038  0.6736 -1.0263 -0.8759
   79MOL0     H10883   4.132   7.735   1.123  0.3534 -0.1728 -0.9959
   79MOL0     H10884   3.606   7.408   1.185  0.2591  0.9965 -0.7862
   79MOL0     H10885   3.407   7.438   1.324  1.6810 -0.2220 -0.5773
   79MOL0     H10886   1.624   6.882   0.870  2.2519  0.1918  1.0834
   79MOL0     H10887   1.381   6.826   0.950 -0.1441 -1.2446  2.4356
   79MOL0     H10888   1.031   7.005   1.195 -0.4770 -0.0600 -0.7633
   79MOL0     H10889   0.797   6.928   1.212 -1.4334  0.1517  3.0539
   79MOL0     H10890   0.620   6.889   1.321  0.9656  0.7392 -2.3050
   79MOL0     H10891   0.610   6.795   1.176  0.0355 -0.7264 -0.0528
   79MOL0     H10892   0.451   6.745   1.439 -2.3049 -4.0202  0.6825
   79MOL0     H10893   0.470   6.618   1.333 -2.2818  0.8702  2.8257
   79MOL0     H10894   0.316   6.865   1.262  0.7974 -0.4605 -0.9362
   79MOL0     H10895   0.398   6.789   1.133  1.5549  0.4420  0.5704
   79MOL0     H10896   0.280   6.573   1.200  0.6305 -0.8276  0.6682
   79MOL0     H10897   0.179   6.707   1.134  0.4807 -1.2507 -0.7731
   79MOL0     H10898   0.041   6.615   1.524  1.5555 -1.5178  0.6006
   79MOL0     H10899   0.934   6.559   1.380 -0.5844  0.1210 -2.0903
   79MOL0     H10900   1.149   6.478   1.284 -1.4288 -0.1539  1.0048
   79MOL0     H10901   1.290   6.577   1.276  0.8435 -1.1383  2.0588
   79MOL0     H10902   1.200   6.552   1.427  0.0016 -6.3208 -0.9024
   80MOL0     O10903   0.405   2.599   7.862 -0.0569  0.3986 -0.4084
   80MOL0     C10904   0.349   2.555   7.961 -0.0542  0.1571 -0.0459
   80MOL0     O10905   0.372   2.601   8.089 -0.1462 -0.0035  0.4025
   80MOL0     C10906   0.496   2.667   8.110 -0.0382  0.2241  0.6062
   80MOL0     C10907   0.626   2.605   8.102  0.2531  0.3587  0.2731
   80MOL0     C10908   0.739   2.679   8.117 -0.1022 -0.1882  0.1981
   80MOL0     C10909   0.730   2.816   8.137 -0.8331 -0.5351  0.1512
   80MOL0     O10910   0.851   2.878   8.108 -0.2060 -0.0758  0.3734
   80MOL0     C10911   0.864   3.017   8.117 -0.0630 -0.3726 -0.3859
   80MOL0     C10912   1.004   3.059   8.107  1.3508  0.3829 -0.1615
   80MOL0     C10913   1.075   2.974   8.008 -0.7375  0.2570 -0.1945
   80MOL0     C10914   1.200   3.047   7.956 -0.4095  0.0669 -0.0748
   80MOL0     C10915   1.281   2.975   7.854 -0.0740  0.1548  0.4805
   80MOL0     C10916   1.348   2.848   7.907 -0.3858 -0.1783  0.0527
   80MOL0     C10917   1.475   2.872   7.991  0.3124  0.4394  0.4263
   80MOL0     C10918   1.585   2.955   7.913 -0.6926  0.0402  0.1614
   80MOL0     N10919   1.719   2.950   7.985  0.4591 -0.0379  0.4036
   80MOL0     C10920   1.803   2.845   7.984 -0.7141  0.8176  0.6404
   80MOL0     C10921   1.892   2.857   8.083  0.4982  0.3868 -0.4130
   80MOL0     C10922   2.003   2.752   8.101 -0.1622 -0.4463 -0.1341
   80MOL0     C10923   2.142   2.807   8.103  0.5032 -0.6663 -0.0230
   80MOL0     C10924   2.170   2.880   7.976 -1.1051  0.0529 -0.1720
   80MOL0     C10925   2.316   2.926   7.976 -0.0884 -0.4720 -0.3271
   80MOL0     O10926   2.347   3.027   8.079  0.0550  0.2827 -0.1605
   80MOL0     C10927   2.481   3.069   8.084 -0.4452 -0.5506  0.2327
   80MOL0     C10928   2.582   3.054   7.982 -0.7902  0.3413  1.0438
   80MOL0     C10929   2.714   3.100   7.998  0.5029 -0.3661 -0.6148
   80MOL0     C10930   2.816   3.077   7.882 -0.4452 -0.2392  0.1982
   80MOL0     C10931   2.749   3.152   8.127  0.2493  0.3638  0.8938
   80MOL0     C10932   2.886   3.190   8.168  0.0309 -0.2853  0.1087
   80MOL0     O10933   2.989   3.114   8.104  0.4630 -0.0796 -1.0710
   80MOL0     C10934   3.125   3.141   8.105 -0.6893  0.2926  0.6139
   80MOL0     C10935   3.193   3.198   8.213 -0.5581  1.0608 -0.3002
   80MOL0     C10936   3.337   3.215   8.210 -0.3923  1.2414 -0.0933
   80MOL0     C10937   3.415   3.185   8.104 -0.2257 -0.6982  0.6716
   80MOL0     O10938   3.552   3.194   8.127  0.1515 -0.6803  0.1596
   80MOL0     C10939   3.638   3.212   8.007 -0.4563  0.5807 -0.5668
   80MOL0     C10940   3.793   3.205   8.051  0.0087 -0.0967  0.8986
   80MOL0     C10941   3.876   3.322   8.002 -0.8356  1.2201 -0.5460
   80MOL0     C10942   4.025   3.291   8.008 -0.2163 -0.2392  0.2213
   80MOL0     C10943   4.100   3.423   7.976  0.0744  0.5466  0.3438
   80MOL0     C10944   4.248   3.403   8.004 -0.4263 -0.4920  0.0724
   80MOL0     C10945   4.329   3.531   7.978  0.0168 -0.6526 -0.0633
   80MOL0     C10946   4.475   3.517   8.013  1.0574  0.0705  0.6590
   80MOL0    Cl10947   4.494   3.459   8.182 -0.5230  0.1758 -0.4873
   80MOL0     C10948   3.349   3.135   7.985 -0.2176  0.1636 -0.2767
   80MOL0     C10949   3.212   3.115   7.989 -0.7975  0.5858 -0.1175
   80MOL0     O10950   2.901   3.295   8.236 -0.3807 -0.2918  0.0420
   80MOL0     C10951   2.648   3.171   8.222 -0.2906 -0.1373 -0.6769
   80MOL0     C10952   2.522   3.134   8.206  0.1282 -0.7741  0.6405
   80MOL0     N10953   1.864   2.976   8.146 -0.0317  0.7806 -0.8948
   80MOL0     N10954   1.758   3.029   8.088 -0.8155  0.0195 -0.3991
   80MOL0     C10955   0.603   2.879   8.153 -0.4024  0.4549 -1.2904
   80MOL0     C10956   0.487   2.806   8.129 -0.2992 -0.3144 -0.3974
   80MOL0     C10957   0.217   2.488   7.939  0.1657  1.6405 -0.2532
   80MOL0     C10958   0.137   2.458   8.058  0.3172 -0.0425  0.2156
   80MOL0     C10959   0.011   2.407   8.038  0.4572  0.1858 -0.4879
   80MOL0     C10960  -0.041   2.378   7.915  0.0966 -0.0847 -0.3042
   80MOL0     O10961  -0.162   2.326   7.929 -0.1707 -0.1386 -0.0263
   80MOL0     C10962  -0.268   2.358   7.833  0.3027 -0.2832  0.0770
   80MOL0     C10963  -0.389   2.417   7.915 -0.3532  0.0953  0.0747
   80MOL0     C10964  -0.503   2.447   7.823  0.7732 -0.1204  0.2586
   80MOL0     C10965  -0.619   2.345   7.844  1.0987  0.2268  0.3529
   80MOL0     C10966  -0.695   2.367   7.966  0.1058  0.4001  0.2624
   80MOL0     C10967  -0.777   2.386   8.055  0.1136  0.8001  0.4217
   80MOL0     C10968   0.034   2.392   7.797  0.3717 -1.2141  0.2575
   80MOL0     C10969   0.164   2.441   7.813 -0.8530  1.0577 -0.0068
   80MOL0     C10970   0.249   2.451   7.691  0.6685  0.3281 -0.4540
   80MOL0     H10971   0.633   2.498   8.084  2.2016  0.3761  0.6584
   80MOL0     H10972   0.831   2.621   8.125 -1.7423 -2.7734  1.8347
   80MOL0     H10973   0.829   3.052   8.215 -0.8124 -1.7536 -0.1365
   80MOL0     H10974   0.810   3.063   8.034  0.8025  0.7474 -0.3468
   80MOL0     H10975   1.014   3.165   8.082 -2.2915  0.0905 -3.8145
   80MOL0     H10976   1.049   3.032   8.203 -1.6744  0.8882  1.5385
   80MOL0     H10977   1.103   2.879   8.054 -0.4258  0.1835 -0.5269
   80MOL0     H10978   1.015   2.953   7.919 -1.8111  1.1936  0.2903
   80MOL0     H10979   1.155   3.137   7.912 -1.0134  0.3387  1.0675
   80MOL0     H10980   1.267   3.072   8.038 -0.5488 -1.9483  0.7100
   80MOL0     H10981   1.345   3.053   7.813 -1.4916  0.6564 -0.8696
   80MOL0     H10982   1.217   2.945   7.771 -1.3276  0.9224  1.1513
   80MOL0     H10983   1.277   2.787   7.965 -2.4158  1.4606 -0.6090
   80MOL0     H10984   1.380   2.789   7.821  1.6911  0.1336  0.5464
   80MOL0     H10985   1.522   2.776   8.013  1.8238  1.0147 -0.1613
   80MOL0     H10986   1.445   2.934   8.076 -0.8567  0.6915 -0.1395
   80MOL0     H10987   1.589   2.915   7.811 -1.7000 -1.7481  0.7656
   80MOL0     H10988   1.552   3.059   7.917 -0.4810  0.0748  3.4454
   80MOL0     H10989   1.810   2.763   7.914 -1.9512 -2.4350  3.9780
   80MOL0     H10990   2.012   2.680   8.020  1.2857  0.5166 -0.8767
   80MOL0     H10991   1.987   2.700   8.196  1.9602 -4.0818 -1.5438
   80MOL0     H10992   2.130   2.876   8.188  0.5815  0.6639 -1.0604
   80MOL0     H10993   2.212   2.728   8.132  0.5511  0.1211  2.1695
   80MOL0     H10994   2.168   2.816   7.888  3.1705 -0.8401  0.1753
   80MOL0     H10995   2.117   2.975   7.961 -0.2623  0.1713 -2.8637
   80MOL0     H10996   2.386   2.844   7.995 -0.0518  0.0646  2.1391
   80MOL0     H10997   2.328   2.962   7.873 -2.4928 -1.8648 -1.1965
   80MOL0     H10998   2.555   3.021   7.882  0.8682 -0.6247  0.8910
   80MOL0     H10999   2.880   2.993   7.911  0.6636  0.5829  0.2214
   80MOL0     H11000   2.876   3.167   7.866  1.2220 -0.8134  2.6278
   80MOL0     H11001   2.769   3.044   7.789 -0.0204  3.0749 -1.3277
   80MOL0     H11002   3.139   3.220   8.305  0.4443 -3.1129  1.5025
   80MOL0     H11003   3.392   3.245   8.299 -2.3845  1.9071  0.9631
   80MOL0     H11004   3.626   3.132   7.933 -0.3961  1.1951 -1.2517
   80MOL0     H11005   3.630   3.310   7.959 -2.4488  0.2427 -1.0482
   80MOL0     H11006   3.807   3.198   8.159  1.1105 -1.9577  0.6850
   80MOL0     H11007   3.837   3.112   8.012  0.1361 -1.1083  3.2979
   80MOL0     H11008   3.844   3.410   8.059 -1.1605  0.4127  0.5543
   80MOL0     H11009   3.848   3.343   7.898 -1.4536  4.2027  0.1311
   80MOL0     H11010   4.058   3.218   7.934 -0.1137 -0.0283  0.0597
   80MOL0     H11011   4.044   3.252   8.109 -0.6578 -1.9905 -0.3248
   80MOL0     H11012   4.081   3.451   7.872 -0.9372  2.2371  0.9554
   80MOL0     H11013   4.059   3.503   8.038 -0.1775  0.5705  0.1480
   80MOL0     H11014   4.294   3.328   7.939  1.3257  1.5430 -1.1696
   80MOL0     H11015   4.266   3.366   8.105 -0.7861 -2.0680 -0.4073
   80MOL0     H11016   4.284   3.619   8.026 -1.1077 -0.0773 -2.0143
   80MOL0     H11017   4.333   3.555   7.871 -1.4200  0.0386  0.0028
   80MOL0     H11018   4.521   3.616   8.009 -1.1938  1.1700  0.5676
   80MOL0     H11019   4.514   3.439   7.946  0.1015 -0.5683  0.8260
   80MOL0     H11020   3.410   3.099   7.903  0.3368  0.1961  0.1144
   80MOL0     H11021   3.165   3.069   7.902 -0.7355  2.7491 -1.3668
   80MOL0     H11022   2.679   3.218   8.315  0.0262  0.7169 -1.2013
   80MOL0     H11023   2.451   3.130   8.288 -0.5619  0.3163  0.1167
   80MOL0     H11024   0.598   2.983   8.184 -1.9321 -0.7448  3.2603
   80MOL0     H11025   0.390   2.853   8.126 -1.0460 -1.4820  2.3631
   80MOL0     H11026   0.174   2.482   8.158 -1.6659  0.0613  0.9614
   80MOL0     H11027  -0.050   2.374   8.121  4.9177 -0.8162  2.7359
   80MOL0     H11028  -0.234   2.428   7.756  0.6526 -0.1152  0.3794
   80MOL0     H11029  -0.294   2.267   7.779  2.8035 -3.3676  3.6021
   80MOL0     H11030  -0.371   2.513   7.964 -0.5506  0.3662 -0.3775
   80MOL0     H11031  -0.410   2.348   7.997  1.5372  2.0577  2.3628
   80MOL0     H11032  -0.530   2.550   7.846  3.7011  0.2613  2.5952
   80MOL0     H11033  -0.469   2.444   7.719 -0.0583 -2.3782 -0.0017
   80MOL0     H11034  -0.590   2.240   7.835 -0.7580 -0.2762 -0.1538
   80MOL0     H11035  -0.686   2.367   7.760  0.3906 -1.5162  0.4121
   80MOL0     H11036  -0.846   2.403   8.134 -1.5400  0.8003 -0.9612
   80MOL0     H11037  -0.015   2.381   7.701  2.9109 -1.1311 -1.1065
   80MOL0     H11038   0.180   2.428   7.609  0.9043 -1.2088 -0.2515
   80MOL0     H11039   0.272   2.557   7.677 -0.3021  0.5035 -0.8255
   80MOL0     H11040   0.332   2.380   7.699  0.0140 -0.4316 -0.3209
   81MOL0     O11041  10.812   8.496   3.200  0.2969  0.1425  0.9574
   81MOL0     C11042  10.821   8.469   3.079 -0.8192  0.1053 -1.0284
   81MOL0     O11043  10.940   8.463   3.017 -0.5606 -0.7240  0.1576
   81MOL0     C11044  11.056   8.509   3.075  0.3621 -0.5954 -1.4671
   81MOL0     C11045  11.124   8.615   3.029  0.2769  0.4237 -0.8366
   81MOL0     C11046  11.247   8.659   3.089 -0.2143 -0.1557  0.6680
   81MOL0     C11047  11.286   8.602   3.210 -0.6174 -0.1013 -0.2833
   81MOL0     O11048  11.400   8.632   3.272 -0.1187 -0.0999  0.3313
   81MOL0     C11049  11.491   8.729   3.209 -0.1589  0.1782 -0.7823
   81MOL0     C11050  11.639   8.729   3.277  0.0752 -0.4644  1.0045
   81MOL0     C11051  11.627   8.790   3.417  0.6977  0.3841 -0.3718
   81MOL0     C11052  11.591   8.680   3.515 -0.6406 -0.4964 -0.1470
   81MOL0     C11053  11.545   8.730   3.656 -0.0683  0.8576  0.0277
   81MOL0     C11054  11.653   8.813   3.732  0.3631  0.7163  0.3388
   81MOL0     C11055  11.759   8.723   3.794  0.3863 -0.0812  0.1184
   81MOL0     C11056  11.838   8.775   3.916 -0.9054 -0.9748  0.4742
   81MOL0     N11057  11.902   8.905   3.886 -0.4345  0.1553 -0.3891
   81MOL0     C11058  11.842   9.028   3.900  0.6883 -0.0567 -0.0086
   81MOL0     C11059  11.942   9.116   3.893 -0.9175  0.5291  0.5049
   81MOL0     C11060  11.929   9.264   3.917  1.0073 -0.3020 -0.8396
   81MOL0     C11061  12.041   9.343   3.863 -0.6155 -0.4238  0.6175
   81MOL0     C11062  12.022   9.367   3.716 -0.6412 -0.4074  0.1687
   81MOL0     C11063  11.907   9.469   3.691 -0.3818  0.3956  0.0299
   81MOL0     O11064  11.867   9.473   3.555 -0.1487  0.5654  0.2855
   81MOL0     C11065  11.750   9.406   3.543  1.1132  0.5941  0.6388
   81MOL0     C11066  11.626   9.480   3.544 -0.4404  0.2921 -0.2070
   81MOL0     C11067  11.501   9.425   3.563  0.0662  0.7147  0.4955
   81MOL0     C11068  11.377   9.511   3.553  0.7944  0.2441 -0.5243
   81MOL0     C11069  11.491   9.278   3.563  0.2926  0.0525 -0.2090
   81MOL0     C11070  11.366   9.191   3.563 -0.0762 -0.1463 -0.1683
   81MOL0     O11071  11.382   9.068   3.534  0.2864  0.4193 -0.4081
   81MOL0     C11072  11.280   8.983   3.549 -0.4760  0.3820  0.0212
   81MOL0     C11073  11.252   8.896   3.441  0.0062 -0.6013 -0.0166
   81MOL0     C11074  11.156   8.805   3.462  0.9696  0.3927  0.3254
   81MOL0     C11075  11.091   8.777   3.584  0.0629 -0.4148 -0.0882
   81MOL0     O11076  11.000   8.675   3.608 -0.6310  0.0125 -0.6602
   81MOL0     C11077  10.987   8.564   3.518  0.4634 -0.1470  0.4880
   81MOL0     C11078  10.890   8.455   3.569  0.2303 -0.4499  0.5587
   81MOL0     C11079  10.939   8.320   3.511  0.5771 -0.4235  0.0334
   81MOL0     C11080  10.875   8.205   3.588  0.2150  0.6582 -0.0175
   81MOL0     C11081  10.916   8.063   3.537 -0.0930 -0.3855 -0.8610
   81MOL0     C11082  11.056   8.025   3.591  0.1724 -0.3746  0.0530
   81MOL0     C11083  11.087   7.890   3.541  0.3240 -0.2995 -0.7514
   81MOL0     C11084  11.228   7.857   3.590  0.2170  0.4233  0.4304
   81MOL0    Cl11085  11.257   7.685   3.537  0.2847 -0.2971 -0.1071
   81MOL0     C11086  11.127   8.860   3.686  0.8578 -0.3258 -0.3793
   81MOL0     C11087  11.219   8.957   3.677 -0.1713  0.3994 -0.0719
   81MOL0     O11088  11.258   9.250   3.582 -0.4642  0.5043 -0.4223
   81MOL0     C11089  11.613   9.213   3.550  0.1770 -0.0079 -0.1821
   81MOL0     C11090  11.738   9.273   3.544  0.3027 -0.1585  0.1925
   81MOL0     N11091  12.060   9.046   3.864  0.4489  1.0561  0.1419
   81MOL0     N11092  12.036   8.922   3.850 -0.2962  0.8277 -0.0505
   81MOL0     C11093  11.214   8.499   3.265  0.5383  0.1236  0.1798
   81MOL0     C11094  11.103   8.447   3.194  0.6668 -0.2931 -0.2155
   81MOL0     C11095  10.700   8.432   3.006 -0.1651  1.0740 -0.3920
   81MOL0     C11096  10.684   8.476   2.869 -0.4747  0.0549  0.1410
   81MOL0     C11097  10.568   8.446   2.797  0.7678 -0.6116 -0.9280
   81MOL0     C11098  10.456   8.385   2.858 -0.2316 -0.9884 -0.2813
   81MOL0     O11099  10.343   8.330   2.790  0.1464 -0.1479 -0.2875
   81MOL0     C11100  10.300   8.410   2.677 -0.2936  1.0720 -1.1040
   81MOL0     C11101  10.167   8.341   2.629 -0.4532  0.1436  0.5696
   81MOL0     C11102  10.106   8.414   2.514 -0.6808 -0.7464  0.9809
   81MOL0     C11103  10.001   8.326   2.434 -0.6943  0.0378 -0.0163
   81MOL0     C11104   9.885   8.315   2.524 -0.4490  0.4736 -0.1724
   81MOL0     C11105   9.789   8.284   2.600 -0.2784 -0.4188  1.0023
   81MOL0     C11106  10.468   8.350   2.997 -0.6023 -0.2498  0.2737
   81MOL0     C11107  10.594   8.354   3.067  0.4889  0.2817 -0.1022
   81MOL0     C11108  10.602   8.264   3.189 -1.1934  0.1735  0.1667
   81MOL0     H11109  11.082   8.652   2.937 -1.9508  0.8458  0.2807
   81MOL0     H11110  11.291   8.743   3.036  3.1094 -3.5455 -2.5547
   81MOL0     H11111  11.453   8.830   3.220 -0.5989 -0.2144  2.2165
   81MOL0     H11112  11.498   8.707   3.102 -0.0972  1.6347 -1.0881
   81MOL0     H11113  11.677   8.627   3.269  0.0534 -0.3417 -0.9636
   81MOL0     H11114  11.703   8.795   3.218 -1.5170  0.7124  0.4950
   81MOL0     H11115  11.724   8.830   3.451  1.1095 -1.3936  0.6587
   81MOL0     H11116  11.549   8.867   3.425 -0.7751 -0.7633 -2.6669
   81MOL0     H11117  11.519   8.612   3.470  0.8466 -0.1673 -3.3159
   81MOL0     H11118  11.679   8.617   3.531 -1.0323 -0.9743  0.1312
   81MOL0     H11119  11.523   8.636   3.706 -2.8463 -0.7554 -3.7971
   81MOL0     H11120  11.447   8.779   3.657 -0.1107  0.8251 -1.3347
   81MOL0     H11121  11.683   8.903   3.677  0.5132  1.7840  2.0950
   81MOL0     H11122  11.608   8.863   3.818 -0.4487  0.5211  0.0361
   81MOL0     H11123  11.825   8.692   3.713  1.1327  1.9318 -0.1191
   81MOL0     H11124  11.717   8.629   3.829 -0.1850 -0.0946 -0.5731
   81MOL0     H11125  11.771   8.775   4.003 -1.9025  1.3663 -0.2300
   81MOL0     H11126  11.919   8.703   3.934 -0.0043  0.6396  3.7681
   81MOL0     H11127  11.742   9.048   3.938 -0.1148  3.5226 -3.3986
   81MOL0     H11128  11.923   9.275   4.025 -1.3653 -3.1104 -0.5691
   81MOL0     H11129  11.835   9.296   3.871  0.9863 -1.1111 -1.3819
   81MOL0     H11130  12.037   9.437   3.920  0.2635  0.0444 -0.0674
   81MOL0     H11131  12.137   9.294   3.882  0.3564 -0.9314 -4.2265
   81MOL0     H11132  12.115   9.414   3.682  0.7166 -1.3576  2.3450
   81MOL0     H11133  12.008   9.274   3.661 -1.3877 -1.1932  1.6539
   81MOL0     H11134  11.818   9.456   3.752 -0.6860 -1.4481 -0.7309
   81MOL0     H11135  11.955   9.563   3.719 -0.0292  0.3929 -0.5334
   81MOL0     H11136  11.634   9.587   3.531 -0.2289  1.0833  4.6560
   81MOL0     H11137  11.399   9.618   3.545  0.5137  0.3557  0.1370
   81MOL0     H11138  11.304   9.497   3.633  0.1598  0.2635 -1.1008
   81MOL0     H11139  11.328   9.486   3.459 -0.4130  2.1058 -0.4327
   81MOL0     H11140  11.300   8.920   3.346 -0.0743  3.0323  0.7050
   81MOL0     H11141  11.123   8.734   3.387 -2.8839  0.6059  1.6261
   81MOL0     H11142  10.933   8.594   3.428 -0.2451 -0.7342  0.7114
   81MOL0     H11143  11.084   8.519   3.494  0.3593 -2.1060  3.2161
   81MOL0     H11144  10.903   8.469   3.677  2.8764  1.9237  0.0764
   81MOL0     H11145  10.789   8.489   3.546  0.8282 -0.7598 -2.9945
   81MOL0     H11146  11.046   8.315   3.532  0.6485  1.1386  0.1887
   81MOL0     H11147  10.905   8.306   3.408 -4.5144  1.0481  1.2362
   81MOL0     H11148  10.767   8.218   3.591  0.0722 -0.6279  1.2397
   81MOL0     H11149  10.914   8.204   3.690  0.7876  1.1152 -0.2245
   81MOL0     H11150  10.836   7.994   3.567 -1.5409  0.6015 -2.2795
   81MOL0     H11151  10.913   8.057   3.428 -0.2202 -2.2018 -0.7927
   81MOL0     H11152  11.064   8.034   3.699 -4.4186  1.8003  0.4200
   81MOL0     H11153  11.129   8.093   3.545  1.3613 -1.0271  0.9325
   81MOL0     H11154  11.084   7.879   3.433 -0.7675 -1.3015 -0.6297
   81MOL0     H11155  11.013   7.825   3.588  3.4506 -2.8363  1.0578
   81MOL0     H11156  11.227   7.873   3.698  0.6467  1.8460  0.2508
   81MOL0     H11157  11.303   7.921   3.543 -2.1607  2.0497 -1.4593
   81MOL0     H11158  11.070   8.849   3.777 -0.1252 -3.3213 -1.2540
   81MOL0     H11159  11.235   9.034   3.752 -2.2746  1.3687 -0.5367
   81MOL0     H11160  11.626   9.106   3.539  3.6666  0.2429  0.1398
   81MOL0     H11161  11.831   9.220   3.531  1.3437  1.5653  0.3094
   81MOL0     H11162  11.231   8.447   3.359  0.7609  1.3271  0.8248
   81MOL0     H11163  11.039   8.369   3.234 -1.7796  1.2812 -0.8236
   81MOL0     H11164  10.760   8.532   2.815  0.9198  0.3778  2.3094
   81MOL0     H11165  10.569   8.489   2.697  0.4535 -0.1635 -0.7431
   81MOL0     H11166  10.289   8.513   2.710  2.2555  1.5859 -1.6503
   81MOL0     H11167  10.363   8.408   2.587  0.1431 -0.3447 -0.7983
   81MOL0     H11168  10.100   8.339   2.716 -2.1989  1.6227 -0.6706
   81MOL0     H11169  10.192   8.237   2.606  2.6297  1.1916 -1.4736
   81MOL0     H11170  10.058   8.506   2.549  2.0759 -0.6800  5.3354
   81MOL0     H11171  10.185   8.461   2.454  1.2790 -3.0417  1.6178
   81MOL0     H11172  10.045   8.229   2.407  0.6331  1.1297 -2.0005
   81MOL0     H11173   9.970   8.367   2.338 -0.5904  2.3045  0.8595
   81MOL0     H11174   9.702   8.255   2.656 -1.0384 -0.9650 -0.4123
   81MOL0     H11175  10.382   8.295   3.032 -1.4640  0.3737 -0.7870
   81MOL0     H11176  10.548   8.169   3.187  2.4479 -2.0876 -0.5652
   81MOL0     H11177  10.705   8.239   3.215 -1.9416 -3.7794 -0.0930
   81MOL0     H11178  10.560   8.324   3.271 -0.7068  0.4972  0.1823
   82MOL0     O11179   4.632   9.707   5.497 -0.0818  0.6136 -0.4451
   82MOL0     C11180   4.611   9.830   5.517 -0.1837  0.1470 -1.1307
   82MOL0     O11181   4.708   9.926   5.526 -0.3211 -0.0747  0.0141
   82MOL0     C11182   4.816   9.928   5.438  1.0186  1.0366 -0.4825
   82MOL0     C11183   4.920  10.018   5.471  0.2044  0.2475 -0.4372
   82MOL0     C11184   5.042  10.014   5.397  0.3348 -0.6104 -0.7751
   82MOL0     C11185   5.055   9.937   5.277 -0.4235  0.1022 -0.3212
   82MOL0     O11186   5.162   9.925   5.187 -0.2785  0.7677 -0.4480
   82MOL0     C11187   5.273  10.013   5.202  0.0312 -0.3671  0.8212
   82MOL0     C11188   5.239  10.154   5.155  0.7612  1.2582 -0.1738
   82MOL0     C11189   5.353  10.235   5.207  0.0127 -0.5959 -0.1993
   82MOL0     C11190   5.331  10.388   5.173 -0.6479  0.4361 -0.3921
   82MOL0     C11191   5.452  10.482   5.180  0.9648 -0.3682 -0.3123
   82MOL0     C11192   5.570  10.421   5.105  0.1372  0.5701  0.9982
   82MOL0     C11193   5.678  10.534   5.089  0.0675 -0.7904  0.1489
   82MOL0     C11194   5.789  10.473   4.998 -0.9323  0.5818  0.5052
   82MOL0     N11195   5.907  10.560   4.986 -0.6009 -0.1045  0.1356
   82MOL0     C11196   5.938  10.668   4.902  0.3578  0.4883  0.1889
   82MOL0     C11197   6.056  10.723   4.944  0.8296 -0.4868  0.4203
   82MOL0     C11198   6.119  10.842   4.878  1.2483  0.5853  0.6144
   82MOL0     C11199   6.274  10.818   4.843 -0.5876  0.0468 -0.4244
   82MOL0     C11200   6.316  10.951   4.765 -0.7492  0.7329 -0.7765
   82MOL0     C11201   6.463  10.942   4.733 -0.3352 -0.1389  0.4085
   82MOL0     O11202   6.497  11.055   4.645  0.5497 -0.0192  0.0927
   82MOL0     C11203   6.632  11.067   4.621  0.7070 -0.7807  0.1927
   82MOL0     C11204   6.670  11.198   4.604 -0.1941  0.3908 -0.0291
   82MOL0     C11205   6.800  11.227   4.574  0.6823 -0.3924 -0.3195
   82MOL0     C11206   6.802  11.380   4.539  0.7949 -0.6132 -0.0640
   82MOL0     C11207   6.906  11.136   4.573 -0.3723  1.2609 -0.3215
   82MOL0     C11208   7.058  11.173   4.560  0.5342  0.6229 -0.3596
   82MOL0     O11209   7.157  11.077   4.606 -0.0754 -0.6238  1.0568
   82MOL0     C11210   7.291  11.107   4.618 -1.2154 -0.1926 -1.2414
   82MOL0     C11211   7.371  10.992   4.609  0.3961 -0.6427  0.0673
   82MOL0     C11212   7.509  11.010   4.637 -0.6297  0.3925 -0.1415
   82MOL0     C11213   7.567  11.126   4.675 -0.0907 -0.5312 -0.4800
   82MOL0     O11214   7.698  11.141   4.708 -0.3966  0.5425 -0.5122
   82MOL0     C11215   7.792  11.042   4.653  0.5837 -0.1526  0.0411
   82MOL0     C11216   7.802  11.043   4.496 -0.0695 -0.0024  0.2711
   82MOL0     C11217   7.896  10.939   4.420 -0.3881 -0.6019 -0.2720
   82MOL0     C11218   8.044  10.974   4.442  0.2755 -0.3532 -0.3417
   82MOL0     C11219   8.130  10.912   4.324 -1.4062  0.1944 -0.8052
   82MOL0     C11220   8.275  10.975   4.311  0.3008  0.0940 -0.5540
   82MOL0     C11221   8.376  10.881   4.235 -0.8923 -0.0952 -0.0667
   82MOL0     C11222   8.327  10.831   4.097  0.0554  1.2281  1.0428
   82MOL0    Cl11223   8.432  10.708   4.021 -0.3729  0.1018 -0.4790
   82MOL0     C11224   7.487  11.241   4.677  0.1229 -0.2965 -0.5390
   82MOL0     C11225   7.347  11.233   4.658 -0.7621 -0.3532 -0.1419
   82MOL0     O11226   7.089  11.280   4.505 -0.4191 -0.6953 -0.2907
   82MOL0     C11227   6.866  11.003   4.592  0.1656 -0.1829  0.2858
   82MOL0     C11228   6.728  10.970   4.607 -0.3175 -0.0627  0.1803
   82MOL0     N11229   6.096  10.656   5.053  0.4408 -0.3153 -0.5433
   82MOL0     N11230   6.006  10.569   5.084  0.4697 -0.5181  0.4341
   82MOL0     C11231   4.940   9.864   5.243 -0.4714  0.7351  0.9372
   82MOL0     C11232   4.829   9.856   5.324  0.2125  0.8475 -0.0533
   82MOL0     C11233   4.470   9.885   5.537  0.1133 -0.4429 -0.2612
   82MOL0     C11234   4.462  10.005   5.614 -0.2375  0.1906  0.4534
   82MOL0     C11235   4.332  10.052   5.660 -0.3439  0.7109 -0.5408
   82MOL0     C11236   4.222   9.970   5.639 -0.4654 -0.9089  0.0134
   82MOL0     O11237   4.093   9.994   5.685 -0.2651 -0.1981  0.0019
   82MOL0     C11238   4.075  10.115   5.760 -0.0031  0.2998  0.0504
   82MOL0     C11239   3.942  10.143   5.821  0.5928 -0.6330 -0.1427
   82MOL0     C11240   3.821  10.101   5.740  0.0724  0.5429 -0.3634
   82MOL0     C11241   3.692  10.150   5.796  0.7278  0.1125 -0.0803
   82MOL0     C11242   3.582  10.112   5.704  0.0164 -0.5266 -0.4201
   82MOL0     C11243   3.491  10.095   5.624 -0.9964 -0.3408  0.7199
   82MOL0     C11244   4.237   9.857   5.559  1.1740 -0.6421 -1.1303
   82MOL0     C11245   4.351   9.822   5.490  0.4628 -0.0714 -0.8644
   82MOL0     C11246   4.349   9.700   5.401  0.1279  0.3817 -0.0864
   82MOL0     H11247   4.906  10.086   5.555 -3.4543 -0.6461 -0.1877
   82MOL0     H11248   5.118  10.084   5.430  0.9393 -1.5766 -0.0378
   82MOL0     H11249   5.357   9.965   5.151 -2.6162 -1.5815 -2.8290
   82MOL0     H11250   5.292  10.015   5.310  0.1167 -4.3027  1.0229
   82MOL0     H11251   5.244  10.161   5.045 -0.8601 -0.1951 -0.3784
   82MOL0     H11252   5.138  10.178   5.190  1.5513 -0.1126  3.3813
   82MOL0     H11253   5.386  10.215   5.310 -1.8143 -1.9287  0.1847
   82MOL0     H11254   5.435  10.199   5.145  0.7341 -0.4577  0.6539
   82MOL0     H11255   5.291  10.397   5.071 -1.6190  2.2856  0.1048
   82MOL0     H11256   5.251  10.416   5.242  0.0152  0.2886  0.4471
   82MOL0     H11257   5.475  10.500   5.286 -1.4521  0.7738  0.0773
   82MOL0     H11258   5.429  10.582   5.144  0.6859  0.5584  2.2320
   82MOL0     H11259   5.612  10.330   5.149  2.1361  0.9303 -0.0552
   82MOL0     H11260   5.542  10.393   5.003  1.2776 -0.5383  0.9686
   82MOL0     H11261   5.716  10.575   5.183  0.4812 -3.2059  1.1074
   82MOL0     H11262   5.639  10.617   5.030 -0.1985 -1.6663 -0.9335
   82MOL0     H11263   5.830  10.386   5.050 -2.2339  0.2947  1.0966
   82MOL0     H11264   5.740  10.430   4.910  1.6494 -1.3104 -0.1566
   82MOL0     H11265   5.879  10.704   4.819  2.3438  1.2304 -0.9500
   82MOL0     H11266   6.120  10.931   4.941  1.8058  1.0118  0.0213
   82MOL0     H11267   6.056  10.858   4.790  0.6675  0.4808  0.9999
   82MOL0     H11268   6.333  10.804   4.934  2.8222  0.2669 -2.4127
   82MOL0     H11269   6.294  10.724   4.790  1.3310  0.1370  0.0816
   82MOL0     H11270   6.260  10.954   4.670 -2.1951 -0.0876  0.0126
   82MOL0     H11271   6.290  11.032   4.833  1.3855  1.6313 -0.9621
   82MOL0     H11272   6.522  10.946   4.825  0.7517 -1.2925 -0.1913
   82MOL0     H11273   6.482  10.847   4.682  2.2636 -0.1243  1.1761
   82MOL0     H11274   6.596  11.277   4.613 -0.5083 -0.0494  1.5378
   82MOL0     H11275   6.881  11.422   4.475 -0.4096 -1.9901 -2.6337
   82MOL0     H11276   6.811  11.437   4.632  0.4901  0.6381 -0.7758
   82MOL0     H11277   6.708  11.415   4.496  1.8216  0.2129 -1.7506
   82MOL0     H11278   7.331  10.898   4.573  0.5339 -0.3486 -0.8933
   82MOL0     H11279   7.572  10.922   4.627 -1.2497  0.2393 -5.3802
   82MOL0     H11280   7.892  11.063   4.691  1.1632  1.0161 -1.9667
   82MOL0     H11281   7.770  10.945   4.698  1.3037 -0.2816  0.1259
   82MOL0     H11282   7.702  11.021   4.460  0.3752  0.9092 -1.6659
   82MOL0     H11283   7.848  11.138   4.465  1.6103  0.2079  3.0211
   82MOL0     H11284   7.883  10.935   4.312  0.5793  1.6697 -0.5261
   82MOL0     H11285   7.881  10.836   4.455 -2.9833 -0.1220  0.2061
   82MOL0     H11286   8.089  10.944   4.537  2.5964  1.5217 -0.7576
   82MOL0     H11287   8.058  11.082   4.440  0.5114 -0.3227  1.2599
   82MOL0     H11288   8.147  10.806   4.347  1.1425  0.4688 -1.0920
   82MOL0     H11289   8.083  10.927   4.227 -1.8645  0.0966 -0.6009
   82MOL0     H11290   8.300  10.995   4.416 -1.1206 -1.6356  0.1613
   82MOL0     H11291   8.260  11.068   4.256 -1.4497  0.5016  0.5419
   82MOL0     H11292   8.399  10.796   4.301 -1.7820 -0.0391  0.3389
   82MOL0     H11293   8.473  10.929   4.225 -1.1239  0.5107  0.5386
   82MOL0     H11294   8.305  10.919   4.036 -0.2663  1.0759  0.9428
   82MOL0     H11295   8.231  10.781   4.111 -0.6919  1.8935 -1.3610
   82MOL0     H11296   7.537  11.333   4.709 -0.7252 -0.5004  1.5168
   82MOL0     H11297   7.279  11.318   4.668 -2.1750 -1.5650  0.9288
   82MOL0     H11298   6.937  10.922   4.578  0.7464  0.6683 -1.9220
   82MOL0     H11299   6.698  10.866   4.614 -2.0842  0.5172  3.3524
   82MOL0     H11300   4.946   9.795   5.159 -0.1616  0.5159  1.1331
   82MOL0     H11301   4.745   9.793   5.297  1.3152  0.6262 -3.3165
   82MOL0     H11302   4.552  10.062   5.637 -0.6375  0.9177  0.2578
   82MOL0     H11303   4.326  10.144   5.717  1.7574 -0.4185  1.6832
   82MOL0     H11304   4.157  10.124   5.832  1.9234  0.0187 -1.9550
   82MOL0     H11305   4.096  10.194   5.687 -1.6016 -1.8984 -3.0651
   82MOL0     H11306   3.927  10.249   5.846  0.5923 -0.3327 -1.3607
   82MOL0     H11307   3.939  10.077   5.908 -0.9232 -1.7165 -0.9733
   82MOL0     H11308   3.833  10.154   5.645  0.4671  2.8780  0.9166
   82MOL0     H11309   3.812   9.992   5.735 -0.7609  0.6359 -1.5122
   82MOL0     H11310   3.689  10.259   5.792 -2.2270  0.0871 -0.9078
   82MOL0     H11311   3.679  10.112   5.898 -1.7615 -0.6471 -0.6229
   82MOL0     H11312   3.408  10.068   5.562  0.1663 -2.0848 -0.1667
   82MOL0     H11313   4.145   9.802   5.543  0.4329  0.8093 -2.1322
   82MOL0     H11314   4.372   9.613   5.463 -2.3685  0.5849  1.2390
   82MOL0     H11315   4.251   9.680   5.356 -0.7588  0.6942  1.6525
   82MOL0     H11316   4.419   9.711   5.317  0.3457 -1.8047 -0.2545
   83MOL0     O11317  10.772   5.002   7.980  0.0707 -0.0334  0.1949
   83MOL0     C11318  10.754   4.917   7.894  1.4994  0.8141  0.2289
   83MOL0     O11319  10.785   4.787   7.904 -0.7347 -0.6765  0.1263
   83MOL0     C11320  10.864   4.756   8.009 -0.4930  1.1203  0.0212
   83MOL0     C11321  11.004   4.789   8.020 -0.5059 -0.7247 -0.0123
   83MOL0     C11322  11.085   4.728   8.105 -0.6137  0.7789  0.1939
   83MOL0     C11323  11.030   4.626   8.187 -0.1034  0.5473  0.3551
   83MOL0     O11324  11.118   4.560   8.262 -0.7736  0.3603 -0.3305
   83MOL0     C11325  11.080   4.444   8.338 -0.6494 -0.7180  0.5444
   83MOL0     C11326  11.203   4.384   8.409  0.2687 -0.3689 -0.0058
   83MOL0     C11327  11.297   4.314   8.311 -0.9492 -0.0147  0.1226
   83MOL0     C11328  11.422   4.251   8.372  0.6168  0.1291 -0.0604
   83MOL0     C11329  11.380   4.132   8.456 -0.4186  0.3579  0.1260
   83MOL0     C11330  11.505   4.054   8.504  0.5787 -0.3005 -0.4544
   83MOL0     C11331  11.468   3.913   8.554 -0.3685 -0.2650  0.0262
   83MOL0     C11332  11.563   3.864   8.672  0.6356 -0.7428  0.0073
   83MOL0     N11333  11.523   3.736   8.734  0.5000  0.2783  0.1737
   83MOL0     C11334  11.472   3.729   8.861  1.1592 -0.0966  0.4994
   83MOL0     C11335  11.472   3.596   8.888 -0.2284 -0.6832  0.0095
   83MOL0     C11336  11.398   3.537   9.005 -0.0019  0.7958  0.1998
   83MOL0     C11337  11.246   3.564   9.004  0.1866  0.6583  0.5390
   83MOL0     C11338  11.171   3.483   8.892 -0.4070 -0.2671 -1.9678
   83MOL0     C11339  11.037   3.536   8.866 -0.2679  0.1517  0.7941
   83MOL0     O11340  10.955   3.526   8.984 -0.0388  0.3743  0.2879
   83MOL0     C11341  10.814   3.524   8.975  0.2962 -0.0732  0.8608
   83MOL0     C11342  10.738   3.487   9.084 -0.0319  0.1791  0.2890
   83MOL0     C11343  10.601   3.508   9.088  0.3659  0.3145 -0.8139
   83MOL0     C11344  10.527   3.457   9.208 -0.7093 -0.3810  0.0882
   83MOL0     C11345  10.538   3.569   8.981  0.9402  0.2299  0.6716
   83MOL0     C11346  10.400   3.613   8.999 -0.5329 -0.8270  0.7438
   83MOL0     O11347  10.388   3.695   9.102  0.3710 -0.0403  0.1973
   83MOL0     C11348  10.259   3.715   9.145  1.0224 -0.0909  0.0601
   83MOL0     C11349  10.192   3.836   9.113  0.2359  0.8668 -0.1453
   83MOL0     C11350  10.061   3.853   9.166  0.0250  0.6457  0.8405
   83MOL0     C11351   9.989   3.750   9.226 -1.2007 -0.8347 -0.2841
   83MOL0     O11352   9.861   3.794   9.275 -0.3758  0.3641  0.0470
   83MOL0     C11353   9.760   3.698   9.320 -0.4717 -0.9436 -0.7764
   83MOL0     C11354   9.637   3.775   9.339  0.6240  0.1495  0.0509
   83MOL0     C11355   9.508   3.688   9.374 -0.3310 -1.0086  0.8308
   83MOL0     C11356   9.388   3.779   9.387  0.1667  0.2415  0.8115
   83MOL0     C11357   9.260   3.693   9.437  0.4894 -0.2655 -0.6063
   83MOL0     C11358   9.157   3.780   9.504 -0.0758 -0.4212  0.2855
   83MOL0     C11359   9.042   3.704   9.558 -0.3601 -0.3154  1.3307
   83MOL0     C11360   8.976   3.779   9.676  0.3904  0.3989  0.4599
   83MOL0    Cl11361   9.063   3.740   9.826 -0.2867  0.2938 -0.0013
   83MOL0     C11362  10.046   3.629   9.246 -0.1940 -0.1051 -0.1297
   83MOL0     C11363  10.178   3.620   9.214 -0.7527  0.0871 -0.0727
   83MOL0     O11364  10.308   3.586   8.917  0.0924 -0.3447  0.4110
   83MOL0     C11365  10.601   3.587   8.860 -0.7934 -0.2674 -0.8477
   83MOL0     C11366  10.745   3.570   8.859  0.2467 -0.1359  0.1439
   83MOL0     N11367  11.528   3.531   8.783  0.2843  0.3221  0.4590
   83MOL0     N11368  11.564   3.615   8.695 -0.1553  0.4735 -0.0436
   83MOL0     C11369  10.896   4.595   8.178  0.2606 -1.0183 -0.5408
   83MOL0     C11370  10.815   4.660   8.090 -1.3479  0.2400  1.3959
   83MOL0     C11371  10.660   4.956   7.779 -0.5253 -0.8204  0.8035
   83MOL0     C11372  10.549   4.874   7.752  0.8223  0.0665 -0.1890
   83MOL0     C11373  10.453   4.911   7.659  0.7941 -0.0024 -0.4925
   83MOL0     C11374  10.457   5.036   7.589 -0.6358 -0.0957  0.2503
   83MOL0     O11375  10.359   5.059   7.498  0.2712  0.1560  0.5325
   83MOL0     C11376  10.349   5.180   7.421  0.3695 -0.4393 -0.2015
   83MOL0     C11377  10.308   5.306   7.507 -0.0129  0.2624 -0.1453
   83MOL0     C11378  10.241   5.413   7.421  0.0594  0.9135  0.5359
   83MOL0     C11379  10.330   5.481   7.311  0.4035 -0.5106 -0.4558
   83MOL0     C11380  10.421   5.578   7.377 -0.3659 -0.1893  0.2945
   83MOL0     C11381  10.497   5.667   7.417  0.5988 -0.2872 -1.1963
   83MOL0     C11382  10.568   5.118   7.621 -0.6387 -0.3373  0.2481
   83MOL0     C11383  10.661   5.077   7.721  0.8753 -1.8710 -0.4073
   83MOL0     C11384  10.768   5.182   7.754 -0.1240 -0.0568  0.3507
   83MOL0     H11385  11.046   4.863   7.953  1.8593 -2.9480 -1.1098
   83MOL0     H11386  11.189   4.756   8.121 -0.8222  2.3674 -1.0101
   83MOL0     H11387  11.035   4.371   8.270 -0.2820 -0.9053  0.5027
   83MOL0     H11388  10.997   4.464   8.407 -1.5886 -3.8977  0.4950
   83MOL0     H11389  11.251   4.457   8.474 -2.0853  0.9679  0.3708
   83MOL0     H11390  11.162   4.307   8.476 -0.6892 -1.4206 -1.7298
   83MOL0     H11391  11.244   4.246   8.244 -0.0164 -0.5327 -0.1125
   83MOL0     H11392  11.330   4.396   8.247  0.7639 -0.8913 -0.1760
   83MOL0     H11393  11.499   4.218   8.302 -1.8269 -2.5316 -1.6554
   83MOL0     H11394  11.467   4.322   8.443 -1.6694 -0.6783  2.3860
   83MOL0     H11395  11.326   4.055   8.400 -0.1973 -0.7542  1.3851
   83MOL0     H11396  11.318   4.157   8.542 -0.5858 -0.4291  0.2402
   83MOL0     H11397  11.576   4.040   8.421 -0.2403  0.2101 -1.2649
   83MOL0     H11398  11.551   4.114   8.583 -0.1794  1.3550 -1.2215
   83MOL0     H11399  11.496   3.834   8.484  2.9251  0.2799  0.5491
   83MOL0     H11400  11.365   3.900   8.588  0.4373  0.2037  3.0234
   83MOL0     H11401  11.664   3.862   8.631 -0.9408  0.1980 -4.5092
   83MOL0     H11402  11.561   3.940   8.750 -2.3080 -1.2117  0.5251
   83MOL0     H11403  11.446   3.813   8.925 -3.1392  0.0307 -1.0718
   83MOL0     H11404  11.445   3.581   9.093  2.3039 -1.2623  0.0898
   83MOL0     H11405  11.418   3.430   9.018 -2.4618 -0.0763 -2.0209
   83MOL0     H11406  11.204   3.546   9.103  2.1704 -0.1003  1.2940
   83MOL0     H11407  11.232   3.668   8.972  0.6275  0.8537  0.9610
   83MOL0     H11408  11.231   3.497   8.802 -0.0401  3.9656 -1.2893
   83MOL0     H11409  11.181   3.376   8.910  0.1957 -0.2713 -2.2869
   83MOL0     H11410  11.035   3.638   8.827  2.7444 -0.3245 -0.9111
   83MOL0     H11411  10.990   3.473   8.790 -1.0460 -0.1697  1.5216
   83MOL0     H11412  10.787   3.435   9.165 -0.1798  0.9471  0.8909
   83MOL0     H11413  10.517   3.537   9.281  0.9211 -1.3290  1.3994
   83MOL0     H11414  10.582   3.381   9.263 -0.8843  0.0355  0.8465
   83MOL0     H11415  10.431   3.411   9.180 -0.0958 -2.2803  0.9370
   83MOL0     H11416  10.237   3.919   9.059  2.9887 -1.0524 -1.0034
   83MOL0     H11417   9.994   3.938   9.161 -2.5550 -1.1433  2.5070
   83MOL0     H11418   9.748   3.613   9.252  0.3223 -1.5820 -0.1284
   83MOL0     H11419   9.799   3.650   9.409 -0.2427 -1.1441 -0.9828
   83MOL0     H11420   9.653   3.841   9.424  1.9316 -1.2618  0.9506
   83MOL0     H11421   9.620   3.841   9.253  3.9273  1.0894  0.0011
   83MOL0     H11422   9.526   3.629   9.465  0.8082  1.4684  2.3186
   83MOL0     H11423   9.487   3.619   9.292 -0.5270  0.9853 -0.8662
   83MOL0     H11424   9.365   3.825   9.291 -2.0435  0.9650  1.6046
   83MOL0     H11425   9.408   3.856   9.463  1.0279  1.5026 -0.6483
   83MOL0     H11426   9.208   3.659   9.347 -2.2239  0.9708  0.3793
   83MOL0     H11427   9.287   3.611   9.504 -4.1025 -0.8368  0.8424
   83MOL0     H11428   9.127   3.867   9.445 -0.6883 -0.0349  1.1363
   83MOL0     H11429   9.205   3.831   9.588  1.4286  1.4723 -1.6230
   83MOL0     H11430   9.081   3.608   9.594 -0.1946 -1.4016 -1.5164
   83MOL0     H11431   8.963   3.693   9.483 -1.7348  2.4505  2.2408
   83MOL0     H11432   8.872   3.752   9.697 -0.2567  2.4461  0.1193
   83MOL0     H11433   8.974   3.888   9.669  1.7227  0.5568  1.9284
   83MOL0     H11434  10.013   3.543   9.304  0.2626  1.4315  2.5799
   83MOL0     H11435  10.210   3.522   9.249  0.0041  1.5008  3.6628
   83MOL0     H11436  10.539   3.631   8.782  0.9014  2.4396 -0.7685
   83MOL0     H11437  10.801   3.594   8.769  2.9658 -2.6323  0.9902
   83MOL0     H11438  10.836   4.539   8.249 -1.3161  1.0986 -0.1081
   83MOL0     H11439  10.707   4.645   8.085 -1.2738 -3.6788  5.2773
   83MOL0     H11440  10.532   4.778   7.799 -2.4749 -0.1149 -1.4907
   83MOL0     H11441  10.374   4.839   7.644  1.0142 -0.6834  1.3552
   83MOL0     H11442  10.438   5.197   7.359 -0.2844 -1.3104 -1.4365
   83MOL0     H11443  10.260   5.170   7.358 -0.1111  0.1758  0.3650
   83MOL0     H11444  10.397   5.359   7.543  0.5180  0.4214 -1.5995
   83MOL0     H11445  10.255   5.274   7.597 -0.2777 -1.1288 -0.7663
   83MOL0     H11446  10.151   5.372   7.374 -0.0274 -3.0186  3.6428
   83MOL0     H11447  10.205   5.495   7.483 -1.8614  0.6811 -0.1949
   83MOL0     H11448  10.263   5.542   7.250 -0.9567  0.0513  1.4811
   83MOL0     H11449  10.378   5.403   7.252 -0.0005 -2.0622  1.1636
   83MOL0     H11450  10.555   5.739   7.470 -0.2526 -0.7695  0.4712
   83MOL0     H11451  10.574   5.222   7.590  1.6452  0.1295  1.9936
   83MOL0     H11452  10.869   5.160   7.719  0.9388  2.4792  1.5222
   83MOL0     H11453  10.742   5.279   7.710 -4.8484 -0.3429  1.9451
   83MOL0     H11454  10.772   5.212   7.859 -1.5232  0.2741  0.3257
   84MOL0     O11455   8.269   3.556   5.063 -0.8648 -0.9782 -0.5064
   84MOL0     C11456   8.327   3.653   5.110 -0.3758 -0.4993  0.1323
   84MOL0     O11457   8.273   3.774   5.158  0.4433  0.6168  0.5674
   84MOL0     C11458   8.137   3.762   5.165  0.0430 -0.1353  0.3898
   84MOL0     C11459   8.068   3.716   5.269 -0.6257 -0.3058 -0.9148
   84MOL0     C11460   7.928   3.724   5.275 -0.4910  1.1812  0.0753
   84MOL0     C11461   7.849   3.767   5.170 -0.1116  0.3158 -0.0770
   84MOL0     O11462   7.716   3.744   5.186  0.6694 -0.1699  0.6491
   84MOL0     C11463   7.638   3.833   5.101 -0.0836 -0.5401 -0.1309
   84MOL0     C11464   7.490   3.808   5.127  1.2354  0.1825  0.3268
   84MOL0     C11465   7.455   3.659   5.136 -0.5769  0.2657  0.1753
   84MOL0     C11466   7.306   3.655   5.138 -0.0388  0.8126 -0.2967
   84MOL0     C11467   7.242   3.511   5.149 -0.0283  0.3488  0.4101
   84MOL0     C11468   7.265   3.438   5.011 -0.4018 -0.5025  0.5284
   84MOL0     C11469   7.159   3.332   5.003 -0.2489  0.7546  0.2886
   84MOL0     C11470   7.160   3.259   4.869 -0.0321 -0.5249  0.2077
   84MOL0     N11471   7.290   3.204   4.835 -0.3793  0.4153  0.1988
   84MOL0     C11472   7.370   3.116   4.904  0.1415 -0.8020  0.4405
   84MOL0     C11473   7.479   3.095   4.826  0.2405 -0.3901 -0.2882
   84MOL0     C11474   7.592   3.007   4.852 -0.1758  0.9498  0.2014
   84MOL0     C11475   7.648   2.936   4.734 -0.0930  0.1481 -0.1750
   84MOL0     C11476   7.799   2.908   4.722 -0.1447 -0.0411  0.7279
   84MOL0     C11477   7.879   2.872   4.849  0.8416 -0.1793  0.2857
   84MOL0     O11478   7.841   2.739   4.890 -0.0465 -0.1199 -0.8868
   84MOL0     C11479   7.894   2.692   5.008  0.2116  0.6941 -0.9366
   84MOL0     C11480   7.817   2.607   5.095 -0.4887  0.5269  0.5832
   84MOL0     C11481   7.872   2.539   5.215 -0.1051 -0.1024 -0.2424
   84MOL0     C11482   7.775   2.444   5.281  0.6193 -0.2019 -0.7710
   84MOL0     C11483   8.007   2.568   5.248 -0.0660  0.6604 -0.2290
   84MOL0     C11484   8.069   2.502   5.368  0.1846  0.1551 -0.0968
   84MOL0     O11485   8.200   2.487   5.368 -0.0630  0.3431 -0.0089
   84MOL0     C11486   8.275   2.435   5.476 -0.0265 -0.3483  0.3220
   84MOL0     C11487   8.259   2.302   5.518  0.3265 -0.5049  0.3645
   84MOL0     C11488   8.346   2.245   5.607  0.4129 -0.0741 -0.9981
   84MOL0     C11489   8.466   2.314   5.639 -0.0897  0.2116 -0.1522
   84MOL0     O11490   8.558   2.266   5.726  0.2107 -0.7031  0.6115
   84MOL0     C11491   8.505   2.195   5.834  0.3851 -0.4373  0.0665
   84MOL0     C11492   8.598   2.146   5.945  0.3541 -0.7882 -0.3812
   84MOL0     C11493   8.522   2.130   6.083 -0.6476 -0.1354 -0.3298
   84MOL0     C11494   8.632   2.096   6.180 -0.1527 -0.3238 -0.4245
   84MOL0     C11495   8.562   2.090   6.319 -0.1249  0.7127  1.0743
   84MOL0     C11496   8.640   2.085   6.453 -0.3626 -0.0311  0.9057
   84MOL0     C11497   8.737   2.208   6.453  0.0787  0.2428  0.9702
   84MOL0     C11498   8.783   2.247   6.599 -0.0361  1.2452  1.0430
   84MOL0    Cl11499   8.934   2.155   6.632  0.1407  0.1570 -0.1006
   84MOL0     C11500   8.482   2.448   5.603 -0.1063 -1.0032  0.8880
   84MOL0     C11501   8.387   2.514   5.519  0.2768  0.5044  0.6548
   84MOL0     O11502   7.998   2.463   5.460  0.2311 -0.0649 -0.1393
   84MOL0     C11503   8.082   2.651   5.162 -0.2475  0.7754  0.5594
   84MOL0     C11504   8.026   2.700   5.039  0.6820  0.4311 -0.1438
   84MOL0     N11505   7.460   3.158   4.708  0.1390 -0.1622  0.4219
   84MOL0     N11506   7.352   3.229   4.719 -0.5982  0.1407  0.4542
   84MOL0     C11507   7.923   3.813   5.058  0.6836  0.5052 -0.0152
   84MOL0     C11508   8.057   3.814   5.059 -1.0378 -0.4296  0.2700
   84MOL0     C11509   8.475   3.640   5.103  0.5461 -0.0839  0.4572
   84MOL0     C11510   8.528   3.518   5.144  0.9351  0.0709 -0.6145
   84MOL0     C11511   8.663   3.503   5.169  0.4318  0.1567  0.6742
   84MOL0     C11512   8.740   3.601   5.115 -0.3880 -0.3463 -0.1795
   84MOL0     O11513   8.882   3.579   5.113  0.5766 -0.2197 -0.2519
   84MOL0     C11514   8.980   3.681   5.147 -0.1727 -0.3155  0.8692
   84MOL0     C11515   9.119   3.617   5.148 -0.6124 -1.2134 -0.9079
   84MOL0     C11516   9.220   3.726   5.187 -0.3016 -0.0058 -0.2185
   84MOL0     C11517   9.352   3.671   5.248 -0.7622  0.3503 -0.5588
   84MOL0     C11518   9.443   3.783   5.284 -0.3954  0.1354 -0.0749
   84MOL0     C11519   9.497   3.893   5.311  0.7678  0.4923  0.5508
   84MOL0     C11520   8.695   3.723   5.073 -0.2828 -0.5137 -0.2787
   84MOL0     C11521   8.563   3.742   5.051  0.2152 -0.2788 -0.1182
   84MOL0     C11522   8.505   3.870   4.987 -0.0784 -0.2410  0.5246
   84MOL0     H11523   8.133   3.703   5.354  2.2644  1.3721 -2.7000
   84MOL0     H11524   7.874   3.680   5.359 -0.7510  0.8730 -0.2519
   84MOL0     H11525   7.659   3.821   4.995 -1.8470  3.0372 -1.0535
   84MOL0     H11526   7.668   3.934   5.130  0.3032 -1.4260  2.9277
   84MOL0     H11527   7.477   3.854   5.225  1.9201  4.2623 -1.3330
   84MOL0     H11528   7.434   3.858   5.048  0.3340 -0.9363  0.2326
   84MOL0     H11529   7.495   3.595   5.057 -1.8628 -0.3470 -0.0108
   84MOL0     H11530   7.482   3.615   5.232 -0.2410 -0.7612 -0.3783
   84MOL0     H11531   7.275   3.711   5.227  0.6506  0.1582  0.3692
   84MOL0     H11532   7.267   3.713   5.055  2.0058 -1.4698 -3.0409
   84MOL0     H11533   7.134   3.522   5.157 -0.8412 -2.1583 -3.9540
   84MOL0     H11534   7.277   3.452   5.235 -2.1250  0.3783  1.3463
   84MOL0     H11535   7.252   3.514   4.934  0.4658  1.3461  2.1213
   84MOL0     H11536   7.362   3.389   5.004 -0.4568 -0.3483 -2.9951
   84MOL0     H11537   7.061   3.378   5.019 -1.4267 -1.5258 -0.0096
   84MOL0     H11538   7.176   3.250   5.074 -1.1602  0.6082  0.3532
   84MOL0     H11539   7.083   3.181   4.868 -0.9805  0.3929 -0.2427
   84MOL0     H11540   7.136   3.330   4.789  3.3104  0.6261  0.0310
   84MOL0     H11541   7.350   3.071   5.000  2.5006 -1.0729  0.8649
   84MOL0     H11542   7.562   2.936   4.929  0.1061  5.1457  4.7037
   84MOL0     H11543   7.674   3.068   4.892  1.8127 -1.0685 -0.5564
   84MOL0     H11544   7.607   2.834   4.733 -0.0423  0.0595  1.7120
   84MOL0     H11545   7.629   2.988   4.640  0.5908 -1.6658 -1.3741
   84MOL0     H11546   7.816   2.824   4.653  1.5185  0.9002 -0.1008
   84MOL0     H11547   7.857   2.989   4.675 -1.3817  0.6447  0.3311
   84MOL0     H11548   7.981   2.905   4.830  0.8062  0.1550  0.6625
   84MOL0     H11549   7.840   2.937   4.928  0.6589  0.2258 -0.1301
   84MOL0     H11550   7.710   2.598   5.077 -0.3286 -0.7548  0.1694
   84MOL0     H11551   7.822   2.347   5.266 -0.9057 -1.1259  0.1767
   84MOL0     H11552   7.670   2.448   5.254  0.6951  1.0942 -0.9463
   84MOL0     H11553   7.778   2.461   5.389  2.1099 -3.1377 -0.2570
   84MOL0     H11554   8.171   2.255   5.475 -1.1269  2.3478 -0.0188
   84MOL0     H11555   8.328   2.139   5.625 -0.2675 -0.0105 -1.2874
   84MOL0     H11556   8.421   2.256   5.868  0.6124  0.4832 -0.9626
   84MOL0     H11557   8.457   2.104   5.795  1.5619 -0.5347 -1.2527
   84MOL0     H11558   8.639   2.049   5.915 -0.3744 -1.2688  0.1562
   84MOL0     H11559   8.678   2.220   5.954 -0.9642  0.9702 -2.0239
   84MOL0     H11560   8.455   2.044   6.071 -0.0291 -0.2713 -4.2924
   84MOL0     H11561   8.467   2.221   6.107 -1.6163 -0.7814 -0.0392
   84MOL0     H11562   8.708   2.174   6.176 -0.0306 -0.4163  0.0785
   84MOL0     H11563   8.668   1.994   6.166 -1.6214 -0.8474 -0.5413
   84MOL0     H11564   8.485   2.167   6.327 -1.0262 -0.0758  0.4389
   84MOL0     H11565   8.504   1.997   6.317  1.2671 -0.2666 -2.7780
   84MOL0     H11566   8.707   1.999   6.454 -1.3726 -0.8405  0.3591
   84MOL0     H11567   8.568   2.080   6.536 -0.6096 -1.3500  0.6234
   84MOL0     H11568   8.690   2.297   6.409 -1.4098 -1.3082 -0.7598
   84MOL0     H11569   8.820   2.201   6.382 -0.3537 -1.5487  0.5821
   84MOL0     H11570   8.712   2.235   6.681  1.3421  0.0119  2.1218
   84MOL0     H11571   8.815   2.350   6.582  1.9416  0.5587  0.2373
   84MOL0     H11572   8.574   2.496   5.634  1.5528 -2.8914 -0.7848
   84MOL0     H11573   8.396   2.617   5.486 -3.3821  0.6348 -0.3196
   84MOL0     H11574   8.185   2.677   5.182  0.1026  2.4840 -2.6546
   84MOL0     H11575   8.089   2.761   4.975  1.0756 -1.0884 -1.2770
   84MOL0     H11576   7.864   3.847   4.974  0.6088  0.5602  0.0589
   84MOL0     H11577   8.107   3.847   4.968 -0.9770  1.7025  1.0318
   84MOL0     H11578   8.457   3.437   5.154  1.6174 -0.6270 -1.2753
   84MOL0     H11579   8.694   3.404   5.203 -2.5136 -1.2418 -0.4104
   84MOL0     H11580   8.985   3.769   5.081 -0.6269  1.6489  3.3076
   84MOL0     H11581   8.956   3.722   5.245 -1.5148  1.9388 -0.3128
   84MOL0     H11582   9.145   3.575   5.050 -0.6433 -3.6957  0.0740
   84MOL0     H11583   9.137   3.530   5.211  0.0088 -2.2719 -2.4783
   84MOL0     H11584   9.234   3.775   5.090 -1.7268  1.0830  0.0864
   84MOL0     H11585   9.180   3.800   5.257  0.1763 -1.5685  1.7725
   84MOL0     H11586   9.385   3.593   5.178 -0.2882 -0.3634  0.4369
   84MOL0     H11587   9.330   3.613   5.338  0.8089 -0.3915 -0.6261
   84MOL0     H11588   9.548   3.983   5.341  1.2396  1.3088 -2.4308
   84MOL0     H11589   8.767   3.795   5.036  1.3592 -0.8934  1.9185
   84MOL0     H11590   8.569   3.909   4.907 -2.3053  2.4840 -0.1087
   84MOL0     H11591   8.404   3.867   4.945 -0.2610  2.0264  0.6783
   84MOL0     H11592   8.516   3.944   5.067  1.8506 -1.2469  1.2528
   85MOL0     O11593  10.529   0.633   5.309  0.2371  0.0877  0.1636
   85MOL0     C11594  10.544   0.653   5.428  0.5813  0.2695  0.1698
   85MOL0     O11595  10.665   0.690   5.478 -0.6761 -0.6244  0.1209
   85MOL0     C11596  10.768   0.706   5.394  0.7778 -0.8688 -0.1156
   85MOL0     C11597  10.794   0.835   5.348 -0.4471 -0.8279  0.0571
   85MOL0     C11598  10.910   0.856   5.270  0.8016  0.2149 -0.0339
   85MOL0     C11599  10.994   0.747   5.232 -0.2442 -0.8454 -0.0470
   85MOL0     O11600  11.118   0.779   5.177  0.6191  0.5478 -0.4672
   85MOL0     C11601  11.226   0.702   5.229 -0.0604  0.9742  0.3731
   85MOL0     C11602  11.362   0.769   5.193  0.3239  0.2462 -0.3945
   85MOL0     C11603  11.402   0.894   5.265  0.0943  0.1297  0.4878
   85MOL0     C11604  11.317   1.015   5.211 -0.3802 -0.4866 -0.2535
   85MOL0     C11605  11.346   1.162   5.257  0.5826 -0.3777  0.1642
   85MOL0     C11606  11.229   1.253   5.241  0.2405  1.1472 -0.4336
   85MOL0     C11607  11.253   1.396   5.283  0.0389 -0.3413  0.2770
   85MOL0     C11608  11.132   1.486   5.239  0.6439 -0.0018  0.3446
   85MOL0     N11609  11.156   1.625   5.278  0.4927  0.2716 -0.0047
   85MOL0     C11610  11.191   1.670   5.402  0.8619 -0.2781 -0.0811
   85MOL0     C11611  11.224   1.799   5.399 -0.5269  0.0785 -0.0820
   85MOL0     C11612  11.266   1.867   5.523 -0.6318 -0.2113 -0.0295
   85MOL0     C11613  11.373   1.977   5.477 -0.5980  0.1315  0.0854
   85MOL0     C11614  11.434   2.035   5.605 -0.0161 -0.1363 -0.2799
   85MOL0     C11615  11.531   2.146   5.578  0.7181  0.6650 -0.4958
   85MOL0     O11616  11.651   2.091   5.531 -0.2009 -0.3564 -0.4789
   85MOL0     C11617  11.764   2.175   5.536  0.1047  0.9324 -0.1812
   85MOL0     C11618  11.766   2.316   5.551 -0.2308 -0.4125 -0.6326
   85MOL0     C11619  11.887   2.392   5.547  0.5252 -0.3137  0.5420
   85MOL0     C11620  11.879   2.541   5.560  0.7789 -0.6527  0.4537
   85MOL0     C11621  12.005   2.318   5.529  0.0513  0.0814 -0.8924
   85MOL0     C11622  12.142   2.383   5.517 -0.4548  0.3449 -0.5343
   85MOL0     O11623  12.185   2.461   5.628 -0.2809  0.2663 -0.2913
   85MOL0     C11624  12.302   2.526   5.602  0.4590 -0.3318  0.6874
   85MOL0     C11625  12.423   2.482   5.661  0.3811  0.4920 -0.2624
   85MOL0     C11626  12.541   2.550   5.637  0.7759  0.7426 -0.4590
   85MOL0     C11627  12.546   2.643   5.539 -0.6312  0.8572  0.1009
   85MOL0     O11628  12.659   2.699   5.498 -0.2340 -0.0872 -0.7245
   85MOL0     C11629  12.773   2.715   5.592  0.1063 -0.3801 -0.1499
   85MOL0     C11630  12.876   2.803   5.516 -0.1595  0.6277 -0.8485
   85MOL0     C11631  12.978   2.855   5.624  0.4580  0.6758  0.6873
   85MOL0     C11632  13.072   2.953   5.565  1.2947  0.7869  0.2115
   85MOL0     C11633  13.179   2.882   5.484 -0.3291 -0.4685  0.2349
   85MOL0     C11634  13.273   2.963   5.397  0.4526  0.0427  0.7276
   85MOL0     C11635  13.321   3.098   5.457 -1.0109 -0.6242 -0.9446
   85MOL0     C11636  13.473   3.078   5.514  0.3165 -0.3440  0.1235
   85MOL0    Cl11637  13.455   2.985   5.666  0.0651  0.1100 -0.0247
   85MOL0     C11638  12.433   2.684   5.473  0.6384 -0.6624  0.5099
   85MOL0     C11639  12.305   2.628   5.506 -0.2787 -0.4572 -0.2389
   85MOL0     O11640  12.218   2.351   5.425  0.1740  0.6302  0.4393
   85MOL0     C11641  12.001   2.176   5.517 -0.2309 -0.0993  0.0558
   85MOL0     C11642  11.883   2.104   5.519  0.5480 -0.0481 -0.8020
   85MOL0     N11643  11.222   1.831   5.261 -0.5675 -0.0105 -0.0943
   85MOL0     N11644  11.175   1.729   5.189  0.2150  0.3617 -0.0364
   85MOL0     C11645  10.957   0.615   5.267 -0.5260  0.3197  0.0319
   85MOL0     C11646  10.843   0.593   5.347  0.7936  0.3962 -0.0957
   85MOL0     C11647  10.428   0.611   5.513  0.0625  0.5068 -0.2216
   85MOL0     C11648  10.314   0.572   5.452  0.9785  0.4358 -0.7018
   85MOL0     C11649  10.195   0.536   5.527 -0.0140  0.6558  0.1872
   85MOL0     C11650  10.193   0.543   5.671 -0.6338 -0.4831  0.0398
   85MOL0     O11651  10.093   0.519   5.753 -0.1420 -0.1997  0.0659
   85MOL0     C11652   9.987   0.438   5.707 -0.3628 -0.2065 -0.0468
   85MOL0     C11653   9.941   0.332   5.810  0.5472  0.8149  0.7247
   85MOL0     C11654   9.861   0.397   5.925  0.4700  0.9358  0.1854
   85MOL0     C11655   9.806   0.296   6.030  0.0388 -0.3313 -0.5590
   85MOL0     C11656   9.716   0.200   5.966  0.1665 -0.5301 -0.6242
   85MOL0     C11657   9.640   0.117   5.941  0.5449 -0.0291  0.4070
   85MOL0     C11658  10.316   0.585   5.731  0.4986 -0.3053  0.7934
   85MOL0     C11659  10.428   0.620   5.654  0.0983  0.2562  0.1342
   85MOL0     C11660  10.550   0.655   5.736  0.2211 -0.3642 -0.6336
   85MOL0     H11661  10.747   0.924   5.390 -3.2049 -1.4014 -1.5510
   85MOL0     H11662  10.933   0.958   5.244 -1.1844  0.5963 -0.4866
   85MOL0     H11663  11.230   0.604   5.180 -0.3018  0.4083  1.4564
   85MOL0     H11664  11.214   0.692   5.337  1.1527 -4.3192  0.3151
   85MOL0     H11665  11.447   0.704   5.219 -0.2674  0.1957  1.5843
   85MOL0     H11666  11.359   0.787   5.085 -0.5850  0.1469 -0.3945
   85MOL0     H11667  11.398   0.887   5.374  3.2490  1.8067  0.8340
   85MOL0     H11668  11.505   0.921   5.242  0.2173  0.4135  1.3756
   85MOL0     H11669  11.331   1.027   5.104  1.4991  2.2061  0.2026
   85MOL0     H11670  11.215   0.992   5.243  0.8098 -1.5468  3.2716
   85MOL0     H11671  11.425   1.208   5.197 -0.8180  2.0581  0.0773
   85MOL0     H11672  11.381   1.170   5.361  2.0712  0.1299 -0.3535
   85MOL0     H11673  11.197   1.263   5.137 -1.1793 -0.5005 -0.2015
   85MOL0     H11674  11.138   1.219   5.293  1.0844 -2.4719 -1.0642
   85MOL0     H11675  11.344   1.438   5.239 -1.2314  1.7342 -0.5009
   85MOL0     H11676  11.269   1.404   5.391 -0.7786  1.0927  0.3102
   85MOL0     H11677  11.118   1.471   5.131 -3.3213 -0.1179  0.7628
   85MOL0     H11678  11.036   1.454   5.281 -0.3171  2.0564 -0.1731
   85MOL0     H11679  11.205   1.605   5.488  0.8156  0.6081  0.6194
   85MOL0     H11680  11.305   1.793   5.593 -0.8922 -0.7067 -0.3974
   85MOL0     H11681  11.179   1.910   5.574  0.7016  1.9481  0.5481
   85MOL0     H11682  11.442   1.942   5.399 -0.0138  1.0033  0.1994
   85MOL0     H11683  11.319   2.052   5.419 -2.3947 -0.7147  0.6013
   85MOL0     H11684  11.358   2.067   5.677  0.1642 -2.3087  0.9723
   85MOL0     H11685  11.492   1.957   5.655  0.3891  0.8033  0.7750
   85MOL0     H11686  11.481   2.219   5.513  0.5557 -0.9253 -2.2266
   85MOL0     H11687  11.552   2.191   5.675  1.4642 -2.4517  0.8986
   85MOL0     H11688  11.675   2.374   5.553 -0.0734 -0.0746  2.4229
   85MOL0     H11689  11.820   2.579   5.476 -2.0259 -2.1924  1.5518
   85MOL0     H11690  11.974   2.594   5.569  1.7502 -1.5724 -2.9655
   85MOL0     H11691  11.821   2.564   5.650  2.0210  3.3688  0.3939
   85MOL0     H11692  12.408   2.398   5.729 -1.5277 -0.7785 -2.1280
   85MOL0     H11693  12.624   2.517   5.699 -0.0673  0.8312  0.7562
   85MOL0     H11694  12.748   2.768   5.684  2.6862  1.3552 -0.3641
   85MOL0     H11695  12.815   2.617   5.618 -0.8863 -0.6418  0.5448
   85MOL0     H11696  12.917   2.733   5.443 -0.4179 -1.2449  0.7257
   85MOL0     H11697  12.824   2.887   5.469 -1.9433  0.6562  1.0385
   85MOL0     H11698  13.036   2.772   5.665 -0.2186  0.1842  0.6771
   85MOL0     H11699  12.931   2.890   5.716 -0.5417  1.2264 -0.0086
   85MOL0     H11700  13.124   2.994   5.652  0.7824 -1.0174  1.4181
   85MOL0     H11701  13.027   3.030   5.502  2.5352  0.6502 -0.8913
   85MOL0     H11702  13.237   2.814   5.547  0.0816 -0.7968 -0.4887
   85MOL0     H11703  13.132   2.826   5.402  0.7485  1.4654 -1.8077
   85MOL0     H11704  13.221   2.975   5.301 -1.6902  0.0223  1.8343
   85MOL0     H11705  13.357   2.893   5.391 -1.0471 -1.8276  0.5428
   85MOL0     H11706  13.261   3.142   5.536 -0.8720 -1.9337 -0.0767
   85MOL0     H11707  13.328   3.166   5.372 -3.5516 -1.8973 -2.2850
   85MOL0     H11708  13.530   3.171   5.525 -0.9275  0.3777  0.6904
   85MOL0     H11709  13.529   3.013   5.446 -1.1730 -0.6680 -0.8354
   85MOL0     H11710  12.431   2.776   5.415 -2.2701  0.5508  2.3189
   85MOL0     H11711  12.212   2.665   5.465 -1.4919 -2.9886  0.0732
   85MOL0     H11712  12.098   2.131   5.495 -0.2264 -0.1982  0.2736
   85MOL0     H11713  11.874   1.996   5.515 -0.5607  0.0271 -0.7954
   85MOL0     H11714  11.018   0.528   5.245 -0.7711  0.0333  0.4777
   85MOL0     H11715  10.814   0.489   5.362  0.8367  0.1098 -1.7479
   85MOL0     H11716  10.288   0.572   5.347 -1.9208  1.5675 -0.0734
   85MOL0     H11717  10.104   0.511   5.472  0.1940 -0.0982  0.1763
   85MOL0     H11718   9.899   0.499   5.687 -0.9701 -1.5419 -1.6922
   85MOL0     H11719  10.018   0.392   5.613 -1.0721 -2.8305  0.9179
   85MOL0     H11720  10.023   0.284   5.864 -1.6160 -2.0252  1.7285
   85MOL0     H11721   9.886   0.251   5.762  0.5905  0.3897  1.3740
   85MOL0     H11722   9.917   0.471   5.983 -0.6205  2.9382 -1.1949
   85MOL0     H11723   9.779   0.453   5.879 -0.5221 -0.2971  0.3874
   85MOL0     H11724   9.748   0.346   6.109 -3.4243  0.1921 -3.1799
   85MOL0     H11725   9.885   0.239   6.078 -2.2399 -0.6401  3.2381
   85MOL0     H11726   9.573   0.037   5.915 -0.3880  1.3241 -1.6567
   85MOL0     H11727  10.322   0.573   5.839 -1.5608  0.9529  1.1052
   85MOL0     H11728  10.622   0.573   5.731  0.2637 -0.5266  1.6801
   85MOL0     H11729  10.600   0.750   5.712  2.8636 -0.9924  1.8925
   85MOL0     H11730  10.520   0.667   5.840 -1.0990  1.7432 -1.1849
   86MOL0     O11731   2.926   6.658   0.212  0.7848  0.3263  0.0322
   86MOL0     C11732   2.851   6.720   0.134  0.6232  0.3554 -0.5623
   86MOL0     O11733   2.882   6.828   0.068  0.1730  0.2190 -0.1643
   86MOL0     C11734   3.013   6.864   0.091  0.7990 -1.0499  0.2959
   86MOL0     C11735   3.101   6.868  -0.020 -0.2228 -0.0470 -0.0718
   86MOL0     C11736   3.222   6.934  -0.001 -0.8902  0.1433 -0.6396
   86MOL0     C11737   3.270   6.969   0.125 -0.0240 -0.3809 -0.3878
   86MOL0     O11738   3.395   7.030   0.130  0.0822 -0.4709  0.4899
   86MOL0     C11739   3.422   7.115   0.248 -0.4144  0.4568 -0.3254
   86MOL0     C11740   3.569   7.159   0.249 -0.7929  0.8291 -0.0931
   86MOL0     C11741   3.599   7.236   0.119 -0.5143 -1.2235  0.2063
   86MOL0     C11742   3.730   7.316   0.141  0.3067 -0.7294 -0.2842
   86MOL0     C11743   3.757   7.428   0.032 -0.4951 -0.2823  0.2697
   86MOL0     C11744   3.905   7.437   0.012 -0.4507  0.1744  0.4943
   86MOL0     C11745   3.925   7.523  -0.116  0.2333  0.0346  0.5825
   86MOL0     C11746   4.052   7.603  -0.121  0.6151  0.0652 -0.3602
   86MOL0     N11747   4.164   7.499  -0.142  0.1159 -0.8578  0.7197
   86MOL0     C11748   4.272   7.497  -0.052  0.4221  0.3457 -0.7033
   86MOL0     C11749   4.347   7.401  -0.109  0.6603  0.2465  0.2685
   86MOL0     C11750   4.481   7.381  -0.044 -0.1497 -0.0427 -0.3985
   86MOL0     C11751   4.580   7.314  -0.138 -1.0754 -0.4752 -1.5562
   86MOL0     C11752   4.649   7.401  -0.243  0.0816 -1.1628  1.0342
   86MOL0     C11753   4.787   7.451  -0.218  0.5893 -0.8743 -0.7810
   86MOL0     O11754   4.876   7.345  -0.193 -0.0885  0.0021  0.0963
   86MOL0     C11755   4.962   7.309  -0.294 -0.3372  0.4460  0.5439
   86MOL0     C11756   5.086   7.269  -0.244  0.1725  0.0149 -0.2399
   86MOL0     C11757   5.190   7.226  -0.327 -0.2383 -0.5577 -0.4407
   86MOL0     C11758   5.339   7.206  -0.277  0.0675 -0.5179 -0.1199
   86MOL0     C11759   5.160   7.215  -0.468  1.0084 -0.0888  0.1107
   86MOL0     C11760   5.262   7.193  -0.569  0.6536 -0.3140  0.4019
   86MOL0     O11761   5.357   7.089  -0.550  0.3436 -0.4697  0.0036
   86MOL0     C11762   5.446   7.085  -0.652  0.3507  0.3603 -0.5466
   86MOL0     C11763   5.451   6.976  -0.737 -0.0040 -0.1141  0.0959
   86MOL0     C11764   5.557   6.964  -0.830  0.7224  0.6729 -0.2360
   86MOL0     C11765   5.665   7.062  -0.831  0.3720  0.4405 -1.0525
   86MOL0     O11766   5.773   7.030  -0.906 -0.3883  0.2295  0.1127
   86MOL0     C11767   5.807   7.130  -1.010  0.4378 -0.4354 -0.3492
   86MOL0     C11768   5.929   7.078  -1.081  0.5116  0.0624  1.1484
   86MOL0     C11769   6.055   7.068  -0.992 -0.2859  0.2274  0.1871
   86MOL0     C11770   6.169   7.141  -1.059  0.2414  0.1715 -0.1961
   86MOL0     C11771   6.289   7.148  -0.961  0.0376 -0.1452  0.3052
   86MOL0     C11772   6.325   7.008  -0.913  0.5635  0.2810 -0.1438
   86MOL0     C11773   6.448   7.028  -0.814 -0.0406  0.3218  0.1737
   86MOL0     C11774   6.409   7.055  -0.678 -0.0990 -0.4530 -0.9669
   86MOL0    Cl11775   6.357   6.901  -0.590 -0.3626 -0.1468  0.3124
   86MOL0     C11776   5.649   7.172  -0.741 -0.6607  0.4365 -0.8268
   86MOL0     C11777   5.546   7.181  -0.645  0.3097  0.0313  0.4382
   86MOL0     O11778   5.273   7.273  -0.659  0.1522  0.0122 -0.4610
   86MOL0     C11779   5.032   7.251  -0.513 -0.4519 -0.3775  0.1877
   86MOL0     C11780   4.938   7.310  -0.430  0.2378  0.2164 -0.2699
   86MOL0     N11781   4.291   7.348  -0.226  0.1507 -1.2818 -1.0988
   86MOL0     N11782   4.175   7.416  -0.249 -0.5303  0.1152  0.3262
   86MOL0     C11783   3.180   6.964   0.234 -0.1280  0.0671 -0.1562
   86MOL0     C11784   3.047   6.918   0.214  1.0696 -0.1362 -0.1512
   86MOL0     C11785   2.704   6.685   0.110 -1.0478  0.8076  0.7041
   86MOL0     C11786   2.620   6.794   0.084 -0.6789  0.1440  0.5406
   86MOL0     C11787   2.483   6.785   0.056 -0.2988 -0.4407 -0.6585
   86MOL0     C11788   2.425   6.655   0.054  0.7531 -0.5214 -0.8060
   86MOL0     O11789   2.294   6.623   0.035 -0.2057  0.2343 -0.1162
   86MOL0     C11790   2.210   6.719  -0.032 -0.2209 -0.5007  0.4991
   86MOL0     C11791   2.077   6.640  -0.055 -1.2311  1.4275  0.3579
   86MOL0     C11792   2.105   6.522  -0.149  0.1793  0.6636 -0.3154
   86MOL0     C11793   1.979   6.470  -0.215  0.9140 -1.2715  0.1480
   86MOL0     C11794   1.887   6.420  -0.114 -0.3303  0.1333  0.5522
   86MOL0     C11795   1.813   6.356  -0.038 -0.0245  0.2622  0.4693
   86MOL0     C11796   2.511   6.543   0.089  0.2184  0.1757  0.0123
   86MOL0     C11797   2.647   6.558   0.120  0.4526  0.8383  0.3907
   86MOL0     C11798   2.718   6.435   0.178  0.0408 -0.3055  0.2614
   86MOL0     H11799   3.088   6.818  -0.115 -0.4055 -2.0286  0.9239
   86MOL0     H11800   3.291   6.950  -0.084  0.8476 -0.7024  0.5759
   86MOL0     H11801   3.400   7.070   0.346  1.8093 -1.0782 -0.4549
   86MOL0     H11802   3.369   7.209   0.230  0.3130  0.8983 -0.2241
   86MOL0     H11803   3.590   7.219   0.338 -1.3902  0.7189  0.1260
   86MOL0     H11804   3.646   7.081   0.245  0.6998  2.2882 -1.9375
   86MOL0     H11805   3.596   7.174   0.029 -0.9154 -0.7690 -0.1015
   86MOL0     H11806   3.523   7.314   0.112 -0.1412 -0.9539 -1.2823
   86MOL0     H11807   3.737   7.367   0.237 -1.0092  0.0697 -0.5926
   86MOL0     H11808   3.809   7.240   0.144  2.2020  1.0563 -1.9406
   86MOL0     H11809   3.706   7.524   0.041  1.7665  1.1780 -1.4012
   86MOL0     H11810   3.709   7.387  -0.058  0.6598 -0.9360 -0.0690
   86MOL0     H11811   3.956   7.481   0.098  3.5358 -0.6705 -1.2174
   86MOL0     H11812   3.947   7.339  -0.012 -2.1763 -0.4045 -0.3839
   86MOL0     H11813   3.836   7.587  -0.115  0.9602  1.0898  2.3580
   86MOL0     H11814   3.917   7.466  -0.209 -3.7376 -0.5584  1.1308
   86MOL0     H11815   4.066   7.673  -0.204 -2.1042  3.0383  1.4549
   86MOL0     H11816   4.078   7.652  -0.027  1.0692 -2.0927  0.7126
   86MOL0     H11817   4.299   7.550   0.039  2.3901  0.2220 -1.1607
   86MOL0     H11818   4.460   7.323   0.047 -0.1347 -0.1682 -0.4746
   86MOL0     H11819   4.520   7.475  -0.004  1.0250 -0.9051  0.5777
   86MOL0     H11820   4.657   7.258  -0.085 -2.8109 -1.4086  0.0779
   86MOL0     H11821   4.534   7.236  -0.199  2.1077 -1.0767 -3.4295
   86MOL0     H11822   4.646   7.346  -0.337 -0.2546 -1.0443  0.9721
   86MOL0     H11823   4.591   7.494  -0.251  1.2684 -0.5185 -0.4290
   86MOL0     H11824   4.824   7.509  -0.303 -1.0355 -1.1806 -1.7466
   86MOL0     H11825   4.783   7.517  -0.130 -1.8436 -0.2018 -1.3233
   86MOL0     H11826   5.103   7.267  -0.137  0.0488  2.6939 -0.1234
   86MOL0     H11827   5.381   7.105  -0.285 -1.0077 -1.0781  0.9826
   86MOL0     H11828   5.335   7.234  -0.172 -2.5351  1.4330 -0.6249
   86MOL0     H11829   5.412   7.275  -0.319  0.3614 -0.7434  0.0236
   86MOL0     H11830   5.379   6.895  -0.728 -0.6264  0.3022 -0.9650
   86MOL0     H11831   5.570   6.871  -0.885  0.9578  0.1227  0.7177
   86MOL0     H11832   5.725   7.146  -1.080 -0.9117  0.2546  1.3285
   86MOL0     H11833   5.832   7.229  -0.970 -1.0201 -0.9155  1.9240
   86MOL0     H11834   5.916   6.980  -1.126 -0.3880  0.9245 -0.5641
   86MOL0     H11835   5.950   7.148  -1.162  0.2260 -1.2562 -0.0859
   86MOL0     H11836   6.070   6.962  -0.970 -1.6749 -0.1776 -0.6391
   86MOL0     H11837   6.030   7.120  -0.899 -2.0697 -0.2102 -0.0044
   86MOL0     H11838   6.134   7.238  -1.093 -1.6724 -0.2951  0.3357
   86MOL0     H11839   6.183   7.090  -1.154  0.9650 -0.1941  0.0946
   86MOL0     H11840   6.375   7.193  -1.012  0.2807 -1.2237 -0.2574
   86MOL0     H11841   6.267   7.213  -0.876  1.4163 -0.7351  1.1319
   86MOL0     H11842   6.358   6.948  -0.998  2.5641  2.0745 -0.7053
   86MOL0     H11843   6.244   6.969  -0.851 -1.6737  0.7753 -2.5508
   86MOL0     H11844   6.523   7.104  -0.837  2.0629 -0.9041  2.4697
   86MOL0     H11845   6.502   6.934  -0.828  4.6751  3.1155 -3.1967
   86MOL0     H11846   6.319   7.116  -0.683 -1.1344 -1.8277  0.2339
   86MOL0     H11847   6.490   7.103  -0.622 -0.9383  0.1225 -0.2230
   86MOL0     H11848   5.733   7.241  -0.746  1.1343 -1.2211  2.8891
   86MOL0     H11849   5.544   7.274  -0.588 -2.2862  2.3364 -3.0179
   86MOL0     H11850   5.007   7.211  -0.611  1.0602 -1.9001  0.3687
   86MOL0     H11851   4.840   7.339  -0.464 -0.5002 -1.4374  0.3307
   86MOL0     H11852   3.201   6.994   0.337 -3.1913  0.4891  0.4259
   86MOL0     H11853   2.978   6.903   0.296  1.8645 -1.5003  0.3167
   86MOL0     H11854   2.659   6.895   0.090 -1.5239  0.5036  0.0995
   86MOL0     H11855   2.424   6.875   0.040  1.2014  0.5640 -0.7124
   86MOL0     H11856   2.188   6.798   0.039  0.5326  0.5104 -0.3711
   86MOL0     H11857   2.258   6.750  -0.125  0.1184 -2.8859 -0.1857
   86MOL0     H11858   1.997   6.710  -0.082 -0.5565  2.0167 -0.1323
   86MOL0     H11859   2.039   6.600   0.039 -1.6452  1.1735  0.0827
   86MOL0     H11860   2.182   6.545  -0.223  1.1472 -2.5464 -0.4725
   86MOL0     H11861   2.152   6.439  -0.095 -1.6127 -1.7276 -2.1640
   86MOL0     H11862   2.000   6.408  -0.303 -0.6387 -0.8158 -0.5775
   86MOL0     H11863   1.936   6.557  -0.264 -0.5963 -0.6628  2.3985
   86MOL0     H11864   1.745   6.297   0.019 -0.2221 -3.5170 -3.1657
   86MOL0     H11865   2.458   6.451   0.110 -2.7504  1.4111 -1.5118
   86MOL0     H11866   2.655   6.347   0.192  0.1734 -0.1770  1.8987
   86MOL0     H11867   2.795   6.426   0.102  0.3344  2.8286  0.0579
   86MOL0     H11868   2.761   6.454   0.277  1.4526  0.3023 -0.4410
   87MOL0     O11869   7.780   5.338   8.777 -1.0096  0.0479  0.0063
   87MOL0     C11870   7.789   5.452   8.832 -0.0724 -0.0645  0.3959
   87MOL0     O11871   7.688   5.522   8.892 -0.2848 -0.2185 -0.3829
   87MOL0     C11872   7.571   5.465   8.923  0.1101  0.6230 -0.4783
   87MOL0     C11873   7.545   5.419   9.057 -0.9521  0.0126 -0.4057
   87MOL0     C11874   7.422   5.367   9.087  0.9000  0.1914  0.2793
   87MOL0     C11875   7.323   5.344   8.989 -0.4878 -0.2272 -0.3432
   87MOL0     O11876   7.200   5.293   9.027  0.5933  0.0707  0.2823
   87MOL0     C11877   7.097   5.281   8.925  0.2968  0.4864  0.4392
   87MOL0     C11878   6.957   5.250   8.989 -0.5365  0.2609  0.4582
   87MOL0     C11879   6.854   5.217   8.889  0.9095  0.5868  0.8838
   87MOL0     C11880   6.734   5.147   8.951  0.8627 -0.7552  0.2036
   87MOL0     C11881   6.668   5.053   8.848 -0.3849 -0.0077 -0.5078
   87MOL0     C11882   6.530   5.004   8.880  0.2544 -0.0371 -0.7368
   87MOL0     C11883   6.513   4.912   8.997 -0.0101 -0.2720 -0.4773
   87MOL0     C11884   6.562   4.770   8.966 -1.0017 -0.1901  0.1159
   87MOL0     N11885   6.646   4.726   9.077 -0.4187 -0.4164  1.1864
   87MOL0     C11886   6.598   4.649   9.182 -0.5643 -0.7079  0.2666
   87MOL0     C11887   6.716   4.623   9.256 -0.1364 -0.5694  0.4426
   87MOL0     C11888   6.734   4.523   9.362 -0.3627  1.1132  0.1078
   87MOL0     C11889   6.878   4.490   9.395 -0.5115  0.0468 -0.8821
   87MOL0     C11890   6.880   4.364   9.498  0.7763 -0.3474 -1.2685
   87MOL0     C11891   7.021   4.350   9.583  0.7436  0.2358  0.4919
   87MOL0     O11892   7.121   4.335   9.481  0.0934 -0.3029  0.4413
   87MOL0     C11893   7.241   4.320   9.551  0.4846 -0.1771 -0.3382
   87MOL0     C11894   7.337   4.419   9.554 -0.2645  0.3056  0.3154
   87MOL0     C11895   7.454   4.416   9.628 -0.0528 -1.3890  1.3915
   87MOL0     C11896   7.548   4.538   9.631  0.1895  0.4804  0.2594
   87MOL0     C11897   7.484   4.287   9.691  1.6139  0.4183 -0.2574
   87MOL0     C11898   7.612   4.256   9.757 -0.1453 -0.3371  1.3373
   87MOL0     O11899   7.638   4.121   9.784  1.0761  0.0395  0.1953
   87MOL0     C11900   7.755   4.098   9.844 -1.2250 -0.1783  0.1305
   87MOL0     C11901   7.828   4.179   9.935 -0.1819  0.2714 -0.2592
   87MOL0     C11902   7.954   4.134   9.978  0.6428 -0.2492 -0.4544
   87MOL0     C11903   8.002   4.007   9.954 -0.9063  0.1012 -0.4921
   87MOL0     O11904   8.106   3.945  10.014  0.2965  0.5716 -1.0036
   87MOL0     C11905   8.136   3.997  10.145  0.7896  0.2540  1.1041
   87MOL0     C11906   8.245   3.931  10.215 -0.1792  0.6599  0.2929
   87MOL0     C11907   8.259   4.008  10.339  0.3713  0.7580 -0.8741
   87MOL0     C11908   8.370   3.952  10.432  0.2834 -0.7926 -0.2446
   87MOL0     C11909   8.509   3.960  10.360 -0.1112  1.1109 -0.3215
   87MOL0     C11910   8.614   3.912  10.459  0.0448 -0.3211 -0.0840
   87MOL0     C11911   8.753   3.932  10.394  0.2658 -0.2208 -0.0995
   87MOL0     C11912   8.858   3.833  10.456 -0.2306 -0.4820  0.5452
   87MOL0    Cl11913   8.888   3.864  10.627  0.4324 -0.5980  0.1826
   87MOL0     C11914   7.927   3.932   9.860 -0.9355 -0.2742  0.3017
   87MOL0     C11915   7.812   3.978   9.808  0.3803  0.1056 -0.5815
   87MOL0     O11916   7.686   4.346   9.783  1.2672  1.0794 -1.1265
   87MOL0     C11917   7.388   4.181   9.687  0.5008  0.0252  0.8424
   87MOL0     C11918   7.265   4.205   9.619 -0.1580 -0.5588 -0.1136
   87MOL0     N11919   6.821   4.696   9.198 -0.1439 -0.6004  0.5308
   87MOL0     N11920   6.780   4.755   9.092 -0.1228  0.1466 -0.2276
   87MOL0     C11921   7.354   5.366   8.853 -0.8498  0.3029  0.3005
   87MOL0     C11922   7.474   5.434   8.824 -0.0662  0.5151  0.5401
   87MOL0     C11923   7.925   5.513   8.829 -0.3960  0.6967 -0.7034
   87MOL0     C11924   7.931   5.651   8.833 -0.4519 -0.3160 -0.1977
   87MOL0     C11925   8.047   5.716   8.838 -0.5921 -0.1601 -0.2027
   87MOL0     C11926   8.164   5.647   8.826 -0.3269 -0.0644 -0.7016
   87MOL0     O11927   8.288   5.697   8.823 -1.0450 -0.1492 -0.2831
   87MOL0     C11928   8.328   5.818   8.760 -0.1554 -0.5473 -0.7549
   87MOL0     C11929   8.285   5.832   8.610 -0.2070 -0.0174  0.4067
   87MOL0     C11930   8.399   5.841   8.502  0.6036  0.2768  0.7845
   87MOL0     C11931   8.449   5.977   8.468  0.1042 -0.4265 -1.2877
   87MOL0     C11932   8.493   6.048   8.588  0.2971  0.8112  0.5352
   87MOL0     C11933   8.528   6.103   8.692  0.3771 -0.5648 -0.1277
   87MOL0     C11934   8.167   5.506   8.828  0.1787  0.1799  0.7932
   87MOL0     C11935   8.046   5.436   8.825  0.1723  0.5072  0.5027
   87MOL0     C11936   8.050   5.290   8.822  0.5370  0.2883 -0.1338
   87MOL0     H11937   7.623   5.437   9.131 -1.1636  2.1200 -0.6387
   87MOL0     H11938   7.412   5.338   9.191  3.4821  0.8430  0.7918
   87MOL0     H11939   7.121   5.201   8.854  0.5534  2.5225 -1.9117
   87MOL0     H11940   7.088   5.374   8.869 -3.3243 -1.7205 -3.1580
   87MOL0     H11941   6.979   5.170   9.060  1.1585  1.4900  1.3700
   87MOL0     H11942   6.930   5.336   9.050  2.1633  2.1589 -0.8186
   87MOL0     H11943   6.815   5.307   8.840 -2.0265  0.0798  2.0624
   87MOL0     H11944   6.888   5.150   8.809 -0.1726  1.6324 -0.5150
   87MOL0     H11945   6.760   5.082   9.035  3.5623 -0.8446 -0.6408
   87MOL0     H11946   6.666   5.221   8.995  0.2735 -1.5807  0.7153
   87MOL0     H11947   6.724   4.959   8.843  1.1353  0.9313 -1.9543
   87MOL0     H11948   6.657   5.108   8.754 -3.4589  0.8833  0.2605
   87MOL0     H11949   6.468   5.087   8.917  3.4734  1.3317  2.1274
   87MOL0     H11950   6.492   4.959   8.787 -1.1311  1.0568 -0.7430
   87MOL0     H11951   6.407   4.891   9.008  0.2194 -2.7288 -2.1448
   87MOL0     H11952   6.546   4.956   9.091  1.5690  1.5164 -1.7765
   87MOL0     H11953   6.473   4.706   8.966 -0.4934 -0.9107  0.1704
   87MOL0     H11954   6.608   4.754   8.868 -0.9830  0.8532 -0.0596
   87MOL0     H11955   6.495   4.622   9.205 -1.8335  3.2553 -0.0284
   87MOL0     H11956   6.689   4.425   9.344  0.8028 -0.3703  4.1133
   87MOL0     H11957   6.685   4.565   9.450 -0.8597  0.5253  0.1129
   87MOL0     H11958   6.934   4.458   9.306  1.0366  0.3384 -0.0457
   87MOL0     H11959   6.934   4.579   9.426 -1.7372  0.5687 -0.0965
   87MOL0     H11960   6.800   4.382   9.570  0.5846 -1.6678 -1.1240
   87MOL0     H11961   6.848   4.279   9.437 -0.0717  0.5588 -2.1113
   87MOL0     H11962   7.048   4.436   9.645  2.6995  0.8946 -1.1643
   87MOL0     H11963   6.998   4.260   9.640 -2.4583  2.5548  3.3022
   87MOL0     H11964   7.305   4.511   9.506  0.2125  1.3335  1.8857
   87MOL0     H11965   7.599   4.539   9.728 -1.0048 -2.8662  1.0762
   87MOL0     H11966   7.486   4.627   9.622 -0.8077 -0.2594 -0.4240
   87MOL0     H11967   7.627   4.549   9.555  0.7598 -0.0311  0.7661
   87MOL0     H11968   7.781   4.269   9.973 -0.7933  0.0704 -0.5213
   87MOL0     H11969   8.016   4.192  10.046  0.6899  1.1411 -1.6287
   87MOL0     H11970   8.173   4.099  10.127  3.2390 -1.0273 -1.8419
   87MOL0     H11971   8.047   3.999  10.208  1.3251  1.4869  1.8535
   87MOL0     H11972   8.214   3.830  10.242  0.9973 -0.4144 -2.0799
   87MOL0     H11973   8.328   3.914  10.145  0.0965  0.8411  0.5717
   87MOL0     H11974   8.164   4.019  10.391  1.5395  2.1009  1.1295
   87MOL0     H11975   8.279   4.114  10.317 -2.0580  1.0586 -2.0249
   87MOL0     H11976   8.349   3.852  10.471  1.8754 -1.1897 -0.3186
   87MOL0     H11977   8.367   4.029  10.510  0.4428 -1.1325  0.1008
   87MOL0     H11978   8.510   3.893  10.273 -0.1832 -3.1414  2.6517
   87MOL0     H11979   8.526   4.062  10.325 -2.0428  0.5909 -3.1202
   87MOL0     H11980   8.594   3.805  10.473 -1.7028 -0.3293 -2.1722
   87MOL0     H11981   8.605   3.968  10.552 -1.9235  1.2143 -1.1276
   87MOL0     H11982   8.778   4.038  10.384 -3.0206  1.0088  2.6184
   87MOL0     H11983   8.748   3.894  10.292 -0.9230 -0.5081  0.0467
   87MOL0     H11984   8.951   3.853  10.402 -2.0323 -1.1070 -3.1059
   87MOL0     H11985   8.836   3.729  10.428 -1.2791  0.7721 -4.3071
   87MOL0     H11986   7.964   3.835   9.831 -2.8838 -1.0290  0.1518
   87MOL0     H11987   7.760   3.911   9.741 -0.6653 -0.4773  0.7746
   87MOL0     H11988   7.400   4.079   9.724  2.5368 -0.6530 -1.4151
   87MOL0     H11989   7.185   4.133   9.604 -0.6107  0.5042 -3.6532
   87MOL0     H11990   7.280   5.335   8.780  0.6239 -0.4805 -0.9061
   87MOL0     H11991   7.490   5.451   8.718 -4.6563 -0.1381 -0.4833
   87MOL0     H11992   7.843   5.714   8.827 -0.8740 -0.9462 -0.7580
   87MOL0     H11993   8.051   5.825   8.843  1.7077 -0.0782 -2.3492
   87MOL0     H11994   8.301   5.900   8.827  2.1099  1.0578 -1.6871
   87MOL0     H11995   8.436   5.832   8.756  0.1663 -2.0893  0.9164
   87MOL0     H11996   8.228   5.924   8.594 -1.6447 -0.9839 -0.2144
   87MOL0     H11997   8.239   5.741   8.571 -0.7115 -0.6474  2.3348
   87MOL0     H11998   8.480   5.772   8.530  2.3883  2.8102  2.2469
   87MOL0     H11999   8.352   5.807   8.410  1.0595 -0.5628  0.8477
   87MOL0     H12000   8.361   6.027   8.426 -1.0286 -2.3495 -1.3540
   87MOL0     H12001   8.525   5.967   8.390 -0.9209 -0.9668 -2.2523
   87MOL0     H12002   8.535   6.164   8.779 -1.7252 -0.7217  0.1869
   87MOL0     H12003   8.261   5.453   8.819  0.5638  0.9861 -0.1193
   87MOL0     H12004   8.016   5.248   8.917 -0.9285  0.1772 -0.6856
   87MOL0     H12005   7.989   5.243   8.745  1.4732  1.0082 -1.3487
   87MOL0     H12006   8.150   5.247   8.814  0.4679 -0.0538  0.7210
   88MOL0     O12007   1.533   1.596   6.778 -0.5965 -0.3027  0.8005
   88MOL0     C12008   1.481   1.590   6.892  0.3274  0.2148 -0.0431
   88MOL0     O12009   1.558   1.591   7.006  0.5592  0.0485 -0.6838
   88MOL0     C12010   1.685   1.648   6.995  0.2991  0.5118  0.1881
   88MOL0     C12011   1.720   1.764   6.915  0.0535  0.0634  1.0342
   88MOL0     C12012   1.854   1.814   6.917  0.0048  0.3659  0.6782
   88MOL0     C12013   1.953   1.739   6.993 -0.5711  0.5548 -0.0036
   88MOL0     O12014   2.085   1.782   6.985 -0.0342  0.1511 -0.1822
   88MOL0     C12015   2.179   1.750   7.078  0.2457 -0.5059 -0.5511
   88MOL0     C12016   2.297   1.839   7.064  0.2955  0.1243  0.0626
   88MOL0     C12017   2.350   1.867   6.922  0.3379 -0.6108 -0.1215
   88MOL0     C12018   2.375   1.741   6.826 -0.6040 -0.2007  1.0029
   88MOL0     C12019   2.489   1.744   6.720  0.3690 -0.2881  0.4977
   88MOL0     C12020   2.467   1.854   6.622  0.0247 -1.0391  0.0156
   88MOL0     C12021   2.563   1.868   6.502 -0.2073  1.1746 -0.3693
   88MOL0     C12022   2.532   1.982   6.401 -0.6012  0.4737  0.7253
   88MOL0     N12023   2.619   1.983   6.289 -0.1181  0.7253  0.1948
   88MOL0     C12024   2.754   2.008   6.304  0.5507 -0.4698  0.4300
   88MOL0     C12025   2.792   2.000   6.171  0.4302 -0.1121 -0.1771
   88MOL0     C12026   2.922   2.038   6.111  0.1714 -0.4060 -0.2858
   88MOL0     C12027   2.933   2.197   6.106 -0.7498  0.1578  1.3036
   88MOL0     C12028   3.076   2.246   6.144  0.0556  0.0999 -0.2303
   88MOL0     C12029   3.194   2.217   6.044  0.1147  0.2036  0.5443
   88MOL0     O12030   3.211   2.078   6.021 -0.3941  0.2612 -0.0472
   88MOL0     C12031   3.326   2.023   5.978 -0.3622  0.4128 -0.1547
   88MOL0     C12032   3.324   1.893   5.939 -0.5293  0.8747  0.1916
   88MOL0     C12033   3.451   1.829   5.899  0.1917  0.8543 -0.0812
   88MOL0     C12034   3.415   1.690   5.848 -0.5205  0.3951  0.2879
   88MOL0     C12035   3.564   1.903   5.881  0.6572  0.1822  0.4476
   88MOL0     C12036   3.681   1.852   5.809 -0.6532  0.1626 -0.2116
   88MOL0     O12037   3.703   1.717   5.807 -0.0388  0.2599 -0.7679
   88MOL0     C12038   3.817   1.663   5.757  0.7584  0.3459  0.6735
   88MOL0     C12039   3.791   1.532   5.716  0.2466 -0.5669 -0.3253
   88MOL0     C12040   3.899   1.457   5.672  0.3635  0.1506  0.1309
   88MOL0     C12041   4.028   1.512   5.664  0.3785  0.1629 -0.2190
   88MOL0     O12042   4.122   1.424   5.613  0.5357 -0.0903 -0.4954
   88MOL0     C12043   4.246   1.488   5.584  1.2058  0.1027 -0.0245
   88MOL0     C12044   4.335   1.402   5.504 -0.7727  0.1620 -0.9965
   88MOL0     C12045   4.464   1.462   5.456  0.6163  0.2871 -0.0573
   88MOL0     C12046   4.566   1.364   5.393 -0.3133  0.1706 -0.0432
   88MOL0     C12047   4.706   1.430   5.356  0.3301  0.6927 -0.7300
   88MOL0     C12048   4.830   1.328   5.330  0.7035  0.6593 -0.2021
   88MOL0     C12049   4.956   1.399   5.281  0.0064 -0.6298  0.5191
   88MOL0     C12050   4.994   1.391   5.135 -0.0252  0.1165 -0.2019
   88MOL0    Cl12051   5.134   1.497   5.088 -0.7639 -0.2224 -0.1687
   88MOL0     C12052   4.049   1.639   5.713 -0.2431 -0.1861  0.5160
   88MOL0     C12053   3.945   1.716   5.761  0.0108 -0.2773  0.0249
   88MOL0     O12054   3.761   1.941   5.777 -0.3285  0.5248 -0.0284
   88MOL0     C12055   3.551   2.047   5.905  0.4839  0.3674  0.1629
   88MOL0     C12056   3.436   2.100   5.964 -0.7178 -0.3073  0.0755
   88MOL0     N12057   2.689   1.964   6.095 -1.0469  0.0553  0.2251
   88MOL0     N12058   2.583   1.957   6.160  0.5390  0.1294 -0.0015
   88MOL0     C12059   1.918   1.621   7.068 -0.3472 -0.8291  0.5337
   88MOL0     C12060   1.783   1.582   7.062 -0.6769  0.2914  0.1117
   88MOL0     C12061   1.330   1.599   6.911 -0.2932  0.1922  0.1796
   88MOL0     C12062   1.284   1.664   7.026  0.1983  0.6174 -0.0351
   88MOL0     C12063   1.143   1.655   7.056  0.0838 -1.0239  0.1981
   88MOL0     C12064   1.057   1.591   6.968 -0.1213 -0.1271  0.3315
   88MOL0     O12065   0.920   1.583   6.982  0.8327  0.3712  0.2543
   88MOL0     C12066   0.845   1.644   7.093 -0.3772  0.0434  0.0368
   88MOL0     C12067   0.699   1.594   7.090 -0.4921 -0.8404 -0.3652
   88MOL0     C12068   0.627   1.617   6.954 -0.6055  0.0099 -0.0816
   88MOL0     C12069   0.560   1.751   6.949  0.2701  0.0261 -0.3161
   88MOL0     C12070   0.639   1.872   6.953 -1.2385  0.5296 -0.7456
   88MOL0     C12071   0.698   1.974   6.963  0.1218  0.4663 -0.0026
   88MOL0     C12072   1.099   1.530   6.856 -0.4772  0.6130 -0.6797
   88MOL0     C12073   1.240   1.533   6.830  1.0193  0.5059 -0.0385
   88MOL0     C12074   1.273   1.461   6.705 -0.5646  0.2927 -0.1336
   88MOL0     H12075   1.638   1.819   6.870 -1.1879  1.2346  4.4251
   88MOL0     H12076   1.886   1.907   6.870  0.8969  0.9101  2.2944
   88MOL0     H12077   2.193   1.642   7.075 -2.6616 -1.0603  1.5201
   88MOL0     H12078   2.144   1.769   7.180  0.7600  1.7226 -0.7402
   88MOL0     H12079   2.285   1.937   7.112 -2.1786  0.6554 -1.4596
   88MOL0     H12080   2.379   1.781   7.109 -0.1009 -2.0286 -1.8344
   88MOL0     H12081   2.278   1.931   6.870  0.1924 -0.1235  0.6745
   88MOL0     H12082   2.440   1.927   6.935 -0.1475  0.0417  0.2553
   88MOL0     H12083   2.404   1.662   6.896 -0.7868 -1.4063 -0.2309
   88MOL0     H12084   2.275   1.722   6.785 -1.7453 -0.2683  3.6138
   88MOL0     H12085   2.505   1.656   6.657  0.8610 -0.0157  0.2322
   88MOL0     H12086   2.583   1.760   6.774 -0.1010  0.3918  1.1381
   88MOL0     H12087   2.363   1.846   6.588  0.0104 -1.2311  0.1047
   88MOL0     H12088   2.472   1.954   6.666 -2.5672  0.2541 -2.3047
   88MOL0     H12089   2.568   1.775   6.444 -0.8283  0.5488  0.5589
   88MOL0     H12090   2.659   1.877   6.553  0.3043 -1.0949 -0.8274
   88MOL0     H12091   2.428   1.969   6.371 -0.7593  0.7003  1.1771
   88MOL0     H12092   2.546   2.080   6.446 -1.1022  0.0432  1.8502
   88MOL0     H12093   2.813   2.017   6.395  0.1190  3.0418  0.5189
   88MOL0     H12094   2.924   2.009   6.006 -1.4856  2.4531 -1.2288
   88MOL0     H12095   3.002   1.990   6.168 -0.1186  0.3641  0.8175
   88MOL0     H12096   2.904   2.232   6.007 -1.0926 -2.3586  0.4414
   88MOL0     H12097   2.862   2.248   6.172  0.1600  2.8675  0.2974
   88MOL0     H12098   3.073   2.355   6.147  1.0885  0.1241  0.8977
   88MOL0     H12099   3.108   2.206   6.241  1.8281  0.0653 -0.7904
   88MOL0     H12100   3.184   2.271   5.949 -1.6448 -1.0806 -0.0554
   88MOL0     H12101   3.283   2.251   6.097 -0.5723  0.0720  1.8060
   88MOL0     H12102   3.225   1.850   5.943  0.2401 -1.1228 -0.8423
   88MOL0     H12103   3.381   1.687   5.745 -2.5361 -3.3092  0.9005
   88MOL0     H12104   3.320   1.659   5.891 -0.5943 -0.2761 -0.3510
   88MOL0     H12105   3.489   1.612   5.869 -1.8434 -1.0531 -0.3086
   88MOL0     H12106   3.692   1.490   5.727 -0.3799  1.5035  4.2087
   88MOL0     H12107   3.879   1.360   5.628 -1.0287  1.3408 -2.0188
   88MOL0     H12108   4.241   1.587   5.538  3.2612  1.2754  2.0917
   88MOL0     H12109   4.301   1.499   5.677  1.1191 -2.4278  0.4112
   88MOL0     H12110   4.353   1.312   5.563 -2.0326  3.2997  4.9245
   88MOL0     H12111   4.279   1.372   5.414 -1.1549 -1.3388 -0.2947
   88MOL0     H12112   4.511   1.507   5.545  0.0650  0.1306  0.3171
   88MOL0     H12113   4.439   1.542   5.385 -2.1622 -0.4262  0.0126
   88MOL0     H12114   4.518   1.331   5.301  1.3461 -1.4853 -0.3639
   88MOL0     H12115   4.578   1.270   5.447 -0.1503 -0.2299 -0.7648
   88MOL0     H12116   4.693   1.500   5.274 -3.7643  2.7568  1.3807
   88MOL0     H12117   4.728   1.498   5.439  0.3778  0.9858 -0.9848
   88MOL0     H12118   4.800   1.267   5.245  0.7623 -0.2109  0.3858
   88MOL0     H12119   4.845   1.257   5.412  0.3490 -0.1201 -0.8024
   88MOL0     H12120   5.034   1.367   5.351 -0.6096 -4.4461 -0.2968
   88MOL0     H12121   4.942   1.504   5.309  2.1041 -0.9659  3.3320
   88MOL0     H12122   4.908   1.414   5.072  0.7296  1.1796 -0.8899
   88MOL0     H12123   5.020   1.286   5.120  3.6885  0.8573 -0.0397
   88MOL0     H12124   4.138   1.698   5.697 -0.7427  0.0254 -1.8677
   88MOL0     H12125   3.960   1.812   5.809 -1.1005 -0.5036  0.8743
   88MOL0     H12126   3.630   2.117   5.880  0.7059 -0.3111 -1.1395
   88MOL0     H12127   3.427   2.208   5.975 -0.9606 -0.0974 -1.8198
   88MOL0     H12128   2.002   1.565   7.108 -0.7552 -2.0711 -0.2654
   88MOL0     H12129   1.754   1.495   7.120  0.4345  0.1383  0.4642
   88MOL0     H12130   1.351   1.724   7.086 -0.2690  0.4038  0.7112
   88MOL0     H12131   1.108   1.707   7.145  3.9172  0.5804  0.9622
   88MOL0     H12132   0.891   1.619   7.189  2.2398 -0.6241 -1.3063
   88MOL0     H12133   0.849   1.753   7.081  1.0502 -0.1744 -2.0510
   88MOL0     H12134   0.631   1.627   7.170 -1.4108 -3.3113 -0.0437
   88MOL0     H12135   0.708   1.487   7.107 -0.1869 -0.6352  0.9027
   88MOL0     H12136   0.694   1.607   6.868 -0.6874  0.1182 -0.1583
   88MOL0     H12137   0.550   1.540   6.954 -0.3113 -0.3213  1.6073
   88MOL0     H12138   0.485   1.749   7.028  0.0161 -0.0904 -0.5581
   88MOL0     H12139   0.508   1.758   6.853  1.2516  1.3085 -0.7846
   88MOL0     H12140   0.737   2.068   6.996 -0.4894  1.0153 -0.8189
   88MOL0     H12141   1.027   1.481   6.792 -2.2666  3.1715 -0.8081
   88MOL0     H12142   1.182   1.423   6.658 -1.5562  2.2049  0.1577
   88MOL0     H12143   1.330   1.530   6.643  0.0225  0.9656  1.1123
   88MOL0     H12144   1.338   1.378   6.736  0.6484  2.1749  2.7469
   89MOL0     O12145   6.676  10.325   0.364 -0.1552  0.7764 -0.4192
   89MOL0     C12146   6.794  10.350   0.349  0.0298  0.3083 -0.5740
   89MOL0     O12147   6.844  10.397   0.230 -0.2011 -0.3004 -0.7223
   89MOL0     C12148   6.777  10.387   0.110 -0.4013  0.2625  0.0375
   89MOL0     C12149   6.720  10.269   0.068 -0.5103  0.7740  0.5444
   89MOL0     C12150   6.674  10.247  -0.066 -0.1622  1.1488  0.5554
   89MOL0     C12151   6.683  10.356  -0.158 -1.2511  0.2012  0.4956
   89MOL0     O12152   6.632  10.346  -0.283  0.5827 -0.2177  0.4726
   89MOL0     C12153   6.691  10.429  -0.378 -0.5276 -0.3148 -0.4230
   89MOL0     C12154   6.654  10.377  -0.512 -0.9926  0.3228  0.8742
   89MOL0     C12155   6.710  10.445  -0.633 -0.8915  0.2607  0.0757
   89MOL0     C12156   6.654  10.376  -0.761  0.1373 -0.1799 -0.5431
   89MOL0     C12157   6.741  10.402  -0.890 -0.0758 -0.6423  0.7261
   89MOL0     C12158   6.755  10.559  -0.915 -0.2128  0.2068 -0.6839
   89MOL0     C12159   6.811  10.593  -1.065  0.0082  0.3191 -0.4641
   89MOL0     C12160   6.954  10.547  -1.089 -0.0494  0.4187 -0.0607
   89MOL0     N12161   7.045  10.664  -1.073 -0.6848  0.5416 -0.5669
   89MOL0     C12162   7.060  10.759  -1.166 -1.3033 -0.4451  0.4016
   89MOL0     C12163   7.144  10.854  -1.119 -0.7685  0.0192 -0.3556
   89MOL0     C12164   7.182  10.970  -1.199  0.0353  0.0501 -0.4387
   89MOL0     C12165   7.258  10.931  -1.325 -0.0979  0.1855  0.1618
   89MOL0     C12166   7.251  11.048  -1.420  0.3088  0.1668 -0.6235
   89MOL0     C12167   7.335  11.022  -1.544  0.5563 -0.3015 -0.3691
   89MOL0     O12168   7.471  11.015  -1.507 -0.8127 -0.7567  0.6352
   89MOL0     C12169   7.568  11.011  -1.613  0.0278 -0.2757  0.6153
   89MOL0     C12170   7.527  10.996  -1.747 -0.3626  0.5295 -0.3268
   89MOL0     C12171   7.619  10.979  -1.848  0.8374 -0.4569 -0.7556
   89MOL0     C12172   7.569  10.928  -1.983 -0.0114 -0.2193 -0.6590
   89MOL0     C12173   7.760  11.000  -1.813 -0.2264 -1.0101  0.1935
   89MOL0     C12174   7.872  11.000  -1.913  0.0224 -0.4861  0.4925
   89MOL0     O12175   7.995  10.986  -1.865 -0.9296 -0.3039  0.1591
   89MOL0     C12176   8.105  11.022  -1.942  0.2254  0.7661 -1.1380
   89MOL0     C12177   8.117  11.143  -2.010  0.3224  0.6041 -0.0808
   89MOL0     C12178   8.232  11.177  -2.082 -0.0065 -0.2307 -0.3059
   89MOL0     C12179   8.333  11.083  -2.088  0.1484  1.0592 -0.2184
   89MOL0     O12180   8.449  11.114  -2.145 -0.8841 -0.1599 -0.2944
   89MOL0     C12181   8.450  11.175  -2.275  0.9919 -0.5116  0.1223
   89MOL0     C12182   8.569  11.133  -2.356  0.2593  1.2279  0.2049
   89MOL0     C12183   8.701  11.189  -2.317 -0.2279  0.0955 -0.2275
   89MOL0     C12184   8.725  11.323  -2.378  0.0901 -0.0531  1.0779
   89MOL0     C12185   8.838  11.380  -2.294 -0.6667 -0.0428 -0.6522
   89MOL0     C12186   8.969  11.306  -2.312  0.0001 -0.4034 -0.2616
   89MOL0     C12187   9.082  11.371  -2.229  0.4190 -0.1369 -0.7186
   89MOL0     C12188   9.211  11.328  -2.272  0.7580  0.3739 -0.2992
   89MOL0    Cl12189   9.243  11.151  -2.232 -0.1886 -0.2283 -0.1461
   89MOL0     C12190   8.325  10.954  -2.030 -0.3721 -0.3874  0.1221
   89MOL0     C12191   8.213  10.927  -1.954  0.3867  0.5947 -0.5161
   89MOL0     O12192   7.844  11.042  -2.027  0.1643  0.4776 -0.3341
   89MOL0     C12193   7.792  11.016  -1.674 -0.3401  0.3729 -0.3795
   89MOL0     C12194   7.697  11.016  -1.581  0.1147  0.1970 -0.7812
   89MOL0     N12195   7.182  10.811  -0.990  0.5710  0.8977 -0.3531
   89MOL0     N12196   7.124  10.695  -0.968 -0.4188 -0.3748 -0.0789
   89MOL0     C12197   6.745  10.481  -0.107 -0.7284  0.3204 -0.2770
   89MOL0     C12198   6.797  10.489   0.023 -0.2782 -0.1455  0.3334
   89MOL0     C12199   6.876  10.352   0.471 -0.6519  0.1194 -0.0884
   89MOL0     C12200   7.010  10.393   0.448  0.3256  0.0196  0.6075
   89MOL0     C12201   7.114  10.396   0.550  0.0251 -0.3237  0.6709
   89MOL0     C12202   7.087  10.355   0.679  0.3576  0.6297 -0.5361
   89MOL0     O12203   7.179  10.383   0.774 -0.8026 -0.2720 -0.3304
   89MOL0     C12204   7.143  10.361   0.909  0.6799 -0.2314  0.3622
   89MOL0     C12205   7.278  10.371   0.986 -0.7291 -0.9222 -0.3925
   89MOL0     C12206   7.398  10.303   0.914  0.1778 -0.4945 -0.1567
   89MOL0     C12207   7.529  10.297   0.997 -0.7147  0.2331  0.5998
   89MOL0     C12208   7.613  10.182   0.954 -0.2779 -0.4709 -0.2513
   89MOL0     C12209   7.672  10.083   0.912 -0.5703 -0.0389  0.0434
   89MOL0     C12210   6.958  10.307   0.690  0.8616  0.2991  0.0888
   89MOL0     C12211   6.852  10.305   0.596 -0.7750 -0.2818  1.2656
   89MOL0     C12212   6.721  10.263   0.654  0.1012  0.1642 -0.1841
   89MOL0     H12213   6.700  10.192   0.141 -0.5203 -0.1239 -0.3807
   89MOL0     H12214   6.632  10.156  -0.107 -0.4489  1.2326  0.6549
   89MOL0     H12215   6.801  10.426  -0.374 -0.1932  4.6995  0.3741
   89MOL0     H12216   6.666  10.534  -0.360  1.1108 -0.2679  2.1102
   89MOL0     H12217   6.692  10.275  -0.511  0.9507  0.8994 -1.8345
   89MOL0     H12218   6.545  10.376  -0.517 -0.9989  0.1266  1.0431
   89MOL0     H12219   6.676  10.548  -0.647 -0.1320  0.4290 -0.6256
   89MOL0     H12220   6.819  10.435  -0.636 -0.7071  1.8898 -2.8816
   89MOL0     H12221   6.646  10.267  -0.757  1.7255 -0.2666  2.1780
   89MOL0     H12222   6.555  10.419  -0.772 -0.2321 -0.5115  1.1717
   89MOL0     H12223   6.701  10.358  -0.982  0.2170 -0.6789  0.6154
   89MOL0     H12224   6.838  10.352  -0.880 -0.7505 -2.2745 -0.3271
   89MOL0     H12225   6.657  10.609  -0.910 -1.7014 -2.6137  1.5900
   89MOL0     H12226   6.823  10.595  -0.838 -1.3761 -0.3025  0.6230
   89MOL0     H12227   6.821  10.701  -1.084  1.2084  0.7085  2.0248
   89MOL0     H12228   6.737  10.551  -1.134 -3.1829  1.6341  1.8889
   89MOL0     H12229   6.976  10.470  -1.015  1.3243  1.7688  0.9970
   89MOL0     H12230   6.977  10.495  -1.183  3.4279 -0.2009  0.9921
   89MOL0     H12231   6.998  10.768  -1.254 -3.0987  0.3100  1.6733
   89MOL0     H12232   7.244  11.034  -1.137 -0.1375 -1.8326  1.8347
   89MOL0     H12233   7.091  11.018  -1.236  0.6624 -0.1501 -2.3742
   89MOL0     H12234   7.364  10.919  -1.301  0.0811 -2.0897 -1.3844
   89MOL0     H12235   7.234  10.835  -1.373  1.0282  0.6909 -1.5067
   89MOL0     H12236   7.146  11.059  -1.449 -0.5333 -4.2333 -0.0118
   89MOL0     H12237   7.283  11.136  -1.363  1.9585 -1.2778  0.8207
   89MOL0     H12238   7.316  10.933  -1.604  1.3561  0.3435 -1.6169
   89MOL0     H12239   7.308  11.104  -1.612 -1.1584 -1.3315 -0.9953
   89MOL0     H12240   7.423  11.006  -1.776 -0.0336  1.4210 -1.2745
   89MOL0     H12241   7.597  11.006  -2.054  0.7552 -0.1026 -0.2376
   89MOL0     H12242   7.463  10.900  -1.989  0.3702 -1.4584 -2.6681
   89MOL0     H12243   7.620  10.837  -2.016  0.2741 -1.9479  3.8581
   89MOL0     H12244   8.030  11.208  -2.004  0.1557  0.4843 -0.9243
   89MOL0     H12245   8.256  11.273  -2.125 -0.8150 -0.6479 -1.7461
   89MOL0     H12246   8.357  11.166  -2.332  0.4914  0.8415  0.6510
   89MOL0     H12247   8.456  11.284  -2.261  0.2152 -0.6691  2.1007
   89MOL0     H12248   8.559  11.024  -2.359 -0.4658  1.3165 -1.2648
   89MOL0     H12249   8.550  11.164  -2.459 -2.1022 -0.3572  0.0986
   89MOL0     H12250   8.780  11.126  -2.359  0.9548  2.6502 -2.1476
   89MOL0     H12251   8.708  11.206  -2.210 -0.9992  3.0394 -0.5516
   89MOL0     H12252   8.640  11.392  -2.379  0.2876  0.2252 -1.1624
   89MOL0     H12253   8.760  11.312  -2.481  0.7153  2.0231  1.0124
   89MOL0     H12254   8.844  11.486  -2.321 -1.8134  0.1215 -0.3100
   89MOL0     H12255   8.799  11.387  -2.192 -2.6166 -0.3330 -1.3258
   89MOL0     H12256   9.001  11.315  -2.416 -0.2971 -2.6104 -0.5802
   89MOL0     H12257   8.951  11.201  -2.286  1.5898 -0.4045  0.9662
   89MOL0     H12258   9.076  11.337  -2.126 -1.0202  1.0957 -0.3630
   89MOL0     H12259   9.071  11.479  -2.238  0.9246 -0.0144  0.1020
   89MOL0     H12260   9.287  11.380  -2.213  1.8211  0.9913 -2.1213
   89MOL0     H12261   9.228  11.343  -2.379  2.2726 -0.7909 -0.2547
   89MOL0     H12262   8.417  10.896  -2.026  1.9613  3.0211  0.4085
   89MOL0     H12263   8.207  10.838  -1.893 -1.1174  1.6897  1.0461
   89MOL0     H12264   7.896  11.007  -1.644 -0.8463  2.4808  2.3247
   89MOL0     H12265   7.727  11.017  -1.477  0.4387 -2.5218 -0.7747
   89MOL0     H12266   6.759  10.573  -0.162  0.7365  0.3123  0.0610
   89MOL0     H12267   6.843  10.581   0.058  0.3145 -0.3792  0.1901
   89MOL0     H12268   7.041  10.431   0.351 -0.5352 -3.0502 -1.0025
   89MOL0     H12269   7.216  10.431   0.539 -0.6334  1.3187 -0.6742
   89MOL0     H12270   7.076  10.445   0.930 -2.0763 -2.0798 -0.4623
   89MOL0     H12271   7.102  10.261   0.930  2.2681 -1.3741 -1.6288
   89MOL0     H12272   7.252  10.335   1.086  0.8388 -0.4566  0.2211
   89MOL0     H12273   7.314  10.472   1.008 -1.4849 -0.4468 -1.2620
   89MOL0     H12274   7.374  10.207   0.867  0.0985  0.9848 -3.3906
   89MOL0     H12275   7.422  10.364   0.827 -0.6155  0.1728  0.0794
   89MOL0     H12276   7.496  10.272   1.098 -0.5639 -3.9976 -0.1844
   89MOL0     H12277   7.594  10.385   0.998 -0.4328  0.0229  1.0904
   89MOL0     H12278   7.716  10.001   0.859  0.5492 -0.6800  1.8813
   89MOL0     H12279   6.935  10.281   0.793  1.9918  0.2384  0.3387
   89MOL0     H12280   6.648  10.222   0.584  1.4388 -1.1935 -0.8377
   89MOL0     H12281   6.743  10.179   0.721 -0.1197  0.4488  0.2522
   89MOL0     H12282   6.665  10.343   0.705 -0.0648  0.6760 -1.1539
   90MOL0     O12283   9.871  11.381   4.888  0.2144  0.0707  0.1944
   90MOL0     C12284   9.785  11.294   4.859 -1.5221 -0.3447  0.2558
   90MOL0     O12285   9.673  11.316   4.784 -0.1670  1.0035  0.5413
   90MOL0     C12286   9.612  11.437   4.791  0.3862  0.8065  0.2300
   90MOL0     C12287   9.534  11.473   4.682  0.5327  0.2379  0.8797
   90MOL0     C12288   9.459  11.594   4.679 -0.3894 -0.2204 -0.0358
   90MOL0     C12289   9.469  11.679   4.795  0.1316 -0.8452 -0.1287
   90MOL0     O12290   9.400  11.796   4.813  0.1762 -0.5003  0.2893
   90MOL0     C12291   9.376  11.883   4.701  0.4386  0.3131  0.3003
   90MOL0     C12292   9.506  11.972   4.705 -0.0689  0.0570 -0.3828
   90MOL0     C12293   9.489  12.093   4.615 -0.5708  0.0800 -1.1083
   90MOL0     C12294   9.411  12.211   4.681  0.1902  1.1268 -0.2124
   90MOL0     C12295   9.466  12.280   4.812 -0.4316 -0.1691 -0.2580
   90MOL0     C12296   9.597  12.350   4.791 -0.8104  0.2792 -0.7854
   90MOL0     C12297   9.662  12.417   4.913  0.2817  0.7684  0.1102
   90MOL0     C12298   9.756  12.336   5.006 -0.4408 -0.2180  0.5048
   90MOL0     N12299   9.892  12.334   4.960 -0.0216 -0.4045  0.0509
   90MOL0     C12300   9.974  12.218   4.923  0.1816 -0.8283 -0.9078
   90MOL0     C12301  10.086  12.269   4.873 -0.8974 -0.6795  0.6546
   90MOL0     C12302  10.212  12.197   4.833 -0.2276 -0.3473 -0.4960
   90MOL0     C12303  10.192  12.127   4.699  0.0757 -0.2358 -0.4921
   90MOL0     C12304  10.333  12.095   4.649  1.4597 -0.5590 -0.0210
   90MOL0     C12305  10.326  12.043   4.510  0.3405  1.1593  0.4023
   90MOL0     O12306  10.297  12.152   4.422  0.0005 -0.0547 -0.1800
   90MOL0     C12307  10.273  12.129   4.294 -0.0527 -0.0896 -0.9752
   90MOL0     C12308  10.227  12.232   4.217  0.8007 -0.1030  0.5440
   90MOL0     C12309  10.194  12.218   4.076  0.3048 -0.4943 -0.4508
   90MOL0     C12310  10.143  12.348   4.012  0.5944 -0.0308  0.3263
   90MOL0     C12311  10.194  12.086   4.015 -0.8856 -0.1214  0.7642
   90MOL0     C12312  10.174  12.062   3.869  0.1163  0.2034  0.3474
   90MOL0     O12313  10.095  11.970   3.824  0.0122 -0.2366 -0.1327
   90MOL0     C12314   9.977  11.931   3.894 -0.4862 -0.1612  0.5387
   90MOL0     C12315   9.893  12.023   3.943  0.5172 -1.0753 -0.2137
   90MOL0     C12316   9.774  11.988   4.007  0.5842  0.8951 -0.6583
   90MOL0     C12317   9.749  11.848   4.030  0.1504 -0.6537  0.7407
   90MOL0     O12318   9.637  11.793   4.094  0.2033 -0.8235  0.3752
   90MOL0     C12319   9.533  11.879   4.136  0.0531 -0.1946 -0.0903
   90MOL0     C12320   9.422  11.793   4.202 -0.1005  0.1209  0.2944
   90MOL0     C12321   9.296  11.876   4.231 -0.0621 -0.7151 -1.1310
   90MOL0     C12322   9.171  11.800   4.187 -0.3734 -0.5198  0.5350
   90MOL0     C12323   9.039  11.863   4.212  0.0536 -0.1936 -0.2248
   90MOL0     C12324   9.026  12.007   4.173 -0.2622 -0.6598  1.0111
   90MOL0     C12325   8.887  12.057   4.183  0.3921 -0.9107  0.8240
   90MOL0     C12326   8.826  12.065   4.321 -0.1885 -0.2323  0.3047
   90MOL0    Cl12327   8.681  12.188   4.332  0.1157 -0.7430  0.2686
   90MOL0     C12328   9.832  11.754   3.978 -0.0412 -0.3788 -0.4005
   90MOL0     C12329   9.944  11.797   3.906 -0.0602 -0.9050  0.3998
   90MOL0     O12330  10.251  12.131   3.799 -0.5081 -0.2246 -0.0635
   90MOL0     C12331  10.235  11.978   4.103 -0.4418 -0.7757  0.5783
   90MOL0     C12332  10.279  12.004   4.238  0.0033 -0.0242  0.9846
   90MOL0     N12333  10.068  12.405   4.855 -0.1382 -1.0046  0.6459
   90MOL0     N12334   9.961  12.449   4.915 -0.7286 -0.3505  0.1364
   90MOL0     C12335   9.556  11.639   4.903 -0.1245  0.0348  0.0697
   90MOL0     C12336   9.627  11.523   4.903 -0.3858 -0.5175  0.4965
   90MOL0     C12337   9.818  11.160   4.894  0.6117  0.0015 -1.1185
   90MOL0     C12338   9.719  11.060   4.879  0.5643  0.7306 -0.3338
   90MOL0     C12339   9.731  10.933   4.920 -0.3062  0.2290  0.4651
   90MOL0     C12340   9.848  10.891   4.973 -1.0146 -0.6364  0.0183
   90MOL0     O12341   9.873  10.760   5.004 -0.1038  0.7021  0.4690
   90MOL0     C12342   9.786  10.648   4.962  0.0946 -1.0477 -0.0618
   90MOL0     C12343   9.823  10.605   4.819 -0.0137 -0.3647  0.1929
   90MOL0     C12344   9.976  10.583   4.806  1.3689  0.9290  0.2885
   90MOL0     C12345  10.007  10.537   4.664 -0.3455  0.0072  0.5256
   90MOL0     C12346  10.105  10.424   4.661 -0.1722  0.1286 -0.2468
   90MOL0     C12347  10.180  10.330   4.654 -0.0783  0.5032  0.6624
   90MOL0     C12348   9.959  10.978   4.990  0.7251  0.4525  0.0576
   90MOL0     C12349   9.937  11.108   4.950  0.1436 -0.6999 -0.4938
   90MOL0     C12350  10.056  11.201   4.962 -0.6301 -0.7232  0.0910
   90MOL0     H12351   9.520  11.400   4.603 -0.0185 -1.1600  2.2245
   90MOL0     H12352   9.401  11.617   4.590  1.1105 -1.1855 -1.3101
   90MOL0     H12353   9.285  11.937   4.731  1.6679  1.2824  2.5552
   90MOL0     H12354   9.374  11.824   4.609  2.2830 -1.7741  1.4930
   90MOL0     H12355   9.530  12.015   4.803 -2.9608  1.5589 -0.2071
   90MOL0     H12356   9.593  11.914   4.673  0.9299  2.1475 -1.7627
   90MOL0     H12357   9.591  12.128   4.601 -0.6804  1.0151  0.2055
   90MOL0     H12358   9.440  12.059   4.523  0.1188 -1.7185 -0.8561
   90MOL0     H12359   9.400  12.280   4.597 -0.4176  2.8094  1.1968
   90MOL0     H12360   9.314  12.168   4.705 -0.4484  0.3984 -3.5786
   90MOL0     H12361   9.472  12.209   4.895 -2.9924 -0.2350 -0.0380
   90MOL0     H12362   9.391  12.356   4.835  3.3895  3.2987  2.0524
   90MOL0     H12363   9.667  12.274   4.756 -1.6474 -1.6283  1.4661
   90MOL0     H12364   9.596  12.430   4.715  2.2285  1.9328  0.7214
   90MOL0     H12365   9.581  12.458   4.975  0.1331 -1.7642  1.7834
   90MOL0     H12366   9.719  12.503   4.879 -0.3755  1.6046  1.0477
   90MOL0     H12367   9.752  12.396   5.097 -1.6305 -0.8571  0.8996
   90MOL0     H12368   9.719  12.239   5.042 -2.3130 -0.6091 -2.1921
   90MOL0     H12369   9.960  12.114   4.949  4.0023 -1.4650 -0.8805
   90MOL0     H12370  10.255  12.135   4.913  1.8564  2.1894  0.4932
   90MOL0     H12371  10.284  12.278   4.820 -1.7062  1.7939  3.3376
   90MOL0     H12372  10.135  12.035   4.711 -2.3463  1.0238 -1.7046
   90MOL0     H12373  10.139  12.188   4.626 -0.2611 -3.1334 -2.8503
   90MOL0     H12374  10.400  12.181   4.648  1.3325 -0.4457  0.7239
   90MOL0     H12375  10.382  12.025   4.717 -0.5204 -1.4613  0.5706
   90MOL0     H12376  10.420  12.001   4.474 -0.8060  1.5609 -3.4503
   90MOL0     H12377  10.255  11.960   4.505  0.6083  0.8999  0.7784
   90MOL0     H12378  10.229  12.333   4.256  1.3605  0.5631 -1.1099
   90MOL0     H12379  10.044  12.375   4.049  1.1122 -1.2489  2.7610
   90MOL0     H12380  10.144  12.343   3.902  2.4801 -0.2700  0.3245
   90MOL0     H12381  10.208  12.428   4.048 -1.0255  1.3174  0.3691
   90MOL0     H12382   9.918  12.129   3.934 -0.3804  0.2523  7.0340
   90MOL0     H12383   9.696  12.054   4.042  1.9178  0.8977  2.6889
   90MOL0     H12384   9.562  11.949   4.215 -1.3929 -2.3457  2.5428
   90MOL0     H12385   9.490  11.935   4.053  1.3737  2.1587  0.7377
   90MOL0     H12386   9.406  11.701   4.146 -1.2448  1.7757 -2.2803
   90MOL0     H12387   9.475  11.776   4.297  3.0947  1.1774 -1.1513
   90MOL0     H12388   9.308  11.967   4.172  1.2098  0.0309  0.2235
   90MOL0     H12389   9.291  11.905   4.336 -0.6496 -0.6497 -1.1744
   90MOL0     H12390   9.170  11.701   4.234  1.8628 -0.5683  0.6018
   90MOL0     H12391   9.189  11.794   4.079  2.1917  1.8002  0.7289
   90MOL0     H12392   8.962  11.799   4.168  0.4814 -1.4503  0.7738
   90MOL0     H12393   9.017  11.850   4.319  1.5735 -1.5691 -0.0429
   90MOL0     H12394   9.055  12.021   4.068 -2.2480  0.3037  0.5550
   90MOL0     H12395   9.093  12.057   4.244  0.2847  1.9103 -1.1321
   90MOL0     H12396   8.815  12.002   4.123 -0.8307  1.9017 -0.4734
   90MOL0     H12397   8.883  12.159   4.142 -0.7728 -0.5537  1.7712
   90MOL0     H12398   8.902  12.099   4.392  0.0888  1.7362 -0.8722
   90MOL0     H12399   8.793  11.962   4.334  1.9957 -1.2141 -1.3119
   90MOL0     H12400   9.797  11.654   4.001 -1.1692  0.4869  2.0556
   90MOL0     H12401  10.006  11.723   3.857  3.9925  1.3023  1.7316
   90MOL0     H12402  10.246  11.879   4.060  0.8208 -0.2522 -0.3579
   90MOL0     H12403  10.312  11.912   4.285 -2.8774 -0.8086  1.6565
   90MOL0     H12404   9.572  11.713   4.981 -1.6590 -0.9274  1.3642
   90MOL0     H12405   9.686  11.500   4.991 -1.3070  0.9919  1.5536
   90MOL0     H12406   9.622  11.077   4.835  0.5103 -0.6449 -0.7939
   90MOL0     H12407   9.648  10.867   4.899  0.0039 -0.0388  0.0508
   90MOL0     H12408   9.794  10.567   5.035 -1.6087  0.9209  2.5051
   90MOL0     H12409   9.681  10.678   4.970  0.8651  1.3761  2.8025
   90MOL0     H12410   9.792  10.688   4.755 -0.4990  0.7618  1.8455
   90MOL0     H12411   9.770  10.511   4.797 -0.2130 -0.9419  2.8791
   90MOL0     H12412  10.032  10.666   4.850  0.3877  1.0228  1.4390
   90MOL0     H12413   9.993  10.499   4.874  1.3039 -0.7713 -1.7025
   90MOL0     H12414  10.036  10.622   4.602 -1.8517 -0.9500 -1.5917
   90MOL0     H12415   9.919  10.495   4.614 -0.7562  1.0654  0.3413
   90MOL0     H12416  10.248  10.248   4.659  0.2251  0.8024  1.8160
   90MOL0     H12417  10.054  10.942   5.028  1.9079  0.0157 -3.0293
   90MOL0     H12418  10.149  11.149   4.988 -0.3523 -1.2011 -1.7370
   90MOL0     H12419  10.077  11.254   4.869  1.1742  1.1473  1.4528
   90MOL0     H12420  10.052  11.272   5.046  2.4912 -0.7170  0.3732
   91MOL0     O12421   5.545   6.808   5.352  0.0314 -0.5424 -0.5572
   91MOL0     C12422   5.505   6.830   5.468 -0.3848  0.1744 -0.0652
   91MOL0     O12423   5.586   6.893   5.567  0.3001  0.2952 -0.0542
   91MOL0     C12424   5.684   6.985   5.525  0.2933  0.8630 -0.1016
   91MOL0     C12425   5.698   7.118   5.567 -0.1236  0.7635  0.2203
   91MOL0     C12426   5.805   7.207   5.525  0.2819  0.4000 -0.2342
   91MOL0     C12427   5.907   7.154   5.446  0.8045 -0.0524  0.4833
   91MOL0     O12428   6.018   7.221   5.406  0.6161  1.0920  0.2669
   91MOL0     C12429   6.034   7.354   5.433  0.3945  0.1981 -1.3401
   91MOL0     C12430   6.136   7.408   5.334  0.3117 -0.5236 -0.3391
   91MOL0     C12431   6.181   7.549   5.378 -0.4515  0.4680  0.5835
   91MOL0     C12432   6.287   7.609   5.287 -0.4136 -0.1600  0.0580
   91MOL0     C12433   6.329   7.747   5.329  0.3895  0.0446 -0.2573
   91MOL0     C12434   6.419   7.805   5.211  0.7070 -0.5690  0.3266
   91MOL0     C12435   6.458   7.953   5.234  0.2435  0.3454 -0.4250
   91MOL0     C12436   6.526   8.012   5.112  0.2544  0.7674  0.1667
   91MOL0     N12437   6.520   8.159   5.128 -0.2334  0.0741  0.8328
   91MOL0     C12438   6.601   8.230   5.203 -0.0446 -0.1739  1.0233
   91MOL0     C12439   6.566   8.362   5.179  0.1103  0.7304  0.6389
   91MOL0     C12440   6.624   8.484   5.233  0.6583 -0.6938 -0.4046
   91MOL0     C12441   6.763   8.500   5.166  0.0102  0.2292  0.5727
   91MOL0     C12442   6.882   8.431   5.236  0.1193  0.4186  0.1705
   91MOL0     C12443   7.011   8.419   5.149  0.9188 -0.2605  0.3999
   91MOL0     O12444   7.102   8.339   5.226 -0.4446  0.0962 -0.0654
   91MOL0     C12445   7.228   8.324   5.176  0.0723  0.0349 -0.3140
   91MOL0     C12446   7.313   8.242   5.262  0.1519 -0.8447 -0.2950
   91MOL0     C12447   7.441   8.211   5.224 -0.3924  0.6586  0.3392
   91MOL0     C12448   7.519   8.125   5.312 -0.4531  0.1302  0.2035
   91MOL0     C12449   7.494   8.256   5.095  1.0432  0.8740 -0.1782
   91MOL0     C12450   7.628   8.231   5.042  0.1290  0.9790  0.4486
   91MOL0     O12451   7.659   8.273   4.916  0.5774  0.2346 -0.1142
   91MOL0     C12452   7.786   8.259   4.859  0.7617  0.0655 -0.3389
   91MOL0     C12453   7.876   8.153   4.882  0.1836 -0.5245 -0.0289
   91MOL0     C12454   8.003   8.163   4.829 -0.5718  0.3501 -0.0497
   91MOL0     C12455   8.036   8.264   4.741  0.2753  0.0214  0.2725
   91MOL0     O12456   8.160   8.263   4.686 -0.3814  0.1074 -0.4877
   91MOL0     C12457   8.223   8.388   4.663  0.0884  0.1329  0.1022
   91MOL0     C12458   8.362   8.365   4.610  0.4108  0.8697 -0.1088
   91MOL0     C12459   8.465   8.353   4.723 -0.0965 -0.0236  0.3743
   91MOL0     C12460   8.604   8.347   4.666  0.2245 -0.0595  0.9938
   91MOL0     C12461   8.715   8.292   4.763  0.7691 -0.1555  0.5240
   91MOL0     C12462   8.845   8.304   4.695 -0.7758 -0.5342  0.6906
   91MOL0     C12463   8.942   8.218   4.771 -0.4098  1.0209  0.1092
   91MOL0     C12464   8.987   8.283   4.910  0.1797 -0.0348 -0.0112
   91MOL0    Cl12465   9.118   8.197   4.964 -0.0002  0.4511  0.0892
   91MOL0     C12466   7.950   8.374   4.722 -0.2195 -0.1136 -0.1677
   91MOL0     C12467   7.826   8.363   4.778  0.4551 -0.1207  0.5600
   91MOL0     O12468   7.706   8.172   5.114 -0.2707 -0.3802  0.6113
   91MOL0     C12469   7.402   8.326   5.010  0.0930  0.7464  1.4889
   91MOL0     C12470   7.278   8.365   5.050  0.2116 -0.1176  0.5039
   91MOL0     N12471   6.467   8.357   5.079  0.8967  0.2771 -0.5562
   91MOL0     N12472   6.439   8.239   5.050  0.0344  0.8826  0.1919
   91MOL0     C12473   5.901   7.019   5.413 -1.0688 -0.0452 -0.3707
   91MOL0     C12474   5.788   6.936   5.452  0.3447  0.3959  1.3489
   91MOL0     C12475   5.360   6.798   5.497 -0.3084  0.2951  0.9620
   91MOL0     C12476   5.295   6.690   5.426  0.8833  0.1334 -0.5166
   91MOL0     C12477   5.155   6.653   5.446 -0.1433  0.2173  0.3819
   91MOL0     C12478   5.084   6.713   5.546  0.2269 -1.1636 -0.1934
   91MOL0     O12479   4.955   6.670   5.574  0.4140  0.0202 -0.2654
   91MOL0     C12480   4.874   6.744   5.664 -0.0881 -0.4178 -0.2542
   91MOL0     C12481   4.729   6.678   5.677 -0.4973 -0.5037 -0.0327
   91MOL0     C12482   4.660   6.700   5.540  0.6162  1.1354 -0.2738
   91MOL0     C12483   4.522   6.623   5.544  0.0130  0.4741 -0.1058
   91MOL0     C12484   4.438   6.676   5.433  0.4952 -0.8617 -0.1207
   91MOL0     C12485   4.348   6.731   5.366 -0.7488  0.3728  0.6541
   91MOL0     C12486   5.152   6.814   5.620 -0.4573 -0.0084  0.4629
   91MOL0     C12487   5.280   6.857   5.596  0.0579  0.7759  0.8038
   91MOL0     C12488   5.336   6.965   5.685  0.1811 -0.3729  0.1464
   91MOL0     H12489   5.618   7.152   5.632 -1.5827 -1.6200 -0.1795
   91MOL0     H12490   5.809   7.309   5.561  0.1982  1.8910 -3.9786
   91MOL0     H12491   6.072   7.368   5.535  0.7456  1.4608 -1.6210
   91MOL0     H12492   5.937   7.404   5.423 -0.8918 -1.7712  0.5284
   91MOL0     H12493   6.230   7.352   5.331 -0.0647 -1.2253  0.7215
   91MOL0     H12494   6.087   7.421   5.237 -0.9743  0.4021  0.4005
   91MOL0     H12495   6.092   7.611   5.392 -0.8949  0.3435 -1.3477
   91MOL0     H12496   6.234   7.536   5.472  0.9162 -2.0573 -0.4505
   91MOL0     H12497   6.377   7.548   5.281 -0.3565 -0.5807  3.4601
   91MOL0     H12498   6.237   7.612   5.189 -0.0164  1.1713 -0.1218
   91MOL0     H12499   6.383   7.741   5.424  3.8051 -3.2623 -2.1400
   91MOL0     H12500   6.233   7.798   5.343 -0.3420 -1.4044  0.1445
   91MOL0     H12501   6.509   7.744   5.199 -0.3857 -2.1471 -0.2110
   91MOL0     H12502   6.364   7.797   5.116 -1.7689  3.4908  1.1560
   91MOL0     H12503   6.520   7.959   5.325  1.6402 -1.2889 -1.2208
   91MOL0     H12504   6.367   8.011   5.253  1.1391  1.6360  0.1276
   91MOL0     H12505   6.627   7.969   5.106 -0.1338 -0.1757  0.1632
   91MOL0     H12506   6.468   7.979   5.026  1.9061 -3.4038  0.4269
   91MOL0     H12507   6.675   8.205   5.279 -0.4922 -1.5805  1.0066
   91MOL0     H12508   6.632   8.475   5.342  2.2801  0.4476 -0.4003
   91MOL0     H12509   6.559   8.567   5.202  1.7475  0.8344  1.2112
   91MOL0     H12510   6.754   8.478   5.060  2.9322  0.7164  0.1305
   91MOL0     H12511   6.777   8.608   5.161  1.8907 -0.0398 -2.4699
   91MOL0     H12512   6.911   8.488   5.325  3.1192 -0.8193  0.1038
   91MOL0     H12513   6.846   8.337   5.278 -0.0246  0.5035  0.2383
   91MOL0     H12514   6.990   8.375   5.051  0.9375 -1.3495  0.8678
   91MOL0     H12515   7.040   8.524   5.138  1.1830 -0.4639 -1.0917
   91MOL0     H12516   7.264   8.194   5.347  1.5640 -0.8802  0.5209
   91MOL0     H12517   7.570   8.040   5.265 -0.6562 -2.8052  4.6959
   91MOL0     H12518   7.456   8.085   5.392  1.0367 -0.1123  1.3004
   91MOL0     H12519   7.595   8.182   5.366  1.1544 -2.2095  0.5677
   91MOL0     H12520   7.849   8.064   4.938  0.4101 -0.0777  0.8164
   91MOL0     H12521   8.068   8.083   4.864 -2.7072 -0.8387  1.4482
   91MOL0     H12522   8.174   8.441   4.581  0.3078 -0.7935 -0.6462
   91MOL0     H12523   8.224   8.465   4.741  0.6425  2.8960 -2.4662
   91MOL0     H12524   8.357   8.274   4.550 -1.8989  1.0679 -0.3382
   91MOL0     H12525   8.385   8.449   4.544 -4.8911  0.1821 -3.4126
   91MOL0     H12526   8.457   8.257   4.776 -0.8601 -0.1007  0.1331
   91MOL0     H12527   8.465   8.441   4.787 -0.3424  0.5014 -0.3390
   91MOL0     H12528   8.648   8.445   4.646  1.6986 -0.3704  2.4375
   91MOL0     H12529   8.612   8.289   4.573  1.8991  2.0037 -0.2465
   91MOL0     H12530   8.722   8.353   4.853  3.3307  1.8738 -0.8990
   91MOL0     H12531   8.691   8.193   4.803 -3.0369  0.1593 -0.5523
   91MOL0     H12532   8.874   8.410   4.693 -2.2521 -0.1217  0.2861
   91MOL0     H12533   8.827   8.261   4.596 -0.1934 -0.8896  0.7361
   91MOL0     H12534   9.027   8.205   4.704 -0.5960 -0.1673  0.0901
   91MOL0     H12535   8.894   8.121   4.786 -1.9100  2.0087  2.2940
   91MOL0     H12536   8.902   8.299   4.977 -0.1513  1.3074 -0.7198
   91MOL0     H12537   9.023   8.382   4.882  0.7814 -0.0264  0.7565
   91MOL0     H12538   7.972   8.462   4.663  0.0218 -1.0788 -1.5609
   91MOL0     H12539   7.755   8.445   4.773 -0.9868 -1.0437  3.6236
   91MOL0     H12540   7.437   8.355   4.912 -1.2725 -1.3337  0.3145
   91MOL0     H12541   7.235   8.446   4.992  1.4426  0.1228 -0.1056
   91MOL0     H12542   5.970   6.979   5.339 -1.4393  2.3599 -2.1204
   91MOL0     H12543   5.782   6.831   5.425  4.5657  0.4651 -0.7943
   91MOL0     H12544   5.344   6.638   5.344  4.0330 -0.6747  1.6838
   91MOL0     H12545   5.102   6.576   5.391 -2.2521  1.8665 -0.0199
   91MOL0     H12546   4.918   6.745   5.764 -0.4682  0.0211 -0.0836
   91MOL0     H12547   4.858   6.842   5.617 -1.6878 -1.8558 -3.0088
   91MOL0     H12548   4.672   6.725   5.758  0.3108 -0.9993  0.8472
   91MOL0     H12549   4.741   6.569   5.684 -0.1554 -0.5793 -1.4608
   91MOL0     H12550   4.649   6.807   5.522 -1.0800  1.2689  1.2553
   91MOL0     H12551   4.726   6.653   5.466  0.3331  1.7764 -0.9464
   91MOL0     H12552   4.465   6.653   5.633 -2.6578  0.3987 -1.6765
   91MOL0     H12553   4.539   6.515   5.533 -1.2594  0.1008  1.3055
   91MOL0     H12554   4.267   6.781   5.317  0.2104  0.4802 -0.8692
   91MOL0     H12555   5.102   6.858   5.705  1.4251 -0.0597  1.6535
   91MOL0     H12556   5.364   7.048   5.620  0.4622  1.2143  2.2052
   91MOL0     H12557   5.260   7.008   5.752  1.4268 -0.9527  2.0120
   91MOL0     H12558   5.412   6.924   5.752 -0.8222  1.4404  2.5351
   92MOL0     O12559   1.974   9.544   3.507  0.3541  0.3992 -0.2285
   92MOL0     C12560   1.992   9.440   3.567 -0.2137  0.5905  0.3494
   92MOL0     O12561   2.112   9.396   3.601 -0.1734  0.2789  0.1813
   92MOL0     C12562   2.239   9.424   3.570  0.2330 -0.1219 -0.1038
   92MOL0     C12563   2.336   9.335   3.623 -0.1597  0.7509 -0.4829
   92MOL0     C12564   2.466   9.360   3.605  0.5856  0.0893 -0.3387
   92MOL0     C12565   2.508   9.478   3.540  0.0512  0.1487  0.1462
   92MOL0     O12566   2.645   9.494   3.531  0.6150 -0.6137  0.2217
   92MOL0     C12567   2.698   9.592   3.439  0.5881 -0.5194  0.4140
   92MOL0     C12568   2.841   9.589   3.460 -0.8546 -0.4002 -0.1482
   92MOL0     C12569   2.882   9.449   3.395  0.5650 -0.3294  0.1812
   92MOL0     C12570   3.039   9.451   3.393  0.8423  0.4724  0.5864
   92MOL0     C12571   3.089   9.332   3.310 -0.4684  0.7916  0.5448
   92MOL0     C12572   3.244   9.322   3.339 -0.2288  0.4491  0.2051
   92MOL0     C12573   3.312   9.221   3.249 -0.5524  0.1634  0.1394
   92MOL0     C12574   3.467   9.235   3.254  0.0204 -0.2232 -0.2711
   92MOL0     N12575   3.517   9.351   3.180  0.7066 -0.0860  0.1053
   92MOL0     C12576   3.552   9.473   3.224  0.3645 -0.1459  1.1273
   92MOL0     C12577   3.622   9.533   3.122  0.7491 -0.9504 -0.0751
   92MOL0     C12578   3.684   9.672   3.116  0.7846  0.5808  0.2095
   92MOL0     C12579   3.815   9.656   3.186  0.0037 -0.1254 -0.0477
   92MOL0     C12580   3.903   9.776   3.158 -0.6217 -0.6114 -0.2760
   92MOL0     C12581   4.031   9.752   3.238  0.1294 -0.1296  0.0919
   92MOL0     O12582   4.104   9.871   3.270 -0.2035  0.0100  0.2573
   92MOL0     C12583   4.216   9.857   3.356  0.4096  0.2821  0.1340
   92MOL0     C12584   4.272   9.734   3.408 -0.5390 -0.0492  0.1823
   92MOL0     C12585   4.392   9.742   3.493  0.2864  0.9504 -0.3223
   92MOL0     C12586   4.442   9.620   3.565 -0.6211  0.9452 -0.5658
   92MOL0     C12587   4.444   9.867   3.529 -0.0004  0.1304  0.1415
   92MOL0     C12588   4.577   9.876   3.581 -0.4797 -0.4298 -0.4338
   92MOL0     O12589   4.669   9.794   3.526  0.0076  0.2328 -0.4435
   92MOL0     C12590   4.796   9.799   3.572  0.7180 -0.6306  0.1915
   92MOL0     C12591   4.896   9.834   3.482 -0.8291  0.0470 -0.3865
   92MOL0     C12592   5.030   9.827   3.523  0.6632 -0.3882  0.1022
   92MOL0     C12593   5.066   9.780   3.650 -0.6804  1.2204  0.1763
   92MOL0     O12594   5.200   9.760   3.666 -0.4314 -0.2738 -0.5592
   92MOL0     C12595   5.282   9.883   3.665 -0.2585  0.1627 -0.0462
   92MOL0     C12596   5.430   9.844   3.680  0.6295  0.4878  0.5607
   92MOL0     C12597   5.452   9.831   3.833 -0.3577  0.3430  0.4071
   92MOL0     C12598   5.596   9.794   3.856 -0.0411  0.4992  0.7887
   92MOL0     C12599   5.618   9.731   3.995 -0.5856  0.0473 -0.7156
   92MOL0     C12600   5.769   9.700   4.019  0.4514  0.7541 -0.2677
   92MOL0     C12601   5.845   9.830   4.032 -0.2249  0.1200 -0.2337
   92MOL0     C12602   5.976   9.804   4.104  0.0224  0.1826  0.4396
   92MOL0    Cl12603   6.110   9.757   3.987 -0.3231 -0.2836 -0.3859
   92MOL0     C12604   4.956   9.732   3.733 -0.3157  0.3520 -0.0489
   92MOL0     C12605   4.825   9.754   3.701  0.6021 -0.7282  0.3271
   92MOL0     O12606   4.602   9.946   3.680  0.2148  0.3089 -0.0193
   92MOL0     C12607   4.384   9.987   3.473 -0.3227  0.3612 -0.1399
   92MOL0     C12608   4.272   9.976   3.392  0.5042  0.4621  0.4149
   92MOL0     N12609   3.615   9.446   3.008 -0.8446  0.4802  0.0517
   92MOL0     N12610   3.558   9.335   3.052 -0.2605  0.5674 -0.9720
   92MOL0     C12611   2.415   9.564   3.482  0.0445  0.3375  0.7290
   92MOL0     C12612   2.281   9.533   3.495  0.2675 -0.3740  0.8756
   92MOL0     C12613   1.874   9.371   3.619 -0.0791  0.0086 -0.0493
   92MOL0     C12614   1.750   9.419   3.580  0.2455  0.3785 -0.2114
   92MOL0     C12615   1.625   9.388   3.631  0.1397 -0.8364  1.5079
   92MOL0     C12616   1.625   9.295   3.729 -0.3079  0.3925 -0.0826
   92MOL0     O12617   1.507   9.264   3.784  0.2040  0.2770 -0.5577
   92MOL0     C12618   1.481   9.128   3.808 -0.5985 -0.0326 -0.0774
   92MOL0     C12619   1.340   9.105   3.859 -0.5217 -0.1322 -0.8908
   92MOL0     C12620   1.228   9.148   3.763  0.6480 -0.5760  0.3887
   92MOL0     C12621   1.100   9.158   3.844 -0.1674 -0.0600  0.4044
   92MOL0     C12622   0.982   9.154   3.757 -0.2868  0.1834 -1.3617
   92MOL0     C12623   0.891   9.147   3.676  0.4449 -0.5042  0.4284
   92MOL0     C12624   1.746   9.218   3.751 -0.2759 -0.2383 -0.3797
   92MOL0     C12625   1.880   9.258   3.702 -0.5745  0.5429  0.0338
   92MOL0     C12626   2.000   9.177   3.736 -0.5363  0.6121 -0.0026
   92MOL0     H12627   2.313   9.244   3.678 -1.3218  0.3385 -1.6158
   92MOL0     H12628   2.532   9.286   3.647 -2.4856 -1.8639  1.4754
   92MOL0     H12629   2.656   9.692   3.453  0.5742 -0.5379  0.5069
   92MOL0     H12630   2.670   9.569   3.336  1.2021 -0.2056  0.1701
   92MOL0     H12631   2.894   9.666   3.403  0.0022 -0.3334  0.7147
   92MOL0     H12632   2.866   9.594   3.567  1.8318  0.7194 -0.7420
   92MOL0     H12633   2.862   9.372   3.471 -1.0910  0.3271  0.4353
   92MOL0     H12634   2.836   9.427   3.299  1.9352  2.3771 -1.1915
   92MOL0     H12635   3.057   9.549   3.348 -3.7160  1.0278 -0.5442
   92MOL0     H12636   3.082   9.444   3.494  0.7019  0.5735  0.6541
   92MOL0     H12637   3.080   9.337   3.202  2.2464 -1.1593  0.1171
   92MOL0     H12638   3.051   9.233   3.338  0.4172  0.2899  0.0324
   92MOL0     H12639   3.281   9.421   3.311 -0.6914  0.1011 -1.7989
   92MOL0     H12640   3.255   9.291   3.443 -0.5271  1.2887  0.4940
   92MOL0     H12641   3.291   9.237   3.143 -0.3003  0.1205  0.0821
   92MOL0     H12642   3.277   9.122   3.281 -2.0102  0.3501 -0.7741
   92MOL0     H12643   3.506   9.228   3.355 -0.3464 -0.4740 -0.1415
   92MOL0     H12644   3.512   9.146   3.210 -0.6580 -0.7810  0.1372
   92MOL0     H12645   3.532   9.511   3.324 -4.4446 -0.8744  0.6938
   92MOL0     H12646   3.623   9.749   3.165  0.9557  1.0859 -0.3608
   92MOL0     H12647   3.698   9.700   3.011  1.1618  0.3045  0.1843
   92MOL0     H12648   3.805   9.647   3.295  0.4226  1.2213  0.1117
   92MOL0     H12649   3.871   9.575   3.139  0.5121  0.3912 -0.3438
   92MOL0     H12650   3.933   9.790   3.053 -1.4123  1.2956 -0.2829
   92MOL0     H12651   3.860   9.868   3.198  0.1088  0.2861 -1.4915
   92MOL0     H12652   4.007   9.692   3.326  0.0731  0.0514  0.1993
   92MOL0     H12653   4.085   9.690   3.166 -0.9697  0.7121 -1.5382
   92MOL0     H12654   4.218   9.642   3.390 -0.8643  0.2046 -0.1557
   92MOL0     H12655   4.488   9.647   3.661 -1.5802 -1.1115  0.5436
   92MOL0     H12656   4.516   9.564   3.507  1.5527  2.4883  0.5463
   92MOL0     H12657   4.368   9.541   3.580 -0.2827  0.3634 -1.8050
   92MOL0     H12658   4.870   9.860   3.380 -0.7763 -0.8667 -0.6416
   92MOL0     H12659   5.108   9.863   3.457 -1.6493  4.6747 -0.3565
   92MOL0     H12660   5.269   9.923   3.563  1.1159 -0.8412 -0.6597
   92MOL0     H12661   5.253   9.957   3.740 -1.8945 -1.1384  0.6406
   92MOL0     H12662   5.456   9.747   3.636 -1.6118  0.2221 -0.3149
   92MOL0     H12663   5.504   9.914   3.639  1.1695  0.0347  0.7417
   92MOL0     H12664   5.390   9.754   3.880  2.0322 -1.3742  0.9317
   92MOL0     H12665   5.435   9.926   3.885  0.7847  0.7535  0.0720
   92MOL0     H12666   5.652   9.887   3.843 -1.4644  1.3941  0.8081
   92MOL0     H12667   5.632   9.720   3.784  2.3996  2.8426 -0.5456
   92MOL0     H12668   5.583   9.805   4.067 -1.2647 -1.0146  0.0730
   92MOL0     H12669   5.558   9.641   4.013 -0.3834  0.0269 -0.1138
   92MOL0     H12670   5.804   9.628   3.944 -0.3704  0.3241 -0.2437
   92MOL0     H12671   5.771   9.638   4.110 -2.4237  1.7973  0.5908
   92MOL0     H12672   5.783   9.894   4.094 -1.3178 -1.6667  0.5923
   92MOL0     H12673   5.861   9.861   3.928 -1.4691 -2.7349 -1.3698
   92MOL0     H12674   5.958   9.726   4.178  2.2332 -0.3373  0.5089
   92MOL0     H12675   6.017   9.891   4.155  3.2610  0.5928 -2.5076
   92MOL0     H12676   4.980   9.681   3.827 -0.2838  0.8310  0.2066
   92MOL0     H12677   4.739   9.715   3.755 -0.3596  2.7774  1.6451
   92MOL0     H12678   4.429  10.082   3.497  0.6816 -0.0707 -0.2907
   92MOL0     H12679   4.223  10.062   3.348 -1.0312 -0.5891 -0.0007
   92MOL0     H12680   2.449   9.656   3.435 -1.0360  0.3350 -0.1045
   92MOL0     H12681   2.206   9.594   3.445 -0.9233 -2.2630  0.2968
   92MOL0     H12682   1.745   9.508   3.517 -1.7272 -0.3832 -1.2285
   92MOL0     H12683   1.549   9.453   3.590  0.2523 -0.4243  1.9426
   92MOL0     H12684   1.491   9.059   3.723 -2.4569 -0.5354  0.0670
   92MOL0     H12685   1.558   9.100   3.880  0.6044  1.3193 -0.7786
   92MOL0     H12686   1.332   9.161   3.952  3.8302  1.5987 -1.3368
   92MOL0     H12687   1.327   9.002   3.893 -0.8706  0.2740  0.2289
   92MOL0     H12688   1.245   9.254   3.743 -4.2601  0.4322  0.2850
   92MOL0     H12689   1.211   9.091   3.671 -2.7098 -1.6520  1.5349
   92MOL0     H12690   1.103   9.245   3.909 -0.7700  2.1376 -2.3411
   92MOL0     H12691   1.077   9.070   3.906 -1.9153  0.3367  0.3450
   92MOL0     H12692   0.821   9.124   3.598 -1.2681  0.6664  1.5471
   92MOL0     H12693   1.748   9.137   3.823 -0.6401 -0.4585 -0.6158
   92MOL0     H12694   1.970   9.078   3.772  0.1628  1.0421  1.8941
   92MOL0     H12695   2.062   9.153   3.649  2.0344 -0.4280  2.0003
   92MOL0     H12696   2.070   9.235   3.797 -3.5351  4.1759  0.3718
   93MOL0     O12697   8.400   0.551   9.182  0.4377  0.1133 -0.8326
   93MOL0     C12698   8.407   0.560   9.303 -0.2746  0.0934 -0.0756
   93MOL0     O12699   8.502   0.636   9.374 -0.3468 -0.3806 -0.2150
   93MOL0     C12700   8.583   0.730   9.309  0.2573  0.7973  0.5643
   93MOL0     C12701   8.699   0.773   9.372  0.7479  0.1483 -0.6154
   93MOL0     C12702   8.781   0.861   9.305 -0.6043 -0.5642 -0.3011
   93MOL0     C12703   8.754   0.915   9.179  0.0157 -0.0373 -0.7260
   93MOL0     O12704   8.841   1.011   9.130 -0.5568  0.3060  0.0757
   93MOL0     C12705   8.837   1.041   8.994 -0.0739 -0.5903 -0.4717
   93MOL0     C12706   8.959   1.119   8.936  0.0849  1.0263 -0.2031
   93MOL0     C12707   9.088   1.036   8.966  0.6806  0.4314  0.4240
   93MOL0     C12708   9.088   0.892   8.894  0.0045  0.0214 -0.2050
   93MOL0     C12709   9.197   0.819   8.960 -0.2351  0.1035  0.7045
   93MOL0     C12710   9.175   0.787   9.110  0.3106 -0.3397  0.3641
   93MOL0     C12711   9.252   0.662   9.155  0.7556  0.1607 -0.0914
   93MOL0     C12712   9.177   0.525   9.131 -1.0255 -0.3213 -1.0629
   93MOL0     N12713   9.266   0.410   9.144  0.5845 -0.6081 -0.1833
   93MOL0     C12714   9.322   0.339   9.044 -0.7368 -0.0702  0.1673
   93MOL0     C12715   9.366   0.226   9.104  0.0816  0.2412  0.1557
   93MOL0     C12716   9.442   0.127   9.021 -0.6375  0.0591 -0.0126
   93MOL0     C12717   9.547   0.046   9.092  0.0059  0.0961  0.0769
   93MOL0     C12718   9.572  -0.093   9.032 -0.9724 -0.6239 -0.1515
   93MOL0     C12719   9.709  -0.148   9.073  0.8138 -0.7043 -1.0280
   93MOL0     O12720   9.806  -0.059   9.030  0.0227 -0.7139  0.0303
   93MOL0     C12721   9.918  -0.062   9.113  0.7906  0.3183  0.1593
   93MOL0     C12722  10.009  -0.165   9.103  0.0619  0.2559  0.2111
   93MOL0     C12723  10.126  -0.162   9.189 -0.8894 -0.4510  0.2981
   93MOL0     C12724  10.230  -0.257   9.141  0.7974  0.8660 -0.6110
   93MOL0     C12725  10.136  -0.079   9.301  0.5280 -0.8142 -0.3235
   93MOL0     C12726  10.238  -0.085   9.411 -0.7356  0.1526 -0.1453
   93MOL0     O12727  10.286   0.029   9.458  0.0799  0.4706  0.2614
   93MOL0     C12728  10.395   0.026   9.542  0.1580  0.0787 -0.6004
   93MOL0     C12729  10.403  -0.041   9.665  0.0706 -0.8672 -0.0479
   93MOL0     C12730  10.509  -0.026   9.751  0.5030  1.0582  0.1654
   93MOL0     C12731  10.623   0.042   9.708  0.3730 -0.0337  0.2756
   93MOL0     O12732  10.734   0.040   9.796 -0.1623 -0.0245 -0.3967
   93MOL0     C12733  10.861   0.086   9.739 -0.1497 -0.9266 -0.3703
   93MOL0     C12734  10.978   0.029   9.824 -1.1866 -0.0175  0.6503
   93MOL0     C12735  11.110   0.091   9.789 -0.5062  0.0527  1.0260
   93MOL0     C12736  11.192   0.126   9.910 -0.2571  1.3134  0.4731
   93MOL0     C12737  11.319   0.208   9.868 -0.1978 -0.1303  0.8694
   93MOL0     C12738  11.401   0.278   9.979  0.2293  0.0203  0.5332
   93MOL0     C12739  11.521   0.354   9.915 -0.5961 -0.0189  0.4878
   93MOL0     C12740  11.643   0.385  10.010  0.2550 -0.8127 -0.0718
   93MOL0    Cl12741  11.633   0.548  10.083 -0.3600 -0.0977  0.0701
   93MOL0     C12742  10.626   0.111   9.587 -0.7302  0.0174 -0.0765
   93MOL0     C12743  10.506   0.109   9.513  0.3499  0.1161 -0.1190
   93MOL0     O12744  10.269  -0.197   9.448 -0.5260  0.6778  0.3194
   93MOL0     C12745  10.035   0.019   9.309  0.3519 -0.1195 -0.3541
   93MOL0     C12746   9.935   0.032   9.218 -0.4345  0.2100  0.8780
   93MOL0     N12747   9.353   0.227   9.237 -0.5760  0.2891 -0.7729
   93MOL0     N12748   9.281   0.337   9.262  0.3697  0.1176 -0.2933
   93MOL0     C12749   8.632   0.883   9.124  0.6081 -0.5637 -0.6607
   93MOL0     C12750   8.541   0.793   9.185  0.3117  0.2808 -0.3569
   93MOL0     C12751   8.336   0.466   9.387  0.7212  0.6655 -1.1412
   93MOL0     C12752   8.321   0.508   9.521  0.8496 -0.4432 -0.3838
   93MOL0     C12753   8.258   0.417   9.601  0.0106  0.6012  0.0774
   93MOL0     C12754   8.206   0.290   9.569 -0.5105 -0.5636  0.5463
   93MOL0     O12755   8.130   0.231   9.663 -0.1306  0.4472 -0.2388
   93MOL0     C12756   8.057   0.112   9.640 -0.7431  0.0457  0.1105
   93MOL0     C12757   7.930   0.146   9.572 -0.4876  0.0855 -0.0275
   93MOL0     C12758   7.829   0.032   9.554  0.6678  1.1467 -0.3479
   93MOL0     C12759   7.739   0.010   9.667 -0.2631  0.0054 -0.9004
   93MOL0     C12760   7.793  -0.067   9.778 -0.6934 -0.2225 -0.3131
   93MOL0     C12761   7.859  -0.136   9.853 -0.3521 -0.5800  0.2043
   93MOL0     C12762   8.245   0.247   9.445  0.0547 -0.2487  0.0173
   93MOL0     C12763   8.303   0.328   9.347  0.0771 -0.7600 -0.1746
   93MOL0     C12764   8.348   0.266   9.219 -0.6081 -0.2612 -0.1607
   93MOL0     H12765   8.725   0.726   9.467  0.3945 -0.3777 -0.7726
   93MOL0     H12766   8.877   0.884   9.350 -0.5326  0.8906 -1.1285
   93MOL0     H12767   8.752   1.110   8.989  0.5339  0.3503  1.4891
   93MOL0     H12768   8.805   0.948   8.945  2.7021 -2.4986  1.1107
   93MOL0     H12769   8.954   1.136   8.828 -2.8569  2.8857  0.1072
   93MOL0     H12770   8.950   1.215   8.988 -1.1681  0.6404  0.3403
   93MOL0     H12771   9.183   1.082   8.937  1.4243 -1.1672  0.1620
   93MOL0     H12772   9.095   1.038   9.075 -0.3783  2.4506  0.4934
   93MOL0     H12773   8.994   0.839   8.911 -2.1641  3.3608 -0.9056
   93MOL0     H12774   9.112   0.902   8.788  0.4367  1.1288 -0.0170
   93MOL0     H12775   9.296   0.865   8.954 -0.1830 -0.1343 -0.7061
   93MOL0     H12776   9.208   0.725   8.905  1.3414  1.8437 -2.2043
   93MOL0     H12777   9.215   0.872   9.165  0.2086  0.3025 -0.5391
   93MOL0     H12778   9.069   0.767   9.125 -0.7544  4.0170 -0.1416
   93MOL0     H12779   9.283   0.655   9.260  0.3042 -3.4954 -0.0568
   93MOL0     H12780   9.340   0.655   9.091  0.2568 -1.0270 -0.6765
   93MOL0     H12781   9.093   0.510   9.199 -0.1807  0.7018  0.2734
   93MOL0     H12782   9.130   0.534   9.033  0.4996  1.2928 -1.6918
   93MOL0     H12783   9.314   0.358   8.938 -2.1476  2.0477  0.5809
   93MOL0     H12784   9.495   0.181   8.942  1.9846 -2.6747 -0.3223
   93MOL0     H12785   9.364   0.064   8.978 -0.4435  0.2934 -0.7245
   93MOL0     H12786   9.641   0.102   9.088 -2.1570  4.1665  0.2752
   93MOL0     H12787   9.522   0.023   9.196  0.4926  1.0435  0.4129
   93MOL0     H12788   9.498  -0.169   9.057 -0.7273 -0.8620 -0.1372
   93MOL0     H12789   9.563  -0.091   8.923  2.6796 -3.4169 -0.6974
   93MOL0     H12790   9.711  -0.180   9.178  0.2846 -1.0454 -1.1181
   93MOL0     H12791   9.712  -0.244   9.020  0.4708 -2.2433  1.5414
   93MOL0     H12792   9.994  -0.232   9.019 -1.5235  2.4180 -1.3312
   93MOL0     H12793  10.225  -0.271   9.032  0.6669  1.1407 -0.6402
   93MOL0     H12794  10.210  -0.352   9.191  1.3464 -0.0346 -2.0484
   93MOL0     H12795  10.326  -0.214   9.169  0.8676 -0.4446  1.3164
   93MOL0     H12796  10.311  -0.090   9.696  1.0226 -2.1839  0.7976
   93MOL0     H12797  10.501  -0.078   9.846  3.2307 -2.0231 -1.1006
   93MOL0     H12798  10.863   0.047   9.637 -1.2755 -2.4371  0.1431
   93MOL0     H12799  10.856   0.195   9.750 -0.5636 -0.7299 -2.1974
   93MOL0     H12800  10.954   0.046   9.929  0.6450  1.7935  0.8260
   93MOL0     H12801  10.985  -0.080   9.813  1.5131 -0.1315  2.5669
   93MOL0     H12802  11.092   0.179   9.727  0.8243 -0.4618 -0.1542
   93MOL0     H12803  11.161   0.028   9.716  1.1288  3.4412 -1.0086
   93MOL0     H12804  11.230   0.034   9.954 -1.2412 -0.2006 -1.6503
   93MOL0     H12805  11.129   0.183   9.979 -1.9036  2.6671 -1.9561
   93MOL0     H12806  11.396   0.152   9.815 -0.0588  0.8174  0.0348
   93MOL0     H12807  11.288   0.287   9.798 -0.8593  0.3292  1.6556
   93MOL0     H12808  11.434   0.212  10.060 -0.1011  2.0584  2.4124
   93MOL0     H12809  11.335   0.349  10.030  0.9393 -0.9991  3.0322
   93MOL0     H12810  11.488   0.450   9.874 -0.9018 -0.5101 -0.4567
   93MOL0     H12811  11.552   0.291   9.830 -1.1560 -1.4772  1.3186
   93MOL0     H12812  11.733   0.372   9.949  0.5042  0.7755 -0.0751
   93MOL0     H12813  11.657   0.299  10.077  2.4065 -0.6273 -0.2234
   93MOL0     H12814  10.715   0.162   9.551 -0.3928 -1.0929 -0.8396
   93MOL0     H12815  10.513   0.167   9.421  2.2756 -1.0992 -0.7890
   93MOL0     H12816  10.031   0.075   9.402 -1.2997 -1.2467  0.2866
   93MOL0     H12817   9.852   0.098   9.243 -1.3163  0.0367 -1.3694
   93MOL0     H12818   8.598   0.917   9.027  1.6327 -2.5806 -1.7737
   93MOL0     H12819   8.447   0.775   9.134  1.2476 -0.0811 -2.0484
   93MOL0     H12820   8.357   0.600   9.565 -0.1914 -1.1884  2.2496
   93MOL0     H12821   8.240   0.454   9.702  1.0727  3.0095 -0.5395
   93MOL0     H12822   8.115   0.045   9.575 -0.8895  1.9378 -2.1112
   93MOL0     H12823   8.031   0.064   9.735  0.9443 -0.1107  0.5376
   93MOL0     H12824   7.952   0.170   9.467  1.4515  0.4272  0.4129
   93MOL0     H12825   7.889   0.235   9.618 -0.2929  0.7872 -1.1738
   93MOL0     H12826   7.762   0.052   9.469 -0.9025  0.6121  0.7160
   93MOL0     H12827   7.879  -0.061   9.525 -1.8040 -0.1745 -0.6288
   93MOL0     H12828   7.654  -0.043   9.623 -0.0299 -1.3145  0.1440
   93MOL0     H12829   7.699   0.103   9.708 -2.1722 -1.5030  0.9375
   93MOL0     H12830   7.914  -0.209   9.908  2.0546  0.9726  0.0117
   93MOL0     H12831   8.221   0.146   9.413 -1.7702 -0.0253  0.5221
   93MOL0     H12832   8.449   0.303   9.199 -1.6429  1.8655 -1.9138
   93MOL0     H12833   8.345   0.157   9.212 -1.9584 -0.1787 -1.1906
   93MOL0     H12834   8.284   0.298   9.137 -1.2191 -2.8351 -0.7838
   94MOL0     O12835   6.165   2.671   8.909 -0.2121  0.0494 -0.1579
   94MOL0     C12836   6.101   2.608   8.825  0.2564  0.0102 -0.0537
   94MOL0     O12837   6.142   2.513   8.739 -0.0720  1.0346  0.3639
   94MOL0     C12838   6.269   2.467   8.757  0.2915 -0.5684 -0.0174
   94MOL0     C12839   6.365   2.533   8.689 -0.6064  0.5657  0.0826
   94MOL0     C12840   6.500   2.489   8.695  0.1117  0.5557 -0.5869
   94MOL0     C12841   6.526   2.379   8.780 -0.7056 -0.1165 -0.5419
   94MOL0     O12842   6.654   2.343   8.813  0.1835 -0.2805 -0.2432
   94MOL0     C12843   6.704   2.330   8.952 -0.7877  0.0563 -0.2915
   94MOL0     C12844   6.805   2.222   8.957 -0.2205  0.4775 -0.2323
   94MOL0     C12845   6.926   2.239   8.856  0.2516  0.0058 -0.2489
   94MOL0     C12846   7.038   2.165   8.913  0.2544  0.2569  0.0639
   94MOL0     C12847   7.123   2.124   8.800 -0.6419  0.1939  0.2563
   94MOL0     C12848   7.191   2.238   8.723 -0.1129 -0.3156  0.4830
   94MOL0     C12849   7.301   2.196   8.622 -0.0050  0.3533 -0.7432
   94MOL0     C12850   7.246   2.148   8.490 -0.0751  0.2056 -0.1290
   94MOL0     N12851   7.360   2.126   8.402 -0.0765  0.1829 -0.5322
   94MOL0     C12852   7.380   2.190   8.286 -0.6315  0.8715  1.1570
   94MOL0     C12853   7.496   2.130   8.241 -0.8542 -1.0654  0.3370
   94MOL0     C12854   7.553   2.160   8.105  0.5148  0.0626  0.5482
   94MOL0     C12855   7.689   2.215   8.118  0.0118 -0.7983 -1.1262
   94MOL0     C12856   7.786   2.108   8.173 -0.6010  0.4994 -0.9114
   94MOL0     C12857   7.931   2.158   8.167 -0.6658  0.0297  0.6910
   94MOL0     O12858   8.014   2.080   8.254 -0.1072 -0.0705 -0.0961
   94MOL0     C12859   8.138   2.124   8.267 -0.1888  0.6752 -0.8480
   94MOL0     C12860   8.216   2.061   8.373 -0.2014 -0.9110  0.5671
   94MOL0     C12861   8.352   2.088   8.388  0.2278 -0.7356  0.2848
   94MOL0     C12862   8.432   2.011   8.493 -0.2132  0.1343  0.0074
   94MOL0     C12863   8.417   2.188   8.307 -0.2139  0.3180  0.4321
   94MOL0     C12864   8.564   2.234   8.316 -0.3009 -0.0859 -0.3062
   94MOL0     O12865   8.601   2.325   8.215 -0.1731 -0.5382 -0.1320
   94MOL0     C12866   8.738   2.358   8.195  0.7689 -0.1732 -0.6793
   94MOL0     C12867   8.783   2.345   8.066 -0.1008  0.2254  0.5074
   94MOL0     C12868   8.921   2.359   8.037  0.0298  0.4592 -0.5187
   94MOL0     C12869   9.018   2.394   8.129 -0.0881  0.6052  0.7234
   94MOL0     O12870   9.140   2.424   8.081 -0.1470 -0.2059  0.0899
   94MOL0     C12871   9.199   2.551   8.098  0.3645 -0.0675  0.1425
   94MOL0     C12872   9.294   2.583   7.985 -0.5788 -0.6573  0.3403
   94MOL0     C12873   9.421   2.496   7.987 -0.1683  0.5111 -0.9473
   94MOL0     C12874   9.524   2.536   7.880 -0.5568  0.4195  0.0179
   94MOL0     C12875   9.648   2.446   7.903 -0.3458  0.6863  0.0703
   94MOL0     C12876   9.781   2.526   7.856  0.6050  0.8154  0.4186
   94MOL0     C12877   9.906   2.450   7.908 -0.8773  0.7862  0.0589
   94MOL0     C12878  10.046   2.511   7.878  0.0618 -0.8869  0.5898
   94MOL0    Cl12879  10.074   2.505   7.698  0.3908 -0.3233  0.2902
   94MOL0     C12880   8.972   2.413   8.262  0.0997  0.1103  0.0361
   94MOL0     C12881   8.835   2.398   8.294  0.3703 -1.0346  0.2456
   94MOL0     O12882   8.635   2.187   8.406 -0.0491 -0.4269 -0.2576
   94MOL0     C12883   8.341   2.253   8.210 -0.7260  0.2832 -0.7216
   94MOL0     C12884   8.206   2.222   8.198 -0.1957  0.5066  0.0495
   94MOL0     N12885   7.530   2.023   8.324 -0.6303  0.4377  0.0883
   94MOL0     N12886   7.442   2.021   8.419 -0.3633 -0.2339  0.0675
   94MOL0     C12887   6.420   2.317   8.850  0.4428  0.8941 -0.5341
   94MOL0     C12888   6.288   2.354   8.839  0.1590 -0.5284 -0.1077
   94MOL0     C12889   5.952   2.627   8.805  0.2790 -0.8953  0.4348
   94MOL0     C12890   5.867   2.543   8.722 -1.2393  0.0557  0.3630
   94MOL0     C12891   5.730   2.553   8.702 -0.2606 -0.5352 -0.0092
   94MOL0     C12892   5.664   2.661   8.754  1.0034 -0.2623 -1.3304
   94MOL0     O12893   5.529   2.679   8.727  0.2138 -0.4523  0.1752
   94MOL0     C12894   5.461   2.776   8.812 -0.3742 -0.9075  1.0573
   94MOL0     C12895   5.324   2.789   8.747 -0.4564 -0.5986 -0.0883
   94MOL0     C12896   5.228   2.863   8.842 -0.2538 -0.9470  0.6478
   94MOL0     C12897   5.120   2.946   8.760  0.7367  0.7769  0.6821
   94MOL0     C12898   5.015   2.859   8.709  0.1518 -0.0640 -0.7660
   94MOL0     C12899   4.910   2.803   8.683 -0.0725  0.3836 -0.2940
   94MOL0     C12900   5.738   2.747   8.843  0.2091 -0.2651 -0.0325
   94MOL0     C12901   5.877   2.735   8.865 -0.0804 -0.0975 -0.9209
   94MOL0     C12902   5.934   2.830   8.969  0.3658 -0.3342 -0.4628
   94MOL0     H12903   6.337   2.607   8.614  0.0153 -0.8143 -1.5772
   94MOL0     H12904   6.579   2.531   8.634  0.9158 -2.4873 -1.7852
   94MOL0     H12905   6.630   2.291   9.023  1.3863 -0.3387  1.9390
   94MOL0     H12906   6.742   2.424   8.992  3.3447 -1.7790  0.7053
   94MOL0     H12907   6.851   2.219   9.056  1.4570 -3.8543 -0.8809
   94MOL0     H12908   6.753   2.126   8.943 -0.8526  0.6745  0.6909
   94MOL0     H12909   6.900   2.201   8.757 -2.2787 -0.4211  0.4969
   94MOL0     H12910   6.951   2.344   8.845 -1.8740  0.4893 -0.8937
   94MOL0     H12911   7.091   2.229   8.983 -4.3195  4.5291  0.2362
   94MOL0     H12912   7.007   2.072   8.962  0.8680 -1.6716 -2.9625
   94MOL0     H12913   7.070   2.062   8.728 -0.1434  2.2378 -2.0023
   94MOL0     H12914   7.202   2.058   8.838 -0.5071  1.4988  2.3942
   94MOL0     H12915   7.109   2.285   8.669  1.3043 -1.4635 -2.9829
   94MOL0     H12916   7.232   2.313   8.791  0.3404 -0.3623  0.2676
   94MOL0     H12917   7.354   2.117   8.676 -3.5302 -0.9830  1.1025
   94MOL0     H12918   7.371   2.278   8.606 -0.0175  0.9225  1.7846
   94MOL0     H12919   7.185   2.058   8.500  0.4369 -0.3375 -1.6156
   94MOL0     H12920   7.178   2.226   8.454 -0.3336 -0.6749 -1.6126
   94MOL0     H12921   7.312   2.258   8.236 -0.3516  0.4449  0.1631
   94MOL0     H12922   7.485   2.234   8.062 -0.3195 -0.7212  0.4973
   94MOL0     H12923   7.556   2.065   8.051  0.1946  0.2012  0.2877
   94MOL0     H12924   7.729   2.247   8.022  2.0017 -0.8336 -0.3575
   94MOL0     H12925   7.684   2.306   8.178 -2.5635  0.1690 -2.6353
   94MOL0     H12926   7.767   2.083   8.278  0.8958 -1.1608 -0.9775
   94MOL0     H12927   7.773   2.006   8.133  0.8274 -2.1965  4.5295
   94MOL0     H12928   7.972   2.156   8.065  1.2000 -2.8314  1.3648
   94MOL0     H12929   7.934   2.263   8.197  0.1592  0.7982 -1.8587
   94MOL0     H12930   8.178   1.996   8.451 -0.5206 -1.4769 -0.0467
   94MOL0     H12931   8.512   1.956   8.443  0.8027  0.1997  1.4987
   94MOL0     H12932   8.381   1.943   8.561  1.5068 -1.5419 -0.2871
   94MOL0     H12933   8.475   2.081   8.565 -0.1858  0.1455 -0.0196
   94MOL0     H12934   8.727   2.322   7.976  3.8778 -0.0111 -2.1706
   94MOL0     H12935   8.960   2.328   7.940  3.6413 -3.7308  1.8540
   94MOL0     H12936   9.133   2.638   8.097  0.8738  0.3188 -0.2600
   94MOL0     H12937   9.259   2.552   8.189 -0.4084 -2.9016  0.7814
   94MOL0     H12938   9.243   2.567   7.889 -0.3197 -0.6756  0.2043
   94MOL0     H12939   9.318   2.689   7.970 -0.2020 -0.9279 -1.1343
   94MOL0     H12940   9.403   2.389   7.971  0.6547  0.8019 -4.6697
   94MOL0     H12941   9.471   2.501   8.084 -0.1152 -2.2879 -0.7584
   94MOL0     H12942   9.550   2.642   7.888  2.2452 -0.1118 -1.1047
   94MOL0     H12943   9.482   2.522   7.780  1.7205 -0.1732 -0.9239
   94MOL0     H12944   9.661   2.436   8.011  2.7716  1.3046 -0.1529
   94MOL0     H12945   9.640   2.345   7.862 -0.8677  0.8087 -0.1381
   94MOL0     H12946   9.788   2.631   7.886  1.7522  0.6263  0.8603
   94MOL0     H12947   9.776   2.524   7.747 -0.3892 -0.9372  0.4588
   94MOL0     H12948   9.918   2.352   7.862  2.7317  0.8096  0.6211
   94MOL0     H12949   9.897   2.443   8.017 -0.8970  3.0381  0.2589
   94MOL0     H12950  10.126   2.463   7.935  0.2192  2.2948  3.3768
   94MOL0     H12951  10.048   2.616   7.909  2.5412 -0.6318 -0.2115
   94MOL0     H12952   9.042   2.448   8.337  0.7687  0.6612 -0.8292
   94MOL0     H12953   8.801   2.409   8.397 -0.9382 -2.0939 -0.0421
   94MOL0     H12954   8.384   2.343   8.166 -0.2382 -0.5049 -1.9311
   94MOL0     H12955   8.147   2.291   8.138 -1.4314 -1.4789 -1.1323
   94MOL0     H12956   6.440   2.237   8.920 -2.0027  0.5338 -0.1388
   94MOL0     H12957   6.197   2.307   8.873 -1.6250  1.2663 -2.0841
   94MOL0     H12958   5.921   2.459   8.679 -0.3401 -0.1522  1.8203
   94MOL0     H12959   5.670   2.480   8.649 -3.2336  0.9717  1.0740
   94MOL0     H12960   5.448   2.749   8.917  0.2775  0.0297  1.3968
   94MOL0     H12961   5.511   2.873   8.812 -0.1133 -0.9766 -1.0996
   94MOL0     H12962   5.283   2.688   8.734  1.4428 -1.4068 -0.1539
   94MOL0     H12963   5.348   2.842   8.654  3.6718  0.5834  1.4189
   94MOL0     H12964   5.159   2.789   8.884 -4.1325  1.1688 -1.4293
   94MOL0     H12965   5.283   2.924   8.914 -1.5807  1.7557 -0.4900
   94MOL0     H12966   5.167   2.993   8.674 -1.3447 -1.7603 -2.0306
   94MOL0     H12967   5.068   3.023   8.818 -0.8497 -0.3011  0.7735
   94MOL0     H12968   4.808   2.774   8.671 -0.4272  2.3258 -2.7465
   94MOL0     H12969   5.689   2.824   8.901  0.9826 -1.3289  2.1751
   94MOL0     H12970   6.026   2.875   8.930  0.6436 -0.0408  0.4849
   94MOL0     H12971   5.870   2.905   9.015 -1.1965 -0.4903 -2.2694
   94MOL0     H12972   5.973   2.762   9.046  1.9298 -0.5633 -1.4154
   95MOL0     O12973   8.059  11.430   3.975 -0.5336  0.8005 -0.0954
   95MOL0     C12974   7.968  11.363   4.016  0.0389  0.5552  0.8351
   95MOL0     O12975   7.966  11.228   4.016  0.8015  0.2140 -0.1179
   95MOL0     C12976   8.044  11.138   3.941  0.0040 -0.4730 -0.7701
   95MOL0     C12977   8.005  11.010   3.948  0.1271  0.5172  0.4169
   95MOL0     C12978   8.073  10.907   3.882  0.4301 -0.1956  0.4680
   95MOL0     C12979   8.186  10.935   3.802  0.3590 -0.4627 -0.9200
   95MOL0     O12980   8.250  10.826   3.748  0.1505  0.7664  0.1674
   95MOL0     C12981   8.380  10.842   3.678 -0.3808  1.0309  0.7479
   95MOL0     C12982   8.430  10.704   3.653 -0.0952  0.5082  0.5554
   95MOL0     C12983   8.563  10.709   3.571 -0.4394 -0.0617 -0.3817
   95MOL0     C12984   8.613  10.563   3.544 -0.4390 -0.1195 -0.7648
   95MOL0     C12985   8.751  10.567   3.489 -0.8587  0.4442  0.4864
   95MOL0     C12986   8.818  10.429   3.453  0.3580 -0.8734 -0.1197
   95MOL0     C12987   8.941  10.456   3.370 -0.2312 -0.9839  0.5726
   95MOL0     C12988   9.003  10.318   3.330 -0.0186 -1.1334 -0.1168
   95MOL0     N12989   9.097  10.320   3.217 -0.0004 -0.8557 -0.2979
   95MOL0     C12990   9.053  10.318   3.078 -0.2047 -0.1745  0.1121
   95MOL0     C12991   9.158  10.361   3.010 -0.1959  0.8694  0.4183
   95MOL0     C12992   9.161  10.381   2.861  0.3941 -0.0251 -0.2154
   95MOL0     C12993   9.296  10.400   2.810  0.0516  0.2097 -0.5180
   95MOL0     C12994   9.317  10.373   2.660  0.1739 -0.7081 -0.3347
   95MOL0     C12995   9.423  10.467   2.585 -0.2499 -0.0483 -0.1662
   95MOL0     O12996   9.466  10.385   2.474  0.4484 -0.2098 -1.0040
   95MOL0     C12997   9.562  10.430   2.384 -0.4463 -0.3189 -0.1635
   95MOL0     C12998   9.637  10.340   2.319 -1.6013 -0.0628  0.0928
   95MOL0     C12999   9.739  10.381   2.235 -0.3993  0.4540  0.8906
   95MOL0     C13000   9.818  10.274   2.162 -0.2148  1.0467  0.8494
   95MOL0     C13001   9.778  10.516   2.227  0.3983 -0.8269  0.1170
   95MOL0     C13002   9.884  10.573   2.133  0.6624  0.2890 -1.2860
   95MOL0     O13003  10.005  10.627   2.188 -0.5554  0.3087  0.1143
   95MOL0     C13004  10.118  10.642   2.102  0.3667  0.6298  0.6927
   95MOL0     C13005  10.186  10.757   2.119  0.0200  0.5005  0.5177
   95MOL0     C13006  10.299  10.778   2.036  0.5099  0.7051  0.4023
   95MOL0     C13007  10.350  10.681   1.947 -0.5233  0.0321 -0.5759
   95MOL0     O13008  10.470  10.691   1.885 -0.5821  0.3361  0.2550
   95MOL0     C13009  10.497  10.824   1.832 -0.5468 -0.3650 -0.5020
   95MOL0     C13010  10.642  10.820   1.777  0.6341 -0.4697  0.2370
   95MOL0     C13011  10.683  10.948   1.698 -0.7717 -0.1450  0.3207
   95MOL0     C13012  10.832  10.962   1.668 -0.2880 -1.0182  0.3469
   95MOL0     C13013  10.868  11.090   1.596  0.2872  0.6597 -0.3916
   95MOL0     C13014  11.008  11.084   1.550  0.6351  0.6120  0.0208
   95MOL0     C13015  11.032  11.197   1.456  0.2779  0.3641  0.5438
   95MOL0     C13016  11.168  11.186   1.400 -0.2870 -0.1791  1.2706
   95MOL0    Cl13017  11.175  11.057   1.271  0.1408 -0.0309 -0.3006
   95MOL0     C13018  10.278  10.556   1.943  0.0877 -0.9340 -0.1240
   95MOL0     C13019  10.167  10.533   2.029 -0.5530  0.5453  1.1564
   95MOL0     O13020   9.839  10.585   2.025  0.2731 -0.4095 -0.2328
   95MOL0     C13021   9.697  10.609   2.298  0.8390  0.9091  0.2091
   95MOL0     C13022   9.584  10.568   2.371 -0.0715  0.1858 -0.3605
   95MOL0     N13023   9.260  10.385   3.100 -0.4414 -0.2430 -0.0774
   95MOL0     N13024   9.227  10.367   3.222  0.2542  1.0823  0.5404
   95MOL0     C13025   8.224  11.072   3.794 -0.9914  0.2881 -0.1903
   95MOL0     C13026   8.160  11.172   3.875  0.4350 -0.6169 -0.0601
   95MOL0     C13027   7.876  11.434   4.116 -0.1360 -0.9530  0.0324
   95MOL0     C13028   7.795  11.350   4.196  0.4625  0.3415  0.2252
   95MOL0     C13029   7.697  11.405   4.279 -0.2354 -0.2736 -0.5455
   95MOL0     C13030   7.691  11.541   4.299  0.2013 -0.6209  0.4514
   95MOL0     O13031   7.586  11.600   4.366 -0.2766 -0.1358 -0.1746
   95MOL0     C13032   7.464  11.530   4.364  0.0161  0.2145  0.1349
   95MOL0     C13033   7.394  11.534   4.230 -0.2280 -0.6699 -0.1568
   95MOL0     C13034   7.326  11.671   4.192 -0.5231  0.3271 -0.6810
   95MOL0     C13035   7.244  11.659   4.071  0.1190  0.5257 -0.1388
   95MOL0     C13036   7.307  11.623   3.944 -1.1221  0.2395  0.3790
   95MOL0     C13037   7.369  11.611   3.838  0.2664 -0.1633 -0.2220
   95MOL0     C13038   7.770  11.630   4.215 -0.1405  0.0306 -0.9280
   95MOL0     C13039   7.860  11.576   4.122 -0.6653 -0.2513  0.3893
   95MOL0     C13040   7.938  11.670   4.033 -0.1059  0.3347 -0.1560
   95MOL0     H13041   7.910  10.994   3.998 -2.1649 -1.2585 -3.9380
   95MOL0     H13042   8.043  10.803   3.887  0.1618 -0.1907 -0.7713
   95MOL0     H13043   8.455  10.900   3.733  1.9771 -2.3560  1.4017
   95MOL0     H13044   8.364  10.895   3.584 -0.1317 -2.3897 -1.3887
   95MOL0     H13045   8.452  10.662   3.752  0.0419  1.6572  1.0236
   95MOL0     H13046   8.344  10.654   3.609  0.3084  0.1380  0.1778
   95MOL0     H13047   8.543  10.746   3.470  0.8276  1.4023 -0.1361
   95MOL0     H13048   8.641  10.764   3.625  1.4173 -4.5622  2.0529
   95MOL0     H13049   8.618  10.516   3.643 -1.5427  1.9435  0.3349
   95MOL0     H13050   8.540  10.518   3.475 -3.0669 -2.3134  3.0471
   95MOL0     H13051   8.814  10.636   3.547 -0.1041  1.3791 -1.3745
   95MOL0     H13052   8.738  10.609   3.389 -0.2728  2.5393  1.2337
   95MOL0     H13053   8.843  10.365   3.539  1.1119 -3.8247 -2.3622
   95MOL0     H13054   8.745  10.375   3.392  0.8297 -0.7198 -0.8219
   95MOL0     H13055   9.015  10.509   3.431  0.9353 -3.5756  1.6038
   95MOL0     H13056   8.909  10.505   3.278  0.5937 -1.4538  0.0253
   95MOL0     H13057   9.053  10.294   3.425 -0.2837 -1.4563 -0.0578
   95MOL0     H13058   8.920  10.254   3.300 -1.2160  0.9771 -1.5761
   95MOL0     H13059   8.961  10.269   3.046 -1.7434  0.2854  3.4098
   95MOL0     H13060   9.103  10.472   2.842  0.7809  0.1665 -0.4776
   95MOL0     H13061   9.123  10.298   2.801  0.3754  0.6134 -1.1113
   95MOL0     H13062   9.323  10.504   2.829  2.1090 -0.6427  1.6991
   95MOL0     H13063   9.367  10.330   2.855  1.4551  1.0720 -1.3071
   95MOL0     H13064   9.350  10.269   2.654  1.4850 -0.2241 -2.2917
   95MOL0     H13065   9.221  10.380   2.608 -0.7332 -0.0761  1.3373
   95MOL0     H13066   9.379  10.561   2.552 -1.4599 -0.7335 -0.6195
   95MOL0     H13067   9.499  10.510   2.650 -0.7767 -0.1056  0.5092
   95MOL0     H13068   9.645  10.239   2.357  0.3278 -0.2099 -0.5601
   95MOL0     H13069   9.776  10.175   2.181 -0.3913  0.5874 -1.6665
   95MOL0     H13070   9.924  10.275   2.191  0.8741  0.1051 -2.6191
   95MOL0     H13071   9.801  10.275   2.054 -2.6093 -3.6786  0.9398
   95MOL0     H13072  10.169  10.828   2.199  1.7166 -0.7553  2.0952
   95MOL0     H13073  10.360  10.861   2.070  2.8057 -0.3608 -0.8675
   95MOL0     H13074  10.431  10.859   1.751 -0.5984  0.9830  0.0993
   95MOL0     H13075  10.489  10.888   1.920 -5.8211 -0.2083 -0.7813
   95MOL0     H13076  10.698  10.815   1.871 -2.2904  4.0850  2.5667
   95MOL0     H13077  10.667  10.729   1.722  3.5837 -0.5704  1.5774
   95MOL0     H13078  10.647  11.043   1.739 -2.1913 -0.2085 -0.6870
   95MOL0     H13079  10.636  10.937   1.600 -1.5448  1.1389  0.5305
   95MOL0     H13080  10.861  10.878   1.604 -1.7891 -0.4168 -1.1901
   95MOL0     H13081  10.889  10.970   1.761 -2.6769 -0.1766  1.8277
   95MOL0     H13082  10.792  11.097   1.518 -1.2754 -2.1031  0.7189
   95MOL0     H13083  10.857  11.169   1.670  0.0176 -0.9276  1.3174
   95MOL0     H13084  11.051  10.994   1.505  1.8901  1.8093 -1.2772
   95MOL0     H13085  11.058  11.093   1.647 -0.4668 -0.9965  0.7741
   95MOL0     H13086  11.013  11.295   1.499 -0.5160  1.6687 -2.4690
   95MOL0     H13087  10.982  11.195   1.358 -0.9038  1.7491  1.0963
   95MOL0     H13088  11.244  11.165   1.476  1.0034  0.7501  0.2981
   95MOL0     H13089  11.192  11.285   1.360 -1.4255  0.0204  1.0536
   95MOL0     H13090  10.319  10.479   1.878  2.8865 -0.3330  0.7801
   95MOL0     H13091  10.116  10.438   2.019 -0.9191  0.8696 -0.2610
   95MOL0     H13092   9.712  10.716   2.290  0.7858  0.9876  1.0380
   95MOL0     H13093   9.533  10.641   2.434 -2.5951 -1.8018  0.0637
   95MOL0     H13094   8.310  11.089   3.730 -0.1677  1.8021  1.2519
   95MOL0     H13095   8.211  11.268   3.867 -0.0307 -0.2745  0.8926
   95MOL0     H13096   7.790  11.246   4.165 -3.4545  0.5500 -0.3790
   95MOL0     H13097   7.628  11.338   4.330 -2.1112  1.6429 -0.4144
   95MOL0     H13098   7.467  11.431   4.411 -3.2936 -0.9509 -1.7814
   95MOL0     H13099   7.392  11.566   4.438 -1.0042  0.1167 -0.7759
   95MOL0     H13100   7.319  11.455   4.239 -2.7025  1.6606  1.1872
   95MOL0     H13101   7.467  11.505   4.154  0.4893 -0.1608  0.3264
   95MOL0     H13102   7.264  11.712   4.272 -1.9436 -0.8750 -1.1164
   95MOL0     H13103   7.393  11.755   4.170  0.8967 -0.0203  1.9826
   95MOL0     H13104   7.201  11.759   4.059 -1.0913 -0.2020 -2.4543
   95MOL0     H13105   7.165  11.586   4.089 -0.4322  1.0896 -0.2144
   95MOL0     H13106   7.414  11.604   3.741 -1.5892  0.3649 -1.1707
   95MOL0     H13107   7.753  11.737   4.218  0.4248  0.1100 -0.5141
   95MOL0     H13108   8.040  11.674   4.071  0.3687 -0.0433 -1.3595
   95MOL0     H13109   7.949  11.631   3.931 -0.5717 -1.5690  0.4696
   95MOL0     H13110   7.897  11.771   4.043 -1.7711 -0.3025 -0.2409
   96MOL0     O13111   7.362  11.017  10.623 -0.3188 -0.4719 -0.4283
   96MOL0     C13112   7.485  10.993  10.638  0.7964  0.9031 -0.6551
   96MOL0     O13113   7.587  11.050  10.569  0.0715  0.2473 -0.1912
   96MOL0     C13114   7.548  11.147  10.484  0.3307 -0.2331 -1.4547
   96MOL0     C13115   7.516  11.130  10.359 -0.6478  0.1069 -0.3156
   96MOL0     C13116   7.516  11.236  10.270  0.3385 -0.4441 -0.1314
   96MOL0     C13117   7.533  11.366  10.312 -0.3337  0.5306 -0.7831
   96MOL0     O13118   7.529  11.465  10.220  0.1210 -0.0440  0.5574
   96MOL0     C13119   7.665  11.511  10.188 -0.0294 -0.0430 -0.9239
   96MOL0     C13120   7.655  11.662  10.177 -0.1437  0.2148 -0.1901
   96MOL0     C13121   7.606  11.728  10.305 -0.5336 -0.4157 -0.1470
   96MOL0     C13122   7.622  11.888  10.319  0.0827 -0.2252  0.7488
   96MOL0     C13123   7.765  11.934  10.295 -0.3880  0.1636  0.8356
   96MOL0     C13124   7.779  12.074  10.335 -0.5881  0.5691  0.2546
   96MOL0     C13125   7.921  12.120  10.312  0.1798  0.2638  0.1363
   96MOL0     C13126   7.924  12.273  10.327 -0.0003  0.2348 -0.1615
   96MOL0     N13127   7.863  12.343  10.207  1.2756 -0.5968 -0.6846
   96MOL0     C13128   7.737  12.405  10.197  0.6626  0.8963 -1.0990
   96MOL0     C13129   7.722  12.439  10.072 -0.2290  1.2552  0.9779
   96MOL0     C13130   7.608  12.499   9.999 -0.4548 -0.0437  0.0607
   96MOL0     C13131   7.478  12.425  10.003 -0.3703 -0.4614 -0.3286
   96MOL0     C13132   7.422  12.409  10.145  0.3909  0.7284  0.8161
   96MOL0     C13133   7.276  12.350  10.128  0.6821 -0.4652  0.5077
   96MOL0     O13134   7.219  12.332  10.257  0.2549  0.1116  0.8712
   96MOL0     C13135   7.085  12.317  10.271 -0.8988 -0.3316 -0.4413
   96MOL0     C13136   7.042  12.314  10.403  0.4669  0.6413  0.5650
   96MOL0     C13137   6.904  12.286  10.424 -0.0432 -0.5466  0.2418
   96MOL0     C13138   6.866  12.261  10.569 -0.0187 -0.1865 -0.0860
   96MOL0     C13139   6.821  12.279  10.313  0.8304  1.0599 -0.3934
   96MOL0     C13140   6.669  12.265  10.323 -0.8385  0.3815 -0.5705
   96MOL0     O13141   6.614  12.212  10.440  0.2752  0.5728 -0.3022
   96MOL0     C13142   6.480  12.200  10.462  0.6953  0.5170  0.7130
   96MOL0     C13143   6.392  12.136  10.364 -0.1152 -0.0443  0.8386
   96MOL0     C13144   6.252  12.132  10.382 -0.3437  0.6105 -0.0940
   96MOL0     C13145   6.194  12.171  10.501 -0.1513  0.0634 -0.1617
   96MOL0     O13146   6.055  12.159  10.506  0.9825  0.6470  0.3394
   96MOL0     C13147   5.988  12.155  10.631  0.3214 -0.1870  0.6698
   96MOL0     C13148   5.850  12.116  10.620  0.3687 -0.0336 -0.3168
   96MOL0     C13149   5.811  11.966  10.605 -0.6666  0.5910 -0.3078
   96MOL0     C13150   5.819  11.888  10.738 -0.1505  0.1419  0.4413
   96MOL0     C13151   5.795  11.738  10.713  0.3614 -0.4227  0.5331
   96MOL0     C13152   5.799  11.658  10.846 -0.2852  0.7741  0.4415
   96MOL0     C13153   5.776  11.502  10.821  0.0387 -0.4585  0.3590
   96MOL0     C13154   5.802  11.423  10.951  0.1471  0.1174 -0.1035
   96MOL0    Cl13155   5.645  11.418  11.052 -0.0017 -0.0011 -0.0263
   96MOL0     C13156   6.286  12.214  10.600  0.9592 -0.8247  0.8173
   96MOL0     C13157   6.424  12.241  10.582  0.8045 -0.4166 -0.2050
   96MOL0     O13158   6.602  12.316  10.235 -0.4670 -0.2369  0.2148
   96MOL0     C13159   6.874  12.273  10.185  1.0411  0.7149 -0.4802
   96MOL0     C13160   7.004  12.297  10.163 -0.1465 -0.1576  0.7098
   96MOL0     N13161   7.843  12.415  10.012 -0.2396 -0.2619  0.0163
   96MOL0     N13162   7.924  12.358  10.089 -0.1766 -0.1648 -0.3845
   96MOL0     C13163   7.567  11.393  10.444 -0.3316 -0.1476  0.0153
   96MOL0     C13164   7.578  11.276  10.529 -0.2237  0.0906 -0.1989
   96MOL0     C13165   7.538  10.910  10.757 -0.1855  0.5615 -1.0185
   96MOL0     C13166   7.674  10.926  10.799  1.2341  0.3385  0.8983
   96MOL0     C13167   7.725  10.846  10.892 -0.1042  0.3438  0.2477
   96MOL0     C13168   7.655  10.744  10.954 -0.1299  0.0455  0.7715
   96MOL0     O13169   7.729  10.667  11.045 -0.3471 -0.1144 -0.3731
   96MOL0     C13170   7.668  10.548  11.094 -1.1143  0.8064 -1.1948
   96MOL0     C13171   7.763  10.477  11.201  0.1279 -0.0995 -0.1806
   96MOL0     C13172   7.800  10.578  11.308 -0.0791  0.3147 -0.0299
   96MOL0     C13173   7.701  10.593  11.422  0.0754 -0.0837  0.1280
   96MOL0     C13174   7.601  10.697  11.387 -0.5139 -0.7916  0.8874
   96MOL0     C13175   7.511  10.765  11.347 -0.9139 -0.7443  0.0598
   96MOL0     C13176   7.524  10.730  10.920 -0.2116  0.5601 -0.8057
   96MOL0     C13177   7.462  10.810  10.822  0.2442 -0.2123 -0.4377
   96MOL0     C13178   7.316  10.778  10.791  0.6175 -0.2413 -0.6115
   96MOL0     H13179   7.497  11.034  10.311 -0.0938 -0.7874  1.1926
   96MOL0     H13180   7.500  11.218  10.164 -0.9244 -0.1850 -0.0039
   96MOL0     H13181   7.703  11.471  10.093  1.5001 -1.7433  0.3293
   96MOL0     H13182   7.732  11.492  10.272 -0.7277  0.9161 -0.1332
   96MOL0     H13183   7.754  11.702  10.153  1.0770 -2.0330  0.8493
   96MOL0     H13184   7.579  11.676  10.099 -1.8192 -0.0182  1.3373
   96MOL0     H13185   7.503  11.698  10.322  0.4423 -4.0255  0.0967
   96MOL0     H13186   7.676  11.693  10.382 -1.4162 -0.4817  0.6385
   96MOL0     H13187   7.553  11.940  10.252 -1.0164 -2.2689  0.2444
   96MOL0     H13188   7.603  11.907  10.425  0.4621  0.4001  0.7140
   96MOL0     H13189   7.790  11.921  10.190  2.7213  2.4470  1.1627
   96MOL0     H13190   7.822  11.865  10.359 -1.6650 -0.3923  1.4286
   96MOL0     H13191   7.702  12.135  10.287 -0.2521  0.7872 -0.0239
   96MOL0     H13192   7.761  12.081  10.443 -2.2183  3.6356 -0.0921
   96MOL0     H13193   7.954  12.093  10.211 -1.7496 -1.2517 -0.1328
   96MOL0     H13194   7.977  12.064  10.387 -0.6097 -1.3409 -0.4453
   96MOL0     H13195   7.874  12.295  10.422  1.2146  0.3203  0.4815
   96MOL0     H13196   8.027  12.310  10.336 -0.2833  0.8034  0.9359
   96MOL0     H13197   7.672  12.424  10.282  0.7545 -3.9306  0.3631
   96MOL0     H13198   7.626  12.504   9.891  1.3049 -0.0021  0.3291
   96MOL0     H13199   7.599  12.603  10.031  0.8521  1.1071 -2.9590
   96MOL0     H13200   7.402  12.475   9.943 -1.5218  0.8721  2.0932
   96MOL0     H13201   7.481  12.323   9.962  0.0574  0.4210 -2.6098
   96MOL0     H13202   7.485  12.334  10.194  0.8653 -0.5256 -1.5422
   96MOL0     H13203   7.410  12.505  10.197 -0.5461  2.4843 -2.3516
   96MOL0     H13204   7.225  12.428  10.070  1.8868 -2.5095 -3.6295
   96MOL0     H13205   7.274  12.254  10.076 -1.9163 -1.8278  2.8172
   96MOL0     H13206   7.112  12.334  10.483  3.6864  2.6755 -2.4572
   96MOL0     H13207   6.794  12.331  10.611 -0.1931  0.3608 -1.2609
   96MOL0     H13208   6.949  12.251  10.640  0.2482  0.3339 -0.3155
   96MOL0     H13209   6.809  12.168  10.577 -2.5025  1.1346 -1.2093
   96MOL0     H13210   6.426  12.096  10.270  1.2877 -3.7168  2.7029
   96MOL0     H13211   6.191  12.094  10.301 -0.0490  1.5380 -0.7592
   96MOL0     H13212   6.051  12.104  10.704 -0.8189  0.0607  1.8716
   96MOL0     H13213   5.989  12.259  10.666 -0.3170  0.1182 -0.1740
   96MOL0     H13214   5.793  12.155  10.705  1.1101 -0.4726  0.4006
   96MOL0     H13215   5.807  12.168  10.535  1.9824  0.9693 -0.5607
   96MOL0     H13216   5.870  11.918  10.526  0.1943 -2.6422  2.0905
   96MOL0     H13217   5.707  11.953  10.575 -0.5369 -1.4253 -0.0333
   96MOL0     H13218   5.739  11.927  10.801  0.4068  3.3837 -0.6422
   96MOL0     H13219   5.918  11.909  10.779  0.2267  1.0910 -0.8657
   96MOL0     H13220   5.697  11.727  10.665 -0.7917  2.3263  1.9645
   96MOL0     H13221   5.868  11.703  10.640 -2.2184  1.2323 -3.1457
   96MOL0     H13222   5.727  11.695  10.920  1.7373  0.0210  2.8907
   96MOL0     H13223   5.898  11.677  10.888  1.6188 -2.8301 -1.9114
   96MOL0     H13224   5.850  11.472  10.746 -1.1978  0.0054 -1.0869
   96MOL0     H13225   5.677  11.485  10.779 -0.5595 -0.5203  1.7472
   96MOL0     H13226   5.881  11.466  11.012  1.4948 -0.0754 -1.6384
   96MOL0     H13227   5.840  11.323  10.927  0.8095 -0.4888  3.0982
   96MOL0     H13228   6.245  12.251  10.694  1.5283 -1.9038  1.5128
   96MOL0     H13229   6.489  12.301  10.644  0.9544 -1.5633  0.7921
   96MOL0     H13230   6.819  12.248  10.095  1.6588 -3.5410  0.1064
   96MOL0     H13231   7.022  12.290  10.056 -4.4756 -0.7631 -0.1933
   96MOL0     H13232   7.580  11.493  10.482  0.0403  0.3977 -1.4880
   96MOL0     H13233   7.615  11.274  10.631 -2.5474 -0.8978  0.7040
   96MOL0     H13234   7.734  10.994  10.740  1.7510  0.2207  1.2773
   96MOL0     H13235   7.827  10.866  10.923  0.5222  0.8945 -2.0058
   96MOL0     H13236   7.577  10.583  11.145  0.3759  1.2713  1.3446
   96MOL0     H13237   7.632  10.481  11.015 -3.6820  0.4707  0.1423
   96MOL0     H13238   7.857  10.448  11.153  0.5437  1.3132 -0.2503
   96MOL0     H13239   7.715  10.392  11.250  1.1389 -0.7031 -0.2033
   96MOL0     H13240   7.900  10.557  11.346 -1.2564  2.9047  5.5928
   96MOL0     H13241   7.813  10.679  11.266 -2.2489  1.2246  1.3009
   96MOL0     H13242   7.755  10.622  11.513 -1.4115  1.7229  0.5120
   96MOL0     H13243   7.654  10.496  11.441  2.9375 -1.7475 -0.7926
   96MOL0     H13244   7.424  10.820  11.317 -1.1796  0.5150  2.7951
   96MOL0     H13245   7.467  10.649  10.965 -1.8057  2.1870  0.2536
   96MOL0     H13246   7.262  10.693  10.832 -1.6338  2.0784  1.5365
   96MOL0     H13247   7.245  10.853  10.827  0.7998 -0.7898  0.9396
   96MOL0     H13248   7.298  10.775  10.683 -3.3391  0.1942 -0.0883
   97MOL0     O13249  10.033   9.474   4.971  0.4501  0.6793 -0.5202
   97MOL0     C13250  10.032   9.377   4.894 -0.4231  0.3258  0.4918
   97MOL0     O13251  10.075   9.383   4.758  0.1922 -0.1642 -0.1230
   97MOL0     C13252  10.135   9.495   4.700 -0.4594  1.5496  0.5216
   97MOL0     C13253  10.170   9.474   4.569  0.9184 -0.3412  0.5892
   97MOL0     C13254  10.226   9.562   4.482  0.2909 -0.0193  0.4880
   97MOL0     C13255  10.249   9.693   4.528 -0.0164  0.8140  0.9335
   97MOL0     O13256  10.305   9.782   4.441  0.3577  0.5479  0.3922
   97MOL0     C13257  10.339   9.911   4.488 -0.1028  0.3160  0.3931
   97MOL0     C13258  10.387  10.011   4.378 -0.1127  0.3364  0.1023
   97MOL0     C13259  10.504   9.946   4.305  0.2277  0.1849  0.6666
   97MOL0     C13260  10.561  10.046   4.206 -0.0011  0.5925 -0.4751
   97MOL0     C13261  10.660   9.995   4.113 -0.7375  0.0786  0.7223
   97MOL0     C13262  10.753  10.107   4.046  0.7545  0.1633 -0.1875
   97MOL0     C13263  10.886  10.043   4.008 -0.8092  0.0202  0.5426
   97MOL0     C13264  10.975  10.152   3.946  1.6218  0.2611  0.5483
   97MOL0     N13265  10.933  10.153   3.803 -0.0622 -0.5125  0.1143
   97MOL0     C13266  10.981  10.068   3.706 -0.5723 -0.4752  0.6226
   97MOL0     C13267  10.930  10.129   3.591 -0.9525  0.7338  0.6234
   97MOL0     C13268  10.960  10.072   3.441  0.5137  0.0253 -0.7794
   97MOL0     C13269  10.956  10.187   3.342 -0.2987  0.6672 -0.3427
   97MOL0     C13270  11.049  10.160   3.220  0.4573 -0.1076  0.8184
   97MOL0     C13271  11.024  10.281   3.115  1.0970  0.7921 -0.9748
   97MOL0     O13272  11.074  10.403   3.152  0.8595 -0.4570 -0.3906
   97MOL0     C13273  11.204  10.447   3.127 -0.7278  0.8522 -0.7184
   97MOL0     C13274  11.278  10.418   3.014 -1.0510 -0.8936 -0.6350
   97MOL0     C13275  11.416  10.459   3.000 -0.1471  0.2651  0.3844
   97MOL0     C13276  11.477  10.436   2.866  0.3885  0.5299 -0.1933
   97MOL0     C13277  11.482  10.539   3.106 -0.8193  0.2945  0.1897
   97MOL0     C13278  11.622  10.587   3.108  0.3558  0.0764 -0.1592
   97MOL0     O13279  11.706  10.548   3.013  0.5203  0.3198 -0.1246
   97MOL0     C13280  11.838  10.558   3.026 -0.7670 -0.5014 -0.3971
   97MOL0     C13281  11.905  10.501   3.137  0.0866 -0.3160 -0.1529
   97MOL0     C13282  12.042  10.521   3.154 -0.6052 -0.7154 -0.4501
   97MOL0     C13283  12.110  10.601   3.061 -0.0066 -0.0276 -1.2232
   97MOL0     O13284  12.243  10.634   3.067 -0.4989  0.6784 -0.4121
   97MOL0     C13285  12.338  10.542   3.111 -0.4569  0.1014  0.2455
   97MOL0     C13286  12.471  10.600   3.058  1.5196  0.1855 -0.0649
   97MOL0     C13287  12.591  10.524   3.100  0.1978  0.1285 -0.5322
   97MOL0     C13288  12.725  10.585   3.055  0.7251  0.6893  0.1431
   97MOL0     C13289  12.775  10.712   3.133  0.2567 -0.6498 -0.5205
   97MOL0     C13290  12.909  10.754   3.088 -0.0488 -0.7533  0.4510
   97MOL0     C13291  12.897  10.870   2.988  1.0290 -0.4074 -0.3985
   97MOL0     C13292  13.037  10.926   2.955 -0.4300  0.3212  0.7056
   97MOL0    Cl13293  13.120  10.832   2.838  0.0497 -0.2556  0.2956
   97MOL0     C13294  12.051  10.662   2.953 -0.3351 -0.0496  0.3838
   97MOL0     C13295  11.910  10.636   2.935 -0.2292  0.3109 -1.3890
   97MOL0     O13296  11.655  10.655   3.210 -0.2619  1.1408 -0.1515
   97MOL0     C13297  11.397  10.558   3.223 -0.7706 -0.5286 -0.9947
   97MOL0     C13298  11.269  10.517   3.233  0.4039 -1.0466 -0.0517
   97MOL0     N13299  10.863  10.248   3.623  0.3633  0.3739  0.7498
   97MOL0     N13300  10.872  10.263   3.747  0.6945 -0.1037  0.8448
   97MOL0     C13301  10.217   9.715   4.665 -1.7734 -0.0743  0.4802
   97MOL0     C13302  10.173   9.616   4.752 -0.3644 -0.2714  0.1226
   97MOL0     C13303   9.965   9.255   4.943 -0.2877  0.8954  0.7969
   97MOL0     C13304   9.877   9.257   5.053  0.1481  0.3807  0.8070
   97MOL0     C13305   9.820   9.134   5.103 -0.2639 -0.1204 -0.0420
   97MOL0     C13306   9.838   9.014   5.030  0.6522  0.3462 -0.0968
   97MOL0     O13307   9.780   8.889   5.070 -0.1791 -0.8675  0.5023
   97MOL0     C13308   9.676   8.890   5.169 -0.1913  0.5375  0.4759
   97MOL0     C13309   9.542   8.943   5.116 -0.4640 -0.0601 -0.4796
   97MOL0     C13310   9.422   8.934   5.215 -0.2176 -0.9396 -1.2095
   97MOL0     C13311   9.304   9.021   5.160 -0.2296 -0.5198 -0.1200
   97MOL0     C13312   9.330   9.166   5.115 -0.2142  0.0836  0.1117
   97MOL0     C13313   9.350   9.279   5.071 -0.1975  0.4725  0.1756
   97MOL0     C13314   9.930   9.015   4.934 -0.0646  0.2458  0.7527
   97MOL0     C13315   9.997   9.119   4.887 -0.3683 -0.1927  0.4083
   97MOL0     C13316  10.102   9.105   4.776 -0.3561 -0.2035 -0.0140
   97MOL0     H13317  10.146   9.374   4.532 -1.0047 -0.8926  3.0371
   97MOL0     H13318  10.244   9.522   4.383  0.1707 -2.4415  1.3771
   97MOL0     H13319  10.421   9.907   4.559 -0.7595  0.7166  1.1831
   97MOL0     H13320  10.257   9.954   4.545 -2.4708 -3.5386  0.2338
   97MOL0     H13321  10.315  10.049   4.304  0.0051  0.2565 -0.0536
   97MOL0     H13322  10.434  10.095   4.431 -0.3516  1.4953 -1.4145
   97MOL0     H13323  10.575   9.913   4.382 -2.7150 -0.7232  3.2143
   97MOL0     H13324  10.470   9.863   4.243  1.0668  0.5954 -0.3626
   97MOL0     H13325  10.474  10.081   4.150 -1.4941 -1.0367  0.7086
   97MOL0     H13326  10.612  10.125   4.262  0.1829 -0.8428  1.5089
   97MOL0     H13327  10.606   9.937   4.037 -0.7571  0.1710  0.6664
   97MOL0     H13328  10.725   9.923   4.163 -0.5740  0.8938  1.7016
   97MOL0     H13329  10.711  10.145   3.953  2.3508  0.6545 -0.7493
   97MOL0     H13330  10.757  10.193   4.113 -0.3454 -1.1537  1.6682
   97MOL0     H13331  10.875   9.969   3.928 -1.8065  0.9212 -0.1664
   97MOL0     H13332  10.931  10.003   4.100  0.7457  1.2470  0.3639
   97MOL0     H13333  10.965  10.254   3.986  0.1319  0.9976 -1.5045
   97MOL0     H13334  11.083  10.133   3.946  2.0138  2.1650  1.8061
   97MOL0     H13335  11.048   9.983   3.716 -2.1895 -2.6491 -4.1654
   97MOL0     H13336  10.879  10.002   3.416  0.8792  0.0837 -2.1968
   97MOL0     H13337  11.052  10.012   3.441 -1.0523 -2.5305 -0.3150
   97MOL0     H13338  10.857  10.198   3.297  0.0616  0.3831 -1.2209
   97MOL0     H13339  10.979  10.279   3.397  0.3020  0.3543 -0.0486
   97MOL0     H13340  11.150  10.170   3.261 -0.4437  3.2925  2.6160
   97MOL0     H13341  11.033  10.064   3.170 -0.3594 -0.7051  2.1716
   97MOL0     H13342  11.065  10.243   3.021 -1.4677 -4.0444 -0.4968
   97MOL0     H13343  10.917  10.294   3.094  0.4636  0.8176  1.8638
   97MOL0     H13344  11.228  10.375   2.927  0.2735 -3.0552 -0.3898
   97MOL0     H13345  11.438  10.341   2.827 -3.2456 -0.7029  5.2031
   97MOL0     H13346  11.586  10.431   2.866  0.3817 -0.0810  0.9567
   97MOL0     H13347  11.440  10.509   2.793 -0.8977  1.0787  0.9578
   97MOL0     H13348  11.848  10.450   3.215 -1.4813  0.3008 -0.8416
   97MOL0     H13349  12.097  10.473   3.235  2.1866  1.9172 -0.6094
   97MOL0     H13350  12.337  10.538   3.221  1.7008  3.5018  0.5542
   97MOL0     H13351  12.309  10.447   3.066 -1.8204  0.5741  0.0743
   97MOL0     H13352  12.480  10.619   2.951  2.4017 -0.4911 -0.1228
   97MOL0     H13353  12.482  10.699   3.104 -1.1575  0.5339  0.0225
   97MOL0     H13354  12.594  10.423   3.059 -0.4178 -0.0845 -0.0709
   97MOL0     H13355  12.589  10.514   3.209 -0.9546  2.9771 -0.2043
   97MOL0     H13356  12.736  10.604   2.948  1.5364  3.1492  0.5955
   97MOL0     H13357  12.794  10.503   3.076 -0.5355 -0.5998 -0.5770
   97MOL0     H13358  12.709  10.799   3.137  1.9661  0.6798  0.0923
   97MOL0     H13359  12.782  10.683   3.239 -0.2287 -0.8773 -0.5482
   97MOL0     H13360  12.956  10.667   3.040 -0.8246  0.5906 -3.0505
   97MOL0     H13361  12.969  10.773   3.177 -1.2071 -2.8831  1.7823
   97MOL0     H13362  12.845  10.958   3.024  0.7878 -0.5751 -0.3349
   97MOL0     H13363  12.847  10.834   2.897 -1.7977  1.0198  0.4895
   97MOL0     H13364  13.092  10.921   3.049  1.0025 -2.2784 -0.1603
   97MOL0     H13365  13.030  11.029   2.919  2.2484  1.0311  1.9875
   97MOL0     H13366  12.110  10.722   2.884  0.4849 -0.8492  0.3703
   97MOL0     H13367  11.851  10.694   2.864 -1.7602  0.4338 -0.0898
   97MOL0     H13368  11.438  10.619   3.303  1.6812 -2.8060 -0.3810
   97MOL0     H13369  11.208  10.535   3.321 -0.1876  2.0971 -0.9904
   97MOL0     H13370  10.236   9.815   4.703  0.7486  0.9600 -2.9916
   97MOL0     H13371  10.173   9.640   4.858 -1.5680  0.7743 -0.0814
   97MOL0     H13372   9.863   9.348   5.109 -1.4993  1.2065 -0.8562
   97MOL0     H13373   9.779   9.132   5.203 -0.3284 -0.4439 -0.0747
   97MOL0     H13374   9.662   8.787   5.201 -2.2480  0.3704 -0.7598
   97MOL0     H13375   9.704   8.946   5.260  0.7497 -0.6910  0.9663
   97MOL0     H13376   9.514   8.887   5.027  1.1534 -3.0740  0.7364
   97MOL0     H13377   9.562   9.047   5.087  1.7520 -0.8208 -1.9852
   97MOL0     H13378   9.385   8.831   5.211  2.4079 -2.0954  0.8984
   97MOL0     H13379   9.464   8.968   5.310 -0.0342  1.1209 -1.9880
   97MOL0     H13380   9.241   9.037   5.248  1.1288  0.0154  0.7875
   97MOL0     H13381   9.247   8.973   5.080 -0.2050 -2.5206  0.9953
   97MOL0     H13382   9.363   9.376   5.027  1.6122  0.2363  0.1293
   97MOL0     H13383   9.945   8.918   4.889 -0.9038  0.0045  0.9802
   97MOL0     H13384  10.186   9.174   4.781 -0.4126 -0.1957  1.1376
   97MOL0     H13385  10.136   9.001   4.784  0.4646  0.0124 -0.5564
   97MOL0     H13386  10.039   9.115   4.687 -1.3529 -1.2283  0.5455
   98MOL0     O13387   5.802  10.542   6.236 -0.2114 -0.4212 -0.1922
   98MOL0     C13388   5.708  10.582   6.304  0.2040 -0.3613  0.1974
   98MOL0     O13389   5.714  10.665   6.418  0.2981  0.6564  0.0180
   98MOL0     C13390   5.841  10.671   6.472  1.1404  0.4009  0.0682
   98MOL0     C13391   5.904  10.795   6.496 -0.4245  0.7107 -0.7206
   98MOL0     C13392   6.031  10.806   6.554 -0.9977  0.2122 -0.1040
   98MOL0     C13393   6.099  10.688   6.591 -0.1661 -0.2268 -0.3745
   98MOL0     O13394   6.230  10.702   6.641 -0.1065 -0.5100 -0.0084
   98MOL0     C13395   6.304  10.581   6.680 -0.6353  0.5197 -0.5339
   98MOL0     C13396   6.416  10.634   6.760 -0.2591  0.5116 -1.7154
   98MOL0     C13397   6.521  10.709   6.673 -0.6220 -0.6439 -1.2396
   98MOL0     C13398   6.633  10.780   6.763 -0.1148  0.1265 -0.7619
   98MOL0     C13399   6.724  10.673   6.833 -0.4623  0.7531 -0.2264
   98MOL0     C13400   6.867  10.727   6.854 -0.7127  0.5391  0.2433
   98MOL0     C13401   6.959  10.609   6.902  0.0122  0.8015  0.1047
   98MOL0     C13402   7.088  10.683   6.952  0.2136 -0.1572 -0.5946
   98MOL0     N13403   7.180  10.727   6.844 -0.1101  0.3674 -0.7744
   98MOL0     C13404   7.286  10.659   6.808 -0.5473  0.0573  0.1772
   98MOL0     C13405   7.343  10.756   6.727 -0.8937 -0.4290 -0.5163
   98MOL0     C13406   7.458  10.742   6.635  0.1790  0.1116  0.2082
   98MOL0     C13407   7.580  10.667   6.692 -0.2645 -0.6295 -1.0100
   98MOL0     C13408   7.676  10.758   6.772 -0.2721 -1.4195  0.0776
   98MOL0     C13409   7.602  10.822   6.890  0.1947  0.8275 -0.3247
   98MOL0     O13410   7.535  10.728   6.970  0.4358  1.0319  0.5348
   98MOL0     C13411   7.595  10.636   7.062 -1.1218 -0.7667 -0.0023
   98MOL0     C13412   7.731  10.634   7.095 -0.5565  0.3094 -0.4039
   98MOL0     C13413   7.794  10.561   7.199 -0.2199 -0.0511 -0.3943
   98MOL0     C13414   7.944  10.567   7.227  0.6745  0.4390  0.4045
   98MOL0     C13415   7.703  10.480   7.279 -0.2393 -0.1156 -0.3263
   98MOL0     C13416   7.747  10.404   7.396 -0.0482  0.6416  0.2082
   98MOL0     O13417   7.733  10.270   7.389  0.4199  0.4259  0.6111
   98MOL0     C13418   7.726  10.192   7.504  0.8337 -0.2205 -0.4026
   98MOL0     C13419   7.640  10.230   7.615 -0.2431 -0.7500 -0.0992
   98MOL0     C13420   7.644  10.160   7.735 -0.8051  0.3799 -0.1040
   98MOL0     C13421   7.716  10.041   7.746  0.7155 -0.3595  0.0485
   98MOL0     O13422   7.709   9.977   7.870  0.2766 -0.7185 -0.0624
   98MOL0     C13423   7.731   9.837   7.883  0.2814  0.4398 -0.1536
   98MOL0     C13424   7.710   9.788   8.022  0.2852 -0.7861  0.1293
   98MOL0     C13425   7.805   9.874   8.113 -0.6260  0.0260 -0.1624
   98MOL0     C13426   7.782   9.852   8.259  0.4585  0.4798 -0.1927
   98MOL0     C13427   7.892   9.929   8.340  0.3179  0.1164  0.1049
   98MOL0     C13428   8.023   9.859   8.357 -0.1046  0.0426  0.5148
   98MOL0     C13429   8.127   9.948   8.420  0.0640  1.0397  0.5323
   98MOL0     C13430   8.113   9.952   8.572 -0.0782 -0.0499  0.6257
   98MOL0    Cl13431   8.248  10.046   8.644 -0.1848 -0.1801  0.1909
   98MOL0     C13432   7.787  10.002   7.632 -0.4037  0.7222  0.3339
   98MOL0     C13433   7.792  10.070   7.511 -1.4459  0.1827 -0.7069
   98MOL0     O13434   7.791  10.467   7.491 -0.6157  0.3439 -0.0869
   98MOL0     C13435   7.564  10.484   7.253  0.4873  0.2423  0.9221
   98MOL0     C13436   7.511  10.569   7.147  0.2493  1.4814 -0.8879
   98MOL0     N13437   7.278  10.876   6.738 -0.0624 -0.4397  0.5363
   98MOL0     N13438   7.183  10.859   6.814  0.8795  0.1288 -0.1913
   98MOL0     C13439   6.037  10.566   6.568 -1.0763 -0.8060  0.4498
   98MOL0     C13440   5.911  10.551   6.517  0.1662  0.4704 -0.0174
   98MOL0     C13441   5.569  10.533   6.280 -0.3162 -0.0967  0.8356
   98MOL0     C13442   5.476  10.530   6.386 -1.1926 -0.8664 -0.0112
   98MOL0     C13443   5.336  10.502   6.367  0.7701  0.1638  0.3616
   98MOL0     C13444   5.288  10.457   6.241 -0.5038 -0.1543 -0.7088
   98MOL0     O13445   5.167  10.405   6.212  0.1952  0.4185  0.3159
   98MOL0     C13446   5.093  10.355   6.327 -0.1531  0.4758 -0.3059
   98MOL0     C13447   4.991  10.454   6.387 -0.6394  1.3784 -0.3357
   98MOL0     C13448   4.937  10.417   6.531 -0.0626  0.7666  0.3352
   98MOL0     C13449   5.030  10.417   6.643 -0.2565  0.3472 -0.5783
   98MOL0     C13450   4.999  10.320   6.757 -0.6339  0.2642 -0.8112
   98MOL0     C13451   4.989  10.217   6.823 -0.2643 -0.3149  0.2852
   98MOL0     C13452   5.379  10.466   6.138 -0.4728  1.0138 -0.2455
   98MOL0     C13453   5.513  10.506   6.151  0.2691 -1.7308 -0.7098
   98MOL0     C13454   5.604  10.518   6.022 -0.2262  0.7790 -0.0454
   98MOL0     H13455   5.852  10.887   6.469 -1.3209  0.6457  0.6595
   98MOL0     H13456   6.089  10.896   6.573  3.2273 -1.9561 -1.4061
   98MOL0     H13457   6.346  10.516   6.604  1.3032 -3.3975  3.4116
   98MOL0     H13458   6.237  10.526   6.747 -0.0244  0.1450 -0.2308
   98MOL0     H13459   6.370  10.693   6.840  0.4218 -1.1929  0.0246
   98MOL0     H13460   6.464  10.551   6.813  0.5205  1.7998 -0.3257
   98MOL0     H13461   6.566  10.644   6.597  3.4199  1.1011 -0.5616
   98MOL0     H13462   6.469  10.794   6.627 -1.1806 -0.1365  0.2789
   98MOL0     H13463   6.679  10.857   6.700  0.3051 -0.2558 -0.9286
   98MOL0     H13464   6.578  10.840   6.836  0.6878  3.7384 -2.8933
   98MOL0     H13465   6.727  10.587   6.766 -0.3192  0.0514  0.6584
   98MOL0     H13466   6.682  10.645   6.930  1.6990  2.3890  1.2916
   98MOL0     H13467   6.904  10.780   6.766 -0.9406  0.1196 -0.1079
   98MOL0     H13468   6.858  10.797   6.938  2.7993 -0.8270  1.9630
   98MOL0     H13469   6.991  10.536   6.826  0.4864 -1.4351  2.3131
   98MOL0     H13470   6.915  10.556   6.987  1.9650 -1.8231 -0.3890
   98MOL0     H13471   7.062  10.762   7.022  1.8161  0.7668 -0.9952
   98MOL0     H13472   7.150  10.618   7.015  0.9253  0.8195 -0.2657
   98MOL0     H13473   7.316  10.555   6.822  0.3841  0.0722 -1.4477
   98MOL0     H13474   7.486  10.838   6.591 -0.6035 -0.0998 -0.8061
   98MOL0     H13475   7.424  10.677   6.553 -2.5007  0.9043  0.5938
   98MOL0     H13476   7.555  10.590   6.765  1.3017 -0.6198 -0.4213
   98MOL0     H13477   7.640  10.631   6.608 -1.9051  0.3476 -2.7047
   98MOL0     H13478   7.758  10.693   6.806  2.9165  0.2252 -3.7184
   98MOL0     H13479   7.714  10.835   6.705  0.9429  0.4822  2.7735
   98MOL0     H13480   7.671  10.884   6.948  2.2975 -0.4439 -1.3457
   98MOL0     H13481   7.528  10.894   6.854  0.5800  1.9103  0.9464
   98MOL0     H13482   7.800  10.683   7.028 -3.2751 -1.1203 -4.6436
   98MOL0     H13483   7.999  10.486   7.179  1.5109 -1.4360  4.1190
   98MOL0     H13484   7.960  10.554   7.335 -1.9941 -1.1850  0.7062
   98MOL0     H13485   7.992  10.660   7.196  2.3126 -0.5544 -0.1753
   98MOL0     H13486   7.578  10.319   7.613 -1.4992 -1.5098  1.9969
   98MOL0     H13487   7.587  10.219   7.807  0.7246  0.2408  1.2851
   98MOL0     H13488   7.659   9.790   7.815 -1.1953  1.3907  0.6891
   98MOL0     H13489   7.830   9.809   7.846  1.0844  0.8276  1.6032
   98MOL0     H13490   7.606   9.810   8.049  0.3710  0.6334 -0.6312
   98MOL0     H13491   7.741   9.683   8.033 -2.1937 -1.5359  0.8609
   98MOL0     H13492   7.790   9.981   8.096 -3.5027 -0.0622  1.1867
   98MOL0     H13493   7.909   9.845   8.094  0.2961  0.6226  3.3263
   98MOL0     H13494   7.792   9.743   8.262  2.7513  0.6415  2.4282
   98MOL0     H13495   7.681   9.883   8.287 -0.0378  0.9257 -2.3377
   98MOL0     H13496   7.908  10.024   8.287  2.8196 -0.7925 -0.9080
   98MOL0     H13497   7.845   9.942   8.438 -2.9192 -3.7241 -0.6883
   98MOL0     H13498   8.058   9.837   8.255  1.6576  1.4415  0.7691
   98MOL0     H13499   8.009   9.762   8.404 -0.6105  0.1863  0.6738
   98MOL0     H13500   8.114  10.052   8.390 -1.6151  1.9175  3.7574
   98MOL0     H13501   8.227   9.916   8.393 -1.3137 -1.6423 -1.9179
   98MOL0     H13502   8.120   9.847   8.603 -0.4916  0.5248  2.8647
   98MOL0     H13503   8.023  10.009   8.597 -0.0304  0.5430 -0.4953
   98MOL0     H13504   7.842   9.909   7.625 -1.6446  0.0300 -0.5995
   98MOL0     H13505   7.834  10.023   7.422  1.0157 -2.9000  1.8422
   98MOL0     H13506   7.495  10.418   7.305  0.5258 -0.0990  0.5478
   98MOL0     H13507   7.403  10.563   7.146  0.3212 -2.5479 -0.0509
   98MOL0     H13508   6.101  10.479   6.580 -0.4366 -0.2587  1.1597
   98MOL0     H13509   5.874  10.450   6.504  2.4387 -0.4633  0.2324
   98MOL0     H13510   5.506  10.560   6.486 -0.0415  0.7554 -0.8047
   98MOL0     H13511   5.269  10.505   6.452  1.7651 -1.8953  1.2757
   98MOL0     H13512   5.042  10.264   6.294 -1.0255  1.0261 -0.4894
   98MOL0     H13513   5.149  10.310   6.409 -1.3006 -0.5536 -0.0669
   98MOL0     H13514   4.900  10.474   6.330 -2.5694  1.3739  2.5388
   98MOL0     H13515   5.042  10.550   6.397 -0.1197  1.2384 -1.4559
   98MOL0     H13516   4.867  10.496   6.558  1.1596  1.2838  2.1709
   98MOL0     H13517   4.884  10.321   6.526  0.2555  0.6615 -2.3796
   98MOL0     H13518   5.032  10.516   6.690  3.4741  0.5209 -0.7811
   98MOL0     H13519   5.133  10.419   6.604 -0.1198 -0.2874 -0.2529
   98MOL0     H13520   4.972  10.126   6.877 -2.6611  0.2737  0.6330
   98MOL0     H13521   5.341  10.457   6.037  1.1510 -0.1948 -0.7905
   98MOL0     H13522   5.679  10.597   6.020  1.2045 -0.5561 -0.3940
   98MOL0     H13523   5.644  10.425   5.981  0.0518  1.5891 -1.6847
   98MOL0     H13524   5.538  10.541   5.937 -2.4842 -1.9390  0.7986
   99MOL0     O13525   9.159  10.736   3.719  0.5068 -0.0750 -0.2990
   99MOL0     C13526   9.163  10.846   3.762  0.6506 -0.6568  0.4427
   99MOL0     O13527   9.277  10.925   3.761  0.2542 -0.1649  0.5338
   99MOL0     C13528   9.397  10.882   3.701 -0.0268 -0.5743  0.0082
   99MOL0     C13529   9.518  10.904   3.773  0.7080  0.3591  0.3703
   99MOL0     C13530   9.638  10.872   3.710  0.3671 -0.4498  1.8504
   99MOL0     C13531   9.634  10.843   3.569 -1.3437 -0.9315  0.7650
   99MOL0     O13532   9.759  10.855   3.510 -0.5641  0.0344  0.0588
   99MOL0     C13533   9.778  10.855   3.370  0.5448 -0.6041  0.0372
   99MOL0     C13534   9.747  11.001   3.330 -0.2742 -0.3016 -0.0666
   99MOL0     C13535   9.763  11.022   3.183 -0.2091 -0.7921 -0.6479
   99MOL0     C13536   9.904  11.023   3.122  0.2327 -0.5964  0.9955
   99MOL0     C13537  10.015  11.087   3.199  0.5836 -0.2480  0.5804
   99MOL0     C13538  10.133  11.109   3.112 -0.7618  0.1488  0.3566
   99MOL0     C13539  10.237  11.186   3.188  0.7638  0.8445  0.4037
   99MOL0     C13540  10.311  11.097   3.285 -0.1060  0.6405 -0.1083
   99MOL0     N13541  10.416  11.180   3.361  1.0269  0.5235 -0.6256
   99MOL0     C13542  10.530  11.247   3.313 -0.5486 -1.0693  0.0513
   99MOL0     C13543  10.587  11.319   3.411  0.7668 -0.0893  0.7992
   99MOL0     C13544  10.707  11.413   3.401 -0.3059 -0.0797  0.5913
   99MOL0     C13545  10.823  11.369   3.489  0.6762 -0.8926  0.7108
   99MOL0     C13546  10.893  11.243   3.456 -0.5715 -0.0477 -0.0517
   99MOL0     C13547  11.027  11.275   3.393 -0.2678 -0.0042 -0.1686
   99MOL0     O13548  11.114  11.314   3.497 -0.2356 -0.3083 -0.1031
   99MOL0     C13549  11.219  11.389   3.463  0.0538  0.7218  0.2101
   99MOL0     C13550  11.286  11.453   3.569  0.6436 -0.7947 -0.2965
   99MOL0     C13551  11.417  11.503   3.556 -1.2755 -1.0262  0.0606
   99MOL0     C13552  11.485  11.558   3.677 -0.3860  0.2446  0.1796
   99MOL0     C13553  11.478  11.499   3.422  0.8991 -0.2701 -0.4566
   99MOL0     C13554  11.603  11.557   3.385  0.9318  0.5972  0.3267
   99MOL0     O13555  11.664  11.502   3.280 -0.3035  1.4603 -0.5026
   99MOL0     C13556  11.789  11.551   3.246  0.2262 -0.3087  0.2538
   99MOL0     C13557  11.808  11.684   3.202 -0.0442  0.1189  1.0621
   99MOL0     C13558  11.935  11.730   3.155 -1.0676 -0.3729  0.3438
   99MOL0     C13559  12.043  11.644   3.149 -0.8971 -0.5604  0.7497
   99MOL0     O13560  12.167  11.689   3.105  0.5584  0.6702  0.0720
   99MOL0     C13561  12.289  11.612   3.121 -0.9341 -0.1422 -1.0117
   99MOL0     C13562  12.344  11.624   3.259  0.1046  0.1156 -0.5878
   99MOL0     C13563  12.492  11.580   3.268 -0.3464  0.9822  0.9519
   99MOL0     C13564  12.598  11.679   3.233  0.0187 -0.4887 -0.1686
   99MOL0     C13565  12.739  11.634   3.242 -0.5438 -0.0167 -0.2743
   99MOL0     C13566  12.818  11.763   3.260  0.4685  0.3976  0.8250
   99MOL0     C13567  12.967  11.750   3.298 -0.0382  1.6179 -0.0687
   99MOL0     C13568  13.022  11.887   3.338  0.1119 -0.2950 -0.8905
   99MOL0    Cl13569  13.199  11.904   3.344 -0.1186 -0.0688 -0.3777
   99MOL0     C13570  12.025  11.516   3.205  0.2760  0.5587  0.0019
   99MOL0     C13571  11.899  11.472   3.249  0.2686  0.2221 -0.0199
   99MOL0     O13572  11.651  11.651   3.450  0.2011 -0.0433  0.0462
   99MOL0     C13573  11.399  11.457   3.315 -0.7784 -0.0765  0.2425
   99MOL0     C13574  11.279  11.386   3.336 -0.5419  0.7870 -0.4339
   99MOL0     N13575  10.512  11.279   3.530 -0.6725  0.8314  0.2564
   99MOL0     N13576  10.409  11.210   3.495 -0.2135  1.0837 -0.1905
   99MOL0     C13577   9.521  10.817   3.496  0.3254 -0.5314  0.2327
   99MOL0     C13578   9.394  10.838   3.560 -0.5662  0.1913  0.0798
   99MOL0     C13579   9.045  10.911   3.802 -0.0377 -0.9440 -0.7418
   99MOL0     C13580   9.034  11.053   3.789  0.0809 -0.4051  0.0265
   99MOL0     C13581   8.932  11.129   3.841  0.4334 -0.7862 -0.0205
   99MOL0     C13582   8.826  11.059   3.908 -0.0886 -0.5794  0.1522
   99MOL0     O13583   8.713  11.143   3.923 -0.4448 -0.2428 -0.2740
   99MOL0     C13584   8.617  11.102   4.019  0.3629  0.0904  0.2278
   99MOL0     C13585   8.506  11.199   3.982 -0.4280 -0.4672  0.8551
   99MOL0     C13586   8.531  11.346   4.021  0.1868  0.5190 -0.5886
   99MOL0     C13587   8.525  11.364   4.174  0.9713 -0.5872 -0.5872
   99MOL0     C13588   8.396  11.349   4.236  0.1367 -0.3233  0.3333
   99MOL0     C13589   8.289  11.332   4.292  0.6876 -0.1964  0.3233
   99MOL0     C13590   8.837  10.924   3.920  0.8436 -0.4964 -0.6390
   99MOL0     C13591   8.934  10.847   3.861  0.3506 -0.2056 -0.3407
   99MOL0     C13592   8.909  10.700   3.854  0.1597  0.1419  0.4413
   99MOL0     H13593   9.515  10.951   3.870  0.6055  1.7725 -0.2980
   99MOL0     H13594   9.724  10.885   3.775 -0.2644  0.1570  2.5886
   99MOL0     H13595   9.710  10.791   3.312 -1.6405  2.6587 -1.2832
   99MOL0     H13596   9.881  10.828   3.344  0.0819  0.0659 -2.8799
   99MOL0     H13597   9.643  11.025   3.352  0.9427  3.2476  2.9187
   99MOL0     H13598   9.805  11.075   3.388 -0.9768  0.8677 -0.8265
   99MOL0     H13599   9.712  10.944   3.125 -0.9662 -0.9195  0.1629
   99MOL0     H13600   9.714  11.117   3.161 -0.7709 -1.1310 -0.8788
   99MOL0     H13601   9.930  10.921   3.092 -1.3542 -0.3772 -1.4504
   99MOL0     H13602   9.899  11.067   3.023 -1.2009 -0.5462  1.0685
   99MOL0     H13603  10.032  11.024   3.286 -0.3225 -0.9614  0.2552
   99MOL0     H13604   9.978  11.187   3.224  2.3445  1.0625 -1.6637
   99MOL0     H13605  10.178  11.024   3.061 -2.2048  1.2868 -3.0696
   99MOL0     H13606  10.103  11.178   3.033  2.2416 -0.8034 -1.8110
   99MOL0     H13607  10.181  11.262   3.242 -0.1105 -0.0441  0.7822
   99MOL0     H13608  10.309  11.232   3.120 -0.6348 -0.4245 -2.0612
   99MOL0     H13609  10.239  11.064   3.361 -1.2372  2.8513 -0.1599
   99MOL0     H13610  10.361  11.012   3.237 -2.4412 -1.7067  1.3017
   99MOL0     H13611  10.567  11.265   3.213  1.0684  2.1766  1.0618
   99MOL0     H13612  10.674  11.515   3.427  0.7467  0.9419 -1.7698
   99MOL0     H13613  10.741  11.424   3.297  0.8114  0.6537  1.0236
   99MOL0     H13614  10.892  11.455   3.494 -0.8283  0.2923  2.4143
   99MOL0     H13615  10.785  11.365   3.591  2.8739  3.6179  1.9783
   99MOL0     H13616  10.903  11.178   3.543 -1.8437  0.4921  0.5308
   99MOL0     H13617  10.835  11.181   3.387  0.1637 -0.5029 -0.2644
   99MOL0     H13618  11.064  11.182   3.350 -1.4626 -0.1401 -0.9323
   99MOL0     H13619  11.000  11.340   3.309 -1.7961 -1.3326 -0.7544
   99MOL0     H13620  11.243  11.460   3.669 -0.0011 -1.7404 -0.4996
   99MOL0     H13621  11.408  11.559   3.755  0.1028 -2.1959  0.7706
   99MOL0     H13622  11.503  11.666   3.667 -1.9259  0.9885  3.8731
   99MOL0     H13623  11.577  11.506   3.703 -1.5364 -1.7129  0.4819
   99MOL0     H13624  11.723  11.751   3.191 -0.9088 -1.3391 -4.0612
   99MOL0     H13625  11.952  11.832   3.123  1.8021 -1.0269 -0.4476
   99MOL0     H13626  12.274  11.507   3.094  0.9847 -0.1867 -2.1120
   99MOL0     H13627  12.365  11.634   3.046 -2.2273 -0.2227 -2.3880
   99MOL0     H13628  12.331  11.726   3.296 -0.7938 -0.1736 -0.0686
   99MOL0     H13629  12.287  11.560   3.327 -0.6978  0.1499 -1.2162
   99MOL0     H13630  12.505  11.494   3.201  3.3765  0.8078  1.6643
   99MOL0     H13631  12.513  11.549   3.371 -2.4076  2.7169  1.9577
   99MOL0     H13632  12.569  11.767   3.291  0.8718  0.7158 -1.5119
   99MOL0     H13633  12.581  11.701   3.127  2.9258 -1.1633 -0.8568
   99MOL0     H13634  12.759  11.575   3.331 -1.4409 -0.5065 -0.3880
   99MOL0     H13635  12.770  11.573   3.156 -0.5375 -0.2646 -0.0934
   99MOL0     H13636  12.765  11.828   3.331 -2.2678 -3.2439  2.4286
   99MOL0     H13637  12.817  11.815   3.163  2.6731 -0.0159  0.5090
   99MOL0     H13638  13.023  11.722   3.209  2.0161  1.2210  1.2876
   99MOL0     H13639  12.993  11.676   3.374  1.5853  0.2976 -1.8383
   99MOL0     H13640  12.962  11.925   3.421  1.4276  0.6242 -0.3353
   99MOL0     H13641  12.998  11.959   3.259 -0.9781  0.9332  0.5148
   99MOL0     H13642  12.103  11.441   3.202 -0.6494 -0.4908  0.9565
   99MOL0     H13643  11.877  11.376   3.295 -5.9958  0.5863 -1.3809
   99MOL0     H13644  11.440  11.475   3.216 -1.2982  0.8317  0.1766
   99MOL0     H13645  11.220  11.342   3.255 -1.3901 -2.4303  1.7210
   99MOL0     H13646   9.521  10.775   3.396  0.7349  0.4767 -0.2107
   99MOL0     H13647   9.297  10.816   3.517  0.2253 -0.5866 -1.3797
   99MOL0     H13648   9.117  11.109   3.746  0.4560  1.2608  2.6932
   99MOL0     H13649   8.934  11.236   3.828 -0.5976 -0.7736 -0.1614
   99MOL0     H13650   8.582  10.999   4.009 -1.6027  0.7789 -0.6819
   99MOL0     H13651   8.658  11.112   4.120  3.1852 -0.8610 -0.7499
   99MOL0     H13652   8.414  11.161   4.029 -0.4637  0.5426  1.6477
   99MOL0     H13653   8.494  11.191   3.874  1.7747 -1.1887  0.6033
   99MOL0     H13654   8.627  11.373   3.977  1.0008 -0.8187  0.3050
   99MOL0     H13655   8.462  11.421   3.981 -2.8088 -0.6055  2.0486
   99MOL0     H13656   8.566  11.463   4.197 -0.8598  0.7830 -2.7883
   99MOL0     H13657   8.598  11.295   4.217  0.2590 -1.1894 -0.3308
   99MOL0     H13658   8.200  11.322   4.350  0.9000  1.9379  1.1328
   99MOL0     H13659   8.749  10.883   3.968  0.0615  1.3710 -0.3600
   99MOL0     H13660   8.949  10.660   3.948 -0.8522  1.2830  1.3881
   99MOL0     H13661   8.803  10.672   3.849 -0.4256  1.7398  2.6352
   99MOL0     H13662   8.951  10.649   3.767 -1.6783  2.5570 -2.0466
  100MOL0     O13663  11.336   3.106  10.031 -0.3905 -0.2821 -0.8931
  100MOL0     C13664  11.291   2.997  10.007  0.1262 -0.5676  0.1521
  100MOL0     O13665  11.303   2.934   9.885  0.4598 -0.6298  0.1017
  100MOL0     C13666  11.419   2.959   9.814  0.0879  0.2843 -0.2213
  100MOL0     C13667  11.410   2.926   9.681  0.2336 -0.4834 -1.1094
  100MOL0     C13668  11.527   2.929   9.602  0.0517 -0.4638 -0.7436
  100MOL0     C13669  11.647   2.944   9.668  1.3663 -0.5312 -0.1467
  100MOL0     O13670  11.769   2.940   9.597  0.2478 -0.3744 -0.3812
  100MOL0     C13671  11.769   2.917   9.455  0.3877  0.3984 -1.0063
  100MOL0     C13672  11.916   2.920   9.402  0.9005 -0.2173 -0.2655
  100MOL0     C13673  11.903   2.915   9.245 -0.2901 -0.4328  0.3204
  100MOL0     C13674  12.046   2.919   9.174 -0.0980  0.0967  0.3586
  100MOL0     C13675  12.056   2.933   9.017 -0.5430  0.9894 -0.4599
  100MOL0     C13676  12.189   2.895   8.969  0.2983  0.0499 -0.6780
  100MOL0     C13677  12.306   2.991   9.005 -0.0646  0.9561  0.8727
  100MOL0     C13678  12.281   3.131   8.941  0.4748  0.5451 -0.4839
  100MOL0     N13679  12.404   3.213   8.914 -0.2614 -0.5860 -0.6860
  100MOL0     C13680  12.483   3.258   9.019 -0.0933  0.1111 -0.5102
  100MOL0     C13681  12.568   3.343   8.963  0.1236 -1.0017  0.0985
  100MOL0     C13682  12.668   3.436   9.024  0.6049  0.3062 -0.4823
  100MOL0     C13683  12.631   3.577   8.985 -0.7576 -0.1971 -0.1748
  100MOL0     C13684  12.735   3.671   9.038  0.4079  0.2242  0.7057
  100MOL0     C13685  12.717   3.819   9.002 -0.3215 -0.7130  0.2669
  100MOL0     O13686  12.704   3.842   8.857  1.0083  0.6453 -0.1720
  100MOL0     C13687  12.818   3.864   8.784 -0.2209 -0.6845  0.0786
  100MOL0     C13688  12.853   3.802   8.662  0.2702  0.0920  0.5759
  100MOL0     C13689  12.959   3.831   8.580 -0.4214 -0.1576 -0.0625
  100MOL0     C13690  12.974   3.750   8.453 -0.2370  0.0879 -0.5512
  100MOL0     C13691  13.055   3.928   8.628  0.2378  0.2592  0.1782
  100MOL0     C13692  13.184   3.967   8.562 -0.2267 -0.3683 -0.4365
  100MOL0     O13693  13.259   4.071   8.608 -0.3632  0.6217  0.4205
  100MOL0     C13694  13.367   4.127   8.540 -0.3558  0.3500  0.4237
  100MOL0     C13695  13.468   4.040   8.507 -0.5564  0.5946 -0.0002
  100MOL0     C13696  13.575   4.079   8.435  0.7207  0.0490 -0.1717
  100MOL0     C13697  13.599   4.214   8.402 -0.4590 -0.2637  0.4094
  100MOL0     O13698  13.721   4.235   8.347  0.0732  0.4199  0.0804
  100MOL0     C13699  13.772   4.369   8.339 -0.5467 -0.2027  0.1054
  100MOL0     C13700  13.918   4.390   8.381 -0.2784  0.4944  0.3579
  100MOL0     C13701  13.965   4.536   8.383 -0.4023 -0.3634  0.3153
  100MOL0     C13702  14.118   4.541   8.391 -0.8309  0.4686  0.2698
  100MOL0     C13703  14.170   4.689   8.388  0.5626  0.9153  0.4474
  100MOL0     C13704  14.140   4.753   8.249  0.4725  0.0844  0.6981
  100MOL0     C13705  14.219   4.879   8.218 -0.1435 -0.2803  0.0300
  100MOL0     C13706  14.207   4.932   8.074 -1.1568 -0.7359  0.7580
  100MOL0    Cl13707  14.260   5.108   8.056 -0.0196  0.6711  0.2125
  100MOL0     C13708  13.491   4.300   8.423  0.5013  0.3672 -0.7675
  100MOL0     C13709  13.378   4.255   8.495 -0.4706 -0.0251  0.7623
  100MOL0     O13710  13.213   3.896   8.471  0.1632 -0.1206  0.3059
  100MOL0     C13711  13.027   3.994   8.742  0.2119  0.6214 -0.7544
  100MOL0     C13712  12.908   3.970   8.812  0.3077  0.2883 -0.3717
  100MOL0     N13713  12.544   3.340   8.826  0.7427  0.4496 -0.0797
  100MOL0     N13714  12.450   3.261   8.802  0.5941 -0.8020  0.8440
  100MOL0     C13715  11.658   2.970   9.803  0.4907 -0.1320  0.0568
  100MOL0     C13716  11.537   2.978   9.876 -0.9576  0.2681 -0.6158
  100MOL0     C13717  11.219   2.928  10.113  0.2477 -0.1552  0.3918
  100MOL0     C13718  11.182   3.001  10.231  0.1054  0.1821  0.2518
  100MOL0     C13719  11.122   2.930  10.338  0.3578  0.4071  0.6090
  100MOL0     C13720  11.083   2.797  10.326 -1.1203  0.6088  0.7371
  100MOL0     O13721  10.989   2.752  10.423  0.2575 -0.5310 -1.0936
  100MOL0     C13722  10.928   2.623  10.415  1.0502  0.5197 -0.5857
  100MOL0     C13723  10.815   2.626  10.310 -1.5493 -0.6451 -0.9769
  100MOL0     C13724  10.758   2.482  10.282  0.5978  0.5943  0.4283
  100MOL0     C13725  10.737   2.443  10.140  0.0008  0.5033  0.1794
  100MOL0     C13726  10.871   2.450  10.080  0.3636  0.9390  0.5348
  100MOL0     C13727  10.982   2.437  10.025  0.3869  0.1754 -1.1250
  100MOL0     C13728  11.129   2.729  10.208  0.5891 -0.1650 -0.4296
  100MOL0     C13729  11.191   2.792  10.103 -0.0935  0.0445 -0.2204
  100MOL0     C13730  11.234   2.700   9.995  0.2972  0.5865  0.1617
  100MOL0     H13731  11.313   2.899   9.640  0.6888 -0.2910 -2.3642
  100MOL0     H13732  11.508   2.925   9.495  0.1422 -0.2709 -0.7688
  100MOL0     H13733  11.700   2.986   9.405 -1.7354 -1.8156 -1.3055
  100MOL0     H13734  11.734   2.814   9.452 -1.4150  0.6841  3.1651
  100MOL0     H13735  11.967   3.002   9.452  3.7864 -2.3770  0.5711
  100MOL0     H13736  11.965   2.828   9.435  2.9384  0.9136 -0.0325
  100MOL0     H13737  11.851   2.825   9.210  1.0461 -1.0295 -0.1747
  100MOL0     H13738  11.846   3.003   9.214 -0.1294 -0.6028 -0.4677
  100MOL0     H13739  12.106   3.003   9.211  0.6098 -0.2262 -0.0372
  100MOL0     H13740  12.094   2.823   9.196  1.9234  0.5675 -1.6157
  100MOL0     H13741  12.031   3.035   8.986 -2.2907  0.7388  0.0195
  100MOL0     H13742  11.988   2.858   8.977  0.1596 -0.0264  0.1943
  100MOL0     H13743  12.223   2.803   9.017  0.4014  0.2051 -0.4551
  100MOL0     H13744  12.191   2.878   8.861  0.0857  0.1298 -0.6949
  100MOL0     H13745  12.393   2.949   8.954 -0.4428  0.9273  0.2338
  100MOL0     H13746  12.322   2.998   9.113  3.3054 -1.2872  0.6547
  100MOL0     H13747  12.233   3.120   8.844 -1.2451 -1.5599  0.5166
  100MOL0     H13748  12.223   3.183   9.017  1.3091 -0.0025  0.5601
  100MOL0     H13749  12.474   3.231   9.124  0.9565 -1.1419 -0.7127
  100MOL0     H13750  12.765   3.406   8.982  1.2715 -2.0607  2.4121
  100MOL0     H13751  12.676   3.418   9.132 -3.4488 -0.2449 -0.1179
  100MOL0     H13752  12.627   3.584   8.876  2.1709  0.1811 -0.3347
  100MOL0     H13753  12.533   3.606   9.025 -0.3305 -0.0952  0.8343
  100MOL0     H13754  12.731   3.652   9.146  0.3440 -3.3630  0.2135
  100MOL0     H13755  12.831   3.639   8.998 -0.6979  0.4226 -2.3459
  100MOL0     H13756  12.630   3.853   9.059 -0.7848 -0.0067 -0.8360
  100MOL0     H13757  12.801   3.873   9.046 -0.6855  0.6525 -0.6729
  100MOL0     H13758  12.792   3.716   8.636  0.8065 -0.4384  1.0568
  100MOL0     H13759  13.005   3.811   8.368 -0.8521  0.3624 -0.5826
  100MOL0     H13760  12.875   3.711   8.429 -0.7976  0.8064  0.5325
  100MOL0     H13761  13.042   3.666   8.469  2.0433  2.1642  1.3098
  100MOL0     H13762  13.465   3.932   8.509 -0.7418  0.5458 -1.5743
  100MOL0     H13763  13.640   3.999   8.400 -2.2526 -3.2266  1.2473
  100MOL0     H13764  13.759   4.401   8.235  4.1848  0.3121 -0.5453
  100MOL0     H13765  13.715   4.436   8.403 -0.4123 -0.6840  0.7404
  100MOL0     H13766  13.932   4.362   8.486  2.3040  1.8742  0.4449
  100MOL0     H13767  13.982   4.333   8.313 -1.8757 -0.2631 -0.5574
  100MOL0     H13768  13.922   4.597   8.463  0.8166  2.4605 -1.0307
  100MOL0     H13769  13.936   4.576   8.285  1.4383  0.0428 -0.1063
  100MOL0     H13770  14.178   4.482   8.322  0.2692  0.6177  1.0698
  100MOL0     H13771  14.145   4.492   8.485  0.0678 -1.3876 -0.8946
  100MOL0     H13772  14.122   4.749   8.465 -1.5424  1.2689 -1.0339
  100MOL0     H13773  14.277   4.694   8.408  0.6212  1.0343  0.1194
  100MOL0     H13774  14.036   4.779   8.229  0.9051  1.2873 -0.1757
  100MOL0     H13775  14.164   4.680   8.171 -0.0352  0.5088  0.1285
  100MOL0     H13776  14.324   4.861   8.241  0.4077  2.4825  0.0225
  100MOL0     H13777  14.190   4.960   8.285 -0.7142  2.1242 -2.8852
  100MOL0     H13778  14.107   4.924   8.033 -1.3218  1.2968  0.6292
  100MOL0     H13779  14.270   4.868   8.012 -3.8137  0.4774 -3.6874
  100MOL0     H13780  13.482   4.402   8.389 -1.5995  0.5995  0.3280
  100MOL0     H13781  13.302   4.329   8.518  0.6869  1.1652  0.8910
  100MOL0     H13782  13.089   4.066   8.794 -1.9962 -0.1386  3.3854
  100MOL0     H13783  12.894   4.049   8.885  1.9004  0.1045  0.1704
  100MOL0     H13784  11.754   2.978   9.852 -0.0290  1.4707  0.8687
  100MOL0     H13785  11.551   2.993   9.982  0.7793 -0.1082 -0.7616
  100MOL0     H13786  11.222   3.102  10.233 -0.0943  0.3645 -1.8913
  100MOL0     H13787  11.095   2.980  10.431  0.0906  2.7002 -0.6110
  100MOL0     H13788  10.999   2.544  10.388 -0.7046 -0.8256 -1.4612
  100MOL0     H13789  10.878   2.589  10.507 -0.2787 -2.0946 -2.1509
  100MOL0     H13790  10.847   2.679  10.220 -0.3818 -0.7531 -0.6519
  100MOL0     H13791  10.741   2.688  10.360  0.6933  1.9154 -0.6026
  100MOL0     H13792  10.820   2.403  10.326  0.2247  0.0957  0.0728
  100MOL0     H13793  10.662   2.467  10.334 -0.2281 -0.6810 -1.3772
  100MOL0     H13794  10.650   2.499  10.103 -1.7757 -2.1210  0.1527
  100MOL0     H13795  10.705   2.339  10.133 -1.4688  0.8626  1.0162
  100MOL0     H13796  11.066   2.434   9.958  0.6877 -0.4174 -0.7231
  100MOL0     H13797  11.112   2.622  10.216  1.9087 -0.5400 -2.0709
  100MOL0     H13798  11.228   2.594  10.023  1.6281  0.3376 -0.3949
  100MOL0     H13799  11.159   2.711   9.916 -0.5010 -1.3971  0.5888
  100MOL0     H13800  11.334   2.735   9.965 -0.2606  0.3416 -2.1122
  101MOL0     O13801   9.471   9.727   7.001  0.1845 -0.4336 -0.1136
  101MOL0     C13802   9.499   9.840   7.051  0.6629  0.2779 -0.6064
  101MOL0     O13803   9.623   9.891   7.067 -0.8464  0.8043  0.8440
  101MOL0     C13804   9.731   9.812   7.055  0.1280 -0.3925 -0.7215
  101MOL0     C13805   9.734   9.696   7.131 -0.1431  1.1367 -0.2227
  101MOL0     C13806   9.851   9.621   7.129  0.5878  0.1578 -0.8392
  101MOL0     C13807   9.962   9.671   7.062 -0.2068 -0.4463  0.8085
  101MOL0     O13808  10.084   9.619   7.048 -0.3202  0.3229  0.7460
  101MOL0     C13809  10.089   9.469   7.071  0.6563 -0.3261  0.2995
  101MOL0     C13810  10.202   9.396   6.999 -0.6551  0.4650  0.0007
  101MOL0     C13811  10.339   9.446   7.017 -0.4147  0.2416 -0.1136
  101MOL0     C13812  10.394   9.393   7.152 -0.8519 -0.0422  0.0964
  101MOL0     C13813  10.534   9.435   7.197  0.2129 -0.2860  0.1737
  101MOL0     C13814  10.553   9.424   7.350  0.2974  0.6013  0.2633
  101MOL0     C13815  10.691   9.459   7.388 -1.4249  0.0147  0.3255
  101MOL0     C13816  10.705   9.494   7.534  0.2200 -0.8897  0.0075
  101MOL0     N13817  10.646   9.388   7.622 -0.4760  0.4753  0.4258
  101MOL0     C13818  10.674   9.255   7.614 -0.8453  0.2917 -0.6474
  101MOL0     C13819  10.601   9.194   7.711 -0.6475  0.4538 -0.3942
  101MOL0     C13820  10.593   9.046   7.750  0.5617 -0.0220  0.7840
  101MOL0     C13821  10.443   9.001   7.761  0.3586 -0.0327  0.0230
  101MOL0     C13822  10.393   9.023   7.899 -0.9763 -0.3049 -0.4752
  101MOL0     C13823  10.253   8.982   7.925  0.5626  0.1038 -0.4668
  101MOL0     O13824  10.167   9.052   7.834  0.2431 -0.2623 -0.6702
  101MOL0     C13825  10.082   9.147   7.879 -0.0692  0.2262 -1.1605
  101MOL0     C13826   9.968   9.155   7.814  0.2569 -0.8287  0.5034
  101MOL0     C13827   9.873   9.261   7.841  0.5026  0.3134  0.2345
  101MOL0     C13828   9.741   9.253   7.767  0.2060  0.1584 -0.4960
  101MOL0     C13829   9.899   9.354   7.943 -0.8846 -0.3444 -0.2497
  101MOL0     C13830   9.802   9.464   7.983  0.7038  0.2527 -1.9812
  101MOL0     O13831   9.670   9.448   7.982 -0.3052 -0.0310  0.4924
  101MOL0     C13832   9.597   9.551   8.024 -0.6272 -0.2681 -0.3570
  101MOL0     C13833   9.564   9.646   7.921  0.2564  0.0844 -0.2962
  101MOL0     C13834   9.479   9.742   7.943 -0.4181 -0.3652  0.1172
  101MOL0     C13835   9.419   9.759   8.068  0.0817 -0.6526  0.1674
  101MOL0     O13836   9.333   9.868   8.099 -0.0182 -0.3836 -0.3173
  101MOL0     C13837   9.353   9.990   8.020  0.9416 -0.5576 -0.0314
  101MOL0     C13838   9.251  10.096   8.063  0.2238  0.5183  0.1215
  101MOL0     C13839   9.264  10.163   8.199  0.0310  0.2765  0.3858
  101MOL0     C13840   9.145  10.258   8.225  0.8024  0.9532  0.2887
  101MOL0     C13841   9.191  10.404   8.201 -0.0145 -0.7654  0.0441
  101MOL0     C13842   9.076  10.512   8.236 -0.0545 -0.0356  0.2408
  101MOL0     C13843   9.125  10.662   8.220  0.5204 -1.0980  0.1213
  101MOL0     C13844   9.013  10.760   8.264 -0.3274 -0.2950  1.1624
  101MOL0    Cl13845   8.947  10.723   8.418 -0.0696 -0.0260 -0.1177
  101MOL0     C13846   9.465   9.675   8.175  0.8403  0.3925  0.2160
  101MOL0     C13847   9.536   9.563   8.149  0.4137  0.5400 -0.3097
  101MOL0     O13848   9.861   9.554   8.045  0.2720  0.0748  0.0328
  101MOL0     C13849  10.020   9.336   8.010 -1.0072 -0.2249  0.4315
  101MOL0     C13850  10.114   9.236   7.982  0.8707 -0.0315  0.1853
  101MOL0     N13851  10.528   9.293   7.776 -0.4090  0.5154  0.1662
  101MOL0     N13852  10.558   9.410   7.724  0.2089 -0.5100 -0.3929
  101MOL0     C13853   9.947   9.795   6.997 -0.4698  0.6743 -0.0893
  101MOL0     C13854   9.830   9.861   6.985 -0.9190  0.1157  0.8484
  101MOL0     C13855   9.379   9.914   7.098 -0.7422 -0.7227 -0.2558
  101MOL0     C13856   9.272   9.844   7.142  0.3396 -0.5372  0.0453
  101MOL0     C13857   9.147   9.906   7.170  0.3825 -0.6155 -0.1330
  101MOL0     C13858   9.137  10.050   7.165 -0.7234  0.3373  0.6353
  101MOL0     O13859   9.020  10.110   7.193  0.0453 -0.7873 -0.0433
  101MOL0     C13860   9.022  10.198   7.308 -0.5295  0.2301 -0.1661
  101MOL0     C13861   9.085  10.334   7.291  0.6189  0.3954 -0.3633
  101MOL0     C13862   9.024  10.413   7.166  0.4598 -0.8474 -0.5174
  101MOL0     C13863   9.081  10.553   7.144  0.2539  0.8330 -0.4019
  101MOL0     C13864   9.225  10.546   7.139 -0.9724 -0.6106  0.2806
  101MOL0     C13865   9.343  10.518   7.121 -0.4634  0.1248  0.1199
  101MOL0     C13866   9.248  10.119   7.122  0.4794 -0.0872 -0.1040
  101MOL0     C13867   9.370  10.055   7.087 -0.0126 -0.9884 -0.1274
  101MOL0     C13868   9.482  10.147   7.038 -0.2816  0.7635 -0.0738
  101MOL0     H13869   9.644   9.659   7.180  1.2207 -2.5991 -0.1756
  101MOL0     H13870   9.847   9.531   7.190  1.0794  0.4224 -0.4063
  101MOL0     H13871   9.997   9.421   7.036  0.8204 -1.2180  1.0511
  101MOL0     H13872  10.096   9.448   7.178  2.1402  0.0474  0.3016
  101MOL0     H13873  10.195   9.288   7.017  0.0802  0.3994 -0.0476
  101MOL0     H13874  10.178   9.417   6.894  0.7649  2.8610  0.0859
  101MOL0     H13875  10.402   9.408   6.936 -0.3549 -0.3237  0.1983
  101MOL0     H13876  10.346   9.553   6.995 -1.9608  1.1655  3.1727
  101MOL0     H13877  10.319   9.424   7.226 -1.1993  2.3168 -1.1366
  101MOL0     H13878  10.390   9.284   7.159 -2.1322 -0.1295 -1.3191
  101MOL0     H13879  10.553   9.536   7.159  0.9038 -0.4658  0.0401
  101MOL0     H13880  10.598   9.367   7.140  2.8334  0.9634  1.4679
  101MOL0     H13881  10.487   9.490   7.408  1.3108  0.2485  1.8954
  101MOL0     H13882  10.529   9.320   7.374  0.5815  1.3341  4.5706
  101MOL0     H13883  10.723   9.540   7.322 -0.7627 -1.2598 -0.9994
  101MOL0     H13884  10.753   9.375   7.353 -0.8520  0.7653 -0.5062
  101MOL0     H13885  10.809   9.518   7.556  0.3918 -1.5671 -0.0466
  101MOL0     H13886  10.651   9.588   7.551 -1.8929 -1.2873 -3.4427
  101MOL0     H13887  10.733   9.194   7.546  0.2710 -0.1207  0.6407
  101MOL0     H13888  10.649   9.026   7.841  2.5158 -0.5270 -0.4662
  101MOL0     H13889  10.647   8.995   7.670  0.3641 -0.2149  0.7730
  101MOL0     H13890  10.377   9.051   7.689 -1.2484 -1.2140  0.6483
  101MOL0     H13891  10.432   8.893   7.754 -4.4932  0.1833  0.9398
  101MOL0     H13892  10.467   8.966   7.956 -0.0735 -1.6871 -2.9073
  101MOL0     H13893  10.405   9.128   7.928  0.1356 -1.1854  2.7557
  101MOL0     H13894  10.232   8.878   7.899 -2.1692 -0.0420  1.8248
  101MOL0     H13895  10.220   8.995   8.028  0.1665  0.5899 -0.6494
  101MOL0     H13896   9.943   9.096   7.726  0.3660  0.2637 -0.2956
  101MOL0     H13897   9.684   9.346   7.758 -0.2726 -0.3113 -3.7850
  101MOL0     H13898   9.672   9.184   7.814 -2.2042  1.1413 -2.3548
  101MOL0     H13899   9.754   9.233   7.660  0.2049  0.8306 -0.6270
  101MOL0     H13900   9.612   9.644   7.824 -0.8550 -3.9944 -0.9187
  101MOL0     H13901   9.467   9.805   7.855 -0.4964 -0.6465 -0.0765
  101MOL0     H13902   9.452  10.030   8.043 -0.4558  1.9212  2.3250
  101MOL0     H13903   9.347   9.977   7.911  3.0923  0.3468 -0.3079
  101MOL0     H13904   9.248  10.171   7.983 -0.0187 -0.4186 -0.7677
  101MOL0     H13905   9.155  10.046   8.078  0.6583 -0.6231 -0.7482
  101MOL0     H13906   9.362  10.213   8.205  0.3256 -0.0021 -1.5405
  101MOL0     H13907   9.254  10.088   8.278 -0.3385  0.4414  0.4975
  101MOL0     H13908   9.125  10.241   8.331  1.4087 -2.5069 -0.0462
  101MOL0     H13909   9.050  10.229   8.180  0.0103  2.0872  1.1721
  101MOL0     H13910   9.281  10.418   8.262 -1.2250  0.9577  1.5646
  101MOL0     H13911   9.227  10.430   8.101  0.0770 -1.7540 -0.1825
  101MOL0     H13912   9.047  10.491   8.339  5.1172  0.7035  2.1457
  101MOL0     H13913   8.986  10.504   8.175 -1.4819  0.0222  2.2397
  101MOL0     H13914   9.151  10.688   8.117  2.9353  1.1592  1.2060
  101MOL0     H13915   9.207  10.683   8.288 -1.9868  0.0640  3.0173
  101MOL0     H13916   8.927  10.765   8.197  0.7466 -0.9419 -0.3305
  101MOL0     H13917   9.054  10.861   8.275 -3.5130  1.6184 -2.1209
  101MOL0     H13918   9.429   9.691   8.276  0.1062 -0.8677  0.1753
  101MOL0     H13919   9.569   9.507   8.236 -0.9261 -2.3512 -1.5050
  101MOL0     H13920  10.051   9.403   8.089  1.4916  0.6567 -1.1530
  101MOL0     H13921  10.204   9.234   8.042  1.2457 -0.2080 -0.3848
  101MOL0     H13922  10.034   9.828   6.941  0.4131 -0.7336  0.4008
  101MOL0     H13923   9.827   9.949   6.921  0.3279 -1.8167 -2.0991
  101MOL0     H13924   9.277   9.735   7.138 -0.2174 -0.5312 -1.3246
  101MOL0     H13925   9.055   9.850   7.181 -0.8051  1.1113 -0.8874
  101MOL0     H13926   8.918  10.210   7.341 -0.4706 -0.4750  0.2882
  101MOL0     H13927   9.067  10.143   7.390  1.1815 -1.8771 -2.3794
  101MOL0     H13928   9.193  10.323   7.282  0.6792  0.3862  0.3693
  101MOL0     H13929   9.054  10.391   7.379 -2.9059 -1.0147 -0.5171
  101MOL0     H13930   9.057  10.349   7.084  4.0568 -2.7432  2.1217
  101MOL0     H13931   8.916  10.426   7.167  0.5719  0.4376  1.6178
  101MOL0     H13932   9.043  10.616   7.226 -1.1871 -2.2575  1.5205
  101MOL0     H13933   9.042  10.584   7.047  0.3163  1.3582 -0.2649
  101MOL0     H13934   9.447  10.509   7.097 -0.2321  2.8777 -0.1607
  101MOL0     H13935   9.252  10.227   7.107  2.3934 -0.0911  0.1832
  101MOL0     H13936   9.532  10.182   7.129 -0.2607 -2.9255  1.5316
  101MOL0     H13937   9.543  10.106   6.957 -0.4034  3.1784 -1.4746
  101MOL0     H13938   9.428  10.233   6.996 -0.5255  1.1586  0.9993
  102MOL0     O13939   0.810   2.236   6.158 -0.6463 -0.4521 -0.8234
  102MOL0     C13940   0.840   2.282   6.046 -0.0191 -0.4383  0.3649
  102MOL0     O13941   0.757   2.266   5.935 -0.0374  0.2786 -0.2238
  102MOL0     C13942   0.629   2.209   5.948 -0.0901  0.5617 -0.9439
  102MOL0     C13943   0.597   2.087   5.887  0.8539 -0.0583  0.6331
  102MOL0     C13944   0.467   2.035   5.900  0.9244  0.2314  0.3527
  102MOL0     C13945   0.372   2.105   5.970 -0.3444 -0.2478 -0.3195
  102MOL0     O13946   0.240   2.066   5.987  0.0932  0.0424  0.2501
  102MOL0     C13947   0.200   1.933   5.941  0.0654 -0.4128  0.2300
  102MOL0     C13948   0.048   1.903   5.972  0.4623  1.3055 -0.0851
  102MOL0     C13949   0.039   1.885   6.124 -0.4367 -0.1947  0.4395
  102MOL0     C13950  -0.063   1.780   6.161 -0.1334 -0.0927 -0.1967
  102MOL0     C13951  -0.069   1.737   6.314  0.8741 -0.0290 -0.7394
  102MOL0     C13952  -0.201   1.664   6.346 -0.4021  0.4914 -0.0596
  102MOL0     C13953  -0.198   1.613   6.493  0.0497  0.9171 -0.3241
  102MOL0     C13954  -0.319   1.523   6.531  0.1815 -0.2033  1.2986
  102MOL0     N13955  -0.292   1.438   6.644 -0.0303 -0.3043 -0.7271
  102MOL0     C13956  -0.302   1.475   6.780 -0.9503 -0.2949  0.6697
  102MOL0     C13957  -0.324   1.363   6.850 -1.0719  0.7049 -1.1687
  102MOL0     C13958  -0.341   1.356   7.000  0.1672  0.4646  0.6858
  102MOL0     C13959  -0.211   1.371   7.075 -0.4072  0.4500 -0.1056
  102MOL0     C13960  -0.227   1.338   7.221  0.5463  0.8294 -0.0314
  102MOL0     C13961  -0.098   1.321   7.302  0.1119 -0.2066  0.4868
  102MOL0     O13962  -0.010   1.231   7.232  0.4011 -0.9812 -0.5676
  102MOL0     C13963   0.125   1.244   7.249  0.0931 -0.0868 -0.0630
  102MOL0     C13964   0.185   1.276   7.369 -0.8816 -0.0220 -0.6848
  102MOL0     C13965   0.327   1.291   7.373 -0.1619 -0.4889 -1.0414
  102MOL0     C13966   0.382   1.322   7.514 -0.4019  0.8135  0.3732
  102MOL0     C13967   0.411   1.272   7.260 -0.4743 -1.2669 -0.5944
  102MOL0     C13968   0.559   1.293   7.253  0.3409 -0.4949  0.6926
  102MOL0     O13969   0.612   1.372   7.353 -0.0678 -0.1417  0.5481
  102MOL0     C13970   0.746   1.359   7.370  0.1801  0.2207  0.1083
  102MOL0     C13971   0.826   1.240   7.355 -0.2567  0.0938  1.0847
  102MOL0     C13972   0.970   1.243   7.361  0.7515 -0.1945  0.5073
  102MOL0     C13973   1.037   1.355   7.401  1.0015 -0.8471  0.2182
  102MOL0     O13974   1.169   1.339   7.411 -0.0315  0.2159  0.3493
  102MOL0     C13975   1.251   1.450   7.460 -0.6152  0.0145 -0.1151
  102MOL0     C13976   1.324   1.530   7.357  0.1189  0.3639 -0.0806
  102MOL0     C13977   1.450   1.582   7.423  0.0781  0.0710  0.1673
  102MOL0     C13978   1.511   1.705   7.357  0.2143 -0.1387  0.2943
  102MOL0     C13979   1.640   1.728   7.422 -0.8313  0.2330 -1.0951
  102MOL0     C13980   1.688   1.861   7.367 -0.1053 -0.4203 -0.3248
  102MOL0     C13981   1.841   1.880   7.402 -0.6228 -0.0072 -0.0861
  102MOL0     C13982   1.933   1.970   7.309  0.1780  0.0046  0.1330
  102MOL0    Cl13983   1.923   2.145   7.347 -0.2547 -0.2133 -0.1930
  102MOL0     C13984   0.954   1.473   7.421  0.0994 -1.0108  0.5066
  102MOL0     C13985   0.816   1.472   7.398  0.8002 -1.0575  0.7323
  102MOL0     O13986   0.615   1.248   7.157 -1.2193 -0.7227 -0.3590
  102MOL0     C13987   0.345   1.235   7.149  0.3413  0.5401  0.7884
  102MOL0     C13988   0.199   1.224   7.141 -0.1993 -0.8409 -0.2324
  102MOL0     N13989  -0.301   1.256   6.763 -0.1150 -0.4484 -0.9838
  102MOL0     N13990  -0.280   1.299   6.637  0.3600 -0.0347 -0.2522
  102MOL0     C13991   0.405   2.227   6.029  0.4803  0.2902 -0.0518
  102MOL0     C13992   0.535   2.277   6.025 -0.0921  0.1662  0.9471
  102MOL0     C13993   0.976   2.317   6.030  0.1220 -0.3943  0.1047
  102MOL0     C13994   0.999   2.450   6.005 -0.5029  0.1269 -0.6267
  102MOL0     C13995   1.126   2.497   5.970  0.2617  0.0394 -0.6643
  102MOL0     C13996   1.240   2.418   5.953  0.1322  0.0700  0.4335
  102MOL0     O13997   1.367   2.463   5.921  0.3354  0.6843 -1.1176
  102MOL0     C13998   1.432   2.393   5.807  0.7548  0.1344  0.2032
  102MOL0     C13999   1.567   2.468   5.795 -0.2115 -0.0225  0.4865
  102MOL0     C14000   1.648   2.395   5.673  0.0833 -0.5524  0.1109
  102MOL0     C14001   1.741   2.498   5.597  0.9792  1.6465 -0.2317
  102MOL0     C14002   1.838   2.578   5.673  0.0972  0.4226 -0.6541
  102MOL0     C14003   1.917   2.659   5.726 -0.0798  0.0685  1.1023
  102MOL0     C14004   1.209   2.281   5.980 -0.4205 -0.2342  0.0246
  102MOL0     C14005   1.090   2.227   6.023 -0.0081 -0.3793 -0.0901
  102MOL0     C14006   1.079   2.084   6.046  0.1777  0.0253  0.2677
  102MOL0     H14007   0.659   2.019   5.830  3.0431  1.8398  0.6134
  102MOL0     H14008   0.454   1.943   5.844 -3.2809  0.4934  0.5936
  102MOL0     H14009   0.261   1.860   5.995 -1.3310  0.3275  3.0339
  102MOL0     H14010   0.219   1.937   5.834 -0.3405 -0.7866  0.1403
  102MOL0     H14011  -0.007   1.995   5.948 -1.2780  0.3572  0.1071
  102MOL0     H14012   0.021   1.822   5.904 -0.1076  0.2984  1.2972
  102MOL0     H14013   0.135   1.853   6.165 -1.4235 -1.4301  1.9221
  102MOL0     H14014   0.003   1.976   6.174 -0.8043 -1.3168  2.3610
  102MOL0     H14015  -0.161   1.817   6.130  0.1947  2.6020  1.6056
  102MOL0     H14016  -0.042   1.685   6.111 -3.6867 -1.2255  0.1784
  102MOL0     H14017  -0.046   1.829   6.369 -5.1089  1.1454  0.5493
  102MOL0     H14018   0.013   1.664   6.319  1.7690  0.9612 -0.6613
  102MOL0     H14019  -0.281   1.739   6.341 -0.2120  0.7626  0.9026
  102MOL0     H14020  -0.223   1.591   6.268 -1.4332  1.7125 -0.9666
  102MOL0     H14021  -0.193   1.695   6.566 -1.1351  0.3167  0.4631
  102MOL0     H14022  -0.114   1.544   6.502 -0.3200  0.4325 -0.5262
  102MOL0     H14023  -0.397   1.594   6.559 -1.2473 -0.9166 -0.6647
  102MOL0     H14024  -0.361   1.459   6.452 -2.0292 -0.5016  2.6209
  102MOL0     H14025  -0.299   1.572   6.827 -2.0476 -0.9684  2.1912
  102MOL0     H14026  -0.391   1.263   7.028 -2.3082  1.5240  0.0605
  102MOL0     H14027  -0.408   1.440   7.021 -0.6963 -0.2257  0.7368
  102MOL0     H14028  -0.146   1.300   7.022  0.3963 -0.8815  2.4804
  102MOL0     H14029  -0.171   1.471   7.057 -0.5034  0.4175 -0.5020
  102MOL0     H14030  -0.292   1.414   7.264 -1.1289 -0.9733  0.7871
  102MOL0     H14031  -0.281   1.243   7.228 -1.9418  2.2877  1.6483
  102MOL0     H14032  -0.042   1.415   7.308 -0.1338  0.0667 -0.9717
  102MOL0     H14033  -0.123   1.289   7.403 -3.4623  0.1811 -0.1701
  102MOL0     H14034   0.122   1.301   7.454  1.9466  0.3391  1.4278
  102MOL0     H14035   0.306   1.309   7.592  0.0623 -1.8645  0.4746
  102MOL0     H14036   0.434   1.417   7.526  2.0550 -0.8045  4.7331
  102MOL0     H14037   0.462   1.255   7.545  0.1757  1.5234  0.4458
  102MOL0     H14038   0.778   1.149   7.322  0.8479 -1.6657  3.8853
  102MOL0     H14039   1.021   1.150   7.336 -2.2690 -2.1166  0.9644
  102MOL0     H14040   1.216   1.514   7.542 -1.2361 -0.6692  0.1569
  102MOL0     H14041   1.327   1.390   7.512 -0.6926 -2.4473 -2.6243
  102MOL0     H14042   1.354   1.462   7.276  1.0063  1.9679 -1.1594
  102MOL0     H14043   1.272   1.612   7.306  1.9458  0.0717 -2.6650
  102MOL0     H14044   1.525   1.503   7.423  0.1132  0.0239 -1.9544
  102MOL0     H14045   1.425   1.612   7.525 -1.3784  0.5930 -0.3146
  102MOL0     H14046   1.450   1.794   7.376  1.3793  0.9272 -0.8240
  102MOL0     H14047   1.522   1.692   7.249  2.3445 -1.9457  0.6658
  102MOL0     H14048   1.623   1.745   7.529  1.5689 -0.5605 -0.5066
  102MOL0     H14049   1.715   1.650   7.403  1.7583  1.5321  2.4882
  102MOL0     H14050   1.632   1.941   7.417  2.0141  1.2443 -0.4329
  102MOL0     H14051   1.675   1.855   7.259 -1.3415  1.2381 -0.3103
  102MOL0     H14052   1.883   1.781   7.381 -2.5780 -0.6793 -1.0172
  102MOL0     H14053   1.853   1.897   7.509  0.2060 -0.3857 -0.1092
  102MOL0     H14054   1.925   1.957   7.201  1.6669  1.1011 -0.1409
  102MOL0     H14055   2.037   1.944   7.327  0.4636 -0.3723 -1.7957
  102MOL0     H14056   1.005   1.562   7.457 -0.7812  0.5639 -1.8417
  102MOL0     H14057   0.757   1.563   7.408  3.6403  0.8751  1.5048
  102MOL0     H14058   0.404   1.219   7.059 -1.1308 -2.4373  0.2197
  102MOL0     H14059   0.161   1.202   7.042 -0.5951  0.8924 -0.4904
  102MOL0     H14060   0.329   2.296   6.064  0.4921  0.3741 -0.1915
  102MOL0     H14061   0.556   2.374   6.068  4.9028 -0.0682 -0.3470
  102MOL0     H14062   0.921   2.524   6.017  0.2119  0.8354 -0.3070
  102MOL0     H14063   1.136   2.605   5.969 -0.6736  0.2085  1.7080
  102MOL0     H14064   1.452   2.288   5.830  0.2881  0.0266  0.1281
  102MOL0     H14065   1.368   2.398   5.719  0.8748  0.8474  0.1489
  102MOL0     H14066   1.627   2.456   5.886  1.0130  0.1800 -0.2691
  102MOL0     H14067   1.548   2.575   5.782 -2.3925 -0.3050  0.9882
  102MOL0     H14068   1.703   2.313   5.718  1.0009 -0.0898 -0.1369
  102MOL0     H14069   1.574   2.365   5.597  0.6363 -0.3182 -0.5345
  102MOL0     H14070   1.676   2.573   5.551 -1.3940  0.3707  0.8763
  102MOL0     H14071   1.803   2.450   5.520  2.9157  1.4382  1.3942
  102MOL0     H14072   1.977   2.722   5.788  1.4085  1.6921 -1.7668
  102MOL0     H14073   1.289   2.207   5.985 -0.9603 -0.7645  1.3427
  102MOL0     H14074   1.173   2.030   6.031 -0.0152 -0.4884  0.8703
  102MOL0     H14075   1.046   2.058   6.147  0.7110 -2.0539 -0.0340
  102MOL0     H14076   1.005   2.044   5.975 -2.2698 -0.5402  2.9379
  103MOL0     O14077   2.426   6.873   7.727 -0.1091  0.8603  0.6331
  103MOL0     C14078   2.418   6.843   7.608  0.1145 -0.3167 -0.5595
  103MOL0     O14079   2.313   6.786   7.550  0.5261 -0.3505 -0.6613
  103MOL0     C14080   2.203   6.756   7.624  0.9700  1.1036 -1.0647
  103MOL0     C14081   2.223   6.664   7.731 -0.2428  0.3271 -0.1235
  103MOL0     C14082   2.110   6.617   7.802 -0.4568 -0.4204  0.4669
  103MOL0     C14083   1.978   6.673   7.783 -0.1506 -0.7262  0.2916
  103MOL0     O14084   1.867   6.635   7.846 -0.2237 -0.1909 -0.7973
  103MOL0     C14085   1.869   6.526   7.941  0.4770 -0.2230 -0.0320
  103MOL0     C14086   1.728   6.502   7.992  0.3084 -0.0994 -0.2927
  103MOL0     C14087   1.667   6.593   8.099  0.0089  0.5388 -0.2836
  103MOL0     C14088   1.524   6.559   8.122  0.3180  0.1322  0.2091
  103MOL0     C14089   1.494   6.617   8.261  0.0628 -0.3464  0.4731
  103MOL0     C14090   1.355   6.583   8.313  1.2223 -0.1094  1.2732
  103MOL0     C14091   1.307   6.647   8.448 -0.8043  0.5271  0.5056
  103MOL0     C14092   1.198   6.563   8.505  0.0290  0.4051  0.2805
  103MOL0     N14093   1.073   6.563   8.423  0.6313  0.1276  0.1718
  103MOL0     C14094   0.993   6.670   8.398 -0.1501  0.0463  0.1269
  103MOL0     C14095   0.897   6.618   8.317  0.5477  0.1360  0.3070
  103MOL0     C14096   0.782   6.696   8.253 -0.0598 -0.4199  0.5673
  103MOL0     C14097   0.780   6.707   8.097 -0.2604 -0.4569 -0.2399
  103MOL0     C14098   0.901   6.774   8.023  0.3393 -0.0915 -0.0350
  103MOL0     C14099   1.023   6.693   8.018 -0.6321  0.8612  0.5754
  103MOL0     O14100   1.117   6.745   7.912 -0.7668  0.0435  0.5072
  103MOL0     C14101   1.238   6.805   7.941 -0.1705  0.5493 -0.1909
  103MOL0     C14102   1.331   6.807   7.840  0.0076  0.1302  0.1673
  103MOL0     C14103   1.460   6.855   7.856 -0.0538 -0.1636  0.1455
  103MOL0     C14104   1.571   6.807   7.758 -0.0213 -0.9289  0.0024
  103MOL0     C14105   1.493   6.930   7.978 -0.1136 -0.5465  0.3828
  103MOL0     C14106   1.631   6.969   8.006  0.0671 -0.2150  0.2933
  103MOL0     O14107   1.674   6.944   8.133 -1.0128  0.0632  0.3648
  103MOL0     C14108   1.814   6.977   8.163 -0.4567 -0.0067 -0.2608
  103MOL0     C14109   1.859   7.067   8.258 -0.0291 -0.2325  0.7171
  103MOL0     C14110   1.992   7.084   8.271  0.1304 -0.3209 -0.2232
  103MOL0     C14111   2.090   7.022   8.189  0.7407 -0.0189  0.5306
  103MOL0     O14112   2.216   7.050   8.231  0.0207  0.8297  0.4387
  103MOL0     C14113   2.320   6.984   8.146 -0.4052 -0.4070 -0.1075
  103MOL0     C14114   2.461   7.012   8.195  0.3190 -0.6580 -0.4169
  103MOL0     C14115   2.503   6.929   8.319  0.3886 -0.4414  0.1144
  103MOL0     C14116   2.610   7.002   8.401 -0.1022 -0.3935  0.1353
  103MOL0     C14117   2.641   6.928   8.522  0.3696 -0.0701 -0.6840
  103MOL0     C14118   2.722   7.005   8.631  0.2986  0.2666 -0.2742
  103MOL0     C14119   2.709   6.947   8.779 -0.4162  0.7875 -0.2751
  103MOL0     C14120   2.788   7.026   8.888  1.1790 -0.0193  0.9019
  103MOL0    Cl14121   2.959   6.992   8.873  0.2541 -0.0640  0.4169
  103MOL0     C14122   2.038   6.935   8.086  0.1838  0.4720 -0.8507
  103MOL0     C14123   1.903   6.907   8.075 -0.6679 -0.6660 -0.5667
  103MOL0     O14124   1.699   7.027   7.927 -0.9943 -0.0930  0.8418
  103MOL0     C14125   1.397   6.913   8.082 -0.6705  0.2613 -0.4220
  103MOL0     C14126   1.273   6.853   8.065  1.0485  0.3013 -0.6326
  103MOL0     N14127   0.922   6.485   8.290  0.5991  0.5029 -0.3779
  103MOL0     N14128   1.028   6.452   8.353 -0.8169 -0.4452  0.3864
  103MOL0     C14129   1.964   6.771   7.681 -0.1712  0.8791  0.0946
  103MOL0     C14130   2.076   6.804   7.598  0.4685  0.6315 -1.0492
  103MOL0     C14131   2.535   6.887   7.532 -0.3008  0.3744 -0.1317
  103MOL0     C14132   2.565   6.813   7.417  0.9315  0.7092  0.4398
  103MOL0     C14133   2.666   6.849   7.331 -0.4113 -0.3628  0.0535
  103MOL0     C14134   2.752   6.954   7.362 -0.3762 -0.0551  0.7491
  103MOL0     O14135   2.817   7.005   7.256  0.2683 -0.2661  0.3721
  103MOL0     C14136   2.912   7.114   7.280  0.0927  0.4300 -0.2508
  103MOL0     C14137   2.993   7.106   7.152 -0.1487 -0.0864  0.8126
  103MOL0     C14138   3.110   7.202   7.157 -0.1511 -0.0416 -0.5359
  103MOL0     C14139   3.182   7.225   7.018  0.4706  0.4317 -0.2816
  103MOL0     C14140   3.256   7.358   7.017  0.6834  0.7390  0.8000
  103MOL0     C14141   3.308   7.457   7.010  0.1900 -0.8914  0.0702
  103MOL0     C14142   2.732   7.030   7.480  0.3628 -0.0577  0.1813
  103MOL0     C14143   2.623   6.995   7.561  0.2033 -0.3420 -0.3509
  103MOL0     C14144   2.588   7.100   7.669 -0.1305  0.1227 -0.4149
  103MOL0     H14145   2.320   6.634   7.769 -1.8435 -1.0475  3.2803
  103MOL0     H14146   2.125   6.534   7.870  1.2466  0.1485  0.8384
  103MOL0     H14147   1.941   6.553   8.020  0.6890  0.8985 -0.5743
  103MOL0     H14148   1.903   6.438   7.886 -1.2786 -0.2289 -1.1853
  103MOL0     H14149   1.658   6.499   7.907 -1.1513  0.1750  0.8531
  103MOL0     H14150   1.726   6.398   8.025 -1.6593 -1.3105 -3.6257
  103MOL0     H14151   1.730   6.584   8.188 -0.2582  1.7103  0.0476
  103MOL0     H14152   1.673   6.696   8.062 -4.8189  1.5147  1.0505
  103MOL0     H14153   1.452   6.591   8.046 -1.3262 -0.5752  1.4078
  103MOL0     H14154   1.510   6.451   8.128  2.3291 -0.4623 -3.2191
  103MOL0     H14155   1.509   6.725   8.260 -1.3071 -0.1374  0.8343
  103MOL0     H14156   1.566   6.572   8.331 -0.0963  0.4556  1.1605
  103MOL0     H14157   1.283   6.614   8.236  1.1566 -1.4660  0.7628
  103MOL0     H14158   1.349   6.475   8.326 -1.0292 -0.1540  0.3296
  103MOL0     H14159   1.279   6.752   8.447  2.0952  1.3953  0.7702
  103MOL0     H14160   1.394   6.634   8.514 -0.9197 -1.2343  0.3681
  103MOL0     H14161   1.237   6.461   8.503  1.3603  0.8974 -0.2082
  103MOL0     H14162   1.166   6.597   8.604 -3.6527 -1.4899 -0.0942
  103MOL0     H14163   1.002   6.769   8.442 -0.0796 -0.2691  0.8395
  103MOL0     H14164   0.783   6.796   8.296  0.5028 -0.5697  0.9152
  103MOL0     H14165   0.689   6.650   8.288  0.8099 -3.4574 -0.7480
  103MOL0     H14166   0.760   6.604   8.065  0.6335  0.3418 -3.8093
  103MOL0     H14167   0.692   6.762   8.062 -0.3568 -1.1290 -1.0899
  103MOL0     H14168   0.874   6.796   7.920  1.3510  0.4316 -0.2049
  103MOL0     H14169   0.919   6.867   8.079 -2.0435  0.2005  0.3478
  103MOL0     H14170   1.070   6.680   8.116 -0.2364 -3.7228 -0.0118
  103MOL0     H14171   0.980   6.597   7.990 -0.7287  1.6672 -2.3968
  103MOL0     H14172   1.301   6.746   7.755  0.4004 -0.4161  0.4099
  103MOL0     H14173   1.654   6.795   7.828 -2.1250 -1.4214  2.5957
  103MOL0     H14174   1.597   6.882   7.683 -0.2562  0.3810  1.1882
  103MOL0     H14175   1.540   6.709   7.718 -1.2963 -1.2544  1.6582
  103MOL0     H14176   1.783   7.100   8.329 -0.2405 -0.2521  0.5012
  103MOL0     H14177   2.024   7.157   8.344 -1.1984 -1.1832  1.2893
  103MOL0     H14178   2.308   6.876   8.154 -1.0364 -0.3403 -0.1229
  103MOL0     H14179   2.302   7.009   8.041  2.2633 -2.6421 -1.2389
  103MOL0     H14180   2.533   6.989   8.116  2.5691 -0.1847  1.3948
  103MOL0     H14181   2.462   7.119   8.215 -5.4659 -1.0789  5.3014
  103MOL0     H14182   2.536   6.830   8.285 -0.7168  0.0758 -2.7226
  103MOL0     H14183   2.417   6.919   8.385 -0.9386  0.1929 -1.4653
  103MOL0     H14184   2.565   7.095   8.437 -0.2937 -1.3712  2.6491
  103MOL0     H14185   2.701   7.028   8.347  0.7535 -0.4745  1.5043
  103MOL0     H14186   2.550   6.879   8.557  1.8156 -1.8950  0.7294
  103MOL0     H14187   2.709   6.853   8.481  1.3478  1.2398 -1.5286
  103MOL0     H14188   2.679   7.105   8.639 -0.1686  0.1085 -0.7778
  103MOL0     H14189   2.829   7.016   8.610  0.7702 -2.0088  0.6113
  103MOL0     H14190   2.745   6.844   8.770 -1.5960  0.3987 -0.6260
  103MOL0     H14191   2.604   6.942   8.809 -0.2897  0.2621  0.0981
  103MOL0     H14192   2.753   6.994   8.986 -0.7287 -0.0855  0.2460
  103MOL0     H14193   2.760   7.132   8.880  0.7588 -0.0399  1.9210
  103MOL0     H14194   2.103   6.871   8.025  0.5470  0.6641 -0.6716
  103MOL0     H14195   1.873   6.838   7.996  1.7833 -1.0416 -1.2589
  103MOL0     H14196   1.420   6.946   8.183 -1.8129  0.0932 -0.0861
  103MOL0     H14197   1.212   6.850   8.155  1.6858 -3.4590 -0.1549
  103MOL0     H14198   1.863   6.803   7.656 -1.2953 -2.1788  0.2428
  103MOL0     H14199   2.067   6.865   7.509 -1.0313  1.8589 -0.1066
  103MOL0     H14200   2.504   6.727   7.391  1.7275 -0.2053  1.4812
  103MOL0     H14201   2.668   6.800   7.234 -0.8866 -0.6075  0.1626
  103MOL0     H14202   2.868   7.213   7.296 -1.7302 -0.6450  1.8369
  103MOL0     H14203   2.969   7.108   7.373  1.3541  0.6242 -0.9791
  103MOL0     H14204   2.921   7.140   7.077  3.0713  1.1278 -1.9974
  103MOL0     H14205   3.021   7.003   7.126  2.0600  0.3444  1.2900
  103MOL0     H14206   3.068   7.297   7.191 -0.1375  0.5613 -2.1162
  103MOL0     H14207   3.180   7.183   7.239 -1.4381  0.1674  0.6445
  103MOL0     H14208   3.121   7.227   6.928  2.5994 -0.3774 -1.8076
  103MOL0     H14209   3.254   7.143   7.016 -0.5842 -0.5554  0.5984
  103MOL0     H14210   3.366   7.546   7.023 -2.4222  0.8865  0.2983
  103MOL0     H14211   2.777   7.127   7.501 -1.1142  0.0762  3.2083
  103MOL0     H14212   2.484   7.118   7.641  0.5600  2.3588 -1.7845
  103MOL0     H14213   2.606   7.066   7.771  3.6867 -0.2330 -1.0410
  103MOL0     H14214   2.649   7.190   7.659 -3.2932  2.4900  0.0663
  104MOL0     O14215   2.612   0.385   3.410 -0.2486 -0.7534  0.3322
  104MOL0     C14216   2.518   0.358   3.480  0.6370 -0.4891 -0.7219
  104MOL0     O14217   2.511   0.326   3.612 -0.6421  0.2791 -0.2801
  104MOL0     C14218   2.628   0.329   3.675  0.3709  0.4680 -0.4886
  104MOL0     C14219   2.683   0.213   3.728  0.0133  0.4420 -0.9446
  104MOL0     C14220   2.798   0.220   3.804 -1.0653  0.7953  0.2403
  104MOL0     C14221   2.866   0.340   3.809  0.2558 -0.1000 -0.1334
  104MOL0     O14222   2.983   0.345   3.877 -0.5760  0.2623  0.6960
  104MOL0     C14223   2.961   0.403   4.002  0.5837  0.1606  0.0669
  104MOL0     C14224   3.088   0.419   4.074 -0.4473  0.8133 -0.0791
  104MOL0     C14225   3.200   0.483   3.992 -0.7597  0.9003  0.4771
  104MOL0     C14226   3.338   0.484   4.048  0.3656 -0.1313  0.3140
  104MOL0     C14227   3.419   0.356   4.048  0.3128 -0.2455 -0.1666
  104MOL0     C14228   3.468   0.328   4.194 -0.1582 -0.0644  0.1110
  104MOL0     C14229   3.580   0.405   4.252 -0.4702 -0.2239  0.3212
  104MOL0     C14230   3.700   0.395   4.166 -0.2294 -0.4007  0.5632
  104MOL0     N14231   3.817   0.437   4.248 -0.5319  0.0566  0.5492
  104MOL0     C14232   3.912   0.347   4.292  0.6890  0.1657  0.8358
  104MOL0     C14233   4.023   0.421   4.313 -0.0729 -0.2855 -0.3523
  104MOL0     C14234   4.140   0.376   4.387  0.2436  0.3744 -0.2915
  104MOL0     C14235   4.269   0.384   4.314  0.3058 -0.7634  0.1866
  104MOL0     C14236   4.386   0.323   4.386  0.5494 -0.4318  0.3460
  104MOL0     C14237   4.378   0.167   4.381 -0.0429  0.9464 -1.1726
  104MOL0     O14238   4.467   0.099   4.469  0.2763  0.4530  0.6311
  104MOL0     C14239   4.598   0.089   4.444  0.1647 -0.1132  0.1170
  104MOL0     C14240   4.659   0.118   4.321 -0.4319  0.3783 -0.6039
  104MOL0     C14241   4.799   0.110   4.307  0.8863  0.1457 -0.3728
  104MOL0     C14242   4.856   0.145   4.180 -0.6549 -0.3893  0.1499
  104MOL0     C14243   4.883   0.049   4.412  0.5984 -0.5321  0.5223
  104MOL0     C14244   5.022   0.022   4.410  0.2561 -0.1673 -0.5778
  104MOL0     O14245   5.081   0.004   4.529 -0.2143  0.0554  0.6954
  104MOL0     C14246   5.213  -0.022   4.527 -0.1335 -0.1123 -0.7489
  104MOL0     C14247   5.308   0.074   4.547 -0.7071  0.5844  0.6255
  104MOL0     C14248   5.444   0.041   4.546 -1.1104  0.3083 -0.5566
  104MOL0     C14249   5.488  -0.089   4.519 -0.7816  0.7779  0.3428
  104MOL0     O14250   5.619  -0.131   4.502 -0.3343 -0.0203 -0.3539
  104MOL0     C14251   5.717  -0.028   4.524  0.3696  0.6460  0.7446
  104MOL0     C14252   5.842  -0.103   4.558  0.2529  0.2764 -0.2484
  104MOL0     C14253   5.835  -0.157   4.700 -0.7460 -0.2747  0.2634
  104MOL0     C14254   5.977  -0.187   4.745 -0.5065  0.1010 -0.2351
  104MOL0     C14255   5.987  -0.249   4.884 -0.5261 -0.0163 -0.1293
  104MOL0     C14256   5.922  -0.169   4.991 -0.2720 -0.5479 -0.2175
  104MOL0     C14257   5.986  -0.029   4.998  0.4670  0.8252  0.0897
  104MOL0     C14258   5.976   0.037   5.131  0.4697 -0.0433  0.3384
  104MOL0    Cl14259   6.087  -0.058   5.234  0.3249  0.2901  0.4737
  104MOL0     C14260   5.387  -0.186   4.518  0.1903 -0.0350 -0.0711
  104MOL0     C14261   5.254  -0.155   4.520 -0.4828  0.0900  0.6673
  104MOL0     O14262   5.078   0.039   4.307  1.1504 -0.0001  0.5256
  104MOL0     C14263   4.815   0.020   4.527  0.3074 -0.7344 -0.2434
  104MOL0     C14264   4.680   0.038   4.542  0.9634  0.2390 -0.1782
  104MOL0     N14265   3.992   0.549   4.280  0.7583 -0.0785  0.1449
  104MOL0     N14266   3.871   0.559   4.243  0.5944 -0.5199  0.1782
  104MOL0     C14267   2.818   0.456   3.755 -0.6666 -0.5914  0.7444
  104MOL0     C14268   2.695   0.449   3.690 -0.2943  0.9053  0.2578
  104MOL0     C14269   2.386   0.346   3.410  0.1103  0.5340  0.4429
  104MOL0     C14270   2.275   0.325   3.492  0.1313 -1.3892 -0.6618
  104MOL0     C14271   2.150   0.291   3.438 -0.3198 -0.4409 -0.3160
  104MOL0     C14272   2.125   0.299   3.300  0.4996  0.2388 -0.1832
  104MOL0     O14273   1.998   0.263   3.264 -0.4119 -0.8508  0.1789
  104MOL0     C14274   1.981   0.245   3.118  0.2182 -0.1341 -0.7445
  104MOL0     C14275   1.836   0.197   3.078  0.2466  0.0018 -0.3949
  104MOL0     C14276   1.848   0.176   2.924  0.0545 -0.2011 -0.3146
  104MOL0     C14277   1.712   0.128   2.875 -0.2092  0.7707  0.3128
  104MOL0     C14278   1.606   0.229   2.889  0.6382 -0.4207 -0.3985
  104MOL0     C14279   1.505   0.291   2.902 -0.5823 -1.0090  0.2801
  104MOL0     C14280   2.233   0.326   3.217  0.6800 -0.1621  0.4456
  104MOL0     C14281   2.360   0.347   3.269  0.4598  0.0181  0.3536
  104MOL0     C14282   2.469   0.343   3.162 -0.9451  0.3742 -0.5152
  104MOL0     H14283   2.624   0.122   3.732 -0.3151  0.6920  0.2669
  104MOL0     H14284   2.853   0.130   3.831 -2.1098  0.3287  0.8669
  104MOL0     H14285   2.899   0.339   4.066  1.0527 -0.7494 -0.3641
  104MOL0     H14286   2.916   0.501   3.985  3.1036  1.8860  2.4606
  104MOL0     H14287   3.081   0.466   4.173  1.0878 -2.9945  2.0317
  104MOL0     H14288   3.127   0.325   4.114 -1.5235  0.3906 -0.0034
  104MOL0     H14289   3.209   0.425   3.900 -0.5292  1.3716  0.1931
  104MOL0     H14290   3.166   0.585   3.968  1.2394  1.4166 -0.4831
  104MOL0     H14291   3.388   0.561   3.989 -0.2993 -0.6169 -0.9277
  104MOL0     H14292   3.315   0.519   4.149 -0.7194 -0.5781  0.2396
  104MOL0     H14293   3.496   0.356   3.970  0.2485  4.0440 -0.4595
  104MOL0     H14294   3.348   0.279   4.017 -0.2683 -0.0764  0.7135
  104MOL0     H14295   3.376   0.327   4.254  0.4935 -0.1132  1.1336
  104MOL0     H14296   3.504   0.225   4.185 -0.4417 -0.0493 -1.4540
  104MOL0     H14297   3.614   0.371   4.350  4.2968  1.2705 -0.5889
  104MOL0     H14298   3.549   0.509   4.265 -2.2159 -0.1448 -3.0604
  104MOL0     H14299   3.700   0.289   4.136 -1.1550 -0.5238  0.9598
  104MOL0     H14300   3.691   0.451   4.073  0.4937 -2.6897 -0.9887
  104MOL0     H14301   3.894   0.243   4.316  3.1491 -0.0084  2.2284
  104MOL0     H14302   4.113   0.273   4.413  2.5785 -0.4072 -0.7207
  104MOL0     H14303   4.153   0.441   4.475 -1.4607  0.8171 -0.3286
  104MOL0     H14304   4.262   0.329   4.220 -1.1679 -1.6266  0.7584
  104MOL0     H14305   4.294   0.490   4.306 -1.2111 -0.0227  3.5376
  104MOL0     H14306   4.481   0.355   4.342 -0.6021  1.9889 -0.5825
  104MOL0     H14307   4.380   0.363   4.488 -1.2650  1.3657 -0.3914
  104MOL0     H14308   4.280   0.135   4.417  0.4132  0.0617 -0.6862
  104MOL0     H14309   4.387   0.118   4.283 -0.0516  0.5043 -0.9540
  104MOL0     H14310   4.612   0.168   4.237  2.0323  1.7059 -1.3010
  104MOL0     H14311   4.887   0.058   4.122 -1.6372  0.0919 -1.1570
  104MOL0     H14312   4.928   0.226   4.192 -1.6394  0.9309 -2.1975
  104MOL0     H14313   4.789   0.192   4.106 -0.7186 -2.2535 -1.0456
  104MOL0     H14314   5.269   0.172   4.573 -1.0826  1.1307 -1.7783
  104MOL0     H14315   5.509   0.128   4.553  0.1449 -0.3917 -2.6411
  104MOL0     H14316   5.734   0.031   4.434  0.7849 -1.6366 -0.7730
  104MOL0     H14317   5.701   0.041   4.607  1.0595 -0.3488  1.7375
  104MOL0     H14318   5.873  -0.175   4.481  1.0919  0.9783 -0.5855
  104MOL0     H14319   5.916  -0.023   4.559 -0.1240  0.6181  0.5342
  104MOL0     H14320   5.758  -0.234   4.697  0.9387 -2.0099 -0.9644
  104MOL0     H14321   5.789  -0.078   4.761 -0.2573  1.3379 -1.3421
  104MOL0     H14322   6.026  -0.089   4.735  1.9037 -1.2549 -3.3338
  104MOL0     H14323   6.020  -0.254   4.670 -1.1721  0.6905 -1.1588
  104MOL0     H14324   5.951  -0.352   4.885  1.6331 -0.8422 -1.3011
  104MOL0     H14325   6.094  -0.251   4.905  0.0409  0.3763 -2.6123
  104MOL0     H14326   5.901  -0.217   5.087 -1.3542 -0.3924 -0.3569
  104MOL0     H14327   5.819  -0.161   4.954  0.3033 -0.9429 -1.9797
  104MOL0     H14328   5.932   0.040   4.933 -1.1698 -0.0746  0.4365
  104MOL0     H14329   6.092  -0.032   4.969  0.5785  2.5370  0.2599
  104MOL0     H14330   5.873   0.038   5.166  0.2440 -1.6978 -0.2273
  104MOL0     H14331   6.013   0.140   5.123  1.7075 -0.5550 -0.8257
  104MOL0     H14332   5.417  -0.290   4.524  2.9470  0.7714  2.7742
  104MOL0     H14333   5.180  -0.233   4.505  0.4399 -0.7786  0.5170
  104MOL0     H14334   4.870  -0.021   4.611  2.9136  1.0862 -0.9533
  104MOL0     H14335   4.639   0.003   4.637 -0.7753 -5.3670 -2.6069
  104MOL0     H14336   2.877   0.547   3.760 -0.5220 -0.6326 -0.0144
  104MOL0     H14337   2.655   0.546   3.662 -1.1185  1.8147  4.1095
  104MOL0     H14338   2.284   0.341   3.599 -0.1772  0.0508 -0.8201
  104MOL0     H14339   2.055   0.284   3.490 -0.9226  1.0718 -1.1406
  104MOL0     H14340   2.001   0.342   3.071 -0.2493  1.8358  2.7750
  104MOL0     H14341   2.053   0.166   3.093  0.4410 -0.7880  1.6714
  104MOL0     H14342   1.765   0.277   3.100 -0.3142 -0.6383  0.1624
  104MOL0     H14343   1.811   0.104   3.130  0.0539  0.3728  0.1838
  104MOL0     H14344   1.871   0.267   2.868  3.1633 -0.3264  0.5760
  104MOL0     H14345   1.926   0.106   2.894  1.8699  1.8948 -0.7395
  104MOL0     H14346   1.686   0.029   2.914  1.8635 -0.7092 -1.8009
  104MOL0     H14347   1.719   0.123   2.766 -0.0492  1.6947  0.2681
  104MOL0     H14348   1.412   0.342   2.917 -1.5672 -2.2915 -1.2134
  104MOL0     H14349   2.226   0.325   3.108  1.8253  1.9042  0.2864
  104MOL0     H14350   2.513   0.443   3.154  1.9589 -0.6101  1.5388
  104MOL0     H14351   2.541   0.270   3.200 -1.9097 -0.9865 -1.1898
  104MOL0     H14352   2.442   0.311   3.061  1.8056  0.1267 -1.2570
  105MOL0     O14353   7.215   4.730   9.918 -1.2683  0.3625 -1.0412
  105MOL0     C14354   7.112   4.734   9.968  0.2976  0.6927 -0.1633
  105MOL0     O14355   7.095   4.741  10.098  1.0181 -0.0977 -0.2586
  105MOL0     C14356   7.204   4.753  10.182 -0.4980 -0.4037 -0.7762
  105MOL0     C14357   7.237   4.647  10.269  0.7438  0.2105 -0.4329
  105MOL0     C14358   7.315   4.668  10.377  0.0677 -0.2564 -0.2365
  105MOL0     C14359   7.392   4.784  10.393  1.0973 -0.2935  0.2816
  105MOL0     O14360   7.474   4.803  10.501  0.1030  0.4079 -0.3262
  105MOL0     C14361   7.593   4.718  10.499 -0.6241 -0.1374 -1.1765
  105MOL0     C14362   7.715   4.812  10.534 -0.6010 -0.1295  0.0687
  105MOL0     C14363   7.738   4.912  10.428  0.6766 -1.4860  0.5479
  105MOL0     C14364   7.774   5.056  10.478  0.2681  0.2005 -0.2239
  105MOL0     C14365   7.780   5.160  10.367  0.0069 -0.2099  0.4295
  105MOL0     C14366   7.880   5.130  10.255  0.0723 -0.1614  0.5084
  105MOL0     C14367   8.024   5.110  10.301 -1.0409 -0.3269 -0.4253
  105MOL0     C14368   8.129   5.115  10.190  0.3706  0.2082 -0.2476
  105MOL0     N14369   8.263   5.124  10.259 -0.3356  0.5820  0.3352
  105MOL0     C14370   8.299   5.033  10.358  0.1888 -0.4851  0.3455
  105MOL0     C14371   8.405   5.088  10.418 -0.1291 -0.5814 -0.6444
  105MOL0     C14372   8.487   5.041  10.534 -0.2502  1.2622 -0.8363
  105MOL0     C14373   8.499   5.142  10.653  0.4915 -0.3261  0.1324
  105MOL0     C14374   8.567   5.074  10.775 -0.5309 -1.3032 -0.4522
  105MOL0     C14375   8.613   5.173  10.887  0.0670  0.6268 -0.9024
  105MOL0     O14376   8.682   5.294  10.842 -0.3049  0.9173 -0.1967
  105MOL0     C14377   8.816   5.310  10.830  0.0752 -0.1766  0.0531
  105MOL0     C14378   8.867   5.425  10.769  0.7619 -0.3846  0.5669
  105MOL0     C14379   9.003   5.443  10.757 -1.0294 -0.0560 -0.3436
  105MOL0     C14380   9.046   5.566  10.690 -0.2185 -0.0469 -0.3913
  105MOL0     C14381   9.093   5.343  10.800 -0.1504  0.3973  0.7894
  105MOL0     C14382   9.244   5.358  10.795 -0.6971  0.3808 -0.2654
  105MOL0     O14383   9.319   5.264  10.854 -0.4912  0.7556  0.0359
  105MOL0     C14384   9.454   5.249  10.851 -0.4090 -0.4178 -0.2001
  105MOL0     C14385   9.544   5.306  10.753 -0.4220  0.5844 -0.4354
  105MOL0     C14386   9.682   5.274  10.764  1.0931  0.1536  0.7642
  105MOL0     C14387   9.727   5.183  10.855  0.0338 -0.4894 -0.5377
  105MOL0     O14388   9.862   5.166  10.849  0.8350  0.7461 -0.7689
  105MOL0     C14389   9.919   5.051  10.919  1.1170  0.1776 -0.4298
  105MOL0     C14390  10.071   5.037  10.881  0.2566 -0.3096 -0.3996
  105MOL0     C14391  10.138   4.930  10.967  0.1433  0.7645 -0.0439
  105MOL0     C14392  10.279   4.899  10.932 -0.1989 -0.6833 -1.0331
  105MOL0     C14393  10.324   4.771  10.995 -0.4210  0.2564 -0.6517
  105MOL0     C14394  10.314   4.661  10.897 -0.6971  0.4564 -0.2063
  105MOL0     C14395  10.351   4.527  10.966  0.4380 -1.3369 -1.1184
  105MOL0     C14396  10.384   4.422  10.857  0.2195 -0.7558  0.5058
  105MOL0    Cl14397  10.257   4.375  10.733 -0.2325 -0.9717 -0.2421
  105MOL0     C14398   9.643   5.141  10.954  0.1640  0.2595 -0.8513
  105MOL0     C14399   9.509   5.176  10.954 -0.2295  0.5832 -0.1665
  105MOL0     O14400   9.295   5.448  10.725  0.0183 -0.0716  0.0606
  105MOL0     C14401   9.042   5.225  10.854 -0.0214 -0.8051  0.7348
  105MOL0     C14402   8.905   5.212  10.869  0.1341  0.0671  0.1458
  105MOL0     N14403   8.439   5.209  10.354  0.1743  0.0895  0.1318
  105MOL0     N14404   8.351   5.223  10.261  0.7107  0.2033 -0.4215
  105MOL0     C14405   7.359   4.894  10.308 -0.0076  0.1663  0.6670
  105MOL0     C14406   7.263   4.880  10.204  0.0541  0.0314 -0.8113
  105MOL0     C14407   6.993   4.754   9.884  0.0069  0.0730 -0.5197
  105MOL0     C14408   6.872   4.786   9.946 -0.2599 -0.8227  0.1955
  105MOL0     C14409   6.749   4.802   9.886 -0.7463  1.0161  0.3332
  105MOL0     C14410   6.746   4.800   9.748  0.9384  0.3913 -0.5151
  105MOL0     O14411   6.623   4.796   9.694  0.1291  0.3863  0.5735
  105MOL0     C14412   6.600   4.872   9.577 -0.1041 -0.4410 -1.0531
  105MOL0     C14413   6.467   4.830   9.517  0.4745 -0.2358  0.1157
  105MOL0     C14414   6.416   4.930   9.416 -0.3739  0.4627 -0.6226
  105MOL0     C14415   6.268   4.911   9.381  0.3399  0.3109  0.0778
  105MOL0     C14416   6.253   4.985   9.253  0.8803 -0.0372  0.0671
  105MOL0     C14417   6.233   5.042   9.146 -0.0900 -0.4386 -0.4564
  105MOL0     C14418   6.869   4.783   9.675  0.3082 -0.5056  0.0556
  105MOL0     C14419   6.990   4.747   9.739  0.2690 -0.4608  0.6309
  105MOL0     C14420   7.111   4.720   9.663 -0.7762  0.7091 -0.7860
  105MOL0     H14421   7.178   4.556  10.260 -0.8627  0.8905  2.1786
  105MOL0     H14422   7.351   4.598  10.453  0.3126  0.9464  0.7878
  105MOL0     H14423   7.608   4.659  10.408 -0.3552 -1.9696  0.0015
  105MOL0     H14424   7.586   4.653  10.587  0.2886  1.6326  0.2691
  105MOL0     H14425   7.695   4.852  10.634 -0.5127 -1.7907  0.7887
  105MOL0     H14426   7.810   4.759  10.544 -0.0791  1.1032  2.3988
  105MOL0     H14427   7.828   4.879  10.375  2.7339 -0.0154  2.8886
  105MOL0     H14428   7.660   4.905  10.352  1.4024 -1.9199 -0.1835
  105MOL0     H14429   7.699   5.089  10.551 -0.7361 -2.1297 -0.1142
  105MOL0     H14430   7.874   5.048  10.521  1.0786 -0.9620 -2.1777
  105MOL0     H14431   7.801   5.253  10.421 -2.5805  0.5763  0.2059
  105MOL0     H14432   7.680   5.181  10.329 -0.8033 -1.4064  1.8064
  105MOL0     H14433   7.858   5.042  10.195 -1.6662  0.0707  0.7604
  105MOL0     H14434   7.878   5.210  10.181 -1.4782 -0.9111 -0.2869
  105MOL0     H14435   8.030   5.015  10.355 -0.8410 -1.0989 -1.7386
  105MOL0     H14436   8.041   5.188  10.375 -0.7810 -0.6787 -0.1078
  105MOL0     H14437   8.125   5.023  10.130  0.7114 -0.4872  0.7663
  105MOL0     H14438   8.118   5.205  10.128 -1.2931 -0.3531 -0.8162
  105MOL0     H14439   8.247   4.940  10.377 -0.3065 -0.2866 -0.0167
  105MOL0     H14440   8.585   5.022  10.489 -0.4213 -1.6824 -0.2238
  105MOL0     H14441   8.447   4.949  10.579  2.0031  1.7640  2.5352
  105MOL0     H14442   8.556   5.231  10.626 -1.0431  0.1255 -1.9094
  105MOL0     H14443   8.401   5.178  10.685  0.1732 -0.8727 -0.1996
  105MOL0     H14444   8.488   5.002  10.797 -1.8624 -0.0384 -0.9002
  105MOL0     H14445   8.651   5.015  10.739  1.2753 -0.1114  1.5902
  105MOL0     H14446   8.514   5.200  10.925  0.0734 -0.7198  0.1288
  105MOL0     H14447   8.662   5.120  10.969  0.8457  0.4878 -1.4492
  105MOL0     H14448   8.799   5.505  10.741  2.1957  0.5991 -0.2354
  105MOL0     H14449   9.084   5.544  10.589 -0.7003  3.7285 -1.5528
  105MOL0     H14450   9.123   5.627  10.737 -1.2909 -0.1130  1.5506
  105MOL0     H14451   8.961   5.632  10.672  0.4707  0.4990 -1.7706
  105MOL0     H14452   9.516   5.382  10.680  1.7108  0.5473 -1.3751
  105MOL0     H14453   9.747   5.325  10.694  2.0091 -2.7466 -0.6649
  105MOL0     H14454   9.899   5.069  11.025 -3.4464  0.0439 -1.0662
  105MOL0     H14455   9.867   4.960  10.887  0.0123  0.7684 -0.3555
  105MOL0     H14456  10.077   5.001  10.777  2.0853  0.0099 -0.4222
  105MOL0     H14457  10.115   5.135  10.899 -0.0746 -0.8337  4.5606
  105MOL0     H14458  10.086   4.835  10.953 -0.3462  1.1930 -1.2613
  105MOL0     H14459  10.127   4.947  11.074  1.4065  0.4573  0.1477
  105MOL0     H14460  10.335   4.983  10.973  0.4582 -0.5089 -2.2381
  105MOL0     H14461  10.300   4.882  10.826  1.4098 -0.2041 -0.8159
  105MOL0     H14462  10.429   4.782  11.023 -0.2537 -2.2561 -0.0855
  105MOL0     H14463  10.272   4.752  11.090 -0.9810  2.2986 -0.4775
  105MOL0     H14464  10.385   4.673  10.815 -2.5682  2.3400 -1.6320
  105MOL0     H14465  10.215   4.657  10.851 -1.4615 -0.2728  1.4125
  105MOL0     H14466  10.273   4.503  11.039  1.2850  3.5809  1.7912
  105MOL0     H14467  10.446   4.532  11.020  0.1158  4.5549 -0.4699
  105MOL0     H14468  10.426   4.336  10.910  2.5577 -0.3341 -0.5397
  105MOL0     H14469  10.470   4.456  10.800  0.2790 -3.1170 -0.9189
  105MOL0     H14470   9.679   5.071  11.028 -1.0762  2.2333  1.7814
  105MOL0     H14471   9.440   5.125  11.019 -0.5098 -4.0222 -3.5892
  105MOL0     H14472   9.104   5.147  10.897  1.0015  0.7323  2.1615
  105MOL0     H14473   8.878   5.115  10.910 -0.0343 -0.1228 -0.3997
  105MOL0     H14474   7.424   4.980  10.327  2.1553 -1.4238  0.8583
  105MOL0     H14475   7.239   4.969  10.146  0.7729  0.3387 -0.6526
  105MOL0     H14476   6.868   4.796  10.054 -0.3277  2.7267 -0.0260
  105MOL0     H14477   6.651   4.806   9.933 -0.4805  0.1394  0.9976
  105MOL0     H14478   6.608   4.980   9.591  0.0261 -0.8206  2.7412
  105MOL0     H14479   6.675   4.833   9.507  0.2923 -1.0062 -0.3199
  105MOL0     H14480   6.392   4.827   9.597  0.8493 -0.8992  0.4457
  105MOL0     H14481   6.480   4.732   9.470  0.7687 -0.7044  1.1606
  105MOL0     H14482   6.416   5.030   9.461 -1.1075 -0.0568  0.6056
  105MOL0     H14483   6.477   4.927   9.326 -1.1667 -2.6485 -1.1711
  105MOL0     H14484   6.195   4.961   9.445 -1.0245 -1.9854  0.4393
  105MOL0     H14485   6.248   4.804   9.370 -1.5461  0.6403 -0.0652
  105MOL0     H14486   6.239   5.087   9.049 -1.7606 -2.0236 -1.3438
  105MOL0     H14487   6.867   4.761   9.569 -0.1856  0.4184 -0.1305
  105MOL0     H14488   7.165   4.632   9.699  0.6005  1.2753 -1.4095
  105MOL0     H14489   7.089   4.700   9.558  4.4473  2.0979 -2.4410
  105MOL0     H14490   7.181   4.804   9.660  1.1795 -0.8712 -2.3341
  106MOL0     O14491   6.750   6.882   9.393 -0.2412  0.1015 -0.5476
  106MOL0     C14492   6.756   6.857   9.512 -0.5857 -0.9424  0.0521
  106MOL0     O14493   6.652   6.869   9.601  0.1147 -0.1089 -0.2134
  106MOL0     C14494   6.552   6.963   9.582  0.2922 -0.1610  0.1176
  106MOL0     C14495   6.543   7.061   9.486 -0.0534 -0.2547 -0.2365
  106MOL0     C14496   6.437   7.158   9.483  0.2096  0.0536  1.1264
  106MOL0     C14497   6.331   7.145   9.573  0.0362  0.6780 -0.2125
  106MOL0     O14498   6.225   7.238   9.549  0.3395 -0.4082 -0.2152
  106MOL0     C14499   6.107   7.228   9.620  0.4018  0.5305 -0.0433
  106MOL0     C14500   6.013   7.132   9.557 -0.1393  0.6942  0.5138
  106MOL0     C14501   5.940   7.191   9.435 -1.0965  0.5113  0.0299
  106MOL0     C14502   5.834   7.098   9.384  0.1521 -0.1914  0.0738
  106MOL0     C14503   5.805   7.129   9.231 -0.1694  0.4194 -0.2119
  106MOL0     C14504   5.771   7.277   9.208 -0.3152 -0.4141 -0.2603
  106MOL0     C14505   5.778   7.318   9.063  1.0400  0.3287  0.3526
  106MOL0     C14506   5.902   7.383   9.024 -1.3925  0.1369 -0.0449
  106MOL0     N14507   6.013   7.289   9.016 -0.2776  0.1149 -0.5109
  106MOL0     C14508   6.121   7.292   9.100 -0.0412  0.5743 -0.5650
  106MOL0     C14509   6.192   7.183   9.069  0.2791 -0.0600  0.5279
  106MOL0     C14510   6.323   7.138   9.114 -0.1803  0.1029 -0.5244
  106MOL0     C14511   6.320   6.987   9.156  0.5173 -0.8817 -0.6689
  106MOL0     C14512   6.460   6.930   9.161  0.1230  0.8394 -0.4712
  106MOL0     C14513   6.513   6.902   9.019  0.2256  1.0279 -0.7410
  106MOL0     O14514   6.602   7.013   8.964  0.3339  0.1809 -0.4752
  106MOL0     C14515   6.737   7.023   9.012  0.5277 -0.5941  0.5866
  106MOL0     C14516   6.818   7.121   8.955  0.9717 -0.2144 -0.2747
  106MOL0     C14517   6.950   7.124   8.976 -0.7126 -0.0970  0.5305
  106MOL0     C14518   7.032   7.228   8.902  0.5809  0.4834  0.3211
  106MOL0     C14519   7.016   7.038   9.069  0.8544  0.6396 -0.3417
  106MOL0     C14520   7.160   7.049   9.115 -0.9386 -0.1689 -0.1881
  106MOL0     O14521   7.203   6.974   9.226  0.2270  0.7194  0.2340
  106MOL0     C14522   7.328   6.924   9.233  0.7316  0.8562 -0.0621
  106MOL0     C14523   7.396   6.873   9.123 -0.0291 -0.2889 -0.1871
  106MOL0     C14524   7.529   6.832   9.136  0.7753 -0.1072 -0.0190
  106MOL0     C14525   7.595   6.813   9.262  0.4426 -1.1576 -0.0969
  106MOL0     O14526   7.718   6.763   9.259  0.0813 -0.3852 -0.4215
  106MOL0     C14527   7.812   6.797   9.365 -0.9649  0.4229  0.5123
  106MOL0     C14528   7.953   6.778   9.303  0.2750 -0.1497  0.6603
  106MOL0     C14529   8.065   6.805   9.402 -0.3038 -0.0838 -0.8056
  106MOL0     C14530   8.179   6.711   9.373 -0.0695 -0.3887  0.4967
  106MOL0     C14531   8.289   6.714   9.476  0.0973  0.5733  0.0518
  106MOL0     C14532   8.381   6.841   9.466  0.1791 -0.0038  0.3011
  106MOL0     C14533   8.516   6.817   9.539 -0.1710  0.0823  0.3046
  106MOL0     C14534   8.592   6.940   9.552 -0.5427 -0.2860 -0.1596
  106MOL0    Cl14535   8.742   6.910   9.623 -0.1893  0.1397 -0.1139
  106MOL0     C14536   7.521   6.864   9.366  0.2184 -0.6586 -0.3363
  106MOL0     C14537   7.391   6.918   9.355 -0.6691  0.2766  0.5366
  106MOL0     O14538   7.241   7.110   9.046 -0.4401 -0.4579  0.4871
  106MOL0     C14539   6.939   6.932   9.127 -0.6045  0.3304  0.5612
  106MOL0     C14540   6.799   6.926   9.100  0.2485 -0.1500  1.0839
  106MOL0     N14541   6.128   7.109   8.969  0.9512 -0.2601 -0.7093
  106MOL0     N14542   6.018   7.175   8.937  0.8424 -0.5536 -0.9896
  106MOL0     C14543   6.335   7.047   9.668  0.0812  0.0599  0.0657
  106MOL0     C14544   6.441   6.953   9.673 -0.2974 -0.3977 -0.1214
  106MOL0     C14545   6.878   6.799   9.563  0.0216 -0.2229  0.1226
  106MOL0     C14546   7.003   6.813   9.490  0.3916  0.3013 -0.2474
  106MOL0     C14547   7.117   6.753   9.533 -0.1242  0.0515  0.4057
  106MOL0     C14548   7.122   6.682   9.650 -1.7447  0.0956  0.3751
  106MOL0     O14549   7.233   6.615   9.696 -0.2784  0.9184 -0.7269
  106MOL0     C14550   7.351   6.599   9.620 -0.5395 -0.3988  0.6009
  106MOL0     C14551   7.461   6.527   9.693 -0.0466 -0.7756  0.1477
  106MOL0     C14552   7.596   6.534   9.621 -0.0950 -0.4630 -0.0448
  106MOL0     C14553   7.693   6.461   9.712 -0.5897 -0.5195  0.4024
  106MOL0     C14554   7.829   6.469   9.658 -1.0366 -0.3100  0.5719
  106MOL0     C14555   7.944   6.452   9.613 -0.3007 -0.0371  0.0654
  106MOL0     C14556   7.006   6.654   9.715  0.5902  0.3727 -0.4259
  106MOL0     C14557   6.879   6.701   9.667  0.1814 -0.0187 -0.1680
  106MOL0     C14558   6.758   6.649   9.741  0.2563 -0.0067 -0.3307
  106MOL0     H14559   6.631   7.076   9.424 -0.1471 -0.4977 -0.4272
  106MOL0     H14560   6.441   7.236   9.407  1.5567  1.5056  2.6351
  106MOL0     H14561   6.059   7.326   9.616 -1.8447 -0.3818  2.1188
  106MOL0     H14562   6.123   7.204   9.726  1.1798 -0.4961 -0.3760
  106MOL0     H14563   6.068   7.042   9.529 -0.0252  1.3711 -1.5984
  106MOL0     H14564   5.934   7.093   9.623  0.0875 -1.6321 -0.4832
  106MOL0     H14565   5.901   7.288   9.467 -3.2015 -0.2654 -0.0548
  106MOL0     H14566   6.022   7.197   9.362 -0.4241 -0.0904  0.7091
  106MOL0     H14567   5.862   6.992   9.397  0.9079  0.0650  0.6204
  106MOL0     H14568   5.746   7.115   9.446  1.1414  1.1949  1.1706
  106MOL0     H14569   5.719   7.069   9.198 -0.0502  0.5582 -0.7731
  106MOL0     H14570   5.897   7.101   9.179  1.0283  0.1336  1.9355
  106MOL0     H14571   5.674   7.295   9.255  0.2955  1.2329  0.4241
  106MOL0     H14572   5.830   7.338   9.276 -2.3145  0.2070  1.0026
  106MOL0     H14573   5.709   7.401   9.045  0.4418 -0.2272  0.0551
  106MOL0     H14574   5.759   7.231   8.999 -0.0750  1.6174 -1.1447
  106MOL0     H14575   5.887   7.417   8.921 -4.8638  2.4664  1.0360
  106MOL0     H14576   5.937   7.461   9.092  0.1820  2.4209 -3.2237
  106MOL0     H14577   6.148   7.360   9.180  3.4065 -0.6426 -0.5359
  106MOL0     H14578   6.354   7.199   9.199  1.1308 -0.0036 -0.9174
  106MOL0     H14579   6.396   7.160   9.036  0.1764 -0.8201 -0.4579
  106MOL0     H14580   6.274   6.983   9.255  1.3754  0.8776 -0.1443
  106MOL0     H14581   6.257   6.932   9.086 -0.6811  0.8222 -0.9849
  106MOL0     H14582   6.539   6.985   9.213  0.4273 -0.9555  1.0631
  106MOL0     H14583   6.448   6.836   9.215  1.2548  1.5290  1.0632
  106MOL0     H14584   6.573   6.811   9.020 -4.0470 -2.1082  0.9828
  106MOL0     H14585   6.434   6.894   8.944  0.2016  2.2948 -0.8889
  106MOL0     H14586   6.761   7.192   8.895 -0.6089 -0.8812  0.3683
  106MOL0     H14587   7.121   7.181   8.859  0.7737  2.6276 -1.8103
  106MOL0     H14588   7.050   7.313   8.968 -0.6860  1.1355 -0.1426
  106MOL0     H14589   6.965   7.257   8.821 -0.6453  2.1809  1.8602
  106MOL0     H14590   7.350   6.879   9.025 -2.0641  3.3959  0.7976
  106MOL0     H14591   7.561   6.799   9.038 -3.2536 -2.1191 -0.8682
  106MOL0     H14592   7.799   6.899   9.403  0.7593  0.6656  0.4977
  106MOL0     H14593   7.803   6.725   9.448 -0.7303  0.6668  0.7512
  106MOL0     H14594   7.953   6.679   9.256  0.7157  0.7310 -1.3179
  106MOL0     H14595   7.973   6.850   9.223  1.2479 -1.8816 -0.7234
  106MOL0     H14596   8.031   6.802   9.506 -0.5106 -0.5752 -0.8838
  106MOL0     H14597   8.100   6.908   9.391 -0.0524  0.0460  0.9449
  106MOL0     H14598   8.213   6.727   9.270 -3.2443  0.0158 -0.6085
  106MOL0     H14599   8.135   6.611   9.373 -3.0587  0.7925  0.4858
  106MOL0     H14600   8.241   6.710   9.574  3.1444 -2.9028  1.6403
  106MOL0     H14601   8.338   6.616   9.471 -3.2306 -1.1944 -0.9867
  106MOL0     H14602   8.331   6.926   9.514 -0.2836 -0.6070  0.8931
  106MOL0     H14603   8.402   6.872   9.363  0.6180  0.7994  0.6195
  106MOL0     H14604   8.577   6.750   9.478 -1.0158 -1.3550  0.9930
  106MOL0     H14605   8.505   6.785   9.643 -2.7966  2.2469  0.8229
  106MOL0     H14606   8.539   6.994   9.631 -1.9529  0.1367 -1.3677
  106MOL0     H14607   8.609   6.998   9.461  0.0489 -0.1240  0.0495
  106MOL0     H14608   7.555   6.874   9.469 -4.2675  2.2181  1.1530
  106MOL0     H14609   7.340   6.958   9.442 -3.3702  0.7077 -1.1368
  106MOL0     H14610   6.989   6.853   9.182  1.6305  1.7978  0.7462
  106MOL0     H14611   6.755   6.838   9.146  1.4552 -1.0085  0.6568
  106MOL0     H14612   6.250   7.035   9.735 -0.6121  3.1014 -0.1282
  106MOL0     H14613   6.443   6.872   9.745 -2.9243 -1.5652 -1.2273
  106MOL0     H14614   7.019   6.836   9.386  2.4930  0.9324  0.1726
  106MOL0     H14615   7.203   6.746   9.467  0.5321 -0.0070  1.2615
  106MOL0     H14616   7.338   6.547   9.525  0.0028  0.5210  0.0164
  106MOL0     H14617   7.380   6.698   9.585  0.5912 -0.8822  0.1336
  106MOL0     H14618   7.429   6.424   9.707  1.5554 -1.5299 -1.3293
  106MOL0     H14619   7.471   6.583   9.787 -0.7354 -1.5684  0.7024
  106MOL0     H14620   7.592   6.492   9.521  0.2060 -0.2637 -0.1411
  106MOL0     H14621   7.622   6.638   9.601 -1.3841 -0.3799 -1.4542
  106MOL0     H14622   7.672   6.355   9.727  1.5921 -1.0398  0.0954
  106MOL0     H14623   7.691   6.509   9.810  2.1917 -0.0017  0.2850
  106MOL0     H14624   8.039   6.430   9.567 -1.5233 -1.1072 -2.1340
  106MOL0     H14625   7.017   6.585   9.798  1.6597 -1.8739 -2.3094
  106MOL0     H14626   6.715   6.727   9.804  1.8135  0.0816  0.6778
  106MOL0     H14627   6.682   6.618   9.669 -1.0153 -1.3606  1.5150
  106MOL0     H14628   6.787   6.570   9.811  1.1174 -1.8112 -2.5737
  107MOL0     O14629   2.450   1.334   7.042  0.3186 -0.2749 -0.3940
  107MOL0     C14630   2.482   1.355   6.922 -0.3843 -0.3929  0.1506
  107MOL0     O14631   2.388   1.365   6.814  0.0058  0.3270  0.0869
  107MOL0     C14632   2.255   1.339   6.835 -0.4514  0.7267 -0.2578
  107MOL0     C14633   2.163   1.429   6.782 -0.5882  0.1331 -1.0311
  107MOL0     C14634   2.025   1.404   6.793  0.1996 -0.5476  0.0847
  107MOL0     C14635   1.982   1.292   6.851  0.2930 -0.0871  0.4493
  107MOL0     O14636   1.851   1.276   6.886  0.1234 -0.2167  0.2387
  107MOL0     C14637   1.736   1.322   6.792 -0.3487  0.2079 -0.7094
  107MOL0     C14638   1.751   1.255   6.658  0.6612 -0.1262 -0.0034
  107MOL0     C14639   1.758   1.103   6.662 -0.4868 -0.4209 -0.7739
  107MOL0     C14640   1.727   1.051   6.524  0.4863 -0.3269  0.2495
  107MOL0     C14641   1.679   0.911   6.518 -0.1115  0.9314 -0.1330
  107MOL0     C14642   1.642   0.865   6.377  0.1939 -0.2365 -0.1218
  107MOL0     C14643   1.760   0.849   6.292 -1.0770 -0.1941 -0.2756
  107MOL0     C14644   1.731   0.767   6.168  0.0489 -0.5818 -0.6295
  107MOL0     N14645   1.836   0.793   6.066  0.7754  0.1167 -1.3803
  107MOL0     C14646   1.960   0.728   6.063 -0.1164 -0.0522 -0.2179
  107MOL0     C14647   2.012   0.769   5.951  1.0109  0.6946  0.8354
  107MOL0     C14648   2.160   0.755   5.915 -0.4779 -0.1507 -0.1141
  107MOL0     C14649   2.162   0.663   5.791 -0.3667  0.2011 -0.7360
  107MOL0     C14650   2.134   0.513   5.835  0.1006  1.5803  0.7936
  107MOL0     C14651   2.179   0.408   5.728 -0.0154 -0.1481  0.2013
  107MOL0     O14652   2.318   0.419   5.708 -0.4656  0.3097  0.4322
  107MOL0     C14653   2.384   0.301   5.665 -0.0559 -0.7588  0.8095
  107MOL0     C14654   2.515   0.267   5.708  0.1932 -0.5617 -1.3348
  107MOL0     C14655   2.580   0.154   5.679 -0.5598  0.3011  1.0247
  107MOL0     C14656   2.719   0.118   5.741  0.2454 -0.8288 -0.1884
  107MOL0     C14657   2.509   0.060   5.586 -0.3695  0.3887  0.2773
  107MOL0     C14658   2.563  -0.072   5.552  0.3360  0.5537 -0.5681
  107MOL0     O14659   2.604  -0.162   5.655  0.2998 -0.3004 -0.1533
  107MOL0     C14660   2.637  -0.287   5.629  0.0706  0.2406 -0.3315
  107MOL0     C14661   2.585  -0.380   5.721  0.4927 -0.1404 -0.8668
  107MOL0     C14662   2.604  -0.518   5.699 -0.5420 -0.4195 -0.3684
  107MOL0     C14663   2.684  -0.568   5.597 -0.4791 -1.4555  0.7846
  107MOL0     O14664   2.703  -0.703   5.591 -0.2286  0.2535 -0.0349
  107MOL0     C14665   2.821  -0.762   5.526  0.1109  0.5631 -0.5110
  107MOL0     C14666   2.951  -0.740   5.609  1.0373 -0.0097  0.1359
  107MOL0     C14667   2.961  -0.815   5.736  0.2344  0.2918  0.5475
  107MOL0     C14668   2.992  -0.968   5.716 -0.5089  0.5919  0.3258
  107MOL0     C14669   3.146  -1.015   5.702  0.1750  0.5909  1.1765
  107MOL0     C14670   3.231  -1.017   5.828 -0.0812 -0.1605 -0.0211
  107MOL0     C14671   3.348  -1.116   5.823  0.0014 -0.2580  0.0356
  107MOL0     C14672   3.403  -1.155   5.959 -0.2526 -0.2937 -0.0734
  107MOL0    Cl14673   3.447  -0.999   6.046 -0.5697  0.3734  0.1189
  107MOL0     C14674   2.750  -0.468   5.521 -0.1095  1.0251 -0.7878
  107MOL0     C14675   2.722  -0.330   5.529 -0.3759  0.1371 -0.5815
  107MOL0     O14676   2.568  -0.094   5.432  1.1579 -0.8482 -0.8455
  107MOL0     C14677   2.384   0.092   5.537  0.3808 -0.6392 -0.5447
  107MOL0     C14678   2.329   0.215   5.572  0.2048 -0.2178  0.3472
  107MOL0     N14679   1.918   0.844   5.874  0.3246 -0.5113  0.9309
  107MOL0     N14680   1.809   0.867   5.948 -0.3522  0.1223  0.0731
  107MOL0     C14681   2.072   1.197   6.901  0.0524 -1.2734 -0.1572
  107MOL0     C14682   2.207   1.226   6.900 -0.3842 -0.2255 -0.3498
  107MOL0     C14683   2.624   1.385   6.891  0.1222  0.0087 -1.2215
  107MOL0     C14684   2.678   1.350   6.758  0.6420  0.2131 -0.3814
  107MOL0     C14685   2.812   1.375   6.728  0.1402  0.1691  0.1207
  107MOL0     C14686   2.891   1.437   6.822 -0.0392 -0.7499 -0.6502
  107MOL0     O14687   3.028   1.470   6.818  0.2793 -0.3916  0.9168
  107MOL0     C14688   3.108   1.417   6.712  0.0575  0.2184  0.4594
  107MOL0     C14689   3.244   1.364   6.766 -0.5778 -0.0630 -0.8325
  107MOL0     C14690   3.312   1.460   6.864  0.4743  0.1413 -0.3352
  107MOL0     C14691   3.341   1.594   6.813  1.1937 -0.2297  0.2749
  107MOL0     C14692   3.410   1.598   6.687  0.6692  0.0898  0.9791
  107MOL0     C14693   3.468   1.594   6.577 -0.3200 -1.2697 -0.1732
  107MOL0     C14694   2.837   1.480   6.940  0.5147  0.2179  0.0256
  107MOL0     C14695   2.707   1.461   6.981  0.1700 -0.0715  0.5905
  107MOL0     C14696   2.670   1.529   7.114  0.8643  0.5136  1.0109
  107MOL0     H14697   2.196   1.520   6.733  2.6851  1.3922  2.9629
  107MOL0     H14698   1.951   1.480   6.770  1.4259  0.4372 -0.7271
  107MOL0     H14699   1.743   1.431   6.779  1.2746  0.6606  2.8272
  107MOL0     H14700   1.649   1.285   6.846 -0.2321 -0.1483 -0.7684
  107MOL0     H14701   1.669   1.284   6.591  0.7766 -2.0887 -1.0927
  107MOL0     H14702   1.835   1.290   6.597 -1.3222  1.7280 -1.8505
  107MOL0     H14703   1.857   1.071   6.697  0.9182  1.2481 -2.9893
  107MOL0     H14704   1.694   1.060   6.740  0.5124 -0.2550  0.1558
  107MOL0     H14705   1.644   1.107   6.480  2.6333  2.6736 -0.3354
  107MOL0     H14706   1.814   1.056   6.458 -0.7193  0.8851 -1.3262
  107MOL0     H14707   1.597   0.892   6.589  0.4433  0.0572  0.2980
  107MOL0     H14708   1.754   0.838   6.551 -0.9509 -0.1815 -0.6155
  107MOL0     H14709   1.584   0.772   6.386 -0.1273  0.0439  0.8821
  107MOL0     H14710   1.572   0.937   6.334 -0.9534  0.0651  2.0923
  107MOL0     H14711   1.844   0.797   6.339 -2.1975 -3.2552 -1.3957
  107MOL0     H14712   1.802   0.948   6.270 -1.1550 -0.9224 -4.5144
  107MOL0     H14713   1.731   0.662   6.198 -0.0939 -0.1531  0.9456
  107MOL0     H14714   1.631   0.795   6.133 -1.1876 -1.6688  1.8312
  107MOL0     H14715   2.010   0.670   6.140  0.2176  0.8223  0.2396
  107MOL0     H14716   2.204   0.707   6.003  1.0480  3.5681  1.3307
  107MOL0     H14717   2.196   0.855   5.893 -0.4908  0.0969  0.9296
  107MOL0     H14718   2.094   0.694   5.711 -3.6933 -2.6580  0.6613
  107MOL0     H14719   2.261   0.666   5.746  0.5147 -0.0334  1.1241
  107MOL0     H14720   2.187   0.493   5.928  2.1299  1.7104 -0.2671
  107MOL0     H14721   2.026   0.494   5.839  0.5081 -1.4878  0.0405
  107MOL0     H14722   2.161   0.305   5.762  2.2853  0.2125  2.8714
  107MOL0     H14723   2.125   0.430   5.635 -2.8681  4.2179  2.5547
  107MOL0     H14724   2.554   0.334   5.784 -1.6250  0.5678 -1.3237
  107MOL0     H14725   2.779   0.065   5.666 -0.2585 -0.3119 -0.9657
  107MOL0     H14726   2.706   0.040   5.818 -5.2555  0.1993  0.3189
  107MOL0     H14727   2.756   0.207   5.792 -3.2802  0.3814  0.5470
  107MOL0     H14728   2.526  -0.341   5.804  2.5980  1.3744  0.0382
  107MOL0     H14729   2.546  -0.590   5.754  0.4239 -1.8634 -1.1630
  107MOL0     H14730   2.801  -0.867   5.504  1.5671  0.2814 -0.5838
  107MOL0     H14731   2.818  -0.723   5.424 -1.1708 -0.0320 -0.7159
  107MOL0     H14732   3.040  -0.763   5.549  0.9591 -0.2277  0.1037
  107MOL0     H14733   2.947  -0.631   5.620 -3.0533  0.2589 -2.0204
  107MOL0     H14734   2.871  -0.809   5.799 -0.5883 -2.5146 -0.1851
  107MOL0     H14735   3.051  -0.771   5.780  1.5047 -0.6158 -1.0157
  107MOL0     H14736   2.940  -0.997   5.625  0.4899  0.4225 -0.2048
  107MOL0     H14737   2.942  -1.024   5.796  0.4163  0.8338  1.0969
  107MOL0     H14738   3.154  -1.120   5.672 -0.0369  1.1453 -0.9481
  107MOL0     H14739   3.200  -0.962   5.623  1.3865  2.1556  2.9417
  107MOL0     H14740   3.163  -1.039   5.911 -1.7308 -0.8758 -1.4891
  107MOL0     H14741   3.265  -0.916   5.850  0.2268 -0.4290  0.7598
  107MOL0     H14742   3.426  -1.069   5.762 -0.6001 -1.6545 -1.9236
  107MOL0     H14743   3.326  -1.201   5.757  2.0961 -1.0572  0.2776
  107MOL0     H14744   3.490  -1.221   5.962 -0.3382 -0.3703  0.7662
  107MOL0     H14745   3.324  -1.197   6.021  0.2631  0.4797  1.1407
  107MOL0     H14746   2.803  -0.511   5.437  1.9361  1.7916  0.0310
  107MOL0     H14747   2.774  -0.273   5.453  0.1113 -0.1826 -0.4930
  107MOL0     H14748   2.330   0.018   5.479  0.0195 -0.8707  0.0796
  107MOL0     H14749   2.235   0.242   5.525  0.0146  0.5913  1.1619
  107MOL0     H14750   2.041   1.105   6.950  1.0109 -2.1081 -1.0724
  107MOL0     H14751   2.282   1.156   6.935  0.6499  0.6126 -0.8194
  107MOL0     H14752   2.608   1.301   6.691 -0.3661 -0.7033  1.2603
  107MOL0     H14753   2.848   1.343   6.630 -4.1483 -0.2268 -1.5441
  107MOL0     H14754   3.058   1.332   6.663 -1.5331  0.7735  1.0844
  107MOL0     H14755   3.135   1.504   6.651  1.3580  0.4157  1.2754
  107MOL0     H14756   3.308   1.345   6.679 -0.4072 -1.9567 -0.3499
  107MOL0     H14757   3.231   1.271   6.822  0.0640  0.0927 -0.4022
  107MOL0     H14758   3.254   1.472   6.956  3.2062 -2.0708  1.8635
  107MOL0     H14759   3.409   1.430   6.906  0.1881  1.6475  1.5580
  107MOL0     H14760   3.404   1.647   6.886 -0.7339  1.9417  0.4726
  107MOL0     H14761   3.250   1.655   6.803  1.6080  1.2349  3.7499
  107MOL0     H14762   3.510   1.608   6.480  0.3886 -0.7688  0.1984
  107MOL0     H14763   2.908   1.498   7.020  1.3404  1.0868 -0.8868
  107MOL0     H14764   2.584   1.597   7.116 -0.4063 -0.9870 -0.1474
  107MOL0     H14765   2.647   1.454   7.191  2.6283  3.0067  4.2317
  107MOL0     H14766   2.749   1.598   7.144  0.6652  1.9786 -1.5590
  108MOL0     O14767   5.167  10.552   5.878 -0.6908  0.1418 -0.2124
  108MOL0     C14768   5.056  10.594   5.887  0.0385 -0.4204  0.4768
  108MOL0     O14769   5.023  10.715   5.946 -0.6500  0.5935  0.9672
  108MOL0     C14770   5.123  10.803   5.988 -0.4315  0.5031 -0.6214
  108MOL0     C14771   5.178  10.786   6.112 -0.6889  0.4997 -0.0105
  108MOL0     C14772   5.256  10.888   6.169  0.5681 -0.0969 -0.4706
  108MOL0     C14773   5.287  11.009   6.106  0.6414 -0.1917  0.7674
  108MOL0     O14774   5.358  11.114   6.167  0.5699 -0.1949  0.0329
  108MOL0     C14775   5.263  11.201   6.241 -0.5356 -0.6490  0.3018
  108MOL0     C14776   5.336  11.274   6.354  0.7232  0.7893 -0.0276
  108MOL0     C14777   5.409  11.178   6.454 -1.0413  0.0535  0.7943
  108MOL0     C14778   5.405  11.237   6.598 -0.6352  0.1602  1.3748
  108MOL0     C14779   5.451  11.160   6.719 -0.1412  0.4661  0.7711
  108MOL0     C14780   5.577  11.088   6.685 -0.1216 -1.0319  0.0868
  108MOL0     C14781   5.667  11.046   6.795  0.3257 -0.6466 -0.2090
  108MOL0     C14782   5.639  10.898   6.821 -0.5935 -0.3108 -0.2640
  108MOL0     N14783   5.749  10.838   6.907  0.1668 -1.0174 -0.4220
  108MOL0     C14784   5.875  10.823   6.861 -0.3890  0.3263 -0.0057
  108MOL0     C14785   5.945  10.770   6.957 -0.4196 -0.7813  0.3142
  108MOL0     C14786   6.098  10.746   6.955  1.6778  0.3586  0.1928
  108MOL0     C14787   6.148  10.729   7.104  0.2327  0.5001  0.1980
  108MOL0     C14788   6.305  10.732   7.111  0.8951  0.1470 -0.2429
  108MOL0     C14789   6.355  10.707   7.255 -0.6131 -0.0341 -0.5661
  108MOL0     O14790   6.492  10.652   7.243  0.0172 -0.7403  0.3493
  108MOL0     C14791   6.596  10.744   7.238 -0.0269 -0.5717 -0.5968
  108MOL0     C14792   6.599  10.882   7.271  0.6008 -0.1965  0.7224
  108MOL0     C14793   6.719  10.953   7.289 -0.0776 -0.1067  0.1192
  108MOL0     C14794   6.708  11.093   7.330  0.9302 -0.7290  0.5725
  108MOL0     C14795   6.842  10.883   7.269 -0.4085  0.2005 -0.0503
  108MOL0     C14796   6.963  10.949   7.295  0.2291 -0.1847 -0.8228
  108MOL0     O14797   7.065  10.936   7.213 -0.0574 -0.9159  0.0347
  108MOL0     C14798   7.190  10.965   7.250  0.1848 -0.3353 -0.1619
  108MOL0     C14799   7.257  11.089   7.235  0.7940 -0.1748 -0.8186
  108MOL0     C14800   7.389  11.096   7.277 -0.5033  0.3757 -0.3095
  108MOL0     C14801   7.465  10.984   7.309 -0.0673 -1.1583 -0.2590
  108MOL0     O14802   7.600  10.999   7.329 -0.0691 -0.1720 -0.1970
  108MOL0     C14803   7.691  10.886   7.308  0.9223  0.0896 -0.4728
  108MOL0     C14804   7.834  10.932   7.333 -0.6904 -0.5169 -0.0671
  108MOL0     C14805   7.850  10.989   7.473  0.2832 -0.0691  0.5752
  108MOL0     C14806   7.990  10.969   7.534  0.1480 -0.2971  0.1457
  108MOL0     C14807   8.021  10.835   7.602  1.1494  0.1893 -0.0662
  108MOL0     C14808   7.962  10.822   7.746  0.3075 -0.4399  0.0872
  108MOL0     C14809   8.009  10.694   7.815 -0.0380 -0.4813  0.5403
  108MOL0     C14810   7.949  10.666   7.950 -0.4636  0.7041 -0.5232
  108MOL0    Cl14811   7.977  10.496   7.974  0.0691 -0.1226  0.2987
  108MOL0     C14812   7.394  10.867   7.334 -1.1861 -0.0449  0.4544
  108MOL0     C14813   7.259  10.860   7.304 -1.6650  1.2076 -0.1313
  108MOL0     O14814   6.985  10.988   7.411  0.5481  0.6847  0.8099
  108MOL0     C14815   6.837  10.758   7.209 -0.4012  0.2139 -0.4497
  108MOL0     C14816   6.717  10.684   7.207 -0.2915 -0.5483 -0.1856
  108MOL0     N14817   5.868  10.777   7.072  0.4372  0.6488  0.1267
  108MOL0     N14818   5.750  10.823   7.046  0.1115 -0.0866  0.5551
  108MOL0     C14819   5.244  11.022   5.967  0.4995  0.4838 -0.7396
  108MOL0     C14820   5.162  10.918   5.912 -0.5065  0.1462  0.3320
  108MOL0     C14821   4.960  10.523   5.816  0.1238  0.2305 -0.2865
  108MOL0     C14822   4.992  10.469   5.691 -0.2996 -0.1313  0.2640
  108MOL0     C14823   4.894  10.409   5.610  0.4964  0.5364  0.7059
  108MOL0     C14824   4.765  10.391   5.663  0.0946  0.5777 -0.0639
  108MOL0     O14825   4.661  10.321   5.600  0.3574  0.8451 -0.0234
  108MOL0     C14826   4.676  10.260   5.467  0.4955  0.1794  0.5404
  108MOL0     C14827   4.611  10.358   5.371 -0.0273  0.1344  0.4439
  108MOL0     C14828   4.476  10.419   5.406  0.2580  0.1145  0.3094
  108MOL0     C14829   4.356  10.335   5.371 -0.4335  0.2405 -0.0921
  108MOL0     C14830   4.235  10.369   5.447 -0.7193 -0.3891 -0.3107
  108MOL0     C14831   4.138  10.385   5.526 -0.4606 -0.3152  0.2221
  108MOL0     C14832   4.743  10.438   5.791 -0.1619 -0.2114 -0.1628
  108MOL0     C14833   4.841  10.500   5.877  0.3053 -0.6472 -0.0053
  108MOL0     C14834   4.809  10.542   6.022 -0.6952 -0.1398  0.0279
  108MOL0     H14835   5.152  10.700   6.173 -0.8657  0.9225  0.5237
  108MOL0     H14836   5.289  10.869   6.270  0.2490 -1.3525 -0.5840
  108MOL0     H14837   5.171  11.160   6.284 -0.5355  0.5381  1.5003
  108MOL0     H14838   5.232  11.278   6.169  1.3784  3.5018  3.5012
  108MOL0     H14839   5.404  11.352   6.317  3.0623 -1.7300 -1.3688
  108MOL0     H14840   5.256  11.329   6.405 -0.7668 -1.1327 -0.1833
  108MOL0     H14841   5.360  11.080   6.464 -1.3902  0.1030 -0.3470
  108MOL0     H14842   5.510  11.154   6.420 -1.7387 -0.5450 -0.9797
  108MOL0     H14843   5.473  11.322   6.584 -0.1712 -0.5432 -1.1049
  108MOL0     H14844   5.304  11.273   6.623 -1.0911 -0.8481  1.0336
  108MOL0     H14845   5.372  11.089   6.744  0.3075 -0.3394 -0.0308
  108MOL0     H14846   5.473  11.225   6.804 -0.7857  1.7216  0.0144
  108MOL0     H14847   5.567  11.001   6.620 -1.8699 -1.1296  0.4612
  108MOL0     H14848   5.632  11.163   6.626  1.5508 -2.6400 -0.4952
  108MOL0     H14849   5.659  11.113   6.881  2.6528  0.2528 -0.6149
  108MOL0     H14850   5.768  11.051   6.752 -0.9420 -1.0971 -3.5339
  108MOL0     H14851   5.542  10.886   6.869  0.4014 -1.4282  1.5740
  108MOL0     H14852   5.641  10.835   6.731 -2.4987 -2.0825  0.8454
  108MOL0     H14853   5.908  10.840   6.759 -2.5354 -2.9601 -1.4333
  108MOL0     H14854   6.160  10.824   6.909  4.5933 -2.1586 -0.4748
  108MOL0     H14855   6.110  10.657   6.893  0.7277 -1.4238  2.4364
  108MOL0     H14856   6.093  10.799   7.168 -3.5396 -0.9290 -1.1902
  108MOL0     H14857   6.114  10.629   7.132  0.6385  0.4247  0.4274
  108MOL0     H14858   6.339  10.645   7.055  1.9352  0.2701  0.1849
  108MOL0     H14859   6.340  10.824   7.063  0.7465 -0.5417 -1.7329
  108MOL0     H14860   6.343  10.782   7.333  1.0698 -1.8511  1.5767
  108MOL0     H14861   6.296  10.621   7.290 -0.4200 -0.3710 -1.0468
  108MOL0     H14862   6.507  10.935   7.291  0.9227  0.7617 -0.2948
  108MOL0     H14863   6.630  11.153   7.281  0.4631  0.7152  2.9311
  108MOL0     H14864   6.801  11.151   7.330  0.4354  0.0916 -0.2151
  108MOL0     H14865   6.680  11.088   7.436 -1.9055  0.8280  0.0037
  108MOL0     H14866   7.210  11.179   7.197  4.0758  1.7952 -0.5605
  108MOL0     H14867   7.443  11.189   7.264 -0.8044  0.7654  1.0774
  108MOL0     H14868   7.670  10.808   7.383  2.5986 -0.1078 -0.1838
  108MOL0     H14869   7.680  10.848   7.206 -0.9212 -1.5106  0.2481
  108MOL0     H14870   7.900  10.848   7.311  0.1539 -0.0597  0.6423
  108MOL0     H14871   7.856  11.018   7.269  1.2919  1.2731  2.7663
  108MOL0     H14872   7.766  10.961   7.537 -0.2902  0.4088  0.0435
  108MOL0     H14873   7.833  11.095   7.455  1.4607  0.2874  1.4087
  108MOL0     H14874   7.997  11.047   7.610  0.6866 -0.1702 -0.0310
  108MOL0     H14875   8.065  10.977   7.455 -1.1117 -2.1908 -1.3741
  108MOL0     H14876   7.998  10.751   7.536  2.3088  0.2586 -0.5987
  108MOL0     H14877   8.130  10.852   7.603  0.9109  1.9635  1.3915
  108MOL0     H14878   7.853  10.817   7.733  0.3982  0.5394 -1.2557
  108MOL0     H14879   7.984  10.916   7.798 -0.1676 -0.7329  0.8435
  108MOL0     H14880   8.119  10.699   7.819 -0.1255  1.2596  1.9003
  108MOL0     H14881   7.980  10.606   7.756 -2.1611  0.3188  0.3266
  108MOL0     H14882   7.841  10.680   7.958 -0.5696 -0.3682  0.1356
  108MOL0     H14883   7.998  10.717   8.034  0.2796 -0.2952 -0.3357
  108MOL0     H14884   7.444  10.781   7.377 -1.0062  0.4888  1.3374
  108MOL0     H14885   7.210  10.772   7.345  0.2987  0.8918  1.6931
  108MOL0     H14886   6.929  10.706   7.186  0.4732  0.5913  1.9296
  108MOL0     H14887   6.720  10.577   7.195 -0.5317 -0.8483  2.0232
  108MOL0     H14888   5.265  11.116   5.917  2.8799  1.8995  2.5591
  108MOL0     H14889   5.115  10.932   5.816  0.0578  0.1951  0.0608
  108MOL0     H14890   5.095  10.484   5.658 -0.6003  0.1184 -0.5749
  108MOL0     H14891   4.922  10.370   5.513  1.2608 -0.7943  1.4338
  108MOL0     H14892   4.779  10.239   5.437 -0.0670 -0.5513 -0.9263
  108MOL0     H14893   4.629  10.161   5.463  0.0925  0.4015 -0.2171
  108MOL0     H14894   4.621  10.329   5.266  2.8930  0.3105  0.5838
  108MOL0     H14895   4.681  10.443   5.377  0.6421 -0.4293  0.7539
  108MOL0     H14896   4.466  10.435   5.514  0.3903  0.0390  0.3328
  108MOL0     H14897   4.467  10.523   5.374 -3.7245 -0.2610 -0.2726
  108MOL0     H14898   4.382  10.229   5.379  1.4663  0.7203  0.7209
  108MOL0     H14899   4.319  10.364   5.272 -2.0034 -1.7160 -0.1536
  108MOL0     H14900   4.050  10.399   5.585  0.5391 -0.0741  1.7285
  108MOL0     H14901   4.645  10.430   5.837 -0.2970 -0.1687 -0.4405
  108MOL0     H14902   4.717  10.493   6.056 -2.3324  2.5071 -0.2056
  108MOL0     H14903   4.890  10.530   6.094  0.2951  2.3656 -0.5444
  108MOL0     H14904   4.775  10.645   6.005  0.2459  0.1410 -0.1865
  109MOL0     O14905   5.341   2.123   2.681 -0.1626 -0.4318 -0.0550
  109MOL0     C14906   5.243   2.051   2.668  0.1296 -0.8903 -0.1857
  109MOL0     O14907   5.240   1.917   2.669 -0.4424  0.0004 -0.1672
  109MOL0     C14908   5.366   1.863   2.679  0.4221 -0.1523 -0.6439
  109MOL0     C14909   5.416   1.798   2.567  0.1033  0.7163 -0.2801
  109MOL0     C14910   5.541   1.740   2.570  0.0915 -0.3660 -0.6500
  109MOL0     C14911   5.610   1.728   2.691 -0.2502 -0.1331 -0.4750
  109MOL0     O14912   5.735   1.669   2.682  0.1816  0.2332 -0.1442
  109MOL0     C14913   5.819   1.666   2.797 -0.7501  0.1357 -0.1661
  109MOL0     C14914   5.799   1.551   2.883  0.5395 -0.0358 -0.0604
  109MOL0     C14915   5.832   1.418   2.817  0.5722 -0.0141  0.3809
  109MOL0     C14916   5.806   1.307   2.921  0.5898  0.1042 -0.3980
  109MOL0     C14917   5.855   1.171   2.861 -0.2486  0.5990 -0.8060
  109MOL0     C14918   5.916   1.082   2.972 -0.0691 -0.7199  0.3262
  109MOL0     C14919   5.983   0.956   2.913 -0.0388  0.6002 -0.0971
  109MOL0     C14920   5.886   0.829   2.916 -0.1011  0.9341  0.5798
  109MOL0     N14921   5.860   0.775   3.055  0.1651  0.0276  0.2524
  109MOL0     C14922   5.733   0.801   3.112  0.1560 -0.4771 -0.0022
  109MOL0     C14923   5.730   0.710   3.215 -0.2915  0.2411  0.7086
  109MOL0     C14924   5.622   0.694   3.308  0.3856  0.3767 -0.9225
  109MOL0     C14925   5.512   0.604   3.256  0.1034  1.0864  0.0291
  109MOL0     C14926   5.396   0.693   3.187 -1.2853 -0.0680  0.6729
  109MOL0     C14927   5.264   0.626   3.194  0.4536  0.7034 -0.6214
  109MOL0     O14928   5.227   0.627   3.334 -0.1782  0.6882  0.1105
  109MOL0     C14929   5.097   0.631   3.362  0.6086  0.3825  0.4497
  109MOL0     C14930   5.060   0.718   3.458 -0.3146 -0.5392 -0.0879
  109MOL0     C14931   4.926   0.742   3.495 -0.5348 -0.3973  0.1067
  109MOL0     C14932   4.905   0.852   3.596  0.8142 -0.3968 -0.0072
  109MOL0     C14933   4.825   0.673   3.417 -0.6048  0.3069 -0.2268
  109MOL0     C14934   4.682   0.673   3.450 -0.2877 -1.2516 -0.4332
  109MOL0     O14935   4.600   0.567   3.415  0.2889  0.4351  0.1644
  109MOL0     C14936   4.472   0.564   3.470 -0.8821  0.1490 -0.0178
  109MOL0     C14937   4.437   0.605   3.596 -0.2496 -0.3665 -0.9946
  109MOL0     C14938   4.309   0.605   3.649 -0.1708  0.1866  0.1603
  109MOL0     C14939   4.204   0.556   3.564 -0.0504 -0.2757 -0.3246
  109MOL0     O14940   4.074   0.547   3.596 -0.3557 -0.5332 -0.2036
  109MOL0     C14941   4.011   0.655   3.663  0.7042 -0.3266 -0.3692
  109MOL0     C14942   3.874   0.605   3.718  0.5472 -0.1192 -0.1761
  109MOL0     C14943   3.762   0.632   3.612  0.8307 -0.5246 -0.4692
  109MOL0     C14944   3.634   0.590   3.679 -0.6381  0.8619 -0.4023
  109MOL0     C14945   3.519   0.652   3.598  0.0519  0.5749  0.0938
  109MOL0     C14946   3.391   0.596   3.634  0.7002 -0.6373 -0.4346
  109MOL0     C14947   3.267   0.648   3.558 -0.0797 -0.9218  0.0638
  109MOL0     C14948   3.139   0.573   3.613 -0.4484  0.5059 -0.2577
  109MOL0    Cl14949   3.006   0.620   3.519  0.2217 -0.4927  0.5945
  109MOL0     C14950   4.242   0.504   3.437 -0.2741 -0.3877 -0.1524
  109MOL0     C14951   4.372   0.506   3.392 -0.0212  0.1437 -0.7721
  109MOL0     O14952   4.646   0.775   3.507 -0.3746 -0.1479 -0.4407
  109MOL0     C14953   4.862   0.579   3.317 -0.2564 -0.4183  0.2136
  109MOL0     C14954   4.997   0.561   3.288  0.1495  0.2989  0.0095
  109MOL0     N14955   5.853   0.635   3.220 -0.5451 -0.5259 -0.5001
  109MOL0     N14956   5.924   0.670   3.118 -0.4464 -0.8272 -0.0161
  109MOL0     C14957   5.555   1.787   2.810 -0.2540 -0.2544  0.6693
  109MOL0     C14958   5.433   1.851   2.802 -0.2196 -0.0188  0.3930
  109MOL0     C14959   5.124   2.119   2.615 -0.2861  0.3577 -0.7614
  109MOL0     C14960   5.009   2.040   2.586 -0.6878  0.3649 -0.0587
  109MOL0     C14961   4.892   2.092   2.539  0.2529 -0.1228 -0.1705
  109MOL0     C14962   4.874   2.230   2.511 -0.7439  0.1689 -0.2234
  109MOL0     O14963   4.760   2.283   2.456 -0.2201 -0.2882 -0.6634
  109MOL0     C14964   4.634   2.212   2.464 -0.6160  0.5855  0.2728
  109MOL0     C14965   4.517   2.301   2.409  0.0779 -0.8701 -0.2260
  109MOL0     C14966   4.498   2.434   2.492  0.4537  0.0088 -0.2559
  109MOL0     C14967   4.376   2.515   2.450  0.4236 -0.1958  0.3046
  109MOL0     C14968   4.256   2.435   2.454 -0.0045  0.2112 -0.4803
  109MOL0     C14969   4.143   2.391   2.469  0.1400  1.0015  0.4696
  109MOL0     C14970   4.980   2.310   2.538 -0.6497  0.4848  0.5947
  109MOL0     C14971   5.100   2.262   2.590 -0.7725  0.5052  0.1624
  109MOL0     C14972   5.200   2.372   2.596 -0.0132  0.3071 -0.3348
  109MOL0     H14973   5.372   1.796   2.468 -1.0525  1.4481  0.1998
  109MOL0     H14974   5.580   1.700   2.478  0.1691  1.6205 -1.5414
  109MOL0     H14975   5.815   1.759   2.854  2.4379  1.6462 -2.0666
  109MOL0     H14976   5.924   1.666   2.765 -0.6684  0.2201  0.1016
  109MOL0     H14977   5.861   1.578   2.968 -1.4398 -2.5114  2.3384
  109MOL0     H14978   5.694   1.557   2.913  0.9567  0.2290  1.4160
  109MOL0     H14979   5.766   1.408   2.730  0.7858  0.6338  0.1365
  109MOL0     H14980   5.937   1.409   2.790  0.6391 -0.3572  0.7488
  109MOL0     H14981   5.834   1.321   3.026 -0.7750 -2.1882  0.3456
  109MOL0     H14982   5.698   1.290   2.925  0.4564  0.8584 -0.5512
  109MOL0     H14983   5.927   1.184   2.779 -0.6759  0.7238 -1.1645
  109MOL0     H14984   5.777   1.116   2.807 -0.2836  0.1117 -0.2768
  109MOL0     H14985   5.998   1.142   3.012  1.1665 -0.9778 -1.6860
  109MOL0     H14986   5.842   1.061   3.050 -1.7438  0.4526 -0.8746
  109MOL0     H14987   6.076   0.933   2.965 -0.1710 -1.8339 -0.8435
  109MOL0     H14988   6.015   0.974   2.810  1.0679 -2.5918 -0.4173
  109MOL0     H14989   5.792   0.848   2.864 -1.2861 -0.9335  1.9257
  109MOL0     H14990   5.944   0.751   2.866 -0.7830  0.3855  0.6281
  109MOL0     H14991   5.652   0.866   3.079  1.5219  0.2518 -2.1154
  109MOL0     H14992   5.586   0.791   3.343 -0.1978  0.6788 -2.2982
  109MOL0     H14993   5.660   0.653   3.402  0.6196  3.4984  0.4654
  109MOL0     H14994   5.552   0.530   3.186  2.9165 -0.5841  3.0785
  109MOL0     H14995   5.470   0.540   3.335  0.8623 -1.1923 -1.3096
  109MOL0     H14996   5.388   0.794   3.228  0.5454 -0.5845  2.4670
  109MOL0     H14997   5.427   0.703   3.083 -2.6077 -2.1632  0.0304
  109MOL0     H14998   5.186   0.681   3.141  1.1540  1.6371 -0.7039
  109MOL0     H14999   5.267   0.528   3.144 -1.1945  0.9970 -1.3515
  109MOL0     H15000   5.131   0.785   3.506 -1.7425 -0.3475  1.8813
  109MOL0     H15001   4.857   0.932   3.539  4.1870  1.0858 -1.0488
  109MOL0     H15002   4.998   0.897   3.634  0.1017  0.7111  0.4822
  109MOL0     H15003   4.849   0.816   3.683  1.3392  0.8439  0.8867
  109MOL0     H15004   4.516   0.637   3.663 -0.5288  1.5440 -1.5434
  109MOL0     H15005   4.284   0.642   3.747 -0.4427  2.4269 -0.7035
  109MOL0     H15006   4.074   0.699   3.740 -3.5948  1.2658  2.6102
  109MOL0     H15007   3.993   0.721   3.577  0.1741 -3.3456 -2.7541
  109MOL0     H15008   3.880   0.497   3.734 -1.2068 -0.1297  0.7191
  109MOL0     H15009   3.842   0.662   3.806  0.2405  0.8604 -0.8958
  109MOL0     H15010   3.784   0.580   3.518  0.7018  2.9318 -2.5555
  109MOL0     H15011   3.762   0.738   3.588 -0.5595 -0.6149 -0.9489
  109MOL0     H15012   3.647   0.627   3.781 -0.3377  0.9184 -0.4599
  109MOL0     H15013   3.627   0.484   3.705  2.6178  0.8963  1.2276
  109MOL0     H15014   3.517   0.758   3.623 -0.2210 -0.2021  4.0136
  109MOL0     H15015   3.530   0.642   3.490 -1.1974 -0.3462  0.0242
  109MOL0     H15016   3.375   0.626   3.738  1.2932  2.9229 -1.2218
  109MOL0     H15017   3.385   0.487   3.640 -1.6891 -0.6097 -1.2253
  109MOL0     H15018   3.269   0.640   3.449  0.3980 -2.6415  0.1660
  109MOL0     H15019   3.250   0.755   3.574  0.9790 -0.0931 -3.4921
  109MOL0     H15020   3.126   0.591   3.720 -2.8190  1.4611 -0.6441
  109MOL0     H15021   3.158   0.465   3.605  0.4708  0.4570  2.0198
  109MOL0     H15022   4.181   0.455   3.362 -0.1672  1.7651 -1.7375
  109MOL0     H15023   4.396   0.492   3.287 -0.8556  0.8798 -1.0777
  109MOL0     H15024   4.786   0.525   3.261 -0.1801  0.7561 -1.0880
  109MOL0     H15025   5.024   0.501   3.202 -2.1227  0.1633 -0.6774
  109MOL0     H15026   5.598   1.778   2.909  2.3155  2.4486 -0.0593
  109MOL0     H15027   5.387   1.895   2.890 -0.3617  2.8807 -1.0248
  109MOL0     H15028   5.022   1.937   2.616  1.2709 -0.7016 -3.8674
  109MOL0     H15029   4.811   2.020   2.530 -0.0162  0.3455 -1.6799
  109MOL0     H15030   4.648   2.119   2.409  0.3248 -0.0179  1.4830
  109MOL0     H15031   4.615   2.190   2.570  0.7499  2.5757  0.9861
  109MOL0     H15032   4.431   2.233   2.417  1.1371 -2.0577  1.7490
  109MOL0     H15033   4.531   2.327   2.304  0.3466  0.1955  0.0708
  109MOL0     H15034   4.475   2.405   2.594 -3.6745  2.0506 -0.3942
  109MOL0     H15035   4.586   2.498   2.485  1.0995 -0.6392  1.4604
  109MOL0     H15036   4.392   2.547   2.347  1.4012 -0.3553  0.4028
  109MOL0     H15037   4.367   2.607   2.509 -0.5528 -0.4103  0.5136
  109MOL0     H15038   4.048   2.342   2.475  0.9368 -0.5077  1.2856
  109MOL0     H15039   4.962   2.413   2.511 -2.1813  0.3572  1.0620
  109MOL0     H15040   5.215   2.415   2.695 -0.5472 -0.1703 -0.0483
  109MOL0     H15041   5.287   2.325   2.549 -0.2692 -0.9401  0.4068
  109MOL0     H15042   5.170   2.450   2.525  0.6307  1.0122  0.1467
  110MOL0     O15043   4.505   6.369   0.946  0.1357  0.8008  0.4960
  110MOL0     C15044   4.473   6.415   1.046 -0.0827  0.5740 -0.2395
  110MOL0     O15045   4.341   6.425   1.091 -0.4163 -0.5333  1.0008
  110MOL0     C15046   4.246   6.359   1.024 -0.3739 -0.3301  1.1219
  110MOL0     C15047   4.123   6.425   1.023  0.1297  0.2814 -0.5378
  110MOL0     C15048   4.013   6.372   0.967 -0.1807  0.2649  0.1164
  110MOL0     C15049   4.016   6.256   0.891 -0.3692  1.0136  0.2775
  110MOL0     O15050   3.900   6.196   0.838 -0.7617  0.5379  0.6475
  110MOL0     C15051   3.783   6.268   0.809  1.5067 -0.1177  0.0147
  110MOL0     C15052   3.716   6.207   0.687  0.2126  0.5764  1.1735
  110MOL0     C15053   3.690   6.056   0.709  0.8178 -0.3083 -0.0191
  110MOL0     C15054   3.643   5.988   0.577  0.0634  0.4264  0.6890
  110MOL0     C15055   3.742   5.974   0.454 -0.8283  0.2493 -0.5853
  110MOL0     C15056   3.704   5.863   0.358  0.7213  0.5997  0.2527
  110MOL0     C15057   3.821   5.829   0.267 -1.3164  0.2890 -0.1584
  110MOL0     C15058   3.777   5.719   0.166 -0.2951 -0.3162  0.1222
  110MOL0     N15059   3.757   5.583   0.216  0.3220 -0.2486  0.3444
  110MOL0     C15060   3.827   5.504   0.304 -0.1147 -0.1795 -0.2236
  110MOL0     C15061   3.773   5.381   0.306  0.3237 -0.7688  0.4562
  110MOL0     C15062   3.810   5.265   0.399  0.4605  0.4665  0.4279
  110MOL0     C15063   3.963   5.230   0.422 -0.0793 -0.4271  0.4592
  110MOL0     C15064   4.030   5.204   0.287 -0.8262  0.5036 -0.1257
  110MOL0     C15065   4.182   5.236   0.282  0.0699  1.0094  0.8358
  110MOL0     O15066   4.202   5.374   0.290 -0.5968  0.0378  0.3644
  110MOL0     C15067   4.185   5.459   0.181 -0.6088  0.4430 -0.1660
  110MOL0     C15068   4.169   5.434   0.048 -0.2143  0.0880  0.0719
  110MOL0     C15069   4.165   5.532  -0.058  0.6669  0.4939 -0.3818
  110MOL0     C15070   4.151   5.467  -0.191  0.0811  0.3247  0.0456
  110MOL0     C15071   4.177   5.672  -0.020  0.3795  0.4912  0.7767
  110MOL0     C15072   4.154   5.775  -0.111 -0.3468 -0.2842  0.3268
  110MOL0     O15073   4.134   5.746  -0.248 -0.1486  0.4259 -0.4926
  110MOL0     C15074   4.096   5.850  -0.333  0.8889 -0.1176  0.3348
  110MOL0     C15075   4.177   5.890  -0.430 -0.4114  0.4421 -0.6320
  110MOL0     C15076   4.132   5.983  -0.519  0.3996 -0.4000 -0.1651
  110MOL0     C15077   4.007   6.050  -0.505 -0.0864 -0.1130 -1.0805
  110MOL0     O15078   3.973   6.137  -0.602  0.0338 -0.5208 -0.0022
  110MOL0     C15079   3.909   6.263  -0.561 -0.0459  0.8227  0.3275
  110MOL0     C15080   3.929   6.364  -0.675  0.0051  0.2073  0.7851
  110MOL0     C15081   3.836   6.487  -0.664  0.8510 -0.1010  0.0620
  110MOL0     C15082   3.687   6.446  -0.621 -0.3695 -1.2831  1.0291
  110MOL0     C15083   3.594   6.566  -0.658 -0.1940  0.5242  1.1023
  110MOL0     C15084   3.449   6.547  -0.636 -0.2996 -0.3426 -0.2119
  110MOL0     C15085   3.392   6.424  -0.709 -0.2272 -0.6806 -0.7132
  110MOL0     C15086   3.233   6.421  -0.725 -0.2227  0.4896 -0.4007
  110MOL0    Cl15087   3.166   6.381  -0.569 -0.3422 -0.0530  0.4350
  110MOL0     C15088   3.936   6.025  -0.385 -0.7667 -0.0101 -0.2285
  110MOL0     C15089   3.981   5.916  -0.307 -0.5453 -0.2949 -0.1859
  110MOL0     O15090   4.144   5.886  -0.067  0.1413  0.0171 -0.2251
  110MOL0     C15091   4.177   5.702   0.118  0.3192  0.1766  0.3320
  110MOL0     C15092   4.191   5.597   0.212  0.1797 -0.5537  0.8749
  110MOL0     N15093   3.670   5.375   0.215 -0.1312 -0.3887 -0.2937
  110MOL0     N15094   3.659   5.494   0.166 -0.2393 -0.2643  0.1199
  110MOL0     C15095   4.141   6.176   0.895 -0.6631 -0.1798 -0.0408
  110MOL0     C15096   4.260   6.230   0.959  1.1930 -0.7592  0.0186
  110MOL0     C15097   4.571   6.473   1.137 -0.2386 -0.4194 -0.6710
  110MOL0     C15098   4.534   6.485   1.271 -0.1200  0.5807 -0.6528
  110MOL0     C15099   4.616   6.541   1.367 -0.0443  0.3571 -0.3438
  110MOL0     C15100   4.743   6.587   1.340  1.1661 -0.1143 -0.1332
  110MOL0     O15101   4.806   6.654   1.439  0.7663  0.1331  0.2823
  110MOL0     C15102   4.948   6.670   1.421 -0.1535  1.1338 -0.3845
  110MOL0     C15103   5.015   6.750   1.539 -0.2877  0.4163  0.1128
  110MOL0     C15104   5.016   6.666   1.676 -1.3569 -0.2110 -0.4581
  110MOL0     C15105   5.105   6.751   1.782 -0.6831  0.2025  0.3064
  110MOL0     C15106   5.256   6.752   1.769  0.6893 -0.2162  0.3654
  110MOL0     C15107   5.367   6.749   1.730 -0.7748  0.3391 -0.8500
  110MOL0     C15108   4.782   6.572   1.210 -0.0667  0.1781  0.3412
  110MOL0     C15109   4.707   6.514   1.105  0.1048  0.3606  0.5935
  110MOL0     C15110   4.766   6.504   0.962  0.2157  0.2349 -0.3595
  110MOL0     H15111   4.117   6.510   1.089  1.2406 -0.4637  0.5741
  110MOL0     H15112   3.920   6.428   0.976  0.4982  1.3747  0.4778
  110MOL0     H15113   3.790   6.372   0.776 -0.2862 -0.9302 -3.4490
  110MOL0     H15114   3.717   6.251   0.895  1.0007  1.1991 -0.0869
  110MOL0     H15115   3.626   6.259   0.654  1.2255  1.6307 -0.0269
  110MOL0     H15116   3.781   6.225   0.602 -0.7599  1.4970  0.5993
  110MOL0     H15117   3.778   6.003   0.746  1.9222  1.6094  0.2484
  110MOL0     H15118   3.619   6.054   0.792 -2.3961  1.3325 -2.5192
  110MOL0     H15119   3.610   5.886   0.598  0.2261  0.3429  0.5445
  110MOL0     H15120   3.558   6.046   0.540  1.3098  2.0303  0.1901
  110MOL0     H15121   3.842   5.959   0.498  0.3474 -1.2439 -3.4925
  110MOL0     H15122   3.755   6.069   0.402  2.7322  0.1884 -0.0456
  110MOL0     H15123   3.679   5.773   0.416  1.2317  1.4203  1.8011
  110MOL0     H15124   3.616   5.889   0.298  1.1683  0.9322 -0.2667
  110MOL0     H15125   3.910   5.801   0.324 -0.7125 -1.3700 -1.8499
  110MOL0     H15126   3.845   5.912   0.200  2.5276 -0.3615  0.2055
  110MOL0     H15127   3.683   5.747   0.118 -0.0783 -1.7255 -1.2114
  110MOL0     H15128   3.855   5.725   0.089  1.2272  0.9250  1.6848
  110MOL0     H15129   3.903   5.542   0.371 -0.9221 -0.0125  0.6115
  110MOL0     H15130   3.771   5.174   0.353  1.9209  0.6668 -1.3274
  110MOL0     H15131   3.754   5.268   0.493 -0.6237  0.0577 -0.1945
  110MOL0     H15132   4.008   5.315   0.474 -0.1444 -0.9481  1.4041
  110MOL0     H15133   3.972   5.145   0.491  0.2233 -0.6904  0.0992
  110MOL0     H15134   4.028   5.097   0.267  0.7453  0.3262  0.5606
  110MOL0     H15135   3.982   5.256   0.203 -1.5150 -4.0268 -2.8546
  110MOL0     H15136   4.242   5.181   0.355  2.8324  0.1136 -1.9286
  110MOL0     H15137   4.211   5.197   0.185 -1.1883  4.0336 -0.9104
  110MOL0     H15138   4.166   5.333   0.008 -0.4713  0.5475 -1.1098
  110MOL0     H15139   4.151   5.358  -0.199  3.5145  0.3079 -1.0481
  110MOL0     H15140   4.228   5.486  -0.266  1.1724 -1.0575  0.7545
  110MOL0     H15141   4.060   5.499  -0.242 -1.5534 -0.9019  2.0414
  110MOL0     H15142   4.273   5.840  -0.438 -0.6964 -0.4596  1.1162
  110MOL0     H15143   4.191   5.991  -0.610  1.6232 -0.3929  0.6186
  110MOL0     H15144   3.804   6.235  -0.554 -0.2072  1.3046 -0.1171
  110MOL0     H15145   3.949   6.303  -0.468 -1.1451  1.9144  0.3488
  110MOL0     H15146   4.032   6.389  -0.702  0.5818 -0.9916  1.7759
  110MOL0     H15147   3.899   6.317  -0.769  0.6406 -1.4203  1.3656
  110MOL0     H15148   3.830   6.540  -0.760 -3.3618 -0.0308  0.1758
  110MOL0     H15149   3.873   6.566  -0.599 -1.9197  0.3054  1.2601
  110MOL0     H15150   3.692   6.412  -0.517  0.7036 -2.9575  0.4740
  110MOL0     H15151   3.664   6.358  -0.682  1.9161 -1.5316  0.4353
  110MOL0     H15152   3.633   6.647  -0.597  2.7711 -1.1724  1.6567
  110MOL0     H15153   3.611   6.593  -0.763 -1.7973 -0.9386  0.4061
  110MOL0     H15154   3.396   6.639  -0.663  0.3145  1.1426  3.0875
  110MOL0     H15155   3.430   6.549  -0.529  0.3903  0.3387 -0.0914
  110MOL0     H15156   3.423   6.338  -0.648  0.4588  1.3706  2.0047
  110MOL0     H15157   3.446   6.416  -0.804  0.2500 -2.0477 -0.3653
  110MOL0     H15158   3.218   6.344  -0.801  2.5269  1.2266 -1.8359
  110MOL0     H15159   3.188   6.514  -0.762 -1.8458 -0.1301 -0.0598
  110MOL0     H15160   3.851   6.085  -0.355  0.4958  0.9434  1.6296
  110MOL0     H15161   3.945   5.890  -0.208  2.6390  1.6854  1.6659
  110MOL0     H15162   4.170   5.803   0.159 -4.0779 -0.5364  1.8172
  110MOL0     H15163   4.205   5.630   0.314 -1.9361 -0.8523  1.3094
  110MOL0     H15164   4.136   6.073   0.859 -1.7849 -0.5491  1.0992
  110MOL0     H15165   4.355   6.177   0.957  1.6992  0.1200  0.3155
  110MOL0     H15166   4.433   6.454   1.297 -0.4621  1.9096 -0.3452
  110MOL0     H15167   4.572   6.549   1.466  0.4257  1.4065 -0.2092
  110MOL0     H15168   5.002   6.575   1.424  1.8179  2.2009  0.1219
  110MOL0     H15169   4.973   6.714   1.324 -1.2730 -1.0425 -1.7217
  110MOL0     H15170   4.972   6.851   1.538  1.3017  1.1941 -2.9567
  110MOL0     H15171   5.119   6.771   1.512  0.1533 -1.4260  0.2529
  110MOL0     H15172   4.915   6.657   1.716 -1.5234  0.7617 -0.6436
  110MOL0     H15173   5.049   6.562   1.668 -0.7667 -0.0630  0.0027
  110MOL0     H15174   5.088   6.713   1.883  0.2157 -0.5063  0.2068
  110MOL0     H15175   5.077   6.857   1.783 -0.9791  0.1926 -1.7696
  110MOL0     H15176   5.463   6.735   1.683 -0.8993  2.0544 -1.6817
  110MOL0     H15177   4.884   6.599   1.185 -0.3663 -0.3230 -1.6363
  110MOL0     H15178   4.752   6.410   0.908  0.7152  0.6827 -1.2849
  110MOL0     H15179   4.727   6.584   0.898 -1.3964 -0.9036 -0.8605
  110MOL0     H15180   4.875   6.503   0.969  0.2009 -2.2703  0.6523
  111MOL0     O15181   8.579   5.000   8.860  0.5623 -0.2737 -0.5315
  111MOL0     C15182   8.464   5.035   8.876  0.0455 -0.5757 -0.2860
  111MOL0     O15183   8.393   5.110   8.780 -0.1450  0.2051 -0.1153
  111MOL0     C15184   8.467   5.154   8.673 -0.0308 -0.2527  0.3188
  111MOL0     C15185   8.485   5.083   8.558 -0.3820 -0.0495  0.4531
  111MOL0     C15186   8.581   5.126   8.464 -0.7653 -0.2280  0.4396
  111MOL0     C15187   8.647   5.247   8.467 -1.1275  0.1676 -0.6885
  111MOL0     O15188   8.737   5.287   8.372 -0.0404  0.0289 -0.1501
  111MOL0     C15189   8.774   5.201   8.259 -0.3408 -0.1127 -0.1634
  111MOL0     C15190   8.858   5.260   8.158  0.7766  0.8573 -0.6620
  111MOL0     C15191   8.994   5.309   8.212  0.0330  0.0061  0.3375
  111MOL0     C15192   9.076   5.333   8.086 -0.0988  0.5485 -0.2496
  111MOL0     C15193   9.127   5.200   8.017  0.4066  0.3276 -0.0541
  111MOL0     C15194   9.173   5.236   7.872  0.9690 -0.7904  0.2094
  111MOL0     C15195   9.206   5.113   7.791 -0.5525  0.3559  0.2775
  111MOL0     C15196   9.327   5.134   7.696  0.2858 -0.4996  0.7739
  111MOL0     N15197   9.311   5.229   7.583  0.9449  0.4261 -0.5796
  111MOL0     C15198   9.290   5.365   7.591  0.0705 -0.6235 -0.0852
  111MOL0     C15199   9.292   5.404   7.463  0.5950 -0.3820 -0.0210
  111MOL0     C15200   9.282   5.546   7.418  0.3072 -0.3425  0.3355
  111MOL0     C15201   9.171   5.547   7.310 -0.2451 -0.3053  0.0891
  111MOL0     C15202   9.025   5.551   7.364  0.4654  0.5335 -0.2868
  111MOL0     C15203   8.988   5.435   7.461  1.1120  0.6790  0.1451
  111MOL0     O15204   8.849   5.480   7.495 -0.6857  0.7306  0.0743
  111MOL0     C15205   8.771   5.395   7.571  0.3328 -0.6142  0.2222
  111MOL0     C15206   8.802   5.268   7.628 -0.9671 -0.4573  0.2764
  111MOL0     C15207   8.707   5.195   7.705  0.3953 -0.1865  0.0329
  111MOL0     C15208   8.748   5.058   7.764  1.2998  0.3954 -0.7153
  111MOL0     C15209   8.587   5.258   7.733 -0.0931 -0.5651  0.2076
  111MOL0     C15210   8.483   5.199   7.817 -1.5444  0.5572 -0.8872
  111MOL0     O15211   8.520   5.174   7.951  0.7456  0.4838 -0.3240
  111MOL0     C15212   8.429   5.134   8.043 -0.1144  0.6089  0.6900
  111MOL0     C15213   8.466   5.021   8.113 -0.3003  0.7138 -0.3697
  111MOL0     C15214   8.380   4.963   8.212 -0.4208  0.8473  1.0943
  111MOL0     C15215   8.256   5.020   8.235  0.1422  0.8404 -0.9302
  111MOL0     O15216   8.185   4.962   8.335  0.1898 -0.5173 -0.0057
  111MOL0     C15217   8.106   5.045   8.416 -0.0315  0.2118  0.0419
  111MOL0     C15218   8.127   5.013   8.572  0.7468  0.5351  0.1837
  111MOL0     C15219   8.075   4.875   8.617 -0.6324  0.3882  0.1147
  111MOL0     C15220   8.168   4.762   8.590  0.1635 -0.7280 -0.4684
  111MOL0     C15221   8.298   4.759   8.675 -0.4617 -0.7665  0.3524
  111MOL0     C15222   8.288   4.709   8.815 -0.0428 -0.2487 -0.2517
  111MOL0     C15223   8.286   4.554   8.808 -0.4624 -0.7078 -0.1293
  111MOL0     C15224   8.421   4.492   8.798 -0.1586  0.0745  0.7788
  111MOL0    Cl15225   8.527   4.497   8.941  0.2012  0.1626  0.0641
  111MOL0     C15226   8.206   5.133   8.151 -0.0708 -0.6920  0.7824
  111MOL0     C15227   8.302   5.187   8.064  0.1587  0.7004  0.2511
  111MOL0     O15228   8.374   5.174   7.767  0.1569  0.1439  0.2397
  111MOL0     C15229   8.554   5.376   7.667  0.5222 -0.2334  0.4254
  111MOL0     C15230   8.652   5.449   7.604 -0.0550 -0.5305 -0.4922
  111MOL0     N15231   9.295   5.287   7.378  0.3832 -0.0211  0.6977
  111MOL0     N15232   9.311   5.194   7.450 -0.0500  1.5593  0.9088
  111MOL0     C15233   8.620   5.325   8.582 -0.0672  1.8598 -0.4777
  111MOL0     C15234   8.533   5.278   8.686  0.0286 -0.1645 -0.3818
  111MOL0     C15235   8.395   5.001   9.005  0.2461  0.3660 -0.1283
  111MOL0     C15236   8.272   5.052   9.029  0.7343  0.1906  0.0694
  111MOL0     C15237   8.192   5.022   9.147 -0.8515 -0.9634 -0.2913
  111MOL0     C15238   8.255   4.951   9.248 -0.5649 -0.1920  0.1137
  111MOL0     O15239   8.192   4.933   9.370  0.2908 -0.7007  0.3653
  111MOL0     C15240   8.266   4.977   9.483 -0.1912 -0.1165 -0.4382
  111MOL0     C15241   8.288   4.847   9.567  0.1432 -0.1704 -0.1619
  111MOL0     C15242   8.412   4.862   9.667  0.2988 -0.9372 -0.0690
  111MOL0     C15243   8.545   4.849   9.599 -0.2393 -0.1421 -0.3078
  111MOL0     C15244   8.556   4.721   9.548 -0.1351  0.1762 -0.5417
  111MOL0     C15245   8.583   4.620   9.486 -0.1119  0.7063  0.1301
  111MOL0     C15246   8.388   4.900   9.227 -1.1190  0.1563  0.3142
  111MOL0     C15247   8.447   4.912   9.103 -0.9115  0.4517  0.2263
  111MOL0     C15248   8.579   4.833   9.088  0.4710  0.8768  0.4236
  111MOL0     H15249   8.441   4.987   8.534 -0.6656  0.8777 -3.4220
  111MOL0     H15250   8.599   5.064   8.377 -0.4282  0.6325 -0.1170
  111MOL0     H15251   8.682   5.173   8.206  0.3036 -1.8016 -0.4484
  111MOL0     H15252   8.815   5.103   8.285 -1.0558 -0.4250 -0.1737
  111MOL0     H15253   8.864   5.175   8.089 -2.0582  0.6086 -0.7052
  111MOL0     H15254   8.810   5.345   8.108  2.1082 -0.3788 -4.4216
  111MOL0     H15255   8.981   5.400   8.272  0.9918  2.3424 -2.7544
  111MOL0     H15256   9.040   5.233   8.275  1.5043  2.2347  2.1117
  111MOL0     H15257   9.019   5.389   8.011  1.1125  2.9940  0.5262
  111MOL0     H15258   9.160   5.399   8.112  0.6452  0.3127 -1.9490
  111MOL0     H15259   9.041   5.132   8.014 -0.1482  1.0482 -1.0109
  111MOL0     H15260   9.201   5.152   8.082 -1.0152  0.9806  2.1579
  111MOL0     H15261   9.089   5.285   7.822  0.5277 -1.4614  0.2798
  111MOL0     H15262   9.251   5.312   7.874 -0.2028  0.4387  0.5501
  111MOL0     H15263   9.118   5.085   7.733 -1.3504  2.3385  0.4939
  111MOL0     H15264   9.221   5.024   7.853 -0.9082  1.6990  2.3881
  111MOL0     H15265   9.417   5.169   7.747 -0.2386  0.3380  1.1565
  111MOL0     H15266   9.344   5.034   7.657 -0.7663 -1.3629  2.4350
  111MOL0     H15267   9.277   5.424   7.681 -2.2130  0.1437 -0.8477
  111MOL0     H15268   9.373   5.593   7.380 -0.7948  2.4444  0.8534
  111MOL0     H15269   9.247   5.613   7.498 -1.0562  1.0443 -1.3239
  111MOL0     H15270   9.175   5.640   7.252  0.7485 -0.1818  0.3331
  111MOL0     H15271   9.181   5.465   7.238 -2.6863  0.6707 -1.4692
  111MOL0     H15272   9.017   5.642   7.424  4.9801  1.2608 -0.4257
  111MOL0     H15273   8.952   5.552   7.282 -1.9444  0.4612  1.7410
  111MOL0     H15274   8.983   5.335   7.416  1.2576  1.5340 -1.8751
  111MOL0     H15275   9.051   5.438   7.550  0.5264  3.6947  0.5740
  111MOL0     H15276   8.902   5.228   7.614 -0.7618  0.5800 -1.4067
  111MOL0     H15277   8.670   5.003   7.817 -0.2614 -0.6736 -3.8721
  111MOL0     H15278   8.824   5.074   7.841  0.8367 -0.9358  0.0450
  111MOL0     H15279   8.773   4.993   7.680 -0.4619 -0.3026 -0.7321
  111MOL0     H15280   8.566   4.980   8.105  0.1923  0.5959  4.1130
  111MOL0     H15281   8.406   4.869   8.260  1.7949  1.1531  0.6326
  111MOL0     H15282   8.130   5.152   8.414 -0.8497  0.3902 -0.9036
  111MOL0     H15283   8.002   5.033   8.386  0.4407  1.0599 -2.0650
  111MOL0     H15284   8.233   5.027   8.596  1.4770 -1.3790 -1.6458
  111MOL0     H15285   8.068   5.080   8.635 -1.6502  2.9808 -4.1677
  111MOL0     H15286   7.973   4.862   8.580 -0.9256  1.3108  0.5713
  111MOL0     H15287   8.070   4.874   8.726 -2.0878  0.2388  0.0685
  111MOL0     H15288   8.188   4.763   8.483  0.9180 -0.7363 -0.3391
  111MOL0     H15289   8.111   4.672   8.612 -0.7448 -0.3394 -1.1774
  111MOL0     H15290   8.370   4.712   8.608 -0.1359  1.5147 -1.0109
  111MOL0     H15291   8.332   4.863   8.678 -3.3834  0.2844  0.0920
  111MOL0     H15292   8.195   4.746   8.859 -1.0505 -1.6005 -1.1916
  111MOL0     H15293   8.371   4.746   8.877  0.1713 -1.2020  0.0392
  111MOL0     H15294   8.244   4.524   8.711  2.5884 -2.9441 -0.9037
  111MOL0     H15295   8.238   4.509   8.895 -2.1783 -1.3924 -1.3828
  111MOL0     H15296   8.473   4.554   8.724  0.5256  0.0565  1.2355
  111MOL0     H15297   8.403   4.390   8.763 -2.9267  1.3408 -1.9281
  111MOL0     H15298   8.101   5.155   8.169 -0.1907 -0.3969 -0.1991
  111MOL0     H15299   8.277   5.272   8.001  1.0307  0.9083  0.1706
  111MOL0     H15300   8.458   5.426   7.678  0.7217  0.8107 -2.0570
  111MOL0     H15301   8.630   5.549   7.570  1.3989 -0.1911 -0.5228
  111MOL0     H15302   8.683   5.413   8.594  1.1361  1.0904 -1.0130
  111MOL0     H15303   8.522   5.340   8.774 -4.0832 -2.2466  0.8774
  111MOL0     H15304   8.223   5.117   8.957 -1.1213 -0.3906  0.7527
  111MOL0     H15305   8.095   5.066   9.168 -0.8192 -2.0085  2.4659
  111MOL0     H15306   8.352   5.035   9.451 -0.8504  1.7590  0.9895
  111MOL0     H15307   8.196   5.044   9.534  0.9028  1.6839 -1.2262
  111MOL0     H15308   8.300   4.763   9.498  1.4632  1.5485 -2.1700
  111MOL0     H15309   8.197   4.815   9.618 -0.0746  0.1986 -0.3139
  111MOL0     H15310   8.411   4.965   9.705 -1.4853 -2.2943  4.1519
  111MOL0     H15311   8.391   4.804   9.757 -1.8452  1.2352  0.9540
  111MOL0     H15312   8.630   4.870   9.665 -0.3633  0.0750 -0.2154
  111MOL0     H15313   8.546   4.919   9.515 -0.5009 -1.9146 -1.8497
  111MOL0     H15314   8.593   4.539   9.415  3.8927  1.4520 -0.3859
  111MOL0     H15315   8.443   4.842   9.300 -0.2016  0.5132 -0.0734
  111MOL0     H15316   8.594   4.784   8.991  2.0758  2.4042 -0.1406
  111MOL0     H15317   8.669   4.895   9.098  1.3827 -0.6057  1.9372
  111MOL0     H15318   8.575   4.753   9.163 -2.3910 -0.8733 -1.4047
  112MOL0     O15319   7.964   9.266  10.744  0.6137  0.0350  0.3413
  112MOL0     C15320   7.931   9.371  10.679 -0.6879  0.5270 -0.6568
  112MOL0     O15321   8.019   9.472  10.655 -0.6141 -0.2847  0.1063
  112MOL0     C15322   8.154   9.477  10.679 -0.6484  0.8271 -0.1532
  112MOL0     C15323   8.220   9.408  10.785 -0.0626  0.1142  0.0378
  112MOL0     C15324   8.357   9.425  10.803 -0.2912  0.0505  1.0264
  112MOL0     C15325   8.434   9.499  10.716  0.2377  0.5757 -0.1732
  112MOL0     O15326   8.564   9.520  10.728  0.4701  0.8940  0.0771
  112MOL0     C15327   8.648   9.469  10.835  0.1781  0.1770  0.7608
  112MOL0     C15328   8.636   9.547  10.967 -0.0373 -0.6954  0.1514
  112MOL0     C15329   8.680   9.691  10.952 -0.1857  0.3288  0.0750
  112MOL0     C15330   8.673   9.783  11.073 -0.0788  0.4036  0.7237
  112MOL0     C15331   8.529   9.820  11.110  0.1603  0.3019  0.3430
  112MOL0     C15332   8.534   9.908  11.236 -0.1442 -0.0731  0.4720
  112MOL0     C15333   8.565  10.064  11.216 -0.8595  1.0000 -0.4413
  112MOL0     C15334   8.457  10.142  11.137  0.4113 -0.7041  0.1111
  112MOL0     N15335   8.456  10.117  10.988  0.2652 -0.0263 -0.6369
  112MOL0     C15336   8.560  10.150  10.908 -0.2138  0.1578  0.8914
  112MOL0     C15337   8.510  10.129  10.790  0.1195  1.0151 -0.7206
  112MOL0     C15338   8.590  10.167  10.664 -0.1157 -0.2776  0.1596
  112MOL0     C15339   8.613  10.322  10.657 -0.0539  0.7037  0.3592
  112MOL0     C15340   8.756  10.348  10.585  0.1351 -0.4976 -0.1405
  112MOL0     C15341   8.752  10.320  10.436 -0.6348  0.6078 -0.1102
  112MOL0     O15342   8.882  10.328  10.380  0.0844 -0.6464 -0.3249
  112MOL0     C15343   8.952  10.444  10.363 -0.3218  0.5157 -0.0342
  112MOL0     C15344   8.903  10.576  10.382 -0.1328  0.4516  0.3948
  112MOL0     C15345   8.988  10.684  10.367 -0.1796 -0.4737  0.5069
  112MOL0     C15346   8.914  10.814  10.365  0.6422  0.3324  0.3093
  112MOL0     C15347   9.131  10.669  10.352 -0.7034  0.2753  0.4597
  112MOL0     C15348   9.229  10.785  10.359  0.6466  0.0968 -0.4763
  112MOL0     O15349   9.363  10.752  10.375  0.1537  0.3293  0.8114
  112MOL0     C15350   9.451  10.852  10.389  0.5587 -0.3126 -0.5488
  112MOL0     C15351   9.493  10.888  10.523 -0.2365  0.1577 -0.3235
  112MOL0     C15352   9.582  10.992  10.550 -0.6751 -0.7996  0.1920
  112MOL0     C15353   9.629  11.061  10.436 -0.5521  0.0617  0.2143
  112MOL0     O15354   9.708  11.169  10.449  0.8391  0.9259 -0.0347
  112MOL0     C15355   9.850  11.133  10.462  0.3542  0.4044 -0.3428
  112MOL0     C15356   9.890  11.025  10.565  0.2120 -0.4271 -0.0112
  112MOL0     C15357  10.042  11.011  10.560  0.7001  0.5353 -0.2336
  112MOL0     C15358  10.106  11.127  10.640  0.6019 -0.6885 -0.3803
  112MOL0     C15359  10.250  11.109  10.655 -0.0596 -0.2440 -0.0689
  112MOL0     C15360  10.290  11.003  10.760 -0.1787  0.4875  0.3939
  112MOL0     C15361  10.439  11.003  10.789  0.0597 -0.6788  0.8573
  112MOL0     C15362  10.468  10.897  10.891 -0.0878 -0.4035  0.8302
  112MOL0    Cl15363  10.497  10.726  10.827 -0.4714  0.1017  0.2617
  112MOL0     C15364   9.586  11.018  10.304  0.0545 -0.2692 -0.2360
  112MOL0     C15365   9.502  10.913  10.284 -0.3886 -0.8051 -0.5869
  112MOL0     O15366   9.185  10.896  10.374 -0.5293 -0.5462  0.1111
  112MOL0     C15367   9.174  10.544  10.337 -0.8460  1.3639  0.5042
  112MOL0     C15368   9.091  10.437  10.341  0.4257  0.0215  0.7341
  112MOL0     N15369   8.376  10.094  10.796  0.1666  0.0857 -0.5175
  112MOL0     N15370   8.340  10.087  10.919 -0.0635 -0.4630  0.2328
  112MOL0     C15371   8.363   9.570  10.622  0.2123  0.4653  0.3289
  112MOL0     C15372   8.227   9.555  10.596  0.8303  0.1102  0.0164
  112MOL0     C15373   7.797   9.395  10.625  0.8340  0.0767  0.3212
  112MOL0     C15374   7.778   9.513  10.553 -0.2128  0.0115  0.1399
  112MOL0     C15375   7.658   9.536  10.489 -0.5281 -0.8337 -0.0287
  112MOL0     C15376   7.565   9.451  10.486 -0.1594 -0.0570 -0.0926
  112MOL0     O15377   7.437   9.463  10.420  0.1634  0.0397  0.2132
  112MOL0     C15378   7.392   9.575  10.347  0.5616  0.3007  1.1766
  112MOL0     C15379   7.338   9.690  10.437 -1.1954 -0.5259  0.4404
  112MOL0     C15380   7.291   9.799  10.347 -0.0341 -0.7313  0.6507
  112MOL0     C15381   7.180   9.872  10.416 -0.0159 -0.3694 -0.6389
  112MOL0     C15382   7.162  10.016  10.371 -1.1600 -0.0197  0.2715
  112MOL0     C15383   7.164  10.127  10.329  0.5320  0.7516 -0.6110
  112MOL0     C15384   7.571   9.341  10.566 -0.3887  0.2079 -0.8904
  112MOL0     C15385   7.688   9.308  10.638  0.3758  0.7069 -0.2579
  112MOL0     C15386   7.683   9.186  10.714 -0.6210  0.1289  1.0096
  112MOL0     H15387   8.164   9.342  10.849  0.9229 -1.4306 -0.6370
  112MOL0     H15388   8.407   9.388  10.891  0.6877  1.1140  0.9397
  112MOL0     H15389   8.746   9.477  10.787 -1.7542  1.9967 -3.5334
  112MOL0     H15390   8.621   9.364  10.847 -0.3489 -0.0112 -1.4995
  112MOL0     H15391   8.534   9.544  11.005  0.3772  2.4665  1.8401
  112MOL0     H15392   8.697   9.493  11.040  0.9020 -1.8991 -1.4492
  112MOL0     H15393   8.783   9.694  10.915 -0.0498  1.0025  0.4859
  112MOL0     H15394   8.610   9.737  10.882  0.0495  0.4847 -0.0617
  112MOL0     H15395   8.729   9.738  11.155  0.1147 -3.8435 -1.4965
  112MOL0     H15396   8.721   9.879  11.050  0.0889 -0.0058 -0.7633
  112MOL0     H15397   8.473   9.728  11.128  1.5955 -0.8140 -0.6289
  112MOL0     H15398   8.484   9.864  11.021  0.6566 -0.8854 -0.5292
  112MOL0     H15399   8.434   9.898  11.280  0.3654  0.6406  1.8714
  112MOL0     H15400   8.608   9.868  11.306  1.1674 -0.3976 -1.0578
  112MOL0     H15401   8.664  10.066  11.168  0.0624 -1.9145  1.0956
  112MOL0     H15402   8.572  10.104  11.317 -1.3881  2.3867 -0.9310
  112MOL0     H15403   8.359  10.103  11.166 -0.3347  1.1935  0.2378
  112MOL0     H15404   8.466  10.244  11.173  2.2513 -1.0380  0.7413
  112MOL0     H15405   8.659  10.179  10.943 -0.9948  0.4253  3.0168
  112MOL0     H15406   8.544  10.128  10.573 -0.3174  0.4542 -0.0531
  112MOL0     H15407   8.692  10.131  10.680 -0.1529  0.0614  1.2431
  112MOL0     H15408   8.528  10.360  10.600 -0.8156 -0.8825  0.3741
  112MOL0     H15409   8.606  10.352  10.762 -1.1545  0.0607  0.4891
  112MOL0     H15410   8.785  10.453  10.598  1.1000 -0.9763  1.9381
  112MOL0     H15411   8.826  10.281  10.636  0.7434  0.2814  0.0649
  112MOL0     H15412   8.723  10.215  10.435 -0.5036  0.5549  0.7990
  112MOL0     H15413   8.688  10.389  10.381  0.0085  1.0399 -0.3328
  112MOL0     H15414   8.798  10.597  10.401 -0.1753  2.0154 -1.3075
  112MOL0     H15415   8.950  10.888  10.436 -1.0510  0.7624  0.7586
  112MOL0     H15416   8.808  10.799  10.385  0.6466  1.0451  0.8964
  112MOL0     H15417   8.920  10.860  10.266 -2.2755 -1.3068 -0.7290
  112MOL0     H15418   9.462  10.830  10.610 -0.2579  1.8489  0.8546
  112MOL0     H15419   9.622  11.019  10.647  0.2573 -0.5051 -0.2637
  112MOL0     H15420   9.873  11.096  10.361 -0.7580  1.0290 -0.8495
  112MOL0     H15421   9.903  11.227  10.478 -0.3171  0.7660 -0.2236
  112MOL0     H15422   9.851  11.045  10.666 -0.0270 -3.1544  0.5075
  112MOL0     H15423   9.854  10.927  10.532  4.2702 -1.3317 -2.5415
  112MOL0     H15424  10.082  11.011  10.459  3.3791  4.2811  0.5802
  112MOL0     H15425  10.069  10.915  10.606 -3.3591 -1.0386 -0.7500
  112MOL0     H15426  10.056  11.140  10.736  0.1543  0.2978 -0.7326
  112MOL0     H15427  10.093  11.222  10.587 -2.0263 -0.5155  0.4195
  112MOL0     H15428  10.297  11.099  10.557  1.6036  0.2073  0.6440
  112MOL0     H15429  10.283  11.207  10.691 -0.2102 -0.4794  0.7285
  112MOL0     H15430  10.268  10.903  10.721  0.2872  0.5943 -0.1657
  112MOL0     H15431  10.247  11.013  10.859  3.7594 -2.7559  2.7562
  112MOL0     H15432  10.461  11.101  10.833 -0.3444  0.4103 -1.2473
  112MOL0     H15433  10.502  10.991  10.701  0.1323 -0.5878  0.8978
  112MOL0     H15434  10.391  10.901  10.969  1.9536 -0.4517  2.9791
  112MOL0     H15435  10.565  10.929  10.931  0.1327  1.0955 -0.7855
  112MOL0     H15436   9.627  11.062  10.214 -1.1917 -1.8674 -1.6580
  112MOL0     H15437   9.474  10.887  10.182  1.7577 -0.3953 -1.3469
  112MOL0     H15438   9.281  10.529  10.341 -1.2506 -2.1609  1.2286
  112MOL0     H15439   9.130  10.336  10.352  0.1086 -0.3925 -1.5082
  112MOL0     H15440   8.417   9.636  10.556  2.8103 -2.3801 -0.6217
  112MOL0     H15441   8.168   9.613  10.526  2.7338  2.0272 -0.1021
  112MOL0     H15442   7.850   9.594  10.547  0.4948 -0.3643  2.6637
  112MOL0     H15443   7.645   9.620  10.422 -6.0823 -0.7495  0.6739
  112MOL0     H15444   7.476   9.608  10.284 -0.7273  1.7140  0.1338
  112MOL0     H15445   7.312   9.539  10.282  2.2244 -0.5343 -0.5378
  112MOL0     H15446   7.415   9.724  10.507  0.0452  0.4008 -1.2867
  112MOL0     H15447   7.252   9.648  10.490 -0.9698  0.5711  1.7186
  112MOL0     H15448   7.367   9.876  10.328 -1.6989  0.5478 -1.1727
  112MOL0     H15449   7.251   9.763  10.252 -1.5927  4.0527 -0.8035
  112MOL0     H15450   7.192   9.868  10.525  2.7124  2.0783 -0.7077
  112MOL0     H15451   7.093   9.810  10.394 -1.3021  1.6851 -1.6136
  112MOL0     H15452   7.168  10.231  10.304  0.5617  0.3751 -2.3060
  112MOL0     H15453   7.477   9.289  10.587 -0.5503  0.4085 -1.1162
  112MOL0     H15454   7.653   9.212  10.816  0.8364 -0.2838  1.5647
  112MOL0     H15455   7.605   9.116  10.682 -1.2166  0.9351  0.6699
  112MOL0     H15456   7.779   9.134  10.724 -2.2724 -3.2386  1.0566
  113MOL0     O15457   9.079   9.546   3.268 -0.0821 -1.1508  0.2451
  113MOL0     C15458   9.025   9.498   3.368  0.8435  0.6521 -0.8900
  113MOL0     O15459   9.098   9.430   3.465  0.4443  0.6688  0.4556
  113MOL0     C15460   9.230   9.449   3.459  0.0237  1.2932 -0.6215
  113MOL0     C15461   9.277   9.532   3.557 -0.9332  0.7042 -0.4218
  113MOL0     C15462   9.414   9.534   3.573 -0.6897 -0.3437  0.0935
  113MOL0     C15463   9.505   9.451   3.501  0.9083 -0.0469 -0.2097
  113MOL0     O15464   9.646   9.452   3.520  0.5366 -0.1104  0.1510
  113MOL0     C15465   9.697   9.574   3.583  0.5230  0.6835 -0.4949
  113MOL0     C15466   9.854   9.591   3.582  0.8165 -0.1089 -0.3144
  113MOL0     C15467   9.911   9.537   3.449  0.7255  0.2278  0.0321
  113MOL0     C15468  10.058   9.570   3.442  0.5628 -0.4876  0.4585
  113MOL0     C15469  10.117   9.493   3.322  0.4492 -1.0240 -0.0854
  113MOL0     C15470  10.254   9.548   3.325  0.1822 -0.0357 -0.5539
  113MOL0     C15471  10.338   9.459   3.234  0.0780 -0.9325  0.1468
  113MOL0     C15472  10.496   9.474   3.242 -0.3999  0.6666 -0.3392
  113MOL0     N15473  10.546   9.591   3.178  0.4545 -0.6270  0.6053
  113MOL0     C15474  10.637   9.674   3.229  0.0117  0.0936 -1.1723
  113MOL0     C15475  10.661   9.763   3.131  0.6724  0.5023  1.1767
  113MOL0     C15476  10.766   9.864   3.155 -0.4450  0.2043 -0.4550
  113MOL0     C15477  10.831   9.903   3.019  0.1340  0.2765 -0.4452
  113MOL0     C15478  10.949   9.813   2.991  0.6014 -0.5347  0.5419
  113MOL0     C15479  11.031   9.851   2.878 -0.1123  0.4523  0.2340
  113MOL0     O15480  11.050   9.997   2.861  0.5770 -0.0220 -0.0653
  113MOL0     C15481  11.132  10.047   2.763  0.0701 -0.0341 -0.2760
  113MOL0     C15482  11.134  10.182   2.744 -0.2447  1.1924 -0.5767
  113MOL0     C15483  11.236  10.249   2.669  1.0335 -0.1536 -0.6595
  113MOL0     C15484  11.212  10.400   2.657 -0.9726  0.0600  0.8209
  113MOL0     C15485  11.334  10.169   2.604  0.3282  0.8194  0.2754
  113MOL0     C15486  11.449  10.225   2.526 -0.7672 -0.3520  0.5781
  113MOL0     O15487  11.507  10.136   2.435  0.1071 -0.3933 -0.4107
  113MOL0     C15488  11.622  10.171   2.365 -0.7185 -0.3537 -0.1862
  113MOL0     C15489  11.640  10.090   2.246 -0.7356 -0.0636  0.5374
  113MOL0     C15490  11.744  10.111   2.162  0.3795  0.5635  0.7884
  113MOL0     C15491  11.852  10.180   2.200 -0.1727  0.3513  0.1274
  113MOL0     O15492  11.965  10.182   2.117 -0.0808 -0.0831  0.0910
  113MOL0     C15493  12.095  10.242   2.154  0.0670  0.0274  0.0233
  113MOL0     C15494  12.089  10.398   2.133  0.3128  0.2343 -0.7328
  113MOL0     C15495  12.205  10.468   2.211 -0.1168  0.3139 -0.0856
  113MOL0     C15496  12.333  10.478   2.125 -0.8414 -1.0708  0.2501
  113MOL0     C15497  12.439  10.560   2.205  0.7689  0.6928  0.1486
  113MOL0     C15498  12.574  10.542   2.147 -0.8771 -0.1797  1.0780
  113MOL0     C15499  12.671  10.654   2.205 -0.0945 -0.6078 -0.2097
  113MOL0     C15500  12.810  10.657   2.153 -0.2475  0.8007  0.4039
  113MOL0    Cl15501  12.858  10.797   2.068  0.0707  0.4418 -0.2686
  113MOL0     C15502  11.846  10.257   2.318  0.0703  0.4733  1.0133
  113MOL0     C15503  11.730  10.254   2.394  0.0606 -0.1310  0.2283
  113MOL0     O15504  11.481  10.343   2.551 -0.2999 -0.0401 -0.5444
  113MOL0     C15505  11.317  10.027   2.606  0.2614  0.1518  0.8368
  113MOL0     C15506  11.217   9.974   2.686  0.2343  0.2918 -0.0580
  113MOL0     N15507  10.590   9.734   3.018  0.0536  0.2829 -0.2981
  113MOL0     N15508  10.513   9.633   3.052  0.0155 -0.6714 -0.1002
  113MOL0     C15509   9.453   9.379   3.403 -0.1106  0.2882  0.5520
  113MOL0     C15510   9.318   9.365   3.376  0.4304 -0.2746  0.9610
  113MOL0     C15511   8.888   9.543   3.405  0.7951 -0.5886 -0.8964
  113MOL0     C15512   8.838   9.503   3.530  0.4308  0.2198  1.0064
  113MOL0     C15513   8.715   9.528   3.570  0.5462  0.2556  0.6258
  113MOL0     C15514   8.619   9.591   3.486 -0.3134  0.0035 -0.1661
  113MOL0     O15515   8.495   9.601   3.539 -0.4902  0.0111  0.1115
  113MOL0     C15516   8.383   9.630   3.456 -0.4306 -0.0179 -0.1288
  113MOL0     C15517   8.366   9.779   3.450  0.3344  0.3245 -0.3901
  113MOL0     C15518   8.284   9.823   3.331  0.6237  1.2409  0.0841
  113MOL0     C15519   8.271   9.973   3.341 -0.1059 -0.0474  0.5049
  113MOL0     C15520   8.213  10.030   3.219 -0.5575  0.3223 -0.5128
  113MOL0     C15521   8.175  10.061   3.104 -0.2970 -0.0699  0.1318
  113MOL0     C15522   8.665   9.645   3.367 -0.9190 -0.2014 -0.1215
  113MOL0     C15523   8.794   9.624   3.329 -0.2810 -0.4900  0.3637
  113MOL0     C15524   8.842   9.678   3.196 -0.3628 -0.2339 -0.0979
  113MOL0     H15525   9.204   9.585   3.618 -1.5395 -1.5030  0.9156
  113MOL0     H15526   9.445   9.596   3.657 -2.6695  0.4842  0.2652
  113MOL0     H15527   9.654   9.583   3.684  0.7792  1.3518 -0.4436
  113MOL0     H15528   9.648   9.656   3.531 -1.3658 -0.5984 -0.8685
  113MOL0     H15529   9.872   9.698   3.585 -2.4310  0.5294  0.5398
  113MOL0     H15530   9.907   9.543   3.664  0.3209  0.7941  0.5534
  113MOL0     H15531   9.892   9.429   3.449 -0.0054  0.3506  0.1267
  113MOL0     H15532   9.858   9.584   3.365  2.3178  1.1512 -0.5173
  113MOL0     H15533  10.056   9.678   3.426 -0.2695 -0.7623 -1.5799
  113MOL0     H15534  10.116   9.555   3.534  0.7487 -0.6607  0.3133
  113MOL0     H15535  10.060   9.518   3.231 -0.1585 -0.7033  0.3748
  113MOL0     H15536  10.104   9.385   3.334 -0.3383 -1.0124 -0.7566
  113MOL0     H15537  10.250   9.653   3.297  1.2196  0.1980  0.1152
  113MOL0     H15538  10.301   9.550   3.424  4.6918  0.3302 -2.4401
  113MOL0     H15539  10.297   9.456   3.132 -0.7941 -2.3315  0.5184
  113MOL0     H15540  10.329   9.354   3.262 -0.2129 -1.5158 -1.9184
  113MOL0     H15541  10.528   9.472   3.347 -1.0801 -2.4070 -0.1041
  113MOL0     H15542  10.531   9.381   3.197 -0.9632  1.5507 -2.7422
  113MOL0     H15543  10.675   9.670   3.330 -0.3340 -1.3772 -1.0730
  113MOL0     H15544  10.845   9.841   3.226  1.0804  0.3226 -2.0481
  113MOL0     H15545  10.717   9.953   3.196 -2.3306 -0.9876  0.0026
  113MOL0     H15546  10.761   9.888   2.936 -2.7798 -0.0598  1.9281
  113MOL0     H15547  10.851  10.010   3.026 -3.2814  0.9417  1.4246
  113MOL0     H15548  11.007   9.818   3.083 -2.2850  2.3275  2.4260
  113MOL0     H15549  10.913   9.712   2.969 -0.1930 -0.6232  2.1058
  113MOL0     H15550  11.127   9.804   2.901  0.5649  0.0251 -2.9571
  113MOL0     H15551  10.997   9.805   2.785  1.9058  0.9055 -0.7937
  113MOL0     H15552  11.065  10.241   2.802 -3.2969 -1.1521 -1.5802
  113MOL0     H15553  11.145  10.436   2.735  1.0647  0.8104  2.3036
  113MOL0     H15554  11.163  10.400   2.559  1.1555 -0.2556 -0.3078
  113MOL0     H15555  11.295  10.470   2.651 -1.1740  0.2842  0.5955
  113MOL0     H15556  11.563  10.016   2.230 -2.4552  1.0738  3.0590
  113MOL0     H15557  11.746  10.040   2.080  2.0935 -3.0396  3.6229
  113MOL0     H15558  12.112  10.219   2.259 -0.7564  0.0841  0.1776
  113MOL0     H15559  12.171  10.197   2.089 -0.4877 -3.1591  1.4474
  113MOL0     H15560  12.095  10.422   2.026 -3.2128 -2.3895 -1.6936
  113MOL0     H15561  11.996  10.436   2.176  1.0432  1.4548 -0.1864
  113MOL0     H15562  12.223  10.414   2.304  1.1036 -1.9073 -1.5175
  113MOL0     H15563  12.175  10.570   2.237 -0.4605  0.2251 -0.1268
  113MOL0     H15564  12.313  10.539   2.036 -0.2210  0.3661  1.0561
  113MOL0     H15565  12.379  10.383   2.097  3.1585  0.6856  0.1578
  113MOL0     H15566  12.416  10.667   2.214  2.5596  1.1948 -0.7090
  113MOL0     H15567  12.443  10.526   2.309 -1.2994  1.6198  0.5685
  113MOL0     H15568  12.579  10.559   2.039 -1.4371 -1.1195  0.8995
  113MOL0     H15569  12.608  10.439   2.160  1.1609 -0.8201 -5.4240
  113MOL0     H15570  12.681  10.637   2.313  0.6672  0.8790 -0.0117
  113MOL0     H15571  12.627  10.753   2.191  0.0797  0.0598  3.0857
  113MOL0     H15572  12.819  10.572   2.084 -2.4675  0.6131  0.2763
  113MOL0     H15573  12.884  10.637   2.230  0.7271  1.5709 -0.3032
  113MOL0     H15574  11.933  10.314   2.350  0.4220  2.9740 -3.5179
  113MOL0     H15575  11.734  10.306   2.490 -0.3540 -0.5424  0.4698
  113MOL0     H15576  11.378   9.953   2.555 -1.8441 -0.4516 -0.9181
  113MOL0     H15577  11.216   9.865   2.688  0.8896  0.2458 -1.1460
  113MOL0     H15578   9.526   9.335   3.335 -0.7564 -0.9537  0.6326
  113MOL0     H15579   9.300   9.290   3.299 -0.8782 -0.9354  1.8874
  113MOL0     H15580   8.893   9.441   3.601 -0.2917 -0.2099  1.1999
  113MOL0     H15581   8.675   9.484   3.661  0.2738  0.0664  0.4164
  113MOL0     H15582   8.401   9.595   3.354 -0.8908 -0.7624  0.0377
  113MOL0     H15583   8.288   9.589   3.493 -0.5850 -0.9379 -1.4751
  113MOL0     H15584   8.457   9.839   3.450  0.5092  0.0723  0.2309
  113MOL0     H15585   8.315   9.811   3.542  1.1701  3.5352 -0.9152
  113MOL0     H15586   8.332   9.791   3.238  4.3056  1.1664  1.8629
  113MOL0     H15587   8.184   9.778   3.336  0.9922  0.3206 -0.5307
  113MOL0     H15588   8.367  10.019   3.365  0.2200 -0.4713  0.0402
  113MOL0     H15589   8.191   9.999   3.411 -0.3886  0.1403  0.1148
  113MOL0     H15590   8.141  10.069   3.003  0.0994  1.8502  0.1084
  113MOL0     H15591   8.598   9.702   3.303  0.8118  0.7283 -1.1759
  113MOL0     H15592   8.870   9.591   3.135  0.5354 -0.1717  0.2070
  113MOL0     H15593   8.772   9.743   3.143 -1.7411 -1.0751  0.6530
  113MOL0     H15594   8.929   9.745   3.196  1.0183 -1.9330 -0.8339
  114MOL0     O15595   3.808  10.531   2.669  0.0866  0.1475  0.0042
  114MOL0     C15596   3.771  10.434   2.597 -0.4087 -0.2494 -0.6273
  114MOL0     O15597   3.820  10.308   2.606  0.4223  0.5563  0.0193
  114MOL0     C15598   3.921  10.286   2.690  0.3744  0.8621  0.5029
  114MOL0     C15599   4.047  10.310   2.641 -1.0494  0.0590  1.0137
  114MOL0     C15600   4.159  10.274   2.712 -0.9062 -1.0886 -0.6881
  114MOL0     C15601   4.147  10.217   2.836 -0.1589 -0.3304 -0.8970
  114MOL0     O15602   4.263  10.181   2.893  0.3943 -0.2254 -0.5681
  114MOL0     C15603   4.279  10.051   2.962  0.5466 -0.6056 -0.4741
  114MOL0     C15604   4.419  10.002   2.929 -0.2994 -0.1991  0.2502
  114MOL0     C15605   4.517  10.041   3.041 -0.2405  0.2484 -0.4650
  114MOL0     C15606   4.587   9.921   3.088 -0.1826 -0.4262 -0.7401
  114MOL0     C15607   4.699   9.955   3.197  0.0437  0.2708  0.4025
  114MOL0     C15608   4.801  10.065   3.164  0.1142  0.5322 -0.1086
  114MOL0     C15609   4.869  10.059   3.022 -0.5169  0.6379  0.1191
  114MOL0     C15610   4.999  10.140   3.026 -0.1555  0.0323 -0.6008
  114MOL0     N15611   5.109  10.073   3.087 -0.4328 -0.3818  0.6585
  114MOL0     C15612   5.153   9.949   3.046  0.3027 -0.5649 -0.6469
  114MOL0     C15613   5.230   9.913   3.141 -0.2073 -0.3818 -0.3148
  114MOL0     C15614   5.315   9.788   3.125  0.5159  0.3642 -0.6825
  114MOL0     C15615   5.460   9.810   3.076 -1.1676 -0.0734 -0.7536
  114MOL0     C15616   5.553   9.817   3.193 -0.5321  0.1995  0.1325
  114MOL0     C15617   5.575   9.692   3.280  0.6273 -0.5659  0.3234
  114MOL0     O15618   5.657   9.715   3.398  0.3413  0.3998 -1.0350
  114MOL0     C15619   5.792   9.698   3.400  0.6434  0.2530  0.2562
  114MOL0     C15620   5.853   9.680   3.516  0.4287 -0.5776  0.3550
  114MOL0     C15621   5.995   9.678   3.531 -0.3568 -0.0765 -0.3232
  114MOL0     C15622   6.047   9.662   3.671  1.4807  0.7571 -1.2285
  114MOL0     C15623   6.088   9.686   3.426  0.0407  0.1622 -0.0915
  114MOL0     C15624   6.241   9.684   3.430  0.0124  0.2396  0.4565
  114MOL0     O15625   6.304   9.738   3.319  0.0070 -0.2084  0.0798
  114MOL0     C15626   6.438   9.726   3.313  0.7157  0.9908 -0.7982
  114MOL0     C15627   6.500   9.610   3.266  0.1439  0.0993 -0.2873
  114MOL0     C15628   6.634   9.610   3.242  0.0127 -0.6239 -0.6915
  114MOL0     C15629   6.715   9.725   3.272 -0.1318  0.5605 -0.1066
  114MOL0     O15630   6.850   9.730   3.244  0.0858  0.0613  0.4664
  114MOL0     C15631   6.931   9.639   3.320  0.1869 -0.5835  0.8959
  114MOL0     C15632   7.077   9.678   3.319  0.1376  0.3981 -0.4972
  114MOL0     C15633   7.148   9.562   3.407  0.7257  0.6197  0.6253
  114MOL0     C15634   7.300   9.565   3.387  0.4000  0.8223 -0.0104
  114MOL0     C15635   7.367   9.444   3.436 -0.2220  0.0198 -0.4613
  114MOL0     C15636   7.341   9.330   3.342 -0.6631  0.2439  0.6522
  114MOL0     C15637   7.425   9.211   3.380  0.3336 -0.5588 -0.5087
  114MOL0     C15638   7.389   9.078   3.330  0.5437  0.2313  1.0851
  114MOL0    Cl15639   7.459   9.071   3.167  0.4309 -0.5439  0.3715
  114MOL0     C15640   6.649   9.837   3.312 -0.4505  0.4707 -0.0169
  114MOL0     C15641   6.515   9.843   3.336  0.1061  0.2910 -0.8147
  114MOL0     O15642   6.294   9.624   3.524 -0.8447  0.0887  0.1073
  114MOL0     C15643   6.024   9.696   3.296  0.1298 -0.3858  0.2001
  114MOL0     C15644   5.876   9.702   3.289 -0.6973 -0.0093 -0.0337
  114MOL0     N15645   5.244  10.014   3.237  1.5314  0.1736  0.3353
  114MOL0     N15646   5.166  10.114   3.200  0.6300  0.6470 -0.8083
  114MOL0     C15647   4.020  10.188   2.885  0.0619  0.0296  0.1014
  114MOL0     C15648   3.902  10.233   2.820  0.8875 -1.0256 -0.5068
  114MOL0     C15649   3.647  10.450   2.520 -0.2696  0.2929  0.6795
  114MOL0     C15650   3.564  10.336   2.511  0.1686  1.1182 -0.1730
  114MOL0     C15651   3.451  10.344   2.435 -0.4316  0.3569 -0.6650
  114MOL0     C15652   3.404  10.464   2.367 -0.0533 -0.6150  0.5785
  114MOL0     O15653   3.292  10.490   2.295 -0.0849  0.7679 -0.5845
  114MOL0     C15654   3.242  10.373   2.222  0.6696 -0.7007 -0.4110
  114MOL0     C15655   3.111  10.404   2.146  0.2176 -0.4146  0.3836
  114MOL0     C15656   3.088  10.301   2.029 -0.7870 -0.1972 -0.3876
  114MOL0     C15657   2.970  10.353   1.945  0.3605  0.5771  0.5753
  114MOL0     C15658   2.996  10.452   1.847  0.0400 -0.7535  0.1675
  114MOL0     C15659   3.019  10.532   1.759 -0.7177 -0.3413 -0.4983
  114MOL0     C15660   3.481  10.581   2.396 -0.1863  0.6974  0.0479
  114MOL0     C15661   3.605  10.571   2.464 -0.4169 -0.4867 -0.9340
  114MOL0     C15662   3.677  10.710   2.469 -1.1310  0.3477 -0.0101
  114MOL0     H15663   4.057  10.350   2.540  0.5489  3.0860  2.2273
  114MOL0     H15664   4.255  10.269   2.663 -0.6076  0.8921 -0.3589
  114MOL0     H15665   4.209   9.978   2.920 -1.1554  1.7588 -2.0468
  114MOL0     H15666   4.253  10.048   3.068 -2.6084 -0.5242 -1.1540
  114MOL0     H15667   4.436   9.898   2.902  3.0130  0.5346 -0.9689
  114MOL0     H15668   4.456  10.062   2.845  0.7012 -2.4447 -1.0075
  114MOL0     H15669   4.599  10.109   3.018 -0.1819 -0.0639 -1.1849
  114MOL0     H15670   4.467  10.088   3.126 -4.3289  0.8588 -2.9497
  114MOL0     H15671   4.513   9.855   3.135  1.8193 -1.0035  1.8106
  114MOL0     H15672   4.635   9.865   3.007 -0.3108 -0.1014 -1.0455
  114MOL0     H15673   4.763   9.866   3.199  2.5795  1.9730 -0.0915
  114MOL0     H15674   4.656   9.969   3.296 -1.4126  0.8281 -0.2778
  114MOL0     H15675   4.759  10.163   3.187 -1.2841 -0.1650  0.3953
  114MOL0     H15676   4.885  10.043   3.230 -1.3980  0.3498  1.8634
  114MOL0     H15677   4.815  10.109   2.940  1.4086  3.0148  0.1858
  114MOL0     H15678   4.876   9.956   2.987 -0.9569  1.0384 -1.2090
  114MOL0     H15679   5.026  10.156   2.921 -0.2499  0.7320 -0.5222
  114MOL0     H15680   4.983  10.240   3.068  1.1337 -0.2451  0.6049
  114MOL0     H15681   5.134   9.882   2.963  0.5402  0.6950 -1.7468
  114MOL0     H15682   5.272   9.726   3.046 -2.5780  0.2017  0.9674
  114MOL0     H15683   5.305   9.735   3.221  0.4554  0.8301 -0.4278
  114MOL0     H15684   5.489   9.729   3.008 -1.3093 -0.5632 -0.2418
  114MOL0     H15685   5.475   9.908   3.030  1.0201  2.0318  3.8020
  114MOL0     H15686   5.646   9.849   3.146 -1.0113  0.2373 -0.8050
  114MOL0     H15687   5.510   9.896   3.255 -0.8294  0.2466 -0.1317
  114MOL0     H15688   5.477   9.655   3.310  1.1631 -0.0851  2.8232
  114MOL0     H15689   5.624   9.614   3.220 -0.3206 -0.5157 -0.5478
  114MOL0     H15690   5.784   9.684   3.599  0.2526  2.7450  0.1864
  114MOL0     H15691   6.050   9.555   3.695 -0.8318  0.5600 -1.6508
  114MOL0     H15692   5.982   9.719   3.739  1.9465  0.5473 -0.5917
  114MOL0     H15693   6.148   9.704   3.681  1.1401  2.0347 -2.8075
  114MOL0     H15694   6.441   9.521   3.247  0.6496 -0.1919 -0.5086
  114MOL0     H15695   6.667   9.512   3.210 -0.7690 -0.7601 -1.1156
  114MOL0     H15696   6.893   9.624   3.421 -1.5190  1.0094  0.5381
  114MOL0     H15697   6.929   9.546   3.263  0.6054  1.1829 -2.2228
  114MOL0     H15698   7.138   9.681   3.229  0.5122  0.2751 -0.2473
  114MOL0     H15699   7.085   9.777   3.366 -1.6757  0.6904 -0.7451
  114MOL0     H15700   7.123   9.467   3.359  0.6573  0.5768  0.7448
  114MOL0     H15701   7.118   9.559   3.512  0.7327 -2.1193  0.6140
  114MOL0     H15702   7.341   9.656   3.432  0.6845 -0.0846  1.6480
  114MOL0     H15703   7.326   9.565   3.281  0.2084  0.7328 -0.0579
  114MOL0     H15704   7.471   9.477   3.447 -1.1173  4.2421 -2.7162
  114MOL0     H15705   7.335   9.413   3.536 -0.7950 -1.7294 -1.1437
  114MOL0     H15706   7.349   9.347   3.235  0.2112 -4.0711 -0.1805
  114MOL0     H15707   7.238   9.295   3.356 -0.8765  1.0600  1.1735
  114MOL0     H15708   7.418   9.198   3.488 -0.1906 -2.1241 -0.7125
  114MOL0     H15709   7.534   9.224   3.379  0.5633 -1.9615  1.1511
  114MOL0     H15710   7.284   9.048   3.318  1.2714 -2.0976 -0.2232
  114MOL0     H15711   7.428   9.000   3.396  1.2241  0.6758  1.2242
  114MOL0     H15712   6.700   9.933   3.325  0.1015  0.4952 -2.0059
  114MOL0     H15713   6.465   9.938   3.354  0.4871  0.1689  1.1594
  114MOL0     H15714   6.078   9.704   3.202  1.5334 -3.2107  0.6593
  114MOL0     H15715   5.820   9.714   3.197  0.9101 -0.2619 -1.0821
  114MOL0     H15716   4.015  10.127   2.976 -0.9709 -0.8293 -0.5024
  114MOL0     H15717   3.802  10.208   2.854 -0.0141  0.1896 -2.1483
  114MOL0     H15718   3.597  10.241   2.552 -0.6137  1.4945  1.3842
  114MOL0     H15719   3.403  10.248   2.425  1.0178 -0.3125 -1.4932
  114MOL0     H15720   3.316  10.330   2.155  1.5807 -0.5127  0.4475
  114MOL0     H15721   3.206  10.315   2.307 -1.0943  2.3580  1.1209
  114MOL0     H15722   3.111  10.502   2.097  0.8923  0.2356  1.6232
  114MOL0     H15723   3.025  10.406   2.214 -1.9699 -1.9124 -2.1407
  114MOL0     H15724   3.179  10.295   1.970 -0.0680  0.9537  0.5458
  114MOL0     H15725   3.067  10.205   2.077 -1.5334  0.0337 -0.2282
  114MOL0     H15726   2.886  10.384   2.008  0.7979 -1.2779  2.1887
  114MOL0     H15727   2.932  10.266   1.890 -0.4995  0.0033  2.0041
  114MOL0     H15728   3.051  10.591   1.675 -3.8609 -0.0560 -1.6064
  114MOL0     H15729   3.441  10.678   2.367  0.0011  0.9144  0.5079
  114MOL0     H15730   3.651  10.772   2.555 -3.2887 -1.3990  0.6851
  114MOL0     H15731   3.786  10.704   2.465 -1.1480 -0.8826  0.6780
  114MOL0     H15732   3.648  10.768   2.381  0.7502  0.0358 -0.8881
  115MOL0     O15733   6.630   9.226   3.198 -0.8241  0.3026  0.0433
  115MOL0     C15734   6.690   9.130   3.140  0.0972  0.1165 -0.7132
  115MOL0     O15735   6.673   9.100   3.005 -0.1411  0.0637  0.3655
  115MOL0     C15736   6.550   9.091   2.941 -0.4252 -1.4446  0.1035
  115MOL0     C15737   6.541   9.079   2.801  0.0316  0.0826  0.5663
  115MOL0     C15738   6.423   9.062   2.739  0.1738 -0.3378 -1.0855
  115MOL0     C15739   6.305   9.069   2.808  0.9661 -0.4209  0.3252
  115MOL0     O15740   6.188   9.066   2.740 -0.1522 -0.3210 -0.4093
  115MOL0     C15741   6.075   9.007   2.802 -0.2877 -0.3684 -0.1094
  115MOL0     C15742   6.001   8.943   2.688  0.1930 -0.0575 -0.1791
  115MOL0     C15743   6.078   8.820   2.620 -0.2361 -0.0507 -0.0548
  115MOL0     C15744   6.089   8.704   2.714 -0.4573 -0.5989  0.1536
  115MOL0     C15745   6.166   8.592   2.659  1.0247 -0.1626 -0.1485
  115MOL0     C15746   6.196   8.478   2.761  0.3238 -0.5566  0.0595
  115MOL0     C15747   6.305   8.396   2.697  0.9946  0.1314 -0.1994
  115MOL0     C15748   6.449   8.457   2.696 -0.2046  0.3376 -0.7856
  115MOL0     N15749   6.547   8.365   2.637  0.9835  0.4582  0.0467
  115MOL0     C15750   6.543   8.336   2.508  0.1837  1.0801 -0.2760
  115MOL0     C15751   6.622   8.229   2.498  0.3870 -0.8287  1.1179
  115MOL0     C15752   6.671   8.162   2.375  0.2236  0.2820  0.6461
  115MOL0     C15753   6.820   8.153   2.369  0.1617 -0.1775 -0.2955
  115MOL0     C15754   6.852   8.050   2.262 -0.5671  0.0160 -0.2590
  115MOL0     C15755   6.997   8.003   2.262  0.8810  0.6284  0.0664
  115MOL0     O15756   7.092   8.102   2.246 -0.4538 -0.9795 -0.2678
  115MOL0     C15757   7.226   8.070   2.266  0.3722  0.2822 -0.4701
  115MOL0     C15758   7.289   7.964   2.197  0.4493  0.3818  0.6034
  115MOL0     C15759   7.424   7.943   2.203 -1.4446  0.8362 -0.1549
  115MOL0     C15760   7.478   7.834   2.111 -0.6404  0.0803 -0.4886
  115MOL0     C15761   7.501   8.014   2.300  0.0312 -0.4238  0.1334
  115MOL0     C15762   7.646   7.991   2.321 -0.2336 -0.4382 -0.7593
  115MOL0     O15763   7.715   7.905   2.252 -0.0334 -0.1252 -0.3510
  115MOL0     C15764   7.846   7.886   2.281  0.0417  0.0209 -0.2903
  115MOL0     C15765   7.873   7.773   2.360 -0.0328  0.3763  1.1137
  115MOL0     C15766   8.006   7.743   2.388 -0.2320  0.6155  0.4436
  115MOL0     C15767   8.111   7.817   2.334  0.9471  0.6451 -0.5423
  115MOL0     O15768   8.244   7.778   2.351 -0.0542 -0.0121  0.4210
  115MOL0     C15769   8.279   7.656   2.414 -0.2552 -0.5957  0.2019
  115MOL0     C15770   8.431   7.634   2.422 -0.6526 -0.6196 -0.0287
  115MOL0     C15771   8.507   7.728   2.522 -0.6857 -0.3419  0.2844
  115MOL0     C15772   8.658   7.738   2.478  0.5997  0.4137 -0.1220
  115MOL0     C15773   8.740   7.832   2.568 -0.3079  0.3261 -0.4146
  115MOL0     C15774   8.882   7.873   2.517  0.4519 -0.0510  0.9074
  115MOL0     C15775   8.980   7.763   2.524  0.4130  0.1295 -0.1850
  115MOL0     C15776   9.110   7.824   2.501  0.0187  0.2577 -0.0154
  115MOL0    Cl15777   9.218   7.685   2.466  0.1068  0.0404  0.1247
  115MOL0     C15778   8.084   7.938   2.266  0.3257  0.2242  0.1468
  115MOL0     C15779   7.951   7.970   2.236 -0.0451  0.4560  0.0044
  115MOL0     O15780   7.696   8.050   2.416 -0.4577 -0.0072  0.4499
  115MOL0     C15781   7.436   8.109   2.382 -0.5189 -0.6861  0.1806
  115MOL0     C15782   7.304   8.139   2.355  0.5101 -0.1966 -0.8820
  115MOL0     N15783   6.665   8.194   2.622  0.1836 -0.7666  0.0991
  115MOL0     N15784   6.619   8.276   2.704  0.1208  0.2573 -0.6460
  115MOL0     C15785   6.305   9.077   2.947 -0.4925 -0.6133  0.4508
  115MOL0     C15786   6.427   9.084   3.015 -0.4272 -0.7734 -0.3371
  115MOL0     C15787   6.802   9.054   3.207  0.1367  0.2777 -0.0206
  115MOL0     C15788   6.826   8.925   3.157 -0.2106 -0.2605  0.1235
  115MOL0     C15789   6.925   8.849   3.218 -0.1813 -0.1743  0.6032
  115MOL0     C15790   7.008   8.910   3.315  0.6370  0.5585 -0.1985
  115MOL0     O15791   7.110   8.837   3.375 -0.3319  0.3594 -0.2647
  115MOL0     C15792   7.186   8.748   3.292 -0.6059 -0.5233  0.8335
  115MOL0     C15793   7.319   8.714   3.357  0.3296  0.4512 -0.0454
  115MOL0     C15794   7.401   8.616   3.266  0.2309 -0.0362  0.1794
  115MOL0     C15795   7.540   8.580   3.326 -0.0091  0.1662  0.3796
  115MOL0     C15796   7.619   8.703   3.329  0.6988 -0.2556 -0.3802
  115MOL0     C15797   7.679   8.813   3.324 -0.4059 -0.1282  0.2542
  115MOL0     C15798   6.983   9.041   3.361 -0.8228  0.7374 -0.5805
  115MOL0     C15799   6.881   9.116   3.310  0.5057  0.5733 -0.0676
  115MOL0     C15800   6.854   9.252   3.364  0.4536 -0.3592 -0.0274
  115MOL0     H15801   6.629   9.090   2.738  1.0848 -3.2479  1.2437
  115MOL0     H15802   6.417   9.049   2.631 -0.6108  3.5613 -1.6657
  115MOL0     H15803   6.009   9.086   2.839 -2.5333 -0.9047 -2.6492
  115MOL0     H15804   6.097   8.935   2.882  0.9221 -0.4098 -0.4619
  115MOL0     H15805   5.902   8.906   2.716  0.7065 -1.6979 -0.4280
  115MOL0     H15806   5.987   9.013   2.605  0.1963 -0.2509 -0.3461
  115MOL0     H15807   6.021   8.795   2.530  0.2489 -2.0976  0.1446
  115MOL0     H15808   6.175   8.859   2.588  0.3131  0.2869  1.9267
  115MOL0     H15809   6.137   8.724   2.810 -2.6884  1.5327  0.9238
  115MOL0     H15810   5.988   8.675   2.743 -1.1792  2.4537  1.1112
  115MOL0     H15811   6.257   8.636   2.617  1.1504  0.4350  0.7276
  115MOL0     H15812   6.105   8.557   2.575  2.7421  1.6470 -2.2857
  115MOL0     H15813   6.233   8.527   2.852  0.7702  0.3317 -0.5813
  115MOL0     H15814   6.110   8.414   2.783 -0.2603 -0.1081 -0.8488
  115MOL0     H15815   6.285   8.370   2.593 -0.2312 -0.2028  0.0983
  115MOL0     H15816   6.320   8.303   2.753  0.2806  0.2694  0.2413
  115MOL0     H15817   6.436   8.547   2.635 -0.6292  1.2403  0.6018
  115MOL0     H15818   6.475   8.489   2.797  0.9406  1.0039 -1.2688
  115MOL0     H15819   6.491   8.389   2.428  1.8804  1.5902 -1.0775
  115MOL0     H15820   6.644   8.219   2.286 -2.2689 -1.8892 -0.1456
  115MOL0     H15821   6.627   8.062   2.386 -3.7417  2.0344  2.9504
  115MOL0     H15822   6.860   8.250   2.340 -1.5366  0.9186  0.8069
  115MOL0     H15823   6.862   8.126   2.467 -4.0536 -1.5145  1.3972
  115MOL0     H15824   6.789   7.965   2.287  0.6372 -1.4002 -1.7821
  115MOL0     H15825   6.826   8.083   2.160 -1.6369  0.5612  0.1790
  115MOL0     H15826   6.998   7.947   2.356 -2.2298  0.9469  0.3901
  115MOL0     H15827   7.002   7.933   2.179 -0.9242  1.9706 -1.2671
  115MOL0     H15828   7.233   7.910   2.121  0.8389 -0.8280  1.1615
  115MOL0     H15829   7.581   7.861   2.086 -1.7522  3.0460 -2.3808
  115MOL0     H15830   7.409   7.805   2.031 -1.5749 -1.4539  0.8365
  115MOL0     H15831   7.483   7.753   2.184  0.3385  1.0093  0.5162
  115MOL0     H15832   7.788   7.716   2.396 -0.0680 -1.4330 -1.5302
  115MOL0     H15833   8.034   7.663   2.455  0.8036 -0.2207 -0.9265
  115MOL0     H15834   8.239   7.642   2.515  0.2091 -0.6421  0.3830
  115MOL0     H15835   8.225   7.579   2.358 -1.6769  0.0743  0.6022
  115MOL0     H15836   8.443   7.530   2.452 -2.2778 -0.7981  0.1103
  115MOL0     H15837   8.479   7.651   2.325  0.3526 -1.6778  0.2644
  115MOL0     H15838   8.493   7.695   2.626 -0.0929  2.9831  1.5433
  115MOL0     H15839   8.476   7.831   2.508 -0.3383  0.1916  2.9099
  115MOL0     H15840   8.645   7.783   2.379 -2.5910 -0.1298 -0.0530
  115MOL0     H15841   8.708   7.640   2.470 -2.7468 -1.6314  1.6283
  115MOL0     H15842   8.683   7.924   2.585 -0.8929  0.5255 -2.9698
  115MOL0     H15843   8.753   7.772   2.658 -0.1963 -0.3162 -0.8505
  115MOL0     H15844   8.906   7.963   2.576 -0.2556  1.5700 -1.1487
  115MOL0     H15845   8.883   7.910   2.414 -0.0369 -2.1946  0.0804
  115MOL0     H15846   8.960   7.689   2.446  0.5637 -2.1590  1.8242
  115MOL0     H15847   8.980   7.714   2.622 -3.3944  0.0779 -0.0408
  115MOL0     H15848   9.131   7.870   2.598  3.6172 -0.6861 -0.2077
  115MOL0     H15849   9.118   7.894   2.417 -0.0447  0.6808  0.3271
  115MOL0     H15850   8.169   7.998   2.237  0.9832  0.1081  1.7281
  115MOL0     H15851   7.930   8.062   2.183 -0.2920  1.8095  2.2880
  115MOL0     H15852   7.484   8.160   2.465  0.0189 -1.5545  0.4086
  115MOL0     H15853   7.248   8.207   2.418 -3.3729 -1.1965 -2.9795
  115MOL0     H15854   6.218   9.094   3.010 -0.2834 -1.1806  0.9022
  115MOL0     H15855   6.421   9.087   3.123  1.4562  3.3857 -0.1236
  115MOL0     H15856   6.767   8.882   3.077  1.6508  1.1892 -2.1481
  115MOL0     H15857   6.942   8.746   3.188  0.3490  0.5296 -1.7517
  115MOL0     H15858   7.132   8.654   3.285  0.7241 -1.6526  3.7216
  115MOL0     H15859   7.210   8.789   3.194  0.5589  2.0558  2.0888
  115MOL0     H15860   7.306   8.654   3.448 -1.6398  0.6102 -0.1981
  115MOL0     H15861   7.363   8.809   3.389  0.7565  0.4116 -0.5007
  115MOL0     H15862   7.347   8.523   3.247  2.5661 -1.8320  1.8617
  115MOL0     H15863   7.426   8.667   3.172  2.3877  1.4666  1.4842
  115MOL0     H15864   7.586   8.497   3.273 -1.5803 -1.7289  1.8272
  115MOL0     H15865   7.527   8.543   3.428 -2.9770 -2.7399 -0.8755
  115MOL0     H15866   7.737   8.903   3.319 -1.6663  0.6561 -1.0137
  115MOL0     H15867   7.041   9.078   3.445 -1.4912 -1.1691  0.8031
  115MOL0     H15868   6.922   9.288   3.442 -1.3840  2.0101  0.5982
  115MOL0     H15869   6.857   9.333   3.291 -2.5525 -0.0724  0.0521
  115MOL0     H15870   6.758   9.260   3.416  0.5121 -0.5188  0.1056
  116MOL0     O15871   7.819  10.972   5.236 -0.5237  0.3800 -0.2078
  116MOL0     C15872   7.758  11.025   5.146 -0.6773  0.0169  0.0201
  116MOL0     O15873   7.818  11.112   5.061 -0.2170 -0.5831 -0.2643
  116MOL0     C15874   7.953  11.122   5.053 -0.8226 -0.3421  0.6079
  116MOL0     C15875   8.031  11.185   5.149  0.5294 -0.2286  0.0223
  116MOL0     C15876   8.173  11.195   5.138 -0.0247 -0.2176 -0.7446
  116MOL0     C15877   8.245  11.139   5.032  0.0574  0.1342 -0.5340
  116MOL0     O15878   8.381  11.137   5.014  0.3127  0.1834 -0.4914
  116MOL0     C15879   8.481  11.152   5.121 -0.0501  0.6508  0.0311
  116MOL0     C15880   8.617  11.137   5.062 -0.5605  0.2608 -0.2296
  116MOL0     C15881   8.642  10.997   5.008 -0.3650 -0.0543 -0.8216
  116MOL0     C15882   8.772  10.979   4.914  0.1021 -0.3298 -0.0773
  116MOL0     C15883   8.785  10.843   4.861 -0.8100 -0.6386  0.7869
  116MOL0     C15884   8.912  10.826   4.775  1.0612  0.2984 -0.2349
  116MOL0     C15885   8.918  10.676   4.729 -0.5274  0.7778 -0.6489
  116MOL0     C15886   9.038  10.644   4.637  0.5119 -1.2453 -0.5573
  116MOL0     N15887   9.047  10.504   4.586 -0.3616 -0.1314  0.2891
  116MOL0     C15888   8.951  10.417   4.542  0.8946  0.1579 -1.1891
  116MOL0     C15889   9.013  10.293   4.547  1.1699  0.4838  1.1180
  116MOL0     C15890   8.942  10.171   4.500 -0.4718 -0.3105  0.2702
  116MOL0     C15891   8.964  10.150   4.356 -0.1531 -0.0459  0.3929
  116MOL0     C15892   8.907  10.001   4.320 -0.1738 -1.0214  0.2621
  116MOL0     C15893   8.913   9.981   4.161  0.9175  0.1353 -0.1511
  116MOL0     O15894   8.812   9.898   4.108  0.3932  0.5346  0.6285
  116MOL0     C15895   8.675   9.920   4.121  0.2440  0.4076  0.4310
  116MOL0     C15896   8.588   9.808   4.092 -0.6165 -0.9216  0.3632
  116MOL0     C15897   8.449   9.818   4.090 -0.2898  0.6202  1.0145
  116MOL0     C15898   8.367   9.705   4.023  0.1111  0.1181 -0.9415
  116MOL0     C15899   8.401   9.938   4.133  1.3329  0.0861 -0.3071
  116MOL0     C15900   8.250   9.953   4.155 -0.7308 -0.2204  0.2791
  116MOL0     O15901   8.170   9.955   4.047  0.1016  0.8463 -0.6026
  116MOL0     C15902   8.044  10.010   4.057 -0.5998 -1.0300  1.3528
  116MOL0     C15903   8.026  10.143   4.101 -0.1119 -0.6437  0.9535
  116MOL0     C15904   7.906  10.204   4.127  0.4483  0.0467 -0.5427
  116MOL0     C15905   7.793  10.132   4.095 -0.4666  0.5099 -0.5495
  116MOL0     O15906   7.675  10.175   4.150 -0.1967  0.7954  0.1534
  116MOL0     C15907   7.615  10.101   4.259  0.2583  0.1127 -0.3081
  116MOL0     C15908   7.584  10.185   4.389  0.0260 -0.7437  0.6581
  116MOL0     C15909   7.514  10.092   4.489  0.0692 -0.3332 -0.1161
  116MOL0     C15910   7.486  10.165   4.617 -0.8097  0.0081 -0.1974
  116MOL0     C15911   7.334  10.194   4.628 -0.1212  0.4056 -0.0589
  116MOL0     C15912   7.315  10.306   4.733 -0.4546  0.3880 -0.4525
  116MOL0     C15913   7.161  10.333   4.766 -0.5726  0.6480  0.2423
  116MOL0     C15914   7.141  10.444   4.869  0.2022  0.0400 -0.7148
  116MOL0    Cl15915   7.231  10.594   4.823 -0.0987  0.3827 -0.0182
  116MOL0     C15916   7.796  10.008   4.040  0.0376  0.5971 -0.9252
  116MOL0     C15917   7.923   9.946   4.028 -0.7028  0.4323 -1.0163
  116MOL0     O15918   8.214   9.973   4.274  0.0762 -0.1973  0.0816
  116MOL0     C15919   8.480  10.039   4.192 -0.7761  0.0557 -0.4485
  116MOL0     C15920   8.620  10.032   4.177  0.4040 -0.0802  0.2488
  116MOL0     N15921   9.138  10.311   4.600  0.1390  0.7423  0.2992
  116MOL0     N15922   9.154  10.432   4.623  0.0405  0.4143  0.1445
  116MOL0     C15923   8.160  11.073   4.944  0.3209  0.1683  0.1312
  116MOL0     C15924   8.022  11.063   4.951  0.3790  0.0048 -0.5058
  116MOL0     C15925   7.614  10.999   5.123  0.2135  0.8898  0.0717
  116MOL0     C15926   7.575  10.954   4.993 -0.6200  0.5234 -0.2505
  116MOL0     C15927   7.441  10.921   4.973  0.6356 -0.4383 -0.1632
  116MOL0     C15928   7.346  10.938   5.069 -0.2695 -0.7022  0.1225
  116MOL0     O15929   7.211  10.922   5.047  0.0768  0.2414 -0.5098
  116MOL0     C15930   7.155  10.918   4.912  1.0711  0.3673 -0.9403
  116MOL0     C15931   7.009  10.865   4.926  0.1520  0.1875  1.0248
  116MOL0     C15932   6.934  10.952   5.021  0.2633 -0.9404  0.6579
  116MOL0     C15933   6.782  10.942   5.017 -0.4172  0.3013  0.6294
  116MOL0     C15934   6.738  10.804   5.020 -0.0613  0.0557 -0.6723
  116MOL0     C15935   6.695  10.696   5.049 -0.4876  0.4856 -0.8312
  116MOL0     C15936   7.380  10.990   5.197 -0.2228 -1.2246  0.2048
  116MOL0     C15937   7.513  11.028   5.225 -0.3405  0.9861 -0.7718
  116MOL0     C15938   7.540  11.094   5.359 -0.6864  0.3981 -0.0264
  116MOL0     H15939   7.977  11.214   5.239 -0.0443  1.1810 -0.7466
  116MOL0     H15940   8.228  11.254   5.211  2.9647 -3.0679 -0.4490
  116MOL0     H15941   8.460  11.091   5.209  2.8618 -0.8257 -0.1995
  116MOL0     H15942   8.478  11.256   5.156 -0.2888  0.7583 -0.3074
  116MOL0     H15943   8.627  11.212   4.983  1.0056 -1.8172 -2.1481
  116MOL0     H15944   8.681  11.167   5.146 -2.2979 -0.1356  1.2900
  116MOL0     H15945   8.651  10.931   5.095 -4.2380  2.3321  1.7539
  116MOL0     H15946   8.546  10.974   4.961 -2.2788  2.2703  1.6252
  116MOL0     H15947   8.766  11.049   4.830  2.0103  1.0926  0.8859
  116MOL0     H15948   8.865  11.005   4.967 -0.6662  2.2523  0.1512
  116MOL0     H15949   8.696  10.819   4.802  2.2559 -1.5589 -3.9513
  116MOL0     H15950   8.779  10.769   4.942  0.3019 -0.7635  0.7721
  116MOL0     H15951   8.885  10.890   4.690 -1.9900 -1.8446 -1.0831
  116MOL0     H15952   9.002  10.856   4.830  1.4671  1.2175 -1.3609
  116MOL0     H15953   8.827  10.644   4.677  0.3263 -0.4313 -1.4607
  116MOL0     H15954   8.926  10.635   4.830  2.4815  2.8060  0.0740
  116MOL0     H15955   9.024  10.722   4.562 -2.6097  0.2807  1.3724
  116MOL0     H15956   9.127  10.657   4.699  0.6596 -0.4744 -0.9215
  116MOL0     H15957   8.844  10.432   4.529  1.0199  0.6201 -1.7449
  116MOL0     H15958   8.834  10.180   4.511 -1.0204 -0.3075 -3.6635
  116MOL0     H15959   8.977  10.082   4.552 -0.0103 -0.3844 -0.1548
  116MOL0     H15960   8.920  10.231   4.299 -1.9026 -1.0495  0.2587
  116MOL0     H15961   9.073  10.152   4.344 -0.0794  0.6601  1.0895
  116MOL0     H15962   8.964   9.928   4.377 -0.0061 -0.9896  0.1353
  116MOL0     H15963   8.803   9.995   4.355 -0.3001 -1.4971 -0.1807
  116MOL0     H15964   8.910  10.078   4.113 -2.9090 -0.1240 -0.6913
  116MOL0     H15965   9.010   9.932   4.146  0.9162 -0.2337  0.9527
  116MOL0     H15966   8.640   9.721   4.052  4.1919  2.3340 -1.4887
  116MOL0     H15967   8.286   9.743   3.960 -1.8620 -0.2404  1.2308
  116MOL0     H15968   8.314   9.645   4.097  1.9583 -0.4786 -0.0399
  116MOL0     H15969   8.428   9.631   3.970  0.6806 -2.0797  2.4868
  116MOL0     H15970   8.110  10.197   4.143  1.6459  0.8379 -3.7830
  116MOL0     H15971   7.895  10.291   4.191 -1.0655 -1.1248  0.8880
  116MOL0     H15972   7.523  10.050   4.228  1.5145 -1.1312 -2.2418
  116MOL0     H15973   7.688  10.026   4.292  1.4503  1.8555  1.2024
  116MOL0     H15974   7.675  10.220   4.439 -0.4916 -0.4392  1.3948
  116MOL0     H15975   7.529  10.274   4.359  1.0619 -0.0989  0.6244
  116MOL0     H15976   7.580  10.008   4.514  0.3858  0.0955  0.4809
  116MOL0     H15977   7.417  10.056   4.451 -0.2916  1.4366 -0.9755
  116MOL0     H15978   7.532  10.264   4.610  1.4191 -1.0381 -1.1810
  116MOL0     H15979   7.516  10.104   4.702  1.8226  3.2890  1.4407
  116MOL0     H15980   7.299  10.240   4.535  0.3712  1.9115  0.4651
  116MOL0     H15981   7.272  10.108   4.653  0.1640 -1.4271 -4.6896
  116MOL0     H15982   7.368  10.392   4.691  1.4329 -1.4574 -2.0698
  116MOL0     H15983   7.361  10.286   4.830 -0.3777 -0.1688 -0.6040
  116MOL0     H15984   7.106  10.243   4.798  0.0814 -0.1068 -0.7176
  116MOL0     H15985   7.117  10.355   4.668  0.5098  0.7780 -0.2245
  116MOL0     H15986   7.186  10.425   4.967 -1.1541  0.4972  0.0333
  116MOL0     H15987   7.035  10.472   4.881  0.1403  0.7416 -2.5476
  116MOL0     H15988   7.705   9.961   4.005 -0.4095  1.1258 -0.4953
  116MOL0     H15989   7.917   9.846   3.986 -2.8313  0.0751  0.0181
  116MOL0     H15990   8.421  10.124   4.223 -2.9323 -1.8101  0.8517
  116MOL0     H15991   8.682  10.118   4.203 -0.6339  0.8703 -0.3176
  116MOL0     H15992   8.209  11.005   4.876  2.8613  0.8460  1.1718
  116MOL0     H15993   7.959  11.009   4.881 -0.2638  0.2164 -0.0996
  116MOL0     H15994   7.646  10.954   4.911  0.1260 -0.2226  0.3781
  116MOL0     H15995   7.408  10.886   4.875 -2.4863  2.1162 -0.2071
  116MOL0     H15996   7.160  11.017   4.867  1.0683  0.8445  0.0891
  116MOL0     H15997   7.209  10.848   4.848  0.7630 -0.6124 -0.1644
  116MOL0     H15998   7.019  10.764   4.965  0.8994 -1.0285 -1.9936
  116MOL0     H15999   6.963  10.843   4.829 -0.2935 -0.9758  1.4897
  116MOL0     H16000   6.977  10.940   5.121  0.5088  0.0926  0.6892
  116MOL0     H16001   6.955  11.058   5.004 -3.3940  0.6388  4.1425
  116MOL0     H16002   6.739  10.987   4.927 -4.8029  1.3816  2.9674
  116MOL0     H16003   6.739  11.008   5.094 -0.4414  2.4248 -1.1140
  116MOL0     H16004   6.656  10.597   5.063  0.6157 -0.2827 -2.7664
  116MOL0     H16005   7.306  11.002   5.276 -0.1618 -0.0142  0.0940
  116MOL0     H16006   7.520  11.020   5.438 -2.1066 -0.1066 -0.8179
  116MOL0     H16007   7.641  11.136   5.367 -1.5462  2.3959  1.0707
  116MOL0     H16008   7.470  11.177   5.370 -0.8427  0.1057  1.3991
  117MOL0     O16009   4.777   3.254   8.304 -0.4042  0.0552 -0.4948
  117MOL0     C16010   4.820   3.190   8.203  0.3459  0.1481 -1.0207
  117MOL0     O16011   4.953   3.167   8.179  0.2642 -0.9230 -0.6964
  117MOL0     C16012   5.056   3.182   8.265  0.6966  0.1306 -0.1166
  117MOL0     C16013   5.045   3.208   8.401  0.7114 -0.1008  0.0318
  117MOL0     C16014   5.157   3.213   8.480 -0.1136  0.4615  0.7390
  117MOL0     C16015   5.282   3.170   8.433 -0.1540 -0.2669  0.4424
  117MOL0     O16016   5.389   3.154   8.524  0.5784  0.1969 -0.4767
  117MOL0     C16017   5.511   3.090   8.479 -0.2732 -0.2835 -0.9804
  117MOL0     C16018   5.606   3.135   8.594 -0.5209  0.0620  0.0304
  117MOL0     C16019   5.742   3.065   8.581  0.1396 -0.8755 -1.0049
  117MOL0     C16020   5.848   3.156   8.650  0.0346  1.1004  0.5994
  117MOL0     C16021   5.976   3.078   8.688 -0.4078 -0.6866  0.5529
  117MOL0     C16022   6.053   3.028   8.563 -0.8507  0.3309  0.3854
  117MOL0     C16023   6.206   3.039   8.580  0.0445 -0.8963  0.4167
  117MOL0     C16024   6.243   2.955   8.709  0.7906  0.2945  0.6618
  117MOL0     N16025   6.384   2.923   8.714  0.2819 -0.0608  0.1610
  117MOL0     C16026   6.442   2.896   8.838  0.6092  0.2354  1.4645
  117MOL0     C16027   6.568   2.847   8.805  0.2266 -0.8898 -0.4711
  117MOL0     C16028   6.696   2.827   8.885  0.7126  0.3006 -0.7987
  117MOL0     C16029   6.775   2.710   8.821 -0.2604 -0.6580  0.0935
  117MOL0     C16030   6.890   2.653   8.904  1.5709 -0.2134 -0.9770
  117MOL0     C16031   6.993   2.758   8.955 -0.1895 -0.5272  0.5886
  117MOL0     O16032   7.107   2.684   9.000  0.4743  0.4376 -0.3102
  117MOL0     C16033   7.216   2.740   9.066  0.3054  0.0738 -0.0295
  117MOL0     C16034   7.230   2.885   9.086  0.8605  0.1877 -0.3929
  117MOL0     C16035   7.329   2.943   9.171  0.4588  0.7278 -0.2605
  117MOL0     C16036   7.345   3.085   9.171  0.1544  0.0244 -0.5868
  117MOL0     C16037   7.414   2.846   9.242 -0.0348 -0.8430  0.5402
  117MOL0     C16038   7.528   2.897   9.330 -0.1263  0.3386 -0.0831
  117MOL0     O16039   7.651   2.828   9.311 -0.6101  0.4181 -0.2089
  117MOL0     C16040   7.775   2.883   9.313  0.1417 -0.4649  0.9192
  117MOL0     C16041   7.879   2.802   9.348 -0.4182  0.4005 -0.0735
  117MOL0     C16042   8.006   2.863   9.368 -0.4562 -0.5898 -0.3368
  117MOL0     C16043   8.023   2.996   9.329  0.5992 -0.0977  0.2072
  117MOL0     O16044   8.145   3.054   9.353 -0.6719  0.1582 -0.5479
  117MOL0     C16045   8.201   3.168   9.282 -0.7640 -0.3982  0.8893
  117MOL0     C16046   8.347   3.170   9.326 -0.4796  0.2901 -0.3352
  117MOL0     C16047   8.404   3.296   9.267  0.3132  0.9651 -1.0612
  117MOL0     C16048   8.550   3.267   9.254 -0.6004  0.7662  0.4005
  117MOL0     C16049   8.631   3.385   9.210 -0.2980  0.2141 -0.2982
  117MOL0     C16050   8.750   3.341   9.122  0.3983 -0.2073 -0.4088
  117MOL0     C16051   8.866   3.448   9.125 -0.5747 -0.6834  0.3521
  117MOL0     C16052   8.970   3.402   9.027  0.1417  0.5039 -0.5289
  117MOL0    Cl16053   9.109   3.531   8.996  0.2799 -0.4408 -0.2067
  117MOL0     C16054   7.920   3.067   9.266 -0.0360  0.1622 -0.1396
  117MOL0     C16055   7.788   3.017   9.269 -0.1166  0.4219 -0.5342
  117MOL0     O16056   7.518   2.990   9.411  0.1150 -0.0231  0.4598
  117MOL0     C16057   7.402   2.709   9.222  1.0078  0.6168  0.2242
  117MOL0     C16058   7.302   2.657   9.135 -0.2463  0.9788 -0.2912
  117MOL0     N16059   6.575   2.856   8.672  0.2403  0.3824  0.5806
  117MOL0     N16060   6.464   2.893   8.614 -0.2887  1.2383  0.2377
  117MOL0     C16061   5.300   3.143   8.298  0.0360 -1.1841 -0.2103
  117MOL0     C16062   5.185   3.151   8.213 -0.3553  0.4590 -0.4902
  117MOL0     C16063   4.719   3.144   8.096  0.1673 -0.4043  0.3431
  117MOL0     C16064   4.764   3.116   7.967  0.7106 -0.5267 -0.3212
  117MOL0     C16065   4.670   3.086   7.868  0.3746  0.4219 -0.4629
  117MOL0     C16066   4.532   3.080   7.904  0.6680  0.3918  0.1582
  117MOL0     O16067   4.429   3.038   7.821  0.3025 -0.0360 -0.2260
  117MOL0     C16068   4.463   2.977   7.698  0.3728  0.1827 -0.3661
  117MOL0     C16069   4.436   3.071   7.575 -0.5618 -0.2767 -0.5331
  117MOL0     C16070   4.472   2.996   7.448 -0.1571 -0.1754 -0.1512
  117MOL0     C16071   4.446   3.082   7.325  0.2776  0.2393 -0.3241
  117MOL0     C16072   4.301   3.103   7.297 -0.0660 -0.0056  0.4251
  117MOL0     C16073   4.183   3.117   7.264  0.8620  1.0582  0.1199
  117MOL0     C16074   4.490   3.107   8.035  0.4217  0.6741  0.2725
  117MOL0     C16075   4.584   3.131   8.131  0.4335  0.1561  0.0379
  117MOL0     C16076   4.530   3.125   8.270 -0.3021 -1.2271  0.3804
  117MOL0     H16077   4.949   3.238   8.441  0.6188 -0.0669 -0.2162
  117MOL0     H16078   5.139   3.239   8.584  0.8642 -0.5672  1.1852
  117MOL0     H16079   5.555   3.136   8.390  0.6272  1.1598  0.1644
  117MOL0     H16080   5.502   2.981   8.475  0.6499 -0.4416  0.4336
  117MOL0     H16081   5.615   3.243   8.577  1.3437 -0.0414  0.2255
  117MOL0     H16082   5.567   3.129   8.696  0.0692 -2.0115  0.1722
  117MOL0     H16083   5.739   2.969   8.634  0.4497  0.8594  2.5063
  117MOL0     H16084   5.763   3.054   8.475 -0.4106 -0.9135 -1.1097
  117MOL0     H16085   5.869   3.244   8.589  2.7052  0.9661  1.2022
  117MOL0     H16086   5.801   3.196   8.741  2.1263  1.7608  1.4321
  117MOL0     H16087   5.945   2.987   8.741 -0.1024 -0.2234  1.5540
  117MOL0     H16088   6.044   3.141   8.746 -0.2456 -1.9130  1.7500
  117MOL0     H16089   6.027   2.923   8.550 -2.2589  0.3562  2.6234
  117MOL0     H16090   6.030   3.081   8.470  1.3846  1.7183  0.5534
  117MOL0     H16091   6.228   3.145   8.594  0.8024 -1.0572  0.4907
  117MOL0     H16092   6.254   3.002   8.489  1.5285 -1.6705  1.4846
  117MOL0     H16093   6.215   3.019   8.793 -1.7206  0.2078 -0.0092
  117MOL0     H16094   6.180   2.865   8.707  1.0242  0.1319 -1.5755
  117MOL0     H16095   6.405   2.922   8.937 -1.5876 -1.0799  1.0639
  117MOL0     H16096   6.675   2.806   8.990 -0.9501  0.6731 -1.0307
  117MOL0     H16097   6.749   2.923   8.873 -1.0237  1.4922  0.6747
  117MOL0     H16098   6.713   2.624   8.796  0.5123 -1.1895 -0.0227
  117MOL0     H16099   6.815   2.758   8.731  4.2180  1.2825  2.7724
  117MOL0     H16100   6.856   2.587   8.985  2.3139 -1.9730 -2.0658
  117MOL0     H16101   6.938   2.579   8.840  3.0089  1.4968 -1.9861
  117MOL0     H16102   7.019   2.824   8.871  0.5074 -0.7014  0.6565
  117MOL0     H16103   6.958   2.816   9.040  0.1944  1.0377 -0.2622
  117MOL0     H16104   7.158   2.948   9.036 -1.6360 -1.5103  0.8205
  117MOL0     H16105   7.267   3.131   9.109  0.5052  2.5434  0.7069
  117MOL0     H16106   7.443   3.093   9.125  0.1467 -3.6735 -1.6033
  117MOL0     H16107   7.338   3.132   9.270 -0.2501 -0.5576 -0.3268
  117MOL0     H16108   7.853   2.698   9.366  0.3377  0.3962  1.0734
  117MOL0     H16109   8.090   2.805   9.405 -0.5543  0.6254  1.9416
  117MOL0     H16110   8.190   3.148   9.175 -1.0099 -4.3765  1.4832
  117MOL0     H16111   8.138   3.252   9.311 -3.0884 -2.1121  1.0679
  117MOL0     H16112   8.357   3.178   9.434  0.5051 -0.5751 -0.3486
  117MOL0     H16113   8.402   3.079   9.302  0.1009  0.8346 -1.1471
  117MOL0     H16114   8.397   3.379   9.338  2.4056 -1.4629  2.2919
  117MOL0     H16115   8.356   3.314   9.170  0.5095  0.2983 -1.2847
  117MOL0     H16116   8.570   3.194   9.175 -1.0356 -0.6061  1.5175
  117MOL0     H16117   8.603   3.234   9.343  0.1640  0.3540 -0.1931
  117MOL0     H16118   8.573   3.464   9.161  0.6086  0.7298 -0.5568
  117MOL0     H16119   8.672   3.425   9.303 -0.4918 -1.9942  0.8158
  117MOL0     H16120   8.703   3.339   9.023  1.6003 -1.0589 -0.9826
  117MOL0     H16121   8.791   3.242   9.145  1.3875  0.0895 -0.8515
  117MOL0     H16122   8.896   3.445   9.230 -1.7690 -0.8650  0.7050
  117MOL0     H16123   8.836   3.553   9.116  2.7704  0.5893  2.1413
  117MOL0     H16124   8.923   3.394   8.928 -0.7237 -0.1117 -0.0856
  117MOL0     H16125   9.005   3.303   9.056  0.5432  0.3074 -1.6290
  117MOL0     H16126   7.940   3.170   9.237 -1.1079  0.4900  0.2358
  117MOL0     H16127   7.702   3.070   9.230 -0.4780  0.2219 -0.0301
  117MOL0     H16128   7.469   2.646   9.280  0.3635 -2.0357 -1.7119
  117MOL0     H16129   7.305   2.549   9.129  1.2442  1.0707 -3.2513
  117MOL0     H16130   5.399   3.114   8.264  1.2892 -2.0571  3.7123
  117MOL0     H16131   5.202   3.131   8.108  1.8410  0.4553 -0.1751
  117MOL0     H16132   4.867   3.120   7.936  0.1399 -2.7921 -2.8056
  117MOL0     H16133   4.713   3.074   7.769  1.7032  1.1000  0.0215
  117MOL0     H16134   4.565   2.938   7.695  0.5556  0.6784 -0.8003
  117MOL0     H16135   4.390   2.896   7.689 -0.4672  0.0409  4.6480
  117MOL0     H16136   4.498   3.162   7.577 -2.1114  0.7977  0.3318
  117MOL0     H16137   4.336   3.114   7.570  0.3941  2.0277 -1.5433
  117MOL0     H16138   4.579   2.973   7.456 -0.1801 -0.0281  0.7094
  117MOL0     H16139   4.413   2.903   7.443 -2.5699  1.3350 -1.7137
  117MOL0     H16140   4.482   3.028   7.237 -0.5271 -2.1905  0.7573
  117MOL0     H16141   4.499   3.177   7.339  1.2106 -0.3545  0.2550
  117MOL0     H16142   4.080   3.139   7.250  0.4648 -0.3433  0.6572
  117MOL0     H16143   4.385   3.117   8.061  0.3409  2.8974 -0.6606
  117MOL0     H16144   4.498   3.224   8.305 -0.6702  1.1793 -5.5501
  117MOL0     H16145   4.429   3.084   8.278 -0.4427 -1.0597 -0.4344
  117MOL0     H16146   4.605   3.076   8.333  4.6558  4.8384  0.1363
  118MOL0     O16147   1.473   3.103  11.063 -0.7195 -0.1681 -0.3987
  118MOL0     C16148   1.469   2.982  11.032  0.1387 -0.8636  0.0462
  118MOL0     O16149   1.579   2.908  10.994 -0.9312 -0.3038  0.4982
  118MOL0     C16150   1.706   2.962  11.008 -0.5282 -0.8753  0.2458
  118MOL0     C16151   1.788   2.917  11.108  0.3002 -0.0866 -0.2091
  118MOL0     C16152   1.912   2.977  11.137  0.2210 -0.5422 -0.0510
  118MOL0     C16153   1.969   3.079  11.050  0.2314  0.6492 -0.0229
  118MOL0     O16154   2.090   3.133  11.070 -0.1493  0.6408  0.2552
  118MOL0     C16155   2.198   3.082  10.996 -0.3857 -0.2615 -0.3129
  118MOL0     C16156   2.320   3.136  11.068  0.2470  0.6136 -0.0301
  118MOL0     C16157   2.443   3.067  11.001  0.0558 -0.1191  0.1975
  118MOL0     C16158   2.558   3.098  11.090  0.1145 -0.5006  0.1205
  118MOL0     C16159   2.674   2.994  11.081  0.4952 -0.6053  0.3721
  118MOL0     C16160   2.721   2.982  10.939  0.1723  0.2169 -0.4284
  118MOL0     C16161   2.851   2.901  10.931 -0.8629  0.9926  0.2288
  118MOL0     C16162   2.834   2.752  10.962 -0.1021 -0.8465 -0.0551
  118MOL0     N16163   2.752   2.689  10.853 -0.4510  0.1226 -0.9149
  118MOL0     C16164   2.806   2.632  10.746  0.1969  0.7427 -0.5824
  118MOL0     C16165   2.702   2.574  10.681 -0.1642 -0.1271 -1.0327
  118MOL0     C16166   2.693   2.489  10.550  0.1791 -0.3651 -0.0298
  118MOL0     C16167   2.819   2.401  10.521 -0.0870 -0.1710  0.2689
  118MOL0     C16168   2.837   2.289  10.633  0.3097 -0.3918 -0.1843
  118MOL0     C16169   2.989   2.253  10.644  0.6253  0.3706  0.9074
  118MOL0     O16170   3.054   2.366  10.706 -0.4226 -0.0204  0.7197
  118MOL0     C16171   3.149   2.325  10.801  0.4328 -0.0955  0.4571
  118MOL0     C16172   3.116   2.310  10.931 -0.0569  0.2068  0.3691
  118MOL0     C16173   3.199   2.248  11.034  1.4523 -0.4256  0.3226
  118MOL0     C16174   3.150   2.238  11.171 -0.3170 -0.0680  0.0518
  118MOL0     C16175   3.323   2.212  10.997  0.0245 -0.3461  0.2908
  118MOL0     C16176   3.425   2.148  11.089 -0.2527  0.2007  0.0058
  118MOL0     O16177   3.552   2.156  11.050 -0.2452  0.6884 -0.1979
  118MOL0     C16178   3.657   2.141  11.142  0.4288  0.0909 -0.4430
  118MOL0     C16179   3.659   2.221  11.257 -0.6091  0.2945 -0.2834
  118MOL0     C16180   3.777   2.226  11.334 -0.0320  0.0841  0.1034
  118MOL0     C16181   3.886   2.139  11.309  0.7291  1.1459  0.1012
  118MOL0     O16182   4.002   2.143  11.376 -0.5785  1.1447 -0.7763
  118MOL0     C16183   4.016   2.215  11.501 -0.2553 -0.4479  0.1396
  118MOL0     C16184   4.171   2.207  11.519 -0.0392 -0.3222 -0.1155
  118MOL0     C16185   4.227   2.065  11.544  0.4272 -0.0718 -0.0716
  118MOL0     C16186   4.377   2.066  11.548  0.4475 -0.3249 -0.5287
  118MOL0     C16187   4.453   1.927  11.540 -0.0385  0.0953 -0.3101
  118MOL0     C16188   4.445   1.848  11.668 -0.0315 -0.4222 -0.4943
  118MOL0     C16189   4.482   1.699  11.661  0.6961  0.4956 -0.4412
  118MOL0     C16190   4.464   1.629  11.801  0.3912 -0.5980  0.5564
  118MOL0    Cl16191   4.291   1.608  11.825  0.2478  0.1118  0.1098
  118MOL0     C16192   3.867   2.045  11.207  0.6134  0.7311  0.0512
  118MOL0     C16193   3.756   2.047  11.124 -0.3566 -0.5480  0.0714
  118MOL0     O16194   3.394   2.112  11.201 -0.6934  0.6991 -0.3534
  118MOL0     C16195   3.365   2.228  10.861 -0.0896  0.0310  0.1177
  118MOL0     C16196   3.274   2.282  10.767  0.4964  0.2822  0.1289
  118MOL0     N16197   2.592   2.597  10.761 -0.1011  0.6479  0.9214
  118MOL0     N16198   2.620   2.671  10.857 -0.8391  0.2827 -0.7151
  118MOL0     C16199   1.889   3.122  10.944 -0.0722 -0.0327 -0.1837
  118MOL0     C16200   1.754   3.063  10.929 -0.8127 -0.2689 -0.3195
  118MOL0     C16201   1.345   2.906  11.045 -0.5517 -0.9447  0.5492
  118MOL0     C16202   1.333   2.794  10.961 -0.0263  0.3398 -0.3647
  118MOL0     C16203   1.212   2.728  10.957  0.0194  0.1568  1.0716
  118MOL0     C16204   1.104   2.760  11.039  0.0251  0.3086  0.1249
  118MOL0     O16205   0.992   2.676  11.055  0.0770 -0.6796  0.8063
  118MOL0     C16206   0.952   2.668  11.191  0.2368  1.3481 -0.6045
  118MOL0     C16207   0.864   2.544  11.218 -0.4011 -0.4389  0.7671
  118MOL0     C16208   0.932   2.403  11.218 -0.1570 -0.1261 -0.4510
  118MOL0     C16209   1.028   2.383  11.338 -0.1796  0.4211  0.9904
  118MOL0     C16210   0.958   2.390  11.475 -1.5361  0.7610 -0.3614
  118MOL0     C16211   0.891   2.395  11.582  0.3006  0.3511  0.2304
  118MOL0     C16212   1.121   2.876  11.115  0.3165 -0.7317  0.3265
  118MOL0     C16213   1.237   2.947  11.120  0.4585 -0.1403 -0.2483
  118MOL0     C16214   1.226   3.072  11.211 -0.7315  0.3673  0.8177
  118MOL0     H16215   1.744   2.841  11.172  0.3718 -1.0820 -1.2942
  118MOL0     H16216   1.971   2.934  11.218 -1.0431  1.0891  1.8486
  118MOL0     H16217   2.203   3.117  10.893 -0.1678 -2.1356 -0.9899
  118MOL0     H16218   2.192   2.973  10.988 -1.3496 -0.0923 -4.5941
  118MOL0     H16219   2.309   3.244  11.052 -1.5964  0.5651  0.6010
  118MOL0     H16220   2.311   3.114  11.174 -1.7015 -1.3004 -0.5136
  118MOL0     H16221   2.425   2.959  10.998  3.4565 -0.7860  0.5051
  118MOL0     H16222   2.455   3.113  10.903  1.0249 -0.2305  0.2536
  118MOL0     H16223   2.595   3.200  11.076 -1.5709  0.0008 -1.0702
  118MOL0     H16224   2.530   3.109  11.195 -0.7323  2.2480 -0.3133
  118MOL0     H16225   2.630   2.901  11.119  1.2513 -2.3752 -2.6811
  118MOL0     H16226   2.749   3.033  11.150 -1.2272  3.6156  0.1671
  118MOL0     H16227   2.649   2.939  10.868  1.5371  0.1429 -1.8059
  118MOL0     H16228   2.728   3.084  10.901  2.1833  0.9051  1.5674
  118MOL0     H16229   2.926   2.958  10.986 -2.1702  3.6307 -0.5778
  118MOL0     H16230   2.885   2.912  10.828 -0.7984 -0.4457  0.0705
  118MOL0     H16231   2.933   2.706  10.960  1.4693  2.2307  1.0297
  118MOL0     H16232   2.793   2.741  11.063 -2.2164  2.0451 -0.4745
  118MOL0     H16233   2.911   2.629  10.720  1.1031 -0.6040  2.6896
  118MOL0     H16234   2.680   2.557  10.465 -1.0820 -1.8412 -1.0671
  118MOL0     H16235   2.606   2.424  10.546 -0.8348  0.9718 -0.5671
  118MOL0     H16236   2.803   2.365  10.419  1.0486  0.8593 -0.3079
  118MOL0     H16237   2.907   2.466  10.523  1.7650 -2.2765 -3.1839
  118MOL0     H16238   2.812   2.324  10.733  1.3359 -3.6189  1.3390
  118MOL0     H16239   2.767   2.207  10.616 -1.6205  1.2914 -0.8191
  118MOL0     H16240   2.999   2.164  10.706 -2.9491 -0.3351  0.7032
  118MOL0     H16241   3.025   2.224  10.545 -2.2549 -4.9524  1.0675
  118MOL0     H16242   3.016   2.339  10.959 -1.2458 -0.8716 -2.4368
  118MOL0     H16243   3.140   2.133  11.202 -0.5156 -0.1418 -0.2612
  118MOL0     H16244   3.058   2.297  11.180 -1.3458 -1.3637 -1.4431
  118MOL0     H16245   3.227   2.282  11.235  0.9627 -1.6141 -0.3642
  118MOL0     H16246   3.578   2.291  11.276 -0.6112  0.1953  0.0805
  118MOL0     H16247   3.781   2.291  11.421  0.7969  0.3831 -0.1517
  118MOL0     H16248   3.972   2.314  11.489 -2.7245 -1.6286 -1.4162
  118MOL0     H16249   3.961   2.161  11.580  0.7875  0.5601  1.5932
  118MOL0     H16250   4.221   2.237  11.427  1.7710  0.2513  0.9902
  118MOL0     H16251   4.205   2.266  11.605  0.0369 -1.6475  0.7988
  118MOL0     H16252   4.193   2.012  11.455 -0.9161  0.8266 -0.1145
  118MOL0     H16253   4.177   2.017  11.629 -2.3758  1.6311 -0.6291
  118MOL0     H16254   4.406   2.113  11.643 -1.7161 -1.6923  0.8935
  118MOL0     H16255   4.410   2.123  11.461  2.0971 -1.0163 -0.3931
  118MOL0     H16256   4.398   1.869  11.465 -0.8369 -0.6517  0.8373
  118MOL0     H16257   4.559   1.946  11.524 -0.1869  3.3011  1.6548
  118MOL0     H16258   4.340   1.858  11.697 -0.0268  0.2284 -0.6816
  118MOL0     H16259   4.496   1.908  11.744 -0.0075 -1.4199  0.3068
  118MOL0     H16260   4.584   1.670  11.636 -0.3733 -3.8729 -0.4984
  118MOL0     H16261   4.420   1.651  11.584  0.8857  0.9159 -0.8703
  118MOL0     H16262   4.521   1.684  11.877  2.9896  1.0975 -2.3686
  118MOL0     H16263   4.505   1.528  11.799 -3.3235 -2.2612  0.3901
  118MOL0     H16264   3.941   1.966  11.202 -1.8963 -1.8240  0.6882
  118MOL0     H16265   3.738   1.979  11.041 -1.4222 -3.1024  2.2439
  118MOL0     H16266   3.467   2.199  10.841  0.8683 -0.3826  4.6219
  118MOL0     H16267   3.303   2.292  10.664  1.9434  1.3248  0.6160
  118MOL0     H16268   1.921   3.210  10.888  0.3389 -0.2574 -0.3072
  118MOL0     H16269   1.688   3.104  10.853  1.4527  0.6568 -1.8827
  118MOL0     H16270   1.418   2.757  10.904  0.9270  0.6710  0.8105
  118MOL0     H16271   1.208   2.645  10.887 -0.9664  1.2658 -0.2446
  118MOL0     H16272   1.040   2.654  11.254 -2.1555 -1.6498  2.4256
  118MOL0     H16273   0.897   2.757  11.222  0.8736  0.6086  3.1076
  118MOL0     H16274   0.786   2.540  11.142  1.0496 -0.8104 -0.7495
  118MOL0     H16275   0.809   2.550  11.313 -1.4978 -2.2120  0.2895
  118MOL0     H16276   0.861   2.320  11.224 -1.0246  0.4804 -1.8238
  118MOL0     H16277   0.985   2.392  11.123  1.3983 -0.3942  0.4164
  118MOL0     H16278   1.115   2.449  11.347  0.0404  0.0192  1.9269
  118MOL0     H16279   1.062   2.280  11.331  2.8932  1.3922 -0.0842
  118MOL0     H16280   0.836   2.393  11.673 -0.3453  3.3880  0.0290
  118MOL0     H16281   1.039   2.917  11.174  0.6566  3.6535 -1.8355
  118MOL0     H16282   1.155   3.059  11.293  0.0097 -1.8654  1.1789
  118MOL0     H16283   1.327   3.084  11.252 -0.0131 -3.9611  0.8017
  118MOL0     H16284   1.213   3.161  11.150  0.9241  0.1065  0.0169
  119MOL0     O16285  10.173   5.813   3.368  0.4655  0.1036 -0.9881
  119MOL0     C16286  10.129   5.807   3.483  0.1106  1.1275 -0.8703
  119MOL0     O16287  10.165   5.889   3.589  0.3175  0.0191 -0.2690
  119MOL0     C16288  10.255   5.991   3.565  0.8357 -1.1117  0.3372
  119MOL0     C16289  10.367   6.001   3.653 -0.1492  0.0372  0.2116
  119MOL0     C16290  10.460   6.101   3.634 -0.4256 -0.1274  1.2914
  119MOL0     C16291  10.441   6.205   3.540  0.4285  0.5305 -0.7281
  119MOL0     O16292  10.532   6.312   3.528 -0.3147  0.4464  0.2277
  119MOL0     C16293  10.480   6.435   3.579 -0.1706 -0.5312  0.4064
  119MOL0     C16294  10.514   6.463   3.725 -0.2504  0.6752 -0.3819
  119MOL0     C16295  10.654   6.417   3.766  0.0347  0.3830  0.6442
  119MOL0     C16296  10.706   6.463   3.902  0.6461 -0.3567 -0.0250
  119MOL0     C16297  10.838   6.400   3.941  0.4109  0.0436  0.4796
  119MOL0     C16298  10.962   6.460   3.866  0.5127  0.1893 -0.0320
  119MOL0     C16299  11.094   6.407   3.924 -0.4600 -0.5318 -0.8365
  119MOL0     C16300  11.202   6.481   3.850 -1.1803  1.1862 -0.6131
  119MOL0     N16301  11.326   6.400   3.859 -1.2229 -1.0088 -0.5609
  119MOL0     C16302  11.400   6.356   3.748 -0.0697  0.0796 -0.2790
  119MOL0     C16303  11.510   6.317   3.813 -0.4333  0.5916 -0.0952
  119MOL0     C16304  11.631   6.266   3.743 -0.4277  0.7022  0.2063
  119MOL0     C16305  11.768   6.316   3.814  0.2028 -0.5337 -0.1922
  119MOL0     C16306  11.784   6.467   3.824  0.4432  0.8073 -0.9771
  119MOL0     C16307  11.907   6.506   3.903  0.2271 -0.3964  0.4913
  119MOL0     O16308  12.033   6.449   3.847  0.2953 -0.2894 -0.0733
  119MOL0     C16309  12.130   6.421   3.934 -0.0119  0.6791 -0.4718
  119MOL0     C16310  12.148   6.462   4.070 -0.4210 -0.2930  0.7556
  119MOL0     C16311  12.261   6.417   4.143  0.3632 -0.7432 -0.0571
  119MOL0     C16312  12.275   6.471   4.283 -0.8793 -0.3402  0.3605
  119MOL0     C16313  12.374   6.341   4.090  0.6961  1.0698  0.7575
  119MOL0     C16314  12.500   6.290   4.159  0.2000 -0.4605 -0.0680
  119MOL0     O16315  12.603   6.238   4.079 -0.8617 -0.7089  0.2426
  119MOL0     C16316  12.699   6.147   4.115  0.5750  0.3058 -0.0995
  119MOL0     C16317  12.829   6.156   4.066  0.1704 -0.5288 -0.0330
  119MOL0     C16318  12.935   6.071   4.110 -0.0823  0.0671  0.3604
  119MOL0     C16319  12.909   5.980   4.209 -0.0409 -0.0022 -0.3475
  119MOL0     O16320  13.007   5.899   4.258  0.5410  0.0387  0.9792
  119MOL0     C16321  13.047   5.932   4.392  0.5093 -0.3425  0.1258
  119MOL0     C16322  13.131   6.064   4.407 -0.0243  0.6136  0.2252
  119MOL0     C16323  13.272   6.040   4.353 -0.0159 -0.3033 -0.0855
  119MOL0     C16324  13.346   6.167   4.378 -0.0046  0.5301  0.2506
  119MOL0     C16325  13.494   6.152   4.327  0.2886 -0.3401 -0.2892
  119MOL0     C16326  13.501   6.104   4.180 -0.1024 -0.1294 -0.9591
  119MOL0     C16327  13.403   6.176   4.081  0.3347 -0.1264 -0.5776
  119MOL0     C16328  13.441   6.127   3.939 -0.7511  0.3884  0.0961
  119MOL0    Cl16329  13.377   5.958   3.929 -0.3358 -0.4094 -0.0845
  119MOL0     C16330  12.785   5.958   4.245 -0.0499  0.6257 -0.1013
  119MOL0     C16331  12.677   6.040   4.200 -0.2726  0.3359 -0.5207
  119MOL0     O16332  12.501   6.297   4.283  0.7060  0.4481 -0.1001
  119MOL0     C16333  12.354   6.312   3.955 -0.7912  1.1212 -0.3999
  119MOL0     C16334  12.238   6.337   3.885 -0.5537  0.0296  0.9353
  119MOL0     N16335  11.507   6.328   3.951  0.0802 -1.4447  0.9944
  119MOL0     N16336  11.392   6.370   3.970 -0.4459 -0.2133 -0.3238
  119MOL0     C16337  10.331   6.200   3.462  0.4746  0.7255  1.2991
  119MOL0     C16338  10.235   6.095   3.464  0.3615 -0.0471  0.0933
  119MOL0     C16339  10.047   5.682   3.528  0.1552  0.4731 -0.1290
  119MOL0     C16340  10.017   5.665   3.664  0.0125 -0.3496 -0.6221
  119MOL0     C16341   9.942   5.560   3.715 -0.1045 -0.6166 -0.3992
  119MOL0     C16342   9.899   5.465   3.629 -0.4531  0.5681 -0.2482
  119MOL0     O16343   9.802   5.372   3.682  0.0848  0.0221  0.5352
  119MOL0     C16344   9.842   5.238   3.654  0.7801 -0.2967  0.0751
  119MOL0     C16345   9.723   5.164   3.708 -0.1696  0.8108 -0.4498
  119MOL0     C16346   9.599   5.170   3.612 -0.4205  0.6937  0.3849
  119MOL0     C16347   9.476   5.097   3.686  0.8806 -0.8163 -0.0331
  119MOL0     C16348   9.494   4.954   3.711  0.1246  0.1965  1.1314
  119MOL0     C16349   9.477   4.838   3.743  0.1061 -0.1282  0.1804
  119MOL0     C16350   9.915   5.480   3.493  0.1593 -0.1813 -0.0873
  119MOL0     C16351   9.982   5.585   3.436  0.3399  0.0436 -0.7982
  119MOL0     C16352   9.993   5.599   3.285 -0.3474  0.1689 -1.1180
  119MOL0     H16353  10.378   5.939   3.742  0.7442  0.6740  0.5613
  119MOL0     H16354  10.542   6.114   3.704 -1.2211  0.9817  2.0547
  119MOL0     H16355  10.378   6.463   3.551  0.6429  2.5674  0.1544
  119MOL0     H16356  10.546   6.507   3.531  3.3040 -2.2602  2.2020
  119MOL0     H16357  10.501   6.568   3.755  0.7276  0.5390  0.6169
  119MOL0     H16358  10.449   6.400   3.786  5.0270 -2.4828  2.7323
  119MOL0     H16359  10.658   6.308   3.773  0.1935  0.4116  1.0758
  119MOL0     H16360  10.723   6.456   3.691 -1.9158  0.8366 -0.9808
  119MOL0     H16361  10.708   6.572   3.909 -3.3108 -0.2028  1.6630
  119MOL0     H16362  10.632   6.435   3.978  0.5418  0.5736  0.2283
  119MOL0     H16363  10.838   6.296   3.909 -3.1134  0.6983 -2.2058
  119MOL0     H16364  10.839   6.401   4.050 -1.9118 -3.0328  0.6232
  119MOL0     H16365  10.958   6.418   3.766 -2.1736 -2.8505  1.1610
  119MOL0     H16366  10.952   6.566   3.891 -0.4448  0.0155  0.3447
  119MOL0     H16367  11.106   6.298   3.915 -0.9034 -0.7098  0.5161
  119MOL0     H16368  11.108   6.432   4.030 -1.9836 -3.5582  0.2180
  119MOL0     H16369  11.183   6.509   3.746  0.1900  2.0437 -0.6523
  119MOL0     H16370  11.222   6.576   3.899 -1.4289  0.3558  1.1597
  119MOL0     H16371  11.363   6.357   3.645 -1.4777 -1.0836  0.1741
  119MOL0     H16372  11.636   6.301   3.640  1.4165 -1.0683 -0.3834
  119MOL0     H16373  11.628   6.156   3.742 -1.9451  0.4981  4.7186
  119MOL0     H16374  11.760   6.285   3.918 -1.8268  0.5964  0.0364
  119MOL0     H16375  11.855   6.284   3.756  0.2361  0.6533 -0.8314
  119MOL0     H16376  11.796   6.520   3.729  0.4682  3.1495  0.2806
  119MOL0     H16377  11.696   6.508   3.874 -0.3306 -1.6149 -0.2025
  119MOL0     H16378  11.916   6.615   3.908 -1.2875 -0.1749 -0.7969
  119MOL0     H16379  11.896   6.451   3.997 -4.7844 -1.5580 -0.4757
  119MOL0     H16380  12.070   6.520   4.118  0.8881  0.0834  2.5113
  119MOL0     H16381  12.179   6.511   4.315  0.1755  2.6055  0.1114
  119MOL0     H16382  12.342   6.557   4.276 -2.1329  0.5653 -1.1685
  119MOL0     H16383  12.312   6.403   4.360 -0.6447  0.4259  0.9326
  119MOL0     H16384  12.845   6.230   3.988 -0.7642 -0.8277 -0.5274
  119MOL0     H16385  13.032   6.064   4.062 -1.4488  0.3229 -2.6628
  119MOL0     H16386  12.961   5.941   4.460  1.1673 -0.6038  1.0122
  119MOL0     H16387  13.111   5.852   4.430  0.9241 -0.3697 -0.6154
  119MOL0     H16388  13.087   6.145   4.348 -4.0999 -1.8020 -0.4381
  119MOL0     H16389  13.129   6.079   4.516 -2.3388 -1.1254  0.5077
  119MOL0     H16390  13.273   6.014   4.247  4.1763  1.1956 -0.5669
  119MOL0     H16391  13.321   5.960   4.410  2.8302  0.3744 -1.4665
  119MOL0     H16392  13.339   6.190   4.485 -0.4946  0.7341  0.1798
  119MOL0     H16393  13.299   6.252   4.328  1.8234  0.2093 -2.1656
  119MOL0     H16394  13.549   6.244   4.349 -0.1413 -0.2031  0.2145
  119MOL0     H16395  13.547   6.064   4.367  3.6719  1.9282  0.6925
  119MOL0     H16396  13.468   6.000   4.187 -0.7295  0.0809 -0.7519
  119MOL0     H16397  13.603   6.113   4.140 -1.0584 -0.8023 -3.7795
  119MOL0     H16398  13.422   6.284   4.081  4.1630 -0.6405  0.0082
  119MOL0     H16399  13.297   6.158   4.101  1.0765 -2.8199  1.4622
  119MOL0     H16400  13.549   6.123   3.922 -0.9708  2.6984 -2.6470
  119MOL0     H16401  13.397   6.188   3.859  1.2228  0.9953 -0.5827
  119MOL0     H16402  12.774   5.866   4.301 -1.6614  1.2982  0.7777
  119MOL0     H16403  12.578   6.007   4.228  0.0675  2.6088  4.3922
  119MOL0     H16404  12.435   6.253   3.913 -0.1501  1.0683  0.8676
  119MOL0     H16405  12.224   6.303   3.783  0.3702  1.8003  0.1759
  119MOL0     H16406  10.314   6.269   3.379 -0.5289 -2.5865 -1.4954
  119MOL0     H16407  10.148   6.090   3.400 -0.8988  1.1144  1.6122
  119MOL0     H16408  10.065   5.732   3.734 -0.0022  1.7579 -2.5094
  119MOL0     H16409   9.949   5.533   3.820  3.7663 -0.5037 -0.4914
  119MOL0     H16410   9.852   5.212   3.549 -2.2424  1.3188 -0.7413
  119MOL0     H16411   9.934   5.216   3.709  0.7410  1.2356  0.8283
  119MOL0     H16412   9.704   5.206   3.807  0.6936  1.2553 -0.4612
  119MOL0     H16413   9.744   5.060   3.733  1.3144  1.6773  2.2898
  119MOL0     H16414   9.574   5.273   3.584  1.0771  1.0109  0.1604
  119MOL0     H16415   9.625   5.115   3.521 -1.6929  0.7452 -0.0295
  119MOL0     H16416   9.382   5.114   3.633  1.5354  1.0009 -0.6980
  119MOL0     H16417   9.472   5.140   3.787  1.2930 -1.4322  0.2533
  119MOL0     H16418   9.472   4.736   3.778 -2.1615 -0.7881 -1.7781
  119MOL0     H16419   9.885   5.405   3.421  0.1808  1.4320 -1.8535
  119MOL0     H16420  10.098   5.579   3.259 -0.1101  0.6369 -0.5444
  119MOL0     H16421   9.933   5.525   3.232 -2.4786  0.8620  0.2205
  119MOL0     H16422   9.958   5.691   3.239 -2.5218  0.0129  0.0737
  120MOL0     O16423   0.546   1.050   9.354  0.1205 -0.2841  0.7516
  120MOL0     C16424   0.583   1.089   9.240  0.1390  0.0834  0.4594
  120MOL0     O16425   0.503   1.082   9.125  0.4151  0.3117  0.8188
  120MOL0     C16426   0.380   1.013   9.113  0.6458 -0.5848 -0.5601
  120MOL0     C16427   0.293   1.054   9.009  0.4334 -0.2441  0.6949
  120MOL0     C16428   0.159   1.016   9.003 -0.6311  0.3365 -0.4795
  120MOL0     C16429   0.103   0.937   9.101 -0.1432 -0.2040 -1.3505
  120MOL0     O16430  -0.030   0.910   9.087  0.4720  0.9581  0.7054
  120MOL0     C16431  -0.090   0.821   9.185  0.0324  0.3470  0.1791
  120MOL0     C16432  -0.234   0.815   9.173 -0.8313 -0.2127 -0.6405
  120MOL0     C16433  -0.277   0.773   9.033  0.0020  0.0227  0.2678
  120MOL0     C16434  -0.422   0.732   9.015  1.1341  1.0762 -0.2367
  120MOL0     C16435  -0.451   0.688   8.876  0.4170  0.2507  0.5973
  120MOL0     C16436  -0.610   0.659   8.853 -1.0069 -0.4131  0.3142
  120MOL0     C16437  -0.633   0.588   8.724  0.5267  0.1481 -0.2920
  120MOL0     C16438  -0.623   0.691   8.606  0.4672  0.8569 -0.5279
  120MOL0     N16439  -0.642   0.626   8.473  0.1476 -0.2511 -0.0404
  120MOL0     C16440  -0.761   0.597   8.411 -0.0640 -0.6521  0.7386
  120MOL0     C16441  -0.730   0.528   8.299  0.6798 -1.0786  0.1521
  120MOL0     C16442  -0.834   0.481   8.194 -0.3324  0.8639 -0.9431
  120MOL0     C16443  -0.762   0.411   8.079 -0.2885 -1.1185  0.6660
  120MOL0     C16444  -0.851   0.386   7.960 -0.3629 -0.2558  0.0290
  120MOL0     C16445  -0.770   0.342   7.834  0.0368  0.0557  0.4939
  120MOL0     O16446  -0.721   0.204   7.846  0.2518 -1.0494 -0.3372
  120MOL0     C16447  -0.588   0.186   7.810 -0.3372  0.8536  0.4471
  120MOL0     C16448  -0.481   0.207   7.895 -0.0030 -1.1319  0.4222
  120MOL0     C16449  -0.351   0.172   7.853  0.0983  0.3410 -0.4356
  120MOL0     C16450  -0.244   0.177   7.967  0.6282 -0.2257  0.1799
  120MOL0     C16451  -0.321   0.137   7.722 -0.5813 -0.4308 -0.0447
  120MOL0     C16452  -0.191   0.098   7.674 -0.1589  0.8210  1.1620
  120MOL0     O16453  -0.177   0.101   7.540  0.0602 -0.1803  0.2026
  120MOL0     C16454  -0.045   0.087   7.506 -0.2021 -0.0405  0.4685
  120MOL0     C16455   0.015   0.190   7.439 -0.0226 -0.3627 -0.1800
  120MOL0     C16456   0.147   0.165   7.395  0.3536  0.2722  0.0579
  120MOL0     C16457   0.210   0.041   7.405  0.0468 -0.7481 -0.1273
  120MOL0     O16458   0.343   0.028   7.364 -0.6585  0.0392  0.6393
  120MOL0     C16459   0.410  -0.097   7.357  1.4077 -0.1134  0.0083
  120MOL0     C16460   0.565  -0.065   7.357  0.1118 -0.0835  0.7144
  120MOL0     C16461   0.645  -0.186   7.384  0.4485 -0.0904 -0.2517
  120MOL0     C16462   0.799  -0.156   7.383  0.0867  0.6024  0.0827
  120MOL0     C16463   0.882  -0.280   7.376 -0.1434 -0.3390  0.0521
  120MOL0     C16464   0.886  -0.365   7.507 -0.3552 -0.6932  0.0685
  120MOL0     C16465   0.978  -0.483   7.490  0.3792 -0.7117 -0.7628
  120MOL0     C16466   0.955  -0.559   7.617  0.6102 -0.5063 -0.0755
  120MOL0    Cl16467   1.073  -0.697   7.641  0.5777 -0.7062  0.3593
  120MOL0     C16468   0.138  -0.059   7.459 -0.6994  1.1509  0.6757
  120MOL0     C16469   0.011  -0.038   7.513  0.6629  0.2374  0.6487
  120MOL0     O16470  -0.109   0.063   7.755 -0.2226 -0.1728  0.0283
  120MOL0     C16471  -0.427   0.141   7.635 -0.8289  0.9607 -0.4052
  120MOL0     C16472  -0.562   0.155   7.676 -0.3667 -0.5200 -0.5916
  120MOL0     N16473  -0.603   0.495   8.303 -0.2256  0.1269  0.2957
  120MOL0     N16474  -0.546   0.554   8.401 -0.5374  0.4260  0.2583
  120MOL0     C16475   0.185   0.898   9.209  0.3770 -0.4840 -0.3709
  120MOL0     C16476   0.320   0.935   9.217  0.2097  0.0280 -0.2147
  120MOL0     C16477   0.704   1.176   9.219  0.5073 -0.4490  0.2432
  120MOL0     C16478   0.759   1.186   9.094  1.1556  0.0394  0.0112
  120MOL0     C16479   0.875   1.249   9.073  0.2290 -0.1995  0.0959
  120MOL0     C16480   0.949   1.309   9.175  0.7985 -0.8347  0.3201
  120MOL0     O16481   1.054   1.379   9.136  0.1867 -0.1954  0.2762
  120MOL0     C16482   1.135   1.464   9.223  0.0582 -0.5400  0.1563
  120MOL0     C16483   1.081   1.606   9.231  0.0213  0.3719 -0.1128
  120MOL0     C16484   1.188   1.708   9.198  0.1115 -0.7270 -0.1409
  120MOL0     C16485   1.131   1.848   9.241 -0.0477  0.1043  0.3150
  120MOL0     C16486   1.205   1.961   9.186 -0.4917  0.7593 -0.1911
  120MOL0     C16487   1.290   2.041   9.148  0.4275  0.1628  0.1220
  120MOL0     C16488   0.891   1.306   9.302 -0.2884  0.2711  0.8600
  120MOL0     C16489   0.765   1.246   9.328  0.1610 -0.0462 -0.0913
  120MOL0     C16490   0.705   1.256   9.468  0.1150 -0.4480  0.4580
  120MOL0     H16491   0.332   1.127   8.938  3.9358 -1.1430  1.5085
  120MOL0     H16492   0.093   1.041   8.921 -1.6811 -1.5389 -0.2687
  120MOL0     H16493  -0.078   0.850   9.290 -2.0350 -1.3762  0.9750
  120MOL0     H16494  -0.063   0.715   9.180 -0.3132  0.2831 -0.4175
  120MOL0     H16495  -0.273   0.750   9.253  1.6706 -2.0215 -0.7831
  120MOL0     H16496  -0.272   0.916   9.188  0.4030 -0.0021  1.3964
  120MOL0     H16497  -0.263   0.864   8.974 -2.2281  1.3056  1.5860
  120MOL0     H16498  -0.216   0.689   8.999  1.1222  0.4205  1.2560
  120MOL0     H16499  -0.441   0.650   9.085  3.9733  0.5569  0.0311
  120MOL0     H16500  -0.491   0.814   9.039 -3.5652 -2.6771  0.5411
  120MOL0     H16501  -0.396   0.598   8.849 -0.6043  0.1003 -1.1098
  120MOL0     H16502  -0.423   0.770   8.810  0.2941  2.1639  2.7774
  120MOL0     H16503  -0.646   0.609   8.944  0.2532 -0.0964  1.0241
  120MOL0     H16504  -0.670   0.750   8.852 -1.4682 -0.7092  0.6175
  120MOL0     H16505  -0.736   0.555   8.738  0.0492  0.7155 -2.1720
  120MOL0     H16506  -0.570   0.499   8.719  1.2991  0.5586  1.3740
  120MOL0     H16507  -0.708   0.760   8.617 -0.6380  0.1488 -3.5245
  120MOL0     H16508  -0.530   0.747   8.602  1.1358 -0.2394 -0.5693
  120MOL0     H16509  -0.860   0.621   8.448 -0.1140  0.2646  0.0464
  120MOL0     H16510  -0.894   0.565   8.157 -1.4849  0.4291 -0.1353
  120MOL0     H16511  -0.905   0.409   8.236 -0.7645  1.8698  0.1314
  120MOL0     H16512  -0.681   0.478   8.047  0.1293 -0.4892  2.9241
  120MOL0     H16513  -0.720   0.314   8.106 -1.6639 -1.6519  0.9698
  120MOL0     H16514  -0.932   0.315   7.978  0.3181 -0.0993  5.0386
  120MOL0     H16515  -0.897   0.479   7.923  1.2604  0.9450  0.9029
  120MOL0     H16516  -0.826   0.363   7.743  1.2258  0.5186 -0.1440
  120MOL0     H16517  -0.687   0.412   7.830  1.0483 -0.9737  2.1503
  120MOL0     H16518  -0.506   0.236   7.996 -1.6976 -0.0388 -0.2595
  120MOL0     H16519  -0.168   0.254   7.949  1.0358  1.9071  7.5777
  120MOL0     H16520  -0.197   0.080   7.988  1.5649  0.0513 -0.5586
  120MOL0     H16521  -0.293   0.210   8.059 -1.5817  2.6104 -1.8838
  120MOL0     H16522  -0.039   0.282   7.421  2.0020  0.5822 -1.9641
  120MOL0     H16523   0.193   0.249   7.344  0.0537 -0.8757 -2.2339
  120MOL0     H16524   0.387  -0.157   7.445 -0.2588 -1.2525 -1.1471
  120MOL0     H16525   0.372  -0.147   7.267 -1.1559  0.6812  0.5776
  120MOL0     H16526   0.592  -0.006   7.269 -1.8263  1.6283  1.2068
  120MOL0     H16527   0.578   0.002   7.442 -0.9705 -0.5310  1.2522
  120MOL0     H16528   0.609  -0.257   7.308  0.8375  0.0061 -0.5263
  120MOL0     H16529   0.615  -0.228   7.480  0.3559 -1.8712 -1.0121
  120MOL0     H16530   0.830  -0.097   7.469  1.2828  1.4561 -0.8980
  120MOL0     H16531   0.824  -0.104   7.290 -1.7612  0.4905 -0.5225
  120MOL0     H16532   0.842  -0.347   7.300  0.3534 -2.6463  1.7300
  120MOL0     H16533   0.985  -0.254   7.350 -0.1669 -2.0037 -1.8493
  120MOL0     H16534   0.792  -0.404   7.546  1.7172 -4.7666  1.6014
  120MOL0     H16535   0.927  -0.297   7.583  1.9206 -1.5787 -0.2839
  120MOL0     H16536   1.080  -0.445   7.484 -0.2373  1.1889  0.1575
  120MOL0     H16537   0.957  -0.546   7.403 -1.7659 -0.5788 -0.4033
  120MOL0     H16538   0.857  -0.607   7.618 -0.4983  1.6199 -0.5576
  120MOL0     H16539   0.964  -0.492   7.704 -1.6481  1.1632 -1.0366
  120MOL0     H16540   0.165  -0.164   7.463 -1.2271  0.9630 -0.3024
  120MOL0     H16541  -0.047  -0.120   7.553 -0.8841  1.2004  0.4426
  120MOL0     H16542  -0.417   0.132   7.527 -0.3988  0.3383 -0.3152
  120MOL0     H16543  -0.646   0.157   7.607 -3.1102 -1.0877  2.4751
  120MOL0     H16544   0.159   0.839   9.296 -2.9703  1.8561  0.3950
  120MOL0     H16545   0.374   0.894   9.302 -1.4993 -0.1214  0.8347
  120MOL0     H16546   0.714   1.135   9.009  1.6287 -2.2963  1.0709
  120MOL0     H16547   0.920   1.252   8.974  0.1546  0.7421  0.0801
  120MOL0     H16548   1.143   1.418   9.322 -0.6860 -4.2150 -1.3037
  120MOL0     H16549   1.231   1.475   9.173 -1.4581  1.1901 -2.6272
  120MOL0     H16550   1.044   1.629   9.332 -2.3159  0.8157 -1.0179
  120MOL0     H16551   1.000   1.608   9.158  0.1562 -2.3146 -0.4244
  120MOL0     H16552   1.280   1.690   9.254 -0.3318 -0.8957  0.5479
  120MOL0     H16553   1.201   1.705   9.090 -0.8252 -2.1606 -0.2449
  120MOL0     H16554   1.129   1.863   9.349  1.2787  0.3671  0.3281
  120MOL0     H16555   1.030   1.860   9.201  0.3522  2.8717 -0.0172
  120MOL0     H16556   1.357   2.118   9.115 -1.6521  1.1838 -2.0103
  120MOL0     H16557   0.942   1.360   9.381 -0.0409 -0.0655  0.9344
  120MOL0     H16558   0.744   1.170   9.524  2.2997 -0.5601 -1.0685
  120MOL0     H16559   0.742   1.342   9.525 -1.8950  1.1712 -0.5430
  120MOL0     H16560   0.597   1.265   9.458 -0.0559 -0.6966  1.8551
  121MOL0     O16561  10.467   1.526   5.079 -0.1897  0.0296 -0.5753
  121MOL0     C16562  10.397   1.424   5.054  0.6656 -0.2459  0.1133
  121MOL0     O16563  10.435   1.320   4.981 -0.1802 -0.0006  0.9773
  121MOL0     C16564  10.557   1.332   4.917 -0.2969  0.0494  0.7113
  121MOL0     C16565  10.570   1.385   4.782  0.4518  0.1764 -0.1728
  121MOL0     C16566  10.700   1.400   4.724  0.4110  0.1181 -0.5238
  121MOL0     C16567  10.814   1.376   4.785 -0.5627 -0.5423 -0.5232
  121MOL0     O16568  10.934   1.388   4.720 -0.5633 -0.5779  1.1635
  121MOL0     C16569  10.994   1.261   4.708  0.1486 -0.1883  0.1501
  121MOL0     C16570  11.141   1.256   4.649 -0.1708  0.1867 -0.4171
  121MOL0     C16571  11.161   1.284   4.500 -0.4734 -0.3736  0.8739
  121MOL0     C16572  11.110   1.412   4.450 -0.2490  0.0608  0.8204
  121MOL0     C16573  11.154   1.441   4.304  0.8657 -0.3375 -0.1542
  121MOL0     C16574  11.100   1.340   4.200  0.1231  0.1792  0.2104
  121MOL0     C16575  11.123   1.391   4.059 -0.1189 -0.3736 -0.4923
  121MOL0     C16576  11.007   1.459   3.991  0.0452  0.4809  1.0639
  121MOL0     N16577  10.888   1.372   3.975  0.1180 -0.9700  0.1559
  121MOL0     C16578  10.863   1.294   3.867  0.2290  0.7980 -0.0419
  121MOL0     C16579  10.745   1.237   3.901 -0.3225  0.6758  0.6366
  121MOL0     C16580  10.671   1.131   3.824 -0.5874 -0.1589  0.3024
  121MOL0     C16581  10.745   0.992   3.833 -0.5258  0.0632  0.1689
  121MOL0     C16582  10.677   0.895   3.739 -0.0753 -0.3329 -0.8847
  121MOL0     C16583  10.742   0.770   3.722 -0.5181  0.3116 -0.0235
  121MOL0     O16584  10.767   0.704   3.841 -0.1236 -0.1602 -0.8385
  121MOL0     C16585  10.683   0.607   3.887 -1.3113  0.3470 -0.7379
  121MOL0     C16586  10.720   0.537   4.002 -0.1332  1.1843 -0.1567
  121MOL0     C16587  10.660   0.417   4.038 -0.6403  0.0790 -0.3018
  121MOL0     C16588  10.720   0.356   4.165 -0.0292 -0.4168  0.4042
  121MOL0     C16589  10.548   0.372   3.974 -0.3385 -0.2266 -0.0309
  121MOL0     C16590  10.467   0.265   4.025  0.2371 -0.1254  0.7350
  121MOL0     O16591  10.425   0.180   3.925  0.0863  0.1960 -0.4587
  121MOL0     C16592  10.323   0.088   3.940 -1.3777  0.0108  0.0973
  121MOL0     C16593  10.223   0.078   4.034  0.3042 -0.8669 -0.5809
  121MOL0     C16594  10.125  -0.028   4.025 -0.9050  0.0613  0.0474
  121MOL0     C16595  10.136  -0.124   3.932 -0.0181  0.5981 -0.3393
  121MOL0     O16596  10.040  -0.218   3.937 -0.4030  0.3886 -0.0752
  121MOL0     C16597   9.982  -0.232   3.812  0.2892 -0.0988  0.3214
  121MOL0     C16598   9.830  -0.266   3.835 -0.4057 -1.0778  0.5596
  121MOL0     C16599   9.756  -0.153   3.898  0.2467 -0.4245 -1.3487
  121MOL0     C16600   9.601  -0.167   3.877 -0.1354  0.3886 -0.6709
  121MOL0     C16601   9.525  -0.047   3.934  0.9284 -0.4372  0.1082
  121MOL0     C16602   9.376  -0.057   3.892  0.0799 -0.5269 -0.3439
  121MOL0     C16603   9.303   0.059   3.968  0.7042  0.9836 -0.2846
  121MOL0     C16604   9.150   0.057   3.937 -0.1474  0.0354 -0.0945
  121MOL0    Cl16605   9.079  -0.078   4.027  0.5431 -0.3250  0.2137
  121MOL0     C16606  10.228  -0.115   3.835 -0.4499 -0.2976  0.5915
  121MOL0     C16607  10.320  -0.006   3.837 -0.0684 -0.1013  0.0197
  121MOL0     O16608  10.433   0.263   4.142  0.1096 -0.3747 -0.2646
  121MOL0     C16609  10.505   0.441   3.854  0.8816 -0.9907  0.0909
  121MOL0     C16610  10.578   0.548   3.814  0.7239  0.4616  0.8810
  121MOL0     N16611  10.694   1.290   4.020  0.0145  0.1872 -0.6716
  121MOL0     N16612  10.777   1.373   4.056 -0.0800  0.7715 -0.3205
  121MOL0     C16613  10.803   1.332   4.920 -0.1144 -0.9311 -0.4044
  121MOL0     C16614  10.678   1.307   4.985 -0.1561 -0.0287  0.0132
  121MOL0     C16615  10.255   1.419   5.099 -0.3334  0.1990  0.6588
  121MOL0     C16616  10.171   1.306   5.056  0.5507 -0.1475 -0.5226
  121MOL0     C16617  10.032   1.303   5.103 -0.7897  0.0033 -0.9799
  121MOL0     C16618   9.982   1.404   5.185  0.0248  0.0293 -0.2273
  121MOL0     O16619   9.860   1.393   5.242 -0.6005 -0.4341  0.5991
  121MOL0     C16620   9.790   1.272   5.236  0.2763 -0.0471 -1.3087
  121MOL0     C16621   9.662   1.270   5.322 -0.1533  0.0407 -0.6518
  121MOL0     C16622   9.535   1.312   5.246  0.5102  0.4605  0.2474
  121MOL0     C16623   9.544   1.450   5.176  0.5579  0.1888  0.0856
  121MOL0     C16624   9.408   1.481   5.131  0.7032  0.3617  0.1335
  121MOL0     C16625   9.300   1.524   5.099  0.4426  0.2181 -0.8604
  121MOL0     C16626  10.065   1.512   5.216 -1.0161 -0.3403 -0.4860
  121MOL0     C16627  10.200   1.518   5.180  0.0157  0.6542 -0.2758
  121MOL0     C16628  10.270   1.642   5.231  0.3130  0.4842 -0.1411
  121MOL0     H16629  10.490   1.426   4.721 -0.3474  3.6899  2.8627
  121MOL0     H16630  10.710   1.438   4.623 -3.1978 -2.1696 -1.9464
  121MOL0     H16631  10.931   1.215   4.631 -2.0141 -0.9605  2.2353
  121MOL0     H16632  10.984   1.207   4.803 -2.2470  0.3282  0.2544
  121MOL0     H16633  11.209   1.319   4.706  1.5332 -1.9679  0.1021
  121MOL0     H16634  11.183   1.158   4.674  2.8198  1.6838  0.9442
  121MOL0     H16635  11.267   1.272   4.476 -0.3493  1.1800  0.5554
  121MOL0     H16636  11.104   1.206   4.449  0.6995 -2.4636  2.5930
  121MOL0     H16637  11.001   1.418   4.451 -0.3487 -1.1030 -0.3622
  121MOL0     H16638  11.151   1.481   4.525 -0.2680  0.3222  0.5907
  121MOL0     H16639  11.263   1.447   4.295  0.8459  0.7740  0.2648
  121MOL0     H16640  11.119   1.539   4.273 -2.6743 -0.4134  2.9265
  121MOL0     H16641  11.148   1.243   4.217 -0.2172  0.4048  2.9067
  121MOL0     H16642  10.993   1.340   4.222  0.3256  1.6673  1.3701
  121MOL0     H16643  11.163   1.306   4.003  0.1758 -1.0237  0.6800
  121MOL0     H16644  11.204   1.465   4.061 -0.3756 -0.0858 -0.6501
  121MOL0     H16645  10.981   1.558   4.028 -1.8833  0.9325 -1.2580
  121MOL0     H16646  11.038   1.493   3.893 -1.7638  0.7280  0.5321
  121MOL0     H16647  10.928   1.272   3.783  1.6978 -0.7375  1.4347
  121MOL0     H16648  10.659   1.162   3.720 -1.5176 -2.6162 -0.4100
  121MOL0     H16649  10.566   1.123   3.854 -0.8025 -2.5825 -0.8308
  121MOL0     H16650  10.851   1.007   3.813 -0.3260 -0.2466  0.9614
  121MOL0     H16651  10.731   0.949   3.932  0.1045 -3.2831 -1.0676
  121MOL0     H16652  10.571   0.891   3.768  0.3517  2.8498  1.7466
  121MOL0     H16653  10.670   0.929   3.635 -4.2559 -1.1983 -1.0693
  121MOL0     H16654  10.682   0.705   3.657 -2.0477 -0.3504  1.9435
  121MOL0     H16655  10.837   0.795   3.674  1.1338 -1.0191  2.3638
  121MOL0     H16656  10.796   0.577   4.069  1.2686 -3.0694  1.1072
  121MOL0     H16657  10.700   0.250   4.182  1.2995 -0.7913 -0.2420
  121MOL0     H16658  10.688   0.413   4.253  2.3977  3.1001 -0.7863
  121MOL0     H16659  10.829   0.360   4.156 -0.1089  0.2010 -0.4209
  121MOL0     H16660  10.213   0.139   4.123 -0.3574 -1.5577 -0.1707
  121MOL0     H16661  10.048  -0.038   4.100  0.7563 -1.5142  1.6654
  121MOL0     H16662   9.984  -0.147   3.743 -0.0177 -0.7605 -0.5298
  121MOL0     H16663  10.024  -0.318   3.757 -1.4433 -0.7447 -0.0456
  121MOL0     H16664   9.788  -0.287   3.736 -0.8498 -2.1886  0.9762
  121MOL0     H16665   9.823  -0.354   3.899 -2.2135 -1.2259  0.2228
  121MOL0     H16666   9.795  -0.054   3.873  4.9571 -1.8352 -0.5285
  121MOL0     H16667   9.785  -0.165   4.003  1.6601  1.0337 -1.5336
  121MOL0     H16668   9.561  -0.258   3.924  0.8445  0.4095  0.2349
  121MOL0     H16669   9.589  -0.163   3.769 -1.9451  1.5179 -0.4708
  121MOL0     H16670   9.527  -0.050   4.044 -2.9836 -0.2546  0.3514
  121MOL0     H16671   9.567   0.050   3.907  0.0044  1.2612  3.9732
  121MOL0     H16672   9.344  -0.150   3.938  0.6869 -0.9178 -0.7051
  121MOL0     H16673   9.353  -0.050   3.785 -3.8970  1.1380  0.4146
  121MOL0     H16674   9.355   0.143   3.922  0.8512  0.6748 -0.6962
  121MOL0     H16675   9.313   0.060   4.077 -4.7377 -1.2941  0.6285
  121MOL0     H16676   9.137   0.037   3.830 -0.7322  0.1426 -0.0477
  121MOL0     H16677   9.112   0.155   3.968  1.8856  0.1760  2.2750
  121MOL0     H16678  10.250  -0.189   3.758  1.0523  1.0158 -0.3035
  121MOL0     H16679  10.395  -0.004   3.758 -0.9776  3.2915 -0.9305
  121MOL0     H16680  10.424   0.416   3.786 -1.2193  0.2573  1.9647
  121MOL0     H16681  10.536   0.598   3.728  0.6657  4.3387  2.9157
  121MOL0     H16682  10.891   1.323   4.984 -0.8203 -0.5837  0.6407
  121MOL0     H16683  10.666   1.287   5.092  0.9193 -1.3316 -0.0839
  121MOL0     H16684  10.229   1.229   5.008  0.6074 -0.7982  0.5685
  121MOL0     H16685   9.968   1.219   5.079 -1.7194 -0.4740  2.5854
  121MOL0     H16686   9.757   1.230   5.141 -0.6771 -4.9718  0.8584
  121MOL0     H16687   9.850   1.193   5.283 -3.2900 -0.5709  3.1483
  121MOL0     H16688   9.673   1.334   5.410  0.4463  3.2119 -2.8677
  121MOL0     H16689   9.641   1.172   5.366 -2.2614 -0.3157 -2.2739
  121MOL0     H16690   9.510   1.237   5.170 -0.9577 -0.5954  1.6979
  121MOL0     H16691   9.443   1.314   5.305 -0.1595  0.8241 -0.7622
  121MOL0     H16692   9.598   1.438   5.082  0.9732  0.9328  0.2233
  121MOL0     H16693   9.593   1.528   5.235  0.4136  1.6284 -1.6209
  121MOL0     H16694   9.209   1.573   5.068 -1.0874 -1.9563 -0.0265
  121MOL0     H16695  10.032   1.589   5.285  2.9072  0.6229  0.5473
  121MOL0     H16696  10.317   1.698   5.150  2.5785 -0.6498  0.3061
  121MOL0     H16697  10.193   1.705   5.276 -0.4388  0.4775 -1.3977
  121MOL0     H16698  10.355   1.622   5.298  1.4804 -1.2597 -2.0067
  122MOL0     O16699   2.416  10.476   8.466 -0.1438  0.2816  0.0111
  122MOL0     C16700   2.379  10.526   8.360 -0.8923 -0.1973  0.1845
  122MOL0     O16701   2.357  10.658   8.339 -0.5045  0.4216 -0.7771
  122MOL0     C16702   2.386  10.760   8.427  0.2879  0.7084 -0.4065
  122MOL0     C16703   2.416  10.888   8.384  0.2637  0.5224 -0.2345
  122MOL0     C16704   2.456  10.990   8.477 -0.2125  0.5334  0.2536
  122MOL0     C16705   2.461  10.962   8.615 -0.4557 -1.2325 -0.2310
  122MOL0     O16706   2.491  11.055   8.709  0.2220  0.3451  0.0542
  122MOL0     C16707   2.528  11.189   8.684  0.6941 -0.6389  0.0769
  122MOL0     C16708   2.510  11.284   8.804 -0.2908 -0.4302 -0.5682
  122MOL0     C16709   2.584  11.220   8.930 -0.1554 -0.0703 -0.0066
  122MOL0     C16710   2.589  11.306   9.052  0.1379 -0.3559  0.3733
  122MOL0     C16711   2.682  11.251   9.157 -0.0693  0.7903 -0.8023
  122MOL0     C16712   2.671  11.330   9.287  0.1845  0.2129  0.1371
  122MOL0     C16713   2.800  11.316   9.375  1.1147 -0.4265  0.7043
  122MOL0     C16714   2.903  11.421   9.327 -0.5439  0.7769  0.0436
  122MOL0     N16715   2.890  11.550   9.391  0.6795  0.1248  0.1062
  122MOL0     C16716   2.989  11.626   9.464 -0.5448  0.9666 -0.5286
  122MOL0     C16717   2.930  11.743   9.482  0.1941  0.7591  0.4356
  122MOL0     C16718   2.989  11.879   9.543 -1.1639  0.5239 -0.4230
  122MOL0     C16719   2.937  11.885   9.691  0.1789 -0.2392 -0.6147
  122MOL0     C16720   2.957  12.014   9.762 -0.8051 -0.6887 -0.0780
  122MOL0     C16721   3.099  12.066   9.788 -0.4085 -0.1445  0.2280
  122MOL0     O16722   3.178  11.961   9.833 -0.5836  0.2816 -1.0055
  122MOL0     C16723   3.291  11.980   9.902 -0.9031  1.2084  0.1141
  122MOL0     C16724   3.346  12.097   9.946 -0.1462 -0.1507  0.0701
  122MOL0     C16725   3.469  12.103  10.014  0.0550  0.2703  1.0484
  122MOL0     C16726   3.506  12.243  10.062  0.5586 -0.3593  0.8709
  122MOL0     C16727   3.546  11.980  10.035 -0.1620 -0.7110 -0.2770
  122MOL0     C16728   3.666  11.976  10.120 -0.3736 -0.1096 -0.3897
  122MOL0     O16729   3.707  11.849  10.158  0.1227  0.6963  0.3159
  122MOL0     C16730   3.805  11.833  10.257  0.5207  0.9429  0.1035
  122MOL0     C16731   3.920  11.778  10.227  0.4784  0.1572  0.7406
  122MOL0     C16732   4.028  11.766  10.310  0.8164 -0.1636 -0.2383
  122MOL0     C16733   4.010  11.801  10.449  0.2965  0.4274  1.2551
  122MOL0     O16734   4.122  11.791  10.535 -0.4340  0.2350  0.3566
  122MOL0     C16735   4.174  11.915  10.581 -0.0929  0.1312  0.0795
  122MOL0     C16736   4.321  11.885  10.599  0.2590 -0.0157 -0.1664
  122MOL0     C16737   4.393  12.014  10.645  0.8467  0.0442  0.3786
  122MOL0     C16738   4.534  11.984  10.687  0.5718  0.7188 -0.1935
  122MOL0     C16739   4.622  12.105  10.645 -0.1572 -0.4670 -0.3245
  122MOL0     C16740   4.768  12.060  10.642 -0.1643 -0.5613 -1.2110
  122MOL0     C16741   4.836  12.053  10.787  0.3030  0.9376 -0.2228
  122MOL0     C16742   4.975  12.002  10.762  0.1728 -0.0399 -0.4408
  122MOL0    Cl16743   5.033  11.955  10.914 -1.0248 -0.3362  0.2280
  122MOL0     C16744   3.893  11.866  10.484  0.6355 -0.5468 -0.2080
  122MOL0     C16745   3.792  11.882  10.390 -0.0909  0.2008 -0.0505
  122MOL0     O16746   3.725  12.080  10.149 -0.2799  0.5810  0.2947
  122MOL0     C16747   3.480  11.868   9.994 -0.3493  0.4600  0.1370
  122MOL0     C16748   3.359  11.865   9.924 -0.6141  0.7406 -0.2839
  122MOL0     N16749   2.799  11.740   9.445  0.0032  0.3297  0.1422
  122MOL0     N16750   2.776  11.630   9.390 -0.5489 -0.7745  0.6690
  122MOL0     C16751   2.436  10.840   8.659 -0.4995  1.0218 -0.3162
  122MOL0     C16752   2.391  10.737   8.565  0.3106  0.1736  0.5679
  122MOL0     C16753   2.407  10.445   8.244  0.4619  0.2822 -0.7537
  122MOL0     C16754   2.429  10.302   8.267  0.2980  0.2212 -0.1714
  122MOL0     C16755   2.474  10.228   8.156 -0.1350  0.7865  0.3693
  122MOL0     C16756   2.485  10.272   8.031 -0.7758 -0.2526  0.0295
  122MOL0     O16757   2.540  10.190   7.933 -0.0406 -0.6438  0.6357
  122MOL0     C16758   2.609  10.231   7.818  0.2392 -0.0854 -0.4769
  122MOL0     C16759   2.689  10.121   7.758  0.5596 -0.9814  0.2071
  122MOL0     C16760   2.746  10.162   7.625  0.6259  0.2364  0.5566
  122MOL0     C16761   2.793  10.033   7.550  1.1883  0.6157  0.0134
  122MOL0     C16762   2.849  10.053   7.412 -0.2372  0.3283  0.4870
  122MOL0     C16763   2.905  10.076   7.300  0.6194  0.1988 -0.2955
  122MOL0     C16764   2.455  10.412   8.005 -0.8078 -0.2285  0.2483
  122MOL0     C16765   2.422  10.500   8.104  0.0273  0.6524 -0.5681
  122MOL0     C16766   2.429  10.653   8.066 -0.8709 -0.0761  0.0572
  122MOL0     H16767   2.403  10.902   8.277 -2.4484  0.8873  0.0647
  122MOL0     H16768   2.465  11.085   8.425 -1.2258 -0.1846 -1.3014
  122MOL0     H16769   2.467  11.228   8.602  1.0623  0.5438  0.3504
  122MOL0     H16770   2.631  11.191   8.646  0.1320 -2.8302 -1.8395
  122MOL0     H16771   2.543  11.388   8.795 -1.1039 -0.1373 -0.2315
  122MOL0     H16772   2.405  11.289   8.835 -0.2798 -0.5465 -0.5123
  122MOL0     H16773   2.530  11.130   8.960  2.2451 -1.3895  0.6336
  122MOL0     H16774   2.687  11.194   8.903 -0.5870 -1.8307 -0.0417
  122MOL0     H16775   2.626  11.404   9.022 -1.1631  1.5479  4.2935
  122MOL0     H16776   2.487  11.318   9.090 -0.5074 -0.4631 -1.2560
  122MOL0     H16777   2.782  11.244   9.112 -0.0936 -0.8883 -0.6342
  122MOL0     H16778   2.649  11.148   9.172 -1.4299  1.3831  0.4649
  122MOL0     H16779   2.652  11.437   9.279  0.6656  0.6655  3.5121
  122MOL0     H16780   2.583  11.301   9.345  0.3195 -1.7719 -0.5676
  122MOL0     H16781   2.834  11.211   9.374 -1.4201 -1.3203  1.3365
  122MOL0     H16782   2.765  11.340   9.475 -1.6308 -2.2922  0.2984
  122MOL0     H16783   2.997  11.369   9.346 -0.3388  2.1754  3.4374
  122MOL0     H16784   2.887  11.425   9.219 -2.4639 -3.4242 -0.0469
  122MOL0     H16785   3.089  11.596   9.491 -1.3537  0.0900  1.6872
  122MOL0     H16786   2.946  11.966   9.491 -2.5470 -0.4424 -0.9695
  122MOL0     H16787   3.098  11.886   9.539 -0.8472 -1.4926  2.1279
  122MOL0     H16788   2.831  11.862   9.701 -0.0039  0.1897 -1.4823
  122MOL0     H16789   2.976  11.795   9.740 -2.9006 -0.3636  1.9190
  122MOL0     H16790   2.899  12.094   9.715 -1.6307 -2.1246 -1.5925
  122MOL0     H16791   2.909  12.006   9.859  1.8508  2.5376  1.7401
  122MOL0     H16792   3.149  12.109   9.701  1.0011 -1.7088  0.2025
  122MOL0     H16793   3.108  12.147   9.861 -2.2891 -0.4392  0.8389
  122MOL0     H16794   3.300  12.190   9.916  2.1624  1.3607  0.9443
  122MOL0     H16795   3.468  12.317   9.991  0.2139 -2.1429 -0.8991
  122MOL0     H16796   3.610  12.276  10.052  0.4536 -0.5170 -1.2520
  122MOL0     H16797   3.460  12.272  10.157 -1.3605  2.7569 -0.8179
  122MOL0     H16798   3.938  11.736  10.129  0.8168 -0.3974  1.0390
  122MOL0     H16799   4.127  11.730  10.283  2.5736  2.1252  2.4987
  122MOL0     H16800   4.160  11.995  10.506 -1.4479 -1.0114 -0.9428
  122MOL0     H16801   4.127  11.963  10.667  1.2472  5.1675 -1.6240
  122MOL0     H16802   4.326  11.806  10.673  1.1782  0.4112  0.2421
  122MOL0     H16803   4.352  11.848  10.501  0.5854 -3.2333  1.0379
  122MOL0     H16804   4.340  12.064  10.726 -2.5641  0.2664 -1.8107
  122MOL0     H16805   4.394  12.089  10.566  0.8544 -1.0086 -0.6535
  122MOL0     H16806   4.559  11.889  10.641  2.4988  1.2819 -0.3769
  122MOL0     H16807   4.542  11.966  10.795 -1.1729 -2.8458 -0.5221
  122MOL0     H16808   4.608  12.135  10.540  1.1287 -2.0666 -1.0084
  122MOL0     H16809   4.607  12.198  10.700 -2.5015  0.1213 -1.7907
  122MOL0     H16810   4.825  12.135  10.586  0.2668  0.0962  0.0725
  122MOL0     H16811   4.788  11.966  10.591 -1.5346 -1.4068 -0.2315
  122MOL0     H16812   4.777  11.984  10.848  1.7181  0.0829  0.2120
  122MOL0     H16813   4.834  12.149  10.840 -0.8972 -1.1240  3.8525
  122MOL0     H16814   5.028  12.090  10.724 -0.5119  0.5630 -0.0270
  122MOL0     H16815   4.970  11.917  10.693 -1.3577 -0.7359  0.4689
  122MOL0     H16816   3.874  11.888  10.588 -0.8487 -0.7340 -0.4165
  122MOL0     H16817   3.709  11.943  10.422 -0.9804 -1.7334  1.5420
  122MOL0     H16818   3.532  11.773   9.998 -0.7282  0.2158 -0.6036
  122MOL0     H16819   3.334  11.766   9.886 -1.4351  0.7616  0.1871
  122MOL0     H16820   2.429  10.817   8.765  1.5418  0.1304 -0.3256
  122MOL0     H16821   2.364  10.641   8.608  1.5061 -0.4651 -0.0772
  122MOL0     H16822   2.414  10.256   8.364 -1.1705 -0.2870 -0.6131
  122MOL0     H16823   2.491  10.121   8.153 -0.6138  0.7316 -2.0784
  122MOL0     H16824   2.529  10.264   7.752 -1.9381 -0.7045  1.6983
  122MOL0     H16825   2.675  10.313   7.846  1.9229 -1.6074  0.2307
  122MOL0     H16826   2.619  10.038   7.746  0.3992 -0.7255 -0.6999
  122MOL0     H16827   2.773  10.094   7.822 -0.9733 -1.3647  2.1333
  122MOL0     H16828   2.658  10.206   7.578 -0.7893 -1.5057  1.4562
  122MOL0     H16829   2.824  10.239   7.633  0.5616  0.3147  0.4222
  122MOL0     H16830   2.707   9.968   7.534 -0.1738  2.7410 -2.0121
  122MOL0     H16831   2.870   9.991   7.615  2.6482  0.4168 -1.7531
  122MOL0     H16832   2.940  10.103   7.203  0.3066  0.2075 -0.4072
  122MOL0     H16833   2.454  10.456   7.906  1.4193  0.9615  0.6751
  122MOL0     H16834   2.479  10.706   8.147  3.2718 -0.6775 -1.8544
  122MOL0     H16835   2.487  10.673   7.975  1.8833  0.8096  1.8852
  122MOL0     H16836   2.326  10.690   8.067 -0.4937  1.1074  2.4623
  123MOL0     O16837   2.599   8.618   5.696 -0.0951 -0.4668  0.1318
  123MOL0     C16838   2.543   8.648   5.585 -0.1657  0.6490  0.0264
  123MOL0     O16839   2.600   8.656   5.462  0.1369 -0.0041  0.3062
  123MOL0     C16840   2.737   8.646   5.456  0.1810  0.1197  0.1779
  123MOL0     C16841   2.788   8.590   5.342 -0.5607  0.5896  0.5521
  123MOL0     C16842   2.928   8.580   5.317 -1.1872  0.3350  0.7488
  123MOL0     C16843   3.018   8.624   5.414  0.0502  0.2031  1.1869
  123MOL0     O16844   3.150   8.606   5.384 -0.7056  0.0926  0.2277
  123MOL0     C16845   3.261   8.689   5.447  0.5792 -0.1866  0.3616
  123MOL0     C16846   3.396   8.672   5.372  0.4448 -0.2064 -0.0050
  123MOL0     C16847   3.490   8.789   5.419 -0.1744  0.2237  0.5539
  123MOL0     C16848   3.620   8.773   5.332 -0.1570 -0.7560  0.0687
  123MOL0     C16849   3.721   8.879   5.380  0.5446  0.2967 -0.2829
  123MOL0     C16850   3.861   8.862   5.326 -0.4453  0.1623 -0.0557
  123MOL0     C16851   3.966   8.954   5.393 -0.2254 -0.5105  0.1897
  123MOL0     C16852   4.094   8.939   5.315 -0.0478  0.7144  0.7596
  123MOL0     N16853   4.199   9.005   5.398 -0.6947 -0.5964  0.6879
  123MOL0     C16854   4.287   8.937   5.482 -0.2765 -0.8471  0.3226
  123MOL0     C16855   4.358   9.033   5.546 -0.2194  0.0530  0.1046
  123MOL0     C16856   4.438   9.015   5.666 -0.3280 -0.1973  0.3636
  123MOL0     C16857   4.582   9.063   5.650  0.2990  0.4674  0.7233
  123MOL0     C16858   4.679   9.068   5.767 -0.3014  0.1584  0.6075
  123MOL0     C16859   4.819   9.096   5.710 -0.0439 -0.5791 -0.1100
  123MOL0     O16860   4.914   9.075   5.818  0.3324 -0.8123  0.2945
  123MOL0     C16861   5.045   9.115   5.789  0.9634  0.4144 -0.2012
  123MOL0     C16862   5.100   9.120   5.662  0.9435 -0.5934  0.3920
  123MOL0     C16863   5.234   9.156   5.645 -0.0085 -0.1894  0.0361
  123MOL0     C16864   5.288   9.134   5.503 -0.4335 -0.1888  0.0313
  123MOL0     C16865   5.319   9.201   5.754  0.9400 -1.7302 -0.9543
  123MOL0     C16866   5.456   9.260   5.747 -0.8187  0.3951 -0.4142
  123MOL0     O16867   5.514   9.261   5.627 -0.1774  0.2767 -0.0151
  123MOL0     C16868   5.617   9.351   5.614  0.0593 -0.3644 -1.6640
  123MOL0     C16869   5.598   9.478   5.578 -0.5480  0.2092 -0.7328
  123MOL0     C16870   5.702   9.571   5.560  0.1048  0.0784 -0.0472
  123MOL0     C16871   5.836   9.545   5.594 -0.4607  0.2802 -0.3552
  123MOL0     O16872   5.939   9.628   5.564  0.2516 -0.3877  0.4124
  123MOL0     C16873   6.077   9.581   5.554 -0.8117 -0.5815 -0.7917
  123MOL0     C16874   6.152   9.678   5.471 -0.0321  0.7681  0.6242
  123MOL0     C16875   6.086   9.686   5.323 -0.1925 -1.0158 -0.7673
  123MOL0     C16876   6.151   9.793   5.231 -0.0213  0.2686  0.3569
  123MOL0     C16877   6.112   9.772   5.081 -0.3008  0.9958  0.0248
  123MOL0     C16878   5.990   9.687   5.042  0.4018  0.9668 -0.7029
  123MOL0     C16879   5.929   9.715   4.907 -0.0359  0.3787 -0.0934
  123MOL0     C16880   5.811   9.638   4.879  0.8385 -0.6318 -0.2414
  123MOL0    Cl16881   5.853   9.464   4.868 -0.1683 -0.0219  0.2329
  123MOL0     C16882   5.863   9.404   5.633  0.6666 -0.0237 -0.0333
  123MOL0     C16883   5.757   9.315   5.650  1.0767 -0.2246 -0.6980
  123MOL0     O16884   5.504   9.296   5.849  0.6456 -0.3642 -0.1273
  123MOL0     C16885   5.253   9.205   5.880  0.5317 -0.3937 -0.0324
  123MOL0     C16886   5.124   9.152   5.895  0.0726  1.1198 -0.3436
  123MOL0     N16887   4.317   9.152   5.478  0.2271 -0.6174 -0.3650
  123MOL0     N16888   4.229   9.134   5.395 -0.0940  0.1156  0.3288
  123MOL0     C16889   2.976   8.682   5.528  0.3317  0.5451  1.4328
  123MOL0     C16890   2.839   8.701   5.545 -0.4931  0.2638 -0.4308
  123MOL0     C16891   2.398   8.674   5.593 -0.8830  0.4297  0.8802
  123MOL0     C16892   2.357   8.795   5.535 -0.8769 -0.2985 -0.2653
  123MOL0     C16893   2.233   8.844   5.547 -0.1943  0.1879  0.4618
  123MOL0     C16894   2.133   8.761   5.597 -0.2911  0.9324  0.5248
  123MOL0     O16895   2.004   8.798   5.617 -0.4351  0.2422  0.2413
  123MOL0     C16896   1.910   8.717   5.543  0.2786 -0.5775 -0.2416
  123MOL0     C16897   1.764   8.749   5.584 -0.8208  0.3218  0.6035
  123MOL0     C16898   1.647   8.665   5.518 -0.4070  0.1543 -0.3491
  123MOL0     C16899   1.522   8.709   5.580  0.6506  0.1562  0.0882
  123MOL0     C16900   1.397   8.664   5.521 -0.0553  1.0228 -0.7765
  123MOL0     C16901   1.288   8.624   5.485 -0.1596 -0.6306 -0.5409
  123MOL0     C16902   2.173   8.636   5.649 -0.1434  1.7731  0.4862
  123MOL0     C16903   2.304   8.589   5.648 -0.3600  0.5294 -0.5720
  123MOL0     C16904   2.336   8.460   5.722  0.3682  0.4049  0.8121
  123MOL0     H16905   2.730   8.535   5.268  2.1532 -0.4882 -0.9419
  123MOL0     H16906   2.953   8.534   5.222  0.7174 -0.1538  1.4319
  123MOL0     H16907   3.286   8.665   5.551 -2.3956 -0.0771  1.2028
  123MOL0     H16908   3.236   8.795   5.438  0.7898 -0.0237  1.5571
  123MOL0     H16909   3.445   8.576   5.389  2.0168  0.6358  0.4213
  123MOL0     H16910   3.380   8.684   5.264  0.5187 -0.0690 -0.0004
  123MOL0     H16911   3.446   8.888   5.410  2.5666  1.3494 -2.0640
  123MOL0     H16912   3.518   8.776   5.524 -0.2965  0.3528  0.6029
  123MOL0     H16913   3.661   8.671   5.332  2.4666  0.2128 -0.1743
  123MOL0     H16914   3.603   8.788   5.225 -1.3665  0.2850  0.3901
  123MOL0     H16915   3.719   8.889   5.489  0.1329  1.1230 -0.3601
  123MOL0     H16916   3.682   8.977   5.353 -0.4572 -0.9628 -4.0894
  123MOL0     H16917   3.883   8.756   5.342  0.6752  0.2643 -0.8292
  123MOL0     H16918   3.863   8.881   5.218  1.2822 -0.7386 -0.2195
  123MOL0     H16919   3.967   8.909   5.492 -1.8647 -3.3226 -0.9513
  123MOL0     H16920   3.931   9.058   5.390  1.4001  0.0427 -0.4145
  123MOL0     H16921   4.112   8.832   5.307  2.4077  1.0471  1.1975
  123MOL0     H16922   4.090   8.973   5.211 -1.2759  1.6850  1.0940
  123MOL0     H16923   4.294   8.829   5.496 -1.6074 -1.5204 -3.1304
  123MOL0     H16924   4.431   8.909   5.692  0.9343 -0.4610 -0.3062
  123MOL0     H16925   4.393   9.066   5.751 -0.1929  1.1106 -0.3262
  123MOL0     H16926   4.632   9.010   5.568 -0.4595  1.7500 -0.6066
  123MOL0     H16927   4.570   9.166   5.614  2.6230  1.0041  1.2546
  123MOL0     H16928   4.644   9.148   5.832 -1.8163  0.4914 -0.5582
  123MOL0     H16929   4.679   8.974   5.823 -0.6703 -1.1857 -1.5279
  123MOL0     H16930   4.834   9.034   5.621  0.9140  1.7309 -1.6590
  123MOL0     H16931   4.814   9.200   5.676  0.2814  0.2993  2.3623
  123MOL0     H16932   5.042   9.084   5.577 -0.2257  3.6490 -0.8416
  123MOL0     H16933   5.219   9.069   5.449  0.8076 -2.1910  0.7579
  123MOL0     H16934   5.382   9.078   5.500 -0.8503 -0.8727 -0.4012
  123MOL0     H16935   5.291   9.228   5.447 -0.8715 -1.6475 -2.5736
  123MOL0     H16936   5.496   9.515   5.565 -0.2052  2.2183  1.6210
  123MOL0     H16937   5.683   9.672   5.527  0.0017  0.9774  2.5450
  123MOL0     H16938   6.122   9.557   5.651 -0.4749  1.0984 -0.5152
  123MOL0     H16939   6.078   9.485   5.501 -0.4689 -0.3457 -1.2160
  123MOL0     H16940   6.136   9.774   5.520 -0.5250  1.3335 -0.5840
  123MOL0     H16941   6.257   9.645   5.466 -0.2426  0.2086 -1.4321
  123MOL0     H16942   5.981   9.715   5.333  0.4865  1.0169  1.3835
  123MOL0     H16943   6.096   9.588   5.274 -1.3380 -0.9655 -1.1246
  123MOL0     H16944   6.260   9.796   5.232  0.0712  0.5119 -2.6678
  123MOL0     H16945   6.106   9.887   5.263 -3.0191 -1.7501  2.6772
  123MOL0     H16946   6.102   9.869   5.031 -0.2849  1.2460  0.5099
  123MOL0     H16947   6.197   9.737   5.020 -0.5463  0.8713 -0.2509
  123MOL0     H16948   5.910   9.699   5.116 -0.2055 -3.2553 -0.3989
  123MOL0     H16949   6.028   9.585   5.032  1.3156  1.2029  0.1909
  123MOL0     H16950   6.012   9.695   4.839 -0.7027  1.7170 -1.3643
  123MOL0     H16951   5.903   9.821   4.898  1.0280  0.5573 -1.5164
  123MOL0     H16952   5.771   9.667   4.781 -2.4784 -0.7219  0.9516
  123MOL0     H16953   5.739   9.663   4.957 -2.7091  0.4621 -3.5364
  123MOL0     H16954   5.958   9.360   5.663 -0.5340 -1.0655  2.5270
  123MOL0     H16955   5.779   9.212   5.672 -0.2472 -0.2315  0.7703
  123MOL0     H16956   5.300   9.237   5.972  2.5486 -1.3531 -0.6865
  123MOL0     H16957   5.067   9.151   5.987  0.2264 -0.3048 -0.2446
  123MOL0     H16958   3.047   8.729   5.595  3.3988  0.4089 -1.4621
  123MOL0     H16959   2.814   8.767   5.627  2.3380  0.4565  0.3666
  123MOL0     H16960   2.438   8.859   5.503 -0.0560  0.3357  2.8441
  123MOL0     H16961   2.199   8.946   5.534 -1.3328 -0.1227  0.8844
  123MOL0     H16962   1.938   8.738   5.440  1.8684 -1.6717 -0.0691
  123MOL0     H16963   1.920   8.609   5.561  2.5542 -0.2775  0.5883
  123MOL0     H16964   1.755   8.857   5.567  2.1259  0.5951  0.1992
  123MOL0     H16965   1.749   8.749   5.693 -1.3668  2.0730  0.5673
  123MOL0     H16966   1.653   8.692   5.413  1.2521 -2.4847 -1.0284
  123MOL0     H16967   1.666   8.557   5.529 -1.0555  0.1884  1.3583
  123MOL0     H16968   1.515   8.818   5.576 -1.7796  0.0369 -3.1461
  123MOL0     H16969   1.533   8.689   5.687  1.7389 -0.9614 -0.2107
  123MOL0     H16970   1.190   8.594   5.453  0.4693 -0.7134 -2.5481
  123MOL0     H16971   2.095   8.563   5.669  0.3104  1.1105 -0.0868
  123MOL0     H16972   2.251   8.415   5.773 -0.6742  3.6353  2.2202
  123MOL0     H16973   2.381   8.395   5.646 -1.0554  0.4965 -0.1411
  123MOL0     H16974   2.416   8.472   5.797  1.8481  0.1524 -0.6628
  124MOL0     O16975   2.694   0.515   7.092 -0.3937 -1.0830 -0.6410
  124MOL0     C16976   2.651   0.468   6.989  0.6688 -1.1159 -0.2170
  124MOL0     O16977   2.729   0.456   6.876 -0.4244 -0.6953 -0.7214
  124MOL0     C16978   2.866   0.488   6.898  0.3066 -0.7624 -0.3609
  124MOL0     C16979   2.950   0.411   6.980 -0.4950 -0.1514 -1.0876
  124MOL0     C16980   3.086   0.442   6.988 -0.3917 -0.1204  0.3703
  124MOL0     C16981   3.141   0.559   6.944 -0.0695 -0.6407  0.2253
  124MOL0     O16982   3.275   0.600   6.950 -0.1197 -0.0847 -0.6161
  124MOL0     C16983   3.293   0.692   7.059  0.1600  0.0407 -1.0503
  124MOL0     C16984   3.301   0.834   7.015  0.0372 -0.0935 -0.1050
  124MOL0     C16985   3.404   0.862   6.911 -0.4122 -0.7559  0.3365
  124MOL0     C16986   3.422   1.008   6.884  0.0107 -0.5018 -0.4774
  124MOL0     C16987   3.554   1.046   6.815  0.1436 -0.1960  0.6095
  124MOL0     C16988   3.579   1.195   6.820  0.5064  0.3297 -0.1222
  124MOL0     C16989   3.713   1.238   6.764 -0.6106  0.5006  0.2853
  124MOL0     C16990   3.741   1.391   6.771  0.6995 -0.7134  0.0011
  124MOL0     N16991   3.762   1.442   6.899 -1.0804  0.8952  0.8561
  124MOL0     C16992   3.865   1.410   6.988  1.0169  0.6566 -0.0258
  124MOL0     C16993   3.853   1.502   7.086  0.2590  0.9462 -0.6024
  124MOL0     C16994   3.947   1.520   7.199 -1.0732  0.3302  0.0798
  124MOL0     C16995   4.039   1.643   7.198 -0.6936 -0.0561 -0.1166
  124MOL0     C16996   4.153   1.632   7.098  0.8484 -0.3801  0.5054
  124MOL0     C16997   4.259   1.739   7.102 -0.4574  0.0242  0.2246
  124MOL0     O16998   4.340   1.730   7.224  0.1146 -0.4268  0.3753
  124MOL0     C16999   4.426   1.831   7.250  0.3357 -0.5060 -0.2095
  124MOL0     C17000   4.466   1.922   7.150 -0.4523  0.4628 -0.6158
  124MOL0     C17001   4.563   2.016   7.173 -0.2293 -0.1421  0.3868
  124MOL0     C17002   4.571   2.134   7.076  0.6526 -0.0876  0.8277
  124MOL0     C17003   4.635   2.022   7.290 -0.2846  0.2337  0.4517
  124MOL0     C17004   4.743   2.121   7.326 -0.9710  0.1735  0.3422
  124MOL0     O17005   4.775   2.139   7.461  0.5269 -0.4964  0.6851
  124MOL0     C17006   4.859   2.240   7.502  0.2701  1.0181  0.3530
  124MOL0     C17007   4.989   2.247   7.438  0.1224  0.7371 -0.5312
  124MOL0     C17008   5.083   2.329   7.503 -0.1956 -0.2985  0.4895
  124MOL0     C17009   5.045   2.406   7.612 -0.1082  0.1446 -0.2815
  124MOL0     O17010   5.127   2.488   7.679  0.2916 -0.3985 -0.0157
  124MOL0     C17011   5.265   2.451   7.703 -0.3184  0.1827 -0.1714
  124MOL0     C17012   5.331   2.556   7.791 -0.2565  0.0405 -0.6333
  124MOL0     C17013   5.477   2.538   7.818  0.3867  0.3696  0.3177
  124MOL0     C17014   5.497   2.417   7.900  0.3077  0.2216  0.3635
  124MOL0     C17015   5.636   2.393   7.934  0.4766  1.2853  0.2635
  124MOL0     C17016   5.659   2.384   8.093  0.1221  0.8917  0.2913
  124MOL0     C17017   5.808   2.367   8.137  0.8272  0.2042 -0.7713
  124MOL0     C17018   5.821   2.400   8.282  0.4738  0.8683 -0.3274
  124MOL0    Cl17019   5.702   2.299   8.376  0.2752  0.1642  0.2216
  124MOL0     C17020   4.918   2.397   7.673 -0.6855  0.0455 -0.1077
  124MOL0     C17021   4.831   2.317   7.613 -0.6944  0.4146  0.9443
  124MOL0     O17022   4.792   2.191   7.236  0.2718  0.4240 -0.5737
  124MOL0     C17023   4.600   1.932   7.391  0.3927  0.1456  0.2746
  124MOL0     C17024   4.497   1.838   7.374  0.6330 -0.3447  1.0355
  124MOL0     N17025   3.737   1.574   7.070  0.2446  1.0191 -0.7231
  124MOL0     N17026   3.683   1.540   6.958 -0.0514 -0.2106  0.1464
  124MOL0     C17027   3.057   0.639   6.872  0.5365  1.4513  0.4628
  124MOL0     C17028   2.918   0.611   6.848  0.4549  0.7440 -0.0444
  124MOL0     C17029   2.512   0.425   6.992  0.1668 -0.4531  0.6379
  124MOL0     C17030   2.463   0.385   6.859 -0.0139  0.2782 -0.2279
  124MOL0     C17031   2.332   0.337   6.838  0.3990  1.1153 -0.9441
  124MOL0     C17032   2.247   0.326   6.948 -0.5112  0.1313 -0.0910
  124MOL0     O17033   2.119   0.274   6.924 -0.5065  0.0480 -0.6555
  124MOL0     C17034   2.124   0.135   6.887  0.1291  0.5091  0.3124
  124MOL0     C17035   2.127   0.048   7.013 -0.1382  0.2780  0.1584
  124MOL0     C17036   2.005   0.072   7.114  0.3951  0.6003 -0.3233
  124MOL0     C17037   2.008  -0.017   7.235  0.2950  0.7859  0.8041
  124MOL0     C17038   1.986  -0.159   7.186  0.0198 -0.1486 -1.2801
  124MOL0     C17039   1.959  -0.275   7.156 -0.5808 -0.6521 -0.6230
  124MOL0     C17040   2.296   0.362   7.072  0.4471  0.0881 -0.6596
  124MOL0     C17041   2.422   0.412   7.100 -0.1296 -0.9265 -1.3868
  124MOL0     C17042   2.451   0.464   7.243 -0.1104 -0.1133 -0.3734
  124MOL0     H17043   2.925   0.326   7.042  0.3929 -0.7560 -1.5417
  124MOL0     H17044   3.145   0.376   7.051  0.3203  0.8381  0.7398
  124MOL0     H17045   3.392   0.670   7.102  0.0363  0.8081 -0.3457
  124MOL0     H17046   3.204   0.693   7.123 -0.9584 -0.8003 -2.5601
  124MOL0     H17047   3.204   0.876   6.987  1.1806  0.5765 -3.5431
  124MOL0     H17048   3.323   0.892   7.106  2.1634  2.7628 -2.2707
  124MOL0     H17049   3.498   0.830   6.957 -0.0949 -0.7070 -0.2735
  124MOL0     H17050   3.385   0.811   6.816  1.1972  0.8189 -0.8939
  124MOL0     H17051   3.348   1.047   6.813  0.1860 -0.0753 -0.4293
  124MOL0     H17052   3.413   1.062   6.979  1.8136 -2.9633  1.1995
  124MOL0     H17053   3.563   1.015   6.710  0.7700  1.8623  0.0136
  124MOL0     H17054   3.634   1.006   6.878  0.2422 -0.8159  0.1066
  124MOL0     H17055   3.502   1.248   6.764 -3.1858 -4.6876 -0.4055
  124MOL0     H17056   3.571   1.223   6.926 -1.0289 -0.7371  0.0784
  124MOL0     H17057   3.722   1.210   6.658  2.1056  1.6067  0.1442
  124MOL0     H17058   3.795   1.191   6.820 -1.3785 -0.6202  0.5028
  124MOL0     H17059   3.833   1.416   6.717  1.1586 -0.1441  1.0237
  124MOL0     H17060   3.666   1.451   6.719  1.9045  1.1157  0.2676
  124MOL0     H17061   3.945   1.338   6.975 -0.0397 -0.6804  0.6062
  124MOL0     H17062   4.001   1.426   7.209 -1.8078 -0.3333 -1.7309
  124MOL0     H17063   3.880   1.543   7.282 -0.1487  0.8596  0.6851
  124MOL0     H17064   3.985   1.733   7.169 -2.1507 -1.7340 -3.1321
  124MOL0     H17065   4.073   1.655   7.301  2.1206  0.8942 -1.0670
  124MOL0     H17066   4.198   1.532   7.100  1.8309 -0.1937 -3.5040
  124MOL0     H17067   4.104   1.637   7.000 -3.5969  1.1637  2.5760
  124MOL0     H17068   4.321   1.718   7.014 -1.9515  0.9419 -1.0952
  124MOL0     H17069   4.222   1.841   7.094  3.1358  1.4731  0.2699
  124MOL0     H17070   4.429   1.914   7.048  1.6717 -0.5309 -1.3822
  124MOL0     H17071   4.483   2.133   7.012  0.9019 -0.7388  0.4859
  124MOL0     H17072   4.657   2.133   7.009 -0.6280 -1.1628 -0.8582
  124MOL0     H17073   4.572   2.230   7.129  0.4074  0.0551  0.5741
  124MOL0     H17074   5.020   2.187   7.353  0.7115 -4.6422  2.9283
  124MOL0     H17075   5.188   2.336   7.473  0.6197  2.5562  3.4547
  124MOL0     H17076   5.276   2.356   7.757  0.1625  0.7000  0.6700
  124MOL0     H17077   5.320   2.434   7.610  1.3431 -0.2404  0.8576
  124MOL0     H17078   5.318   2.647   7.733  1.9148  1.4947  0.9958
  124MOL0     H17079   5.278   2.560   7.886  1.2487 -2.6894  0.4574
  124MOL0     H17080   5.508   2.630   7.867  0.9559  0.5438 -0.3520
  124MOL0     H17081   5.522   2.520   7.720 -0.4076 -1.1034  0.1962
  124MOL0     H17082   5.455   2.326   7.857 -2.1247  1.7050 -0.6023
  124MOL0     H17083   5.444   2.440   7.993  1.5824 -1.1681  1.4822
  124MOL0     H17084   5.675   2.306   7.880  1.1018  1.5877  0.2125
  124MOL0     H17085   5.694   2.481   7.902  0.5640  1.4528  0.8749
  124MOL0     H17086   5.597   2.302   8.130 -0.4246  1.6559  1.0831
  124MOL0     H17087   5.620   2.473   8.143  3.3411  1.6722  1.6152
  124MOL0     H17088   5.874   2.434   8.081  0.6624  0.1716 -1.0089
  124MOL0     H17089   5.854   2.271   8.113  2.1108  1.3125 -3.1269
  124MOL0     H17090   5.809   2.507   8.302  1.0870  0.5649  1.9261
  124MOL0     H17091   5.922   2.372   8.311  0.2442  1.0722  0.6998
  124MOL0     H17092   4.894   2.434   7.772  0.3767 -1.8967  0.9277
  124MOL0     H17093   4.734   2.298   7.657 -0.2563 -0.2864  1.6392
  124MOL0     H17094   4.651   1.931   7.487  0.4572  1.8455  0.2858
  124MOL0     H17095   4.483   1.780   7.464  1.4458  0.7513  1.8986
  124MOL0     H17096   3.095   0.731   6.828 -1.8065  2.3025  0.0736
  124MOL0     H17097   2.862   0.685   6.792  1.6236  2.2563  0.7215
  124MOL0     H17098   2.515   0.392   6.764 -1.5649 -0.4741 -1.1983
  124MOL0     H17099   2.297   0.313   6.737 -1.5063  0.9665 -0.2954
  124MOL0     H17100   2.036   0.105   6.830  0.0427 -2.5727  1.8618
  124MOL0     H17101   2.214   0.118   6.827 -1.4320 -1.9439 -1.5066
  124MOL0     H17102   2.216   0.072   7.071 -3.3390  1.9049  5.0639
  124MOL0     H17103   2.132  -0.059   6.988 -2.8318  0.8685 -3.9546
  124MOL0     H17104   1.997   0.176   7.147 -0.4897  0.5959 -0.5025
  124MOL0     H17105   1.912   0.049   7.062  0.0323 -2.5947  1.4687
  124MOL0     H17106   1.929   0.010   7.306  0.7476 -0.8768  2.0175
  124MOL0     H17107   2.102  -0.005   7.290  1.5292 -0.9732 -0.8120
  124MOL0     H17108   1.942  -0.376   7.125  0.0330 -0.8187 -0.4179
  124MOL0     H17109   2.222   0.342   7.148 -0.4259 -2.0922 -2.0158
  124MOL0     H17110   2.449   0.573   7.234 -1.8111  0.0031  0.9343
  124MOL0     H17111   2.373   0.432   7.313  0.8513  2.6768  2.1707
  124MOL0     H17112   2.547   0.425   7.278 -0.8560 -1.9117 -0.1968
  125MOL0     O17113   5.475   5.892   1.734  0.1457 -0.2121  0.2388
  125MOL0     C17114   5.385   5.962   1.671 -1.3226  0.1054 -0.5373
  125MOL0     O17115   5.368   6.098   1.686 -0.5257  0.2807  0.3514
  125MOL0     C17116   5.456   6.179   1.759 -0.3180 -0.2340  0.6023
  125MOL0     C17117   5.587   6.159   1.763  0.1926  0.6631  1.0770
  125MOL0     C17118   5.672   6.249   1.823  0.7390  0.0012 -0.4172
  125MOL0     C17119   5.620   6.368   1.888 -0.2494 -1.2143 -0.1700
  125MOL0     O17120   5.688   6.462   1.956 -0.2970 -0.1804  0.5057
  125MOL0     C17121   5.803   6.517   1.887  0.1879  0.0583 -0.1457
  125MOL0     C17122   5.841   6.651   1.940 -0.4032 -0.1266  0.0397
  125MOL0     C17123   5.735   6.758   1.927  0.2783  0.6703 -0.3003
  125MOL0     C17124   5.770   6.885   1.991  0.2409  0.5881  0.7156
  125MOL0     C17125   5.869   6.970   1.910  0.2781  0.5662  0.0577
  125MOL0     C17126   5.801   7.031   1.779 -0.3456  0.4385  0.1442
  125MOL0     C17127   5.879   6.999   1.643 -0.1395 -0.4441 -0.6498
  125MOL0     C17128   6.019   7.059   1.637 -0.3538  0.2071 -0.2622
  125MOL0     N17129   6.081   7.044   1.508  0.4223 -0.9396 -0.1424
  125MOL0     C17130   6.032   6.970   1.404 -0.5708  0.2300  0.0791
  125MOL0     C17131   6.133   6.969   1.316  0.4988 -0.3176 -0.2967
  125MOL0     C17132   6.132   6.891   1.187  0.6361  0.3474 -0.2212
  125MOL0     C17133   6.137   6.752   1.204  0.3644  0.7586  0.7089
  125MOL0     C17134   6.152   6.675   1.069  0.6024 -0.3709  0.0230
  125MOL0     C17135   6.188   6.527   1.087  1.2488  0.0269  0.0227
  125MOL0     O17136   6.321   6.508   1.143 -0.1721 -0.3372 -0.9011
  125MOL0     C17137   6.428   6.536   1.073  0.0906 -0.3749 -0.5012
  125MOL0     C17138   6.443   6.562   0.938  1.3191 -0.6001 -0.1096
  125MOL0     C17139   6.564   6.585   0.879  0.3270 -0.4460 -0.4143
  125MOL0     C17140   6.559   6.586   0.727  0.4054  0.6633 -0.2982
  125MOL0     C17141   6.682   6.593   0.957  0.3032 -0.5192  0.4628
  125MOL0     C17142   6.820   6.614   0.907  0.5964  0.4384  0.0086
  125MOL0     O17143   6.914   6.596   1.004 -0.4815 -0.9416  0.5733
  125MOL0     C17144   7.048   6.620   0.969  0.1644  0.1928 -0.6874
  125MOL0     C17145   7.125   6.723   1.028  0.1390 -0.0406  1.1492
  125MOL0     C17146   7.263   6.746   1.017 -0.3294 -0.0246  0.2624
  125MOL0     C17147   7.327   6.652   0.936  0.2179 -0.6670  1.2131
  125MOL0     O17148   7.462   6.677   0.914 -0.8639 -0.0048  0.3788
  125MOL0     C17149   7.533   6.601   0.807 -0.1897 -0.3842  0.3715
  125MOL0     C17150   7.666   6.676   0.777  0.2605 -0.0569  0.4811
  125MOL0     C17151   7.763   6.670   0.892 -0.0934 -0.2615 -0.0164
  125MOL0     C17152   7.827   6.802   0.943 -0.4055 -0.4491 -0.2848
  125MOL0     C17153   7.921   6.791   1.066 -0.6507 -0.1990  0.1039
  125MOL0     C17154   8.036   6.689   1.062  0.1772  0.0706 -0.2692
  125MOL0     C17155   8.125   6.707   0.937 -0.1905 -0.1263  0.2981
  125MOL0     C17156   8.224   6.820   0.946  0.0749  0.9714  0.4978
  125MOL0    Cl17157   8.305   6.837   0.793 -0.3024  0.5185  0.3918
  125MOL0     C17158   7.261   6.554   0.857 -0.6150 -0.4953 -1.0212
  125MOL0     C17159   7.123   6.532   0.884 -0.1669 -0.2032 -0.6137
  125MOL0     O17160   6.845   6.633   0.790 -0.8514  0.2711 -0.4195
  125MOL0     C17161   6.667   6.560   1.088 -0.5989  0.3109  0.3906
  125MOL0     C17162   6.540   6.538   1.145 -0.2254 -0.6668 -0.0587
  125MOL0     N17163   6.222   7.066   1.353 -0.5353  0.2359 -0.7343
  125MOL0     N17164   6.194   7.107   1.472  0.5722 -0.0273 -0.7045
  125MOL0     C17165   5.477   6.393   1.877 -0.3186  0.2571 -0.2679
  125MOL0     C17166   5.401   6.291   1.812  0.4588 -1.2140 -0.5663
  125MOL0     C17167   5.294   5.882   1.583 -0.3990 -0.3950 -0.3646
  125MOL0     C17168   5.199   5.955   1.515 -0.1922  0.8557 -0.3450
  125MOL0     C17169   5.110   5.898   1.422  0.2438  0.3511  0.2713
  125MOL0     C17170   5.114   5.760   1.393  0.4870 -1.0271  0.3940
  125MOL0     O17171   5.033   5.705   1.298 -0.1162 -0.1232  0.0578
  125MOL0     C17172   5.074   5.596   1.205  0.8886  0.0618 -0.9992
  125MOL0     C17173   4.954   5.510   1.182  0.4005 -0.0810  0.0297
  125MOL0     C17174   4.844   5.585   1.113  0.4498 -0.8381 -0.4256
  125MOL0     C17175   4.717   5.513   1.083  0.6897  0.3564 -0.3698
  125MOL0     C17176   4.733   5.404   0.992  0.4819 -1.0107 -0.5344
  125MOL0     C17177   4.745   5.314   0.910 -0.0221 -0.8004 -0.0611
  125MOL0     C17178   5.216   5.684   1.462 -0.5678  0.0596 -0.0709
  125MOL0     C17179   5.300   5.744   1.558  0.8585  0.4152  0.3993
  125MOL0     C17180   5.391   5.638   1.613  0.4033 -0.8385  0.2650
  125MOL0     H17181   5.636   6.071   1.723  0.1712  1.7750 -1.5966
  125MOL0     H17182   5.776   6.232   1.798  0.8454 -0.7031  0.4626
  125MOL0     H17183   5.792   6.507   1.779  0.8613  2.6275 -0.5223
  125MOL0     H17184   5.884   6.448   1.912 -0.7232 -0.9627  0.0568
  125MOL0     H17185   5.861   6.638   2.047  1.3580  0.1845 -0.2258
  125MOL0     H17186   5.931   6.686   1.889 -0.8319 -1.7202 -1.9261
  125MOL0     H17187   5.709   6.769   1.822  1.4289  0.2397 -0.6426
  125MOL0     H17188   5.651   6.718   1.984 -0.2889  2.6599  0.3574
  125MOL0     H17189   5.681   6.941   2.021 -0.1642 -0.8703  2.4158
  125MOL0     H17190   5.823   6.858   2.083 -0.7401  0.2162  1.1818
  125MOL0     H17191   5.955   6.910   1.880  1.1344  1.6846  0.1909
  125MOL0     H17192   5.899   7.052   1.976  2.2363  0.4389 -0.6294
  125MOL0     H17193   5.694   7.006   1.782 -0.2366 -0.0636  0.0894
  125MOL0     H17194   5.800   7.140   1.780 -2.0134  0.4520  0.0724
  125MOL0     H17195   5.816   7.043   1.565  0.4867  0.3520 -0.7157
  125MOL0     H17196   5.877   6.891   1.627 -2.2103 -0.6415  0.4618
  125MOL0     H17197   6.022   7.162   1.674  0.2894  0.1430 -0.1231
  125MOL0     H17198   6.078   7.006   1.712 -1.0131  0.0346  0.1491
  125MOL0     H17199   5.941   6.911   1.397  0.3642 -1.4609  1.4405
  125MOL0     H17200   6.212   6.927   1.121 -0.5755 -1.0383 -2.5941
  125MOL0     H17201   6.046   6.923   1.127  1.3909 -2.1133 -2.8536
  125MOL0     H17202   6.213   6.727   1.278 -0.1966 -1.7236  0.5365
  125MOL0     H17203   6.042   6.710   1.238  0.1511 -0.1203 -0.8717
  125MOL0     H17204   6.062   6.684   1.009  0.2358  1.6549  0.7798
  125MOL0     H17205   6.239   6.710   1.013  1.7168 -1.2903  1.1061
  125MOL0     H17206   6.114   6.484   1.154  0.6700  0.0066 -0.6142
  125MOL0     H17207   6.182   6.472   0.992  1.7698  1.1739 -0.7059
  125MOL0     H17208   6.353   6.562   0.877  0.0676 -0.2701  1.6281
  125MOL0     H17209   6.462   6.553   0.690  0.2427  0.3773  0.3775
  125MOL0     H17210   6.647   6.531   0.694 -0.0124 -0.7914  0.9276
  125MOL0     H17211   6.571   6.692   0.700 -0.4351  1.8325  3.3464
  125MOL0     H17212   7.085   6.795   1.100 -2.3403 -0.4180  0.2363
  125MOL0     H17213   7.323   6.825   1.061 -2.5138  1.6400  0.4848
  125MOL0     H17214   7.556   6.498   0.837 -0.3943 -0.6352 -0.3182
  125MOL0     H17215   7.474   6.596   0.715  2.1522  2.0802 -1.4401
  125MOL0     H17216   7.707   6.627   0.688 -1.3020 -0.0811 -0.2806
  125MOL0     H17217   7.656   6.782   0.750  0.5931 -0.1040  0.1659
  125MOL0     H17218   7.835   6.598   0.852 -1.8330 -0.9117 -2.1806
  125MOL0     H17219   7.718   6.622   0.980  0.0789  0.1622  0.3079
  125MOL0     H17220   7.745   6.866   0.978 -1.5034 -2.3032  0.6454
  125MOL0     H17221   7.888   6.855   0.869  1.6588 -1.8685  0.3020
  125MOL0     H17222   7.974   6.886   1.077  0.7471 -0.7076 -1.8596
  125MOL0     H17223   7.857   6.760   1.149  0.4974 -1.9282  0.3764
  125MOL0     H17224   7.985   6.592   1.058 -4.1069  1.9989  1.4600
  125MOL0     H17225   8.095   6.704   1.153 -0.0541 -0.0623 -0.0989
  125MOL0     H17226   8.062   6.719   0.847 -1.5011 -1.9203  0.9074
  125MOL0     H17227   8.194   6.623   0.925  1.8941  1.4990  0.3459
  125MOL0     H17228   8.309   6.792   1.009  1.4801  1.4549 -1.1267
  125MOL0     H17229   8.173   6.908   0.986 -3.5420 -2.1280  3.5130
  125MOL0     H17230   7.310   6.479   0.796 -0.1396 -0.6837 -0.4123
  125MOL0     H17231   7.083   6.445   0.833  0.1215 -2.2150  2.3441
  125MOL0     H17232   6.748   6.549   1.160 -2.1008  1.0358  2.2844
  125MOL0     H17233   6.543   6.520   1.252 -1.7719 -1.9276 -0.2059
  125MOL0     H17234   5.437   6.492   1.897 -1.1780  0.0927 -1.0881
  125MOL0     H17235   5.293   6.300   1.814  0.5470  1.6182 -2.8268
  125MOL0     H17236   5.206   6.063   1.507  1.0938  0.8402  0.2336
  125MOL0     H17237   5.062   5.962   1.349  0.0032 -1.2764 -1.0809
  125MOL0     H17238   5.105   5.640   1.110  0.7762 -0.1027 -1.1120
  125MOL0     H17239   5.163   5.546   1.242  0.6738  0.1123 -0.4064
  125MOL0     H17240   4.913   5.471   1.276  2.1373  0.9566  1.2675
  125MOL0     H17241   4.977   5.426   1.116  0.5027 -0.3891  0.4503
  125MOL0     H17242   4.804   5.668   1.173 -3.6636 -1.2705 -2.2241
  125MOL0     H17243   4.882   5.627   1.020 -1.9010  0.7582 -0.7795
  125MOL0     H17244   4.638   5.583   1.053  1.8968  0.7034 -3.0944
  125MOL0     H17245   4.681   5.468   1.176 -0.4147  2.3206  0.2187
  125MOL0     H17246   4.757   5.247   0.827 -0.4579  0.3835 -1.0920
  125MOL0     H17247   5.222   5.580   1.432  1.1605  0.4370 -1.1876
  125MOL0     H17248   5.488   5.657   1.566 -1.2844  2.1142 -2.4539
  125MOL0     H17249   5.406   5.629   1.721  1.2856 -2.7039  0.0130
  125MOL0     H17250   5.361   5.534   1.596  2.9776 -1.4101 -1.2490
  126MOL0     O17251   3.841   5.876   5.463 -0.1756  0.1161 -0.2663
  126MOL0     C17252   3.797   5.785   5.542  0.8237  0.1362  0.7376
  126MOL0     O17253   3.862   5.746   5.656 -0.3193  0.8051 -0.3705
  126MOL0     C17254   3.964   5.836   5.685 -0.2175 -0.4685 -0.4207
  126MOL0     C17255   4.098   5.797   5.659  0.5593  0.3146 -0.9293
  126MOL0     C17256   4.213   5.869   5.679  0.1725  0.6355 -0.8853
  126MOL0     C17257   4.193   5.999   5.732 -0.4809  0.6494  0.1875
  126MOL0     O17258   4.306   6.083   5.765  0.3525 -0.0829  0.2103
  126MOL0     C17259   4.432   6.059   5.701 -0.2344 -0.4937  0.3015
  126MOL0     C17260   4.531   6.174   5.694 -0.3017 -0.0162 -0.1868
  126MOL0     C17261   4.556   6.223   5.838  0.1664  0.3475  0.0150
  126MOL0     C17262   4.643   6.351   5.828 -1.1570 -0.2167  0.8006
  126MOL0     C17263   4.653   6.399   5.972  0.3491 -0.6004  0.8689
  126MOL0     C17264   4.681   6.558   5.981 -0.8010  0.0855 -1.0317
  126MOL0     C17265   4.720   6.600   6.123  0.0509  0.6003 -0.0023
  126MOL0     C17266   4.770   6.747   6.124 -0.2958  0.6345 -0.1241
  126MOL0     N17267   4.918   6.758   6.120 -0.1871  0.2058  1.1773
  126MOL0     C17268   5.002   6.810   6.218 -0.4338  1.2157 -0.4857
  126MOL0     C17269   5.131   6.777   6.186 -0.7043 -0.4634  0.2449
  126MOL0     C17270   5.261   6.822   6.258 -0.7395  0.1876 -0.2076
  126MOL0     C17271   5.359   6.894   6.166 -0.3542  0.0706 -0.0259
  126MOL0     C17272   5.296   7.025   6.104  0.6107 -0.1118 -0.0838
  126MOL0     C17273   5.401   7.108   6.022  0.1059  0.0776 -0.7415
  126MOL0     O17274   5.333   7.210   5.951 -0.7746  0.2693 -0.0434
  126MOL0     C17275   5.424   7.296   5.897  0.6356  0.1345 -0.2000
  126MOL0     C17276   5.370   7.407   5.837 -0.5672  0.8502 -0.2675
  126MOL0     C17277   5.443   7.497   5.755 -0.0336 -0.8489 -0.3591
  126MOL0     C17278   5.366   7.599   5.684  0.2805 -0.2139  0.4592
  126MOL0     C17279   5.584   7.494   5.750 -0.6194 -0.3352 -0.8456
  126MOL0     C17280   5.671   7.610   5.712 -0.4567  0.6689  0.5550
  126MOL0     O17281   5.804   7.579   5.715 -0.0437 -0.0727  0.2359
  126MOL0     C17282   5.905   7.670   5.711 -0.2797 -0.7193 -0.6433
  126MOL0     C17283   6.026   7.601   5.720  0.1038  0.0130  0.5549
  126MOL0     C17284   6.143   7.675   5.737 -0.3519 -0.3594 -0.3396
  126MOL0     C17285   6.142   7.817   5.739 -0.2914 -0.2049 -0.4754
  126MOL0     O17286   6.249   7.900   5.750 -0.1987 -1.5623 -0.3927
  126MOL0     C17287   6.384   7.862   5.737  0.0208 -0.9852 -0.2380
  126MOL0     C17288   6.461   7.924   5.849  0.2624 -0.2844  0.0102
  126MOL0     C17289   6.608   7.938   5.809 -0.2494 -0.2863 -0.4014
  126MOL0     C17290   6.681   7.967   5.945 -0.4366  0.2922  1.3255
  126MOL0     C17291   6.833   7.992   5.923  0.1102  0.3020 -0.3265
  126MOL0     C17292   6.916   7.882   5.855 -0.0817 -0.0135  0.0683
  126MOL0     C17293   6.886   7.743   5.904 -0.5405 -0.5794 -0.3234
  126MOL0     C17294   6.939   7.638   5.800 -0.8727 -0.6178  0.0666
  126MOL0    Cl17295   6.944   7.471   5.859 -0.3250 -0.1807 -0.2851
  126MOL0     C17296   6.020   7.877   5.716  0.0440 -0.3522 -0.0192
  126MOL0     C17297   5.896   7.806   5.722  0.5700 -0.3398  0.2364
  126MOL0     O17298   5.623   7.719   5.683  0.0899 -0.0766  0.0713
  126MOL0     C17299   5.634   7.388   5.826 -0.0420 -0.4456  0.1722
  126MOL0     C17300   5.558   7.286   5.887 -0.3691  0.3311  0.2126
  126MOL0     N17301   5.124   6.695   6.071  0.2930 -0.4875  0.6645
  126MOL0     N17302   4.996   6.676   6.035  0.4162 -0.7356 -0.3451
  126MOL0     C17303   4.061   6.043   5.760 -0.7447  0.0718 -0.1034
  126MOL0     C17304   3.948   5.960   5.740  0.1281 -1.1482 -0.6549
  126MOL0     C17305   3.676   5.701   5.506  0.5820  0.2780 -0.6996
  126MOL0     C17306   3.623   5.634   5.614  0.5765  0.2842 -0.4289
  126MOL0     C17307   3.520   5.543   5.597  0.1213  0.6555  0.6542
  126MOL0     C17308   3.458   5.526   5.475  0.5655  0.2226  0.8689
  126MOL0     O17309   3.360   5.437   5.434  0.0423  0.2616 -0.3334
  126MOL0     C17310   3.267   5.415   5.536  0.2945  0.3554 -0.0395
  126MOL0     C17311   3.152   5.510   5.514  0.4911  0.5003 -0.6688
  126MOL0     C17312   3.088   5.484   5.381  1.0602 -0.6024 -0.2472
  126MOL0     C17313   2.940   5.532   5.379  0.3247  0.6271  0.4621
  126MOL0     C17314   2.840   5.450   5.448 -0.4528  0.5203  0.6597
  126MOL0     C17315   2.760   5.367   5.485 -0.5104  0.1137  0.7355
  126MOL0     C17316   3.509   5.595   5.363  0.6457 -0.1818  0.5950
  126MOL0     C17317   3.616   5.688   5.375  0.7646  0.2428 -0.3018
  126MOL0     C17318   3.658   5.768   5.251  1.0039 -0.5765 -0.4287
  126MOL0     H17319   4.110   5.698   5.616  1.3234  0.4554 -1.0427
  126MOL0     H17320   4.309   5.825   5.655  0.0784  1.1034 -2.1986
  126MOL0     H17321   4.421   6.027   5.597  0.4240 -0.9962  0.3768
  126MOL0     H17322   4.492   5.975   5.737  1.9135  0.3360 -1.1234
  126MOL0     H17323   4.620   6.144   5.639 -0.3479 -1.0376  0.2624
  126MOL0     H17324   4.479   6.251   5.636  0.8127  1.6461  0.9504
  126MOL0     H17325   4.463   6.251   5.889  0.8308  0.2399  1.3467
  126MOL0     H17326   4.612   6.149   5.897 -2.4529 -0.1680  2.0627
  126MOL0     H17327   4.731   6.324   5.770 -1.6943  0.0876 -0.1714
  126MOL0     H17328   4.590   6.426   5.769 -1.0531 -1.6023 -1.1318
  126MOL0     H17329   4.734   6.342   6.018  1.8554  0.1845 -0.7056
  126MOL0     H17330   4.556   6.382   6.019  0.2579 -1.2051  0.4711
  126MOL0     H17331   4.763   6.582   5.913 -0.4613  0.4976 -0.4820
  126MOL0     H17332   4.603   6.620   5.935  0.2686  0.9161 -1.7662
  126MOL0     H17333   4.804   6.540   6.160 -0.0777 -0.8000 -1.8023
  126MOL0     H17334   4.637   6.582   6.192  1.4175  0.0656  1.5659
  126MOL0     H17335   4.725   6.795   6.037 -2.7693  0.3857  0.9588
  126MOL0     H17336   4.731   6.795   6.214 -1.3763  0.3165 -0.4101
  126MOL0     H17337   4.964   6.868   6.301 -1.8119 -2.2682  1.5485
  126MOL0     H17338   5.321   6.742   6.301  2.1799  2.1971 -0.2037
  126MOL0     H17339   5.232   6.893   6.337  2.1449  2.9442 -1.3897
  126MOL0     H17340   5.460   6.908   6.207  0.2107  1.0156 -1.5960
  126MOL0     H17341   5.365   6.825   6.082  0.3198 -1.4773  1.2461
  126MOL0     H17342   5.209   7.003   6.042  1.6954 -1.2806 -1.2554
  126MOL0     H17343   5.264   7.095   6.182  3.9944  1.5801 -0.0450
  126MOL0     H17344   5.472   7.154   6.092 -0.7455  0.6159 -0.2093
  126MOL0     H17345   5.444   7.039   5.949 -0.2604 -2.1798  1.0129
  126MOL0     H17346   5.261   7.405   5.828 -0.5771 -1.4516 -0.2447
  126MOL0     H17347   5.359   7.689   5.746  3.6166  1.2189 -0.9954
  126MOL0     H17348   5.266   7.558   5.667 -0.0594  0.0120  1.8175
  126MOL0     H17349   5.416   7.630   5.592 -0.9544  1.8459  0.3999
  126MOL0     H17350   6.028   7.493   5.714  1.8817  0.1019 -1.7358
  126MOL0     H17351   6.241   7.628   5.736  0.2826  0.9213 -2.4973
  126MOL0     H17352   6.386   7.754   5.753 -0.3188 -1.1367 -1.1642
  126MOL0     H17353   6.420   7.896   5.639  0.3447  0.9517  0.5187
  126MOL0     H17354   6.415   8.023   5.854 -1.2464 -0.9088 -0.7554
  126MOL0     H17355   6.445   7.867   5.941  0.9467 -1.3246 -0.4938
  126MOL0     H17356   6.619   8.016   5.734  0.5973  1.0332  1.0305
  126MOL0     H17357   6.641   7.848   5.758 -1.4146 -1.3507  0.6461
  126MOL0     H17358   6.652   7.894   6.021 -0.9743 -1.5552 -0.5796
  126MOL0     H17359   6.638   8.064   5.975  0.1208  0.7458  0.6992
  126MOL0     H17360   6.844   8.076   5.854 -0.0955  1.1021  0.5962
  126MOL0     H17361   6.876   8.016   6.021  0.9101 -1.9794 -0.0490
  126MOL0     H17362   7.022   7.905   5.864  0.0767 -0.4373 -0.6207
  126MOL0     H17363   6.886   7.879   5.750 -0.0672 -1.7630  0.0866
  126MOL0     H17364   6.778   7.727   5.913 -0.7652  0.2704 -1.2681
  126MOL0     H17365   6.948   7.729   5.993 -2.5050 -0.0781  1.1866
  126MOL0     H17366   7.044   7.668   5.798 -0.9934  0.5802  3.9444
  126MOL0     H17367   6.880   7.646   5.709  0.1209  0.5236 -0.5046
  126MOL0     H17368   6.007   7.984   5.718  3.7195  0.2470 -0.6194
  126MOL0     H17369   5.803   7.862   5.724  1.5853  1.4471  0.4334
  126MOL0     H17370   5.740   7.367   5.833  0.5665  2.2203  0.0751
  126MOL0     H17371   5.613   7.205   5.934  0.3891  0.3940 -0.5444
  126MOL0     H17372   4.042   6.139   5.808 -0.8012  0.6065 -1.1501
  126MOL0     H17373   3.850   5.999   5.763  1.2743 -0.2582  3.7471
  126MOL0     H17374   3.661   5.629   5.716 -2.9146  1.3372  1.0459
  126MOL0     H17375   3.490   5.484   5.683 -0.9839  0.1503 -0.0638
  126MOL0     H17376   3.227   5.314   5.527  0.3991  0.2933  0.1886
  126MOL0     H17377   3.300   5.423   5.640  0.0567  0.7023  0.0118
  126MOL0     H17378   3.176   5.615   5.530 -0.4230  0.6208 -0.0015
  126MOL0     H17379   3.076   5.481   5.587  0.0206 -0.5816 -1.5602
  126MOL0     H17380   3.135   5.545   5.304  1.1063 -2.3355 -1.6425
  126MOL0     H17381   3.105   5.383   5.344  0.3265 -0.2859 -1.5069
  126MOL0     H17382   2.920   5.530   5.271  3.4605 -0.0001 -0.2009
  126MOL0     H17383   2.927   5.633   5.419 -1.0075 -0.0056  1.7352
  126MOL0     H17384   2.683   5.310   5.534 -3.3713  1.4222 -1.9584
  126MOL0     H17385   3.454   5.579   5.270 -2.3730 -0.5144  2.2917
  126MOL0     H17386   3.580   5.755   5.176  0.3728 -2.1521  0.4557
  126MOL0     H17387   3.665   5.874   5.278 -3.8524 -0.7134  2.4614
  126MOL0     H17388   3.752   5.734   5.207  0.8429 -1.6015 -0.0213
  127MOL0     O17389   9.758   6.790   1.115 -0.2373  0.1528 -0.5366
  127MOL0     C17390   9.714   6.689   1.172  0.2773 -0.2821 -0.1053
  127MOL0     O17391   9.773   6.564   1.172 -0.2024  0.1466 -0.2568
  127MOL0     C17392   9.859   6.528   1.070  0.8436 -0.3346  0.2221
  127MOL0     C17393   9.837   6.407   1.006  0.3279 -0.2760 -0.5647
  127MOL0     C17394   9.920   6.377   0.890 -0.1568  0.4403 -0.9810
  127MOL0     C17395  10.018   6.454   0.849 -0.4741  0.0500 -1.1711
  127MOL0     O17396  10.092   6.409   0.739  0.0128 -0.4514  0.2016
  127MOL0     C17397  10.154   6.504   0.657  0.0908 -0.6822  0.8180
  127MOL0     C17398  10.155   6.445   0.516  0.8136 -0.0928  0.1325
  127MOL0     C17399  10.216   6.543   0.427  0.2257  0.7447  0.0701
  127MOL0     C17400  10.227   6.486   0.285  0.1005 -0.0600  0.1226
  127MOL0     C17401  10.266   6.605   0.182  0.0074  0.6892 -0.0094
  127MOL0     C17402  10.180   6.730   0.178 -0.1917  0.1892 -0.3558
  127MOL0     C17403  10.225   6.815   0.056 -0.5878 -0.2868  0.1155
  127MOL0     C17404  10.143   6.784  -0.064  0.3427  0.1105 -0.0139
  127MOL0     N17405  10.184   6.853  -0.188  0.0364  0.0387  0.1223
  127MOL0     C17406  10.291   6.830  -0.274 -0.3985  0.1676 -1.2849
  127MOL0     C17407  10.305   6.939  -0.357 -0.1735 -0.5062 -0.3880
  127MOL0     C17408  10.421   6.967  -0.457  0.7043  0.9304  0.5043
  127MOL0     C17409  10.567   6.983  -0.393 -0.5558  0.9198  0.1009
  127MOL0     C17410  10.682   6.990  -0.497  0.3376  0.1473  0.4342
  127MOL0     C17411  10.825   6.979  -0.440 -0.0398 -1.0252 -0.1227
  127MOL0     O17412  10.851   7.064  -0.321 -0.1135 -0.1389  0.0870
  127MOL0     C17413  10.982   7.109  -0.303  0.1328  0.2021 -0.4096
  127MOL0     C17414  11.100   7.043  -0.349  0.3027  0.3773  0.1309
  127MOL0     C17415  11.231   7.096  -0.326  0.0440  0.1596 -0.6712
  127MOL0     C17416  11.356   7.014  -0.361  0.5747 -1.2564  0.0033
  127MOL0     C17417  11.242   7.223  -0.259 -0.1782 -0.0346  0.7793
  127MOL0     C17418  11.371   7.290  -0.239 -0.3264  0.8514  0.2922
  127MOL0     O17419  11.380   7.325  -0.109 -0.2883  0.3781 -1.1056
  127MOL0     C17420  11.472   7.417  -0.076 -0.2682  0.2130  0.8010
  127MOL0     C17421  11.431   7.548  -0.104 -0.6603 -0.8646 -0.4068
  127MOL0     C17422  11.515   7.648  -0.076  0.5818 -0.4268 -0.3900
  127MOL0     C17423  11.648   7.632  -0.030 -0.4010 -0.6411 -0.6316
  127MOL0     O17424  11.751   7.724  -0.012 -0.2363 -0.5453 -0.0829
  127MOL0     C17425  11.730   7.854  -0.059  1.3255  0.7592  0.0154
  127MOL0     C17426  11.831   7.944   0.005 -0.0732 -1.1523 -0.1747
  127MOL0     C17427  11.811   8.094  -0.022 -0.2538  0.3874 -0.2962
  127MOL0     C17428  11.929   8.179   0.025 -0.1748 -1.1546  0.5588
  127MOL0     C17429  11.889   8.322   0.034  0.0499  0.0755 -0.0433
  127MOL0     C17430  11.916   8.381  -0.097 -1.0221 -0.1000  0.9825
  127MOL0     C17431  11.880   8.536  -0.103  1.1055  0.2014 -0.8316
  127MOL0     C17432  11.882   8.602  -0.239  0.0413  0.5871 -0.2263
  127MOL0    Cl17433  11.743   8.557  -0.327  0.0101  0.0691 -0.0527
  127MOL0     C17434  11.691   7.504  -0.002  0.8649 -0.0944 -0.0622
  127MOL0     C17435  11.594   7.397  -0.026 -0.0858  0.2734 -0.0343
  127MOL0     O17436  11.447   7.327  -0.327 -0.5077  1.1693 -0.5151
  127MOL0     C17437  11.126   7.284  -0.204  0.3769 -0.1334  0.1438
  127MOL0     C17438  10.996   7.226  -0.227  0.6303 -0.8172 -0.7888
  127MOL0     N17439  10.190   7.018  -0.327  0.2291  0.8883  0.7605
  127MOL0     N17440  10.131   6.975  -0.225  0.0441  0.0621 -0.8669
  127MOL0     C17441  10.042   6.575   0.921 -0.5310 -0.0879 -0.3884
  127MOL0     C17442   9.960   6.611   1.025 -0.5708  0.0249  0.2184
  127MOL0     C17443   9.587   6.703   1.252  0.5890  0.1444  0.0256
  127MOL0     C17444   9.532   6.584   1.303  0.6494  0.1730  0.7074
  127MOL0     C17445   9.408   6.582   1.370 -0.1593 -0.1102 -0.6100
  127MOL0     C17446   9.322   6.692   1.370  0.7324  0.6204 -0.1693
  127MOL0     O17447   9.194   6.689   1.419 -0.1590  0.6737 -0.5398
  127MOL0     C17448   9.147   6.563   1.478  0.8729 -0.5493 -0.1857
  127MOL0     C17449   8.981   6.565   1.473  0.2884 -0.0154  0.8518
  127MOL0     C17450   8.936   6.693   1.540 -0.5641  0.9347 -0.1162
  127MOL0     C17451   8.912   6.820   1.447 -0.0464  0.0088  0.0688
  127MOL0     C17452   8.789   6.788   1.364  0.6136  0.7360  0.5851
  127MOL0     C17453   8.681   6.773   1.322 -1.0040 -0.3282 -0.5554
  127MOL0     C17454   9.369   6.803   1.309  0.4182 -0.8921 -0.1406
  127MOL0     C17455   9.497   6.813   1.258 -0.6847 -0.1852  0.4114
  127MOL0     C17456   9.515   6.940   1.177  0.2997  0.4513 -0.3207
  127MOL0     H17457   9.763   6.332   1.033  0.2336 -0.9300 -2.4674
  127MOL0     H17458   9.919   6.279   0.842 -1.4423  0.9041 -1.9364
  127MOL0     H17459  10.256   6.522   0.691 -0.2950  0.6745  1.3254
  127MOL0     H17460  10.102   6.600   0.669 -0.5657 -0.8524 -0.4917
  127MOL0     H17461  10.200   6.346   0.511 -3.7847 -2.3861 -1.2319
  127MOL0     H17462  10.051   6.419   0.497  1.1103 -1.2589  0.0687
  127MOL0     H17463  10.145   6.627   0.434 -1.5005 -0.7833  2.5009
  127MOL0     H17464  10.317   6.572   0.459  0.0019 -0.9035  2.5453
  127MOL0     H17465  10.301   6.407   0.272 -1.1119 -1.6332  2.3058
  127MOL0     H17466  10.127   6.451   0.262 -0.8831  1.3642  1.9659
  127MOL0     H17467  10.263   6.555   0.085 -1.5088 -1.0249  0.8525
  127MOL0     H17468  10.371   6.622   0.208  0.5909 -2.9953  0.6721
  127MOL0     H17469  10.076   6.698   0.176 -0.4357  1.0000 -0.9319
  127MOL0     H17470  10.192   6.798   0.262 -2.7267  1.8848 -1.2511
  127MOL0     H17471  10.332   6.793   0.044 -0.5241 -1.8401  2.7386
  127MOL0     H17472  10.215   6.922   0.075  3.8717  0.2447  0.5326
  127MOL0     H17473  10.150   6.678  -0.087  0.7960 -0.1902  1.3807
  127MOL0     H17474  10.038   6.811  -0.044  1.2981  2.4520  2.5111
  127MOL0     H17475  10.370   6.758  -0.259 -1.1757 -0.3986  0.3206
  127MOL0     H17476  10.402   7.065  -0.502  1.6129  2.0954  2.5406
  127MOL0     H17477  10.420   6.891  -0.535 -4.0636  1.8245 -0.6761
  127MOL0     H17478  10.564   7.079  -0.342  0.4903  1.6008 -1.0756
  127MOL0     H17479  10.583   6.890  -0.338  0.2287  0.5903 -0.6484
  127MOL0     H17480  10.661   6.912  -0.571  1.5425  1.2416 -1.1251
  127MOL0     H17481  10.670   7.088  -0.544 -1.4672 -0.4990 -0.5514
  127MOL0     H17482  10.835   6.874  -0.413 -2.8467 -2.0352 -2.5039
  127MOL0     H17483  10.894   7.010  -0.519 -0.7038 -0.2087 -0.4044
  127MOL0     H17484  11.090   6.950  -0.403  0.4418  0.4470 -0.0149
  127MOL0     H17485  11.326   6.939  -0.435 -1.8001  0.2483 -0.6853
  127MOL0     H17486  11.386   6.968  -0.266 -0.2335  0.0855  0.9457
  127MOL0     H17487  11.432   7.081  -0.400  0.0094 -0.1054  0.8136
  127MOL0     H17488  11.325   7.559  -0.125 -0.7753 -1.2854 -0.0405
  127MOL0     H17489  11.461   7.743  -0.077 -0.3059 -0.8970  0.6995
  127MOL0     H17490  11.742   7.854  -0.168 -0.0502  1.1636 -0.1570
  127MOL0     H17491  11.628   7.884  -0.032  0.4550 -0.2191 -1.9942
  127MOL0     H17492  11.820   7.923   0.112  1.6233 -0.9371  0.0605
  127MOL0     H17493  11.931   7.913  -0.026  0.4213 -0.1308  0.3857
  127MOL0     H17494  11.721   8.119   0.034 -0.3251  0.7228 -0.5588
  127MOL0     H17495  11.798   8.118  -0.128 -1.2652  0.8090 -0.0902
  127MOL0     H17496  12.011   8.167  -0.045  1.7547  1.8416  2.0993
  127MOL0     H17497  11.945   8.128   0.121 -0.8772 -0.0967  1.2683
  127MOL0     H17498  11.784   8.328   0.065  0.5926 -2.5118  2.7924
  127MOL0     H17499  11.948   8.374   0.110  0.2317 -0.0817 -0.0794
  127MOL0     H17500  11.863   8.325  -0.175  2.4769  0.2357 -1.9060
  127MOL0     H17501  12.024   8.369  -0.111 -1.3964 -4.3654  0.2067
  127MOL0     H17502  11.942   8.590  -0.031 -3.2469  4.0783  0.5296
  127MOL0     H17503  11.783   8.555  -0.055  1.9661 -0.9007  1.5004
  127MOL0     H17504  11.961   8.556  -0.298 -1.3339 -0.7696 -1.0746
  127MOL0     H17505  11.901   8.710  -0.235 -3.4309  1.3292 -0.5398
  127MOL0     H17506  11.794   7.481   0.025  0.5276  0.5983  1.9457
  127MOL0     H17507  11.636   7.297  -0.015  0.7415  0.8276  2.5994
  127MOL0     H17508  11.141   7.370  -0.140  2.3363 -2.1466  2.6207
  127MOL0     H17509  10.903   7.262  -0.183  0.3359 -0.9781 -1.2704
  127MOL0     H17510  10.125   6.639   0.890 -0.6888 -0.4031 -1.5178
  127MOL0     H17511   9.975   6.712   1.061  0.5602  1.1800 -3.1168
  127MOL0     H17512   9.592   6.496   1.280  0.5418  0.3670 -0.3571
  127MOL0     H17513   9.393   6.487   1.421  2.6810 -0.2319  0.1239
  127MOL0     H17514   9.183   6.466   1.441  0.9798 -1.3960  2.0090
  127MOL0     H17515   9.176   6.572   1.583  0.4114  1.1963 -0.1810
  127MOL0     H17516   8.954   6.478   1.533  0.2670 -2.1341 -2.0270
  127MOL0     H17517   8.942   6.550   1.372  0.8166  0.8339  0.5137
  127MOL0     H17518   8.838   6.673   1.585  0.4363 -0.0399  1.7732
  127MOL0     H17519   9.009   6.713   1.619  1.8202 -2.2598 -1.3386
  127MOL0     H17520   9.002   6.839   1.388 -0.7684  2.9908 -0.2146
  127MOL0     H17521   8.893   6.903   1.515  2.2658  0.7405 -0.1237
  127MOL0     H17522   8.587   6.775   1.270 -0.6579 -0.8448 -1.2163
  127MOL0     H17523   9.291   6.878   1.306  0.3483 -0.8451  1.7396
  127MOL0     H17524   9.546   6.926   1.073 -0.5806 -0.8890 -0.4351
  127MOL0     H17525   9.427   7.004   1.190 -1.4797 -1.8855 -0.0067
  127MOL0     H17526   9.595   6.997   1.225  0.4953  0.4197 -0.6062
  128MOL0     O17527   7.181   9.701  11.285  0.2682 -0.3998 -0.7614
  128MOL0     C17528   7.065   9.665  11.259  0.8214  0.1127  0.4082
  128MOL0     O17529   7.031   9.557  11.174 -0.7906 -0.5367 -0.6959
  128MOL0     C17530   7.123   9.463  11.134  0.5967  0.2218  0.4056
  128MOL0     C17531   7.076   9.331  11.124  0.1651 -0.4733  0.7494
  128MOL0     C17532   7.159   9.227  11.076  0.6167 -0.1909 -0.4537
  128MOL0     C17533   7.282   9.265  11.024 -0.0794  0.3723  0.4823
  128MOL0     O17534   7.372   9.178  10.970 -0.0195 -0.7312  0.8045
  128MOL0     C17535   7.336   9.038  10.958 -0.0079  0.6265  0.4685
  128MOL0     C17536   7.374   8.953  11.087 -0.6207 -0.0108 -0.2121
  128MOL0     C17537   7.515   8.997  11.132 -0.2635  1.1952 -0.4975
  128MOL0     C17538   7.613   8.935  11.034  0.2271  0.3627  0.2693
  128MOL0     C17539   7.743   8.899  11.111 -0.1580 -1.0600 -0.4885
  128MOL0     C17540   7.807   9.011  11.190 -0.9998  0.1828  0.4194
  128MOL0     C17541   7.874   9.101  11.088 -0.4177  0.5330  0.5629
  128MOL0     C17542   7.997   9.167  11.160 -0.8093  0.4097 -0.3116
  128MOL0     N17543   8.118   9.080  11.156 -0.2955 -0.1431 -1.3710
  128MOL0     C17544   8.200   9.061  11.047 -0.5900  0.0968 -0.4749
  128MOL0     C17545   8.297   8.972  11.091  0.2094 -0.3997 -0.6161
  128MOL0     C17546   8.413   8.927  11.004  0.0620 -0.2027 -0.4631
  128MOL0     C17547   8.492   9.048  10.953 -0.6542 -0.0360 -0.0680
  128MOL0     C17548   8.631   8.996  10.884  0.1692  1.4352  0.6148
  128MOL0     C17549   8.743   9.093  10.906 -0.6234  0.4795  0.6668
  128MOL0     O17550   8.793   9.090  11.042  0.8553  0.8028  0.2813
  128MOL0     C17551   8.907   9.164  11.071 -0.0219 -0.2605  0.5646
  128MOL0     C17552   8.956   9.272  10.990 -0.7363  0.4726 -0.1089
  128MOL0     C17553   9.069   9.344  11.033 -0.3150 -0.0479 -0.2700
  128MOL0     C17554   9.102   9.465  10.946 -0.4503  0.4563 -0.0666
  128MOL0     C17555   9.137   9.309  11.151  0.0366 -0.3281 -0.0499
  128MOL0     C17556   9.250   9.382  11.204 -0.8221 -0.2414  0.4232
  128MOL0     O17557   9.254   9.515  11.174 -0.4649  0.0103  0.6760
  128MOL0     C17558   9.356   9.589  11.233 -0.0364  0.8366  1.3245
  128MOL0     C17559   9.483   9.617  11.168 -0.1554 -0.0222  0.0558
  128MOL0     C17560   9.577   9.702  11.226 -0.2324 -0.7092 -0.5476
  128MOL0     C17561   9.553   9.753  11.355 -0.3165  0.7683 -0.2974
  128MOL0     O17562   9.649   9.819  11.417 -0.9890 -0.0131 -0.5030
  128MOL0     C17563   9.606   9.940  11.468 -0.3444 -0.4264 -0.2535
  128MOL0     C17564   9.718  10.046  11.436  0.4282 -0.4213 -0.3485
  128MOL0     C17565   9.697  10.190  11.493 -0.2009 -0.0922 -0.0178
  128MOL0     C17566   9.803  10.293  11.440 -0.3547  0.3164 -0.2812
  128MOL0     C17567   9.797  10.413  11.547  0.0565 -0.0205 -0.3677
  128MOL0     C17568   9.906  10.514  11.519 -0.7843 -0.1430  0.3525
  128MOL0     C17569   9.896  10.637  11.605  0.4359  0.3700 -0.8352
  128MOL0     C17570   9.996  10.746  11.569  0.4334  0.2510  0.8833
  128MOL0    Cl17571   9.988  10.900  11.651 -0.1560 -0.0717  0.1201
  128MOL0     C17572   9.440   9.719  11.424  0.1610  0.2549 -0.0406
  128MOL0     C17573   9.337   9.649  11.359 -0.8295  0.0856 -0.2138
  128MOL0     O17574   9.332   9.321  11.277 -1.0853  0.2192  0.6113
  128MOL0     C17575   9.086   9.205  11.221 -0.5206 -0.1674  0.7290
  128MOL0     C17576   8.975   9.130  11.189  0.0213  0.5496  0.7639
  128MOL0     N17577   8.269   8.948  11.228 -1.5722 -0.1767 -0.2742
  128MOL0     N17578   8.166   9.010  11.261 -0.3508 -0.4533  0.2157
  128MOL0     C17579   7.326   9.399  11.021 -0.6309 -0.2703 -0.1578
  128MOL0     C17580   7.249   9.496  11.081  0.2970  0.4797  0.3064
  128MOL0     C17581   6.954   9.744  11.313 -0.4428 -0.4806 -0.0862
  128MOL0     C17582   6.824   9.692  11.295 -1.0538  1.1417 -0.7844
  128MOL0     C17583   6.710   9.753  11.349  0.9305 -0.7684 -0.0474
  128MOL0     C17584   6.713   9.877  11.418  0.3037 -0.0708 -0.2285
  128MOL0     O17585   6.603   9.938  11.463 -0.0624 -0.2506 -0.3740
  128MOL0     C17586   6.528   9.862  11.563 -0.3383 -0.8061 -0.0093
  128MOL0     C17587   6.398   9.924  11.602 -0.2106  0.0062 -0.1988
  128MOL0     C17588   6.417  10.081  11.625 -0.2119  0.0761 -0.2495
  128MOL0     C17589   6.268  10.126  11.640  0.0318 -0.2506 -0.2696
  128MOL0     C17590   6.258  10.261  11.699  0.1052  0.3065  0.2846
  128MOL0     C17591   6.249  10.361  11.766 -0.2480 -0.2793 -0.4833
  128MOL0     C17592   6.841   9.920  11.443 -0.8615 -0.0882 -0.2753
  128MOL0     C17593   6.956   9.861  11.398 -0.4957  0.8239 -0.4027
  128MOL0     C17594   7.085   9.913  11.440  0.0678 -0.2812 -0.0288
  128MOL0     H17595   6.975   9.331  11.165  0.1029  2.6356  0.8602
  128MOL0     H17596   7.128   9.124  11.090  2.4610 -0.7775 -0.4681
  128MOL0     H17597   7.395   8.988  10.881 -1.8471 -0.7920 -0.1028
  128MOL0     H17598   7.230   9.027  10.935 -0.0352  3.4748 -1.3061
  128MOL0     H17599   7.314   8.976  11.176  0.1301  2.0294 -0.1854
  128MOL0     H17600   7.369   8.844  11.074 -2.3960 -0.0395  0.4248
  128MOL0     H17601   7.529   9.106  11.136 -0.1231  1.1822  3.6380
  128MOL0     H17602   7.531   8.956  11.232  0.9864 -2.2438 -1.9562
  128MOL0     H17603   7.569   8.846  10.989 -0.6899  2.2139 -2.8001
  128MOL0     H17604   7.631   9.002  10.949 -0.8204 -0.1205 -0.3595
  128MOL0     H17605   7.820   8.864  11.042  0.9214 -3.2293  1.6771
  128MOL0     H17606   7.720   8.814  11.177  0.5407 -0.9936 -0.1581
  128MOL0     H17607   7.744   9.068  11.259 -1.6603 -0.7460  0.6057
  128MOL0     H17608   7.891   8.965  11.241 -0.3374 -0.1177 -0.8872
  128MOL0     H17609   7.811   9.182  11.049  2.3868  2.6139  0.0362
  128MOL0     H17610   7.910   9.049  10.999  0.7240 -0.0185  1.3199
  128MOL0     H17611   8.031   9.260  11.113  0.2177  0.8316  1.1801
  128MOL0     H17612   7.980   9.193  11.265  0.1155  2.0715 -0.5271
  128MOL0     H17613   8.194   9.111  10.951 -0.1749  0.9024 -0.0925
  128MOL0     H17614   8.376   8.861  10.925  2.3766 -2.7061  0.3970
  128MOL0     H17615   8.477   8.861  11.063  0.4142 -0.3164 -0.9597
  128MOL0     H17616   8.440   9.106  10.877  0.5318  0.0998 -0.8066
  128MOL0     H17617   8.508   9.122  11.031  1.8508 -1.3158  0.7463
  128MOL0     H17618   8.660   8.897  10.922  0.5312  2.3306  2.8396
  128MOL0     H17619   8.614   8.986  10.777  1.3331 -0.7493  0.5792
  128MOL0     H17620   8.828   9.069  10.841 -0.6049  1.2343  0.3963
  128MOL0     H17621   8.710   9.193  10.874 -1.2450 -0.5048 -2.1009
  128MOL0     H17622   8.902   9.313  10.905 -2.6268 -0.3463  0.6490
  128MOL0     H17623   9.071   9.434  10.846  0.2419  1.6983 -0.6913
  128MOL0     H17624   9.210   9.478  10.948 -0.0846 -1.8547  2.6445
  128MOL0     H17625   9.045   9.555  10.972  1.8224  2.0359 -0.2097
  128MOL0     H17626   9.509   9.582  11.069 -0.3586  3.5350 -1.4254
  128MOL0     H17627   9.667   9.718  11.167 -1.0697  1.8092 -1.2832
  128MOL0     H17628   9.513   9.977  11.424  0.6302  0.3951 -1.7250
  128MOL0     H17629   9.587   9.931  11.575  1.3282  0.7894  0.1893
  128MOL0     H17630   9.811  10.014  11.483 -0.0463 -1.6293 -0.1941
  128MOL0     H17631   9.730  10.056  11.328  1.0320 -1.5905 -0.4053
  128MOL0     H17632   9.683  10.175  11.600  0.3791  2.1201  0.4147
  128MOL0     H17633   9.601  10.231  11.459 -0.5589 -0.3270  0.6835
  128MOL0     H17634   9.775  10.321  11.338  2.8651 -0.9706 -1.6392
  128MOL0     H17635   9.905  10.255  11.438 -0.2088  0.6514 -3.6309
  128MOL0     H17636   9.705  10.471  11.559 -0.3285 -0.6517 -0.2010
  128MOL0     H17637   9.825  10.375  11.645 -2.6871 -1.6519 -0.0942
  128MOL0     H17638   9.894  10.548  11.416 -0.4691  3.4692  1.3660
  128MOL0     H17639  10.006  10.469  11.529  0.0389  1.8079  1.3651
  128MOL0     H17640   9.899  10.609  11.711  1.2363 -0.1980 -0.9957
  128MOL0     H17641   9.798  10.676  11.578  1.6127  1.9862 -3.0878
  128MOL0     H17642  10.005  10.772  11.463  1.4307  0.9042  1.1180
  128MOL0     H17643  10.094  10.706  11.596 -0.1212 -3.7195 -2.0364
  128MOL0     H17644   9.421   9.753  11.526  0.1399  0.9872 -0.2885
  128MOL0     H17645   9.251   9.613  11.415 -1.0838 -3.1926 -2.4080
  128MOL0     H17646   9.124   9.203  11.322  0.9936  1.5407  0.2559
  128MOL0     H17647   8.947   9.048  11.254 -0.0964  1.7362  2.2774
  128MOL0     H17648   7.413   9.420  10.958 -0.6684 -0.1539 -0.1700
  128MOL0     H17649   7.297   9.593  11.074  1.5669 -0.1647 -0.2127
  128MOL0     H17650   6.802   9.606  11.232  1.9349  1.2787 -2.1990
  128MOL0     H17651   6.612   9.707  11.342  0.5983 -0.0068 -0.4859
  128MOL0     H17652   6.519   9.758  11.530 -1.3314 -0.6306 -0.3110
  128MOL0     H17653   6.592   9.868  11.652  0.7214  0.9809 -0.8302
  128MOL0     H17654   6.370   9.891  11.703  0.7552  1.5801  0.6404
  128MOL0     H17655   6.324   9.910  11.524 -0.1074 -2.4266  0.0824
  128MOL0     H17656   6.468  10.100  11.720 -1.1079 -1.6512  0.6257
  128MOL0     H17657   6.463  10.134  11.542  0.8185  2.4361  1.7035
  128MOL0     H17658   6.205  10.062  11.702 -0.4453 -1.1169 -1.5988
  128MOL0     H17659   6.212  10.126  11.546  1.3097  0.0694 -1.0623
  128MOL0     H17660   6.264  10.454  11.816 -0.7931 -0.4063 -0.0808
  128MOL0     H17661   6.870  10.014  11.489  2.2739  0.1148 -2.3983
  128MOL0     H17662   7.140   9.840  11.501  0.0735 -0.8869 -0.7478
  128MOL0     H17663   7.136   9.959  11.355  0.7027  0.8582  0.9312
  128MOL0     H17664   7.076   9.987  11.520  1.8876 -1.6024  1.5169
  129MOL0     O17665  10.348   7.824   1.887 -0.5394 -0.4614  0.0975
  129MOL0     C17666  10.288   7.760   1.800  0.0283  0.0376  0.7449
  129MOL0     O17667  10.307   7.768   1.667  0.0197 -0.0166  0.1862
  129MOL0     C17668  10.403   7.851   1.606 -0.1339 -0.4171  0.3839
  129MOL0     C17669  10.451   7.813   1.479  0.9307 -0.1868  0.2219
  129MOL0     C17670  10.548   7.894   1.419  0.5609  0.1899  0.7496
  129MOL0     C17671  10.593   8.011   1.477 -0.5284  0.5091 -0.2400
  129MOL0     O17672  10.699   8.077   1.419  0.0493 -0.0457 -0.6464
  129MOL0     C17673  10.829   8.025   1.450  0.3060 -0.5871  0.3582
  129MOL0     C17674  10.881   8.088   1.576  0.0733  0.1251 -0.0811
  129MOL0     C17675  11.015   8.013   1.620  0.3994  0.1364 -0.4674
  129MOL0     C17676  11.134   8.041   1.523  0.6743 -0.1241 -0.7395
  129MOL0     C17677  11.259   7.954   1.561  1.1755 -0.3380 -0.1203
  129MOL0     C17678  11.384   7.994   1.484  0.6159  0.1382  0.5901
  129MOL0     C17679  11.488   7.894   1.528 -0.1363  0.2568 -0.1549
  129MOL0     C17680  11.614   7.910   1.452  0.7364  1.1722  0.2816
  129MOL0     N17681  11.711   8.007   1.500 -0.8161 -0.1476  0.0489
  129MOL0     C17682  11.706   8.147   1.478  0.6779 -0.9824  0.4641
  129MOL0     C17683  11.814   8.195   1.549  0.3912  0.9942 -0.3645
  129MOL0     C17684  11.849   8.339   1.560  0.4938  0.5389 -0.4320
  129MOL0     C17685  11.951   8.373   1.665 -0.0672 -0.9378  0.5447
  129MOL0     C17686  11.980   8.528   1.665 -0.7152 -0.0811  0.3082
  129MOL0     C17687  11.993   8.598   1.530 -0.1885 -0.8121 -1.2372
  129MOL0     O17688  12.042   8.734   1.542 -0.0606  0.0353 -0.0080
  129MOL0     C17689  12.179   8.748   1.541 -0.2592  0.1932 -0.0876
  129MOL0     C17690  12.267   8.736   1.429 -0.0385 -0.7169 -0.9005
  129MOL0     C17691  12.405   8.756   1.442 -0.3284 -0.4687  0.6633
  129MOL0     C17692  12.497   8.711   1.327 -0.2478  0.9762  0.1510
  129MOL0     C17693  12.458   8.807   1.563  0.7118  0.3536 -0.7779
  129MOL0     C17694  12.597   8.847   1.580  0.2728 -1.0118  0.9205
  129MOL0     O17695  12.629   8.868   1.714 -0.7110  0.5790 -0.0484
  129MOL0     C17696  12.759   8.913   1.732 -0.1962  0.6249  0.6455
  129MOL0     C17697  12.776   9.044   1.777 -0.0364 -0.6293  0.6646
  129MOL0     C17698  12.906   9.102   1.805 -0.1032 -0.2890 -0.4228
  129MOL0     C17699  13.021   9.023   1.762  0.5747  0.1500 -0.1795
  129MOL0     O17700  13.158   9.054   1.778 -0.3395  0.0130  0.3286
  129MOL0     C17701  13.191   9.154   1.685 -1.4365 -0.2344 -0.2152
  129MOL0     C17702  13.338   9.199   1.711 -0.4741 -0.2835 -0.0003
  129MOL0     C17703  13.351   9.343   1.643 -0.2759  0.4540  0.2666
  129MOL0     C17704  13.490   9.381   1.597 -0.3788  0.4047 -0.0281
  129MOL0     C17705  13.486   9.493   1.494 -0.4500  1.1193  0.1737
  129MOL0     C17706  13.635   9.541   1.460  0.2186 -0.4931 -0.0049
  129MOL0     C17707  13.642   9.664   1.370  0.6540 -0.3889  0.1836
  129MOL0     C17708  13.683   9.639   1.227  0.6791  0.3542 -0.3112
  129MOL0    Cl17709  13.701   9.792   1.143  0.1185  0.0518 -0.1828
  129MOL0     C17710  13.002   8.893   1.713  0.7915  1.4941  0.4822
  129MOL0     C17711  12.873   8.836   1.703 -1.0165  0.1951 -0.1992
  129MOL0     O17712  12.665   8.879   1.482 -0.0347 -0.0090 -0.8438
  129MOL0     C17713  12.364   8.821   1.672  0.6517  0.3312  0.2520
  129MOL0     C17714  12.231   8.785   1.657  0.0322  0.0293 -0.4764
  129MOL0     N17715  11.870   8.088   1.627  0.5925 -0.9560  0.1719
  129MOL0     N17716  11.808   7.979   1.598  0.3347  0.2726  0.2009
  129MOL0     C17717  10.531   8.054   1.596  0.6449 -0.7839  0.3091
  129MOL0     C17718  10.435   7.974   1.658  0.2414 -0.0367  0.0402
  129MOL0     C17719  10.200   7.648   1.849 -0.1060  0.2698 -0.0989
  129MOL0     C17720  10.079   7.619   1.787 -0.0432 -0.9757 -0.3667
  129MOL0     C17721   9.999   7.513   1.813  0.5313  0.0319  0.4080
  129MOL0     C17722  10.032   7.411   1.919  0.0959 -0.4490 -0.2158
  129MOL0     O17723   9.961   7.303   1.962  0.2812  0.3615  1.0792
  129MOL0     C17724   9.866   7.245   1.868  0.0989  0.2915 -0.5282
  129MOL0     C17725   9.928   7.163   1.759 -0.0629 -0.1764 -0.1194
  129MOL0     C17726  10.016   7.044   1.816  0.3284  0.1338 -0.0008
  129MOL0     C17727  10.091   6.963   1.703 -0.4629 -0.2087 -0.2675
  129MOL0     C17728  10.173   6.859   1.756  0.2800  0.1822  0.1870
  129MOL0     C17729  10.233   6.759   1.801  0.5261 -0.3133 -0.4325
  129MOL0     C17730  10.140   7.449   1.995 -0.1794 -0.3548  0.5015
  129MOL0     C17731  10.229   7.565   1.961  0.3799 -0.2048 -0.6878
  129MOL0     C17732  10.351   7.579   2.050  0.2831  0.2484 -0.1205
  129MOL0     H17733  10.411   7.725   1.430  0.9159 -0.1289  0.1297
  129MOL0     H17734  10.582   7.869   1.319 -1.2459 -0.6219  0.2858
  129MOL0     H17735  10.894   8.064   1.371  0.4735 -2.0761 -0.2580
  129MOL0     H17736  10.826   7.916   1.456  2.3714 -0.6816  0.2895
  129MOL0     H17737  10.886   8.195   1.556  0.8604  0.0043 -0.5545
  129MOL0     H17738  10.816   8.078   1.664 -1.3288 -0.4594 -1.1509
  129MOL0     H17739  11.052   8.045   1.718 -1.0624  0.7179 -0.0715
  129MOL0     H17740  10.996   7.905   1.626 -0.4290  0.2746 -0.4667
  129MOL0     H17741  11.097   8.005   1.427 -2.5525 -1.9157  0.9975
  129MOL0     H17742  11.159   8.147   1.513  0.8707 -0.2232 -1.2936
  129MOL0     H17743  11.228   7.851   1.542 -1.4105  0.1424  1.1332
  129MOL0     H17744  11.281   7.975   1.666  3.1288 -0.4421 -0.4728
  129MOL0     H17745  11.366   7.988   1.376  1.2293 -0.9998  0.5315
  129MOL0     H17746  11.421   8.095   1.504 -1.2749  0.9031  0.4463
  129MOL0     H17747  11.449   7.792   1.519  1.4533 -0.3900 -0.0671
  129MOL0     H17748  11.511   7.918   1.632  1.8490 -3.1516  0.3487
  129MOL0     H17749  11.650   7.812   1.419  1.6459  2.5728 -3.2956
  129MOL0     H17750  11.584   7.946   1.353  0.0557  0.8314  0.3559
  129MOL0     H17751  11.639   8.199   1.411  1.8792 -1.5701 -1.2562
  129MOL0     H17752  11.758   8.393   1.586  0.1096 -0.5302  0.5653
  129MOL0     H17753  11.880   8.371   1.460  3.6736 -1.5226 -0.2537
  129MOL0     H17754  11.917   8.356   1.768 -2.3952  0.3196  0.0541
  129MOL0     H17755  12.049   8.325   1.651 -0.2140 -1.1558  0.2565
  129MOL0     H17756  11.900   8.576   1.723 -1.6275 -4.0204  2.7264
  129MOL0     H17757  12.078   8.531   1.714 -0.6171 -2.5775  0.4276
  129MOL0     H17758  12.067   8.547   1.466  0.9696  0.3121 -0.8357
  129MOL0     H17759  11.891   8.593   1.492 -0.1227 -2.0524 -1.3093
  129MOL0     H17760  12.213   8.693   1.345  1.6665  0.9156 -2.9260
  129MOL0     H17761  12.577   8.639   1.348 -1.0468 -1.0759 -3.0373
  129MOL0     H17762  12.552   8.794   1.283  2.6932 -1.2479 -0.7029
  129MOL0     H17763  12.444   8.666   1.243  1.1122  0.3497 -0.3955
  129MOL0     H17764  12.685   9.089   1.816 -1.2678 -0.0974 -2.5709
  129MOL0     H17765  12.902   9.196   1.860  3.4616  0.5882 -1.4464
  129MOL0     H17766  13.194   9.113   1.584  3.4271  0.3266 -0.5337
  129MOL0     H17767  13.122   9.239   1.694 -1.9950 -0.8194  1.3275
  129MOL0     H17768  13.358   9.208   1.819 -1.9145 -0.4996  0.3094
  129MOL0     H17769  13.402   9.122   1.668 -1.1713  0.0274 -1.6514
  129MOL0     H17770  13.314   9.413   1.719 -2.0266  1.8385 -1.7214
  129MOL0     H17771  13.284   9.349   1.556  1.2164 -0.7566 -1.0295
  129MOL0     H17772  13.539   9.300   1.542 -0.8540  1.5545 -2.2602
  129MOL0     H17773  13.544   9.408   1.688  0.2194 -1.8158  0.3137
  129MOL0     H17774  13.433   9.455   1.407  1.5142 -0.9032 -0.2439
  129MOL0     H17775  13.423   9.575   1.531 -0.9947  1.4821 -1.4551
  129MOL0     H17776  13.684   9.458   1.409  1.1954  1.0395 -1.6924
  129MOL0     H17777  13.683   9.552   1.558 -0.9311 -0.1942  0.5393
  129MOL0     H17778  13.706   9.739   1.417 -0.2392 -0.0225  0.8704
  129MOL0     H17779  13.549   9.721   1.363  0.8659 -0.1549 -0.9432
  129MOL0     H17780  13.617   9.569   1.176 -0.6070  0.3765  1.2679
  129MOL0     H17781  13.784   9.597   1.233  0.3867 -0.4087 -0.6691
  129MOL0     H17782  13.092   8.841   1.683  0.3214 -0.0020  1.5374
  129MOL0     H17783  12.866   8.731   1.675  1.4567 -0.1473  0.2107
  129MOL0     H17784  12.397   8.841   1.773  0.4214 -0.6750  0.5377
  129MOL0     H17785  12.170   8.793   1.747  1.6801 -2.2918  0.9567
  129MOL0     H17786  10.552   8.155   1.631 -0.5821 -0.8706  1.3914
  129MOL0     H17787  10.392   8.019   1.747 -0.9676  1.0963 -1.0778
  129MOL0     H17788  10.045   7.680   1.703 -0.3681 -2.1386 -1.0985
  129MOL0     H17789   9.899   7.504   1.772 -0.5036 -0.2892  2.8209
  129MOL0     H17790   9.806   7.172   1.923  1.0606 -1.2179 -1.4403
  129MOL0     H17791   9.793   7.311   1.820 -2.4162 -1.2581  0.9286
  129MOL0     H17792   9.977   7.231   1.689 -1.6147  2.0698  0.8411
  129MOL0     H17793   9.860   7.108   1.693  1.5303 -0.2701 -1.7650
  129MOL0     H17794  10.097   7.089   1.874  0.9958 -1.3921  0.3176
  129MOL0     H17795   9.961   6.974   1.880 -1.4806  0.9708 -0.5730
  129MOL0     H17796  10.160   7.025   1.646 -0.1460 -1.1469 -0.9299
  129MOL0     H17797  10.012   6.926   1.636 -1.3482 -0.7240  1.0252
  129MOL0     H17798  10.274   6.669   1.840  0.4730  1.5850  4.8554
  129MOL0     H17799  10.158   7.393   2.086 -0.6478  1.2796  1.6501
  129MOL0     H17800  10.354   7.683   2.083  2.4572  0.1160  0.2621
  129MOL0     H17801  10.351   7.526   2.146  1.1001  1.7824  0.7677
  129MOL0     H17802  10.442   7.552   1.995  1.7537 -0.2973  2.3877
  130MOL0     O17803   0.273  11.172   7.693 -0.1124 -0.3671 -0.4542
  130MOL0     C17804   0.332  11.153   7.801 -0.2159 -0.8390 -0.4284
  130MOL0     O17805   0.395  11.252   7.866 -0.3542 -0.1061 -0.3811
  130MOL0     C17806   0.445  11.361   7.795 -0.0984 -0.1492  0.9622
  130MOL0     C17807   0.580  11.368   7.760  0.5850 -0.1423 -0.1811
  130MOL0     C17808   0.631  11.473   7.688  0.2428  0.1858 -0.8001
  130MOL0     C17809   0.548  11.579   7.653 -0.2742  0.0322  0.8670
  130MOL0     O17810   0.606  11.691   7.584 -0.1927  0.7399 -0.2974
  130MOL0     C17811   0.522  11.807   7.571  0.0046  0.6061  1.0145
  130MOL0     C17812   0.602  11.899   7.472  0.4096 -0.2134 -0.1213
  130MOL0     C17813   0.647  11.833   7.343  0.2742 -0.2997  0.2169
  130MOL0     C17814   0.701  11.938   7.247  0.1473  0.7804  0.7510
  130MOL0     C17815   0.782  11.865   7.140  0.2938  0.1268 -0.2967
  130MOL0     C17816   0.839  11.963   7.042  0.2405 -0.7213  1.0804
  130MOL0     C17817   0.943  11.903   6.949  0.7880  0.5019 -0.6735
  130MOL0     C17818   1.083  11.904   7.008  0.3866 -0.6115 -0.7347
  130MOL0     N17819   1.129  12.041   7.022 -0.1166 -0.0747  0.8815
  130MOL0     C17820   1.139  12.115   7.129  0.0521 -0.4321 -0.6742
  130MOL0     C17821   1.220  12.218   7.096  0.0145  0.2712  0.0698
  130MOL0     C17822   1.255  12.324   7.199  0.0604 -0.4700  0.1211
  130MOL0     C17823   1.270  12.278   7.344  0.6896  0.0079 -0.2310
  130MOL0     C17824   1.381  12.173   7.365  0.4354  1.0683 -0.1504
  130MOL0     C17825   1.365  12.091   7.500 -0.1280  0.0183  0.3157
  130MOL0     O17826   1.243  12.017   7.524 -0.1127  0.1002  0.8025
  130MOL0     C17827   1.228  11.896   7.457  0.0666  0.3099 -0.1487
  130MOL0     C17828   1.121  11.816   7.492  0.4448  0.6069 -0.1476
  130MOL0     C17829   1.098  11.703   7.419  1.0980 -0.2355  0.5083
  130MOL0     C17830   0.971  11.634   7.452 -1.0210 -0.2452 -0.8196
  130MOL0     C17831   1.191  11.641   7.322 -0.4537 -0.7051  0.2348
  130MOL0     C17832   1.176  11.520   7.238  0.8973 -0.3165  0.4212
  130MOL0     O17833   1.286  11.475   7.172  0.8019 -0.1729 -0.4583
  130MOL0     C17834   1.285  11.346   7.116 -0.0539 -0.0535  0.6060
  130MOL0     C17835   1.265  11.225   7.196  0.3731  0.1774 -0.2749
  130MOL0     C17836   1.268  11.102   7.141 -0.2662 -0.1034  0.1213
  130MOL0     C17837   1.293  11.083   7.006 -0.4046  0.5236 -0.9992
  130MOL0     O17838   1.298  10.949   6.958 -0.3762 -0.7533 -0.3155
  130MOL0     C17839   1.364  10.931   6.834 -0.2046  0.1604  0.1083
  130MOL0     C17840   1.517  10.966   6.833  0.4771  0.6939  0.7088
  130MOL0     C17841   1.597  10.922   6.957  0.2876  0.1380 -0.3190
  130MOL0     C17842   1.596  10.767   6.977  1.3235  2.0068 -0.4089
  130MOL0     C17843   1.722  10.722   7.060 -0.1236  0.9447  0.0558
  130MOL0     C17844   1.735  10.753   7.211 -0.4436 -0.0141  0.2469
  130MOL0     C17845   1.866  10.681   7.249  0.2697 -0.1134  0.0994
  130MOL0     C17846   1.915  10.710   7.393  0.8908  0.3739  0.5578
  130MOL0    Cl17847   1.931  10.890   7.399 -0.0353 -0.1967 -0.0438
  130MOL0     C17848   1.302  11.202   6.927  0.6141  1.0001 -0.0703
  130MOL0     C17849   1.305  11.327   6.977  0.8792  0.1287  0.8438
  130MOL0     O17850   1.062  11.471   7.231  0.8578 -0.2550  0.6543
  130MOL0     C17851   1.300  11.731   7.298 -0.1537 -0.0625 -0.5600
  130MOL0     C17852   1.313  11.850   7.361 -0.1567 -0.2284 -0.0074
  130MOL0     N17853   1.263  12.206   6.965 -0.2827 -0.0654 -0.0428
  130MOL0     N17854   1.208  12.093   6.924  0.4841 -0.4252 -0.1854
  130MOL0     C17855   0.412  11.577   7.687  0.3351 -0.8001 -0.1024
  130MOL0     C17856   0.350  11.470   7.759  0.9881 -1.1686  0.1544
  130MOL0     C17857   0.336  11.022   7.875 -0.0275 -1.1194  0.4078
  130MOL0     C17858   0.392  11.023   8.006  0.5000 -0.1882  0.4102
  130MOL0     C17859   0.384  10.910   8.087  0.0078 -1.3357 -0.0070
  130MOL0     C17860   0.336  10.792   8.035 -0.3802 -0.3308  0.2265
  130MOL0     O17861   0.337  10.674   8.108  0.3519  0.3290 -0.0326
  130MOL0     C17862   0.351  10.544   8.044 -0.2883 -0.7558 -0.4717
  130MOL0     C17863   0.236  10.459   8.091  0.2091  0.5718  0.2009
  130MOL0     C17864   0.230  10.320   8.027  0.7080  0.0408  0.3760
  130MOL0     C17865   0.243  10.305   7.878  0.3907 -0.1709  0.0507
  130MOL0     C17866   0.157  10.405   7.802  0.0008  0.7033 -0.6187
  130MOL0     C17867   0.082  10.469   7.737 -0.8615 -0.0414 -0.2103
  130MOL0     C17868   0.282  10.792   7.904 -0.5160  0.6102  0.0585
  130MOL0     C17869   0.279  10.907   7.826 -0.0986 -0.3110  1.1030
  130MOL0     C17870   0.206  10.904   7.687 -0.7081 -0.1199 -0.7140
  130MOL0     H17871   0.634  11.280   7.794  0.5636  0.4873  1.5689
  130MOL0     H17872   0.737  11.462   7.665  0.4851 -1.4065  0.8139
  130MOL0     H17873   0.506  11.860   7.665 -1.3059  2.7519 -0.3462
  130MOL0     H17874   0.426  11.791   7.521  0.3773  2.7937 -0.5666
  130MOL0     H17875   0.548  11.991   7.449  0.1512 -1.1209 -3.6950
  130MOL0     H17876   0.696  11.930   7.518 -1.1454  1.5642  2.0611
  130MOL0     H17877   0.732  11.768   7.366 -1.1020 -1.6899  1.6046
  130MOL0     H17878   0.557  11.790   7.297 -1.8189  1.5325  2.3963
  130MOL0     H17879   0.616  11.997   7.211 -1.4664 -1.6841  0.2602
  130MOL0     H17880   0.767  12.005   7.302  2.4406 -2.3238  2.0750
  130MOL0     H17881   0.717  11.788   7.096  0.1452 -0.3537  0.7496
  130MOL0     H17882   0.866  11.816   7.188  1.2460  1.8117 -0.1891
  130MOL0     H17883   0.756  12.007   6.986  2.0144 -0.9749 -1.9715
  130MOL0     H17884   0.883  12.053   7.086  1.8766 -0.1282 -1.5441
  130MOL0     H17885   0.947  11.963   6.858  4.0532  1.1868 -0.2243
  130MOL0     H17886   0.916  11.800   6.923  0.4722 -1.4124  5.4932
  130MOL0     H17887   1.082  11.864   7.110  3.0431 -0.0951 -0.4179
  130MOL0     H17888   1.159  11.846   6.955 -1.1444 -3.3361 -0.1849
  130MOL0     H17889   1.102  12.097   7.229  2.7453 -0.7707  0.3611
  130MOL0     H17890   1.183  12.405   7.190 -3.1121 -3.0117  0.9303
  130MOL0     H17891   1.352  12.369   7.173  0.0232 -0.3286  0.2320
  130MOL0     H17892   1.287  12.369   7.402 -3.1411  0.6200  0.1892
  130MOL0     H17893   1.165  12.249   7.360 -0.5301  1.1985 -4.5889
  130MOL0     H17894   1.387  12.100   7.284 -1.8661 -0.5587  1.0263
  130MOL0     H17895   1.477  12.224   7.367 -0.6248  3.2880 -1.5456
  130MOL0     H17896   1.456  12.031   7.497 -0.5956 -0.6585 -1.9156
  130MOL0     H17897   1.379  12.162   7.582  0.3200 -0.1784  0.4091
  130MOL0     H17898   1.055  11.842   7.574 -0.1010 -0.9260 -0.0603
  130MOL0     H17899   0.916  11.696   7.524  2.4835  1.8275  0.3090
  130MOL0     H17900   1.000  11.536   7.492  0.4711 -1.7182 -4.9667
  130MOL0     H17901   0.909  11.616   7.364 -0.0511 -1.8581 -1.2326
  130MOL0     H17902   1.248  11.220   7.303  1.2428  2.3679  0.0240
  130MOL0     H17903   1.258  11.010   7.198 -2.0003 -0.5918 -0.9037
  130MOL0     H17904   1.353  10.824   6.815 -1.5312  0.1966  0.5325
  130MOL0     H17905   1.312  10.976   6.749 -1.0819 -0.8771  0.0684
  130MOL0     H17906   1.574  10.924   6.750  0.7049  1.4776  0.4589
  130MOL0     H17907   1.519  11.074   6.819 -0.5354  0.4026 -2.5254
  130MOL0     H17908   1.558  10.949   7.056 -1.2268 -1.0531 -0.5460
  130MOL0     H17909   1.692  10.974   6.945 -1.2958  4.4278  2.8810
  130MOL0     H17910   1.598  10.705   6.887 -1.2367  0.3077  0.5753
  130MOL0     H17911   1.511  10.736   7.039  2.6415  3.4359  2.2900
  130MOL0     H17912   1.722  10.613   7.047  1.4107  1.1312 -1.9605
  130MOL0     H17913   1.806  10.763   7.003  1.3506 -1.2132  0.5230
  130MOL0     H17914   1.657  10.724   7.282  0.6385  0.5220  1.7364
  130MOL0     H17915   1.744  10.862   7.221 -0.7769  0.0315  0.0474
  130MOL0     H17916   1.946  10.720   7.185 -0.3250  2.2275  0.6766
  130MOL0     H17917   1.858  10.572   7.243  0.0577 -0.4448  4.0057
  130MOL0     H17918   1.998  10.642   7.412 -3.9319 -6.1466  1.8881
  130MOL0     H17919   1.847  10.690   7.476  1.3588  2.8562  1.6226
  130MOL0     H17920   1.305  11.191   6.819 -0.3120 -0.8503  0.0489
  130MOL0     H17921   1.308  11.413   6.910  0.0440 -0.2525  0.3019
  130MOL0     H17922   1.382  11.695   7.237  1.0952 -0.2804  1.1737
  130MOL0     H17923   1.410  11.894   7.343  0.5237 -1.6419  0.1045
  130MOL0     H17924   0.337  11.654   7.672 -0.0214 -0.7318  1.7401
  130MOL0     H17925   0.244  11.472   7.784  0.2899  3.5107 -2.0765
  130MOL0     H17926   0.443  11.114   8.034  1.0479 -0.8155  1.4942
  130MOL0     H17927   0.420  10.913   8.190 -5.3069  0.0952  2.1895
  130MOL0     H17928   0.358  10.549   7.934  0.3856 -1.2046 -0.4560
  130MOL0     H17929   0.447  10.504   8.076  0.0143 -1.1779 -1.8318
  130MOL0     H17930   0.137  10.498   8.066 -0.2470 -0.9056 -0.4325
  130MOL0     H17931   0.227  10.442   8.199 -3.3444 -2.9456 -0.4003
  130MOL0     H17932   0.300  10.249   8.071  0.9197 -1.4659 -2.2259
  130MOL0     H17933   0.131  10.282   8.056 -0.5087  3.1760  0.8168
  130MOL0     H17934   0.218  10.200   7.857  2.0154 -0.6533  0.4187
  130MOL0     H17935   0.344  10.327   7.843  0.1378 -1.5190 -1.7015
  130MOL0     H17936   0.018  10.539   7.686  0.4090  2.7680  1.7433
  130MOL0     H17937   0.233  10.707   7.858 -1.3504  0.5607  1.0131
  130MOL0     H17938   0.172  10.804   7.659 -1.9004 -0.3055  1.2373
  130MOL0     H17939   0.124  10.975   7.697 -0.0131  0.4555  1.5903
  130MOL0     H17940   0.272  10.939   7.607  0.7681  0.2115  0.5927
  131MOL0     O17941   8.727   5.141   7.174  0.5644 -0.0202 -0.2410
  131MOL0     C17942   8.769   5.030   7.219 -0.0320 -0.8460 -0.0613
  131MOL0     O17943   8.884   4.970   7.179 -0.4882 -0.2069  0.1409
  131MOL0     C17944   8.969   5.043   7.098  0.3540  0.2106  0.4185
  131MOL0     C17945   9.086   5.095   7.154 -0.2265 -0.1332  0.4581
  131MOL0     C17946   9.186   5.146   7.081  0.0036  0.0038  0.2081
  131MOL0     C17947   9.173   5.148   6.939 -0.0132  0.8198 -0.8161
  131MOL0     O17948   9.278   5.178   6.863  0.0135 -0.5821 -0.5179
  131MOL0     C17949   9.285   5.139   6.728 -0.4838 -0.8428 -0.5895
  131MOL0     C17950   9.419   5.177   6.689 -0.5335 -0.4965 -0.7368
  131MOL0     C17951   9.532   5.096   6.760  0.2006 -0.8797  0.5986
  131MOL0     C17952   9.665   5.163   6.753  0.0507  0.1763  0.9370
  131MOL0     C17953   9.765   5.101   6.659  0.7863  1.2785 -0.5495
  131MOL0     C17954   9.907   5.174   6.676  0.0129 -0.3790 -0.2514
  131MOL0     C17955  10.017   5.110   6.589 -0.4289  0.1481 -1.1514
  131MOL0     C17956  10.161   5.172   6.601 -0.0859 -0.6106 -0.4014
  131MOL0     N17957  10.166   5.314   6.645  0.4779  0.5492  0.1974
  131MOL0     C17958  10.192   5.363   6.767 -0.5043 -0.9849  0.7254
  131MOL0     C17959  10.216   5.497   6.745  0.6783 -0.8431  0.0955
  131MOL0     C17960  10.243   5.611   6.842 -0.2508 -0.1196 -0.4068
  131MOL0     C17961  10.362   5.571   6.934 -0.3081  0.0100 -0.0603
  131MOL0     C17962  10.491   5.560   6.840  0.0504  0.6047  0.2185
  131MOL0     C17963  10.627   5.565   6.922 -0.2169  0.6717  0.2389
  131MOL0     O17964  10.612   5.467   7.013  0.2861  0.9537  0.1420
  131MOL0     C17965  10.719   5.432   7.087  0.6791  0.1419  0.1360
  131MOL0     C17966  10.843   5.491   7.068  0.0785 -0.7607  0.3683
  131MOL0     C17967  10.946   5.471   7.158 -0.7307  0.4670  0.2035
  131MOL0     C17968  11.079   5.535   7.115  0.2290  0.9166  0.1504
  131MOL0     C17969  10.936   5.389   7.270  0.4555 -0.2010 -1.2029
  131MOL0     C17970  11.047   5.374   7.376 -0.0770 -0.3569  0.7181
  131MOL0     O17971  11.172   5.378   7.324  0.0553 -0.3883 -0.5710
  131MOL0     C17972  11.274   5.289   7.362  0.5163  0.5509  0.1699
  131MOL0     C17973  11.396   5.335   7.326  0.4869  0.0669 -0.8291
  131MOL0     C17974  11.521   5.261   7.345  1.0684  0.6638  0.2907
  131MOL0     C17975  11.509   5.141   7.418 -0.2401  0.6634 -0.2047
  131MOL0     O17976  11.619   5.069   7.465  0.0794  0.2780 -0.7813
  131MOL0     C17977  11.755   5.102   7.433  1.1914 -0.0419  0.3421
  131MOL0     C17978  11.814   5.200   7.528  0.2369 -0.5031  0.0627
  131MOL0     C17979  11.965   5.192   7.508 -0.4617  0.0860  0.6891
  131MOL0     C17980  12.036   5.264   7.626 -0.0461  0.7605  0.5073
  131MOL0     C17981  12.192   5.259   7.611 -0.0229 -0.9874  0.5602
  131MOL0     C17982  12.262   5.296   7.734 -0.2378 -0.1597 -0.0131
  131MOL0     C17983  12.409   5.318   7.715 -0.0888 -0.5660  0.7354
  131MOL0     C17984  12.443   5.467   7.696  0.3025 -0.2715 -0.2152
  131MOL0    Cl17985  12.410   5.561   7.843  0.8106  0.0383 -0.3155
  131MOL0     C17986  11.382   5.105   7.454 -0.1339  0.4333 -0.2559
  131MOL0     C17987  11.269   5.162   7.425  0.7768 -0.3942  0.3167
  131MOL0     O17988  11.016   5.316   7.477 -0.2151  0.0876  0.3072
  131MOL0     C17989  10.813   5.323   7.289  1.1513  0.3630 -0.4908
  131MOL0     C17990  10.710   5.345   7.199  0.1313 -0.3837  0.1834
  131MOL0     N17991  10.197   5.524   6.614  0.8457  0.3171 -0.3671
  131MOL0     N17992  10.172   5.416   6.552  0.5026  0.5765 -0.7796
  131MOL0     C17993   9.050   5.103   6.876 -0.9659 -0.1732 -0.9615
  131MOL0     C17994   8.961   5.040   6.960  0.1714  0.0569  0.0580
  131MOL0     C17995   8.701   4.967   7.341  0.4237  0.4831  0.0414
  131MOL0     C17996   8.756   4.854   7.398 -0.9382  0.3150 -0.2247
  131MOL0     C17997   8.715   4.806   7.521  0.8357 -0.4065 -0.0288
  131MOL0     C17998   8.588   4.856   7.573 -0.2712  0.3242 -0.1137
  131MOL0     O17999   8.549   4.799   7.688 -0.9712 -0.1195 -0.0152
  131MOL0     C18000   8.411   4.811   7.726 -0.0024 -0.1028 -0.6480
  131MOL0     C18001   8.388   4.724   7.845 -0.0101  0.2806  0.3179
  131MOL0     C18002   8.238   4.686   7.862  0.9140 -0.1669 -0.0032
  131MOL0     C18003   8.160   4.815   7.905 -0.1963  1.0372  0.4348
  131MOL0     C18004   8.099   4.803   8.047  0.0130 -0.0933  0.3913
  131MOL0     C18005   8.053   4.796   8.155  0.2707 -0.4131  0.5505
  131MOL0     C18006   8.532   4.969   7.515 -0.6386 -0.8434 -0.5431
  131MOL0     C18007   8.580   5.027   7.395 -0.2375  0.7236 -0.4860
  131MOL0     C18008   8.521   5.156   7.351  0.2752  0.6617 -0.2643
  131MOL0     H18009   9.101   5.086   7.261  1.1414 -1.5144  0.2032
  131MOL0     H18010   9.280   5.185   7.120  1.2156 -0.8196 -1.7434
  131MOL0     H18011   9.211   5.202   6.677 -3.3580 -3.5120  0.0085
  131MOL0     H18012   9.260   5.034   6.712 -2.3807 -0.4398 -0.4490
  131MOL0     H18013   9.421   5.178   6.580  1.8794  0.9900 -0.7513
  131MOL0     H18014   9.439   5.282   6.713  2.8996 -1.2740  0.4384
  131MOL0     H18015   9.499   5.081   6.863 -4.0501  1.6871 -0.1700
  131MOL0     H18016   9.535   4.999   6.711  2.8636  0.6188 -2.6263
  131MOL0     H18017   9.638   5.263   6.715 -0.3825  0.2724  1.4811
  131MOL0     H18018   9.702   5.172   6.855  3.5094 -0.3187 -0.1571
  131MOL0     H18019   9.725   5.109   6.557 -0.0973 -0.2521 -0.3447
  131MOL0     H18020   9.770   4.994   6.678 -0.1088  0.7283 -3.0716
  131MOL0     H18021   9.901   5.279   6.645 -4.4002  1.3906  4.9839
  131MOL0     H18022   9.932   5.175   6.783  2.1203  4.1145 -0.5572
  131MOL0     H18023   9.990   5.126   6.484  0.2663  3.4615 -0.9211
  131MOL0     H18024  10.034   5.005   6.615  1.5540  1.0745  1.8200
  131MOL0     H18025  10.211   5.107   6.673 -0.6964  0.8537  1.4669
  131MOL0     H18026  10.210   5.162   6.504 -0.8930 -1.5534 -0.7303
  131MOL0     H18027  10.184   5.306   6.859 -1.5563 -2.6263 -0.3324
  131MOL0     H18028  10.151   5.623   6.899 -1.0552 -0.8590 -1.5009
  131MOL0     H18029  10.258   5.709   6.795  1.8559 -1.0563 -1.8576
  131MOL0     H18030  10.383   5.648   7.009  0.3446 -0.4071  0.1918
  131MOL0     H18031  10.346   5.484   6.998  4.1349 -0.4033  0.8030
  131MOL0     H18032  10.475   5.468   6.783 -1.0538  0.9343 -0.0408
  131MOL0     H18033  10.499   5.639   6.764 -2.1678  1.8404  1.1681
  131MOL0     H18034  10.714   5.550   6.858  0.1744 -0.2853  0.9558
  131MOL0     H18035  10.635   5.659   6.977 -0.8213  2.1484 -2.0656
  131MOL0     H18036  10.858   5.562   6.987 -0.5812 -2.1138 -0.9934
  131MOL0     H18037  11.061   5.607   7.035 -1.2884 -0.7945 -1.1336
  131MOL0     H18038  11.150   5.464   7.071  0.1931  0.6007  0.5948
  131MOL0     H18039  11.116   5.591   7.201 -1.6015 -0.2903  1.8140
  131MOL0     H18040  11.400   5.432   7.279 -0.6546  0.6414  0.1999
  131MOL0     H18041  11.614   5.300   7.306  0.4475  0.4803 -1.4376
  131MOL0     H18042  11.808   5.006   7.438  0.4914 -0.3901  1.6305
  131MOL0     H18043  11.759   5.140   7.331  0.7616 -0.0853  0.3074
  131MOL0     H18044  11.782   5.301   7.502 -0.2609 -0.4274  0.9371
  131MOL0     H18045  11.792   5.177   7.633  0.7375  1.1598  0.5642
  131MOL0     H18046  12.006   5.234   7.415  1.3986  2.0377  2.3000
  131MOL0     H18047  11.996   5.087   7.514 -1.1099 -0.0765  1.3117
  131MOL0     H18048  12.010   5.233   7.728 -0.3119  3.4296  1.3414
  131MOL0     H18049  12.002   5.367   7.619 -4.8372 -0.4409  2.3974
  131MOL0     H18050  12.215   5.164   7.562 -0.2513  0.9246 -3.6991
  131MOL0     H18051  12.222   5.327   7.530 -0.3472 -2.0465 -0.4680
  131MOL0     H18052  12.257   5.207   7.797  1.7389 -1.8676 -2.0943
  131MOL0     H18053  12.219   5.384   7.782 -1.9465 -0.6132 -0.6565
  131MOL0     H18054  12.441   5.265   7.624  0.8612  1.7691 -0.3583
  131MOL0     H18055  12.476   5.278   7.791 -0.9461 -1.2362  1.1547
  131MOL0     H18056  12.393   5.508   7.607 -3.7152 -0.4620  1.7477
  131MOL0     H18057  12.548   5.488   7.675 -0.6322  3.7873 -1.9412
  131MOL0     H18058  11.389   5.007   7.502 -1.1041  0.1161 -0.7507
  131MOL0     H18059  11.173   5.116   7.445  1.9826 -2.6178  1.3183
  131MOL0     H18060  10.787   5.267   7.378  2.2934  0.2087 -0.2285
  131MOL0     H18061  10.612   5.305   7.221 -1.5472  1.6489 -2.9437
  131MOL0     H18062   9.043   5.118   6.769  1.9605  0.7605 -1.0927
  131MOL0     H18063   8.880   4.982   6.915  0.6803  0.0384 -0.8761
  131MOL0     H18064   8.841   4.807   7.349  0.0862  0.0192  1.7258
  131MOL0     H18065   8.758   4.715   7.562  3.3644  0.4197 -0.7110
  131MOL0     H18066   8.378   4.915   7.738 -0.4454 -0.5422  2.9499
  131MOL0     H18067   8.358   4.764   7.642  0.4240 -0.6476 -0.6185
  131MOL0     H18068   8.427   4.778   7.931  1.1770  0.3945 -0.2689
  131MOL0     H18069   8.436   4.627   7.830 -0.1228 -0.0742  2.0969
  131MOL0     H18070   8.182   4.644   7.778 -1.7702 -0.1757  1.6684
  131MOL0     H18071   8.230   4.617   7.947 -2.4458  2.4625  2.0811
  131MOL0     H18072   8.076   4.831   7.837  0.4235 -0.9357 -0.8848
  131MOL0     H18073   8.225   4.902   7.898  1.0906 -0.0037 -1.5800
  131MOL0     H18074   8.018   4.783   8.256  2.3649  1.7245  1.6470
  131MOL0     H18075   8.448   5.020   7.562  2.3391  3.7219  0.4185
  131MOL0     H18076   8.494   5.156   7.245 -1.9956  0.0817  0.2605
  131MOL0     H18077   8.433   5.196   7.403 -0.3855  0.7138 -1.3941
  131MOL0     H18078   8.596   5.233   7.368  2.9723 -1.6214 -1.0093
  132MOL0     O18079   2.312   3.488   0.855 -0.0506  0.3335  0.8600
  132MOL0     C18080   2.281   3.427   0.957 -1.1145  0.6848  0.9871
  132MOL0     O18081   2.355   3.435   1.079 -0.3309 -0.5866  0.5852
  132MOL0     C18082   2.480   3.491   1.100  0.5520 -0.5333  1.1118
  132MOL0     C18083   2.575   3.519   0.990  0.4312  0.2954 -0.1592
  132MOL0     C18084   2.693   3.583   1.023 -0.4425 -0.7887  0.8880
  132MOL0     C18085   2.727   3.614   1.156 -0.1868  0.3064  1.1717
  132MOL0     O18086   2.849   3.677   1.172  0.7591  0.5140  0.4165
  132MOL0     C18087   2.932   3.614   1.262 -0.6754  0.6015 -0.6515
  132MOL0     C18088   3.007   3.482   1.220  0.6637 -0.4025  0.3324
  132MOL0     C18089   3.088   3.482   1.089  0.0345  0.0769  0.3481
  132MOL0     C18090   3.194   3.592   1.099 -0.8798 -0.1949 -0.8694
  132MOL0     C18091   3.288   3.609   0.980 -0.0099 -0.5090 -0.5783
  132MOL0     C18092   3.422   3.682   1.024 -0.3531  0.2550 -0.4737
  132MOL0     C18093   3.512   3.702   0.911  0.2581  0.8149  0.5819
  132MOL0     C18094   3.660   3.729   0.946 -0.6453 -0.4296 -0.1813
  132MOL0     N18095   3.754   3.622   0.938 -0.4122  0.4324  0.0746
  132MOL0     C18096   3.728   3.480   0.927 -0.1791  0.1046 -0.0957
  132MOL0     C18097   3.845   3.425   0.913 -0.3957  0.1048 -0.1155
  132MOL0     C18098   3.879   3.281   0.915  0.2050 -0.0156 -0.2618
  132MOL0     C18099   3.821   3.208   1.041  0.1911 -0.6128  0.0592
  132MOL0     C18100   3.820   3.053   1.032 -0.6351  0.3841  0.9864
  132MOL0     C18101   3.959   3.006   0.982 -0.0000  0.7284 -0.1781
  132MOL0     O18102   3.973   2.866   1.001  0.0941 -0.2269  0.4287
  132MOL0     C18103   4.067   2.820   1.091 -0.2974 -0.5022  0.4308
  132MOL0     C18104   4.033   2.735   1.195  0.2030 -0.1917  0.0452
  132MOL0     C18105   4.127   2.670   1.278  0.1602  0.1991 -0.1710
  132MOL0     C18106   4.084   2.559   1.368 -0.0813 -0.4642 -0.0854
  132MOL0     C18107   4.263   2.700   1.267 -0.4655  0.4539  0.2155
  132MOL0     C18108   4.382   2.656   1.353 -0.0711 -0.1933 -0.9189
  132MOL0     O18109   4.509   2.657   1.303 -0.8118  0.6099 -0.7166
  132MOL0     C18110   4.618   2.638   1.386 -0.6582  0.1618  0.6874
  132MOL0     C18111   4.634   2.550   1.492  0.0349 -0.1670 -0.0041
  132MOL0     C18112   4.762   2.545   1.558 -0.8209 -0.1762  0.4458
  132MOL0     C18113   4.859   2.642   1.536 -0.1470 -0.3560  0.4207
  132MOL0     O18114   4.979   2.624   1.604 -0.3454 -0.5076 -0.3099
  132MOL0     C18115   5.045   2.743   1.637  0.6884 -0.0019  0.3144
  132MOL0     C18116   5.161   2.715   1.725 -0.0326  0.2722  0.7127
  132MOL0     C18117   5.167   2.588   1.808 -0.0301  0.2982  0.3952
  132MOL0     C18118   5.255   2.601   1.927 -0.2202 -0.4905 -0.5787
  132MOL0     C18119   5.314   2.461   1.972  0.5911  0.0603 -0.4784
  132MOL0     C18120   5.425   2.492   2.079 -0.2100  0.1477 -0.1037
  132MOL0     C18121   5.388   2.583   2.200 -0.5730  0.2821  0.2879
  132MOL0     C18122   5.512   2.652   2.241 -0.4483 -0.3339  0.4165
  132MOL0    Cl18123   5.637   2.564   2.322 -0.1115  0.0681  0.4978
  132MOL0     C18124   4.851   2.723   1.421 -0.5152 -0.7080  0.3730
  132MOL0     C18125   4.732   2.714   1.344  0.1621 -0.4124 -0.2283
  132MOL0     O18126   4.350   2.635   1.474 -0.9413  0.2920 -0.1085
  132MOL0     C18127   4.302   2.784   1.160 -0.0242  0.3301  0.1437
  132MOL0     C18128   4.204   2.841   1.074 -0.2439 -0.1851 -0.3641
  132MOL0     N18129   3.942   3.531   0.910  0.5825  0.4097  0.0119
  132MOL0     N18130   3.885   3.645   0.923 -0.3266 -0.6150 -0.4210
  132MOL0     C18131   2.636   3.594   1.255  0.2220 -0.3101  0.2148
  132MOL0     C18132   2.507   3.526   1.231  0.1858  0.1747  0.8257
  132MOL0     C18133   2.155   3.359   0.954 -0.3502  0.3443  0.2621
  132MOL0     C18134   2.081   3.361   0.832  0.4054 -0.3116 -0.5170
  132MOL0     C18135   1.966   3.286   0.822  0.2465 -0.4864  0.2763
  132MOL0     C18136   1.913   3.225   0.930 -0.7498 -0.0308  1.1322
  132MOL0     O18137   1.794   3.163   0.898  0.0747  0.3909  0.2094
  132MOL0     C18138   1.740   3.062   0.986  0.2835  0.5310  0.0382
  132MOL0     C18139   1.681   2.940   0.908  0.5880 -0.6981  0.4080
  132MOL0     C18140   1.796   2.842   0.856 -0.0765 -0.0034  0.5858
  132MOL0     C18141   1.742   2.727   0.783  0.5385  0.0324 -0.5014
  132MOL0     C18142   1.661   2.643   0.875 -0.0354  0.0099 -0.2457
  132MOL0     C18143   1.596   2.574   0.948 -0.4371  0.0980  0.4258
  132MOL0     C18144   1.985   3.219   1.053 -0.3078  0.3058  0.2951
  132MOL0     C18145   2.109   3.284   1.068 -0.3591 -0.3456 -0.0369
  132MOL0     C18146   2.196   3.254   1.189  0.5138  0.4486 -0.3016
  132MOL0     H18147   2.556   3.495   0.886 -3.6188 -1.7689  0.8096
  132MOL0     H18148   2.749   3.622   0.939 -0.2803 -1.9185  0.4558
  132MOL0     H18149   2.880   3.590   1.356  1.4582 -1.6258  0.0547
  132MOL0     H18150   3.018   3.673   1.295 -1.0258  0.0342  1.4235
  132MOL0     H18151   3.083   3.454   1.292  1.2088 -2.3480 -0.9218
  132MOL0     H18152   2.930   3.405   1.206 -2.0104  2.5536 -3.4710
  132MOL0     H18153   3.132   3.383   1.078  0.4498  0.4588 -2.0751
  132MOL0     H18154   3.027   3.507   1.001 -0.0931  3.0450  1.1708
  132MOL0     H18155   3.144   3.690   1.097  0.9719  0.8826  0.9736
  132MOL0     H18156   3.255   3.566   1.187 -2.2053 -1.9961 -0.4293
  132MOL0     H18157   3.249   3.665   0.895  0.2856 -0.6791 -0.8251
  132MOL0     H18158   3.311   3.505   0.955  1.4823 -0.9507  2.2089
  132MOL0     H18159   3.402   3.782   1.064  2.3713  0.4554  0.6162
  132MOL0     H18160   3.469   3.618   1.099 -3.0475 -0.1806  0.9774
  132MOL0     H18161   3.473   3.786   0.853 -3.2230 -1.1542 -0.2268
  132MOL0     H18162   3.513   3.612   0.848  1.0438  2.2794 -1.6376
  132MOL0     H18163   3.688   3.822   0.895  0.0662  0.3932  1.6027
  132MOL0     H18164   3.666   3.778   1.044 -2.0129 -1.0639  0.2483
  132MOL0     H18165   3.631   3.430   0.927  0.3654 -1.2982 -4.1798
  132MOL0     H18166   3.987   3.264   0.911  0.3628  0.7693  0.4193
  132MOL0     H18167   3.840   3.237   0.823 -1.6436  1.6494 -0.3340
  132MOL0     H18168   3.894   3.232   1.119  0.8946 -0.0608 -0.7493
  132MOL0     H18169   3.719   3.242   1.058  0.5015  0.8803 -0.9395
  132MOL0     H18170   3.813   3.010   1.132  1.6431 -0.2271  0.9444
  132MOL0     H18171   3.740   3.006   0.974 -0.9468 -0.5092  2.1147
  132MOL0     H18172   3.964   3.021   0.873 -2.4027 -0.2775 -0.4923
  132MOL0     H18173   4.029   3.068   1.038 -2.8128  3.4076  0.6004
  132MOL0     H18174   3.929   2.707   1.183 -0.5836  3.0413 -2.0295
  132MOL0     H18175   3.986   2.521   1.336  0.7954 -1.5048 -1.6338
  132MOL0     H18176   4.076   2.598   1.470  0.5152  0.1024 -0.2490
  132MOL0     H18177   4.159   2.480   1.357  0.5434  0.2664 -1.2748
  132MOL0     H18178   4.555   2.480   1.516  0.7967 -1.4918 -1.1701
  132MOL0     H18179   4.781   2.465   1.629  1.2178 -3.0481 -3.0051
  132MOL0     H18180   5.095   2.788   1.551 -0.2697  1.2748  0.3913
  132MOL0     H18181   4.978   2.815   1.685  0.4614  2.4003 -3.2193
  132MOL0     H18182   5.247   2.705   1.659  0.2958  0.2827  1.1323
  132MOL0     H18183   5.165   2.799   1.796 -2.1426  1.8238 -0.8719
  132MOL0     H18184   5.209   2.503   1.753  0.4829  1.4252 -1.0216
  132MOL0     H18185   5.063   2.559   1.825 -0.3846 -0.2759 -2.3425
  132MOL0     H18186   5.198   2.642   2.010 -0.5866 -3.5616  0.8104
  132MOL0     H18187   5.339   2.668   1.907 -0.2791 -0.4731 -0.7716
  132MOL0     H18188   5.237   2.396   2.014 -0.0857 -0.0456 -1.8439
  132MOL0     H18189   5.351   2.401   1.888 -0.3158  1.3286 -1.8223
  132MOL0     H18190   5.504   2.548   2.028  1.5528 -1.6481  0.5344
  132MOL0     H18191   5.469   2.398   2.114 -0.6556  0.1608  0.5073
  132MOL0     H18192   5.335   2.535   2.284 -2.3340  1.9709  0.2201
  132MOL0     H18193   5.315   2.660   2.174 -0.8186 -0.2998 -0.8199
  132MOL0     H18194   5.482   2.738   2.302  3.6752  1.2455  0.5251
  132MOL0     H18195   5.543   2.709   2.152  0.6243 -2.9282 -0.9656
  132MOL0     H18196   4.922   2.791   1.375 -2.7650  0.4779 -1.6081
  132MOL0     H18197   4.718   2.785   1.263  1.1897  4.1948  3.2681
  132MOL0     H18198   4.403   2.821   1.148  0.5758 -1.0210  0.8405
  132MOL0     H18199   4.243   2.911   1.001 -2.3330  0.1303 -1.2531
  132MOL0     H18200   2.661   3.616   1.359 -0.0901  1.3226 -0.0321
  132MOL0     H18201   2.433   3.505   1.308  0.5058 -1.7222  0.6666
  132MOL0     H18202   2.113   3.402   0.736 -2.5688 -2.7364 -2.7461
  132MOL0     H18203   1.905   3.282   0.733  1.1375 -1.0520 -0.3240
  132MOL0     H18204   1.813   3.019   1.055  1.0097 -0.8883 -1.5562
  132MOL0     H18205   1.668   3.112   1.051  1.3505  1.3255  0.6335
  132MOL0     H18206   1.613   2.984   0.835  0.2835 -0.5765  0.7621
  132MOL0     H18207   1.633   2.879   0.985 -0.8661 -0.5860 -0.3740
  132MOL0     H18208   1.861   2.896   0.787  0.6900 -0.1681  1.1609
  132MOL0     H18209   1.867   2.815   0.935  0.1338  0.3352  0.5153
  132MOL0     H18210   1.826   2.670   0.743  0.9655  0.1889  0.1665
  132MOL0     H18211   1.688   2.758   0.693  2.8868 -0.7180 -2.2477
  132MOL0     H18212   1.537   2.506   1.006 -0.6867  1.8190  2.2983
  132MOL0     H18213   1.932   3.165   1.131 -1.0473  1.7319  0.8388
  132MOL0     H18214   2.293   3.221   1.151 -0.5109 -2.0271 -0.9043
  132MOL0     H18215   2.200   3.350   1.243  2.2662  0.2288  0.0270
  132MOL0     H18216   2.151   3.177   1.252  0.5389  0.0075 -0.8195
  133MOL0     O18217   7.378   5.226  11.422 -0.0181  0.1563 -0.0884
  133MOL0     C18218   7.354   5.299  11.516 -0.5609 -0.9271 -0.0195
  133MOL0     O18219   7.442   5.387  11.572 -0.6030 -0.1283  0.4000
  133MOL0     C18220   7.559   5.400  11.505 -0.3681  0.4075  0.9763
  133MOL0     C18221   7.578   5.506  11.416  0.6022 -0.2809  0.8247
  133MOL0     C18222   7.692   5.521  11.347 -0.4007 -0.5558  0.4564
  133MOL0     C18223   7.803   5.437  11.363 -0.0343  0.7524 -0.3537
  133MOL0     O18224   7.916   5.451  11.294 -0.1796  0.4783  0.0314
  133MOL0     C18225   7.979   5.582  11.295 -0.7201 -0.7354  0.4450
  133MOL0     C18226   8.143   5.569  11.290  0.5638  0.7732 -0.0938
  133MOL0     C18227   8.181   5.485  11.406  0.3205 -0.5100 -0.1071
  133MOL0     C18228   8.334   5.488  11.436 -0.3745  0.8675 -0.6202
  133MOL0     C18229   8.362   5.615  11.523 -0.0814 -0.4698  0.1130
  133MOL0     C18230   8.513   5.617  11.557 -0.0635  1.4060  0.1415
  133MOL0     C18231   8.608   5.657  11.440 -0.0367 -0.4371  0.3611
  133MOL0     C18232   8.733   5.569  11.430  0.3930  0.8716 -0.1833
  133MOL0     N18233   8.834   5.634  11.343  0.5166  0.4529  0.2389
  133MOL0     C18234   8.852   5.615  11.207 -0.0277  0.1712 -0.3604
  133MOL0     C18235   8.949   5.703  11.176 -0.8370 -0.7555  0.1915
  133MOL0     C18236   9.020   5.738  11.042 -0.3009 -0.3936  0.2685
  133MOL0     C18237   9.155   5.676  11.003  0.0214 -0.3308  0.0370
  133MOL0     C18238   9.274   5.696  11.097 -0.1863 -0.3071  0.0323
  133MOL0     C18239   9.395   5.615  11.067  0.4391 -0.7879 -0.3950
  133MOL0     O18240   9.490   5.622  11.181  0.6734  0.7888  0.4798
  133MOL0     C18241   9.619   5.601  11.165 -1.0952 -0.8716 -0.1835
  133MOL0     C18242   9.689   5.569  11.046  0.2436 -0.8565  0.1048
  133MOL0     C18243   9.835   5.559  11.037  0.1487 -0.1634  0.1958
  133MOL0     C18244   9.889   5.550  10.893 -0.1029  0.2598 -0.0088
  133MOL0     C18245   9.914   5.578  11.156  0.2553  0.2819 -0.1509
  133MOL0     C18246  10.054   5.551  11.160  0.2651 -0.8087 -0.3066
  133MOL0     O18247  10.094   5.442  11.092 -0.0146 -0.1588 -0.1461
  133MOL0     C18248  10.227   5.415  11.066  0.5004 -0.4138  0.0577
  133MOL0     C18249  10.269   5.280  11.077 -0.6113 -1.0004  0.2720
  133MOL0     C18250  10.403   5.239  11.043  0.6162 -1.5026  0.7328
  133MOL0     C18251  10.489   5.338  10.987 -0.5061  0.1565 -0.0010
  133MOL0     O18252  10.611   5.291  10.948  0.1189 -0.1135  1.0952
  133MOL0     C18253  10.712   5.294  11.050  0.8098 -0.0733 -0.2410
  133MOL0     C18254  10.719   5.433  11.117 -0.0678 -0.0173  0.0612
  133MOL0     C18255  10.830   5.431  11.224  0.0222  0.1182 -0.7238
  133MOL0     C18256  10.855   5.575  11.282 -0.4562  0.4936 -0.1163
  133MOL0     C18257  10.760   5.601  11.403  0.1327  0.1832 -0.4824
  133MOL0     C18258  10.647   5.697  11.367 -0.5044  0.1294 -0.2126
  133MOL0     C18259  10.699   5.841  11.331 -0.5964  0.6547  0.0814
  133MOL0     C18260  10.589   5.930  11.352  0.8551 -0.2804  0.1705
  133MOL0    Cl18261  10.614   6.084  11.293 -0.0383  0.0131 -0.3735
  133MOL0     C18262  10.444   5.471  10.973  0.3448  0.1843 -0.7170
  133MOL0     C18263  10.312   5.506  11.011 -0.5763  0.2496 -0.2284
  133MOL0     O18264  10.125   5.639  11.196  0.0534 -0.6138 -0.2496
  133MOL0     C18265   9.844   5.614  11.276 -0.2959 -0.5952 -0.1044
  133MOL0     C18266   9.704   5.617  11.278 -0.6480  0.1289  0.3228
  133MOL0     N18267   8.976   5.777  11.293  0.4914  0.0357 -0.0586
  133MOL0     N18268   8.906   5.731  11.387  0.1088 -0.0097 -0.1261
  133MOL0     C18269   7.783   5.321  11.439 -0.7218 -0.1556  0.1416
  133MOL0     C18270   7.664   5.301  11.507  0.3250 -0.1852  0.5471
  133MOL0     C18271   7.230   5.270  11.600  0.0423 -0.0318  0.0453
  133MOL0     C18272   7.137   5.378  11.617 -0.8923  0.8319  0.9389
  133MOL0     C18273   7.009   5.364  11.676 -0.2132  0.0283 -0.9223
  133MOL0     C18274   6.979   5.237  11.725  0.1817  0.7810 -0.0861
  133MOL0     O18275   6.863   5.211  11.787 -0.2491  0.3789 -0.5682
  133MOL0     C18276   6.758   5.165  11.706  0.8879  0.5966 -0.4044
  133MOL0     C18277   6.622   5.151  11.774 -0.1216 -0.1494 -0.5383
  133MOL0     C18278   6.583   5.287  11.814 -0.0797  0.0066 -0.1820
  133MOL0     C18279   6.480   5.295  11.929  0.1450  0.3057 -0.0601
  133MOL0     C18280   6.342   5.243  11.884  0.3254 -0.0883  0.2600
  133MOL0     C18281   6.237   5.194  11.859 -0.6875  0.2386  0.0288
  133MOL0     C18282   7.065   5.128  11.706 -0.8511  0.7759 -0.4238
  133MOL0     C18283   7.182   5.145  11.641 -0.5878 -0.8445 -0.5063
  133MOL0     C18284   7.262   5.020  11.606 -0.2130 -0.2270  0.0957
  133MOL0     H18285   7.499   5.580  11.406 -1.3105 -2.3273 -0.0969
  133MOL0     H18286   7.678   5.604  11.280 -0.7122  0.8448  2.1740
  133MOL0     H18287   7.949   5.631  11.388  0.2249 -0.2892  0.5313
  133MOL0     H18288   7.947   5.632  11.203  3.4084 -1.4925 -1.6490
  133MOL0     H18289   8.171   5.535  11.190  0.5866  2.4034 -0.6664
  133MOL0     H18290   8.182   5.671  11.296  2.9759 -0.1484  1.6566
  133MOL0     H18291   8.124   5.512  11.496 -0.7682  0.7221 -1.1282
  133MOL0     H18292   8.143   5.384  11.390 -1.4723  0.3209 -1.4384
  133MOL0     H18293   8.370   5.397  11.484 -2.6722  0.5188  0.6016
  133MOL0     H18294   8.391   5.498  11.344  0.5306  1.7430  0.0165
  133MOL0     H18295   8.303   5.596  11.613 -0.0242 -0.6721  0.1077
  133MOL0     H18296   8.332   5.713  11.484  1.9602 -0.1239 -0.6854
  133MOL0     H18297   8.532   5.681  11.644  0.6639  2.9836 -1.1292
  133MOL0     H18298   8.530   5.513  11.587 -1.2284  0.4297 -2.3251
  133MOL0     H18299   8.639   5.760  11.456 -2.1214  0.4364 -0.8350
  133MOL0     H18300   8.561   5.649  11.342 -1.7210  1.9400  0.8870
  133MOL0     H18301   8.779   5.557  11.529  2.1803  1.4410 -0.9030
  133MOL0     H18302   8.703   5.468  11.401 -0.4306 -0.0303  3.2450
  133MOL0     H18303   8.802   5.535  11.155  2.0426 -1.3081 -0.2076
  133MOL0     H18304   9.041   5.845  11.047 -0.5385 -0.3587  0.5354
  133MOL0     H18305   8.950   5.722  10.959  0.3403 -3.2237  0.1504
  133MOL0     H18306   9.135   5.570  10.981 -0.0139 -0.1414 -0.8703
  133MOL0     H18307   9.194   5.714  10.909  3.4465 -2.0754  0.5840
  133MOL0     H18308   9.304   5.801  11.091  0.1810 -0.4447 -0.6388
  133MOL0     H18309   9.230   5.688  11.197 -2.1345  1.9043 -0.5691
  133MOL0     H18310   9.369   5.513  11.037 -0.2994 -0.0074 -2.5827
  133MOL0     H18311   9.428   5.651  10.969  1.9810  1.2365  0.7954
  133MOL0     H18312   9.631   5.558  10.955 -2.1559  0.1875  1.3978
  133MOL0     H18313   9.804   5.560  10.825 -0.4743 -0.7703  0.2935
  133MOL0     H18314   9.922   5.447  10.878 -1.0881  0.0298 -0.7547
  133MOL0     H18315   9.970   5.621  10.874  0.3083 -0.0499  0.5531
  133MOL0     H18316  10.208   5.202  11.122  0.3355 -0.8458  1.9182
  133MOL0     H18317  10.447   5.142  11.064  2.6742 -0.9634 -0.7787
  133MOL0     H18318  10.693   5.212  11.119  0.4855  0.8768  0.8385
  133MOL0     H18319  10.812   5.278  11.008  1.2292  1.1554  0.2347
  133MOL0     H18320  10.741   5.519  11.052  0.1790  0.1602  0.3756
  133MOL0     H18321  10.627   5.454  11.170 -0.1102  1.9501 -0.6969
  133MOL0     H18322  10.923   5.390  11.184  1.2923  2.1650 -0.0459
  133MOL0     H18323  10.797   5.362  11.302  0.9847 -3.4776 -3.2414
  133MOL0     H18324  10.855   5.657  11.210 -0.9749  1.0396  0.5056
  133MOL0     H18325  10.957   5.578  11.323 -0.7604 -1.1715  0.8423
  133MOL0     H18326  10.723   5.511  11.453 -0.7510  1.1997  0.7565
  133MOL0     H18327  10.814   5.654  11.482 -1.1247 -1.5644  1.6453
  133MOL0     H18328  10.580   5.704  11.454 -1.8782 -0.2667 -1.2089
  133MOL0     H18329  10.593   5.654  11.282 -0.4868  0.2102 -0.2643
  133MOL0     H18330  10.731   5.844  11.226 -0.2346  1.3640  0.2125
  133MOL0     H18331  10.778   5.874  11.399  0.9548  0.9053 -1.7458
  133MOL0     H18332  10.571   5.935  11.460  1.2045 -3.9794  0.5462
  133MOL0     H18333  10.500   5.890  11.304  0.9401 -0.2411 -0.0191
  133MOL0     H18334  10.504   5.538  10.912  2.0416 -0.6250 -0.0129
  133MOL0     H18335  10.276   5.607  10.992  0.8987  0.6885 -0.8845
  133MOL0     H18336   9.889   5.614  11.374  1.8679  1.2140 -1.0206
  133MOL0     H18337   9.652   5.655  11.365 -1.4808  0.3867 -0.2790
  133MOL0     H18338   7.860   5.246  11.425 -0.4742  0.1850 -0.3151
  133MOL0     H18339   7.636   5.216  11.569 -5.4283 -0.1093 -1.3514
  133MOL0     H18340   7.166   5.471  11.570  0.4850 -0.6817 -1.3819
  133MOL0     H18341   6.947   5.449  11.703  1.3337  0.3584  2.0611
  133MOL0     H18342   6.739   5.245  11.633  2.1079  2.3887  1.1402
  133MOL0     H18343   6.772   5.062  11.674 -3.0916  0.1563 -1.3375
  133MOL0     H18344   6.634   5.082  11.858  1.1985 -0.4412 -0.9422
  133MOL0     H18345   6.546   5.115  11.704  0.5812 -1.5388 -0.6207
  133MOL0     H18346   6.667   5.347  11.851 -0.0815 -1.4089  2.3738
  133MOL0     H18347   6.547   5.342  11.727  2.0710 -0.1302 -1.2127
  133MOL0     H18348   6.462   5.396  11.966 -1.5367  0.1506 -0.3456
  133MOL0     H18349   6.522   5.233  12.009 -0.1890  2.1303  1.5878
  133MOL0     H18350   6.139   5.150  11.856 -0.4108 -0.3843  0.2767
  133MOL0     H18351   7.032   5.036  11.753 -1.1833  0.6994 -0.8016
  133MOL0     H18352   7.225   4.933  11.663  0.3021 -0.1652  0.5306
  133MOL0     H18353   7.245   5.000  11.500  3.0496  0.7813 -0.7427
  133MOL0     H18354   7.369   5.021  11.628 -0.4085 -0.8062  1.1475
  134MOL0     O18355   9.148   1.519   3.806  0.1519 -0.4112 -0.2742
  134MOL0     C18356   9.165   1.497   3.685  0.0091 -0.1407  0.4199
  134MOL0     O18357   9.291   1.487   3.627 -0.2926 -0.4409  0.5212
  134MOL0     C18358   9.401   1.540   3.685  0.2201 -0.8822 -0.2364
  134MOL0     C18359   9.512   1.461   3.692 -0.2718  0.5922 -0.3002
  134MOL0     C18360   9.625   1.506   3.754 -0.2305 -0.1416  0.1567
  134MOL0     C18361   9.638   1.631   3.808  0.9181  0.6063  0.2651
  134MOL0     O18362   9.749   1.670   3.866  0.2824 -0.1308 -0.9600
  134MOL0     C18363   9.746   1.621   4.002  0.2575  0.1729  0.0569
  134MOL0     C18364   9.868   1.672   4.087 -0.0335 -0.1371  0.0485
  134MOL0     C18365  10.001   1.614   4.030  0.8444 -0.3495 -0.6159
  134MOL0     C18366  10.122   1.654   4.109 -0.6172  0.3036 -0.0818
  134MOL0     C18367  10.253   1.656   4.025 -0.5107 -0.3479  0.5272
  134MOL0     C18368  10.380   1.702   4.108  0.6104  0.0754 -0.1420
  134MOL0     C18369  10.499   1.712   4.015  0.2859 -0.1026  0.2875
  134MOL0     C18370  10.618   1.791   4.080  1.5064  0.3710 -0.3442
  134MOL0     N18371  10.729   1.796   3.989 -0.3775 -0.4188  0.5024
  134MOL0     C18372  10.867   1.811   4.018  0.0222 -0.0776 -0.2569
  134MOL0     C18373  10.928   1.817   3.896 -0.4242 -0.0241  0.4078
  134MOL0     C18374  11.074   1.849   3.852 -0.2703 -0.5279  0.6556
  134MOL0     C18375  11.179   1.838   3.957  0.0419  0.1944  0.6584
  134MOL0     C18376  11.312   1.831   3.890  0.0241 -0.2218  0.2407
  134MOL0     C18377  11.437   1.826   3.984 -0.3805 -0.2551 -0.4251
  134MOL0     O18378  11.438   1.711   4.073 -0.1304  0.6914  0.6052
  134MOL0     C18379  11.557   1.688   4.133 -0.4835  0.5104 -0.3691
  134MOL0     C18380  11.658   1.780   4.151  0.2051 -0.2081  0.6804
  134MOL0     C18381  11.779   1.751   4.216  0.0037  0.5672 -0.3402
  134MOL0     C18382  11.878   1.860   4.221 -0.0099 -0.6637 -0.0424
  134MOL0     C18383  11.811   1.613   4.249  0.4330 -0.2620  0.0538
  134MOL0     C18384  11.946   1.562   4.301 -1.1560  0.8103  0.4034
  134MOL0     O18385  11.954   1.427   4.339 -0.4413  0.6537 -0.1105
  134MOL0     C18386  12.065   1.373   4.408  0.1388 -0.5743  0.2175
  134MOL0     C18387  12.172   1.450   4.475  0.9615  0.3589 -0.1444
  134MOL0     C18388  12.276   1.382   4.531 -0.2005  0.6907  1.2114
  134MOL0     C18389  12.275   1.242   4.516  0.3252 -0.8575 -0.7194
  134MOL0     O18390  12.385   1.184   4.569  0.2249  0.1385  0.6924
  134MOL0     C18391  12.355   1.092   4.676  0.4171  1.1561  0.1972
  134MOL0     C18392  12.319   1.159   4.812  0.8779  0.9153 -0.3894
  134MOL0     C18393  12.428   1.221   4.886  0.2394  0.0168  0.1147
  134MOL0     C18394  12.390   1.259   5.030 -0.2203 -0.5472  0.2780
  134MOL0     C18395  12.515   1.322   5.093 -0.4810  0.1784  0.9929
  134MOL0     C18396  12.534   1.471   5.063  0.0105  0.8600  0.2399
  134MOL0     C18397  12.664   1.523   5.124  0.7437 -0.1310 -0.2800
  134MOL0     C18398  12.650   1.671   5.177  0.6030  0.5801 -1.0482
  134MOL0    Cl18399  12.539   1.687   5.310  0.3772  0.1820  0.0474
  134MOL0     C18400  12.171   1.172   4.461  0.9144 -0.0463 -0.7012
  134MOL0     C18401  12.058   1.236   4.412 -0.5682  0.4043  0.1459
  134MOL0     O18402  12.042   1.639   4.302 -0.0999 -0.4177  0.6490
  134MOL0     C18403  11.708   1.522   4.240  0.0743 -0.5247  0.5424
  134MOL0     C18404  11.586   1.561   4.186 -0.0690  0.1178 -0.2296
  134MOL0     N18405  10.837   1.808   3.799 -0.3622  0.2728  0.7604
  134MOL0     N18406  10.724   1.798   3.855 -0.1712 -0.3601  0.2496
  134MOL0     C18407   9.526   1.715   3.804  0.4763 -0.5243 -0.5559
  134MOL0     C18408   9.400   1.672   3.743 -0.3504 -0.9348 -0.4658
  134MOL0     C18409   9.067   1.421   3.610 -0.5945  1.0644 -0.5813
  134MOL0     C18410   9.097   1.315   3.520 -0.0491 -0.6730  0.0092
  134MOL0     C18411   9.000   1.225   3.473  0.5881 -0.0521 -0.4872
  134MOL0     C18412   8.869   1.265   3.502  1.0425  0.1189  0.2582
  134MOL0     O18413   8.754   1.193   3.471 -0.6473 -0.2604 -0.8382
  134MOL0     C18414   8.743   1.061   3.516 -0.5608  0.3574  0.0769
  134MOL0     C18415   8.612   0.999   3.472 -0.0774  0.7007 -0.0053
  134MOL0     C18416   8.480   1.046   3.546 -0.1266  0.4928  0.3591
  134MOL0     C18417   8.489   1.134   3.670 -0.1097 -0.1726  0.0108
  134MOL0     C18418   8.364   1.168   3.725  0.3542  0.5398 -0.3952
  134MOL0     C18419   8.257   1.184   3.787  0.5350  0.4760 -0.1762
  134MOL0     C18420   8.836   1.378   3.572 -0.5591  0.5776 -0.3513
  134MOL0     C18421   8.932   1.462   3.625 -0.5934  0.1451  0.6480
  134MOL0     C18422   8.889   1.588   3.700  1.0422 -0.1925 -0.6072
  134MOL0     H18423   9.506   1.360   3.652 -0.7598  0.0427  1.0585
  134MOL0     H18424   9.719   1.452   3.750 -0.2074 -0.0493 -0.7532
  134MOL0     H18425   9.747   1.512   4.004  1.9233  0.1200 -1.1115
  134MOL0     H18426   9.647   1.649   4.039 -1.4011 -1.8610 -2.4671
  134MOL0     H18427   9.860   1.781   4.085  0.9899 -0.0327  0.7100
  134MOL0     H18428   9.868   1.650   4.195 -1.4344 -0.6039 -0.0340
  134MOL0     H18429   9.994   1.505   4.024  0.4222 -0.4034  0.6801
  134MOL0     H18430  10.017   1.657   3.930  2.5559  1.3760  0.3358
  134MOL0     H18431  10.124   1.753   4.156  0.7791  0.4456 -0.3764
  134MOL0     H18432  10.126   1.579   4.189  0.3297  0.0318 -0.3630
  134MOL0     H18433  10.235   1.725   3.942 -1.3174 -2.1532 -0.8840
  134MOL0     H18434  10.271   1.559   3.976 -2.9617 -1.0825  0.9242
  134MOL0     H18435  10.358   1.794   4.162 -0.6099  0.2370 -0.8778
  134MOL0     H18436  10.395   1.623   4.182 -2.2083 -1.0087 -0.6176
  134MOL0     H18437  10.478   1.764   3.921  0.7710 -1.5188 -0.6273
  134MOL0     H18438  10.539   1.612   3.996 -2.7974 -1.8909  2.2643
  134MOL0     H18439  10.586   1.893   4.098  3.8539  0.8860  1.4025
  134MOL0     H18440  10.642   1.733   4.170 -2.4943  0.5130  0.9796
  134MOL0     H18441  10.911   1.822   4.117 -1.7948 -1.5697  0.7802
  134MOL0     H18442  11.070   1.955   3.824  2.4205 -0.1775  1.3674
  134MOL0     H18443  11.097   1.795   3.759  0.6425  2.8298 -1.2206
  134MOL0     H18444  11.180   1.922   4.028 -0.4697 -0.9231  2.0379
  134MOL0     H18445  11.170   1.744   4.012  2.6330 -1.5048 -1.5648
  134MOL0     H18446  11.320   1.740   3.830  0.4805 -0.1756  0.2310
  134MOL0     H18447  11.310   1.912   3.818 -0.8259 -2.5595 -2.5691
  134MOL0     H18448  11.525   1.820   3.920  0.3957 -2.5849  0.7391
  134MOL0     H18449  11.434   1.913   4.051  2.1981  0.8247 -1.6037
  134MOL0     H18450  11.647   1.881   4.114  0.2301 -0.8682 -1.2258
  134MOL0     H18451  11.825   1.955   4.231 -3.1346 -2.3750  0.8987
  134MOL0     H18452  11.949   1.848   4.138 -1.8984  0.9190 -1.9933
  134MOL0     H18453  11.926   1.845   4.318 -1.7222 -1.6378  0.6987
  134MOL0     H18454  12.158   1.558   4.473  0.1691  0.2764 -2.6389
  134MOL0     H18455  12.355   1.441   4.577  1.7271  0.3263 -1.3980
  134MOL0     H18456  12.261   1.042   4.650  1.0807  0.0682 -0.1685
  134MOL0     H18457  12.427   1.010   4.682 -0.9018 -0.4798 -3.5183
  134MOL0     H18458  12.238   1.227   4.789 -2.1337 -3.3265 -4.0816
  134MOL0     H18459  12.279   1.082   4.878  0.0284  1.1205 -0.6623
  134MOL0     H18460  12.471   1.304   4.827  1.4739 -1.5187 -1.2759
  134MOL0     H18461  12.524   1.168   4.880  1.1389  1.7133 -1.9418
  134MOL0     H18462  12.368   1.167   5.085 -1.7480 -0.4352 -0.0762
  134MOL0     H18463  12.305   1.328   5.034  0.6700  0.5749  0.3459
  134MOL0     H18464  12.505   1.318   5.202  1.2479  5.1786  1.6370
  134MOL0     H18465  12.601   1.258   5.074  1.2471  2.1572  1.6753
  134MOL0     H18466  12.447   1.520   5.109 -0.4710  0.0860  0.1701
  134MOL0     H18467  12.532   1.494   4.956  1.7372 -0.5096 -0.1117
  134MOL0     H18468  12.741   1.505   5.047 -2.0495 -1.2415 -3.0120
  134MOL0     H18469  12.692   1.472   5.216 -0.5256  0.1016  0.2519
  134MOL0     H18470  12.614   1.735   5.097  1.1707  0.6672 -1.2390
  134MOL0     H18471  12.749   1.705   5.209  0.2975  0.1457  0.4528
  134MOL0     H18472  12.180   1.064   4.459  1.9254  0.0089 -0.1334
  134MOL0     H18473  11.973   1.176   4.383  0.4992 -1.2106  0.2719
  134MOL0     H18474  11.711   1.424   4.286 -2.3008 -1.2251 -0.6681
  134MOL0     H18475  11.515   1.480   4.175  2.2955 -1.8172 -2.3836
  134MOL0     H18476   9.532   1.817   3.841  0.1688 -1.5750  2.8049
  134MOL0     H18477   9.316   1.739   3.732 -1.0133 -1.5231  0.8111
  134MOL0     H18478   9.198   1.281   3.495  1.3863  1.5109  2.4128
  134MOL0     H18479   9.029   1.140   3.412  3.0402  1.5552 -1.7200
  134MOL0     H18480   8.825   1.010   3.466  1.8591  2.2209  1.8986
  134MOL0     H18481   8.753   1.054   3.625  0.9882 -1.2530 -0.1376
  134MOL0     H18482   8.612   0.893   3.495 -0.8618  1.0553  1.7804
  134MOL0     H18483   8.615   1.017   3.364 -0.9716  1.5574  0.0939
  134MOL0     H18484   8.422   1.104   3.473 -0.5615  1.6725  1.6076
  134MOL0     H18485   8.418   0.958   3.566 -0.0201  0.2752 -0.2444
  134MOL0     H18486   8.540   1.228   3.649 -1.4323  0.8877  1.3053
  134MOL0     H18487   8.536   1.076   3.750  2.0524  1.6589  0.1693
  134MOL0     H18488   8.171   1.200   3.849  0.3851 -0.0666 -0.2454
  134MOL0     H18489   8.734   1.399   3.603 -0.4703  2.7382 -1.3328
  134MOL0     H18490   8.919   1.575   3.805 -2.1239  0.9250  0.5442
  134MOL0     H18491   8.936   1.666   3.640 -0.2799 -1.0183 -2.8268
  134MOL0     H18492   8.781   1.603   3.699  1.1515  1.3872  1.9263
  135MOL0     O18493   7.506   8.617   0.398  0.2453  0.0609  0.3005
  135MOL0     C18494   7.565   8.669   0.305  0.0228  0.2916 -0.0969
  135MOL0     O18495   7.517   8.781   0.234 -0.1052 -0.6872 -0.6494
  135MOL0     C18496   7.401   8.842   0.266  0.3653  0.8352  0.4527
  135MOL0     C18497   7.306   8.853   0.171  1.1158 -0.3663  0.4834
  135MOL0     C18498   7.206   8.941   0.192 -0.1331 -0.4861 -0.1409
  135MOL0     C18499   7.183   9.011   0.308 -0.2533  0.5419 -0.7070
  135MOL0     O18500   7.075   9.092   0.317  0.3142  0.0440 -0.6575
  135MOL0     C18501   6.999   9.071   0.437 -0.2681  0.0830  0.7404
  135MOL0     C18502   6.871   9.136   0.416  0.6011 -1.3543 -1.2137
  135MOL0     C18503   6.772   9.104   0.532  0.0157 -0.3049  0.9516
  135MOL0     C18504   6.633   9.179   0.532 -0.1602 -0.2064  0.6200
  135MOL0     C18505   6.535   9.139   0.431  0.4113 -0.4259  0.2470
  135MOL0     C18506   6.538   9.227   0.307 -0.8085 -0.3762  0.4920
  135MOL0     C18507   6.405   9.201   0.230  0.1310 -0.4566  0.8110
  135MOL0     C18508   6.376   9.302   0.119  0.2656  0.5999  0.9740
  135MOL0     N18509   6.480   9.311   0.017  0.1202  0.2764 -0.5679
  135MOL0     C18510   6.510   9.218  -0.069  0.4727  0.1443  0.0526
  135MOL0     C18511   6.557   9.276  -0.181  0.4226  0.3473 -0.1311
  135MOL0     C18512   6.587   9.179  -0.299  0.2382  0.8223  0.9309
  135MOL0     C18513   6.673   9.248  -0.407  0.3675  0.3546 -0.9496
  135MOL0     C18514   6.731   9.137  -0.492 -0.4862  0.1203 -0.1632
  135MOL0     C18515   6.817   9.193  -0.609 -1.4572 -0.3987  0.1850
  135MOL0     O18516   6.849   9.082  -0.693  0.1618 -0.0736 -0.5494
  135MOL0     C18517   6.964   9.064  -0.759 -0.0666  0.6606 -0.1623
  135MOL0     C18518   6.973   8.956  -0.843 -0.2293 -0.0542  0.4853
  135MOL0     C18519   7.083   8.924  -0.931 -0.1847 -0.0443 -0.7668
  135MOL0     C18520   7.072   8.806  -1.025  0.1572 -0.3000  0.0760
  135MOL0     C18521   7.188   9.020  -0.940 -0.2658 -1.0498 -0.1546
  135MOL0     C18522   7.311   8.997  -1.021  0.1063  0.0418 -0.2016
  135MOL0     O18523   7.390   9.107  -1.033 -0.5343 -0.0113  0.3471
  135MOL0     C18524   7.518   9.096  -1.078  0.4498 -0.6950 -0.0145
  135MOL0     C18525   7.609   9.015  -1.020 -0.2500 -0.1645 -0.3104
  135MOL0     C18526   7.727   9.002  -1.090 -0.2071  0.4147 -0.1147
  135MOL0     C18527   7.756   9.070  -1.212 -0.3707  0.3235 -0.2563
  135MOL0     O18528   7.876   9.059  -1.284 -0.5003 -0.0173  0.3560
  135MOL0     C18529   7.975   8.967  -1.226 -0.1856  0.1866 -0.1828
  135MOL0     C18530   8.108   8.971  -1.302 -0.1789 -0.5912 -0.1321
  135MOL0     C18531   8.222   8.881  -1.251 -0.0292  0.1584 -0.3895
  135MOL0     C18532   8.293   8.783  -1.355 -0.4456  0.4103  0.1639
  135MOL0     C18533   8.197   8.662  -1.377  0.3365  0.1569 -0.6308
  135MOL0     C18534   8.185   8.566  -1.253  0.4890  0.1906 -0.0791
  135MOL0     C18535   8.144   8.423  -1.279 -0.2625  0.2816  0.2079
  135MOL0     C18536   8.027   8.400  -1.379 -0.0474 -0.8539  0.5806
  135MOL0    Cl18537   7.882   8.479  -1.312  0.0851 -0.0719  0.2944
  135MOL0     C18538   7.662   9.154  -1.258 -0.6617 -0.0137  0.1382
  135MOL0     C18539   7.545   9.168  -1.192 -0.5641  0.8864  0.7018
  135MOL0     O18540   7.342   8.885  -1.057  0.3458  0.2010 -0.6562
  135MOL0     C18541   7.177   9.135  -0.860  0.2399 -0.0672  0.1013
  135MOL0     C18542   7.069   9.155  -0.771  0.8859  0.3969  0.8531
  135MOL0     N18543   6.564   9.414  -0.160  0.1795 -0.7784  0.3634
  135MOL0     N18544   6.509   9.432  -0.042 -0.4741  0.6152 -0.1673
  135MOL0     C18545   7.274   8.981   0.411 -1.2901 -0.7261 -0.4754
  135MOL0     C18546   7.384   8.902   0.397 -0.1511  0.1810 -0.4727
  135MOL0     C18547   7.684   8.602   0.251  0.9251  0.5061 -0.8798
  135MOL0     C18548   7.734   8.633   0.127 -0.6845 -0.3167  0.3200
  135MOL0     C18549   7.867   8.604   0.074  0.1084  0.1703 -0.6420
  135MOL0     C18550   7.953   8.523   0.147  0.7969 -0.1484 -0.3256
  135MOL0     O18551   8.080   8.484   0.112 -0.3378  0.3819  0.5967
  135MOL0     C18552   8.145   8.542   0.004  0.7981  0.0048 -0.3468
  135MOL0     C18553   8.289   8.508   0.009  0.2762 -0.1640 -0.2666
  135MOL0     C18554   8.362   8.556  -0.119 -0.7466  0.6307 -0.3838
  135MOL0     C18555   8.506   8.530  -0.093  0.0366 -0.4102  0.7389
  135MOL0     C18556   8.590   8.565  -0.206 -0.2629  0.5969 -0.5063
  135MOL0     C18557   8.657   8.614  -0.294 -0.2029  0.6032 -1.1900
  135MOL0     C18558   7.904   8.477   0.275  0.1715  0.5925  0.5026
  135MOL0     C18559   7.773   8.507   0.324  0.1954 -0.4739 -0.4520
  135MOL0     C18560   7.734   8.457   0.458 -1.4422 -0.3110 -0.3408
  135MOL0     H18561   7.336   8.801   0.080  0.9850 -2.1296  1.4125
  135MOL0     H18562   7.131   8.954   0.115 -0.0276  1.7979  0.0729
  135MOL0     H18563   7.038   9.115   0.529 -1.1703 -0.0680  1.2109
  135MOL0     H18564   6.992   8.965   0.461 -2.0449 -0.5766 -2.1637
  135MOL0     H18565   6.885   9.244   0.419 -1.8461 -0.9858 -0.1057
  135MOL0     H18566   6.824   9.105   0.322 -2.3934 -0.3474 -0.1789
  135MOL0     H18567   6.756   8.997   0.520 -1.3101 -0.0161  0.0326
  135MOL0     H18568   6.818   9.119   0.631 -0.5909 -1.0238  1.3544
  135MOL0     H18569   6.587   9.160   0.630 -0.7412  0.2370  0.4347
  135MOL0     H18570   6.653   9.285   0.518  1.5523 -0.7790 -1.8460
  135MOL0     H18571   6.440   9.165   0.479  0.8899  5.3062 -1.1170
  135MOL0     H18572   6.554   9.038   0.393 -0.6057 -0.5564  0.0467
  135MOL0     H18573   6.534   9.331   0.339 -2.6858 -0.4856  0.7371
  135MOL0     H18574   6.632   9.201   0.257 -0.7520  0.6182  0.0605
  135MOL0     H18575   6.316   9.197   0.293 -0.9638 -1.5013 -0.7143
  135MOL0     H18576   6.409   9.105   0.177 -1.2504  0.7931 -1.7614
  135MOL0     H18577   6.278   9.284   0.073  0.8542 -1.9113  0.5271
  135MOL0     H18578   6.366   9.398   0.171 -0.6672 -0.0786  2.1017
  135MOL0     H18579   6.507   9.110  -0.058  1.8896  0.2784  2.3789
  135MOL0     H18580   6.491   9.149  -0.344  0.8767  2.5947 -1.8783
  135MOL0     H18581   6.642   9.091  -0.266  0.2514  0.7989  0.8455
  135MOL0     H18582   6.609   9.311  -0.469 -0.9385 -0.6223 -0.6383
  135MOL0     H18583   6.756   9.302  -0.361  0.8144  1.1883 -2.6671
  135MOL0     H18584   6.801   9.083  -0.427 -1.5635 -0.6929  0.3615
  135MOL0     H18585   6.650   9.070  -0.522 -1.2825  1.3487 -0.8399
  135MOL0     H18586   6.759   9.268  -0.664 -2.7614 -1.0934  0.5610
  135MOL0     H18587   6.905   9.238  -0.563  0.5930 -3.5173 -0.4083
  135MOL0     H18588   6.889   8.887  -0.841 -1.2066  1.1070  1.1548
  135MOL0     H18589   7.111   8.823  -1.125  2.4475  0.8041  1.0633
  135MOL0     H18590   6.968   8.780  -1.042 -0.2894 -0.2160  2.2993
  135MOL0     H18591   7.130   8.728  -0.975  0.2227 -0.2077  0.1466
  135MOL0     H18592   7.589   8.948  -0.937 -2.1824  1.4866  0.6461
  135MOL0     H18593   7.794   8.930  -1.044 -0.7722 -0.0557 -0.0084
  135MOL0     H18594   7.996   8.993  -1.122 -0.8332  0.9729 -0.2406
  135MOL0     H18595   7.943   8.862  -1.231 -0.2625  0.2712 -2.8693
  135MOL0     H18596   8.093   8.958  -1.410 -0.1661  0.1260 -0.2233
  135MOL0     H18597   8.162   9.066  -1.297 -0.6208 -0.2647 -1.2584
  135MOL0     H18598   8.179   8.836  -1.161  1.9421  1.5134  1.3287
  135MOL0     H18599   8.303   8.946  -1.217  1.1928 -2.1768  1.5216
  135MOL0     H18600   8.389   8.748  -1.316 -0.8902 -0.8950  0.1273
  135MOL0     H18601   8.312   8.837  -1.448  2.0722 -1.5458 -0.5525
  135MOL0     H18602   8.095   8.691  -1.404  0.4028 -0.1389 -1.2207
  135MOL0     H18603   8.220   8.608  -1.469 -0.0264  1.1385 -1.3212
  135MOL0     H18604   8.115   8.601  -1.176  2.7338 -1.2678  2.8622
  135MOL0     H18605   8.277   8.570  -1.194 -1.5966 -1.5417  3.6768
  135MOL0     H18606   8.125   8.373  -1.184 -2.2748 -0.4893 -0.5582
  135MOL0     H18607   8.232   8.375  -1.324  1.6435  0.9180  3.0170
  135MOL0     H18608   8.017   8.292  -1.396 -1.7663 -0.3782 -1.9207
  135MOL0     H18609   8.053   8.440  -1.478  2.3606  1.8293  2.1352
  135MOL0     H18610   7.701   9.207  -1.344  3.7182  1.5892  2.7576
  135MOL0     H18611   7.467   9.234  -1.227 -1.6958 -1.0011 -0.5115
  135MOL0     H18612   7.247   9.217  -0.873  0.2887 -0.2045 -0.5113
  135MOL0     H18613   7.062   9.249  -0.718  0.8393  0.3478  0.9332
  135MOL0     H18614   7.244   9.022   0.507 -0.6200  1.4877 -1.1450
  135MOL0     H18615   7.462   8.889   0.471  1.1281  0.9385 -1.6393
  135MOL0     H18616   7.679   8.702   0.063 -0.3999 -1.2678 -0.9735
  135MOL0     H18617   7.894   8.645  -0.023 -0.3172  1.0509 -0.4013
  135MOL0     H18618   8.097   8.493  -0.082  1.7651 -2.4074  0.4183
  135MOL0     H18619   8.130   8.649  -0.015 -1.0400  0.0680  1.1536
  135MOL0     H18620   8.313   8.404   0.035 -0.4403 -0.2681 -0.0080
  135MOL0     H18621   8.324   8.573   0.089 -0.7072  1.2421 -0.9398
  135MOL0     H18622   8.324   8.495  -0.202 -1.8409  0.5735  0.1366
  135MOL0     H18623   8.349   8.662  -0.145 -0.8168  0.2012 -2.1944
  135MOL0     H18624   8.529   8.431  -0.051 -0.0552  0.8760  4.1515
  135MOL0     H18625   8.537   8.588  -0.005 -1.4567 -2.3073  2.6319
  135MOL0     H18626   8.705   8.662  -0.377 -0.5025  0.5811 -1.3769
  135MOL0     H18627   7.968   8.409   0.329 -1.3020 -0.1209  1.4208
  135MOL0     H18628   7.632   8.425   0.479 -0.9592 -0.0907  2.8681
  135MOL0     H18629   7.796   8.371   0.488 -1.4222 -0.5122 -0.9434
  135MOL0     H18630   7.755   8.543   0.523  2.0460 -0.7982 -0.5818
  136MOL0     O18631   9.162   2.451   2.440  0.9649  0.7344 -0.5723
  136MOL0     C18632   9.249   2.409   2.521 -0.1041  0.7742 -0.2000
  136MOL0     O18633   9.274   2.274   2.559 -0.2489 -0.4558 -0.3688
  136MOL0     C18634   9.199   2.177   2.501  0.1746  0.1867 -0.7936
  136MOL0     C18635   9.176   2.151   2.357  0.3984 -0.2914  0.2282
  136MOL0     C18636   9.073   2.058   2.326 -0.2947 -0.0826  0.1085
  136MOL0     C18637   9.011   1.973   2.428  0.3157 -0.5668  0.7562
  136MOL0     O18638   8.906   1.880   2.411  0.0849 -0.0583  0.5145
  136MOL0     C18639   8.861   1.837   2.284 -0.5520  0.1467 -0.1286
  136MOL0     C18640   8.968   1.752   2.210 -0.5554  0.3764  0.9470
  136MOL0     C18641   8.922   1.681   2.076 -0.4652  0.2400  0.7662
  136MOL0     C18642   8.891   1.787   1.967 -0.3275  0.2868 -0.2924
  136MOL0     C18643   8.889   1.727   1.825 -0.7068  0.1644 -0.5707
  136MOL0     C18644   8.787   1.622   1.790  0.3644 -0.1561  0.1410
  136MOL0     C18645   8.742   1.624   1.640 -0.1257 -0.4114  0.3898
  136MOL0     C18646   8.842   1.574   1.532  0.8386 -0.4540  0.1258
  136MOL0     N18647   8.800   1.588   1.385 -1.0101  0.0447  0.2572
  136MOL0     C18648   8.718   1.501   1.312 -0.6340 -0.1752 -0.0091
  136MOL0     C18649   8.706   1.555   1.189 -0.4239 -0.4055  0.0737
  136MOL0     C18650   8.644   1.500   1.063 -0.4920  0.0747 -0.2096
  136MOL0     C18651   8.721   1.373   1.013  0.0583 -0.7860  0.3833
  136MOL0     C18652   8.652   1.298   0.894  0.3148 -0.8725  0.1389
  136MOL0     C18653   8.696   1.153   0.878  0.1696 -0.3964 -1.3242
  136MOL0     O18654   8.837   1.145   0.845  0.3568 -0.1386 -0.4045
  136MOL0     C18655   8.899   1.034   0.812 -0.3062  0.0237 -0.1289
  136MOL0     C18656   8.839   0.910   0.828 -0.2960  0.6679  0.9941
  136MOL0     C18657   8.892   0.787   0.791 -0.6701 -0.4800 -0.2318
  136MOL0     C18658   8.816   0.661   0.830 -0.2819  0.3489 -0.3434
  136MOL0     C18659   9.027   0.780   0.738  0.3927 -0.8932 -0.9184
  136MOL0     C18660   9.099   0.665   0.704 -0.4374  0.8812  1.5714
  136MOL0     O18661   9.235   0.673   0.709 -0.4442  0.1258  0.0262
  136MOL0     C18662   9.304   0.554   0.695 -0.0922 -0.6176 -0.6862
  136MOL0     C18663   9.395   0.516   0.796  0.5057 -0.1865 -0.6497
  136MOL0     C18664   9.457   0.395   0.790  0.1223  0.1046  0.0534
  136MOL0     C18665   9.424   0.305   0.687  0.2954 -0.3966 -0.2942
  136MOL0     O18666   9.493   0.188   0.687 -0.2156 -0.1786 -0.2229
  136MOL0     C18667   9.574   0.148   0.581  0.5041 -0.0292 -0.7298
  136MOL0     C18668   9.719   0.175   0.600 -0.8951 -0.7150 -0.3999
  136MOL0     C18669   9.755   0.329   0.604  0.6006 -0.3877  0.8151
  136MOL0     C18670   9.903   0.362   0.591  0.0829 -1.2690  0.0962
  136MOL0     C18671   9.983   0.315   0.479 -0.1889 -0.2280  0.6919
  136MOL0     C18672  10.126   0.384   0.481  0.6384  0.5087 -0.2322
  136MOL0     C18673  10.215   0.330   0.363  0.4960 -0.7560 -0.0045
  136MOL0     C18674  10.344   0.279   0.423  0.1560  0.4292 -0.1180
  136MOL0    Cl18675  10.320   0.113   0.463 -0.1527 -0.0320 -0.1393
  136MOL0     C18676   9.335   0.342   0.580 -0.2186  0.3825 -0.9351
  136MOL0     C18677   9.276   0.471   0.582  0.8605  1.1855 -0.2962
  136MOL0     O18678   9.036   0.561   0.686 -0.1055 -0.0193 -0.4231
  136MOL0     C18679   9.088   0.905   0.730  1.3833  0.5528 -0.2010
  136MOL0     C18680   9.029   1.029   0.758  0.2441  0.2025  0.8792
  136MOL0     N18681   8.783   1.676   1.179  0.6756  0.7372 -0.6442
  136MOL0     N18682   8.824   1.699   1.300  0.2446  0.0452  0.1984
  136MOL0     C18683   9.046   1.996   2.562  0.0476 -0.2757  0.3052
  136MOL0     C18684   9.139   2.094   2.591  0.2409  0.3641  0.2018
  136MOL0     C18685   9.324   2.504   2.598  0.1849 -0.2186 -0.1845
  136MOL0     C18686   9.331   2.484   2.741  0.7802 -0.8301 -0.6386
  136MOL0     C18687   9.378   2.583   2.831  0.0988  0.3662  0.1336
  136MOL0     C18688   9.423   2.703   2.774 -0.2069  0.2806 -0.3447
  136MOL0     O18689   9.474   2.809   2.849 -0.1181  0.5870  0.0963
  136MOL0     C18690   9.504   2.788   2.987 -0.4193  0.4382 -0.4013
  136MOL0     C18691   9.573   2.915   3.047  0.9433 -0.0014  0.0037
  136MOL0     C18692   9.473   3.019   3.094  0.5362 -0.6488 -0.3645
  136MOL0     C18693   9.499   3.079   3.230  0.2097  0.5833 -0.1583
  136MOL0     C18694   9.636   3.142   3.251  0.2949  0.8532 -1.3101
  136MOL0     C18695   9.747   3.172   3.272 -0.5317  0.5684 -0.4794
  136MOL0     C18696   9.407   2.727   2.635 -0.8073  0.7019 -0.1014
  136MOL0     C18697   9.365   2.625   2.548 -0.4895  0.7002  0.4263
  136MOL0     C18698   9.393   2.657   2.399  0.3537 -0.6510 -0.1808
  136MOL0     H18699   9.224   2.209   2.279 -0.2637 -1.7950 -1.3656
  136MOL0     H18700   9.039   2.048   2.223 -0.7457 -2.3810  0.4157
  136MOL0     H18701   8.842   1.926   2.223  0.5916  0.9982  0.7130
  136MOL0     H18702   8.765   1.785   2.293 -0.7239  0.6298  1.0209
  136MOL0     H18703   9.057   1.813   2.194 -1.7521  2.2389  1.0616
  136MOL0     H18704   8.998   1.671   2.277  1.5051  1.7915  1.8320
  136MOL0     H18705   8.984   1.600   2.036  1.7171  1.7903  0.8661
  136MOL0     H18706   8.828   1.632   2.104 -2.0625  2.0350 -1.1045
  136MOL0     H18707   8.795   1.836   1.986 -0.7786 -1.0585  1.1289
  136MOL0     H18708   8.973   1.860   1.971  1.0567 -1.2243  0.2289
  136MOL0     H18709   8.985   1.679   1.806 -0.4787  0.8115 -1.0724
  136MOL0     H18710   8.872   1.804   1.750 -2.7518  0.2527 -0.0991
  136MOL0     H18711   8.815   1.519   1.816 -1.0496 -0.1186  2.0919
  136MOL0     H18712   8.694   1.653   1.839  0.9096  0.0657  1.0584
  136MOL0     H18713   8.715   1.726   1.611 -0.2581 -0.6325 -0.2738
  136MOL0     H18714   8.649   1.567   1.636  0.6186 -1.5454 -2.6732
  136MOL0     H18715   8.933   1.632   1.549  0.6598 -0.0141 -0.3402
  136MOL0     H18716   8.861   1.470   1.556 -1.7914 -0.8897  0.6309
  136MOL0     H18717   8.661   1.416   1.347 -0.4588  0.2357  1.3115
  136MOL0     H18718   8.636   1.576   0.984 -1.1007  2.5785  2.1132
  136MOL0     H18719   8.541   1.470   1.083 -0.6666 -0.0442 -1.2377
  136MOL0     H18720   8.820   1.411   0.987 -1.7266  5.2764  0.8667
  136MOL0     H18721   8.728   1.297   1.090 -0.0581 -4.6668 -3.0937
  136MOL0     H18722   8.545   1.310   0.913  0.5595  0.3245  0.8139
  136MOL0     H18723   8.688   1.350   0.805  0.9353 -3.1082 -0.9900
  136MOL0     H18724   8.674   1.088   0.964  0.1812 -0.0417 -1.0516
  136MOL0     H18725   8.649   1.108   0.791 -3.1096 -1.2048  0.6985
  136MOL0     H18726   8.745   0.909   0.882  1.4626  2.4144  4.4627
  136MOL0     H18727   8.873   0.604   0.904 -0.1072 -1.7829 -2.0157
  136MOL0     H18728   8.799   0.594   0.745  0.6705  0.1283 -0.3665
  136MOL0     H18729   8.721   0.684   0.880  0.9945  1.6023  1.5994
  136MOL0     H18730   9.408   0.581   0.882  0.0815 -3.3297  2.0032
  136MOL0     H18731   9.522   0.358   0.868 -0.5751 -3.1602 -0.7509
  136MOL0     H18732   9.572   0.039   0.591 -3.2842  0.0861  1.8714
  136MOL0     H18733   9.531   0.190   0.489 -1.3525  1.6734  0.8369
  136MOL0     H18734   9.749   0.143   0.700 -3.6814 -0.1107  0.7406
  136MOL0     H18735   9.771   0.122   0.520 -2.1608  0.9661 -2.4457
  136MOL0     H18736   9.717   0.373   0.697 -1.7695 -2.0620  0.7556
  136MOL0     H18737   9.709   0.376   0.517 -0.0341 -1.7501  0.3869
  136MOL0     H18738   9.940   0.323   0.687  2.1404  0.3444  0.0113
  136MOL0     H18739   9.900   0.471   0.586 -0.2228 -1.3109 -0.6895
  136MOL0     H18740  10.009   0.209   0.478  0.9613 -0.0112 -2.4440
  136MOL0     H18741   9.934   0.332   0.383  0.5146  0.8727  0.5129
  136MOL0     H18742  10.172   0.343   0.571  2.7992 -0.5377 -1.7197
  136MOL0     H18743  10.111   0.492   0.474 -1.5437  0.4245  1.9042
  136MOL0     H18744  10.241   0.418   0.303 -1.3428  1.6014  2.3732
  136MOL0     H18745  10.168   0.251   0.303  0.0249 -0.8174  0.4402
  136MOL0     H18746  10.387   0.329   0.510  2.0622  0.5329 -1.0733
  136MOL0     H18747  10.415   0.281   0.340  1.2828 -1.5410  0.7320
  136MOL0     H18748   9.314   0.273   0.499 -1.2383  0.5661 -0.8429
  136MOL0     H18749   9.209   0.500   0.502  0.1566  1.0128  0.2178
  136MOL0     H18750   9.194   0.907   0.707  1.0024  0.7434 -2.0596
  136MOL0     H18751   9.095   1.114   0.744 -0.0590  0.4883  1.1743
  136MOL0     H18752   9.004   1.929   2.636 -2.8270  1.2451  0.1749
  136MOL0     H18753   9.161   2.108   2.697 -0.1954  0.1957  0.3172
  136MOL0     H18754   9.290   2.391   2.779 -3.8840  2.1214  2.7326
  136MOL0     H18755   9.370   2.566   2.938  1.1903  0.8235  0.3038
  136MOL0     H18756   9.410   2.774   3.041 -0.5999  0.0519 -0.8171
  136MOL0     H18757   9.561   2.697   3.003  1.3118  1.8135  2.0319
  136MOL0     H18758   9.658   2.952   2.989  1.4514 -0.0143  0.7208
  136MOL0     H18759   9.615   2.868   3.136  1.4443 -1.7024 -1.0800
  136MOL0     H18760   9.460   3.094   3.015 -0.5273  0.3147  0.6814
  136MOL0     H18761   9.371   2.981   3.101  0.8218 -1.2944  0.5206
  136MOL0     H18762   9.491   2.988   3.289  1.9628  0.4338 -0.0982
  136MOL0     H18763   9.414   3.146   3.247 -0.8183 -0.7198  0.0109
  136MOL0     H18764   9.851   3.189   3.287  0.3731 -0.9336 -4.1063
  136MOL0     H18765   9.445   2.820   2.593  0.4905  1.5700  2.7804
  136MOL0     H18766   9.361   2.569   2.343  3.5199 -0.7209 -2.1429
  136MOL0     H18767   9.338   2.748   2.373 -1.8486 -1.8787 -0.0685
  136MOL0     H18768   9.501   2.670   2.387  0.0933  0.6202 -1.4066
  137MOL0     O18769   7.064   2.735   9.910 -0.0261  0.0303  0.1208
  137MOL0     C18770   7.041   2.771  10.027 -0.0788  0.0326 -0.2840
  137MOL0     O18771   7.113   2.729  10.143  0.3706  0.8611 -0.0816
  137MOL0     C18772   7.233   2.663  10.118  0.5487 -0.3180  0.3379
  137MOL0     C18773   7.235   2.522  10.117  0.8761  0.0087 -0.6813
  137MOL0     C18774   7.359   2.458  10.098  0.9821 -0.1976 -0.3744
  137MOL0     C18775   7.476   2.533  10.071  0.3445  1.0617 -0.6229
  137MOL0     O18776   7.583   2.454  10.034 -0.4622 -0.6773  0.0397
  137MOL0     C18777   7.699   2.517   9.982 -0.1127  0.9321  0.1831
  137MOL0     C18778   7.829   2.428   9.991  0.1023 -0.0359 -0.0529
  137MOL0     C18779   7.826   2.327   9.872 -0.6337 -0.6589  0.9468
  137MOL0     C18780   7.971   2.314   9.821  0.4257 -0.2074  0.1526
  137MOL0     C18781   7.971   2.294   9.674 -0.2610  0.2470  0.6588
  137MOL0     C18782   8.121   2.310   9.633  0.4015  0.5826 -0.0913
  137MOL0     C18783   8.134   2.296   9.472 -0.1791  0.5985 -1.1801
  137MOL0     C18784   8.289   2.300   9.453  0.3789  0.1589 -0.1103
  137MOL0     N18785   8.350   2.428   9.508  0.8358  0.3370  0.0727
  137MOL0     C18786   8.353   2.555   9.451  0.1418  0.4831  0.2438
  137MOL0     C18787   8.408   2.636   9.549  0.7245  0.1432  0.0109
  137MOL0     C18788   8.435   2.786   9.516  0.0571  1.2404  0.3645
  137MOL0     C18789   8.589   2.789   9.476 -0.5052  0.5632 -0.2253
  137MOL0     C18790   8.641   2.928   9.450  0.8392  0.1689 -0.1623
  137MOL0     C18791   8.791   2.913   9.436 -0.2234  0.5965  0.1687
  137MOL0     O18792   8.849   3.042   9.429  0.7531 -0.0711 -0.8872
  137MOL0     C18793   8.990   3.044   9.435  0.6314 -0.7183  0.0960
  137MOL0     C18794   9.050   3.160   9.382 -0.5632 -0.4814 -0.2082
  137MOL0     C18795   9.183   3.189   9.385 -0.7288 -0.5320 -0.4454
  137MOL0     C18796   9.229   3.329   9.334 -0.5652 -0.4170  0.0846
  137MOL0     C18797   9.268   3.089   9.426 -0.2219  0.8684 -0.7535
  137MOL0     C18798   9.411   3.103   9.444 -0.2436 -0.4177 -0.8795
  137MOL0     O18799   9.481   3.183   9.355  0.2191 -0.5745 -0.0156
  137MOL0     C18800   9.611   3.200   9.376 -0.5957 -0.4227 -1.1914
  137MOL0     C18801   9.658   3.314   9.443 -0.2329 -1.5286 -0.1614
  137MOL0     C18802   9.787   3.314   9.487 -0.0077 -0.3374 -0.7777
  137MOL0     C18803   9.879   3.223   9.446 -0.4555  0.4503  0.3233
  137MOL0     O18804  10.011   3.238   9.494  0.3930 -0.0418  0.3296
  137MOL0     C18805  10.117   3.200   9.401 -1.1310  0.8347  0.9837
  137MOL0     C18806  10.255   3.187   9.470  0.6254  0.1837  0.2626
  137MOL0     C18807  10.368   3.119   9.388 -0.9430  0.1297 -1.3243
  137MOL0     C18808  10.502   3.117   9.466 -0.3247 -0.2465 -0.2328
  137MOL0     C18809  10.619   3.066   9.379  0.0842 -0.1330  0.1053
  137MOL0     C18810  10.620   2.917   9.347  1.0243 -0.3024 -0.6056
  137MOL0     C18811  10.755   2.861   9.299  0.3990 -0.1707 -0.1910
  137MOL0     C18812  10.723   2.725   9.253 -0.1102  0.3618 -0.4610
  137MOL0    Cl18813  10.627   2.743   9.104 -0.1926 -0.4230 -0.9377
  137MOL0     C18814   9.829   3.103   9.383 -0.0629 -0.1354  0.2133
  137MOL0     C18815   9.695   3.092   9.355  0.0180 -0.3097  0.0586
  137MOL0     O18816   9.457   3.035   9.541  0.4415 -0.0935  0.3066
  137MOL0     C18817   9.213   2.966   9.466 -0.0500  0.2512 -0.7202
  137MOL0     C18818   9.075   2.939   9.472 -0.6847 -0.4114  0.0961
  137MOL0     N18819   8.427   2.559   9.657 -0.6093  0.5751 -0.4911
  137MOL0     N18820   8.399   2.436   9.633  0.1489 -0.0604 -0.3808
  137MOL0     C18821   7.462   2.669  10.050  0.1874  0.2502  0.3809
  137MOL0     C18822   7.341   2.731  10.078 -0.0996 -0.4397  0.3614
  137MOL0     C18823   6.940   2.875  10.048 -0.2483  0.1310 -0.2979
  137MOL0     C18824   6.947   2.947  10.171  0.0433 -0.8371  0.2341
  137MOL0     C18825   6.860   3.054  10.186  0.0149 -0.0880  0.0560
  137MOL0     C18826   6.769   3.094  10.087 -0.3222  0.0755  0.9964
  137MOL0     O18827   6.665   3.184  10.104  0.3005  0.2397 -0.1223
  137MOL0     C18828   6.668   3.258  10.225 -0.3848 -0.1413 -0.1776
  137MOL0     C18829   6.547   3.350  10.216  0.2207 -0.1783 -0.2704
  137MOL0     C18830   6.537   3.474  10.311 -1.0275 -0.5663 -0.2054
  137MOL0     C18831   6.417   3.568  10.285  0.1453 -0.3836 -0.0153
  137MOL0     C18832   6.448   3.704  10.322  0.2187 -0.8022 -0.0118
  137MOL0     C18833   6.475   3.823  10.339 -0.6861 -0.0345 -0.1429
  137MOL0     C18834   6.775   3.023   9.967  0.7327 -0.0024 -0.0928
  137MOL0     C18835   6.848   2.913   9.952  0.1083  0.0713  0.1799
  137MOL0     C18836   6.815   2.828   9.831  0.0732 -0.7758  0.0893
  137MOL0     H18837   7.151   2.458  10.140  1.0521 -0.5869 -1.6386
  137MOL0     H18838   7.366   2.349  10.101  0.5734 -0.3059 -2.3779
  137MOL0     H18839   7.716   2.593  10.059 -3.7490  1.4792  0.6242
  137MOL0     H18840   7.687   2.557   9.881 -1.4733  0.5910  0.2015
  137MOL0     H18841   7.917   2.494   9.988 -0.2078  0.3502 -1.6929
  137MOL0     H18842   7.837   2.367  10.081  2.9270  0.3773  0.0662
  137MOL0     H18843   7.790   2.228   9.899  1.7313 -1.5728  0.9742
  137MOL0     H18844   7.755   2.364   9.797 -0.5011  1.5103  1.8015
  137MOL0     H18845   8.025   2.407   9.839 -0.0303  0.7995 -3.0293
  137MOL0     H18846   8.028   2.232   9.865  1.0351 -1.7904 -3.2526
  137MOL0     H18847   7.913   2.367   9.616  1.2871 -0.3466 -1.8074
  137MOL0     H18848   7.927   2.200   9.641  1.5898 -0.6384  0.5886
  137MOL0     H18849   8.154   2.410   9.662 -2.4361  2.0101 -1.3917
  137MOL0     H18850   8.184   2.231   9.676  1.6168  3.0303  3.0049
  137MOL0     H18851   8.088   2.378   9.416  0.3423  0.9202 -1.1416
  137MOL0     H18852   8.094   2.197   9.450  0.6895 -0.7198  2.4648
  137MOL0     H18853   8.339   2.218   9.505 -0.0941 -0.4163 -0.5554
  137MOL0     H18854   8.321   2.291   9.349  2.0866  1.1018  0.2939
  137MOL0     H18855   8.333   2.585   9.349  0.6928 -0.7549 -0.2435
  137MOL0     H18856   8.414   2.849   9.603  1.7528  0.2017  1.5917
  137MOL0     H18857   8.376   2.811   9.428 -2.0351 -2.2749  0.5786
  137MOL0     H18858   8.636   2.746   9.564  1.0320  0.3451 -1.1214
  137MOL0     H18859   8.608   2.729   9.386 -1.3857 -0.0017 -0.0558
  137MOL0     H18860   8.600   2.965   9.356 -1.4888  0.3805  0.8601
  137MOL0     H18861   8.610   3.005   9.521 -1.2139  0.4532 -1.2965
  137MOL0     H18862   8.829   2.851   9.517 -2.3722 -3.0913 -1.3745
  137MOL0     H18863   8.821   2.868   9.340 -3.0804 -0.6223 -0.2758
  137MOL0     H18864   8.975   3.232   9.350  1.9872  2.8733  0.8398
  137MOL0     H18865   9.268   3.389   9.417  1.1518 -2.8154  1.1262
  137MOL0     H18866   9.138   3.379   9.298 -2.0943 -2.1303  1.3449
  137MOL0     H18867   9.296   3.324   9.248 -0.4603 -0.1791  0.1524
  137MOL0     H18868   9.594   3.397   9.471  0.9836 -1.3131  2.2337
  137MOL0     H18869   9.818   3.392   9.556  1.6368 -1.1806 -0.4933
  137MOL0     H18870  10.091   3.102   9.362  2.2956 -0.4871  1.6922
  137MOL0     H18871  10.137   3.271   9.320  2.1737 -3.2266 -2.1927
  137MOL0     H18872  10.275   3.294   9.472  1.6958  0.1796 -3.0804
  137MOL0     H18873  10.244   3.147   9.571 -1.7639  1.7499  0.6966
  137MOL0     H18874  10.384   3.165   9.290  1.8206 -0.2096 -1.1108
  137MOL0     H18875  10.346   3.014   9.365  1.7735 -0.3227 -2.2380
  137MOL0     H18876  10.505   3.049   9.552  1.2906 -2.2844 -1.7969
  137MOL0     H18877  10.526   3.221   9.486  1.0826 -0.7094  0.6351
  137MOL0     H18878  10.633   3.126   9.288  2.0515 -2.7964 -1.4832
  137MOL0     H18879  10.709   3.075   9.440 -0.8906  3.7622  1.2692
  137MOL0     H18880  10.539   2.902   9.275  1.3140  1.1027 -1.2461
  137MOL0     H18881  10.599   2.872   9.445  2.1525 -0.4868 -0.4421
  137MOL0     H18882  10.802   2.842   9.396  1.8127 -1.9331 -1.1595
  137MOL0     H18883  10.812   2.931   9.238  3.3660  1.1636  3.7089
  137MOL0     H18884  10.661   2.669   9.324 -1.1558  0.1229 -1.5432
  137MOL0     H18885  10.807   2.659   9.229  0.4497 -0.2947  2.8368
  137MOL0     H18886   9.892   3.016   9.366 -0.4138 -0.5304  0.8872
  137MOL0     H18887   9.656   3.004   9.304  2.0930 -2.5972  2.1427
  137MOL0     H18888   9.276   2.882   9.494 -0.8850 -0.9383 -2.2268
  137MOL0     H18889   9.046   2.836   9.489  4.5921 -2.3551 -0.7762
  137MOL0     H18890   7.551   2.716  10.007  0.0345  0.3755  0.1999
  137MOL0     H18891   7.328   2.838  10.078 -2.4336 -0.5738 -3.0062
  137MOL0     H18892   7.007   2.920  10.258 -1.3589 -0.5632  1.3263
  137MOL0     H18893   6.856   3.092  10.288  2.0853  0.3210  0.0193
  137MOL0     H18894   6.686   3.197  10.314 -0.1573  0.2019  0.0150
  137MOL0     H18895   6.759   3.318  10.218  0.7042 -1.4050  2.0420
  137MOL0     H18896   6.456   3.291  10.228  0.1189 -0.2242 -1.2013
  137MOL0     H18897   6.558   3.393  10.116 -0.4299  1.9771  0.5207
  137MOL0     H18898   6.547   3.433  10.412 -2.7914 -1.2946 -0.2864
  137MOL0     H18899   6.629   3.528  10.287  0.8222 -3.2477  0.4277
  137MOL0     H18900   6.329   3.538  10.344 -0.5287 -1.2066 -1.3924
  137MOL0     H18901   6.378   3.570  10.183  1.8851  0.0787 -0.7038
  137MOL0     H18902   6.488   3.929  10.353 -1.9658  0.8965 -4.3496
  137MOL0     H18903   6.704   3.064   9.895  0.5854 -1.5787 -0.9017
  137MOL0     H18904   6.884   2.832   9.747  0.8064 -2.2394  0.5905
  137MOL0     H18905   6.804   2.721   9.852 -2.5961 -0.4340  0.8381
  137MOL0     H18906   6.713   2.847   9.795 -0.1192 -2.5038 -0.3587
  138MOL0     O18907   0.247   9.425   6.114  0.1569  0.2655  0.0168
  138MOL0     C18908   0.177   9.336   6.055 -0.5839 -0.6901  0.7664
  138MOL0     O18909   0.213   9.275   5.944 -0.6045  0.0497  1.0640
  138MOL0     C18910   0.333   9.307   5.893  0.4026 -0.4354  0.1179
  138MOL0     C18911   0.347   9.419   5.819  0.0519  0.3017  1.1580
  138MOL0     C18912   0.482   9.444   5.759 -0.2625  0.5240  0.6894
  138MOL0     C18913   0.585   9.353   5.769 -0.8883  0.7341 -0.4745
  138MOL0     O18914   0.711   9.384   5.723 -0.0947  0.2559  0.2577
  138MOL0     C18915   0.719   9.448   5.597  0.7895  0.2457 -0.3378
  138MOL0     C18916   0.826   9.392   5.518 -0.1661 -0.0725 -0.2817
  138MOL0     C18917   0.821   9.240   5.499  0.8332 -0.7590 -0.2283
  138MOL0     C18918   0.878   9.210   5.364  0.2939  0.6118  0.3690
  138MOL0     C18919   0.914   9.059   5.347 -1.0801  0.5488 -0.3447
  138MOL0     C18920   0.793   8.970   5.382 -0.2304  0.1238  0.0303
  138MOL0     C18921   0.846   8.828   5.357 -1.3263  0.3693  0.2101
  138MOL0     C18922   0.736   8.719   5.351 -0.8739 -0.3829  0.3315
  138MOL0     N18923   0.782   8.587   5.304  0.4076 -1.1088  0.3752
  138MOL0     C18924   0.801   8.556   5.170 -0.2273  0.0415  0.2282
  138MOL0     C18925   0.847   8.427   5.167 -0.0048 -0.2789 -0.9448
  138MOL0     C18926   0.907   8.333   5.059 -0.1261 -0.0629  0.2771
  138MOL0     C18927   1.024   8.401   4.987 -0.7940  0.1358  0.2367
  138MOL0     C18928   1.132   8.449   5.093 -0.0154 -0.2821 -1.1954
  138MOL0     C18929   1.253   8.502   5.028 -0.2979 -0.0936  0.5737
  138MOL0     O18930   1.356   8.514   5.130  0.1846 -0.2003 -0.7826
  138MOL0     C18931   1.490   8.547   5.102  0.5793 -0.2463  0.7173
  138MOL0     C18932   1.577   8.510   5.197 -0.5147  0.0757  0.1572
  138MOL0     C18933   1.718   8.518   5.160 -0.0595 -0.3524  0.5172
  138MOL0     C18934   1.814   8.457   5.272  0.7810 -0.0573  0.5836
  138MOL0     C18935   1.761   8.566   5.028 -0.2169  0.4843  0.1770
  138MOL0     C18936   1.907   8.577   4.992 -0.5316 -0.4778  1.4165
  138MOL0     O18937   1.933   8.653   4.885  0.2363  0.3182 -0.0931
  138MOL0     C18938   2.060   8.669   4.853 -0.0398  0.6030  1.3631
  138MOL0     C18939   2.126   8.586   4.755 -0.0156  0.6219  0.4811
  138MOL0     C18940   2.252   8.611   4.707  0.5497  0.3657 -0.1756
  138MOL0     C18941   2.326   8.716   4.752 -0.1728 -0.8719  0.4723
  138MOL0     O18942   2.451   8.760   4.718 -0.3271  0.3154 -0.5644
  138MOL0     C18943   2.540   8.674   4.646  0.3394 -0.3084 -0.0699
  138MOL0     C18944   2.691   8.692   4.672  0.8666  0.2686  0.2452
  138MOL0     C18945   2.772   8.630   4.559 -1.0546  0.6394 -0.0187
  138MOL0     C18946   2.921   8.682   4.566 -0.7644 -0.2977  0.3966
  138MOL0     C18947   3.022   8.597   4.487  0.3584 -0.2056  0.9095
  138MOL0     C18948   2.973   8.597   4.337 -0.4734 -0.0514  0.2932
  138MOL0     C18949   3.070   8.514   4.245  0.6771 -0.3499  0.4119
  138MOL0     C18950   3.017   8.528   4.104 -0.5262  0.3299  0.4551
  138MOL0    Cl18951   3.165   8.526   4.009  0.0037  0.3946  0.2024
  138MOL0     C18952   2.262   8.798   4.845 -0.6434 -0.0728 -0.4689
  138MOL0     C18953   2.129   8.783   4.897 -0.1272  0.9486 -0.0858
  138MOL0     O18954   1.987   8.523   5.067  0.4029  0.2902 -0.2995
  138MOL0     C18955   1.659   8.603   4.939 -0.3456 -0.5960  0.6757
  138MOL0     C18956   1.528   8.593   4.976  0.3203 -0.8671 -0.0447
  138MOL0     N18957   0.831   8.377   5.298 -0.0977 -0.3681 -0.4408
  138MOL0     N18958   0.783   8.467   5.377 -0.3910 -0.3821  0.8018
  138MOL0     C18959   0.565   9.240   5.845  0.3634 -0.7629 -1.0368
  138MOL0     C18960   0.441   9.215   5.900 -0.9210  0.1478 -1.3354
  138MOL0     C18961   0.038   9.298   6.103  0.6857  0.3212 -0.0885
  138MOL0     C18962  -0.060   9.244   6.023  0.0223  0.4568 -0.1701
  138MOL0     C18963  -0.187   9.206   6.074 -0.1201  0.6213  0.1728
  138MOL0     C18964  -0.221   9.223   6.206 -0.7700  0.5374 -0.3695
  138MOL0     O18965  -0.352   9.185   6.230  0.4215  0.2971  0.0725
  138MOL0     C18966  -0.396   9.204   6.370 -0.0912  0.0553 -0.6413
  138MOL0     C18967  -0.540   9.134   6.390 -0.0318 -0.1588  0.5089
  138MOL0     C18968  -0.644   9.200   6.289  0.5229 -0.1131 -0.2469
  138MOL0     C18969  -0.767   9.124   6.273 -0.7059 -0.8450 -0.0339
  138MOL0     C18970  -0.841   9.181   6.163 -0.2250 -0.5967  0.3075
  138MOL0     C18971  -0.894   9.226   6.063 -1.1250 -1.0435  0.1260
  138MOL0     C18972  -0.132   9.280   6.293 -0.0360  0.3380  0.3518
  138MOL0     C18973  -0.004   9.310   6.245 -0.8388  0.9649  0.1135
  138MOL0     C18974   0.095   9.334   6.361  0.1762  0.6646  0.4513
  138MOL0     H18975   0.264   9.488   5.806 -1.3254 -1.4671  0.2172
  138MOL0     H18976   0.506   9.541   5.716  1.5074 -0.0957  0.1664
  138MOL0     H18977   0.736   9.555   5.612 -0.4098  0.1969  1.8260
  138MOL0     H18978   0.628   9.436   5.537  0.0089 -1.6310  1.1021
  138MOL0     H18979   0.836   9.456   5.429 -0.6615  3.3037  1.8952
  138MOL0     H18980   0.914   9.417   5.579  0.3083 -0.1556 -0.9147
  138MOL0     H18981   0.864   9.185   5.584 -1.3411 -1.5743  0.4250
  138MOL0     H18982   0.715   9.214   5.491  0.2018  1.8208 -0.8785
  138MOL0     H18983   0.815   9.248   5.284  0.6591 -0.5491 -0.4899
  138MOL0     H18984   0.970   9.269   5.355  0.8524 -0.5640 -4.6020
  138MOL0     H18985   0.987   9.024   5.421 -0.1190  1.1071 -0.9948
  138MOL0     H18986   0.962   9.038   5.251  3.4130 -0.3255  1.8218
  138MOL0     H18987   0.760   8.968   5.486 -1.0659 -1.8753 -0.2243
  138MOL0     H18988   0.711   8.996   5.313  1.7648  0.9551 -2.1708
  138MOL0     H18989   0.917   8.806   5.437 -0.3049  0.8899 -0.5356
  138MOL0     H18990   0.895   8.818   5.260  1.5825  0.2889  1.5909
  138MOL0     H18991   0.711   8.710   5.457  0.2039  1.0062  0.7258
  138MOL0     H18992   0.646   8.740   5.292 -0.4840 -3.2190 -1.4641
  138MOL0     H18993   0.798   8.622   5.083  3.5064  1.5438  1.0438
  138MOL0     H18994   0.829   8.313   4.985  0.0395  2.5146 -0.6994
  138MOL0     H18995   0.944   8.238   5.098  1.0280  0.5812  0.8108
  138MOL0     H18996   1.072   8.327   4.924 -1.4527  1.2979 -1.7216
  138MOL0     H18997   0.992   8.483   4.922 -0.9437 -0.6885 -0.7546
  138MOL0     H18998   1.092   8.514   5.172  2.0186 -4.6076  4.1137
  138MOL0     H18999   1.166   8.359   5.147  1.6423  0.5710 -0.7561
  138MOL0     H19000   1.286   8.430   4.953 -0.0232 -0.3907  0.9708
  138MOL0     H19001   1.248   8.599   4.978 -0.5787 -0.4658 -0.1339
  138MOL0     H19002   1.550   8.468   5.293  0.6596  0.6895  0.7855
  138MOL0     H19003   1.896   8.527   5.291 -0.9201  2.2569 -0.1112
  138MOL0     H19004   1.866   8.363   5.249  5.0592  1.9940  0.9060
  138MOL0     H19005   1.757   8.455   5.365 -2.0953 -1.6286 -1.0809
  138MOL0     H19006   2.084   8.500   4.704  0.1771  2.2846 -2.7209
  138MOL0     H19007   2.300   8.535   4.647  0.6261 -1.3664  1.9362
  138MOL0     H19008   2.509   8.570   4.647  0.5282 -0.3754 -0.6890
  138MOL0     H19009   2.529   8.711   4.543  0.2666 -1.4660 -0.4953
  138MOL0     H19010   2.713   8.799   4.676 -0.1577  0.4406  2.5510
  138MOL0     H19011   2.711   8.654   4.772  1.0150  1.4858  0.6995
  138MOL0     H19012   2.724   8.649   4.463 -1.9544 -0.4111  0.2087
  138MOL0     H19013   2.778   8.521   4.568  2.1642  0.4721 -2.3346
  138MOL0     H19014   2.957   8.688   4.670 -2.8324 -0.4194  1.1512
  138MOL0     H19015   2.932   8.782   4.523 -2.5006 -0.9624 -1.7472
  138MOL0     H19016   3.122   8.636   4.508  0.2586 -0.4499  1.8508
  138MOL0     H19017   3.030   8.492   4.519 -0.2230 -0.9692 -1.2721
  138MOL0     H19018   2.967   8.700   4.299  0.8046  0.1756  0.6642
  138MOL0     H19019   2.873   8.553   4.344 -0.7903  0.9367  4.1979
  138MOL0     H19020   3.068   8.406   4.266 -2.5386 -0.7927 -1.4909
  138MOL0     H19021   3.173   8.550   4.257  0.9479 -1.9080  4.2234
  138MOL0     H19022   2.972   8.626   4.088  0.7236  0.7089 -1.0409
  138MOL0     H19023   2.951   8.450   4.065 -2.3435  0.0188  3.7871
  138MOL0     H19024   2.322   8.877   4.888  0.9463 -2.2530  1.5975
  138MOL0     H19025   2.092   8.837   4.984  0.0393  0.6689  0.1598
  138MOL0     H19026   1.675   8.636   4.837 -0.5347 -3.1355 -0.2432
  138MOL0     H19027   1.444   8.618   4.913  1.2572  2.1256 -0.2454
  138MOL0     H19028   0.649   9.173   5.860  0.5980 -0.3467 -0.4395
  138MOL0     H19029   0.424   9.123   5.954  1.2646  1.5311  2.0361
  138MOL0     H19030  -0.066   9.235   5.915 -1.1034 -1.4541  0.0059
  138MOL0     H19031  -0.252   9.148   6.009 -1.0537 -0.9156  2.3482
  138MOL0     H19032  -0.331   9.152   6.442  1.0176  2.2016  0.0229
  138MOL0     H19033  -0.391   9.309   6.401  1.4170 -0.3704  0.7215
  138MOL0     H19034  -0.577   9.131   6.493  1.1046 -2.3340  0.9152
  138MOL0     H19035  -0.525   9.031   6.357  1.0875  0.0545  0.3063
  138MOL0     H19036  -0.660   9.305   6.318 -1.2281 -0.9803  2.3504
  138MOL0     H19037  -0.612   9.199   6.185 -3.6622 -1.9870 -1.7315
  138MOL0     H19038  -0.825   9.132   6.366 -2.2561  0.3539 -1.0695
  138MOL0     H19039  -0.743   9.018   6.260 -1.0553 -0.8392 -0.7448
  138MOL0     H19040  -0.945   9.287   5.991 -1.2696  0.8616  1.7608
  138MOL0     H19041  -0.140   9.271   6.401  2.0656 -5.8263  0.4085
  138MOL0     H19042   0.080   9.254   6.434 -2.0284 -0.1383 -0.7864
  138MOL0     H19043   0.198   9.319   6.327  1.0123  3.3538  1.5051
  138MOL0     H19044   0.101   9.435   6.403  2.6660  1.0662 -0.6607
  139MOL0     O19045   2.429   9.696  10.148 -0.5080  0.7202  0.6288
  139MOL0     C19046   2.495   9.672  10.246  0.0608 -0.0997  0.5317
  139MOL0     O19047   2.447   9.599  10.355 -0.5958 -0.1817 -0.2989
  139MOL0     C19048   2.313   9.584  10.388 -0.2723 -0.3982 -0.4082
  139MOL0     C19049   2.215   9.687  10.388 -0.3465  0.0967 -0.2747
  139MOL0     C19050   2.079   9.644  10.412  0.5745 -0.8599 -0.4510
  139MOL0     C19051   2.043   9.511  10.445  0.3817  0.1957  0.6414
  139MOL0     O19052   1.908   9.495  10.466  0.3869  0.2637 -0.0613
  139MOL0     C19053   1.858   9.360  10.478 -0.1779  0.3073  0.4348
  139MOL0     C19054   1.707   9.367  10.475  0.4728 -0.3762 -0.4256
  139MOL0     C19055   1.649   9.238  10.529  0.4184  0.1948  0.3434
  139MOL0     C19056   1.709   9.117  10.450  0.4212 -0.3538 -0.0284
  139MOL0     C19057   1.623   8.981  10.471 -0.0694 -0.5848  0.1519
  139MOL0     C19058   1.670   8.866  10.391  0.4636  0.3225  0.3096
  139MOL0     C19059   1.810   8.833  10.428 -0.2049 -0.2832  0.4471
  139MOL0     C19060   1.851   8.698  10.344  0.4910 -0.5902  0.0935
  139MOL0     N19061   1.993   8.669  10.359 -0.6042  0.0766  0.1974
  139MOL0     C19062   2.050   8.617  10.467 -0.0592 -0.2541  0.5193
  139MOL0     C19063   2.178   8.584  10.438  0.2200  0.0620  0.8388
  139MOL0     C19064   2.281   8.529  10.536  0.5151 -0.3277  0.9055
  139MOL0     C19065   2.373   8.645  10.573 -0.1647  0.1513 -0.4773
  139MOL0     C19066   2.361   8.662  10.728 -0.1474 -0.0130 -0.0456
  139MOL0     C19067   2.474   8.746  10.777  0.8921 -0.1310 -0.7036
  139MOL0     O19068   2.478   8.880  10.721 -0.8463  0.6042  0.6048
  139MOL0     C19069   2.540   8.984  10.775  0.0072  0.9278 -0.1383
  139MOL0     C19070   2.504   9.105  10.725 -0.0779  1.3765 -0.5079
  139MOL0     C19071   2.570   9.222  10.770 -0.3428 -1.2786  1.0146
  139MOL0     C19072   2.553   9.344  10.683 -0.4398 -0.0599 -0.4088
  139MOL0     C19073   2.669   9.219  10.872 -0.7071 -0.3401 -0.3630
  139MOL0     C19074   2.741   9.343  10.931 -0.4017  1.1430  1.0382
  139MOL0     O19075   2.703   9.473  10.886 -0.3906  0.5015 -0.2016
  139MOL0     C19076   2.798   9.567  10.900  0.3095  0.3376 -1.0783
  139MOL0     C19077   2.849   9.605  11.024  0.3285 -0.3868  0.4942
  139MOL0     C19078   2.954   9.700  11.025 -0.2110  0.6595 -0.1024
  139MOL0     C19079   3.009   9.753  10.908 -0.2964 -0.0336 -0.5535
  139MOL0     O19080   3.111   9.846  10.905  0.0771  0.5121 -0.4756
  139MOL0     C19081   3.228   9.801  10.955 -0.7761 -0.9260 -0.7333
  139MOL0     C19082   3.297   9.713  10.859  0.2586  0.0416  0.7878
  139MOL0     C19083   3.395   9.622  10.930 -0.0690  0.1365  0.0846
  139MOL0     C19084   3.495   9.694  11.028  0.2416 -0.3043 -0.1590
  139MOL0     C19085   3.614   9.619  11.100  0.4178  0.3310 -0.1867
  139MOL0     C19086   3.716   9.579  10.999  0.6192 -0.2612  1.2064
  139MOL0     C19087   3.841   9.544  11.070  0.0066 -0.1452 -0.0730
  139MOL0     C19088   3.940   9.461  10.987  0.1218  0.0254 -0.6149
  139MOL0    Cl19089   4.080   9.442  11.095 -0.0042 -0.4762 -0.4841
  139MOL0     C19090   2.954   9.717  10.790  0.5493  0.7004  0.1736
  139MOL0     C19091   2.847   9.626  10.786 -0.6047 -0.7514 -0.5471
  139MOL0     O19092   2.833   9.317  10.999 -1.4061 -0.9347 -0.4621
  139MOL0     C19093   2.710   9.090  10.919 -0.2927 -0.9023  0.3084
  139MOL0     C19094   2.649   8.976  10.865 -0.3164 -0.6133 -0.5063
  139MOL0     N19095   2.197   8.619  10.307  0.6162 -1.0019  0.5248
  139MOL0     N19096   2.080   8.668  10.262 -0.6623  0.3844 -0.5747
  139MOL0     C19097   2.139   9.414  10.443 -0.4300  0.5760  0.8488
  139MOL0     C19098   2.273   9.455  10.414 -0.3835  0.8341 -0.0833
  139MOL0     C19099   2.636   9.719  10.265  0.2296  0.1207  0.1654
  139MOL0     C19100   2.691   9.720  10.395  0.1829  0.0633 -0.9833
  139MOL0     C19101   2.814   9.779  10.417  0.5139  0.1622  1.0030
  139MOL0     C19102   2.891   9.833  10.317 -0.2871 -0.2585  0.6021
  139MOL0     O19103   3.004   9.893  10.342 -0.3933  0.5022  0.0883
  139MOL0     C19104   3.070   9.967  10.233 -0.2610 -0.0062 -0.4109
  139MOL0     C19105   3.202  10.032  10.280 -0.5099  0.7250 -1.0622
  139MOL0     C19106   3.263  10.114  10.167  0.9443  0.3044  0.2738
  139MOL0     C19107   3.407  10.089  10.122 -0.1304  0.7302 -0.7193
  139MOL0     C19108   3.446  10.172  10.017 -0.1275  0.1050  0.4200
  139MOL0     C19109   3.503  10.229   9.934  0.6753 -0.5161  0.5260
  139MOL0     C19110   2.840   9.824  10.183 -0.0537 -0.3392  0.2152
  139MOL0     C19111   2.721   9.771  10.154 -0.5308 -0.1172  0.1415
  139MOL0     C19112   2.675   9.756  10.012 -0.0416  0.4520  0.4659
  139MOL0     H19113   2.237   9.788  10.356  2.9586 -1.2603 -3.0163
  139MOL0     H19114   1.998   9.715  10.400  0.7662 -0.4895  0.3488
  139MOL0     H19115   1.890   9.330  10.578  0.9554  0.4539  0.1312
  139MOL0     H19116   1.902   9.294  10.403  0.9898 -0.1974  1.5308
  139MOL0     H19117   1.694   9.448  10.547 -0.5343 -0.4221 -0.5453
  139MOL0     H19118   1.671   9.397  10.377  1.4347 -2.4204 -1.4615
  139MOL0     H19119   1.683   9.224  10.632  0.8347 -1.3767  0.0205
  139MOL0     H19120   1.540   9.245  10.528  0.5300  2.6851 -0.2359
  139MOL0     H19121   1.696   9.133  10.343  0.7590 -0.9925 -0.1720
  139MOL0     H19122   1.815   9.107  10.474 -0.1496 -0.4780  2.7615
  139MOL0     H19123   1.516   8.990  10.453 -0.9581 -1.5287  4.0794
  139MOL0     H19124   1.622   8.953  10.577  3.4709 -1.6628  0.0318
  139MOL0     H19125   1.607   8.780  10.416  2.3021 -1.6607 -1.3734
  139MOL0     H19126   1.657   8.880  10.283 -1.2676  0.0542  0.4600
  139MOL0     H19127   1.817   8.814  10.536 -2.0036 -0.9762  0.4838
  139MOL0     H19128   1.868   8.918  10.393  0.4525  0.1889  2.5713
  139MOL0     H19129   1.785   8.620  10.383  2.3914 -2.0064  0.5967
  139MOL0     H19130   1.822   8.724  10.242 -1.4227  0.8210  0.9430
  139MOL0     H19131   2.010   8.594  10.565 -2.2759 -1.1756 -0.5383
  139MOL0     H19132   2.340   8.454  10.483 -0.6494 -0.8035  0.2378
  139MOL0     H19133   2.228   8.496  10.626 -0.2737  3.7566  2.1171
  139MOL0     H19134   2.477   8.640  10.540 -0.5961  0.7778 -2.0342
  139MOL0     H19135   2.340   8.732  10.516 -1.4212 -0.9640 -1.5113
  139MOL0     H19136   2.262   8.698  10.758  0.2207 -0.3592  1.6512
  139MOL0     H19137   2.365   8.565  10.778  1.3639 -0.3501 -0.7530
  139MOL0     H19138   2.470   8.750  10.886 -0.1932  2.4451 -0.7682
  139MOL0     H19139   2.570   8.697  10.756  0.7690 -0.2799 -0.9216
  139MOL0     H19140   2.434   9.116  10.642  0.2294 -2.4951 -1.4398
  139MOL0     H19141   2.496   9.325  10.591 -1.6091  0.2953  0.2190
  139MOL0     H19142   2.656   9.368  10.653 -0.1743 -1.9012 -1.1462
  139MOL0     H19143   2.500   9.418  10.743  2.1274  1.3043  0.3127
  139MOL0     H19144   2.817   9.568  11.121  1.0137 -1.0277  0.4893
  139MOL0     H19145   3.007   9.718  11.118 -1.6467 -1.2905  1.1556
  139MOL0     H19146   3.296   9.883  10.978 -1.7709  0.8353 -3.4603
  139MOL0     H19147   3.207   9.739  11.043 -0.8822 -0.8199 -0.6840
  139MOL0     H19148   3.224   9.644  10.815 -0.8059  0.0951  2.4061
  139MOL0     H19149   3.346   9.770  10.779  0.1843 -0.3093  0.4911
  139MOL0     H19150   3.442   9.552  10.860  1.2909  0.7674  0.3292
  139MOL0     H19151   3.340   9.556  10.998  2.3914 -0.8454  1.2603
  139MOL0     H19152   3.436   9.720  11.116  2.8637  0.2713  1.5357
  139MOL0     H19153   3.528   9.787  10.983 -2.1618 -0.8432 -3.4517
  139MOL0     H19154   3.659   9.681  11.178  0.0472  1.4001 -0.8042
  139MOL0     H19155   3.566   9.542  11.162 -0.2275  1.0998  0.2982
  139MOL0     H19156   3.732   9.662  10.930 -1.4974 -0.9386 -0.2144
  139MOL0     H19157   3.671   9.493  10.947  1.1064 -1.1527  2.2032
  139MOL0     H19158   3.813   9.491  11.162  1.0573 -0.9292 -0.1928
  139MOL0     H19159   3.888   9.641  11.088 -1.0733  0.5343 -0.8071
  139MOL0     H19160   3.954   9.500  10.886  0.9739 -0.7750 -0.8090
  139MOL0     H19161   3.905   9.357  10.983 -2.0090  0.4493  2.9587
  139MOL0     H19162   2.987   9.771  10.702  0.0183  1.4633  0.4233
  139MOL0     H19163   2.807   9.590  10.691 -2.3153  2.3012 -1.0970
  139MOL0     H19164   2.789   9.078  10.992 -0.8190  0.1894  1.0831
  139MOL0     H19165   2.681   8.875  10.889  2.8095 -0.2328 -2.5460
  139MOL0     H19166   2.129   9.307  10.457 -0.9427  0.7609  2.0491
  139MOL0     H19167   2.356   9.384  10.410  1.2354  2.5839  0.7316
  139MOL0     H19168   2.635   9.675  10.475 -1.9420  3.8648 -0.1172
  139MOL0     H19169   2.860   9.782  10.515  2.0690  0.0036  0.3173
  139MOL0     H19170   3.093   9.900  10.150  0.4521 -0.5411  0.2048
  139MOL0     H19171   3.000  10.048  10.213 -0.0475  0.5988  1.1417
  139MOL0     H19172   3.276   9.955  10.303 -0.2402 -0.1347 -4.3428
  139MOL0     H19173   3.184  10.093  10.369  0.3378 -0.0942 -0.2998
  139MOL0     H19174   3.197  10.098  10.081  1.4910 -1.0521  0.0787
  139MOL0     H19175   3.250  10.219  10.195 -0.3908  0.2396 -0.0162
  139MOL0     H19176   3.410   9.983  10.095 -1.3695  0.2278  0.9634
  139MOL0     H19177   3.477  10.102  10.205 -0.7086  0.1621 -0.1272
  139MOL0     H19178   3.541  10.280   9.848  1.1291 -1.9492 -0.1586
  139MOL0     H19179   2.895   9.844  10.091 -2.5587 -0.2115 -1.3377
  139MOL0     H19180   2.638   9.656   9.987  2.8993 -0.8420  0.8821
  139MOL0     H19181   2.591   9.822   9.990  0.2409  0.3086 -1.1732
  139MOL0     H19182   2.754   9.780   9.941 -0.6645  2.8406  0.4984
  140MOL0     O19183   6.737   2.034   8.107  0.6065 -0.3393  0.2075
  140MOL0     C19184   6.649   1.966   8.055  0.5441 -0.4922  0.1105
  140MOL0     O19185   6.613   1.960   7.922 -0.4728  1.1544 -0.2570
  140MOL0     C19186   6.672   2.057   7.841  0.3984  0.2320 -0.4535
  140MOL0     C19187   6.808   2.054   7.826 -0.8279  0.3513 -0.4547
  140MOL0     C19188   6.878   2.148   7.752  0.1366  0.4097 -0.0784
  140MOL0     C19189   6.807   2.248   7.686  0.2140 -1.6360 -0.7147
  140MOL0     O19190   6.885   2.337   7.616  0.3474 -0.5427 -0.4122
  140MOL0     C19191   6.835   2.400   7.499 -0.7526 -0.0690  0.4115
  140MOL0     C19192   6.944   2.435   7.397  0.1666  0.2331  0.5260
  140MOL0     C19193   7.056   2.331   7.373  0.0308  0.7524 -0.1686
  140MOL0     C19194   7.165   2.410   7.302 -0.4608  0.1617  0.1093
  140MOL0     C19195   7.306   2.359   7.306  0.2510  0.8677 -0.2642
  140MOL0     C19196   7.412   2.460   7.250 -0.5607 -1.4122  0.4087
  140MOL0     C19197   7.553   2.420   7.296  0.2405  0.0128 -0.7688
  140MOL0     C19198   7.656   2.521   7.236  0.3042 -0.3171  0.1427
  140MOL0     N19199   7.790   2.465   7.261 -0.1209 -0.4165 -0.6432
  140MOL0     C19200   7.890   2.544   7.300 -0.0895  0.6279 -0.7334
  140MOL0     C19201   8.001   2.464   7.321  1.1714 -0.7376  0.2917
  140MOL0     C19202   8.135   2.505   7.365  0.5960  0.2904 -0.3963
  140MOL0     C19203   8.214   2.554   7.243 -1.2284  0.8612  0.5312
  140MOL0     C19204   8.243   2.452   7.134 -0.1729  0.6511 -0.0106
  140MOL0     C19205   8.316   2.325   7.173  0.0516  0.5280 -0.7239
  140MOL0     O19206   8.426   2.349   7.262  1.0825 -0.3205 -0.2811
  140MOL0     C19207   8.546   2.396   7.216 -0.1390  0.0864  1.0147
  140MOL0     C19208   8.609   2.482   7.301 -0.1768 -0.2795  0.5537
  140MOL0     C19209   8.738   2.524   7.266 -0.6017 -0.7071 -0.3330
  140MOL0     C19210   8.820   2.597   7.366 -0.1284 -0.7444  0.7123
  140MOL0     C19211   8.801   2.485   7.142 -0.2082  0.0055  0.1870
  140MOL0     C19212   8.920   2.535   7.091 -0.6834 -0.1551  0.9152
  140MOL0     O19213   8.955   2.666   7.119 -0.2224  0.4650 -0.5147
  140MOL0     C19214   9.084   2.710   7.112 -1.2720  0.0261  0.0780
  140MOL0     C19215   9.197   2.642   7.052  0.8416  0.3693  0.0082
  140MOL0     C19216   9.326   2.709   7.036  0.8294 -0.5640  0.5759
  140MOL0     C19217   9.340   2.839   7.082 -0.0271 -0.4967  0.8764
  140MOL0     O19218   9.457   2.910   7.059  0.1950 -0.2437 -0.3146
  140MOL0     C19219   9.503   3.012   7.156 -0.5134  0.3864  0.1013
  140MOL0     C19220   9.666   3.030   7.149 -0.6445 -0.2200 -0.6943
  140MOL0     C19221   9.739   2.905   7.180  0.2647  0.5286 -0.9998
  140MOL0     C19222   9.874   2.931   7.243  0.2841  0.4462 -0.2725
  140MOL0     C19223   9.954   2.806   7.294 -0.8113 -0.7045 -0.1314
  140MOL0     C19224  10.089   2.846   7.352  0.5917  0.0557  0.6131
  140MOL0     C19225  10.081   2.943   7.471  0.6658  0.6047 -0.1138
  140MOL0     C19226  10.160   3.073   7.454 -0.6571  0.0788  0.7109
  140MOL0    Cl19227  10.330   3.043   7.494  0.5895 -0.0708  0.3792
  140MOL0     C19228   9.228   2.904   7.134 -0.0121 -0.9678 -0.3042
  140MOL0     C19229   9.106   2.847   7.158 -0.4713  0.7013  0.3187
  140MOL0     O19230   8.984   2.449   7.028  0.1932  0.4026  0.5766
  140MOL0     C19231   8.725   2.400   7.052 -0.4024 -0.2122 -0.4963
  140MOL0     C19232   8.604   2.347   7.096 -0.6999 -0.5025  0.1834
  140MOL0     N19233   7.956   2.338   7.297 -0.7486  0.3833 -0.0990
  140MOL0     N19234   7.835   2.336   7.256 -0.4770 -0.4499  0.0088
  140MOL0     C19235   6.667   2.252   7.701 -0.2582 -0.1359 -0.5176
  140MOL0     C19236   6.594   2.146   7.771 -0.9618 -0.1330  0.6371
  140MOL0     C19237   6.589   1.859   8.143 -0.4887 -0.1931  0.2662
  140MOL0     C19238   6.447   1.842   8.146 -0.5998  0.5705  0.0256
  140MOL0     C19239   6.392   1.736   8.224 -0.2657 -0.3386 -0.0132
  140MOL0     C19240   6.467   1.654   8.308  0.6343 -0.3697 -0.2938
  140MOL0     O19241   6.419   1.545   8.378 -0.1392 -0.4967  0.1948
  140MOL0     C19242   6.288   1.501   8.356  0.2207  0.6422 -0.3599
  140MOL0     C19243   6.192   1.569   8.453 -0.1014 -0.3520 -0.3994
  140MOL0     C19244   6.048   1.564   8.404 -0.1755  0.8113 -0.1612
  140MOL0     C19245   5.950   1.605   8.515  0.3383  0.5014  0.3035
  140MOL0     C19246   5.815   1.578   8.487  0.0410  0.6528  0.2920
  140MOL0     C19247   5.700   1.545   8.484 -0.0445  0.6238  0.1680
  140MOL0     C19248   6.606   1.690   8.316 -0.9981  0.1135 -0.5721
  140MOL0     C19249   6.666   1.787   8.242 -0.0039 -0.0840 -0.3972
  140MOL0     C19250   6.814   1.785   8.254  0.0134  0.5971 -0.8918
  140MOL0     H19251   6.866   1.989   7.890 -1.2964 -1.0393 -1.4021
  140MOL0     H19252   6.985   2.162   7.745  0.1632 -0.5745 -2.3291
  140MOL0     H19253   6.776   2.491   7.508 -0.7222  0.1761 -1.4524
  140MOL0     H19254   6.782   2.329   7.435 -0.3225 -1.0308  1.0987
  140MOL0     H19255   6.908   2.444   7.295  4.0294  1.9298 -0.9077
  140MOL0     H19256   6.960   2.540   7.420 -0.6477  1.0979 -2.4928
  140MOL0     H19257   7.091   2.293   7.469 -0.1044 -1.1771 -0.8480
  140MOL0     H19258   7.009   2.250   7.317 -1.3924  0.3773  1.4638
  140MOL0     H19259   7.144   2.420   7.195  1.3997  0.4070 -0.2548
  140MOL0     H19260   7.174   2.513   7.338 -1.7440  0.4892 -0.4397
  140MOL0     H19261   7.325   2.270   7.245  3.6215  0.6000  0.9574
  140MOL0     H19262   7.331   2.322   7.406  0.0665 -0.2053 -0.6091
  140MOL0     H19263   7.401   2.460   7.141  0.6317  2.8026  0.1373
  140MOL0     H19264   7.403   2.562   7.287  1.3498 -0.9302 -0.3401
  140MOL0     H19265   7.583   2.318   7.273  1.6470 -0.4685  2.6485
  140MOL0     H19266   7.565   2.424   7.404  1.8287  0.4950 -0.9244
  140MOL0     H19267   7.632   2.531   7.130  0.1664  1.3806  0.3121
  140MOL0     H19268   7.637   2.621   7.275 -2.2005 -0.5047 -0.4282
  140MOL0     H19269   7.893   2.652   7.310  3.4155  0.5128  0.6635
  140MOL0     H19270   8.189   2.423   7.412  0.2060  1.0095  1.3773
  140MOL0     H19271   8.118   2.586   7.436 -1.1861  0.4043 -0.9051
  140MOL0     H19272   8.159   2.633   7.191 -1.1887  0.6279  0.1225
  140MOL0     H19273   8.306   2.594   7.287 -1.3340  0.5170  1.0681
  140MOL0     H19274   8.143   2.428   7.096 -0.7192 -0.4900  1.9732
  140MOL0     H19275   8.301   2.496   7.052 -0.6708  1.5928  0.1179
  140MOL0     H19276   8.248   2.259   7.227  0.8816  1.8409  2.1655
  140MOL0     H19277   8.365   2.266   7.095  1.8657 -1.4515  1.7252
  140MOL0     H19278   8.570   2.524   7.393  1.3124  1.4168  0.4631
  140MOL0     H19279   8.924   2.564   7.358 -0.4408 -2.3161  2.4182
  140MOL0     H19280   8.791   2.590   7.471 -1.8453  1.3732  0.4623
  140MOL0     H19281   8.813   2.700   7.331  0.5770 -0.6704  0.7699
  140MOL0     H19282   9.193   2.537   7.027  0.5897  0.0087  1.4452
  140MOL0     H19283   9.410   2.657   6.991  0.4809 -0.1109 -0.6128
  140MOL0     H19284   9.463   3.110   7.129 -1.0035  0.0924 -0.2516
  140MOL0     H19285   9.465   2.991   7.257 -0.0351 -0.8924  0.0258
  140MOL0     H19286   9.699   3.078   7.056 -1.3658  2.9275  0.5144
  140MOL0     H19287   9.686   3.103   7.228 -0.2360 -0.0411 -0.9621
  140MOL0     H19288   9.750   2.851   7.085 -0.3694 -2.6549  0.6208
  140MOL0     H19289   9.679   2.853   7.255  0.6600  2.7727  1.0055
  140MOL0     H19290   9.864   2.995   7.332 -3.4955  0.4050 -0.4922
  140MOL0     H19291   9.939   2.979   7.170  1.8670  1.1916  1.5265
  140MOL0     H19292   9.885   2.746   7.355 -1.9125 -1.8754 -2.3961
  140MOL0     H19293   9.976   2.742   7.208 -1.3628  3.1249 -3.3675
  140MOL0     H19294  10.133   2.904   7.270  3.3351 -0.6697  1.4570
  140MOL0     H19295  10.140   2.751   7.373  0.5853  0.1678  1.1525
  140MOL0     H19296  10.112   2.889   7.561 -3.1270 -0.8124  0.5139
  140MOL0     H19297   9.983   2.985   7.494  0.8513  0.5136  0.8771
  140MOL0     H19298  10.113   3.150   7.517  0.8069  1.4074  0.2441
  140MOL0     H19299  10.157   3.122   7.357 -2.3689 -3.6329 -1.3099
  140MOL0     H19300   9.241   3.007   7.167  1.9046 -0.3612 -2.6905
  140MOL0     H19301   9.023   2.897   7.206 -2.4193 -1.1315 -0.9910
  140MOL0     H19302   8.768   2.376   6.956 -1.2962 -0.0868 -0.9403
  140MOL0     H19303   8.561   2.277   7.025  0.7812  0.5064 -1.8051
  140MOL0     H19304   6.603   2.333   7.666 -1.9090 -0.5153  1.4090
  140MOL0     H19305   6.490   2.157   7.799 -0.2047 -1.4805  4.5045
  140MOL0     H19306   6.389   1.914   8.088 -0.0650  0.4991 -0.6072
  140MOL0     H19307   6.286   1.723   8.203 -0.3316  2.1908 -1.7904
  140MOL0     H19308   6.269   1.512   8.249  4.5518  0.5751 -1.3150
  140MOL0     H19309   6.285   1.394   8.375 -0.0688  0.4950 -1.1703
  140MOL0     H19310   6.222   1.670   8.483 -1.8288  0.1608 -0.2952
  140MOL0     H19311   6.199   1.516   8.548 -0.3800  1.1094  0.4627
  140MOL0     H19312   6.033   1.625   8.315  2.1860  0.5231 -0.8032
  140MOL0     H19313   6.017   1.464   8.371 -1.2817  1.9237 -2.7499
  140MOL0     H19314   5.950   1.711   8.543  0.8261  0.3840  0.7780
  140MOL0     H19315   5.978   1.551   8.606  1.4669  2.8857  1.4926
  140MOL0     H19316   5.596   1.519   8.480 -0.4192  2.1319 -1.7958
  140MOL0     H19317   6.660   1.618   8.379 -1.2928  0.4844  0.1179
  140MOL0     H19318   6.857   1.698   8.202  1.2719  1.0467 -0.6329
  140MOL0     H19319   6.865   1.877   8.224 -0.7283  0.8936 -1.2759
  140MOL0     H19320   6.829   1.780   8.362 -3.3317 -0.7131 -0.3845
  141MOL0     O19321   4.647   9.834   2.240 -0.1206  0.0933  0.6821
  141MOL0     C19322   4.574   9.827   2.141  0.1093 -0.5626 -0.6780
  141MOL0     O19323   4.496   9.928   2.091 -0.1368  0.4633 -0.2098
  141MOL0     C19324   4.497  10.046   2.159 -0.3949  0.0836 -0.2880
  141MOL0     C19325   4.379  10.090   2.222  0.0971  0.2094 -0.9969
  141MOL0     C19326   4.384  10.206   2.309  1.6596  0.6212 -0.3606
  141MOL0     C19327   4.505  10.283   2.326  0.3024  0.2335 -0.4049
  141MOL0     O19328   4.500  10.386   2.417 -0.0201  0.0214 -0.3810
  141MOL0     C19329   4.619  10.401   2.490 -0.2343  0.0759 -0.1935
  141MOL0     C19330   4.582  10.507   2.592 -0.5455 -0.1626  0.6686
  141MOL0     C19331   4.470  10.464   2.690 -0.1986 -0.2177  0.7231
  141MOL0     C19332   4.451  10.578   2.779  0.2518 -0.0278  0.5299
  141MOL0     C19333   4.353  10.534   2.889  0.1720  0.1872  0.0789
  141MOL0     C19334   4.357  10.623   3.010 -0.8854 -0.4181 -0.2837
  141MOL0     C19335   4.482  10.595   3.104  0.0101  0.4299  0.0901
  141MOL0     C19336   4.541  10.458   3.096 -0.8756  0.5779  0.1320
  141MOL0     N19337   4.625  10.434   3.214  0.3498 -0.4135 -0.5625
  141MOL0     C19338   4.591  10.397   3.348  0.3983  0.5318  0.3033
  141MOL0     C19339   4.705  10.374   3.415 -0.1698 -0.3414 -1.1072
  141MOL0     C19340   4.724  10.306   3.549  0.7905 -0.2799 -0.5547
  141MOL0     C19341   4.866  10.301   3.591 -0.6462  0.3107  0.4087
  141MOL0     C19342   4.947  10.189   3.519  0.0404 -0.2802 -0.4385
  141MOL0     C19343   5.081  10.179   3.577 -0.1342 -0.0733  0.3635
  141MOL0     O19344   5.135  10.301   3.629 -0.2252 -0.1257 -0.7658
  141MOL0     C19345   5.266  10.324   3.603  0.1423 -0.1431  0.2677
  141MOL0     C19346   5.366  10.258   3.675  1.0981 -0.4605  0.0657
  141MOL0     C19347   5.496  10.296   3.663 -0.0415 -0.4251  0.1787
  141MOL0     C19348   5.591  10.230   3.757  0.3932 -0.0234  1.0842
  141MOL0     C19349   5.532  10.393   3.567  0.5168  0.4297 -0.2490
  141MOL0     C19350   5.669  10.433   3.541  0.4073 -0.0854  0.9262
  141MOL0     O19351   5.699  10.471   3.412  0.8353 -0.0687  0.0694
  141MOL0     C19352   5.815  10.534   3.395  0.1521 -0.1489  0.2272
  141MOL0     C19353   5.826  10.670   3.436 -0.4601  0.8565  0.0243
  141MOL0     C19354   5.945  10.738   3.413 -0.1067  0.2431 -0.4678
  141MOL0     C19355   6.053  10.678   3.345 -0.5583 -0.1495 -0.8765
  141MOL0     O19356   6.171  10.745   3.305 -0.0480  0.7889  0.2926
  141MOL0     C19357   6.178  10.885   3.299 -0.7045 -0.1906  0.1300
  141MOL0     C19358   6.325  10.914   3.259  0.2903 -0.6763 -0.2211
  141MOL0     C19359   6.341  11.066   3.245  0.1737 -0.4731 -0.3080
  141MOL0     C19360   6.483  11.086   3.171 -0.0573 -0.4346 -0.3140
  141MOL0     C19361   6.493  11.235   3.142  0.1886  0.4486  0.0774
  141MOL0     C19362   6.611  11.278   3.057  0.3070 -0.3134 -0.6218
  141MOL0     C19363   6.595  11.229   2.921 -0.0774 -0.1526  1.0649
  141MOL0     C19364   6.709  11.296   2.825  0.2893  0.0925  0.4583
  141MOL0    Cl19365   6.696  11.483   2.808  0.4461 -0.3522 -0.0271
  141MOL0     C19366   6.039  10.548   3.305 -0.4691  0.2097 -0.4788
  141MOL0     C19367   5.918  10.480   3.325  1.4335 -0.8959  0.1524
  141MOL0     O19368   5.752  10.440   3.628  0.3985  0.6949  0.3174
  141MOL0     C19369   5.425  10.461   3.493  0.3563  1.2250  0.0260
  141MOL0     C19370   5.297  10.414   3.514  0.3377 -0.2436 -1.3650
  141MOL0     N19371   4.806  10.414   3.330 -0.6854 -0.7261 -0.5163
  141MOL0     N19372   4.762  10.442   3.215  0.6415  0.4583 -0.2252
  141MOL0     C19373   4.618  10.236   2.256  0.6147 -0.2642 -0.1263
  141MOL0     C19374   4.612  10.119   2.177  0.8193  0.4574  0.8376
  141MOL0     C19375   4.559   9.691   2.085  0.8505  0.5047  1.0156
  141MOL0     C19376   4.650   9.594   2.114  0.5908 -0.4151  0.1732
  141MOL0     C19377   4.652   9.465   2.074 -0.4492  0.1473  0.3052
  141MOL0     C19378   4.549   9.416   1.998 -0.1661 -0.1771 -0.1633
  141MOL0     O19379   4.531   9.274   1.986  0.2526 -0.7636  0.1046
  141MOL0     C19380   4.405   9.229   1.930 -0.2009  0.9925 -0.1347
  141MOL0     C19381   4.435   9.225   1.773  0.2419 -0.7175 -0.2400
  141MOL0     C19382   4.291   9.225   1.711 -0.2597  0.0585  0.4208
  141MOL0     C19383   4.290   9.284   1.566  0.0223 -0.0260  1.0080
  141MOL0     C19384   4.270   9.431   1.563  0.5915 -0.0158  0.2647
  141MOL0     C19385   4.248   9.547   1.557  0.2665  0.9680  0.4404
  141MOL0     C19386   4.446   9.505   1.959  0.0770 -0.6028 -0.0702
  141MOL0     C19387   4.452   9.645   2.000  0.2350  0.4299  0.9387
  141MOL0     C19388   4.357   9.735   1.935 -0.3095 -0.1689  0.3246
  141MOL0     H19389   4.289  10.029   2.220  0.9990 -1.2031  0.1229
  141MOL0     H19390   4.301  10.232   2.373  1.5488 -0.9016  0.1499
  141MOL0     H19391   4.688  10.441   2.415 -3.6097  0.3951 -3.4253
  141MOL0     H19392   4.655  10.309   2.536  2.0553  0.8876 -0.2325
  141MOL0     H19393   4.669  10.538   2.651  0.1660 -1.6334  0.4426
  141MOL0     H19394   4.549  10.596   2.538  0.6990 -0.4784 -0.6622
  141MOL0     H19395   4.382  10.437   2.631 -0.4837 -2.2040  1.9348
  141MOL0     H19396   4.504  10.375   2.745  1.6837  0.3482  0.5592
  141MOL0     H19397   4.546  10.595   2.829 -0.4946  0.8605  1.6961
  141MOL0     H19398   4.427  10.664   2.714  0.1056 -1.2086 -1.0482
  141MOL0     H19399   4.362  10.426   2.904  0.5794  0.3593  1.1250
  141MOL0     H19400   4.252  10.544   2.847 -0.0380 -1.9777 -0.0586
  141MOL0     H19401   4.353  10.730   2.986 -2.9473 -0.9728 -2.9020
  141MOL0     H19402   4.264  10.590   3.057  0.4620 -2.0930  1.3563
  141MOL0     H19403   4.443  10.612   3.205 -1.3770 -1.8909  0.0314
  141MOL0     H19404   4.559  10.671   3.093  1.3356 -1.0424 -1.4169
  141MOL0     H19405   4.467  10.377   3.090  1.1480 -1.4061  0.6436
  141MOL0     H19406   4.598  10.464   3.003 -0.0709  1.7120  0.6770
  141MOL0     H19407   4.491  10.388   3.391  0.7382 -3.6845  0.5939
  141MOL0     H19408   4.668  10.212   3.548 -2.2873  1.4212 -0.2240
  141MOL0     H19409   4.665  10.368   3.616 -3.3006 -1.4865 -2.6819
  141MOL0     H19410   4.908  10.401   3.580 -2.0462  0.9662  0.8497
  141MOL0     H19411   4.861  10.268   3.695 -2.5131 -3.0654 -0.5763
  141MOL0     H19412   4.899  10.091   3.520 -0.2087 -0.1595 -0.0089
  141MOL0     H19413   4.954  10.212   3.412 -0.3519 -3.0942 -1.1427
  141MOL0     H19414   5.059  10.117   3.665 -3.4856 -0.7613 -0.8364
  141MOL0     H19415   5.152  10.127   3.512  1.5454  3.4096 -0.8174
  141MOL0     H19416   5.333  10.185   3.748  0.5729 -0.3454 -0.0552
  141MOL0     H19417   5.552  10.158   3.829  4.4536 -1.6392  1.9465
  141MOL0     H19418   5.647  10.304   3.815  2.8893 -0.9732  0.0295
  141MOL0     H19419   5.665  10.190   3.686  1.5807  4.5008 -0.5857
  141MOL0     H19420   5.738  10.706   3.489 -0.0917  0.5987  0.8212
  141MOL0     H19421   5.952  10.836   3.458  1.7276 -1.8228  4.4234
  141MOL0     H19422   6.104  10.916   3.224  0.1522  0.9740 -0.2667
  141MOL0     H19423   6.161  10.924   3.399  0.0949 -2.5661  1.2635
  141MOL0     H19424   6.390  10.871   3.336 -2.3819 -0.0431  2.6263
  141MOL0     H19425   6.343  10.870   3.161  4.1022  0.1889 -0.0661
  141MOL0     H19426   6.344  11.121   3.340 -0.4706  0.2346 -0.6860
  141MOL0     H19427   6.263  11.102   3.178  0.4097  3.2608  1.1855
  141MOL0     H19428   6.481  11.026   3.080  3.0445 -3.1426  1.2237
  141MOL0     H19429   6.568  11.053   3.231  1.0672  0.7901 -1.1777
  141MOL0     H19430   6.401  11.268   3.094 -1.2606 -1.0318  1.7086
  141MOL0     H19431   6.514  11.288   3.235 -1.0967  4.9888 -1.9379
  141MOL0     H19432   6.703  11.237   3.098 -0.7793 -0.2334  2.0808
  141MOL0     H19433   6.626  11.386   3.067  2.0562 -0.6404  0.5568
  141MOL0     H19434   6.494  11.256   2.890  1.2349  2.2539 -1.5196
  141MOL0     H19435   6.598  11.120   2.912  1.0579 -0.0474 -0.0774
  141MOL0     H19436   6.697  11.241   2.732  1.0370 -0.9926  0.9826
  141MOL0     H19437   6.806  11.280   2.873 -0.2777 -2.5116  0.8705
  141MOL0     H19438   6.128  10.499   3.267 -0.8817  1.5111 -3.4609
  141MOL0     H19439   5.922  10.375   3.295  0.1835 -0.4963 -1.5740
  141MOL0     H19440   5.443  10.542   3.422  0.1415  0.6530 -0.6854
  141MOL0     H19441   5.215  10.456   3.457  1.4684  1.4549 -1.8256
  141MOL0     H19442   4.709  10.295   2.250  1.1437 -1.1727 -3.1826
  141MOL0     H19443   4.700  10.078   2.128 -1.1170 -1.2765 -1.3795
  141MOL0     H19444   4.737   9.624   2.171  0.0037  1.7226  0.0570
  141MOL0     H19445   4.720   9.395   2.121 -0.2131 -1.7901 -2.7008
  141MOL0     H19446   4.402   9.126   1.964  1.3249  0.8599 -0.3483
  141MOL0     H19447   4.319   9.282   1.972 -0.7547  0.3500 -0.4405
  141MOL0     H19448   4.495   9.136   1.752  0.2441 -0.9572  0.7565
  141MOL0     H19449   4.480   9.320   1.743 -1.3877  0.4082  0.7254
  141MOL0     H19450   4.250   9.124   1.700 -0.9069  0.2435  1.0396
  141MOL0     H19451   4.226   9.283   1.778 -0.5663  0.7075 -0.4174
  141MOL0     H19452   4.218   9.233   1.501 -0.1034  1.9620 -0.4796
  141MOL0     H19453   4.392   9.277   1.526  0.1125  1.3680  0.9630
  141MOL0     H19454   4.230   9.652   1.556  2.3788  1.3913  1.4995
  141MOL0     H19455   4.369   9.486   1.885 -1.5098  1.6352  0.9069
  141MOL0     H19456   4.319   9.813   2.002  2.1326  1.8696 -0.5098
  141MOL0     H19457   4.412   9.782   1.853  0.7098 -0.9673  0.5367
  141MOL0     H19458   4.277   9.676   1.889  1.2101 -1.4402 -0.7891
  142MOL0     O19459   6.847   6.432  11.093 -0.0626 -0.7557 -0.6101
  142MOL0     C19460   6.755   6.493  11.048  0.3987 -0.0867  0.4934
  142MOL0     O19461   6.656   6.541  11.134 -0.4253  0.3740  0.6270
  142MOL0     C19462   6.644   6.503  11.268  0.6455 -1.0632  0.4238
  142MOL0     C19463   6.739   6.549  11.358 -0.4259 -0.3230  0.4140
  142MOL0     C19464   6.709   6.547  11.497  0.5233 -0.1201  0.3776
  142MOL0     C19465   6.586   6.494  11.550  0.6229 -0.2816  0.1140
  142MOL0     O19466   6.571   6.486  11.691 -0.1823  0.9208  0.4362
  142MOL0     C19467   6.490   6.374  11.734 -0.1003 -0.2314 -0.0972
  142MOL0     C19468   6.526   6.331  11.882  0.4939  0.0237  0.1030
  142MOL0     C19469   6.672   6.309  11.904  0.2242 -0.3287 -0.8003
  142MOL0     C19470   6.715   6.223  12.027  0.0773  0.1873 -0.9033
  142MOL0     C19471   6.856   6.174  12.006 -0.2546 -0.7352  0.2164
  142MOL0     C19472   6.957   6.243  12.092 -0.2655 -0.3186 -0.1065
  142MOL0     C19473   7.105   6.203  12.069 -0.9151 -0.4199  0.1557
  142MOL0     C19474   7.181   6.284  11.959 -0.7765  0.0542 -0.2157
  142MOL0     N19475   7.326   6.267  11.956 -0.2267 -0.6825  0.5450
  142MOL0     C19476   7.406   6.185  11.873  0.6444 -0.4602 -0.6454
  142MOL0     C19477   7.532   6.223  11.920 -0.1020  1.0394 -0.6154
  142MOL0     C19478   7.659   6.168  11.858 -0.6018  0.5771 -0.0130
  142MOL0     C19479   7.777   6.264  11.890 -0.5557  0.1660 -0.1167
  142MOL0     C19480   7.889   6.224  11.801 -0.1433  0.0396 -0.2909
  142MOL0     C19481   8.007   6.310  11.843 -0.3114 -0.1025 -0.1233
  142MOL0     O19482   8.086   6.223  11.929  0.8151  0.1558  0.5319
  142MOL0     C19483   8.198   6.264  11.978 -0.3074 -0.2163  0.8778
  142MOL0     C19484   8.255   6.386  11.990 -0.7883  0.0224 -0.3793
  142MOL0     C19485   8.387   6.418  12.031  0.0157 -0.2291  0.1240
  142MOL0     C19486   8.440   6.563  12.034 -0.1850 -0.6763  0.0167
  142MOL0     C19487   8.470   6.300  12.067  0.1985 -0.3828 -0.3717
  142MOL0     C19488   8.610   6.306  12.112 -0.2035  0.4053  0.5485
  142MOL0     O19489   8.669   6.187  12.132  0.0069 -0.3644  0.2692
  142MOL0     C19490   8.803   6.191  12.164  0.3331  0.2931 -1.4633
  142MOL0     C19491   8.897   6.155  12.072 -0.7600 -1.1592  0.6068
  142MOL0     C19492   9.032   6.157  12.106 -0.1625 -0.2041 -0.1000
  142MOL0     C19493   9.081   6.199  12.228  0.3950  0.3302 -0.4531
  142MOL0     O19494   9.214   6.199  12.258  0.1221  0.4879  0.6423
  142MOL0     C19495   9.257   6.326  12.324  0.6943 -0.9104 -0.4617
  142MOL0     C19496   9.375   6.306  12.416  0.2884 -0.5617 -0.5051
  142MOL0     C19497   9.361   6.198  12.518 -0.1208  0.0063 -0.2242
  142MOL0     C19498   9.493   6.183  12.609  0.0807  0.1793 -0.5120
  142MOL0     C19499   9.463   6.183  12.763  0.5430 -0.2378 -0.0456
  142MOL0     C19500   9.588   6.189  12.841 -0.7972  0.0196 -0.0725
  142MOL0     C19501   9.700   6.094  12.794  0.1713 -0.0092 -0.5458
  142MOL0     C19502   9.654   5.950  12.797 -0.9965 -0.0995 -0.5347
  142MOL0    Cl19503   9.613   5.908  12.975 -0.2029  0.3478  0.0665
  142MOL0     C19504   8.980   6.230  12.328  0.0380 -0.1978 -0.5698
  142MOL0     C19505   8.846   6.235  12.295 -0.2498  0.2587 -0.1228
  142MOL0     O19506   8.662   6.413  12.112 -0.0012 -0.3151 -0.2203
  142MOL0     C19507   8.414   6.176  12.063  0.2455  0.5750  0.2151
  142MOL0     C19508   8.286   6.156  12.013  0.5514 -0.2704 -1.1023
  142MOL0     N19509   7.529   6.305  12.029  0.2160  0.2064 -0.1420
  142MOL0     N19510   7.405   6.314  12.057  0.1954  0.3205  0.5704
  142MOL0     C19511   6.502   6.439  11.456 -0.5028  0.6515 -0.0213
  142MOL0     C19512   6.526   6.439  11.321  0.3643  0.1321  0.1262
  142MOL0     C19513   6.756   6.529  10.908  1.2349 -0.1353  1.3162
  142MOL0     C19514   6.694   6.654  10.875  0.5137  0.2185 -0.3673
  142MOL0     C19515   6.679   6.685  10.742  0.1595  0.4746  0.0504
  142MOL0     C19516   6.731   6.610  10.641  0.2342  0.4317  0.2659
  142MOL0     O19517   6.705   6.650  10.511 -0.0289  0.7294  0.0107
  142MOL0     C19518   6.778   6.597  10.403 -0.4217  0.1496  0.8510
  142MOL0     C19519   6.794   6.695  10.277  0.5805  0.5810 -1.2510
  142MOL0     C19520   6.661   6.759  10.240 -0.2266 -0.3606  0.8186
  142MOL0     C19521   6.689   6.889  10.158  0.8338 -1.1977  0.0971
  142MOL0     C19522   6.558   6.922  10.100  1.3500 -0.4725 -0.1199
  142MOL0     C19523   6.449   6.968  10.063 -0.0139 -0.1188 -0.0089
  142MOL0     C19524   6.781   6.486  10.670  0.4573 -0.9819 -0.3414
  142MOL0     C19525   6.790   6.437  10.798 -0.4146 -0.3135 -0.5752
  142MOL0     C19526   6.841   6.297  10.825  0.5202 -0.5697 -0.1884
  142MOL0     H19527   6.826   6.604  11.324 -0.5812  0.1104  0.7113
  142MOL0     H19528   6.782   6.590  11.565  0.7479 -0.0313  0.0825
  142MOL0     H19529   6.500   6.292  11.662  0.7602 -0.1500 -0.0719
  142MOL0     H19530   6.384   6.400  11.724  0.0634  0.4016 -0.1903
  142MOL0     H19531   6.492   6.400  11.960 -0.9280 -0.8206  0.2751
  142MOL0     H19532   6.480   6.233  11.901 -0.5437  0.7823  1.7701
  142MOL0     H19533   6.705   6.270  11.806  0.3988 -0.5944 -0.6384
  142MOL0     H19534   6.724   6.403  11.922  1.5616 -1.2153  0.1335
  142MOL0     H19535   6.690   6.273  12.122  1.6483 -4.1212  2.0921
  142MOL0     H19536   6.655   6.133  12.044 -1.4598  1.2783 -0.2364
  142MOL0     H19537   6.876   6.184  11.899 -0.7299 -3.8203 -0.2517
  142MOL0     H19538   6.855   6.067  12.029  0.6220 -0.9497 -0.6442
  142MOL0     H19539   6.959   6.348  12.064 -2.4787  0.4321  2.1612
  142MOL0     H19540   6.929   6.256  12.197 -0.1279  2.0381 -0.3042
  142MOL0     H19541   7.127   6.097  12.060  2.3398  0.0508  1.5176
  142MOL0     H19542   7.146   6.230  12.167  0.1353  0.5344 -0.5268
  142MOL0     H19543   7.140   6.252  11.863  2.6368 -2.8035 -0.9655
  142MOL0     H19544   7.160   6.388  11.985 -1.7095  0.4057 -2.1699
  142MOL0     H19545   7.371   6.117  11.796  0.1178 -2.7475  1.4985
  142MOL0     H19546   7.652   6.150  11.750  1.4460 -0.7264  0.0255
  142MOL0     H19547   7.674   6.068  11.899 -1.4694 -0.9164 -2.9966
  142MOL0     H19548   7.745   6.368  11.877  0.6613  0.7659  1.4788
  142MOL0     H19549   7.801   6.252  11.996 -2.4056  0.2488  0.3536
  142MOL0     H19550   7.910   6.117  11.814 -2.7803 -0.4445  0.5544
  142MOL0     H19551   7.868   6.250  11.696  0.5431 -0.9558 -0.6952
  142MOL0     H19552   8.065   6.346  11.758 -0.9894 -1.3924 -1.1723
  142MOL0     H19553   7.968   6.396  11.897 -2.6836  0.0429 -1.9080
  142MOL0     H19554   8.208   6.475  11.949 -0.9647  0.1855  0.1689
  142MOL0     H19555   8.532   6.584  11.979  1.4120 -2.6214  1.7756
  142MOL0     H19556   8.451   6.596  12.138  0.7523  0.3095 -0.3683
  142MOL0     H19557   8.363   6.632  11.999  0.1192  0.7450  1.9662
  142MOL0     H19558   8.862   6.125  11.974  1.2119 -3.0764  0.4241
  142MOL0     H19559   9.105   6.133  12.028 -0.7809 -1.5233 -0.3102
  142MOL0     H19560   9.299   6.390  12.246  2.5155 -1.4387  0.0388
  142MOL0     H19561   9.179   6.383  12.376  1.7932  1.4514 -1.2744
  142MOL0     H19562   9.462   6.294  12.352  0.3383  3.3245 -1.4076
  142MOL0     H19563   9.391   6.400  12.468 -1.3933 -0.1214 -0.7069
  142MOL0     H19564   9.351   6.105  12.462  3.3760 -0.8390  0.3151
  142MOL0     H19565   9.269   6.216  12.574 -0.1524  2.4236 -0.9476
  142MOL0     H19566   9.553   6.273  12.594 -2.5755  2.3874  1.0502
  142MOL0     H19567   9.545   6.093  12.574  1.9046 -0.2612  2.8804
  142MOL0     H19568   9.410   6.271  12.799  2.4076 -0.1103  2.6419
  142MOL0     H19569   9.402   6.096  12.789  0.1470  0.7811  2.7559
  142MOL0     H19570   9.572   6.182  12.949  3.4051 -0.2406  0.6980
  142MOL0     H19571   9.631   6.289  12.832 -1.9738  0.6259  0.8270
  142MOL0     H19572   9.782   6.105  12.865  0.1318  2.2919 -0.7773
  142MOL0     H19573   9.730   6.124  12.693 -1.7693 -0.9614 -1.4790
  142MOL0     H19574   9.736   5.879  12.783 -0.7508 -0.4117  1.9246
  142MOL0     H19575   9.577   5.929  12.722  0.9959 -2.1604 -2.1494
  142MOL0     H19576   8.994   6.252  12.434 -4.3860 -1.7710  0.5690
  142MOL0     H19577   8.782   6.277  12.372  2.5517  0.6073  2.2186
  142MOL0     H19578   8.462   6.081  12.085 -0.4423 -0.9416 -3.9360
  142MOL0     H19579   8.243   6.057  12.005 -0.5207 -0.0018  0.8677
  142MOL0     H19580   6.414   6.393  11.500  0.4145  0.4083  1.6388
  142MOL0     H19581   6.453   6.389  11.257  1.9963 -1.4381 -0.6134
  142MOL0     H19582   6.659   6.721  10.953 -0.3040 -0.8180  0.1701
  142MOL0     H19583   6.620   6.773  10.719 -2.0530 -0.5303  1.5523
  142MOL0     H19584   6.881   6.575  10.432  0.1240  2.3597  0.7496
  142MOL0     H19585   6.732   6.500  10.380 -0.0729  0.4980 -1.5262
  142MOL0     H19586   6.840   6.639  10.194 -0.3396 -0.0478 -1.3482
  142MOL0     H19587   6.864   6.773  10.307 -0.4012  1.3651 -0.9584
  142MOL0     H19588   6.598   6.687  10.186  1.2582 -0.0942 -1.3957
  142MOL0     H19589   6.610   6.788  10.332 -1.2067 -0.4319  0.3176
  142MOL0     H19590   6.768   6.874  10.085  2.1103 -3.1526  1.7571
  142MOL0     H19591   6.720   6.969  10.226 -2.5853  0.2663  0.1123
  142MOL0     H19592   6.349   6.989  10.032  0.4861  0.3227 -1.3828
  142MOL0     H19593   6.822   6.413  10.601  5.7556 -1.4249  2.7147
  142MOL0     H19594   6.777   6.252  10.902 -0.1137 -2.9173 -1.9862
  142MOL0     H19595   6.850   6.224  10.744 -2.6428 -1.1870 -0.0891
  142MOL0     H19596   6.943   6.306  10.864 -0.5587 -1.3012  3.1906
  143MOL0     O19597   6.075   0.865   8.380  0.4179  0.1129  0.4006
  143MOL0     C19598   6.166   0.909   8.447 -0.9277 -0.5247 -0.5218
  143MOL0     O19599   6.169   0.895   8.587  0.1460 -0.4409 -0.5880
  143MOL0     C19600   6.079   0.817   8.651 -0.0224  0.3427  0.1882
  143MOL0     C19601   6.107   0.697   8.714  0.3990 -0.3846  0.3280
  143MOL0     C19602   6.010   0.629   8.789  0.2294  0.0799  0.1007
  143MOL0     C19603   5.874   0.670   8.779  0.2181  0.1759 -0.8736
  143MOL0     O19604   5.777   0.603   8.846 -0.8111 -0.6990 -0.1525
  143MOL0     C19605   5.803   0.474   8.904 -0.3016  0.0082  0.1710
  143MOL0     C19606   5.672   0.408   8.955 -0.2775 -0.4653  0.0191
  143MOL0     C19607   5.598   0.488   9.059 -0.2957  0.4426  0.2386
  143MOL0     C19608   5.458   0.426   9.097 -0.4816 -0.2491 -0.2249
  143MOL0     C19609   5.399   0.497   9.225  0.0162 -0.1167  0.0897
  143MOL0     C19610   5.283   0.409   9.285 -0.1239  0.1181  0.2031
  143MOL0     C19611   5.334   0.291   9.371  0.1531 -0.0137  0.6033
  143MOL0     C19612   5.216   0.232   9.448  0.8457  0.3204  1.0457
  143MOL0     N19613   5.251   0.132   9.554 -0.4492 -0.7007 -0.1036
  143MOL0     C19614   5.239  -0.009   9.536  0.2988  0.6027  0.0648
  143MOL0     C19615   5.222  -0.056   9.668  0.1292  0.7025  0.9369
  143MOL0     C19616   5.186  -0.194   9.711 -0.4741  0.8151 -0.1113
  143MOL0     C19617   5.304  -0.256   9.788 -0.0370  0.0463 -0.1996
  143MOL0     C19618   5.307  -0.207   9.929  0.6180  0.3629 -0.9620
  143MOL0     C19619   5.416  -0.292  10.011  0.5123 -0.6998  0.1756
  143MOL0     O19620   5.547  -0.243   9.977  0.0832 -0.1206  0.1702
  143MOL0     C19621   5.620  -0.154  10.057  1.0023 -0.3824 -0.8764
  143MOL0     C19622   5.753  -0.130  10.026  0.2217 -1.1321 -0.4360
  143MOL0     C19623   5.834  -0.052  10.107 -0.9312  0.0515  0.2001
  143MOL0     C19624   5.977  -0.072  10.073 -0.2613  0.2366  0.6786
  143MOL0     C19625   5.785   0.010  10.220  0.0367 -0.2888 -1.1751
  143MOL0     C19626   5.862   0.094  10.316 -0.7284  0.2393  0.2089
  143MOL0     O19627   6.003   0.107  10.303  0.7341  0.5387  0.1801
  143MOL0     C19628   6.062   0.161  10.404 -0.0860 -0.4148 -0.0630
  143MOL0     C19629   6.076   0.297  10.427  0.1688 -0.6734  0.1733
  143MOL0     C19630   6.156   0.330  10.539  0.3788 -0.4566 -0.5539
  143MOL0     C19631   6.226   0.240  10.613 -0.2243 -0.1426  0.4384
  143MOL0     O19632   6.319   0.271  10.709 -0.2739  0.1187  0.5225
  143MOL0     C19633   6.391   0.395  10.705  0.8721 -0.1216 -0.6627
  143MOL0     C19634   6.483   0.412  10.596 -0.1728 -0.2446  0.1730
  143MOL0     C19635   6.575   0.298  10.583 -0.2932 -0.8045 -0.1719
  143MOL0     C19636   6.662   0.274  10.707 -0.1605  0.5223  0.7678
  143MOL0     C19637   6.762   0.160  10.695  0.7799  0.1804  0.3034
  143MOL0     C19638   6.697   0.025  10.681 -0.7352  0.8364 -0.4305
  143MOL0     C19639   6.588  -0.016  10.789  0.1043 -0.5959 -0.7611
  143MOL0     C19640   6.524  -0.149  10.770  0.1579 -0.2391 -0.0952
  143MOL0    Cl19641   6.480  -0.179  10.593 -0.0841  0.0644 -0.1180
  143MOL0     C19642   6.203   0.106  10.596  0.2210  0.6507 -0.7338
  143MOL0     C19643   6.125   0.068  10.492 -0.5401 -0.3107  0.1098
  143MOL0     O19644   5.790   0.149  10.401  0.1949  0.8771  0.0333
  143MOL0     C19645   5.647  -0.004  10.244 -0.5022 -0.1146  0.6932
  143MOL0     C19646   5.562  -0.074  10.159 -0.5297 -0.5524  0.1989
  143MOL0     N19647   5.232   0.053   9.755 -0.1809  0.5781 -0.0986
  143MOL0     N19648   5.250   0.159   9.683 -0.6089 -0.2555 -0.4378
  143MOL0     C19649   5.846   0.777   8.698  0.4059  0.3516 -0.1502
  143MOL0     C19650   5.946   0.859   8.656  0.2126  0.4442 -0.1901
  143MOL0     C19651   6.270   1.003   8.379 -0.2627  0.0907 -0.2524
  143MOL0     C19652   6.248   1.031   8.242  0.1330  0.0446  0.1492
  143MOL0     C19653   6.338   1.121   8.173 -0.6089  0.1771  0.6783
  143MOL0     C19654   6.449   1.173   8.233  1.4496  0.9649 -0.3852
  143MOL0     O19655   6.543   1.242   8.164  0.0617 -0.2063  0.6368
  143MOL0     C19656   6.483   1.352   8.090  0.8849 -0.1145 -0.1900
  143MOL0     C19657   6.588   1.435   8.024 -0.1673  0.3194  0.6732
  143MOL0     C19658   6.661   1.360   7.909 -0.1133 -0.2146 -0.0372
  143MOL0     C19659   6.799   1.294   7.944  0.8762  0.1177 -0.5683
  143MOL0     C19660   6.904   1.399   7.952  0.1468 -0.3995  0.1845
  143MOL0     C19661   6.987   1.490   7.966  0.0312  0.0131 -0.1868
  143MOL0     C19662   6.478   1.131   8.365  0.3754 -0.5778 -0.1594
  143MOL0     C19663   6.382   1.058   8.445 -0.4101 -0.1927 -0.1210
  143MOL0     C19664   6.435   1.016   8.582  0.1930  0.3754  0.3776
  143MOL0     H19665   6.213   0.676   8.704  0.8191  1.0906  1.3392
  143MOL0     H19666   6.036   0.534   8.834 -0.6280 -1.4597 -2.4740
  143MOL0     H19667   5.862   0.482   8.996  0.3839  1.9332 -0.3858
  143MOL0     H19668   5.850   0.409   8.830 -1.0228  2.2570 -2.4247
  143MOL0     H19669   5.605   0.401   8.869 -1.4109 -0.1806  0.8582
  143MOL0     H19670   5.697   0.307   8.987 -0.0422  0.1885  2.0199
  143MOL0     H19671   5.661   0.489   9.148  2.3572  2.9690 -1.4590
  143MOL0     H19672   5.591   0.595   9.035  3.1556  0.6042 -0.5089
  143MOL0     H19673   5.388   0.422   9.013 -2.7584 -0.0785  1.5586
  143MOL0     H19674   5.482   0.323   9.125  0.2834 -0.0253 -0.0053
  143MOL0     H19675   5.374   0.597   9.190 -0.3811  1.4883  4.3532
  143MOL0     H19676   5.482   0.499   9.296  2.3403  0.7900 -2.4729
  143MOL0     H19677   5.221   0.470   9.352 -0.0779 -1.6375  1.9384
  143MOL0     H19678   5.208   0.376   9.212  0.5192 -1.4729  0.2258
  143MOL0     H19679   5.407   0.329   9.443 -0.1581 -0.5713  1.2269
  143MOL0     H19680   5.381   0.215   9.307  2.6450  0.0781  2.2015
  143MOL0     H19681   5.166   0.320   9.489 -0.3634 -0.2654  0.8995
  143MOL0     H19682   5.153   0.192   9.367  1.9998  1.7423 -0.6274
  143MOL0     H19683   5.242  -0.068   9.444 -2.2332 -2.0969  1.5547
  143MOL0     H19684   5.169  -0.266   9.631  1.7828  1.4937 -1.2732
  143MOL0     H19685   5.096  -0.174   9.770 -2.1461 -1.5219 -1.6910
  143MOL0     H19686   5.284  -0.364   9.784  2.1976 -0.3934 -0.5684
  143MOL0     H19687   5.400  -0.231   9.743  1.3713  1.3485  3.2286
  143MOL0     H19688   5.316  -0.098   9.932 -0.4456  0.5212 -2.5318
  143MOL0     H19689   5.208  -0.218   9.974 -0.3129  0.0697 -2.9738
  143MOL0     H19690   5.404  -0.280  10.119 -1.7931 -0.5654 -0.0417
  143MOL0     H19691   5.404  -0.399   9.990 -2.1579 -0.3063 -0.7506
  143MOL0     H19692   5.800  -0.187   9.947 -0.2774 -0.1023 -1.5113
  143MOL0     H19693   6.025   0.025  10.092  1.3896 -0.9250  2.8654
  143MOL0     H19694   6.001  -0.097   9.969  1.0902  0.5093  0.9160
  143MOL0     H19695   6.020  -0.149  10.136  1.5119  1.7107  1.3554
  143MOL0     H19696   6.025   0.371  10.366  1.0395  1.2903  1.7333
  143MOL0     H19697   6.170   0.436  10.562  0.9312 -1.2160  3.1767
  143MOL0     H19698   6.319   0.478  10.707  0.3789 -0.4581 -2.6355
  143MOL0     H19699   6.445   0.395  10.801 -0.0023 -0.0175 -0.1567
  143MOL0     H19700   6.429   0.431  10.502  0.5878  2.2111  0.1549
  143MOL0     H19701   6.547   0.499  10.614 -0.8294  0.6591 -1.6037
  143MOL0     H19702   6.649   0.328  10.509 -1.8474  3.2857 -0.3299
  143MOL0     H19703   6.510   0.213  10.558 -3.8272  0.6024  3.1260
  143MOL0     H19704   6.596   0.255  10.792 -1.5604  2.4731  0.1860
  143MOL0     H19705   6.721   0.362  10.736 -1.3012  1.4935  0.2109
  143MOL0     H19706   6.825   0.173  10.606  0.1371  0.8282 -0.0654
  143MOL0     H19707   6.833   0.158  10.779  0.6655  3.0349  0.5541
  143MOL0     H19708   6.771  -0.055  10.689  0.6471  1.6267 -3.5040
  143MOL0     H19709   6.648   0.014  10.584  0.0533 -2.9176 -0.5422
  143MOL0     H19710   6.509   0.059  10.775 -1.1606 -2.2796 -3.4896
  143MOL0     H19711   6.623   0.000  10.891 -2.9440  1.8423  0.0378
  143MOL0     H19712   6.439  -0.162  10.837  0.4561 -0.2177  0.2881
  143MOL0     H19713   6.597  -0.222  10.807 -0.2591  0.7738  3.0178
  143MOL0     H19714   6.259   0.036  10.657  0.7815  1.9825  0.3477
  143MOL0     H19715   6.124  -0.039  10.476  2.3926 -0.3333 -0.4847
  143MOL0     H19716   5.597   0.049  10.324  0.8710  1.0067  0.8444
  143MOL0     H19717   5.455  -0.083  10.170 -0.6810 -2.6181 -2.0205
  143MOL0     H19718   5.741   0.804   8.707  0.4897  0.9227 -0.7791
  143MOL0     H19719   5.934   0.958   8.614 -0.2870  0.3970 -0.1625
  143MOL0     H19720   6.164   0.995   8.185  0.6296 -2.6495  0.9978
  143MOL0     H19721   6.305   1.133   8.070  1.2197  0.1354  0.0588
  143MOL0     H19722   6.418   1.318   8.009 -2.6157  2.9436  1.0210
  143MOL0     H19723   6.431   1.407   8.169  3.8814 -1.6973  3.1804
  143MOL0     H19724   6.659   1.485   8.090  1.9607 -2.5612  0.7662
  143MOL0     H19725   6.536   1.518   7.975  0.3372  0.8115  0.9701
  143MOL0     H19726   6.590   1.283   7.875 -0.0727  0.8080 -2.5940
  143MOL0     H19727   6.671   1.430   7.826 -2.0194  1.8023  1.3092
  143MOL0     H19728   6.836   1.226   7.867 -0.8873  0.7878 -2.0668
  143MOL0     H19729   6.792   1.233   8.035  0.2567 -0.7348 -1.1654
  143MOL0     H19730   7.057   1.570   7.980  0.9765 -0.5814 -1.2530
  143MOL0     H19731   6.566   1.183   8.402  1.3702 -2.1733 -0.1842
  143MOL0     H19732   6.442   0.907   8.589 -2.5400  0.2117  1.9519
  143MOL0     H19733   6.530   1.065   8.604  0.4462 -0.1953  0.5493
  143MOL0     H19734   6.373   1.040   8.669  0.2164  2.6402 -0.1533
  144MOL0     O19735  11.086   4.197   1.686 -0.1561  0.8049  0.1702
  144MOL0     C19736  11.036   4.132   1.590 -0.5453 -0.0584  0.2558
  144MOL0     O19737  11.108   4.100   1.476 -0.0429  0.6814 -0.1187
  144MOL0     C19738  11.243   4.124   1.484  0.1787  0.4857  0.4122
  144MOL0     C19739  11.327   4.013   1.469 -0.5318 -1.4667 -0.3496
  144MOL0     C19740  11.470   4.029   1.467  0.3531  0.8359 -0.3693
  144MOL0     C19741  11.529   4.152   1.462 -0.7545 -0.8977  0.0550
  144MOL0     O19742  11.654   4.188   1.436  0.2557  0.2834 -0.3482
  144MOL0     C19743  11.754   4.093   1.396 -0.4832 -1.2149 -0.1637
  144MOL0     C19744  11.896   4.148   1.435  0.6585 -0.2480  0.9856
  144MOL0     C19745  12.007   4.045   1.441  0.3949  0.2232 -0.3236
  144MOL0     C19746  12.137   4.121   1.445 -0.5872  0.8703 -0.8355
  144MOL0     C19747  12.243   4.008   1.483 -0.3114 -0.3958  0.0771
  144MOL0     C19748  12.288   3.918   1.368 -0.2587  0.2245  0.4011
  144MOL0     C19749  12.349   3.788   1.418 -0.4655 -0.1004 -0.5851
  144MOL0     C19750  12.240   3.686   1.470  0.1829  0.1806  0.2070
  144MOL0     N19751  12.315   3.568   1.511 -0.0811 -0.1760 -0.3884
  144MOL0     C19752  12.418   3.566   1.606  0.4479  0.3739 -0.1141
  144MOL0     C19753  12.436   3.436   1.635 -0.1864 -0.1481  0.3298
  144MOL0     C19754  12.520   3.355   1.732 -0.6914 -1.1314 -0.4709
  144MOL0     C19755  12.663   3.380   1.687 -0.0643 -0.1917 -0.6712
  144MOL0     C19756  12.751   3.318   1.800  0.4770  0.6976  0.6771
  144MOL0     C19757  12.744   3.168   1.810 -0.0897  0.2320  0.5494
  144MOL0     O19758  12.790   3.091   1.691 -0.1745 -0.1331 -0.1475
  144MOL0     C19759  12.689   3.014   1.649  0.1409 -0.4857  0.8071
  144MOL0     C19760  12.677   2.888   1.710 -0.0773  0.7722  0.8397
  144MOL0     C19761  12.562   2.813   1.672 -0.9778 -0.3675  0.6159
  144MOL0     C19762  12.546   2.698   1.763 -0.2189  0.3718 -0.4242
  144MOL0     C19763  12.487   2.841   1.556 -0.4424 -0.0589  0.5620
  144MOL0     C19764  12.380   2.751   1.492 -0.1342 -0.2729 -0.4328
  144MOL0     O19765  12.329   2.803   1.373  0.6695  0.2329 -1.0299
  144MOL0     C19766  12.217   2.750   1.314 -0.1246 -0.5644  0.1244
  144MOL0     C19767  12.229   2.639   1.239  0.1251  0.3613 -0.0107
  144MOL0     C19768  12.116   2.578   1.181 -0.4892  0.7835 -0.6651
  144MOL0     C19769  11.994   2.631   1.197 -0.0279 -0.1195  0.5781
  144MOL0     O19770  11.893   2.562   1.135  0.8056 -0.6326 -0.2866
  144MOL0     C19771  11.767   2.630   1.124 -0.5254  0.3854 -0.1428
  144MOL0     C19772  11.667   2.532   1.068 -0.2848  0.8258 -0.7417
  144MOL0     C19773  11.519   2.573   1.072  0.6698  0.0973 -0.1638
  144MOL0     C19774  11.485   2.676   0.974 -0.2016 -0.2402 -0.6159
  144MOL0     C19775  11.336   2.718   0.959 -0.3648 -0.1408 -0.0788
  144MOL0     C19776  11.294   2.768   1.094  0.2217 -0.5015 -0.3501
  144MOL0     C19777  11.161   2.840   1.085 -0.4648 -0.1714  0.2009
  144MOL0     C19778  11.124   2.943   1.189  0.7081 -0.3888  0.1770
  144MOL0    Cl19779  11.118   2.853   1.349 -0.2472 -0.2615 -0.4051
  144MOL0     C19780  11.987   2.752   1.261  0.8033 -0.7472  0.1433
  144MOL0     C19781  12.095   2.815   1.329 -0.2595 -0.3832 -0.0306
  144MOL0     O19782  12.345   2.646   1.547 -0.2068 -0.1341 -0.1259
  144MOL0     C19783  12.517   2.963   1.491 -0.3224  0.1705  0.6203
  144MOL0     C19784  12.614   3.048   1.538  0.1530 -0.3157 -0.5635
  144MOL0     N19785  12.353   3.361   1.552 -0.1535  0.2463  0.0837
  144MOL0     N19786  12.286   3.442   1.480 -0.1314 -0.4269  0.0097
  144MOL0     C19787  11.443   4.261   1.479 -0.0191 -0.0487  0.3631
  144MOL0     C19788  11.305   4.244   1.483  0.3252  0.6657  0.8977
  144MOL0     C19789  10.904   4.077   1.596  0.6564  0.0141  0.4329
  144MOL0     C19790  10.835   4.040   1.481  0.5745  0.1630 -0.0570
  144MOL0     C19791  10.715   3.964   1.482  0.1482 -0.7096  0.0001
  144MOL0     C19792  10.648   3.941   1.603  1.0348 -0.0401  0.3322
  144MOL0     O19793  10.524   3.881   1.594 -0.4849 -0.4836 -0.7693
  144MOL0     C19794  10.459   3.834   1.715  0.5007 -0.0945 -0.7305
  144MOL0     C19795  10.348   3.935   1.756  0.0233 -0.0529 -1.1779
  144MOL0     C19796  10.268   3.890   1.883  0.9364  0.7898 -0.1632
  144MOL0     C19797  10.177   4.016   1.919 -0.3858  0.4323  0.3179
  144MOL0     C19798  10.083   4.039   1.805  0.3571 -0.8357 -0.3165
  144MOL0     C19799  10.003   4.079   1.727  0.9803 -0.9270 -0.6519
  144MOL0     C19800  10.707   3.986   1.718  0.8800 -0.4584  0.1085
  144MOL0     C19801  10.836   4.052   1.719  0.3369 -0.3691  1.0556
  144MOL0     C19802  10.893   4.083   1.848 -0.4285 -0.0544 -0.6114
  144MOL0     H19803  11.279   3.916   1.464  0.2264 -1.9763  1.3844
  144MOL0     H19804  11.526   3.936   1.457  0.3171  1.0417 -3.7088
  144MOL0     H19805  11.749   4.080   1.287  0.5298  2.7936 -0.8592
  144MOL0     H19806  11.747   3.998   1.448 -0.6489 -1.0656  0.0885
  144MOL0     H19807  11.913   4.230   1.365 -1.5892  2.4400  3.2908
  144MOL0     H19808  11.901   4.207   1.527 -1.5031  0.3956  0.7445
  144MOL0     H19809  11.985   3.990   1.532 -1.0199  3.2360  1.3371
  144MOL0     H19810  12.008   3.977   1.356 -2.0129 -0.2797 -0.0356
  144MOL0     H19811  12.160   4.157   1.344 -4.8173  1.3877 -1.8171
  144MOL0     H19812  12.133   4.196   1.524  0.7892 -2.4742  2.7141
  144MOL0     H19813  12.211   3.962   1.577 -0.3886  2.4159  1.5396
  144MOL0     H19814  12.331   4.069   1.505 -0.4164  0.4139 -1.5471
  144MOL0     H19815  12.208   3.899   1.296  1.4322 -2.2551 -0.9639
  144MOL0     H19816  12.360   3.979   1.311 -2.7764  1.4419 -1.7026
  144MOL0     H19817  12.426   3.815   1.491  1.6020  0.9392 -3.0051
  144MOL0     H19818  12.400   3.742   1.333  0.1547 -4.7469  1.9592
  144MOL0     H19819  12.185   3.722   1.558  2.1087 -0.1882  1.6131
  144MOL0     H19820  12.168   3.654   1.394  1.0939 -2.6937  0.4388
  144MOL0     H19821  12.472   3.647   1.655  1.5789  0.2241 -1.0893
  144MOL0     H19822  12.507   3.247   1.720  1.9993 -1.6372  0.4541
  144MOL0     H19823  12.504   3.393   1.833  0.7761  2.3179 -1.4146
  144MOL0     H19824  12.684   3.346   1.586 -1.5282  3.6679 -2.4542
  144MOL0     H19825  12.669   3.488   1.705 -1.5970 -0.5575  3.0941
  144MOL0     H19826  12.851   3.344   1.763 -0.4509 -0.0452 -2.6609
  144MOL0     H19827  12.748   3.373   1.894 -0.4087  3.5964 -0.9207
  144MOL0     H19828  12.822   3.159   1.887  0.8879  0.0989 -0.4352
  144MOL0     H19829  12.645   3.147   1.852 -0.5295 -0.3483 -0.7188
  144MOL0     H19830  12.753   2.867   1.784  0.8872 -1.3079 -0.6307
  144MOL0     H19831  12.628   2.657   1.823 -2.1323 -0.7542  1.5660
  144MOL0     H19832  12.526   2.609   1.702 -2.3413 -0.5736  1.4985
  144MOL0     H19833  12.463   2.736   1.822 -3.0679 -2.4975 -2.2750
  144MOL0     H19834  12.332   2.608   1.222  0.7436  2.5275 -0.5581
  144MOL0     H19835  12.126   2.490   1.118  3.2527  0.2750  0.3944
  144MOL0     H19836  11.735   2.662   1.224  3.8982  1.9369  0.9970
  144MOL0     H19837  11.759   2.719   1.060  2.5329 -1.1600 -2.9127
  144MOL0     H19838  11.704   2.516   0.966  1.4628 -0.2983  0.0263
  144MOL0     H19839  11.674   2.439   1.125 -2.0684 -0.7036 -2.8544
  144MOL0     H19840  11.492   2.593   1.177  2.2183  1.5665  0.0105
  144MOL0     H19841  11.456   2.488   1.044  3.0726 -1.1846 -2.0441
  144MOL0     H19842  11.532   2.646   0.880  0.3442  2.3574 -1.2545
  144MOL0     H19843  11.531   2.767   1.012 -2.5162 -0.6649  3.8999
  144MOL0     H19844  11.326   2.787   0.874 -0.6862 -1.1439 -0.8842
  144MOL0     H19845  11.269   2.638   0.924  0.2426 -0.4783 -0.4917
  144MOL0     H19846  11.366   2.838   1.137  0.2459 -0.1986 -0.8755
  144MOL0     H19847  11.286   2.682   1.161  0.7839 -1.0215 -0.9338
  144MOL0     H19848  11.091   2.755   1.090  0.9686 -1.2972  3.2015
  144MOL0     H19849  11.155   2.890   0.988 -1.2542  1.1090  0.8866
  144MOL0     H19850  11.027   2.987   1.167  0.0907 -1.0743  1.4152
  144MOL0     H19851  11.196   3.025   1.194 -0.1214  0.4424 -1.1044
  144MOL0     H19852  11.893   2.805   1.268 -0.4350 -2.6529 -1.1372
  144MOL0     H19853  12.076   2.907   1.382 -2.2733 -1.1830  0.7375
  144MOL0     H19854  12.464   3.002   1.404  0.4717 -0.0404  0.0346
  144MOL0     H19855  12.635   3.139   1.482  0.8735 -0.8273 -1.1427
  144MOL0     H19856  11.475   4.364   1.471  0.5937  0.0054  2.6338
  144MOL0     H19857  11.244   4.333   1.477  1.1109  1.1609 -0.2054
  144MOL0     H19858  10.882   4.070   1.388 -0.6323 -1.1238 -1.1284
  144MOL0     H19859  10.654   3.947   1.393 -0.4184 -2.7710  0.7318
  144MOL0     H19860  10.405   3.741   1.692 -1.5700  0.9718 -0.4155
  144MOL0     H19861  10.533   3.800   1.789  1.2938 -1.4234 -2.0829
  144MOL0     H19862  10.281   3.960   1.673 -1.6923 -3.4485 -0.9815
  144MOL0     H19863  10.401   4.026   1.784  0.3614 -0.8503  0.9863
  144MOL0     H19864  10.212   3.798   1.864  0.2926  1.2585 -0.5816
  144MOL0     H19865  10.335   3.852   1.960 -0.8162 -3.6195 -0.5202
  144MOL0     H19866  10.239   4.105   1.932 -1.9383  1.6482 -0.1853
  144MOL0     H19867  10.125   3.999   2.013 -0.6350  1.0629  0.3034
  144MOL0     H19868   9.944   4.107   1.642  1.7941  0.3112 -0.8258
  144MOL0     H19869  10.660   3.967   1.814 -0.3422  1.2961 -0.0920
  144MOL0     H19870  10.893   4.191   1.864 -1.0659 -0.1502  0.0644
  144MOL0     H19871  10.841   4.030   1.928 -0.2959 -0.8797 -1.0547
  144MOL0     H19872  10.999   4.057   1.851 -0.2056  0.8245 -0.5657
  145MOL0     O19873   3.784   7.332   5.696 -0.6895 -0.5406  0.0611
  145MOL0     C19874   3.824   7.427   5.763  0.1918  0.8343 -0.8676
  145MOL0     O19875   3.960   7.438   5.802  0.1015  0.1423 -0.2900
  145MOL0     C19876   4.071   7.360   5.764  0.4909 -0.9119  0.0508
  145MOL0     C19877   4.086   7.306   5.635 -0.3862  0.6254 -0.8581
  145MOL0     C19878   4.205   7.243   5.604 -0.2800 -0.7620 -0.1506
  145MOL0     C19879   4.316   7.241   5.691  0.3998  0.4416 -0.1943
  145MOL0     O19880   4.430   7.185   5.653 -0.1595  0.4838 -0.2988
  145MOL0     C19881   4.481   7.203   5.518 -0.5655  0.1528 -0.7855
  145MOL0     C19882   4.481   7.087   5.428  0.3946 -0.4310 -0.0954
  145MOL0     C19883   4.592   7.094   5.323  0.0207 -0.9287 -1.6379
  145MOL0     C19884   4.529   7.177   5.204  0.1609  0.9684 -0.2120
  145MOL0     C19885   4.638   7.219   5.101  0.1712  0.6585 -0.4410
  145MOL0     C19886   4.607   7.202   4.950  0.1361  0.5749 -0.2590
  145MOL0     C19887   4.505   7.308   4.903  0.3284  0.0315 -0.0505
  145MOL0     C19888   4.438   7.246   4.779  0.1374 -0.7732  0.0774
  145MOL0     N19889   4.402   7.340   4.679 -0.3485 -0.5140 -0.3975
  145MOL0     C19890   4.490   7.412   4.595 -0.7012 -0.4921 -0.2910
  145MOL0     C19891   4.415   7.496   4.535 -0.0765  1.1680 -0.4113
  145MOL0     C19892   4.452   7.595   4.432 -1.1154 -0.2211  0.1643
  145MOL0     C19893   4.369   7.602   4.296  0.2489 -0.3324 -0.4691
  145MOL0     C19894   4.414   7.708   4.195  0.6378  0.0285  0.1498
  145MOL0     C19895   4.536   7.665   4.111 -0.2577 -0.5772  0.5915
  145MOL0     O19896   4.548   7.754   4.006  0.7172 -0.6187 -0.5104
  145MOL0     C19897   4.672   7.774   3.946  0.0164  0.5618  0.5189
  145MOL0     C19898   4.794   7.707   3.980  0.5543  0.6411  0.0653
  145MOL0     C19899   4.912   7.721   3.910  0.2455  0.3223  0.3303
  145MOL0     C19900   5.026   7.651   3.973 -0.6027  0.1098 -0.3064
  145MOL0     C19901   4.916   7.796   3.794  0.1416 -0.4342  0.7584
  145MOL0     C19902   5.039   7.826   3.713 -1.0175  0.0638 -0.0519
  145MOL0     O19903   5.034   7.939   3.643  0.0371 -0.2831  1.0766
  145MOL0     C19904   5.141   7.991   3.577  0.9009 -0.1062  0.0875
  145MOL0     C19905   5.235   7.924   3.499  0.6008  0.5592 -0.4231
  145MOL0     C19906   5.332   8.003   3.435 -0.8916 -0.5263 -0.4785
  145MOL0     C19907   5.337   8.145   3.440 -0.2023  0.5601  0.4055
  145MOL0     O19908   5.438   8.217   3.385 -0.3325 -0.1240  0.2735
  145MOL0     C19909   5.516   8.299   3.463  0.2688  0.2633 -1.0866
  145MOL0     C19910   5.662   8.298   3.420 -0.0218  1.0568 -0.6264
  145MOL0     C19911   5.695   8.368   3.285  0.3010  1.0507 -0.9191
  145MOL0     C19912   5.845   8.387   3.251 -0.1553 -0.1093 -0.1784
  145MOL0     C19913   5.900   8.242   3.218  0.9412 -0.4375 -0.0341
  145MOL0     C19914   6.041   8.273   3.169 -0.3041 -0.1470  0.2732
  145MOL0     C19915   6.119   8.154   3.109  0.3144  0.2645  0.5615
  145MOL0     C19916   6.259   8.190   3.104  0.4509 -0.2390 -1.2086
  145MOL0    Cl19917   6.351   8.047   3.033  0.5353 -0.3093 -0.0912
  145MOL0     C19918   5.236   8.213   3.516 -1.1944  0.1593  0.7532
  145MOL0     C19919   5.143   8.131   3.572  1.2737 -0.7167 -0.0599
  145MOL0     O19920   5.131   7.748   3.712  0.1699  0.0898 -0.4805
  145MOL0     C19921   4.797   7.852   3.752  0.3730  0.6319  0.5907
  145MOL0     C19922   4.676   7.845   3.822  0.5269  0.9103 -0.0459
  145MOL0     N19923   4.284   7.493   4.588 -0.8568  0.4917  0.5976
  145MOL0     N19924   4.281   7.393   4.671  0.6878 -0.2470  0.1483
  145MOL0     C19925   4.305   7.313   5.816  0.4241  0.9704  0.3305
  145MOL0     C19926   4.183   7.369   5.850  0.2278 -0.4083 -0.1312
  145MOL0     C19927   3.733   7.532   5.826 -0.3448  0.8274 -0.6696
  145MOL0     C19928   3.804   7.646   5.885 -0.1462 -0.6091 -0.3442
  145MOL0     C19929   3.720   7.748   5.939 -0.1591 -0.2782  0.4031
  145MOL0     C19930   3.583   7.728   5.960 -0.3068 -0.4701  0.4281
  145MOL0     O19931   3.532   7.836   6.027 -0.1188  0.3982 -0.0518
  145MOL0     C19932   3.410   7.823   6.090  0.0385 -0.4024 -0.3335
  145MOL0     C19933   3.396   7.743   6.220  0.0466  0.6410  0.2616
  145MOL0     C19934   3.249   7.736   6.275 -0.8867 -0.4366 -0.4836
  145MOL0     C19935   3.167   7.609   6.235  0.9259  0.1950 -0.6164
  145MOL0     C19936   3.146   7.589   6.093 -0.3287 -0.1079 -0.5397
  145MOL0     C19937   3.145   7.560   5.978 -0.0144  0.0916  0.1287
  145MOL0     C19938   3.526   7.607   5.919 -0.8280  0.3985  0.8441
  145MOL0     C19939   3.598   7.518   5.829 -0.3605 -0.1257  0.1234
  145MOL0     C19940   3.523   7.399   5.775  1.6252  0.2131  0.1880
  145MOL0     H19941   4.014   7.298   5.555  0.0979 -2.2454 -1.0953
  145MOL0     H19942   4.213   7.208   5.502 -2.1895  0.8065 -0.9045
  145MOL0     H19943   4.588   7.223   5.529 -0.0851 -0.6921 -3.1490
  145MOL0     H19944   4.422   7.279   5.466 -0.7735  0.0491 -0.7020
  145MOL0     H19945   4.482   7.001   5.496  0.8229  0.3432  0.8953
  145MOL0     H19946   4.380   7.074   5.388 -0.0799 -0.6580  1.1272
  145MOL0     H19947   4.684   7.139   5.362 -2.0419  1.4266  0.9664
  145MOL0     H19948   4.628   6.996   5.292  2.4579 -0.6443  0.0407
  145MOL0     H19949   4.446   7.120   5.162  0.5454  2.8195 -3.8783
  145MOL0     H19950   4.489   7.273   5.236  0.5428  1.4926 -1.2641
  145MOL0     H19951   4.728   7.162   5.125  0.6502  1.9477  0.9790
  145MOL0     H19952   4.658   7.325   5.119  0.4024  0.5855 -0.2672
  145MOL0     H19953   4.698   7.224   4.893  1.9155  1.2235  2.6408
  145MOL0     H19954   4.578   7.099   4.930 -1.6454  1.2732 -1.6015
  145MOL0     H19955   4.540   7.410   4.884  0.1619  0.8208  3.2662
  145MOL0     H19956   4.423   7.311   4.976  0.3035  1.4145 -0.1216
  145MOL0     H19957   4.508   7.177   4.732 -0.9944 -2.4312  0.7342
  145MOL0     H19958   4.350   7.189   4.809  0.6066 -1.0333  0.9888
  145MOL0     H19959   4.596   7.389   4.588 -0.3513  0.8675  0.2971
  145MOL0     H19960   4.554   7.566   4.407 -0.1220  0.9570  2.6194
  145MOL0     H19961   4.454   7.697   4.469  0.2752 -0.7374  1.5699
  145MOL0     H19962   4.366   7.502   4.251  0.8768 -0.5702 -0.0088
  145MOL0     H19963   4.269   7.636   4.323  0.8012 -0.0131  1.3148
  145MOL0     H19964   4.328   7.717   4.128 -0.2491  1.6093  1.4230
  145MOL0     H19965   4.415   7.804   4.247 -1.2568  0.3894 -0.4124
  145MOL0     H19966   4.628   7.657   4.169  0.5720 -0.1551 -0.6093
  145MOL0     H19967   4.516   7.562   4.078  1.9481 -1.0370  0.5076
  145MOL0     H19968   4.805   7.654   4.074  1.5500 -2.0055 -1.4509
  145MOL0     H19969   5.006   7.612   4.073 -0.9522 -0.2500 -0.5107
  145MOL0     H19970   5.098   7.733   3.972 -1.8071  1.2145 -2.2213
  145MOL0     H19971   5.067   7.567   3.915 -0.5053  0.0300 -0.1203
  145MOL0     H19972   5.232   7.816   3.493 -1.0479  0.2092  3.6299
  145MOL0     H19973   5.412   7.956   3.378  0.7873  0.1800  1.2221
  145MOL0     H19974   5.464   8.395   3.460  0.0976  0.5391  3.3826
  145MOL0     H19975   5.507   8.275   3.570 -0.0669  0.9562 -0.9485
  145MOL0     H19976   5.722   8.352   3.494  0.6279 -2.2831  1.4813
  145MOL0     H19977   5.697   8.195   3.416 -2.3298  0.2140 -0.7020
  145MOL0     H19978   5.640   8.462   3.294  0.4056  0.9938  0.4263
  145MOL0     H19979   5.647   8.310   3.206 -1.9002 -1.9765  2.3542
  145MOL0     H19980   5.904   8.427   3.334 -0.1415 -2.2856  0.9493
  145MOL0     H19981   5.850   8.440   3.155 -4.0587 -2.8671 -2.1673
  145MOL0     H19982   5.903   8.187   3.312 -0.7721  0.1791  0.4309
  145MOL0     H19983   5.851   8.173   3.149 -0.9054 -2.3615  2.9533
  145MOL0     H19984   6.098   8.309   3.255 -0.0636 -1.3844  0.6503
  145MOL0     H19985   6.038   8.347   3.088 -1.7411  0.3777  0.7698
  145MOL0     H19986   6.086   8.152   3.005  2.0564 -1.0870  0.0045
  145MOL0     H19987   6.109   8.062   3.167  0.8155 -0.0759  0.1161
  145MOL0     H19988   6.297   8.207   3.205  0.3376 -1.1782 -0.9956
  145MOL0     H19989   6.270   8.281   3.045 -0.1876  0.1807 -0.6806
  145MOL0     H19990   5.255   8.319   3.525  2.0136  0.0057 -2.0703
  145MOL0     H19991   5.069   8.184   3.631  1.0860 -2.0299  0.9286
  145MOL0     H19992   4.798   7.924   3.671 -0.9773 -1.5887 -1.5219
  145MOL0     H19993   4.586   7.885   3.775  0.9923 -0.7082 -2.5548
  145MOL0     H19994   4.395   7.304   5.876 -0.4229 -1.4461  1.3455
  145MOL0     H19995   4.180   7.428   5.941 -0.2656 -0.1595 -0.3020
  145MOL0     H19996   3.911   7.666   5.890 -0.2566  1.3008  7.6955
  145MOL0     H19997   3.763   7.843   5.969 -0.4630 -0.0435  0.1050
  145MOL0     H19998   3.377   7.925   6.108 -1.2846 -0.5923 -1.4802
  145MOL0     H19999   3.338   7.778   6.020 -0.7823 -1.9064  1.3934
  145MOL0     H20000   3.460   7.793   6.294 -1.7913  2.7643  0.5130
  145MOL0     H20001   3.429   7.641   6.200  0.3211  0.7129  0.3399
  145MOL0     H20002   3.257   7.744   6.383  2.3855 -0.0707 -0.6441
  145MOL0     H20003   3.192   7.828   6.262 -1.8782 -1.1922 -1.8543
  145MOL0     H20004   3.069   7.628   6.280  1.4202  1.1395  0.0933
  145MOL0     H20005   3.213   7.519   6.275 -1.9196 -1.0815  0.0317
  145MOL0     H20006   3.143   7.535   5.873  2.1376  1.4968 -0.3049
  145MOL0     H20007   3.419   7.599   5.933 -0.9309 -1.2438 -0.4960
  145MOL0     H20008   3.559   7.309   5.825  0.9052 -1.8238 -2.7202
  145MOL0     H20009   3.417   7.418   5.793  1.5207 -0.2411  0.0684
  145MOL0     H20010   3.527   7.398   5.665  0.8416  1.8770  0.1184
  146MOL0     O20011   1.159  10.160   9.430 -0.4871 -0.2574 -0.7727
  146MOL0     C20012   1.221  10.195   9.531 -0.2267  0.7307  0.2123
  146MOL0     O20013   1.169  10.217   9.654  0.5526  0.1103 -0.1972
  146MOL0     C20014   1.031  10.213   9.674  0.5358  0.0141 -0.9639
  146MOL0     C20015   0.980  10.208   9.803  0.3292  1.2429 -0.1422
  146MOL0     C20016   0.850  10.206   9.834  0.5962 -0.0007  0.1930
  146MOL0     C20017   0.748  10.230   9.743  0.1827 -0.5123  1.0329
  146MOL0     O20018   0.623  10.226   9.788  0.2000 -0.7087 -0.3763
  146MOL0     C20019   0.518  10.267   9.697 -0.2463  0.3599  0.6269
  146MOL0     C20020   0.384  10.291   9.760  0.1358  0.5835  0.1988
  146MOL0     C20021   0.261  10.362   9.691  0.1620  0.9018 -0.5382
  146MOL0     C20022   0.122  10.313   9.752 -0.5063 -0.0891 -0.2843
  146MOL0     C20023   0.109  10.377   9.881 -0.7338 -0.7180  0.3481
  146MOL0     C20024   0.016  10.319   9.984 -0.4917 -0.1990  0.1203
  146MOL0     C20025  -0.035  10.406  10.094 -0.4660  0.4416  0.4129
  146MOL0     C20026  -0.148  10.499  10.052 -0.2301  0.7282 -0.3998
  146MOL0     N20027  -0.259  10.437   9.977  1.1024  0.0700  0.0951
  146MOL0     C20028  -0.357  10.365  10.043  0.0785  0.2153  0.4913
  146MOL0     C20029  -0.429  10.311   9.941 -0.4544  0.6622 -0.5223
  146MOL0     C20030  -0.558  10.242   9.948  0.5594 -0.4242  0.1058
  146MOL0     C20031  -0.553  10.099  10.017  0.1526  0.4449 -0.0320
  146MOL0     C20032  -0.443  10.003   9.974  0.2564 -0.4167 -0.0943
  146MOL0     C20033  -0.454   9.976   9.826 -0.4072  0.0237  0.9217
  146MOL0     O20034  -0.376   9.862   9.800  0.3930  0.4498  0.4678
  146MOL0     C20035  -0.237   9.863   9.828  0.0148 -0.3865  0.4262
  146MOL0     C20036  -0.175   9.735   9.838  0.2715  0.6973  0.4596
  146MOL0     C20037  -0.032   9.719   9.853  0.1599  0.6977 -0.7739
  146MOL0     C20038   0.027   9.583   9.853 -0.4119 -0.2187  0.4020
  146MOL0     C20039   0.047   9.837   9.864 -0.1779 -0.2091  0.6597
  146MOL0     C20040   0.190   9.834   9.875  0.8876 -0.2285  0.2822
  146MOL0     O20041   0.265   9.741   9.809 -0.3289 -0.0664  0.1720
  146MOL0     C20042   0.398   9.761   9.774  0.0369  0.9193  0.6556
  146MOL0     C20043   0.473   9.643   9.792  0.6370 -0.7432 -0.3559
  146MOL0     C20044   0.612   9.646   9.785  0.3113 -0.2562 -0.2197
  146MOL0     C20045   0.678   9.762   9.743  0.5933  0.6635 -0.9425
  146MOL0     O20046   0.815   9.740   9.728  0.5355 -0.4185 -0.2930
  146MOL0     C20047   0.887   9.853   9.757  0.1733 -0.5537 -0.2323
  146MOL0     C20048   1.038   9.828   9.747 -0.0378  0.8367 -0.2398
  146MOL0     C20049   1.062   9.819   9.598  0.4200 -0.3938  0.1168
  146MOL0     C20050   1.202   9.772   9.569 -1.0295  0.1570  0.4675
  146MOL0     C20051   1.243   9.785   9.424 -0.5747  0.0594 -0.4452
  146MOL0     C20052   1.391   9.755   9.398 -0.1640  0.4964 -0.2530
  146MOL0     C20053   1.401   9.701   9.247  0.2767 -0.0033  0.1981
  146MOL0     C20054   1.539   9.665   9.216  0.4341 -0.1048  0.1253
  146MOL0    Cl20055   1.636   9.808   9.237  0.0215  0.1935  0.1214
  146MOL0     C20056   0.599   9.880   9.731 -0.5726 -0.2150 -0.6354
  146MOL0     C20057   0.465   9.873   9.744  0.2870  0.8543 -0.1209
  146MOL0     O20058   0.238   9.926   9.944  0.1759 -0.3769 -0.3714
  146MOL0     C20059  -0.031   9.958   9.868  0.0914  0.5165  0.3351
  146MOL0     C20060  -0.163   9.979   9.850 -0.0738  0.6113 -0.3989
  146MOL0     N20061  -0.380  10.349   9.814 -0.3098 -0.3412  0.1100
  146MOL0     N20062  -0.285  10.428   9.843 -0.7500 -0.0782  0.2173
  146MOL0     C20063   0.791  10.243   9.611  0.3209  0.6789 -0.1898
  146MOL0     C20064   0.930  10.244   9.579 -0.0044  0.6195 -0.0508
  146MOL0     C20065   1.371  10.187   9.525  1.0513  0.4055 -0.0825
  146MOL0     C20066   1.434  10.153   9.400  0.1831 -0.2585 -0.2863
  146MOL0     C20067   1.571  10.140   9.388  0.8630  0.3800  0.0233
  146MOL0     C20068   1.648  10.142   9.500  0.0687 -0.3272  0.2578
  146MOL0     O20069   1.781  10.133   9.479  0.1797 -1.2985 -0.0584
  146MOL0     C20070   1.864  10.163   9.583  0.1576 -0.0626 -0.1583
  146MOL0     C20071   2.013  10.191   9.534 -0.6463 -0.2596  0.6918
  146MOL0     C20072   2.061  10.077   9.439 -0.4414 -0.6987 -0.0742
  146MOL0     C20073   2.171   9.990   9.496 -0.0818 -0.0349  0.4417
  146MOL0     C20074   2.137   9.918   9.620 -0.1616 -0.1258  0.0653
  146MOL0     C20075   2.113   9.868   9.726 -0.2569  1.2038  0.0809
  146MOL0     C20076   1.586  10.160   9.627 -0.4026  0.8786  0.6823
  146MOL0     C20077   1.447  10.176   9.640 -0.4049 -0.1545  0.6387
  146MOL0     C20078   1.398  10.175   9.781 -0.1551  0.0883  0.1882
  146MOL0     H20079   1.046  10.197   9.889  0.8966  3.1358 -0.2996
  146MOL0     H20080   0.815  10.197   9.936 -3.6887  0.0053 -1.0689
  146MOL0     H20081   0.505  10.195   9.616 -1.0668  0.7948  0.3683
  146MOL0     H20082   0.553  10.357   9.645 -1.2753  0.7310  0.5528
  146MOL0     H20083   0.358  10.194   9.804 -1.0093  0.9560  0.3836
  146MOL0     H20084   0.413  10.358   9.842  2.7376  0.2811 -0.3914
  146MOL0     H20085   0.277  10.470   9.676  2.9429  0.3876 -1.9204
  146MOL0     H20086   0.264  10.310   9.595 -0.0507 -0.6547  0.2780
  146MOL0     H20087   0.031  10.334   9.695 -1.4577  0.2349  1.2995
  146MOL0     H20088   0.136  10.205   9.766  0.3438  0.1838  1.1575
  146MOL0     H20089   0.080  10.477   9.847  3.2222 -0.0205 -1.5633
  146MOL0     H20090   0.210  10.395   9.918  0.0385 -0.3411 -1.7816
  146MOL0     H20091  -0.069  10.266   9.940 -1.2400  0.4983  0.6871
  146MOL0     H20092   0.071  10.239  10.035 -1.7147 -1.7119 -0.8685
  146MOL0     H20093   0.050  10.466  10.128 -0.5598  0.5674  0.4265
  146MOL0     H20094  -0.083  10.345  10.172 -0.1131 -0.2424  0.1039
  146MOL0     H20095  -0.189  10.552  10.138  1.1711 -1.6562  1.8598
  146MOL0     H20096  -0.107  10.560   9.971 -1.0144  1.3436 -0.3467
  146MOL0     H20097  -0.366  10.337  10.148  0.6616 -1.2473  0.1719
  146MOL0     H20098  -0.601  10.225   9.849  1.7110 -4.8042  0.1479
  146MOL0     H20099  -0.635  10.296  10.004 -1.8568 -0.0117 -3.3098
  146MOL0     H20100  -0.534  10.130  10.120  0.3642  2.4584 -0.6329
  146MOL0     H20101  -0.648  10.045  10.010 -0.7971  1.8829  1.0829
  146MOL0     H20102  -0.350  10.048  10.009  0.0469 -0.8692  1.0880
  146MOL0     H20103  -0.457   9.909  10.028  1.0165  0.1913  1.2099
  146MOL0     H20104  -0.553   9.955   9.785  0.1354 -3.0581  0.9103
  146MOL0     H20105  -0.434  10.069   9.773  0.6138 -1.3634 -1.2674
  146MOL0     H20106  -0.248   9.655   9.830  1.3172 -0.1900 -0.7858
  146MOL0     H20107   0.093   9.552   9.934 -0.8568  1.3963  1.4332
  146MOL0     H20108   0.080   9.563   9.759 -2.5160 -0.5521 -0.7735
  146MOL0     H20109  -0.056   9.512   9.854 -0.8746  0.2424 -1.2388
  146MOL0     H20110   0.413   9.556   9.814 -2.9034  1.4299 -0.6644
  146MOL0     H20111   0.679   9.561   9.778  0.3055 -0.3836  1.0216
  146MOL0     H20112   0.858   9.941   9.699  1.8086  0.2933  0.1527
  146MOL0     H20113   0.856   9.893   9.854 -2.0812 -0.7376 -0.8229
  146MOL0     H20114   1.078   9.920   9.791 -1.8155  0.5058  2.3212
  146MOL0     H20115   1.089   9.750   9.805  2.3448  3.2050  1.1046
  146MOL0     H20116   1.060   9.916   9.548  0.8533 -1.0858 -1.2999
  146MOL0     H20117   0.983   9.763   9.547  0.2811  1.0852 -1.3904
  146MOL0     H20118   1.211   9.671   9.611 -1.3008  0.5174  1.4149
  146MOL0     H20119   1.266   9.844   9.620 -0.3754  0.0257 -0.1578
  146MOL0     H20120   1.189   9.710   9.365  0.6891 -0.1727 -1.3331
  146MOL0     H20121   1.226   9.881   9.375  0.5154 -0.4499 -1.9053
  146MOL0     H20122   1.417   9.672   9.465 -0.6221 -1.3856 -2.2729
  146MOL0     H20123   1.449   9.846   9.416  0.3474  0.3738 -1.2387
  146MOL0     H20124   1.364   9.783   9.184 -1.3619 -0.3376  0.6842
  146MOL0     H20125   1.328   9.623   9.224 -1.4450  2.0170 -1.6935
  146MOL0     H20126   1.542   9.637   9.110  0.0930  2.2249 -0.5612
  146MOL0     H20127   1.573   9.581   9.278  0.7875 -1.0153 -1.2316
  146MOL0     H20128   0.640   9.974   9.696 -0.3477 -0.5928 -1.4119
  146MOL0     H20129   0.405   9.962   9.733  0.0334  0.7849  0.6084
  146MOL0     H20130   0.024  10.043   9.907  0.5343  0.2239  0.3522
  146MOL0     H20131  -0.196  10.082   9.845 -1.2102  0.2883  0.1653
  146MOL0     H20132   0.723  10.249   9.528 -1.2256  1.1474  1.0601
  146MOL0     H20133   0.956  10.261   9.475  0.3522 -2.4666 -0.5581
  146MOL0     H20134   1.387  10.142   9.303  1.2162 -0.4774 -0.7873
  146MOL0     H20135   1.617  10.144   9.290  0.8599  0.4575  0.0250
  146MOL0     H20136   1.822  10.247   9.638 -0.9566 -0.5373 -0.2535
  146MOL0     H20137   1.859  10.076   9.648 -1.4946 -1.1954 -1.6929
  146MOL0     H20138   2.071  10.189   9.626  1.8514  2.1917 -0.6974
  146MOL0     H20139   2.020  10.288   9.485 -0.5437 -0.2749  0.6747
  146MOL0     H20140   1.983  10.008   9.405 -2.4936  1.2631  0.4070
  146MOL0     H20141   2.090  10.135   9.351 -3.6662 -1.0269 -1.4860
  146MOL0     H20142   2.255  10.056   9.521 -0.4063  0.1864  0.9666
  146MOL0     H20143   2.193   9.923   9.412 -1.4689  0.8820 -0.7084
  146MOL0     H20144   2.093   9.833   9.825 -1.5238  1.6259 -0.0184
  146MOL0     H20145   1.653  10.157   9.712  3.6625  0.2783 -2.2498
  146MOL0     H20146   1.349  10.270   9.802 -1.6410 -0.5166 -0.3451
  146MOL0     H20147   1.339  10.085   9.803  0.6188 -0.6507 -0.6814
  146MOL0     H20148   1.483  10.184   9.849 -0.2239  0.0336  0.2815
  147MOL0     O20149   3.978   7.042  10.244 -0.0481 -0.5312 -0.2257
  147MOL0     C20150   3.993   6.928  10.301 -0.2954 -0.2985  0.0593
  147MOL0     O20151   4.100   6.901  10.380 -0.0187  0.2168 -1.0766
  147MOL0     C20152   4.165   6.999  10.453 -0.8863  0.4328 -0.4933
  147MOL0     C20153   4.303   6.971  10.472  0.4290  0.3944 -0.8274
  147MOL0     C20154   4.376   7.043  10.561  0.3323 -0.3358 -0.4805
  147MOL0     C20155   4.322   7.153  10.622  0.3292 -0.4176 -0.8822
  147MOL0     O20156   4.418   7.223  10.699  0.4676  0.0056 -0.0205
  147MOL0     C20157   4.383   7.352  10.765 -0.5131 -0.2742 -0.2077
  147MOL0     C20158   4.516   7.421  10.811  0.7897  0.2297  0.2368
  147MOL0     C20159   4.615   7.455  10.702  0.7150 -0.2873  0.4048
  147MOL0     C20160   4.735   7.530  10.749 -0.3739  0.3665 -0.5727
  147MOL0     C20161   4.855   7.514  10.654 -0.1027  0.4267  0.8382
  147MOL0     C20162   4.832   7.557  10.500 -0.3219  1.1264  0.0527
  147MOL0     C20163   4.973   7.544  10.427  1.3255  0.0661  0.5667
  147MOL0     C20164   4.964   7.590  10.284  0.6822 -0.3893  0.3183
  147MOL0     N20165   4.925   7.728  10.269 -0.0112 -0.1097  0.0800
  147MOL0     C20166   4.802   7.778  10.254  0.5580 -0.3799 -0.6666
  147MOL0     C20167   4.829   7.915  10.251  0.4891 -0.3895  0.4177
  147MOL0     C20168   4.726   8.027  10.243 -0.0042 -0.2607 -0.5284
  147MOL0     C20169   4.716   8.073  10.096 -0.3591  1.2141 -0.8768
  147MOL0     C20170   4.752   8.222  10.094  0.8390 -0.6215  0.2098
  147MOL0     C20171   4.896   8.265  10.075  0.1070 -1.5944  0.2117
  147MOL0     O20172   4.924   8.395  10.117  0.2324 -0.4530  0.4760
  147MOL0     C20173   4.876   8.497  10.039 -0.3326  0.6226 -0.2658
  147MOL0     C20174   4.924   8.624  10.071 -0.4736 -0.2030 -0.3889
  147MOL0     C20175   4.896   8.725   9.982 -0.0016  1.2448 -0.2066
  147MOL0     C20176   4.971   8.852  10.018  0.1558  0.0164 -0.0330
  147MOL0     C20177   4.829   8.715   9.862  0.3178  0.5350  0.0438
  147MOL0     C20178   4.804   8.821   9.766 -0.3920  0.4431  1.0047
  147MOL0     O20179   4.679   8.884   9.779 -0.3773 -0.1653  0.1363
  147MOL0     C20180   4.657   8.994   9.705  0.1608  0.6193  0.4432
  147MOL0     C20181   4.719   9.124   9.735  0.5179 -0.0286  0.4247
  147MOL0     C20182   4.680   9.242   9.661  0.0904 -0.6208  0.3313
  147MOL0     C20183   4.597   9.225   9.551 -0.1253  0.1375  0.2155
  147MOL0     O20184   4.572   9.340   9.469 -0.6906  0.9111 -0.1188
  147MOL0     C20185   4.449   9.335   9.409 -0.7040  0.4353  0.8292
  147MOL0     C20186   4.387   9.474   9.386 -0.4430 -0.4588 -0.2123
  147MOL0     C20187   4.390   9.569   9.498 -0.0149 -0.8638  0.0251
  147MOL0     C20188   4.302   9.539   9.614 -0.1161  0.7674 -0.2566
  147MOL0     C20189   4.354   9.619   9.739 -0.0637  0.5929  1.0745
  147MOL0     C20190   4.324   9.768   9.737  0.0831 -1.0751 -0.0064
  147MOL0     C20191   4.404   9.842   9.850 -0.5156  0.4378  0.4779
  147MOL0     C20192   4.534   9.885   9.811  0.0546  0.7422 -0.4987
  147MOL0    Cl20193   4.541  10.062   9.755  0.2367  0.0696 -0.4225
  147MOL0     C20194   4.551   9.097   9.516  0.1018  0.0020  0.3247
  147MOL0     C20195   4.584   8.985   9.591 -0.1879  1.2867  0.3239
  147MOL0     O20196   4.901   8.861   9.702  0.6432 -0.4384  0.5622
  147MOL0     C20197   4.780   8.588   9.829  0.2551  1.0408 -0.4243
  147MOL0     C20198   4.811   8.482   9.910  0.5827 -0.8737 -0.2643
  147MOL0     N20199   4.961   7.941  10.230  1.1486  0.2817  0.4302
  147MOL0     N20200   5.019   7.823  10.245  0.1843  0.4603  0.1712
  147MOL0     C20201   4.191   7.201  10.592 -0.4219  0.1236  0.2447
  147MOL0     C20202   4.117   7.123  10.504  0.6895  0.2103  0.0466
  147MOL0     C20203   3.891   6.817  10.273  0.0430 -0.8517 -0.1387
  147MOL0     C20204   3.768   6.854  10.209  0.6345  0.0464  0.0516
  147MOL0     C20205   3.661   6.766  10.191  0.3050  0.6776  0.7039
  147MOL0     C20206   3.679   6.628  10.236  0.6453 -0.3235  0.7696
  147MOL0     O20207   3.570   6.543  10.225  0.3319  0.6872  0.9736
  147MOL0     C20208   3.581   6.409  10.275  0.0435 -0.7224 -0.1204
  147MOL0     C20209   3.443   6.349  10.305  0.1546  0.3657  0.0021
  147MOL0     C20210   3.331   6.359  10.204 -0.0334 -0.5236  0.3129
  147MOL0     C20211   3.340   6.243  10.102  0.0534 -0.2293  0.6318
  147MOL0     C20212   3.464   6.248  10.015 -0.6578 -0.5746 -0.3028
  147MOL0     C20213   3.563   6.256   9.947 -0.6684  0.6877 -0.3735
  147MOL0     C20214   3.809   6.588  10.282 -0.2259 -0.5988 -0.3045
  147MOL0     C20215   3.912   6.679  10.297 -0.3284  1.7023  0.4951
  147MOL0     C20216   4.054   6.628  10.336 -0.6432  0.1132  0.5643
  147MOL0     H20217   4.346   6.883  10.424 -0.6872  1.1129 -3.3386
  147MOL0     H20218   4.477   7.013  10.589  0.5315  2.1406  1.8878
  147MOL0     H20219   4.327   7.331  10.857  2.2332 -1.6071  1.3250
  147MOL0     H20220   4.334   7.423  10.698  0.9047  1.9360  0.9663
  147MOL0     H20221   4.491   7.521  10.850  0.2235 -0.2902  1.2365
  147MOL0     H20222   4.559   7.369  10.897  2.9170  1.1738 -0.1875
  147MOL0     H20223   4.641   7.355  10.666 -1.8322 -1.0860  0.5610
  147MOL0     H20224   4.564   7.517  10.627  1.4384  1.9279  1.6448
  147MOL0     H20225   4.706   7.635  10.761  0.0027  0.5803 -1.5216
  147MOL0     H20226   4.770   7.488  10.844 -0.1786 -1.1405 -1.2999
  147MOL0     H20227   4.905   7.418  10.664  1.1489  0.8293 -1.0375
  147MOL0     H20228   4.929   7.580  10.700 -2.5997  1.4730  3.6673
  147MOL0     H20229   4.766   7.480  10.459  1.9217 -0.3032 -1.1389
  147MOL0     H20230   4.803   7.662  10.499 -0.1980  1.1612 -0.3781
  147MOL0     H20231   5.004   7.439  10.421 -0.9150 -0.5944 -0.9263
  147MOL0     H20232   5.049   7.613  10.464 -1.2495  3.0126  0.6517
  147MOL0     H20233   5.065   7.575  10.244  0.6307 -0.2790  0.1436
  147MOL0     H20234   4.903   7.523  10.222  0.5206  1.1770 -1.3121
  147MOL0     H20235   4.708   7.726  10.237  0.1690 -0.5077  1.4835
  147MOL0     H20236   4.766   8.112  10.298  0.9388 -1.1878  0.2460
  147MOL0     H20237   4.629   7.997  10.284 -0.3832  1.5728  0.0119
  147MOL0     H20238   4.800   8.029  10.042  1.8130  2.9077  0.9245
  147MOL0     H20239   4.615   8.045  10.064  0.8771 -5.4799 -0.5652
  147MOL0     H20240   4.689   8.268  10.017 -4.6484 -1.0888  3.7944
  147MOL0     H20241   4.718   8.274  10.185 -0.2370 -0.0598 -0.4894
  147MOL0     H20242   4.974   8.199  10.114  2.0283  1.7136  2.3883
  147MOL0     H20243   4.921   8.254   9.969 -1.3016 -1.9378 -0.1194
  147MOL0     H20244   4.983   8.633  10.161 -2.2572 -1.6590  1.0015
  147MOL0     H20245   4.954   8.875  10.123 -1.0495 -2.0464  0.2750
  147MOL0     H20246   4.944   8.931   9.947  1.9178 -0.9662 -1.8950
  147MOL0     H20247   5.076   8.827  10.002 -0.9009 -2.6114 -4.7095
  147MOL0     H20248   4.790   9.144   9.815  2.4705 -2.0257 -0.6927
  147MOL0     H20249   4.726   9.340   9.673  1.4231 -1.1497 -0.2765
  147MOL0     H20250   4.441   9.286   9.312 -1.2255 -0.3112  1.2401
  147MOL0     H20251   4.373   9.287   9.472 -1.1811  0.6514  0.4276
  147MOL0     H20252   4.427   9.518   9.294 -1.9338 -2.5194 -1.9548
  147MOL0     H20253   4.284   9.440   9.367 -1.3402  0.7414  2.1557
  147MOL0     H20254   4.364   9.667   9.457  1.8708 -0.7390 -0.9625
  147MOL0     H20255   4.497   9.566   9.522 -0.1383  2.3789  1.4572
  147MOL0     H20256   4.318   9.432   9.633  1.6983  1.0120 -0.1819
  147MOL0     H20257   4.197   9.559   9.593 -0.5037 -1.2614 -0.4128
  147MOL0     H20258   4.313   9.565   9.825  2.3005 -1.3346  1.0942
  147MOL0     H20259   4.462   9.610   9.756  0.6174  3.0438 -1.2754
  147MOL0     H20260   4.217   9.789   9.740  0.3611  0.6731 -0.8655
  147MOL0     H20261   4.365   9.813   9.646 -0.2993 -2.4059 -0.8689
  147MOL0     H20262   4.410   9.776   9.937 -1.1969  1.3356  1.2309
  147MOL0     H20263   4.350   9.933   9.879 -0.6554  1.6712 -3.1028
  147MOL0     H20264   4.584   9.819   9.740  2.3336  1.0059  0.7826
  147MOL0     H20265   4.594   9.871   9.902  0.5688 -2.2469 -1.2107
  147MOL0     H20266   4.500   9.086   9.421  0.9001  0.2683 -0.1444
  147MOL0     H20267   4.539   8.889   9.569 -1.9205  1.1769  3.7042
  147MOL0     H20268   4.715   8.573   9.743 -0.3579 -1.2618  0.3656
  147MOL0     H20269   4.791   8.382   9.875 -1.6199 -0.5925  0.0216
  147MOL0     H20270   4.167   7.297  10.637  4.2089  0.7736  1.9393
  147MOL0     H20271   4.019   7.165  10.486 -0.9593 -2.1967  2.6196
  147MOL0     H20272   3.757   6.954  10.167  0.5963 -0.7172 -1.8919
  147MOL0     H20273   3.568   6.810  10.156 -1.3389 -1.0010  2.7047
  147MOL0     H20274   3.622   6.340  10.200  0.4285 -1.6912  0.9458
  147MOL0     H20275   3.646   6.410  10.363 -0.6997 -0.9438  0.4455
  147MOL0     H20276   3.410   6.409  10.391 -1.2306 -0.5923  0.1795
  147MOL0     H20277   3.441   6.248  10.348 -0.1605  0.7039  0.8135
  147MOL0     H20278   3.234   6.358  10.256 -0.0390 -1.3583  0.3004
  147MOL0     H20279   3.333   6.450  10.144 -0.5143 -1.0433 -0.5121
  147MOL0     H20280   3.254   6.241  10.034  1.2195 -0.0140 -0.9094
  147MOL0     H20281   3.333   6.147  10.153 -1.2324 -0.7459 -0.4445
  147MOL0     H20282   3.641   6.302   9.890  2.4525  2.3881  4.6388
  147MOL0     H20283   3.833   6.485  10.304  0.7345 -0.2855  0.1642
  147MOL0     H20284   4.120   6.621  10.249  0.8128 -0.8580  1.7133
  147MOL0     H20285   4.098   6.689  10.416 -1.2317  2.3564 -0.7245
  147MOL0     H20286   4.042   6.530  10.383 -1.3285  0.0584  0.2873
  148MOL0     O20287   0.763   6.852   4.185  0.1315  0.1648  0.1258
  148MOL0     C20288   0.749   6.829   4.067  0.4051 -0.1345  0.2736
  148MOL0     O20289   0.847   6.783   3.979 -0.1445 -0.7914  0.3766
  148MOL0     C20290   0.972   6.750   4.030 -0.6304 -0.3305 -0.7878
  148MOL0     C20291   1.032   6.632   3.994 -0.2297  0.3523  0.6614
  148MOL0     C20292   1.157   6.591   4.041 -0.4468 -0.2643 -0.0602
  148MOL0     C20293   1.229   6.671   4.130  0.3753 -0.1892 -0.6499
  148MOL0     O20294   1.347   6.635   4.206  0.2211  0.7587 -0.2277
  148MOL0     C20295   1.412   6.502   4.178 -0.8229 -0.3740 -0.1539
  148MOL0     C20296   1.502   6.506   4.054 -0.3822  0.1817 -0.4349
  148MOL0     C20297   1.624   6.594   4.073 -0.3127  0.4299  0.1020
  148MOL0     C20298   1.739   6.532   4.148 -0.6519 -0.1129 -0.1382
  148MOL0     C20299   1.853   6.636   4.170 -0.0930 -0.6458  0.8803
  148MOL0     C20300   1.976   6.563   4.221  0.5723  0.1147  0.2282
  148MOL0     C20301   2.091   6.661   4.252  0.5011  0.5709  0.5403
  148MOL0     C20302   2.161   6.710   4.122 -0.4006  0.6998  0.3426
  148MOL0     N20303   2.213   6.599   4.040  0.0235 -0.0821 -0.2589
  148MOL0     C20304   2.234   6.594   3.906  0.5951 -0.2098 -0.8608
  148MOL0     C20305   2.308   6.485   3.889 -0.4348 -0.2906 -0.4819
  148MOL0     C20306   2.364   6.436   3.761 -0.1693  0.6186 -0.0634
  148MOL0     C20307   2.515   6.483   3.740 -0.0679  0.3370  0.7670
  148MOL0     C20308   2.516   6.627   3.696 -0.1194 -0.5377 -0.2454
  148MOL0     C20309   2.655   6.667   3.652 -0.2724 -0.8366  1.3277
  148MOL0     O20310   2.716   6.598   3.535  0.9485  0.6137 -0.9395
  148MOL0     C20311   2.829   6.654   3.486 -0.3503  0.0401  0.2201
  148MOL0     C20312   2.858   6.789   3.478  0.0868 -0.4028 -0.3148
  148MOL0     C20313   2.975   6.837   3.432  0.6465 -0.0822 -0.9575
  148MOL0     C20314   2.982   6.983   3.413 -0.6119  0.3717 -0.1248
  148MOL0     C20315   3.077   6.740   3.400 -0.6100 -0.1572 -0.2984
  148MOL0     C20316   3.223   6.776   3.358 -0.3526  0.3860 -0.0120
  148MOL0     O20317   3.302   6.670   3.323 -0.0262 -0.0151 -0.7389
  148MOL0     C20318   3.439   6.682   3.306 -0.0374 -0.7053  0.4479
  148MOL0     C20319   3.528   6.759   3.386  0.0505  0.0689  0.4908
  148MOL0     C20320   3.669   6.779   3.367  0.5382 -0.1997 -0.4995
  148MOL0     C20321   3.722   6.724   3.249  0.2333  0.0535 -0.6688
  148MOL0     O20322   3.859   6.724   3.220  0.5218 -0.9644  1.0750
  148MOL0     C20323   3.951   6.742   3.322  0.5326  0.0091 -0.1184
  148MOL0     C20324   4.097   6.733   3.264  0.0369 -0.3873 -0.6045
  148MOL0     C20325   4.202   6.719   3.371 -0.0159  0.3561 -0.3165
  148MOL0     C20326   4.228   6.853   3.433  0.2127 -0.0355 -0.7077
  148MOL0     C20327   4.359   6.853   3.513  0.7097  0.2110  0.6858
  148MOL0     C20328   4.487   6.838   3.417  0.2825 -0.1003 -0.0174
  148MOL0     C20329   4.565   6.966   3.394 -0.2264  0.1217  0.2064
  148MOL0     C20330   4.502   7.081   3.315 -0.3445  0.2648  0.6965
  148MOL0    Cl20331   4.627   7.211   3.305 -0.3996 -0.0317  0.1299
  148MOL0     C20332   3.638   6.656   3.160  0.8188  0.1916 -1.1586
  148MOL0     C20333   3.497   6.647   3.188  0.7634  0.0289  0.3857
  148MOL0     O20334   3.265   6.889   3.358 -0.3121 -0.2023 -0.2813
  148MOL0     C20335   3.040   6.607   3.401 -0.4822  0.2469 -0.0107
  148MOL0     C20336   2.918   6.561   3.442  0.0543  0.2175 -0.3333
  148MOL0     N20337   2.336   6.421   4.008  0.5949 -0.1469  0.0496
  148MOL0     N20338   2.279   6.496   4.099  0.1289  0.1166 -0.5445
  148MOL0     C20339   1.176   6.798   4.152 -0.4015  0.3597 -0.4489
  148MOL0     C20340   1.042   6.836   4.112  0.0568 -0.1516 -0.9587
  148MOL0     C20341   0.626   6.883   4.006 -0.0788 -0.1652 -1.0865
  148MOL0     C20342   0.626   6.917   3.871 -0.3000 -0.1238  0.9781
  148MOL0     C20343   0.508   6.948   3.803  0.1367  0.9443  0.5261
  148MOL0     C20344   0.384   6.956   3.868  0.2610 -0.8952  0.0299
  148MOL0     O20345   0.278   6.975   3.779  0.3283 -0.2155  0.0560
  148MOL0     C20346   0.160   7.048   3.835  0.2569 -0.0870  0.0336
  148MOL0     C20347   0.045   6.945   3.833 -0.2125  0.1157 -0.2262
  148MOL0     C20348   0.005   6.898   3.695  0.0759 -0.9666 -0.3149
  148MOL0     C20349  -0.107   6.800   3.678 -1.1729  0.4195 -0.1525
  148MOL0     C20350  -0.239   6.854   3.707  0.6296  0.3007  0.9472
  148MOL0     C20351  -0.348   6.887   3.745 -0.0404 -0.3278 -0.0882
  148MOL0     C20352   0.375   6.909   4.001 -0.0352 -0.1316 -0.6704
  148MOL0     C20353   0.500   6.873   4.071  0.1606  0.4291 -0.2395
  148MOL0     C20354   0.467   6.822   4.222  0.1707  0.5933  0.0911
  148MOL0     H20355   0.981   6.568   3.923  0.3030  0.9852 -0.3133
  148MOL0     H20356   1.193   6.490   4.020 -1.0464 -0.9347  1.9455
  148MOL0     H20357   1.340   6.426   4.146  1.3811 -1.6980 -2.3125
  148MOL0     H20358   1.465   6.466   4.266 -0.5846  0.7636  0.1906
  148MOL0     H20359   1.540   6.404   4.042  2.7180  1.2814 -0.9772
  148MOL0     H20360   1.453   6.539   3.962 -2.3375  0.7454  0.7571
  148MOL0     H20361   1.652   6.627   3.973 -3.9140 -1.2785 -1.6517
  148MOL0     H20362   1.585   6.679   4.129  2.8035  2.0025  0.1117
  148MOL0     H20363   1.698   6.488   4.239  0.9883  0.5475  0.9583
  148MOL0     H20364   1.784   6.445   4.098  0.3875  1.3251 -1.8299
  148MOL0     H20365   1.813   6.717   4.232 -0.6654  1.3568 -1.8694
  148MOL0     H20366   1.877   6.679   4.072  1.8766 -0.5117  1.3805
  148MOL0     H20367   1.949   6.525   4.319  1.9949  0.5203  0.8089
  148MOL0     H20368   2.003   6.473   4.165 -1.7925 -0.1056 -0.6606
  148MOL0     H20369   2.174   6.611   4.303  0.4436  0.2699  0.3404
  148MOL0     H20370   2.054   6.746   4.311 -1.1452 -0.0347  0.4208
  148MOL0     H20371   2.098   6.772   4.058 -1.0477  0.8197  1.0928
  148MOL0     H20372   2.244   6.772   4.157 -1.1366  1.0919  1.4254
  148MOL0     H20373   2.218   6.671   3.831 -0.0293 -1.9642 -2.6219
  148MOL0     H20374   2.305   6.462   3.672  0.4448  0.8308 -0.4075
  148MOL0     H20375   2.360   6.327   3.766 -1.3232  0.6917  1.1523
  148MOL0     H20376   2.570   6.483   3.835  1.0546 -4.7227  0.4311
  148MOL0     H20377   2.570   6.409   3.682 -2.7608  0.2866 -1.9471
  148MOL0     H20378   2.440   6.642   3.619 -3.2212 -3.0558  2.0453
  148MOL0     H20379   2.493   6.695   3.778 -0.8585 -1.8882  0.7121
  148MOL0     H20380   2.637   6.773   3.631 -0.7515 -0.9834  0.9676
  148MOL0     H20381   2.729   6.654   3.731 -0.5736  0.6846  1.8995
  148MOL0     H20382   2.791   6.864   3.517 -0.3934 -1.8910  1.8781
  148MOL0     H20383   3.015   7.019   3.511 -0.7291  1.8270 -0.6034
  148MOL0     H20384   2.879   7.016   3.399 -0.9248  0.0710  1.2559
  148MOL0     H20385   3.049   7.020   3.336  1.2736 -0.4997  1.0144
  148MOL0     H20386   3.476   6.806   3.469 -2.6582 -1.2852 -0.2975
  148MOL0     H20387   3.736   6.839   3.427  0.0803 -1.2279  1.1049
  148MOL0     H20388   3.949   6.842   3.366  1.3663 -0.0993  0.1923
  148MOL0     H20389   3.934   6.664   3.398 -0.5289  0.5441  0.2036
  148MOL0     H20390   4.094   6.639   3.209  0.5123  0.0610 -1.4071
  148MOL0     H20391   4.112   6.816   3.196 -2.3856  0.1777 -0.5595
  148MOL0     H20392   4.287   6.677   3.316 -0.3303 -0.8606  0.0814
  148MOL0     H20393   4.173   6.643   3.444 -3.8123  1.2348 -0.7109
  148MOL0     H20394   4.147   6.886   3.500  0.0333  0.0483 -0.9655
  148MOL0     H20395   4.242   6.926   3.353 -0.0013  0.8834  0.0618
  148MOL0     H20396   4.354   6.949   3.565 -1.2037 -0.0685  1.1242
  148MOL0     H20397   4.346   6.776   3.590  2.1593  0.6088  1.3557
  148MOL0     H20398   4.453   6.802   3.320  1.2412  0.0019 -0.4040
  148MOL0     H20399   4.555   6.762   3.456 -1.9500 -2.0511  0.2796
  148MOL0     H20400   4.657   6.938   3.342  0.7958 -0.4959  2.2129
  148MOL0     H20401   4.593   7.011   3.490 -0.6665 -2.1598  1.4833
  148MOL0     H20402   4.415   7.120   3.368 -1.3027  0.7445 -1.1502
  148MOL0     H20403   4.481   7.042   3.215  0.4690 -1.7662  1.2657
  148MOL0     H20404   3.676   6.618   3.066  1.3159  2.5159 -1.9748
  148MOL0     H20405   3.438   6.583   3.123  3.1568 -0.3265 -1.5963
  148MOL0     H20406   3.122   6.545   3.367  0.5633  1.1447  0.7998
  148MOL0     H20407   2.897   6.455   3.445 -0.5146  0.3423  1.9557
  148MOL0     H20408   1.228   6.866   4.219 -0.7672  2.3863 -2.1141
  148MOL0     H20409   1.002   6.932   4.142  1.6628 -0.4607  2.6140
  148MOL0     H20410   0.717   6.915   3.811  1.4423  0.8743  3.4219
  148MOL0     H20411   0.509   6.988   3.702 -4.5398  0.4536  0.0942
  148MOL0     H20412   0.172   7.106   3.927 -4.0625  2.9781 -1.0393
  148MOL0     H20413   0.140   7.122   3.757  2.4054 -2.4576 -3.0411
  148MOL0     H20414  -0.040   6.977   3.893 -0.0066 -0.0629  0.1694
  148MOL0     H20415   0.085   6.861   3.891  0.5715 -0.8049 -2.0260
  148MOL0     H20416  -0.012   6.985   3.631 -0.6397 -3.2526 -3.4432
  148MOL0     H20417   0.093   6.849   3.652 -0.4226 -1.7807 -0.4072
  148MOL0     H20418  -0.094   6.715   3.745 -1.1379 -2.4939 -3.5826
  148MOL0     H20419  -0.111   6.758   3.578  1.4192  0.4211 -0.3049
  148MOL0     H20420  -0.430   6.940   3.786 -0.4357 -2.2181  1.7199
  148MOL0     H20421   0.280   6.909   4.053  0.0862  0.7175 -0.4361
  148MOL0     H20422   0.460   6.713   4.221  0.5870  0.5629  0.1808
  148MOL0     H20423   0.550   6.840   4.292  0.9296 -1.2750 -0.2777
  148MOL0     H20424   0.366   6.845   4.256 -1.1190 -2.7517 -1.0730
  149MOL0     O20425   5.882   4.565   2.157 -0.3654 -0.2049 -0.2031
  149MOL0     C20426   5.888   4.576   2.033  0.7278  0.3956 -0.0549
  149MOL0     O20427   5.995   4.544   1.962 -0.3612 -0.4304 -0.4448
  149MOL0     C20428   6.106   4.503   2.024  0.0850 -0.2171 -0.8342
  149MOL0     C20429   6.228   4.562   1.985  0.7897 -0.0270 -0.2731
  149MOL0     C20430   6.343   4.513   2.038 -0.4313 -0.2078 -0.1177
  149MOL0     C20431   6.348   4.398   2.119  0.0832 -0.2426  0.3578
  149MOL0     O20432   6.469   4.345   2.167 -0.4972  0.1495 -0.7767
  149MOL0     C20433   6.470   4.225   2.261  0.1148 -0.3170 -0.8955
  149MOL0     C20434   6.606   4.156   2.275 -0.1791 -0.0595 -0.2045
  149MOL0     C20435   6.692   4.259   2.347  0.3546 -0.0786  0.1244
  149MOL0     C20436   6.842   4.213   2.370  0.4325  0.1190  0.1732
  149MOL0     C20437   6.942   4.328   2.393  1.2629 -0.1965 -0.0549
  149MOL0     C20438   6.931   4.398   2.528 -0.1377 -0.4825  0.6984
  149MOL0     C20439   6.998   4.335   2.648 -0.4034 -0.2561 -0.4082
  149MOL0     C20440   6.946   4.410   2.766 -0.1062 -0.6637  0.2117
  149MOL0     N20441   6.996   4.376   2.903  0.1226 -0.6560  0.0507
  149MOL0     C20442   7.042   4.258   2.953  0.0173 -0.1803  0.3257
  149MOL0     C20443   7.109   4.280   3.075 -0.5685 -0.0952  1.7164
  149MOL0     C20444   7.185   4.186   3.162 -0.8312 -0.0673 -0.7700
  149MOL0     C20445   7.330   4.218   3.181 -0.2229 -1.0918 -0.2746
  149MOL0     C20446   7.353   4.329   3.286  0.5745  0.4506 -0.0417
  149MOL0     C20447   7.491   4.382   3.280  0.2975  0.2357 -0.3201
  149MOL0     O20448   7.509   4.502   3.359 -0.0317  0.3517  0.1568
  149MOL0     C20449   7.609   4.589   3.330  0.0287  0.4562 -0.0005
  149MOL0     C20450   7.713   4.566   3.242 -0.5183  0.1365 -0.6923
  149MOL0     C20451   7.826   4.651   3.227  0.3616 -0.4976  0.2667
  149MOL0     C20452   7.925   4.621   3.124 -0.3652  0.1203  0.7883
  149MOL0     C20453   7.830   4.766   3.314 -0.3393  0.2075 -0.5419
  149MOL0     C20454   7.944   4.857   3.315 -0.4460  0.6328  0.2144
  149MOL0     O20455   7.914   4.981   3.361 -0.0351 -0.0612  0.7916
  149MOL0     C20456   8.005   5.081   3.327 -0.4792 -0.8395 -0.9247
  149MOL0     C20457   7.982   5.146   3.201 -0.9745  0.9721  0.4230
  149MOL0     C20458   8.066   5.240   3.159 -0.4330 -0.6503 -0.9421
  149MOL0     C20459   8.177   5.280   3.239  0.1427  0.7939 -0.5312
  149MOL0     O20460   8.270   5.373   3.205  0.2488 -0.0601 -0.6155
  149MOL0     C20461   8.266   5.437   3.081  0.6098 -0.3707 -0.1562
  149MOL0     C20462   8.401   5.503   3.044  0.9631 -0.5096  0.0584
  149MOL0     C20463   8.394   5.592   2.919  0.5149  0.2452 -0.5715
  149MOL0     C20464   8.292   5.701   2.922 -0.7999  0.5897 -0.1522
  149MOL0     C20465   8.318   5.820   2.834 -0.2800 -0.4834  0.7647
  149MOL0     C20466   8.198   5.917   2.838  0.4876 -0.0358 -0.5269
  149MOL0     C20467   8.229   6.045   2.761  0.2409 -0.2947  0.0918
  149MOL0     C20468   8.224   6.020   2.613 -0.6052 -0.2148 -0.0849
  149MOL0    Cl20469   8.054   5.993   2.566 -0.2710  0.0613 -0.5110
  149MOL0     C20470   8.201   5.212   3.362  0.0025  0.5515  0.0956
  149MOL0     C20471   8.117   5.106   3.406 -0.3935  0.6913  0.5379
  149MOL0     O20472   8.054   4.819   3.272  0.4426 -0.1061  0.4684
  149MOL0     C20473   7.714   4.797   3.389 -0.6579  0.1571 -0.4204
  149MOL0     C20474   7.618   4.704   3.412  0.2021  0.0363  0.1435
  149MOL0     N20475   7.072   4.415   3.099  0.2243 -1.0773 -0.5372
  149MOL0     N20476   7.012   4.473   2.994 -0.1000  0.4182  0.6195
  149MOL0     C20477   6.229   4.334   2.152 -0.3834  0.3044 -0.7455
  149MOL0     C20478   6.102   4.382   2.102 -0.3474 -0.4462  0.2143
  149MOL0     C20479   5.772   4.642   1.967  0.8426 -0.3825  0.5053
  149MOL0     C20480   5.652   4.657   2.037  0.1584  0.2222 -0.2474
  149MOL0     C20481   5.555   4.752   1.996 -0.7647 -0.2069  0.2093
  149MOL0     C20482   5.575   4.814   1.868  0.4400 -0.1391  0.5538
  149MOL0     O20483   5.477   4.899   1.816  0.2447 -0.4668  0.0652
  149MOL0     C20484   5.411   4.991   1.910  0.0459 -0.1392  1.4041
  149MOL0     C20485   5.261   5.013   1.869 -0.2539  1.2507  0.3905
  149MOL0     C20486   5.237   5.071   1.732 -0.3392 -0.1824  0.1013
  149MOL0     C20487   5.093   5.118   1.708 -0.5975  0.0910 -0.4701
  149MOL0     C20488   5.101   5.238   1.622  0.0721 -0.1651 -0.2257
  149MOL0     C20489   5.102   5.331   1.543 -0.2277  0.4159 -0.1035
  149MOL0     C20490   5.689   4.791   1.795 -0.5883  0.7633 -0.8868
  149MOL0     C20491   5.787   4.699   1.834  0.5883  0.1277  0.2320
  149MOL0     C20492   5.902   4.691   1.751 -0.6746  0.9652 -0.4158
  149MOL0     H20493   6.237   4.655   1.929  2.3668  3.1903  4.6174
  149MOL0     H20494   6.438   4.563   2.029 -0.8897  1.7307  3.6638
  149MOL0     H20495   6.404   4.151   2.214 -4.5534  2.2168  0.9545
  149MOL0     H20496   6.424   4.252   2.357 -2.2401 -0.5122 -1.8976
  149MOL0     H20497   6.603   4.056   2.317  2.7235  0.2941  1.0867
  149MOL0     H20498   6.635   4.145   2.170  0.3790  0.6172 -0.1323
  149MOL0     H20499   6.699   4.353   2.292  0.7668  0.3349  0.8676
  149MOL0     H20500   6.648   4.284   2.444 -0.6888 -1.9211  0.1797
  149MOL0     H20501   6.850   4.138   2.449  0.4019  1.6195  1.6581
  149MOL0     H20502   6.871   4.167   2.275  1.5397 -0.3285  0.7125
  149MOL0     H20503   6.928   4.408   2.319  0.4405  0.3665  0.6811
  149MOL0     H20504   7.045   4.297   2.376  0.2972 -2.3355 -2.6098
  149MOL0     H20505   6.976   4.497   2.518 -0.5977 -0.3089  0.2786
  149MOL0     H20506   6.825   4.413   2.550 -0.0712  2.0596 -0.3621
  149MOL0     H20507   7.107   4.331   2.640 -0.4042 -1.1861 -0.1616
  149MOL0     H20508   6.969   4.231   2.669  1.3292 -0.4676  1.2474
  149MOL0     H20509   6.941   4.518   2.752 -3.3099 -0.8573 -0.9946
  149MOL0     H20510   6.842   4.378   2.775  0.8209 -3.8399  1.0054
  149MOL0     H20511   7.038   4.171   2.888  1.8482  0.0886 -0.2048
  149MOL0     H20512   7.181   4.087   3.115  1.4788 -0.5828 -0.0172
  149MOL0     H20513   7.138   4.173   3.260 -0.2557 -2.5622 -0.7434
  149MOL0     H20514   7.378   4.126   3.213  0.6313 -1.6022 -2.7576
  149MOL0     H20515   7.384   4.237   3.087 -0.0778  0.7435  0.1405
  149MOL0     H20516   7.288   4.415   3.267 -0.4138 -0.1301  0.6151
  149MOL0     H20517   7.328   4.288   3.384 -4.8711  0.5125 -1.0876
  149MOL0     H20518   7.560   4.307   3.320 -0.9911 -2.1075 -2.2028
  149MOL0     H20519   7.510   4.413   3.177 -1.9340  3.0306 -0.0246
  149MOL0     H20520   7.710   4.478   3.177  0.3685  0.2525 -0.8989
  149MOL0     H20521   7.956   4.709   3.067 -2.3640 -0.4169 -1.2645
  149MOL0     H20522   7.893   4.540   3.057 -0.3587  1.3971 -0.8115
  149MOL0     H20523   8.012   4.576   3.172  0.1288 -0.2445 -0.4078
  149MOL0     H20524   7.904   5.118   3.131  0.6591 -0.7924 -0.8029
  149MOL0     H20525   8.038   5.276   3.060 -1.3106  0.4677 -0.3232
  149MOL0     H20526   8.240   5.362   3.005 -0.8675  2.9458 -3.1899
  149MOL0     H20527   8.179   5.503   3.076  0.1290 -0.8837  1.0304
  149MOL0     H20528   8.427   5.573   3.124  0.6933 -0.3129 -0.0235
  149MOL0     H20529   8.476   5.425   3.033 -1.6709 -3.5719  1.8282
  149MOL0     H20530   8.385   5.528   2.831 -2.3537 -3.4494  2.0529
  149MOL0     H20531   8.490   5.644   2.913 -0.3346  1.8904 -0.5005
  149MOL0     H20532   8.278   5.725   3.028 -0.1287 -0.6127  0.2324
  149MOL0     H20533   8.193   5.665   2.893 -1.3783  2.9234 -1.3425
  149MOL0     H20534   8.402   5.876   2.875  0.8585 -0.2481 -1.6922
  149MOL0     H20535   8.342   5.790   2.731 -0.9353 -2.0570  1.0401
  149MOL0     H20536   8.170   5.937   2.942  1.0488 -2.8926  0.2466
  149MOL0     H20537   8.121   5.859   2.788  0.6558 -0.9166  0.2114
  149MOL0     H20538   8.335   6.071   2.775 -0.0344  0.8678  0.1697
  149MOL0     H20539   8.155   6.121   2.787 -3.1119 -2.5958 -1.9750
  149MOL0     H20540   8.294   5.939   2.589  1.0054  1.5735 -1.8364
  149MOL0     H20541   8.256   6.113   2.564 -2.0224  1.9467  2.8106
  149MOL0     H20542   8.280   5.253   3.424 -0.2356  2.0969 -0.6008
  149MOL0     H20543   8.125   5.063   3.505  1.6297  2.5566  1.2488
  149MOL0     H20544   7.721   4.889   3.446 -0.7815  1.9260 -3.0999
  149MOL0     H20545   7.547   4.712   3.494 -1.4266 -0.4303 -1.1901
  149MOL0     H20546   6.213   4.246   2.215  0.2360  0.5338 -0.2586
  149MOL0     H20547   6.011   4.326   2.121 -0.8754  0.4247  0.3375
  149MOL0     H20548   5.646   4.607   2.133 -0.2855  0.5116 -0.1191
  149MOL0     H20549   5.468   4.769   2.059 -2.6861 -2.1566 -1.7501
  149MOL0     H20550   5.419   4.953   2.012  2.6463 -0.2780  1.2196
  149MOL0     H20551   5.462   5.088   1.904 -1.6534  0.7093 -0.1210
  149MOL0     H20552   5.214   5.083   1.938  2.2942  3.3223  0.1502
  149MOL0     H20553   5.215   4.913   1.862  2.2369  0.1690 -2.4121
  149MOL0     H20554   5.307   5.154   1.724 -0.9455  0.1472 -3.1365
  149MOL0     H20555   5.270   4.997   1.658 -1.1843 -0.1318 -0.3360
  149MOL0     H20556   5.051   5.146   1.805  1.1240 -1.9993  0.9807
  149MOL0     H20557   5.021   5.043   1.673  0.2204 -1.5117  1.1084
  149MOL0     H20558   5.099   5.409   1.469  1.6050  1.1078  0.5106
  149MOL0     H20559   5.700   4.850   1.704 -2.1035  3.1383  0.3394
  149MOL0     H20560   5.909   4.588   1.715  0.6099  0.6185  0.7290
  149MOL0     H20561   5.895   4.759   1.666  1.7875  3.1626  0.9991
  149MOL0     H20562   5.990   4.731   1.802  1.6065 -1.0622 -2.4664
  150MOL0     O20563   2.829   9.744   7.676  0.1612  0.3295 -0.3475
  150MOL0     C20564   2.816   9.621   7.667  0.5155  0.0167 -0.2576
  150MOL0     O20565   2.754   9.541   7.764 -0.0725  0.0299  0.1978
  150MOL0     C20566   2.675   9.591   7.871 -1.1120  0.7974 -0.0115
  150MOL0     C20567   2.626   9.493   7.959 -0.8904 -0.9503  0.0024
  150MOL0     C20568   2.558   9.529   8.072  0.4240 -0.1004  0.2316
  150MOL0     C20569   2.537   9.665   8.107  0.8588  0.1674 -1.0030
  150MOL0     O20570   2.457   9.710   8.214  0.2865 -0.5532 -0.3595
  150MOL0     C20571   2.475   9.658   8.350  0.1621  0.1871  0.7290
  150MOL0     C20572   2.585   9.736   8.412  0.0926 -0.5133 -1.4926
  150MOL0     C20573   2.727   9.687   8.380  0.6480 -0.3979  0.6158
  150MOL0     C20574   2.784   9.614   8.500 -0.7835  0.0667 -0.0998
  150MOL0     C20575   2.921   9.547   8.468 -0.5609 -0.5654  0.3093
  150MOL0     C20576   2.996   9.526   8.604  0.7415 -0.2218 -0.2183
  150MOL0     C20577   3.142   9.490   8.578 -1.1488  0.7117 -0.2138
  150MOL0     C20578   3.161   9.344   8.510 -0.5207 -0.1647 -0.3169
  150MOL0     N20579   3.301   9.292   8.522  0.0218 -0.0361 -0.9516
  150MOL0     C20580   3.322   9.169   8.579  0.1809  0.7407  0.2139
  150MOL0     C20581   3.449   9.143   8.538  0.2745  0.4126  0.0710
  150MOL0     C20582   3.530   9.013   8.577 -0.5909 -0.4906  0.0971
  150MOL0     C20583   3.649   8.996   8.484  0.0597 -0.6991 -0.1844
  150MOL0     C20584   3.755   8.892   8.530 -0.9763  0.5595  0.0220
  150MOL0     C20585   3.863   8.866   8.428  0.4203 -0.3987  0.3240
  150MOL0     O20586   3.790   8.801   8.323  0.5070  0.5219 -0.1624
  150MOL0     C20587   3.860   8.763   8.213  0.0028 -0.0440 -0.0333
  150MOL0     C20588   3.783   8.715   8.105 -0.4479 -0.5623 -0.1101
  150MOL0     C20589   3.831   8.676   7.983  0.0850 -0.4213  0.5294
  150MOL0     C20590   3.736   8.650   7.864  0.5876  0.8691 -0.0025
  150MOL0     C20591   3.974   8.673   7.962  0.7086  0.3300  0.3330
  150MOL0     C20592   4.052   8.630   7.841  0.7062  0.6618  0.1013
  150MOL0     O20593   4.187   8.621   7.849  0.3031  0.2905  0.4897
  150MOL0     C20594   4.256   8.592   7.737  0.3590 -0.2204  0.5351
  150MOL0     C20595   4.270   8.677   7.625 -0.3378 -0.1065 -0.3710
  150MOL0     C20596   4.379   8.654   7.532 -0.2839 -0.5553 -0.0093
  150MOL0     C20597   4.438   8.527   7.528  0.1818  0.5561 -0.5344
  150MOL0     O20598   4.513   8.476   7.424 -0.1411 -0.4918  0.5161
  150MOL0     C20599   4.612   8.562   7.371 -0.7047 -0.7242  0.2514
  150MOL0     C20600   4.721   8.581   7.479 -0.1641  0.4526 -0.1223
  150MOL0     C20601   4.781   8.438   7.534 -0.0783  0.6639 -0.1412
  150MOL0     C20602   4.895   8.468   7.634  0.2847  0.5462 -0.1114
  150MOL0     C20603   4.975   8.340   7.651  0.4672 -0.2122  0.1598
  150MOL0     C20604   5.097   8.361   7.726 -0.3904  0.5580  0.2659
  150MOL0     C20605   5.166   8.236   7.780  0.0629  0.7958  0.5259
  150MOL0     C20606   5.222   8.142   7.665 -0.4090  0.2937  0.4641
  150MOL0    Cl20607   5.348   8.244   7.590  0.2734  0.2153  0.0338
  150MOL0     C20608   4.408   8.440   7.631  0.3990  0.9593  0.1891
  150MOL0     C20609   4.327   8.478   7.737  0.0812 -0.1839 -0.6086
  150MOL0     O20610   3.978   8.612   7.736  0.1783 -0.3500  0.0426
  150MOL0     C20611   4.050   8.719   8.071 -0.5531  0.1463  0.5754
  150MOL0     C20612   3.992   8.761   8.193  0.3953 -0.2230  0.0379
  150MOL0     N20613   3.497   9.239   8.454  0.4716  0.4609  0.0876
  150MOL0     N20614   3.397   9.321   8.435  0.4940 -0.2998 -0.0722
  150MOL0     C20615   2.596   9.769   8.026 -0.0249 -0.0181  0.4884
  150MOL0     C20616   2.662   9.726   7.909  0.6364  0.9387 -1.2424
  150MOL0     C20617   2.854   9.551   7.544 -0.8535  0.4609  1.0684
  150MOL0     C20618   2.944   9.446   7.563  0.5106  0.1174 -0.2497
  150MOL0     C20619   2.982   9.374   7.457 -0.4790 -0.1369  0.1605
  150MOL0     C20620   2.936   9.391   7.333 -0.4915 -0.0672  0.4614
  150MOL0     O20621   2.967   9.293   7.242  0.1483 -0.1641 -0.3475
  150MOL0     C20622   2.985   9.323   7.105  0.7460  0.4161  0.3092
  150MOL0     C20623   3.093   9.420   7.073 -1.3100  0.7646 -0.0647
  150MOL0     C20624   3.242   9.380   7.110 -0.1159  0.9144 -0.3116
  150MOL0     C20625   3.273   9.355   7.260 -0.4982 -0.3550 -1.4625
  150MOL0     C20626   3.415   9.309   7.263  0.6155 -0.4434 -0.4882
  150MOL0     C20627   3.534   9.285   7.248 -0.0533 -0.1189  1.0575
  150MOL0     C20628   2.864   9.501   7.302  0.8149 -0.8297 -0.0777
  150MOL0     C20629   2.826   9.588   7.406  1.2638 -0.3007  0.4971
  150MOL0     C20630   2.734   9.712   7.381  0.2170 -0.3275  0.3299
  150MOL0     H20631   2.634   9.389   7.929 -2.1812 -1.2139  0.5360
  150MOL0     H20632   2.516   9.447   8.128  3.1497 -3.1546 -1.8295
  150MOL0     H20633   2.487   9.550   8.352 -1.3136 -0.0619 -1.0482
  150MOL0     H20634   2.384   9.671   8.409 -0.9779  1.0960 -1.1316
  150MOL0     H20635   2.578   9.838   8.374  0.2850  0.4664  0.9273
  150MOL0     H20636   2.569   9.745   8.519  2.3394  1.6461 -1.2499
  150MOL0     H20637   2.729   9.617   8.296  2.4413 -0.7652  0.9293
  150MOL0     H20638   2.798   9.765   8.352  2.1079 -2.5959 -2.3426
  150MOL0     H20639   2.788   9.682   8.585  0.4755  1.4492 -1.2169
  150MOL0     H20640   2.718   9.532   8.530 -0.7641  0.1044  0.0460
  150MOL0     H20641   2.978   9.612   8.400 -2.4436  0.0912 -0.7263
  150MOL0     H20642   2.901   9.454   8.415 -1.1957 -0.6378  0.6668
  150MOL0     H20643   2.985   9.625   8.649 -1.8375 -0.5097 -0.0270
  150MOL0     H20644   2.957   9.452   8.673 -0.0982  0.9157  0.5746
  150MOL0     H20645   3.195   9.497   8.673  0.3718  3.5115 -1.1704
  150MOL0     H20646   3.196   9.565   8.521  0.2111 -0.9227 -1.1849
  150MOL0     H20647   3.090   9.267   8.539  0.0401 -0.8214 -0.6484
  150MOL0     H20648   3.150   9.366   8.403 -3.0312  0.5867  0.0361
  150MOL0     H20649   3.255   9.118   8.648  0.2290  1.3934  0.7474
  150MOL0     H20650   3.459   8.930   8.583  0.1939 -1.0978  1.3982
  150MOL0     H20651   3.572   9.022   8.677 -2.3911 -2.2574  1.0966
  150MOL0     H20652   3.609   8.978   8.384  0.5966 -0.3509 -0.4639
  150MOL0     H20653   3.699   9.092   8.473 -1.0825 -0.2361 -1.6027
  150MOL0     H20654   3.812   8.924   8.618  0.1420 -1.0573 -0.0544
  150MOL0     H20655   3.704   8.797   8.549  1.2969 -1.0818 -1.4430
  150MOL0     H20656   3.909   8.964   8.408 -0.8198  0.3727  1.0986
  150MOL0     H20657   3.938   8.801   8.473 -2.3917 -3.5198  0.8568
  150MOL0     H20658   3.675   8.702   8.112 -0.1386 -2.4236  3.5944
  150MOL0     H20659   3.635   8.662   7.904  0.9615  0.2351  1.1898
  150MOL0     H20660   3.747   8.550   7.821  0.9965  0.4313  1.0786
  150MOL0     H20661   3.746   8.730   7.791 -1.6589  2.7857  1.6339
  150MOL0     H20662   4.205   8.765   7.628 -2.0824 -1.3732  1.1812
  150MOL0     H20663   4.402   8.719   7.448 -3.0011  0.1417 -0.2780
  150MOL0     H20664   4.655   8.534   7.274 -1.3589 -0.8376 -0.0125
  150MOL0     H20665   4.571   8.662   7.350 -0.9942 -1.1108 -1.1836
  150MOL0     H20666   4.802   8.645   7.442  1.9158 -2.2589 -0.5661
  150MOL0     H20667   4.670   8.627   7.565 -0.3110 -0.1099  0.0908
  150MOL0     H20668   4.812   8.377   7.449  2.3742  1.8808 -0.2326
  150MOL0     H20669   4.702   8.390   7.592  0.7898  1.2628  1.6073
  150MOL0     H20670   4.861   8.504   7.732 -0.2836 -2.9661  1.1092
  150MOL0     H20671   4.954   8.553   7.598 -0.3274  1.7590  1.6293
  150MOL0     H20672   4.902   8.274   7.698 -3.1279  1.5223 -2.4871
  150MOL0     H20673   5.005   8.305   7.551  1.7588  1.4524 -0.0716
  150MOL0     H20674   5.073   8.427   7.810 -0.9747  1.7446 -0.8007
  150MOL0     H20675   5.171   8.410   7.663 -1.1894 -0.8232 -1.8343
  150MOL0     H20676   5.097   8.175   7.839  1.7799 -0.3989  1.3493
  150MOL0     H20677   5.249   8.270   7.841  0.5422 -0.2648  0.4893
  150MOL0     H20678   5.139   8.133   7.594 -0.1739  0.2905  0.1899
  150MOL0     H20679   5.244   8.049   7.717 -3.1675 -0.7872 -0.1141
  150MOL0     H20680   4.442   8.338   7.627  0.7342  1.0937 -0.8253
  150MOL0     H20681   4.304   8.406   7.815 -0.5478 -0.4571 -1.0318
  150MOL0     H20682   4.158   8.728   8.070 -0.6681  1.6807  0.9260
  150MOL0     H20683   4.051   8.765   8.284 -1.1102  0.0641  1.0475
  150MOL0     H20684   2.577   9.871   8.057  1.6139 -0.4802  3.3323
  150MOL0     H20685   2.711   9.802   7.849 -0.9747  0.5314 -3.1708
  150MOL0     H20686   2.988   9.428   7.661  0.8753  0.5470 -0.3325
  150MOL0     H20687   3.056   9.296   7.473 -0.6527 -0.1148  1.0888
  150MOL0     H20688   3.001   9.230   7.051 -0.9685  0.1988  0.1034
  150MOL0     H20689   2.886   9.344   7.063  0.4480 -3.0011 -0.9848
  150MOL0     H20690   3.076   9.510   7.134 -0.6732  0.9839 -0.2039
  150MOL0     H20691   3.092   9.464   6.972 -0.0535 -0.0154 -0.4331
  150MOL0     H20692   3.277   9.286   7.066  2.4964  0.9285  1.5414
  150MOL0     H20693   3.313   9.458   7.083 -0.1500  0.3491 -2.1621
  150MOL0     H20694   3.214   9.276   7.306  1.2081 -1.1035 -0.4422
  150MOL0     H20695   3.263   9.446   7.319 -1.0378  0.0022 -2.0897
  150MOL0     H20696   3.634   9.259   7.219 -0.9670 -1.1901 -1.4693
  150MOL0     H20697   2.822   9.530   7.206  0.4303  0.7035  0.5251
  150MOL0     H20698   2.734   9.784   7.463 -1.3974 -1.2646  1.2180
  150MOL0     H20699   2.761   9.756   7.285  1.2754  0.2128  0.8686
  150MOL0     H20700   2.628   9.685   7.383 -0.3878  1.8935  0.3476
  151MOL0     O20701   8.815   8.454   0.380 -0.3784  0.3345 -0.8106
  151MOL0     C20702   8.718   8.392   0.338  0.0799 -0.5895 -0.0887
  151MOL0     O20703   8.720   8.328   0.216  0.4085 -0.0264 -0.9331
  151MOL0     C20704   8.826   8.332   0.130  0.4292  0.4154 -0.3126
  151MOL0     C20705   8.852   8.216   0.061 -1.4047  0.3231  0.8385
  151MOL0     C20706   8.954   8.229  -0.039 -0.0401  0.1007  0.1966
  151MOL0     C20707   9.017   8.350  -0.071 -0.6421  0.0522 -0.9112
  151MOL0     O20708   9.116   8.372  -0.162  0.1666  0.5835  0.1696
  151MOL0     C20709   9.193   8.260  -0.217  0.6996 -0.6345 -0.3033
  151MOL0     C20710   9.333   8.303  -0.260 -0.0647  0.5473 -0.4599
  151MOL0     C20711   9.331   8.370  -0.395 -0.3361  0.2503  0.3809
  151MOL0     C20712   9.470   8.432  -0.418 -0.1127 -0.1167  0.4809
  151MOL0     C20713   9.464   8.494  -0.558 -0.0124 -0.3281 -0.3591
  151MOL0     C20714   9.603   8.524  -0.614  0.0697 -1.4385 -1.3932
  151MOL0     C20715   9.587   8.604  -0.744 -0.7806 -0.5529  0.0132
  151MOL0     C20716   9.711   8.608  -0.833 -0.6125  0.1363 -0.9601
  151MOL0     N20717   9.825   8.665  -0.768 -0.0978 -0.4053  0.7995
  151MOL0     C20718   9.873   8.790  -0.777  0.3411 -0.6181 -0.1914
  151MOL0     C20719   9.973   8.793  -0.684 -0.2642 -0.1956  0.5949
  151MOL0     C20720  10.062   8.911  -0.662  0.1080  0.8979  0.1567
  151MOL0     C20721  10.209   8.870  -0.659 -0.1859  0.0779  0.2096
  151MOL0     C20722  10.289   8.989  -0.692  0.1755 -0.1057  0.4079
  151MOL0     C20723  10.442   8.969  -0.666  0.0761  0.3438  0.4582
  151MOL0     O20724  10.481   8.893  -0.782 -0.8690  0.0161 -0.3958
  151MOL0     C20725  10.619   8.877  -0.801 -0.2658 -0.1891 -0.1817
  151MOL0     C20726  10.717   8.961  -0.746  0.4004 -0.2945 -0.4222
  151MOL0     C20727  10.854   8.942  -0.759  0.7306 -0.5099 -1.0718
  151MOL0     C20728  10.931   9.037  -0.670  0.3578 -0.1836  0.4006
  151MOL0     C20729  10.908   8.828  -0.819 -0.4929 -0.6820 -0.0429
  151MOL0     C20730  11.050   8.816  -0.845  1.2526 -0.2556 -0.9736
  151MOL0     O20731  11.127   8.876  -0.755 -0.3673 -0.1990  0.0651
  151MOL0     C20732  11.260   8.863  -0.766  0.1784 -0.1122  0.3390
  151MOL0     C20733  11.328   8.761  -0.700 -0.4506  0.0717  0.0725
  151MOL0     C20734  11.467   8.749  -0.720 -0.2931  0.4514  0.4896
  151MOL0     C20735  11.531   8.854  -0.795  0.8779 -0.8881  0.3610
  151MOL0     O20736  11.669   8.860  -0.803 -0.0619 -0.4233  0.3294
  151MOL0     C20737  11.749   8.909  -0.693  0.4927  0.7329 -0.1649
  151MOL0     C20738  11.889   8.922  -0.733  0.4173 -0.2384  0.6206
  151MOL0     C20739  11.972   8.933  -0.608 -0.3392 -0.8584 -0.1374
  151MOL0     C20740  12.121   8.970  -0.625 -0.2548 -0.2400  0.2424
  151MOL0     C20741  12.182   8.974  -0.481 -0.7433  0.0770 -0.1143
  151MOL0     C20742  12.328   9.010  -0.477  0.6106 -0.4691 -0.6657
  151MOL0     C20743  12.359   9.009  -0.326  0.1569  0.0636  0.5646
  151MOL0     C20744  12.512   9.018  -0.313 -0.1873  0.7808  0.1529
  151MOL0    Cl20745  12.604   8.866  -0.342  0.1570  0.1234  0.2634
  151MOL0     C20746  11.457   8.956  -0.860 -0.4099 -1.0670  0.0550
  151MOL0     C20747  11.323   8.958  -0.852 -0.5288 -0.4979 -0.2845
  151MOL0     O20748  11.080   8.749  -0.934 -0.2545 -0.0343  0.2793
  151MOL0     C20749  10.811   8.738  -0.862  1.2191 -1.0587  0.8842
  151MOL0     C20750  10.671   8.765  -0.860 -0.1044  0.5036  0.1918
  151MOL0     N20751   9.992   8.664  -0.624  0.2112 -0.1591 -0.2949
  151MOL0     N20752   9.899   8.591  -0.683 -0.7028  0.4113 -0.3046
  151MOL0     C20753   8.987   8.458   0.005  0.0794 -0.5857  0.0693
  151MOL0     C20754   8.895   8.447   0.105 -0.1147 -0.3163 -0.2969
  151MOL0     C20755   8.591   8.409   0.412 -0.1534  0.4292  0.3284
  151MOL0     C20756   8.480   8.353   0.350  0.2161 -0.3016  0.5224
  151MOL0     C20757   8.354   8.340   0.407 -0.4788  0.5356 -0.4022
  151MOL0     C20758   8.335   8.411   0.523  0.8058 -0.7172 -0.2044
  151MOL0     O20759   8.203   8.404   0.573 -0.4033  0.0284  0.3401
  151MOL0     C20760   8.176   8.422   0.716  0.5692 -0.4401 -0.3707
  151MOL0     C20761   8.030   8.390   0.753 -0.2591  0.3252  1.2980
  151MOL0     C20762   7.986   8.447   0.890 -0.7623  0.1103 -0.3002
  151MOL0     C20763   7.836   8.399   0.906 -0.4911  0.3440  0.8096
  151MOL0     C20764   7.797   8.441   1.036  0.2283  0.1206 -0.3104
  151MOL0     C20765   7.763   8.439   1.153 -0.2938 -0.0185  0.0717
  151MOL0     C20766   8.439   8.483   0.585  0.8507  0.1677 -0.8287
  151MOL0     C20767   8.568   8.488   0.531 -0.3709 -0.4543  0.4668
  151MOL0     C20768   8.669   8.559   0.613  0.0011 -0.1323  0.2819
  151MOL0     H20769   8.792   8.128   0.083  0.9083 -1.8841 -1.0310
  151MOL0     H20770   8.981   8.150  -0.107  1.6114  2.3988 -1.9869
  151MOL0     H20771   9.143   8.225  -0.308  0.5609 -2.6306  0.4995
  151MOL0     H20772   9.207   8.181  -0.144  2.8805 -2.8529 -2.8912
  151MOL0     H20773   9.374   8.368  -0.182 -0.5168 -0.0215  0.2727
  151MOL0     H20774   9.402   8.219  -0.273  1.1899  1.7121 -1.5388
  151MOL0     H20775   9.312   8.296  -0.474 -1.7064 -0.8620  1.6846
  151MOL0     H20776   9.262   8.454  -0.397  0.6775  1.0986 -1.1268
  151MOL0     H20777   9.487   8.502  -0.336  3.3997  0.0051 -0.2012
  151MOL0     H20778   9.558   8.367  -0.406 -0.4220 -0.5800  0.2897
  151MOL0     H20779   9.407   8.586  -0.545 -0.7459 -0.8172 -0.0130
  151MOL0     H20780   9.412   8.429  -0.630  1.5969 -2.0428 -0.0628
  151MOL0     H20781   9.661   8.584  -0.543 -1.1007  2.5030 -3.4984
  151MOL0     H20782   9.669   8.438  -0.630 -1.5874 -2.4323 -3.4149
  151MOL0     H20783   9.562   8.705  -0.713  1.4776  0.7480 -2.0305
  151MOL0     H20784   9.505   8.568  -0.807 -0.6647  0.6323 -0.8510
  151MOL0     H20785   9.724   8.503  -0.862 -2.5414 -0.0560 -1.3089
  151MOL0     H20786   9.694   8.654  -0.931  2.0785 -1.0946 -2.1026
  151MOL0     H20787   9.848   8.877  -0.837 -0.1237  0.2519  1.2327
  151MOL0     H20788  10.046   8.955  -0.563  0.1139 -1.7225  1.4293
  151MOL0     H20789  10.052   8.979  -0.746  2.4877  1.2912  0.1439
  151MOL0     H20790  10.236   8.838  -0.558  0.1961 -0.2991 -0.0053
  151MOL0     H20791  10.229   8.795  -0.735 -1.6244 -0.5500  0.4119
  151MOL0     H20792  10.272   9.014  -0.798 -0.1469  0.6419  0.6230
  151MOL0     H20793  10.255   9.076  -0.635  1.5032  0.9662 -0.3589
  151MOL0     H20794  10.489   9.068  -0.662 -0.2581  0.4930  0.7875
  151MOL0     H20795  10.468   8.915  -0.574  1.6986 -1.4618 -0.9903
  151MOL0     H20796  10.684   9.048  -0.691  0.9118 -0.9920  1.0256
  151MOL0     H20797  10.872   9.120  -0.629  0.2309  1.0754 -2.1586
  151MOL0     H20798  11.004   9.092  -0.730  1.1497 -0.6827  0.8844
  151MOL0     H20799  10.990   8.986  -0.593 -0.0786  0.6337  1.2942
  151MOL0     H20800  11.274   8.689  -0.639  1.0127  0.1881  1.5822
  151MOL0     H20801  11.518   8.664  -0.677 -0.1460 -0.4955 -1.4372
  151MOL0     H20802  11.706   9.005  -0.666 -0.5418  0.2305  0.0225
  151MOL0     H20803  11.749   8.846  -0.604 -1.2828 -1.0042 -1.2989
  151MOL0     H20804  11.920   8.838  -0.797 -1.2549 -2.0754  2.0801
  151MOL0     H20805  11.901   9.014  -0.791 -0.6473 -1.9707 -2.6080
  151MOL0     H20806  11.971   8.837  -0.556 -1.0331  0.0755  1.6693
  151MOL0     H20807  11.930   9.003  -0.535 -0.0224  0.6197 -1.3177
  151MOL0     H20808  12.149   9.067  -0.667  2.4407 -0.5803  1.0650
  151MOL0     H20809  12.168   8.898  -0.692  0.8215  1.7463 -1.2706
  151MOL0     H20810  12.133   9.057  -0.430  1.6608  0.7525  1.2261
  151MOL0     H20811  12.157   8.877  -0.437 -0.6327 -0.3285 -0.9150
  151MOL0     H20812  12.358   9.104  -0.525 -1.0985 -0.4700 -1.8223
  151MOL0     H20813  12.377   8.943  -0.548  2.0219  2.5804 -2.8192
  151MOL0     H20814  12.327   8.914  -0.281  0.2711  0.1612  0.8558
  151MOL0     H20815  12.304   9.094  -0.284  3.1225  2.4669 -0.0695
  151MOL0     H20816  12.531   9.053  -0.212 -1.6408 -1.5148  1.3006
  151MOL0     H20817  12.546   9.098  -0.380  1.2308  0.9466  1.0345
  151MOL0     H20818  11.512   9.038  -0.905  1.2094 -0.7449  2.4297
  151MOL0     H20819  11.264   9.035  -0.900  1.7537  0.8184 -1.1225
  151MOL0     H20820  10.841   8.652  -0.920 -0.9198 -0.8006 -0.7421
  151MOL0     H20821  10.598   8.688  -0.884  1.7207 -1.0799 -0.5282
  151MOL0     H20822   9.040   8.550  -0.017  2.4544 -1.6534  0.9812
  151MOL0     H20823   8.867   8.536   0.160 -2.4828 -0.8566 -0.5209
  151MOL0     H20824   8.487   8.284   0.266 -0.8754 -2.7096  2.2820
  151MOL0     H20825   8.282   8.267   0.372  1.0989 -1.4685  0.2949
  151MOL0     H20826   8.242   8.353   0.769  0.0960  0.2464  1.1881
  151MOL0     H20827   8.202   8.523   0.749  2.8015 -0.8656 -0.7112
  151MOL0     H20828   8.020   8.281   0.755  0.3038  0.1506 -1.3188
  151MOL0     H20829   7.964   8.435   0.678 -0.3726  0.2598  1.3571
  151MOL0     H20830   8.049   8.398   0.964 -0.9811  2.1840  1.3719
  151MOL0     H20831   7.999   8.556   0.889  1.6201  0.0222  3.1940
  151MOL0     H20832   7.842   8.292   0.884  0.2269  0.7006 -0.9218
  151MOL0     H20833   7.771   8.452   0.835  0.1302  0.9532  0.6858
  151MOL0     H20834   7.746   8.438   1.258  0.4540  1.1492  0.2233
  151MOL0     H20835   8.428   8.534   0.680 -0.6200  0.0112 -0.8944
  151MOL0     H20836   8.709   8.640   0.552 -1.8840  0.3481 -0.3897
  151MOL0     H20837   8.620   8.609   0.698  0.2118  0.8148 -0.1435
  151MOL0     H20838   8.745   8.490   0.649 -0.6011 -0.7083  0.4763
  152MOL0     O20839   1.007  10.748   9.181 -0.2721  0.6433  0.2037
  152MOL0     C20840   0.942  10.721   9.279  0.1365  0.4159  0.1481
  152MOL0     O20841   0.994  10.694   9.406  0.5953  0.3877 -0.5197
  152MOL0     C20842   1.131  10.677   9.421  0.3258 -0.7157  0.4854
  152MOL0     C20843   1.225  10.780   9.389 -0.1381 -0.2863 -0.0264
  152MOL0     C20844   1.359  10.752   9.412  0.3472 -0.3962  0.3395
  152MOL0     C20845   1.406  10.635   9.456  0.4419  0.5565 -0.1230
  152MOL0     O20846   1.538  10.621   9.476  0.1523  0.0064  0.2113
  152MOL0     C20847   1.586  10.523   9.574  0.1781  0.2876 -0.3206
  152MOL0     C20848   1.716  10.583   9.624 -0.3197  0.8194 -0.4727
  152MOL0     C20849   1.696  10.716   9.702  0.9177  0.3647  0.2952
  152MOL0     C20850   1.824  10.765   9.747 -0.2664 -1.0935  0.0479
  152MOL0     C20851   1.806  10.887   9.843 -0.4229 -0.6258  0.5290
  152MOL0     C20852   1.931  10.940   9.913 -0.0580  1.0533  0.0295
  152MOL0     C20853   1.913  11.061  10.008  0.5288 -0.2833 -0.3409
  152MOL0     C20854   1.799  11.047  10.106 -0.5201  0.8915  0.4599
  152MOL0     N20855   1.824  10.948  10.214 -0.2542  0.3945  0.3643
  152MOL0     C20856   1.912  10.970  10.320  0.2110  0.7720 -0.0304
  152MOL0     C20857   1.900  10.871  10.408  0.0359  1.2576 -0.0784
  152MOL0     C20858   1.976  10.854  10.529 -0.0432  0.0881 -0.0355
  152MOL0     C20859   2.113  10.793  10.509  0.1904 -0.5908 -0.1814
  152MOL0     C20860   2.170  10.737  10.636  1.0589  0.0280  0.0307
  152MOL0     C20861   2.324  10.724  10.642  0.4496 -0.7045  0.1542
  152MOL0     O20862   2.356  10.627  10.540  0.0287  0.7221  0.5382
  152MOL0     C20863   2.484  10.592  10.505 -0.0510  0.6788  0.1471
  152MOL0     C20864   2.597  10.640  10.576  0.3253 -0.5227 -0.7394
  152MOL0     C20865   2.728  10.608  10.533 -0.3655  0.1059 -0.0400
  152MOL0     C20866   2.830  10.667  10.631 -0.0663 -0.2190 -0.2946
  152MOL0     C20867   2.753  10.533  10.411 -0.6296 -0.0422 -0.7423
  152MOL0     C20868   2.888  10.511  10.349  0.3275  0.0773  0.6486
  152MOL0     O20869   2.900  10.429  10.241  0.3829  0.9757  0.0890
  152MOL0     C20870   2.994  10.462  10.144  0.2634 -0.0717  0.0385
  152MOL0     C20871   3.043  10.596  10.139 -0.4293  0.3118  0.8683
  152MOL0     C20872   3.153  10.619  10.052  0.7709  0.0133  0.0034
  152MOL0     C20873   3.218  10.522   9.976 -0.1433  0.2137 -0.0080
  152MOL0     O20874   3.330  10.544   9.905  0.2655 -0.5515  0.1905
  152MOL0     C20875   3.405  10.660   9.938 -0.6003 -0.6619  0.6708
  152MOL0     C20876   3.508  10.689   9.827  0.6805  1.1773  0.2524
  152MOL0     C20877   3.440  10.742   9.699 -0.0391 -0.5728  0.1017
  152MOL0     C20878   3.555  10.768   9.597 -1.1362  0.1361  0.2496
  152MOL0     C20879   3.484  10.816   9.471 -0.1967 -0.2748  0.1473
  152MOL0     C20880   3.585  10.865   9.366 -0.0980  0.7505  0.0210
  152MOL0     C20881   3.528  10.967   9.282  0.7232 -0.2493  0.0645
  152MOL0     C20882   3.628  10.990   9.171  0.1293 -0.0378 -0.1237
  152MOL0    Cl20883   3.629  11.155   9.113 -0.1700 -0.2210 -0.2234
  152MOL0     C20884   3.147  10.396   9.966 -0.4197 -1.0490  0.4260
  152MOL0     C20885   3.038  10.364  10.047  0.5099 -0.2306  0.3535
  152MOL0     O20886   2.978  10.565  10.406 -0.9851  0.0793  0.6970
  152MOL0     C20887   2.639  10.483  10.349  1.0738  0.2905  0.2767
  152MOL0     C20888   2.508  10.514  10.395 -0.5077  0.0453  0.4116
  152MOL0     N20889   1.815  10.775  10.344 -0.1404 -0.2146 -0.1402
  152MOL0     N20890   1.767  10.825  10.230  0.1832  0.0982  0.3110
  152MOL0     C20891   1.310  10.534   9.492 -1.3619 -0.0849  0.1458
  152MOL0     C20892   1.175  10.552   9.465 -0.1163 -0.5030 -0.7007
  152MOL0     C20893   0.786  10.724   9.255 -0.4216 -0.4523 -0.0088
  152MOL0     C20894   0.753  10.788   9.139 -0.7897 -0.2320 -0.8031
  152MOL0     C20895   0.622  10.788   9.097 -0.1607 -0.1388 -0.4401
  152MOL0     C20896   0.515  10.738   9.179  0.1604  0.5088  0.4497
  152MOL0     O20897   0.383  10.750   9.160 -0.3221  0.3337 -0.3006
  152MOL0     C20898   0.350  10.831   9.043  0.8882  0.8938  0.1211
  152MOL0     C20899   0.378  10.768   8.896 -0.2336  0.4438  0.0521
  152MOL0     C20900   0.278  10.657   8.875  0.6131  0.8166 -0.1139
  152MOL0     C20901   0.305  10.574   8.745 -0.2389 -1.1488  0.1418
  152MOL0     C20902   0.182  10.501   8.696 -0.4825 -0.1166 -0.8453
  152MOL0     C20903   0.085  10.459   8.644  0.1143  0.3312 -0.0043
  152MOL0     C20904   0.556  10.669   9.298  0.4968 -0.4929 -0.2168
  152MOL0     C20905   0.687  10.664   9.341  0.0310 -0.3535  0.5063
  152MOL0     C20906   0.710  10.597   9.475 -0.8657  0.6040 -0.9877
  152MOL0     H20907   1.183  10.872   9.350 -0.4381 -0.1714  0.5577
  152MOL0     H20908   1.435  10.830   9.401  1.9167 -1.3320  3.3865
  152MOL0     H20909   1.594  10.427   9.523 -1.7727 -0.7025  1.0939
  152MOL0     H20910   1.526  10.515   9.666  0.6580 -0.8082 -0.0936
  152MOL0     H20911   1.755  10.507   9.692  0.2777  0.6817 -0.9563
  152MOL0     H20912   1.791  10.604   9.547 -0.3824 -1.7474 -1.3279
  152MOL0     H20913   1.650  10.790   9.636  0.1756  0.5791  1.0257
  152MOL0     H20914   1.635  10.675   9.783 -1.2111 -2.0988 -2.3583
  152MOL0     H20915   1.880  10.696   9.810 -1.8624 -0.7319  2.0021
  152MOL0     H20916   1.880  10.797   9.659 -0.6610  3.2117  1.1339
  152MOL0     H20917   1.733  10.849   9.915  0.1086  0.6444  1.7888
  152MOL0     H20918   1.772  10.975   9.786  0.5406 -0.2805  0.4592
  152MOL0     H20919   1.966  10.853   9.970 -1.6192 -0.9621 -1.8831
  152MOL0     H20920   2.005  10.975   9.840  0.3520  1.8678  0.8216
  152MOL0     H20921   1.896  11.154   9.952 -1.6146  0.1365  0.9046
  152MOL0     H20922   2.001  11.076  10.071 -0.4587  0.3886  0.9309
  152MOL0     H20923   1.779  11.144  10.153  1.3919  1.6549 -0.2288
  152MOL0     H20924   1.710  11.014  10.052  1.1033 -2.3659 -0.4835
  152MOL0     H20925   1.960  11.065  10.340 -0.5270  0.7336  2.1893
  152MOL0     H20926   1.915  10.789  10.593  2.0929 -1.7193  0.2816
  152MOL0     H20927   1.994  10.944  10.589  1.3863  0.6350 -1.2371
  152MOL0     H20928   2.110  10.716  10.431  0.8232 -0.2832 -0.5179
  152MOL0     H20929   2.178  10.869  10.465  0.0745 -0.0804  0.5170
  152MOL0     H20930   2.148  10.818  10.707  1.3577  3.4953 -3.4718
  152MOL0     H20931   2.113  10.650  10.669  0.9548  0.8533  2.2850
  152MOL0     H20932   2.356  10.818  10.596  0.1842 -2.6622 -4.5977
  152MOL0     H20933   2.369  10.708  10.740  2.3555  2.1203 -0.1330
  152MOL0     H20934   2.589  10.698  10.667 -1.7632 -1.0445 -0.5306
  152MOL0     H20935   2.851  10.769  10.600 -3.6156  1.0832  1.0820
  152MOL0     H20936   2.922  10.609  10.642  1.8466  2.7054  0.0159
  152MOL0     H20937   2.795  10.682  10.734  4.2471  2.1966  1.0524
  152MOL0     H20938   3.012  10.683  10.196  4.2783  2.1980  0.9796
  152MOL0     H20939   3.184  10.723  10.051 -1.3863  0.7030  0.4838
  152MOL0     H20940   3.339  10.747   9.934  0.2849  0.0186  0.5720
  152MOL0     H20941   3.450  10.644  10.036 -0.9211 -0.5831  0.8298
  152MOL0     H20942   3.569  10.770   9.869  1.6087 -0.0164  1.2440
  152MOL0     H20943   3.560  10.597   9.800 -0.3000  0.2105  1.5232
  152MOL0     H20944   3.399  10.842   9.709  2.3311  0.4628  0.0893
  152MOL0     H20945   3.359  10.677   9.665  0.0153  0.5635 -2.4316
  152MOL0     H20946   3.613  10.676   9.588 -0.1927  0.5426  1.8233
  152MOL0     H20947   3.624  10.845   9.635 -0.4433 -0.1661 -0.3686
  152MOL0     H20948   3.421  10.738   9.425 -1.0322  1.1243 -1.1904
  152MOL0     H20949   3.416  10.898   9.496 -0.3226  0.4984 -2.3705
  152MOL0     H20950   3.606  10.773   9.310 -0.3263 -0.7747  2.3061
  152MOL0     H20951   3.680  10.898   9.410  0.9884  1.2541 -2.5486
  152MOL0     H20952   3.508  11.060   9.336  4.9559 -1.2704  4.0792
  152MOL0     H20953   3.432  10.939   9.238 -0.3285  2.9426  0.0868
  152MOL0     H20954   3.604  10.919   9.091  0.6410 -1.0025  0.5549
  152MOL0     H20955   3.732  10.972   9.200  1.1205  3.0145 -1.4264
  152MOL0     H20956   3.177  10.339   9.879 -1.3014 -0.8785 -0.0000
  152MOL0     H20957   2.991  10.267  10.032  0.8851 -0.3823  0.1434
  152MOL0     H20958   2.646  10.426  10.257  0.5019  0.2613  0.2474
  152MOL0     H20959   2.430  10.476  10.329  0.5157  1.1707 -1.5224
  152MOL0     H20960   1.356  10.441   9.527  0.3017  0.3196 -0.8363
  152MOL0     H20961   1.109  10.466   9.476 -0.6120 -0.1528 -0.8577
  152MOL0     H20962   0.824  10.826   9.066  1.9599 -3.4119 -0.0934
  152MOL0     H20963   0.609  10.850   9.009  1.2180  1.6537  0.5590
  152MOL0     H20964   0.246  10.864   9.042  0.8327  0.7772  1.1609
  152MOL0     H20965   0.409  10.922   9.057 -1.2432  2.3897 -0.1951
  152MOL0     H20966   0.481  10.737   8.874 -0.0220  2.8204 -2.9162
  152MOL0     H20967   0.367  10.848   8.823  3.1688  0.9870 -0.0370
  152MOL0     H20968   0.284  10.594   8.964  0.2553  3.7564  2.1338
  152MOL0     H20969   0.174  10.691   8.880 -0.0686 -1.0084 -0.9765
  152MOL0     H20970   0.381  10.498   8.760 -0.0917 -0.9359  0.4874
  152MOL0     H20971   0.336  10.643   8.665  0.4375  1.8853  2.8149
  152MOL0     H20972  -0.008  10.421   8.606  0.8600 -1.4581 -0.0998
  152MOL0     H20973   0.477  10.621   9.353 -1.3909  2.5582 -0.0069
  152MOL0     H20974   0.794  10.529   9.464 -0.5851  1.0333 -1.5605
  152MOL0     H20975   0.729  10.668   9.556  0.0086  0.1333 -0.7770
  152MOL0     H20976   0.624  10.534   9.501  2.0607 -3.6246 -0.6252
  153MOL0     O20977  11.053   0.195   2.576  0.8100  0.5030  0.6912
  153MOL0     C20978  11.147   0.242   2.517 -0.4343  0.3155 -0.4217
  153MOL0     O20979  11.159   0.367   2.457  0.5387  0.2668  0.4902
  153MOL0     C20980  11.054   0.447   2.443  0.8227  0.1589  0.1212
  153MOL0     C20981  11.077   0.582   2.443 -0.1925 -1.1197  0.2728
  153MOL0     C20982  10.974   0.681   2.432 -0.9092  0.0190 -0.2428
  153MOL0     C20983  10.840   0.638   2.423  0.0585 -0.4696 -0.0863
  153MOL0     O20984  10.737   0.737   2.422  0.4087  0.2439  0.6561
  153MOL0     C20985  10.618   0.720   2.350 -0.6025  0.6531  0.0544
  153MOL0     C20986  10.504   0.811   2.413 -1.1506 -1.0990  0.9516
  153MOL0     C20987  10.497   0.950   2.343 -0.2092  0.1320  0.5627
  153MOL0     C20988  10.627   1.036   2.356 -0.0010  0.0450  0.0663
  153MOL0     C20989  10.608   1.170   2.279  0.1153 -0.4665  0.5111
  153MOL0     C20990  10.718   1.268   2.290  0.6721 -0.1828 -0.2672
  153MOL0     C20991  10.839   1.222   2.217  0.6378  0.2096 -0.1224
  153MOL0     C20992  10.825   1.230   2.063  0.0208 -0.6503  0.3748
  153MOL0     N20993  10.955   1.236   1.996 -0.7171  0.2022  0.5212
  153MOL0     C20994  11.026   1.147   1.913  0.5115 -0.8541  0.7219
  153MOL0     C20995  11.132   1.211   1.868 -0.0645  0.7692  0.1653
  153MOL0     C20996  11.233   1.158   1.774 -0.4705 -1.4214 -0.2355
  153MOL0     C20997  11.375   1.201   1.846 -1.0239 -0.3294 -0.2452
  153MOL0     C20998  11.455   1.299   1.767  0.6847 -0.4611  0.5717
  153MOL0     C20999  11.598   1.312   1.797 -0.4153 -0.7666 -0.1235
  153MOL0     O21000  11.671   1.197   1.762  0.1585 -0.5184 -0.2030
  153MOL0     C21001  11.795   1.227   1.730  0.5543 -0.3776 -0.3200
  153MOL0     C21002  11.902   1.197   1.814 -0.2420 -0.0938 -0.0354
  153MOL0     C21003  12.037   1.202   1.776 -0.1136  0.8040 -0.9651
  153MOL0     C21004  12.137   1.192   1.894  0.2028  0.6567  0.5511
  153MOL0     C21005  12.067   1.243   1.645 -0.0413  0.0263  0.5063
  153MOL0     C21006  12.205   1.267   1.589 -0.3692 -0.8856  0.0917
  153MOL0     O21007  12.216   1.318   1.459  0.7893 -0.1549 -0.2730
  153MOL0     C21008  12.347   1.339   1.410  0.0356  0.5046  0.3570
  153MOL0     C21009  12.409   1.240   1.329 -0.0810  0.5206 -0.3099
  153MOL0     C21010  12.522   1.265   1.251 -1.0231 -0.3106 -0.2267
  153MOL0     C21011  12.583   1.389   1.242 -0.0355 -0.3858 -0.1339
  153MOL0     O21012  12.676   1.421   1.137  0.5269  0.0584 -0.8564
  153MOL0     C21013  12.706   1.320   1.039 -0.4790  0.5424 -0.7236
  153MOL0     C21014  12.808   1.371   0.936  0.6859  0.3429  0.5332
  153MOL0     C21015  12.854   1.265   0.830  0.5659 -0.0513 -0.0116
  153MOL0     C21016  13.007   1.240   0.830 -0.2514  0.4400  0.5118
  153MOL0     C21017  13.057   1.143   0.721  0.6448  0.7426  0.4708
  153MOL0     C21018  13.210   1.128   0.729  0.0947  0.0217 -0.0443
  153MOL0     C21019  13.256   1.059   0.866 -0.6645 -0.2909 -1.3153
  153MOL0     C21020  13.392   1.006   0.868 -0.1383  0.3090  0.3091
  153MOL0    Cl21021  13.522   1.131   0.840  0.4294  0.4005 -0.0114
  153MOL0     C21022  12.533   1.487   1.334 -0.1096 -0.0660 -0.4095
  153MOL0     C21023  12.417   1.460   1.420 -0.2392 -0.4866  0.5569
  153MOL0     O21024  12.302   1.245   1.659 -0.1674  0.2555 -0.6076
  153MOL0     C21025  11.956   1.273   1.554  0.5646  0.3286 -0.3613
  153MOL0     C21026  11.820   1.245   1.597 -0.5363  0.3749  0.2077
  153MOL0     N21027  11.116   1.337   1.917 -0.2051  0.0681 -0.4645
  153MOL0     N21028  11.016   1.354   1.994 -0.3073  0.0627  0.7422
  153MOL0     C21029  10.817   0.499   2.439  0.4509  0.6806  0.2574
  153MOL0     C21030  10.925   0.409   2.449  1.4622  0.4565  0.0656
  153MOL0     C21031  11.275   0.163   2.522  0.8616 -0.9069  0.5161
  153MOL0     C21032  11.400   0.223   2.512 -1.1600 -0.1513 -0.6422
  153MOL0     C21033  11.520   0.149   2.496  0.3367 -1.1749 -0.0365
  153MOL0     C21034  11.515   0.013   2.510 -0.1950  0.2433  1.0320
  153MOL0     O21035  11.638  -0.048   2.511 -0.6552  0.1743 -0.4737
  153MOL0     C21036  11.636  -0.193   2.489  0.1663  0.6934  0.2062
  153MOL0     C21037  11.784  -0.243   2.478  0.4595 -0.3401 -0.6220
  153MOL0     C21038  11.864  -0.178   2.362  0.2474 -0.3855 -0.1140
  153MOL0     C21039  11.993  -0.246   2.314  0.5081  0.4044 -0.3803
  153MOL0     C21040  12.110  -0.221   2.399  0.6723 -0.4196  0.0784
  153MOL0     C21041  12.203  -0.196   2.479  0.4845  0.3042 -0.0526
  153MOL0     C21042  11.399  -0.059   2.517  0.1425 -0.1882  0.0111
  153MOL0     C21043  11.275   0.018   2.514  0.3411 -0.4156 -0.7260
  153MOL0     C21044  11.149  -0.066   2.495 -0.3718 -0.4536  0.1675
  153MOL0     H21045  11.180   0.615   2.454 -0.1394 -1.4593  0.8023
  153MOL0     H21046  11.012   0.782   2.446 -2.2715  0.1139  4.3332
  153MOL0     H21047  10.585   0.617   2.367  0.0089  0.7065  1.7265
  153MOL0     H21048  10.630   0.752   2.246 -0.1192  3.9176  0.9868
  153MOL0     H21049  10.406   0.765   2.398 -1.4586 -0.1250 -0.2037
  153MOL0     H21050  10.520   0.814   2.521 -3.0031 -0.3093  1.2516
  153MOL0     H21051  10.481   0.933   2.236  0.3729  1.1244  0.3047
  153MOL0     H21052  10.410   1.002   2.383  0.1438 -0.1122  1.6755
  153MOL0     H21053  10.633   1.062   2.462 -0.1912  2.1700 -0.3937
  153MOL0     H21054  10.720   0.989   2.323 -0.9587 -1.0646 -1.1724
  153MOL0     H21055  10.516   1.211   2.322  1.2934 -0.5039  3.2716
  153MOL0     H21056  10.584   1.154   2.174 -0.8623  1.8509  0.3339
  153MOL0     H21057  10.691   1.361   2.238  2.1086  0.1708 -0.4187
  153MOL0     H21058  10.736   1.303   2.392 -2.7808  0.7804  0.1419
  153MOL0     H21059  10.861   1.121   2.250 -2.1685 -1.5457 -3.0873
  153MOL0     H21060  10.920   1.287   2.253  1.1626 -0.8657  0.7069
  153MOL0     H21061  10.779   1.140   2.022 -0.7824  1.3545 -3.6564
  153MOL0     H21062  10.766   1.318   2.034  2.6904  1.2871  0.4320
  153MOL0     H21063  10.997   1.047   1.882  0.9474 -0.4955 -0.9142
  153MOL0     H21064  11.225   1.222   1.685  1.8193 -1.9234 -0.8895
  153MOL0     H21065  11.229   1.052   1.748 -0.2990 -1.3604 -0.5115
  153MOL0     H21066  11.352   1.239   1.946 -2.4006  1.7185 -1.2788
  153MOL0     H21067  11.438   1.111   1.849  0.8926  0.9762  0.8447
  153MOL0     H21068  11.444   1.273   1.661  0.1806 -1.6228  0.9026
  153MOL0     H21069  11.407   1.398   1.775 -0.2013 -0.8195 -0.1069
  153MOL0     H21070  11.628   1.395   1.732  0.7680 -1.2423 -0.2174
  153MOL0     H21071  11.604   1.352   1.899 -1.4613  2.8771 -1.3496
  153MOL0     H21072  11.876   1.167   1.915  1.0904 -3.1824 -0.4743
  153MOL0     H21073  12.195   1.284   1.906 -2.0386  2.1838  0.2732
  153MOL0     H21074  12.210   1.110   1.890 -2.9350 -2.3954  1.0789
  153MOL0     H21075  12.072   1.174   1.979 -0.3801  1.1046  0.2076
  153MOL0     H21076  12.349   1.149   1.328 -1.8920  1.5792  2.1344
  153MOL0     H21077  12.562   1.174   1.207  1.8882  1.9511 -2.7150
  153MOL0     H21078  12.760   1.239   1.090 -1.4165  0.9416  0.9779
  153MOL0     H21079  12.611   1.281   1.001 -2.8714  1.1668  3.8752
  153MOL0     H21080  12.764   1.457   0.885  0.9695  0.0171 -0.2908
  153MOL0     H21081  12.893   1.405   0.996 -0.3375  0.4634  1.9625
  153MOL0     H21082  12.837   1.299   0.727  0.8675 -1.8502 -0.6773
  153MOL0     H21083  12.793   1.175   0.843  0.3164  0.0028 -0.7457
  153MOL0     H21084  13.034   1.193   0.925  1.5991  0.0292 -0.1683
  153MOL0     H21085  13.068   1.330   0.820  0.4493 -0.0259  0.5380
  153MOL0     H21086  13.015   1.043   0.731  1.7347  0.2090 -0.2083
  153MOL0     H21087  13.039   1.188   0.622  2.5300 -1.3103 -0.8927
  153MOL0     H21088  13.251   1.229   0.737 -2.5654  1.1475  0.2697
  153MOL0     H21089  13.257   1.073   0.647 -2.4447 -1.3975 -0.6255
  153MOL0     H21090  13.196   0.972   0.895 -0.2635  0.3548  1.7399
  153MOL0     H21091  13.253   1.123   0.954 -0.0326 -1.4135 -0.4428
  153MOL0     H21092  13.389   0.938   0.783 -0.7136 -1.0450  1.3658
  153MOL0     H21093  13.424   0.960   0.962  0.7141  3.1044  1.5087
  153MOL0     H21094  12.588   1.580   1.343 -0.8599  0.2794  1.0313
  153MOL0     H21095  12.382   1.543   1.481  0.0233 -0.6858  0.9873
  153MOL0     H21096  11.981   1.322   1.461  3.1223 -1.4631 -0.7190
  153MOL0     H21097  11.727   1.258   1.542 -0.9620 -3.3547 -0.1661
  153MOL0     H21098  10.712   0.472   2.443  0.6524 -0.2971 -0.5928
  153MOL0     H21099  10.893   0.305   2.452 -2.8351  1.4729 -2.3887
  153MOL0     H21100  11.404   0.331   2.516 -1.6175 -0.1655  1.7895
  153MOL0     H21101  11.614   0.203   2.487 -0.0729 -0.1204  1.6131
  153MOL0     H21102  11.576  -0.251   2.560  0.9105  1.2725  1.3374
  153MOL0     H21103  11.596  -0.217   2.390 -2.6154  0.1830  1.3477
  153MOL0     H21104  11.771  -0.349   2.452 -1.8036 -0.1167 -0.6456
  153MOL0     H21105  11.843  -0.232   2.569  0.4053 -0.0752 -0.6181
  153MOL0     H21106  11.804  -0.177   2.270 -2.6215 -0.7760  1.6359
  153MOL0     H21107  11.883  -0.077   2.401  1.8367 -0.8537  0.4244
  153MOL0     H21108  12.010  -0.190   2.221 -0.3868  2.0310  0.3815
  153MOL0     H21109  11.971  -0.351   2.294 -1.9457  1.1836 -2.4040
  153MOL0     H21110  12.285  -0.175   2.545 -1.1768  2.5054  1.4596
  153MOL0     H21111  11.403  -0.167   2.528  0.4644 -0.3044 -1.1371
  153MOL0     H21112  11.094  -0.028   2.409  3.5321 -1.1807 -2.9102
  153MOL0     H21113  11.180  -0.170   2.481  2.7613 -0.1696  3.4721
  153MOL0     H21114  11.086  -0.058   2.585  0.6980 -0.8080  0.9669
  154MOL0     O21115   1.446   7.085   6.736 -1.0162 -0.2197 -0.4602
  154MOL0     C21116   1.438   7.106   6.857  0.2770  0.2344  0.4010
  154MOL0     O21117   1.547   7.129   6.941 -0.2119 -0.1160  0.0906
  154MOL0     C21118   1.681   7.145   6.909 -0.7113 -0.0466 -0.0995
  154MOL0     C21119   1.779   7.095   6.997 -0.2346 -0.2965 -0.5436
  154MOL0     C21120   1.915   7.114   6.960 -0.5416 -0.3931 -0.7126
  154MOL0     C21121   1.954   7.170   6.841 -0.1690 -0.6287 -0.3058
  154MOL0     O21122   2.083   7.175   6.784  0.0490  0.3245 -0.0412
  154MOL0     C21123   2.195   7.136   6.863 -0.8754 -0.6775 -0.2738
  154MOL0     C21124   2.309   7.145   6.766 -0.0416  0.0559 -0.0231
  154MOL0     C21125   2.446   7.151   6.826 -1.1230 -0.0772 -0.5283
  154MOL0     C21126   2.552   7.112   6.712 -0.8480 -0.8130 -0.6789
  154MOL0     C21127   2.697   7.142   6.764 -0.4205  0.6959 -0.5070
  154MOL0     C21128   2.797   7.092   6.664  0.7000 -0.1067  0.3316
  154MOL0     C21129   2.941   7.102   6.719 -0.5744 -0.2148 -1.3493
  154MOL0     C21130   3.040   7.036   6.621  0.0733  0.3991  0.2531
  154MOL0     N21131   3.181   7.032   6.679  0.2606  0.0090 -0.1268
  154MOL0     C21132   3.263   7.146   6.664 -0.6565 -0.3304 -0.4869
  154MOL0     C21133   3.373   7.125   6.735  0.4972 -0.0925 -0.6141
  154MOL0     C21134   3.496   7.206   6.736  0.8756 -0.0436 -0.3134
  154MOL0     C21135   3.619   7.116   6.730  0.1081  0.2892  0.4049
  154MOL0     C21136   3.751   7.205   6.729 -0.2407 -0.6879 -1.0173
  154MOL0     C21137   3.875   7.123   6.737 -0.0691  0.0069  1.0761
  154MOL0     O21138   3.988   7.192   6.803 -0.4788  0.0276  0.1734
  154MOL0     C21139   4.076   7.106   6.873  0.5671 -0.2361 -0.1155
  154MOL0     C21140   4.075   7.093   7.003  0.4848  0.8064 -0.0572
  154MOL0     C21141   4.153   7.005   7.080  0.1690  0.3016 -0.0492
  154MOL0     C21142   4.148   7.038   7.227  0.0959 -0.0851  0.2033
  154MOL0     C21143   4.241   6.915   7.012 -0.5786  1.0671 -0.1344
  154MOL0     C21144   4.326   6.814   7.076 -0.4138  0.0924 -0.2996
  154MOL0     O21145   4.357   6.702   6.998 -0.3396  0.0713 -0.7096
  154MOL0     C21146   4.428   6.601   7.061  0.3603  0.5216  0.2726
  154MOL0     C21147   4.355   6.495   7.122  0.3843  0.6068  0.4045
  154MOL0     C21148   4.425   6.399   7.192 -0.3281  0.9017  0.1229
  154MOL0     C21149   4.565   6.394   7.197  0.9221 -0.0906  0.3271
  154MOL0     O21150   4.623   6.304   7.286  0.8690  0.3149 -0.0475
  154MOL0     C21151   4.760   6.317   7.313  0.3957 -0.3032  0.3181
  154MOL0     C21152   4.791   6.233   7.436  0.6879  0.2647 -0.4958
  154MOL0     C21153   4.941   6.235   7.492  0.0467 -0.1653 -0.5795
  154MOL0     C21154   4.957   6.147   7.626 -0.1657  0.0099 -0.0546
  154MOL0     C21155   5.044   6.207   7.738  0.0260 -0.2198 -0.2534
  154MOL0     C21156   5.185   6.234   7.691 -0.3250  0.4159 -0.9116
  154MOL0     C21157   5.278   6.280   7.803 -0.5934 -0.1188  0.1992
  154MOL0     C21158   5.424   6.254   7.761 -0.1102 -0.9484  0.3381
  154MOL0    Cl21159   5.473   6.340   7.614  0.0792  0.0810 -0.1608
  154MOL0     C21160   4.642   6.486   7.114 -0.6075  0.2202  0.3831
  154MOL0     C21161   4.570   6.586   7.047 -0.1149 -0.9354  0.0459
  154MOL0     O21162   4.347   6.819   7.196 -0.5981  0.1773  0.8258
  154MOL0     C21163   4.248   6.934   6.873 -0.1446  0.4170  0.2792
  154MOL0     C21164   4.179   7.032   6.808  0.5858 -0.3931  0.4267
  154MOL0     N21165   3.357   7.000   6.798  0.1884 -0.5353 -0.1933
  154MOL0     N21166   3.243   6.944   6.763 -0.3949  0.8808 -1.0069
  154MOL0     C21167   1.854   7.218   6.757 -0.0588  0.5498 -0.7826
  154MOL0     C21168   1.718   7.221   6.799  0.4613 -0.4053 -0.6811
  154MOL0     C21169   1.308   7.084   6.917 -0.5610 -0.6925  0.0437
  154MOL0     C21170   1.296   7.047   7.056 -0.2487 -0.3359  0.2970
  154MOL0     C21171   1.175   7.049   7.118  0.1001 -0.0388  0.1170
  154MOL0     C21172   1.057   7.090   7.052  0.5702  0.1684 -0.4419
  154MOL0     O21173   0.931   7.100   7.112 -0.2173 -0.3964 -0.1467
  154MOL0     C21174   0.869   6.977   7.148  0.1245  1.2048  0.0584
  154MOL0     C21175   0.720   6.997   7.149 -0.1788 -0.4729 -0.4405
  154MOL0     C21176   0.648   6.873   7.194  0.8417  0.3092  0.8574
  154MOL0     C21177   0.502   6.870   7.150 -0.7715  0.4155 -0.8381
  154MOL0     C21178   0.419   6.933   7.255  0.2007  0.1341  1.3612
  154MOL0     C21179   0.355   6.975   7.352 -1.0439 -0.5353  0.2376
  154MOL0     C21180   1.069   7.116   6.916 -0.2375  0.1755  0.9118
  154MOL0     C21181   1.188   7.120   6.847 -0.3380 -0.7859 -0.1848
  154MOL0     C21182   1.184   7.157   6.700  0.3937  0.3221 -0.1928
  154MOL0     H21183   1.750   7.036   7.084 -0.3064  2.8913  1.7851
  154MOL0     H21184   2.003   7.079   7.013  1.8210  3.0860 -1.9805
  154MOL0     H21185   2.198   7.035   6.905 -0.2599  0.2207  2.0023
  154MOL0     H21186   2.217   7.214   6.936  0.4635  0.7018 -2.0608
  154MOL0     H21187   2.310   7.058   6.700  1.4299  0.8789 -1.1695
  154MOL0     H21188   2.298   7.232   6.701  2.4349  0.5202  0.0878
  154MOL0     H21189   2.472   7.250   6.866  2.7339 -0.9828 -0.4303
  154MOL0     H21190   2.455   7.088   6.915 -0.0527  4.9765  3.4582
  154MOL0     H21191   2.551   7.007   6.681 -1.8456 -0.2488 -2.7087
  154MOL0     H21192   2.535   7.174   6.624 -1.6939  0.9955  0.7048
  154MOL0     H21193   2.708   7.090   6.860 -0.8310 -0.5004 -1.0873
  154MOL0     H21194   2.714   7.249   6.781  0.5093  0.7265 -1.5210
  154MOL0     H21195   2.778   6.986   6.643  0.6899  0.5315 -3.6243
  154MOL0     H21196   2.784   7.156   6.577 -0.3832  0.3358  0.7978
  154MOL0     H21197   2.947   7.041   6.809 -1.1942 -1.7260 -2.2985
  154MOL0     H21198   2.968   7.205   6.747  0.6807 -0.6710 -0.7793
  154MOL0     H21199   3.004   6.934   6.608  1.6304 -0.5673  2.7175
  154MOL0     H21200   3.051   7.087   6.525  1.4659 -0.9213 -0.3205
  154MOL0     H21201   3.239   7.237   6.611  0.5009  0.6462  0.6121
  154MOL0     H21202   3.494   7.266   6.826  2.2107 -0.3718 -0.0410
  154MOL0     H21203   3.491   7.266   6.644 -1.1216 -1.5072 -1.2500
  154MOL0     H21204   3.617   7.044   6.813 -0.5152  0.5077  0.5898
  154MOL0     H21205   3.623   7.060   6.636 -1.6894 -0.6586  0.8337
  154MOL0     H21206   3.750   7.270   6.641 -0.2569  2.2918  1.0410
  154MOL0     H21207   3.744   7.272   6.815  0.7901  0.5137 -1.8219
  154MOL0     H21208   3.853   7.032   6.794  0.2469 -0.0037  1.1869
  154MOL0     H21209   3.896   7.095   6.633  0.4892  2.3519  0.5029
  154MOL0     H21210   4.001   7.155   7.052  0.4520  0.8031 -0.1035
  154MOL0     H21211   4.235   7.098   7.253  1.1768 -1.4868 -0.0817
  154MOL0     H21212   4.156   6.946   7.285  1.9794 -0.2185 -0.1974
  154MOL0     H21213   4.057   7.093   7.254  0.4417 -0.9277  3.4276
  154MOL0     H21214   4.247   6.501   7.122  0.4468  2.8575 -0.6827
  154MOL0     H21215   4.370   6.321   7.242  0.8405 -1.4662 -2.0802
  154MOL0     H21216   4.824   6.294   7.228  2.9680  1.3074  1.6889
  154MOL0     H21217   4.782   6.420   7.342 -1.5425  0.7580 -1.7378
  154MOL0     H21218   4.726   6.264   7.519 -1.0517  3.4624 -2.8452
  154MOL0     H21219   4.784   6.126   7.418 -1.7349  0.3935 -0.6714
  154MOL0     H21220   4.964   6.339   7.520 -0.6141  0.4006 -2.0470
  154MOL0     H21221   5.017   6.206   7.419  0.2405  1.3062 -0.9931
  154MOL0     H21222   5.012   6.057   7.598 -0.9238 -0.7224  0.7799
  154MOL0     H21223   4.857   6.117   7.658 -0.0740 -5.2486 -3.4142
  154MOL0     H21224   5.005   6.302   7.777 -0.6185 -0.9212  0.8962
  154MOL0     H21225   5.048   6.133   7.818 -0.0343 -3.3493 -2.9365
  154MOL0     H21226   5.186   6.313   7.615  5.3092  0.5456 -1.1635
  154MOL0     H21227   5.223   6.149   7.633  3.6901  0.8888  0.7342
  154MOL0     H21228   5.259   6.227   7.897 -1.5282 -0.2894 -0.0706
  154MOL0     H21229   5.267   6.388   7.819 -0.6006  0.9192 -4.9871
  154MOL0     H21230   5.446   6.148   7.742  0.8246 -0.5510 -0.9975
  154MOL0     H21231   5.484   6.285   7.847  1.3142  1.3335 -1.3794
  154MOL0     H21232   4.749   6.479   7.105 -0.6684 -0.2400  0.0313
  154MOL0     H21233   4.629   6.653   6.987 -1.2023 -0.3848 -0.4233
  154MOL0     H21234   4.315   6.867   6.819  1.6237  0.2584  2.4765
  154MOL0     H21235   4.179   7.031   6.700 -1.7145  4.4967  0.1186
  154MOL0     H21236   1.886   7.270   6.667 -1.0026 -0.6561 -1.8492
  154MOL0     H21237   1.647   7.285   6.748 -0.9016  0.2639  1.8681
  154MOL0     H21238   1.388   7.015   7.104 -0.3832 -0.9509  0.1529
  154MOL0     H21239   1.171   7.035   7.225  0.2691  2.9078  0.5994
  154MOL0     H21240   0.898   6.899   7.077 -0.3449  1.7853 -0.7899
  154MOL0     H21241   0.898   6.941   7.247 -0.5667 -1.8939 -0.7483
  154MOL0     H21242   0.706   7.024   7.044 -0.0561  0.1386 -0.3038
  154MOL0     H21243   0.688   7.081   7.211  0.4697 -0.6775  0.1848
  154MOL0     H21244   0.696   6.791   7.139  1.0550  1.4579 -0.7611
  154MOL0     H21245   0.658   6.854   7.301 -1.2512 -0.5199  0.9501
  154MOL0     H21246   0.481   6.762   7.144  0.7879  0.1165 -1.6049
  154MOL0     H21247   0.467   6.912   7.055 -1.1988 -1.1275 -1.4113
  154MOL0     H21248   0.306   7.016   7.438  1.3589 -1.0598  1.9363
  154MOL0     H21249   0.976   7.138   6.864 -0.5822  1.6441  2.0710
  154MOL0     H21250   1.201   7.064   6.644 -0.0299 -0.4669  0.9645
  154MOL0     H21251   1.085   7.197   6.676  1.0741  0.6864 -2.7576
  154MOL0     H21252   1.257   7.233   6.672 -0.8559  2.1978  1.4307
  155MOL0     O21253   9.002   5.099   5.432  0.5902  0.4764  0.5213
  155MOL0     C21254   8.930   5.151   5.340 -0.1214  0.3264  0.0412
  155MOL0     O21255   8.979   5.217   5.235 -0.5334 -0.7268  0.6141
  155MOL0     C21256   9.106   5.272   5.228 -0.0537 -1.3115  0.0047
  155MOL0     C21257   9.217   5.188   5.257  0.4792 -0.3641 -0.2640
  155MOL0     C21258   9.349   5.236   5.254  0.0294 -0.3702 -0.7434
  155MOL0     C21259   9.373   5.370   5.224 -0.1908  0.6103  0.3687
  155MOL0     O21260   9.506   5.419   5.233 -0.2501  0.2137  0.2895
  155MOL0     C21261   9.582   5.382   5.347  0.3723  0.1743 -0.3932
  155MOL0     C21262   9.700   5.475   5.362  0.0250  0.2075  0.4708
  155MOL0     C21263   9.655   5.628   5.386 -0.6406 -0.1521 -0.5687
  155MOL0     C21264   9.761   5.721   5.320 -0.7197  1.2295  0.3957
  155MOL0     C21265   9.736   5.872   5.337 -0.6292  0.0795  0.1703
  155MOL0     C21266   9.829   5.958   5.260  0.4858 -0.3731  0.2799
  155MOL0     C21267   9.981   5.958   5.286 -0.2298  0.2438 -0.1281
  155MOL0     C21268  10.012   6.000   5.431 -0.3954  0.2994 -0.6124
  155MOL0     N21269  10.159   6.008   5.444  0.0315 -0.3394  0.0938
  155MOL0     C21270  10.237   5.899   5.471  0.0548 -0.7291 -0.2226
  155MOL0     C21271  10.361   5.937   5.452 -0.4372  1.1133 -0.1311
  155MOL0     C21272  10.479   5.853   5.489  0.2121 -0.2921  0.0339
  155MOL0     C21273  10.544   5.894   5.626  0.2488  0.2416  0.3242
  155MOL0     C21274  10.460   5.847   5.746  0.7824  0.6616  0.0001
  155MOL0     C21275  10.536   5.873   5.876  0.2208  0.8285 -0.6148
  155MOL0     O21276  10.660   5.798   5.879  0.6186 -0.6446 -0.9311
  155MOL0     C21277  10.757   5.821   5.970 -0.1407 -0.2044 -0.1360
  155MOL0     C21278  10.866   5.741   5.963  0.3229 -0.1151  0.3139
  155MOL0     C21279  10.972   5.745   6.062 -0.4476 -0.0820  0.1783
  155MOL0     C21280  11.083   5.645   6.048 -0.7593 -0.2606  1.1108
  155MOL0     C21281  10.966   5.837   6.161  1.1333 -0.6887 -1.1588
  155MOL0     C21282  11.045   5.841   6.285 -0.1750  0.6464  0.0835
  155MOL0     O21283  11.088   5.964   6.331  0.7028  0.0928 -0.0819
  155MOL0     C21284  11.180   5.983   6.431 -1.0030 -0.6354  0.6473
  155MOL0     C21285  11.295   5.910   6.453 -0.0310 -0.3058  0.5093
  155MOL0     C21286  11.367   5.941   6.576 -0.5408  0.3451  1.0093
  155MOL0     C21287  11.349   6.066   6.640 -0.0792  0.8941  0.2907
  155MOL0     O21288  11.442   6.090   6.743 -0.5181  0.0439  0.8083
  155MOL0     C21289  11.454   6.232   6.785  0.0487 -0.7291  0.2327
  155MOL0     C21290  11.564   6.242   6.881 -0.7297  0.2829  0.2003
  155MOL0     C21291  11.549   6.371   6.966  0.9022  0.6267 -0.8383
  155MOL0     C21292  11.534   6.499   6.882 -0.5788  0.2606 -0.5462
  155MOL0     C21293  11.563   6.626   6.960  0.3431 -0.0465  0.3970
  155MOL0     C21294  11.532   6.749   6.877 -0.0996  0.6569  0.0033
  155MOL0     C21295  11.599   6.879   6.928 -0.7920  0.2766 -0.3780
  155MOL0     C21296  11.600   6.995   6.832  0.4775  0.8657  0.1556
  155MOL0    Cl21297  11.693   7.131   6.898  0.2394 -0.2609  0.1685
  155MOL0     C21298  11.243   6.148   6.605 -0.7522 -0.0635  0.3781
  155MOL0     C21299  11.159   6.104   6.501 -0.1783 -0.1143  0.0325
  155MOL0     O21300  11.059   5.730   6.348 -0.8230  0.1628 -0.1203
  155MOL0     C21301  10.863   5.933   6.152  0.0982  0.0312 -0.5595
  155MOL0     C21302  10.755   5.934   6.057 -0.3323 -0.0661 -0.0017
  155MOL0     N21303  10.358   6.065   5.413 -0.3041  0.1253 -0.0992
  155MOL0     N21304  10.237   6.113   5.412  0.2084 -0.1661 -0.2200
  155MOL0     C21305   9.265   5.455   5.185 -0.2938 -0.8215  0.0799
  155MOL0     C21306   9.128   5.404   5.180  0.1855  0.4913 -0.4882
  155MOL0     C21307   8.786   5.149   5.347 -0.5853 -0.1381 -0.6227
  155MOL0     C21308   8.721   5.252   5.283  0.1905 -0.4803 -0.9019
  155MOL0     C21309   8.583   5.253   5.275  0.1009 -0.1256 -0.1838
  155MOL0     C21310   8.507   5.161   5.344  0.5170 -0.0298 -0.9934
  155MOL0     O21311   8.367   5.160   5.345 -0.3265  0.2394  0.0818
  155MOL0     C21312   8.303   5.055   5.269  0.0061  0.5125  0.3995
  155MOL0     C21313   8.156   5.071   5.269  0.3171  0.0976  0.1576
  155MOL0     C21314   8.087   5.004   5.393  0.6347  0.3488  0.3001
  155MOL0     C21315   7.937   5.034   5.403  0.0070 -0.2251 -0.3466
  155MOL0     C21316   7.869   4.963   5.506 -1.2490  0.1884  0.1076
  155MOL0     C21317   7.811   4.912   5.595 -0.1853 -0.1537 -0.0901
  155MOL0     C21318   8.571   5.057   5.409  0.3662  0.5584  0.2997
  155MOL0     C21319   8.710   5.049   5.410 -0.4988  0.0405  0.9541
  155MOL0     C21320   8.772   4.921   5.481  0.0105 -0.2169  0.6391
  155MOL0     H21321   9.201   5.089   5.300  0.3699  0.7276  2.4090
  155MOL0     H21322   9.418   5.162   5.293 -1.1338 -1.9038 -1.4402
  155MOL0     H21323   9.611   5.277   5.337  0.7012  0.1459  0.7491
  155MOL0     H21324   9.517   5.389   5.435  0.2566  1.7908 -0.5689
  155MOL0     H21325   9.742   5.441   5.458 -1.0106 -0.9547  0.5367
  155MOL0     H21326   9.783   5.454   5.293 -0.0016  0.1566  0.4541
  155MOL0     H21327   9.551   5.643   5.356 -1.1821  0.4880  1.4708
  155MOL0     H21328   9.656   5.649   5.494 -2.5625 -1.9066 -0.1390
  155MOL0     H21329   9.858   5.690   5.359 -0.1016  0.0720 -1.8596
  155MOL0     H21330   9.758   5.690   5.215  1.9018  1.0290  0.3186
  155MOL0     H21331   9.739   5.902   5.442  1.9263  1.6695 -0.2811
  155MOL0     H21332   9.635   5.885   5.298  0.0778  1.2901 -1.3512
  155MOL0     H21333   9.793   5.957   5.157 -4.2091  0.4188  1.6414
  155MOL0     H21334   9.791   6.057   5.288  1.0445 -0.5649  1.8594
  155MOL0     H21335  10.031   6.028   5.218  1.2963 -1.1534 -0.5060
  155MOL0     H21336  10.032   5.862   5.280 -1.0943 -0.3478  1.4611
  155MOL0     H21337   9.963   6.094   5.459 -2.1097 -0.4694 -0.9374
  155MOL0     H21338   9.980   5.918   5.496 -2.3465  0.6682 -1.0405
  155MOL0     H21339  10.206   5.799   5.500 -1.0458 -0.6752 -1.1418
  155MOL0     H21340  10.553   5.886   5.415  0.8270  0.9871  1.1672
  155MOL0     H21341  10.465   5.745   5.486  2.7016 -0.6818 -2.9519
  155MOL0     H21342  10.642   5.847   5.639  0.4737  0.4610 -0.5093
  155MOL0     H21343  10.548   6.003   5.629 -0.6588  0.2697  1.2225
  155MOL0     H21344  10.365   5.899   5.757 -0.7000 -1.5119 -1.6112
  155MOL0     H21345  10.450   5.738   5.757  2.9262  0.4260  0.0379
  155MOL0     H21346  10.556   5.979   5.896 -1.5958  1.0546  0.2289
  155MOL0     H21347  10.474   5.842   5.961  1.2475  0.4271  0.0112
  155MOL0     H21348  10.864   5.664   5.887 -0.9570 -1.5816  1.7541
  155MOL0     H21349  11.087   5.569   6.126 -1.0920  0.3535  1.7310
  155MOL0     H21350  11.174   5.704   6.040 -0.9701  0.0880  1.2506
  155MOL0     H21351  11.073   5.591   5.953 -2.9922 -1.8742  2.1722
  155MOL0     H21352  11.319   5.826   6.388  0.1605 -0.1877  0.4289
  155MOL0     H21353  11.444   5.869   6.606  0.0271  0.8220  0.7274
  155MOL0     H21354  11.472   6.301   6.703  1.2486 -1.0332  0.2102
  155MOL0     H21355  11.362   6.254   6.839  0.7699 -0.2528  1.2982
  155MOL0     H21356  11.565   6.158   6.951 -2.1509 -0.2402 -0.3727
  155MOL0     H21357  11.657   6.248   6.823 -1.2732  1.4250 -0.6005
  155MOL0     H21358  11.633   6.384   7.035  0.5517 -2.1825  0.2707
  155MOL0     H21359  11.462   6.364   7.032 -0.0588  7.2308 -0.7816
  155MOL0     H21360  11.432   6.503   6.844 -0.4235 -0.4677 -1.0574
  155MOL0     H21361  11.593   6.501   6.791 -2.5358  0.7301 -1.8718
  155MOL0     H21362  11.511   6.614   7.056  1.5154  0.2892  1.0961
  155MOL0     H21363  11.669   6.635   6.986  1.9019  0.1865 -4.8288
  155MOL0     H21364  11.424   6.763   6.869 -0.3365 -0.5476  0.8764
  155MOL0     H21365  11.565   6.721   6.776 -2.0486 -0.8362 -0.2900
  155MOL0     H21366  11.708   6.864   6.925 -1.1028 -2.4149 -2.6303
  155MOL0     H21367  11.565   6.913   7.026 -2.2749 -1.3959 -0.2568
  155MOL0     H21368  11.504   7.023   6.790  0.2012  0.5515  0.5671
  155MOL0     H21369  11.659   6.967   6.744  2.4699  0.1743  1.6100
  155MOL0     H21370  11.218   6.245   6.646 -1.0256  0.0136  0.0360
  155MOL0     H21371  11.079   6.174   6.478  0.8166  1.2467  0.6416
  155MOL0     H21372  10.856   6.008   6.230  0.4107 -1.6098  1.1041
  155MOL0     H21373  10.680   6.013   6.051 -0.4070 -0.2194 -1.3448
  155MOL0     H21374   9.293   5.556   5.154  0.3805 -1.7081 -2.4506
  155MOL0     H21375   9.043   5.463   5.148  0.2945  1.3272  0.6965
  155MOL0     H21376   8.776   5.342   5.255 -0.7661  0.2896 -0.3761
  155MOL0     H21377   8.539   5.340   5.228  0.9637  0.2681 -0.2719
  155MOL0     H21378   8.345   5.038   5.170  0.0456 -1.8841  0.7702
  155MOL0     H21379   8.315   4.958   5.318 -0.7248 -0.4019 -1.1418
  155MOL0     H21380   8.119   5.009   5.186  2.9822 -2.5518  0.7541
  155MOL0     H21381   8.124   5.175   5.262  0.9994  0.2533 -0.9641
  155MOL0     H21382   8.108   4.898   5.377  2.6598  0.9247 -1.3605
  155MOL0     H21383   8.134   5.036   5.487  1.4564 -1.0347  0.3915
  155MOL0     H21384   7.892   5.013   5.305 -0.4605  1.2377 -0.4810
  155MOL0     H21385   7.918   5.142   5.411  1.1756  0.2093 -2.6170
  155MOL0     H21386   7.731   4.875   5.655 -2.7072  0.5373 -2.7726
  155MOL0     H21387   8.509   4.981   5.455 -0.8603  1.4571  0.1852
  155MOL0     H21388   8.847   4.871   5.419 -1.5615  0.1102 -1.6197
  155MOL0     H21389   8.819   4.947   5.577  0.7842  1.6709 -0.2067
  155MOL0     H21390   8.700   4.841   5.503 -0.7296  0.8335  2.2304
  156MOL0     O21391   4.415   9.870   8.709 -0.1820  0.5851 -0.2908
  156MOL0     C21392   4.413   9.759   8.656 -0.1871  0.5405 -0.4896
  156MOL0     O21393   4.329   9.718   8.559  0.2169  0.7372  0.3305
  156MOL0     C21394   4.218   9.799   8.532 -0.3460  0.1612  0.9627
  156MOL0     C21395   4.225   9.936   8.523 -0.4149 -0.9118 -0.2257
  156MOL0     C21396   4.103  10.010   8.491  0.5961  0.9854 -0.9609
  156MOL0     C21397   3.984   9.945   8.466  0.0474  0.6236 -0.4892
  156MOL0     O21398   3.878  10.024   8.420 -0.4005 -0.5203 -0.0469
  156MOL0     C21399   3.756   9.978   8.375  0.9827  0.9086  0.2092
  156MOL0     C21400   3.685  10.097   8.324  0.5289  0.0923 -0.0585
  156MOL0     C21401   3.610  10.171   8.433  0.6950  0.4807  0.7112
  156MOL0     C21402   3.687  10.266   8.522 -0.5635 -0.3961 -0.3240
  156MOL0     C21403   3.614  10.326   8.641 -1.5603  0.0102  0.0649
  156MOL0     C21404   3.722  10.381   8.737 -0.0052 -0.7454  0.5571
  156MOL0     C21405   3.807  10.503   8.679  1.0173  0.2654  0.2198
  156MOL0     C21406   3.900  10.574   8.781  0.1294 -0.0527 -0.2117
  156MOL0     N21407   3.987  10.470   8.841 -0.4048  0.0349 -0.0858
  156MOL0     C21408   4.073  10.386   8.777  0.2298 -0.3200 -0.2622
  156MOL0     C21409   4.103  10.291   8.865  0.8456  0.2143 -0.7030
  156MOL0     C21410   4.159  10.146   8.841 -0.3345  0.0117 -0.3144
  156MOL0     C21411   4.284  10.125   8.930 -0.2140  0.4696  0.2135
  156MOL0     C21412   4.403  10.225   8.891 -0.1309  0.2663 -0.4515
  156MOL0     C21413   4.530  10.208   8.974 -0.9667  0.6612 -0.5557
  156MOL0     O21414   4.633  10.287   8.917 -0.1964 -0.8137  0.4299
  156MOL0     C21415   4.761  10.296   8.967  0.5369 -0.7619 -0.4728
  156MOL0     C21416   4.847  10.380   8.899 -0.6543 -0.2389 -0.4942
  156MOL0     C21417   4.985  10.396   8.933  0.4510  0.6527 -0.2393
  156MOL0     C21418   5.076  10.459   8.842 -0.9022  0.1211  0.7416
  156MOL0     C21419   5.030  10.334   9.053 -0.1957  0.5620 -0.1108
  156MOL0     C21420   5.170  10.360   9.109 -0.6477  0.8473 -0.5888
  156MOL0     O21421   5.233  10.262   9.184  0.0148  0.6850 -1.0470
  156MOL0     C21422   5.359  10.287   9.219 -0.3481 -0.8252  0.1252
  156MOL0     C21423   5.392  10.345   9.345  0.4574 -0.1498 -0.1316
  156MOL0     C21424   5.527  10.369   9.378  0.0548  0.0844 -0.7759
  156MOL0     C21425   5.632  10.347   9.291 -0.3613 -0.1390  0.5331
  156MOL0     O21426   5.768  10.371   9.321  0.3917  0.5605  0.3119
  156MOL0     C21427   5.807  10.397   9.455 -0.1491 -0.5373  0.2917
  156MOL0     C21428   5.959  10.370   9.480  0.4187  0.2696  0.7521
  156MOL0     C21429   6.056  10.470   9.403  0.2384 -0.3983 -0.6444
  156MOL0     C21430   6.185  10.395   9.361 -0.4677 -0.5195  0.3605
  156MOL0     C21431   6.275  10.315   9.455 -0.6644 -0.0677 -0.9319
  156MOL0     C21432   6.382  10.244   9.370  0.4010 -0.0649 -0.3718
  156MOL0     C21433   6.478  10.153   9.454  0.0172  0.4346 -0.8728
  156MOL0     C21434   6.533  10.037   9.378 -0.7027  0.2644 -0.5308
  156MOL0    Cl21435   6.646  10.108   9.250  0.3998 -0.0549 -0.3231
  156MOL0     C21436   5.597  10.288   9.165 -0.0510  0.1227  0.3059
  156MOL0     C21437   5.462  10.260   9.130 -0.7799  0.0738 -0.2141
  156MOL0     O21438   5.225  10.465   9.079 -0.1509  0.2854  0.8874
  156MOL0     C21439   4.939  10.245   9.115 -0.6017 -0.4293 -0.2581
  156MOL0     C21440   4.810  10.230   9.074  0.3263  0.4409 -0.1074
  156MOL0     N21441   4.050  10.333   8.993  0.3325  0.0533  1.0340
  156MOL0     N21442   3.978  10.439   8.978  0.0204  0.6666 -0.3415
  156MOL0     C21443   3.985   9.807   8.467  0.0536  0.6829 -0.4238
  156MOL0     C21444   4.100   9.733   8.497  0.4750 -0.1377 -0.0450
  156MOL0     C21445   4.513   9.657   8.705 -0.3066  0.2796 -0.2086
  156MOL0     C21446   4.629   9.718   8.766  0.1497  1.2713 -0.2232
  156MOL0     C21447   4.732   9.630   8.803 -0.7324 -0.1199 -0.4458
  156MOL0     C21448   4.732   9.492   8.785 -0.3023 -0.9803 -0.1296
  156MOL0     O21449   4.841   9.418   8.817  0.1673 -0.1458  0.3749
  156MOL0     C21450   4.856   9.280   8.774 -0.7623 -0.3946 -1.3386
  156MOL0     C21451   5.002   9.241   8.794  0.2694  0.3355 -0.9032
  156MOL0     C21452   5.039   9.106   8.748  0.0862 -0.2431  0.6223
  156MOL0     C21453   5.183   9.090   8.747 -0.7980  0.1784 -0.6218
  156MOL0     C21454   5.234   9.064   8.878 -0.6638 -0.8792  0.4611
  156MOL0     C21455   5.265   9.034   8.989  0.1497 -0.1370 -0.3369
  156MOL0     C21456   4.613   9.439   8.731 -0.3725 -0.3411 -0.5575
  156MOL0     C21457   4.505   9.514   8.694  0.4494 -0.3851  0.6912
  156MOL0     C21458   4.394   9.443   8.631 -0.4409  0.1515 -1.1405
  156MOL0     H21459   4.313   9.995   8.548 -0.1536 -1.9562  1.5588
  156MOL0     H21460   4.104  10.118   8.500 -2.2847  0.9331  2.4175
  156MOL0     H21461   3.691   9.937   8.454 -0.9816  2.3453 -0.5653
  156MOL0     H21462   3.751   9.908   8.292  0.1837 -0.1348  1.1117
  156MOL0     H21463   3.743  10.166   8.262  2.5083 -0.3379  1.2233
  156MOL0     H21464   3.600  10.055   8.269  0.9676 -1.6765  0.5410
  156MOL0     H21465   3.525  10.219   8.383 -1.5173 -3.1809  0.5450
  156MOL0     H21466   3.566  10.096   8.500  5.4715 -2.7917  0.7103
  156MOL0     H21467   3.773  10.210   8.562 -0.9670 -0.9274 -0.1786
  156MOL0     H21468   3.728  10.350   8.466 -0.9291 -0.8894 -1.3567
  156MOL0     H21469   3.563  10.242   8.688 -0.8053  0.7625  2.3333
  156MOL0     H21470   3.547  10.405   8.605 -2.4684 -0.0625  1.5077
  156MOL0     H21471   3.677  10.419   8.829  1.3493  2.3419  0.0602
  156MOL0     H21472   3.794  10.303   8.765  0.3740  0.3562  2.9540
  156MOL0     H21473   3.737  10.568   8.626 -2.2639 -2.4684  0.8711
  156MOL0     H21474   3.869  10.472   8.595  1.5937 -0.1036  0.7691
  156MOL0     H21475   3.958  10.649   8.727 -2.8847  1.6076 -1.3946
  156MOL0     H21476   3.849  10.632   8.858  2.2434  1.2338  0.2788
  156MOL0     H21477   4.069  10.377   8.669 -2.9409 -3.0971 -0.0847
  156MOL0     H21478   4.181  10.139   8.734  1.6664  0.9209 -0.0152
  156MOL0     H21479   4.087  10.068   8.868 -0.6566  0.9793  1.8813
  156MOL0     H21480   4.265  10.145   9.036  2.3252  3.3870  0.2738
  156MOL0     H21481   4.309  10.020   8.911 -2.3660 -0.2814  1.2077
  156MOL0     H21482   4.421  10.217   8.783 -1.9282 -0.1632 -0.7514
  156MOL0     H21483   4.368  10.327   8.911 -1.2148 -0.1547 -0.1399
  156MOL0     H21484   4.505  10.219   9.080  3.6709 -2.4829  1.1922
  156MOL0     H21485   4.554  10.103   8.953  3.6901  0.6461  3.1971
  156MOL0     H21486   4.807  10.425   8.808 -2.7326  0.8051  0.8790
  156MOL0     H21487   5.115  10.552   8.884  2.5107 -0.3187 -1.0987
  156MOL0     H21488   5.029  10.473   8.744  2.6906 -0.0779 -1.1839
  156MOL0     H21489   5.169  10.403   8.826 -0.8279  0.4906 -0.1831
  156MOL0     H21490   5.309  10.375   9.408  1.8658 -0.9285  2.2380
  156MOL0     H21491   5.538  10.408   9.478  1.2168  0.0550 -0.8739
  156MOL0     H21492   5.771  10.492   9.496 -0.9154 -0.1205 -1.2601
  156MOL0     H21493   5.749  10.324   9.512 -2.2763  0.2085 -0.7778
  156MOL0     H21494   5.963  10.388   9.588 -0.7291  1.9575  0.5517
  156MOL0     H21495   5.984  10.264   9.473 -1.3312 -0.0306 -2.6849
  156MOL0     H21496   6.084  10.551   9.471 -1.0310 -2.2787  2.3126
  156MOL0     H21497   6.002  10.508   9.316  0.5922 -0.6177 -0.9640
  156MOL0     H21498   6.248  10.471   9.314 -1.6911  0.1517 -0.2127
  156MOL0     H21499   6.158  10.321   9.285  2.1726 -3.7607  2.2595
  156MOL0     H21500   6.323  10.394   9.513 -1.7358  0.0710 -0.2105
  156MOL0     H21501   6.218  10.245   9.518 -0.1791 -0.1667 -0.5978
  156MOL0     H21502   6.441  10.316   9.313  1.3226  0.4484  1.1562
  156MOL0     H21503   6.325  10.190   9.294 -1.6483  1.1785  0.2295
  156MOL0     H21504   6.435  10.110   9.545  1.7735  0.3946 -0.0101
  156MOL0     H21505   6.555  10.218   9.498 -1.6385  1.0808  1.2579
  156MOL0     H21506   6.453   9.982   9.327  0.1457  2.4400 -4.6761
  156MOL0     H21507   6.585   9.975   9.450 -0.8844  1.2363  0.4619
  156MOL0     H21508   5.673  10.262   9.091 -0.4496 -1.5380  0.4430
  156MOL0     H21509   5.427  10.226   9.033 -4.7406 -1.6901  1.5991
  156MOL0     H21510   4.960  10.190   9.206 -1.7419 -0.1318  0.2099
  156MOL0     H21511   4.738  10.157   9.109  1.8863 -1.3021 -0.3636
  156MOL0     H21512   3.890   9.756   8.460  0.4584  0.0708 -2.0354
  156MOL0     H21513   4.089   9.625   8.498  0.8460 -0.1805 -0.2892
  156MOL0     H21514   4.639   9.826   8.767 -0.3135  1.3416 -1.6227
  156MOL0     H21515   4.826   9.670   8.841 -0.7115 -1.6731  1.2412
  156MOL0     H21516   4.812   9.203   8.838  1.3453 -0.6138 -0.0296
  156MOL0     H21517   4.820   9.276   8.671 -3.5887 -0.6570 -0.4247
  156MOL0     H21518   5.016   9.246   8.903  2.8990 -0.4327 -1.1311
  156MOL0     H21519   5.061   9.316   8.740  0.1408 -1.5244 -3.8384
  156MOL0     H21520   4.990   9.029   8.809  0.0580 -0.1438  0.7263
  156MOL0     H21521   5.019   9.100   8.641 -2.4220  3.0628  0.7664
  156MOL0     H21522   5.226   9.179   8.700  0.0081 -0.1821 -0.5768
  156MOL0     H21523   5.199   8.999   8.689  0.1588  0.8997 -1.5081
  156MOL0     H21524   5.296   9.009   9.088  2.0575  1.2509 -0.5262
  156MOL0     H21525   4.598   9.332   8.722  0.5798 -0.9041  3.0511
  156MOL0     H21526   4.361   9.469   8.530 -0.1025  0.5233 -1.1572
  156MOL0     H21527   4.401   9.335   8.647  0.0446  0.4959  1.3844
  156MOL0     H21528   4.309   9.471   8.693  1.2725 -1.7722  2.3840
  157MOL0     O21529   5.849   4.093   6.232 -0.5855  0.1496 -0.1297
  157MOL0     C21530   5.774   4.143   6.149  0.3356 -0.5696 -0.1172
  157MOL0     O21531   5.813   4.257   6.074 -0.0621 -0.6083  0.3705
  157MOL0     C21532   5.950   4.284   6.054 -0.0257  0.5734 -0.8177
  157MOL0     C21533   6.028   4.369   6.134  0.5933 -0.1283  0.0084
  157MOL0     C21534   6.159   4.391   6.105 -0.1768 -0.2537 -0.7517
  157MOL0     C21535   6.215   4.321   5.991  0.8941 -0.0468 -0.3747
  157MOL0     O21536   6.351   4.331   5.955 -0.2194 -0.5414 -0.3622
  157MOL0     C21537   6.443   4.306   6.061  0.4183  0.2724 -0.0591
  157MOL0     C21538   6.579   4.373   6.058 -0.0673  0.6804 -0.7098
  157MOL0     C21539   6.657   4.349   5.926  0.7993 -0.2577 -0.7073
  157MOL0     C21540   6.785   4.425   5.924  0.3664  0.2526 -0.2674
  157MOL0     C21541   6.848   4.420   5.790 -0.2417 -0.0115 -0.2620
  157MOL0     C21542   6.958   4.525   5.768 -0.0180  0.3788 -0.1231
  157MOL0     C21543   7.016   4.525   5.628 -0.2478 -0.5740 -0.2109
  157MOL0     C21544   7.122   4.419   5.608 -0.2604  0.9487 -0.5216
  157MOL0     N21545   7.190   4.437   5.479 -0.3799  0.1387  0.0252
  157MOL0     C21546   7.258   4.548   5.433  0.4224  1.0831 -0.2665
  157MOL0     C21547   7.284   4.516   5.304  0.7932  0.2554 -0.6330
  157MOL0     C21548   7.354   4.591   5.193 -0.3220  0.0872  0.5126
  157MOL0     C21549   7.507   4.594   5.200 -0.5907  0.5293 -0.3145
  157MOL0     C21550   7.554   4.639   5.337  0.4085 -0.3683  0.4035
  157MOL0     C21551   7.707   4.658   5.328 -0.0586 -0.8753 -0.2983
  157MOL0     O21552   7.769   4.562   5.242 -0.4614 -0.4482  0.4214
  157MOL0     C21553   7.900   4.589   5.200  0.1266  0.4588  0.2069
  157MOL0     C21554   8.003   4.603   5.290 -0.1625  0.0569  0.1090
  157MOL0     C21555   8.135   4.630   5.249 -0.7433 -0.1046  0.4430
  157MOL0     C21556   8.232   4.631   5.369  0.4152  0.0784  1.3608
  157MOL0     C21557   8.165   4.648   5.109 -0.3569 -0.8308 -0.3503
  157MOL0     C21558   8.303   4.675   5.068  0.7465  0.2461 -0.0109
  157MOL0     O21559   8.339   4.808   5.078 -0.2684 -0.3523  0.2672
  157MOL0     C21560   8.462   4.851   5.029  0.3295 -1.3079  1.3797
  157MOL0     C21561   8.486   4.844   4.889  0.5044 -0.0252 -0.5864
  157MOL0     C21562   8.611   4.896   4.848  0.2922  0.9378  0.2817
  157MOL0     C21563   8.704   4.951   4.941  0.1016  0.0237  0.2591
  157MOL0     O21564   8.817   5.003   4.891  0.3773 -0.2179  0.6388
  157MOL0     C21565   8.907   5.080   4.968  0.3031  0.2069 -0.5786
  157MOL0     C21566   9.019   5.132   4.869  0.1662 -1.4701 -0.5558
  157MOL0     C21567   8.966   5.238   4.779 -0.8366 -1.0498  0.2849
  157MOL0     C21568   9.074   5.249   4.667  0.4287 -0.1479  0.1297
  157MOL0     C21569   9.038   5.361   4.581  0.5048  0.2559  1.0721
  157MOL0     C21570   9.157   5.390   4.481  0.4646  0.0549  0.6414
  157MOL0     C21571   9.126   5.517   4.397  0.4185  0.3571 -0.1833
  157MOL0     C21572   9.251   5.568   4.324  0.4621 -0.4815  0.1298
  157MOL0    Cl21573   9.388   5.599   4.426 -0.1767  0.3847 -0.1325
  157MOL0     C21574   8.673   4.950   5.074  0.1245 -0.4398 -0.3613
  157MOL0     C21575   8.552   4.901   5.113  0.3675  0.3367 -0.0766
  157MOL0     O21576   8.374   4.585   5.030 -0.1680  0.6315 -0.4253
  157MOL0     C21577   8.061   4.634   5.011 -0.6986  0.6045 -0.4695
  157MOL0     C21578   7.942   4.587   5.058 -0.3417 -1.5597  0.2921
  157MOL0     N21579   7.223   4.397   5.268 -0.1585 -0.0411 -0.1795
  157MOL0     N21580   7.180   4.346   5.376 -0.4040  0.3576 -0.1420
  157MOL0     C21581   6.141   4.237   5.913 -0.2596 -0.1736  0.3632
  157MOL0     C21582   6.006   4.215   5.944  0.3851  0.3449 -0.2293
  157MOL0     C21583   5.644   4.058   6.147  0.0006  0.0027  0.9049
  157MOL0     C21584   5.638   3.931   6.198  0.2104  0.3683 -0.8566
  157MOL0     C21585   5.518   3.862   6.189 -0.4055  1.6825  0.5391
  157MOL0     C21586   5.400   3.907   6.115  0.6086  0.1840  0.1430
  157MOL0     O21587   5.295   3.820   6.098 -0.1753  0.0204 -0.1323
  157MOL0     C21588   5.174   3.862   6.040  0.0302 -0.2407  0.4381
  157MOL0     C21589   5.074   3.751   6.039  1.2838  0.0172 -0.3056
  157MOL0     C21590   4.941   3.776   5.963  0.9854 -0.7372 -0.5108
  157MOL0     C21591   4.946   3.730   5.815  0.5061 -0.2797 -0.2642
  157MOL0     C21592   4.936   3.593   5.785 -0.2873  0.6142 -0.7864
  157MOL0     C21593   4.896   3.476   5.763 -0.4736  0.0169  0.2253
  157MOL0     C21594   5.409   4.038   6.064 -0.2116 -1.1553  0.3837
  157MOL0     C21595   5.530   4.115   6.077  1.3585  0.3239 -0.2807
  157MOL0     C21596   5.525   4.251   6.013  0.2921 -0.1579  0.5948
  157MOL0     H21597   5.975   4.429   6.207  2.7210 -1.0049  2.3870
  157MOL0     H21598   6.225   4.459   6.157  2.4970 -2.0518 -1.5623
  157MOL0     H21599   6.454   4.197   6.074 -1.0070 -0.3956 -3.4796
  157MOL0     H21600   6.402   4.332   6.159  0.4742 -1.6779  0.5220
  157MOL0     H21601   6.571   4.481   6.074  1.3729  0.8467 -0.9788
  157MOL0     H21602   6.637   4.341   6.145  1.0868  3.6855 -0.2472
  157MOL0     H21603   6.673   4.241   5.911  0.4797 -0.1633 -1.8446
  157MOL0     H21604   6.593   4.378   5.843 -0.5359 -2.0882 -0.3892
  157MOL0     H21605   6.767   4.529   5.953 -1.6568  0.2816 -1.4122
  157MOL0     H21606   6.846   4.378   6.001 -1.2524 -2.7800 -0.6975
  157MOL0     H21607   6.773   4.430   5.711 -1.3550  0.5037  0.8444
  157MOL0     H21608   6.891   4.319   5.784 -0.1348 -0.1723  2.2884
  157MOL0     H21609   6.907   4.618   5.792 -1.7115 -0.8736  1.4164
  157MOL0     H21610   7.031   4.508   5.848 -2.3644 -2.8051  1.5678
  157MOL0     H21611   7.059   4.621   5.599 -1.3427 -0.1724 -0.5878
  157MOL0     H21612   6.936   4.512   5.554  0.6275 -1.7153 -0.9814
  157MOL0     H21613   7.196   4.434   5.687 -0.4577  0.9156 -0.3268
  157MOL0     H21614   7.066   4.326   5.623 -1.2883  1.6477  0.1173
  157MOL0     H21615   7.285   4.637   5.490 -0.3046 -0.7300  3.1912
  157MOL0     H21616   7.309   4.690   5.189  2.4160  1.5600  2.9463
  157MOL0     H21617   7.330   4.542   5.098 -2.2032  1.9693 -0.0658
  157MOL0     H21618   7.541   4.493   5.175  0.8668  0.8676  0.2023
  157MOL0     H21619   7.546   4.658   5.120  0.6228  1.1742  0.7390
  157MOL0     H21620   7.507   4.732   5.371  0.3790 -0.8548  1.7638
  157MOL0     H21621   7.540   4.556   5.407  0.4628 -1.4178 -0.7908
  157MOL0     H21622   7.748   4.749   5.284  3.3118  0.2908  4.4334
  157MOL0     H21623   7.748   4.654   5.430 -0.3275 -1.7062 -0.2174
  157MOL0     H21624   7.980   4.597   5.396  4.1096  0.3210  1.2554
  157MOL0     H21625   8.228   4.724   5.428  1.2668 -0.5663  2.4773
  157MOL0     H21626   8.334   4.619   5.333  0.4105  2.0634  0.5398
  157MOL0     H21627   8.215   4.552   5.443 -0.5751 -0.0963  0.9564
  157MOL0     H21628   8.415   4.798   4.821 -1.1646  1.4010  0.1047
  157MOL0     H21629   8.640   4.888   4.744  0.0302 -4.3111  0.3814
  157MOL0     H21630   8.850   5.163   5.010  0.5792 -1.0758  2.5798
  157MOL0     H21631   8.949   5.023   5.051 -2.6697  0.4867  1.2875
  157MOL0     H21632   9.107   5.175   4.918 -1.6899  1.4316  0.4652
  157MOL0     H21633   9.052   5.044   4.813  2.2311 -0.8730 -0.3609
  157MOL0     H21634   8.957   5.332   4.834 -3.8814 -0.0284 -1.7034
  157MOL0     H21635   8.870   5.204   4.737 -0.1164  0.8648 -3.2865
  157MOL0     H21636   9.083   5.154   4.615 -1.4025  0.5090 -1.5021
  157MOL0     H21637   9.170   5.260   4.719  0.5232  1.1831 -0.2698
  157MOL0     H21638   8.947   5.332   4.529  1.7071  0.9362 -1.5664
  157MOL0     H21639   9.030   5.450   4.645 -0.9070 -0.0082  1.2886
  157MOL0     H21640   9.180   5.308   4.411  0.1389  1.0632 -0.6865
  157MOL0     H21641   9.250   5.401   4.537  0.6598 -0.8702  0.5268
  157MOL0     H21642   9.098   5.593   4.471 -0.8946  2.8958 -3.0927
  157MOL0     H21643   9.035   5.508   4.338  0.0226  2.2705  0.0790
  157MOL0     H21644   9.233   5.667   4.280  1.7666  0.1419  0.9238
  157MOL0     H21645   9.267   5.497   4.243  0.0471  1.5145 -1.8062
  157MOL0     H21646   8.735   5.002   5.147  0.4851  0.6296 -1.3912
  157MOL0     H21647   8.535   4.910   5.220  0.8759  0.7691 -0.0271
  157MOL0     H21648   8.083   4.636   4.904  1.4682  2.7103 -0.0702
  157MOL0     H21649   7.860   4.579   4.988  0.6600  0.9709 -1.3182
  157MOL0     H21650   6.198   4.188   5.834 -0.8828  0.2543 -0.3654
  157MOL0     H21651   5.945   4.156   5.876  2.3226 -2.2117  0.0858
  157MOL0     H21652   5.720   3.873   6.239 -0.6838 -0.3514 -0.0337
  157MOL0     H21653   5.519   3.760   6.226  1.0113  2.2624  2.2111
  157MOL0     H21654   5.133   3.942   6.104  0.0024 -0.3093  0.5059
  157MOL0     H21655   5.188   3.900   5.939  3.6501  0.9383  1.2262
  157MOL0     H21656   5.037   3.744   6.141 -2.0669 -0.4932 -1.4520
  157MOL0     H21657   5.126   3.660   6.006  0.4967 -0.4225 -0.3528
  157MOL0     H21658   4.857   3.725   6.010 -1.2066  1.2945 -1.9656
  157MOL0     H21659   4.918   3.883   5.974  1.8089 -0.3588 -2.1560
  157MOL0     H21660   5.038   3.770   5.771 -0.3808  5.0953  1.8859
  157MOL0     H21661   4.876   3.788   5.755  1.2857  1.2203  0.2157
  157MOL0     H21662   4.848   3.386   5.730  0.9362 -1.5131  2.0764
  157MOL0     H21663   5.325   4.087   6.016  1.5259 -0.2213 -1.8757
  157MOL0     H21664   5.543   4.328   6.089  1.3595  1.7829 -1.5205
  157MOL0     H21665   5.602   4.264   5.937 -1.7410 -1.4348 -1.8134
  157MOL0     H21666   5.435   4.286   5.962  0.8024  3.1872  1.7132
  158MOL0     O21667   5.592  10.035   5.460  0.0919 -0.0817 -0.1060
  158MOL0     C21668   5.600   9.931   5.396 -0.6878 -0.5747  0.1613
  158MOL0     O21669   5.716   9.907   5.324 -0.5178 -0.2998 -0.6128
  158MOL0     C21670   5.813  10.002   5.357  0.0434  0.6250  0.6620
  158MOL0     C21671   5.905   9.987   5.458 -0.0337  0.4576  0.1827
  158MOL0     C21672   5.997  10.085   5.488 -0.1612 -0.6962 -0.2719
  158MOL0     C21673   6.003  10.202   5.416 -0.3785 -0.7445 -0.2576
  158MOL0     O21674   6.100  10.297   5.442 -0.0598 -0.8627  0.5382
  158MOL0     C21675   6.126  10.395   5.339 -0.2807 -0.5131  0.2160
  158MOL0     C21676   6.253  10.463   5.381  0.1171  0.2793  0.2168
  158MOL0     C21677   6.282  10.593   5.308  0.1034 -0.2548  1.0947
  158MOL0     C21678   6.417  10.659   5.358  0.3973  0.1047  0.3624
  158MOL0     C21679   6.457  10.794   5.304 -0.1912 -0.3886  0.1333
  158MOL0     C21680   6.356  10.911   5.324 -0.6408  0.5625  0.5164
  158MOL0     C21681   6.390  11.036   5.246 -0.3623  1.0895 -0.2355
  158MOL0     C21682   6.354  11.165   5.324 -0.3070  0.2168  0.2467
  158MOL0     N21683   6.464  11.225   5.405 -0.7224 -0.8590 -0.0792
  158MOL0     C21684   6.587  11.244   5.342  0.6103  0.2614 -0.0628
  158MOL0     C21685   6.679  11.270   5.440  1.2507  1.0680 -0.0153
  158MOL0     C21686   6.816  11.307   5.420  0.2064  0.3265  0.4253
  158MOL0     C21687   6.839  11.445   5.387 -0.3058 -0.4942  1.1503
  158MOL0     C21688   6.759  11.528   5.484  0.5906  0.1365 -0.8807
  158MOL0     C21689   6.799  11.671   5.483  0.5778  0.7595 -0.1429
  158MOL0     O21690   6.716  11.745   5.572 -0.0872  1.0110 -0.1685
  158MOL0     C21691   6.579  11.759   5.551  0.0463 -0.2017 -0.0874
  158MOL0     C21692   6.524  11.725   5.425  0.5026 -0.0282  0.8217
  158MOL0     C21693   6.384  11.733   5.393 -0.2367 -0.3125 -0.5112
  158MOL0     C21694   6.335  11.693   5.260 -0.0747 -0.7935  1.0502
  158MOL0     C21695   6.299  11.747   5.511  0.3750  0.2294 -0.2081
  158MOL0     C21696   6.149  11.744   5.501 -0.3048  0.7079  0.2237
  158MOL0     O21697   6.082  11.833   5.568 -0.0574 -0.2529 -0.5361
  158MOL0     C21698   5.948  11.816   5.560  0.3728 -0.5440 -0.2644
  158MOL0     C21699   5.879  11.898   5.468  0.2521 -0.1585  0.2117
  158MOL0     C21700   5.736  11.891   5.461  0.2332  0.4428  0.0526
  158MOL0     C21701   5.663  11.816   5.557 -0.0996 -0.1666 -0.2153
  158MOL0     O21702   5.532  11.825   5.548 -0.4601  0.6547 -0.8764
  158MOL0     C21703   5.456  11.838   5.676 -0.6472  0.6184 -0.2106
  158MOL0     C21704   5.322  11.914   5.660 -0.7384  0.1527  0.1509
  158MOL0     C21705   5.245  11.937   5.784 -1.0319 -0.4306 -0.0226
  158MOL0     C21706   5.209  11.803   5.846  0.0703 -0.9812  0.2942
  158MOL0     C21707   5.099  11.827   5.957 -0.5858  1.3416 -0.6415
  158MOL0     C21708   5.086  11.700   6.050 -0.1838  0.1632 -0.3576
  158MOL0     C21709   4.985  11.715   6.163  0.1767 -0.3664  0.3883
  158MOL0     C21710   4.981  11.596   6.259  0.0617 -0.1230  0.0554
  158MOL0    Cl21711   5.140  11.568   6.350 -0.1608 -0.0941 -0.5307
  158MOL0     C21712   5.732  11.725   5.640  0.2061  0.2981 -1.0132
  158MOL0     C21713   5.872  11.730   5.642 -0.3498 -0.1422 -0.1729
  158MOL0     O21714   6.109  11.663   5.417 -0.5293  0.0386 -0.3417
  158MOL0     C21715   6.365  11.776   5.639  0.4298 -0.0535  0.1997
  158MOL0     C21716   6.500  11.780   5.663 -0.2697 -0.1114  0.9444
  158MOL0     N21717   6.618  11.251   5.560  0.3817  0.5070 -0.1912
  158MOL0     N21718   6.485  11.233   5.537  0.3748  0.0319  0.6068
  158MOL0     C21719   5.904  10.219   5.308  0.4451  0.4309 -0.1994
  158MOL0     C21720   5.810  10.116   5.285  0.0846 -0.6695  0.3331
  158MOL0     C21721   5.481   9.843   5.406 -0.1794  0.1166 -0.4693
  158MOL0     C21722   5.383   9.856   5.505  0.3364  0.0797 -0.1399
  158MOL0     C21723   5.267   9.773   5.515 -0.5429 -0.6695  0.9087
  158MOL0     C21724   5.258   9.659   5.438 -0.6533 -0.3878 -0.1318
  158MOL0     O21725   5.156   9.568   5.437 -0.1332  0.4598  0.4264
  158MOL0     C21726   5.035   9.593   5.511  0.2501 -0.2508 -0.3952
  158MOL0     C21727   4.938   9.463   5.518 -0.9152 -0.8434  0.3674
  158MOL0     C21728   4.892   9.428   5.375 -0.1945  0.0879  0.1558
  158MOL0     C21729   4.820   9.293   5.359  0.9566  0.4282  0.5087
  158MOL0     C21730   4.678   9.310   5.373  0.2400 -0.3046 -0.5066
  158MOL0     C21731   4.559   9.341   5.395  0.1481  0.2167  0.3108
  158MOL0     C21732   5.354   9.650   5.331  0.6511  0.4151  0.7433
  158MOL0     C21733   5.462   9.736   5.312  0.4731  0.1643 -1.0680
  158MOL0     C21734   5.553   9.693   5.207  0.7441 -0.0139 -0.2188
  158MOL0     H21735   5.908   9.891   5.508  0.0723 -0.2717 -1.1705
  158MOL0     H21736   6.074  10.072   5.564  1.8439  2.7109 -1.4727
  158MOL0     H21737   6.039  10.461   5.336  1.4891  1.9201 -0.6837
  158MOL0     H21738   6.136  10.347   5.241  3.6613 -1.2830  0.8125
  158MOL0     H21739   6.253  10.474   5.490 -3.2375  3.7441  0.0955
  158MOL0     H21740   6.333  10.395   5.350 -0.3231 -0.4580  0.6580
  158MOL0     H21741   6.289  10.576   5.200 -2.3319 -0.9256  0.9705
  158MOL0     H21742   6.198  10.663   5.310  0.5105  0.4675 -1.7908
  158MOL0     H21743   6.419  10.644   5.466 -1.0163 -1.5131  0.2004
  158MOL0     H21744   6.489  10.590   5.313 -0.5947 -1.3351  0.9195
  158MOL0     H21745   6.480  10.788   5.197 -0.0481 -1.9229  0.2297
  158MOL0     H21746   6.546  10.817   5.364 -0.4752 -2.2364  1.3363
  158MOL0     H21747   6.260  10.884   5.278 -0.6695 -2.0346  1.9155
  158MOL0     H21748   6.332  10.923   5.430 -0.2824  1.9368  0.4614
  158MOL0     H21749   6.326  11.037   5.158  0.0062  3.4230 -0.5565
  158MOL0     H21750   6.497  11.039   5.223 -0.0270  1.1564  1.2144
  158MOL0     H21751   6.333  11.247   5.255  0.6091 -0.8736 -1.4058
  158MOL0     H21752   6.265  11.145   5.385  0.5451 -1.4498  1.0196
  158MOL0     H21753   6.609  11.238   5.236  0.5942 -0.8913 -0.0196
  158MOL0     H21754   6.853  11.243   5.339 -2.2812 -3.1554  1.7684
  158MOL0     H21755   6.869  11.287   5.513 -2.1224 -1.4917  1.4815
  158MOL0     H21756   6.948  11.455   5.396  0.0356 -1.4848 -1.1560
  158MOL0     H21757   6.814  11.467   5.283 -0.3284  0.2517  1.3060
  158MOL0     H21758   6.654  11.519   5.454  0.1510  0.8729  0.3819
  158MOL0     H21759   6.778  11.477   5.579 -0.8325 -2.9515 -2.1013
  158MOL0     H21760   6.906  11.671   5.507  0.3742 -0.6068  0.8616
  158MOL0     H21761   6.791  11.715   5.383 -0.2556 -0.5911 -0.7010
  158MOL0     H21762   6.581  11.702   5.336 -1.5261  0.8397 -0.7861
  158MOL0     H21763   6.420  11.724   5.198 -0.6075  1.0803  1.1900
  158MOL0     H21764   6.250  11.753   5.229 -0.2949 -0.4829  2.2084
  158MOL0     H21765   6.319  11.586   5.249 -0.1828 -0.6877  0.0383
  158MOL0     H21766   5.933  11.958   5.395 -0.3009 -0.0947 -0.1478
  158MOL0     H21767   5.676  11.941   5.385 -0.7663 -1.6912 -0.6348
  158MOL0     H21768   5.447  11.744   5.731  2.7982  1.2101  1.6528
  158MOL0     H21769   5.513  11.909   5.737 -0.5216  1.4917 -1.3156
  158MOL0     H21770   5.361  12.006   5.616  0.0851  0.1699  0.8912
  158MOL0     H21771   5.251  11.876   5.586 -1.7837  3.1609 -0.5257
  158MOL0     H21772   5.152  11.987   5.757 -1.3582  1.1144  3.4873
  158MOL0     H21773   5.303  11.996   5.855  0.7317 -0.3584 -1.4312
  158MOL0     H21774   5.301  11.758   5.885  1.0155 -2.0371 -2.8322
  158MOL0     H21775   5.172  11.743   5.762 -0.2478  1.7368 -1.6528
  158MOL0     H21776   5.128  11.919   6.009  1.5858 -0.3739  1.4122
  158MOL0     H21777   5.004  11.844   5.905  0.1199  2.8451 -1.4845
  158MOL0     H21778   5.184  11.674   6.091 -0.4378  0.4972  0.4668
  158MOL0     H21779   5.062  11.613   5.988  2.5390 -1.3200  0.5037
  158MOL0     H21780   4.885  11.735   6.123 -0.5392  0.0063  2.2678
  158MOL0     H21781   5.002  11.809   6.216 -0.9732  0.4156 -0.5759
  158MOL0     H21782   4.961  11.507   6.199  2.0907  1.3287 -3.0767
  158MOL0     H21783   4.904  11.603   6.336  0.9046 -0.7315  0.9844
  158MOL0     H21784   5.671  11.661   5.703 -0.7223  0.3474 -1.8376
  158MOL0     H21785   5.917  11.654   5.706 -1.3941  0.3214  1.1483
  158MOL0     H21786   6.300  11.782   5.726  0.3451 -1.1277  0.2260
  158MOL0     H21787   6.547  11.787   5.760  0.8685  1.6231  0.3167
  158MOL0     H21788   5.898  10.310   5.249  1.0434  0.2061 -0.6121
  158MOL0     H21789   5.738  10.129   5.205  0.0460  1.9064  0.7236
  158MOL0     H21790   5.409   9.934   5.575 -0.5595  0.9983 -0.7948
  158MOL0     H21791   5.196   9.793   5.594 -1.9335  1.1758 -0.7169
  158MOL0     H21792   5.057   9.608   5.617  0.0843  0.6186 -0.4827
  158MOL0     H21793   4.989   9.678   5.460  1.1751 -1.2285 -3.0407
  158MOL0     H21794   4.848   9.494   5.572 -1.0285 -1.5446  0.5982
  158MOL0     H21795   4.989   9.376   5.561  0.1859 -0.1088  0.6003
  158MOL0     H21796   4.833   9.505   5.326 -1.8123 -1.1906 -0.0113
  158MOL0     H21797   4.989   9.413   5.327  0.4492 -2.4531  2.0065
  158MOL0     H21798   4.871   9.225   5.427  1.7373  0.7825  0.2950
  158MOL0     H21799   4.836   9.243   5.263 -1.1449 -2.5862  1.5883
  158MOL0     H21800   4.455   9.366   5.407 -0.1863 -1.9925  2.8889
  158MOL0     H21801   5.343   9.562   5.269 -0.8523  0.2611  1.1923
  158MOL0     H21802   5.612   9.766   5.151 -0.1315 -0.6737 -2.0930
  158MOL0     H21803   5.624   9.622   5.251 -0.5486  0.0439  2.0977
  158MOL0     H21804   5.492   9.644   5.132 -1.3117 -1.6546  2.3541
  159MOL0     O21805   5.509   2.360   9.589 -0.8801 -0.2761 -0.2037
  159MOL0     C21806   5.443   2.460   9.599  0.8541 -0.0784 -1.2933
  159MOL0     O21807   5.479   2.576   9.673 -0.3129 -0.3534  0.5732
  159MOL0     C21808   5.613   2.601   9.716  0.2667 -0.4822 -0.7069
  159MOL0     C21809   5.637   2.731   9.741  1.0086  0.2399 -0.3643
  159MOL0     C21810   5.753   2.771   9.799 -0.5570 -0.0067  0.0953
  159MOL0     C21811   5.857   2.678   9.838  0.1270 -0.3811 -0.3103
  159MOL0     O21812   5.969   2.737   9.886  0.7586 -0.6075  0.2470
  159MOL0     C21813   6.066   2.656   9.941 -0.0555 -0.3763  0.0254
  159MOL0     C21814   6.191   2.741   9.976  0.3485  0.6973  0.2916
  159MOL0     C21815   6.313   2.666   9.930 -0.7503 -0.1691  0.0848
  159MOL0     C21816   6.435   2.756   9.961 -0.3829 -1.6817  0.4128
  159MOL0     C21817   6.465   2.765  10.112 -0.4641 -0.5523  0.6206
  159MOL0     C21818   6.504   2.632  10.178 -0.2897 -0.6072  0.3694
  159MOL0     C21819   6.566   2.656  10.313  0.4422 -0.5318 -0.0909
  159MOL0     C21820   6.703   2.697  10.318 -0.8016 -0.9098  0.4564
  159MOL0     N21821   6.782   2.647  10.431  0.1870  0.3455 -0.7971
  159MOL0     C21822   6.920   2.631  10.415  1.4696  0.7597  0.3244
  159MOL0     C21823   6.966   2.625  10.545  0.4444  0.3585 -0.5445
  159MOL0     C21824   7.097   2.584  10.600  0.6052 -1.4233 -0.8877
  159MOL0     C21825   7.175   2.513  10.497 -0.4923  1.1910  0.1777
  159MOL0     C21826   7.307   2.436  10.537 -0.5865 -0.1873 -0.0649
  159MOL0     C21827   7.387   2.505  10.645 -0.1035  0.7737 -0.1870
  159MOL0     O21828   7.320   2.488  10.765 -0.4817  0.7093 -0.5578
  159MOL0     C21829   7.370   2.568  10.866 -0.3861  0.2674 -0.1717
  159MOL0     C21830   7.277   2.586  10.968 -0.4159 -0.0662 -0.0126
  159MOL0     C21831   7.304   2.668  11.084  0.8339 -0.5562  0.9622
  159MOL0     C21832   7.190   2.683  11.178 -0.4449 -1.3491  0.0327
  159MOL0     C21833   7.434   2.727  11.106 -0.5814  0.4361  0.1260
  159MOL0     C21834   7.484   2.793  11.236  0.4763  0.0475 -0.1379
  159MOL0     O21835   7.614   2.820  11.250  0.1068  0.3579  0.0475
  159MOL0     C21836   7.679   2.847  11.369  1.2358  0.5622 -0.2894
  159MOL0     C21837   7.787   2.939  11.352 -0.4070 -0.7545 -0.4608
  159MOL0     C21838   7.870   2.960  11.463 -0.0163 -0.1310 -0.5666
  159MOL0     C21839   7.843   2.911  11.591  0.2874 -0.7367  0.5725
  159MOL0     O21840   7.920   2.937  11.707  0.2075 -0.2945  0.7334
  159MOL0     C21841   8.060   2.993  11.706  0.5041 -0.6219 -0.6272
  159MOL0     C21842   8.127   2.989  11.847 -0.7459  0.1013 -0.9130
  159MOL0     C21843   8.270   3.063  11.860  0.6182  0.2397  0.8899
  159MOL0     C21844   8.357   3.023  11.987  0.2580  0.8660  0.1871
  159MOL0     C21845   8.497   3.082  11.989  0.2701  0.0466  0.6520
  159MOL0     C21846   8.594   3.045  11.884 -0.0214  0.0914  0.5829
  159MOL0     C21847   8.722   3.108  11.927  0.4404 -0.2100  0.4135
  159MOL0     C21848   8.835   3.115  11.827 -0.6440  0.3680  0.1586
  159MOL0    Cl21849   8.919   2.959  11.817 -0.3715  0.0557 -0.0162
  159MOL0     C21850   7.735   2.830  11.604 -0.0643 -0.2796  0.2551
  159MOL0     C21851   7.648   2.800  11.496 -0.1159 -0.1836  0.2191
  159MOL0     O21852   7.403   2.794  11.326  0.0825  0.7450  0.0504
  159MOL0     C21853   7.524   2.699  11.001 -0.5035  0.6890 -0.8180
  159MOL0     C21854   7.496   2.625  10.886  0.0595  0.3539  0.3309
  159MOL0     N21855   6.856   2.646  10.631 -0.4018 -0.3327  0.1690
  159MOL0     N21856   6.749   2.655  10.558  0.4269 -0.1838 -0.1366
  159MOL0     C21857   5.834   2.546   9.810  0.0960 -0.3636  0.4058
  159MOL0     C21858   5.712   2.506   9.747  0.0204  0.8461 -0.0141
  159MOL0     C21859   5.315   2.477   9.522 -0.6360 -0.9789  0.1835
  159MOL0     C21860   5.263   2.606   9.515  0.3681 -0.6531 -0.1404
  159MOL0     C21861   5.159   2.637   9.437  0.5944 -0.2253  0.8750
  159MOL0     C21862   5.096   2.539   9.367  0.8159  1.0460  0.3450
  159MOL0     O21863   4.979   2.545   9.288 -0.4388 -0.3719 -0.6408
  159MOL0     C21864   4.918   2.674   9.301 -0.3529 -0.3019  0.3119
  159MOL0     C21865   4.776   2.685   9.236 -0.5079 -0.1341 -0.1817
  159MOL0     C21866   4.784   2.625   9.094 -0.7350 -0.3149  0.0012
  159MOL0     C21867   4.828   2.733   8.993  0.1160 -0.5042 -1.3192
  159MOL0     C21868   4.719   2.839   8.978  0.0462 -0.4690  0.3786
  159MOL0     C21869   4.636   2.924   8.957  0.2975  0.3177 -0.1843
  159MOL0     C21870   5.143   2.411   9.370 -0.6287 -1.0169 -1.1172
  159MOL0     C21871   5.264   2.383   9.436  0.4561  0.7595  0.1123
  159MOL0     C21872   5.323   2.247   9.417  0.3927 -0.2918  0.2529
  159MOL0     H21873   5.559   2.803   9.718 -2.6989 -3.0570  0.8418
  159MOL0     H21874   5.771   2.877   9.812 -0.7127 -0.0498  0.6824
  159MOL0     H21875   6.096   2.582   9.865 -0.9572 -0.9970  0.2570
  159MOL0     H21876   6.030   2.594  10.024 -0.3900 -2.1563 -1.3950
  159MOL0     H21877   6.179   2.835   9.922 -0.1891 -1.6477 -4.0961
  159MOL0     H21878   6.181   2.755  10.085 -1.3461  0.1432  0.2381
  159MOL0     H21879   6.320   2.563   9.965  0.6983 -0.7259 -1.6644
  159MOL0     H21880   6.299   2.657   9.822 -0.8884 -0.0603  0.0941
  159MOL0     H21881   6.521   2.719   9.903 -0.1160  2.0100 -1.8902
  159MOL0     H21882   6.422   2.860   9.926 -0.5393 -1.4622  1.1185
  159MOL0     H21883   6.383   2.810  10.168  0.6406  0.4930  1.4503
  159MOL0     H21884   6.545   2.836  10.134 -0.4077  0.0559 -1.3593
  159MOL0     H21885   6.411   2.578  10.198 -0.6143 -1.1426 -2.2314
  159MOL0     H21886   6.564   2.571  10.110 -1.4561 -0.5365 -0.7566
  159MOL0     H21887   6.559   2.568  10.377  2.0362  0.3237  1.3290
  159MOL0     H21888   6.498   2.729  10.359 -0.2458 -1.2699  0.0894
  159MOL0     H21889   6.747   2.666  10.222 -1.0531 -2.6595  0.8693
  159MOL0     H21890   6.717   2.805  10.316 -0.2364 -0.9673 -1.5146
  159MOL0     H21891   6.968   2.609  10.320 -0.4419 -0.8361 -0.3477
  159MOL0     H21892   7.080   2.514  10.682  0.9221  0.7248  1.1306
  159MOL0     H21893   7.157   2.671  10.631  3.1216 -3.1759 -0.5422
  159MOL0     H21894   7.113   2.434  10.454  2.5949 -1.5270  0.3478
  159MOL0     H21895   7.196   2.583  10.415  0.6188  1.3690  0.5956
  159MOL0     H21896   7.294   2.330  10.564  3.9615 -1.1924 -0.9508
  159MOL0     H21897   7.366   2.432  10.445  0.8270 -3.3754  0.7965
  159MOL0     H21898   7.481   2.450  10.651 -1.8860 -2.3412  3.1092
  159MOL0     H21899   7.402   2.609  10.613  1.4205  0.3590 -0.8912
  159MOL0     H21900   7.181   2.539  10.949  0.1935 -2.2752  1.9568
  159MOL0     H21901   7.200   2.628  11.272  0.3658 -3.8454 -1.4252
  159MOL0     H21902   7.098   2.657  11.125 -1.1508  4.2929 -2.2821
  159MOL0     H21903   7.179   2.790  11.200 -2.0782 -0.6483 -3.4981
  159MOL0     H21904   7.814   2.968  11.251  0.6476  0.0186  0.0304
  159MOL0     H21905   7.963   3.015  11.454 -0.8632  1.9212  1.7717
  159MOL0     H21906   8.118   2.939  11.630 -2.7259 -0.5764 -3.3504
  159MOL0     H21907   8.053   3.097  11.673 -5.3777 -0.5311 -0.1375
  159MOL0     H21908   8.062   3.034  11.923  1.6395  2.3218 -0.0397
  159MOL0     H21909   8.140   2.887  11.886  0.8133  0.1253 -1.3334
  159MOL0     H21910   8.253   3.171  11.862  0.6149  0.2432  2.7729
  159MOL0     H21911   8.327   3.048  11.767  1.0778  1.7639  0.9041
  159MOL0     H21912   8.361   2.914  11.990 -1.1306  0.8144  0.7611
  159MOL0     H21913   8.302   3.060  12.074 -0.3627  1.5844 -0.4928
  159MOL0     H21914   8.497   3.190  12.003 -0.5359 -0.2933  4.1863
  159MOL0     H21915   8.550   3.054  12.081  0.5598  1.7072  1.0119
  159MOL0     H21916   8.576   3.095  11.788  1.0450 -1.3624 -0.4248
  159MOL0     H21917   8.611   2.940  11.860 -2.9276  0.3580 -3.7369
  159MOL0     H21918   8.761   3.044  12.006  0.8692  0.2948  0.6058
  159MOL0     H21919   8.696   3.212  11.950 -0.0337  0.0369 -1.1202
  159MOL0     H21920   8.904   3.194  11.861 -1.6741  0.8893  1.1051
  159MOL0     H21921   8.814   3.141  11.723  2.3164  0.1214 -0.5862
  159MOL0     H21922   7.706   2.792  11.702  0.3200 -0.2118  0.3957
  159MOL0     H21923   7.580   2.718  11.520  1.3703 -1.1638  1.2385
  159MOL0     H21924   7.627   2.733  11.005 -0.5432  0.6840  0.4247
  159MOL0     H21925   7.567   2.627  10.803  1.4372  0.6629  1.4810
  159MOL0     H21926   5.912   2.474   9.833  1.2408  1.2463  1.8084
  159MOL0     H21927   5.695   2.403   9.720 -2.3697  1.0093  0.6341
  159MOL0     H21928   5.315   2.690   9.560 -1.4644  0.9616 -0.9282
  159MOL0     H21929   5.126   2.740   9.433 -3.8284 -1.4658 -0.6802
  159MOL0     H21930   4.915   2.692   9.409  1.4067  2.6876 -0.0396
  159MOL0     H21931   4.976   2.756   9.259 -1.8926  1.0162  0.6388
  159MOL0     H21932   4.734   2.786   9.246  0.0493  0.1189 -0.3458
  159MOL0     H21933   4.704   2.630   9.297 -1.7071  2.2131  0.6544
  159MOL0     H21934   4.850   2.538   9.093  0.8124  0.8270  0.6699
  159MOL0     H21935   4.685   2.585   9.068 -1.6868  1.8111  0.1402
  159MOL0     H21936   4.841   2.692   8.892  1.0453  1.2370 -1.9539
  159MOL0     H21937   4.922   2.781   9.022 -0.2883 -2.1352  3.6497
  159MOL0     H21938   4.545   2.981   8.961 -0.8640 -1.5015  2.5826
  159MOL0     H21939   5.085   2.336   9.317 -3.2329  0.8239 -1.0068
  159MOL0     H21940   5.351   2.191   9.506  2.5445 -2.8725 -1.8703
  159MOL0     H21941   5.248   2.177   9.380  2.2065 -3.2764  1.9168
  159MOL0     H21942   5.409   2.254   9.350  0.0703 -2.7625 -0.5206
  160MOL0     O21943   4.755   6.695   6.774 -0.1309  1.0128 -0.5331
  160MOL0     C21944   4.834   6.688   6.674 -0.3499 -0.3131 -0.7625
  160MOL0     O21945   4.929   6.779   6.643  0.1955 -0.1408  0.9456
  160MOL0     C21946   4.983   6.860   6.743  0.1174  0.7594 -0.3038
  160MOL0     C21947   5.000   6.812   6.883 -0.6503  0.2032  0.2112
  160MOL0     C21948   5.066   6.886   6.980 -0.3255  0.4897 -0.5800
  160MOL0     C21949   5.130   7.005   6.949  0.3663  0.2705  0.1726
  160MOL0     O21950   5.204   7.073   7.043 -0.2835 -0.3908 -0.8091
  160MOL0     C21951   5.325   7.136   6.998  0.6705 -0.6263 -0.2457
  160MOL0     C21952   5.443   7.127   7.102 -0.1032  0.3503  0.0989
  160MOL0     C21953   5.436   7.207   7.231  0.3396  0.2264  0.1696
  160MOL0     C21954   5.550   7.230   7.331  0.1721 -0.2736  0.4590
  160MOL0     C21955   5.682   7.246   7.252 -0.1798  0.2431  0.5976
  160MOL0     C21956   5.792   7.318   7.327  0.0301  0.5214  0.2787
  160MOL0     C21957   5.928   7.313   7.258 -0.5252  0.4518  0.0558
  160MOL0     C21958   5.932   7.409   7.138  0.6732  0.2543 -0.1252
  160MOL0     N21959   6.068   7.411   7.078  0.6305 -0.7338 -0.5833
  160MOL0     C21960   6.107   7.381   6.943  0.6174 -0.4525 -1.2179
  160MOL0     C21961   6.223   7.442   6.929 -0.0611  0.7584 -0.0169
  160MOL0     C21962   6.313   7.438   6.805  0.0377 -1.1517  0.1248
  160MOL0     C21963   6.304   7.577   6.737  0.2068  0.1341  0.0509
  160MOL0     C21964   6.391   7.684   6.807 -0.8433  0.1693  1.6228
  160MOL0     C21965   6.548   7.672   6.762 -0.2409 -0.9779 -0.6644
  160MOL0     O21966   6.548   7.690   6.624 -0.4855 -0.3507  0.5172
  160MOL0     C21967   6.672   7.724   6.571  0.6390  0.2571  1.0998
  160MOL0     C21968   6.802   7.679   6.618  0.2127  0.0340 -0.1171
  160MOL0     C21969   6.924   7.708   6.560  0.9915  1.4277 -0.5320
  160MOL0     C21970   7.044   7.635   6.618 -0.1784 -0.1139 -0.0706
  160MOL0     C21971   6.925   7.790   6.443  0.7007 -0.1109  0.0832
  160MOL0     C21972   7.050   7.833   6.374  0.6732  0.2995  0.1246
  160MOL0     O21973   7.021   7.911   6.262 -0.5027 -0.4015  0.2856
  160MOL0     C21974   7.133   7.948   6.193  0.4994  0.5228 -0.4481
  160MOL0     C21975   7.171   8.082   6.190  0.0309 -0.2378  0.6777
  160MOL0     C21976   7.293   8.122   6.130 -0.2113 -0.1635 -0.0296
  160MOL0     C21977   7.360   8.034   6.047  0.2096 -0.0977  0.2605
  160MOL0     O21978   7.480   8.075   5.992 -0.2261 -0.6209  1.3110
  160MOL0     C21979   7.509   8.031   5.859 -0.3035 -0.7215  1.0256
  160MOL0     C21980   7.641   8.092   5.813 -0.5577  0.0629  0.4164
  160MOL0     C21981   7.673   8.025   5.675 -0.2547  0.2817  0.4216
  160MOL0     C21982   7.789   8.098   5.607 -0.1531  0.5590  0.0931
  160MOL0     C21983   7.851   8.019   5.492  0.5481 -0.9812  0.4823
  160MOL0     C21984   7.941   8.103   5.405 -0.5446  0.7915 -0.1932
  160MOL0     C21985   7.967   8.032   5.275  0.6802  0.5701  0.5069
  160MOL0     C21986   8.069   7.920   5.274 -0.0467  0.2264 -0.4526
  160MOL0    Cl21987   8.226   7.977   5.315  0.0338 -0.4160 -0.1400
  160MOL0     C21988   7.312   7.902   6.035  0.4732 -1.1079 -0.9363
  160MOL0     C21989   7.203   7.857   6.117 -0.7957 -0.0139  0.4267
  160MOL0     O21990   7.162   7.782   6.395 -0.3950  0.1797 -0.8719
  160MOL0     C21991   6.802   7.862   6.416  0.3455  0.9679  0.1624
  160MOL0     C21992   6.673   7.821   6.476 -0.5085  0.5506 -0.6986
  160MOL0     N21993   6.265   7.478   7.056 -0.3512  0.0041 -0.1134
  160MOL0     N21994   6.173   7.458   7.140  0.5078  0.5999  0.3552
  160MOL0     C21995   5.124   7.037   6.811  0.9027  0.2561 -0.3862
  160MOL0     C21996   5.049   6.976   6.710 -0.3672 -1.0264  1.2163
  160MOL0     C21997   4.813   6.581   6.570 -0.2447 -0.4713  0.3605
  160MOL0     C21998   4.923   6.541   6.492 -0.3710 -0.0666 -0.2758
  160MOL0     C21999   4.916   6.439   6.396 -0.1785 -0.7386 -0.1200
  160MOL0     C22000   4.794   6.369   6.376 -0.2533 -0.1484 -0.1184
  160MOL0     O22001   4.797   6.272   6.286 -0.1880 -0.0119  0.2214
  160MOL0     C22002   4.763   6.135   6.322 -0.7538 -0.1019 -0.0911
  160MOL0     C22003   4.629   6.081   6.271  0.0404 -0.2830 -0.4126
  160MOL0     C22004   4.605   5.948   6.355  0.7263  0.9742 -0.1521
  160MOL0     C22005   4.536   5.842   6.266 -0.5073  0.6564  0.2316
  160MOL0     C22006   4.523   5.721   6.342 -0.0975  0.1800  0.0553
  160MOL0     C22007   4.520   5.619   6.419  1.2985  0.1116  0.4015
  160MOL0     C22008   4.685   6.406   6.453 -0.0304  0.1585  0.1607
  160MOL0     C22009   4.691   6.509   6.546 -0.3725 -1.6030  1.1676
  160MOL0     C22010   4.569   6.541   6.633 -0.0116 -0.5139 -0.5738
  160MOL0     H22011   4.967   6.714   6.914 -0.5145  0.6120  1.7306
  160MOL0     H22012   5.080   6.849   7.081 -0.5757  2.4728  0.2334
  160MOL0     H22013   5.308   7.242   6.976  0.5619  0.0151  2.5345
  160MOL0     H22014   5.368   7.085   6.912 -0.0515 -2.0980  0.2386
  160MOL0     H22015   5.446   7.025   7.141 -0.1636  0.8321  1.4498
  160MOL0     H22016   5.530   7.160   7.044 -0.7060  0.8355 -0.5437
  160MOL0     H22017   5.402   7.305   7.195 -0.6025 -1.0938 -2.9319
  160MOL0     H22018   5.347   7.176   7.286 -0.5669  1.7027 -0.4138
  160MOL0     H22019   5.545   7.322   7.390  4.3347 -1.1121  2.5110
  160MOL0     H22020   5.550   7.148   7.403 -2.1591 -0.0348  0.8048
  160MOL0     H22021   5.657   7.318   7.173 -1.9879  0.9815  1.7749
  160MOL0     H22022   5.715   7.151   7.208 -0.4035  1.1602 -1.7101
  160MOL0     H22023   5.763   7.421   7.350 -2.5389 -0.4740  1.9018
  160MOL0     H22024   5.812   7.263   7.419  1.2143  0.6237  0.0955
  160MOL0     H22025   5.960   7.214   7.225  2.7306  1.1318  0.7727
  160MOL0     H22026   5.995   7.344   7.338 -2.5683  0.0377  2.0205
  160MOL0     H22027   5.872   7.371   7.055 -0.5617  1.0465  0.3813
  160MOL0     H22028   5.900   7.510   7.166  1.0654 -0.0798  1.6710
  160MOL0     H22029   6.043   7.337   6.868  0.2616  0.0276 -1.1981
  160MOL0     H22030   6.277   7.363   6.734 -2.4097  0.0840 -0.0575
  160MOL0     H22031   6.419   7.423   6.828  0.5844  1.7235 -0.2124
  160MOL0     H22032   6.336   7.571   6.632  1.0507 -5.1826  0.3458
  160MOL0     H22033   6.198   7.602   6.746  0.1426 -0.3546  0.7013
  160MOL0     H22034   6.342   7.772   6.765  0.2782  0.4326  0.8116
  160MOL0     H22035   6.381   7.668   6.915  0.8946 -1.7057  1.5748
  160MOL0     H22036   6.593   7.753   6.821  0.2473 -1.4282 -0.4132
  160MOL0     H22037   6.592   7.574   6.781 -1.3968 -1.5487 -0.8848
  160MOL0     H22038   6.802   7.624   6.712 -1.8808  0.4213  0.1558
  160MOL0     H22039   7.111   7.593   6.544  0.2397  2.1057 -1.0312
  160MOL0     H22040   7.013   7.553   6.684 -2.3099 -0.8974 -1.9256
  160MOL0     H22041   7.103   7.706   6.677  0.9922  0.1810 -1.5481
  160MOL0     H22042   7.114   8.160   6.240  1.2031 -0.3686  2.3337
  160MOL0     H22043   7.337   8.222   6.130 -1.0342  0.2284 -1.1713
  160MOL0     H22044   7.521   7.922   5.861  0.1570 -0.6658  1.9899
  160MOL0     H22045   7.422   8.060   5.799 -0.4588  0.5263  1.7997
  160MOL0     H22046   7.633   8.201   5.806  2.2022  0.2348 -3.3712
  160MOL0     H22047   7.725   8.074   5.882 -1.6484 -2.2341  1.2503
  160MOL0     H22048   7.590   8.019   5.604 -1.0599  0.2437  1.3592
  160MOL0     H22049   7.712   7.924   5.692  0.5843 -0.0713 -2.9360
  160MOL0     H22050   7.876   8.110   5.672  1.2340 -2.3920 -1.0293
  160MOL0     H22051   7.744   8.194   5.578 -1.6429  0.3522  1.5727
  160MOL0     H22052   7.910   7.936   5.532 -0.9514 -3.0777 -1.4211
  160MOL0     H22053   7.772   7.980   5.428  1.1485  0.1369 -0.9830
  160MOL0     H22054   8.035   8.119   5.459 -0.4894 -0.1803  0.0190
  160MOL0     H22055   7.897   8.199   5.378  1.3537  2.3260  1.8185
  160MOL0     H22056   7.984   8.107   5.197 -1.3585  0.5446 -0.0214
  160MOL0     H22057   7.875   7.982   5.243  1.1340 -1.0760  1.6255
  160MOL0     H22058   8.056   7.857   5.186  0.7924 -0.9240  0.2167
  160MOL0     H22059   8.043   7.847   5.351  3.3132  1.1057  1.7195
  160MOL0     H22060   7.383   7.831   5.995 -1.4369 -4.3576  1.0547
  160MOL0     H22061   7.166   7.756   6.098 -3.8447  1.4099 -2.2147
  160MOL0     H22062   6.793   7.947   6.350  0.9203  0.5679 -0.4455
  160MOL0     H22063   6.582   7.876   6.455 -0.9302  0.4791  0.8563
  160MOL0     H22064   5.178   7.128   6.789  0.1064  1.7280  3.0137
  160MOL0     H22065   5.042   7.005   6.606 -1.3711 -1.8591  1.0321
  160MOL0     H22066   5.016   6.593   6.509 -0.2647 -0.0972 -0.7498
  160MOL0     H22067   5.000   6.420   6.331  2.1724  0.9053  2.2010
  160MOL0     H22068   4.849   6.077   6.288 -1.3979  0.3098 -2.6148
  160MOL0     H22069   4.753   6.137   6.431 -0.4257  1.1201 -0.0784
  160MOL0     H22070   4.629   6.056   6.165  1.1002  1.6487 -0.9184
  160MOL0     H22071   4.547   6.151   6.287 -0.1215 -0.5572 -0.0241
  160MOL0     H22072   4.699   5.905   6.389 -0.1453  0.5703  1.8688
  160MOL0     H22073   4.557   5.955   6.453  1.6000 -3.3850  0.7928
  160MOL0     H22074   4.614   5.823   6.191  1.6152 -3.0135  3.0382
  160MOL0     H22075   4.440   5.863   6.219 -0.2907  0.8570 -0.1339
  160MOL0     H22076   4.506   5.539   6.488 -0.0736  0.0715  0.0981
  160MOL0     H22077   4.589   6.355   6.444  0.2408 -0.0622 -2.2025
  160MOL0     H22078   4.475   6.501   6.594 -0.3952  0.4039 -0.6049
  160MOL0     H22079   4.591   6.487   6.726  0.9767 -1.2092 -1.1802
  160MOL0     H22080   4.552   6.647   6.652 -0.6365 -0.7033 -0.0704
  161MOL0     O22081   9.214   4.578   4.604 -0.0397 -0.5139  0.1460
  161MOL0     C22082   9.232   4.543   4.722 -0.1270 -0.5537  0.3534
  161MOL0     O22083   9.337   4.467   4.762 -0.1547 -0.2933 -0.1606
  161MOL0     C22084   9.444   4.458   4.676 -0.2660 -1.4217  0.6518
  161MOL0     C22085   9.481   4.326   4.640 -0.1223  0.0967  0.3066
  161MOL0     C22086   9.605   4.304   4.564  0.2696 -0.5532 -0.4165
  161MOL0     C22087   9.689   4.414   4.561 -0.0074  0.2320  0.2227
  161MOL0     O22088   9.817   4.401   4.510 -0.2477  0.1534  0.0873
  161MOL0     C22089   9.907   4.347   4.607  0.4241  0.7452 -0.3021
  161MOL0     C22090  10.056   4.378   4.591  0.0193  0.5958 -0.3868
  161MOL0     C22091  10.155   4.283   4.656  1.1869 -0.3220  0.0799
  161MOL0     C22092  10.272   4.357   4.730  0.1348  0.5343  0.5741
  161MOL0     C22093  10.362   4.408   4.626 -0.5004 -0.8294  0.2717
  161MOL0     C22094  10.484   4.325   4.581 -1.2550 -0.2197 -0.2285
  161MOL0     C22095  10.554   4.411   4.473 -0.6889  1.2393 -0.1984
  161MOL0     C22096  10.561   4.332   4.340  0.4970  0.5447  0.0917
  161MOL0     N22097  10.671   4.374   4.260 -0.0135  0.2443 -0.0905
  161MOL0     C22098  10.658   4.435   4.139 -0.7811 -1.0991 -0.5998
  161MOL0     C22099  10.789   4.443   4.098 -0.1200 -1.0457 -0.1773
  161MOL0     C22100  10.846   4.513   3.977 -0.2911  0.1714  0.0665
  161MOL0     C22101  10.983   4.460   3.925 -0.9017 -0.0821  0.0302
  161MOL0     C22102  11.021   4.517   3.794 -0.2993  0.3788  0.2710
  161MOL0     C22103  11.169   4.491   3.771 -0.7790 -0.0151  0.5942
  161MOL0     O22104  11.203   4.479   3.633 -0.1673  0.1486  1.0135
  161MOL0     C22105  11.339   4.477   3.614 -0.1209  1.0107 -0.2975
  161MOL0     C22106  11.378   4.503   3.484 -0.3282  0.4242 -0.3020
  161MOL0     C22107  11.513   4.493   3.453  0.3778 -0.4313  0.2428
  161MOL0     C22108  11.565   4.524   3.314  0.3683 -0.2200  1.0349
  161MOL0     C22109  11.605   4.444   3.555 -0.4555 -0.8169  0.6780
  161MOL0     C22110  11.754   4.433   3.522  0.1155 -0.7188 -0.0240
  161MOL0     O22111  11.849   4.444   3.624  0.2684 -0.5371 -0.1496
  161MOL0     C22112  11.979   4.469   3.584 -0.4844 -0.2571 -0.2039
  161MOL0     C22113  12.083   4.412   3.661 -0.9523 -1.0146 -0.2462
  161MOL0     C22114  12.217   4.468   3.655 -0.0269  0.2025 -0.4190
  161MOL0     C22115  12.238   4.563   3.558  0.0776 -0.4159  0.2812
  161MOL0     O22116  12.370   4.611   3.543 -0.1801 -0.1539 -0.0591
  161MOL0     C22117  12.445   4.530   3.454  0.2842  0.0282  0.2660
  161MOL0     C22118  12.595   4.569   3.452  0.4853 -0.9741 -0.8756
  161MOL0     C22119  12.621   4.720   3.472  0.1636  0.0947 -0.0918
  161MOL0     C22120  12.763   4.740   3.534 -0.5854 -0.7418 -0.1113
  161MOL0     C22121  12.812   4.886   3.533 -0.2897 -0.2191  0.0901
  161MOL0     C22122  12.751   4.974   3.640 -0.4973  0.2493 -0.0218
  161MOL0     C22123  12.796   5.120   3.614  0.9669  0.6643  0.1318
  161MOL0     C22124  12.788   5.207   3.739  0.0713  0.1968 -1.0785
  161MOL0    Cl22125  12.753   5.377   3.690  0.2075  0.3355  0.0976
  161MOL0     C22126  12.144   4.608   3.469  0.0948  0.0311 -0.0918
  161MOL0     C22127  12.012   4.569   3.490  0.1213 -0.5952 -0.0914
  161MOL0     O22128  11.785   4.391   3.409 -0.5970 -0.1869 -0.2989
  161MOL0     C22129  11.571   4.434   3.685  0.3605 -0.3796 -0.2251
  161MOL0     C22130  11.433   4.437   3.714 -0.5682  0.6522 -0.0130
  161MOL0     N22131  10.881   4.396   4.190  0.4076  0.1122  0.3978
  161MOL0     N22132  10.809   4.354   4.285 -0.1529 -0.4103  0.2957
  161MOL0     C22133   9.658   4.541   4.598  0.7368 -0.3261 -0.6453
  161MOL0     C22134   9.532   4.564   4.658  0.3304 -0.6573  0.5071
  161MOL0     C22135   9.139   4.565   4.830 -0.2635 -0.6538 -0.3975
  161MOL0     C22136   9.151   4.488   4.948  0.4508 -0.5426 -0.1916
  161MOL0     C22137   9.051   4.490   5.057 -0.3208 -0.4467  0.6510
  161MOL0     C22138   8.936   4.566   5.046  0.8329  0.8966  0.0740
  161MOL0     O22139   8.848   4.546   5.149 -0.0761 -0.4206  0.6465
  161MOL0     C22140   8.715   4.600   5.136  0.2207  0.1048  0.3704
  161MOL0     C22141   8.629   4.566   5.260  0.5202 -0.4566 -0.4509
  161MOL0     C22142   8.616   4.412   5.271  0.2432  0.5066  0.6104
  161MOL0     C22143   8.544   4.361   5.392  0.2743  0.0227 -0.7072
  161MOL0     C22144   8.519   4.211   5.382 -0.0801 -0.8129 -0.0520
  161MOL0     C22145   8.500   4.094   5.366 -0.2394 -0.1157 -0.2399
  161MOL0     C22146   8.916   4.637   4.926  0.9186  0.0740 -0.1117
  161MOL0     C22147   9.020   4.640   4.824  0.4219 -0.5100  0.2793
  161MOL0     C22148   8.972   4.731   4.704 -0.0670 -0.0513  0.8706
  161MOL0     H22149   9.410   4.247   4.662 -0.8433 -0.2410 -2.8003
  161MOL0     H22150   9.628   4.210   4.516 -0.5337 -1.6852  1.2971
  161MOL0     H22151   9.891   4.239   4.615  1.7479  0.6781  3.4256
  161MOL0     H22152   9.888   4.383   4.709  3.0622  0.0617  0.4955
  161MOL0     H22153  10.078   4.362   4.485  1.5278  0.8203 -0.1352
  161MOL0     H22154  10.065   4.479   4.631 -1.5422 -0.8209  4.1872
  161MOL0     H22155  10.102   4.225   4.732  0.1763  0.4318 -0.0256
  161MOL0     H22156  10.203   4.210   4.590 -1.2803 -1.7894 -0.2041
  161MOL0     H22157  10.231   4.436   4.793 -5.5956  0.1258 -1.9506
  161MOL0     H22158  10.321   4.285   4.796  0.6534  0.1839 -0.1768
  161MOL0     H22159  10.399   4.501   4.671 -0.4154 -1.0532  0.6716
  161MOL0     H22160  10.312   4.453   4.540  0.8996 -2.4507 -1.4846
  161MOL0     H22161  10.543   4.297   4.669  0.7350 -2.5791 -2.1351
  161MOL0     H22162  10.454   4.227   4.542  0.0083 -1.2058  1.1518
  161MOL0     H22163  10.655   4.430   4.511 -0.2429 -1.3154  0.1005
  161MOL0     H22164  10.494   4.499   4.449 -1.6656  0.1802 -1.8132
  161MOL0     H22165  10.587   4.226   4.351  1.6930  0.2247 -4.0942
  161MOL0     H22166  10.469   4.339   4.280  0.6302  0.0518 -0.1761
  161MOL0     H22167  10.579   4.496   4.096  1.3177  2.3471  0.0700
  161MOL0     H22168  10.848   4.622   3.986  2.1843  0.3617 -1.8377
  161MOL0     H22169  10.768   4.495   3.902 -0.0394 -0.2697 -0.0915
  161MOL0     H22170  11.066   4.485   3.991 -1.8411  4.4629 -0.1639
  161MOL0     H22171  10.968   4.351   3.924 -1.5762 -0.0653  2.6235
  161MOL0     H22172  10.954   4.470   3.721  1.4299  0.0880 -1.2337
  161MOL0     H22173  11.006   4.625   3.804  0.5210  0.4411  0.9057
  161MOL0     H22174  11.229   4.577   3.800  0.4625 -0.6379 -0.0496
  161MOL0     H22175  11.198   4.405   3.833  1.7001  1.6189  1.8581
  161MOL0     H22176  11.307   4.529   3.406  1.0985  0.4353 -1.6687
  161MOL0     H22177  11.583   4.426   3.269 -1.1527 -0.4185  0.7836
  161MOL0     H22178  11.652   4.589   3.325 -0.0131  0.4369  0.2929
  161MOL0     H22179  11.479   4.560   3.257  0.3486  0.5126  1.5156
  161MOL0     H22180  12.045   4.333   3.725 -2.5046 -0.0004  0.1459
  161MOL0     H22181  12.297   4.426   3.716  1.2863  0.2339 -2.0391
  161MOL0     H22182  12.444   4.426   3.486  0.0283  0.5456  2.0599
  161MOL0     H22183  12.421   4.541   3.348  1.8750 -0.2111 -0.1525
  161MOL0     H22184  12.651   4.510   3.525 -0.1162 -2.5241 -1.6224
  161MOL0     H22185  12.638   4.537   3.357 -0.8227 -1.1279 -1.4327
  161MOL0     H22186  12.552   4.777   3.535  1.1197 -0.3687  1.4163
  161MOL0     H22187  12.610   4.769   3.375 -1.9776  2.2540  1.1308
  161MOL0     H22188  12.833   4.674   3.482 -1.1990 -1.6498  0.2001
  161MOL0     H22189  12.760   4.714   3.640  1.4426  2.7309  0.9559
  161MOL0     H22190  12.917   4.887   3.561  0.3200  3.5743 -1.6682
  161MOL0     H22191  12.814   4.939   3.438  1.1720 -1.2570 -0.4786
  161MOL0     H22192  12.795   4.934   3.731 -2.2672 -4.6233 -1.0124
  161MOL0     H22193  12.642   4.962   3.643 -0.7994  0.8764 -3.7530
  161MOL0     H22194  12.732   5.152   3.531  2.1835  0.6728 -0.8288
  161MOL0     H22195  12.899   5.132   3.580  0.6088 -0.0061 -1.2464
  161MOL0     H22196  12.875   5.204   3.804 -0.9608 -2.1182  0.3140
  161MOL0     H22197  12.709   5.172   3.805  0.9294  0.9501  0.3981
  161MOL0     H22198  12.161   4.685   3.394  1.9059  2.4752  2.5714
  161MOL0     H22199  11.934   4.614   3.429  1.7623 -1.0301 -2.6845
  161MOL0     H22200  11.647   4.412   3.759  0.1513  1.4434  0.5838
  161MOL0     H22201  11.398   4.413   3.814 -0.5783  0.8614  0.0338
  161MOL0     H22202   9.731   4.622   4.602 -2.0813  2.3359  0.5373
  161MOL0     H22203   9.509   4.663   4.695 -0.5340 -1.7840  3.2037
  161MOL0     H22204   9.240   4.431   4.970 -0.0126 -2.0434 -1.9161
  161MOL0     H22205   9.076   4.435   5.147 -1.9723 -0.8142  0.9099
  161MOL0     H22206   8.723   4.709   5.131  0.1853  0.0885 -0.2022
  161MOL0     H22207   8.661   4.575   5.044 -0.5918  0.0776  0.8545
  161MOL0     H22208   8.526   4.596   5.239  0.4946 -0.9787 -1.1070
  161MOL0     H22209   8.669   4.626   5.342 -0.6079  1.3117 -1.1380
  161MOL0     H22210   8.549   4.379   5.191  1.4661 -2.4365  0.6401
  161MOL0     H22211   8.714   4.364   5.258 -0.5338 -1.3834  1.4558
  161MOL0     H22212   8.452   4.416   5.414  0.7962  1.0523 -1.0421
  161MOL0     H22213   8.615   4.381   5.473 -1.3260 -1.1136  1.0602
  161MOL0     H22214   8.466   3.994   5.351  2.8497 -1.3133 -0.1261
  161MOL0     H22215   8.820   4.687   4.916 -0.6161 -2.7738 -0.9042
  161MOL0     H22216   8.950   4.669   4.617 -1.8807 -0.4449  1.5702
  161MOL0     H22217   8.880   4.786   4.726  0.4828  1.3766 -0.2971
  161MOL0     H22218   9.052   4.800   4.678 -1.1123  1.5426  1.7476
  162MOL0     O22219   4.641   9.895   5.994 -0.7400 -0.6354 -0.3556
  162MOL0     C22220   4.605  10.013   5.990  0.4602  0.1013 -1.2365
  162MOL0     O22221   4.681  10.114   5.956  0.3521 -0.1547 -0.7285
  162MOL0     C22222   4.814  10.099   5.936  0.0727 -0.2942 -0.4738
  162MOL0     C22223   4.900  10.201   5.990  1.1511 -0.0321 -0.1799
  162MOL0     C22224   5.035  10.198   5.947  0.3762 -0.0157  0.9031
  162MOL0     C22225   5.085  10.098   5.863  0.0223 -0.0585 -0.1907
  162MOL0     O22226   5.211  10.092   5.819 -0.7279  0.3361  0.0040
  162MOL0     C22227   5.259  10.228   5.797 -0.7604  0.0632 -0.9291
  162MOL0     C22228   5.384  10.229   5.704  0.8203  0.5357 -0.0006
  162MOL0     C22229   5.472  10.358   5.737 -0.5337 -0.1010  0.3783
  162MOL0     C22230   5.586  10.352   5.633  0.5879 -0.1366 -0.4269
  162MOL0     C22231   5.662  10.481   5.614  0.0150  0.3455 -0.3642
  162MOL0     C22232   5.804  10.453   5.566  0.1857  0.2738  0.2695
  162MOL0     C22233   5.911  10.446   5.666  0.0291 -0.9407  0.7827
  162MOL0     C22234   5.890  10.348   5.772 -1.0617  0.5888 -0.4667
  162MOL0     N22235   6.004  10.346   5.877 -0.9969 -0.1769  0.0672
  162MOL0     C22236   6.022  10.436   5.977 -1.0975 -0.2260 -0.0174
  162MOL0     C22237   6.149  10.414   6.019 -0.0246  0.5916  0.3066
  162MOL0     C22238   6.215  10.502   6.120  0.6158  0.1221 -0.5011
  162MOL0     C22239   6.303  10.418   6.209 -0.5114  0.1748  0.5048
  162MOL0     C22240   6.400  10.487   6.303 -0.6452 -0.2498  0.1849
  162MOL0     C22241   6.500  10.583   6.232  0.2651 -0.2508  0.3735
  162MOL0     O22242   6.607  10.612   6.320  0.9630 -0.3940 -0.2724
  162MOL0     C22243   6.727  10.668   6.278  0.1419  0.0051  0.3430
  162MOL0     C22244   6.821  10.700   6.378 -0.8865  0.7589  0.4842
  162MOL0     C22245   6.945  10.756   6.354  0.3661  0.3516 -0.5279
  162MOL0     C22246   7.045  10.747   6.467  0.4508  0.7426  0.5870
  162MOL0     C22247   6.988  10.787   6.222  0.3078 -0.1838 -0.4839
  162MOL0     C22248   7.114  10.846   6.189 -0.1864 -0.0838 -0.2849
  162MOL0     O22249   7.174  10.916   6.294 -0.4648 -0.2637  0.9743
  162MOL0     C22250   7.304  10.941   6.277 -1.0385 -0.4623  0.1703
  162MOL0     C22251   7.359  11.071   6.253  0.3786 -0.1731  1.0603
  162MOL0     C22252   7.499  11.095   6.239  0.9898 -0.2908  0.7003
  162MOL0     C22253   7.587  10.987   6.256 -0.0918  0.0636  0.4463
  162MOL0     O22254   7.723  11.007   6.234 -0.2946 -0.0214 -0.3053
  162MOL0     C22255   7.811  10.932   6.320 -0.4709  0.5882  0.0201
  162MOL0     C22256   7.938  11.019   6.326  0.2236 -0.3674 -0.1698
  162MOL0     C22257   8.018  10.984   6.457 -0.0020  1.1224  0.4403
  162MOL0     C22258   8.031  10.831   6.474 -0.2273  0.1175 -0.2314
  162MOL0     C22259   8.148  10.790   6.572  0.1655  0.5195 -0.2785
  162MOL0     C22260   8.113  10.842   6.703 -0.9088  0.6848  1.2177
  162MOL0     C22261   8.200  10.772   6.816  0.6340 -1.5784  0.2368
  162MOL0     C22262   8.113  10.734   6.942 -0.2090  0.2063 -1.0900
  162MOL0    Cl22263   8.053  10.877   7.031 -0.2865  0.0879  0.4868
  162MOL0     C22264   7.527  10.859   6.282 -0.4807  0.0191  0.1806
  162MOL0     C22265   7.389  10.837   6.299 -0.2554  0.0750  0.2221
  162MOL0     O22266   7.154  10.830   6.074  0.4946  0.9283 -0.1911
  162MOL0     C22267   6.890  10.750   6.120 -0.3498 -0.2067 -0.5748
  162MOL0     C22268   6.763  10.702   6.146 -0.6126 -0.3786  0.5706
  162MOL0     N22269   6.207  10.311   5.945 -0.1327 -0.0450 -0.8424
  162MOL0     N22270   6.128  10.278   5.861  0.0116 -0.4564  0.5711
  162MOL0     C22271   4.995  10.009   5.811  1.1870 -0.2896  0.6125
  162MOL0     C22272   4.859  10.006   5.842  0.6752  0.0275 -0.1916
  162MOL0     C22273   4.472  10.057   6.045  0.0249 -0.7893  0.0057
  162MOL0     C22274   4.446  10.195   6.075 -0.4617 -0.5658 -0.2613
  162MOL0     C22275   4.322  10.239   6.114  0.5130 -0.0078 -0.5334
  162MOL0     C22276   4.221  10.156   6.137 -0.1653  0.6694 -1.0764
  162MOL0     O22277   4.108  10.192   6.198  0.4510 -0.3778  0.0223
  162MOL0     C22278   4.067  10.326   6.198 -0.5232  0.0811 -0.2486
  162MOL0     C22279   3.923  10.336   6.256 -0.1116  0.0606  0.4457
  162MOL0     C22280   3.900  10.492   6.258  1.4405  0.3980  0.1681
  162MOL0     C22281   3.749  10.528   6.287  0.0580 -0.3768 -0.6051
  162MOL0     C22282   3.725  10.672   6.291  0.3838 -0.8610  0.3837
  162MOL0     C22283   3.711  10.787   6.317  0.2952 -0.9741 -0.0219
  162MOL0     C22284   4.231  10.016   6.115  0.6711 -0.0883 -0.3171
  162MOL0     C22285   4.355   9.969   6.058 -0.0684  0.0700  0.2927
  162MOL0     C22286   4.352   9.818   6.017 -0.4418 -0.6636 -0.0925
  162MOL0     H22287   4.857  10.276   6.055 -0.0421 -0.7988 -0.0624
  162MOL0     H22288   5.094  10.262   6.013 -2.2734  1.9730  1.5086
  162MOL0     H22289   5.283  10.252   5.901 -3.3814 -1.5553  0.1710
  162MOL0     H22290   5.177  10.293   5.764 -2.8229 -0.4755  2.5502
  162MOL0     H22291   5.444  10.138   5.706 -0.4477 -0.3250  0.2122
  162MOL0     H22292   5.339  10.257   5.608 -1.4147 -0.1739  0.7734
  162MOL0     H22293   5.425  10.457   5.743  1.5764  0.8731  2.7163
  162MOL0     H22294   5.506  10.339   5.840  0.4548  0.2834  0.1337
  162MOL0     H22295   5.652  10.271   5.667  0.1584 -0.3077  0.0197
  162MOL0     H22296   5.540  10.334   5.535 -0.6561 -0.4442  0.1848
  162MOL0     H22297   5.672  10.532   5.710  1.6046  0.5034 -0.5877
  162MOL0     H22298   5.606  10.539   5.541  0.7031 -0.6113 -1.7035
  162MOL0     H22299   5.803  10.355   5.517  2.3083  0.4727 -0.2800
  162MOL0     H22300   5.835  10.530   5.494  0.2082 -0.9987 -1.1348
  162MOL0     H22301   5.941  10.545   5.700  0.3542 -1.9712  3.8261
  162MOL0     H22302   6.003  10.417   5.613  1.3339 -3.7276  4.2177
  162MOL0     H22303   5.802  10.371   5.832 -1.7768 -1.0696 -0.8376
  162MOL0     H22304   5.878  10.251   5.723  0.5383 -0.4938  1.1389
  162MOL0     H22305   5.952  10.509   6.017 -0.7507 -0.6532  1.4001
  162MOL0     H22306   6.136  10.547   6.182 -0.0110 -1.9345  0.2641
  162MOL0     H22307   6.278  10.582   6.079  1.4706 -1.4075 -2.2819
  162MOL0     H22308   6.244  10.360   6.282  2.9275 -1.5013  2.1947
  162MOL0     H22309   6.360  10.351   6.144 -1.7680 -1.1539  0.7133
  162MOL0     H22310   6.338  10.544   6.374 -1.6138  2.0201 -2.2944
  162MOL0     H22311   6.463  10.412   6.352  1.5905 -0.4608 -2.7466
  162MOL0     H22312   6.545  10.540   6.142 -0.0183  2.5833 -1.2279
  162MOL0     H22313   6.448  10.673   6.199 -2.5984 -1.2183  1.9167
  162MOL0     H22314   6.800  10.674   6.481 -2.1185 -1.3227 -0.2159
  162MOL0     H22315   7.142  10.713   6.429  0.4519  1.9615 -0.6121
  162MOL0     H22316   7.007  10.672   6.536 -2.5783  0.2244 -1.4605
  162MOL0     H22317   7.058  10.841   6.522  1.8484  0.4037  0.8635
  162MOL0     H22318   7.299  11.161   6.265  0.7239  0.0220  1.3480
  162MOL0     H22319   7.529  11.199   6.240 -3.2105  1.1250  2.4454
  162MOL0     H22320   7.774  10.931   6.423 -0.9070  0.7359 -0.1343
  162MOL0     H22321   7.834  10.834   6.275  0.1049  0.8633 -0.2931
  162MOL0     H22322   7.984  10.999   6.229 -2.1958  0.1990 -1.5444
  162MOL0     H22323   7.904  11.123   6.330  0.0678 -0.3540 -1.3938
  162MOL0     H22324   7.968  11.035   6.541 -1.3076 -1.0495  1.0441
  162MOL0     H22325   8.121  11.018   6.440  1.3884 -1.9872  1.8605
  162MOL0     H22326   8.064  10.784   6.381  1.4824  0.3366  0.2271
  162MOL0     H22327   7.929  10.800   6.498  0.0526 -0.1559  0.6649
  162MOL0     H22328   8.168  10.682   6.570 -1.1579  0.2817 -1.2620
  162MOL0     H22329   8.247  10.834   6.555 -0.6164  2.5421  0.1912
  162MOL0     H22330   8.009  10.819   6.725 -1.2612  0.0246 -0.9537
  162MOL0     H22331   8.120  10.951   6.701  0.1758  0.6331 -1.2971
  162MOL0     H22332   8.280  10.842   6.842 -2.8579  2.5779  0.8401
  162MOL0     H22333   8.238  10.676   6.777 -2.2812 -2.7784  0.0980
  162MOL0     H22334   8.168  10.667   7.008 -1.6847  0.4152  0.4278
  162MOL0     H22335   8.030  10.675   6.901 -1.2775  1.4554 -0.7877
  162MOL0     H22336   7.591  10.775   6.309 -0.1217  0.1150 -0.3516
  162MOL0     H22337   7.364  10.733   6.320  0.9661  0.1936  2.6301
  162MOL0     H22338   6.906  10.763   6.014 -1.7318  0.1079 -0.7558
  162MOL0     H22339   6.693  10.689   6.065  1.0578 -1.3299 -0.7975
  162MOL0     H22340   5.046   9.937   5.748  1.4296 -0.7088  1.2818
  162MOL0     H22341   4.797   9.930   5.796  0.1518 -0.6994  1.6209
  162MOL0     H22342   4.519  10.275   6.068 -2.5608  1.9057  3.0785
  162MOL0     H22343   4.315  10.348   6.120 -1.0299 -0.1643  0.8777
  162MOL0     H22344   4.117  10.384   6.276 -0.0065 -1.5277  0.6627
  162MOL0     H22345   4.090  10.378   6.105 -0.7673  2.6341  1.0236
  162MOL0     H22346   3.917  10.305   6.361  1.0147  2.0948  1.1799
  162MOL0     H22347   3.845  10.281   6.204 -1.8873  1.0916  1.8977
  162MOL0     H22348   3.963  10.531   6.339  3.0042  2.4783 -1.9331
  162MOL0     H22349   3.924  10.531   6.159 -2.1646 -2.1461 -1.9646
  162MOL0     H22350   3.714  10.477   6.377  2.1686 -0.6458  0.0985
  162MOL0     H22351   3.686  10.484   6.209 -1.9137 -1.1202  1.2715
  162MOL0     H22352   3.704  10.889   6.350  0.6795 -0.7483 -0.6254
  162MOL0     H22353   4.163   9.938   6.147  2.3187 -1.3198  0.3397
  162MOL0     H22354   4.421   9.762   6.080 -3.2855 -3.0730  1.1522
  162MOL0     H22355   4.250   9.782   6.034 -0.2665 -0.2622  2.0854
  162MOL0     H22356   4.374   9.804   5.911  2.2856 -2.6320  0.6202
  163MOL0     O22357   9.992   4.822   7.862 -0.1535 -0.1509  0.4391
  163MOL0     C22358  10.091   4.859   7.917 -0.7199  0.4885  0.6386
  163MOL0     O22359  10.177   4.774   7.986  0.6294 -0.5799  0.0526
  163MOL0     C22360  10.249   4.686   7.920  0.2156  0.4534  0.0551
  163MOL0     C22361  10.338   4.615   7.998 -0.3503  0.2159  0.2512
  163MOL0     C22362  10.404   4.504   7.950  0.3000  0.7380 -0.4653
  163MOL0     C22363  10.389   4.455   7.815 -0.5659  0.1240 -0.5587
  163MOL0     O22364  10.449   4.353   7.751 -0.8059 -0.0296 -0.1259
  163MOL0     C22365  10.568   4.297   7.814 -0.2841 -0.0524  0.7850
  163MOL0     C22366  10.687   4.385   7.776  0.0695 -0.4117 -0.2606
  163MOL0     C22367  10.817   4.336   7.836 -0.0012 -0.3380 -0.2785
  163MOL0     C22368  10.938   4.425   7.804 -0.2444  0.4444 -0.2747
  163MOL0     C22369  11.061   4.372   7.861  0.1659 -0.5745  0.1985
  163MOL0     C22370  11.175   4.466   7.835 -0.5311  0.3152  0.2885
  163MOL0     C22371  11.312   4.426   7.903  0.1349  0.2900  0.2543
  163MOL0     C22372  11.406   4.339   7.807  0.4644  0.0077  0.0948
  163MOL0     N22373  11.530   4.305   7.881 -0.1533  0.0151  0.3090
  163MOL0     C22374  11.646   4.391   7.875  0.0037  0.1611 -0.2801
  163MOL0     C22375  11.736   4.343   7.961 -0.0204 -0.3290 -0.2970
  163MOL0     C22376  11.883   4.379   7.972 -0.3079 -0.2442  0.4496
  163MOL0     C22377  11.915   4.471   8.091  0.2519 -0.9883  0.2912
  163MOL0     C22378  12.071   4.488   8.105 -0.6163  0.6132 -0.3096
  163MOL0     C22379  12.105   4.590   8.200 -0.2992  0.5153  0.1093
  163MOL0     O22380  12.244   4.612   8.207 -0.1364 -0.1949  0.4099
  163MOL0     C22381  12.304   4.667   8.318 -0.1077 -0.2905 -0.8752
  163MOL0     C22382  12.255   4.781   8.387 -1.0689  0.6915 -0.4667
  163MOL0     C22383  12.336   4.847   8.480  0.2723 -0.5277  0.5686
  163MOL0     C22384  12.273   4.970   8.541 -0.1892 -0.1327 -0.4189
  163MOL0     C22385  12.472   4.806   8.510 -0.3667 -0.7622  0.3739
  163MOL0     C22386  12.552   4.864   8.627  0.1025  0.5688  0.7973
  163MOL0     O22387  12.650   4.769   8.675  0.1241  0.2551  0.5369
  163MOL0     C22388  12.710   4.788   8.790 -0.7813 -0.1209  0.3001
  163MOL0     C22389  12.671   4.706   8.895  0.2765 -0.5449 -0.0274
  163MOL0     C22390  12.707   4.747   9.027 -0.7212  0.4453  1.1114
  163MOL0     C22391  12.793   4.856   9.038 -0.6755 -0.0951 -0.5587
  163MOL0     O22392  12.841   4.890   9.161 -0.1446  0.3371  0.1946
  163MOL0     C22393  12.758   4.844   9.268 -0.1084 -0.0037  0.0496
  163MOL0     C22394  12.813   4.909   9.398  0.6190 -0.5006  0.6563
  163MOL0     C22395  12.721   4.893   9.518  1.2913 -0.0348  0.4246
  163MOL0     C22396  12.603   4.992   9.517 -0.0077  0.3872  0.0241
  163MOL0     C22397  12.643   5.141   9.518  0.5412 -0.1008  0.0992
  163MOL0     C22398  12.523   5.227   9.552  0.1962  0.1290  0.1921
  163MOL0     C22399  12.572   5.376   9.547 -0.3947  0.1815  0.1350
  163MOL0     C22400  12.465   5.482   9.555  0.0973 -0.2378  0.0244
  163MOL0    Cl22401  12.361   5.469   9.411 -0.5382 -0.5455  0.1037
  163MOL0     C22402  12.845   4.931   8.932  0.0390 -0.4781 -0.1347
  163MOL0     C22403  12.797   4.897   8.803 -0.4070  0.0188 -0.5360
  163MOL0     O22404  12.526   4.973   8.678 -0.7063 -0.0950  0.0050
  163MOL0     C22405  12.517   4.695   8.432 -0.1080 -0.1970 -0.6250
  163MOL0     C22406  12.431   4.630   8.334  0.4417  0.0857  0.1041
  163MOL0     N22407  11.663   4.253   8.035 -0.2023  0.8142  0.1819
  163MOL0     N22408  11.540   4.233   7.996 -0.2226 -0.1628  0.0890
  163MOL0     C22409  10.330   4.547   7.736  0.3297 -0.4629 -0.4790
  163MOL0     C22410  10.253   4.648   7.791  0.6395 -0.9668 -0.3509
  163MOL0     C22411  10.141   4.999   7.907 -0.5473 -0.8295  0.5836
  163MOL0     C22412  10.280   5.024   7.942  0.8062 -0.6271 -1.0879
  163MOL0     C22413  10.331   5.159   7.931 -1.3053  0.1285 -0.1259
  163MOL0     C22414  10.251   5.270   7.882 -0.4866 -0.6152 -0.1339
  163MOL0     O22415  10.281   5.404   7.869  0.6278  0.0972  0.0484
  163MOL0     C22416  10.419   5.435   7.897  0.2374  0.0965 -0.5519
  163MOL0     C22417  10.450   5.567   7.827 -0.4141 -0.6917 -1.0688
  163MOL0     C22418  10.583   5.629   7.889  0.2596  1.0767 -0.0089
  163MOL0     C22419  10.712   5.549   7.885 -0.6057  0.8975 -0.1161
  163MOL0     C22420  10.751   5.552   7.746  0.4847 -0.5868  0.7416
  163MOL0     C22421  10.783   5.569   7.633 -0.5354 -0.2842  0.0497
  163MOL0     C22422  10.119   5.234   7.851 -0.0254  0.0609  0.4562
  163MOL0     C22423  10.065   5.105   7.853  1.4055 -0.0684 -0.1344
  163MOL0     C22424   9.928   5.095   7.784  0.2580 -0.8021  0.7417
  163MOL0     H22425  10.347   4.626   8.106  0.8224 -1.4115  0.3604
  163MOL0     H22426  10.448   4.454   8.035 -1.4950  1.3168  0.8766
  163MOL0     H22427  10.588   4.197   7.776  0.7177 -0.8783  3.3192
  163MOL0     H22428  10.565   4.286   7.922  1.3072  1.5646  1.0442
  163MOL0     H22429  10.698   4.385   7.667 -3.9119  0.6342 -0.8098
  163MOL0     H22430  10.662   4.482   7.819  0.6757 -0.8144  1.0529
  163MOL0     H22431  10.801   4.339   7.945  4.0606  0.1873  0.4751
  163MOL0     H22432  10.839   4.232   7.808 -1.6639 -0.7127 -0.3010
  163MOL0     H22433  10.955   4.425   7.696 -0.2881 -1.6043 -0.3229
  163MOL0     H22434  10.916   4.528   7.833  1.2761  0.5594  0.5309
  163MOL0     H22435  11.071   4.273   7.818 -0.0895 -0.7103  0.4431
  163MOL0     H22436  11.042   4.365   7.969 -1.0130 -0.8935 -0.0119
  163MOL0     H22437  11.188   4.470   7.726 -0.6534 -1.5645  0.1798
  163MOL0     H22438  11.149   4.569   7.863  0.9867  0.9598 -0.5238
  163MOL0     H22439  11.284   4.366   7.990  0.2165 -0.0870  0.0198
  163MOL0     H22440  11.364   4.516   7.938  3.4326 -0.4728 -2.1567
  163MOL0     H22441  11.353   4.249   7.776 -0.4693  0.7814 -0.6386
  163MOL0     H22442  11.420   4.391   7.711  0.7612 -0.7711 -0.2974
  163MOL0     H22443  11.660   4.467   7.798 -0.1964 -2.0015 -2.6116
  163MOL0     H22444  11.924   4.423   7.880 -1.0593 -2.5971 -1.1091
  163MOL0     H22445  11.938   4.285   7.982 -0.1904  0.0521  3.1620
  163MOL0     H22446  11.869   4.568   8.069  0.8060 -0.8173 -0.1485
  163MOL0     H22447  11.874   4.435   8.185 -1.3837  0.5246  0.2245
  163MOL0     H22448  12.106   4.391   8.139 -1.8109  1.2193  2.9660
  163MOL0     H22449  12.107   4.515   8.005  1.6901  2.0119  0.8321
  163MOL0     H22450  12.065   4.681   8.155  3.0225  2.5020  0.8609
  163MOL0     H22451  12.045   4.582   8.291 -1.4987  0.1323 -0.6852
  163MOL0     H22452  12.151   4.810   8.371 -1.3175  1.5364  2.2051
  163MOL0     H22453  12.348   5.050   8.544 -0.8831  0.5351  2.0806
  163MOL0     H22454  12.227   4.947   8.638  1.6596 -1.0806  0.3088
  163MOL0     H22455  12.197   5.015   8.477  1.7456  1.3189 -1.8217
  163MOL0     H22456  12.608   4.621   8.871  1.0215 -1.3446  0.7687
  163MOL0     H22457  12.660   4.691   9.108 -2.0250  0.7789  0.6127
  163MOL0     H22458  12.655   4.875   9.249 -0.2341  0.0368  0.7568
  163MOL0     H22459  12.749   4.736   9.284 -0.1088 -0.0420 -0.2176
  163MOL0     H22460  12.905   4.860   9.432 -0.0428 -0.6899  2.2396
  163MOL0     H22461  12.831   5.014   9.373 -1.6132  0.4406  2.5814
  163MOL0     H22462  12.754   4.904   9.622  1.5130 -0.7461  0.4362
  163MOL0     H22463  12.677   4.794   9.508  0.2786  0.6409 -3.0244
  163MOL0     H22464  12.545   4.968   9.607 -2.7045 -0.5283 -1.8669
  163MOL0     H22465  12.540   4.982   9.429 -1.3092 -0.0742  0.9798
  163MOL0     H22466  12.725   5.143   9.591  0.0862  0.2631  0.6119
  163MOL0     H22467  12.681   5.172   9.420  0.7810 -2.2995 -0.5576
  163MOL0     H22468  12.484   5.201   9.651 -1.6381  0.3261 -0.4350
  163MOL0     H22469  12.447   5.205   9.476  1.1107 -1.8163 -0.2194
  163MOL0     H22470  12.636   5.389   9.459  0.9519 -1.5143  0.7908
  163MOL0     H22471  12.636   5.397   9.634 -0.5644  1.7849 -0.0958
  163MOL0     H22472  12.505   5.584   9.556 -1.0849  0.3015 -2.2939
  163MOL0     H22473  12.410   5.467   9.648 -0.8208  1.7437 -0.1624
  163MOL0     H22474  12.916   5.011   8.950 -2.0144  0.5671  5.5557
  163MOL0     H22475  12.825   4.955   8.716  1.2984  0.4135  0.2225
  163MOL0     H22476  12.614   4.649   8.445 -1.8612 -3.9864  0.2543
  163MOL0     H22477  12.463   4.541   8.280  4.7388  0.5676  1.4849
  163MOL0     H22478  10.342   4.524   7.631 -1.7116 -3.2697 -0.2147
  163MOL0     H22479  10.191   4.704   7.722 -0.4661 -0.3563  1.0820
  163MOL0     H22480  10.344   4.952   7.992  0.0846  0.4374  1.5745
  163MOL0     H22481  10.433   5.175   7.966 -1.0822  1.1176 -1.1457
  163MOL0     H22482  10.434   5.450   8.004 -1.7782 -1.0660 -0.0539
  163MOL0     H22483  10.484   5.352   7.866  1.6131  0.3164  1.5551
  163MOL0     H22484  10.372   5.641   7.848 -0.0752 -1.1958  2.6580
  163MOL0     H22485  10.455   5.557   7.718  2.2673  0.6232 -1.1312
  163MOL0     H22486  10.586   5.727   7.839 -1.3282  0.4359 -1.4426
  163MOL0     H22487  10.578   5.637   7.998 -2.5958  3.5304 -0.2060
  163MOL0     H22488  10.693   5.449   7.924 -1.7621  0.8044 -0.8583
  163MOL0     H22489  10.794   5.589   7.945  0.6986 -3.8339  1.7750
  163MOL0     H22490  10.810   5.597   7.533  0.8662  1.6882  0.9150
  163MOL0     H22491  10.049   5.310   7.816 -0.5646 -1.5447 -2.3235
  163MOL0     H22492   9.899   5.193   7.745  0.1236 -0.9152  0.5556
  163MOL0     H22493   9.934   5.031   7.695 -0.0184  0.6791 -0.3663
  163MOL0     H22494   9.853   5.060   7.855 -0.5849  1.8932  1.2585
  164MOL0     O22495   6.295   0.578   5.246 -0.1629  0.0386 -0.5700
  164MOL0     C22496   6.289   0.694   5.291  0.3397 -0.4646  0.2402
  164MOL0     O22497   6.387   0.772   5.335  0.2623  0.6202  0.3041
  164MOL0     C22498   6.523   0.736   5.346  0.0186  0.3204  1.4768
  164MOL0     C22499   6.615   0.800   5.266 -0.1154  0.5307  0.8688
  164MOL0     C22500   6.753   0.780   5.284  0.1393 -0.6735  0.0428
  164MOL0     C22501   6.793   0.691   5.377 -0.4681  0.1441 -0.6436
  164MOL0     O22502   6.929   0.685   5.400  0.1583 -0.0061 -0.5138
  164MOL0     C22503   6.994   0.567   5.448  0.5070  0.6503  0.4199
  164MOL0     C22504   7.031   0.575   5.609 -0.7670  0.4756 -0.0639
  164MOL0     C22505   7.043   0.436   5.682  0.0437  0.3679 -0.8005
  164MOL0     C22506   7.086   0.431   5.828 -0.7136 -0.5178 -0.5385
  164MOL0     C22507   7.234   0.477   5.848 -0.1685 -0.0723  0.2984
  164MOL0     C22508   7.297   0.467   5.988  0.2449  0.5540  0.4953
  164MOL0     C22509   7.442   0.509   5.991  0.3038 -0.0102 -0.4369
  164MOL0     C22510   7.512   0.447   6.107  0.3713  0.3100  0.8156
  164MOL0     N22511   7.649   0.501   6.120  0.0783 -0.6209 -0.1568
  164MOL0     C22512   7.754   0.450   6.053  0.1637 -0.0324  0.2336
  164MOL0     C22513   7.853   0.526   6.091  0.1737 -0.3451  0.0752
  164MOL0     C22514   7.982   0.533   6.010 -0.2162  0.2317 -0.5759
  164MOL0     C22515   7.996   0.414   5.910 -0.8333 -0.0713 -0.0643
  164MOL0     C22516   8.149   0.409   5.863 -0.0828 -0.5252  0.9213
  164MOL0     C22517   8.262   0.365   5.968 -0.3799  0.8874  0.7483
  164MOL0     O22518   8.263   0.211   5.959  0.5452  0.0431  0.7148
  164MOL0     C22519   8.380   0.144   5.975  0.2262  0.7359 -0.0126
  164MOL0     C22520   8.489   0.200   6.045  0.2368 -0.3269  0.2228
  164MOL0     C22521   8.616   0.141   6.044 -0.7573 -0.9810 -0.1324
  164MOL0     C22522   8.713   0.222   6.130 -0.7763  0.0016 -0.5852
  164MOL0     C22523   8.632   0.013   5.996 -1.0119  0.4450 -0.6183
  164MOL0     C22524   8.757  -0.071   6.010  0.4061  0.0271  0.2979
  164MOL0     O22525   8.754  -0.194   5.946  0.0963  0.4745 -0.0521
  164MOL0     C22526   8.857  -0.285   5.961  0.3882 -0.2200 -0.0473
  164MOL0     C22527   8.885  -0.323   6.092  0.2344 -0.2514  0.7734
  164MOL0     C22528   8.982  -0.415   6.114 -0.4762  1.0035  0.5228
  164MOL0     C22529   9.063  -0.466   6.011  0.5644  0.1369  0.6639
  164MOL0     O22530   9.187  -0.533   6.026  0.0201  0.6374  0.3128
  164MOL0     C22531   9.253  -0.515   6.151  0.0744  0.6162 -0.1293
  164MOL0     C22532   9.205  -0.618   6.255 -0.5721  0.7244  0.4024
  164MOL0     C22533   9.271  -0.753   6.213  0.2397 -0.1237  0.5250
  164MOL0     C22534   9.221  -0.861   6.301 -0.3088 -0.2611  0.0349
  164MOL0     C22535   9.276  -0.994   6.257  0.0237  0.1441 -0.7101
  164MOL0     C22536   9.424  -0.990   6.284  0.1536  0.1354  0.3406
  164MOL0     C22537   9.486  -1.133   6.279 -0.0088 -0.4139 -0.3788
  164MOL0     C22538   9.633  -1.138   6.247  0.3904 -0.0562  0.3228
  164MOL0    Cl22539   9.725  -1.025   6.348 -0.3611  0.1419 -0.1446
  164MOL0     C22540   9.027  -0.427   5.882  0.2133 -0.1998  1.2739
  164MOL0     C22541   8.923  -0.343   5.853  0.4417 -0.9037  0.3223
  164MOL0     O22542   8.857  -0.025   6.061 -0.2842 -0.3885 -0.5980
  164MOL0     C22543   8.522  -0.052   5.932 -0.1709  0.4511  0.1757
  164MOL0     C22544   8.396   0.020   5.925  1.2395  0.3450  0.2351
  164MOL0     N22545   7.816   0.621   6.185  0.0641  0.1193 -0.6460
  164MOL0     N22546   7.698   0.591   6.216  0.7957  1.0077  0.3929
  164MOL0     C22547   6.702   0.621   5.447 -0.1490 -0.5035  0.5036
  164MOL0     C22548   6.563   0.648   5.437  0.7286 -0.1225  0.9830
  164MOL0     C22549   6.154   0.742   5.308 -0.1140 -0.5279 -0.7915
  164MOL0     C22550   6.085   0.734   5.430 -0.4469 -0.1297 -0.3474
  164MOL0     C22551   5.969   0.801   5.452 -0.0661  1.0261  0.0863
  164MOL0     C22552   5.908   0.877   5.353 -0.2750 -0.1579  0.5458
  164MOL0     O22553   5.787   0.943   5.365  0.6826  0.0525  0.6352
  164MOL0     C22554   5.677   0.880   5.432 -0.5833 -0.5037  0.4040
  164MOL0     C22555   5.563   0.974   5.460  0.4441  0.0101 -0.5006
  164MOL0     C22556   5.457   0.906   5.554 -0.9374  0.0546  0.6136
  164MOL0     C22557   5.470   0.923   5.708 -0.0290 -0.0299 -0.3023
  164MOL0     C22558   5.336   0.921   5.775 -0.1394  0.9284  0.7942
  164MOL0     C22559   5.225   0.921   5.826 -0.3816 -0.8340 -0.5031
  164MOL0     C22560   5.967   0.890   5.230 -0.4672 -0.7303 -0.1137
  164MOL0     C22561   6.093   0.827   5.213  0.3069  0.3466  0.7612
  164MOL0     C22562   6.146   0.840   5.068 -0.2418  0.5080 -0.7935
  164MOL0     H22563   6.573   0.872   5.197 -1.3221  3.3129  4.2220
  164MOL0     H22564   6.821   0.831   5.216  1.1551  0.9556  2.1586
  164MOL0     H22565   7.093   0.565   5.402 -0.0941  1.3305 -0.9835
  164MOL0     H22566   6.949   0.474   5.413  2.6742  0.4559 -2.1334
  164MOL0     H22567   7.127   0.627   5.616 -1.0935  0.8757  2.2048
  164MOL0     H22568   6.962   0.638   5.667 -0.9803  2.3125 -2.1762
  164MOL0     H22569   6.940   0.402   5.697  0.6492 -0.9451  0.7117
  164MOL0     H22570   7.104   0.366   5.623 -0.3678 -0.7079  0.0062
  164MOL0     H22571   7.032   0.504   5.889 -0.4748 -1.9222  1.4578
  164MOL0     H22572   7.067   0.332   5.872 -1.1102 -0.6587 -1.0292
  164MOL0     H22573   7.251   0.577   5.807  1.0699  0.7242  2.5689
  164MOL0     H22574   7.283   0.406   5.781 -1.7051  0.4055 -1.4001
  164MOL0     H22575   7.234   0.519   6.061 -1.1670 -0.7054  0.2450
  164MOL0     H22576   7.277   0.362   6.009 -1.3730  0.2351 -2.1904
  164MOL0     H22577   7.447   0.617   6.007 -0.8776 -0.1982  1.4928
  164MOL0     H22578   7.503   0.489   5.902 -0.3766 -1.4709 -0.6065
  164MOL0     H22579   7.466   0.473   6.203  0.9524  1.4561  0.8060
  164MOL0     H22580   7.508   0.338   6.099  1.2951  0.2353  1.1821
  164MOL0     H22581   7.756   0.377   5.973  2.1499 -0.6209  0.7748
  164MOL0     H22582   8.063   0.527   6.083  0.1458 -2.5754 -1.1126
  164MOL0     H22583   7.989   0.627   5.954 -2.4226 -0.4277 -2.1234
  164MOL0     H22584   7.971   0.318   5.957 -2.8078  1.4973  2.3214
  164MOL0     H22585   7.939   0.426   5.817  0.4683  2.0022 -0.6767
  164MOL0     H22586   8.153   0.337   5.781 -0.4397 -2.4492  2.5094
  164MOL0     H22587   8.182   0.508   5.833  2.6419 -0.2583  4.1737
  164MOL0     H22588   8.352   0.410   5.925  0.5147  0.5026  2.1625
  164MOL0     H22589   8.240   0.402   6.069 -0.7920 -1.6422  1.6543
  164MOL0     H22590   8.468   0.294   6.095 -0.1060 -0.6461  0.6811
  164MOL0     H22591   8.733   0.179   6.228  3.3508 -1.1200 -1.7070
  164MOL0     H22592   8.678   0.323   6.151  0.4351 -0.3057  3.9704
  164MOL0     H22593   8.815   0.227   6.089  0.2700 -3.6933  1.1559
  164MOL0     H22594   8.814  -0.289   6.167 -2.3759 -2.4650 -0.5084
  164MOL0     H22595   9.006  -0.423   6.220 -1.4609 -3.3039  0.6152
  164MOL0     H22596   9.362  -0.520   6.139  0.2893 -1.4808  1.9960
  164MOL0     H22597   9.229  -0.421   6.201 -0.4295  1.5282 -1.9923
  164MOL0     H22598   9.242  -0.592   6.354  0.0818 -0.9092  0.6135
  164MOL0     H22599   9.096  -0.631   6.262 -0.3498 -0.4227  2.0589
  164MOL0     H22600   9.379  -0.738   6.220 -0.1195  2.6838  1.4146
  164MOL0     H22601   9.252  -0.773   6.107  1.5408  2.8948 -0.3957
  164MOL0     H22602   9.112  -0.862   6.308 -0.4434  3.1637 -0.1768
  164MOL0     H22603   9.246  -0.838   6.405 -2.7997  0.3422  0.5608
  164MOL0     H22604   9.227  -1.074   6.313 -0.9920  0.2350 -1.4522
  164MOL0     H22605   9.265  -1.013   6.149 -2.6610 -0.6024 -0.3597
  164MOL0     H22606   9.458  -0.950   6.380  1.6549  1.3566 -0.6255
  164MOL0     H22607   9.468  -0.929   6.204  0.1821  1.1511  1.0993
  164MOL0     H22608   9.429  -1.192   6.207 -1.9990 -0.2199  0.9750
  164MOL0     H22609   9.481  -1.178   6.378 -1.1257  0.7852  0.1280
  164MOL0     H22610   9.637  -1.106   6.143 -1.2631 -0.5875  0.0622
  164MOL0     H22611   9.667  -1.242   6.256  1.1392  0.2129  0.7052
  164MOL0     H22612   9.096  -0.451   5.802 -0.0360 -0.6871  1.1973
  164MOL0     H22613   8.905  -0.300   5.755 -1.4141  2.3120  1.9203
  164MOL0     H22614   8.531  -0.159   5.917 -0.0466  0.4413  0.3131
  164MOL0     H22615   8.306  -0.031   5.894  1.7506 -1.3932  1.4472
  164MOL0     H22616   6.733   0.546   5.519 -0.7033  1.0671  2.4593
  164MOL0     H22617   6.482   0.609   5.498 -2.4563  1.9769 -1.5961
  164MOL0     H22618   6.124   0.682   5.516 -1.2515 -1.2020 -0.6131
  164MOL0     H22619   5.940   0.799   5.556  0.2219 -0.0626  0.1653
  164MOL0     H22620   5.634   0.797   5.375  0.2140 -2.7706  2.9224
  164MOL0     H22621   5.722   0.829   5.517  2.8272 -2.8738 -2.5123
  164MOL0     H22622   5.513   0.992   5.364 -0.0936 -3.0675 -0.8723
  164MOL0     H22623   5.593   1.068   5.508 -2.5893  0.6814  0.3263
  164MOL0     H22624   5.366   0.953   5.514 -0.8451 -0.3593 -0.0981
  164MOL0     H22625   5.434   0.801   5.533  2.4340 -0.9551  1.4432
  164MOL0     H22626   5.519   1.018   5.734 -1.5625  0.6521  0.2286
  164MOL0     H22627   5.533   0.842   5.746  2.0510  1.2700 -0.8481
  164MOL0     H22628   5.137   0.927   5.887  1.6757 -1.1929  2.6934
  164MOL0     H22629   5.910   0.934   5.149  0.3627  1.2733  0.3538
  164MOL0     H22630   6.214   0.758   5.044  0.9264  1.8909 -2.4889
  164MOL0     H22631   6.068   0.824   4.992 -1.1098  1.0470 -0.0317
  164MOL0     H22632   6.203   0.933   5.062  0.5082  0.2386  1.4939
  165MOL0     O22633   4.584   1.892   4.502 -0.3892 -0.1461 -0.4695
  165MOL0     C22634   4.572   1.890   4.380 -0.7115 -0.3591 -0.7202
  165MOL0     O22635   4.678   1.867   4.286 -0.1279  0.1661 -0.5809
  165MOL0     C22636   4.806   1.916   4.292  0.4591  0.1092  0.7511
  165MOL0     C22637   4.817   2.056   4.296  0.2311 -0.0060  1.1572
  165MOL0     C22638   4.943   2.108   4.308  0.2833  0.6860 -0.4024
  165MOL0     C22639   5.057   2.024   4.302  0.6237 -0.7123  0.0788
  165MOL0     O22640   5.170   2.097   4.302 -1.1621  0.1832 -0.4772
  165MOL0     C22641   5.272   2.042   4.214 -0.1625 -0.8760  0.7374
  165MOL0     C22642   5.331   2.163   4.153  0.5397 -0.1190  0.7079
  165MOL0     C22643   5.471   2.121   4.104  0.6264  0.0065 -0.0250
  165MOL0     C22644   5.568   2.231   4.069  0.1511  0.1945  0.0721
  165MOL0     C22645   5.704   2.164   4.023  0.6178  0.6616 -0.1469
  165MOL0     C22646   5.791   2.275   3.972 -0.5104  0.2589 -0.5974
  165MOL0     C22647   5.920   2.217   3.905  0.2905 -0.3918  0.0162
  165MOL0     C22648   6.010   2.315   3.828  1.2105  0.7185 -0.2183
  165MOL0     N22649   5.933   2.420   3.767 -0.9225 -0.3973  1.1086
  165MOL0     C22650   5.829   2.409   3.688  0.4458 -0.1353  0.4362
  165MOL0     C22651   5.783   2.533   3.667  0.1867  0.0173 -0.3314
  165MOL0     C22652   5.664   2.571   3.582 -0.1649 -0.2384 -0.7909
  165MOL0     C22653   5.543   2.583   3.667  0.7053 -0.1488  0.0744
  165MOL0     C22654   5.416   2.576   3.575 -0.0314  0.5238  0.2664
  165MOL0     C22655   5.300   2.625   3.663 -0.0582 -0.0953 -0.8354
  165MOL0     O22656   5.171   2.578   3.628  0.0801 -0.6180  0.7866
  165MOL0     C22657   5.064   2.609   3.712 -0.4234  0.5436  0.2167
  165MOL0     C22658   5.069   2.687   3.835 -0.5644 -0.6934  0.1908
  165MOL0     C22659   4.958   2.728   3.912 -0.7329 -0.2112 -0.1429
  165MOL0     C22660   4.983   2.822   4.024 -0.0810  0.1369 -0.1091
  165MOL0     C22661   4.835   2.670   3.870  0.9164  0.5872 -0.2338
  165MOL0     C22662   4.703   2.693   3.936 -0.1024  0.1559  0.8468
  165MOL0     O22663   4.688   2.803   4.014  0.2450 -0.1504 -0.3190
  165MOL0     C22664   4.572   2.834   4.073 -0.5122  0.1846 -0.2140
  165MOL0     C22665   4.561   2.857   4.205  0.8075 -0.3536  0.0195
  165MOL0     C22666   4.430   2.883   4.264 -0.1876  0.5982  0.4499
  165MOL0     C22667   4.314   2.902   4.188 -0.2297  0.3043 -0.1677
  165MOL0     O22668   4.201   2.955   4.248  0.4928  0.4794 -0.1918
  165MOL0     C22669   4.068   2.944   4.184  0.1110  0.0112 -0.6550
  165MOL0     C22670   3.988   3.061   4.240 -0.0490 -0.1684  0.6046
  165MOL0     C22671   3.847   3.062   4.165  0.2473  0.1321 -0.0991
  165MOL0     C22672   3.752   3.179   4.214 -0.2759  0.1839 -0.5925
  165MOL0     C22673   3.614   3.183   4.145  0.0626  0.0241  1.3357
  165MOL0     C22674   3.504   3.112   4.227 -1.3423  0.5229 -0.6260
  165MOL0     C22675   3.366   3.124   4.153 -0.3036  0.1492  0.2432
  165MOL0     C22676   3.252   3.046   4.212  0.1206 -0.0505 -0.7547
  165MOL0    Cl22677   3.287   2.879   4.242  0.1169  0.1556 -0.0265
  165MOL0     C22678   4.324   2.876   4.045 -0.1984 -0.2314  0.3123
  165MOL0     C22679   4.452   2.850   3.994 -0.2975 -0.2124  0.0642
  165MOL0     O22680   4.619   2.606   3.908  0.0410 -0.0977 -0.0405
  165MOL0     C22681   4.832   2.578   3.758 -0.6118  0.9220  0.1995
  165MOL0     C22682   4.944   2.559   3.676  0.8661  0.3779  0.2789
  165MOL0     N22683   5.873   2.621   3.720  0.3989 -0.3565 -0.4002
  165MOL0     N22684   5.948   2.553   3.797 -0.9118  0.0403  0.0757
  165MOL0     C22685   5.039   1.888   4.301 -0.0876  0.2904  0.6997
  165MOL0     C22686   4.915   1.836   4.300  0.2258  0.2480 -0.5517
  165MOL0     C22687   4.434   1.893   4.316  0.1917  0.1277 -0.9031
  165MOL0     C22688   4.420   1.924   4.174 -0.2553  0.3222 -0.3055
  165MOL0     C22689   4.298   1.927   4.105 -0.1940 -0.4181  0.2472
  165MOL0     C22690   4.182   1.911   4.176  0.3731 -0.0264  0.5642
  165MOL0     O22691   4.067   1.916   4.106 -0.0694  0.4371 -0.5021
  165MOL0     C22692   4.018   1.786   4.065 -0.5068 -0.5067 -0.2085
  165MOL0     C22693   3.871   1.793   4.005 -1.2358  0.2075 -0.4743
  165MOL0     C22694   3.844   1.860   3.872 -0.1318 -0.1395  0.5718
  165MOL0     C22695   3.706   1.846   3.808  0.0061  0.8057 -0.5769
  165MOL0     C22696   3.688   1.928   3.688  0.3837  1.3069 -0.2199
  165MOL0     C22697   3.675   1.982   3.576 -0.7652  0.0071 -1.2626
  165MOL0     C22698   4.191   1.884   4.308  0.0436 -0.2564 -0.1953
  165MOL0     C22699   4.312   1.874   4.383 -0.4236  0.0076 -0.0803
  165MOL0     C22700   4.304   1.853   4.533  0.1475 -0.5725  0.4313
  165MOL0     H22701   4.727   2.116   4.284  0.7442  0.2304 -3.9559
  165MOL0     H22702   4.970   2.211   4.325 -0.4705  1.0167 -1.1426
  165MOL0     H22703   5.213   2.004   4.130 -1.6846 -1.5655  2.0595
  165MOL0     H22704   5.338   1.966   4.258  0.6377  1.0300  2.9936
  165MOL0     H22705   5.273   2.220   4.080  0.8262  1.8240  1.9128
  165MOL0     H22706   5.340   2.237   4.233  0.1841 -0.3352  0.9508
  165MOL0     H22707   5.522   2.076   4.190 -1.5120 -1.6177  0.4652
  165MOL0     H22708   5.463   2.051   4.020 -3.3229  0.7228 -0.4212
  165MOL0     H22709   5.544   2.291   3.980  0.0534  0.8598  0.5442
  165MOL0     H22710   5.578   2.298   4.154  1.0621  0.7170 -0.4197
  165MOL0     H22711   5.678   2.099   3.939 -0.1213  1.1199 -0.2814
  165MOL0     H22712   5.752   2.105   4.102 -1.0498  1.0632  1.2239
  165MOL0     H22713   5.727   2.325   3.899 -1.9939 -2.2046 -1.1256
  165MOL0     H22714   5.829   2.346   4.046 -0.5369  2.5529 -2.6864
  165MOL0     H22715   5.879   2.145   3.833  0.1617 -1.7884  1.4248
  165MOL0     H22716   5.991   2.159   3.964  2.4720  0.6375 -1.4575
  165MOL0     H22717   6.069   2.363   3.907  2.8082 -0.0305 -0.9199
  165MOL0     H22718   6.064   2.257   3.753  0.5070  1.2435 -1.1578
  165MOL0     H22719   5.793   2.309   3.669  3.2449 -0.8134 -2.0673
  165MOL0     H22720   5.644   2.492   3.510  1.1528 -0.5925 -0.7905
  165MOL0     H22721   5.675   2.670   3.535 -0.9245  0.1741 -0.1371
  165MOL0     H22722   5.543   2.506   3.744 -0.4491  0.3326  0.5910
  165MOL0     H22723   5.547   2.676   3.724  0.7130 -0.6831  0.9516
  165MOL0     H22724   5.414   2.638   3.485 -0.4395  0.8012  0.4655
  165MOL0     H22725   5.403   2.470   3.554  1.9895 -0.3450  2.8802
  165MOL0     H22726   5.313   2.571   3.757 -3.8987 -0.1315 -0.1469
  165MOL0     H22727   5.303   2.732   3.686 -2.8680 -0.4272  1.6441
  165MOL0     H22728   5.171   2.720   3.854  0.8874 -4.6659  0.3988
  165MOL0     H22729   5.090   2.820   4.049 -0.6231  1.3224  2.5643
  165MOL0     H22730   4.948   2.780   4.118 -3.3240 -2.2134 -2.1568
  165MOL0     H22731   4.946   2.923   4.007 -0.8162  0.5630  3.4425
  165MOL0     H22732   4.643   2.872   4.275  0.6256  3.6267 -0.3807
  165MOL0     H22733   4.433   2.887   4.373  1.0977 -0.5755  0.4802
  165MOL0     H22734   4.076   2.957   4.075 -2.1427  2.3166 -0.6362
  165MOL0     H22735   4.024   2.844   4.189 -0.0016 -0.1776 -3.4761
  165MOL0     H22736   3.966   3.050   4.347  1.5776 -0.4268  0.9453
  165MOL0     H22737   4.043   3.155   4.229  0.8954 -0.5169  2.0203
  165MOL0     H22738   3.800   2.964   4.176 -1.2552  0.4877 -2.4849
  165MOL0     H22739   3.866   3.056   4.057 -1.2438 -1.0212 -0.3399
  165MOL0     H22740   3.801   3.270   4.179  0.9776 -0.2951 -0.1472
  165MOL0     H22741   3.737   3.182   4.323 -0.8308 -2.8378 -0.4899
  165MOL0     H22742   3.579   3.286   4.131 -0.4830 -0.3830 -0.6765
  165MOL0     H22743   3.610   3.130   4.049  3.0115  1.2359  0.4396
  165MOL0     H22744   3.488   3.162   4.323 -3.1603  2.4316 -1.8266
  165MOL0     H22745   3.528   3.010   4.256 -1.6374  0.5432 -0.2948
  165MOL0     H22746   3.397   3.095   4.052 -0.6539 -2.4209  0.8070
  165MOL0     H22747   3.331   3.227   4.152 -0.4283  0.1127  0.8455
  165MOL0     H22748   3.161   3.053   4.152 -0.9711  3.5426  1.0134
  165MOL0     H22749   3.229   3.084   4.311 -1.4158  1.1240 -1.5226
  165MOL0     H22750   4.232   2.878   3.988 -1.8678 -0.9438  2.7787
  165MOL0     H22751   4.471   2.848   3.887 -1.3170 -0.3091 -0.1272
  165MOL0     H22752   4.741   2.535   3.718 -0.2721  1.2880 -1.0227
  165MOL0     H22753   4.950   2.487   3.595  0.0718  0.9445 -0.2963
  165MOL0     H22754   5.130   1.830   4.313 -0.1412  0.4161  1.7985
  165MOL0     H22755   4.887   1.732   4.311 -1.3239  0.4377 -2.0976
  165MOL0     H22756   4.506   1.946   4.112 -0.6888 -2.0376 -1.8843
  165MOL0     H22757   4.295   1.942   3.998 -2.5816  0.6532  0.3947
  165MOL0     H22758   4.090   1.746   3.994 -1.1283  1.7220 -2.2114
  165MOL0     H22759   4.007   1.714   4.147 -0.9802 -0.6620 -0.4077
  165MOL0     H22760   3.806   1.822   4.088 -1.3515 -0.2334 -0.4061
  165MOL0     H22761   3.841   1.688   3.999 -0.7543  0.0314  0.0911
  165MOL0     H22762   3.870   1.966   3.885 -1.6652  0.4747 -0.9889
  165MOL0     H22763   3.906   1.814   3.795  0.6335  0.0315  1.0665
  165MOL0     H22764   3.641   1.876   3.892  0.9266 -0.1925  0.5327
  165MOL0     H22765   3.685   1.739   3.797  6.1234 -1.0863  1.8503
  165MOL0     H22766   3.647   2.014   3.477 -3.0625 -2.8711 -1.6807
  165MOL0     H22767   4.099   1.855   4.359  0.1632  0.2208  0.2970
  165MOL0     H22768   4.371   1.768   4.550  2.3764  1.0733  0.3205
  165MOL0     H22769   4.342   1.944   4.581  1.4738  0.2175 -1.9276
  165MOL0     H22770   4.201   1.830   4.561  0.0294 -1.9497 -1.0040
  166MOL0     O22771   2.996  10.882  11.320  0.1840  0.1976  0.2307
  166MOL0     C22772   3.080  10.821  11.377 -0.0067  0.0373 -0.3591
  166MOL0     O22773   3.218  10.810  11.346  0.2109  0.0348  0.8142
  166MOL0     C22774   3.278  10.887  11.247  0.2084  0.8362  0.7147
  166MOL0     C22775   3.367  10.824  11.161 -0.7393 -0.5718  0.1959
  166MOL0     C22776   3.433  10.891  11.053  0.5030  0.1368 -0.8918
  166MOL0     C22777   3.419  11.029  11.038 -0.4241 -0.9999 -0.2855
  166MOL0     O22778   3.489  11.093  10.932  0.1063  0.2887 -0.0487
  166MOL0     C22779   3.442  11.067  10.798  0.0313  0.2785 -0.1994
  166MOL0     C22780   3.534  11.148  10.696  0.6144  0.4100 -0.3799
  166MOL0     C22781   3.546  11.100  10.546 -0.4123 -0.1956  0.2790
  166MOL0     C22782   3.585  10.953  10.531 -0.6782 -0.5938 -0.3176
  166MOL0     C22783   3.597  10.914  10.388  0.4336 -0.3716 -0.2419
  166MOL0     C22784   3.477  10.912  10.295  0.5875 -0.1806 -0.2826
  166MOL0     C22785   3.383  10.802  10.337 -0.8099 -0.1799  0.0551
  166MOL0     C22786   3.242  10.836  10.339 -0.3445 -0.7295  0.9352
  166MOL0     N22787   3.202  10.921  10.458 -0.0645  0.8621  1.1340
  166MOL0     C22788   3.157  10.865  10.572  0.4260 -0.4183 -0.3044
  166MOL0     C22789   3.128  10.971  10.650 -0.0489 -0.7573 -0.4872
  166MOL0     C22790   3.077  10.954  10.793  1.1425 -0.0276 -0.4919
  166MOL0     C22791   2.937  11.000  10.815 -0.3005  0.0019 -0.0295
  166MOL0     C22792   2.902  11.020  10.962 -0.2029 -0.1002 -0.1916
  166MOL0     C22793   2.928  11.164  11.010  0.3886 -0.3253  0.0306
  166MOL0     O22794   3.050  11.218  10.958 -0.0779 -0.3794  0.0766
  166MOL0     C22795   3.065  11.350  10.972  0.2166  0.5147 -0.0310
  166MOL0     C22796   3.190  11.409  10.934 -0.3687  0.1067 -1.3426
  166MOL0     C22797   3.217  11.546  10.951 -0.1053  0.9969  0.0726
  166MOL0     C22798   3.357  11.581  10.921 -0.6881 -0.0280  0.0912
  166MOL0     C22799   3.128  11.625  11.013 -0.3863  0.1960 -0.3356
  166MOL0     C22800   3.151  11.776  11.032  0.0269  0.1344  0.5166
  166MOL0     O22801   3.069  11.832  11.125  0.1266 -0.5761 -0.6224
  166MOL0     C22802   3.100  11.954  11.177 -0.3502 -0.2061  0.8549
  166MOL0     C22803   3.213  12.027  11.167 -0.6877  0.3207 -0.2293
  166MOL0     C22804   3.231  12.150  11.236  0.1786  0.0699  0.2498
  166MOL0     C22805   3.137  12.183  11.337 -0.8055  0.4274  0.7081
  166MOL0     O22806   3.157  12.282  11.430 -0.3465  0.3547 -0.1036
  166MOL0     C22807   3.217  12.407  11.395  0.1650  0.1116 -0.0272
  166MOL0     C22808   3.370  12.413  11.418 -0.0116 -0.0768 -0.3039
  166MOL0     C22809   3.397  12.426  11.570  0.3310 -0.1180 -0.6785
  166MOL0     C22810   3.548  12.426  11.608  0.0824  0.3751 -0.2937
  166MOL0     C22811   3.574  12.465  11.754 -0.3822 -0.0072 -0.6023
  166MOL0     C22812   3.494  12.389  11.864 -0.2041 -0.0262  0.0242
  166MOL0     C22813   3.478  12.461  11.998  0.2116 -0.1139  0.4910
  166MOL0     C22814   3.356  12.398  12.066 -0.3656  0.0329 -0.4569
  166MOL0    Cl22815   3.307  12.479  12.206  0.0300  0.1270 -0.3902
  166MOL0     C22816   3.031  12.099  11.358 -1.0085 -0.1592  0.1441
  166MOL0     C22817   3.004  11.996  11.269  0.2448  0.7355  0.2105
  166MOL0     O22818   3.235  11.837  10.962 -0.6960  0.5174 -0.5850
  166MOL0     C22819   3.006  11.565  11.058 -0.1835  0.2765 -0.6442
  166MOL0     C22820   2.970  11.434  11.038  0.2077 -0.3935 -0.2045
  166MOL0     N22821   3.149  11.089  10.574 -0.1871 -0.6303 -0.5188
  166MOL0     N22822   3.185  11.052  10.458  0.1629 -0.1081  0.5741
  166MOL0     C22823   3.330  11.094  11.124 -1.0798 -0.7676  0.2670
  166MOL0     C22824   3.248  11.023  11.222 -0.1873 -0.0039  0.0870
  166MOL0     C22825   3.030  10.731  11.493  0.4775 -0.6353  0.0207
  166MOL0     C22826   3.108  10.620  11.541  0.7754 -0.5531  0.9313
  166MOL0     C22827   3.066  10.544  11.640  0.3667 -1.0107 -0.6736
  166MOL0     C22828   2.941  10.562  11.699 -0.1453 -0.2195  0.5035
  166MOL0     O22829   2.897  10.467  11.787  0.1736 -0.7208  0.3065
  166MOL0     C22830   2.883  10.336  11.736  0.7104  0.6475  0.3134
  166MOL0     C22831   2.751  10.341  11.644  0.0753  0.3690  0.2859
  166MOL0     C22832   2.727  10.210  11.576  0.1812  0.0568  0.3036
  166MOL0     C22833   2.622  10.215  11.474  0.9954  0.1455  0.0891
  166MOL0     C22834   2.576  10.087  11.415  0.8235  0.3514  0.0956
  166MOL0     C22835   2.544   9.977  11.365 -0.1796 -0.2332 -0.2815
  166MOL0     C22836   2.864  10.661  11.661  0.3589 -0.0925  0.3854
  166MOL0     C22837   2.901  10.747  11.556  0.6317 -0.1996 -0.2560
  166MOL0     C22838   2.791  10.850  11.521 -0.5289  0.1857 -0.2029
  166MOL0     H22839   3.392  10.720  11.178  1.0350 -0.2506 -0.2792
  166MOL0     H22840   3.501  10.828  10.996 -0.1533 -1.6868  0.2652
  166MOL0     H22841   3.342  11.105  10.778  0.9180  0.9171 -4.1549
  166MOL0     H22842   3.434  10.961  10.773  0.3096 -0.0229  0.9141
  166MOL0     H22843   3.485  11.244  10.677 -1.4189 -1.1177 -4.1083
  166MOL0     H22844   3.633  11.156  10.740 -0.8385 -0.2521  3.3656
  166MOL0     H22845   3.467  11.126  10.474 -0.0601  0.6819  0.1893
  166MOL0     H22846   3.635  11.145  10.501  0.6303 -2.0397  0.3771
  166MOL0     H22847   3.677  10.932  10.586 -0.4551 -2.5443 -1.3646
  166MOL0     H22848   3.510  10.882  10.567 -0.2703 -1.6810 -1.5423
  166MOL0     H22849   3.639  10.814  10.393  0.0653 -0.6216 -1.6300
  166MOL0     H22850   3.667  10.978  10.333 -0.4279  1.6946  0.9405
  166MOL0     H22851   3.422  11.007  10.296 -0.2737 -0.6455 -1.4504
  166MOL0     H22852   3.503  10.899  10.190  2.3060  1.4673 -0.1189
  166MOL0     H22853   3.402  10.771  10.440 -0.2688 -1.5634 -0.4392
  166MOL0     H22854   3.404  10.720  10.268  0.4154  1.5686 -1.7702
  166MOL0     H22855   3.211  10.888  10.248 -0.0685 -1.9738  0.1067
  166MOL0     H22856   3.195  10.738  10.345 -0.6621 -0.7383 -1.1989
  166MOL0     H22857   3.142  10.759  10.585  2.3340 -0.5798  0.9791
  166MOL0     H22858   3.145  11.011  10.858 -0.0538  0.6278  0.2130
  166MOL0     H22859   3.090  10.850  10.826  0.3066  0.1507  0.4338
  166MOL0     H22860   2.934  11.092  10.756 -1.9593 -0.9569 -1.5223
  166MOL0     H22861   2.872  10.923  10.773 -0.3598 -0.6947  1.2762
  166MOL0     H22862   2.796  10.997  10.971 -0.9569  2.3418 -1.8901
  166MOL0     H22863   2.969  10.952  11.016 -1.0781 -1.9066 -1.2907
  166MOL0     H22864   2.840  11.221  10.981  1.8850  0.9221 -2.3875
  166MOL0     H22865   2.934  11.152  11.119 -0.9812 -3.1730 -0.1171
  166MOL0     H22866   3.257  11.339  10.884  2.2502  1.2454  0.3958
  166MOL0     H22867   3.398  11.639  11.004  2.0671  1.6564 -2.2530
  166MOL0     H22868   3.359  11.651  10.837  0.9646  3.3736  2.7247
  166MOL0     H22869   3.420  11.496  10.895 -0.3242  0.2591  0.0242
  166MOL0     H22870   3.306  11.990  11.125  0.5128  0.1382  2.3486
  166MOL0     H22871   3.326  12.202  11.239  0.6069 -0.4940 -1.9744
  166MOL0     H22872   3.185  12.428  11.292 -2.0359  1.0510  0.7776
  166MOL0     H22873   3.168  12.474  11.466 -3.6855 -2.3328 -0.0898
  166MOL0     H22874   3.413  12.316  11.392  0.8386  0.0771  0.4774
  166MOL0     H22875   3.412  12.495  11.359  3.7726 -1.6030 -0.0260
  166MOL0     H22876   3.351  12.344  11.626  2.9266 -1.4002 -0.2887
  166MOL0     H22877   3.356  12.512  11.623 -0.5372 -2.5452  2.9886
  166MOL0     H22878   3.603  12.498  11.547  1.9006 -0.4292  0.3411
  166MOL0     H22879   3.596  12.329  11.592  0.6723  0.8296 -1.4154
  166MOL0     H22880   3.680  12.453  11.774 -0.7445 -0.9547  0.9261
  166MOL0     H22881   3.547  12.571  11.764  1.9009  0.5538  0.3524
  166MOL0     H22882   3.544  12.293  11.880  2.5831  1.4523  1.0776
  166MOL0     H22883   3.396  12.364  11.823  0.7414 -0.6615 -1.9935
  166MOL0     H22884   3.479  12.570  11.988  1.3289 -0.1337  0.3489
  166MOL0     H22885   3.571  12.457  12.055  0.5937 -0.5385 -0.1528
  166MOL0     H22886   3.385  12.296  12.093  0.2045 -0.9488 -4.2284
  166MOL0     H22887   3.276  12.394  11.992 -0.2877  0.7665 -0.5825
  166MOL0     H22888   2.961  12.121  11.438 -0.7995 -2.6724  1.0991
  166MOL0     H22889   2.914  11.934  11.276  1.2426 -0.8411 -0.3389
  166MOL0     H22890   2.930  11.627  11.105 -1.0767 -0.5942 -0.9207
  166MOL0     H22891   2.880  11.404  11.089 -0.4570  3.6195  1.3338
  166MOL0     H22892   3.320  11.199  11.100  0.6933 -0.5901  0.2188
  166MOL0     H22893   3.174  11.075  11.281  0.7054  2.0492 -0.5063
  166MOL0     H22894   3.206  10.607  11.497  0.3970  3.0512 -1.4600
  166MOL0     H22895   3.134  10.476  11.690  0.5939  1.3608  2.5674
  166MOL0     H22896   2.971  10.309  11.676 -0.8879 -1.0479 -1.4024
  166MOL0     H22897   2.855  10.264  11.813 -1.8347 -0.9293 -1.9082
  166MOL0     H22898   2.773  10.413  11.565 -0.1839 -3.0243 -3.1764
  166MOL0     H22899   2.672  10.362  11.717  1.7048 -0.2787  2.3385
  166MOL0     H22900   2.819  10.185  11.523 -1.4889  1.8621 -3.8615
  166MOL0     H22901   2.697  10.142  11.657  2.4500 -0.9936  0.3419
  166MOL0     H22902   2.657  10.282  11.395  1.1700 -2.2904 -2.0434
  166MOL0     H22903   2.535  10.257  11.524  1.4720 -0.2830  1.3257
  166MOL0     H22904   2.506   9.889  11.317  0.4987  0.3789 -1.9791
  166MOL0     H22905   2.762  10.664  11.698  0.1990  2.2825 -0.1062
  166MOL0     H22906   2.753  10.832  11.420 -2.0409  0.8607  0.2254
  166MOL0     H22907   2.698  10.840  11.577 -0.4929  0.1593 -0.1487
  166MOL0     H22908   2.828  10.953  11.522 -1.9409  1.0003 -5.2301
  167MOL0     O22909   4.392  10.042  11.136 -0.5571 -0.0646 -0.4593
  167MOL0     C22910   4.349  10.034  11.026  0.0548 -0.2224 -0.0443
  167MOL0     O22911   4.378   9.931  10.936 -0.2405  0.0929 -0.3702
  167MOL0     C22912   4.450   9.825  10.974  0.7823  0.2795  0.0536
  167MOL0     C22913   4.405   9.695  10.947 -0.9279  0.0333  0.6815
  167MOL0     C22914   4.491   9.585  10.981  0.3934  0.1449 -0.1770
  167MOL0     C22915   4.606   9.612  11.057  0.0022 -0.9302  0.4103
  167MOL0     O22916   4.676   9.505  11.101 -0.0106  0.4345 -0.1206
  167MOL0     C22917   4.812   9.514  11.068 -0.5820  0.1680  1.0948
  167MOL0     C22918   4.895   9.388  11.083  0.6956 -1.0495  0.2459
  167MOL0     C22919   5.045   9.408  11.052 -0.2401 -0.1863 -0.2526
  167MOL0     C22920   5.071   9.430  10.906 -0.1593  0.2134  1.0942
  167MOL0     C22921   5.222   9.417  10.872 -0.7188 -0.0978  1.0022
  167MOL0     C22922   5.240   9.452  10.725  0.0387 -0.7418  0.0807
  167MOL0     C22923   5.241   9.599  10.697  0.1405 -0.2382 -0.8707
  167MOL0     C22924   5.314   9.639  10.570  0.3896  0.2258  0.3469
  167MOL0     N22925   5.225   9.601  10.449 -0.4401  0.1861 -0.4256
  167MOL0     C22926   5.110   9.663  10.416 -0.5393  0.1027  0.1212
  167MOL0     C22927   5.074   9.623  10.293 -0.1440  0.4546  0.3453
  167MOL0     C22928   4.947   9.675  10.233 -0.0789  0.5588 -0.3342
  167MOL0     C22929   4.872   9.571  10.153  0.0365  0.3695 -0.5407
  167MOL0     C22930   4.746   9.634  10.090  0.0184  0.4028 -0.4164
  167MOL0     C22931   4.652   9.532  10.025  0.0731  0.3862  0.5384
  167MOL0     O22932   4.595   9.442  10.123  0.0895 -0.0446  0.1244
  167MOL0     C22933   4.487   9.479  10.204  0.1479  0.6013 -0.2112
  167MOL0     C22934   4.429   9.604  10.192 -1.2556 -0.8154 -0.6923
  167MOL0     C22935   4.332   9.647  10.274  0.2252 -1.3967  0.5260
  167MOL0     C22936   4.261   9.769  10.225 -0.1612  0.2261  0.0867
  167MOL0     C22937   4.294   9.569  10.386 -0.0920 -0.3028  0.4310
  167MOL0     C22938   4.199   9.617  10.488 -0.2965 -0.3255 -0.6527
  167MOL0     O22939   4.130   9.730  10.475 -0.3224 -0.1110  0.2126
  167MOL0     C22940   4.049   9.774  10.583  1.1453  1.0529  0.0576
  167MOL0     C22941   3.921   9.813  10.554  0.2687  0.1499 -0.8333
  167MOL0     C22942   3.835   9.863  10.646  0.2905  0.0549  0.7455
  167MOL0     C22943   3.870   9.867  10.780 -0.3485 -0.0723  0.5489
  167MOL0     O22944   3.778   9.910  10.875 -0.8370 -0.6989 -0.1288
  167MOL0     C22945   3.828   9.970  11.000 -0.0315 -0.4391  0.7533
  167MOL0     C22946   3.718  10.015  11.087  0.8918  0.5576  0.2694
  167MOL0     C22947   3.605  10.093  11.013 -0.2267  0.0486 -0.4150
  167MOL0     C22948   3.469  10.095  11.094 -0.5282 -0.4827  0.3385
  167MOL0     C22949   3.358  10.159  11.028 -0.0638  0.3239  0.2524
  167MOL0     C22950   3.354  10.314  11.041  0.1335  0.2365  0.2086
  167MOL0     C22951   3.254  10.382  10.957  1.4846  0.4063 -0.2399
  167MOL0     C22952   3.209  10.522  11.011 -0.5529  0.6190  0.6126
  167MOL0    Cl22953   3.086  10.584  10.906  0.6252 -0.1067 -0.6023
  167MOL0     C22954   4.000   9.823  10.817  0.2262 -0.2354 -0.1225
  167MOL0     C22955   4.095   9.791  10.713  0.2108  1.3737 -0.1124
  167MOL0     O22956   4.201   9.551  10.592 -0.3151 -0.4291  0.6037
  167MOL0     C22957   4.360   9.446  10.406  0.8247  0.0149  0.0067
  167MOL0     C22958   4.448   9.399  10.304 -0.7326  0.1268 -0.6668
  167MOL0     N22959   5.164   9.517  10.259 -0.1892 -0.2455 -0.4422
  167MOL0     N22960   5.247   9.510  10.357  0.0209 -0.3307 -0.2563
  167MOL0     C22961   4.654   9.739  11.080 -0.0770 -0.3944  0.9326
  167MOL0     C22962   4.577   9.845  11.035 -0.1603 -0.5720  1.1274
  167MOL0     C22963   4.253  10.133  10.977  0.6062 -1.1749 -0.8317
  167MOL0     C22964   4.204  10.125  10.845  0.5840 -1.1236  0.3364
  167MOL0     C22965   4.116  10.219  10.790 -1.1970  0.2250 -0.1017
  167MOL0     C22966   4.054  10.314  10.876 -0.3573 -1.1789  0.2245
  167MOL0     O22967   3.951  10.393  10.838  0.4676 -0.2741  0.2601
  167MOL0     C22968   3.875  10.380  10.710  0.6017 -0.1602 -0.6917
  167MOL0     C22969   3.775  10.508  10.699  0.3237 -0.3755 -0.2310
  167MOL0     C22970   3.687  10.505  10.823  0.2472 -0.0806 -0.8750
  167MOL0     C22971   3.613  10.628  10.855  0.8816 -1.0604 -0.7913
  167MOL0     C22972   3.492  10.630  10.775 -0.6514  0.7712  0.5130
  167MOL0     C22973   3.401  10.624  10.701  0.2493 -0.4621  0.7607
  167MOL0     C22974   4.095  10.325  11.008  0.6351  0.2254 -0.2217
  167MOL0     C22975   4.195  10.237  11.060  0.8943 -0.2652  0.3153
  167MOL0     C22976   4.227  10.257  11.209 -0.4873 -0.3626  0.1649
  167MOL0     H22977   4.315   9.674  10.889 -0.9168  1.6201  0.0362
  167MOL0     H22978   4.468   9.483  10.952 -0.3356  0.2446  0.0260
  167MOL0     H22979   4.865   9.581  11.137  0.4504  2.7530 -1.9190
  167MOL0     H22980   4.821   9.551  10.965 -4.5174 -3.2477 -0.7392
  167MOL0     H22981   4.889   9.348  11.185  2.3217 -1.1662  0.3246
  167MOL0     H22982   4.844   9.324  11.011  0.8079  0.0622 -0.8561
  167MOL0     H22983   5.085   9.493  11.109 -2.3282 -0.2334  1.4166
  167MOL0     H22984   5.103   9.321  11.083  2.5005  2.2446  2.0445
  167MOL0     H22985   5.018   9.349  10.854 -0.4399  2.1371 -1.8754
  167MOL0     H22986   5.032   9.526  10.869  0.7395 -0.7599 -2.9464
  167MOL0     H22987   5.254   9.318  10.904 -0.4850 -0.4580 -0.2991
  167MOL0     H22988   5.272   9.487  10.940 -1.3910  2.9062 -1.3818
  167MOL0     H22989   5.341   9.421  10.699  1.4351  0.7525  3.2368
  167MOL0     H22990   5.156   9.416  10.664 -0.1446 -0.5134  0.1954
  167MOL0     H22991   5.280   9.657  10.781 -0.5463 -0.5776 -0.3083
  167MOL0     H22992   5.139   9.637  10.688 -0.1039 -0.4814  0.6211
  167MOL0     H22993   5.333   9.747  10.579 -0.9915  0.4863  0.2802
  167MOL0     H22994   5.415   9.596  10.569  2.1857  3.9774  0.9088
  167MOL0     H22995   5.056   9.737  10.474  1.6569  2.6028 -0.8301
  167MOL0     H22996   4.977   9.761  10.173 -0.6115  0.5266 -0.6553
  167MOL0     H22997   4.873   9.702  10.309 -2.0183 -2.3745 -1.0156
  167MOL0     H22998   4.937   9.526  10.077  0.5113  1.7101 -0.9685
  167MOL0     H22999   4.845   9.500  10.231 -1.7781  1.5818 -0.0063
  167MOL0     H23000   4.693   9.676  10.176  0.8128 -1.5480  1.0880
  167MOL0     H23001   4.783   9.720  10.034  0.7538 -1.7615 -3.4834
  167MOL0     H23002   4.571   9.580   9.970 -0.7771 -1.5268  0.0368
  167MOL0     H23003   4.712   9.480   9.949  0.6500  1.5808  0.1533
  167MOL0     H23004   4.467   9.674  10.117  1.1349  0.1424  1.2623
  167MOL0     H23005   4.160   9.745  10.191  0.6666 -1.1891 -1.5236
  167MOL0     H23006   4.298   9.816  10.133 -0.5347 -3.0187 -1.8768
  167MOL0     H23007   4.246   9.849  10.298  1.3868  1.2842 -0.6799
  167MOL0     H23008   3.891   9.788  10.453 -0.3848  0.1859 -0.6521
  167MOL0     H23009   3.739   9.898  10.609  0.1719 -0.7692  0.2620
  167MOL0     H23010   3.907   9.913  11.049  0.0899 -1.6406 -0.7618
  167MOL0     H23011   3.870  10.064  10.966  2.3791 -1.1588  1.5643
  167MOL0     H23012   3.683   9.928  11.144  0.6553 -0.0717 -0.7967
  167MOL0     H23013   3.761  10.089  11.155  2.7370  0.7620 -1.0547
  167MOL0     H23014   3.585  10.040  10.919  3.9755  3.2852 -3.5568
  167MOL0     H23015   3.631  10.194  10.979 -0.5631  0.3696  0.2762
  167MOL0     H23016   3.492  10.141  11.191 -0.7297 -2.4160  1.3670
  167MOL0     H23017   3.448   9.991  11.121 -0.1344 -0.0851  2.3455
  167MOL0     H23018   3.366  10.141  10.920  2.5361  1.6926  0.1395
  167MOL0     H23019   3.269  10.125  11.080 -0.5561  1.1785 -0.0018
  167MOL0     H23020   3.456  10.350  11.022  0.2234  0.5012  1.1374
  167MOL0     H23021   3.338  10.341  11.146  0.5249  0.1615  0.2884
  167MOL0     H23022   3.170  10.314  10.942  2.6696 -0.8317 -1.5600
  167MOL0     H23023   3.302  10.401  10.861  2.5269 -1.2997 -0.0875
  167MOL0     H23024   3.285  10.600  11.016 -0.5981  0.7769 -0.7303
  167MOL0     H23025   3.176  10.499  11.113 -0.7324 -0.3957  0.3455
  167MOL0     H23026   4.040   9.814  10.917  0.0926  3.6617  0.4330
  167MOL0     H23027   4.196   9.761  10.740 -1.1218 -3.9441 -0.1204
  167MOL0     H23028   4.330   9.376  10.483 -2.2927  0.2837 -0.8105
  167MOL0     H23029   4.503   9.305  10.308 -0.5529  0.2707  0.7505
  167MOL0     H23030   4.747   9.757  11.133  0.9622  1.5939 -1.3630
  167MOL0     H23031   4.614   9.945  11.055  0.3509 -0.5307  0.0948
  167MOL0     H23032   4.241  10.049  10.777  1.4914  0.5683 -1.1309
  167MOL0     H23033   4.081  10.191  10.692  1.2492 -3.3328 -0.1215
  167MOL0     H23034   3.934  10.369  10.619 -2.9131 -1.3253 -3.0459
  167MOL0     H23035   3.813  10.291  10.724  1.1749 -0.0745  4.3605
  167MOL0     H23036   3.716  10.508  10.607  1.8863 -1.1420 -1.2841
  167MOL0     H23037   3.836  10.599  10.694 -2.0518  1.2401 -2.4795
  167MOL0     H23038   3.620  10.420  10.815 -0.5317  0.5286 -0.9380
  167MOL0     H23039   3.737  10.485  10.918 -3.2312 -0.1324  1.1188
  167MOL0     H23040   3.680  10.711  10.833  0.7438 -0.7922 -0.2437
  167MOL0     H23041   3.588  10.638  10.962  0.6120 -0.5841 -0.8938
  167MOL0     H23042   3.310  10.617  10.644 -0.3170  0.7077  1.4696
  167MOL0     H23043   4.067  10.399  11.083  1.9572  1.0347 -0.4898
  167MOL0     H23044   4.314  10.322  11.226  0.8114 -2.0072  0.1262
  167MOL0     H23045   4.143  10.311  11.254 -0.6599  0.9764 -1.6556
  167MOL0     H23046   4.243  10.167  11.269 -1.6499 -2.0937 -1.9875
  168MOL0     O23047   3.078   8.131   1.353 -0.4523  0.0093  0.5570
  168MOL0     C23048   3.046   8.039   1.284  0.2213 -0.3319 -0.8254
  168MOL0     O23049   3.131   7.939   1.239 -0.2342 -0.4986 -0.1112
  168MOL0     C23050   3.266   7.974   1.210  1.0864  0.5247  0.2468
  168MOL0     C23051   3.305   8.045   1.096  0.1547  0.9238 -0.5860
  168MOL0     C23052   3.442   8.049   1.069  0.4278 -0.6279  0.9637
  168MOL0     C23053   3.538   8.001   1.152  0.0305  0.5501 -0.6502
  168MOL0     O23054   3.669   8.014   1.111  0.0184 -0.8309  0.4795
  168MOL0     C23055   3.764   7.941   1.187 -0.4312  0.3227  0.4508
  168MOL0     C23056   3.897   7.945   1.120 -0.2896  0.1094  0.6946
  168MOL0     C23057   3.910   7.882   0.980 -0.0858 -0.1408 -0.5148
  168MOL0     C23058   4.031   7.926   0.905  0.9512  0.6147  0.7257
  168MOL0     C23059   4.031   7.867   0.765  1.0911 -0.5945  0.2262
  168MOL0     C23060   4.068   7.723   0.761  0.8971 -0.4668  0.3073
  168MOL0     C23061   4.073   7.678   0.614  0.8037  0.2756 -0.7087
  168MOL0     C23062   4.204   7.618   0.581  0.9456  0.2072  0.2170
  168MOL0     N23063   4.321   7.705   0.611  1.1227 -0.3785  0.6226
  168MOL0     C23064   4.364   7.797   0.524  0.3001 -0.0458  0.0543
  168MOL0     C23065   4.480   7.845   0.579 -0.3190 -0.3805 -1.0182
  168MOL0     C23066   4.572   7.963   0.540  0.2152 -0.8951  0.1005
  168MOL0     C23067   4.634   7.944   0.402  0.1884 -0.1640  0.5420
  168MOL0     C23068   4.697   8.078   0.357  0.4264  0.5640  0.5439
  168MOL0     C23069   4.743   8.056   0.206  0.3750  0.3188 -0.6979
  168MOL0     O23070   4.824   8.173   0.171  0.3737  0.0088 -0.3114
  168MOL0     C23071   4.944   8.207   0.228  0.8489 -0.0369  0.7073
  168MOL0     C23072   5.012   8.322   0.178  0.7360 -0.0481  0.4688
  168MOL0     C23073   5.140   8.340   0.209  0.1069 -0.5440 -0.3924
  168MOL0     C23074   5.210   8.452   0.138 -0.1216 -0.1363  0.0335
  168MOL0     C23075   5.203   8.264   0.316 -0.1701  0.5574  0.2249
  168MOL0     C23076   5.348   8.275   0.351  0.0606 -0.8076 -0.6416
  168MOL0     O23077   5.383   8.194   0.457 -0.1444  0.3786 -0.3897
  168MOL0     C23078   5.517   8.196   0.482 -0.0720 -0.1294 -0.8051
  168MOL0     C23079   5.619   8.141   0.403  0.1952 -0.9011  0.1851
  168MOL0     C23080   5.753   8.128   0.453  0.0098 -0.0476  0.8230
  168MOL0     C23081   5.779   8.179   0.574  0.0367 -0.0557  0.4499
  168MOL0     O23082   5.907   8.170   0.621  0.2575  0.2676 -0.0843
  168MOL0     C23083   5.939   8.180   0.762  0.2648  0.0228  0.1899
  168MOL0     C23084   6.087   8.162   0.768 -0.2736 -0.0441 -0.2244
  168MOL0     C23085   6.139   8.192   0.912  0.8188 -0.0860 -0.0899
  168MOL0     C23086   6.295   8.160   0.917  0.0486 -1.4726 -0.4168
  168MOL0     C23087   6.361   8.168   1.055 -0.1179 -0.4995  0.3946
  168MOL0     C23088   6.513   8.136   1.061  0.0835 -0.3239  0.7280
  168MOL0     C23089   6.564   8.130   1.204  0.3803  0.2860 -0.2892
  168MOL0     C23090   6.581   8.279   1.265  0.1908  0.0051 -0.2422
  168MOL0    Cl23091   6.636   8.290   1.435  0.6831  0.5559  0.1298
  168MOL0     C23092   5.677   8.229   0.658 -0.2440  0.5527 -0.0458
  168MOL0     C23093   5.548   8.232   0.606  0.2194 -0.0861  0.3405
  168MOL0     O23094   5.423   8.343   0.286  0.3826  0.3307  0.0077
  168MOL0     C23095   5.132   8.158   0.382  0.2075 -0.3443 -0.7897
  168MOL0     C23096   5.004   8.129   0.328  0.0162  0.7216  0.7325
  168MOL0     N23097   4.506   7.771   0.693 -0.1100 -0.2819  0.0031
  168MOL0     N23098   4.418   7.681   0.699 -0.1852 -0.6569 -0.2981
  168MOL0     C23099   3.495   7.934   1.264  1.0428 -0.0442  0.4468
  168MOL0     C23100   3.360   7.924   1.294 -0.6886  1.2122  0.8290
  168MOL0     C23101   2.901   8.031   1.259  0.2816  0.4779 -0.1443
  168MOL0     C23102   2.855   7.902   1.244  0.1847  0.5796  0.1145
  168MOL0     C23103   2.723   7.875   1.227  0.4222  0.8109 -0.0263
  168MOL0     C23104   2.632   7.977   1.214  0.6225 -0.0163  0.2627
  168MOL0     O23105   2.504   7.947   1.162  0.8793  0.3192 -0.0440
  168MOL0     C23106   2.404   8.046   1.130  0.5131 -0.0122  1.0145
  168MOL0     C23107   2.443   8.128   1.002 -0.1766  0.1685  0.4321
  168MOL0     C23108   2.476   8.044   0.880 -1.0155 -0.1725  0.1609
  168MOL0     C23109   2.576   8.111   0.784  0.3968  0.0533 -0.3334
  168MOL0     C23110   2.705   8.111   0.841  0.0739  0.1360  0.1672
  168MOL0     C23111   2.822   8.113   0.877  0.0284 -0.5472 -0.2534
  168MOL0     C23112   2.678   8.109   1.235 -0.1275  0.2913 -0.7463
  168MOL0     C23113   2.808   8.137   1.257 -0.2962  0.2318  0.7416
  168MOL0     C23114   2.859   8.277   1.261  0.7736 -0.1715 -0.0620
  168MOL0     H23115   3.225   8.084   1.034  0.5952 -0.6773 -2.2420
  168MOL0     H23116   3.480   8.106   0.985 -0.8987  0.5627  1.1417
  168MOL0     H23117   3.738   7.835   1.191 -2.3098  0.7127 -0.3819
  168MOL0     H23118   3.772   7.975   1.291  3.5217 -0.2546  0.4812
  168MOL0     H23119   3.916   8.053   1.114  0.1692  0.2027  2.8920
  168MOL0     H23120   3.976   7.899   1.180  1.6272 -1.4554 -2.7217
  168MOL0     H23121   3.905   7.774   0.997 -0.4360  0.2483  2.2291
  168MOL0     H23122   3.826   7.920   0.922 -1.8521 -1.6885  0.8816
  168MOL0     H23123   4.037   8.035   0.890  0.8209  0.6517  0.9410
  168MOL0     H23124   4.124   7.891   0.952  1.4396 -1.2256 -1.4357
  168MOL0     H23125   4.104   7.920   0.702  2.0559 -3.1542 -0.9399
  168MOL0     H23126   3.934   7.866   0.713  1.2358 -0.8807 -0.0468
  168MOL0     H23127   4.164   7.708   0.813  1.2289  0.7171  0.0641
  168MOL0     H23128   3.991   7.664   0.811 -0.2110 -0.3610 -1.2239
  168MOL0     H23129   4.043   7.756   0.543 -0.9357 -0.2139 -0.5584
  168MOL0     H23130   3.988   7.611   0.605 -0.2258  1.3354  0.6142
  168MOL0     H23131   4.228   7.532   0.645 -0.0151 -1.7268 -1.8907
  168MOL0     H23132   4.216   7.590   0.476  1.6382 -2.2433  0.8596
  168MOL0     H23133   4.313   7.836   0.436  0.7376  3.7321  1.2879
  168MOL0     H23134   4.635   7.975   0.629 -0.3753 -0.9714  0.5417
  168MOL0     H23135   4.515   8.056   0.537 -1.1804 -1.6996  0.4023
  168MOL0     H23136   4.707   7.863   0.409  2.8392  1.5881 -3.2644
  168MOL0     H23137   4.546   7.933   0.339 -1.7335 -0.2554  3.0994
  168MOL0     H23138   4.631   8.164   0.343  2.8243  2.3130 -0.8944
  168MOL0     H23139   4.784   8.117   0.412  0.4516  1.5389 -0.1504
  168MOL0     H23140   4.803   7.965   0.201 -0.9872 -1.0091  3.1903
  168MOL0     H23141   4.661   8.046   0.135 -0.1666 -1.3205  0.1065
  168MOL0     H23142   4.960   8.380   0.103 -0.1428 -1.6634 -0.2354
  168MOL0     H23143   5.148   8.523   0.082  0.1597 -0.6955 -1.0114
  168MOL0     H23144   5.282   8.408   0.069  1.3126  0.3755  1.1462
  168MOL0     H23145   5.273   8.506   0.209 -1.7065  0.3774  1.1070
  168MOL0     H23146   5.591   8.109   0.303 -0.9549  3.2939 -1.0109
  168MOL0     H23147   5.827   8.077   0.393 -1.2639  0.0711 -0.9294
  168MOL0     H23148   5.920   8.281   0.797 -0.5307  1.0825 -2.9261
  168MOL0     H23149   5.877   8.105   0.812  0.2095 -0.0004  0.0889
  168MOL0     H23150   6.104   8.061   0.731 -1.4489 -0.0025 -0.9119
  168MOL0     H23151   6.142   8.228   0.700  0.4414 -1.4266 -1.0415
  168MOL0     H23152   6.102   8.114   0.979  0.2972 -0.2320 -0.5430
  168MOL0     H23153   6.119   8.294   0.945  0.3643 -0.4872  0.9223
  168MOL0     H23154   6.347   8.229   0.850 -1.1929 -0.7322 -0.6512
  168MOL0     H23155   6.313   8.057   0.884  1.2091 -2.0377  1.7830
  168MOL0     H23156   6.351   8.272   1.090 -1.5235 -0.2861 -0.5592
  168MOL0     H23157   6.304   8.108   1.127  1.6661 -1.0309  1.4363
  168MOL0     H23158   6.578   8.209   1.011 -0.6113  0.1946  0.5739
  168MOL0     H23159   6.528   8.038   1.014 -0.7517  1.4187 -3.6356
  168MOL0     H23160   6.662   8.081   1.203  0.3401  0.2092 -1.9589
  168MOL0     H23161   6.492   8.069   1.259 -1.0762  1.1588 -1.1641
  168MOL0     H23162   6.494   8.342   1.243  1.4800  2.1563  0.4824
  168MOL0     H23163   6.663   8.326   1.210 -0.4933 -0.6969 -1.9511
  168MOL0     H23164   5.703   8.268   0.756 -1.0279  1.1501 -0.0684
  168MOL0     H23165   5.462   8.273   0.659  0.1198 -2.0984  1.8626
  168MOL0     H23166   5.178   8.090   0.453  0.0572 -2.2264 -2.4028
  168MOL0     H23167   4.952   8.040   0.363 -0.7988  1.1482  0.6339
  168MOL0     H23168   3.571   7.888   1.327 -0.2257 -0.6812  1.5688
  168MOL0     H23169   3.326   7.874   1.384 -0.6419  0.7179  0.5777
  168MOL0     H23170   2.911   7.809   1.230 -0.5693  0.0319  0.6741
  168MOL0     H23171   2.685   7.776   1.203 -1.0359  0.7833  2.0879
  168MOL0     H23172   2.303   8.006   1.116  1.1177 -1.4075  0.5084
  168MOL0     H23173   2.407   8.122   1.209  4.3833  0.7909  0.2653
  168MOL0     H23174   2.523   8.200   1.024 -0.9556  1.9798 -2.1858
  168MOL0     H23175   2.357   8.189   0.973 -1.1145 -0.7643  1.1466
  168MOL0     H23176   2.511   7.948   0.920  4.2633  1.7980  0.9927
  168MOL0     H23177   2.378   8.021   0.837 -0.4151  0.5272 -1.6916
  168MOL0     H23178   2.552   8.213   0.756  2.2191 -0.0637 -2.6096
  168MOL0     H23179   2.587   8.057   0.689 -0.6414 -1.4375  0.3425
  168MOL0     H23180   2.920   8.119   0.922  1.1664  1.4993 -2.7710
  168MOL0     H23181   2.605   8.189   1.230 -1.0627 -0.3041  1.9259
  168MOL0     H23182   2.931   8.295   1.180  1.2310 -0.1328  0.3513
  168MOL0     H23183   2.779   8.346   1.231 -0.5375 -2.8867 -3.5630
  168MOL0     H23184   2.907   8.305   1.355  0.5542  1.1954 -0.3344
  169MOL0     O23185   1.271   7.762   9.259  0.1539 -0.0470  0.3058
  169MOL0     C23186   1.230   7.845   9.345  0.4098  0.1381  0.4161
  169MOL0     O23187   1.257   7.854   9.468  0.2660 -0.2347 -0.2224
  169MOL0     C23188   1.385   7.823   9.516  0.5187 -0.5631 -0.4009
  169MOL0     C23189   1.501   7.871   9.461  0.1362  0.1295  0.3909
  169MOL0     C23190   1.626   7.821   9.504  0.0461 -0.0308  0.6283
  169MOL0     C23191   1.635   7.738   9.611  0.1522  0.9848 -0.1957
  169MOL0     O23192   1.761   7.719   9.652  0.4965 -0.4607 -0.2784
  169MOL0     C23193   1.782   7.598   9.727 -0.9564 -0.0354 -0.5502
  169MOL0     C23194   1.936   7.573   9.748 -0.4100 -0.1857  0.2218
  169MOL0     C23195   2.007   7.683   9.825 -0.0887 -0.3133  0.6949
  169MOL0     C23196   2.157   7.694   9.789  0.1530  0.0763  0.3653
  169MOL0     C23197   2.238   7.762   9.895  0.5324  0.1349  0.3685
  169MOL0     C23198   2.387   7.764   9.850  0.3848  0.4521  0.4040
  169MOL0     C23199   2.481   7.785   9.972 -0.3796  0.1226 -0.7058
  169MOL0     C23200   2.631   7.789   9.928 -0.4844 -0.1207  0.2865
  169MOL0     N23201   2.666   7.922   9.874 -0.3528 -0.5417 -0.0506
  169MOL0     C23202   2.643   8.039   9.933  0.1700 -0.2536  0.0148
  169MOL0     C23203   2.696   8.132   9.851  0.3500 -0.2554 -0.3362
  169MOL0     C23204   2.685   8.277   9.870  0.2863 -0.0801 -0.3713
  169MOL0     C23205   2.731   8.355   9.749  0.0926  0.3968 -1.2415
  169MOL0     C23206   2.743   8.505   9.781 -0.5424 -1.3244 -0.3921
  169MOL0     C23207   2.718   8.594   9.652 -0.2870  0.5320 -0.5340
  169MOL0     O23208   2.838   8.594   9.578 -0.1773  0.1445  0.2617
  169MOL0     C23209   2.951   8.672   9.605 -0.3349  0.3624 -0.0800
  169MOL0     C23210   3.060   8.645   9.520 -0.0191 -0.3438  0.8238
  169MOL0     C23211   3.170   8.734   9.524  0.3024  0.6085 -0.1406
  169MOL0     C23212   3.267   8.718   9.402  0.4153 -0.0353  0.3266
  169MOL0     C23213   3.170   8.836   9.626  0.1109  0.3289 -0.2107
  169MOL0     C23214   3.276   8.935   9.664  1.4012  0.6426  0.1898
  169MOL0     O23215   3.321   8.937   9.794  0.2564  0.2143  0.5324
  169MOL0     C23216   3.431   9.009   9.823 -0.3619 -1.1534 -0.6696
  169MOL0     C23217   3.466   9.135   9.772 -0.2442 -0.3514  0.4802
  169MOL0     C23218   3.594   9.186   9.801 -0.0260  0.3334  0.2808
  169MOL0     C23219   3.692   9.130   9.877 -1.3949  0.6299  0.5386
  169MOL0     O23220   3.812   9.200   9.886 -0.0438  0.1654 -0.3461
  169MOL0     C23221   3.881   9.190  10.012  0.0367 -0.2690 -0.6247
  169MOL0     C23222   4.007   9.280  10.013 -0.2664  0.1599 -0.0718
  169MOL0     C23223   3.978   9.428   9.964 -0.4273  1.0716 -0.3825
  169MOL0     C23224   3.942   9.517  10.082  0.4916 -0.1641 -0.7430
  169MOL0     C23225   3.859   9.648  10.040  0.1546 -0.5655  0.0625
  169MOL0     C23226   3.843   9.752  10.149 -0.1385  1.3320  0.1255
  169MOL0     C23227   3.788   9.877  10.099  0.3396 -0.0906  1.4330
  169MOL0     C23228   3.822  10.003  10.182  0.8647  0.1799  0.1516
  169MOL0    Cl23229   3.748   9.982  10.338 -0.0269 -0.3088  0.0963
  169MOL0     C23230   3.662   9.006   9.932  0.9490  0.0528  1.1821
  169MOL0     C23231   3.536   8.944   9.900 -0.4572 -1.0039 -0.6630
  169MOL0     O23232   3.306   9.012   9.574  0.3261  0.8226  0.1257
  169MOL0     C23233   3.063   8.855   9.710  0.3158  0.2671  0.1584
  169MOL0     C23234   2.949   8.771   9.698 -0.6228 -0.8632  0.1041
  169MOL0     N23235   2.754   8.071   9.745  0.0635 -0.0245  0.9389
  169MOL0     N23236   2.747   7.944   9.768 -0.6344 -0.0627 -0.0731
  169MOL0     C23237   1.517   7.690   9.681 -0.3859  0.2290 -0.3794
  169MOL0     C23238   1.392   7.733   9.625 -0.5061  0.5760  0.4198
  169MOL0     C23239   1.102   7.913   9.314  0.2059 -0.3984  0.1589
  169MOL0     C23240   1.072   7.926   9.178  0.5945  0.5410  0.4557
  169MOL0     C23241   0.948   7.979   9.146  0.4908  0.3942  0.2640
  169MOL0     C23242   0.854   8.034   9.233  0.0310  0.0103  1.2916
  169MOL0     O23243   0.744   8.083   9.167  0.4236  0.1321 -0.1434
  169MOL0     C23244   0.746   8.225   9.147 -0.0012  0.6077 -0.0184
  169MOL0     C23245   0.740   8.309   9.279  0.4908  0.6158  0.1202
  169MOL0     C23246   0.619   8.258   9.362  0.4458 -0.1287 -0.8709
  169MOL0     C23247   0.582   8.333   9.481  0.5735 -0.1271  0.8025
  169MOL0     C23248   0.679   8.317   9.591  0.0579 -0.2132 -0.2898
  169MOL0     C23249   0.754   8.286   9.682  0.6104 -0.4953  0.0836
  169MOL0     C23250   0.892   8.026   9.363 -0.2373  0.8115 -0.3991
  169MOL0     C23251   1.011   7.973   9.411 -0.1931  0.3787  0.0104
  169MOL0     C23252   1.039   7.981   9.558  0.3619 -0.5694  0.0072
  169MOL0     H23253   1.499   7.933   9.372 -2.6306 -1.0865 -0.4726
  169MOL0     H23254   1.716   7.853   9.452  0.9754 -2.6650  0.4529
  169MOL0     H23255   1.742   7.509   9.679  1.2780 -0.8299 -1.0093
  169MOL0     H23256   1.746   7.610   9.830 -0.1184  0.2518 -0.2842
  169MOL0     H23257   1.953   7.478   9.800  1.7309 -1.2577 -2.2242
  169MOL0     H23258   1.987   7.564   9.652 -2.4900  4.8520 -1.7100
  169MOL0     H23259   1.968   7.782   9.802  0.0029 -0.8487 -2.1688
  169MOL0     H23260   1.984   7.658   9.929 -1.8557  0.5863  0.5498
  169MOL0     H23261   2.205   7.595   9.790  2.7824  1.2768  0.3958
  169MOL0     H23262   2.166   7.744   9.692 -0.5554  1.4626  0.9966
  169MOL0     H23263   2.230   7.703   9.987  2.2986  1.1244  1.1963
  169MOL0     H23264   2.196   7.861   9.916 -0.2437 -0.5302  2.1352
  169MOL0     H23265   2.417   7.678   9.789  2.1663  0.2348  1.5268
  169MOL0     H23266   2.397   7.850   9.783 -2.5034 -2.0528 -3.7315
  169MOL0     H23267   2.473   7.702  10.043 -1.4253  0.0957 -0.8336
  169MOL0     H23268   2.449   7.873  10.029 -2.3613 -1.2110  0.3408
  169MOL0     H23269   2.700   7.765  10.010  0.9351 -0.2419 -0.8951
  169MOL0     H23270   2.637   7.705   9.859 -0.0261  0.2275 -0.1063
  169MOL0     H23271   2.595   8.059  10.028 -1.1202  3.1664 -1.2277
  169MOL0     H23272   2.744   8.318   9.952  0.5479  0.2085 -0.7013
  169MOL0     H23273   2.579   8.291   9.894 -0.3460 -3.1245 -0.9918
  169MOL0     H23274   2.833   8.331   9.718 -0.1486  0.4133 -2.0835
  169MOL0     H23275   2.656   8.340   9.671  0.5311 -3.6008 -1.1066
  169MOL0     H23276   2.651   8.514   9.839 -0.6144 -2.3116 -0.3243
  169MOL0     H23277   2.830   8.545   9.835 -2.3929 -1.9873  3.4589
  169MOL0     H23278   2.639   8.548   9.593  0.0964 -1.4313  0.4099
  169MOL0     H23279   2.690   8.696   9.681 -1.3845  0.2391 -0.5442
  169MOL0     H23280   3.048   8.558   9.457  3.1922 -1.0292  0.9793
  169MOL0     H23281   3.364   8.686   9.439  1.6282  0.6643 -2.0199
  169MOL0     H23282   3.274   8.815   9.352  0.6813 -0.6185 -0.8064
  169MOL0     H23283   3.225   8.643   9.334 -1.6298  2.4514 -1.3507
  169MOL0     H23284   3.409   9.176   9.689  0.6973  1.7518  0.7994
  169MOL0     H23285   3.637   9.270   9.746 -1.4706  2.0643  1.6502
  169MOL0     H23286   3.812   9.226  10.089 -1.1385 -2.3666 -0.6438
  169MOL0     H23287   3.908   9.089  10.043  0.1004 -0.3765 -1.0220
  169MOL0     H23288   4.057   9.294  10.109 -0.6609 -0.1236  0.1785
  169MOL0     H23289   4.076   9.230   9.944 -1.1886 -2.0250  0.4994
  169MOL0     H23290   3.914   9.436   9.875 -0.5430 -0.6678 -0.5070
  169MOL0     H23291   4.073   9.466   9.925 -0.3652  1.1613 -0.1427
  169MOL0     H23292   4.041   9.535  10.124  0.4123 -1.4145  0.0049
  169MOL0     H23293   3.870   9.474  10.152  1.2058  0.5582  0.4822
  169MOL0     H23294   3.920   9.697   9.964  0.3494  0.9248  1.1491
  169MOL0     H23295   3.761   9.618  10.002 -1.7696  0.0292  4.0051
  169MOL0     H23296   3.946   9.770  10.179 -0.0328  0.4756  0.3003
  169MOL0     H23297   3.779   9.706  10.226  1.0861  2.0825  1.6564
  169MOL0     H23298   3.681   9.855  10.085  0.3840 -0.2340  1.3177
  169MOL0     H23299   3.826   9.894   9.998 -0.7786 -2.4706  0.5356
  169MOL0     H23300   3.784  10.094  10.134  2.1185  0.6730  0.0630
  169MOL0     H23301   3.931  10.014  10.186  0.9131  1.6912 -2.4960
  169MOL0     H23302   3.742   8.942   9.968  0.7949  0.8701  3.1091
  169MOL0     H23303   3.514   8.850   9.951  0.7482 -2.2342 -2.3321
  169MOL0     H23304   3.064   8.935   9.784  0.5617 -0.5415  1.0428
  169MOL0     H23305   2.866   8.787   9.766 -0.5248 -1.5962  0.4029
  169MOL0     H23306   1.522   7.616   9.760  1.3296  1.0863  0.3752
  169MOL0     H23307   1.300   7.694   9.667 -0.1239 -1.2088 -0.3075
  169MOL0     H23308   1.141   7.886   9.105  2.8430  2.1723  1.5932
  169MOL0     H23309   0.924   7.981   9.040  0.1097  0.0816  0.3414
  169MOL0     H23310   0.822   8.244   9.071  1.2467 -2.1531  0.4297
  169MOL0     H23311   0.659   8.252   9.087 -0.6034 -1.0950  0.0470
  169MOL0     H23312   0.702   8.409   9.255 -1.5358  0.0438  0.6684
  169MOL0     H23313   0.838   8.306   9.327  0.8166 -1.7660 -0.5291
  169MOL0     H23314   0.533   8.258   9.295  1.3404  2.7271 -2.1748
  169MOL0     H23315   0.638   8.157   9.398 -0.6128  0.3551  1.1724
  169MOL0     H23316   0.488   8.301   9.526  0.9064 -0.1909  1.4611
  169MOL0     H23317   0.576   8.440   9.458 -0.2476 -0.7371 -2.1813
  169MOL0     H23318   0.824   8.269   9.760 -1.0679  1.7179  2.2300
  169MOL0     H23319   0.828   8.060   9.444  0.2745  1.0774 -0.0981
  169MOL0     H23320   1.034   7.882   9.606 -0.6750 -0.5350 -0.0111
  169MOL0     H23321   1.134   8.034   9.575  1.3026 -0.9427 -3.4282
  169MOL0     H23322   0.964   8.036   9.615 -3.1044 -3.8629 -0.9346
  170MOL0     O23323   9.296   1.115   3.653 -0.0306  0.1768  0.5744
  170MOL0     C23324   9.294   1.015   3.574  0.7963 -0.0957 -0.3677
  170MOL0     O23325   9.370   0.981   3.473 -0.2521  0.2127  0.5595
  170MOL0     C23326   9.484   1.049   3.453 -0.1590  0.4445 -0.1758
  170MOL0     C23327   9.515   1.070   3.320 -0.2707  0.1954 -0.0928
  170MOL0     C23328   9.626   1.155   3.291 -0.1199  0.4947  0.2348
  170MOL0     C23329   9.710   1.201   3.395  0.3536 -0.5225  0.5034
  170MOL0     O23330   9.822   1.265   3.353 -0.2297 -0.0729  0.2294
  170MOL0     C23331   9.891   1.196   3.249  0.3570 -0.5885 -1.3117
  170MOL0     C23332  10.034   1.209   3.294  0.0408  0.9075  0.3562
  170MOL0     C23333  10.112   1.325   3.219 -0.2534  0.0273  0.8723
  170MOL0     C23334  10.256   1.338   3.270  0.0015  0.1661  0.1182
  170MOL0     C23335  10.329   1.441   3.183  0.2721 -0.6591  0.0966
  170MOL0     C23336  10.256   1.574   3.181 -0.5259  0.2354  0.3253
  170MOL0     C23337  10.330   1.691   3.154  0.3705  0.5873  0.4016
  170MOL0     C23338  10.380   1.714   3.012 -0.2973  0.4501 -0.0302
  170MOL0     N23339  10.433   1.844   2.984  0.2603  0.6172 -0.7563
  170MOL0     C23340  10.545   1.899   3.032 -1.1707 -0.4794 -0.4327
  170MOL0     C23341  10.548   2.021   2.965 -0.4011 -0.4292  0.3827
  170MOL0     C23342  10.657   2.123   2.983  0.7534 -0.1583 -0.0878
  170MOL0     C23343  10.673   2.208   2.859 -0.1003  0.2108  0.1967
  170MOL0     C23344  10.718   2.133   2.743 -0.1759 -0.1895  0.9827
  170MOL0     C23345  10.718   2.222   2.614  0.3049 -0.4374  0.7136
  170MOL0     O23346  10.810   2.327   2.628 -0.1038 -0.3982  0.0947
  170MOL0     C23347  10.939   2.307   2.591  0.1904  0.1397 -0.3898
  170MOL0     C23348  11.021   2.427   2.599  0.7844  0.6596 -0.8992
  170MOL0     C23349  11.163   2.417   2.586 -0.7157  0.8919 -0.4238
  170MOL0     C23350  11.228   2.547   2.596 -0.1246 -1.1967 -0.4425
  170MOL0     C23351  11.226   2.290   2.565  0.1712  0.1599 -0.1733
  170MOL0     C23352  11.367   2.265   2.545  0.6074 -0.3032 -0.5190
  170MOL0     O23353  11.404   2.134   2.568 -0.7726 -0.0272 -0.3516
  170MOL0     C23354  11.539   2.109   2.542 -0.3432 -0.0066  0.0048
  170MOL0     C23355  11.592   2.053   2.429  0.7932  0.7420 -0.6189
  170MOL0     C23356  11.730   2.030   2.412  0.2919 -0.9768  0.8971
  170MOL0     C23357  11.824   2.056   2.511 -0.0776 -0.9795  0.7674
  170MOL0     O23358  11.954   2.032   2.472 -0.5589 -0.3001 -0.0624
  170MOL0     C23359  12.060   2.074   2.561  1.0277 -0.6201 -0.9588
  170MOL0     C23360  12.188   2.004   2.552  0.0898  0.8906  0.0889
  170MOL0     C23361  12.281   2.071   2.636 -0.2582  0.0394  0.5635
  170MOL0     C23362  12.420   2.015   2.597 -0.0149  0.8586  0.5798
  170MOL0     C23363  12.525   2.035   2.706  0.0943  0.1993  0.2948
  170MOL0     C23364  12.662   1.981   2.678 -0.2875  0.0845 -0.3262
  170MOL0     C23365  12.761   2.011   2.794 -0.7315 -0.8289 -0.3560
  170MOL0     C23366  12.906   2.016   2.760  0.5762 -0.1691 -0.0709
  170MOL0    Cl23367  12.947   1.863   2.675  0.2182 -0.5453  0.0830
  170MOL0     C23368  11.775   2.096   2.634 -0.6958  0.0103 -0.2737
  170MOL0     C23369  11.637   2.128   2.639  0.2682  0.0872  0.0613
  170MOL0     O23370  11.442   2.358   2.522  1.0785  0.3985  0.0516
  170MOL0     C23371  11.151   2.177   2.566  0.1266  0.1551 -0.1435
  170MOL0     C23372  11.011   2.185   2.563  0.2026  0.2520 -0.0757
  170MOL0     N23373  10.433   2.041   2.888  0.4621 -0.0109  1.3534
  170MOL0     N23374  10.361   1.933   2.908  0.1525 -0.0951 -0.9246
  170MOL0     C23375   9.687   1.163   3.524 -0.3072 -0.1516  0.5263
  170MOL0     C23376   9.575   1.086   3.554 -0.0853 -0.1127  0.8221
  170MOL0     C23377   9.174   0.920   3.597 -0.3737 -0.5311  0.5837
  170MOL0     C23378   9.080   0.951   3.703 -0.3019  0.7481  0.2397
  170MOL0     C23379   8.961   0.888   3.712 -0.2375 -0.1268 -0.5561
  170MOL0     C23380   8.918   0.787   3.625 -1.0036  0.8156  0.3477
  170MOL0     O23381   8.794   0.724   3.632  0.2476  0.1792 -0.1501
  170MOL0     C23382   8.730   0.718   3.765 -0.2316 -0.6568  0.2730
  170MOL0     C23383   8.628   0.596   3.761 -0.2523  0.1724 -0.3417
  170MOL0     C23384   8.682   0.452   3.736  0.0209  0.4214 -0.2452
  170MOL0     C23385   8.813   0.414   3.792  0.2613  0.1605 -0.0734
  170MOL0     C23386   8.831   0.276   3.821  0.4394 -0.5782 -0.8270
  170MOL0     C23387   8.845   0.165   3.862  0.7057 -0.1742  0.6866
  170MOL0     C23388   9.013   0.749   3.532 -0.1122  0.3097  0.6151
  170MOL0     C23389   9.142   0.804   3.522 -0.1927  0.6216  0.3901
  170MOL0     C23390   9.237   0.736   3.423 -0.4962  0.3433 -0.1390
  170MOL0     H23391   9.454   1.034   3.238  0.7873 -0.2311 -0.7077
  170MOL0     H23392   9.643   1.177   3.186  0.0187  0.5422  0.2672
  170MOL0     H23393   9.870   1.250   3.156 -0.3519 -0.7713 -1.2630
  170MOL0     H23394   9.876   1.088   3.247 -1.8200 -0.7954  4.6069
  170MOL0     H23395  10.041   1.239   3.399 -0.9959 -3.8266  2.0262
  170MOL0     H23396  10.085   1.113   3.281 -1.2727  0.2079  0.2606
  170MOL0     H23397  10.106   1.310   3.111 -2.7027 -0.7344  1.0511
  170MOL0     H23398  10.058   1.418   3.236 -0.6590 -0.0746  0.1794
  170MOL0     H23399  10.248   1.374   3.373  2.1423  0.6186  0.1815
  170MOL0     H23400  10.307   1.242   3.261  0.0946  0.1436  0.8291
  170MOL0     H23401  10.349   1.402   3.082  1.8268 -1.6020  0.7176
  170MOL0     H23402  10.430   1.451   3.225 -0.3412 -1.7436  1.9291
  170MOL0     H23403  10.171   1.573   3.113 -1.2788  3.5240  1.0375
  170MOL0     H23404  10.206   1.582   3.278 -0.8074  2.0873  0.0630
  170MOL0     H23405  10.412   1.701   3.226 -0.8717  1.1460  1.8074
  170MOL0     H23406  10.260   1.772   3.176  1.2904  1.8387 -1.0966
  170MOL0     H23407  10.453   1.642   2.973 -0.9378  1.5515 -3.6777
  170MOL0     H23408  10.286   1.694   2.960 -1.0230  0.3772  1.2603
  170MOL0     H23409  10.624   1.863   3.098  1.1896  3.3060 -0.8655
  170MOL0     H23410  10.746   2.069   3.018  1.2419 -1.0407 -2.4801
  170MOL0     H23411  10.623   2.191   3.062  0.4464  1.8494 -1.8558
  170MOL0     H23412  10.577   2.255   2.834 -0.4192 -0.2604  0.5140
  170MOL0     H23413  10.755   2.277   2.877  2.6871 -2.1530 -2.3740
  170MOL0     H23414  10.817   2.087   2.748  0.0689  0.2442  0.3792
  170MOL0     H23415  10.656   2.046   2.721  0.5950 -0.2462 -1.3577
  170MOL0     H23416  10.745   2.154   2.532  1.4807 -0.3968  1.0572
  170MOL0     H23417  10.621   2.264   2.585 -0.8430 -1.3056  3.0215
  170MOL0     H23418  10.976   2.523   2.621 -2.3758 -1.0104  0.6246
  170MOL0     H23419  11.183   2.626   2.656 -0.8405  0.0278 -2.4702
  170MOL0     H23420  11.235   2.593   2.496 -0.9178 -0.8981 -0.3646
  170MOL0     H23421  11.325   2.537   2.645 -0.0453 -2.1936 -0.7861
  170MOL0     H23422  11.518   2.032   2.353  0.8324 -3.6812  0.3072
  170MOL0     H23423  11.772   1.988   2.321  0.4231 -0.4420  0.7112
  170MOL0     H23424  12.081   2.180   2.547  1.7029 -0.5391  0.4515
  170MOL0     H23425  12.024   2.069   2.664  2.0432  2.4145 -0.3589
  170MOL0     H23426  12.175   1.906   2.597 -0.9914  0.3929 -1.2485
  170MOL0     H23427  12.226   1.990   2.450  2.7875  1.7854  0.8796
  170MOL0     H23428  12.257   2.057   2.741  1.0454 -1.5957  0.6917
  170MOL0     H23429  12.278   2.177   2.610  0.1991 -0.1121 -0.1497
  170MOL0     H23430  12.448   2.060   2.501 -0.6599 -0.9225 -0.5019
  170MOL0     H23431  12.407   1.907   2.586 -3.4489  0.7814  3.4860
  170MOL0     H23432  12.526   2.141   2.734  0.2075 -0.1848  1.8276
  170MOL0     H23433  12.490   1.982   2.795 -2.8967  0.1412 -0.8202
  170MOL0     H23434  12.693   2.028   2.584  1.9987  0.3132  0.4591
  170MOL0     H23435  12.646   1.874   2.661  0.5104 -0.0044 -0.6077
  170MOL0     H23436  12.744   1.927   2.862  0.1761  0.0599  0.9893
  170MOL0     H23437  12.736   2.104   2.846 -1.4280 -1.0797 -0.2291
  170MOL0     H23438  12.964   2.014   2.852 -1.7028  0.0841  1.4670
  170MOL0     H23439  12.929   2.104   2.698  0.7050  1.9355  2.7570
  170MOL0     H23440  11.841   2.119   2.717 -0.1797 -0.0162 -0.6713
  170MOL0     H23441  11.620   2.173   2.736  2.0331  2.5814 -0.6926
  170MOL0     H23442  11.186   2.076   2.547  0.4285 -0.4386  3.0595
  170MOL0     H23443  10.966   2.088   2.546  0.6340 -0.2458  1.4453
  170MOL0     H23444   9.752   1.194   3.606 -1.3499 -0.1860  1.3864
  170MOL0     H23445   9.549   1.050   3.653 -0.3715 -0.5686  0.5836
  170MOL0     H23446   9.089   1.035   3.771  2.5696  1.0215 -0.3503
  170MOL0     H23447   8.890   0.922   3.787  2.2293  0.2710  1.7326
  170MOL0     H23448   8.801   0.704   3.846  1.7208  4.2341 -0.2342
  170MOL0     H23449   8.671   0.807   3.787  3.4303  1.7110  1.3326
  170MOL0     H23450   8.561   0.618   3.678  0.4960 -0.7643 -1.2215
  170MOL0     H23451   8.566   0.593   3.851  1.9030 -0.1140  1.2211
  170MOL0     H23452   8.617   0.380   3.788  3.3552 -0.4962  3.0785
  170MOL0     H23453   8.688   0.447   3.627  1.8106  1.3120 -0.2207
  170MOL0     H23454   8.832   0.475   3.881  0.5867 -0.5830  0.3782
  170MOL0     H23455   8.887   0.449   3.719 -0.2346 -1.8504 -1.6440
  170MOL0     H23456   8.865   0.067   3.902  2.0293  0.8383  2.6880
  170MOL0     H23457   8.989   0.679   3.452  3.6902 -0.2157 -0.2570
  170MOL0     H23458   9.342   0.735   3.454  0.1713  0.8912 -2.2215
  170MOL0     H23459   9.214   0.630   3.414  0.4704  0.0941  0.2097
  170MOL0     H23460   9.246   0.793   3.330  1.2467  1.9900  0.9688
  171MOL0     O23461   1.394   0.581   2.201 -0.1384 -0.0304  0.2107
  171MOL0     C23462   1.351   0.509   2.113 -0.1501 -0.0963 -0.1186
  171MOL0     O23463   1.418   0.401   2.059  0.0748 -0.9062  0.5234
  171MOL0     C23464   1.552   0.401   2.073 -0.4420  0.0706  0.2524
  171MOL0     C23465   1.637   0.513   2.025 -0.3447 -0.7221 -0.5319
  171MOL0     C23466   1.773   0.501   2.057  0.2598 -0.0634  0.1602
  171MOL0     C23467   1.823   0.387   2.133  0.4131  0.0366  0.6832
  171MOL0     O23468   1.952   0.374   2.186 -0.6856  0.2289  0.3374
  171MOL0     C23469   2.064   0.363   2.088 -0.1665 -0.9030 -0.8078
  171MOL0     C23470   2.185   0.304   2.161  0.0026  0.0320  0.3459
  171MOL0     C23471   2.317   0.341   2.084  0.5749  0.1199 -0.1475
  171MOL0     C23472   2.426   0.272   2.171  0.3257  0.5768  0.3785
  171MOL0     C23473   2.564   0.245   2.106 -0.2680 -0.3967  0.6650
  171MOL0     C23474   2.642   0.378   2.086 -0.4070 -0.1585  0.1515
  171MOL0     C23475   2.787   0.338   2.038  0.7138  0.2298 -1.2929
  171MOL0     C23476   2.882   0.298   2.151 -0.4448 -0.0374 -0.0363
  171MOL0     N23477   3.026   0.317   2.118  0.7766 -0.4624  0.1314
  171MOL0     C23478   3.125   0.224   2.096 -0.9463 -0.2667  0.4018
  171MOL0     C23479   3.244   0.294   2.086  0.2973 -0.0573  0.1496
  171MOL0     C23480   3.384   0.239   2.066  0.3499  0.9262  0.5839
  171MOL0     C23481   3.494   0.344   2.123  1.2988 -0.1273  0.9847
  171MOL0     C23482   3.480   0.338   2.275 -0.0329  0.1215 -0.0946
  171MOL0     C23483   3.610   0.393   2.332  0.0556 -0.1485  0.1925
  171MOL0     O23484   3.610   0.366   2.475  0.3978 -0.5932  0.2586
  171MOL0     C23485   3.654   0.245   2.516 -0.6891 -0.6703 -0.4519
  171MOL0     C23486   3.680   0.231   2.653 -0.6509 -0.4593 -0.0079
  171MOL0     C23487   3.722   0.116   2.715 -0.5845  0.1237  0.9691
  171MOL0     C23488   3.740   0.129   2.866  0.1512  0.0985  0.2509
  171MOL0     C23489   3.743   0.003   2.629  0.0062 -0.4569 -0.4175
  171MOL0     C23490   3.792  -0.128   2.680 -0.2865  0.6733  0.0890
  171MOL0     O23491   3.854  -0.133   2.799  0.4625 -0.1768 -0.0695
  171MOL0     C23492   3.914  -0.253   2.832  0.9316  0.2924  0.6437
  171MOL0     C23493   3.847  -0.355   2.898  0.5573 -0.2870 -0.2282
  171MOL0     C23494   3.896  -0.482   2.935 -0.0480 -0.0836  0.3619
  171MOL0     C23495   4.023  -0.515   2.890 -0.5835  0.1212 -0.1604
  171MOL0     O23496   4.071  -0.643   2.905  0.3452  0.0475 -0.3354
  171MOL0     C23497   4.003  -0.756   2.858  0.6422 -1.0317 -0.2549
  171MOL0     C23498   3.966  -0.845   2.967 -0.5033 -0.5650 -0.6063
  171MOL0     C23499   3.865  -0.787   3.070  0.2253  0.2133 -0.2798
  171MOL0     C23500   3.843  -0.892   3.180  0.3289 -0.5749 -0.0134
  171MOL0     C23501   3.791  -0.830   3.303 -0.4377 -1.0082 -0.3789
  171MOL0     C23502   3.760  -0.946   3.410 -0.4507 -1.0268  0.5164
  171MOL0     C23503   3.714  -0.878   3.541 -1.0795 -0.3225  0.1140
  171MOL0     C23504   3.695  -0.976   3.645  0.1606 -0.1756  0.1547
  171MOL0    Cl23505   3.542  -1.068   3.611 -0.0390 -0.7819 -0.3481
  171MOL0     C23506   4.100  -0.416   2.827  0.0453 -0.1832  0.1034
  171MOL0     C23507   4.036  -0.295   2.795  0.7437 -0.4049 -0.0939
  171MOL0     O23508   3.758  -0.233   2.615  0.0169  0.2688  0.2148
  171MOL0     C23509   3.720   0.020   2.490 -0.2404  0.2773 -0.1165
  171MOL0     C23510   3.669   0.140   2.431  0.2999 -0.0228 -0.6391
  171MOL0     N23511   3.213   0.430   2.088 -0.1644  0.1665 -0.2417
  171MOL0     N23512   3.083   0.438   2.111  0.7403  0.5155  0.3764
  171MOL0     C23513   1.736   0.280   2.177 -0.1212  0.4369  0.5351
  171MOL0     C23514   1.599   0.291   2.144  0.2088  0.1484  0.0884
  171MOL0     C23515   1.213   0.536   2.068  0.3366  0.6769 -0.7716
  171MOL0     C23516   1.129   0.425   2.049 -0.0349  1.1473 -0.3064
  171MOL0     C23517   0.999   0.441   1.998 -1.0172 -0.4962  0.4694
  171MOL0     C23518   0.962   0.567   1.961  0.8482  0.3524  0.6995
  171MOL0     O23519   0.839   0.580   1.901 -0.5667 -0.1644  0.5284
  171MOL0     C23520   0.722   0.517   1.956  0.5267  1.1333  0.1160
  171MOL0     C23521   0.653   0.616   2.050  0.3558 -0.8647 -0.0338
  171MOL0     C23522   0.586   0.729   1.967  0.3556  0.9246 -0.6888
  171MOL0     C23523   0.553   0.848   2.059 -0.4482  0.5320  0.2056
  171MOL0     C23524   0.408   0.870   2.069 -0.5629  0.4177  0.3510
  171MOL0     C23525   0.291   0.895   2.082 -0.2384  0.7354 -0.3297
  171MOL0     C23526   1.041   0.679   1.977 -0.5028 -0.2872 -0.4014
  171MOL0     C23527   1.164   0.671   2.033 -0.2932  0.1796 -0.6225
  171MOL0     C23528   1.252   0.793   2.041  0.6803  0.1321 -1.1612
  171MOL0     H23529   1.597   0.597   1.970 -0.9752 -1.4426 -1.1938
  171MOL0     H23530   1.848   0.579   2.044  0.4654 -0.4719 -1.3054
  171MOL0     H23531   2.083   0.467   2.060  2.1340 -0.7926  0.8184
  171MOL0     H23532   2.036   0.307   1.999  1.7554  0.0253 -2.0643
  171MOL0     H23533   2.192   0.346   2.262 -0.1077  1.1571 -0.0960
  171MOL0     H23534   2.156   0.199   2.155  1.3536 -0.2812 -1.4257
  171MOL0     H23535   2.314   0.299   1.983  2.2909  1.3721 -0.7571
  171MOL0     H23536   2.339   0.447   2.077 -0.9621  0.5901  1.4205
  171MOL0     H23537   2.435   0.329   2.263 -1.9533  0.6780  0.5948
  171MOL0     H23538   2.394   0.170   2.194 -1.4460  0.8941 -0.4898
  171MOL0     H23539   2.551   0.196   2.009  0.6032 -3.0424  1.7786
  171MOL0     H23540   2.625   0.178   2.168 -0.7896 -3.3319 -1.7539
  171MOL0     H23541   2.608   0.425   1.993 -2.5058 -0.7129  0.5901
  171MOL0     H23542   2.646   0.443   2.174 -1.5778  0.3979 -0.1832
  171MOL0     H23543   2.830   0.424   1.985  1.2320  0.5487 -0.3871
  171MOL0     H23544   2.784   0.252   1.972  1.1205 -2.4880  1.9488
  171MOL0     H23545   2.864   0.355   2.243  2.1994 -0.1968  0.6788
  171MOL0     H23546   2.865   0.194   2.182  2.2099 -0.1687  1.2955
  171MOL0     H23547   3.124   0.116   2.086  4.2856 -0.4435 -0.9673
  171MOL0     H23548   3.394   0.220   1.959  0.5571  0.9557  0.5980
  171MOL0     H23549   3.401   0.139   2.107 -1.8758 -0.0299 -0.6666
  171MOL0     H23550   3.593   0.314   2.086  0.6478 -2.0723  0.7203
  171MOL0     H23551   3.471   0.445   2.089  0.5757  0.0809  2.0370
  171MOL0     H23552   3.402   0.405   2.313 -1.0865 -2.0458  1.8476
  171MOL0     H23553   3.455   0.240   2.317  0.1452  0.8906  1.8996
  171MOL0     H23554   3.698   0.356   2.279 -0.3547 -0.8780  0.0047
  171MOL0     H23555   3.622   0.502   2.330  2.8421 -0.3979 -0.5789
  171MOL0     H23556   3.681   0.323   2.711 -0.3419  0.0675 -0.8333
  171MOL0     H23557   3.690   0.047   2.918 -1.8569  0.5552 -0.8400
  171MOL0     H23558   3.689   0.221   2.895  0.7051  0.8505 -1.0549
  171MOL0     H23559   3.844   0.131   2.902  0.6451 -1.4850 -0.9900
  171MOL0     H23560   3.746  -0.339   2.934 -0.4096 -1.1908 -2.3956
  171MOL0     H23561   3.829  -0.549   2.988 -1.2450  0.6774 -0.1460
  171MOL0     H23562   3.909  -0.725   2.811 -0.6968 -2.8634  1.1038
  171MOL0     H23563   4.055  -0.801   2.773  0.5922  0.6206 -1.2003
  171MOL0     H23564   3.911  -0.927   2.919 -0.0051 -0.4139 -1.4717
  171MOL0     H23565   4.059  -0.884   3.009 -1.8055 -2.5616  0.5837
  171MOL0     H23566   3.771  -0.769   3.017  0.7465 -1.9902 -2.1008
  171MOL0     H23567   3.903  -0.696   3.119  1.3318 -0.5808  0.3914
  171MOL0     H23568   3.944  -0.931   3.198  1.0191  1.5552  0.9902
  171MOL0     H23569   3.774  -0.968   3.142  1.0842 -2.3420  1.9541
  171MOL0     H23570   3.868  -0.765   3.345 -1.6197  0.6950 -0.7335
  171MOL0     H23571   3.708  -0.762   3.280 -1.6546 -1.8844  1.2417
  171MOL0     H23572   3.848  -1.010   3.419 -0.5805 -1.8581 -2.7448
  171MOL0     H23573   3.689  -1.015   3.363  2.9010 -2.2224 -3.3642
  171MOL0     H23574   3.627  -0.813   3.535 -1.6394 -1.1859 -2.2096
  171MOL0     H23575   3.803  -0.826   3.579 -0.9075 -0.6286  0.1368
  171MOL0     H23576   3.692  -0.924   3.741  1.6013 -1.3355  0.8477
  171MOL0     H23577   3.774  -1.050   3.643  0.0234 -0.3376 -1.7302
  171MOL0     H23578   4.199  -0.445   2.795 -0.3041 -2.8892  1.1883
  171MOL0     H23579   4.091  -0.221   2.738  0.6332  0.8552  1.3442
  171MOL0     H23580   3.751  -0.064   2.428  1.3953  0.9330 -0.2571
  171MOL0     H23581   3.660   0.148   2.323  0.1057  2.6905 -0.4759
  171MOL0     H23582   1.771   0.191   2.228 -2.3494 -1.4084 -0.9309
  171MOL0     H23583   1.527   0.226   2.192 -0.8712  1.5155  0.3800
  171MOL0     H23584   1.175   0.334   2.087  1.4839  2.0166  0.0233
  171MOL0     H23585   0.933   0.359   1.973 -1.6564 -0.6062  2.3639
  171MOL0     H23586   0.661   0.495   1.868  0.1885 -1.4412  0.9188
  171MOL0     H23587   0.737   0.421   2.005  2.3576  0.6729 -1.2423
  171MOL0     H23588   0.718   0.652   2.130 -3.1135  1.2893  2.0609
  171MOL0     H23589   0.575   0.562   2.105  0.0455 -0.6712 -0.2768
  171MOL0     H23590   0.664   0.766   1.901  3.1509 -0.6464  1.4956
  171MOL0     H23591   0.505   0.691   1.905 -1.2885  4.6863 -1.1196
  171MOL0     H23592   0.611   0.936   2.031 -1.4292  1.2168  0.2602
  171MOL0     H23593   0.587   0.820   2.159  3.3486  0.2677 -1.0019
  171MOL0     H23594   0.186   0.895   2.098 -0.3747  0.9575 -1.1591
  171MOL0     H23595   0.998   0.770   1.935 -0.8128  1.0781  2.6194
  171MOL0     H23596   1.279   0.815   2.145  0.3461 -3.0276 -0.3112
  171MOL0     H23597   1.343   0.788   1.980 -1.5958 -0.4748 -4.8462
  171MOL0     H23598   1.194   0.879   2.007 -1.6148 -1.7494 -2.3082
  172MOL0     O23599   8.336   2.135   2.196  0.2954  0.6233  0.3324
  172MOL0     C23600   8.302   2.227   2.124  0.1678 -0.0342 -0.2226
  172MOL0     O23601   8.312   2.242   1.980 -0.1839 -0.4339 -0.0582
  172MOL0     C23602   8.367   2.148   1.898  0.2077  0.4407  0.7966
  172MOL0     C23603   8.468   2.059   1.943 -0.0567 -0.8310 -0.3619
  172MOL0     C23604   8.518   1.979   1.842 -0.5391  0.8169 -1.1167
  172MOL0     C23605   8.486   1.989   1.704  0.1181  0.7199 -1.3422
  172MOL0     O23606   8.535   1.896   1.623 -0.7349  0.4341 -0.9229
  172MOL0     C23607   8.505   1.889   1.481 -0.3223  0.2905  0.2840
  172MOL0     C23608   8.361   1.850   1.468 -0.5889  0.5806 -0.2262
  172MOL0     C23609   8.301   1.889   1.335  0.4493 -0.0230 -0.9481
  172MOL0     C23610   8.152   1.862   1.344 -0.0632 -0.2991 -0.2255
  172MOL0     C23611   8.076   1.896   1.220  0.4052 -0.0219  0.5324
  172MOL0     C23612   8.065   2.051   1.205  0.1776  0.1175  0.8895
  172MOL0     C23613   7.966   2.115   1.314  0.2500  1.2361 -0.3776
  172MOL0     C23614   7.967   2.267   1.302  0.6206  0.8766  0.0895
  172MOL0     N23615   8.084   2.333   1.366  0.6590 -0.0972  0.3518
  172MOL0     C23616   8.211   2.367   1.314  1.2416  0.8257  0.0940
  172MOL0     C23617   8.279   2.425   1.420  1.0737  0.4323 -0.6254
  172MOL0     C23618   8.423   2.465   1.432  0.7277 -0.0147 -0.9302
  172MOL0     C23619   8.441   2.604   1.362  0.6353  1.1638 -0.0569
  172MOL0     C23620   8.371   2.718   1.425 -0.2408  0.2358 -0.0038
  172MOL0     C23621   8.424   2.846   1.352  0.1368 -0.6731 -0.7108
  172MOL0     O23622   8.436   2.963   1.436 -0.2236  0.3865  0.3217
  172MOL0     C23623   8.524   2.964   1.540  0.0259  0.4454  0.3410
  172MOL0     C23624   8.519   3.067   1.634  0.9055 -1.0200 -0.3142
  172MOL0     C23625   8.610   3.084   1.740  0.3166  0.7976  0.0113
  172MOL0     C23626   8.606   3.198   1.824  0.3166 -0.8164 -0.0099
  172MOL0     C23627   8.709   2.981   1.748  1.0925 -0.3355 -0.4574
  172MOL0     C23628   8.824   2.973   1.848  0.5181  0.1070  0.1239
  172MOL0     O23629   8.859   2.848   1.877 -0.2255 -0.2430  0.2576
  172MOL0     C23630   8.980   2.824   1.943 -0.1792 -0.8748 -0.2555
  172MOL0     C23631   9.031   2.698   1.902 -0.4267 -0.4795 -0.1161
  172MOL0     C23632   9.157   2.659   1.943 -0.5683 -0.6100  1.4992
  172MOL0     C23633   9.230   2.743   2.024 -0.2788 -0.4484  0.2876
  172MOL0     O23634   9.352   2.715   2.078 -0.3076  0.4448 -0.1210
  172MOL0     C23635   9.439   2.612   2.023  0.0003  0.1950  0.2715
  172MOL0     C23636   9.484   2.649   1.885 -0.3306  0.2868 -0.0651
  172MOL0     C23637   9.595   2.552   1.831  0.2344 -0.2573  0.2323
  172MOL0     C23638   9.567   2.398   1.825  0.0390 -0.5216  0.4325
  172MOL0     C23639   9.650   2.318   1.735 -1.1348 -0.0502  1.3301
  172MOL0     C23640   9.794   2.296   1.777 -0.1931  0.8043 -0.0526
  172MOL0     C23641   9.871   2.207   1.683  0.7568 -0.0670  0.5414
  172MOL0     C23642  10.014   2.190   1.735 -0.5025 -0.3782  0.0599
  172MOL0    Cl23643  10.104   2.066   1.647 -0.1901  0.4605  0.4364
  172MOL0     C23644   9.180   2.868   2.068 -0.2365  0.5903 -0.6408
  172MOL0     C23645   9.056   2.914   2.036 -0.1477  0.1604 -0.0676
  172MOL0     O23646   8.875   3.077   1.886  0.2526  0.4943  0.2874
  172MOL0     C23647   8.723   2.886   1.649  0.7626 -0.0354  0.4157
  172MOL0     C23648   8.630   2.872   1.555 -0.4951  0.8776  0.0543
  172MOL0     N23649   8.190   2.422   1.526  0.1041 -0.4518  0.8460
  172MOL0     N23650   8.079   2.363   1.494 -0.1755  1.0691  0.4744
  172MOL0     C23651   8.409   2.091   1.660 -0.6008  0.0489  0.3411
  172MOL0     C23652   8.345   2.170   1.753 -1.6026 -0.2224 -0.4053
  172MOL0     C23653   8.206   2.313   2.184 -0.1859 -0.5358 -0.1051
  172MOL0     C23654   8.122   2.382   2.090  0.3414 -0.1455  0.4662
  172MOL0     C23655   8.022   2.469   2.128  0.2508  0.2077 -0.3734
  172MOL0     C23656   8.001   2.488   2.266 -0.9199  0.0782 -0.2660
  172MOL0     O23657   7.900   2.558   2.328  0.1358  0.4546  0.7487
  172MOL0     C23658   7.793   2.609   2.246 -0.5215  0.3302  0.1313
  172MOL0     C23659   7.828   2.748   2.178 -0.2333  0.8177  0.4103
  172MOL0     C23660   7.865   2.857   2.273  0.1648  0.8774  0.3498
  172MOL0     C23661   7.874   2.980   2.197 -0.1102  0.0778  0.5696
  172MOL0     C23662   7.910   3.094   2.288 -0.4489 -0.4730 -0.4409
  172MOL0     C23663   7.937   3.161   2.384  0.6885  0.4454 -0.4941
  172MOL0     C23664   8.087   2.430   2.361  0.4340  0.0478  0.2669
  172MOL0     C23665   8.180   2.333   2.321  0.4290 -0.4135 -0.5959
  172MOL0     C23666   8.276   2.289   2.434 -0.7150 -0.4727  0.2707
  172MOL0     H23667   8.507   2.056   2.044 -2.2782 -1.6729  0.5481
  172MOL0     H23668   8.581   1.903   1.887 -2.9114  0.8218  2.7667
  172MOL0     H23669   8.572   1.819   1.430  0.0349 -0.3380  1.5894
  172MOL0     H23670   8.520   1.989   1.438 -1.0007  0.4738  0.4545
  172MOL0     H23671   8.347   1.743   1.484  2.9623  0.0277 -0.0119
  172MOL0     H23672   8.309   1.902   1.549  2.4643  1.8116  1.1156
  172MOL0     H23673   8.318   1.995   1.315 -3.2538  1.1133  1.1122
  172MOL0     H23674   8.340   1.831   1.251  0.3695  1.4437 -2.0385
  172MOL0     H23675   8.140   1.756   1.369  0.4683  0.1428  2.2654
  172MOL0     H23676   8.108   1.915   1.429 -0.8870 -1.7465  0.3021
  172MOL0     H23677   7.970   1.870   1.226  0.5111 -0.5885 -0.0379
  172MOL0     H23678   8.113   1.844   1.132 -2.3733 -2.1194  0.4899
  172MOL0     H23679   8.171   2.076   1.206  0.8765 -2.5107  0.9852
  172MOL0     H23680   8.024   2.074   1.107  0.3041 -1.9531  0.2951
  172MOL0     H23681   7.998   2.096   1.416 -0.8664  0.8310 -0.0870
  172MOL0     H23682   7.867   2.073   1.291  0.1692  1.6416 -0.8010
  172MOL0     H23683   7.966   2.286   1.195 -1.6602 -0.4858 -0.1958
  172MOL0     H23684   7.871   2.299   1.344  0.0808 -0.9592  0.3365
  172MOL0     H23685   8.246   2.350   1.213  0.1224 -0.6944 -0.0828
  172MOL0     H23686   8.486   2.386   1.390 -0.2675 -0.5962 -1.3608
  172MOL0     H23687   8.457   2.482   1.535  0.8203 -0.4345 -0.8915
  172MOL0     H23688   8.546   2.628   1.376  0.1450  2.1823  2.2623
  172MOL0     H23689   8.424   2.596   1.254 -1.2362  0.0459  0.2702
  172MOL0     H23690   8.267   2.696   1.400 -0.7838  3.0473 -0.5692
  172MOL0     H23691   8.375   2.721   1.535  1.4835  1.4968 -0.0573
  172MOL0     H23692   8.519   2.827   1.300  3.0556 -2.5097  4.5525
  172MOL0     H23693   8.358   2.869   1.268 -1.2645  2.0125  0.9783
  172MOL0     H23694   8.438   3.138   1.617  0.1185 -1.8707 -0.1768
  172MOL0     H23695   8.505   3.231   1.851  0.9726  2.1483 -0.7630
  172MOL0     H23696   8.647   3.288   1.777 -0.6170  0.1908  1.0100
  172MOL0     H23697   8.660   3.183   1.919  0.0610  0.4292  0.3569
  172MOL0     H23698   8.973   2.631   1.841  1.3786 -0.5057 -1.9127
  172MOL0     H23699   9.193   2.561   1.917  3.7357  1.7518 -3.3423
  172MOL0     H23700   9.518   2.595   2.097 -0.9571 -4.4489  0.5097
  172MOL0     H23701   9.393   2.514   2.013  0.1848  0.3630 -3.4528
  172MOL0     H23702   9.406   2.675   1.814  1.9033 -0.2702 -2.9136
  172MOL0     H23703   9.537   2.742   1.907 -0.6045  0.8715 -1.7443
  172MOL0     H23704   9.691   2.573   1.880  1.3124  2.3102 -2.6696
  172MOL0     H23705   9.606   2.584   1.727 -2.3728 -1.4500 -0.4680
  172MOL0     H23706   9.461   2.384   1.803  0.1680 -1.1630  0.1936
  172MOL0     H23707   9.571   2.352   1.924 -0.0169 -0.5041  0.4428
  172MOL0     H23708   9.610   2.220   1.707  1.6536 -0.4730 -1.9128
  172MOL0     H23709   9.652   2.370   1.638 -0.4437  0.4874  1.6221
  172MOL0     H23710   9.794   2.249   1.875 -2.3611 -0.4068 -0.5807
  172MOL0     H23711   9.853   2.387   1.792  0.4828  0.4207 -0.3147
  172MOL0     H23712   9.869   2.249   1.582 -0.1852  0.1656  0.6512
  172MOL0     H23713   9.820   2.111   1.673 -0.5031  0.2001  3.3399
  172MOL0     H23714   9.998   2.152   1.837 -2.0826 -0.3755 -0.1566
  172MOL0     H23715  10.072   2.282   1.721 -2.1056  0.3948 -1.9330
  172MOL0     H23716   9.244   2.931   2.128  0.0153 -1.7245  1.6976
  172MOL0     H23717   9.019   3.012   2.066  0.3868  0.8837 -1.6345
  172MOL0     H23718   8.803   2.812   1.648  0.3579 -0.6324 -3.3155
  172MOL0     H23719   8.651   2.795   1.481  1.8962  2.8509 -1.4850
  172MOL0     H23720   8.391   2.109   1.555  0.2549 -1.7909 -0.1616
  172MOL0     H23721   8.287   2.249   1.707 -0.2652  0.4983 -0.9258
  172MOL0     H23722   8.134   2.372   1.982 -0.2819 -2.4660  0.5567
  172MOL0     H23723   7.952   2.514   2.057  0.6601  0.3357 -0.6977
  172MOL0     H23724   7.761   2.535   2.173 -0.1157 -0.3314  0.6226
  172MOL0     H23725   7.711   2.632   2.316 -0.3869 -0.3448  0.5108
  172MOL0     H23726   7.738   2.772   2.120  0.0625  1.8599  0.3777
  172MOL0     H23727   7.905   2.743   2.101 -0.6326  2.3205 -0.1184
  172MOL0     H23728   7.791   2.855   2.353 -0.4665  2.5825 -0.1456
  172MOL0     H23729   7.955   2.809   2.313  0.2729  0.0107 -0.8765
  172MOL0     H23730   7.779   3.015   2.156 -0.5669 -0.1315  1.4240
  172MOL0     H23731   7.944   2.976   2.113 -3.5515  2.2792 -2.7366
  172MOL0     H23732   7.969   3.228   2.460 -2.1103  1.6761 -0.2803
  172MOL0     H23733   8.069   2.456   2.465  3.1758 -0.4429  0.9447
  172MOL0     H23734   8.249   2.189   2.469  0.5701 -0.9392 -0.0174
  172MOL0     H23735   8.380   2.289   2.399  0.0392 -1.1298  2.3481
  172MOL0     H23736   8.270   2.367   2.510  0.0854  0.2023 -0.3325
  173MOL0     O23737  10.416   3.577   7.947 -0.0458 -0.4015  0.2795
  173MOL0     C23738  10.373   3.584   8.060 -0.1753 -0.6721 -0.3297
  173MOL0     O23739  10.394   3.493   8.164 -0.0217 -0.1990 -0.3189
  173MOL0     C23740  10.516   3.432   8.164 -0.8231  1.0358 -0.9256
  173MOL0     C23741  10.639   3.500   8.173 -0.8510 -0.5000 -0.5664
  173MOL0     C23742  10.753   3.427   8.165  0.6390 -0.4978 -0.1824
  173MOL0     C23743  10.749   3.292   8.164  0.1422 -0.2058 -0.2226
  173MOL0     O23744  10.873   3.239   8.139  0.6638  0.5871 -0.7870
  173MOL0     C23745  10.876   3.126   8.053  0.8001 -0.0234  0.3118
  173MOL0     C23746  11.020   3.081   8.039 -0.1789 -0.0460  0.2333
  173MOL0     C23747  11.031   2.948   7.966  0.1648 -0.4576 -0.2871
  173MOL0     C23748  11.172   2.908   7.967 -0.7024 -0.4774  0.0410
  173MOL0     C23749  11.195   2.807   7.855 -0.3834  0.3718 -0.2076
  173MOL0     C23750  11.328   2.739   7.853 -0.1650 -0.2224 -0.3016
  173MOL0     C23751  11.453   2.811   7.908  0.1358  0.1616 -1.1108
  173MOL0     C23752  11.509   2.919   7.811  0.3921 -0.7800 -0.2395
  173MOL0     N23753  11.550   2.876   7.672 -0.3844 -0.1060 -0.5264
  173MOL0     C23754  11.664   2.807   7.641  0.3630 -0.1663 -0.5746
  173MOL0     C23755  11.642   2.790   7.512 -0.4266  0.7477  0.9624
  173MOL0     C23756  11.741   2.726   7.425 -0.7071  0.2658  0.1732
  173MOL0     C23757  11.810   2.820   7.335 -0.0253 -0.2965 -0.2015
  173MOL0     C23758  11.914   2.755   7.250 -0.1319 -0.2545 -0.3437
  173MOL0     C23759  12.056   2.788   7.303  0.1011 -0.0167 -0.3222
  173MOL0     O23760  12.159   2.722   7.233  0.7524  0.9044 -0.1707
  173MOL0     C23761  12.295   2.738   7.250  0.2289 -0.5944 -0.2128
  173MOL0     C23762  12.336   2.829   7.347 -0.0528  0.7760  0.4418
  173MOL0     C23763  12.476   2.830   7.375 -0.6974 -0.4002 -0.1702
  173MOL0     C23764  12.497   2.908   7.510 -0.4643 -0.4564 -0.4382
  173MOL0     C23765  12.571   2.764   7.291  0.1089 -0.9612  0.1939
  173MOL0     C23766  12.717   2.777   7.301 -0.9245 -0.5696 -0.1874
  173MOL0     O23767  12.760   2.786   7.430  0.2879  0.5237 -0.2501
  173MOL0     C23768  12.880   2.846   7.447  0.4374 -0.5051  0.4000
  173MOL0     C23769  13.008   2.785   7.426 -0.6825  0.0664 -0.9081
  173MOL0     C23770  13.129   2.850   7.434 -0.3599 -0.6494  0.0766
  173MOL0     C23771  13.134   2.986   7.483  0.2015  1.0833 -0.1378
  173MOL0     O23772  13.258   3.036   7.504  0.5900 -0.8425  1.1083
  173MOL0     C23773  13.277   3.153   7.589  0.5543 -0.1468 -0.1393
  173MOL0     C23774  13.418   3.143   7.646 -0.7391 -0.1022  0.4562
  173MOL0     C23775  13.478   3.275   7.696  0.5129 -0.3070 -0.3543
  173MOL0     C23776  13.610   3.253   7.758 -0.6446  0.7732 -0.4009
  173MOL0     C23777  13.687   3.374   7.786  0.6446  0.1477  0.2173
  173MOL0     C23778  13.816   3.337   7.857 -0.2989 -0.3530  0.3825
  173MOL0     C23779  13.893   3.466   7.906 -0.2848  0.0283 -0.1943
  173MOL0     C23780  14.041   3.448   7.936  0.5612 -0.3038  0.3205
  173MOL0    Cl23781  14.113   3.613   7.954  0.2288  0.0833  0.4904
  173MOL0     C23782  13.010   3.057   7.495 -0.9814  0.4064 -0.5570
  173MOL0     C23783  12.884   2.990   7.483  0.4219  0.0362 -0.2149
  173MOL0     O23784  12.793   2.765   7.202 -0.5167  0.0708 -0.7208
  173MOL0     C23785  12.522   2.682   7.193 -0.9065 -0.0089  0.1125
  173MOL0     C23786  12.380   2.663   7.176  0.2098 -0.2279  0.4167
  173MOL0     N23787  11.522   2.833   7.465 -0.3990 -0.0833  0.0759
  173MOL0     N23788  11.465   2.893   7.562 -0.1225  0.4323 -0.0244
  173MOL0     C23789  10.631   3.220   8.173  0.5069 -0.5671 -0.4330
  173MOL0     C23790  10.509   3.292   8.172  0.9829 -0.9121  0.3370
  173MOL0     C23791  10.257   3.670   8.079  0.1047 -0.1604 -0.2507
  173MOL0     C23792  10.153   3.653   7.987  0.1124 -0.5270  0.6500
  173MOL0     C23793  10.043   3.737   7.983 -0.0292 -0.1421  0.5256
  173MOL0     C23794  10.036   3.836   8.082 -0.3115 -0.4897  0.1486
  173MOL0     O23795   9.931   3.923   8.075  0.4318 -0.3360 -0.4622
  173MOL0     C23796   9.794   3.872   8.101 -0.1379  0.4839  0.3123
  173MOL0     C23797   9.689   3.898   7.988 -0.6205 -0.5324 -0.7705
  173MOL0     C23798   9.665   4.040   7.962 -0.2520  0.0730  0.5896
  173MOL0     C23799   9.569   4.121   8.055 -0.8104 -0.6338 -0.1121
  173MOL0     C23800   9.431   4.065   8.050 -0.2093  1.0595  0.4365
  173MOL0     C23801   9.323   4.002   8.042 -0.0783  0.5057  0.8800
  173MOL0     C23802  10.136   3.851   8.180 -0.1366  0.1129  0.4775
  173MOL0     C23803  10.249   3.768   8.173 -0.3275 -0.7643  1.0050
  173MOL0     C23804  10.368   3.793   8.269  0.5159 -0.6666 -0.7989
  173MOL0     H23805  10.638   3.609   8.170 -0.6487 -0.4365  0.8493
  173MOL0     H23806  10.848   3.480   8.158 -0.2035  1.4165  1.8115
  173MOL0     H23807  10.834   3.161   7.958  1.7423 -0.0783 -0.1440
  173MOL0     H23808  10.814   3.043   8.088  0.3463 -0.0770 -0.5947
  173MOL0     H23809  11.077   3.156   7.985  0.5347  0.4202  1.6145
  173MOL0     H23810  11.058   3.069   8.140 -1.5179 -3.4723  0.4825
  173MOL0     H23811  10.976   2.878   8.028  0.9379  0.4630  1.5299
  173MOL0     H23812  10.984   2.941   7.867  0.5766 -3.1921 -0.3520
  173MOL0     H23813  11.234   2.998   7.959 -1.5784 -0.0161 -2.1083
  173MOL0     H23814  11.194   2.861   8.064  1.8138 -1.6906 -1.0440
  173MOL0     H23815  11.190   2.860   7.759 -0.0951 -0.2682 -0.5800
  173MOL0     H23816  11.115   2.733   7.861  0.5283 -0.5939  0.1042
  173MOL0     H23817  11.308   2.655   7.919 -0.7362 -1.9460 -2.5461
  173MOL0     H23818  11.359   2.692   7.759 -0.3994 -1.5039  0.2427
  173MOL0     H23819  11.529   2.736   7.932 -1.1184 -0.4230  1.3690
  173MOL0     H23820  11.425   2.853   8.006  0.3280  0.3007 -1.1149
  173MOL0     H23821  11.422   2.984   7.796  0.5550  0.4928  3.3892
  173MOL0     H23822  11.600   2.962   7.853  0.2100 -1.1386  0.5400
  173MOL0     H23823  11.760   2.795   7.690 -1.5211 -0.1010  3.6745
  173MOL0     H23824  11.694   2.650   7.362  2.3627 -0.4864 -1.4358
  173MOL0     H23825  11.816   2.672   7.484 -1.4698 -0.6609  0.3111
  173MOL0     H23826  11.731   2.872   7.279 -0.4739 -0.6254  0.1233
  173MOL0     H23827  11.851   2.900   7.398 -1.6054  0.4580 -0.0682
  173MOL0     H23828  11.906   2.646   7.252  2.0666 -0.4788 -1.1104
  173MOL0     H23829  11.890   2.784   7.147  1.3944 -0.1077 -0.6800
  173MOL0     H23830  12.076   2.896   7.305 -3.9128  0.8954 -0.0958
  173MOL0     H23831  12.041   2.753   7.405 -3.2847  3.5323  0.6866
  173MOL0     H23832  12.270   2.882   7.416 -0.0102  0.6057  0.6156
  173MOL0     H23833  12.434   2.996   7.524 -0.4016 -0.7611  2.2967
  173MOL0     H23834  12.596   2.939   7.543  0.4332 -2.6531 -0.9037
  173MOL0     H23835  12.463   2.834   7.583 -1.9509  0.9029  0.3196
  173MOL0     H23836  13.007   2.681   7.393  0.5595  0.7913 -3.4323
  173MOL0     H23837  13.221   2.796   7.415  1.7934  2.5317  0.7796
  173MOL0     H23838  13.267   3.249   7.538 -1.4409  0.4279  1.2063
  173MOL0     H23839  13.208   3.146   7.673 -1.0792  0.0245 -1.4106
  173MOL0     H23840  13.434   3.067   7.722  1.9714  0.3990  0.4820
  173MOL0     H23841  13.467   3.106   7.556 -5.2805 -0.6106 -2.1040
  173MOL0     H23842  13.408   3.299   7.777  2.7287 -2.7279  2.5261
  173MOL0     H23843  13.498   3.352   7.621  2.0642  0.4462  0.7848
  173MOL0     H23844  13.679   3.202   7.690  1.0367 -0.6634  2.2140
  173MOL0     H23845  13.604   3.199   7.853  1.5245  0.3623 -0.4508
  173MOL0     H23846  13.698   3.433   7.694  2.8408 -0.7757 -0.1743
  173MOL0     H23847  13.620   3.428   7.853  0.5154  0.6655 -0.3148
  173MOL0     H23848  13.881   3.283   7.788 -1.1062  0.1157 -0.7945
  173MOL0     H23849  13.800   3.279   7.948  2.4111 -1.2035  0.4016
  173MOL0     H23850  13.831   3.511   7.984 -2.6563 -1.3906 -1.1441
  173MOL0     H23851  13.888   3.539   7.825 -0.7657  0.8064  0.5176
  173MOL0     H23852  14.091   3.391   7.858  0.3827 -0.2469  0.1632
  173MOL0     H23853  14.044   3.391   8.029 -0.0454  1.7152  1.6624
  173MOL0     H23854  13.020   3.163   7.516  3.1817  0.3502 -1.3305
  173MOL0     H23855  12.788   3.040   7.486 -0.6880 -2.0068  1.9679
  173MOL0     H23856  12.589   2.613   7.143 -0.0781 -0.0920  1.2955
  173MOL0     H23857  12.334   2.586   7.115 -1.1452  1.4108 -0.7190
  173MOL0     H23858  10.627   3.111   8.181 -1.1703 -0.4021  2.5073
  173MOL0     H23859  10.415   3.238   8.164  0.3109  0.2439  0.2560
  173MOL0     H23860  10.161   3.572   7.916  0.6421 -0.6681  0.8608
  173MOL0     H23861   9.970   3.719   7.904  3.0033 -4.2074 -1.7539
  173MOL0     H23862   9.800   3.763   8.100 -2.8631  0.2433  1.5908
  173MOL0     H23863   9.747   3.889   8.198 -0.2437 -1.0543  0.5531
  173MOL0     H23864   9.596   3.852   8.022  0.2658  0.0287  2.9444
  173MOL0     H23865   9.710   3.846   7.895 -0.8558 -0.3092 -0.9516
  173MOL0     H23866   9.765   4.085   7.962 -0.0873 -0.2374 -0.7940
  173MOL0     H23867   9.631   4.045   7.858  1.6742 -3.5485 -0.4121
  173MOL0     H23868   9.573   4.229   8.040  2.1731 -0.6989 -0.3386
  173MOL0     H23869   9.612   4.108   8.155 -0.0350  1.4325 -0.1214
  173MOL0     H23870   9.224   3.960   8.042 -0.1066  0.4656 -1.1277
  173MOL0     H23871  10.131   3.922   8.262 -0.4371  0.9348 -0.2449
  173MOL0     H23872  10.376   3.893   8.312 -0.8315 -0.5158 -0.8405
  173MOL0     H23873  10.370   3.719   8.350 -2.6166 -0.8028 -0.6985
  173MOL0     H23874  10.460   3.784   8.211  1.8891 -1.5074  1.4126
  174MOL0     O23875   7.902   1.346   2.478 -0.5761 -0.6167 -0.1162
  174MOL0     C23876   7.800   1.405   2.445 -0.2786 -0.3582  0.5147
  174MOL0     O23877   7.770   1.428   2.310  0.0645  0.2562 -0.3111
  174MOL0     C23878   7.855   1.358   2.221  0.2498  0.1723  0.0521
  174MOL0     C23879   7.847   1.222   2.199  1.2083  0.3942  0.0905
  174MOL0     C23880   7.915   1.163   2.087  0.2031  0.0655 -0.6830
  174MOL0     C23881   7.990   1.238   2.006 -0.0115 -0.1796  0.5598
  174MOL0     O23882   8.078   1.191   1.911 -0.9869 -0.5226 -0.1249
  174MOL0     C23883   8.157   1.078   1.957 -0.0479  0.2247 -1.6230
  174MOL0     C23884   8.265   1.055   1.852  0.1666 -0.1658  0.4228
  174MOL0     C23885   8.211   0.969   1.734 -0.0486  0.1544  0.3989
  174MOL0     C23886   8.323   0.940   1.631 -0.8212  0.5289 -0.0540
  174MOL0     C23887   8.297   0.839   1.528 -0.4935  0.3925  0.2860
  174MOL0     C23888   8.194   0.888   1.429 -0.7818  0.5705 -0.4485
  174MOL0     C23889   8.168   0.781   1.321 -0.2084  0.6810 -1.1218
  174MOL0     C23890   8.054   0.837   1.233  0.3199  0.1149  0.0838
  174MOL0     N23891   8.041   0.753   1.114  0.1644 -0.3393  0.2975
  174MOL0     C23892   8.032   0.825   0.993 -0.3977 -0.0613 -0.9429
  174MOL0     C23893   7.967   0.748   0.907 -0.6693  0.1357  0.5843
  174MOL0     C23894   7.927   0.800   0.771 -0.5127  0.6345  1.3686
  174MOL0     C23895   7.814   0.708   0.711  0.9367  1.0460  0.8358
  174MOL0     C23896   7.791   0.737   0.562 -1.0060 -0.8553 -1.0973
  174MOL0     C23897   7.661   0.675   0.502  0.3646 -0.1891  0.1599
  174MOL0     O23898   7.646   0.536   0.546  0.7545 -0.2805 -0.3813
  174MOL0     C23899   7.533   0.469   0.512  0.2990 -0.2992 -0.0860
  174MOL0     C23900   7.525   0.334   0.543  0.4765  0.0642 -0.2070
  174MOL0     C23901   7.412   0.255   0.533 -0.1708  0.5425 -0.1309
  174MOL0     C23902   7.420   0.106   0.543  0.0017 -1.2493  0.3869
  174MOL0     C23903   7.282   0.313   0.506 -0.5578 -0.1663 -0.4829
  174MOL0     C23904   7.150   0.245   0.502 -0.1230  1.3791  1.0420
  174MOL0     O23905   7.056   0.309   0.419 -0.3221  0.8573 -0.4160
  174MOL0     C23906   6.916   0.287   0.416 -1.1202  0.8964 -0.1639
  174MOL0     C23907   6.847   0.361   0.325 -0.2237 -1.4542  0.6665
  174MOL0     C23908   6.708   0.357   0.309 -0.5233 -0.3059 -0.0714
  174MOL0     C23909   6.632   0.258   0.371  0.8649  0.5530 -0.0286
  174MOL0     O23910   6.499   0.233   0.352  0.7983 -0.3739 -0.6463
  174MOL0     C23911   6.413   0.345   0.379 -0.4563 -0.1676  0.7816
  174MOL0     C23912   6.266   0.298   0.356  0.2209  0.6630 -0.2827
  174MOL0     C23913   6.201   0.239   0.482 -0.6438 -0.7111  0.0116
  174MOL0     C23914   6.044   0.251   0.474 -0.3300 -0.0140  0.4455
  174MOL0     C23915   5.967   0.218   0.596 -0.9015  0.2194 -0.6137
  174MOL0     C23916   5.819   0.253   0.571 -0.4634  0.3717 -0.0530
  174MOL0     C23917   5.717   0.201   0.671  0.2838  0.0071 -0.1384
  174MOL0     C23918   5.581   0.201   0.611  1.0398 -0.9202 -0.2505
  174MOL0    Cl23919   5.560   0.078   0.477  0.0473  0.1869  0.0013
  174MOL0     C23920   6.697   0.175   0.456 -0.4923  0.6014 -0.2692
  174MOL0     C23921   6.840   0.187   0.477 -0.2990 -0.3593 -0.1666
  174MOL0     O23922   7.131   0.145   0.567  0.3068  0.7171  0.6814
  174MOL0     C23923   7.296   0.450   0.460  0.9219 -0.9942 -0.0819
  174MOL0     C23924   7.410   0.525   0.464  0.4392 -0.3375 -0.2770
  174MOL0     N23925   7.939   0.631   0.971 -0.8743 -1.0071 -0.0059
  174MOL0     N23926   7.964   0.642   1.096  0.0370 -0.4878  0.4221
  174MOL0     C23927   7.994   1.378   2.027  0.3356  1.1218  0.1874
  174MOL0     C23928   7.925   1.441   2.134  0.0083 -0.7774 -0.2196
  174MOL0     C23929   7.713   1.449   2.555  0.4279  0.8394  1.3591
  174MOL0     C23930   7.584   1.502   2.522 -0.1314  0.9649  0.5962
  174MOL0     C23931   7.491   1.546   2.620  0.2371  0.0598 -0.1649
  174MOL0     C23932   7.530   1.550   2.754 -0.2409  0.3030  0.6425
  174MOL0     O23933   7.423   1.586   2.822 -0.3624 -0.4503 -0.0476
  174MOL0     C23934   7.439   1.621   2.961  0.2855 -0.2257  0.8746
  174MOL0     C23935   7.488   1.767   2.984 -0.1217  0.6379 -0.0641
  174MOL0     C23936   7.491   1.816   3.123 -0.6172  0.5921 -0.0050
  174MOL0     C23937   7.605   1.766   3.216 -0.8743  0.2390 -0.8243
  174MOL0     C23938   7.731   1.829   3.167 -1.2179  0.1795  0.8599
  174MOL0     C23939   7.839   1.871   3.120  0.4092 -0.7833  0.1744
  174MOL0     C23940   7.652   1.496   2.797 -0.0612 -0.3621  0.1712
  174MOL0     C23941   7.745   1.445   2.698 -0.1698 -0.5161  0.0505
  174MOL0     C23942   7.867   1.396   2.763 -0.3477  0.6732 -0.5451
  174MOL0     H23943   7.774   1.171   2.260 -1.2803  1.8047 -1.5575
  174MOL0     H23944   7.917   1.055   2.075  2.3871 -0.0195  0.0060
  174MOL0     H23945   8.109   0.981   1.974  2.1102 -0.3553  2.5414
  174MOL0     H23946   8.217   1.098   2.047  1.1448  0.9963 -2.5524
  174MOL0     H23947   8.298   1.152   1.815 -1.1547  1.7396  3.7622
  174MOL0     H23948   8.352   1.014   1.904  2.4135  2.8760 -0.6932
  174MOL0     H23949   8.166   0.876   1.771 -1.6073  1.1167  1.0202
  174MOL0     H23950   8.130   1.022   1.683  1.4233  0.8445 -1.2981
  174MOL0     H23951   8.354   1.038   1.593 -0.8448  0.4828 -0.1923
  174MOL0     H23952   8.407   0.891   1.681 -0.8745  1.0926  0.6053
  174MOL0     H23953   8.255   0.748   1.570  0.6441 -2.3567 -3.8743
  174MOL0     H23954   8.390   0.825   1.472  2.0174  3.4802  3.2486
  174MOL0     H23955   8.101   0.914   1.480 -1.8872 -2.9515 -0.3861
  174MOL0     H23956   8.237   0.968   1.368 -0.9221  1.1355  0.1871
  174MOL0     H23957   8.141   0.683   1.363 -2.9716  1.6478 -0.4247
  174MOL0     H23958   8.262   0.777   1.266  0.1382 -0.5513 -0.4674
  174MOL0     H23959   7.967   0.826   1.298  1.4060 -3.3767  1.1792
  174MOL0     H23960   8.063   0.943   1.207 -2.9767  0.5647  0.3497
  174MOL0     H23961   8.057   0.930   0.984  0.9984 -0.4248 -1.6335
  174MOL0     H23962   8.017   0.792   0.708 -2.4980 -0.2520 -1.5483
  174MOL0     H23963   7.902   0.906   0.765 -2.9807  0.0700  0.7300
  174MOL0     H23964   7.849   0.606   0.723  1.4842  1.3337  1.8341
  174MOL0     H23965   7.722   0.719   0.770  0.1543  0.2223 -0.1880
  174MOL0     H23966   7.786   0.845   0.550  2.9621 -0.6350 -2.0326
  174MOL0     H23967   7.879   0.707   0.504 -0.0423  1.5079 -0.9442
  174MOL0     H23968   7.570   0.722   0.540  0.5850 -1.2702  2.1575
  174MOL0     H23969   7.652   0.691   0.394 -1.8938  2.9602  0.6605
  174MOL0     H23970   7.619   0.287   0.570 -0.3118 -0.8129  1.0785
  174MOL0     H23971   7.371   0.076   0.636 -1.6991 -0.8183 -0.3398
  174MOL0     H23972   7.521   0.063   0.551 -0.2547 -1.8677  0.4072
  174MOL0     H23973   7.364   0.051   0.466  2.5955 -2.2167 -0.9472
  174MOL0     H23974   6.904   0.439   0.276 -0.1170  0.0681  3.0713
  174MOL0     H23975   6.659   0.428   0.243  1.5367  1.0807 -0.1950
  174MOL0     H23976   6.429   0.394   0.475  2.7491  0.4621  0.0211
  174MOL0     H23977   6.438   0.413   0.297  4.4624 -0.8934  1.4026
  174MOL0     H23978   6.211   0.388   0.326  0.0543  0.2019 -1.3958
  174MOL0     H23979   6.265   0.231   0.270 -0.7682  1.4797 -0.9372
  174MOL0     H23980   6.231   0.294   0.572 -0.0704 -1.9269  0.5942
  174MOL0     H23981   6.221   0.131   0.485 -3.5614 -1.3503  0.0123
  174MOL0     H23982   6.020   0.191   0.386 -0.0966  2.0382 -1.1044
  174MOL0     H23983   6.030   0.357   0.447  6.3740  0.9020 -1.3322
  174MOL0     H23984   5.978   0.114   0.627  1.4548 -0.2284 -2.6836
  174MOL0     H23985   6.002   0.288   0.673  0.2447  1.2122 -1.9778
  174MOL0     H23986   5.796   0.216   0.470 -2.2498 -3.1415  1.4656
  174MOL0     H23987   5.809   0.361   0.584  0.9881  0.3084  1.8867
  174MOL0     H23988   5.711   0.265   0.760 -0.7984 -2.2700  1.5058
  174MOL0     H23989   5.738   0.100   0.707 -2.0778 -0.2231  0.7759
  174MOL0     H23990   5.548   0.301   0.583  0.3057 -0.3402  2.4360
  174MOL0     H23991   5.521   0.168   0.696  0.7232 -1.2298 -0.5848
  174MOL0     H23992   6.641   0.093   0.499  1.1627  0.3670  1.6037
  174MOL0     H23993   6.892   0.108   0.531  1.5845  0.6108 -0.4858
  174MOL0     H23994   7.207   0.510   0.441 -1.1423 -3.3237  1.6152
  174MOL0     H23995   7.418   0.632   0.444 -0.0527 -0.3118 -0.3394
  174MOL0     H23996   8.055   1.444   1.966  1.1531  1.3849  1.2578
  174MOL0     H23997   7.918   1.549   2.135  3.0942 -0.4781  1.5266
  174MOL0     H23998   7.556   1.496   2.417  1.3128 -4.3229  0.1885
  174MOL0     H23999   7.397   1.589   2.588  1.1842  1.9532 -0.5573
  174MOL0     H24000   7.339   1.612   3.005  0.5200  0.0971  1.4916
  174MOL0     H24001   7.504   1.553   3.016 -0.5118 -1.1895  0.6465
  174MOL0     H24002   7.409   1.826   2.938 -0.2051  0.8316  0.3238
  174MOL0     H24003   7.572   1.795   2.920  0.7744  2.4920  1.7837
  174MOL0     H24004   7.506   1.924   3.110 -5.1246  1.5009  0.5764
  174MOL0     H24005   7.390   1.804   3.165  0.4255 -3.8328  1.8705
  174MOL0     H24006   7.632   1.660   3.214 -0.6158  0.3189 -1.8848
  174MOL0     H24007   7.580   1.788   3.320  1.4126  0.2610 -0.2269
  174MOL0     H24008   7.929   1.910   3.076 -0.0144  0.1531  0.1244
  174MOL0     H24009   7.673   1.496   2.904  0.3646 -3.4250  0.1697
  174MOL0     H24010   7.954   1.459   2.741  1.6643  0.1959  4.6187
  174MOL0     H24011   7.852   1.403   2.871  0.9762  2.2638 -0.4325
  174MOL0     H24012   7.893   1.293   2.738  0.3468  0.7086 -0.0194
  175MOL0     O24013   1.692  10.040   4.492  0.3536 -0.1747 -0.6004
  175MOL0     C24014   1.596  10.007   4.417  0.2632  0.0649 -0.1963
  175MOL0     O24015   1.604  10.000   4.280 -0.3137 -0.1315  0.5483
  175MOL0     C24016   1.723  10.010   4.223  0.3990 -1.2314  0.2173
  175MOL0     C24017   1.825   9.932   4.263  0.8493 -0.0991 -0.7032
  175MOL0     C24018   1.943   9.935   4.191 -1.4966  0.1790 -0.6967
  175MOL0     C24019   1.961  10.019   4.081 -0.3085 -0.5601  0.3752
  175MOL0     O24020   2.090  10.011   4.028  0.1858 -0.8123  0.0682
  175MOL0     C24021   2.113  10.044   3.881  0.1419  0.3864  0.3343
  175MOL0     C24022   2.250  10.109   3.864 -0.6257 -0.1276  0.4976
  175MOL0     C24023   2.301  10.221   3.956 -0.1715  0.2596  0.5230
  175MOL0     C24024   2.200  10.330   3.992  1.2308 -0.5405  0.0835
  175MOL0     C24025   2.237  10.441   4.084 -0.8426 -0.0372 -0.2723
  175MOL0     C24026   2.345  10.531   4.026 -0.1621 -0.4384  0.9118
  175MOL0     C24027   2.304  10.609   3.896  0.5129  0.0373 -0.6908
  175MOL0     C24028   2.194  10.711   3.926 -0.3032 -0.1748  0.4947
  175MOL0     N24029   2.254  10.830   3.983  0.6004 -1.2254  0.2074
  175MOL0     C24030   2.301  10.843   4.116 -0.0188 -1.1583  0.4049
  175MOL0     C24031   2.377  10.956   4.119 -0.1594  0.3248 -0.3273
  175MOL0     C24032   2.469  11.015   4.219 -0.4351 -0.5286  0.0457
  175MOL0     C24033   2.462  11.173   4.229 -0.8638  0.0318  0.2330
  175MOL0     C24034   2.545  11.226   4.357 -0.1837 -0.4090 -0.3177
  175MOL0     C24035   2.496  11.366   4.388  0.9929  0.3869  0.8093
  175MOL0     O24036   2.567  11.416   4.501 -0.1120  0.1907 -0.3892
  175MOL0     C24037   2.696  11.464   4.484  0.9421 -0.0042 -0.1189
  175MOL0     C24038   2.766  11.495   4.591  0.0850 -0.8257 -0.6970
  175MOL0     C24039   2.892  11.542   4.596 -0.1000 -1.1337  1.2771
  175MOL0     C24040   2.951  11.576   4.726  0.0997 -0.9580  0.0009
  175MOL0     C24041   2.967  11.567   4.470 -0.9679  0.2578 -0.4433
  175MOL0     C24042   3.098  11.633   4.473 -0.1512  0.1493  0.9289
  175MOL0     O24043   3.200  11.587   4.556  0.0524 -0.3658 -0.1277
  175MOL0     C24044   3.307  11.659   4.592 -0.4862  0.5418  0.8728
  175MOL0     C24045   3.323  11.796   4.567 -0.0473 -0.2678  0.2172
  175MOL0     C24046   3.437  11.864   4.611 -0.2860  0.6323 -0.0686
  175MOL0     C24047   3.531  11.809   4.697  0.3882  0.8335 -0.1184
  175MOL0     O24048   3.649  11.868   4.742 -0.4659 -0.2326  0.4915
  175MOL0     C24049   3.733  11.899   4.624  0.6743  0.1430  0.4661
  175MOL0     C24050   3.856  11.978   4.671 -0.3548  0.6507  0.8613
  175MOL0     C24051   3.956  11.906   4.757  0.4132 -0.0041  0.1440
  175MOL0     C24052   4.052  12.000   4.832  0.3364 -0.3694 -0.2499
  175MOL0     C24053   4.181  11.922   4.876  0.8642 -0.2086 -0.1977
  175MOL0     C24054   4.276  12.021   4.935 -0.0102  0.0119 -0.1654
  175MOL0     C24055   4.362  12.113   4.840 -0.5739  0.7507 -0.1593
  175MOL0     C24056   4.417  12.246   4.907 -0.5537 -0.0146  0.5126
  175MOL0    Cl24057   4.561  12.224   4.995 -0.1474  0.2492 -0.1463
  175MOL0     C24058   3.513  11.672   4.729 -0.0786 -0.2120 -0.7805
  175MOL0     C24059   3.405  11.599   4.674  0.2883 -0.3748  0.7136
  175MOL0     O24060   3.111  11.704   4.372 -0.1299 -0.3383  0.1990
  175MOL0     C24061   2.897  11.541   4.355  0.3096 -0.6964 -0.6507
  175MOL0     C24062   2.766  11.494   4.362  0.2430  0.2312  0.3639
  175MOL0     N24063   2.379  11.006   3.990  0.9061 -1.1160  0.1090
  175MOL0     N24064   2.312  10.931   3.915  0.9253 -1.1961  0.8043
  175MOL0     C24065   1.859  10.105   4.049  0.1612 -0.2974 -0.2180
  175MOL0     C24066   1.739  10.110   4.120 -0.6821 -0.1343 -0.4223
  175MOL0     C24067   1.474   9.952   4.485 -0.6838 -0.6733 -1.0721
  175MOL0     C24068   1.358   9.968   4.420  0.3914 -0.5892 -0.3857
  175MOL0     C24069   1.242   9.925   4.478 -0.0668  0.0331  0.7231
  175MOL0     C24070   1.234   9.860   4.592 -0.1690  0.0067 -0.6321
  175MOL0     O24071   1.120   9.821   4.653  1.5198 -0.3382  0.2278
  175MOL0     C24072   0.998   9.821   4.576  0.0837  0.1703 -0.0364
  175MOL0     C24073   0.887   9.747   4.652  0.4389 -0.2299 -0.3287
  175MOL0     C24074   0.932   9.613   4.720 -1.2990  0.1468 -0.5080
  175MOL0     C24075   0.816   9.546   4.776  0.1554  0.8364 -0.6267
  175MOL0     C24076   0.869   9.420   4.840  0.1443  0.8403  0.2683
  175MOL0     C24077   0.923   9.318   4.878  0.7383  0.0663 -0.3592
  175MOL0     C24078   1.358   9.834   4.660  0.2119 -0.1598 -0.0159
  175MOL0     C24079   1.478   9.875   4.604  0.1098  0.0580 -0.5780
  175MOL0     C24080   1.602   9.853   4.694  0.2033 -0.2664  0.6471
  175MOL0     H24081   1.814   9.862   4.345 -1.4809 -0.3472 -1.1525
  175MOL0     H24082   2.017   9.865   4.229 -1.1718  0.3783 -0.9586
  175MOL0     H24083   2.030  10.107   3.848  0.3508  0.7946  0.5699
  175MOL0     H24084   2.113   9.953   3.821  1.0140 -1.0034  2.3139
  175MOL0     H24085   2.323  10.028   3.856 -0.4098  0.1051  0.0983
  175MOL0     H24086   2.263  10.150   3.764 -0.7594 -1.5591 -0.1397
  175MOL0     H24087   2.329  10.177   4.052 -1.9540 -1.3685  0.3563
  175MOL0     H24088   2.397  10.267   3.928 -0.0403 -0.6205 -0.5232
  175MOL0     H24089   2.155  10.382   3.906  0.0400  2.3056  2.2413
  175MOL0     H24090   2.113  10.282   4.039 -1.0142  0.1912 -2.9894
  175MOL0     H24091   2.276  10.391   4.173 -1.2364  0.7633  0.3639
  175MOL0     H24092   2.149  10.500   4.110  0.2483  1.0811  1.1053
  175MOL0     H24093   2.383  10.603   4.099 -0.4814  2.7647 -1.8671
  175MOL0     H24094   2.431  10.472   3.992  1.3647  0.8638  2.3174
  175MOL0     H24095   2.265  10.530   3.830  1.9096 -0.9098 -0.4444
  175MOL0     H24096   2.390  10.659   3.850 -0.0948  0.0755 -1.8299
  175MOL0     H24097   2.134  10.745   3.841 -1.6387  2.4840  2.3410
  175MOL0     H24098   2.121  10.674   3.998 -1.0173  3.5913  1.9288
  175MOL0     H24099   2.267  10.784   4.200 -2.0191 -0.4931  0.1063
  175MOL0     H24100   2.565  10.966   4.197 -0.4081 -1.1712  1.4956
  175MOL0     H24101   2.439  10.994   4.321  1.0929 -0.1112  0.6105
  175MOL0     H24102   2.501  11.215   4.136 -0.6375  4.9785  2.2543
  175MOL0     H24103   2.357  11.199   4.241 -0.2311  3.4136 -0.6160
  175MOL0     H24104   2.520  11.157   4.438 -2.9330 -2.6830 -2.8159
  175MOL0     H24105   2.653  11.231   4.345 -0.1525 -0.3971 -0.0259
  175MOL0     H24106   2.503  11.433   4.302 -0.9578 -1.1175 -0.6339
  175MOL0     H24107   2.390  11.353   4.414  1.3003 -2.2273  1.0809
  175MOL0     H24108   2.721  11.469   4.686  1.2264 -0.6540 -0.0882
  175MOL0     H24109   3.005  11.671   4.727 -2.5433  0.6651  1.0257
  175MOL0     H24110   3.017  11.500   4.769 -0.4909 -0.3566  2.1347
  175MOL0     H24111   2.876  11.580   4.806 -1.3327  3.5005 -1.2775
  175MOL0     H24112   3.243  11.856   4.523 -0.0729  0.6542  1.4537
  175MOL0     H24113   3.456  11.968   4.587  0.3648  0.7071  0.7217
  175MOL0     H24114   3.746  11.807   4.567 -0.1986  0.2916  0.0135
  175MOL0     H24115   3.679  11.968   4.558 -0.6980  1.1855  2.5562
  175MOL0     H24116   3.900  11.999   4.573 -1.3846 -0.4085  0.1377
  175MOL0     H24117   3.823  12.073   4.713 -1.8887  0.6329 -0.1820
  175MOL0     H24118   4.012  11.830   4.701  1.0380  0.0961  0.6205
  175MOL0     H24119   3.895  11.860   4.836  0.5025 -1.3473 -0.5384
  175MOL0     H24120   4.009  12.051   4.919 -0.2850 -1.7242  0.2721
  175MOL0     H24121   4.082  12.079   4.762  0.4119  1.3629  1.6410
  175MOL0     H24122   4.158  11.852   4.956  4.2086 -1.2702 -0.0113
  175MOL0     H24123   4.224  11.863   4.795 -0.6432 -2.1180  0.3147
  175MOL0     H24124   4.352  11.970   4.995  0.2790  0.1216 -0.4329
  175MOL0     H24125   4.216  12.084   5.002 -3.1184 -2.0726 -0.7906
  175MOL0     H24126   4.289  12.147   4.765  0.6961  1.2235 -1.2068
  175MOL0     H24127   4.442  12.060   4.789  0.5189  3.4140 -1.3833
  175MOL0     H24128   4.339  12.283   4.974 -0.9694 -0.2599  0.1725
  175MOL0     H24129   4.443  12.324   4.834  0.3191 -0.5806  0.2000
  175MOL0     H24130   3.588  11.620   4.788 -0.0739  0.5188 -0.1273
  175MOL0     H24131   3.394  11.496   4.705 -0.7704 -0.5471 -0.2026
  175MOL0     H24132   2.937  11.566   4.258  1.3807 -0.2713 -0.1103
  175MOL0     H24133   2.709  11.487   4.269 -0.7751  0.5550  0.9484
  175MOL0     H24134   1.879  10.179   3.973  4.0595  1.0678  1.8612
  175MOL0     H24135   1.664  10.176   4.076 -2.3784 -2.2740 -0.9536
  175MOL0     H24136   1.341  10.025   4.329  3.0207 -1.7393 -1.7341
  175MOL0     H24137   1.153   9.955   4.423  0.4695  1.2630  0.4819
  175MOL0     H24138   0.964   9.923   4.557 -1.7341  0.1095  2.3156
  175MOL0     H24139   1.000   9.766   4.482 -0.7921 -0.9615  0.5641
  175MOL0     H24140   0.801   9.732   4.585  0.0982  0.3026 -0.0136
  175MOL0     H24141   0.849   9.811   4.732 -0.8940  0.7135 -1.6445
  175MOL0     H24142   0.983   9.549   4.647  0.3875  1.1625 -0.2713
  175MOL0     H24143   1.013   9.635   4.791 -0.7932 -1.1410 -0.6438
  175MOL0     H24144   0.738   9.520   4.703  1.6283 -0.1214 -1.9127
  175MOL0     H24145   0.766   9.601   4.857  4.0995  0.5525  2.3148
  175MOL0     H24146   0.975   9.238   4.926  0.8669  1.7516  2.5312
  175MOL0     H24147   1.347   9.790   4.759 -2.0623 -1.7557 -0.8788
  175MOL0     H24148   1.572   9.800   4.785 -0.5832  2.0539  1.8281
  175MOL0     H24149   1.686   9.801   4.648  0.8405  0.6347  0.7609
  175MOL0     H24150   1.644   9.949   4.728  0.7868  0.2940 -1.4700
  176MOL0     O24151   4.825   4.797   9.472 -0.3072  0.0324 -0.2264
  176MOL0     C24152   4.771   4.839   9.578  0.1304 -0.2882 -1.1974
  176MOL0     O24153   4.810   4.796   9.708 -0.1899 -0.5564  0.8284
  176MOL0     C24154   4.926   4.716   9.695  0.0023  1.0723 -0.0805
  176MOL0     C24155   4.915   4.581   9.665  0.4333  0.1283 -0.9346
  176MOL0     C24156   5.027   4.497   9.654  0.7645 -0.3174 -0.5499
  176MOL0     C24157   5.157   4.553   9.655 -0.6985  0.0074 -0.2035
  176MOL0     O24158   5.263   4.466   9.645 -0.3479 -0.6794 -0.2258
  176MOL0     C24159   5.386   4.510   9.578 -0.6595  0.1409 -0.6040
  176MOL0     C24160   5.499   4.404   9.574  0.7117 -0.1471  0.5657
  176MOL0     C24161   5.629   4.465   9.523 -0.3656 -0.1327 -0.2695
  176MOL0     C24162   5.741   4.367   9.526  0.0169  0.1628  0.2209
  176MOL0     C24163   5.839   4.379   9.403  0.8043  0.3996 -0.0714
  176MOL0     C24164   5.988   4.372   9.444  0.1077 -0.2118 -0.4266
  176MOL0     C24165   6.041   4.503   9.506  0.5386  0.5729 -0.4943
  176MOL0     C24166   6.162   4.472   9.605 -0.5018 -0.2574 -0.7979
  176MOL0     N24167   6.271   4.398   9.533  0.5450 -0.0663 -0.5869
  176MOL0     C24168   6.300   4.269   9.572 -0.7034 -1.6565 -0.1367
  176MOL0     C24169   6.399   4.232   9.485 -0.9769 -0.0701 -0.1225
  176MOL0     C24170   6.467   4.100   9.488 -0.3872 -0.0101  0.3277
  176MOL0     C24171   6.617   4.107   9.484  0.0957  1.2244  0.4805
  176MOL0     C24172   6.688   3.976   9.507  0.7674 -0.1487 -0.3360
  176MOL0     C24173   6.672   3.938   9.653 -0.0031 -0.3125 -0.5556
  176MOL0     O24174   6.775   3.996   9.738 -0.4261 -0.7714 -0.0177
  176MOL0     C24175   6.903   3.948   9.746 -1.0367  0.2196 -0.1743
  176MOL0     C24176   6.951   3.835   9.674 -0.2019 -0.9664  0.4712
  176MOL0     C24177   7.087   3.799   9.682  0.1900 -0.1404 -0.1694
  176MOL0     C24178   7.128   3.679   9.605 -0.3224 -0.0369 -0.2374
  176MOL0     C24179   7.170   3.865   9.776  0.1362  0.2933 -0.0330
  176MOL0     C24180   7.311   3.831   9.794 -0.2380  0.1613  0.2120
  176MOL0     O24181   7.364   3.824   9.918  0.1811 -0.1992  0.2572
  176MOL0     C24182   7.496   3.785   9.931 -0.1766 -1.2924  0.1699
  176MOL0     C24183   7.544   3.669   9.881 -0.4869 -0.6463  0.4627
  176MOL0     C24184   7.667   3.614   9.927 -0.1024  0.3195  0.0353
  176MOL0     C24185   7.745   3.674  10.025  0.0239 -0.2923  0.2694
  176MOL0     O24186   7.846   3.604  10.085 -0.4397 -0.2465 -0.1189
  176MOL0     C24187   7.899   3.637  10.210 -0.7090 -0.2193 -0.8473
  176MOL0     C24188   7.822   3.556  10.317  0.5090  0.9501 -0.4461
  176MOL0     C24189   7.880   3.581  10.459 -0.0120 -0.3748 -0.3733
  176MOL0     C24190   8.031   3.558  10.479  0.4259  0.7825  0.2300
  176MOL0     C24191   8.058   3.409  10.505 -0.2114 -0.3151 -0.4867
  176MOL0     C24192   8.206   3.385  10.539 -0.8513 -0.2478  0.1507
  176MOL0     C24193   8.259   3.447  10.678 -0.4087  0.0681  0.0691
  176MOL0     C24194   8.409   3.411  10.686  1.1425  0.5656  0.1154
  176MOL0    Cl24195   8.517   3.522  10.582  0.1504  0.0732  0.4392
  176MOL0     C24196   7.700   3.799  10.070  0.1412  0.4013  0.5416
  176MOL0     C24197   7.583   3.855  10.022 -0.0498  0.1780 -0.0612
  176MOL0     O24198   7.380   3.829   9.689  0.4264  0.1518  0.7366
  176MOL0     C24199   7.116   3.970   9.857 -0.1598  0.5095 -0.5566
  176MOL0     C24200   6.981   4.002   9.847 -0.3456  0.2616 -0.3769
  176MOL0     N24201   6.431   4.348   9.403  0.4675  0.0005  0.3338
  176MOL0     N24202   6.349   4.442   9.432  0.0655 -0.2123 -0.2443
  176MOL0     C24203   5.170   4.693   9.670  0.4889  0.6368 -0.0863
  176MOL0     C24204   5.056   4.768   9.694 -0.2619 -0.0713 -0.2859
  176MOL0     C24205   4.646   4.915   9.567  0.7511  0.0485  0.9264
  176MOL0     C24206   4.572   4.937   9.686 -0.0290  0.0805 -0.1141
  176MOL0     C24207   4.462   5.025   9.688 -0.0619 -0.8167  0.1690
  176MOL0     C24208   4.412   5.082   9.572  0.1037 -0.3916 -0.1511
  176MOL0     O24209   4.307   5.175   9.557  0.0721  0.6093 -0.7065
  176MOL0     C24210   4.238   5.219   9.679  0.4292  0.3695  0.4120
  176MOL0     C24211   4.105   5.280   9.634  0.5154  0.0510 -0.0087
  176MOL0     C24212   4.013   5.305   9.755  0.1801  0.3618 -0.0943
  176MOL0     C24213   3.871   5.336   9.706 -0.2938  0.2287 -0.0964
  176MOL0     C24214   3.785   5.385   9.812  0.8623  0.0798  0.3193
  176MOL0     C24215   3.719   5.404   9.912  0.1856  0.0745  0.2390
  176MOL0     C24216   4.474   5.040   9.450  0.0210 -1.3945  0.0178
  176MOL0     C24217   4.590   4.962   9.443  0.6993 -0.4815  0.1860
  176MOL0     C24218   4.637   4.942   9.299  0.4181 -0.4105 -0.5309
  176MOL0     H24219   4.812   4.546   9.657  1.7587 -4.5448 -0.4462
  176MOL0     H24220   5.032   4.388   9.649  0.2857 -0.4185  0.7872
  176MOL0     H24221   5.435   4.579   9.646 -0.0787 -1.0804  0.2549
  176MOL0     H24222   5.374   4.546   9.475  1.9582 -2.6270 -2.0540
  176MOL0     H24223   5.512   4.368   9.677  1.9646 -1.5724 -0.0552
  176MOL0     H24224   5.467   4.316   9.517  0.5328  0.2827 -0.0005
  176MOL0     H24225   5.612   4.507   9.423 -2.4463 -1.2656 -0.4584
  176MOL0     H24226   5.644   4.545   9.596 -2.7646  1.5346 -1.4539
  176MOL0     H24227   5.801   4.377   9.617  1.1251  0.3071 -0.4983
  176MOL0     H24228   5.697   4.267   9.522 -0.2616  0.3151 -1.0296
  176MOL0     H24229   5.826   4.471   9.344  0.0253  0.9369  0.9110
  176MOL0     H24230   5.816   4.301   9.330  0.4807 -0.7860  1.2729
  176MOL0     H24231   5.992   4.293   9.519 -0.4350 -0.1015 -0.2754
  176MOL0     H24232   6.040   4.352   9.350 -1.2944  0.4187 -1.3710
  176MOL0     H24233   5.961   4.544   9.568  1.0294 -3.6592  3.4718
  176MOL0     H24234   6.072   4.567   9.422 -2.9949  2.0078 -0.9132
  176MOL0     H24235   6.213   4.567   9.627 -2.3733  0.8206 -0.9143
  176MOL0     H24236   6.139   4.420   9.698  1.6096 -2.7887 -1.5620
  176MOL0     H24237   6.240   4.212   9.643 -0.5172 -0.3715  1.0978
  176MOL0     H24238   6.440   4.040   9.401  1.7307  2.2726 -2.1132
  176MOL0     H24239   6.431   4.040   9.573 -1.3925  1.0789  0.7053
  176MOL0     H24240   6.651   4.141   9.385 -0.7138  1.7224  0.3683
  176MOL0     H24241   6.649   4.179   9.560 -1.7941  2.0243  0.5727
  176MOL0     H24242   6.634   3.899   9.451  3.0231 -1.2412 -1.1086
  176MOL0     H24243   6.792   3.992   9.479  1.1295 -0.0404  0.9876
  176MOL0     H24244   6.582   3.974   9.704  0.9853 -2.3536  3.0095
  176MOL0     H24245   6.664   3.829   9.661 -1.5006 -0.4134 -2.6539
  176MOL0     H24246   6.882   3.792   9.602 -3.0283  0.7403  1.9957
  176MOL0     H24247   7.050   3.633   9.545 -0.4668  0.0844 -0.1415
  176MOL0     H24248   7.161   3.602   9.677  2.3011  0.7240 -0.5157
  176MOL0     H24249   7.210   3.692   9.534  1.8368  0.5583  2.2035
  176MOL0     H24250   7.483   3.606   9.817 -0.6383 -0.6181  0.5773
  176MOL0     H24251   7.688   3.515   9.887 -1.1922 -0.3522  1.0669
  176MOL0     H24252   8.005   3.612  10.197  0.0126  1.7030  0.7362
  176MOL0     H24253   7.896   3.743  10.237  0.2417 -0.6132  1.0285
  176MOL0     H24254   7.716   3.582  10.323 -0.0215 -1.2602  0.7198
  176MOL0     H24255   7.823   3.449  10.293 -1.1009  1.2196 -1.9598
  176MOL0     H24256   7.822   3.522  10.531  0.8633  0.0287  0.6697
  176MOL0     H24257   7.865   3.688  10.475  2.0744 -0.2615  1.0937
  176MOL0     H24258   8.063   3.612  10.569  0.7281 -0.3955  0.8554
  176MOL0     H24259   8.089   3.600  10.396  0.3552  1.1919  0.3881
  176MOL0     H24260   7.998   3.376  10.590 -0.4967 -1.8170 -1.2491
  176MOL0     H24261   8.020   3.347  10.423 -0.0894 -1.0285 -0.0094
  176MOL0     H24262   8.265   3.422  10.455  1.2006 -3.2329  0.1250
  176MOL0     H24263   8.234   3.280  10.542  1.3565  0.2999  0.6210
  176MOL0     H24264   8.207   3.398  10.760 -2.0345 -1.2487 -1.6505
  176MOL0     H24265   8.250   3.553  10.704  0.2964 -0.4185  2.4651
  176MOL0     H24266   8.416   3.306  10.656 -3.5600  0.1477 -0.1710
  176MOL0     H24267   8.439   3.416  10.792 -2.1708 -3.0704  1.4473
  176MOL0     H24268   7.748   3.853  10.151  0.7545  0.8901 -0.1384
  176MOL0     H24269   7.555   3.954  10.057 -1.4059  1.0212 -3.1939
  176MOL0     H24270   7.183   4.010   9.932 -3.2772  0.0832  2.7109
  176MOL0     H24271   6.931   4.080   9.903 -2.5298 -1.4959  0.2597
  176MOL0     H24272   5.269   4.735   9.656  0.9622 -1.1286 -2.6829
  176MOL0     H24273   5.060   4.877   9.694 -0.2294 -0.0652 -1.0630
  176MOL0     H24274   4.607   4.900   9.782  2.3361  0.1454 -0.8799
  176MOL0     H24275   4.411   5.040   9.782  1.3107  0.0481  0.8114
  176MOL0     H24276   4.208   5.135   9.742 -1.5153  0.9688  0.3646
  176MOL0     H24277   4.301   5.282   9.743 -1.4240  1.5287  1.1823
  176MOL0     H24278   4.053   5.213   9.565 -0.6186  0.8888 -0.0092
  176MOL0     H24279   4.123   5.375   9.582  2.0896 -0.3084 -0.1517
  176MOL0     H24280   4.006   5.213   9.814  0.4198 -1.2417 -2.4131
  176MOL0     H24281   4.060   5.389   9.806 -2.0668  2.0040 -0.5629
  176MOL0     H24282   3.835   5.247   9.654  0.9405 -0.0980 -0.4413
  176MOL0     H24283   3.884   5.414   9.630  2.3867  0.9575  0.9746
  176MOL0     H24284   3.649   5.432   9.989 -1.3412  1.1821 -1.4684
  176MOL0     H24285   4.434   5.078   9.356  2.0501  1.2120  0.1054
  176MOL0     H24286   4.559   4.971   9.229  0.9518  1.1494 -0.5006
  176MOL0     H24287   4.734   4.990   9.286 -0.3868  2.2843  2.0524
  176MOL0     H24288   4.636   4.836   9.271  0.4158 -0.1663 -1.4695
  177MOL0     O24289  10.165   3.976   4.811  0.0451 -0.4965 -0.0740
  177MOL0     C24290  10.087   3.931   4.732 -0.5747 -0.1635  0.6806
  177MOL0     O24291  10.125   3.841   4.629 -0.0950 -0.8146 -0.1387
  177MOL0     C24292  10.259   3.806   4.626  0.3610  0.2693  0.5401
  177MOL0     C24293  10.290   3.668   4.635  1.3973  0.1065  0.3365
  177MOL0     C24294  10.420   3.623   4.622  0.2511 -0.4339 -0.4733
  177MOL0     C24295  10.521   3.726   4.602  0.4680  0.3415  0.2274
  177MOL0     O24296  10.648   3.676   4.608  0.1874  0.4666 -1.2023
  177MOL0     C24297  10.749   3.756   4.553 -0.2601  0.2822 -0.0486
  177MOL0     C24298  10.872   3.669   4.523 -0.7976  0.4148 -0.2086
  177MOL0     C24299  10.963   3.770   4.450  0.5041 -0.3047  0.0137
  177MOL0     C24300  11.080   3.702   4.404 -0.5986 -0.2677  0.4465
  177MOL0     C24301  11.188   3.808   4.353  0.7407  0.2699 -0.9350
  177MOL0     C24302  11.275   3.728   4.258 -0.2490 -0.1481 -0.5394
  177MOL0     C24303  11.414   3.797   4.256 -0.4951 -0.5131 -0.5543
  177MOL0     C24304  11.512   3.729   4.160  0.9548 -0.3386 -0.6273
  177MOL0     N24305  11.643   3.798   4.169 -0.3448 -0.1721 -0.4227
  177MOL0     C24306  11.751   3.747   4.242 -0.3395 -0.1659  0.2853
  177MOL0     C24307  11.853   3.819   4.202 -0.3890  0.0558  0.7772
  177MOL0     C24308  11.994   3.812   4.242 -0.6681  0.5047 -0.6434
  177MOL0     C24309  12.093   3.793   4.129  0.0188  0.2599  0.2433
  177MOL0     C24310  12.229   3.766   4.202  0.1774  0.4965 -0.2128
  177MOL0     C24311  12.299   3.883   4.274  0.0414 -0.5559 -0.7867
  177MOL0     O24312  12.320   4.001   4.199 -0.4465  0.0525  0.7116
  177MOL0     C24313  12.437   4.064   4.242 -0.7039 -1.0300 -0.1815
  177MOL0     C24314  12.424   4.170   4.329 -0.8492 -0.8369  0.1577
  177MOL0     C24315  12.536   4.241   4.375 -0.2717 -0.3384  0.0320
  177MOL0     C24316  12.518   4.349   4.482  0.1522  0.1239 -0.4638
  177MOL0     C24317  12.661   4.204   4.320  0.7096 -0.3066 -1.1804
  177MOL0     C24318  12.778   4.284   4.338 -0.3502  0.5576 -0.5571
  177MOL0     O24319  12.895   4.214   4.334 -0.4693  0.1434 -0.1895
  177MOL0     C24320  13.019   4.276   4.313 -0.6924 -0.6761 -0.0675
  177MOL0     C24321  13.136   4.197   4.299 -0.1686 -0.7486  1.2287
  177MOL0     C24322  13.261   4.255   4.271  0.2500 -0.2085 -0.3609
  177MOL0     C24323  13.265   4.390   4.260 -0.7643  0.2139  0.1681
  177MOL0     O24324  13.387   4.446   4.234  0.2879 -0.0743 -0.1488
  177MOL0     C24325  13.450   4.405   4.112  0.7854  0.1023  0.0381
  177MOL0     C24326  13.538   4.511   4.053  0.0326 -0.2384  0.1194
  177MOL0     C24327  13.468   4.648   4.026 -0.0998  0.1705  0.0018
  177MOL0     C24328  13.561   4.753   3.957 -0.2517 -0.1532  0.0662
  177MOL0     C24329  13.497   4.900   3.941 -1.5463 -0.9445  0.2520
  177MOL0     C24330  13.372   4.892   3.850  0.3869 -0.3408 -0.3310
  177MOL0     C24331  13.356   5.018   3.756  0.1955  0.5083 -0.1564
  177MOL0     C24332  13.219   5.011   3.696 -0.3665 -0.3512 -0.6505
  177MOL0    Cl24333  13.092   5.026   3.818  0.0348 -0.2507  0.3176
  177MOL0     C24334  13.156   4.471   4.269  0.4392 -0.2271 -0.5132
  177MOL0     C24335  13.037   4.417   4.294  0.6568  0.0028 -0.3784
  177MOL0     O24336  12.762   4.407   4.360  0.2663  0.6927 -0.3481
  177MOL0     C24337  12.671   4.106   4.229 -0.7051  1.5640  0.8404
  177MOL0     C24338  12.563   4.034   4.186  0.3254  0.1083  0.1248
  177MOL0     N24339  11.804   3.928   4.130 -0.2739  0.4268  0.4618
  177MOL0     N24340  11.678   3.914   4.103  0.0713  0.4375 -0.3146
  177MOL0     C24341  10.494   3.860   4.589 -0.2703 -0.4436  0.0272
  177MOL0     C24342  10.359   3.905   4.595  0.4325  0.4567  0.0553
  177MOL0     C24343   9.944   3.961   4.760  0.8745  0.0038  0.7398
  177MOL0     C24344   9.851   3.904   4.673 -0.1109  0.4618 -0.1080
  177MOL0     C24345   9.717   3.928   4.686  0.0895  0.4066 -0.4554
  177MOL0     C24346   9.669   4.022   4.778 -0.1470 -0.5326  0.2164
  177MOL0     O24347   9.537   4.050   4.809 -0.0622 -0.2517  0.5202
  177MOL0     C24348   9.438   3.971   4.729 -0.3786 -0.1023 -0.3305
  177MOL0     C24349   9.302   4.006   4.791  0.4466  0.6127 -0.4932
  177MOL0     C24350   9.201   3.895   4.780 -0.1722 -0.5870 -0.0212
  177MOL0     C24351   9.061   3.923   4.832  0.0482  0.4551 -0.7990
  177MOL0     C24352   8.989   3.805   4.782  0.5201 -1.0051 -0.3231
  177MOL0     C24353   8.926   3.702   4.758 -0.7464  1.0040 -0.1007
  177MOL0     C24354   9.764   4.067   4.873 -0.0601 -0.1589  0.5383
  177MOL0     C24355   9.898   4.042   4.862 -0.5455 -0.3481 -0.1694
  177MOL0     C24356   9.988   4.104   4.975  0.2263  0.3052  0.3245
  177MOL0     H24357  10.208   3.596   4.633  1.4618  0.0427 -0.2232
  177MOL0     H24358  10.449   3.519   4.639  0.2269 -0.4186 -0.3372
  177MOL0     H24359  10.772   3.838   4.621 -0.9050  0.6010 -0.2083
  177MOL0     H24360  10.712   3.798   4.459  1.6513  1.2585 -0.4002
  177MOL0     H24361  10.915   3.640   4.619 -1.6944  0.2854  0.1642
  177MOL0     H24362  10.826   3.592   4.461  1.3706 -0.1126 -1.2745
  177MOL0     H24363  10.907   3.820   4.370  0.5497  2.3225  1.4806
  177MOL0     H24364  10.983   3.850   4.522 -0.7768  0.5089 -0.4863
  177MOL0     H24365  11.124   3.638   4.481 -1.2645 -2.2244 -0.7341
  177MOL0     H24366  11.057   3.634   4.322 -0.0472  0.3829 -0.2603
  177MOL0     H24367  11.247   3.845   4.437  0.6233  0.3465 -0.8879
  177MOL0     H24368  11.143   3.893   4.301 -1.1390 -0.3414 -0.4115
  177MOL0     H24369  11.288   3.626   4.297  3.0705  0.1522 -0.5466
  177MOL0     H24370  11.234   3.704   4.159  0.6989  0.6998 -1.1649
  177MOL0     H24371  11.462   3.791   4.354 -2.1772  0.1345  0.3532
  177MOL0     H24372  11.401   3.903   4.232 -0.5481  0.1617  2.1343
  177MOL0     H24373  11.525   3.626   4.195  1.3308  0.0248  0.3108
  177MOL0     H24374  11.471   3.728   4.058  3.6301  0.2087 -1.7872
  177MOL0     H24375  11.762   3.663   4.310  0.0210 -0.8082 -0.5383
  177MOL0     H24376  12.003   3.743   4.326  1.5728  0.5655 -0.7786
  177MOL0     H24377  12.019   3.906   4.291 -1.3925  0.3095  0.1218
  177MOL0     H24378  12.064   3.709   4.064  2.0979 -2.1915  2.2581
  177MOL0     H24379  12.098   3.882   4.065 -0.2213 -0.8106 -1.3183
  177MOL0     H24380  12.215   3.685   4.275  1.6621 -2.1178 -2.6007
  177MOL0     H24381  12.302   3.735   4.127  0.5652  1.0809 -0.0845
  177MOL0     H24382  12.236   3.910   4.359 -0.9483  2.1180 -2.2420
  177MOL0     H24383  12.388   3.852   4.328  0.2514  1.5064  0.1677
  177MOL0     H24384  12.325   4.189   4.369  0.2623  0.1637  2.6504
  177MOL0     H24385  12.484   4.440   4.431  0.8336  0.5101 -0.2384
  177MOL0     H24386  12.608   4.355   4.544  1.0183 -2.8776 -1.2873
  177MOL0     H24387  12.434   4.323   4.547 -0.7585  0.4518 -1.4769
  177MOL0     H24388  13.123   4.089   4.300 -0.2297 -0.8231 -1.3511
  177MOL0     H24389  13.345   4.187   4.263  1.0280  0.8764 -1.7724
  177MOL0     H24390  13.524   4.328   4.137  0.3445  0.0923  1.4048
  177MOL0     H24391  13.384   4.359   4.038  2.7271 -2.8192 -0.0438
  177MOL0     H24392  13.619   4.522   4.125  0.1239 -1.5904  0.2496
  177MOL0     H24393  13.580   4.484   3.956  0.3838  0.8784 -0.0485
  177MOL0     H24394  13.450   4.690   4.125  2.3126  1.8328 -0.1757
  177MOL0     H24395  13.374   4.629   3.972 -1.3036 -0.4459  2.2090
  177MOL0     H24396  13.586   4.724   3.855  4.5708  3.7498 -0.2133
  177MOL0     H24397  13.655   4.753   4.013  0.0442 -2.0131 -0.3700
  177MOL0     H24398  13.489   4.954   4.035  2.9160 -1.7186  1.2997
  177MOL0     H24399  13.572   4.958   3.887 -0.5263 -1.1439  1.4125
  177MOL0     H24400  13.281   4.868   3.906 -0.8417 -1.9112 -2.8069
  177MOL0     H24401  13.382   4.804   3.785 -2.8862 -1.5101  0.5464
  177MOL0     H24402  13.428   5.011   3.673 -1.9122  2.7637 -2.3412
  177MOL0     H24403  13.369   5.107   3.817 -1.1519 -0.9231  2.4012
  177MOL0     H24404  13.204   4.918   3.641  2.0384 -0.5950 -0.9733
  177MOL0     H24405  13.206   5.093   3.624  2.1424  0.2622 -0.4865
  177MOL0     H24406  13.153   4.579   4.253  1.9200  0.0239  0.6965
  177MOL0     H24407  12.955   4.487   4.297  0.5457 -0.1503  1.6690
  177MOL0     H24408  12.767   4.093   4.180 -2.4748 -2.7080 -2.1417
  177MOL0     H24409  12.571   3.964   4.103 -3.3375  0.2731 -0.5162
  177MOL0     H24410  10.574   3.933   4.582  1.2114 -2.1099 -1.6122
  177MOL0     H24411  10.332   4.008   4.576  0.8834  0.8666  1.5133
  177MOL0     H24412   9.883   3.839   4.593 -1.4665 -1.3864  0.7858
  177MOL0     H24413   9.653   3.872   4.618  0.8945  1.9973 -2.6213
  177MOL0     H24414   9.439   4.006   4.625 -0.9717  0.5468 -0.1232
  177MOL0     H24415   9.455   3.864   4.745 -1.2840 -0.7963 -3.3076
  177MOL0     H24416   9.262   4.099   4.749 -1.5276 -1.0782 -2.6832
  177MOL0     H24417   9.312   4.019   4.899 -2.0310  1.8980 -0.3548
  177MOL0     H24418   9.200   3.862   4.675 -0.9949 -0.4303 -0.0696
  177MOL0     H24419   9.233   3.815   4.847  2.2104  1.7361  1.8058
  177MOL0     H24420   9.016   4.019   4.804  2.4395  2.5500  1.9054
  177MOL0     H24421   9.065   3.919   4.941  0.3114 -0.6493 -0.8434
  177MOL0     H24422   8.881   3.607   4.737  0.9398 -0.3781  2.0952
  177MOL0     H24423   9.714   4.134   4.943  0.2450  0.8802 -0.2072
  177MOL0     H24424  10.026   4.201   4.942 -2.6850  0.9083 -1.6260
  177MOL0     H24425   9.937   4.131   5.068  0.2083  2.9771 -0.3651
  177MOL0     H24426  10.065   4.039   5.017 -0.8882 -0.8146  0.7227
  178MOL0     O24427  10.544   2.984   0.564  0.8532  0.7664 -0.0525
  178MOL0     C24428  10.596   2.995   0.460  0.0954  0.2397 -0.2837
  178MOL0     O24429  10.537   2.989   0.337  0.3517 -0.8983  0.1253
  178MOL0     C24430  10.396   3.001   0.336  0.0494 -0.9126 -0.3055
  178MOL0     C24431  10.316   2.886   0.321  0.3207 -0.0065 -0.8077
  178MOL0     C24432  10.180   2.896   0.319 -0.5251 -0.3362  0.2984
  178MOL0     C24433  10.117   3.022   0.333  0.0475  0.5811  0.4167
  178MOL0     O24434   9.980   3.035   0.342 -0.4014 -0.5650 -0.4227
  178MOL0     C24435   9.903   2.994   0.228 -0.2734 -0.2408  0.0700
  178MOL0     C24436   9.816   3.109   0.170  0.8162  0.1566  0.0556
  178MOL0     C24437   9.712   3.150   0.276  0.1266 -1.3360  0.5883
  178MOL0     C24438   9.594   3.234   0.209  0.5467  0.9100 -0.5937
  178MOL0     C24439   9.476   3.264   0.300  0.0469 -0.1321 -0.0855
  178MOL0     C24440   9.532   3.340   0.426 -0.7647 -0.2092 -0.2657
  178MOL0     C24441   9.427   3.384   0.531  0.7191 -0.3957  0.7414
  178MOL0     C24442   9.331   3.479   0.473 -0.1199 -0.6738  0.3172
  178MOL0     N24443   9.364   3.614   0.526  0.2329 -0.2751 -0.0295
  178MOL0     C24444   9.325   3.659   0.647  0.9642 -0.5297  0.4538
  178MOL0     C24445   9.357   3.784   0.661  0.5184 -0.6001 -0.0505
  178MOL0     C24446   9.351   3.870   0.783 -0.4616 -0.3659  0.1188
  178MOL0     C24447   9.485   3.941   0.810 -0.2791 -0.5725 -0.2552
  178MOL0     C24448   9.596   3.850   0.859 -0.6771  0.4417  0.0693
  178MOL0     C24449   9.720   3.930   0.874  1.6612  0.2993  0.5124
  178MOL0     O24450   9.804   3.854   0.956  0.3849 -0.2770 -0.2783
  178MOL0     C24451   9.937   3.887   0.942  1.0123 -0.6364  0.2107
  178MOL0     C24452  10.024   3.801   1.009  1.4001  0.0115 -0.1463
  178MOL0     C24453  10.162   3.821   1.004  0.9396 -0.2397 -0.1160
  178MOL0     C24454  10.253   3.718   1.076 -0.3613 -0.2949  0.5568
  178MOL0     C24455  10.218   3.933   0.925  0.2398  0.3574 -0.2769
  178MOL0     C24456  10.361   3.964   0.929 -0.5248  0.4148  0.2325
  178MOL0     O24457  10.452   3.869   0.948  0.1371  0.3920  0.5637
  178MOL0     C24458  10.586   3.910   0.956 -0.7198  0.1947  0.5869
  178MOL0     C24459  10.660   3.950   0.844 -0.2532  0.2140 -0.3632
  178MOL0     C24460  10.800   3.969   0.849  0.4023  0.2745  0.6965
  178MOL0     C24461  10.859   3.958   0.975 -0.1070  1.2034 -0.0024
  178MOL0     O24462  10.995   3.967   0.991  0.2100 -0.6117 -0.0134
  178MOL0     C24463  11.074   3.865   0.928  0.0340  0.3395  0.9774
  178MOL0     C24464  11.216   3.845   0.980 -0.3930  0.8370 -0.0105
  178MOL0     C24465  11.218   3.809   1.135 -0.2629 -0.8045  1.0714
  178MOL0     C24466  11.341   3.727   1.168 -0.1308  0.7252 -0.0128
  178MOL0     C24467  11.347   3.576   1.113  0.0016 -0.6079 -0.1869
  178MOL0     C24468  11.219   3.500   1.114 -0.1809 -1.0187  0.5503
  178MOL0     C24469  11.160   3.501   1.250 -0.5457 -0.2152 -0.5362
  178MOL0     C24470  11.027   3.431   1.261  0.1892  0.2917  0.3191
  178MOL0    Cl24471  10.899   3.517   1.163  0.0299  0.1397  0.3709
  178MOL0     C24472  10.791   3.918   1.085 -0.8694  0.8772  1.0892
  178MOL0     C24473  10.654   3.889   1.075  0.2631  0.0228 -0.3396
  178MOL0     O24474  10.391   4.081   0.907 -0.0167  0.4986  0.6736
  178MOL0     C24475  10.127   4.024   0.866  0.9337  0.5673 -0.2142
  178MOL0     C24476   9.991   4.004   0.875  0.1625 -0.3534 -0.0356
  178MOL0     N24477   9.416   3.814   0.536 -0.5498  0.3665  0.0775
  178MOL0     N24478   9.419   3.722   0.460 -0.4282  0.3309 -0.4971
  178MOL0     C24479  10.192   3.131   0.363 -0.0852 -0.6228 -0.7457
  178MOL0     C24480  10.333   3.123   0.359 -0.0463  0.3055  0.4932
  178MOL0     C24481  10.735   2.967   0.466 -0.4009  0.4455  0.0177
  178MOL0     C24482  10.772   2.830   0.439 -0.1635 -0.2106  1.1383
  178MOL0     C24483  10.910   2.791   0.444  0.3098  0.8631  0.5049
  178MOL0     C24484  11.003   2.879   0.475  0.9741 -0.2083 -0.1715
  178MOL0     O24485  11.134   2.853   0.460  0.0162  0.3151 -0.1295
  178MOL0     C24486  11.205   2.837   0.583  0.3985  0.0640  0.2235
  178MOL0     C24487  11.218   2.683   0.598  0.2358 -1.2888 -0.1688
  178MOL0     C24488  11.295   2.610   0.485 -0.0915 -0.7943 -0.0156
  178MOL0     C24489  11.285   2.457   0.503  0.5888 -0.5245 -0.4472
  178MOL0     C24490  11.318   2.405   0.638  0.1880 -0.0698 -0.0972
  178MOL0     C24491  11.344   2.387   0.758 -0.8906  0.1317 -0.1821
  178MOL0     C24492  10.961   3.005   0.506  0.3856 -0.0225 -0.1654
  178MOL0     C24493  10.829   3.059   0.502 -0.0303  0.3905  0.1072
  178MOL0     C24494  10.788   3.192   0.549  0.3487 -0.4328  0.3849
  178MOL0     H24495  10.358   2.787   0.314 -0.5383 -0.5542  1.1545
  178MOL0     H24496  10.119   2.808   0.302 -1.2640  0.3382 -0.6824
  178MOL0     H24497   9.840   2.910   0.260  1.0420 -2.3180 -2.4218
  178MOL0     H24498   9.978   2.964   0.155  0.2459  1.9640 -0.3505
  178MOL0     H24499   9.879   3.191   0.136 -0.1016 -0.6928 -4.1897
  178MOL0     H24500   9.758   3.070   0.087  0.4214  1.0220 -0.0870
  178MOL0     H24501   9.677   3.063   0.332 -2.5980 -2.8832 -3.1574
  178MOL0     H24502   9.762   3.220   0.344 -2.5849  0.3689  0.9921
  178MOL0     H24503   9.632   3.327   0.166  1.0396 -0.0643 -2.3795
  178MOL0     H24504   9.556   3.171   0.128  1.3069  1.9233 -1.7641
  178MOL0     H24505   9.432   3.171   0.337 -0.1372 -1.0956 -2.5146
  178MOL0     H24506   9.402   3.319   0.240  2.0956 -2.1882 -5.0609
  178MOL0     H24507   9.593   3.263   0.474  0.1124  1.1153  0.8272
  178MOL0     H24508   9.594   3.427   0.403 -0.3245  0.7464  3.7142
  178MOL0     H24509   9.460   3.432   0.623 -1.6332  0.5094  1.2007
  178MOL0     H24510   9.385   3.291   0.570  0.2489 -1.5559 -2.2515
  178MOL0     H24511   9.322   3.497   0.365  0.1998 -0.2113  0.3634
  178MOL0     H24512   9.231   3.439   0.493  0.0313 -3.2574 -3.2092
  178MOL0     H24513   9.278   3.614   0.734 -1.1461 -0.3474 -0.5300
  178MOL0     H24514   9.305   3.815   0.867 -0.1568  0.4207  0.8132
  178MOL0     H24515   9.284   3.955   0.766  0.8713  1.3526  2.6857
  178MOL0     H24516   9.513   4.002   0.724  1.2554 -0.1030  0.5292
  178MOL0     H24517   9.476   4.014   0.892  1.9664  0.5775 -0.9696
  178MOL0     H24518   9.573   3.806   0.956 -1.1652  0.4381 -0.0451
  178MOL0     H24519   9.625   3.768   0.792  0.5651  0.7025  0.2526
  178MOL0     H24520   9.751   3.956   0.773  0.5306 -1.6427 -0.3757
  178MOL0     H24521   9.689   4.021   0.927 -1.5728 -1.8235  2.6527
  178MOL0     H24522   9.979   3.717   1.061  1.7784 -1.4268 -2.0275
  178MOL0     H24523  10.322   3.672   1.006 -1.0334  1.0712 -1.0623
  178MOL0     H24524  10.197   3.638   1.126  2.4774 -2.0460  1.1471
  178MOL0     H24525  10.305   3.770   1.157  0.3150 -2.0541  1.3113
  178MOL0     H24526  10.600   3.967   0.756 -2.2789 -1.0501  0.6842
  178MOL0     H24527  10.860   4.010   0.768 -0.5472  0.4864  0.0887
  178MOL0     H24528  11.024   3.769   0.912  0.7601  0.1725 -0.4116
  178MOL0     H24529  11.083   3.898   0.824  2.1123 -0.3324  0.9114
  178MOL0     H24530  11.279   3.777   0.922 -0.8002  0.4414  0.0062
  178MOL0     H24531  11.259   3.945   0.971 -0.7255  0.8610 -1.6342
  178MOL0     H24532  11.125   3.763   1.171 -3.5885  3.1423 -1.5486
  178MOL0     H24533  11.229   3.903   1.189 -0.7832  0.0159 -0.2131
  178MOL0     H24534  11.345   3.718   1.277 -0.5246 -3.1704 -0.1836
  178MOL0     H24535  11.438   3.772   1.145  0.5355 -1.0529 -0.8540
  178MOL0     H24536  11.391   3.584   1.013  2.9629 -0.7491  1.0039
  178MOL0     H24537  11.411   3.515   1.177  0.3841  0.7126  0.7526
  178MOL0     H24538  11.234   3.401   1.070 -4.5419 -0.4844 -2.8057
  178MOL0     H24539  11.164   3.553   1.036 -1.7876 -1.7307  1.1445
  178MOL0     H24540  11.158   3.601   1.295  3.3737  0.3653 -1.3320
  178MOL0     H24541  11.222   3.443   1.319  0.7562  0.1155 -1.3968
  178MOL0     H24542  10.993   3.430   1.365 -0.6678 -0.0796  0.0467
  178MOL0     H24543  11.027   3.328   1.224  0.3846  0.1452  0.7264
  178MOL0     H24544  10.853   3.904   1.173 -2.1231 -0.3885  1.8023
  178MOL0     H24545  10.588   3.856   1.154 -2.0222  1.9208 -1.3559
  178MOL0     H24546  10.166   4.100   0.799  3.3719 -0.3456  0.0727
  178MOL0     H24547   9.927   4.064   0.812 -0.3817  1.0910  1.8230
  178MOL0     H24548  10.148   3.229   0.376 -0.1138 -0.7937  0.5903
  178MOL0     H24549  10.399   3.205   0.382  2.2302 -1.3217  0.1433
  178MOL0     H24550  10.696   2.759   0.407  0.2665 -0.5440  0.8473
  178MOL0     H24551  10.933   2.695   0.400  1.8291  1.4096  0.0455
  178MOL0     H24552  11.297   2.896   0.571  0.4296  0.1092  0.6478
  178MOL0     H24553  11.153   2.882   0.668 -3.5979 -0.2126 -1.8566
  178MOL0     H24554  11.116   2.643   0.607 -0.0365 -0.3080  1.7505
  178MOL0     H24555  11.274   2.657   0.688  0.2667  0.6124  0.4126
  178MOL0     H24556  11.254   2.633   0.387 -1.0993  0.2955  0.6312
  178MOL0     H24557  11.397   2.649   0.501 -1.6159  3.7655  0.2289
  178MOL0     H24558  11.348   2.408   0.428  0.1250 -0.8398 -0.6440
  178MOL0     H24559  11.184   2.415   0.489  0.0197  0.0370  1.6655
  178MOL0     H24560  11.345   2.366   0.863  0.5523  0.3802 -0.1177
  178MOL0     H24561  11.027   3.087   0.532  0.4871 -0.4167  0.8499
  178MOL0     H24562  10.738   3.244   0.467 -1.2133 -1.4738  0.6409
  178MOL0     H24563  10.720   3.196   0.635  0.0738  0.3862  0.1381
  178MOL0     H24564  10.878   3.248   0.577 -0.7709  1.6105  0.1228
  179MOL0     O24565   8.308   9.575   6.949  0.4506  1.0668  0.4248
  179MOL0     C24566   8.266   9.669   7.010 -0.6415 -0.6056  0.1610
  179MOL0     O24567   8.341   9.779   7.039  0.5962  0.2460  0.2451
  179MOL0     C24568   8.474   9.787   6.997  0.1265 -0.3235  0.5675
  179MOL0     C24569   8.569   9.688   7.002 -0.1497 -0.5941  0.8562
  179MOL0     C24570   8.687   9.694   6.927 -0.0213  0.1521 -0.2607
  179MOL0     C24571   8.709   9.796   6.849  0.0368 -0.3037 -0.6037
  179MOL0     O24572   8.829   9.800   6.779  1.1377  0.0735  0.2446
  179MOL0     C24573   8.886   9.680   6.724  0.0653  0.0527 -0.0802
  179MOL0     C24574   8.995   9.610   6.804  0.3922 -0.0476 -0.1181
  179MOL0     C24575   9.118   9.703   6.815  0.6086  0.0523 -0.8077
  179MOL0     C24576   9.170   9.765   6.685  0.1572 -0.1538 -0.9020
  179MOL0     C24577   9.278   9.863   6.718 -0.2069 -0.3252  1.2109
  179MOL0     C24578   9.337   9.915   6.588  0.2425 -0.6008 -1.2465
  179MOL0     C24579   9.487   9.960   6.594  0.8149 -0.2602  0.4077
  179MOL0     C24580   9.585   9.846   6.631  0.6498  0.2355  0.2878
  179MOL0     N24581   9.722   9.882   6.598  0.1776 -0.7626 -0.6359
  179MOL0     C24582   9.787  10.004   6.633 -0.4481  0.4457  0.4702
  179MOL0     C24583   9.890  10.014   6.546  0.1693 -0.0668 -0.6973
  179MOL0     C24584  10.008  10.109   6.568  0.4475  0.1974  0.9996
  179MOL0     C24585  10.122  10.127   6.460  0.3346 -0.5398  0.4476
  179MOL0     C24586  10.058  10.178   6.323  0.3944 -0.6727  0.1935
  179MOL0     C24587  10.168  10.197   6.219 -0.3960  0.4164 -0.2283
  179MOL0     O24588  10.270  10.097   6.209  1.0656 -0.3519  0.3345
  179MOL0     C24589  10.364  10.107   6.109 -0.0094  0.6848 -0.2476
  179MOL0     C24590  10.478  10.044   6.142 -0.4438 -0.3681 -0.1470
  179MOL0     C24591  10.590  10.046   6.060  0.1557 -0.1695  1.5094
  179MOL0     C24592  10.700   9.954   6.114  0.7032  0.2368  0.7926
  179MOL0     C24593  10.586  10.109   5.931  0.5275  0.0903 -0.7046
  179MOL0     C24594  10.693  10.108   5.825 -0.4980 -0.0107 -0.7595
  179MOL0     O24595  10.806  10.044   5.852 -0.3259  0.7545 -0.8188
  179MOL0     C24596  10.909  10.057   5.768  0.5302 -0.9783 -0.3371
  179MOL0     C24597  10.940  10.168   5.692  0.2446 -0.0454  0.2886
  179MOL0     C24598  11.050  10.172   5.611  0.2837 -0.3961  0.2392
  179MOL0     C24599  11.142  10.070   5.607  0.4618 -0.4205  1.7812
  179MOL0     O24600  11.245  10.108   5.528 -0.0717  0.1504 -0.2995
  179MOL0     C24601  11.309   9.995   5.461 -0.3227 -0.2168 -0.4773
  179MOL0     C24602  11.422  10.043   5.376 -0.2077  0.0626  0.3402
  179MOL0     C24603  11.486   9.917   5.310  0.0378 -0.7004  0.0891
  179MOL0     C24604  11.614   9.962   5.230 -0.1071  0.3720 -0.7063
  179MOL0     C24605  11.702   9.848   5.189 -0.8935  0.7938  0.3778
  179MOL0     C24606  11.798   9.902   5.076  0.2952 -0.5751 -0.3944
  179MOL0     C24607  11.896   9.794   5.020 -0.2452  0.2653 -1.0195
  179MOL0     C24608  11.832   9.663   4.997  0.2239  0.2314 -0.2618
  179MOL0    Cl24609  11.973   9.551   4.964 -0.1829  0.0411  0.0399
  179MOL0     C24610  11.117   9.959   5.688  0.7198  0.8222 -0.4780
  179MOL0     C24611  11.000   9.947   5.759 -0.7852  0.9902 -0.3839
  179MOL0     O24612  10.658  10.152   5.715 -0.3972  1.0023 -0.9801
  179MOL0     C24613  10.469  10.183   5.914  0.2051 -0.1628  1.5222
  179MOL0     C24614  10.355  10.184   5.998  0.3626 -0.5840 -0.1192
  179MOL0     N24615   9.874   9.909   6.447 -0.2788 -0.1082 -0.2260
  179MOL0     N24616   9.786   9.830   6.493 -0.7267  0.5153  0.3397
  179MOL0     C24617   8.620   9.904   6.841  0.5799 -0.7501 -0.0680
  179MOL0     C24618   8.510   9.903   6.925  0.3289 -0.4307  0.0189
  179MOL0     C24619   8.130   9.675   7.081 -0.4459  0.3211 -0.3504
  179MOL0     C24620   8.104   9.742   7.205  0.2882  0.4553 -0.2358
  179MOL0     C24621   7.980   9.728   7.265 -0.6139  0.1165 -0.2714
  179MOL0     C24622   7.873   9.673   7.207  0.2028  0.0551  0.2087
  179MOL0     O24623   7.761   9.661   7.279 -0.4554  1.0573 -0.2195
  179MOL0     C24624   7.644   9.667   7.200 -0.0969 -0.0446  0.2876
  179MOL0     C24625   7.523   9.713   7.285 -0.0592 -0.0308 -0.5196
  179MOL0     C24626   7.554   9.848   7.360  0.5910  0.5536  0.7693
  179MOL0     C24627   7.450   9.881   7.458  0.1106  0.1259  0.2509
  179MOL0     C24628   7.345   9.961   7.402  0.2398  0.7308  0.4620
  179MOL0     C24629   7.275  10.031   7.348  0.5081  0.1305  0.1116
  179MOL0     C24630   7.889   9.615   7.080 -0.1984 -0.0972  0.4117
  179MOL0     C24631   8.012   9.616   7.015 -0.5477  0.9252  0.2374
  179MOL0     C24632   8.021   9.543   6.875  0.0830  0.3351  0.7843
  179MOL0     H24633   8.530   9.599   7.050 -2.1218 -0.1013  0.2412
  179MOL0     H24634   8.749   9.605   6.926  0.3045  0.3300  1.2349
  179MOL0     H24635   8.917   9.708   6.623  0.0341 -0.8904 -0.3587
  179MOL0     H24636   8.812   9.602   6.705  0.7318 -0.2946 -1.3812
  179MOL0     H24637   8.955   9.572   6.898 -0.0110  2.0276  0.5954
  179MOL0     H24638   9.028   9.522   6.748 -3.6008 -0.2193 -2.5558
  179MOL0     H24639   9.077   9.779   6.882  2.8732 -2.4800  3.9058
  179MOL0     H24640   9.186   9.643   6.875 -0.2682  0.1803  0.3474
  179MOL0     H24641   9.197   9.690   6.610 -0.1010 -1.0870 -0.0886
  179MOL0     H24642   9.094   9.824   6.634  0.6208 -0.6822 -2.2359
  179MOL0     H24643   9.362   9.816   6.768  0.0045 -0.2621  0.9148
  179MOL0     H24644   9.243   9.946   6.780  3.5367  1.7254  0.8786
  179MOL0     H24645   9.331   9.844   6.506 -0.6590 -1.2585 -0.6230
  179MOL0     H24646   9.285  10.007   6.560 -1.3333 -0.1613  2.5384
  179MOL0     H24647   9.490  10.046   6.661  0.6712  1.0009 -1.1406
  179MOL0     H24648   9.512   9.980   6.490 -1.5319 -2.7855 -0.7656
  179MOL0     H24649   9.573   9.840   6.740 -1.6033  1.5915  0.1806
  179MOL0     H24650   9.556   9.749   6.592 -0.8355  0.7211  0.1455
  179MOL0     H24651   9.774  10.055   6.728  1.2250 -0.9294  1.5108
  179MOL0     H24652  10.068  10.066   6.649  1.4646 -0.7315 -0.2050
  179MOL0     H24653   9.957  10.204   6.583 -4.3821 -1.3310 -2.9714
  179MOL0     H24654  10.192  10.205   6.491 -0.9382  1.1768 -0.7920
  179MOL0     H24655  10.172  10.030   6.456 -0.6483 -1.0251 -0.5446
  179MOL0     H24656   9.978  10.108   6.296 -1.1843  0.6730  1.2088
  179MOL0     H24657  10.004  10.273   6.331 -1.4107 -1.7430  1.3382
  179MOL0     H24658  10.110  10.205   6.126  1.2197  4.2554 -1.1025
  179MOL0     H24659  10.220  10.290   6.243  1.4186 -0.9813  1.5925
  179MOL0     H24660  10.487  10.001   6.241  0.1031 -0.8033 -0.3761
  179MOL0     H24661  10.683   9.907   6.211  1.4105 -0.6058  0.5156
  179MOL0     H24662  10.799   9.999   6.109  1.0730 -0.6989 -2.2408
  179MOL0     H24663  10.701   9.864   6.052 -0.5365  0.9237 -0.2823
  179MOL0     H24664  10.876  10.253   5.673 -1.7393 -1.4956  0.2397
  179MOL0     H24665  11.062  10.261   5.551 -1.2413 -0.7088 -0.5566
  179MOL0     H24666  11.354   9.918   5.525  2.0194 -0.0248 -1.7672
  179MOL0     H24667  11.246   9.936   5.393  1.8461 -0.2270 -2.6132
  179MOL0     H24668  11.402  10.109   5.291  2.5322 -0.3368 -0.7332
  179MOL0     H24669  11.500  10.078   5.444 -2.9111 -1.4253  4.5974
  179MOL0     H24670  11.415   9.871   5.241  2.0642 -2.2344 -1.1009
  179MOL0     H24671  11.511   9.841   5.386  0.7787  0.0274  0.5903
  179MOL0     H24672  11.682  10.017   5.296 -2.0978  1.9076  0.1979
  179MOL0     H24673  11.579  10.036   5.158 -0.6063  1.8167  0.9449
  179MOL0     H24674  11.765   9.811   5.270  1.0555 -1.5662 -2.0385
  179MOL0     H24675  11.635   9.769   5.152  0.1947  0.9437 -2.0490
  179MOL0     H24676  11.867   9.976   5.119 -0.4424 -1.4494  2.5694
  179MOL0     H24677  11.735   9.940   4.995 -1.4951 -0.7562  0.8580
  179MOL0     H24678  11.965   9.778   5.104 -0.7700  0.1322 -0.6093
  179MOL0     H24679  11.946   9.842   4.936  2.3320 -0.5208 -0.0519
  179MOL0     H24680  11.764   9.671   4.912 -2.1658 -2.1828  1.2689
  179MOL0     H24681  11.775   9.639   5.087 -0.1659  1.9492 -0.0134
  179MOL0     H24682  11.181   9.871   5.693 -1.0793 -0.5935 -1.4286
  179MOL0     H24683  10.987   9.857   5.818 -0.4513  2.0302  1.3431
  179MOL0     H24684  10.471  10.247   5.827  2.0235  1.8363  2.9381
  179MOL0     H24685  10.267  10.245   5.978 -0.0923 -1.3247 -0.4044
  179MOL0     H24686   8.635   9.977   6.762  1.7423  1.1118  1.7585
  179MOL0     H24687   8.441   9.987   6.926  0.9914  0.1384  1.4933
  179MOL0     H24688   8.186   9.795   7.252  1.0825  1.4637 -2.5645
  179MOL0     H24689   7.970   9.766   7.366  3.8040 -2.6068  1.4950
  179MOL0     H24690   7.654   9.741   7.120  0.2368 -1.6397 -1.2073
  179MOL0     H24691   7.621   9.567   7.163  0.7513 -0.1217 -0.0787
  179MOL0     H24692   7.495   9.635   7.357  1.9569  0.6150  1.0710
  179MOL0     H24693   7.437   9.723   7.218 -1.0342  3.3381  0.9887
  179MOL0     H24694   7.649   9.841   7.414 -0.3231  0.5396  2.4337
  179MOL0     H24695   7.565   9.940   7.302 -1.1823 -0.3940 -1.1716
  179MOL0     H24696   7.490   9.941   7.540 -1.0255 -2.2310  2.7121
  179MOL0     H24697   7.408   9.793   7.507  1.1592 -0.6693 -0.2263
  179MOL0     H24698   7.211  10.082   7.279 -1.0623 -0.8557  0.7949
  179MOL0     H24699   7.803   9.565   7.038 -0.1059  0.3708 -0.3487
  179MOL0     H24700   7.924   9.531   6.826 -1.0576  1.1254  2.7469
  179MOL0     H24701   8.096   9.597   6.815  1.7600 -1.2235  1.3885
  179MOL0     H24702   8.063   9.442   6.874  2.1678  1.1444 -0.0039
  180MOL0     O24703   1.719   2.257  10.183 -0.4511  0.5413  0.0785
  180MOL0     C24704   1.809   2.261  10.272  0.2324 -0.8668 -0.2648
  180MOL0     O24705   1.938   2.215  10.254  0.4768  0.3100 -0.4204
  180MOL0     C24706   1.976   2.154  10.132 -0.2279  0.1662 -0.8751
  180MOL0     C24707   2.095   2.211  10.074 -0.0435  0.0014 -0.7735
  180MOL0     C24708   2.129   2.168   9.949 -0.3277  0.6996 -1.1784
  180MOL0     C24709   2.068   2.052   9.898  0.0943  0.4789  0.3687
  180MOL0     O24710   2.119   1.992   9.787 -1.0796 -0.8489  0.3268
  180MOL0     C24711   2.245   1.924   9.806 -0.0665  0.4132 -0.4964
  180MOL0     C24712   2.233   1.773   9.845  0.7744  0.1837 -0.1659
  180MOL0     C24713   2.200   1.686   9.725 -0.0464  0.3213 -0.2234
  180MOL0     C24714   2.202   1.536   9.746  0.0568 -0.1839  0.2297
  180MOL0     C24715   2.164   1.461   9.607 -0.2386  0.7708 -0.0052
  180MOL0     C24716   2.117   1.316   9.629  0.7921 -0.5379 -0.3609
  180MOL0     C24717   2.116   1.222   9.508  0.7443 -0.2891  0.6884
  180MOL0     C24718   2.007   1.275   9.411 -0.4020 -0.3735  0.8441
  180MOL0     N24719   1.964   1.176   9.300 -0.6146 -0.0356 -0.1721
  180MOL0     C24720   2.048   1.122   9.207  0.0176  0.8441  0.8443
  180MOL0     C24721   1.972   1.040   9.127  0.4137 -0.5154  0.2773
  180MOL0     C24722   2.008   0.970   8.998 -0.4566 -0.1159  0.2796
  180MOL0     C24723   2.081   0.835   9.011 -1.1819 -0.0396  0.3139
  180MOL0     C24724   2.056   0.759   8.876  0.4441 -0.1240  0.0676
  180MOL0     C24725   2.097   0.616   8.883 -0.5563 -0.0620 -0.9220
  180MOL0     O24726   2.019   0.549   8.982 -0.4318 -0.1882 -0.9809
  180MOL0     C24727   2.044   0.414   8.994  0.3995 -0.0485  0.1926
  180MOL0     C24728   2.143   0.353   9.065 -1.0290 -0.1648 -0.1562
  180MOL0     C24729   2.170   0.221   9.084 -0.2845  0.5265 -0.0278
  180MOL0     C24730   2.299   0.179   9.154 -0.1058 -0.0646  0.2860
  180MOL0     C24731   2.086   0.134   9.016  0.4136 -0.8315 -0.2369
  180MOL0     C24732   2.109  -0.012   9.013 -0.3104 -0.2757  0.2349
  180MOL0     O24733   2.024  -0.080   8.927 -0.0215  0.0909 -0.2953
  180MOL0     C24734   2.045  -0.215   8.924  0.0594  0.4822 -0.0623
  180MOL0     C24735   2.099  -0.277   8.810  0.6062 -0.1879 -0.2037
  180MOL0     C24736   2.133  -0.408   8.814  0.6460  0.2273  0.4340
  180MOL0     C24737   2.095  -0.493   8.917 -0.0020  0.9529 -0.4980
  180MOL0     O24738   2.139  -0.621   8.895 -0.6281  0.2393 -0.0918
  180MOL0     C24739   2.089  -0.727   8.970 -0.4857  1.0805  0.2485
  180MOL0     C24740   2.158  -0.858   8.918  0.2907  0.0827  0.4067
  180MOL0     C24741   2.109  -0.889   8.775 -0.3798 -0.2673 -0.1342
  180MOL0     C24742   2.155  -1.013   8.708 -0.0848 -0.0959  0.5865
  180MOL0     C24743   2.071  -1.038   8.579  0.6706 -0.0914 -0.4567
  180MOL0     C24744   2.102  -1.177   8.519  0.1138 -0.7771  0.2970
  180MOL0     C24745   1.996  -1.208   8.414 -0.0191 -1.1114 -0.8957
  180MOL0     C24746   2.058  -1.312   8.317  0.4351 -0.3478 -0.1836
  180MOL0    Cl24747   1.945  -1.406   8.218 -0.2198  0.0839  0.0432
  180MOL0     C24748   2.023  -0.432   9.030 -0.4910 -0.2822  0.3566
  180MOL0     C24749   2.011  -0.290   9.038 -0.4127 -0.6858  0.4549
  180MOL0     O24750   2.198  -0.055   9.080  0.1859 -0.4476  0.1925
  180MOL0     C24751   1.991   0.187   8.928 -0.2000 -1.5705 -1.1125
  180MOL0     C24752   1.968   0.322   8.914  0.2381  0.8394  0.3638
  180MOL0     N24753   1.837   1.051   9.168 -0.5129 -0.0722  0.1008
  180MOL0     N24754   1.832   1.144   9.260 -1.1622 -0.4736  0.0753
  180MOL0     C24755   1.960   1.992   9.955 -0.6720 -0.6667  0.2762
  180MOL0     C24756   1.908   2.049  10.069 -0.9216  0.6113  0.8586
  180MOL0     C24757   1.758   2.301  10.410 -0.8881 -0.5750  0.7996
  180MOL0     C24758   1.674   2.411  10.399 -0.4218  0.7705  1.4386
  180MOL0     C24759   1.653   2.485  10.510  0.3978  0.5402 -0.1415
  180MOL0     C24760   1.708   2.448  10.633  0.4114 -0.1004 -0.2209
  180MOL0     O24761   1.700   2.521  10.746  0.3444 -0.3389 -0.3448
  180MOL0     C24762   1.682   2.668  10.740 -0.4281 -0.4911  0.8556
  180MOL0     C24763   1.770   2.763  10.659 -0.2950  0.2701  0.5831
  180MOL0     C24764   1.914   2.728  10.658 -0.8766 -0.6326 -1.0802
  180MOL0     C24765   1.983   2.762  10.795 -0.1331 -0.4475 -0.0021
  180MOL0     C24766   2.133   2.760  10.794  0.9602 -0.0050 -0.1359
  180MOL0     C24767   2.256   2.763  10.793  0.0359  0.1796  0.4029
  180MOL0     C24768   1.775   2.325  10.649  1.0446  0.4040  0.7623
  180MOL0     C24769   1.797   2.253  10.534  0.1134 -0.0227 -0.5471
  180MOL0     C24770   1.877   2.121  10.561  0.6299  0.2311  0.4581
  180MOL0     H24771   2.148   2.288  10.129 -0.9445 -0.4747  0.8283
  180MOL0     H24772   2.221   2.205   9.906  0.0726  2.2115  0.8377
  180MOL0     H24773   2.295   1.974   9.890 -0.1177 -3.3294  2.0115
  180MOL0     H24774   2.312   1.938   9.721  1.0553 -1.6849 -0.0326
  180MOL0     H24775   2.325   1.736   9.891  1.9786  1.8335 -1.1162
  180MOL0     H24776   2.153   1.769   9.920 -1.2231  4.1445 -1.7366
  180MOL0     H24777   2.098   1.715   9.697 -0.1179  0.3298  0.0421
  180MOL0     H24778   2.265   1.702   9.639  1.3678 -3.2372  0.0268
  180MOL0     H24779   2.300   1.502   9.781  1.2930  2.7736 -0.1203
  180MOL0     H24780   2.128   1.514   9.824 -1.4533  0.2013 -1.0350
  180MOL0     H24781   2.256   1.466   9.548 -0.3079  0.2724 -0.1609
  180MOL0     H24782   2.080   1.509   9.556 -3.3023  0.0954  3.8966
  180MOL0     H24783   2.190   1.266   9.694 -1.3910 -0.9913  1.9135
  180MOL0     H24784   2.022   1.303   9.682 -0.0988 -0.5727 -1.9014
  180MOL0     H24785   2.098   1.117   9.535  1.6613 -1.0556 -1.4296
  180MOL0     H24786   2.215   1.226   9.463  0.2679  0.2982 -0.3387
  180MOL0     H24787   1.923   1.298   9.477 -0.2713 -2.9592  2.0284
  180MOL0     H24788   2.051   1.359   9.355 -1.5159 -0.7837 -0.7008
  180MOL0     H24789   2.154   1.135   9.186  0.0265 -2.4697 -2.0737
  180MOL0     H24790   2.076   1.034   8.940  0.1406 -0.0151  1.0675
  180MOL0     H24791   1.920   0.963   8.934  0.4880 -0.7077 -0.9947
  180MOL0     H24792   2.188   0.851   9.027 -0.8113  3.4974 -3.8844
  180MOL0     H24793   2.035   0.786   9.097  2.3132 -0.6664  2.0291
  180MOL0     H24794   1.946   0.758   8.868  0.2285  0.3244  2.3324
  180MOL0     H24795   2.097   0.801   8.784  2.5034 -0.7805  0.6414
  180MOL0     H24796   2.078   0.558   8.793 -1.7480 -0.1410 -0.6306
  180MOL0     H24797   2.203   0.600   8.905 -1.3267 -1.9936  2.0728
  180MOL0     H24798   2.217   0.419   9.108 -1.2661  0.9659 -1.4203
  180MOL0     H24799   2.359   0.267   9.178 -0.2149  0.7105 -2.0893
  180MOL0     H24800   2.365   0.123   9.087  2.2383  0.6560  1.8772
  180MOL0     H24801   2.272   0.118   9.241 -1.3649 -1.2407 -0.8756
  180MOL0     H24802   2.113  -0.217   8.720 -1.2765  0.8114  0.1259
  180MOL0     H24803   2.198  -0.452   8.739 -1.1039 -0.7367 -0.5795
  180MOL0     H24804   2.103  -0.713   9.077 -1.8688  1.0010  0.4568
  180MOL0     H24805   1.981  -0.743   8.969 -0.1745 -2.0385 -2.7975
  180MOL0     H24806   2.267  -0.850   8.909  0.1163  1.2115 -1.1157
  180MOL0     H24807   2.138  -0.943   8.983 -2.5580 -0.6125 -1.2189
  180MOL0     H24808   2.122  -0.806   8.705  1.3145 -0.9583 -0.6821
  180MOL0     H24809   2.001  -0.905   8.785 -0.3435  0.3837  1.9313
  180MOL0     H24810   2.134  -1.098   8.773  1.0045  0.1875  1.3437
  180MOL0     H24811   2.262  -1.001   8.685  0.4890  1.3806  3.4432
  180MOL0     H24812   1.964  -1.040   8.599  0.6257 -1.7028 -0.6651
  180MOL0     H24813   2.092  -0.967   8.498  1.3091 -0.9003 -1.0234
  180MOL0     H24814   2.105  -1.254   8.597 -1.3502 -1.3325 -0.1654
  180MOL0     H24815   2.197  -1.168   8.466  0.6646 -3.2252  0.7140
  180MOL0     H24816   1.956  -1.124   8.357 -0.3825  0.4443  1.5192
  180MOL0     H24817   1.910  -1.250   8.468  0.9245 -1.9834 -0.0140
  180MOL0     H24818   2.117  -1.393   8.362 -0.6447 -2.1375 -1.8311
  180MOL0     H24819   2.116  -1.249   8.250 -1.1975  1.6280  0.1664
  180MOL0     H24820   1.984  -0.498   9.107 -2.3296  1.8196  1.3220
  180MOL0     H24821   1.966  -0.247   9.126  1.1791 -0.0620  0.9985
  180MOL0     H24822   1.926   0.127   8.866 -1.5859 -0.1677 -1.0781
  180MOL0     H24823   1.890   0.354   8.846  0.8893 -0.1413 -0.8810
  180MOL0     H24824   1.910   1.907   9.909  0.2594 -1.0191 -0.1038
  180MOL0     H24825   1.816   2.014  10.115 -0.4678  0.2943  1.5410
  180MOL0     H24826   1.642   2.438  10.299  0.9840 -1.3128  0.3475
  180MOL0     H24827   1.585   2.568  10.494 -0.9868 -0.4525  0.3787
  180MOL0     H24828   1.578   2.690  10.716 -0.1612  2.3945  1.8708
  180MOL0     H24829   1.700   2.695  10.844  0.7128 -3.5141  1.5423
  180MOL0     H24830   1.748   2.869  10.677  1.7278  0.6097  1.3247
  180MOL0     H24831   1.739   2.752  10.555 -0.4255 -0.9567  0.7348
  180MOL0     H24832   1.932   2.622  10.640 -1.9442 -0.5296 -2.9927
  180MOL0     H24833   1.967   2.787  10.583  1.1990  0.5530  1.1632
  180MOL0     H24834   1.961   2.687  10.872 -0.2575 -3.7930 -3.0151
  180MOL0     H24835   1.955   2.864  10.821  2.0599  0.2729 -0.2653
  180MOL0     H24836   2.361   2.770  10.776  0.0269  1.1167  0.6570
  180MOL0     H24837   1.812   2.284  10.743  4.4077 -0.6883 -0.8479
  180MOL0     H24838   1.878   2.062  10.468 -0.4952  1.5565 -0.4402
  180MOL0     H24839   1.979   2.139  10.594  1.0943  0.1024 -0.8496
  180MOL0     H24840   1.836   2.068  10.648  1.0847  0.6612  0.9333
  181MOL0     O24841  11.184   1.293   9.315  0.6612 -0.4621  0.4726
  181MOL0     C24842  11.272   1.344   9.253 -0.2125 -0.4067  0.6826
  181MOL0     O24843  11.342   1.280   9.158  0.3121  0.0348  0.2775
  181MOL0     C24844  11.420   1.352   9.057  0.1616  0.4192 -0.4543
  181MOL0     C24845  11.358   1.436   8.958 -0.6861  0.2300 -0.6768
  181MOL0     C24846  11.436   1.474   8.848  0.4222  0.9792  0.6970
  181MOL0     C24847  11.579   1.444   8.840 -0.1514  0.8404  0.2288
  181MOL0     O24848  11.660   1.491   8.741 -0.7930  0.2466  0.9177
  181MOL0     C24849  11.629   1.622   8.687  0.1296 -0.2894 -0.2041
  181MOL0     C24850  11.768   1.669   8.644 -0.6371 -1.3007  0.3233
  181MOL0     C24851  11.818   1.641   8.500  0.5229  0.0927  0.3512
  181MOL0     C24852  11.905   1.760   8.462 -0.1581 -0.1304 -0.4748
  181MOL0     C24853  12.009   1.712   8.363  0.4564 -0.8813  0.0232
  181MOL0     C24854  12.082   1.830   8.300 -0.5949  0.6984 -0.2125
  181MOL0     C24855  12.204   1.782   8.230 -0.8313 -0.4295  0.8126
  181MOL0     C24856  12.322   1.876   8.204  1.1644  0.0362  0.1278
  181MOL0     N24857  12.281   2.001   8.139  0.7472 -0.7063  0.0455
  181MOL0     C24858  12.266   2.015   8.001  0.6227  0.0230  0.1991
  181MOL0     C24859  12.287   2.147   7.983  0.9464 -0.6024 -0.8639
  181MOL0     C24860  12.290   2.231   7.861 -0.0587  0.7724 -0.0054
  181MOL0     C24861  12.418   2.306   7.838 -0.3061 -0.2747  0.3555
  181MOL0     C24862  12.534   2.209   7.787  1.1921 -0.3897 -0.8210
  181MOL0     C24863  12.658   2.290   7.755 -0.8347  0.4516  0.1402
  181MOL0     O24864  12.720   2.353   7.871 -0.2618 -0.2016 -0.2004
  181MOL0     C24865  12.838   2.416   7.850  0.7375  0.5787  0.5743
  181MOL0     C24866  12.935   2.415   7.949  0.3929 -0.0038 -0.0569
  181MOL0     C24867  13.067   2.470   7.933 -0.1832  0.1103 -0.6675
  181MOL0     C24868  13.161   2.458   8.051 -0.6509 -0.4520 -0.1930
  181MOL0     C24869  13.099   2.514   7.797  0.0518 -0.2290 -1.1170
  181MOL0     C24870  13.241   2.545   7.751 -0.0625 -0.4084 -0.9045
  181MOL0     O24871  13.266   2.596   7.629  0.8446  0.4077  0.0506
  181MOL0     C24872  13.393   2.634   7.591  0.9919 -0.1451  0.1400
  181MOL0     C24873  13.433   2.765   7.609  0.4176 -0.8213 -0.1033
  181MOL0     C24874  13.569   2.802   7.572 -0.2009 -0.2970 -0.2900
  181MOL0     C24875  13.657   2.711   7.519  0.5166  1.5453  0.1629
  181MOL0     O24876  13.767   2.762   7.476 -0.7438  0.1217  0.1944
  181MOL0     C24877  13.867   2.670   7.416 -0.3222 -1.0612  0.8277
  181MOL0     C24878  13.992   2.737   7.356 -0.4898 -0.3800 -0.0185
  181MOL0     C24879  14.080   2.815   7.454 -0.1404  0.0091 -0.1282
  181MOL0     C24880  14.229   2.852   7.402  0.0829  0.0700  0.0728
  181MOL0     C24881  14.299   2.925   7.513 -0.5420 -0.0328 -0.1382
  181MOL0     C24882  14.433   2.974   7.466 -0.4191  0.2546 -0.0336
  181MOL0     C24883  14.496   3.039   7.592  0.6521 -0.6166 -0.3885
  181MOL0     C24884  14.624   3.104   7.564  0.0416  0.0816 -0.1442
  181MOL0    Cl24885  14.759   2.981   7.563 -0.4833 -0.1815  0.1957
  181MOL0     C24886  13.610   2.579   7.497  0.3934  0.2274  0.1664
  181MOL0     C24887  13.476   2.540   7.527 -0.2748 -0.9523 -1.0493
  181MOL0     O24888  13.334   2.522   7.825  0.7561  0.8834  0.0893
  181MOL0     C24889  12.994   2.532   7.700 -0.6015  0.4581 -0.5558
  181MOL0     C24890  12.867   2.489   7.729 -0.5723  0.8412 -0.1868
  181MOL0     N24891  12.303   2.207   8.106  0.0419 -0.6843 -0.5165
  181MOL0     N24892  12.301   2.124   8.196  0.3363  0.2788  0.0316
  181MOL0     C24893  11.636   1.366   8.936 -0.1864 -0.6998  0.0331
  181MOL0     C24894  11.563   1.326   9.051 -0.9196  0.6046  0.6019
  181MOL0     C24895  11.321   1.474   9.291 -0.0302  0.9182  0.2990
  181MOL0     C24896  11.242   1.583   9.270  1.0163 -0.4339  0.2614
  181MOL0     C24897  11.277   1.704   9.325  0.2958 -0.1549  0.0806
  181MOL0     C24898  11.400   1.727   9.390 -0.5371 -0.3129  0.2395
  181MOL0     O24899  11.437   1.852   9.429 -0.4504 -0.0762 -0.5557
  181MOL0     C24900  11.576   1.869   9.481  0.5876 -0.3633 -1.4822
  181MOL0     C24901  11.613   2.015   9.513 -0.1412  0.3604 -0.3169
  181MOL0     C24902  11.623   2.097   9.384 -0.2157  0.0038  0.1502
  181MOL0     C24903  11.505   2.191   9.353  0.6754 -0.5977  0.7069
  181MOL0     C24904  11.506   2.240   9.215 -0.5883  0.3092  0.7740
  181MOL0     C24905  11.489   2.254   9.098 -0.2178  0.0430  0.0972
  181MOL0     C24906  11.476   1.615   9.411 -0.4915 -0.6278 -0.5713
  181MOL0     C24907  11.441   1.489   9.371  0.6449 -0.2177  0.1450
  181MOL0     C24908  11.541   1.384   9.406  0.5807  0.5392 -0.7267
  181MOL0     H24909  11.252   1.462   8.959 -0.1894  2.3813  0.6974
  181MOL0     H24910  11.395   1.518   8.757  0.6855 -3.3048 -1.7787
  181MOL0     H24911  11.590   1.690   8.764 -0.0676  1.1396 -1.5066
  181MOL0     H24912  11.554   1.637   8.608 -0.7257  2.7575  1.0332
  181MOL0     H24913  11.778   1.776   8.660 -1.7109 -0.8172 -1.9242
  181MOL0     H24914  11.840   1.620   8.711  0.1346  0.6977  1.0401
  181MOL0     H24915  11.875   1.548   8.508 -0.8905 -0.6423  4.6137
  181MOL0     H24916  11.737   1.631   8.428  0.6091  1.1299  0.1002
  181MOL0     H24917  11.848   1.838   8.412  1.1428  2.2317  1.5115
  181MOL0     H24918  11.955   1.798   8.551 -1.6111 -2.5253  1.4831
  181MOL0     H24919  11.958   1.660   8.281  0.2111  0.2856 -0.5797
  181MOL0     H24920  12.079   1.652   8.421  0.2981  0.0711  1.2499
  181MOL0     H24921  12.021   1.874   8.222  0.2329 -0.1096 -1.3511
  181MOL0     H24922  12.108   1.897   8.383  2.9186 -2.5388  1.6108
  181MOL0     H24923  12.168   1.749   8.132  0.7042 -0.6403  0.2920
  181MOL0     H24924  12.240   1.693   8.282 -1.9750 -1.6718 -0.4378
  181MOL0     H24925  12.368   1.907   8.298  2.2257  1.8866 -0.9321
  181MOL0     H24926  12.386   1.820   8.135  0.4173  0.1939 -0.7106
  181MOL0     H24927  12.236   1.949   7.920 -1.4093 -0.5163  1.3039
  181MOL0     H24928  12.203   2.295   7.876 -1.3509 -0.7291 -0.7515
  181MOL0     H24929  12.262   2.170   7.774  0.4864 -0.1737  0.4610
  181MOL0     H24930  12.400   2.380   7.759  0.8621 -0.7980 -0.4388
  181MOL0     H24931  12.439   2.353   7.934 -0.8460 -1.3413  1.0050
  181MOL0     H24932  12.559   2.133   7.861  3.2762 -2.4095 -3.3947
  181MOL0     H24933  12.493   2.145   7.708 -1.8824  1.1102 -0.5974
  181MOL0     H24934  12.733   2.218   7.719 -0.9743  1.0561 -1.4623
  181MOL0     H24935  12.636   2.365   7.679 -0.8244 -0.1878 -0.5127
  181MOL0     H24936  12.907   2.363   8.040 -0.8370  1.5013  0.4668
  181MOL0     H24937  13.198   2.556   8.084  0.0509 -1.3581  1.8841
  181MOL0     H24938  13.245   2.398   8.015 -1.7292  0.4198 -4.6642
  181MOL0     H24939  13.117   2.418   8.143 -2.4306  1.5657 -0.0892
  181MOL0     H24940  13.365   2.838   7.653  0.5779  0.0514 -1.2496
  181MOL0     H24941  13.606   2.903   7.588  3.2764 -1.6905  1.8751
  181MOL0     H24942  13.896   2.607   7.501  0.4090  0.4053  1.6949
  181MOL0     H24943  13.820   2.610   7.337 -3.5725  2.5250 -0.2729
  181MOL0     H24944  14.053   2.650   7.328  0.1054 -0.4313  1.3458
  181MOL0     H24945  13.969   2.803   7.272  1.5022 -1.3717 -1.4387
  181MOL0     H24946  14.091   2.756   7.546  0.3684  0.7039  0.2613
  181MOL0     H24947  14.020   2.904   7.476 -2.2444 -1.5663  0.9206
  181MOL0     H24948  14.236   2.911   7.310  1.1152 -0.6800 -0.3455
  181MOL0     H24949  14.269   2.752   7.384 -0.0261  0.2547 -1.2870
  181MOL0     H24950  14.247   3.013   7.552  1.7570  2.1825 -1.7026
  181MOL0     H24951  14.304   2.855   7.597 -2.3413 -0.5980 -0.4724
  181MOL0     H24952  14.416   3.041   7.381 -2.7559 -2.0463 -1.5201
  181MOL0     H24953  14.495   2.892   7.429 -0.5918  0.4713 -0.8290
  181MOL0     H24954  14.509   2.960   7.667 -3.0562  0.0686  1.1831
  181MOL0     H24955  14.439   3.118   7.641  1.7031 -0.9212  1.4380
  181MOL0     H24956  14.642   3.175   7.646 -1.4360 -1.7218  1.8378
  181MOL0     H24957  14.616   3.172   7.478  0.7721  1.3688  0.7718
  181MOL0     H24958  13.677   2.510   7.447 -2.1308 -0.2487 -2.8819
  181MOL0     H24959  13.445   2.438   7.508 -2.2383 -0.2052 -2.1155
  181MOL0     H24960  13.020   2.573   7.602  0.8317 -0.5550 -0.6258
  181MOL0     H24961  12.787   2.505   7.658 -1.7642  0.6263  1.0735
  181MOL0     H24962  11.742   1.351   8.916 -0.6719 -1.0353 -2.7278
  181MOL0     H24963  11.622   1.283   9.131  2.0406  0.7698 -1.3164
  181MOL0     H24964  11.139   1.573   9.239  0.1443  0.0480  2.8107
  181MOL0     H24965  11.208   1.787   9.314 -2.9402 -2.1866  2.7650
  181MOL0     H24966  11.567   1.812   9.574 -1.2048  0.2056 -1.2636
  181MOL0     H24967  11.657   1.824   9.423  0.3367 -1.4373 -1.0315
  181MOL0     H24968  11.710   2.014   9.563  0.6239  0.5828 -1.7360
  181MOL0     H24969  11.552   2.070   9.586  1.4961  3.0781 -0.8291
  181MOL0     H24970  11.709   2.163   9.395  0.5974 -0.5745 -2.1016
  181MOL0     H24971  11.648   2.024   9.306  1.8935 -1.9955  2.5161
  181MOL0     H24972  11.497   2.270   9.428  0.0466  1.1788 -1.1283
  181MOL0     H24973  11.409   2.140   9.340 -0.4495  2.1666 -5.5902
  181MOL0     H24974  11.489   2.240   8.992 -2.3323  0.6112 -0.0207
  181MOL0     H24975  11.569   1.619   9.468  0.0482 -0.3570 -1.4504
  181MOL0     H24976  11.642   1.411   9.374  0.6024  0.8896 -0.3684
  181MOL0     H24977  11.544   1.368   9.514 -1.3632  0.8180 -0.5878
  181MOL0     H24978  11.520   1.297   9.343  2.0426  2.2701 -3.8239
  182MOL0     O24979   3.102  11.290   5.162  0.3443 -0.5648 -0.0786
  182MOL0     C24980   3.006  11.222   5.187 -0.8983  0.1597 -0.9106
  182MOL0     O24981   3.015  11.093   5.246  0.1480 -0.9258 -0.3958
  182MOL0     C24982   3.136  11.044   5.282  0.0674 -0.3046  0.6211
  182MOL0     C24983   3.176  11.027   5.414  0.2367  0.3048  0.5597
  182MOL0     C24984   3.304  10.992   5.456  0.4368  0.8885 -0.5565
  182MOL0     C24985   3.387  10.946   5.365 -0.9036  0.9046 -0.4049
  182MOL0     O24986   3.500  10.889   5.414 -0.1185 -0.2214 -0.0142
  182MOL0     C24987   3.618  10.902   5.334 -1.0472  0.0189  1.0350
  182MOL0     C24988   3.734  10.884   5.423 -0.5934 -0.2194  0.4908
  182MOL0     C24989   3.768  10.746   5.459  0.2433  0.6120 -0.4903
  182MOL0     C24990   3.822  10.656   5.348  0.1360  0.1578 -0.1579
  182MOL0     C24991   3.968  10.688   5.314  0.0135 -0.7726  0.7069
  182MOL0     C24992   4.014  10.602   5.196  0.5845  0.8971  0.0468
  182MOL0     C24993   4.153  10.661   5.158 -0.5953  0.7036 -0.3636
  182MOL0     C24994   4.212  10.577   5.045  0.6223  0.2903 -0.0524
  182MOL0     N24995   4.345  10.624   4.995  0.2402  0.0723 -0.8079
  182MOL0     C24996   4.365  10.712   4.891  0.4267  0.1656  0.2166
  182MOL0     C24997   4.501  10.725   4.879  0.0112  0.6350  0.2529
  182MOL0     C24998   4.592  10.798   4.780  0.2823 -0.1730 -0.7828
  182MOL0     C24999   4.662  10.682   4.701 -0.1878  1.0647  0.4959
  182MOL0     C25000   4.734  10.729   4.574  0.1608 -0.6986  0.0214
  182MOL0     C25001   4.861  10.817   4.598 -0.3764 -1.4831 -1.0266
  182MOL0     O25002   4.961  10.737   4.665  0.4674  0.7017  0.0041
  182MOL0     C25003   5.094  10.747   4.637 -0.1282  0.1402  0.1917
  182MOL0     C25004   5.177  10.647   4.694 -0.2653 -0.3825  0.0045
  182MOL0     C25005   5.318  10.639   4.675 -0.1184 -1.0609  0.4004
  182MOL0     C25006   5.388  10.518   4.744  0.8641 -1.2331 -0.3659
  182MOL0     C25007   5.382  10.734   4.593  1.3347 -0.9869  0.4681
  182MOL0     C25008   5.524  10.738   4.579 -0.2431 -0.0206  0.1474
  182MOL0     O25009   5.579  10.845   4.505  0.7607 -0.0646  0.4293
  182MOL0     C25010   5.709  10.845   4.470  0.0018 -0.5629 -0.1397
  182MOL0     C25011   5.809  10.888   4.558 -0.0457 -0.1063 -0.0405
  182MOL0     C25012   5.942  10.901   4.517  0.6079  0.3257  0.0477
  182MOL0     C25013   5.985  10.839   4.396  1.1699 -0.2527  0.1415
  182MOL0     O25014   6.120  10.843   4.356 -0.2272 -0.4406  0.0289
  182MOL0     C25015   6.169  10.797   4.232  0.0935 -1.3422 -0.1287
  182MOL0     C25016   6.329  10.813   4.214  0.3230 -0.3366  0.0464
  182MOL0     C25017   6.371  10.961   4.227 -0.3159  0.6252 -0.3090
  182MOL0     C25018   6.523  10.967   4.213 -0.4172  0.9391  0.0062
  182MOL0     C25019   6.588  11.114   4.249  0.3423 -0.7156  0.7705
  182MOL0     C25020   6.515  11.240   4.191 -0.2075  0.9344 -0.0756
  182MOL0     C25021   6.582  11.373   4.213  0.1768  0.9370  0.3572
  182MOL0     C25022   6.527  11.481   4.123  0.2431 -0.8897 -0.5320
  182MOL0    Cl25023   6.613  11.487   3.966  0.3357 -0.6668 -0.2102
  182MOL0     C25024   5.884  10.780   4.311 -0.2622 -0.0152  0.2132
  182MOL0     C25025   5.748  10.788   4.347 -0.1512 -0.4856  0.2305
  182MOL0     O25026   5.599  10.646   4.627 -0.4820  0.0399  0.5238
  182MOL0     C25027   5.298  10.835   4.524 -0.3216 -0.2329 -0.6687
  182MOL0     C25028   5.162  10.844   4.561  0.7718  0.5530 -0.3070
  182MOL0     N25029   4.560  10.647   4.980  0.3142  0.4860  0.4897
  182MOL0     N25030   4.463  10.595   5.046  0.3233  0.6652 -0.5496
  182MOL0     C25031   3.359  10.951   5.231  0.7373 -0.2646 -0.4957
  182MOL0     C25032   3.234  11.012   5.182  0.0535  0.0168 -0.2923
  182MOL0     C25033   2.874  11.274   5.150 -0.0863  0.2091 -0.5639
  182MOL0     C25034   2.766  11.195   5.171 -0.3440 -0.6755  0.0037
  182MOL0     C25035   2.644  11.234   5.150  0.3682 -0.8470  0.9355
  182MOL0     C25036   2.616  11.367   5.099  0.1100  0.5941 -0.0929
  182MOL0     O25037   2.490  11.405   5.058  0.7921 -0.6799 -0.1333
  182MOL0     C25038   2.370  11.336   5.095 -0.4276  0.0287 -0.1555
  182MOL0     C25039   2.251  11.422   5.066 -0.7546  1.0167  0.7728
  182MOL0     C25040   2.233  11.531   5.175  0.1393  0.1486  0.4637
  182MOL0     C25041   2.127  11.633   5.129  0.3092  0.1890  0.3960
  182MOL0     C25042   2.091  11.734   5.226  0.0537 -0.4310  0.3216
  182MOL0     C25043   2.069  11.802   5.324 -0.4533  0.3335 -0.6676
  182MOL0     C25044   2.722  11.456   5.073 -0.3060  0.0952  0.0443
  182MOL0     C25045   2.851  11.411   5.100 -0.6838  0.5947  0.5071
  182MOL0     C25046   2.961  11.519   5.093  0.0861  0.2223  0.7209
  182MOL0     H25047   3.097  11.041   5.487 -0.0068 -2.7690  1.0011
  182MOL0     H25048   3.328  10.982   5.561  2.5266 -1.6052 -1.1765
  182MOL0     H25049   3.616  11.004   5.295 -2.1239 -0.5230 -0.4531
  182MOL0     H25050   3.617  10.833   5.249 -2.0063  0.5284  0.6146
  182MOL0     H25051   3.822  10.939   5.388 -2.5330  1.1773 -2.6669
  182MOL0     H25052   3.692  10.936   5.510 -2.3081  0.9026 -0.9323
  182MOL0     H25053   3.842  10.734   5.540  1.7497 -1.4646 -2.0521
  182MOL0     H25054   3.672  10.710   5.497 -0.8693  3.2275 -0.6178
  182MOL0     H25055   3.831  10.549   5.373 -0.0436  0.2156  0.1666
  182MOL0     H25056   3.756  10.654   5.261  2.2570  1.7885 -1.9252
  182MOL0     H25057   4.037  10.666   5.395 -0.2267 -2.7469  0.4202
  182MOL0     H25058   3.971  10.793   5.283 -1.5982 -0.6853  0.7574
  182MOL0     H25059   4.019  10.497   5.225 -2.1401  0.1998 -1.6222
  182MOL0     H25060   3.936  10.614   5.119  2.2286  3.4068 -1.3923
  182MOL0     H25061   4.228  10.661   5.238  1.0857  3.3801 -1.7805
  182MOL0     H25062   4.132  10.764   5.126 -2.3926  0.1346 -1.1563
  182MOL0     H25063   4.228  10.478   5.087  1.1193  0.7237  0.8116
  182MOL0     H25064   4.149  10.575   4.956 -0.2822  2.5721  0.4492
  182MOL0     H25065   4.293  10.758   4.825  1.4106  0.7417 -0.4762
  182MOL0     H25066   4.671  10.838   4.844  0.6872 -1.5745 -0.3571
  182MOL0     H25067   4.531  10.874   4.732 -1.9900 -2.1809 -1.2893
  182MOL0     H25068   4.729  10.627   4.768 -0.5173 -0.9479 -0.7603
  182MOL0     H25069   4.586  10.610   4.669  1.0671  0.9630 -2.6500
  182MOL0     H25070   4.768  10.637   4.526 -1.5378 -1.8748  0.9296
  182MOL0     H25071   4.664  10.784   4.510 -1.2968  0.3511  2.3781
  182MOL0     H25072   4.904  10.847   4.502  2.5187 -3.2028 -0.3916
  182MOL0     H25073   4.842  10.906   4.658  2.5088 -0.9581 -0.7418
  182MOL0     H25074   5.133  10.580   4.767 -0.3085 -0.4758 -0.1072
  182MOL0     H25075   5.319  10.446   4.788 -0.0019  0.0905  0.4940
  182MOL0     H25076   5.460  10.561   4.815  1.4975 -0.8766 -1.2042
  182MOL0     H25077   5.442  10.460   4.668  0.8992 -2.0231  0.2537
  182MOL0     H25078   5.785  10.919   4.659 -2.2877 -2.0158  0.1022
  182MOL0     H25079   6.014  10.944   4.585 -1.9197  0.7788  2.6187
  182MOL0     H25080   6.129  10.696   4.219 -2.8119 -0.6835  2.5257
  182MOL0     H25081   6.118  10.850   4.151 -2.2378 -0.5476  1.7515
  182MOL0     H25082   6.372  10.757   4.297 -2.2476 -1.8202  0.4865
  182MOL0     H25083   6.360  10.770   4.118 -1.2791 -2.6265  0.4645
  182MOL0     H25084   6.333  11.000   4.322  0.9717 -1.0122  0.9372
  182MOL0     H25085   6.324  11.004   4.138 -1.7660  0.8937  0.5470
  182MOL0     H25086   6.546  10.947   4.108  1.0518 -0.9255  0.6034
  182MOL0     H25087   6.572  10.887   4.270  0.9407  1.3645 -0.5161
  182MOL0     H25088   6.589  11.123   4.358 -0.3010 -0.5995  0.7756
  182MOL0     H25089   6.693  11.116   4.220 -0.4970  0.1933 -2.8209
  182MOL0     H25090   6.414  11.245   4.231 -1.4628 -0.7718 -2.7399
  182MOL0     H25091   6.503  11.228   4.083  1.1790  1.3960 -0.3034
  182MOL0     H25092   6.686  11.359   4.182 -0.0872 -1.0050  0.2154
  182MOL0     H25093   6.574  11.396   4.320 -3.0915 -3.7430  1.4379
  182MOL0     H25094   6.537  11.571   4.185 -1.7436 -1.4212  0.6512
  182MOL0     H25095   6.423  11.461   4.097  0.1494  0.3600 -1.2257
  182MOL0     H25096   5.908  10.726   4.219  3.0257 -0.9234  1.4525
  182MOL0     H25097   5.676  10.747   4.278  0.2690  0.1690 -0.6115
  182MOL0     H25098   5.341  10.907   4.455  0.8026  0.7660  1.0249
  182MOL0     H25099   5.102  10.912   4.502  2.0508  0.7029 -1.4675
  182MOL0     H25100   3.420  10.890   5.165 -0.9023 -2.0547 -0.4612
  182MOL0     H25101   3.209  11.033   5.079 -0.8893  1.8914  0.2577
  182MOL0     H25102   2.772  11.087   5.183 -0.6800 -0.6872  0.0774
  182MOL0     H25103   2.567  11.158   5.157 -1.9187  1.3180  0.6924
  182MOL0     H25104   2.360  11.251   5.027 -1.7735 -0.5185  0.6748
  182MOL0     H25105   2.368  11.298   5.198 -0.9320 -1.2074 -0.6048
  182MOL0     H25106   2.166  11.353   5.069 -0.4767  0.5729 -0.5819
  182MOL0     H25107   2.264  11.468   4.967  3.4308 -0.2631  0.5135
  182MOL0     H25108   2.196  11.485   5.267 -1.9466  1.3961  0.3111
  182MOL0     H25109   2.326  11.584   5.198  1.1845  0.2048 -3.2175
  182MOL0     H25110   2.040  11.582   5.087 -1.3022  1.8684  1.5507
  182MOL0     H25111   2.154  11.687   5.037 -1.8887 -2.0413 -1.7199
  182MOL0     H25112   2.040  11.866   5.405 -0.2392 -0.3724 -0.0183
  182MOL0     H25113   2.712  11.556   5.032  1.6949  1.2856  2.2251
  182MOL0     H25114   2.999  11.524   5.195  1.8436 -1.4718  0.1905
  182MOL0     H25115   3.031  11.492   5.014  0.3293  0.5245  0.8313
  182MOL0     H25116   2.921  11.617   5.065  0.8511 -0.1567 -1.8710
  183MOL0     O25117   5.560   6.176  11.099 -0.2403 -0.2145  0.2903
  183MOL0     C25118   5.607   6.138  11.208  0.0899  0.4233 -0.9029
  183MOL0     O25119   5.697   6.210  11.280  0.2315 -0.9739  0.0036
  183MOL0     C25120   5.781   6.296  11.218 -0.2547  0.0036  0.4834
  183MOL0     C25121   5.744   6.431  11.203 -0.3834 -0.0085 -0.2423
  183MOL0     C25122   5.829   6.521  11.143 -0.2716 -0.3359 -1.0356
  183MOL0     C25123   5.960   6.484  11.110  0.4502  0.6945  0.4477
  183MOL0     O25124   6.059   6.567  11.052 -0.5932 -0.1182  0.0094
  183MOL0     C25125   6.029   6.708  11.039 -0.1153 -0.4986 -0.2208
  183MOL0     C25126   5.937   6.750  10.923 -0.3768  0.3734 -0.0112
  183MOL0     C25127   5.877   6.892  10.955  0.6490 -0.1257  0.5255
  183MOL0     C25128   5.954   6.997  10.878  0.4201  0.3283  0.0145
  183MOL0     C25129   5.920   7.133  10.933 -0.2752 -0.1523 -0.5059
  183MOL0     C25130   5.974   7.246  10.840  1.0843 -1.1189 -0.0467
  183MOL0     C25131   5.930   7.379  10.889  0.3678 -0.1277  1.2075
  183MOL0     C25132   6.006   7.437  11.007 -0.3815  0.8318 -1.1190
  183MOL0     N25133   6.127   7.495  10.948  0.0472 -1.5051  0.5072
  183MOL0     C25134   6.254   7.436  10.959  0.5669  0.4009  0.0412
  183MOL0     C25135   6.340   7.531  10.920  0.1288  0.5306 -0.6296
  183MOL0     C25136   6.486   7.513  10.913 -0.4831 -0.7864  0.1820
  183MOL0     C25137   6.530   7.447  10.780 -0.1476 -0.4598 -0.5031
  183MOL0     C25138   6.663   7.372  10.790 -0.3308 -0.1776 -0.6348
  183MOL0     C25139   6.789   7.458  10.763  0.5605  0.1321 -0.7825
  183MOL0     O25140   6.779   7.530  10.640  0.3603  1.1413  0.2709
  183MOL0     C25141   6.859   7.633  10.630  0.2841  0.0145  0.4944
  183MOL0     C25142   6.989   7.613  10.613 -1.1165 -0.5552 -0.1809
  183MOL0     C25143   7.081   7.717  10.611  0.3036 -0.5158  0.8334
  183MOL0     C25144   7.223   7.676  10.592 -0.4057 -0.3374 -0.3871
  183MOL0     C25145   7.030   7.848  10.599 -0.0393 -0.5261 -0.7348
  183MOL0     C25146   7.120   7.964  10.583  0.7114  0.8297 -0.8357
  183MOL0     O25147   7.235   7.967  10.658 -0.3811 -0.3335 -0.5938
  183MOL0     C25148   7.358   8.001  10.612 -0.3763  1.2045  0.6510
  183MOL0     C25149   7.388   7.995  10.474 -0.1963 -0.0748 -0.0398
  183MOL0     C25150   7.516   8.027  10.422 -0.3334  0.2778  0.4317
  183MOL0     C25151   7.625   8.047  10.506 -0.4312 -0.2662 -0.7056
  183MOL0     O25152   7.751   8.076  10.477 -0.6141  0.3678  0.6341
  183MOL0     C25153   7.784   8.214  10.445 -0.0698 -0.8980 -0.4867
  183MOL0     C25154   7.904   8.268  10.528  0.8618  0.8313 -0.6225
  183MOL0     C25155   8.036   8.212  10.488 -0.0286  0.1711  0.0002
  183MOL0     C25156   8.155   8.256  10.567 -1.0111 -0.0512  0.3254
  183MOL0     C25157   8.283   8.192  10.511 -0.1164  0.2155  0.0054
  183MOL0     C25158   8.401   8.251  10.590  0.5365  0.2014  0.3909
  183MOL0     C25159   8.538   8.201  10.563  0.3660 -0.1261  0.2646
  183MOL0     C25160   8.582   8.246  10.427 -1.3153  0.4822 -0.0912
  183MOL0    Cl25161   8.755   8.212  10.416  0.0435 -0.2620  0.1058
  183MOL0     C25162   7.596   8.049  10.647  0.0826 -0.3312  0.3053
  183MOL0     C25163   7.468   8.030  10.693 -0.0989  0.4989 -0.5730
  183MOL0     O25164   7.086   8.049  10.509 -0.0847 -0.5981  0.8945
  183MOL0     C25165   6.894   7.873  10.596  0.3949  0.1545  0.5110
  183MOL0     C25166   6.809   7.761  10.616 -1.0096 -0.1404 -0.8457
  183MOL0     N25167   6.266   7.642  10.884  0.6414  0.0992 -0.8563
  183MOL0     N25168   6.141   7.622  10.902  0.1294 -0.2429  0.0571
  183MOL0     C25169   5.999   6.346  11.125 -0.8547  0.3331 -0.1972
  183MOL0     C25170   5.911   6.249  11.179 -0.5865  0.5312  0.2555
  183MOL0     C25171   5.565   6.002  11.251  0.5626 -0.1190  0.1297
  183MOL0     C25172   5.636   5.951  11.359 -1.3224 -0.1137  0.2932
  183MOL0     C25173   5.601   5.838  11.423 -0.0213  0.5762 -0.0111
  183MOL0     C25174   5.487   5.768  11.384  0.0361 -0.5464 -0.7519
  183MOL0     O25175   5.439   5.654  11.437  0.4295  1.2288  0.0607
  183MOL0     C25176   5.519   5.595  11.543 -0.2498 -0.0364 -0.5070
  183MOL0     C25177   5.456   5.629  11.682 -0.1855 -0.4227  0.3987
  183MOL0     C25178   5.326   5.561  11.708  0.1214 -0.6094  0.0451
  183MOL0     C25179   5.337   5.423  11.785  0.1509 -0.2394 -0.8014
  183MOL0     C25180   5.350   5.312  11.691  0.4040  0.8076 -0.1021
  183MOL0     C25181   5.358   5.211  11.622 -0.1595 -0.0773  1.0176
  183MOL0     C25182   5.419   5.803  11.267 -0.3801  0.0938 -0.2931
  183MOL0     C25183   5.453   5.926  11.207 -0.1535  0.1359  1.2652
  183MOL0     C25184   5.357   5.982  11.107 -0.0860  0.1477  0.1985
  183MOL0     H25185   5.650   6.457  11.251  1.4726 -0.1130  3.8703
  183MOL0     H25186   5.799   6.624  11.129  3.3666  0.7003 -2.5593
  183MOL0     H25187   6.127   6.756  11.028 -0.4091  1.2846  3.2963
  183MOL0     H25188   5.991   6.741  11.137  0.3288 -1.1760  0.1919
  183MOL0     H25189   5.986   6.751  10.826  1.6915 -0.0199  0.9633
  183MOL0     H25190   5.855   6.678  10.925 -0.3356  0.2889  2.5487
  183MOL0     H25191   5.771   6.896  10.926  0.6831 -3.1814 -0.4562
  183MOL0     H25192   5.866   6.918  11.060  0.1172  1.2394  0.1558
  183MOL0     H25193   6.063   6.995  10.884  0.4662 -2.8040 -0.1165
  183MOL0     H25194   5.928   6.998  10.771 -0.3767  3.2065  0.1317
  183MOL0     H25195   5.969   7.142  11.030 -0.1012  1.5053 -0.7191
  183MOL0     H25196   5.811   7.137  10.941 -0.2108  2.6383 -0.2875
  183MOL0     H25197   6.082   7.259  10.826  0.8359  2.2225  0.3263
  183MOL0     H25198   5.929   7.233  10.741  1.2383 -0.5557 -0.1917
  183MOL0     H25199   5.822   7.379  10.906  0.1842 -0.5912  0.1640
  183MOL0     H25200   5.936   7.447  10.803 -2.0468 -2.8070 -1.3427
  183MOL0     H25201   5.946   7.512  11.059 -0.3563  1.6649 -2.2664
  183MOL0     H25202   6.027   7.363  11.085 -1.6249  0.9807 -0.6233
  183MOL0     H25203   6.278   7.334  10.987 -0.4462  0.4661  1.2048
  183MOL0     H25204   6.524   7.452  10.995  0.9562 -0.1748  0.0043
  183MOL0     H25205   6.531   7.613  10.924  0.1580 -0.9108 -1.0748
  183MOL0     H25206   6.458   7.371  10.749  1.5209 -1.9924 -0.7766
  183MOL0     H25207   6.531   7.523  10.701  0.1043  0.7919  0.6693
  183MOL0     H25208   6.677   7.336  10.893  0.7307  4.4762  1.1181
  183MOL0     H25209   6.665   7.282  10.728 -1.6150 -1.9768  1.7632
  183MOL0     H25210   6.786   7.538  10.838  1.3247 -0.2080 -0.3824
  183MOL0     H25211   6.881   7.399  10.769  1.5176  1.4960 -1.4636
  183MOL0     H25212   7.020   7.509  10.619  0.5005 -0.0990 -0.1770
  183MOL0     H25213   7.235   7.568  10.586  0.9688 -0.2542  0.3966
  183MOL0     H25214   7.286   7.718  10.671  1.0451 -3.8408  0.5057
  183MOL0     H25215   7.269   7.702  10.497  1.5233  1.0136  0.8306
  183MOL0     H25216   7.311   7.965  10.402 -1.2597  1.9811  0.1799
  183MOL0     H25217   7.536   8.025  10.315 -0.7138 -2.6694  0.3369
  183MOL0     H25218   7.805   8.223  10.338  2.4089 -0.2863 -0.0208
  183MOL0     H25219   7.701   8.272  10.486  0.1432 -1.4994  0.8448
  183MOL0     H25220   7.911   8.376  10.508  3.3277  1.0142  0.8223
  183MOL0     H25221   7.890   8.250  10.635 -1.0622  0.5657 -0.8851
  183MOL0     H25222   8.051   8.236  10.382 -3.2527 -2.1869 -1.1696
  183MOL0     H25223   8.028   8.103  10.490 -1.8446  0.2122 -1.7794
  183MOL0     H25224   8.143   8.213  10.666 -0.8121  0.3067  0.5055
  183MOL0     H25225   8.150   8.362  10.591 -3.1988 -0.2696  1.0527
  183MOL0     H25226   8.292   8.085  10.528 -0.3984  0.3371  0.9848
  183MOL0     H25227   8.281   8.224  10.406  0.0217 -0.4081 -0.1888
  183MOL0     H25228   8.382   8.239  10.697 -0.8069  1.8826  0.3844
  183MOL0     H25229   8.395   8.358  10.572  4.1612  0.3818 -0.3129
  183MOL0     H25230   8.542   8.092  10.571  0.7156 -0.0714  0.8641
  183MOL0     H25231   8.609   8.247  10.633 -1.1647  1.3998  0.8642
  183MOL0     H25232   8.570   8.354  10.421 -0.5004  0.5857  0.1394
  183MOL0     H25233   8.531   8.192  10.346 -2.6898 -1.3762  1.9003
  183MOL0     H25234   7.684   8.067  10.708  0.7977  0.6109 -0.9622
  183MOL0     H25235   7.448   8.032  10.799  2.0352  1.9722 -0.1431
  183MOL0     H25236   6.850   7.966  10.561 -3.3003 -2.3632 -2.3024
  183MOL0     H25237   6.701   7.764  10.626 -1.2708 -2.7241 -1.9600
  183MOL0     H25238   6.101   6.325  11.096 -0.1337 -2.8903  3.7626
  183MOL0     H25239   5.955   6.153  11.204  0.3780  0.8312 -0.2424
  183MOL0     H25240   5.726   6.004  11.390 -0.8503 -0.5683 -0.2783
  183MOL0     H25241   5.666   5.810  11.505  1.6392  1.5727 -0.9463
  183MOL0     H25242   5.501   5.487  11.536  3.3181 -0.7040 -1.3521
  183MOL0     H25243   5.625   5.618  11.532 -0.1025 -0.5817 -0.2743
  183MOL0     H25244   5.434   5.736  11.687 -3.0767 -0.8828 -0.7399
  183MOL0     H25245   5.528   5.607  11.761 -2.1270  1.7319  2.9490
  183MOL0     H25246   5.272   5.636  11.768  0.0207 -1.0179  0.4670
  183MOL0     H25247   5.275   5.562  11.611  0.5894  2.7213 -0.2971
  183MOL0     H25248   5.251   5.413  11.852 -0.5171 -0.3319 -1.6392
  183MOL0     H25249   5.419   5.425  11.856 -2.1881 -2.0858  2.1955
  183MOL0     H25250   5.366   5.125  11.560  2.8449  0.8490 -0.0738
  183MOL0     H25251   5.340   5.734  11.238  0.4039 -1.1417  0.4231
  183MOL0     H25252   5.324   6.084  11.127 -0.5138 -0.3001  1.9279
  183MOL0     H25253   5.392   5.976  11.003  2.3625 -2.4713  1.0497
  183MOL0     H25254   5.268   5.919  11.115 -0.6436  0.6077 -1.8030
  184MOL0     O25255  10.724   2.791   8.268  0.5752  0.5037  0.5831
  184MOL0     C25256  10.763   2.869   8.352  0.1747  0.0024  0.0172
  184MOL0     O25257  10.682   2.934   8.443 -0.1196 -0.5590  0.5698
  184MOL0     C25258  10.549   2.904   8.453 -0.1220  0.2648 -0.5942
  184MOL0     C25259  10.493   2.782   8.428  0.1645 -0.7461 -0.4052
  184MOL0     C25260  10.355   2.765   8.451 -0.0599 -0.0800  0.9293
  184MOL0     C25261  10.267   2.869   8.478  0.6101  0.2711  1.1233
  184MOL0     O25262  10.131   2.859   8.497  0.0195  0.2890  0.0172
  184MOL0     C25263  10.069   2.742   8.443  1.2282 -0.4995 -0.4016
  184MOL0     C25264   9.922   2.743   8.466  0.8327  0.5269  0.4566
  184MOL0     C25265   9.895   2.733   8.617 -0.0726  0.4004  0.1580
  184MOL0     C25266   9.749   2.694   8.636 -0.1351 -0.4814  0.3869
  184MOL0     C25267   9.719   2.688   8.788 -0.3036  0.1189 -0.3467
  184MOL0     C25268   9.594   2.611   8.810 -0.4366  1.1855 -0.6477
  184MOL0     C25269   9.457   2.668   8.776 -0.0013  0.0818  0.0518
  184MOL0     C25270   9.332   2.589   8.809  0.4786 -0.9519  0.3750
  184MOL0     N25271   9.223   2.610   8.719  1.4153 -0.8771 -0.1069
  184MOL0     C25272   9.120   2.701   8.737  0.6786  0.0493  0.0023
  184MOL0     C25273   9.044   2.683   8.619 -0.3982 -0.3050 -0.5068
  184MOL0     C25274   8.916   2.747   8.585  0.4079  0.7768  0.5482
  184MOL0     C25275   8.904   2.793   8.440 -0.4746 -0.3903  0.3112
  184MOL0     C25276   8.986   2.920   8.400  0.3309 -0.1657  0.1974
  184MOL0     C25277   8.997   2.923   8.249  1.2307  0.3986  0.1448
  184MOL0     O25278   9.102   3.015   8.194  0.3329  0.0108  0.3579
  184MOL0     C25279   9.226   2.967   8.173 -0.4195 -0.2840 -0.2070
  184MOL0     C25280   9.293   2.860   8.247  0.9563 -0.5713 -0.1654
  184MOL0     C25281   9.424   2.835   8.239 -0.9403  1.1783  0.1786
  184MOL0     C25282   9.468   2.719   8.330 -0.0725  1.0024 -0.1250
  184MOL0     C25283   9.508   2.907   8.155 -0.2739 -0.4968  0.1567
  184MOL0     C25284   9.650   2.880   8.138 -0.7299 -0.0704 -0.9278
  184MOL0     O25285   9.729   2.990   8.132 -0.1142 -0.2785 -0.0350
  184MOL0     C25286   9.860   2.972   8.113 -0.8397  0.1040 -0.8143
  184MOL0     C25287   9.944   3.026   8.208 -0.7391  0.4501 -1.2557
  184MOL0     C25288  10.085   3.025   8.197  0.3429  0.8560  0.4125
  184MOL0     C25289  10.144   2.965   8.086  0.6230 -0.2422 -0.8459
  184MOL0     O25290  10.283   2.958   8.083  0.3454  0.4952 -0.4465
  184MOL0     C25291  10.345   2.873   7.982 -0.6864 -0.0780 -0.1475
  184MOL0     C25292  10.357   2.729   8.027  1.2127  0.5000  1.2263
  184MOL0     C25293  10.451   2.643   7.943  0.0036  0.2364  0.4789
  184MOL0     C25294  10.441   2.667   7.793 -0.2387  0.4534  0.2257
  184MOL0     C25295  10.495   2.548   7.708  0.1548 -0.2579 -0.4023
  184MOL0     C25296  10.487   2.589   7.558  0.1798 -0.6158  0.2730
  184MOL0     C25297  10.570   2.487   7.480 -0.0601 -0.3242 -0.2750
  184MOL0     C25298  10.631   2.527   7.346 -0.1906 -0.6923  0.5310
  184MOL0    Cl25299  10.688   2.376   7.270  0.6939 -0.3410  0.0404
  184MOL0     C25300  10.055   2.926   7.982 -0.6649  0.1482  0.6201
  184MOL0     C25301   9.918   2.925   7.996  0.1933  0.7900 -0.0593
  184MOL0     O25302   9.690   2.761   8.133  0.0576 -0.9324  0.0201
  184MOL0     C25303   9.448   3.021   8.090 -0.4642 -0.2164 -0.3780
  184MOL0     C25304   9.312   3.052   8.097 -0.0513  0.1932 -0.2157
  184MOL0     N25305   9.098   2.577   8.547  0.2981  0.9217 -0.2626
  184MOL0     N25306   9.208   2.546   8.603 -0.0541 -0.4340  0.3888
  184MOL0     C25307  10.327   2.993   8.484  0.6962  0.5216 -0.6600
  184MOL0     C25308  10.461   3.008   8.496  0.3002  0.3488 -0.2948
  184MOL0     C25309  10.902   2.907   8.357 -0.0935 -0.0671 -0.0264
  184MOL0     C25310  10.936   3.035   8.408 -0.2329 -0.1578  0.0719
  184MOL0     C25311  11.072   3.077   8.418  0.6637  0.4400 -0.1690
  184MOL0     C25312  11.178   2.997   8.390 -0.2533 -1.0379 -0.3211
  184MOL0     O25313  11.311   3.034   8.428 -0.3470  0.1029  0.8817
  184MOL0     C25314  11.310   3.123   8.542 -0.4199  0.0175  0.2383
  184MOL0     C25315  11.442   3.103   8.614  0.2877  0.5108 -0.7082
  184MOL0     C25316  11.467   3.210   8.721 -0.2916 -0.3664 -0.0663
  184MOL0     C25317  11.601   3.200   8.782 -0.8249  0.2809 -0.3950
  184MOL0     C25318  11.629   3.078   8.855 -1.0306 -0.2619 -0.5572
  184MOL0     C25319  11.651   2.981   8.935  0.2791  0.2176  1.0447
  184MOL0     C25320  11.148   2.880   8.330 -0.0042 -0.3238  0.4569
  184MOL0     C25321  11.012   2.830   8.310  0.3164  0.5337  0.2703
  184MOL0     C25322  11.001   2.692   8.243  0.2494  0.8176 -0.2825
  184MOL0     H25323  10.558   2.700   8.400  2.1974  0.6350  0.0703
  184MOL0     H25324  10.322   2.664   8.426 -0.1911  0.2290 -0.2217
  184MOL0     H25325  10.100   2.650   8.494  0.2699 -0.2537  0.6766
  184MOL0     H25326  10.090   2.740   8.336  1.3046  0.0448 -0.3976
  184MOL0     H25327   9.876   2.831   8.420 -1.5340 -1.5351 -1.4454
  184MOL0     H25328   9.881   2.658   8.410  2.1029 -1.3624  2.2201
  184MOL0     H25329   9.950   2.649   8.659 -1.8392 -0.5510  0.7008
  184MOL0     H25330   9.918   2.826   8.669  2.5874 -0.4925  0.7317
  184MOL0     H25331   9.675   2.757   8.586 -0.7501 -1.2985  0.2394
  184MOL0     H25332   9.740   2.600   8.581  1.2902  1.3612 -3.3634
  184MOL0     H25333   9.728   2.790   8.828  3.1036  1.1973 -3.2237
  184MOL0     H25334   9.795   2.632   8.842 -1.0801 -0.5619  0.0453
  184MOL0     H25335   9.602   2.515   8.757 -2.3592 -0.3564  1.6387
  184MOL0     H25336   9.604   2.570   8.911  0.9489 -0.9425 -1.5700
  184MOL0     H25337   9.457   2.673   8.667 -1.0928  1.9490  0.1008
  184MOL0     H25338   9.453   2.769   8.818 -0.8951  0.8036 -1.6738
  184MOL0     H25339   9.369   2.486   8.797  1.9378 -0.2952 -1.0509
  184MOL0     H25340   9.299   2.606   8.912 -1.6212 -0.8053 -0.2899
  184MOL0     H25341   9.105   2.763   8.824  3.2091 -1.5013  1.6638
  184MOL0     H25342   8.898   2.831   8.653 -5.7255  1.2611 -1.0233
  184MOL0     H25343   8.827   2.687   8.608  1.2873 -1.2307 -1.0586
  184MOL0     H25344   8.931   2.705   8.380 -2.6791 -0.5165 -0.5633
  184MOL0     H25345   8.801   2.813   8.412  0.0226  2.8866  0.4263
  184MOL0     H25346   8.953   3.019   8.433  0.4193 -1.0638  3.1884
  184MOL0     H25347   9.085   2.918   8.447 -0.4651  1.5474  2.0939
  184MOL0     H25348   9.015   2.821   8.215 -0.3912  0.4690 -1.0793
  184MOL0     H25349   8.893   2.942   8.218 -0.2808 -4.6680  1.0922
  184MOL0     H25350   9.224   2.798   8.304 -0.3780  2.0389  1.2872
  184MOL0     H25351   9.447   2.626   8.276  0.3983  1.4026 -1.0160
  184MOL0     H25352   9.416   2.705   8.425  0.3689 -2.6747 -0.2861
  184MOL0     H25353   9.575   2.726   8.350  0.1189 -1.0405 -0.2087
  184MOL0     H25354   9.901   3.072   8.296  1.2005  1.8450 -0.9851
  184MOL0     H25355  10.145   3.055   8.282  1.9254  0.5730 -0.5681
  184MOL0     H25356  10.288   2.881   7.889 -2.0696 -0.1927  0.6646
  184MOL0     H25357  10.445   2.914   7.967  0.6678 -2.0034  2.6960
  184MOL0     H25358  10.386   2.723   8.133  0.4900 -4.8001  1.4044
  184MOL0     H25359  10.260   2.678   8.021  2.6043 -2.4721  1.7697
  184MOL0     H25360  10.437   2.536   7.964 -0.0035  0.0692 -0.3215
  184MOL0     H25361  10.555   2.659   7.969 -0.4337  0.2593  2.3192
  184MOL0     H25362  10.499   2.758   7.775  2.1016 -1.2565 -1.4715
  184MOL0     H25363  10.338   2.691   7.764 -1.3681 -2.1189  1.7768
  184MOL0     H25364  10.599   2.538   7.740 -0.7804  1.1186  3.7748
  184MOL0     H25365  10.438   2.455   7.716 -1.3443  0.6562 -0.0772
  184MOL0     H25366  10.527   2.690   7.543  2.0373 -1.4375 -0.6625
  184MOL0     H25367  10.383   2.584   7.527 -0.7423  0.9682  2.7556
  184MOL0     H25368  10.504   2.402   7.462  0.9442 -1.2089  0.0295
  184MOL0     H25369  10.653   2.446   7.539  1.7700  3.1401 -0.1722
  184MOL0     H25370  10.713   2.599   7.357 -0.1519 -0.9486  2.1626
  184MOL0     H25371  10.554   2.568   7.280  2.0453 -0.3130 -1.9646
  184MOL0     H25372  10.096   2.894   7.887  1.5168  1.0272  1.1945
  184MOL0     H25373   9.852   2.877   7.925 -0.6503  0.8735  0.6431
  184MOL0     H25374   9.514   3.077   8.025 -0.0376  0.2760  0.4669
  184MOL0     H25375   9.276   3.127   8.027 -0.6079 -1.0457 -1.2930
  184MOL0     H25376  10.255   3.073   8.502 -0.4572 -0.7084  0.3610
  184MOL0     H25377  10.500   3.108   8.513 -0.4181  0.6799 -0.5873
  184MOL0     H25378  10.855   3.102   8.437 -1.3069 -2.0212  1.6241
  184MOL0     H25379  11.077   3.178   8.457  1.0322  0.2267  0.3623
  184MOL0     H25380  11.307   3.228   8.513 -0.9680 -0.0458  0.0455
  184MOL0     H25381  11.228   3.093   8.609 -0.0268 -0.9448  0.3113
  184MOL0     H25382  11.526   3.099   8.544  2.1960 -0.2312  1.4641
  184MOL0     H25383  11.437   3.009   8.670 -1.3537  0.1573 -1.3777
  184MOL0     H25384  11.469   3.308   8.671  2.9518  1.5636  3.3346
  184MOL0     H25385  11.393   3.196   8.800 -1.0922 -1.8441 -1.0384
  184MOL0     H25386  11.614   3.282   8.853 -2.6189  1.1498 -0.9928
  184MOL0     H25387  11.683   3.213   8.711  0.2140 -1.7242  0.3564
  184MOL0     H25388  11.667   2.887   8.984 -0.2202 -1.4470 -1.8238
  184MOL0     H25389  11.236   2.827   8.296  0.3018  0.6775 -0.3760
  184MOL0     H25390  11.018   2.700   8.136 -0.7294 -0.1157 -0.5239
  184MOL0     H25391  11.086   2.634   8.281  0.5504  0.4943 -1.4111
  184MOL0     H25392  10.907   2.639   8.262 -0.2064  0.9586 -2.0117
  185MOL0     O25393   8.495   8.893   9.376 -0.2714  0.4539 -0.4996
  185MOL0     C25394   8.388   8.935   9.433 -0.2313  1.0979  0.4878
  185MOL0     O25395   8.369   9.062   9.465  0.3889  0.8331 -0.6540
  185MOL0     C25396   8.482   9.136   9.480  0.5841  0.0285  0.2791
  185MOL0     C25397   8.575   9.189   9.381  0.7357 -0.9162  0.1988
  185MOL0     C25398   8.672   9.278   9.425 -1.2766  0.1218  0.7763
  185MOL0     C25399   8.692   9.306   9.554  0.1258  0.1225  0.1038
  185MOL0     O25400   8.798   9.377   9.587 -0.3726  0.2342 -0.0961
  185MOL0     C25401   8.789   9.455   9.711 -0.3109  0.1678  0.1869
  185MOL0     C25402   8.907   9.554   9.710 -0.5035 -0.1218 -0.2975
  185MOL0     C25403   9.046   9.487   9.716 -0.6788  0.0033  0.2767
  185MOL0     C25404   9.154   9.591   9.746 -0.0919  0.2337  0.0507
  185MOL0     C25405   9.283   9.518   9.773  0.5767  0.2810  0.6750
  185MOL0     C25406   9.387   9.627   9.780 -0.4621 -0.3617  0.4249
  185MOL0     C25407   9.409   9.686   9.920  0.9194  0.6888 -1.1242
  185MOL0     C25408   9.531   9.776   9.929 -0.4664  0.5338 -0.2012
  185MOL0     N25409   9.660   9.700   9.902  0.5230  0.1008  0.4567
  185MOL0     C25410   9.704   9.591   9.980  0.5961 -0.3348 -0.4474
  185MOL0     C25411   9.823   9.570   9.923  0.4767  0.0075  0.2956
  185MOL0     C25412   9.913   9.450   9.959  0.6466  0.1505  0.0833
  185MOL0     C25413  10.011   9.460  10.077  0.0025 -0.8855  0.2899
  185MOL0     C25414  10.097   9.331  10.097  0.2963  0.2932 -0.1116
  185MOL0     C25415  10.203   9.317   9.990  0.1515 -0.6718 -0.3450
  185MOL0     O25416  10.319   9.238  10.043 -0.7408 -0.0036 -0.5689
  185MOL0     C25417  10.435   9.248   9.980 -0.9755 -0.2222 -0.1339
  185MOL0     C25418  10.450   9.287   9.848 -0.7692 -0.0400 -0.4928
  185MOL0     C25419  10.575   9.292   9.788 -1.1856 -1.0390 -0.0827
  185MOL0     C25420  10.576   9.346   9.648  0.4334  0.0927  0.1595
  185MOL0     C25421  10.691   9.245   9.858 -0.6943 -0.0183 -0.4528
  185MOL0     C25422  10.824   9.239   9.794  0.2247 -0.5406 -0.2130
  185MOL0     O25423  10.861   9.303   9.675  0.0991  0.4063 -0.6446
  185MOL0     C25424  10.985   9.294   9.627 -0.0121  0.1403 -0.4430
  185MOL0     C25425  11.059   9.415   9.646  0.0187 -0.4891  0.1366
  185MOL0     C25426  11.187   9.413   9.594 -0.1478  0.1062 -0.8989
  185MOL0     C25427  11.246   9.300   9.532 -0.0160 -0.1475 -0.6367
  185MOL0     O25428  11.378   9.304   9.485 -0.3686 -0.0788  0.4237
  185MOL0     C25429  11.484   9.384   9.548  0.7744  0.3996 -0.1916
  185MOL0     C25430  11.606   9.319   9.521 -0.3472 -0.3261 -1.1875
  185MOL0     C25431  11.725   9.392   9.601  1.3601  0.3755  0.0417
  185MOL0     C25432  11.857   9.370   9.540 -0.9876  0.3640 -0.5401
  185MOL0     C25433  11.885   9.448   9.408 -0.4488 -0.0512  0.1752
  185MOL0     C25434  12.021   9.396   9.351  0.7631 -0.1463 -0.7373
  185MOL0     C25435  12.140   9.394   9.448  0.3234  0.7309 -0.6919
  185MOL0     C25436  12.200   9.538   9.465 -0.9165 -0.2865 -0.4245
  185MOL0    Cl25437  12.325   9.555   9.341  0.3346  0.0541 -0.2603
  185MOL0     C25438  11.175   9.185   9.530  0.9900 -0.2860 -0.1505
  185MOL0     C25439  11.046   9.181   9.583 -1.3115  0.0903 -0.5423
  185MOL0     O25440  10.898   9.158   9.847  0.1088  0.5405  0.5153
  185MOL0     C25441  10.676   9.211   9.996 -0.2525  0.1733 -0.7088
  185MOL0     C25442  10.548   9.218  10.053 -0.1428  0.5041 -0.1702
  185MOL0     N25443   9.843   9.649   9.815  0.4953  0.0383 -0.3842
  185MOL0     N25444   9.742   9.725   9.799 -0.3096  0.0847  0.4297
  185MOL0     C25445   8.605   9.249   9.653 -0.5857  0.3074  0.4560
  185MOL0     C25446   8.505   9.162   9.612 -0.1242 -0.3027 -0.3998
  185MOL0     C25447   8.284   8.825   9.481 -0.1931 -0.1089 -0.0323
  185MOL0     C25448   8.172   8.872   9.550 -0.6818 -0.2456  1.3041
  185MOL0     C25449   8.071   8.792   9.587  0.2801  0.8546 -0.3253
  185MOL0     C25450   8.078   8.660   9.552 -0.6418  0.6676  0.8043
  185MOL0     O25451   7.999   8.554   9.592  0.0857  0.0978  0.5653
  185MOL0     C25452   7.879   8.575   9.660  0.0861 -0.5461 -0.1089
  185MOL0     C25453   7.818   8.437   9.691  0.2888  0.5575  0.0056
  185MOL0     C25454   7.758   8.380   9.575  0.7900  0.2407  0.0669
  185MOL0     C25455   7.637   8.473   9.520 -0.0800 -0.7635 -0.6939
  185MOL0     C25456   7.563   8.404   9.420 -0.3216  0.5548  0.5580
  185MOL0     C25457   7.510   8.353   9.324  0.6702 -0.1347 -0.8873
  185MOL0     C25458   8.192   8.608   9.482  0.7206  0.5566  0.1331
  185MOL0     C25459   8.302   8.690   9.453 -0.0469 -0.0519  0.1589
  185MOL0     C25460   8.413   8.630   9.380 -0.4460 -0.2596  0.4249
  185MOL0     H25461   8.569   9.162   9.276 -0.0162 -0.8698  0.2301
  185MOL0     H25462   8.744   9.323   9.358 -1.5530 -0.8707 -0.2046
  185MOL0     H25463   8.808   9.384   9.793  0.2053 -1.0442 -0.9520
  185MOL0     H25464   8.690   9.499   9.724 -0.3594 -0.5709  3.1437
  185MOL0     H25465   8.901   9.621   9.623  1.0777 -0.1645 -0.4563
  185MOL0     H25466   8.890   9.618   9.797 -0.7174 -1.1823  0.4599
  185MOL0     H25467   9.047   9.401   9.784 -1.0669 -0.9407 -0.8682
  185MOL0     H25468   9.068   9.434   9.623 -0.6841  1.1981 -0.4196
  185MOL0     H25469   9.158   9.672   9.673  0.8632 -0.4131 -0.6522
  185MOL0     H25470   9.124   9.636   9.841 -1.6235  0.5402 -0.5395
  185MOL0     H25471   9.309   9.457   9.686  0.0489  2.6855 -1.2931
  185MOL0     H25472   9.281   9.458   9.864 -1.5766  0.5111  0.8475
  185MOL0     H25473   9.478   9.578   9.744  0.3464 -0.1314  2.0884
  185MOL0     H25474   9.364   9.708   9.710 -0.1505 -1.0132 -0.4550
  185MOL0     H25475   9.413   9.616  10.004 -1.3462  2.4054  0.5399
  185MOL0     H25476   9.318   9.741   9.946 -1.1944 -2.7431 -0.5333
  185MOL0     H25477   9.522   9.849   9.847 -1.5433  0.7228  0.0687
  185MOL0     H25478   9.534   9.823  10.027  1.2956  0.4359 -0.1880
  185MOL0     H25479   9.657   9.547  10.067 -0.8872  1.4490 -0.2908
  185MOL0     H25480   9.982   9.434   9.875  0.2427 -1.9181  0.0945
  185MOL0     H25481   9.859   9.355   9.966 -0.5088  0.3209 -3.8579
  185MOL0     H25482  10.084   9.541  10.063 -0.0807 -0.5754  1.4806
  185MOL0     H25483   9.955   9.479  10.169  0.6890  0.1036  0.5217
  185MOL0     H25484  10.147   9.328  10.194 -0.2839  0.4786  0.2014
  185MOL0     H25485  10.041   9.237  10.093  0.0985  0.3771  0.5954
  185MOL0     H25486  10.151   9.269   9.907 -0.9772  1.2420 -0.8007
  185MOL0     H25487  10.227   9.418   9.957  0.1393 -0.4626  0.2737
  185MOL0     H25488  10.365   9.313   9.786  0.1170  2.0570 -0.9277
  185MOL0     H25489  10.631   9.276   9.584  2.7403  2.5382 -0.6966
  185MOL0     H25490  10.619   9.446   9.646 -2.4618  1.4482  0.3467
  185MOL0     H25491  10.476   9.362   9.605 -0.2921 -1.9106  0.9634
  185MOL0     H25492  11.000   9.498   9.683 -0.6692 -0.3072 -1.2996
  185MOL0     H25493  11.239   9.505   9.619 -0.0044 -0.4880  1.1825
  185MOL0     H25494  11.479   9.486   9.508  0.6208  0.6774  0.5268
  185MOL0     H25495  11.464   9.388   9.656 -0.1023 -1.6726 -0.2247
  185MOL0     H25496  11.603   9.211   9.541 -3.1924 -0.2843 -0.8816
  185MOL0     H25497  11.619   9.335   9.414 -0.1041 -0.7169 -1.2153
  185MOL0     H25498  11.721   9.358   9.706  2.3017  1.5210  0.4639
  185MOL0     H25499  11.708   9.500   9.599 -0.0073  0.1897  0.2093
  185MOL0     H25500  11.862   9.261   9.530 -1.1206 -0.2757  4.0376
  185MOL0     H25501  11.933   9.405   9.610 -0.3167  0.4621 -1.3063
  185MOL0     H25502  11.809   9.437   9.330  0.8374  0.1762 -1.1461
  185MOL0     H25503  11.888   9.554   9.433  0.9081 -0.4916  2.0772
  185MOL0     H25504  12.041   9.451   9.258 -1.4131  2.8952  0.4445
  185MOL0     H25505  12.015   9.295   9.309  0.8665  0.4838 -2.3445
  185MOL0     H25506  12.214   9.334   9.394  1.4399  0.6804  0.8048
  185MOL0     H25507  12.127   9.337   9.541  0.8299 -1.0451 -1.6516
  185MOL0     H25508  12.236   9.547   9.568  1.9895 -0.2663 -1.3770
  185MOL0     H25509  12.127   9.618   9.447  1.9723  2.5986 -0.2668
  185MOL0     H25510  11.228   9.100   9.488  3.3376  0.8547  0.3027
  185MOL0     H25511  10.994   9.085   9.584  0.4122 -0.8778  0.1902
  185MOL0     H25512  10.753   9.171  10.061  0.6002  1.1242 -1.1064
  185MOL0     H25513  10.543   9.189  10.157 -2.6950 -3.3080 -1.1587
  185MOL0     H25514   8.611   9.293   9.752  0.8561 -0.5083  0.7685
  185MOL0     H25515   8.431   9.119   9.679 -1.8606  2.0186 -0.7055
  185MOL0     H25516   8.158   8.979   9.561  1.1561  0.2979 -0.7815
  185MOL0     H25517   7.983   8.822   9.642  1.7852  1.9364  1.6299
  185MOL0     H25518   7.893   8.624   9.757 -1.1223  0.9696 -0.6747
  185MOL0     H25519   7.815   8.636   9.597 -1.0172 -1.3852  0.1714
  185MOL0     H25520   7.741   8.447   9.768  0.1049  0.5221 -0.1700
  185MOL0     H25521   7.901   8.376   9.728  1.5417  0.1335 -3.1926
  185MOL0     H25522   7.821   8.370   9.487 -1.4704  0.4763 -1.6687
  185MOL0     H25523   7.719   8.283   9.606  0.4732  0.5718  0.7373
  185MOL0     H25524   7.675   8.568   9.480  3.1832 -1.5133  0.3791
  185MOL0     H25525   7.572   8.497   9.605 -0.5585  3.0769 -1.9249
  185MOL0     H25526   7.452   8.307   9.246 -0.3350 -1.1181  0.4013
  185MOL0     H25527   8.201   8.502   9.461 -4.3681  0.0046 -0.3633
  185MOL0     H25528   8.412   8.666   9.277 -1.6658 -0.2468  0.4189
  185MOL0     H25529   8.501   8.666   9.434 -3.1589  3.5051  2.8319
  185MOL0     H25530   8.409   8.522   9.366  2.2227 -0.5730  1.4944
  186MOL0     O25531   0.510   6.191   8.846 -0.2620 -0.0976  1.1170
  186MOL0     C25532   0.463   6.225   8.736  0.4810 -0.2430  0.2376
  186MOL0     O25533   0.525   6.209   8.616 -0.5835 -0.3687  0.2700
  186MOL0     C25534   0.659   6.158   8.604  0.2381 -0.5617 -0.1235
  186MOL0     C25535   0.745   6.210   8.502  0.2107 -0.4561  0.2729
  186MOL0     C25536   0.880   6.167   8.491  0.4462 -0.1764 -0.0944
  186MOL0     C25537   0.935   6.079   8.586 -0.3015  0.1135  0.1276
  186MOL0     O25538   1.068   6.034   8.590 -0.0419  0.1780 -0.4519
  186MOL0     C25539   1.154   6.101   8.494  0.7979 -0.5437  0.5784
  186MOL0     C25540   1.303   6.053   8.514  0.6501  0.0572 -0.1758
  186MOL0     C25541   1.404   6.119   8.419  0.0957 -0.8561  0.6264
  186MOL0     C25542   1.539   6.089   8.477  0.3510  0.7373 -0.1755
  186MOL0     C25543   1.656   6.143   8.388  1.1045 -0.0523  0.0737
  186MOL0     C25544   1.788   6.080   8.453 -0.2743  0.0357 -0.0456
  186MOL0     C25545   1.913   6.133   8.374  0.3840  0.2637  1.0560
  186MOL0     C25546   1.961   6.270   8.418  0.5258  0.2128  0.6920
  186MOL0     N25547   2.062   6.326   8.321  0.7623  0.5567 -0.2728
  186MOL0     C25548   2.193   6.284   8.315 -0.8048  0.1717 -0.0078
  186MOL0     C25549   2.248   6.366   8.218 -0.8273  1.1615 -0.5340
  186MOL0     C25550   2.393   6.389   8.198 -0.2331 -0.1147 -0.4886
  186MOL0     C25551   2.450   6.507   8.293  1.3562 -0.5052 -0.3620
  186MOL0     C25552   2.595   6.548   8.262  0.3020  0.3055  0.0193
  186MOL0     C25553   2.618   6.637   8.135 -0.7115  0.1135  0.1211
  186MOL0     O25554   2.740   6.705   8.166  0.1001  0.2997  0.3065
  186MOL0     C25555   2.802   6.775   8.067  0.4284  0.0533  1.0800
  186MOL0     C25556   2.923   6.830   8.105 -0.0069  0.7838 -0.8712
  186MOL0     C25557   2.999   6.916   8.023  0.4054 -0.3378  0.9736
  186MOL0     C25558   3.117   6.978   8.085 -0.9770 -0.2226  0.4410
  186MOL0     C25559   2.958   6.938   7.886 -1.0258 -0.0516 -0.3613
  186MOL0     C25560   3.039   7.002   7.792 -0.5795 -1.1286  0.4572
  186MOL0     O25561   3.178   6.976   7.791 -0.7918 -0.0987 -0.0255
  186MOL0     C25562   3.264   7.022   7.690 -1.0964 -0.6480  0.1533
  186MOL0     C25563   3.377   6.945   7.676 -0.1779  0.2167  0.2786
  186MOL0     C25564   3.464   6.978   7.577 -0.0025  0.4834  0.2397
  186MOL0     C25565   3.449   7.082   7.480  0.2583  0.7110 -0.0914
  186MOL0     O25566   3.539   7.108   7.387 -0.3426  0.4346  0.3885
  186MOL0     C25567   3.613   7.008   7.331 -0.2799 -0.2964  0.0374
  186MOL0     C25568   3.645   7.061   7.195 -0.2241 -0.3144 -0.5288
  186MOL0     C25569   3.750   6.975   7.123 -0.1182  0.6859  0.6917
  186MOL0     C25570   3.707   6.826   7.102 -0.1049  0.4922  0.2338
  186MOL0     C25571   3.827   6.748   7.039  0.0436 -0.1820  0.2750
  186MOL0     C25572   3.792   6.598   7.026  0.1270  1.2213 -0.1521
  186MOL0     C25573   3.911   6.517   6.972  0.2694  0.1794  0.4853
  186MOL0     C25574   3.869   6.369   6.975  0.2982  0.2874 -0.0168
  186MOL0    Cl25575   3.734   6.349   6.854 -0.2850 -0.2980  0.2282
  186MOL0     C25576   3.334   7.161   7.498 -0.2828  0.1610  0.2978
  186MOL0     C25577   3.241   7.130   7.599  0.7458  0.3500  0.0975
  186MOL0     O25578   2.977   7.067   7.703  0.1362  0.2882 -0.4260
  186MOL0     C25579   2.837   6.878   7.851  0.1095 -0.3378  0.1562
  186MOL0     C25580   2.759   6.800   7.934  0.6232  0.1054 -0.0162
  186MOL0     N25581   2.150   6.443   8.167  0.2816  0.3714 -0.3804
  186MOL0     N25582   2.036   6.406   8.220 -0.1228 -0.5400  0.7533
  186MOL0     C25583   0.853   6.022   8.686 -1.1581 -0.1238 -0.4800
  186MOL0     C25584   0.720   6.064   8.695 -0.4522  0.8533  0.5776
  186MOL0     C25585   0.332   6.293   8.741 -0.1450 -0.1682  0.2412
  186MOL0     C25586   0.252   6.270   8.855 -0.2799  0.4962  0.0620
  186MOL0     C25587   0.130   6.327   8.872 -0.5852  0.4984 -0.3171
  186MOL0     C25588   0.074   6.411   8.774  0.8048 -0.1727  0.0264
  186MOL0     O25589  -0.036   6.483   8.787 -0.3710 -0.4272  0.0378
  186MOL0     C25590  -0.104   6.498   8.913  0.0384 -0.5346 -0.1758
  186MOL0     C25591  -0.201   6.381   8.938 -1.3598 -0.7255  0.1660
  186MOL0     C25592  -0.322   6.376   8.837 -0.0303 -0.2871 -0.7934
  186MOL0     C25593  -0.295   6.287   8.712 -0.5133  0.7160 -0.1133
  186MOL0     C25594  -0.277   6.134   8.728 -0.9203 -0.0186 -1.6391
  186MOL0     C25595  -0.260   6.013   8.738 -0.1980  0.7323  0.4891
  186MOL0     C25596   0.146   6.423   8.657 -0.8786  0.1393  0.2442
  186MOL0     C25597   0.277   6.373   8.642  0.3867  0.2521  1.0665
  186MOL0     C25598   0.353   6.428   8.523 -0.6967  0.1158  0.5356
  186MOL0     H25599   0.697   6.284   8.439  0.9256  0.1089  0.3716
  186MOL0     H25600   0.933   6.230   8.419 -0.7636  3.2345  1.7875
  186MOL0     H25601   1.154   6.210   8.504  0.8799 -0.4603 -0.2482
  186MOL0     H25602   1.124   6.076   8.392 -1.9589  2.0025  0.5968
  186MOL0     H25603   1.324   6.082   8.617  0.4496  2.9717 -0.8651
  186MOL0     H25604   1.309   5.945   8.498 -0.2993 -0.2583  1.4170
  186MOL0     H25605   1.391   6.067   8.324  1.5614 -0.6600  0.3026
  186MOL0     H25606   1.387   6.225   8.398  1.5142 -0.8216 -0.4721
  186MOL0     H25607   1.536   6.128   8.579  0.0319  0.7421 -0.1847
  186MOL0     H25608   1.545   5.981   8.486 -0.5857  0.8395  2.3112
  186MOL0     H25609   1.653   6.251   8.403  0.6080 -0.0295 -0.1773
  186MOL0     H25610   1.653   6.115   8.282 -1.5144  0.2351  0.0081
  186MOL0     H25611   1.779   6.108   8.558  1.3209 -3.0896  1.0592
  186MOL0     H25612   1.784   5.970   8.452  2.8138 -0.2438 -2.7637
  186MOL0     H25613   1.893   6.134   8.266 -2.1119  0.6769  1.4556
  186MOL0     H25614   2.005   6.079   8.400 -0.6081 -0.7667  2.5960
  186MOL0     H25615   1.868   6.328   8.422 -1.8575 -3.2433 -0.0586
  186MOL0     H25616   1.998   6.283   8.520  0.0617 -3.7705  1.5278
  186MOL0     H25617   2.251   6.221   8.381  1.5916  2.4144  0.1978
  186MOL0     H25618   2.412   6.409   8.092  2.3775  1.0528  0.0958
  186MOL0     H25619   2.444   6.299   8.234  2.4072  2.6873  3.7268
  186MOL0     H25620   2.393   6.600   8.285  0.3671 -1.0069  0.5003
  186MOL0     H25621   2.434   6.465   8.393  0.3708  1.9030  0.5756
  186MOL0     H25622   2.635   6.606   8.345  0.8820  0.3365 -0.2733
  186MOL0     H25623   2.654   6.455   8.263 -2.1987 -1.4348 -2.0211
  186MOL0     H25624   2.622   6.573   8.046  2.1113 -1.3227  1.1482
  186MOL0     H25625   2.540   6.712   8.117 -0.3498  0.9899  1.9665
  186MOL0     H25626   2.956   6.802   8.204 -0.3302 -0.5877 -1.1298
  186MOL0     H25627   3.207   6.944   8.031 -2.8791 -1.4235 -2.2105
  186MOL0     H25628   3.118   6.949   8.191  0.0726 -1.0254  0.2328
  186MOL0     H25629   3.116   7.087   8.082  0.8469 -0.2027 -1.4641
  186MOL0     H25630   3.391   6.857   7.738  0.4439  0.3781  0.3680
  186MOL0     H25631   3.556   6.920   7.579  0.0426  0.5638  0.7831
  186MOL0     H25632   3.701   6.987   7.392 -0.9831 -0.6145  0.9648
  186MOL0     H25633   3.551   6.919   7.315  0.6132 -0.6703 -1.6226
  186MOL0     H25634   3.558   7.087   7.134  0.9355  1.4603 -1.5101
  186MOL0     H25635   3.690   7.159   7.212 -1.0728  0.2903 -1.5878
  186MOL0     H25636   3.847   6.986   7.173 -0.0429  1.1349  0.4628
  186MOL0     H25637   3.770   7.025   7.027  1.9139  1.5163  1.4832
  186MOL0     H25638   3.610   6.817   7.052 -0.7757 -1.1438  1.7162
  186MOL0     H25639   3.684   6.773   7.195  3.5405 -0.9589  0.4864
  186MOL0     H25640   3.846   6.793   6.941 -0.9453  0.6991  0.4660
  186MOL0     H25641   3.917   6.754   7.101  1.6424  0.6621 -1.9705
  186MOL0     H25642   3.707   6.586   6.958 -0.4864  0.9860  0.6301
  186MOL0     H25643   3.766   6.560   7.126 -1.0091  1.3642 -0.3733
  186MOL0     H25644   4.009   6.536   7.016  1.1848  3.7668 -2.5689
  186MOL0     H25645   3.934   6.552   6.871 -0.1949 -1.1793 -0.1143
  186MOL0     H25646   3.831   6.353   7.076 -0.1994  1.8679  0.0709
  186MOL0     H25647   3.962   6.316   6.954  1.0671  0.4414  2.5933
  186MOL0     H25648   3.317   7.243   7.429  1.0886 -0.2131 -0.5208
  186MOL0     H25649   3.152   7.192   7.600 -0.2341 -1.0373  0.2233
  186MOL0     H25650   2.804   6.888   7.748 -1.4323 -0.3094  0.6237
  186MOL0     H25651   2.663   6.758   7.904 -0.3624  1.1438  1.5703
  186MOL0     H25652   0.909   5.954   8.750 -0.2703  1.8174  0.8980
  186MOL0     H25653   0.666   6.016   8.776 -0.9666  0.5465  0.0614
  186MOL0     H25654   0.287   6.198   8.928 -3.4895 -1.2364  0.0776
  186MOL0     H25655   0.085   6.317   8.970 -1.4997 -0.7321 -0.8402
  186MOL0     H25656  -0.032   6.493   8.995  0.4566 -1.1227 -0.5766
  186MOL0     H25657  -0.159   6.593   8.908  1.1806  0.0833 -1.5197
  186MOL0     H25658  -0.235   6.403   9.039 -1.0039  1.7549 -0.2112
  186MOL0     H25659  -0.141   6.289   8.930 -0.2989  0.0823 -1.9472
  186MOL0     H25660  -0.413   6.338   8.885  0.4372 -2.0455 -1.2356
  186MOL0     H25661  -0.360   6.474   8.805 -0.9502 -0.2775  0.2690
  186MOL0     H25662  -0.223   6.337   8.648 -0.1057 -0.7509 -0.8322
  186MOL0     H25663  -0.388   6.291   8.655 -1.9345 -3.4674  1.4783
  186MOL0     H25664  -0.248   5.907   8.734  0.5758  0.8160  0.4903
  186MOL0     H25665   0.103   6.486   8.579 -2.0784  0.1549  0.8985
  186MOL0     H25666   0.334   6.380   8.427  0.1430 -0.9205  0.8576
  186MOL0     H25667   0.324   6.527   8.486 -0.3335 -0.7759 -2.4138
  186MOL0     H25668   0.462   6.430   8.527 -0.7416  2.0122  2.4373
  187MOL0     O25669   2.083   4.603  10.650  0.6640  0.3995 -0.4701
  187MOL0     C25670   2.052   4.539  10.553 -0.0705 -0.9864 -0.2643
  187MOL0     O25671   2.126   4.513  10.444 -0.2328 -0.2157  0.5668
  187MOL0     C25672   2.246   4.582  10.425  0.8430 -0.9215  0.4534
  187MOL0     C25673   2.270   4.713  10.450  0.0846 -0.1250 -0.6187
  187MOL0     C25674   2.392   4.775  10.425  0.3385 -0.0265  0.3753
  187MOL0     C25675   2.496   4.696  10.373  0.7552 -0.3065 -0.3092
  187MOL0     O25676   2.623   4.738  10.341  1.1733  0.0209  0.2409
  187MOL0     C25677   2.689   4.834  10.418  0.3353  0.0841 -0.2058
  187MOL0     C25678   2.822   4.861  10.359 -1.5330 -0.7644  0.7131
  187MOL0     C25679   2.897   4.981  10.420  0.2585  0.4307  0.4985
  187MOL0     C25680   2.876   4.990  10.575 -0.4783 -0.1859  0.4642
  187MOL0     C25681   2.961   5.091  10.647 -0.2851 -0.0095  0.1027
  187MOL0     C25682   3.089   5.015  10.690  1.2519 -0.1604 -0.6375
  187MOL0     C25683   3.202   5.103  10.740  0.6700  0.5996 -0.8253
  187MOL0     C25684   3.286   5.151  10.616  0.4329 -0.1936 -0.0008
  187MOL0     N25685   3.408   5.071  10.602 -0.3711  0.3318  0.5829
  187MOL0     C25686   3.412   4.956  10.522  0.5597 -1.2506  1.1531
  187MOL0     C25687   3.539   4.911  10.540  1.3284  0.8154 -0.3866
  187MOL0     C25688   3.591   4.782  10.481 -0.2688  0.2519  1.2600
  187MOL0     C25689   3.638   4.784  10.339  0.0716 -0.4078  0.8197
  187MOL0     C25690   3.653   4.649  10.279 -0.0428  0.0662 -0.3180
  187MOL0     C25691   3.664   4.643  10.129  0.4422  0.3985 -0.6380
  187MOL0     O25692   3.690   4.514  10.074 -0.1892 -0.1326 -0.0672
  187MOL0     C25693   3.801   4.443  10.127 -0.2458  0.7083 -0.1253
  187MOL0     C25694   3.787   4.307  10.108  0.4553 -0.4711  0.4422
  187MOL0     C25695   3.894   4.215  10.126  0.2631  0.1359  0.2856
  187MOL0     C25696   3.875   4.077  10.064 -0.3836 -0.2536 -0.3762
  187MOL0     C25697   4.021   4.265  10.176  0.3744  0.0304 -0.0692
  187MOL0     C25698   4.141   4.185  10.201 -1.0200 -0.2051 -0.2836
  187MOL0     O25699   4.250   4.250  10.254 -0.2486  0.0362  0.0715
  187MOL0     C25700   4.377   4.189  10.257 -0.3503 -0.4320 -0.2675
  187MOL0     C25701   4.412   4.097  10.352  0.0036 -0.3128 -0.5618
  187MOL0     C25702   4.538   4.046  10.346  0.1325  0.7013 -0.8887
  187MOL0     C25703   4.629   4.082  10.244 -0.4063  0.3690 -0.0721
  187MOL0     O25704   4.759   4.022  10.253 -0.2111  0.3135 -0.8348
  187MOL0     C25705   4.879   4.081  10.212 -0.6346 -0.4255  0.0896
  187MOL0     C25706   4.993   3.989  10.249  0.7552 -0.0305  0.4790
  187MOL0     C25707   5.121   4.059  10.235  1.0997 -0.0203  0.2103
  187MOL0     C25708   5.234   3.959  10.236  0.0782 -0.3847  0.2015
  187MOL0     C25709   5.372   4.035  10.238 -0.2554  0.0037  0.2225
  187MOL0     C25710   5.488   3.933  10.231  0.5931  0.3078  0.7558
  187MOL0     C25711   5.511   3.838  10.351 -0.2054 -0.0359 -0.2104
  187MOL0     C25712   5.563   3.907  10.477  0.2713  0.9619  0.5250
  187MOL0    Cl25713   5.608   3.786  10.600  0.1018  0.0845 -0.2097
  187MOL0     C25714   4.593   4.179  10.153 -0.1090 -0.0054 -1.1915
  187MOL0     C25715   4.465   4.236  10.159  0.0960 -0.0168  0.1498
  187MOL0     O25716   4.143   4.061  10.181  0.5615  0.2071  0.3798
  187MOL0     C25717   4.025   4.410  10.193  0.5374 -0.3550 -0.2834
  187MOL0     C25718   3.918   4.494  10.164 -0.4324  0.4645 -0.4146
  187MOL0     N25719   3.605   4.989  10.636 -0.1989 -0.2711 -0.7466
  187MOL0     N25720   3.526   5.086  10.669 -1.0322  0.9318 -0.1648
  187MOL0     C25721   2.465   4.560  10.341 -0.2700 -0.6917  0.6560
  187MOL0     C25722   2.338   4.510  10.353 -0.3820 -0.2589 -0.1482
  187MOL0     C25723   1.921   4.477  10.556 -0.1119 -0.2386  0.2803
  187MOL0     C25724   1.901   4.343  10.492 -0.3391 -0.5169 -0.1967
  187MOL0     C25725   1.784   4.282  10.485  0.4731  0.4758 -0.2892
  187MOL0     C25726   1.672   4.333  10.558 -0.0096 -1.1560  0.1266
  187MOL0     O25727   1.549   4.274  10.553  0.2698  0.1570  0.0131
  187MOL0     C25728   1.543   4.150  10.618  0.9167 -0.0979  0.5504
  187MOL0     C25729   1.550   4.172  10.767  0.5299 -0.0016 -0.2590
  187MOL0     C25730   1.499   4.051  10.843 -0.1299  0.5436 -0.3921
  187MOL0     C25731   1.506   4.071  10.999 -0.2600  1.2078  0.4991
  187MOL0     C25732   1.384   4.149  11.040 -0.1592 -0.3009 -0.1283
  187MOL0     C25733   1.288   4.217  11.077  0.5887 -0.7664  0.1387
  187MOL0     C25734   1.687   4.450  10.624  0.4645 -0.7918  0.2427
  187MOL0     C25735   1.805   4.528  10.626 -0.1305  0.1915 -0.5351
  187MOL0     C25736   1.803   4.665  10.691 -0.0075 -0.1969 -0.6375
  187MOL0     H25737   2.190   4.776  10.489  0.7077  0.9627 -1.0368
  187MOL0     H25738   2.402   4.883  10.429  1.1897  0.1072 -2.6142
  187MOL0     H25739   2.702   4.796  10.519 -0.9104 -0.7518 -0.3386
  187MOL0     H25740   2.625   4.922  10.430 -0.6625 -0.7171  0.5645
  187MOL0     H25741   2.888   4.774  10.364 -0.2519  0.2119  1.3153
  187MOL0     H25742   2.806   4.887  10.254 -2.0837  1.0055  1.1977
  187MOL0     H25743   3.002   4.961  10.398  0.7719 -1.4640  3.8725
  187MOL0     H25744   2.863   5.071  10.370 -2.2796 -1.1952 -0.9118
  187MOL0     H25745   2.775   5.031  10.583 -0.7345 -0.1639 -2.1056
  187MOL0     H25746   2.892   4.895  10.626 -1.2548 -0.6350 -0.1165
  187MOL0     H25747   2.909   5.129  10.736 -0.2322  0.8263 -0.2152
  187MOL0     H25748   2.985   5.178  10.585  1.3561 -1.3501 -1.1897
  187MOL0     H25749   3.055   4.948  10.770 -0.5837  1.4552  0.0211
  187MOL0     H25750   3.120   4.956  10.603 -0.8722 -1.5150 -0.5420
  187MOL0     H25751   3.261   5.040  10.807 -0.3223 -1.2562 -1.6295
  187MOL0     H25752   3.161   5.189  10.794  3.8548  2.2305 -0.7725
  187MOL0     H25753   3.227   5.160  10.524 -0.2342  3.5013  0.6288
  187MOL0     H25754   3.320   5.254  10.629 -0.5272  0.1148  0.1451
  187MOL0     H25755   3.336   4.912  10.458  0.2072  2.8811 -1.6181
  187MOL0     H25756   3.510   4.708  10.482  0.0172 -0.4455 -3.5782
  187MOL0     H25757   3.675   4.749  10.542  0.3598 -1.0365 -0.2422
  187MOL0     H25758   3.564   4.838  10.278 -1.1327 -0.4023  2.2417
  187MOL0     H25759   3.737   4.828  10.325  1.2695 -2.8339  1.1392
  187MOL0     H25760   3.745   4.610  10.324 -1.0282 -2.3768 -0.2770
  187MOL0     H25761   3.564   4.589  10.297  0.7160 -1.9234 -2.5824
  187MOL0     H25762   3.561   4.658  10.093 -1.2087 -4.3955  1.2513
  187MOL0     H25763   3.738   4.710  10.083  0.9729  0.0876 -0.2410
  187MOL0     H25764   3.683   4.282  10.087 -0.0820  2.3284 -0.6915
  187MOL0     H25765   3.921   4.079   9.964  1.4530  1.1600  0.4355
  187MOL0     H25766   3.767   4.071  10.050 -0.5819  0.7675  0.6192
  187MOL0     H25767   3.911   3.992  10.122 -3.7124 -1.4598  0.1528
  187MOL0     H25768   4.345   4.056  10.427  2.1207  1.3086  2.3803
  187MOL0     H25769   4.578   3.971  10.414  1.4729 -0.3552 -2.7584
  187MOL0     H25770   4.893   4.090  10.104  4.6379  0.3300  0.5435
  187MOL0     H25771   4.892   4.181  10.255 -2.1013  1.1078 -2.7687
  187MOL0     H25772   4.985   3.969  10.356  1.1425  1.5402  0.8319
  187MOL0     H25773   4.992   3.902  10.183  0.0834  0.0631  0.3539
  187MOL0     H25774   5.140   4.128  10.318  1.7839 -1.5290  1.3464
  187MOL0     H25775   5.127   4.115  10.141 -3.3535 -0.4203 -0.5463
  187MOL0     H25776   5.226   3.893  10.150 -2.7979 -1.2959  1.0451
  187MOL0     H25777   5.228   3.905  10.332  2.7719  0.9010  1.1906
  187MOL0     H25778   5.373   4.091  10.144  3.2580  0.3229  0.3150
  187MOL0     H25779   5.392   4.091  10.330  0.8113 -1.0156  0.6329
  187MOL0     H25780   5.583   3.986  10.224  0.1978  0.7872 -2.0158
  187MOL0     H25781   5.473   3.879  10.137 -0.2347  0.3633  0.8446
  187MOL0     H25782   5.585   3.761  10.329  0.4107  0.7449 -0.9727
  187MOL0     H25783   5.420   3.780  10.371  0.1904 -0.7033 -0.3090
  187MOL0     H25784   5.485   3.971  10.518 -2.2696 -0.9829 -1.0015
  187MOL0     H25785   5.654   3.966  10.458 -0.3357  1.8255  0.2481
  187MOL0     H25786   4.660   4.212  10.074  1.8920  2.1985  1.2212
  187MOL0     H25787   4.424   4.297  10.079  1.5486 -1.2382 -1.6062
  187MOL0     H25788   4.120   4.458  10.213  0.4581  0.0298 -0.7848
  187MOL0     H25789   3.942   4.600  10.168  1.8580 -0.0563  1.5370
  187MOL0     H25790   2.540   4.497  10.295 -0.0874 -3.6290  4.4574
  187MOL0     H25791   2.326   4.407  10.321  3.7345 -1.4005  1.4114
  187MOL0     H25792   1.989   4.295  10.452  0.4801 -0.6523  1.6469
  187MOL0     H25793   1.790   4.183  10.439 -0.8857  0.7008 -1.0058
  187MOL0     H25794   1.449   4.102  10.591  0.2531  2.0039 -1.2185
  187MOL0     H25795   1.615   4.072  10.591  1.4859  0.8469 -0.7851
  187MOL0     H25796   1.481   4.256  10.782  1.5322  1.0736 -1.4728
  187MOL0     H25797   1.651   4.202  10.796  0.5565  0.1841 -0.5384
  187MOL0     H25798   1.395   4.028  10.818 -0.8543  3.6641 -0.7272
  187MOL0     H25799   1.553   3.963  10.809  0.4922  1.1807 -1.0904
  187MOL0     H25800   1.597   4.127  11.021  0.6777 -0.6666  1.6833
  187MOL0     H25801   1.503   3.975  11.051 -1.4343  1.4829  0.9733
  187MOL0     H25802   1.195   4.264  11.100  1.1899  0.9343 -0.7678
  187MOL0     H25803   1.590   4.469  10.669  0.1995 -2.5125  0.4595
  187MOL0     H25804   1.882   4.672  10.766  0.2709  2.1396 -1.0526
  187MOL0     H25805   1.817   4.752  10.626  2.5545 -0.9468 -1.2033
  187MOL0     H25806   1.717   4.675  10.758  2.9770 -0.2404  3.5952
  188MOL0     O25807   9.120   4.254   1.696 -0.8028  0.2509  0.3204
  188MOL0     C25808   9.013   4.192   1.700 -0.2167 -0.6285  0.0265
  188MOL0     O25809   8.911   4.229   1.782 -0.3056 -0.2995  0.4393
  188MOL0     C25810   8.912   4.319   1.886 -0.6800  0.7232  0.0304
  188MOL0     C25811   8.995   4.436   1.911  0.4668 -0.1629 -0.1097
  188MOL0     C25812   8.949   4.527   2.018 -0.4212  0.4867 -0.0016
  188MOL0     C25813   8.829   4.501   2.092  0.0188  0.1305  0.0056
  188MOL0     O25814   8.776   4.576   2.199  0.5646 -0.2362 -0.3410
  188MOL0     C25815   8.821   4.710   2.223  0.5865  0.0130  0.5139
  188MOL0     C25816   8.935   4.718   2.330 -0.1385 -0.3301  0.6205
  188MOL0     C25817   8.886   4.650   2.456 -0.1789  0.9381 -0.1103
  188MOL0     C25818   8.791   4.735   2.538 -0.3913  0.8256  0.1755
  188MOL0     C25819   8.764   4.686   2.686  0.0248  0.5214  0.4622
  188MOL0     C25820   8.729   4.545   2.698 -0.3543  0.3866  0.1475
  188MOL0     C25821   8.602   4.510   2.622  0.0257  0.2703  0.9668
  188MOL0     C25822   8.566   4.364   2.626  0.1522 -0.1306  0.2802
  188MOL0     N25823   8.682   4.280   2.583 -0.0955  0.6771 -0.2836
  188MOL0     C25824   8.750   4.289   2.467 -0.2034 -0.5194  0.1058
  188MOL0     C25825   8.851   4.207   2.484 -1.1392 -0.0507 -0.4389
  188MOL0     C25826   8.953   4.177   2.375 -0.1407  0.0850 -0.5081
  188MOL0     C25827   9.068   4.274   2.385 -0.9828 -0.2233  0.1754
  188MOL0     C25828   9.168   4.245   2.269 -0.4867  0.3437 -0.5066
  188MOL0     C25829   9.295   4.199   2.328 -0.5184 -0.1514 -0.1094
  188MOL0     O25830   9.381   4.166   2.212 -0.0735 -0.4940 -0.1383
  188MOL0     C25831   9.517   4.152   2.237 -0.0599 -0.0145 -0.3125
  188MOL0     C25832   9.584   4.064   2.160 -0.3681  0.4516  0.0141
  188MOL0     C25833   9.723   4.038   2.174 -0.8144 -0.0316  0.3217
  188MOL0     C25834   9.784   3.926   2.101  0.0534 -0.5679 -0.3660
  188MOL0     C25835   9.805   4.130   2.255 -0.5077 -0.1186 -0.2724
  188MOL0     C25836   9.951   4.112   2.282 -0.0015  0.5130  0.4310
  188MOL0     O25837  10.013   4.196   2.367 -0.2810  0.6420 -0.1878
  188MOL0     C25838  10.141   4.161   2.398  0.0337 -0.5705 -0.9399
  188MOL0     C25839  10.246   4.173   2.303 -0.4731 -0.3047  0.1215
  188MOL0     C25840  10.376   4.143   2.325 -0.1985  0.4533 -0.5143
  188MOL0     C25841  10.407   4.099   2.448  0.4425 -0.2215 -1.8969
  188MOL0     O25842  10.535   4.050   2.467 -0.8487 -0.0594 -0.1565
  188MOL0     C25843  10.595   4.023   2.594 -0.9354 -0.7494 -0.0461
  188MOL0     C25844  10.719   4.118   2.615  0.0663  0.5812  0.1871
  188MOL0     C25845  10.788   4.104   2.753  0.4025 -0.2720 -0.2014
  188MOL0     C25846  10.926   4.175   2.758 -0.5523  0.9197 -0.4670
  188MOL0     C25847  10.989   4.129   2.891 -0.0245  0.3583  0.2422
  188MOL0     C25848  11.126   4.193   2.920  0.3257  0.2116 -0.2631
  188MOL0     C25849  11.173   4.133   3.051 -1.3618  0.5384 -0.5488
  188MOL0     C25850  11.321   4.158   3.080 -0.0497 -0.5793  0.5670
  188MOL0    Cl25851  11.357   4.337   3.119 -0.1820 -0.0911  0.0429
  188MOL0     C25852  10.313   4.097   2.553 -0.6590  1.0127  0.6967
  188MOL0     C25853  10.179   4.130   2.528 -0.5229  0.4238 -0.2308
  188MOL0     O25854  10.006   4.016   2.220  0.0535 -0.0544  0.7568
  188MOL0     C25855   9.734   4.229   2.332 -0.1993  0.7569  0.0905
  188MOL0     C25856   9.592   4.238   2.321  0.4735 -0.8584  0.5021
  188MOL0     N25857   8.848   4.161   2.612  0.4739  0.6074 -0.5774
  188MOL0     N25858   8.743   4.200   2.677 -0.3292 -0.1074  0.1812
  188MOL0     C25859   8.758   4.389   2.061  0.3491  0.3439 -0.3639
  188MOL0     C25860   8.796   4.301   1.960  0.0819  0.0758 -1.4367
  188MOL0     C25861   8.980   4.075   1.615 -0.2119 -0.1169  0.1077
  188MOL0     C25862   9.084   3.992   1.591 -0.2167  0.0357 -0.4516
  188MOL0     C25863   9.065   3.890   1.491 -0.6763 -1.0116  0.3593
  188MOL0     C25864   8.940   3.869   1.426  0.2019 -0.8616 -0.1666
  188MOL0     O25865   8.907   3.764   1.344 -0.0502  0.0910  0.2891
  188MOL0     C25866   9.013   3.663   1.318  0.7975 -0.3920 -0.3486
  188MOL0     C25867   8.947   3.601   1.192 -0.1342  0.3482  0.9534
  188MOL0     C25868   8.915   3.694   1.071  0.8086 -0.3682  0.1270
  188MOL0     C25869   8.930   3.640   0.932 -0.5080 -0.1573  0.2636
  188MOL0     C25870   8.804   3.557   0.900  0.1884  0.6100  0.6001
  188MOL0     C25871   8.714   3.484   0.865  0.4852 -0.3874 -0.1256
  188MOL0     C25872   8.842   3.947   1.463 -0.4579 -0.2995  0.6471
  188MOL0     C25873   8.852   4.058   1.547 -0.7502 -0.6872 -0.5330
  188MOL0     C25874   8.736   4.141   1.580 -0.1625  0.2231 -0.0171
  188MOL0     H25875   9.092   4.449   1.864  2.4823  1.2307  3.9127
  188MOL0     H25876   9.022   4.604   2.042 -0.6657  0.4290  0.9716
  188MOL0     H25877   8.730   4.757   2.262  0.2388 -0.1619 -0.0617
  188MOL0     H25878   8.852   4.759   2.130  0.6194 -3.1693 -1.3208
  188MOL0     H25879   9.023   4.666   2.292 -0.3694  0.6976 -1.4164
  188MOL0     H25880   8.969   4.819   2.350  2.7684 -1.1815  0.4089
  188MOL0     H25881   8.850   4.549   2.433 -0.7667  1.2079 -0.3918
  188MOL0     H25882   8.979   4.638   2.513 -0.7062  1.6456  0.9112
  188MOL0     H25883   8.842   4.831   2.536  1.3426 -0.0686 -0.5069
  188MOL0     H25884   8.701   4.754   2.478 -1.6217  0.6564  1.8858
  188MOL0     H25885   8.681   4.749   2.720 -2.7000 -0.4837 -3.6815
  188MOL0     H25886   8.854   4.693   2.748  3.1137 -1.4696 -3.3324
  188MOL0     H25887   8.813   4.481   2.673  0.5820  1.8732 -0.6391
  188MOL0     H25888   8.703   4.515   2.800 -1.9206 -2.1440 -0.8866
  188MOL0     H25889   8.619   4.526   2.515  0.7172  0.4818  1.0975
  188MOL0     H25890   8.516   4.573   2.644  2.2568  2.9904  2.6060
  188MOL0     H25891   8.536   4.347   2.730 -1.8792  1.6190  0.0473
  188MOL0     H25892   8.486   4.335   2.558  1.2577 -1.0529 -0.6682
  188MOL0     H25893   8.739   4.363   2.388 -0.5730 -0.7026 -0.0146
  188MOL0     H25894   8.900   4.198   2.281 -1.3803  2.4585  0.6389
  188MOL0     H25895   8.979   4.071   2.376  0.0438  0.1345  0.7116
  188MOL0     H25896   9.024   4.373   2.372 -0.7437 -0.3004 -1.3314
  188MOL0     H25897   9.108   4.259   2.486 -1.9260 -1.3685  0.4058
  188MOL0     H25898   9.135   4.166   2.200  0.2255 -0.9478  0.5626
  188MOL0     H25899   9.184   4.337   2.213 -0.8544 -0.3193 -1.7499
  188MOL0     H25900   9.324   4.282   2.393  1.3861 -1.4166  0.7520
  188MOL0     H25901   9.293   4.106   2.386  3.1127 -0.2121  0.1876
  188MOL0     H25902   9.520   4.007   2.094  3.5538 -1.0888 -2.8440
  188MOL0     H25903   9.702   3.864   2.063 -1.2309 -0.5189  2.1061
  188MOL0     H25904   9.847   3.856   2.157  0.2436 -0.7635 -0.8153
  188MOL0     H25905   9.832   3.966   2.011  0.7151  0.9747  0.6276
  188MOL0     H25906  10.218   4.203   2.202  0.1424 -2.2036 -0.6514
  188MOL0     H25907  10.449   4.155   2.245  2.4986  0.8883  1.8340
  188MOL0     H25908  10.535   4.058   2.679 -1.0601  1.9280 -1.1612
  188MOL0     H25909  10.622   3.917   2.591  1.9544 -0.1624  1.4848
  188MOL0     H25910  10.781   4.099   2.528 -2.4931 -0.8462 -1.4368
  188MOL0     H25911  10.685   4.220   2.594  1.2730  0.4892 -2.7039
  188MOL0     H25912  10.807   4.002   2.785  1.7724  0.2891  0.8537
  188MOL0     H25913  10.720   4.141   2.830  1.4357  1.9867 -0.2773
  188MOL0     H25914  10.926   4.284   2.749  0.8258  0.9140 -0.7183
  188MOL0     H25915  10.985   4.138   2.674 -1.6592 -2.0853 -0.0239
  188MOL0     H25916  10.924   4.157   2.975 -0.4445 -0.4301  0.1949
  188MOL0     H25917  11.001   4.020   2.894  3.0000  0.6461  2.3555
  188MOL0     H25918  11.111   4.301   2.934 -2.1646 -0.1927  0.6280
  188MOL0     H25919  11.201   4.165   2.846 -0.4093  1.3127 -1.4582
  188MOL0     H25920  11.173   4.023   3.046  0.2292  0.5385 -1.1110
  188MOL0     H25921  11.114   4.167   3.136 -1.8700 -1.7113  0.0657
  188MOL0     H25922  11.375   4.152   2.985  3.4411  2.1930  2.1594
  188MOL0     H25923  11.363   4.088   3.152 -1.4112 -3.3141 -1.1198
  188MOL0     H25924  10.326   4.055   2.652 -1.3776  1.4434  0.9832
  188MOL0     H25925  10.099   4.127   2.602  1.1044 -1.3605  1.5845
  188MOL0     H25926   9.786   4.294   2.401 -1.2189  0.1569  1.4731
  188MOL0     H25927   9.543   4.312   2.383  2.2868 -0.1109  1.1077
  188MOL0     H25928   8.677   4.373   2.131  2.3424 -1.5082  1.6881
  188MOL0     H25929   8.731   4.218   1.936  0.0305 -0.9193  1.7243
  188MOL0     H25930   9.180   4.000   1.640  0.6473  3.0774 -2.3816
  188MOL0     H25931   9.145   3.817   1.479 -1.2553 -1.5530 -0.2861
  188MOL0     H25932   9.108   3.713   1.296  0.0998  0.2359 -2.1233
  188MOL0     H25933   9.033   3.598   1.404  0.1239  2.8104  2.4856
  188MOL0     H25934   8.850   3.560   1.222 -0.9295  0.1911 -1.6049
  188MOL0     H25935   8.998   3.512   1.154 -1.7174 -0.1047 -0.2603
  188MOL0     H25936   8.818   3.742   1.083 -0.1681 -2.0768 -0.6702
  188MOL0     H25937   8.996   3.768   1.069  0.7351 -0.2354  1.4856
  188MOL0     H25938   9.024   3.586   0.922  0.1705  0.3906  2.9469
  188MOL0     H25939   8.926   3.719   0.856  0.5456  2.6536  2.9141
  188MOL0     H25940   8.638   3.415   0.833  0.2939 -1.6902  2.7709
  188MOL0     H25941   8.746   3.936   1.414 -0.1783 -0.8073  0.2094
  188MOL0     H25942   8.758   4.247   1.571  2.9602 -0.2718  0.6413
  188MOL0     H25943   8.653   4.125   1.511 -0.2204  1.7854 -0.3428
  188MOL0     H25944   8.692   4.125   1.679 -1.6734 -1.2642 -0.8692
  189MOL0     O25945   8.228   0.510  10.979  0.3065  0.5589  0.5580
  189MOL0     C25946   8.209   0.408  11.046  0.7030  0.5143  0.5050
  189MOL0     O25947   8.273   0.289  11.032  0.4760  0.2722 -0.2192
  189MOL0     C25948   8.375   0.275  10.938 -0.4738 -0.8096 -0.1417
  189MOL0     C25949   8.398   0.147  10.901 -0.3698 -0.2398 -1.1472
  189MOL0     C25950   8.507   0.119  10.819 -0.3832 -0.4511 -0.7240
  189MOL0     C25951   8.604   0.221  10.785  0.0193 -0.8110 -0.6566
  189MOL0     O25952   8.711   0.185  10.698  1.0873 -0.0554 -0.3051
  189MOL0     C25953   8.838   0.238  10.726 -0.2437 -0.1516 -0.1162
  189MOL0     C25954   8.932   0.169  10.633 -0.1770 -0.4676 -0.4774
  189MOL0     C25955   9.071   0.244  10.646 -0.1822 -0.4171  0.7124
  189MOL0     C25956   9.089   0.333  10.525 -0.5804  0.0919 -0.5647
  189MOL0     C25957   9.216   0.408  10.565 -0.3047  0.4399  0.4997
  189MOL0     C25958   9.246   0.514  10.470  0.7372  0.2751  0.5522
  189MOL0     C25959   9.383   0.585  10.488  0.9761  0.0511  0.2486
  189MOL0     C25960   9.490   0.491  10.434 -0.7007  0.7228 -0.6483
  189MOL0     N25961   9.617   0.572  10.445 -0.1033 -0.2124 -0.1182
  189MOL0     C25962   9.738   0.534  10.499 -0.2940 -0.2574 -0.0455
  189MOL0     C25963   9.816   0.640  10.465  0.6344 -0.5331  0.3337
  189MOL0     C25964   9.955   0.675  10.493 -0.4602 -1.8640  0.5561
  189MOL0     C25965  10.047   0.656  10.373 -0.0527  0.2257 -0.0771
  189MOL0     C25966  10.079   0.507  10.353  0.2356  0.4513 -1.0748
  189MOL0     C25967  10.178   0.474  10.234  0.9983 -0.1482  0.2362
  189MOL0     O25968  10.305   0.524  10.274  0.5404  0.4739 -0.0897
  189MOL0     C25969  10.414   0.498  10.195  0.4958  0.3167 -0.8095
  189MOL0     C25970  10.431   0.392  10.115  0.1809 -0.6343 -0.3984
  189MOL0     C25971  10.557   0.380  10.047 -0.2774  0.0752  0.6868
  189MOL0     C25972  10.567   0.269   9.938 -0.1539 -0.1733 -0.2056
  189MOL0     C25973  10.658   0.474  10.056 -0.2229 -0.3851 -0.2755
  189MOL0     C25974  10.785   0.454   9.990 -0.2053  0.4848 -0.4110
  189MOL0     O25975  10.827   0.573   9.931 -0.1374 -0.3604  0.2883
  189MOL0     C25976  10.949   0.559   9.867 -0.1413  0.6857  0.1108
  189MOL0     C25977  10.958   0.542   9.727 -0.1010 -0.7449  0.5989
  189MOL0     C25978  11.072   0.553   9.659  0.7751 -0.1388  0.2821
  189MOL0     C25979  11.191   0.578   9.728  0.0470 -0.4673 -0.2878
  189MOL0     O25980  11.306   0.600   9.658  0.0064 -0.5134  0.3493
  189MOL0     C25981  11.316   0.640   9.516  0.6890  0.8229  0.3743
  189MOL0     C25982  11.458   0.673   9.486  0.3053  0.7598 -0.6285
  189MOL0     C25983  11.554   0.586   9.564  0.2366  0.4217  0.1065
  189MOL0     C25984  11.694   0.583   9.523  0.0113  0.8727  0.0889
  189MOL0     C25985  11.770   0.482   9.599  0.4542  1.1468  0.1404
  189MOL0     C25986  11.824   0.534   9.729  0.1356  0.0905  0.0127
  189MOL0     C25987  11.919   0.430   9.782 -0.1704 -1.2140  0.4847
  189MOL0     C25988  12.050   0.413   9.711 -0.3544  0.5259 -0.1303
  189MOL0    Cl25989  12.155   0.547   9.721  0.4483 -0.5932  0.1359
  189MOL0     C25990  11.191   0.570   9.866  0.2834 -0.2855 -0.1733
  189MOL0     C25991  11.067   0.569   9.936 -0.2559 -0.2073 -0.2532
  189MOL0     O25992  10.854   0.350   9.994 -0.0616 -0.0046 -0.0473
  189MOL0     C25993  10.637   0.582  10.145  0.2063  1.0354 -0.0477
  189MOL0     C25994  10.510   0.591  10.215 -0.4334 -0.1394 -0.9930
  189MOL0     N25995   9.750   0.730  10.379  0.6552  0.0119 -0.3798
  189MOL0     N25996   9.633   0.683  10.371 -0.5810 -1.0559 -0.0885
  189MOL0     C25997   8.578   0.349  10.828 -1.2480  1.1127  0.6061
  189MOL0     C25998   8.471   0.373  10.915 -0.9540 -0.1649  0.2532
  189MOL0     C25999   8.112   0.416  11.148  0.5542 -0.7186  0.5788
  189MOL0     C26000   8.136   0.351  11.272  0.5509 -1.5495  0.8747
  189MOL0     C26001   8.035   0.340  11.367  0.6401  0.1596 -0.5988
  189MOL0     C26002   7.906   0.391  11.349 -0.3662  0.6402 -0.5740
  189MOL0     O26003   7.820   0.382  11.446  0.1116  0.2325 -0.2403
  189MOL0     C26004   7.681   0.422  11.424  0.0916 -0.3779 -0.0374
  189MOL0     C26005   7.613   0.308  11.347  0.2316  0.4901 -0.0022
  189MOL0     C26006   7.461   0.306  11.365  0.6999  0.3017 -0.5750
  189MOL0     C26007   7.422   0.267  11.509 -0.8226 -1.1533 -0.4648
  189MOL0     C26008   7.277   0.245  11.522  0.5495 -0.5117  0.1355
  189MOL0     C26009   7.157   0.232  11.526 -0.1299 -1.2114  0.3034
  189MOL0     C26010   7.889   0.452  11.225 -0.6520  0.2818  0.5635
  189MOL0     C26011   7.990   0.476  11.131  0.1644  0.4212 -0.2283
  189MOL0     C26012   7.945   0.542  11.011 -0.2809 -0.7867  0.1191
  189MOL0     H26013   8.329   0.066  10.925 -0.6130 -0.1916 -1.6627
  189MOL0     H26014   8.526   0.021  10.778  2.2094 -1.0953  1.6373
  189MOL0     H26015   8.860   0.210  10.829 -0.1552 -1.0552 -0.3691
  189MOL0     H26016   8.839   0.346  10.714 -0.3786  0.0699  1.6108
  189MOL0     H26017   8.950   0.068  10.670  3.9811  0.4769  0.5567
  189MOL0     H26018   8.894   0.175  10.530 -3.5784 -1.4651  0.6036
  189MOL0     H26019   9.075   0.301  10.739 -1.7229  2.5378 -0.8770
  189MOL0     H26020   9.151   0.170  10.641 -0.7302 -1.1133  1.9590
  189MOL0     H26021   9.099   0.268  10.437 -1.6109 -2.3836  1.0477
  189MOL0     H26022   9.012   0.410  10.511  0.8132  2.1254  2.0978
  189MOL0     H26023   9.301   0.340  10.563  1.8458  2.9455 -2.7021
  189MOL0     H26024   9.214   0.450  10.666 -1.2039  0.3834  0.5178
  189MOL0     H26025   9.248   0.475  10.368  1.8119  1.7262 -0.0212
  189MOL0     H26026   9.168   0.589  10.486  0.7333  1.0029 -2.3247
  189MOL0     H26027   9.398   0.607  10.594  0.1652 -1.1055  0.6266
  189MOL0     H26028   9.387   0.671  10.419 -1.5138  1.5346  1.7963
  189MOL0     H26029   9.502   0.403  10.498 -1.6824  1.2639  0.3104
  189MOL0     H26030   9.474   0.458  10.331  0.3009  0.3004 -0.6788
  189MOL0     H26031   9.775   0.448  10.554 -2.8149 -1.4907 -0.1211
  189MOL0     H26032   9.981   0.607  10.575 -0.6299 -1.7952  0.6681
  189MOL0     H26033   9.949   0.778  10.529 -2.7300 -0.9794 -1.9977
  189MOL0     H26034   9.993   0.687  10.283 -2.6086  1.4042  1.7286
  189MOL0     H26035  10.142   0.708  10.389  2.1942 -3.8855  1.4767
  189MOL0     H26036  10.112   0.467  10.450 -1.1516 -0.2703 -0.8680
  189MOL0     H26037   9.980   0.461  10.346 -0.2931  0.7540  2.4479
  189MOL0     H26038  10.192   0.372  10.199  0.6763 -0.9441  2.3245
  189MOL0     H26039  10.149   0.546  10.156  0.8184  0.2974  0.7077
  189MOL0     H26040  10.357   0.314  10.098 -0.1418 -0.1170 -1.4413
  189MOL0     H26041  10.472   0.219   9.917 -0.2569  0.6888 -1.9312
  189MOL0     H26042  10.650   0.202   9.963  0.2517  0.4330  0.1008
  189MOL0     H26043  10.585   0.319   9.843 -3.1594  2.2515  0.3167
  189MOL0     H26044  10.866   0.532   9.669 -2.2239 -1.2930  3.8105
  189MOL0     H26045  11.060   0.541   9.552 -0.0026 -0.6291  0.4169
  189MOL0     H26046  11.282   0.556   9.455  1.4457 -0.9257  2.2694
  189MOL0     H26047  11.256   0.729   9.495  2.8661  2.1984 -0.3174
  189MOL0     H26048  11.475   0.657   9.379 -3.2297 -4.0338 -0.7660
  189MOL0     H26049  11.471   0.779   9.509  0.1861  1.3198 -2.8770
  189MOL0     H26050  11.500   0.490   9.562 -1.7523  1.4762  0.4585
  189MOL0     H26051  11.554   0.622   9.668 -2.1568  1.9576 -0.3516
  189MOL0     H26052  11.741   0.681   9.537 -1.9837  1.5745  2.7838
  189MOL0     H26053  11.702   0.558   9.417  1.3137 -4.1462  1.1279
  189MOL0     H26054  11.704   0.396   9.614 -2.0704  2.3439 -3.0776
  189MOL0     H26055  11.859   0.468   9.536  1.6632  6.0456  0.3774
  189MOL0     H26056  11.753   0.552   9.810  1.7743  0.5737  1.3966
  189MOL0     H26057  11.878   0.628   9.721 -2.1906  1.6060  1.1300
  189MOL0     H26058  11.873   0.330   9.785  0.0283 -1.2847  1.4907
  189MOL0     H26059  11.940   0.445   9.888 -0.5647 -2.2916  0.7332
  189MOL0     H26060  12.046   0.379   9.607 -1.8199  2.9784 -0.9570
  189MOL0     H26061  12.102   0.338   9.772  0.1465  1.3029  0.4092
  189MOL0     H26062  11.288   0.582   9.913  0.6842  1.1695 -1.2715
  189MOL0     H26063  11.077   0.594  10.041 -2.3597  0.8903 -0.2512
  189MOL0     H26064  10.715   0.655  10.166 -0.7216  1.0277  4.4030
  189MOL0     H26065  10.505   0.675  10.283  0.3066 -1.9600  1.4840
  189MOL0     H26066   8.642   0.433  10.802 -0.5934  0.5595  0.3983
  189MOL0     H26067   8.471   0.469  10.966  0.4315 -0.4654  0.8897
  189MOL0     H26068   8.231   0.305  11.297  3.3840  2.2628 -1.6918
  189MOL0     H26069   8.059   0.289  11.460  1.0995  0.8005 -0.3552
  189MOL0     H26070   7.644   0.441  11.525  3.7484  0.7171  1.2620
  189MOL0     H26071   7.664   0.511  11.363  1.3868 -0.7348 -0.9654
  189MOL0     H26072   7.648   0.210  11.382  1.5213  0.8073 -0.3409
  189MOL0     H26073   7.630   0.316  11.239 -1.1457 -1.2852 -0.3916
  189MOL0     H26074   7.415   0.405  11.353 -1.8768 -0.7210  0.1587
  189MOL0     H26075   7.412   0.243  11.290 -0.1843  1.1659 -0.7505
  189MOL0     H26076   7.447   0.348  11.578 -2.7083 -0.8370 -0.1138
  189MOL0     H26077   7.475   0.173  11.531  1.8320  0.1477 -0.8644
  189MOL0     H26078   7.049   0.229  11.525 -0.1538 -1.9873 -2.2760
  189MOL0     H26079   7.794   0.498  11.200 -0.0219  1.0576 -0.4873
  189MOL0     H26080   7.999   0.635  10.995 -1.4106 -0.4447 -2.2053
  189MOL0     H26081   7.965   0.474  10.927  0.6039  0.9069 -1.0878
  189MOL0     H26082   7.839   0.568  11.007  0.4073  2.2430 -0.4120
  190MOL0     O26083   4.550   6.498   3.861  0.1942  0.8466 -0.7296
  190MOL0     C26084   4.548   6.376   3.868 -0.1894 -0.1177  0.4381
  190MOL0     O26085   4.612   6.297   3.969  0.7018  0.2482  0.6340
  190MOL0     C26086   4.718   6.345   4.044  0.8651  0.7609  0.5961
  190MOL0     C26087   4.745   6.273   4.158 -0.0296 -0.1630 -0.2314
  190MOL0     C26088   4.845   6.300   4.241 -0.0502  0.2055  1.3665
  190MOL0     C26089   4.941   6.398   4.216 -0.3047  0.0388 -0.3040
  190MOL0     O26090   5.034   6.417   4.311  0.7778 -0.5834 -0.2538
  190MOL0     C26091   5.109   6.549   4.300  0.9224 -0.0903  0.0122
  190MOL0     C26092   5.202   6.539   4.425 -0.1517  0.2581 -1.1843
  190MOL0     C26093   5.286   6.410   4.429  0.4196 -0.8332  0.0902
  190MOL0     C26094   5.416   6.435   4.498 -0.2094  0.2400 -0.0305
  190MOL0     C26095   5.486   6.300   4.527  0.3013  0.3978  0.0582
  190MOL0     C26096   5.623   6.318   4.598  0.1693 -0.6047  0.1496
  190MOL0     C26097   5.674   6.182   4.628 -0.9145  0.1487 -0.0254
  190MOL0     C26098   5.764   6.181   4.749 -0.0767 -0.6710 -0.3760
  190MOL0     N26099   5.885   6.257   4.723 -0.1409 -0.2978 -0.1936
  190MOL0     C26100   5.922   6.370   4.797 -0.5045  0.0515 -0.4964
  190MOL0     C26101   6.038   6.416   4.730  0.5255  0.4609 -0.8577
  190MOL0     C26102   6.113   6.540   4.766 -0.0564  0.3131  0.0845
  190MOL0     C26103   6.223   6.508   4.869 -0.2078  0.2553 -0.5143
  190MOL0     C26104   6.342   6.432   4.816 -0.6663 -0.3998  0.4509
  190MOL0     C26105   6.431   6.533   4.737 -0.5050 -0.5860  0.5803
  190MOL0     O26106   6.491   6.610   4.836 -0.1824 -0.3797  0.0191
  190MOL0     C26107   6.609   6.572   4.896 -0.1152  0.0035 -0.5258
  190MOL0     C26108   6.613   6.517   5.022 -0.6220 -0.3451 -0.4445
  190MOL0     C26109   6.735   6.488   5.091  0.2334 -0.0270  0.0005
  190MOL0     C26110   6.722   6.439   5.232  0.5750 -0.3680  0.2285
  190MOL0     C26111   6.857   6.512   5.016 -0.5558  0.0061 -1.0732
  190MOL0     C26112   6.994   6.488   5.079  0.0807 -0.4561  0.9037
  190MOL0     O26113   7.107   6.559   5.018 -0.0371 -0.8831  0.1153
  190MOL0     C26114   7.239   6.550   5.058 -0.2301  0.6171  0.5493
  190MOL0     C26115   7.283   6.490   5.182  0.1190 -0.1650 -0.2802
  190MOL0     C26116   7.414   6.475   5.218  0.3494 -0.1120 -0.2913
  190MOL0     C26117   7.518   6.512   5.130  1.1591 -0.8844  0.1874
  190MOL0     O26118   7.646   6.498   5.157  0.2247 -0.2403 -0.3268
  190MOL0     C26119   7.701   6.612   5.235  1.1633 -0.1569 -0.4438
  190MOL0     C26120   7.854   6.603   5.252  0.1130  0.0540  0.0616
  190MOL0     C26121   7.903   6.708   5.346 -0.3463 -0.0014 -0.1004
  190MOL0     C26122   8.043   6.685   5.399 -0.5544 -0.1992 -0.5975
  190MOL0     C26123   8.149   6.645   5.290  1.7751 -0.0044  0.4613
  190MOL0     C26124   8.285   6.652   5.334  0.7475  0.3511 -0.7238
  190MOL0     C26125   8.383   6.616   5.227 -0.3848 -0.3445 -0.2034
  190MOL0     C26126   8.529   6.620   5.271  0.0131  0.3598 -0.4671
  190MOL0    Cl26127   8.553   6.476   5.377  0.0508  0.0059 -0.0123
  190MOL0     C26128   7.475   6.582   5.008 -0.5973 -0.1953  0.3410
  190MOL0     C26129   7.338   6.588   4.966  0.5009  0.5818  0.0491
  190MOL0     O26130   7.003   6.415   5.180 -0.1149 -0.5518  0.3038
  190MOL0     C26131   6.852   6.555   4.891 -0.6331 -0.6494 -0.4860
  190MOL0     C26132   6.733   6.592   4.830 -0.3160 -0.1636  0.3953
  190MOL0     N26133   6.069   6.315   4.636 -0.2938 -0.4353  0.1048
  190MOL0     N26134   5.976   6.229   4.627  0.7748  0.0060  0.7168
  190MOL0     C26135   4.918   6.482   4.105 -0.1173  0.0373 -0.1399
  190MOL0     C26136   4.813   6.450   4.015  0.5852  0.1725  0.6722
  190MOL0     C26137   4.449   6.308   3.786  0.5209 -0.1295 -0.1693
  190MOL0     C26138   4.418   6.175   3.826 -0.2453  0.4091 -0.1802
  190MOL0     C26139   4.318   6.099   3.765  0.5112 -0.3911 -0.3985
  190MOL0     C26140   4.248   6.156   3.659  0.1448 -0.0587  0.0643
  190MOL0     O26141   4.141   6.097   3.594 -0.5902 -0.1824 -0.1961
  190MOL0     C26142   4.131   5.956   3.596 -0.6157 -1.3301 -0.9443
  190MOL0     C26143   4.139   5.887   3.467 -0.0322  0.3994  0.3627
  190MOL0     C26144   4.284   5.869   3.418 -0.6479 -0.1993 -0.7158
  190MOL0     C26145   4.291   5.803   3.285 -0.0868 -0.3431 -0.3603
  190MOL0     C26146   4.429   5.799   3.241 -0.6971 -0.1444  0.1456
  190MOL0     C26147   4.547   5.808   3.207  0.6720  0.6754  0.8073
  190MOL0     C26148   4.281   6.279   3.619 -0.4632 -0.6586  0.5072
  190MOL0     C26149   4.379   6.361   3.675  0.8794 -0.1664 -0.4982
  190MOL0     C26150   4.408   6.495   3.613  0.1306  0.5336 -0.1591
  190MOL0     H26151   4.676   6.199   4.197  0.5738  0.2204  1.6874
  190MOL0     H26152   4.875   6.250   4.332  3.9655 -1.3891 -0.5618
  190MOL0     H26153   5.049   6.639   4.312  1.4541  0.2540  0.1084
  190MOL0     H26154   5.173   6.554   4.211 -0.0897 -1.8337 -0.8605
  190MOL0     H26155   5.274   6.621   4.421 -0.9247  1.0937  0.9149
  190MOL0     H26156   5.150   6.551   4.520 -0.9757 -0.9543 -1.4620
  190MOL0     H26157   5.228   6.340   4.490 -1.5214  1.0652  0.5246
  190MOL0     H26158   5.306   6.368   4.329  3.0312 -0.4706  0.3870
  190MOL0     H26159   5.479   6.503   4.440 -3.0272  4.1856  1.0536
  190MOL0     H26160   5.401   6.485   4.594 -0.6798 -0.9286  0.5322
  190MOL0     H26161   5.509   6.255   4.430 -1.2407 -0.2813 -0.0180
  190MOL0     H26162   5.412   6.245   4.586 -0.0157  0.7406 -0.0129
  190MOL0     H26163   5.687   6.374   4.529 -3.1365 -0.1159 -2.8224
  190MOL0     H26164   5.620   6.374   4.692  0.7973  1.0180 -0.7637
  190MOL0     H26165   5.731   6.145   4.543 -0.3099  0.7232  0.1175
  190MOL0     H26166   5.604   6.100   4.643  0.1714 -1.4629 -2.9554
  190MOL0     H26167   5.711   6.209   4.840 -0.7352 -4.0644  0.4478
  190MOL0     H26168   5.802   6.081   4.774  1.5046  0.2571  1.1774
  190MOL0     H26169   5.874   6.413   4.885 -0.3441 -0.1666 -0.3011
  190MOL0     H26170   6.044   6.616   4.803 -0.3931  0.1055 -0.0995
  190MOL0     H26171   6.158   6.578   4.674 -1.4111  0.9673 -0.3356
  190MOL0     H26172   6.249   6.594   4.931  1.6976  1.3500 -2.7057
  190MOL0     H26173   6.167   6.449   4.943  1.3564  3.3521  3.5017
  190MOL0     H26174   6.402   6.390   4.898  0.1957  1.5666  0.9081
  190MOL0     H26175   6.302   6.356   4.750 -1.3150 -0.9384  1.4395
  190MOL0     H26176   6.510   6.506   4.666 -2.3767 -0.3829 -1.7193
  190MOL0     H26177   6.367   6.593   4.671  1.7317  0.2974 -0.9156
  190MOL0     H26178   6.517   6.504   5.072  0.5255  0.5245  2.1349
  190MOL0     H26179   6.802   6.483   5.292  1.6221 -0.7989 -0.7935
  190MOL0     H26180   6.737   6.331   5.221 -1.7004 -0.7295  0.3806
  190MOL0     H26181   6.626   6.461   5.279  0.5738  0.8309 -0.2995
  190MOL0     H26182   7.228   6.454   5.269 -1.1190 -0.7233 -1.2730
  190MOL0     H26183   7.445   6.430   5.312  1.5840 -2.7116 -1.8574
  190MOL0     H26184   7.669   6.708   5.193  0.1137  0.4086  1.5239
  190MOL0     H26185   7.660   6.610   5.336 -0.6462 -0.9054 -1.1598
  190MOL0     H26186   7.888   6.503   5.279  1.1013  0.0910 -0.9325
  190MOL0     H26187   7.894   6.616   5.151 -0.9068  1.4713 -0.1980
  190MOL0     H26188   7.840   6.722   5.435 -0.6469 -2.7271  0.2039
  190MOL0     H26189   7.890   6.806   5.300 -2.9754 -0.2211  0.0487
  190MOL0     H26190   8.032   6.611   5.480 -1.5095  0.6941  0.1230
  190MOL0     H26191   8.081   6.779   5.440 -2.4207  0.7471 -0.9126
  190MOL0     H26192   8.133   6.549   5.240 -2.0435  1.2932 -1.2029
  190MOL0     H26193   8.123   6.720   5.215  0.9253  1.3611  2.0524
  190MOL0     H26194   8.298   6.593   5.425  2.0805  0.9994 -0.4809
  190MOL0     H26195   8.301   6.757   5.357  0.8855  0.5697 -1.7506
  190MOL0     H26196   8.377   6.687   5.143  2.3440  1.4077  0.9486
  190MOL0     H26197   8.367   6.514   5.192  2.0559  0.0379 -2.8635
  190MOL0     H26198   8.551   6.712   5.326  0.2118 -0.9486  1.7646
  190MOL0     H26199   8.601   6.613   5.189  1.7606  0.9418  0.9551
  190MOL0     H26200   7.540   6.630   4.935 -0.3254 -0.9911  0.0505
  190MOL0     H26201   7.301   6.633   4.875  1.8679 -0.9072 -1.2948
  190MOL0     H26202   6.942   6.561   4.830 -0.6592  0.7254 -0.4184
  190MOL0     H26203   6.732   6.617   4.724  1.2451 -1.9760 -0.1020
  190MOL0     H26204   4.980   6.570   4.093  0.7790 -0.4706  0.6190
  190MOL0     H26205   4.799   6.499   3.920  0.1757 -2.9286 -0.9967
  190MOL0     H26206   4.469   6.122   3.906 -2.7897 -1.2919  0.4075
  190MOL0     H26207   4.305   5.998   3.802  0.5823 -0.9721 -1.9064
  190MOL0     H26208   4.197   5.900   3.664 -1.2970 -0.7208  0.2614
  190MOL0     H26209   4.028   5.937   3.628 -1.2906 -0.2431 -2.3778
  190MOL0     H26210   4.073   5.935   3.393 -0.1403  0.0215  0.2153
  190MOL0     H26211   4.096   5.788   3.485  2.5578 -0.6046  1.4456
  190MOL0     H26212   4.332   5.966   3.398 -0.5152 -0.3803 -1.2987
  190MOL0     H26213   4.346   5.810   3.486 -0.3689 -3.0309 -3.1842
  190MOL0     H26214   4.236   5.867   3.215  2.0832 -2.0751 -3.9435
  190MOL0     H26215   4.246   5.704   3.292 -0.3392 -0.1074  4.5650
  190MOL0     H26216   4.640   5.815   3.156  0.3594 -0.9218 -0.0326
  190MOL0     H26217   4.220   6.318   3.538  1.5375 -1.3594 -1.4167
  190MOL0     H26218   4.511   6.494   3.577  0.2561  1.8967  0.1171
  190MOL0     H26219   4.342   6.527   3.531 -3.3468 -1.8930  1.4421
  190MOL0     H26220   4.407   6.562   3.699 -0.2956 -0.8952  0.9803
  191MOL0     O26221   6.823   0.883   3.343  0.1940  0.4285  0.2194
  191MOL0     C26222   6.814   0.844   3.459 -0.1063 -0.5637 -0.1051
  191MOL0     O26223   6.918   0.813   3.539  0.6076  0.0229 -1.1717
  191MOL0     C26224   7.049   0.832   3.506  0.0784  0.6347  0.2740
  191MOL0     C26225   7.136   0.894   3.589 -0.2205 -0.2892 -1.1685
  191MOL0     C26226   7.274   0.899   3.561  0.0845 -0.5807 -0.5640
  191MOL0     C26227   7.325   0.852   3.442  0.0707 -0.4286 -0.5291
  191MOL0     O26228   7.465   0.863   3.417 -0.3369  0.1680 -0.2698
  191MOL0     C26229   7.524   0.858   3.287  1.0714  0.4879 -0.4842
  191MOL0     C26230   7.668   0.899   3.296 -0.7724  0.8865 -0.2949
  191MOL0     C26231   7.762   0.783   3.341 -0.3115  0.3623 -0.1660
  191MOL0     C26232   7.907   0.818   3.326 -0.0941  0.3669 -0.0290
  191MOL0     C26233   8.006   0.711   3.368  0.7600  0.0091 -0.3473
  191MOL0     C26234   8.152   0.752   3.374 -0.4470 -0.2361 -0.5261
  191MOL0     C26235   8.216   0.623   3.428  0.0387 -0.1050 -0.4942
  191MOL0     C26236   8.362   0.658   3.469 -0.0392  0.7484  0.6254
  191MOL0     N26237   8.449   0.668   3.344 -0.4298  0.0085 -0.8131
  191MOL0     C26238   8.499   0.563   3.273 -0.4359 -0.3979  0.8837
  191MOL0     C26239   8.575   0.623   3.175  0.5314 -0.5558 -1.3293
  191MOL0     C26240   8.649   0.543   3.071  0.9956  0.0683  0.0901
  191MOL0     C26241   8.794   0.573   3.068  0.1204  0.2103 -0.6302
  191MOL0     C26242   8.864   0.497   3.180  0.4209  0.6769 -0.0258
  191MOL0     C26243   9.019   0.511   3.166 -0.0310 -1.0146  0.3012
  191MOL0     O26244   9.086   0.405   3.098 -0.4781 -0.2372  0.0781
  191MOL0     C26245   9.224   0.416   3.079 -0.2938 -0.2311  0.4492
  191MOL0     C26246   9.310   0.495   3.161 -0.9126 -0.1461 -0.1368
  191MOL0     C26247   9.446   0.518   3.134 -0.5059  0.3137 -0.5177
  191MOL0     C26248   9.514   0.619   3.224 -0.0817 -1.1047 -0.2253
  191MOL0     C26249   9.508   0.426   3.041 -0.0952 -0.3284  0.5383
  191MOL0     C26250   9.658   0.417   3.020 -0.2588 -0.0685 -0.3629
  191MOL0     O26251   9.740   0.437   3.136  0.4358  0.7236  0.1256
  191MOL0     C26252   9.873   0.440   3.124 -0.4559 -0.9401  1.1228
  191MOL0     C26253   9.929   0.535   3.031  0.2128  0.1741  0.1917
  191MOL0     C26254  10.063   0.552   3.032  0.1723 -0.3114  0.1241
  191MOL0     C26255  10.147   0.478   3.111 -0.1940 -0.6538 -1.3276
  191MOL0     O26256  10.283   0.480   3.112  0.0685 -0.5005 -0.1453
  191MOL0     C26257  10.340   0.598   3.058 -0.5254  0.4069  1.0409
  191MOL0     C26258  10.493   0.607   3.070  0.3446 -0.9017 -1.2109
  191MOL0     C26259  10.545   0.643   3.212  1.0884 -0.3902 -0.2379
  191MOL0     C26260  10.533   0.794   3.230 -0.0852 -0.2852 -0.5570
  191MOL0     C26261  10.508   0.839   3.377  0.1836 -0.1237 -0.4077
  191MOL0     C26262  10.368   0.798   3.440 -1.7695  0.0615  0.5739
  191MOL0     C26263  10.322   0.887   3.558  0.3180  0.3111  0.9490
  191MOL0     C26264  10.299   1.033   3.515  0.7486 -0.2311 -0.1202
  191MOL0    Cl26265  10.419   1.129   3.589  0.0151  0.2235  0.2516
  191MOL0     C26266  10.090   0.389   3.208 -0.4555  0.3692  0.3602
  191MOL0     C26267   9.948   0.370   3.220 -0.4566  0.1850  0.0931
  191MOL0     O26268   9.700   0.408   2.908 -0.0167  0.4298  0.2580
  191MOL0     C26269   9.425   0.345   2.974 -0.5391  0.5005  0.4245
  191MOL0     C26270   9.286   0.337   2.986 -0.7503 -0.3804  0.0140
  191MOL0     N26271   8.571   0.760   3.197 -0.0834  0.4158  0.1585
  191MOL0     N26272   8.491   0.786   3.285  0.1379  0.8028 -0.6018
  191MOL0     C26273   7.232   0.795   3.348  0.2309  0.5034  0.3361
  191MOL0     C26274   7.098   0.776   3.384  1.2419 -0.8880  0.1987
  191MOL0     C26275   6.667   0.845   3.510 -0.5957  0.5322 -0.5794
  191MOL0     C26276   6.575   0.949   3.467 -0.0015 -0.7028 -0.4481
  191MOL0     C26277   6.439   0.929   3.478  0.8050 -0.0980 -0.0061
  191MOL0     C26278   6.385   0.827   3.551 -0.5437 -0.0679 -0.4147
  191MOL0     O26279   6.253   0.833   3.581  0.1968  0.4551 -0.9401
  191MOL0     C26280   6.164   0.732   3.513  0.2787 -0.6927 -0.0526
  191MOL0     C26281   6.019   0.792   3.506  0.5708  0.9358 -0.4869
  191MOL0     C26282   5.999   0.933   3.452 -0.3046  0.0149  0.5363
  191MOL0     C26283   6.058   0.955   3.323  0.7285 -0.4911 -0.3210
  191MOL0     C26284   6.042   1.095   3.298 -0.3391 -0.0703 -0.0147
  191MOL0     C26285   6.028   1.219   3.287  0.1085  1.0031 -0.1115
  191MOL0     C26286   6.475   0.736   3.601  0.2439 -0.7867 -0.5041
  191MOL0     C26287   6.611   0.737   3.576  0.5558 -0.0822  0.2062
  191MOL0     C26288   6.690   0.624   3.639 -0.0737 -0.1994 -0.0641
  191MOL0     H26289   7.098   0.918   3.688  1.4009  0.6657 -0.7480
  191MOL0     H26290   7.343   0.934   3.637 -1.2898 -2.0029  1.4514
  191MOL0     H26291   7.477   0.928   3.216  0.6795 -0.6585 -1.3929
  191MOL0     H26292   7.517   0.754   3.252 -1.6891 -0.1089  1.5350
  191MOL0     H26293   7.692   0.918   3.191  0.2869 -0.9939 -0.4378
  191MOL0     H26294   7.684   0.992   3.351  0.0373  1.0691 -0.8262
  191MOL0     H26295   7.753   0.771   3.449  1.1573  1.0523  0.0475
  191MOL0     H26296   7.726   0.697   3.283  1.2920  0.9610 -2.1797
  191MOL0     H26297   7.910   0.855   3.224 -3.6531 -0.5897 -0.6044
  191MOL0     H26298   7.942   0.903   3.385  1.3654 -0.4143  0.2930
  191MOL0     H26299   7.994   0.627   3.299  3.0964 -1.2057  0.6078
  191MOL0     H26300   7.981   0.673   3.467  1.2539 -0.2959 -0.3373
  191MOL0     H26301   8.188   0.770   3.273  0.4541  1.2913  0.0310
  191MOL0     H26302   8.175   0.844   3.429 -0.4407 -1.0110  0.8255
  191MOL0     H26303   8.213   0.535   3.364 -1.1539 -0.5299  0.1075
  191MOL0     H26304   8.168   0.600   3.524  2.4885 -0.4486  0.7300
  191MOL0     H26305   8.364   0.754   3.520  3.4908 -0.1056  2.3917
  191MOL0     H26306   8.403   0.574   3.527 -3.5376 -0.3018  1.8116
  191MOL0     H26307   8.487   0.456   3.283 -0.9884 -0.2532  1.9637
  191MOL0     H26308   8.592   0.567   2.981  2.1100  4.8300  0.4262
  191MOL0     H26309   8.640   0.436   3.091  0.0554  0.3965  1.6865
  191MOL0     H26310   8.832   0.533   2.974  1.9579 -1.3075  0.6687
  191MOL0     H26311   8.806   0.680   3.087  1.3728 -0.4490  3.1465
  191MOL0     H26312   8.834   0.540   3.276  2.9252 -0.1204  1.1867
  191MOL0     H26313   8.836   0.392   3.171  4.5175 -0.6317  0.4441
  191MOL0     H26314   9.030   0.611   3.122 -0.1716 -1.8067 -1.6496
  191MOL0     H26315   9.058   0.529   3.267  0.5791  0.9994 -0.2539
  191MOL0     H26316   9.268   0.566   3.231  1.5496 -0.4221  1.7665
  191MOL0     H26317   9.485   0.717   3.184  0.8188 -1.1351 -0.9723
  191MOL0     H26318   9.622   0.622   3.209  0.0703 -1.7062  0.6805
  191MOL0     H26319   9.490   0.609   3.331 -1.5575 -1.6929 -0.5876
  191MOL0     H26320   9.863   0.578   2.957 -0.8813 -3.3875 -1.1486
  191MOL0     H26321  10.104   0.631   2.969  0.1698 -1.3695 -1.2362
  191MOL0     H26322  10.325   0.602   2.950  0.3446 -0.1091  0.8895
  191MOL0     H26323  10.291   0.689   3.094 -2.1123 -0.8666  2.2219
  191MOL0     H26324  10.534   0.507   3.051 -0.5096 -1.5164  0.0178
  191MOL0     H26325  10.531   0.671   2.990  2.8003  1.2463  1.4251
  191MOL0     H26326  10.646   0.607   3.230  1.7340  1.7708  0.8025
  191MOL0     H26327  10.482   0.593   3.287 -1.2418  2.3550 -0.1811
  191MOL0     H26328  10.466   0.847   3.163  0.9104  0.9364 -0.6222
  191MOL0     H26329  10.633   0.828   3.201 -1.3490  2.7994 -1.6953
  191MOL0     H26330  10.586   0.805   3.446 -0.6380 -1.8725 -0.2827
  191MOL0     H26331  10.517   0.947   3.384  0.4013 -0.2145  1.1281
  191MOL0     H26332  10.366   0.696   3.477  0.6031  0.4527  2.0072
  191MOL0     H26333  10.301   0.798   3.353  1.1325  0.3260 -1.8336
  191MOL0     H26334  10.395   0.887   3.639  4.1862  1.3732 -2.1693
  191MOL0     H26335  10.233   0.837   3.596  0.4684 -2.3050 -1.7593
  191MOL0     H26336  10.200   1.065   3.550 -0.3216 -2.0534 -1.3867
  191MOL0     H26337  10.290   1.046   3.407 -1.7980 -0.3228  0.0116
  191MOL0     H26338  10.159   0.334   3.271 -1.1627  0.4648  1.2421
  191MOL0     H26339   9.909   0.318   3.307 -0.6329  0.7720  0.3723
  191MOL0     H26340   9.482   0.293   2.897 -1.6321  1.5842 -1.1642
  191MOL0     H26341   9.239   0.254   2.935  1.3999 -1.8254  0.2428
  191MOL0     H26342   7.271   0.748   3.259 -2.4808 -5.9821  2.0258
  191MOL0     H26343   7.038   0.716   3.316  0.3023  1.1754 -0.8558
  191MOL0     H26344   6.604   1.029   3.400  0.0649 -0.6913 -0.4059
  191MOL0     H26345   6.374   0.997   3.423  1.1811 -0.1677 -0.5436
  191MOL0     H26346   6.192   0.715   3.409  0.6665 -2.8839  0.3749
  191MOL0     H26347   6.163   0.638   3.569  2.6844 -0.9892 -0.4214
  191MOL0     H26348   5.975   0.806   3.605 -0.8318 -1.0877 -0.7753
  191MOL0     H26349   5.966   0.710   3.456  0.9903 -0.9871  2.0373
  191MOL0     H26350   5.890   0.941   3.438 -0.0314  0.7525 -1.4883
  191MOL0     H26351   6.028   1.004   3.529  1.3847 -1.2810  1.1537
  191MOL0     H26352   6.014   0.902   3.238  2.2861 -2.5735  0.1015
  191MOL0     H26353   6.163   0.923   3.324  1.1663  0.8367 -1.0806
  191MOL0     H26354   6.007   1.324   3.280  0.5595  1.0291 -1.3970
  191MOL0     H26355   6.437   0.660   3.668 -0.0998 -1.5545 -1.5347
  191MOL0     H26356   6.625   0.537   3.644  0.9091 -0.9279  0.4630
  191MOL0     H26357   6.771   0.589   3.574 -1.1495 -1.8685 -0.5776
  191MOL0     H26358   6.719   0.638   3.743 -0.1324 -2.3810  0.3080
  192MOL0     O26359   2.059   2.946   1.651 -0.5701  0.6637 -0.4039
  192MOL0     C26360   1.966   2.878   1.606  0.5992 -0.3169 -0.0164
  192MOL0     O26361   1.958   2.834   1.472  0.8100 -0.8759 -0.4603
  192MOL0     C26362   2.060   2.863   1.385  0.0015  0.8609  0.1539
  192MOL0     C26363   2.019   2.891   1.254 -0.3076 -0.2479 -0.1081
  192MOL0     C26364   2.124   2.911   1.156  0.5862  0.3675 -0.7078
  192MOL0     C26365   2.255   2.910   1.193  0.1892 -0.3553 -0.5077
  192MOL0     O26366   2.341   2.922   1.089 -0.5520  0.2228  0.2220
  192MOL0     C26367   2.477   2.868   1.092 -1.0452  0.3277 -0.1972
  192MOL0     C26368   2.550   2.944   0.981 -0.4648 -0.3008 -0.5529
  192MOL0     C26369   2.701   2.910   0.967 -0.6488 -0.1450 -0.0053
  192MOL0     C26370   2.782   3.010   0.882 -0.3973 -0.8134  0.4158
  192MOL0     C26371   2.932   2.985   0.895  0.4364 -0.3405  0.9068
  192MOL0     C26372   3.006   3.074   0.786 -0.7993  0.2309 -1.3113
  192MOL0     C26373   3.029   3.215   0.832 -0.5011  0.2010  0.6227
  192MOL0     C26374   3.077   3.298   0.719  0.6786  0.1877  0.4250
  192MOL0     N26375   3.217   3.307   0.694 -0.3546 -0.3515  0.3683
  192MOL0     C26376   3.296   3.199   0.659  0.7164  1.0192 -0.7575
  192MOL0     C26377   3.425   3.248   0.680  0.5212 -0.1607 -0.2143
  192MOL0     C26378   3.550   3.164   0.673  0.0892 -0.4283  0.1447
  192MOL0     C26379   3.530   3.054   0.566 -0.5796  0.2892  0.2539
  192MOL0     C26380   3.654   2.973   0.516  0.2581  0.9864 -0.3431
  192MOL0     C26381   3.778   2.962   0.602 -0.1916  0.3098 -0.0581
  192MOL0     O26382   3.872   2.868   0.543  0.0388  0.0832 -0.1201
  192MOL0     C26383   3.990   2.853   0.605 -0.0257 -0.4079  0.2298
  192MOL0     C26384   4.076   2.961   0.630  0.0096  0.1448 -0.0746
  192MOL0     C26385   4.199   2.935   0.693 -0.5737 -0.1418  0.9045
  192MOL0     C26386   4.271   3.061   0.737 -0.1811 -0.1191  0.1470
  192MOL0     C26387   4.241   2.800   0.726 -0.2670  0.1707 -0.1203
  192MOL0     C26388   4.376   2.765   0.778  0.9037 -0.3529  0.3716
  192MOL0     O26389   4.404   2.625   0.777 -0.5009  0.2639  0.5692
  192MOL0     C26390   4.531   2.596   0.809 -0.2915 -0.2558 -0.3862
  192MOL0     C26391   4.618   2.563   0.699  0.0682 -0.8115 -0.0957
  192MOL0     C26392   4.751   2.526   0.714  0.5703  0.2514  0.2297
  192MOL0     C26393   4.803   2.500   0.847  0.5683  0.0914 -0.2288
  192MOL0     O26394   4.927   2.446   0.870  0.1926 -0.2322 -0.2192
  192MOL0     C26395   5.029   2.517   0.803  0.2876 -0.4711  0.1494
  192MOL0     C26396   5.165   2.473   0.860  0.0376  0.4969  0.7629
  192MOL0     C26397   5.268   2.574   0.814  0.0194 -0.4732  0.7229
  192MOL0     C26398   5.408   2.518   0.830 -0.0039 -0.6440 -0.0139
  192MOL0     C26399   5.510   2.624   0.779  0.6036  0.2221 -1.0081
  192MOL0     C26400   5.659   2.598   0.822 -0.5446  0.1575 -0.1056
  192MOL0     C26401   5.717   2.469   0.786  0.3769 -0.2862  0.6986
  192MOL0     C26402   5.874   2.468   0.826  0.2396  0.1303  1.4230
  192MOL0    Cl26403   5.959   2.542   0.679  0.1849  0.4144  0.2193
  192MOL0     C26404   4.714   2.508   0.950  0.0323  0.1450  0.1805
  192MOL0     C26405   4.579   2.551   0.934 -0.9517 -0.0148  0.3341
  192MOL0     O26406   4.452   2.853   0.816 -0.0819 -0.0805 -0.6239
  192MOL0     C26407   4.149   2.694   0.692 -0.5529  0.9763  0.3230
  192MOL0     C26408   4.032   2.722   0.633  1.1007 -0.3177  0.5614
  192MOL0     N26409   3.418   3.378   0.711 -0.6280  0.1530 -0.0648
  192MOL0     N26410   3.300   3.410   0.723  0.4147 -0.2474  0.2214
  192MOL0     C26411   2.297   2.874   1.322 -0.0879 -0.4315 -0.9210
  192MOL0     C26412   2.195   2.852   1.417  0.3984  0.4065  0.3688
  192MOL0     C26413   1.853   2.832   1.691 -0.2070 -0.5483  0.3442
  192MOL0     C26414   1.798   2.705   1.674  1.0450  0.5984  0.1237
  192MOL0     C26415   1.689   2.662   1.744  0.5663 -0.2390  0.4701
  192MOL0     C26416   1.633   2.735   1.856 -0.8791  1.3010  0.1312
  192MOL0     O26417   1.542   2.680   1.935  0.0263  0.1799 -0.3197
  192MOL0     C26418   1.575   2.548   1.979  0.8530 -0.0366  0.2617
  192MOL0     C26419   1.440   2.480   2.018 -0.1983 -0.0813 -0.2745
  192MOL0     C26420   1.370   2.431   1.896 -0.3334 -0.4213 -0.6278
  192MOL0     C26421   1.240   2.363   1.935  0.3754 -0.6432 -1.0008
  192MOL0     C26422   1.187   2.308   1.813  0.3468 -1.3537 -0.5538
  192MOL0     C26423   1.150   2.260   1.705  0.1647  0.3104 -0.2808
  192MOL0     C26424   1.681   2.862   1.876  0.5444 -0.1531 -0.1381
  192MOL0     C26425   1.792   2.906   1.794 -0.0652 -0.6133 -0.3636
  192MOL0     C26426   1.850   3.031   1.837 -0.8315 -0.5489 -0.0392
  192MOL0     H26427   1.913   2.888   1.231 -0.4747  0.5412  0.5302
  192MOL0     H26428   2.102   2.920   1.050 -1.3716 -3.1908 -0.7638
  192MOL0     H26429   2.467   2.760   1.075  0.0024  0.3464 -1.0156
  192MOL0     H26430   2.535   2.885   1.183  0.9711 -2.0621 -0.9365
  192MOL0     H26431   2.509   2.934   0.880 -0.8734  0.2104 -0.4418
  192MOL0     H26432   2.543   3.049   1.009  0.3847 -0.0957 -1.0753
  192MOL0     H26433   2.746   2.898   1.066 -1.9011  1.6799  0.8532
  192MOL0     H26434   2.720   2.821   0.907  1.3631  0.6716 -0.6730
  192MOL0     H26435   2.751   3.009   0.777  1.6904  1.2370 -0.3210
  192MOL0     H26436   2.763   3.107   0.931  0.8997 -1.3032  1.9737
  192MOL0     H26437   2.960   2.880   0.879  0.3279 -0.4101  1.1717
  192MOL0     H26438   2.965   3.019   0.993 -1.4889  2.3165  0.7265
  192MOL0     H26439   3.100   3.021   0.770 -0.0795  0.3409  1.8899
  192MOL0     H26440   2.949   3.092   0.694 -0.5445  2.7157 -1.0512
  192MOL0     H26441   3.114   3.209   0.902  0.3870 -1.3556 -0.5205
  192MOL0     H26442   2.944   3.258   0.886 -0.1442 -0.2038  1.5347
  192MOL0     H26443   3.033   3.290   0.619  1.9725  1.4210 -0.2854
  192MOL0     H26444   3.051   3.402   0.742  1.0363  0.2343  0.6422
  192MOL0     H26445   3.275   3.095   0.636 -0.6965  0.5828  2.0644
  192MOL0     H26446   3.575   3.131   0.775  1.4097  4.5598  1.7045
  192MOL0     H26447   3.630   3.228   0.635  0.9888 -3.0437 -2.7733
  192MOL0     H26448   3.455   2.984   0.606  1.3561 -2.1521 -0.1423
  192MOL0     H26449   3.483   3.096   0.476  0.2052 -1.0179 -0.8070
  192MOL0     H26450   3.619   2.871   0.498  1.4626  0.8441 -2.1359
  192MOL0     H26451   3.680   3.019   0.421  1.2935  0.3036 -0.4121
  192MOL0     H26452   3.817   3.063   0.619 -2.1303  0.6648  3.1729
  192MOL0     H26453   3.746   2.929   0.702 -3.0281  3.6378  0.3056
  192MOL0     H26454   4.044   3.063   0.609  1.8907  0.8813  0.3615
  192MOL0     H26455   4.195   3.136   0.759  1.7474  2.0491 -0.0911
  192MOL0     H26456   4.341   3.083   0.655 -1.4892 -0.6088 -1.1280
  192MOL0     H26457   4.319   3.059   0.835 -2.4256  1.4831  1.3766
  192MOL0     H26458   4.581   2.586   0.600 -0.5223  2.4973  0.7546
  192MOL0     H26459   4.815   2.528   0.626 -0.5251  1.1237 -0.5681
  192MOL0     H26460   5.019   2.496   0.696 -0.4331  0.3883  0.0304
  192MOL0     H26461   5.009   2.623   0.823 -1.2388 -0.7473  0.2259
  192MOL0     H26462   5.155   2.461   0.968 -2.1178  2.3173  0.8356
  192MOL0     H26463   5.198   2.377   0.819  3.4135  2.2968 -1.2006
  192MOL0     H26464   5.255   2.671   0.863  1.0631 -0.0921  0.2916
  192MOL0     H26465   5.259   2.597   0.708 -1.1420  0.9238  1.1050
  192MOL0     H26466   5.424   2.431   0.766 -0.0668  0.0649 -1.0231
  192MOL0     H26467   5.427   2.486   0.933 -1.3300 -0.7999  0.2099
  192MOL0     H26468   5.496   2.627   0.670 -0.6149  0.8150 -0.8568
  192MOL0     H26469   5.483   2.725   0.812  2.2737  0.5277 -0.5117
  192MOL0     H26470   5.662   2.608   0.931  1.3501 -1.7794  0.0728
  192MOL0     H26471   5.726   2.672   0.776  0.4461 -0.9361 -0.4749
  192MOL0     H26472   5.702   2.431   0.685  1.9605 -0.1687  0.4002
  192MOL0     H26473   5.670   2.395   0.853  1.6408 -1.2832  0.5262
  192MOL0     H26474   5.900   2.362   0.836  1.0191  0.3470  1.7819
  192MOL0     H26475   5.895   2.527   0.916  0.5775  1.6024  0.3972
  192MOL0     H26476   4.745   2.493   1.053 -1.6842  1.6812  0.9853
  192MOL0     H26477   4.524   2.551   1.028  2.2735 -1.0657  2.3747
  192MOL0     H26478   4.171   2.589   0.707 -1.1671  0.9745  1.2829
  192MOL0     H26479   3.958   2.649   0.601 -2.5759  3.1528  0.4330
  192MOL0     H26480   2.403   2.878   1.347 -0.4829  3.5643  0.9496
  192MOL0     H26481   2.213   2.823   1.520  1.4608  1.3591  0.4781
  192MOL0     H26482   1.839   2.645   1.592  0.9946 -0.1835  0.6589
  192MOL0     H26483   1.646   2.564   1.722 -1.7577  0.3789  1.8957
  192MOL0     H26484   1.616   2.497   1.892  2.7090  4.8525 -2.0647
  192MOL0     H26485   1.651   2.548   2.057 -1.2711 -3.1916  2.6032
  192MOL0     H26486   1.386   2.544   2.087 -0.3231 -0.0241 -0.4247
  192MOL0     H26487   1.457   2.394   2.083 -1.2441  0.5443  0.8583
  192MOL0     H26488   1.347   2.518   1.833 -0.4830  0.5623  0.7459
  192MOL0     H26489   1.436   2.362   1.843  0.1936 -0.1263 -0.3553
  192MOL0     H26490   1.169   2.436   1.975  0.2090 -0.7078 -1.1757
  192MOL0     H26491   1.265   2.287   2.009  1.9625 -0.3900 -1.2514
  192MOL0     H26492   1.124   2.233   1.605  2.2766  0.9545 -1.0651
  192MOL0     H26493   1.638   2.922   1.955  1.6527  1.3518 -0.6351
  192MOL0     H26494   1.895   3.090   1.757  2.8985  0.8953  2.8089
  192MOL0     H26495   1.778   3.103   1.877  0.6353 -0.2147  2.1908
  192MOL0     H26496   1.931   3.016   1.910 -1.0894 -1.1562  0.1285
  193MOL0     O26497   0.370   3.529   0.475  0.2184 -0.5148 -0.7386
  193MOL0     C26498   0.420   3.595   0.565  0.8071 -0.4461 -0.1024
  193MOL0     O26499   0.535   3.579   0.624  0.1573 -0.3650 -0.3340
  193MOL0     C26500   0.601   3.461   0.600  0.6003 -0.2862 -0.4221
  193MOL0     C26501   0.635   3.376   0.703 -0.7792 -0.3828 -0.5183
  193MOL0     C26502   0.724   3.263   0.690 -0.2215  0.8911  0.1590
  193MOL0     C26503   0.770   3.249   0.556 -0.7591  0.2291 -0.3641
  193MOL0     O26504   0.859   3.145   0.540 -0.2705  0.4678  0.3360
  193MOL0     C26505   0.914   3.104   0.416 -0.5651  0.1144  0.6955
  193MOL0     C26506   1.053   3.170   0.390 -1.2092  0.0153  0.1670
  193MOL0     C26507   1.129   3.118   0.268  0.8911 -0.3875 -0.6536
  193MOL0     C26508   1.276   3.146   0.281  0.2356 -0.3583  0.2130
  193MOL0     C26509   1.345   3.112   0.146 -0.0738  0.1950 -0.5919
  193MOL0     C26510   1.478   3.182   0.134 -0.0705  0.3115 -0.4968
  193MOL0     C26511   1.545   3.191  -0.005 -0.6058  0.1634 -0.4576
  193MOL0     C26512   1.626   3.072  -0.066  0.6561 -0.8133 -0.0964
  193MOL0     N26513   1.754   3.050   0.010  0.3045 -0.5888  0.0719
  193MOL0     C26514   1.788   2.935   0.076 -0.1505  0.3505 -0.1663
  193MOL0     C26515   1.923   2.944   0.079  0.9252  0.4222 -0.2082
  193MOL0     C26516   2.007   2.862   0.169  1.1200  0.0244 -1.1073
  193MOL0     C26517   2.027   2.711   0.140  0.1739  0.2734 -0.4666
  193MOL0     C26518   2.072   2.683   0.000 -0.7247 -0.3848  0.2921
  193MOL0     C26519   2.210   2.736  -0.037 -1.3283  0.8251 -0.5506
  193MOL0     O26520   2.277   2.663  -0.143  0.5550  0.1476 -0.4281
  193MOL0     C26521   2.414   2.673  -0.141  0.7467  0.3983 -0.1408
  193MOL0     C26522   2.496   2.581  -0.214 -0.0595  0.1616 -0.3317
  193MOL0     C26523   2.637   2.585  -0.200  0.6454  0.1801  0.1186
  193MOL0     C26524   2.711   2.480  -0.280  0.1236  0.2188 -0.3532
  193MOL0     C26525   2.702   2.662  -0.105  0.2109 -0.3554  0.0737
  193MOL0     C26526   2.840   2.639  -0.053 -0.3116  0.3232  0.5364
  193MOL0     O26527   2.919   2.548  -0.119 -0.2423  0.3566 -0.1460
  193MOL0     C26528   3.036   2.509  -0.065  0.3236  0.7576  0.4873
  193MOL0     C26529   3.037   2.406   0.026  1.4164 -0.4247  0.6093
  193MOL0     C26530   3.154   2.355   0.081 -0.7337  0.0614 -0.0965
  193MOL0     C26531   3.277   2.409   0.040 -0.4864  0.2119 -0.6935
  193MOL0     O26532   3.399   2.348   0.073  0.5086  0.3550 -0.4784
  193MOL0     C26533   3.397   2.250   0.176  0.4915 -0.2193  0.0907
  193MOL0     C26534   3.537   2.188   0.168 -0.2873  0.7137  0.2184
  193MOL0     C26535   3.553   2.087   0.286  0.5373  0.6647  0.0372
  193MOL0     C26536   3.691   2.107   0.347  0.4484  0.8352 -0.1691
  193MOL0     C26537   3.713   2.003   0.462 -0.2203 -0.3053  1.1832
  193MOL0     C26538   3.855   2.009   0.513  0.3084 -0.1934 -0.0117
  193MOL0     C26539   3.971   1.996   0.417 -0.1680  0.0237 -0.4393
  193MOL0     C26540   3.953   1.874   0.329  0.4481 -0.3313 -0.3277
  193MOL0    Cl26541   3.929   1.727   0.427  0.1297 -0.2356  0.4237
  193MOL0     C26542   3.282   2.509  -0.057 -0.2560  0.0372  0.6344
  193MOL0     C26543   3.165   2.560  -0.107  0.1215 -0.5553 -0.1045
  193MOL0     O26544   2.868   2.692   0.055 -0.9618 -0.8227 -0.0678
  193MOL0     C26545   2.628   2.765  -0.042 -0.2956  0.3397  0.9391
  193MOL0     C26546   2.486   2.768  -0.066 -0.1802  0.0654  0.4035
  193MOL0     N26547   1.961   3.067   0.026  0.3733  0.5548  0.2649
  193MOL0     N26548   1.867   3.124  -0.024  0.0472  0.1224 -0.2024
  193MOL0     C26549   0.738   3.334   0.452  0.2168 -0.5034  0.2411
  193MOL0     C26550   0.652   3.437   0.477 -0.2195 -0.0594 -0.4588
  193MOL0     C26551   0.345   3.718   0.603 -0.7439 -0.2507  0.1334
  193MOL0     C26552   0.418   3.829   0.629 -0.3442  0.0769 -0.7866
  193MOL0     C26553   0.359   3.946   0.685 -0.0013  0.0033 -0.8248
  193MOL0     C26554   0.221   3.953   0.704 -0.3838 -0.6946 -0.0226
  193MOL0     O26555   0.165   4.067   0.758 -0.2500  0.0048  0.2574
  193MOL0     C26556   0.101   4.045   0.884 -0.1971 -0.3944  0.2560
  193MOL0     C26557   0.091   4.173   0.960  0.1430 -0.5133  1.1754
  193MOL0     C26558  -0.020   4.169   1.056  0.0954 -0.1658 -0.9542
  193MOL0     C26559  -0.026   4.281   1.165 -0.5580 -0.1636  0.2799
  193MOL0     C26560  -0.043   4.424   1.126 -0.3444  0.6211  0.4770
  193MOL0     C26561  -0.031   4.539   1.078  1.0898  0.5639 -0.2036
  193MOL0     C26562   0.149   3.841   0.671  0.0280 -1.2106  0.1943
  193MOL0     C26563   0.203   3.723   0.628 -0.5760  0.4654 -0.2690
  193MOL0     C26564   0.104   3.615   0.623  0.1410  0.2595  0.4732
  193MOL0     H26565   0.606   3.396   0.806 -0.3482  0.8454 -0.6176
  193MOL0     H26566   0.769   3.203   0.768 -3.1447  0.4016  1.6041
  193MOL0     H26567   0.846   3.114   0.331 -0.4529 -0.1389  0.5750
  193MOL0     H26568   0.940   2.998   0.425  1.3711  0.1892 -2.3819
  193MOL0     H26569   1.035   3.277   0.379  3.1721  1.3374  3.2615
  193MOL0     H26570   1.107   3.157   0.484 -0.8281  2.8388  0.4147
  193MOL0     H26571   1.123   3.009   0.263 -1.0514 -0.3956  0.9324
  193MOL0     H26572   1.081   3.161   0.180 -2.1018 -0.9800  0.5824
  193MOL0     H26573   1.295   3.249   0.312  2.4483 -0.8327  0.5698
  193MOL0     H26574   1.320   3.078   0.354 -1.3300 -0.6571  0.9245
  193MOL0     H26575   1.280   3.139   0.062  1.3869  1.9620 -1.2277
  193MOL0     H26576   1.367   3.005   0.149 -2.3884 -0.3212 -0.0072
  193MOL0     H26577   1.472   3.286   0.169  0.0036  0.9421 -2.2743
  193MOL0     H26578   1.556   3.126   0.188  3.7859  3.2926 -2.4366
  193MOL0     H26579   1.612   3.277  -0.002 -1.9309  1.2857 -1.6520
  193MOL0     H26580   1.464   3.212  -0.075  0.1014 -0.2029 -1.4112
  193MOL0     H26581   1.571   2.979  -0.080  0.9321 -1.1578  1.0343
  193MOL0     H26582   1.647   3.101  -0.170  1.5670 -0.6292  0.1255
  193MOL0     H26583   1.729   2.858   0.126 -1.2280  0.6374 -0.9483
  193MOL0     H26584   1.967   2.863   0.271  0.7152  1.8008 -1.2461
  193MOL0     H26585   2.105   2.911   0.172  0.1945  1.9758  1.7649
  193MOL0     H26586   2.091   2.672   0.220 -1.4164 -1.4275  0.0521
  193MOL0     H26587   1.934   2.654   0.156  0.6791  0.2376  3.2032
  193MOL0     H26588   2.067   2.574  -0.008  0.6695 -0.6343  2.2799
  193MOL0     H26589   2.000   2.719  -0.074  0.5574 -0.5179 -1.0500
  193MOL0     H26590   2.204   2.842  -0.066 -2.6426  1.3969  1.5983
  193MOL0     H26591   2.270   2.728   0.054  1.1377  1.0579 -2.0556
  193MOL0     H26592   2.437   2.509  -0.271 -1.9504 -0.1266  1.8357
  193MOL0     H26593   2.806   2.515  -0.323  1.2477 -0.3814  1.5021
  193MOL0     H26594   2.642   2.446  -0.357 -2.5081  0.3235  1.7926
  193MOL0     H26595   2.733   2.397  -0.212 -0.1018  0.8320  0.4832
  193MOL0     H26596   2.945   2.349   0.037 -0.1312  1.9853  0.9969
  193MOL0     H26597   3.133   2.263   0.134 -2.3058 -0.1843 -1.0733
  193MOL0     H26598   3.380   2.294   0.275  2.5763 -0.8899  0.7880
  193MOL0     H26599   3.336   2.160   0.162  0.8949 -0.1193 -3.0872
  193MOL0     H26600   3.548   2.140   0.071  0.6114 -2.0626  1.5727
  193MOL0     H26601   3.611   2.269   0.170  1.0648 -0.4843  0.2650
  193MOL0     H26602   3.534   1.985   0.250 -0.0842  1.1315 -0.9879
  193MOL0     H26603   3.473   2.104   0.358 -0.2961  0.3584 -0.7921
  193MOL0     H26604   3.695   2.210   0.383  2.4904  1.4464 -1.9340
  193MOL0     H26605   3.768   2.096   0.270  0.8010  2.2626 -0.0561
  193MOL0     H26606   3.651   2.033   0.548 -0.1990 -0.5399  1.2805
  193MOL0     H26607   3.686   1.903   0.428  0.6691 -0.0008 -0.5197
  193MOL0     H26608   3.850   1.936   0.594  0.1594 -0.0299  0.1278
  193MOL0     H26609   3.861   2.104   0.567 -2.2052 -1.5445  2.9837
  193MOL0     H26610   4.062   1.966   0.471 -0.3427 -0.5465 -0.4556
  193MOL0     H26611   3.989   2.092   0.367  0.0641  2.6655  4.1396
  193MOL0     H26612   4.046   1.865   0.271  1.8451  0.2730  1.6883
  193MOL0     H26613   3.873   1.890   0.257  1.3760 -2.1549 -1.8517
  193MOL0     H26614   3.373   2.548  -0.104  0.2093 -1.9197 -0.1968
  193MOL0     H26615   3.155   2.636  -0.183 -1.1422  3.1789  3.4440
  193MOL0     H26616   2.669   2.826   0.037  0.1240  0.3767  0.6966
  193MOL0     H26617   2.427   2.844  -0.015 -2.5344  0.4365 -2.5851
  193MOL0     H26618   0.774   3.320   0.350 -2.0407 -1.0592 -0.5272
  193MOL0     H26619   0.636   3.506   0.395  1.7283  0.7590 -0.2016
  193MOL0     H26620   0.526   3.821   0.621 -0.4982 -2.9424 -0.9427
  193MOL0     H26621   0.421   4.034   0.698 -2.5021  1.5960  1.3611
  193MOL0     H26622   0.004   3.997   0.868 -0.0453 -0.6696  0.1583
  193MOL0     H26623   0.165   3.983   0.947 -0.3582 -1.5992 -0.7407
  193MOL0     H26624   0.072   4.258   0.894  2.1740 -1.3797 -0.6795
  193MOL0     H26625   0.183   4.189   1.018  1.2492 -1.8351 -0.1303
  193MOL0     H26626  -0.115   4.154   1.004 -0.9815  0.3827  0.7867
  193MOL0     H26627  -0.006   4.082   1.120  0.1635 -0.3974 -1.2788
  193MOL0     H26628   0.074   4.280   1.211 -0.4172  3.8587  0.3902
  193MOL0     H26629  -0.113   4.267   1.229 -0.9802 -2.4644 -0.7151
  193MOL0     H26630  -0.038   4.633   1.028 -0.3144  2.0453  2.5162
  193MOL0     H26631   0.042   3.841   0.691  0.2040  1.9151  1.7485
  193MOL0     H26632   0.042   3.617   0.714  0.6443  0.5290  0.8139
  193MOL0     H26633   0.043   3.639   0.536  0.1475 -1.3130  0.0002
  193MOL0     H26634   0.156   3.519   0.615 -0.1929  0.2214 -4.9943
  194MOL0     O26635   5.517  10.115   4.459 -0.3166  0.7800 -0.9911
  194MOL0     C26636   5.536  10.100   4.341 -0.7659 -0.5778  0.5626
  194MOL0     O26637   5.665  10.108   4.275  0.2132  0.3683  0.5192
  194MOL0     C26638   5.771  10.050   4.332 -0.3945  0.6328  0.5287
  194MOL0     C26639   5.770   9.918   4.387 -1.1723 -0.0663 -0.1945
  194MOL0     C26640   5.882   9.868   4.450 -0.0819  0.5815 -0.4145
  194MOL0     C26641   6.003   9.944   4.457 -0.5571 -0.1532 -0.4828
  194MOL0     O26642   6.114   9.893   4.521 -0.2522 -0.2241 -0.0931
  194MOL0     C26643   6.242   9.927   4.465  0.3586  0.4469 -0.6428
  194MOL0     C26644   6.350   9.901   4.564  0.3223 -0.0191  0.5128
  194MOL0     C26645   6.308   9.963   4.697 -0.0076 -0.2854  0.4443
  194MOL0     C26646   6.412   9.939   4.802 -1.0939 -0.5517  0.0784
  194MOL0     C26647   6.375  10.022   4.932  0.1928 -0.0098  0.0547
  194MOL0     C26648   6.472  10.001   5.044  0.0383  0.6191  0.0486
  194MOL0     C26649   6.423  10.088   5.166  0.7965 -0.2813 -0.1844
  194MOL0     C26650   6.493  10.060   5.293 -1.1186 -0.4903 -0.3056
  194MOL0     N26651   6.625  10.129   5.272 -0.6118  0.2512 -0.6157
  194MOL0     C26652   6.660  10.254   5.227  0.2544 -0.1002 -0.0471
  194MOL0     C26653   6.794  10.268   5.231 -1.2200 -0.0877  0.1953
  194MOL0     C26654   6.869  10.377   5.166 -0.6473 -0.3922  0.4105
  194MOL0     C26655   6.925  10.475   5.274  0.0035  0.7100  0.6174
  194MOL0     C26656   7.029  10.558   5.200  0.0306 -0.4428  0.2401
  194MOL0     C26657   7.055  10.684   5.280  0.1024  0.8472  0.2849
  194MOL0     O26658   7.101  10.648   5.407 -0.3113 -0.1874 -0.2047
  194MOL0     C26659   7.232  10.616   5.428  0.2488  0.0312 -0.2594
  194MOL0     C26660   7.289  10.484   5.448  0.0214  0.7235 -0.2187
  194MOL0     C26661   7.427  10.467   5.453  0.2264 -1.1715 -0.3084
  194MOL0     C26662   7.488  10.327   5.465 -0.7580 -0.5010  1.2512
  194MOL0     C26663   7.511  10.582   5.459 -0.0743  0.0109  0.6632
  194MOL0     C26664   7.663  10.578   5.472 -0.2469 -0.1972  0.6642
  194MOL0     O26665   7.719  10.691   5.522 -0.2742 -0.4616 -0.1843
  194MOL0     C26666   7.845  10.689   5.563  0.0102  0.7677  0.0864
  194MOL0     C26667   7.880  10.642   5.687 -0.0465  0.7035 -0.4527
  194MOL0     C26668   8.022  10.637   5.716  1.0448  0.5981 -0.8165
  194MOL0     C26669   8.119  10.677   5.629  0.2983 -0.6412 -0.1946
  194MOL0     O26670   8.253  10.677   5.659 -0.3391  0.0449 -0.0474
  194MOL0     C26671   8.344  10.624   5.555  0.8975 -0.2668 -0.0188
  194MOL0     C26672   8.471  10.630   5.636  0.0614 -1.0886  0.4057
  194MOL0     C26673   8.472  10.565   5.774 -0.3374 -0.0038 -0.1867
  194MOL0     C26674   8.425  10.425   5.770 -0.2430 -0.3937  0.5172
  194MOL0     C26675   8.417  10.375   5.908 -0.2960  0.7018  0.2640
  194MOL0     C26676   8.390  10.223   5.930 -0.1720 -0.3712  0.0503
  194MOL0     C26677   8.270  10.175   5.848  0.5810  0.6563  0.9206
  194MOL0     C26678   8.260  10.026   5.863  0.4779 -0.2319 -0.9285
  194MOL0    Cl26679   8.385   9.954   5.756  0.2756  0.1408 -0.2811
  194MOL0     C26680   8.073  10.713   5.503 -0.0181 -0.1479  0.5709
  194MOL0     C26681   7.943  10.724   5.475  0.7273  0.4287  0.2905
  194MOL0     O26682   7.730  10.480   5.420  0.7532 -0.3373 -0.4347
  194MOL0     C26683   7.452  10.716   5.452  0.6543 -0.0100 -0.5020
  194MOL0     C26684   7.318  10.723   5.415  0.0656  0.5496 -0.4853
  194MOL0     N26685   6.841  10.158   5.300  0.6286  0.3811 -0.5380
  194MOL0     N26686   6.742  10.079   5.320 -0.3713  0.5036  0.7953
  194MOL0     C26687   6.005  10.073   4.405 -0.0359  0.5132 -0.3455
  194MOL0     C26688   5.887  10.123   4.339 -0.3579 -0.7031  0.9639
  194MOL0     C26689   5.422  10.098   4.248 -1.0051  0.6615  0.3752
  194MOL0     C26690   5.428  10.175   4.136 -0.6313 -0.3295  0.0555
  194MOL0     C26691   5.315  10.197   4.057 -0.4617  0.2100  0.0304
  194MOL0     C26692   5.203  10.115   4.063  0.3512 -0.2499  0.2311
  194MOL0     O26693   5.086  10.133   3.985 -0.7256  0.2905  0.3528
  194MOL0     C26694   4.977  10.031   3.985 -0.5157 -0.5347 -0.8332
  194MOL0     C26695   4.875  10.082   4.097 -0.6653 -0.7044 -0.1345
  194MOL0     C26696   4.781   9.973   4.138  0.3116 -0.5703 -0.3816
  194MOL0     C26697   4.702   9.918   4.019  0.0803 -0.5916  0.7298
  194MOL0     C26698   4.626   9.800   4.053  0.7028  0.4085  0.0293
  194MOL0     C26699   4.557   9.701   4.085 -0.2416  0.5720  1.1789
  194MOL0     C26700   5.200  10.026   4.177  0.0258 -0.4032 -0.2680
  194MOL0     C26701   5.306  10.017   4.265  0.1259  0.9650 -0.8275
  194MOL0     C26702   5.305   9.912   4.377 -0.6816  0.1142  0.3909
  194MOL0     H26703   5.676   9.865   4.392 -1.5308  0.6355  1.3758
  194MOL0     H26704   5.873   9.781   4.515 -1.4668  0.2322 -1.0474
  194MOL0     H26705   6.247  10.034   4.442  1.3076  0.3900 -0.7570
  194MOL0     H26706   6.243   9.861   4.377 -1.9570 -1.3490  0.5543
  194MOL0     H26707   6.354   9.791   4.564 -1.2119 -0.1342 -1.5692
  194MOL0     H26708   6.442   9.940   4.521  1.4786 -3.0667 -0.0148
  194MOL0     H26709   6.299  10.071   4.683  2.7109  0.0347  0.6469
  194MOL0     H26710   6.214   9.916   4.728 -0.5936 -0.9441 -2.0680
  194MOL0     H26711   6.425   9.834   4.830  0.4356 -0.2501  0.5903
  194MOL0     H26712   6.507   9.987   4.777 -2.3168  2.7239  1.1891
  194MOL0     H26713   6.274   9.990   4.961 -0.2568 -0.4942 -1.8411
  194MOL0     H26714   6.377  10.122   4.889  0.9765 -0.0460 -0.0108
  194MOL0     H26715   6.481   9.893   5.064 -0.6423  0.2749 -1.3794
  194MOL0     H26716   6.570  10.039   5.015  0.0182  2.3316  2.0180
  194MOL0     H26717   6.315  10.077   5.183  0.3568  4.0321  0.8914
  194MOL0     H26718   6.435  10.192   5.133  0.2642  0.0367  0.6074
  194MOL0     H26719   6.447  10.105   5.381 -0.2994  0.5977 -0.4056
  194MOL0     H26720   6.496   9.951   5.299  1.5842 -0.4826  6.2480
  194MOL0     H26721   6.583  10.322   5.192  0.7647  0.2995 -0.4120
  194MOL0     H26722   6.794  10.428   5.105 -1.7486 -1.3757  0.9019
  194MOL0     H26723   6.954  10.339   5.108 -0.3981 -1.7484  1.6055
  194MOL0     H26724   6.852  10.543   5.320 -1.8053  0.6142 -1.8840
  194MOL0     H26725   6.964  10.417   5.358 -0.0833  1.9248  1.5203
  194MOL0     H26726   7.123  10.502   5.202 -1.5310 -3.2313  2.4230
  194MOL0     H26727   6.994  10.583   5.100 -1.2150 -2.2300  0.1957
  194MOL0     H26728   7.128  10.744   5.224 -1.3645  2.8511  0.4335
  194MOL0     H26729   6.967  10.748   5.292  1.3621  2.5969  0.6691
  194MOL0     H26730   7.232  10.392   5.448  1.0278  0.0832 -0.1806
  194MOL0     H26731   7.406  10.257   5.480 -3.6000  2.3505  0.1743
  194MOL0     H26732   7.567  10.331   5.541  1.9520  2.8941 -1.3894
  194MOL0     H26733   7.529  10.309   5.366  1.3101  4.1475  1.0007
  194MOL0     H26734   7.799  10.607   5.751 -1.3294  2.8259 -0.8099
  194MOL0     H26735   8.066  10.593   5.805  1.1982 -3.0057 -2.4734
  194MOL0     H26736   8.317  10.522   5.525  0.4211 -0.3236  0.5870
  194MOL0     H26737   8.344  10.686   5.465 -1.9104 -0.2747 -0.1358
  194MOL0     H26738   8.555  10.577   5.590  0.5906 -0.4726  0.6657
  194MOL0     H26739   8.482  10.737   5.654 -0.1006 -0.1269 -4.0187
  194MOL0     H26740   8.435  10.635   5.849  0.0741 -1.3880  1.3871
  194MOL0     H26741   8.578  10.552   5.799 -0.7225  1.1709  2.3884
  194MOL0     H26742   8.499  10.371   5.710  0.2157  1.5952 -0.7924
  194MOL0     H26743   8.327  10.422   5.721  0.3183 -1.8901 -0.5668
  194MOL0     H26744   8.513  10.396   5.956 -0.9260 -0.9035  2.4009
  194MOL0     H26745   8.330  10.422   5.954 -2.4552 -0.4796 -2.3261
  194MOL0     H26746   8.369  10.209   6.036  0.8441  0.5714  0.3873
  194MOL0     H26747   8.484  10.174   5.904 -0.6547 -1.8673  0.9494
  194MOL0     H26748   8.283  10.188   5.740 -0.8182 -0.5854  0.5721
  194MOL0     H26749   8.186  10.233   5.887 -0.8555 -0.7004 -0.0092
  194MOL0     H26750   8.162   9.983   5.841  1.6645 -3.0999 -0.9608
  194MOL0     H26751   8.279   9.995   5.966  3.4719  1.5130 -0.8326
  194MOL0     H26752   8.137  10.742   5.421  0.9396 -4.2039 -0.3659
  194MOL0     H26753   7.914  10.753   5.375 -4.0057  2.1851  1.8807
  194MOL0     H26754   7.522  10.799   5.450  1.6577 -0.8468 -0.4095
  194MOL0     H26755   7.274  10.822   5.411 -0.0981  0.4990  0.0227
  194MOL0     H26756   6.099  10.126   4.395  1.3124 -1.3416  1.6483
  194MOL0     H26757   5.886  10.225   4.302  1.6872 -1.0377 -0.1544
  194MOL0     H26758   5.507  10.243   4.107 -0.7920 -0.6862 -1.2737
  194MOL0     H26759   5.310  10.272   3.979  0.9287 -0.2997 -0.5772
  194MOL0     H26760   4.923  10.041   3.890 -0.6957  1.1840 -0.5710
  194MOL0     H26761   5.019   9.931   4.000 -0.6340 -0.6685 -1.3852
  194MOL0     H26762   4.821  10.167   4.054  1.2324  1.4092  1.4208
  194MOL0     H26763   4.930  10.119   4.184 -2.2623 -1.8551  1.4388
  194MOL0     H26764   4.835   9.884   4.171 -0.4602 -0.8952  0.0469
  194MOL0     H26765   4.716  10.003   4.221 -1.5497  0.0664 -2.0082
  194MOL0     H26766   4.765   9.897   3.933  0.0892  3.5689 -0.5065
  194MOL0     H26767   4.629   9.994   3.990  0.2038 -0.3979  0.9256
  194MOL0     H26768   4.504   9.612   4.113  0.2459 -1.3710 -3.2606
  194MOL0     H26769   5.118   9.956   4.194  1.4794 -1.3594  3.9400
  194MOL0     H26770   5.201   9.900   4.409 -1.0785  2.9649  0.4551
  194MOL0     H26771   5.358   9.821   4.348 -1.2834 -0.2705  0.4869
  194MOL0     H26772   5.354   9.950   4.468  1.9115  0.3634 -1.0030
  195MOL0     O26773   4.769   6.712   8.317  0.1421 -0.1046  0.6953
  195MOL0     C26774   4.676   6.658   8.373  0.1134  0.9780  0.3950
  195MOL0     O26775   4.681   6.602   8.504  0.1616 -0.1141  0.5775
  195MOL0     C26776   4.804   6.567   8.552  0.2659 -0.5390  0.0408
  195MOL0     C26777   4.889   6.482   8.476  0.3864  0.2497  0.3777
  195MOL0     C26778   5.017   6.450   8.523  0.7808 -0.0185 -0.0989
  195MOL0     C26779   5.071   6.502   8.642  0.7674 -0.1718  0.6524
  195MOL0     O26780   5.187   6.449   8.690 -0.6794 -0.6633  0.4850
  195MOL0     C26781   5.302   6.486   8.608 -0.1653  0.3602  0.7405
  195MOL0     C26782   5.425   6.462   8.694 -0.5533 -0.6091 -0.0965
  195MOL0     C26783   5.449   6.579   8.788 -0.4399 -0.0700  0.1353
  195MOL0     C26784   5.584   6.572   8.858  0.1823 -0.2602  0.7236
  195MOL0     C26785   5.601   6.691   8.957 -0.1835 -0.2716  0.0950
  195MOL0     C26786   5.747   6.715   9.001  0.7100  1.2436 -0.5590
  195MOL0     C26787   5.832   6.773   8.883  0.5870  0.0958  0.2353
  195MOL0     C26788   5.968   6.818   8.927  0.5654 -0.2392 -0.2015
  195MOL0     N26789   6.049   6.703   8.965  0.2602  0.1398  0.3087
  195MOL0     C26790   6.122   6.635   8.873 -0.0585  0.2744  0.3803
  195MOL0     C26791   6.221   6.567   8.937 -0.2491 -0.7152  0.6854
  195MOL0     C26792   6.307   6.461   8.858 -0.5838 -0.4297 -0.1167
  195MOL0     C26793   6.455   6.506   8.859  1.3621  0.2933  1.0547
  195MOL0     C26794   6.546   6.424   8.762 -0.3540  0.5458 -0.4282
  195MOL0     C26795   6.545   6.272   8.782 -0.4600 -0.0891  1.5530
  195MOL0     O26796   6.582   6.233   8.915 -0.3881 -0.0116 -0.2052
  195MOL0     C26797   6.712   6.192   8.941  0.4390 -0.5410  0.5563
  195MOL0     C26798   6.736   6.115   9.057 -0.0976 -1.1486 -0.4147
  195MOL0     C26799   6.861   6.084   9.107 -0.1079 -0.0020  1.0954
  195MOL0     C26800   6.866   6.027   9.251 -0.2969 -0.7056 -0.3235
  195MOL0     C26801   6.971   6.128   9.042 -0.4495  0.6606  0.5430
  195MOL0     C26802   7.116   6.103   9.079 -0.2178 -0.1276  0.1033
  195MOL0     O26803   7.147   6.033   9.190  0.4575  0.3437 -0.2566
  195MOL0     C26804   7.274   5.993   9.202 -0.0465 -0.1627  0.4037
  195MOL0     C26805   7.370   6.074   9.273 -0.2327 -0.1258  0.3214
  195MOL0     C26806   7.497   6.016   9.284  1.0351  0.2543 -0.1663
  195MOL0     C26807   7.541   5.891   9.226  1.1105  0.3742 -0.7196
  195MOL0     O26808   7.662   5.842   9.268  0.1142 -0.1405 -0.5428
  195MOL0     C26809   7.715   5.732   9.195 -0.0870 -0.5291 -0.1454
  195MOL0     C26810   7.865   5.731   9.220  0.3395  0.4303  0.3532
  195MOL0     C26811   7.941   5.856   9.175 -0.6946 -0.1195  0.1798
  195MOL0     C26812   8.087   5.833   9.196 -1.0396  0.1189  0.1282
  195MOL0     C26813   8.170   5.952   9.149 -0.0822  0.1807  0.3042
  195MOL0     C26814   8.323   5.932   9.177  0.4939 -0.0511  1.1674
  195MOL0     C26815   8.393   6.061   9.118  0.7545  0.0452 -0.3211
  195MOL0     C26816   8.546   6.056   9.116 -0.0610 -0.5793  0.5868
  195MOL0    Cl26817   8.599   5.941   8.993  0.1718  0.3455  0.4133
  195MOL0     C26818   7.444   5.820   9.160 -0.0139 -0.3582  0.0142
  195MOL0     C26819   7.307   5.866   9.155 -0.5435 -0.4417  0.3976
  195MOL0     O26820   7.203   6.149   9.006  0.0461  0.3366  0.6584
  195MOL0     C26821   6.951   6.210   8.924 -1.3479 -0.6980  0.1803
  195MOL0     C26822   6.822   6.237   8.872  0.0366 -0.2667 -0.4562
  195MOL0     N26823   6.213   6.604   9.072 -1.0130  0.2152  0.9280
  195MOL0     N26824   6.112   6.686   9.081 -0.6325 -0.2674 -0.1064
  195MOL0     C26825   4.982   6.579   8.723  0.2957  0.9092  0.6556
  195MOL0     C26826   4.859   6.621   8.675 -0.6662  0.3796  0.5245
  195MOL0     C26827   4.548   6.673   8.288 -1.1295  0.5707  0.0677
  195MOL0     C26828   4.566   6.662   8.149  0.1856 -0.4952 -1.0402
  195MOL0     C26829   4.450   6.653   8.062 -1.5866 -0.1411  0.0680
  195MOL0     C26830   4.316   6.657   8.120 -0.6259 -0.3681  0.5233
  195MOL0     O26831   4.194   6.646   8.057  0.0547 -0.1321 -0.1295
  195MOL0     C26832   4.200   6.627   7.917 -0.1056 -0.1793 -0.3376
  195MOL0     C26833   4.191   6.472   7.889 -0.7102  0.1051 -0.3890
  195MOL0     C26834   4.056   6.415   7.928  0.6792 -0.4494  0.5582
  195MOL0     C26835   4.057   6.267   7.921  0.2783  0.9697  0.7914
  195MOL0     C26836   3.916   6.222   7.938 -0.2216 -0.1673 -0.1286
  195MOL0     C26837   3.795   6.205   7.942 -0.0671 -0.5476  0.7737
  195MOL0     C26838   4.305   6.679   8.262  0.4680  0.7432 -0.1746
  195MOL0     C26839   4.423   6.683   8.345  0.2084  0.4006  0.3802
  195MOL0     C26840   4.388   6.676   8.489 -0.1310 -0.6527 -0.4981
  195MOL0     H26841   4.851   6.449   8.380  1.7767 -1.2487  0.3011
  195MOL0     H26842   5.076   6.382   8.463 -1.1234 -1.4716 -0.4026
  195MOL0     H26843   5.285   6.590   8.577 -0.4667  0.3037  0.7131
  195MOL0     H26844   5.303   6.428   8.515 -1.1801  1.6862 -0.1225
  195MOL0     H26845   5.424   6.365   8.744 -1.4661 -1.9195 -2.5175
  195MOL0     H26846   5.521   6.457   8.641  0.5195 -1.0779  1.7941
  195MOL0     H26847   5.443   6.670   8.727 -0.4678 -0.8791 -1.1054
  195MOL0     H26848   5.367   6.581   8.860 -1.4703 -0.2645 -1.0009
  195MOL0     H26849   5.598   6.476   8.908  0.5625 -0.8602 -0.4925
  195MOL0     H26850   5.666   6.576   8.786  0.8214  0.1985  1.4603
  195MOL0     H26851   5.529   6.672   9.037 -1.0129  1.2367 -0.2527
  195MOL0     H26852   5.567   6.784   8.910 -0.5645 -0.2036  0.4961
  195MOL0     H26853   5.752   6.777   9.091  2.2535  0.5846 -0.1574
  195MOL0     H26854   5.786   6.616   9.028 -0.9728  1.4639  3.3227
  195MOL0     H26855   5.768   6.853   8.845  1.5103  0.7720  0.0841
  195MOL0     H26856   5.847   6.698   8.804  0.9395  1.0513 -0.6233
  195MOL0     H26857   6.020   6.876   8.850  0.7669 -0.0906  0.0444
  195MOL0     H26858   5.959   6.886   9.012  1.5271 -0.0871 -0.2174
  195MOL0     H26859   6.102   6.623   8.767 -1.1048 -0.4717  0.6351
  195MOL0     H26860   6.275   6.440   8.756 -0.7813 -0.0197 -0.1393
  195MOL0     H26861   6.281   6.367   8.908 -3.2999  0.4382  0.2227
  195MOL0     H26862   6.469   6.612   8.837  1.4111 -0.3072 -2.4641
  195MOL0     H26863   6.494   6.496   8.961 -1.1014  1.1136  2.1546
  195MOL0     H26864   6.530   6.454   8.658 -1.3713  0.1602 -0.3927
  195MOL0     H26865   6.648   6.446   8.794  0.3628 -0.7345 -1.7375
  195MOL0     H26866   6.449   6.222   8.764 -0.2703 -1.1178  3.1267
  195MOL0     H26867   6.607   6.226   8.705 -1.7319  2.6518 -1.3222
  195MOL0     H26868   6.653   6.079   9.118 -1.3754 -1.3448 -2.1944
  195MOL0     H26869   6.760   6.025   9.279 -1.4312 -1.5420 -4.0409
  195MOL0     H26870   6.930   6.077   9.324 -1.5570 -2.2891  1.9947
  195MOL0     H26871   6.896   5.922   9.253 -0.4129 -0.7316  0.3941
  195MOL0     H26872   7.354   6.179   9.297  1.7440  0.1640  0.5157
  195MOL0     H26873   7.568   6.069   9.347  0.3140 -1.0844  1.8577
  195MOL0     H26874   7.659   5.649   9.239 -3.4590  1.0937 -1.0512
  195MOL0     H26875   7.699   5.739   9.087  0.4411  1.9005 -0.1354
  195MOL0     H26876   7.876   5.716   9.327 -0.5441  1.0062  0.5362
  195MOL0     H26877   7.902   5.645   9.163  0.3311 -0.0425  1.0490
  195MOL0     H26878   7.910   5.945   9.230 -4.6210 -1.8606  1.1313
  195MOL0     H26879   7.931   5.867   9.066  0.2725  2.1266  0.2648
  195MOL0     H26880   8.122   5.748   9.136 -3.4056 -0.0135 -1.1949
  195MOL0     H26881   8.108   5.791   9.296 -4.7094 -0.3554  0.8338
  195MOL0     H26882   8.141   5.972   9.045 -1.4018  1.5303  0.8998
  195MOL0     H26883   8.132   6.042   9.198  0.1127  0.0149  0.7629
  195MOL0     H26884   8.349   5.839   9.125 -2.9435  1.3471 -3.8686
  195MOL0     H26885   8.344   5.921   9.283  1.5243  2.5922  1.3091
  195MOL0     H26886   8.363   6.153   9.169  0.6623 -0.4650  0.5678
  195MOL0     H26887   8.355   6.066   9.015  0.9423 -1.5723 -0.4925
  195MOL0     H26888   8.595   6.043   9.213  0.7448 -2.0698  0.0110
  195MOL0     H26889   8.574   6.158   9.087 -0.8795 -0.4099  0.3654
  195MOL0     H26890   7.459   5.717   9.131  1.3969  0.4243 -2.3524
  195MOL0     H26891   7.236   5.801   9.106  0.9704 -0.4486 -1.9617
  195MOL0     H26892   7.037   6.237   8.862 -1.2579  0.4678  0.7883
  195MOL0     H26893   6.805   6.283   8.776 -0.1112 -0.4396 -0.5125
  195MOL0     H26894   5.006   6.596   8.827 -1.7651 -0.9291  1.5029
  195MOL0     H26895   4.801   6.676   8.748  0.9543 -0.9324  2.9280
  195MOL0     H26896   4.664   6.664   8.103  0.8184  4.4774  0.0110
  195MOL0     H26897   4.478   6.642   7.958  0.7285 -1.4884  0.7703
  195MOL0     H26898   4.126   6.692   7.868 -0.9497  1.0893  2.4423
  195MOL0     H26899   4.294   6.667   7.879 -0.9917  1.9547 -0.4402
  195MOL0     H26900   4.275   6.415   7.928  1.6309  3.0894 -0.6946
  195MOL0     H26901   4.195   6.464   7.780  0.1950  1.6379 -0.5029
  195MOL0     H26902   4.028   6.432   8.033 -0.6802  2.0670 -0.1394
  195MOL0     H26903   3.985   6.467   7.864  2.0375 -0.7679 -1.2938
  195MOL0     H26904   4.131   6.232   7.994 -1.2391  0.3812  2.0941
  195MOL0     H26905   4.088   6.236   7.820 -3.5113 -1.0247  0.0523
  195MOL0     H26906   3.691   6.181   7.934  0.3816 -2.3236 -0.1907
  195MOL0     H26907   4.208   6.693   8.310  0.9240 -1.5417  1.5853
  195MOL0     H26908   4.445   6.753   8.541 -0.9584  0.2818 -0.9368
  195MOL0     H26909   4.281   6.699   8.494 -0.4280 -0.5936 -4.1709
  195MOL0     H26910   4.385   6.577   8.535  0.1066  0.0073  0.9785
  196MOL0     O26911   7.235   3.620   7.162 -0.6146 -0.0459  0.7073
  196MOL0     C26912   7.234   3.506   7.196  0.0361 -0.0298  0.5308
  196MOL0     O26913   7.288   3.405   7.130  0.9267  0.0965 -0.0004
  196MOL0     C26914   7.364   3.424   7.019  0.3550  0.6662  0.2180
  196MOL0     C26915   7.492   3.459   7.041  0.1672 -0.2106  0.1992
  196MOL0     C26916   7.567   3.440   6.923 -0.7245  0.3564 -0.5112
  196MOL0     C26917   7.518   3.411   6.798  0.2103 -0.2958  0.6583
  196MOL0     O26918   7.609   3.399   6.697 -0.4904  0.7398  0.9031
  196MOL0     C26919   7.578   3.480   6.583  0.0533 -0.1073  0.4087
  196MOL0     C26920   7.680   3.480   6.478 -0.2189  0.4391 -0.2218
  196MOL0     C26921   7.805   3.575   6.523  0.1842  0.3719  0.1792
  196MOL0     C26922   7.922   3.550   6.431  0.5206 -0.0355 -0.0258
  196MOL0     C26923   8.049   3.613   6.487  0.5657 -0.3672 -0.1405
  196MOL0     C26924   8.178   3.587   6.395  0.1102 -0.1406 -0.0473
  196MOL0     C26925   8.324   3.614   6.446 -0.3889  0.7891 -0.2412
  196MOL0     C26926   8.360   3.540   6.570 -0.4782  0.3782  0.3372
  196MOL0     N26927   8.504   3.551   6.596 -0.5838  0.1301  0.6920
  196MOL0     C26928   8.611   3.476   6.555 -0.2415  0.1449 -0.2290
  196MOL0     C26929   8.723   3.509   6.627  0.5485 -0.9947  0.8596
  196MOL0     C26930   8.861   3.454   6.631  0.7466  0.0767  0.6659
  196MOL0     C26931   8.946   3.551   6.557  0.9876  0.6808 -0.6881
  196MOL0     C26932   8.919   3.551   6.404  0.0685 -0.0840 -0.1391
  196MOL0     C26933   9.032   3.616   6.332 -0.2068  0.2537  0.7409
  196MOL0     O26934   9.169   3.602   6.378  0.0336  0.1088  0.3834
  196MOL0     C26935   9.272   3.653   6.301 -0.2029  0.0223  0.0171
  196MOL0     C26936   9.396   3.613   6.344  0.9946  0.0779 -0.2259
  196MOL0     C26937   9.510   3.659   6.278 -0.7180  0.0648  0.0613
  196MOL0     C26938   9.645   3.615   6.332 -0.1116 -0.1644 -0.1036
  196MOL0     C26939   9.488   3.743   6.163 -0.2605 -0.5438 -0.0902
  196MOL0     C26940   9.605   3.808   6.096 -0.0512 -0.6652  0.4407
  196MOL0     O26941   9.729   3.796   6.148 -0.0873  1.0541  0.2848
  196MOL0     C26942   9.844   3.853   6.087 -0.5507  0.3605  0.0617
  196MOL0     C26943   9.959   3.778   6.116 -0.0958  0.1044 -0.8409
  196MOL0     C26944  10.083   3.801   6.057  0.0563  1.2242  0.5762
  196MOL0     C26945  10.100   3.909   5.968 -0.7923  0.3571 -0.0360
  196MOL0     O26946  10.222   3.930   5.908  0.3033  0.2781 -0.2096
  196MOL0     C26947  10.341   3.944   5.985 -0.8826  0.2327  0.1408
  196MOL0     C26948  10.456   3.978   5.897 -0.1370 -0.0263  0.5239
  196MOL0     C26949  10.514   3.853   5.827 -0.1973  0.1911  0.1963
  196MOL0     C26950  10.662   3.877   5.785 -0.4846  0.5264 -0.8688
  196MOL0     C26951  10.733   3.795   5.682 -0.3724 -0.7013  0.2975
  196MOL0     C26952  10.700   3.647   5.694 -0.0205  0.1770 -0.6150
  196MOL0     C26953  10.795   3.568   5.606 -0.2969 -0.1927 -0.1558
  196MOL0     C26954  10.780   3.421   5.649  0.0905  0.3032 -0.4062
  196MOL0    Cl26955  10.662   3.337   5.541  0.0653 -0.2914  0.4288
  196MOL0     C26956   9.990   3.994   5.941  1.3172  0.1529 -0.0583
  196MOL0     C26957   9.858   3.961   5.997 -0.4122 -0.0084  0.6641
  196MOL0     O26958   9.579   3.878   6.000 -0.3744 -0.5158  0.9497
  196MOL0     C26959   9.362   3.774   6.120 -0.3965 -0.5999  0.2649
  196MOL0     C26960   9.256   3.734   6.192  0.0273  0.1511 -0.3779
  196MOL0     N26961   8.678   3.620   6.696  0.3121  0.2654 -0.5678
  196MOL0     N26962   8.554   3.649   6.675  0.3414  0.1319  0.0354
  196MOL0     C26963   7.381   3.377   6.783  0.1272  0.3504  0.3225
  196MOL0     C26964   7.302   3.380   6.897  0.0672 -0.8816  0.1317
  196MOL0     C26965   7.159   3.478   7.324  0.1760  0.0981  0.0424
  196MOL0     C26966   7.180   3.572   7.432 -0.2108  0.0061  1.2408
  196MOL0     C26967   7.125   3.553   7.558  0.0099 -0.4566  0.6876
  196MOL0     C26968   7.052   3.438   7.585 -0.2672 -0.0020  0.1554
  196MOL0     O26969   6.999   3.431   7.712  0.9775 -0.8167 -0.0056
  196MOL0     C26970   6.900   3.331   7.734 -0.5963 -0.0142  0.9401
  196MOL0     C26971   6.884   3.322   7.886  0.3630 -0.1425 -0.3022
  196MOL0     C26972   6.780   3.428   7.926 -0.2893 -0.5500  0.5013
  196MOL0     C26973   6.783   3.444   8.083  0.8349 -0.6706  0.1132
  196MOL0     C26974   6.689   3.553   8.119 -0.6839  0.2283  0.5042
  196MOL0     C26975   6.624   3.652   8.154  1.2401  0.0291 -0.3512
  196MOL0     C26976   7.028   3.358   7.474  0.0320 -0.2659 -0.2640
  196MOL0     C26977   7.076   3.369   7.351  0.1193 -0.4165  0.3630
  196MOL0     C26978   7.073   3.248   7.259  0.2912  0.5468 -0.0968
  196MOL0     H26979   7.534   3.475   7.140  0.8357  1.4682 -0.3184
  196MOL0     H26980   7.673   3.462   6.932 -0.1304 -2.5214  0.2264
  196MOL0     H26981   7.578   3.584   6.616 -2.3400 -0.2415  0.9904
  196MOL0     H26982   7.479   3.461   6.543 -0.0109  4.2581 -2.1378
  196MOL0     H26983   7.722   3.380   6.466  0.1742  0.4857  0.7185
  196MOL0     H26984   7.630   3.513   6.387 -0.5478  1.8840  0.4520
  196MOL0     H26985   7.766   3.677   6.511  0.4196  0.4208 -0.1835
  196MOL0     H26986   7.831   3.566   6.629  1.7058  0.1742 -0.1856
  196MOL0     H26987   7.948   3.444   6.432  0.0914 -0.1535  1.9049
  196MOL0     H26988   7.895   3.566   6.326 -1.0358  2.1378  0.6432
  196MOL0     H26989   8.075   3.560   6.579  3.0869 -0.9960 -1.1270
  196MOL0     H26990   8.025   3.719   6.500  1.4745 -0.1543 -0.1442
  196MOL0     H26991   8.179   3.479   6.376 -0.3595 -0.3627  1.1446
  196MOL0     H26992   8.169   3.636   6.298  1.1919  0.9501  0.3799
  196MOL0     H26993   8.335   3.718   6.478  0.9076  0.6769 -0.2693
  196MOL0     H26994   8.401   3.593   6.371 -0.7935  2.2303 -1.1067
  196MOL0     H26995   8.299   3.579   6.652 -0.7302  1.5280 -0.3850
  196MOL0     H26996   8.344   3.433   6.553 -2.3895  0.3944  1.7142
  196MOL0     H26997   8.603   3.394   6.484  0.2787  0.1825 -0.3345
  196MOL0     H26998   8.859   3.366   6.566  3.2957 -0.4442  1.1591
  196MOL0     H26999   8.892   3.439   6.735  2.6240 -0.0458  0.1393
  196MOL0     H27000   8.935   3.652   6.598 -1.5647  0.1509  0.1585
  196MOL0     H27001   9.049   3.527   6.585  0.7047  3.4472  3.6450
  196MOL0     H27002   8.919   3.448   6.368 -1.1465  0.0888 -0.6686
  196MOL0     H27003   8.824   3.593   6.373 -2.2176 -3.3041  1.8283
  196MOL0     H27004   9.023   3.590   6.226  2.9786  0.2378  0.3761
  196MOL0     H27005   9.010   3.722   6.346 -0.9917  0.5426 -1.9898
  196MOL0     H27006   9.409   3.539   6.423 -0.4523  2.7390  2.7372
  196MOL0     H27007   9.687   3.708   6.371 -3.9861  1.1247  1.4772
  196MOL0     H27008   9.698   3.574   6.245 -2.1483 -0.8288 -1.1002
  196MOL0     H27009   9.648   3.547   6.418 -0.7452  0.5284  0.4754
  196MOL0     H27010   9.948   3.702   6.192 -3.0069  2.2329  1.0671
  196MOL0     H27011  10.170   3.739   6.076 -0.7273  0.0095  0.3083
  196MOL0     H27012  10.328   4.033   6.047 -0.3763 -1.0062  2.1014
  196MOL0     H27013  10.354   3.849   6.038 -1.1774 -0.1447 -0.4562
  196MOL0     H27014  10.424   4.048   5.818 -0.1427 -2.0520 -1.3745
  196MOL0     H27015  10.538   4.001   5.965 -0.0949  3.0489 -0.3831
  196MOL0     H27016  10.457   3.816   5.741 -1.2676 -1.4114  1.5298
  196MOL0     H27017  10.502   3.779   5.907  0.3723  0.6304  0.6968
  196MOL0     H27018  10.721   3.866   5.877  0.1454  3.4230 -0.8341
  196MOL0     H27019  10.670   3.980   5.751  0.3327  1.8192  2.7893
  196MOL0     H27020  10.709   3.827   5.581  0.2465 -0.6582  0.1580
  196MOL0     H27021  10.841   3.811   5.695 -0.1387 -0.4460 -1.5953
  196MOL0     H27022  10.596   3.630   5.664  0.3499 -1.0088 -1.3148
  196MOL0     H27023  10.716   3.615   5.797  1.2904  3.4747  0.3125
  196MOL0     H27024  10.903   3.582   5.618 -0.2591  1.2864 -1.9321
  196MOL0     H27025  10.775   3.571   5.499  0.2175  1.5732 -0.2291
  196MOL0     H27026  10.755   3.416   5.756  3.7826  0.0150  0.5970
  196MOL0     H27027  10.879   3.374   5.648  0.7802  1.7169 -0.9643
  196MOL0     H27028   9.999   4.073   5.867  0.3350 -0.4248 -0.8360
  196MOL0     H27029   9.773   4.016   5.957 -1.2804 -1.8387 -0.1184
  196MOL0     H27030   9.337   3.841   6.038 -0.2354  0.7067  1.2394
  196MOL0     H27031   9.160   3.782   6.177 -0.1504 -0.1432 -0.1923
  196MOL0     H27032   7.340   3.350   6.686  0.3269 -0.1474  0.3751
  196MOL0     H27033   7.197   3.352   6.898  0.4403 -2.3731  1.2367
  196MOL0     H27034   7.251   3.651   7.414 -0.0764 -0.5263 -0.9606
  196MOL0     H27035   7.139   3.622   7.641 -0.2080 -0.6012  0.8467
  196MOL0     H27036   6.809   3.359   7.680 -0.7422 -3.0197 -0.5761
  196MOL0     H27037   6.937   3.235   7.697 -0.7793  0.8016 -1.5061
  196MOL0     H27038   6.984   3.344   7.924 -0.4487  0.5384  1.6048
  196MOL0     H27039   6.853   3.226   7.929 -1.7667 -0.3043 -2.0168
  196MOL0     H27040   6.807   3.526   7.886  1.4009 -1.3380 -0.3836
  196MOL0     H27041   6.678   3.405   7.895  0.1197  0.5937 -1.9322
  196MOL0     H27042   6.882   3.468   8.122  0.6784  1.9218 -0.8852
  196MOL0     H27043   6.737   3.355   8.127 -0.0048 -0.3591 -0.1143
  196MOL0     H27044   6.557   3.733   8.175 -0.9016 -0.4345 -4.3536
  196MOL0     H27045   6.966   3.269   7.489 -0.0812 -0.7463 -3.1111
  196MOL0     H27046   7.064   3.290   7.158  2.2607  0.7822 -0.1993
  196MOL0     H27047   7.170   3.197   7.254  0.7590  1.5262 -2.6017
  196MOL0     H27048   6.991   3.179   7.285  0.5501 -0.1672 -1.0713
  197MOL0     O27049   3.669   0.801  11.352 -1.1192 -0.3300  0.5299
  197MOL0     C27050   3.775   0.742  11.354 -0.0088  0.0646  0.1930
  197MOL0     O27051   3.898   0.791  11.350  0.2962 -0.4156  0.2514
  197MOL0     C27052   3.896   0.930  11.338 -0.5896  0.4009  0.3090
  197MOL0     C27053   3.899   1.024  11.442  0.4688  0.2200 -0.7312
  197MOL0     C27054   3.918   1.166  11.422  0.1233 -0.0094 -0.2666
  197MOL0     C27055   3.939   1.207  11.298 -0.8870 -0.0209 -0.8396
  197MOL0     O27056   3.951   1.342  11.276 -0.2461  0.4729 -0.2529
  197MOL0     C27057   3.825   1.416  11.305 -0.3251  0.0587 -0.4080
  197MOL0     C27058   3.840   1.568  11.317  0.1631 -0.1559  0.0853
  197MOL0     C27059   3.703   1.616  11.361  0.0189 -0.0170  0.6959
  197MOL0     C27060   3.689   1.763  11.358  0.1979 -0.3374  0.4571
  197MOL0     C27061   3.568   1.819  11.441  0.0152 -0.1107 -1.0611
  197MOL0     C27062   3.432   1.762  11.392  0.0068 -0.2624  0.5149
  197MOL0     C27063   3.310   1.848  11.430  0.1952 -0.0095  0.2579
  197MOL0     C27064   3.178   1.796  11.365 -0.0395  0.2608 -0.1450
  197MOL0     N27065   3.065   1.859  11.437 -0.2215  0.6485 -0.9573
  197MOL0     C27066   2.999   1.793  11.544  0.1864  0.2070 -0.3449
  197MOL0     C27067   2.880   1.850  11.553  0.4840  0.5965 -0.2287
  197MOL0     C27068   2.772   1.824  11.658 -0.6491  1.1924  0.4345
  197MOL0     C27069   2.645   1.802  11.584 -0.2002  0.3802  0.3208
  197MOL0     C27070   2.536   1.787  11.691 -0.1686  0.5169 -0.1003
  197MOL0     C27071   2.386   1.785  11.646 -0.2557  0.5448 -0.6094
  197MOL0     O27072   2.351   1.679  11.549  0.3197 -1.4158 -0.5415
  197MOL0     C27073   2.219   1.643  11.515  0.1233  0.6671  0.1771
  197MOL0     C27074   2.202   1.548  11.415 -0.0120  0.0983 -0.7584
  197MOL0     C27075   2.063   1.520  11.369  0.0098 -1.3446 -0.5989
  197MOL0     C27076   2.056   1.412  11.263  0.3554 -0.1275 -1.3052
  197MOL0     C27077   1.960   1.610  11.405 -0.8346  1.4572 -0.2036
  197MOL0     C27078   1.818   1.591  11.370 -0.3093 -1.0778 -0.0329
  197MOL0     O27079   1.759   1.456  11.376 -0.6456 -0.2084  0.0579
  197MOL0     C27080   1.645   1.437  11.308 -0.0766  0.4318 -0.4170
  197MOL0     C27081   1.520   1.458  11.371  0.3651 -0.8335  0.2015
  197MOL0     C27082   1.407   1.429  11.298  0.1396 -0.7042  0.8513
  197MOL0     C27083   1.415   1.381  11.163  0.0730  0.4737  0.3346
  197MOL0     O27084   1.297   1.355  11.098 -0.0941 -0.7225  0.1169
  197MOL0     C27085   1.281   1.218  11.057  0.5520 -0.1377  1.4781
  197MOL0     C27086   1.136   1.183  11.014 -0.0669 -0.6160 -0.3635
  197MOL0     C27087   1.039   1.208  11.135 -0.4416 -0.5602 -0.3188
  197MOL0     C27088   0.893   1.242  11.085  0.1863  0.3268  0.1994
  197MOL0     C27089   0.802   1.228  11.201 -0.0328 -0.0949  0.4264
  197MOL0     C27090   0.662   1.266  11.148 -0.3006  0.1763  0.2007
  197MOL0     C27091   0.554   1.224  11.246 -0.8516 -0.2330 -0.5998
  197MOL0     C27092   0.442   1.320  11.288 -0.6923 -0.0385  0.8283
  197MOL0    Cl27093   0.338   1.387  11.162  0.2172  0.2181 -0.1177
  197MOL0     C27094   1.540   1.360  11.103  0.3413 -0.6024 -0.4792
  197MOL0     C27095   1.659   1.393  11.174 -0.0800  0.7918 -0.3536
  197MOL0     O27096   1.760   1.698  11.340 -0.2456  0.7357 -0.1806
  197MOL0     C27097   1.991   1.698  11.506 -0.8484 -0.0785  1.2804
  197MOL0     C27098   2.111   1.709  11.569  0.6532  0.1490  0.5676
  197MOL0     N27099   2.872   1.950  11.461 -0.0599 -0.4767  0.0482
  197MOL0     N27100   2.972   1.951  11.390 -0.7509  0.7153  0.2079
  197MOL0     C27101   3.933   1.122  11.186 -0.3841  0.3702  0.7105
  197MOL0     C27102   3.912   0.985  11.213 -1.4802 -0.7083 -0.1253
  197MOL0     C27103   3.754   0.599  11.394 -0.0614  0.4911  0.6459
  197MOL0     C27104   3.863   0.553  11.464  0.4276 -0.7706 -1.0327
  197MOL0     C27105   3.861   0.422  11.514 -0.4957 -0.3130  0.9346
  197MOL0     C27106   3.745   0.345  11.508 -0.1129  0.2578  0.4188
  197MOL0     O27107   3.735   0.212  11.565  0.1082 -0.5997 -0.3574
  197MOL0     C27108   3.841   0.171  11.652  0.1483  0.7638 -0.1421
  197MOL0     C27109   3.790   0.050  11.748 -0.5121 -0.5734  0.2917
  197MOL0     C27110   3.774  -0.080  11.671 -0.1882 -0.0042  0.3611
  197MOL0     C27111   3.901  -0.166  11.659 -0.3163 -0.2275  0.6123
  197MOL0     C27112   3.967  -0.228  11.779  0.1628 -0.4965 -0.1824
  197MOL0     C27113   4.024  -0.284  11.877 -0.0494 -0.3696  0.0053
  197MOL0     C27114   3.644   0.391  11.436  0.8386  1.0447  0.2583
  197MOL0     C27115   3.644   0.518  11.370  0.0300  0.9741 -0.1302
  197MOL0     C27116   3.543   0.554  11.273  0.0818 -0.5110  0.6844
  197MOL0     H27117   3.895   0.996  11.547  0.5219  2.7101 -0.0153
  197MOL0     H27118   3.919   1.228  11.511  0.1863 -0.2810 -0.0785
  197MOL0     H27119   3.774   1.377  11.394 -1.7549  1.6618 -0.4831
  197MOL0     H27120   3.771   1.398  11.212  2.7427 -0.8479 -2.1232
  197MOL0     H27121   3.906   1.593  11.401 -2.0653  0.3733  1.8078
  197MOL0     H27122   3.879   1.609  11.224  0.8588 -0.9439  0.0200
  197MOL0     H27123   3.621   1.577  11.300 -0.9442  0.5180  1.6159
  197MOL0     H27124   3.689   1.573  11.461  1.1533 -1.0822  0.4265
  197MOL0     H27125   3.787   1.795  11.393  0.7993  0.4400 -1.7689
  197MOL0     H27126   3.682   1.794  11.253 -0.5638 -0.0688  0.5784
  197MOL0     H27127   3.559   1.927  11.426  1.0455  0.0123 -0.8365
  197MOL0     H27128   3.573   1.796  11.548 -0.1458 -1.5215 -1.3425
  197MOL0     H27129   3.438   1.761  11.283  0.1431  0.9822  0.4931
  197MOL0     H27130   3.417   1.659  11.426 -2.2801 -0.1223  0.0530
  197MOL0     H27131   3.330   1.947  11.388  2.9497 -1.8125 -3.1958
  197MOL0     H27132   3.300   1.854  11.539  1.9234 -1.2932  0.5191
  197MOL0     H27133   3.187   1.849  11.270  1.8829  1.0904  0.4579
  197MOL0     H27134   3.182   1.687  11.358  2.7512  0.0772  2.4461
  197MOL0     H27135   3.049   1.717  11.603  1.9853 -0.0631 -2.0664
  197MOL0     H27136   2.760   1.919  11.711 -0.5654  0.6495  1.4593
  197MOL0     H27137   2.804   1.738  11.717  1.3759 -0.0235 -2.2344
  197MOL0     H27138   2.618   1.886  11.520  0.7579  1.5845  1.4387
  197MOL0     H27139   2.659   1.714  11.520  2.5102  1.3118 -0.4983
  197MOL0     H27140   2.557   1.690  11.736  2.8205  1.0589 -0.1180
  197MOL0     H27141   2.535   1.874  11.758 -0.9045  2.4365 -2.4740
  197MOL0     H27142   2.326   1.763  11.734  0.1601 -1.1162 -0.7039
  197MOL0     H27143   2.359   1.877  11.594 -0.8633 -0.2006 -1.6401
  197MOL0     H27144   2.293   1.498  11.386  0.2690  1.7775 -3.1089
  197MOL0     H27145   2.076   1.448  11.162  0.1250  3.4108 -0.2167
  197MOL0     H27146   1.952   1.378  11.254  0.6159 -0.3171 -4.4518
  197MOL0     H27147   2.113   1.331  11.309  0.8698  1.0969  0.3314
  197MOL0     H27148   1.518   1.513  11.465  1.7298  0.3595 -0.4313
  197MOL0     H27149   1.305   1.438  11.335  0.4382 -2.1409  2.1333
  197MOL0     H27150   1.351   1.196  10.976  1.6186 -2.5953  2.9777
  197MOL0     H27151   1.313   1.162  11.145  1.1073 -0.8115  0.8602
  197MOL0     H27152   1.102   1.242  10.928 -3.5142 -2.0778 -0.1830
  197MOL0     H27153   1.139   1.078  10.985  3.3937 -0.7440  0.0063
  197MOL0     H27154   1.081   1.292  11.191 -0.5412 -0.0315 -1.0263
  197MOL0     H27155   1.036   1.112  11.186  3.2610 -0.5242  0.2727
  197MOL0     H27156   0.859   1.172  11.008  0.1357  2.7032 -2.0533
  197MOL0     H27157   0.876   1.345  11.052 -3.1860  0.0051  0.5785
  197MOL0     H27158   0.816   1.132  11.251  1.3595  1.6171  3.6504
  197MOL0     H27159   0.835   1.296  11.280  0.4185 -0.1131  0.2603
  197MOL0     H27160   0.643   1.214  11.053  0.5922 -2.0135  1.1613
  197MOL0     H27161   0.659   1.370  11.115  0.3101 -0.1668 -1.0283
  197MOL0     H27162   0.598   1.179  11.336 -3.3581  1.3041  1.5715
  197MOL0     H27163   0.513   1.130  11.207 -1.5668  0.6205 -1.9821
  197MOL0     H27164   0.483   1.400  11.349  0.6105 -1.9810  2.6553
  197MOL0     H27165   0.381   1.257  11.353  0.0537 -0.8088  0.7967
  197MOL0     H27166   1.542   1.322  11.002 -1.5345  1.4377 -1.3837
  197MOL0     H27167   1.762   1.375  11.146 -0.3209 -0.4855 -0.4606
  197MOL0     H27168   1.912   1.768  11.534 -2.0454  0.3367 -2.6005
  197MOL0     H27169   2.120   1.788  11.643  1.2398 -0.3662  1.0563
  197MOL0     H27170   3.937   1.155  11.082 -1.6603 -1.6629 -0.0370
  197MOL0     H27171   3.913   0.918  11.127  2.8202  0.9360 -1.6484
  197MOL0     H27172   3.953   0.612  11.481 -1.4189  1.9040  0.0794
  197MOL0     H27173   3.950   0.380  11.559 -0.2460 -0.0468  0.7015
  197MOL0     H27174   3.919   0.138  11.583 -0.6574  0.3696 -0.8937
  197MOL0     H27175   3.875   0.254  11.715 -1.3158  0.0237  1.7196
  197MOL0     H27176   3.691   0.076  11.785 -0.6672 -1.7938  0.7848
  197MOL0     H27177   3.862   0.044  11.830  1.6054  3.9851 -0.9269
  197MOL0     H27178   3.699  -0.137  11.726  0.1178  0.1741  0.9635
  197MOL0     H27179   3.746  -0.043  11.572  0.8967  1.7414  0.6695
  197MOL0     H27180   3.980  -0.109  11.608  2.1394 -2.5600  1.6010
  197MOL0     H27181   3.883  -0.247  11.588  0.3709 -0.3522  0.5687
  197MOL0     H27182   4.088  -0.322  11.954  2.6223  0.6403 -1.5834
  197MOL0     H27183   3.565   0.319  11.418  1.4005  0.2590  0.8714
  197MOL0     H27184   3.599   0.592  11.188  1.5347  1.5758  2.4684
  197MOL0     H27185   3.469   0.478  11.244 -3.5935  3.3205 -1.0873
  197MOL0     H27186   3.482   0.638  11.306 -0.7106 -0.9858  0.4808
  198MOL0     O27187   7.479  10.376   6.033  0.3788  0.2486 -0.1800
  198MOL0     C27188   7.498  10.493   6.000  0.2375  0.0031 -1.4078
  198MOL0     O27189   7.401  10.580   5.953 -0.0039 -0.1754  0.4093
  198MOL0     C27190   7.272  10.552   5.942 -0.2230  0.1696 -0.1364
  198MOL0     C27191   7.196  10.521   6.052  0.8876  0.1393 -0.0682
  198MOL0     C27192   7.066  10.483   6.043  0.4169 -0.3144 -0.4654
  198MOL0     C27193   6.998  10.490   5.924  0.1231 -0.0939  0.0932
  198MOL0     O27194   6.865  10.459   5.913 -0.0039  0.0410 -0.0680
  198MOL0     C27195   6.798  10.379   6.012 -0.3234  0.2110 -0.0012
  198MOL0     C27196   6.674  10.324   5.934 -0.5181  0.0404 -0.1685
  198MOL0     C27197   6.579  10.431   5.903  0.7894  0.9132  0.4917
  198MOL0     C27198   6.540  10.431   5.754  0.1419  0.1834 -0.4605
  198MOL0     C27199   6.640  10.503   5.659  0.1599 -0.9835  0.1924
  198MOL0     C27200   6.664  10.655   5.700 -0.6057  0.3031  0.1091
  198MOL0     C27201   6.779  10.721   5.622  0.0918 -0.0195  0.1178
  198MOL0     C27202   6.744  10.882   5.600  0.1561  0.4267  0.2190
  198MOL0     N27203   6.859  10.948   5.548 -0.5217  0.3021  0.0922
  198MOL0     C27204   6.952  11.023   5.617  0.3860  0.8388  0.3424
  198MOL0     C27205   7.059  11.047   5.533  0.5221  0.9404 -0.2776
  198MOL0     C27206   7.187  11.117   5.575 -0.5791 -0.3719 -0.0289
  198MOL0     C27207   7.262  11.074   5.703  0.2410 -0.3452 -0.0956
  198MOL0     C27208   7.331  10.938   5.676 -1.2620  0.6646 -0.9590
  198MOL0     C27209   7.419  10.905   5.800  0.2171 -0.3703 -0.0680
  198MOL0     O27210   7.502  11.009   5.848 -0.3516 -0.0669  0.5793
  198MOL0     C27211   7.631  11.032   5.804 -0.2409  0.8052  0.0970
  198MOL0     C27212   7.702  11.115   5.894 -0.4899 -0.3617 -0.0794
  198MOL0     C27213   7.833  11.146   5.862 -0.5821 -0.8358 -0.1029
  198MOL0     C27214   7.912  11.202   5.977 -0.9417 -0.1008 -0.4531
  198MOL0     C27215   7.894  11.103   5.741 -0.5826  0.0696  0.7469
  198MOL0     C27216   8.038  11.129   5.722  0.0067 -0.7881 -0.3290
  198MOL0     O27217   8.107  11.027   5.669  0.2983  0.3693  0.1368
  198MOL0     C27218   8.246  11.037   5.644  0.2337 -0.6967 -0.7710
  198MOL0     C27219   8.332  11.048   5.759 -0.2606  0.2056  0.3290
  198MOL0     C27220   8.472  11.041   5.746 -0.6694 -0.3276  0.6635
  198MOL0     C27221   8.527  11.013   5.620  0.5469  0.5518  0.0099
  198MOL0     O27222   8.666  10.998   5.614  0.3529 -0.1592 -1.0147
  198MOL0     C27223   8.724  10.991   5.485 -0.4351  0.2788  0.3652
  198MOL0     C27224   8.879  10.962   5.495 -0.3435  0.5035  0.1088
  198MOL0     C27225   8.908  10.836   5.577 -0.5745  0.2226 -1.1826
  198MOL0     C27226   9.063  10.805   5.584  0.0264 -0.0149 -0.7901
  198MOL0     C27227   9.114  10.711   5.697 -0.1683  0.2441  0.5368
  198MOL0     C27228   9.021  10.594   5.715  0.5889 -0.2450 -0.0078
  198MOL0     C27229   9.058  10.507   5.833 -0.3465  0.2447  0.2294
  198MOL0     C27230   9.006  10.566   5.959 -0.5358 -0.6831 -0.4501
  198MOL0    Cl27231   8.830  10.577   5.965  0.3260 -0.0636 -0.3478
  198MOL0     C27232   8.438  11.006   5.507  0.4207  1.1413 -0.2089
  198MOL0     C27233   8.301  11.018   5.521 -0.6170 -0.3421 -0.1440
  198MOL0     O27234   8.088  11.236   5.761 -0.2921 -0.3351 -0.1707
  198MOL0     C27235   7.815  11.024   5.656 -0.5991 -0.5553  0.2844
  198MOL0     C27236   7.682  10.987   5.686 -1.0440 -0.3066  0.5793
  198MOL0     N27237   7.029  10.984   5.410 -0.3891 -0.9242 -0.9850
  198MOL0     N27238   6.906  10.944   5.418  0.2251  0.1708 -0.6826
  198MOL0     C27239   7.070  10.527   5.814  0.2852 -0.4474  1.1480
  198MOL0     C27240   7.207  10.555   5.816  0.3523  0.0330  0.3187
  198MOL0     C27241   7.639  10.547   6.018 -0.2114  0.0085  0.0144
  198MOL0     C27242   7.660  10.682   6.007 -0.4551 -0.5091  0.9547
  198MOL0     C27243   7.790  10.742   6.022  0.0320  1.0687  0.4200
  198MOL0     C27244   7.898  10.668   6.066  0.2965  0.9938 -0.3775
  198MOL0     O27245   8.024  10.714   6.087 -0.0643 -0.1963  0.7960
  198MOL0     C27246   8.065  10.831   6.015  0.4976 -0.4044  0.2642
  198MOL0     C27247   8.189  10.887   6.082  0.2189  0.0029 -0.5654
  198MOL0     C27248   8.310  10.820   6.017 -0.2488 -0.0616  0.0215
  198MOL0     C27249   8.440  10.863   6.085 -0.9498  0.4323  1.1735
  198MOL0     C27250   8.557  10.843   5.989  0.0800  0.4972  0.0948
  198MOL0     C27251   8.651  10.814   5.920  0.5802  0.7456 -0.2938
  198MOL0     C27252   7.876  10.526   6.073 -0.3261 -0.4130  0.2772
  198MOL0     C27253   7.755  10.465   6.052  0.9862  1.4175 -1.2719
  198MOL0     C27254   7.759  10.315   6.064 -0.7151 -0.4264 -0.0299
  198MOL0     H27255   7.254  10.529   6.143  0.5282  0.9777  0.0980
  198MOL0     H27256   7.010  10.446   6.128 -1.5172  2.0319 -0.5850
  198MOL0     H27257   6.768  10.433   6.102  0.3151  0.1436  0.2527
  198MOL0     H27258   6.861  10.295   6.040 -0.2606  0.5138  0.7942
  198MOL0     H27259   6.702  10.266   5.846 -0.4280 -0.7605  0.3817
  198MOL0     H27260   6.623  10.255   6.003 -1.0624  0.4886 -0.1178
  198MOL0     H27261   6.488  10.398   5.954  0.6633  0.4122 -0.0481
  198MOL0     H27262   6.613  10.530   5.937  2.5918  0.5008  0.0254
  198MOL0     H27263   6.517  10.330   5.718  0.7010 -0.1401  0.0718
  198MOL0     H27264   6.452  10.495   5.751  0.4121  0.6660  1.1065
  198MOL0     H27265   6.604  10.491   5.557 -3.7953  1.3821  1.1091
  198MOL0     H27266   6.741  10.462   5.670  0.4325 -1.3260 -2.7284
  198MOL0     H27267   6.574  10.712   5.675 -1.1810 -0.2387  0.9113
  198MOL0     H27268   6.678  10.661   5.808 -2.6647 -2.8397  0.6904
  198MOL0     H27269   6.790  10.676   5.523 -2.4803  3.1677 -1.8087
  198MOL0     H27270   6.874  10.709   5.676  0.4413  0.8322 -0.2936
  198MOL0     H27271   6.660  10.891   5.530 -0.8121 -3.7449  0.5773
  198MOL0     H27272   6.711  10.932   5.692 -3.4561  1.0488 -1.2195
  198MOL0     H27273   6.948  11.050   5.722 -2.7009 -1.0099  0.8138
  198MOL0     H27274   7.168  11.224   5.585 -1.5161 -0.5788  0.5087
  198MOL0     H27275   7.252  11.108   5.487 -2.4693 -0.5413 -1.4754
  198MOL0     H27276   7.330  11.155   5.733 -0.8101 -0.2913  2.4142
  198MOL0     H27277   7.183  11.075   5.779  0.1251  2.8518 -0.1143
  198MOL0     H27278   7.249  10.866   5.667 -2.7709  2.4789 -2.7804
  198MOL0     H27279   7.390  10.944   5.584 -1.5671  1.2100 -1.1262
  198MOL0     H27280   7.366  10.856   5.882 -0.8235  0.8400  0.0107
  198MOL0     H27281   7.482  10.821   5.768  0.8001 -1.1803  2.8910
  198MOL0     H27282   7.650  11.157   5.979  1.9531 -0.1981  1.4101
  198MOL0     H27283   7.931  11.309   5.968  3.7098 -0.5310  1.3772
  198MOL0     H27284   8.012  11.161   5.992 -1.3909 -1.1764 -0.2956
  198MOL0     H27285   7.864  11.183   6.073  1.1685  1.5676  1.0203
  198MOL0     H27286   8.272  11.067   5.847  0.6679  0.0492  1.0193
  198MOL0     H27287   8.546  11.062   5.823  2.3091  2.3496 -2.5607
  198MOL0     H27288   8.676  10.910   5.429  2.7633 -1.3164 -0.2939
  198MOL0     H27289   8.709  11.087   5.434 -2.0438  0.3848  0.9764
  198MOL0     H27290   8.914  10.951   5.392  0.7562 -1.1814  0.6242
  198MOL0     H27291   8.928  11.047   5.541  0.1085 -1.2312  3.0971
  198MOL0     H27292   8.850  10.753   5.537  0.4420 -0.2801 -1.6480
  198MOL0     H27293   8.867  10.846   5.678  0.7217 -0.9500 -0.5135
  198MOL0     H27294   9.119  10.898   5.590 -1.9350  1.2998 -1.7692
  198MOL0     H27295   9.092  10.754   5.491  1.6623  1.9653 -1.4263
  198MOL0     H27296   9.211  10.675   5.663 -0.4458 -1.2259  1.1974
  198MOL0     H27297   9.126  10.774   5.786 -1.2248  0.7640  0.3230
  198MOL0     H27298   9.034  10.533   5.625  4.8776  1.6655 -0.9472
  198MOL0     H27299   8.918  10.627   5.723 -0.1811 -2.8288  2.3520
  198MOL0     H27300   9.166  10.503   5.848 -0.7264 -3.7559  4.0303
  198MOL0     H27301   9.025  10.403   5.827 -1.3770  0.6054 -0.7790
  198MOL0     H27302   9.043  10.666   5.982 -2.6542 -0.3735  2.1498
  198MOL0     H27303   9.045  10.511   6.046 -0.8736 -2.1364 -1.1935
  198MOL0     H27304   8.484  11.000   5.409 -0.8160 -3.8137 -0.7692
  198MOL0     H27305   8.234  11.018   5.436 -3.6287  0.1018  2.0774
  198MOL0     H27306   7.857  10.997   5.560 -0.0074  0.7375  0.1604
  198MOL0     H27307   7.627  10.929   5.613 -3.1280  2.2681 -0.0489
  198MOL0     H27308   7.016  10.545   5.721 -1.0952 -0.0303  2.0083
  198MOL0     H27309   7.267  10.606   5.741  0.3001  1.9724  1.5242
  198MOL0     H27310   7.578  10.747   5.979  0.3078  1.7617  3.6083
  198MOL0     H27311   7.796  10.849   6.005  0.8301  1.0004  0.2576
  198MOL0     H27312   8.097  10.810   5.912 -0.4743  2.8663 -0.8208
  198MOL0     H27313   7.986  10.907   6.012  0.9859  0.1049  0.1836
  198MOL0     H27314   8.178  10.865   6.189 -2.1689 -0.4689 -0.8469
  198MOL0     H27315   8.193  10.993   6.057  0.5319  0.0674 -0.2567
  198MOL0     H27316   8.300  10.711   6.020  0.3388 -0.3593 -3.9226
  198MOL0     H27317   8.302  10.850   5.912 -1.7819  0.4675  0.2574
  198MOL0     H27318   8.449  10.808   6.179 -1.3004  2.5200  2.5161
  198MOL0     H27319   8.436  10.969   6.114 -1.2215  0.3739  1.3554
  198MOL0     H27320   8.723  10.802   5.842 -1.0716  0.6935 -1.8811
  198MOL0     H27321   7.965  10.467   6.093 -1.2765 -3.2467 -2.9064
  198MOL0     H27322   7.725  10.278   6.161  0.1850 -0.4425  0.2855
  198MOL0     H27323   7.711  10.262   5.982  0.1536  2.3602 -2.5181
  198MOL0     H27324   7.863  10.287   6.046 -0.3028  1.1501 -0.2565
  199MOL0     O27325   8.025   7.183   0.487 -0.1594 -0.6349 -0.7109
  199MOL0     C27326   7.987   7.218   0.599 -0.1276 -0.1927  0.5139
  199MOL0     O27327   8.071   7.262   0.694 -0.5661  1.3337  0.1542
  199MOL0     C27328   8.199   7.295   0.658  0.1921  0.2469 -0.3590
  199MOL0     C27329   8.230   7.430   0.608 -0.3327  0.5530  0.9743
  199MOL0     C27330   8.358   7.470   0.585  0.1051 -0.5344  0.3771
  199MOL0     C27331   8.463   7.383   0.596 -0.4691 -0.3744 -0.1049
  199MOL0     O27332   8.594   7.411   0.559  0.0352  1.3517  0.2096
  199MOL0     C27333   8.610   7.510   0.453  0.0442  0.6932  0.0572
  199MOL0     C27334   8.753   7.485   0.395  0.0195  0.5755 -0.6397
  199MOL0     C27335   8.757   7.375   0.290  0.9372  0.0726 -0.0025
  199MOL0     C27336   8.897   7.345   0.228  0.4003 -0.2573 -0.2883
  199MOL0     C27337   8.898   7.237   0.119  0.2581  0.7462  0.7213
  199MOL0     C27338   9.029   7.190   0.049  0.7544 -0.1218 -0.1166
  199MOL0     C27339   9.118   7.304  -0.004 -0.0645  0.3531  0.4224
  199MOL0     C27340   9.260   7.254  -0.047 -0.7062 -0.4174  0.4337
  199MOL0     N27341   9.279   7.288  -0.184 -0.1910 -0.4654 -0.3458
  199MOL0     C27342   9.279   7.200  -0.289  0.0690 -0.4073 -0.2904
  199MOL0     C27343   9.299   7.268  -0.397 -0.6894 -0.4761  0.2315
  199MOL0     C27344   9.296   7.220  -0.541  0.3427  0.0522 -0.0717
  199MOL0     C27345   9.424   7.154  -0.587 -0.1570 -0.4465  0.7459
  199MOL0     C27346   9.535   7.263  -0.600  0.6615 -0.8743  1.0034
  199MOL0     C27347   9.657   7.210  -0.677  0.3479 -0.2058  0.1602
  199MOL0     O27348   9.745   7.319  -0.706 -0.7429  0.0856  0.6283
  199MOL0     C27349   9.852   7.284  -0.783 -0.0022 -0.5440 -0.1174
  199MOL0     C27350   9.982   7.277  -0.729  0.4234  0.3173 -0.0927
  199MOL0     C27351  10.085   7.217  -0.805  0.8091 -0.4864  0.2294
  199MOL0     C27352  10.215   7.225  -0.734  0.1984 -0.0997  0.5536
  199MOL0     C27353  10.060   7.166  -0.935  0.5300  0.2173 -0.4340
  199MOL0     C27354  10.151   7.104  -1.031  0.2161 -0.4516 -0.2444
  199MOL0     O27355  10.104   7.005  -1.110  1.0487 -0.0506  0.0953
  199MOL0     C27356  10.194   6.931  -1.175  0.3777 -0.0576 -0.0158
  199MOL0     C27357  10.275   6.984  -1.272  0.1941 -0.0995 -0.6877
  199MOL0     C27358  10.384   6.912  -1.326 -0.1988 -0.7152 -0.1025
  199MOL0     C27359  10.413   6.784  -1.276 -0.4679 -0.7753 -0.2579
  199MOL0     O27360  10.527   6.708  -1.308  0.6271  0.1532  0.4812
  199MOL0     C27361  10.596   6.756  -1.421 -0.6588 -0.0911 -0.4592
  199MOL0     C27362  10.688   6.634  -1.476  0.4884  0.9412  0.1061
  199MOL0     C27363  10.744   6.671  -1.619  0.0276 -0.4032 -0.4236
  199MOL0     C27364  10.904   6.647  -1.622 -0.0958 -0.3320 -0.3682
  199MOL0     C27365  10.938   6.626  -1.774 -0.4892  0.2387  0.0286
  199MOL0     C27366  11.084   6.638  -1.806 -1.2973 -0.1055  0.5920
  199MOL0     C27367  11.177   6.542  -1.733  0.2216 -0.2085 -0.2420
  199MOL0     C27368  11.323   6.559  -1.752 -0.0424 -0.4067  0.5875
  199MOL0    Cl27369  11.394   6.478  -1.612 -0.0221  0.2436  0.2809
  199MOL0     C27370  10.335   6.729  -1.180  0.1500 -0.6576  0.4320
  199MOL0     C27371  10.225   6.797  -1.132 -0.7340 -0.0709  0.6740
  199MOL0     O27372  10.272   7.129  -1.017  0.1001  0.0800  0.1539
  199MOL0     C27373   9.929   7.169  -0.980 -0.3889 -0.2562 -0.0892
  199MOL0     C27374   9.824   7.223  -0.907 -0.3085 -0.4737  0.3989
  199MOL0     N27375   9.328   7.404  -0.364 -0.1066  0.0548 -0.1761
  199MOL0     N27376   9.319   7.413  -0.238 -0.4174 -0.0333  0.0350
  199MOL0     C27377   8.439   7.257   0.652  0.3544 -0.3002 -0.0601
  199MOL0     C27378   8.308   7.207   0.687 -0.1161 -0.1213  0.7924
  199MOL0     C27379   7.849   7.191   0.640 -0.2342 -0.8410  0.6960
  199MOL0     C27380   7.810   7.233   0.766  0.0638  1.2063  0.2027
  199MOL0     C27381   7.684   7.208   0.826  0.5554 -0.3196  0.0267
  199MOL0     C27382   7.585   7.135   0.752 -0.3303  0.7602 -0.1660
  199MOL0     O27383   7.467   7.112   0.814 -0.0219 -0.2565  0.8209
  199MOL0     C27384   7.409   7.223   0.883  0.7767  0.5525 -0.5619
  199MOL0     C27385   7.260   7.190   0.882 -0.5277  0.3519 -0.6966
  199MOL0     C27386   7.164   7.285   0.955  0.0738 -0.7455 -0.7676
  199MOL0     C27387   7.159   7.419   0.885  0.7632  0.1028  0.4716
  199MOL0     C27388   7.254   7.519   0.946  0.0528 -0.7692 -0.6676
  199MOL0     C27389   7.329   7.593   1.011  0.1976 -0.5303 -0.3214
  199MOL0     C27390   7.623   7.089   0.623  0.1444 -0.0386  0.3151
  199MOL0     C27391   7.748   7.126   0.560  0.5370 -0.0838 -0.0462
  199MOL0     C27392   7.768   7.065   0.422 -0.2078 -0.5636  0.1883
  199MOL0     H27393   8.144   7.495   0.594 -3.0707 -3.3334 -2.5423
  199MOL0     H27394   8.372   7.572   0.551  0.2490 -0.5443  0.4045
  199MOL0     H27395   8.595   7.602   0.510  0.2512 -0.8817  2.8433
  199MOL0     H27396   8.535   7.498   0.375 -1.2329  0.6442  1.2660
  199MOL0     H27397   8.787   7.584   0.362 -2.3009  1.5451 -0.3201
  199MOL0     H27398   8.820   7.452   0.475 -0.7566  1.5099  0.4283
  199MOL0     H27399   8.732   7.283   0.344 -1.1939  1.2006  1.0557
  199MOL0     H27400   8.686   7.392   0.209 -0.3403 -2.4813  0.4814
  199MOL0     H27401   8.944   7.433   0.183 -0.8479  1.4088  1.4903
  199MOL0     H27402   8.963   7.306   0.306 -1.5375 -3.0199  0.1287
  199MOL0     H27403   8.825   7.266   0.042  0.4875 -0.7188 -0.0904
  199MOL0     H27404   8.864   7.142   0.160  1.0997  1.0925  2.2751
  199MOL0     H27405   9.084   7.118   0.110  0.9521 -1.6376 -1.9766
  199MOL0     H27406   8.994   7.126  -0.033 -1.0467  0.9656 -0.2401
  199MOL0     H27407   9.134   7.364   0.086  1.5002 -1.5253  1.4988
  199MOL0     H27408   9.071   7.370  -0.077 -1.9048 -1.7441 -0.4044
  199MOL0     H27409   9.327   7.321   0.009 -0.1399 -0.5587 -0.0681
  199MOL0     H27410   9.289   7.151  -0.027  0.5300 -0.2770 -0.5277
  199MOL0     H27411   9.250   7.096  -0.291 -0.7802 -0.2303  1.3011
  199MOL0     H27412   9.267   7.305  -0.603 -0.0477  1.5893  2.1074
  199MOL0     H27413   9.216   7.145  -0.553 -0.7618  1.1367  0.3324
  199MOL0     H27414   9.456   7.078  -0.515 -0.8691 -3.9914 -2.3829
  199MOL0     H27415   9.411   7.101  -0.682 -0.2691  2.6313 -1.0740
  199MOL0     H27416   9.494   7.347  -0.658  0.5030 -0.5775  1.5422
  199MOL0     H27417   9.576   7.297  -0.505 -0.3506 -1.8061  1.8009
  199MOL0     H27418   9.705   7.135  -0.613 -0.0951  0.9732  1.9441
  199MOL0     H27419   9.627   7.161  -0.771 -0.5467  0.0948  0.2829
  199MOL0     H27420   9.998   7.321  -0.631  0.4210  0.6402 -0.2344
  199MOL0     H27421  10.279   7.306  -0.772  1.7877 -1.7703 -0.4655
  199MOL0     H27422  10.266   7.130  -0.755  0.6956 -0.1270  1.8334
  199MOL0     H27423  10.196   7.235  -0.627 -0.3483  0.9052  0.3811
  199MOL0     H27424  10.261   7.088  -1.300  0.0845 -0.8754 -3.9764
  199MOL0     H27425  10.433   6.966  -1.406 -1.2814 -0.2537 -0.4752
  199MOL0     H27426  10.528   6.796  -1.496 -0.2501  2.2705  0.3515
  199MOL0     H27427  10.668   6.836  -1.402 -1.0839  0.3390 -0.6556
  199MOL0     H27428  10.767   6.620  -1.401  0.0046  1.0776  0.6463
  199MOL0     H27429  10.644   6.534  -1.482 -1.4180  1.7808 -0.6386
  199MOL0     H27430  10.729   6.776  -1.643  0.6257 -0.5598 -1.5182
  199MOL0     H27431  10.684   6.612  -1.689 -1.4907  1.8916 -1.1777
  199MOL0     H27432  10.927   6.558  -1.564 -3.1652 -1.0454 -0.0625
  199MOL0     H27433  10.955   6.733  -1.577 -1.6823 -0.4586  1.8124
  199MOL0     H27434  10.896   6.532  -1.810  0.1230 -0.2865  0.6539
  199MOL0     H27435  10.875   6.703  -1.820 -2.1886 -0.0931  1.6731
  199MOL0     H27436  11.116   6.735  -1.766  0.3323  0.4510 -1.8425
  199MOL0     H27437  11.107   6.636  -1.913 -2.3161  1.3069  0.3158
  199MOL0     H27438  11.154   6.436  -1.750 -0.7750 -0.1182  0.4365
  199MOL0     H27439  11.158   6.561  -1.626 -0.7851  0.7932 -0.5826
  199MOL0     H27440  11.354   6.664  -1.753 -0.4287 -0.2813  1.2623
  199MOL0     H27441  11.356   6.509  -1.844  1.7487 -0.9445  1.4655
  199MOL0     H27442  10.350   6.627  -1.145 -1.0480 -1.0935 -0.2655
  199MOL0     H27443  10.163   6.754  -1.053 -0.4452 -2.2575 -0.2257
  199MOL0     H27444   9.906   7.143  -1.083 -1.2092  3.4198 -0.9526
  199MOL0     H27445   9.723   7.232  -0.946 -0.2951 -1.1970  0.1927
  199MOL0     H27446   8.525   7.193   0.670  0.9044  0.0868 -1.1790
  199MOL0     H27447   8.296   7.106   0.726  1.1874 -0.2781  0.8616
  199MOL0     H27448   7.891   7.282   0.820  2.6622 -2.8176  0.3422
  199MOL0     H27449   7.665   7.241   0.928  0.4745  1.1052 -0.4315
  199MOL0     H27450   7.458   7.226   0.980  0.1840  1.6353 -0.2737
  199MOL0     H27451   7.426   7.319   0.833  0.5108  0.8874 -0.0319
  199MOL0     H27452   7.253   7.096   0.938 -1.5333  1.8980  1.9772
  199MOL0     H27453   7.233   7.170   0.778 -1.7815 -1.6526 -0.0533
  199MOL0     H27454   7.067   7.234   0.958 -0.1386 -0.3797 -1.3328
  199MOL0     H27455   7.196   7.299   1.059 -2.2260 -0.2813 -0.0661
  199MOL0     H27456   7.056   7.453   0.878  0.3624 -1.3659 -1.6392
  199MOL0     H27457   7.185   7.406   0.779 -0.4781  0.1498  0.1531
  199MOL0     H27458   7.402   7.651   1.064 -0.4867  1.3036 -1.2740
  199MOL0     H27459   7.556   7.024   0.567  1.5445 -1.5532  0.3119
  199MOL0     H27460   7.798   7.150   0.360 -0.4149 -2.4483 -2.6831
  199MOL0     H27461   7.843   6.987   0.407 -0.3605 -0.4720 -1.1853
  199MOL0     H27462   7.674   7.030   0.378  1.2006  0.9768 -4.6599
  200MOL0     O27463   8.926   4.602   6.878 -0.0758 -0.3814  0.1987
  200MOL0     C27464   8.981   4.620   6.985 -0.3174 -0.0742 -0.3422
  200MOL0     O27465   9.115   4.645   6.994  0.2467  0.0049  0.7155
  200MOL0     C27466   9.191   4.631   6.875 -0.1076 -0.6586  0.4818
  200MOL0     C27467   9.273   4.525   6.858  0.4858 -0.7018  0.2825
  200MOL0     C27468   9.352   4.517   6.745 -0.4026 -0.0504  0.3148
  200MOL0     C27469   9.362   4.623   6.647 -0.0119  0.2835 -0.1304
  200MOL0     O27470   9.422   4.626   6.525 -0.4213 -0.5592  0.3245
  200MOL0     C27471   9.502   4.519   6.472  0.0941 -0.4130 -0.6009
  200MOL0     C27472   9.634   4.515   6.557  0.0534 -0.0868 -0.2591
  200MOL0     C27473   9.762   4.566   6.492  0.4205  0.8104 -0.5037
  200MOL0     C27474   9.749   4.688   6.407  0.2592 -0.4346  0.6288
  200MOL0     C27475   9.890   4.726   6.371  0.5150 -0.3008 -0.2355
  200MOL0     C27476   9.879   4.801   6.240  0.2340  0.4120 -0.3191
  200MOL0     C27477  10.021   4.832   6.199  0.0080  0.0371  0.1422
  200MOL0     C27478  10.090   4.930   6.290 -0.6724  0.2316 -1.2107
  200MOL0     N27479  10.212   4.988   6.230 -0.0233  0.1903  0.9219
  200MOL0     C27480  10.340   4.925   6.212  0.6371  0.4079  0.3518
  200MOL0     C27481  10.406   5.017   6.134 -0.3656  0.1513 -0.0584
  200MOL0     C27482  10.536   4.995   6.069 -0.6780  0.1415  0.1963
  200MOL0     C27483  10.658   5.024   6.151  0.5326  1.0268  0.0816
  200MOL0     C27484  10.670   4.950   6.292 -0.2834  0.0579  0.4578
  200MOL0     C27485  10.796   4.980   6.356 -0.0956 -0.3795 -0.7077
  200MOL0     O27486  10.907   4.914   6.284  0.0927 -0.2562 -0.1622
  200MOL0     C27487  11.039   4.931   6.319  0.6050  0.1037  0.4155
  200MOL0     C27488  11.083   4.997   6.427 -0.0958  0.4107  0.0010
  200MOL0     C27489  11.223   5.002   6.461  0.3276 -0.1994 -0.0527
  200MOL0     C27490  11.256   5.081   6.583  0.5340  0.9613 -0.4541
  200MOL0     C27491  11.317   4.932   6.385  0.7819 -0.5041 -0.7839
  200MOL0     C27492  11.462   4.925   6.414  0.5023 -0.1006  0.0436
  200MOL0     O27493  11.537   4.899   6.304  0.3896  0.0517 -0.1493
  200MOL0     C27494  11.679   4.878   6.332  0.2184 -0.1714  1.2095
  200MOL0     C27495  11.723   4.752   6.368  0.2145  0.0923 -0.7970
  200MOL0     C27496  11.856   4.739   6.409 -0.1275  0.6618 -0.1684
  200MOL0     C27497  11.945   4.847   6.399 -0.0233 -0.8882  0.3925
  200MOL0     O27498  12.077   4.850   6.431 -0.2165  0.0047 -0.0436
  200MOL0     C27499  12.146   4.729   6.465  0.2018 -0.0562 -0.3558
  200MOL0     C27500  12.298   4.764   6.484 -0.1627  0.1206 -0.2055
  200MOL0     C27501  12.376   4.639   6.514  0.2080 -0.3113  0.0992
  200MOL0     C27502  12.524   4.684   6.494 -1.2281  0.3311 -0.3304
  200MOL0     C27503  12.633   4.576   6.536 -0.1844 -0.0668 -0.4715
  200MOL0     C27504  12.783   4.626   6.521 -0.5027 -0.2163  0.4273
  200MOL0     C27505  12.890   4.517   6.573  0.3423 -0.1353 -0.2096
  200MOL0     C27506  13.025   4.567   6.530 -0.2539 -0.6281  1.3731
  200MOL0    Cl27507  13.152   4.450   6.532  0.2274  0.1093 -0.0391
  200MOL0     C27508  11.896   4.973   6.375 -0.1619  0.3345 -0.5638
  200MOL0     C27509  11.765   4.983   6.345 -0.1144 -0.2478 -0.2529
  200MOL0     O27510  11.504   4.952   6.528 -0.6642  0.0976 -0.3300
  200MOL0     C27511  11.268   4.859   6.273  0.3048 -0.0918 -0.0635
  200MOL0     C27512  11.135   4.861   6.246  0.1767  0.0916  0.3457
  200MOL0     N27513  10.323   5.123   6.114 -0.1339 -0.2755 -0.1052
  200MOL0     N27514  10.214   5.109   6.171 -0.4419 -0.1493  0.1400
  200MOL0     C27515   9.289   4.734   6.668 -0.8612 -0.0801 -0.3285
  200MOL0     C27516   9.206   4.740   6.784 -1.1468 -0.7161  0.6729
  200MOL0     C27517   8.916   4.569   7.104 -0.3339 -0.6995  0.6545
  200MOL0     C27518   9.004   4.540   7.221  1.3509 -1.3308 -0.5431
  200MOL0     C27519   8.947   4.502   7.347  0.4399 -0.4789 -0.2688
  200MOL0     C27520   8.809   4.491   7.362  0.1521  0.7846  0.1965
  200MOL0     O27521   8.755   4.446   7.480 -0.3691  0.4950 -0.0828
  200MOL0     C27522   8.618   4.448   7.511  0.4071 -0.0839 -0.2527
  200MOL0     C27523   8.604   4.427   7.661  0.2614  0.0001 -0.1388
  200MOL0     C27524   8.622   4.287   7.711 -0.1270 -0.3242  0.7261
  200MOL0     C27525   8.594   4.283   7.863 -0.3351 -0.0963  0.0752
  200MOL0     C27526   8.561   4.152   7.926 -0.8381 -0.0251 -0.1872
  200MOL0     C27527   8.514   4.039   7.962 -0.0874 -1.0527  0.8152
  200MOL0     C27528   8.729   4.512   7.245  0.0819  0.1305 -0.5816
  200MOL0     C27529   8.782   4.555   7.129 -0.1001  0.0553  0.1409
  200MOL0     C27530   8.693   4.606   7.017  0.1704  0.3333  0.1227
  200MOL0     H27531   9.290   4.441   6.925  1.1143 -1.6295 -0.9831
  200MOL0     H27532   9.422   4.435   6.731 -0.3028  0.4117 -2.5312
  200MOL0     H27533   9.517   4.539   6.366  2.5000  1.7208  0.0441
  200MOL0     H27534   9.446   4.425   6.476  0.2306 -0.4757  2.7424
  200MOL0     H27535   9.622   4.577   6.646  0.1564  3.2231 -2.4070
  200MOL0     H27536   9.647   4.414   6.599 -0.7539  0.7422  2.2002
  200MOL0     H27537   9.836   4.590   6.569  1.4615  2.7337 -1.9885
  200MOL0     H27538   9.814   4.485   6.440  0.4845 -1.4888  2.8504
  200MOL0     H27539   9.689   4.660   6.320 -2.1840  1.3300  1.6293
  200MOL0     H27540   9.693   4.764   6.462 -1.5312 -1.2627  0.0161
  200MOL0     H27541   9.963   4.649   6.346  2.1815  1.5332 -1.2813
  200MOL0     H27542   9.926   4.788   6.453 -2.0810 -0.6543  1.2723
  200MOL0     H27543   9.827   4.736   6.169 -0.9568  0.5649  0.3847
  200MOL0     H27544   9.813   4.888   6.241  1.6119  1.5715 -2.1254
  200MOL0     H27545  10.012   4.874   6.099  1.3123 -0.3935 -0.1763
  200MOL0     H27546  10.081   4.741   6.187  0.3283 -0.2333  2.9423
  200MOL0     H27547  10.027   5.017   6.306  0.4583  0.6152  1.8191
  200MOL0     H27548  10.116   4.896   6.391 -1.9071  1.5154 -0.4332
  200MOL0     H27549  10.380   4.830   6.246  3.2253  0.9261 -0.9336
  200MOL0     H27550  10.539   5.048   5.974 -3.2951  1.3852  0.7420
  200MOL0     H27551  10.558   4.891   6.040 -1.5356 -0.0838  0.3391
  200MOL0     H27552  10.740   4.996   6.084  0.6987 -1.2251  1.1389
  200MOL0     H27553  10.673   5.132   6.163  2.5240  1.0817 -2.1859
  200MOL0     H27554  10.584   4.981   6.354  0.5132 -0.1949  1.7195
  200MOL0     H27555  10.661   4.844   6.269 -0.3381 -0.1844  1.5134
  200MOL0     H27556  10.809   5.089   6.361 -0.9350 -0.1412 -2.8484
  200MOL0     H27557  10.774   4.946   6.458 -2.0460  0.4071 -0.8283
  200MOL0     H27558  11.002   5.040   6.486 -0.3934 -0.1333 -0.0020
  200MOL0     H27559  11.167   5.128   6.625 -0.8914 -1.6585 -0.3573
  200MOL0     H27560  11.343   5.147   6.576  1.4686 -0.3882 -2.5677
  200MOL0     H27561  11.280   5.001   6.654  2.4392  0.8307 -1.1867
  200MOL0     H27562  11.667   4.660   6.382  0.0201  0.5622  2.4169
  200MOL0     H27563  11.900   4.641   6.426  0.7457  0.9323 -0.7752
  200MOL0     H27564  12.099   4.684   6.553 -1.6338  2.8492  0.2665
  200MOL0     H27565  12.143   4.652   6.388  0.7506 -0.6236  0.1717
  200MOL0     H27566  12.330   4.821   6.396  1.1835  0.5531  0.5482
  200MOL0     H27567  12.316   4.831   6.568  1.1340  2.0326 -1.9227
  200MOL0     H27568  12.350   4.559   6.443 -1.3639  1.0308 -0.9165
  200MOL0     H27569  12.358   4.618   6.620 -1.5814  0.4703 -0.0219
  200MOL0     H27570  12.547   4.771   6.556 -1.2239  0.7306 -0.8854
  200MOL0     H27571  12.530   4.712   6.389 -2.1033 -0.5056 -0.6118
  200MOL0     H27572  12.625   4.550   6.642  1.1111  1.1774 -0.0290
  200MOL0     H27573  12.635   4.480   6.485  1.2315 -0.4815  0.3128
  200MOL0     H27574  12.791   4.718   6.579  2.0122 -1.2241  1.8332
  200MOL0     H27575  12.809   4.654   6.418 -0.5004 -0.9659  0.2149
  200MOL0     H27576  12.861   4.420   6.531 -1.4122  0.0485  0.4856
  200MOL0     H27577  12.894   4.502   6.681 -0.2111  0.3645 -0.1166
  200MOL0     H27578  13.057   4.653   6.589  3.3172 -0.2217 -0.8743
  200MOL0     H27579  13.019   4.610   6.430  0.6567 -3.1215  0.1466
  200MOL0     H27580  11.965   5.057   6.379 -1.2839  1.3238 -0.9438
  200MOL0     H27581  11.720   5.081   6.337  0.3494 -0.0143 -0.0772
  200MOL0     H27582  11.331   4.797   6.211  1.4852  2.7378 -1.9101
  200MOL0     H27583  11.104   4.798   6.163 -0.4223 -1.1657  1.4927
  200MOL0     H27584   9.297   4.820   6.602 -0.3134 -1.7752 -2.5626
  200MOL0     H27585   9.138   4.820   6.811 -0.1282  0.3322  0.2208
  200MOL0     H27586   9.110   4.559   7.225  1.0461  0.3303  2.5493
  200MOL0     H27587   9.022   4.465   7.416  0.2182  0.4180  0.4796
  200MOL0     H27588   8.573   4.545   7.487  0.4162 -0.8827 -4.1412
  200MOL0     H27589   8.575   4.364   7.456  0.3619 -1.1098  1.2794
  200MOL0     H27590   8.504   4.458   7.691 -0.7391 -2.9475 -0.1521
  200MOL0     H27591   8.676   4.497   7.705 -1.7194  2.0262  0.0430
  200MOL0     H27592   8.538   4.227   7.674  0.9020 -0.5710 -1.3534
  200MOL0     H27593   8.718   4.242   7.687 -2.6684 -5.4124 -1.3933
  200MOL0     H27594   8.508   4.348   7.876  1.8748  2.8121  1.1564
  200MOL0     H27595   8.668   4.334   7.926 -1.6003  1.9415  0.0035
  200MOL0     H27596   8.473   3.942   7.981 -2.4871 -0.7546 -2.1044
  200MOL0     H27597   8.621   4.503   7.243  0.1969 -2.2595  0.4219
  200MOL0     H27598   8.587   4.595   7.043  0.3396  2.0909  1.8040
  200MOL0     H27599   8.714   4.710   6.991  2.4461  0.1690  1.0548
  200MOL0     H27600   8.697   4.543   6.928  1.5582 -0.7192  0.8807
  201MOL0     O27601  10.985  10.892   8.439 -0.1128  0.7473  0.2897
  201MOL0     C27602  11.070  10.824   8.381  1.4119 -0.5898  0.5024
  201MOL0     O27603  11.101  10.705   8.412 -0.1847  0.0318  0.8170
  201MOL0     C27604  11.012  10.621   8.473 -0.4161 -0.1776  0.6616
  201MOL0     C27605  10.873  10.628   8.479 -0.5473  0.2313  0.6432
  201MOL0     C27606  10.804  10.522   8.538  0.3294  0.7284 -0.4082
  201MOL0     C27607  10.868  10.416   8.609  0.1646 -0.1815  0.4439
  201MOL0     O27608  10.806  10.310   8.674 -0.0337  0.0943 -0.1598
  201MOL0     C27609  10.671  10.277   8.654  0.6920  1.2129 -0.1008
  201MOL0     C27610  10.637  10.129   8.689  0.0858  0.4310  0.0856
  201MOL0     C27611  10.679  10.035   8.573 -0.2491 -0.3418 -0.5667
  201MOL0     C27612  10.643   9.880   8.605 -0.0348  1.5335 -0.1146
  201MOL0     C27613  10.746   9.829   8.706 -0.4444  0.1219 -0.1632
  201MOL0     C27614  10.763   9.669   8.681  0.3520  0.1901 -0.5992
  201MOL0     C27615  10.888   9.619   8.753 -0.5768 -0.2671  0.5747
  201MOL0     C27616  10.857   9.568   8.888 -0.1566  0.7551  0.5250
  201MOL0     N27617  10.976   9.509   8.954 -0.1601 -0.1263 -0.6343
  201MOL0     C27618  10.989   9.395   9.029  0.3051 -0.5727 -0.6292
  201MOL0     C27619  11.111   9.424   9.091 -0.0185 -0.3088  0.0891
  201MOL0     C27620  11.187   9.335   9.193  0.2855 -0.6936 -0.2424
  201MOL0     C27621  11.286   9.255   9.104 -0.2191 -1.7044 -0.3682
  201MOL0     C27622  11.399   9.175   9.181  0.9718  0.5270 -0.0052
  201MOL0     C27623  11.443   9.057   9.090  0.1649  0.5080  0.6527
  201MOL0     O27624  11.529   9.099   8.984  0.2200 -0.5997  0.4272
  201MOL0     C27625  11.649   9.154   9.024  0.6309  0.3466  0.8433
  201MOL0     C27626  11.682   9.284   8.988 -0.0984 -0.3287 -0.7959
  201MOL0     C27627  11.810   9.332   9.004 -0.4538 -0.2282  0.2285
  201MOL0     C27628  11.823   9.482   8.988  0.2858 -0.6029  0.2868
  201MOL0     C27629  11.921   9.244   9.035 -1.2392 -0.5428  0.3805
  201MOL0     C27630  12.062   9.282   9.020  0.0313  0.6741  0.1412
  201MOL0     O27631  12.151   9.215   9.100 -0.2949  0.5851 -0.3157
  201MOL0     C27632  12.289   9.234   9.107 -0.2471 -0.9818  0.0168
  201MOL0     C27633  12.355   9.362   9.073 -0.1973 -0.3359  0.4970
  201MOL0     C27634  12.496   9.369   9.078 -1.4892  0.2662  0.1654
  201MOL0     C27635  12.574   9.268   9.122 -0.2039  0.4721 -0.7220
  201MOL0     O27636  12.714   9.286   9.122  0.9301 -0.2381 -0.2881
  201MOL0     C27637  12.776   9.243   9.007 -0.2373 -0.0605  0.2469
  201MOL0     C27638  12.885   9.146   9.043 -0.2390  0.0162  0.2726
  201MOL0     C27639  12.826   9.006   9.089 -0.3796  0.1255 -0.0319
  201MOL0     C27640  12.935   8.899   9.064  0.2767  0.4904 -0.9595
  201MOL0     C27641  13.054   8.902   9.156  0.1931 -0.7542 -0.7858
  201MOL0     C27642  13.140   8.781   9.136 -0.5215 -0.3133 -0.2850
  201MOL0     C27643  13.265   8.783   9.228  0.1923 -0.3048  0.5024
  201MOL0     C27644  13.269   8.651   9.307 -0.2777 -0.5416  0.1947
  201MOL0    Cl27645  13.407   8.679   9.435 -0.3099 -0.1189  0.0260
  201MOL0     C27646  12.511   9.147   9.162 -0.1362 -0.1586 -0.7277
  201MOL0     C27647  12.371   9.134   9.155  0.2544 -0.5868 -0.5317
  201MOL0     O27648  12.092   9.363   8.931  0.6081 -0.8213 -0.9279
  201MOL0     C27649  11.885   9.112   9.066  0.3888  0.1566  0.9747
  201MOL0     C27650  11.754   9.062   9.061 -0.1124 -0.8487 -0.1612
  201MOL0     N27651  11.164   9.539   9.048  0.1482  0.0893 -0.1967
  201MOL0     N27652  11.087   9.595   8.965 -0.0394  0.5450  0.0472
  201MOL0     C27653  11.010  10.421   8.603  0.6588 -0.5665 -0.1848
  201MOL0     C27654  11.082  10.519   8.535  0.5833  0.6088 -0.0316
  201MOL0     C27655  11.151  10.904   8.286 -0.8964  0.2641  0.7051
  201MOL0     C27656  11.111  11.021   8.225 -0.1388  0.4269  0.3094
  201MOL0     C27657  11.182  11.077   8.124 -0.6558 -0.1131 -0.3015
  201MOL0     C27658  11.299  11.031   8.074  0.6603 -0.0159  0.2381
  201MOL0     O27659  11.378  11.073   7.975 -0.1424 -0.6909 -0.6409
  201MOL0     C27660  11.370  11.215   7.952  0.0353  0.2628  0.3597
  201MOL0     C27661  11.420  11.290   8.078  0.5399 -0.5784 -0.0749
  201MOL0     C27662  11.570  11.265   8.105  0.3621 -0.5811  0.5308
  201MOL0     C27663  11.617  11.291   8.250  0.6126 -0.2101  0.0846
  201MOL0     C27664  11.759  11.259   8.272 -0.6957  0.0077 -0.4243
  201MOL0     C27665  11.878  11.237   8.293 -0.4941 -1.0336  0.2431
  201MOL0     C27666  11.343  10.916   8.134 -0.3959  0.2445  1.3529
  201MOL0     C27667  11.276  10.852   8.239 -0.1011 -0.1901  0.4876
  201MOL0     C27668  11.355  10.748   8.303 -0.6362  1.0110 -0.4022
  201MOL0     H27669  10.817  10.713   8.441 -1.3918 -0.0707  1.1770
  201MOL0     H27670  10.697  10.519   8.522  0.4875 -1.2842 -1.5040
  201MOL0     H27671  10.642  10.291   8.550  2.9316  0.4402 -0.8972
  201MOL0     H27672  10.615  10.338   8.726 -1.7885  1.7101 -2.3025
  201MOL0     H27673  10.703  10.104   8.772  0.4186 -2.7163 -0.9553
  201MOL0     H27674  10.531  10.121   8.715  0.5239  0.1298  1.8799
  201MOL0     H27675  10.637  10.059   8.475 -1.2375  0.5421  0.0592
  201MOL0     H27676  10.787  10.038   8.554  0.1356 -0.6988  1.3438
  201MOL0     H27677  10.538   9.867   8.634  0.1930 -0.4952 -0.1295
  201MOL0     H27678  10.665   9.829   8.511  1.1639 -0.7879  1.3579
  201MOL0     H27679  10.706   9.855   8.805 -0.5306  3.1253 -0.8906
  201MOL0     H27680  10.846   9.872   8.699 -0.0050 -1.0791 -1.6927
  201MOL0     H27681  10.675   9.612   8.711 -1.2457  2.1596 -1.3554
  201MOL0     H27682  10.779   9.660   8.573 -2.5715 -1.5812 -0.9710
  201MOL0     H27683  10.959   9.701   8.763  0.9697 -1.7640  2.7543
  201MOL0     H27684  10.937   9.532   8.708 -0.3914  0.1169  0.0231
  201MOL0     H27685  10.829   9.660   8.940 -1.9587 -0.1316  1.2034
  201MOL0     H27686  10.776   9.495   8.880 -0.6630  1.4820 -1.9210
  201MOL0     H27687  10.925   9.314   9.061  1.5882 -1.2456  0.3371
  201MOL0     H27688  11.109   9.284   9.250  1.7738 -3.0084 -0.1261
  201MOL0     H27689  11.242   9.394   9.266  0.4943  0.2352 -1.1290
  201MOL0     H27690  11.223   9.192   9.040  0.8358 -2.5567 -0.5970
  201MOL0     H27691  11.337   9.322   9.035 -1.1761  1.2978  1.6396
  201MOL0     H27692  11.483   9.222   9.232  3.0249 -3.9009  1.2403
  201MOL0     H27693  11.360   9.119   9.266  1.6590 -0.6853 -0.4608
  201MOL0     H27694  11.494   8.983   9.151 -0.1667  2.3285  3.3186
  201MOL0     H27695  11.354   9.016   9.043  0.8062 -0.6815  0.4295
  201MOL0     H27696  11.597   9.346   8.960  0.0398  0.3137  0.1783
  201MOL0     H27697  11.743   9.519   8.922  1.4466 -0.2671 -0.9784
  201MOL0     H27698  11.918   9.518   8.949  0.7419 -0.8551  1.1447
  201MOL0     H27699  11.814   9.527   9.087 -0.2080 -0.0072 -0.0220
  201MOL0     H27700  12.303   9.449   9.036 -0.8224 -1.3914 -1.2011
  201MOL0     H27701  12.554   9.459   9.061  2.4110 -2.1732 -0.7246
  201MOL0     H27702  12.707   9.195   8.936 -2.9978  0.3158  2.4952
  201MOL0     H27703  12.821   9.333   8.964  0.3543 -0.1333  0.7088
  201MOL0     H27704  12.953   9.142   8.957  1.1908 -0.1349  1.3685
  201MOL0     H27705  12.945   9.181   9.127  0.0571 -2.5543  1.2363
  201MOL0     H27706  12.734   8.970   9.042  1.4165 -1.9947 -2.1293
  201MOL0     H27707  12.812   9.009   9.198  0.9314  3.5971  0.1663
  201MOL0     H27708  12.964   8.895   8.959 -0.4993  0.7038 -1.1883
  201MOL0     H27709  12.884   8.802   9.071 -0.3205  0.7153 -2.0851
  201MOL0     H27710  13.111   8.989   9.121 -0.2407 -0.7386 -1.4616
  201MOL0     H27711  13.011   8.915   9.256 -1.8503  2.1258 -1.9010
  201MOL0     H27712  13.168   8.772   9.031  3.3885  1.7461  0.3842
  201MOL0     H27713  13.075   8.696   9.162  3.2199 -3.0215  1.2377
  201MOL0     H27714  13.249   8.864   9.301  2.2017 -0.5988  1.3499
  201MOL0     H27715  13.361   8.802   9.179  1.0530 -1.5683  1.6153
  201MOL0     H27716  13.281   8.560   9.248 -0.3685 -1.5117  1.6232
  201MOL0     H27717  13.173   8.631   9.355  0.0755 -0.9076  0.7533
  201MOL0     H27718  12.571   9.071   9.212  0.2363  1.0932  0.8018
  201MOL0     H27719  12.323   9.042   9.186  4.5690 -2.3510  1.6949
  201MOL0     H27720  11.957   9.034   9.088 -1.8592 -1.1676  4.4373
  201MOL0     H27721  11.741   8.957   9.082 -1.3764 -0.5302  0.7522
  201MOL0     H27722  11.071  10.356   8.665 -1.0628 -0.8032  1.3480
  201MOL0     H27723  11.190  10.527   8.541  0.5416  1.3347 -0.2251
  201MOL0     H27724  11.017  11.066   8.255  0.9624  1.6635  2.0653
  201MOL0     H27725  11.157  11.173   8.079  1.1985 -0.4882 -2.3038
  201MOL0     H27726  11.425  11.241   7.861  1.3753  0.1774  1.1161
  201MOL0     H27727  11.271  11.245   7.917  0.7202 -0.0208 -2.0170
  201MOL0     H27728  11.369  11.259   8.169  1.1799 -1.4456  0.0012
  201MOL0     H27729  11.392  11.392   8.050 -0.3992 -1.0158 -0.7611
  201MOL0     H27730  11.581  11.157   8.091  1.2016 -0.4795  0.3567
  201MOL0     H27731  11.634  11.324   8.039  0.4471  0.0356  1.1439
  201MOL0     H27732  11.549  11.230   8.310  0.5596  1.6974  2.0786
  201MOL0     H27733  11.598  11.394   8.284 -0.5291 -0.2033 -0.5264
  201MOL0     H27734  11.977  11.207   8.319  0.0686  2.0269  2.2257
  201MOL0     H27735  11.434  10.875   8.091 -0.7938 -0.9533  1.6374
  201MOL0     H27736  11.448  10.733   8.248 -1.5741  1.9049 -2.3065
  201MOL0     H27737  11.376  10.766   8.409 -2.2476 -1.3974  0.4117
  201MOL0     H27738  11.307  10.649   8.306  2.7314 -0.7982 -1.5280
  202MOL0     O27739   5.489   2.212  11.133  0.3285  0.3102  0.0489
  202MOL0     C27740   5.515   2.222  11.248 -0.2546 -0.7148 -0.2921
  202MOL0     O27741   5.431   2.276  11.344 -0.4846  0.3167 -0.4147
  202MOL0     C27742   5.298   2.266  11.324  0.0507  1.2124 -0.1060
  202MOL0     C27743   5.233   2.148  11.287 -0.0109 -0.0005  0.0165
  202MOL0     C27744   5.092   2.148  11.286  0.4330  0.5464  0.2447
  202MOL0     C27745   5.013   2.250  11.311 -0.0653  0.7016 -0.8655
  202MOL0     O27746   4.878   2.231  11.303 -0.2698 -0.8571  0.4306
  202MOL0     C27747   4.794   2.343  11.272 -0.5079  0.1371  0.4227
  202MOL0     C27748   4.686   2.310  11.170 -0.4350 -1.0168  0.1858
  202MOL0     C27749   4.585   2.437  11.145  0.4373  0.3889  0.6230
  202MOL0     C27750   4.476   2.440  11.261 -0.1416 -1.0199  0.6141
  202MOL0     C27751   4.363   2.540  11.232  0.1114 -0.6304  0.0986
  202MOL0     C27752   4.400   2.689  11.229 -0.3820  0.3102  0.4444
  202MOL0     C27753   4.298   2.776  11.163 -0.3328 -0.0756 -0.2638
  202MOL0     C27754   4.284   2.769  11.012  0.3023 -0.0955  0.5183
  202MOL0     N27755   4.399   2.817  10.933 -0.2985 -0.1067  0.2285
  202MOL0     C27756   4.506   2.741  10.897 -0.9407  0.0200 -0.3625
  202MOL0     C27757   4.589   2.834  10.847 -0.1238 -0.0170  0.7639
  202MOL0     C27758   4.712   2.789  10.778 -0.3381  0.0054  0.5944
  202MOL0     C27759   4.833   2.868  10.821  0.3734  0.0626 -0.1392
  202MOL0     C27760   4.877   2.835  10.964  0.1269  0.2485 -0.9192
  202MOL0     C27761   5.026   2.864  10.980  0.9013 -0.6370 -0.0983
  202MOL0     O27762   5.077   2.824  11.103  0.5977  0.8906  0.4016
  202MOL0     C27763   5.204   2.847  11.142  0.2240 -0.6171 -0.6609
  202MOL0     C27764   5.298   2.918  11.067 -0.6479 -1.0217 -0.2502
  202MOL0     C27765   5.431   2.926  11.110  0.7071 -0.7759 -0.8879
  202MOL0     C27766   5.530   2.985  11.016  0.7875  0.2009  0.4107
  202MOL0     C27767   5.465   2.896  11.253 -0.0793 -0.9108  0.2204
  202MOL0     C27768   5.594   2.928  11.313  0.0594  0.3821  0.7754
  202MOL0     O27769   5.683   2.995  11.243 -0.3015 -0.5358 -0.3367
  202MOL0     C27770   5.817   2.996  11.277  0.5733  0.2120  0.0264
  202MOL0     C27771   5.863   3.118  11.315 -0.1260 -0.1656 -0.1774
  202MOL0     C27772   5.997   3.127  11.348 -0.1652 -0.6913 -0.8034
  202MOL0     C27773   6.087   3.021  11.349 -0.2335  0.9885  0.3381
  202MOL0     O27774   6.222   3.038  11.394 -0.6256  0.0645  0.1596
  202MOL0     C27775   6.282   2.925  11.453  0.3690  0.7989  1.1049
  202MOL0     C27776   6.412   2.872  11.385  1.1027 -0.6561  0.1303
  202MOL0     C27777   6.399   2.848  11.239 -0.1616  0.4404 -0.4379
  202MOL0     C27778   6.527   2.838  11.184 -0.9716  0.2425  0.3624
  202MOL0     C27779   6.530   2.830  11.029 -0.0564 -0.2195  0.4756
  202MOL0     C27780   6.447   2.707  10.963 -0.0160 -0.1432 -0.5319
  202MOL0     C27781   6.516   2.671  10.830  0.1389  0.2801  0.4465
  202MOL0     C27782   6.454   2.544  10.756  0.3941 -0.1446  0.5887
  202MOL0    Cl27783   6.283   2.577  10.738 -0.1310 -0.2019  0.3137
  202MOL0     C27784   6.033   2.895  11.308 -0.2354  0.2322  0.6736
  202MOL0     C27785   5.895   2.885  11.265 -0.2445  0.2470  0.1133
  202MOL0     O27786   5.621   2.882  11.422 -0.6596  0.2909  0.0987
  202MOL0     C27787   5.360   2.831  11.330 -0.2926 -0.8157  0.1021
  202MOL0     C27788   5.238   2.810  11.274  0.7000 -0.5752  0.5293
  202MOL0     N27789   4.538   2.964  10.869  0.6058  0.6052 -0.1314
  202MOL0     N27790   4.421   2.951  10.909  0.0359  0.0147 -0.8549
  202MOL0     C27791   5.075   2.366  11.356  0.0757 -1.4253  0.0993
  202MOL0     C27792   5.216   2.372  11.375 -0.3740  0.5570  0.1885
  202MOL0     C27793   5.655   2.185  11.287 -0.0707 -1.0968  0.4207
  202MOL0     C27794   5.713   2.073  11.231 -0.7680  0.5075 -0.0967
  202MOL0     C27795   5.835   2.015  11.270  0.0752 -0.3469  0.1392
  202MOL0     C27796   5.907   2.083  11.367  0.2411  0.4125  0.0610
  202MOL0     O27797   6.031   2.037  11.402  0.5610 -0.2378 -0.3078
  202MOL0     C27798   6.136   2.099  11.331  1.0892  0.2042 -1.1085
  202MOL0     C27799   6.274   2.059  11.387  0.6404  0.0727 -0.1679
  202MOL0     C27800   6.276   2.080  11.545 -0.0750  0.0897  0.4987
  202MOL0     C27801   6.423   2.093  11.583  0.0141  0.5029 -0.6195
  202MOL0     C27802   6.497   1.977  11.608  0.5862  0.9373  0.0948
  202MOL0     C27803   6.560   1.875  11.631  0.0766  0.0673  0.4069
  202MOL0     C27804   5.858   2.206  11.420  0.8682 -0.7695  0.1992
  202MOL0     C27805   5.729   2.260  11.384 -0.1994  0.8305 -0.0199
  202MOL0     C27806   5.693   2.399  11.430  0.0328 -0.7043 -0.6089
  202MOL0     H27807   5.284   2.054  11.268 -5.2479 -2.8496 -2.4532
  202MOL0     H27808   5.036   2.058  11.265 -0.7091  0.7904  2.0258
  202MOL0     H27809   4.859   2.425  11.239  2.4766 -3.1812 -2.9517
  202MOL0     H27810   4.745   2.371  11.365  3.7804  2.7875  2.2119
  202MOL0     H27811   4.726   2.283  11.072  1.6620  1.7307  0.1408
  202MOL0     H27812   4.641   2.222  11.216  0.3825 -0.8461  1.3867
  202MOL0     H27813   4.646   2.528  11.139  3.1977 -1.4115 -1.8316
  202MOL0     H27814   4.529   2.433  11.051  0.7701  2.9602  0.2390
  202MOL0     H27815   4.434   2.340  11.277 -3.9365  0.0279 -1.5078
  202MOL0     H27816   4.517   2.470  11.358 -1.2384 -0.0831  0.8257
  202MOL0     H27817   4.285   2.526  11.308 -0.2918  1.0429  0.0297
  202MOL0     H27818   4.315   2.523  11.136 -0.9524 -1.8705  0.8226
  202MOL0     H27819   4.423   2.717  11.332 -0.7187  0.9347  0.3586
  202MOL0     H27820   4.489   2.701  11.167 -2.0085  1.0013 -1.9533
  202MOL0     H27821   4.315   2.881  11.190 -4.6058  0.0523  3.0202
  202MOL0     H27822   4.203   2.764  11.215  1.0222  0.4304  2.5252
  202MOL0     H27823   4.260   2.667  10.982  0.0054  0.4637 -1.2229
  202MOL0     H27824   4.199   2.833  10.986  1.0245  0.1291 -1.3906
  202MOL0     H27825   4.504   2.634  10.877  2.9668 -0.1026 -1.0116
  202MOL0     H27826   4.678   2.797  10.675 -0.7764 -0.0177  0.7351
  202MOL0     H27827   4.748   2.688  10.800  1.1226  0.2660 -0.4347
  202MOL0     H27828   4.912   2.833  10.754  0.3427 -0.6082  0.1730
  202MOL0     H27829   4.811   2.975  10.810 -0.1953  0.3461  2.9042
  202MOL0     H27830   4.818   2.893  11.035 -0.9336 -1.1915 -0.5852
  202MOL0     H27831   4.872   2.729  10.990  0.7867 -0.0499 -1.9143
  202MOL0     H27832   5.084   2.832  10.893  0.4055  0.6986 -0.9546
  202MOL0     H27833   5.028   2.972  10.961 -1.3507 -0.9009 -2.4555
  202MOL0     H27834   5.270   2.956  10.969 -2.2003  3.3202  1.6312
  202MOL0     H27835   5.608   2.922  10.973  0.6322  0.9124 -0.9454
  202MOL0     H27836   5.566   3.079  11.059 -0.5056  0.4189  1.0715
  202MOL0     H27837   5.479   3.022  10.927 -0.9170 -2.0062  0.3613
  202MOL0     H27838   5.791   3.199  11.312  0.4500  0.3761  0.2955
  202MOL0     H27839   6.030   3.226  11.379 -0.5584 -0.8923  0.3068
  202MOL0     H27840   6.324   2.958  11.548  3.3993  1.5352 -0.3951
  202MOL0     H27841   6.207   2.847  11.471  1.4480 -1.3240 -2.4670
  202MOL0     H27842   6.490   2.946  11.405  0.7405 -0.3060  0.2691
  202MOL0     H27843   6.443   2.781  11.437 -1.6233 -0.2715  2.6957
  202MOL0     H27844   6.346   2.931  11.190  1.1506  0.9948 -0.9820
  202MOL0     H27845   6.342   2.756  11.222 -1.4688  1.0442  0.5348
  202MOL0     H27846   6.565   2.743  11.224 -0.4646  0.1153 -0.3973
  202MOL0     H27847   6.600   2.910  11.220  1.2807 -1.9142  0.4133
  202MOL0     H27848   6.494   2.919  10.976  1.2583  0.4299  0.6277
  202MOL0     H27849   6.636   2.828  10.998 -0.1495 -1.1457  0.1772
  202MOL0     H27850   6.352   2.755  10.939  0.9690  1.4610 -1.4573
  202MOL0     H27851   6.434   2.630  11.039  1.4615 -1.3447 -1.4126
  202MOL0     H27852   6.625   2.660  10.837  0.5480  3.3340  0.0836
  202MOL0     H27853   6.506   2.757  10.763 -1.1320 -0.4130 -0.2794
  202MOL0     H27854   6.466   2.454  10.817  0.3297 -1.5820 -1.4600
  202MOL0     H27855   6.507   2.535  10.661 -1.4931  1.4293 -0.6740
  202MOL0     H27856   6.085   2.801  11.318 -0.6345 -0.0533  0.1285
  202MOL0     H27857   5.837   2.798  11.237 -2.4879  0.6652  2.9850
  202MOL0     H27858   5.376   2.793  11.431 -0.0811 -1.5058 -0.1862
  202MOL0     H27859   5.158   2.768  11.335  1.7835 -2.0017  1.0202
  202MOL0     H27860   5.016   2.450  11.390  2.8769  1.7814 -2.2008
  202MOL0     H27861   5.255   2.467  11.410 -0.5821  0.6437  0.1876
  202MOL0     H27862   5.647   2.020  11.163  0.4443 -1.5738  0.2721
  202MOL0     H27863   5.879   1.922  11.236 -2.3626 -1.7843  0.6892
  202MOL0     H27864   6.133   2.066  11.226  0.9354 -1.5852 -0.5737
  202MOL0     H27865   6.131   2.208  11.338  0.9311  0.0715  1.5491
  202MOL0     H27866   6.339   2.127  11.331 -2.1700  1.0385 -2.4740
  202MOL0     H27867   6.303   1.956  11.365 -1.3278 -1.2163  2.6977
  202MOL0     H27868   6.205   2.159  11.571 -4.3324 -2.9263 -0.9067
  202MOL0     H27869   6.233   1.989  11.588  0.2113 -0.3736 -0.1797
  202MOL0     H27870   6.420   2.143  11.681  2.1300  4.3553 -2.2921
  202MOL0     H27871   6.479   2.167  11.527  1.6186  0.2040  0.5175
  202MOL0     H27872   6.599   1.775  11.632  0.1188  0.0555 -0.6493
  202MOL0     H27873   5.923   2.267  11.483  0.9515  2.0354 -2.3812
  202MOL0     H27874   5.642   2.379  11.525  1.8256 -2.5332  0.0582
  202MOL0     H27875   5.776   2.468  11.448  0.3830 -0.7435 -1.9839
  202MOL0     H27876   5.629   2.438  11.351  0.3674 -1.3380 -1.2022
  203MOL0     O27877   8.793   8.049   3.316 -0.5902  0.3629 -0.1084
  203MOL0     C27878   8.781   8.176   3.310  0.3062 -0.1907  0.1786
  203MOL0     O27879   8.881   8.269   3.315  0.6643  0.6451 -0.9593
  203MOL0     C27880   9.011   8.216   3.326  0.1368 -0.2479 -0.6310
  203MOL0     C27881   9.074   8.186   3.203  0.3350 -0.2477 -0.9078
  203MOL0     C27882   9.214   8.149   3.202  0.4481  0.2741 -0.0233
  203MOL0     C27883   9.285   8.118   3.321 -0.2309  0.2366 -0.0632
  203MOL0     O27884   9.414   8.074   3.331  0.3324  0.3280 -0.4764
  203MOL0     C27885   9.508   8.087   3.219 -0.3370 -0.6278  0.2307
  203MOL0     C27886   9.651   8.064   3.276 -0.1412 -0.2865  0.1112
  203MOL0     C27887   9.767   8.046   3.176  0.4605  0.0899  0.2884
  203MOL0     C27888   9.819   8.177   3.115 -0.1481  0.1034 -0.3795
  203MOL0     C27889   9.948   8.170   3.029 -0.7777 -0.0627  0.1520
  203MOL0     C27890   9.945   8.090   2.903  0.1063  0.5320  0.0978
  203MOL0     C27891  10.088   8.067   2.843 -0.0229 -0.1890 -0.3610
  203MOL0     C27892  10.163   7.959   2.914  0.4976 -0.7899 -1.2388
  203MOL0     N27893  10.287   7.921   2.845  0.0568  0.3113 -0.6714
  203MOL0     C27894  10.391   8.001   2.814  0.3304 -1.0016 -0.0479
  203MOL0     C27895  10.488   7.925   2.760  0.4882  0.1936  0.2460
  203MOL0     C27896  10.618   7.975   2.697  0.3412  0.8841  0.2685
  203MOL0     C27897  10.719   7.984   2.811  0.6769 -0.6911 -0.1625
  203MOL0     C27898  10.834   8.064   2.770 -0.0156  0.6428  0.0861
  203MOL0     C27899  10.912   8.094   2.892 -0.1205 -0.1499 -0.1274
  203MOL0     O27900  11.023   8.169   2.841  0.0101  0.8507  0.9400
  203MOL0     C27901  11.124   8.193   2.935 -0.4241 -0.2147 -0.1278
  203MOL0     C27902  11.133   8.140   3.069 -0.4570 -0.0028 -0.7112
  203MOL0     C27903  11.254   8.155   3.145 -0.0963 -0.2704 -0.5244
  203MOL0     C27904  11.254   8.093   3.284 -0.6153  0.1351  0.4603
  203MOL0     C27905  11.364   8.221   3.083 -0.3580  0.9722 -0.5889
  203MOL0     C27906  11.500   8.229   3.131 -0.6513 -0.0992  0.6168
  203MOL0     O27907  11.568   8.343   3.097  0.4612 -0.4927 -0.3554
  203MOL0     C27908  11.706   8.373   3.131 -0.4094  0.5766  1.1484
  203MOL0     C27909  11.793   8.283   3.211 -0.2079 -0.0152 -1.1442
  203MOL0     C27910  11.926   8.315   3.227  0.2152  0.4123  1.2611
  203MOL0     C27911  11.982   8.427   3.149  0.6400  0.0433 -0.4318
  203MOL0     O27912  12.114   8.458   3.151  0.3363  0.1064 -0.1867
  203MOL0     C27913  12.205   8.407   3.254 -0.0345 -0.9524  0.2467
  203MOL0     C27914  12.352   8.451   3.221  0.7708  0.3514  0.9759
  203MOL0     C27915  12.445   8.447   3.346 -0.3516  1.5565 -0.1324
  203MOL0     C27916  12.468   8.307   3.424 -0.3003 -0.0413  0.1821
  203MOL0     C27917  12.502   8.195   3.327 -0.1565  0.0045 -0.4252
  203MOL0     C27918  12.631   8.227   3.246  0.4318 -0.5736  0.1154
  203MOL0     C27919  12.767   8.212   3.316  0.2502 -0.4129 -0.8235
  203MOL0     C27920  12.888   8.247   3.232  0.2477  0.1661 -0.5109
  203MOL0    Cl27921  13.036   8.166   3.316  0.1220 -0.0307 -0.0862
  203MOL0     C27922  11.902   8.496   3.059  0.3452  0.1929 -0.3922
  203MOL0     C27923  11.762   8.466   3.040 -0.6167  0.2423 -0.6996
  203MOL0     O27924  11.552   8.136   3.189 -0.4168  0.0852 -0.3231
  203MOL0     C27925  11.351   8.286   2.955 -1.4084  0.7793 -0.0161
  203MOL0     C27926  11.241   8.263   2.882  0.2142  1.0514 -0.3399
  203MOL0     N27927  10.447   7.795   2.780 -0.4015  0.0901  0.0378
  203MOL0     N27928  10.329   7.788   2.847  0.2668 -0.5712  0.9125
  203MOL0     C27929   9.213   8.141   3.440  0.4169 -0.3477 -0.2688
  203MOL0     C27930   9.077   8.189   3.442 -0.4147  0.6878 -0.1604
  203MOL0     C27931   8.645   8.225   3.325  0.3863 -0.5255 -0.3441
  203MOL0     C27932   8.542   8.133   3.289 -0.1386 -1.3746 -0.4805
  203MOL0     C27933   8.406   8.173   3.281  0.5339 -0.1388 -0.8722
  203MOL0     C27934   8.367   8.309   3.304  0.4646  0.9516  0.1603
  203MOL0     O27935   8.237   8.354   3.299  0.1144 -0.5461  0.1379
  203MOL0     C27936   8.132   8.259   3.288  0.6077 -0.8439 -0.0282
  203MOL0     C27937   7.993   8.320   3.261  0.3587 -0.1959  0.3954
  203MOL0     C27938   7.986   8.358   3.110  0.1955 -0.7118 -0.2886
  203MOL0     C27939   7.836   8.387   3.074 -0.4370  0.5334  0.0652
  203MOL0     C27940   7.753   8.269   3.066 -0.0630  0.4207  0.4786
  203MOL0     C27941   7.700   8.162   3.071  0.1979  0.5631  0.4921
  203MOL0     C27942   8.465   8.396   3.350  1.0793 -0.0384  0.0529
  203MOL0     C27943   8.598   8.353   3.363 -0.5368 -0.5214 -0.1318
  203MOL0     C27944   8.696   8.458   3.417  0.4695  0.4888  0.3248
  203MOL0     H27945   9.015   8.181   3.113 -3.0577 -3.0616  1.2173
  203MOL0     H27946   9.265   8.132   3.108 -2.6656 -0.9848 -1.6387
  203MOL0     H27947   9.502   8.186   3.174  2.9784 -0.5875 -0.4110
  203MOL0     H27948   9.493   8.009   3.143  0.6097  1.0916 -1.8162
  203MOL0     H27949   9.668   8.146   3.346 -2.3111  2.7913 -2.6661
  203MOL0     H27950   9.647   7.971   3.334  0.7833  0.0391  0.7070
  203MOL0     H27951   9.848   8.001   3.235 -0.8373 -1.0638  1.2642
  203MOL0     H27952   9.739   7.981   3.093 -0.9528 -0.6168  1.2816
  203MOL0     H27953   9.743   8.226   3.054  1.4255 -0.9555 -3.3995
  203MOL0     H27954   9.842   8.244   3.197  0.9317 -4.0131  3.0388
  203MOL0     H27955  10.020   8.129   3.101 -2.8291  1.9856  3.6349
  203MOL0     H27956   9.976   8.274   3.013  1.3437 -0.3410  1.5751
  203MOL0     H27957   9.896   7.993   2.917  1.4400 -0.1429  0.2797
  203MOL0     H27958   9.884   8.135   2.824  1.3912  0.1950 -1.1399
  203MOL0     H27959  10.138   8.164   2.846 -2.4203  1.1548 -1.2446
  203MOL0     H27960  10.073   8.024   2.743  1.5836 -3.4812  0.6534
  203MOL0     H27961  10.188   7.983   3.018 -1.2818 -0.8121 -0.7761
  203MOL0     H27962  10.095   7.873   2.910  0.6568 -1.0098  0.3194
  203MOL0     H27963  10.397   8.108   2.832  1.7438 -0.8457 -1.1768
  203MOL0     H27964  10.587   8.070   2.653  0.2167  0.8586  0.3003
  203MOL0     H27965  10.660   7.908   2.622  1.0416 -0.0888  1.4927
  203MOL0     H27966  10.669   8.045   2.886  2.9938 -0.3140  1.1864
  203MOL0     H27967  10.743   7.889   2.861 -0.5296 -0.2029  1.4230
  203MOL0     H27968  10.889   8.005   2.696 -0.1863  0.4792  0.0872
  203MOL0     H27969  10.805   8.155   2.717 -1.4917 -0.3083 -0.8249
  203MOL0     H27970  10.867   8.140   2.981 -0.5681 -1.3891  0.3109
  203MOL0     H27971  10.955   7.999   2.924  1.3913  0.5590  0.0105
  203MOL0     H27972  11.060   8.077   3.119  0.1260 -1.2472 -1.3589
  203MOL0     H27973  11.152   8.075   3.320 -0.5809 -2.6194 -0.6146
  203MOL0     H27974  11.314   8.151   3.355 -1.5012  1.3175  0.2841
  203MOL0     H27975  11.298   7.994   3.270  0.0226  0.4752 -0.0225
  203MOL0     H27976  11.767   8.194   3.267  1.0573  0.0415 -0.4245
  203MOL0     H27977  11.977   8.238   3.283 -0.0319  1.2938  2.7796
  203MOL0     H27978  12.179   8.453   3.349  4.1767 -1.0127  1.6153
  203MOL0     H27979  12.195   8.300   3.276 -2.1483 -0.8573 -0.0255
  203MOL0     H27980  12.398   8.382   3.149  3.5386  1.2150  1.7693
  203MOL0     H27981  12.349   8.555   3.186  2.2690  0.2904  0.5715
  203MOL0     H27982  12.421   8.523   3.421 -0.4239  0.0115  1.4701
  203MOL0     H27983  12.546   8.481   3.318  0.1952  0.8338  0.8961
  203MOL0     H27984  12.392   8.261   3.489  0.5342 -1.2275  0.3471
  203MOL0     H27985  12.553   8.323   3.491  0.0520  0.2837 -0.3397
  203MOL0     H27986  12.510   8.099   3.379 -1.2639 -1.0001 -2.0352
  203MOL0     H27987  12.415   8.181   3.263 -1.3782 -1.5014  1.4552
  203MOL0     H27988  12.625   8.314   3.180 -0.0562 -0.4956  0.2569
  203MOL0     H27989  12.621   8.143   3.178 -2.4373  0.4404 -0.8818
  203MOL0     H27990  12.780   8.107   3.345  1.1085 -0.2704 -0.6432
  203MOL0     H27991  12.771   8.273   3.406  0.3936 -0.9845 -0.4377
  203MOL0     H27992  12.906   8.355   3.245  1.2012 -0.2009  1.6523
  203MOL0     H27993  12.875   8.227   3.125 -2.9197  1.0151 -0.3896
  203MOL0     H27994  11.956   8.566   2.996  0.1098  1.8168  1.1492
  203MOL0     H27995  11.698   8.524   2.973  1.5883  0.6194 -2.6401
  203MOL0     H27996  11.431   8.335   2.901  1.1965  0.1208  2.9809
  203MOL0     H27997  11.236   8.301   2.780 -0.3157 -2.8247 -1.9637
  203MOL0     H27998   9.262   8.121   3.534 -0.1083 -0.7848 -0.0814
  203MOL0     H27999   9.021   8.204   3.534 -3.9270 -1.3662 -1.7286
  203MOL0     H28000   8.559   8.028   3.267 -1.1476 -1.7582  0.4778
  203MOL0     H28001   8.344   8.091   3.244  1.8246 -2.0868  1.0880
  203MOL0     H28002   8.162   8.188   3.210  1.5028  1.0246 -1.4683
  203MOL0     H28003   8.140   8.213   3.386 -0.5542  2.1473  1.6164
  203MOL0     H28004   7.978   8.412   3.318 -0.4378 -0.5265  0.7361
  203MOL0     H28005   7.912   8.250   3.282 -0.3391 -0.6789 -3.2319
  203MOL0     H28006   8.056   8.439   3.088 -1.1695  1.0178  1.3435
  203MOL0     H28007   8.010   8.269   3.052 -2.2373 -2.6763  1.4413
  203MOL0     H28008   7.829   8.443   2.981  0.2643 -0.7532 -0.7875
  203MOL0     H28009   7.798   8.461   3.145  1.5120  1.8907 -0.2498
  203MOL0     H28010   7.666   8.061   3.085 -1.4286  0.4632 -3.1842
  203MOL0     H28011   8.427   8.490   3.389 -4.4514 -1.5782 -0.6778
  203MOL0     H28012   8.755   8.404   3.491 -1.1885 -2.9334 -0.6342
  203MOL0     H28013   8.764   8.499   3.342 -2.1276  1.1124 -1.8277
  203MOL0     H28014   8.642   8.539   3.467  1.0400  1.2135 -0.2157
  204MOL0     O28015   8.441   8.950   4.042  0.2727  0.2216 -0.2459
  204MOL0     C28016   8.339   8.885   4.026  0.0992  0.0238  0.3611
  204MOL0     O28017   8.337   8.765   3.979 -0.2785 -0.4154  0.0126
  204MOL0     C28018   8.448   8.712   3.921  0.1690  0.4711  0.5676
  204MOL0     C28019   8.541   8.635   3.989  0.6696  0.0677  0.4984
  204MOL0     C28020   8.649   8.570   3.918 -0.3108 -0.4262 -0.4394
  204MOL0     C28021   8.662   8.580   3.779 -0.8312  0.4466 -1.1479
  204MOL0     O28022   8.767   8.518   3.714  0.0959 -0.1937 -0.0960
  204MOL0     C28023   8.885   8.484   3.788  0.8149 -0.2241 -0.8883
  204MOL0     C28024   8.999   8.451   3.694  0.2931 -0.2272  0.1779
  204MOL0     C28025   9.029   8.577   3.608  0.8869  0.8279  0.6003
  204MOL0     C28026   9.148   8.540   3.516 -0.9981  0.0907 -0.4452
  204MOL0     C28027   9.277   8.477   3.587 -0.0855  0.4735 -0.2806
  204MOL0     C28028   9.345   8.558   3.704 -0.1425 -0.6631  0.4183
  204MOL0     C28029   9.399   8.699   3.662  0.0537  0.4270  0.2266
  204MOL0     C28030   9.499   8.698   3.543  0.4731  0.5948  0.0982
  204MOL0     N28031   9.616   8.610   3.571  0.1691  0.1100  0.8850
  204MOL0     C28032   9.676   8.619   3.699 -0.0609  0.5964  0.4981
  204MOL0     C28033   9.763   8.511   3.695  0.7674 -0.7089  0.9815
  204MOL0     C28034   9.858   8.493   3.811 -0.8037  0.5191 -0.8196
  204MOL0     C28035   9.855   8.344   3.870  0.1360 -0.6837  0.3703
  204MOL0     C28036   9.713   8.281   3.882 -0.5676 -0.1150 -0.7315
  204MOL0     C28037   9.620   8.352   3.981 -1.4308 -0.5890 -0.9466
  204MOL0     O28038   9.679   8.399   4.101 -0.1798  0.0168  0.1229
  204MOL0     C28039   9.721   8.306   4.191  0.5741  0.1093  0.5061
  204MOL0     C28040   9.833   8.343   4.269  0.2594  0.3640 -0.5165
  204MOL0     C28041   9.883   8.251   4.363  0.3795 -0.4845  0.7075
  204MOL0     C28042  10.002   8.298   4.442 -0.6252 -0.2242  0.2546
  204MOL0     C28043   9.829   8.120   4.384  0.1193  0.0932  0.1720
  204MOL0     C28044   9.878   8.003   4.465  0.4983 -0.5192 -0.6688
  204MOL0     O28045  10.010   8.004   4.502 -0.4724  0.4292 -0.4501
  204MOL0     C28046  10.060   7.890   4.547  0.1568 -0.1098  0.0123
  204MOL0     C28047  10.140   7.811   4.465  0.0383 -0.2792 -0.7866
  204MOL0     C28048  10.181   7.690   4.522 -0.1045 -0.1421  0.8630
  204MOL0     C28049  10.146   7.645   4.654  0.5827 -0.8118  0.9031
  204MOL0     O28050  10.193   7.523   4.699  0.2399 -0.0720 -0.3480
  204MOL0     C28051  10.145   7.472   4.822 -0.2922  0.6238  0.0610
  204MOL0     C28052  10.141   7.313   4.800  0.0752 -0.1799  0.1324
  204MOL0     C28053  10.116   7.249   4.933 -0.8977  1.1118 -0.9530
  204MOL0     C28054  10.100   7.094   4.920  0.0173 -0.6442  0.3614
  204MOL0     C28055  10.104   7.017   5.057  0.1801  0.1168 -0.7997
  204MOL0     C28056  10.256   7.012   5.105  0.1243 -0.1591  0.0644
  204MOL0     C28057  10.266   6.977   5.257 -0.2253 -0.0359  0.4392
  204MOL0     C28058  10.398   7.018   5.317  0.4186 -0.4900 -0.4278
  204MOL0    Cl28059  10.377   7.195   5.345  0.4719 -0.0018 -0.0221
  204MOL0     C28060  10.082   7.743   4.734  1.2940  0.1957  0.0466
  204MOL0     C28061  10.033   7.860   4.683  0.1680 -0.4508  1.0054
  204MOL0     O28062   9.791   7.926   4.506  0.3535  0.7834  0.0583
  204MOL0     C28063   9.716   8.098   4.300  0.3915 -0.5598 -0.7573
  204MOL0     C28064   9.666   8.188   4.212  0.0000 -0.1728  1.2283
  204MOL0     N28065   9.752   8.442   3.574 -0.2359 -0.2672 -0.6833
  204MOL0     N28066   9.659   8.497   3.506  0.2123  0.0112  0.1714
  204MOL0     C28067   8.572   8.664   3.715  0.4206 -0.1248  0.3347
  204MOL0     C28068   8.465   8.721   3.788  0.1931  0.2964  0.2882
  204MOL0     C28069   8.210   8.949   4.080  0.0354 -0.1602 -0.5949
  204MOL0     C28070   8.218   9.073   4.148  0.0710 -0.0794  0.3783
  204MOL0     C28071   8.111   9.135   4.210 -0.1583 -0.3719 -0.4962
  204MOL0     C28072   7.982   9.084   4.194  0.4181 -0.3697  0.3587
  204MOL0     O28073   7.884   9.145   4.270  0.0057 -0.1196  0.2441
  204MOL0     C28074   7.742   9.106   4.265  0.5028  0.7931 -0.3189
  204MOL0     C28075   7.678   9.179   4.141  0.0956  0.2837  0.3995
  204MOL0     C28076   7.529   9.156   4.100  0.1020 -0.1819 -0.2357
  204MOL0     C28077   7.435   9.109   4.222 -0.7236 -0.1982 -0.2108
  204MOL0     C28078   7.309   9.064   4.172  0.2770  0.4235  0.5770
  204MOL0     C28079   7.207   9.031   4.115  0.4159  0.3165 -0.1540
  204MOL0     C28080   7.968   8.963   4.130 -0.3335  0.4504  0.7369
  204MOL0     C28081   8.080   8.897   4.078 -0.4189  0.5007  0.2043
  204MOL0     C28082   8.050   8.764   4.017  0.3752 -0.1978  0.4159
  204MOL0     H28083   8.520   8.610   4.092 -0.7307 -1.8588 -0.1829
  204MOL0     H28084   8.719   8.511   3.976 -0.7292  1.2905  1.9066
  204MOL0     H28085   8.864   8.394   3.847 -1.1045  1.4942  1.2471
  204MOL0     H28086   8.917   8.560   3.860  0.4568 -2.4961  1.8613
  204MOL0     H28087   9.091   8.421   3.745  1.9366  2.8902 -0.7611
  204MOL0     H28088   8.970   8.377   3.619  1.7395 -0.0602 -0.5686
  204MOL0     H28089   8.949   8.609   3.540  0.6191 -1.6353 -0.3274
  204MOL0     H28090   9.054   8.655   3.681 -1.8991  1.9310  0.5242
  204MOL0     H28091   9.117   8.459   3.449 -0.8149  1.3461 -2.1239
  204MOL0     H28092   9.181   8.619   3.448  0.8960 -0.3174 -0.0746
  204MOL0     H28093   9.352   8.471   3.507 -0.0932  2.5293 -0.4985
  204MOL0     H28094   9.262   8.375   3.623  0.4249  0.0756 -1.1594
  204MOL0     H28095   9.278   8.565   3.791 -0.6293 -4.3328  0.4851
  204MOL0     H28096   9.433   8.499   3.728  1.4224  0.9508 -1.1017
  204MOL0     H28097   9.447   8.754   3.744  0.2722  2.8754 -1.4419
  204MOL0     H28098   9.322   8.768   3.627  4.0684  2.8982 -5.0725
  204MOL0     H28099   9.451   8.678   3.447 -1.3519  0.9381  0.8963
  204MOL0     H28100   9.527   8.802   3.523 -0.1559  0.6357 -0.6392
  204MOL0     H28101   9.651   8.686   3.781  1.2952  0.5838  0.9423
  204MOL0     H28102   9.833   8.575   3.880  2.9387  1.9256 -0.9151
  204MOL0     H28103   9.962   8.505   3.781  0.3012 -1.8924  1.5798
  204MOL0     H28104   9.905   8.282   3.795 -1.5380 -0.0605 -1.3551
  204MOL0     H28105   9.917   8.339   3.960  1.9814 -2.7111 -0.9090
  204MOL0     H28106   9.666   8.274   3.783  2.1188  0.0798 -2.1295
  204MOL0     H28107   9.743   8.178   3.904  0.6327  0.0822 -1.3553
  204MOL0     H28108   9.579   8.442   3.933 -1.0129  0.3755  0.4412
  204MOL0     H28109   9.538   8.282   3.996 -0.8462 -1.0578  0.1546
  204MOL0     H28110   9.883   8.438   4.252 -0.8150  1.3406  1.3265
  204MOL0     H28111  10.094   8.256   4.399  3.2899  2.1596  5.2904
  204MOL0     H28112  10.002   8.261   4.545  1.9201  2.3698  1.3452
  204MOL0     H28113  10.005   8.407   4.445 -3.3388 -0.0914  1.5336
  204MOL0     H28114  10.176   7.834   4.365  1.0493  3.3921  0.2719
  204MOL0     H28115  10.233   7.623   4.456 -2.1628 -0.6895 -0.2809
  204MOL0     H28116  10.209   7.509   4.903 -0.9138  1.2745  0.2648
  204MOL0     H28117  10.039   7.492   4.839 -0.8939 -1.8434 -0.4308
  204MOL0     H28118  10.061   7.280   4.733  0.4754 -2.8549  0.8508
  204MOL0     H28119  10.233   7.278   4.751  0.7515 -0.6404  1.6781
  204MOL0     H28120  10.025   7.284   4.983 -2.4039 -3.7861  0.3027
  204MOL0     H28121  10.200   7.274   4.998 -0.6756  0.7560 -1.1002
  204MOL0     H28122  10.176   7.055   4.852  1.1063  3.6739 -1.2888
  204MOL0     H28123   9.996   7.086   4.887 -0.9550  2.0183  2.3816
  204MOL0     H28124  10.051   7.071   5.136  1.8991  0.5982  0.0724
  204MOL0     H28125  10.059   6.918   5.046  3.3298 -1.5528  0.0392
  204MOL0     H28126  10.312   7.105   5.106  2.7334 -1.5809  3.1907
  204MOL0     H28127  10.299   6.931   5.044 -0.4976 -0.5976  0.1966
  204MOL0     H28128  10.244   6.871   5.247  2.0667 -0.3398 -3.9228
  204MOL0     H28129  10.188   7.025   5.317 -1.5792 -1.3082 -0.2328
  204MOL0     H28130  10.474   6.994   5.242  2.3249  3.3959 -0.0280
  204MOL0     H28131  10.418   6.964   5.410 -0.2230  0.4891  0.3086
  204MOL0     H28132  10.052   7.739   4.838 -0.6576  3.6140 -0.2304
  204MOL0     H28133   9.983   7.930   4.750  4.3238  0.8425  3.1249
  204MOL0     H28134   9.672   8.003   4.328  1.2907 -0.9404 -0.6054
  204MOL0     H28135   9.580   8.146   4.160  2.1025 -0.9341 -1.9183
  204MOL0     H28136   8.577   8.670   3.607  0.4198 -1.3355  0.2578
  204MOL0     H28137   8.389   8.785   3.743 -0.5331 -0.4128  0.4877
  204MOL0     H28138   8.307   9.133   4.133  0.8631 -1.8688 -3.1675
  204MOL0     H28139   8.128   9.214   4.282 -1.2743  1.5456 -2.2098
  204MOL0     H28140   7.713   9.001   4.254 -3.8762  1.9591 -2.6416
  204MOL0     H28141   7.699   9.140   4.360  0.9696 -2.2806  1.1170
  204MOL0     H28142   7.734   9.158   4.050 -1.7552 -0.6549 -0.5830
  204MOL0     H28143   7.677   9.288   4.151 -1.4973  0.5341 -1.7456
  204MOL0     H28144   7.492   9.253   4.066 -1.1135 -0.4177  0.3788
  204MOL0     H28145   7.514   9.085   4.018 -2.1114 -0.1333  0.0683
  204MOL0     H28146   7.425   9.195   4.289  0.5867  0.8636 -1.3012
  204MOL0     H28147   7.484   9.025   4.272  0.2737 -0.1081 -0.9852
  204MOL0     H28148   7.108   8.998   4.090 -0.3389  2.8840 -0.7704
  204MOL0     H28149   7.871   8.915   4.134  0.0320 -0.2726  1.0471
  204MOL0     H28150   7.944   8.742   4.031  0.1480 -0.0243 -0.9328
  204MOL0     H28151   8.082   8.761   3.913  1.4837 -0.7952  0.7576
  204MOL0     H28152   8.118   8.692   4.063  0.3418 -1.8841 -1.9882
  205MOL0     O28153   1.992   0.365   4.854 -0.3413  0.3153  0.0309
  205MOL0     C28154   1.920   0.466   4.876 -0.5610  0.0079 -0.0835
  205MOL0     O28155   1.968   0.596   4.887 -0.6268  0.0465  0.4788
  205MOL0     C28156   2.106   0.628   4.883  0.9415  0.6689 -0.5908
  205MOL0     C28157   2.179   0.648   5.010  0.5303 -0.4366  0.2193
  205MOL0     C28158   2.315   0.694   5.005 -0.4897 -0.5937  0.9476
  205MOL0     C28159   2.374   0.733   4.879 -0.0643 -0.1199 -0.4787
  205MOL0     O28160   2.489   0.806   4.881  0.1248 -0.0397  0.7597
  205MOL0     C28161   2.615   0.747   4.861  0.5517  0.3900  0.1744
  205MOL0     C28162   2.712   0.861   4.883 -1.3078  1.0164  0.0219
  205MOL0     C28163   2.848   0.823   4.847  0.0270 -0.0019 -1.3687
  205MOL0     C28164   2.928   0.741   4.953  0.1336 -0.0207 -0.1243
  205MOL0     C28165   3.068   0.697   4.902  0.3306 -0.5039 -0.2498
  205MOL0     C28166   3.164   0.675   5.008  0.0801  0.3711 -0.1997
  205MOL0     C28167   3.130   0.527   5.071 -0.2316 -1.0188  1.1056
  205MOL0     C28168   3.180   0.492   5.216  0.6633 -0.2095  1.0259
  205MOL0     N28169   3.328   0.501   5.200  0.3802 -0.2243  0.9337
  205MOL0     C28170   3.404   0.399   5.146  0.3558  0.1773 -1.0771
  205MOL0     C28171   3.528   0.452   5.128  0.4451 -0.2870 -0.0260
  205MOL0     C28172   3.644   0.399   5.055  0.7130 -0.8531  0.0158
  205MOL0     C28173   3.747   0.357   5.160  0.6707  0.0042 -0.3508
  205MOL0     C28174   3.869   0.453   5.168  0.0027 -1.0526 -0.8914
  205MOL0     C28175   3.975   0.405   5.257  0.6628  0.1547 -0.9002
  205MOL0     O28176   4.036   0.278   5.222  0.0100  0.3172 -0.1282
  205MOL0     C28177   4.127   0.232   5.312  0.0516  0.3638  0.1835
  205MOL0     C28178   4.219   0.144   5.258  0.3646  0.6950 -0.0319
  205MOL0     C28179   4.327   0.080   5.333  0.5842 -0.1810 -0.6811
  205MOL0     C28180   4.436   0.008   5.255 -0.2627 -0.8673 -0.2750
  205MOL0     C28181   4.312   0.085   5.474 -0.2259 -0.2565  0.5099
  205MOL0     C28182   4.422   0.021   5.551 -0.6355 -0.7467 -0.7572
  205MOL0     O28183   4.550   0.005   5.513 -0.0846  0.1186  0.6461
  205MOL0     C28184   4.645  -0.034   5.597  0.0723  0.7205  0.1689
  205MOL0     C28185   4.657  -0.172   5.617 -0.2468  0.2661 -0.0635
  205MOL0     C28186   4.754  -0.228   5.697 -0.2638 -0.2553 -0.7517
  205MOL0     C28187   4.844  -0.137   5.766  0.8864  0.1202 -0.3922
  205MOL0     O28188   4.947  -0.183   5.839  0.3396  0.5286 -1.0889
  205MOL0     C28189   4.908  -0.217   5.979 -0.3471 -0.7587  0.3850
  205MOL0     C28190   4.869  -0.362   5.992 -0.8249 -0.5159  0.7839
  205MOL0     C28191   4.909  -0.406   6.131  0.0797 -0.2533 -0.1283
  205MOL0     C28192   4.813  -0.511   6.195  0.4487  0.7822 -0.4463
  205MOL0     C28193   4.865  -0.562   6.334  0.2977  0.1930  0.8265
  205MOL0     C28194   4.893  -0.438   6.428 -0.5183  0.3591 -0.3272
  205MOL0     C28195   4.954  -0.479   6.558  0.4827 -0.2304 -0.3736
  205MOL0     C28196   4.964  -0.369   6.653 -0.5812 -0.8834 -0.4247
  205MOL0    Cl28197   5.044  -0.226   6.578 -0.3741 -0.0045  0.2315
  205MOL0     C28198   4.838   0.002   5.735  0.2835  1.1991  0.2896
  205MOL0     C28199   4.744   0.052   5.645  0.0276  0.1999  0.5639
  205MOL0     O28200   4.387  -0.008   5.664  0.0296  0.2611  0.2800
  205MOL0     C28201   4.210   0.153   5.535 -0.0413  0.3627 -0.0772
  205MOL0     C28202   4.122   0.233   5.456  1.3899  0.8229 -0.6721
  205MOL0     N28203   3.519   0.577   5.184 -0.2248 -0.3416  0.4089
  205MOL0     N28204   3.405   0.607   5.225 -0.3066  0.7549 -0.4325
  205MOL0     C28205   2.304   0.715   4.759  0.3552  0.6392  0.3742
  205MOL0     C28206   2.166   0.671   4.769 -0.3445  0.7505 -0.6474
  205MOL0     C28207   1.783   0.427   4.918 -0.6610 -1.0398  1.2575
  205MOL0     C28208   1.718   0.330   4.840 -0.6717 -0.0986  0.2881
  205MOL0     C28209   1.583   0.289   4.855  0.3152 -0.5148  0.3780
  205MOL0     C28210   1.508   0.359   4.944  0.1400 -0.0791  0.4584
  205MOL0     O28211   1.373   0.332   4.983 -0.2738  0.8763  0.3987
  205MOL0     C28212   1.279   0.307   4.872 -0.7143 -0.5434 -0.0210
  205MOL0     C28213   1.222   0.439   4.832 -0.0450  0.1001  0.0178
  205MOL0     C28214   1.147   0.507   4.948 -0.3211  0.5969  0.0403
  205MOL0     C28215   1.086   0.634   4.876  0.2942 -0.5847  0.0582
  205MOL0     C28216   0.989   0.703   4.956 -0.4356 -0.4687 -0.9278
  205MOL0     C28217   0.926   0.768   5.045  0.3299  0.4030  0.0240
  205MOL0     C28218   1.570   0.468   5.014  0.1094 -0.3450  0.4488
  205MOL0     C28219   1.704   0.501   5.012 -0.0136  0.0356  0.4663
  205MOL0     C28220   1.763   0.605   5.107  0.4124  0.3574 -0.0746
  205MOL0     H28221   2.149   0.605   5.106  1.1841 -2.8784 -0.6112
  205MOL0     H28222   2.375   0.712   5.094  3.2077 -3.8532 -0.5891
  205MOL0     H28223   2.633   0.695   4.766  1.0659  1.6882 -0.4805
  205MOL0     H28224   2.621   0.674   4.941  0.1180 -1.5709 -1.4940
  205MOL0     H28225   2.678   0.947   4.825  0.4578  0.1823 -2.4113
  205MOL0     H28226   2.714   0.884   4.990 -1.2171  1.1483 -0.0080
  205MOL0     H28227   2.854   0.786   4.744 -0.7926  2.9132 -2.5699
  205MOL0     H28228   2.908   0.914   4.839  0.5969 -0.4519 -2.3196
  205MOL0     H28229   2.941   0.793   5.048  0.4464  0.3760 -0.3805
  205MOL0     H28230   2.867   0.651   4.965  0.6874 -0.3366  0.3244
  205MOL0     H28231   3.098   0.777   4.834 -1.5671  1.9686  1.6095
  205MOL0     H28232   3.057   0.608   4.840 -1.8490 -0.6976  0.3304
  205MOL0     H28233   3.266   0.666   4.970  0.5054  2.7375  0.2333
  205MOL0     H28234   3.155   0.743   5.093  1.7750 -1.2029  1.3269
  205MOL0     H28235   3.171   0.454   5.001 -1.1648 -0.0154 -0.5382
  205MOL0     H28236   3.024   0.502   5.069  0.3914 -4.0319 -0.1646
  205MOL0     H28237   3.138   0.564   5.287  1.1098  1.8901 -0.7329
  205MOL0     H28238   3.160   0.386   5.237 -1.4644 -0.2199 -0.6601
  205MOL0     H28239   3.371   0.305   5.103  3.6217 -0.2343 -3.0152
  205MOL0     H28240   3.677   0.479   4.989 -1.8365 -0.2059 -0.5401
  205MOL0     H28241   3.625   0.316   4.987 -0.2819 -0.4867 -0.1574
  205MOL0     H28242   3.712   0.360   5.264  0.6636  1.3515 -0.3770
  205MOL0     H28243   3.782   0.257   5.132 -0.5471 -0.5469  0.0138
  205MOL0     H28244   3.902   0.479   5.067 -1.1239  1.3459 -0.7302
  205MOL0     H28245   3.833   0.552   5.197  0.5172 -1.3085  0.7204
  205MOL0     H28246   4.046   0.489   5.256 -1.1931  2.0199  2.6824
  205MOL0     H28247   3.933   0.407   5.358 -0.5077 -3.2208 -1.2168
  205MOL0     H28248   4.216   0.131   5.150 -3.1264  1.2046 -0.1131
  205MOL0     H28249   4.515   0.082   5.235 -2.1261  1.1792 -0.4796
  205MOL0     H28250   4.408  -0.017   5.153  1.3985 -1.8616 -0.5226
  205MOL0     H28251   4.482  -0.075   5.310  3.6808  1.5124  0.4552
  205MOL0     H28252   4.590  -0.239   5.565  1.9056 -0.1611 -2.4557
  205MOL0     H28253   4.779  -0.333   5.689  0.1451 -0.3031  0.7964
  205MOL0     H28254   5.001  -0.208   6.036 -0.4760 -1.8351  0.8006
  205MOL0     H28255   4.830  -0.149   6.013 -0.7523 -1.5499  1.0685
  205MOL0     H28256   4.764  -0.384   5.969 -0.7029  0.2533 -0.6558
  205MOL0     H28257   4.929  -0.414   5.917  1.5084  0.7787  1.6687
  205MOL0     H28258   4.903  -0.314   6.189  0.9066  0.3129 -0.9074
  205MOL0     H28259   5.011  -0.444   6.137  0.5670  0.6965 -1.8329
  205MOL0     H28260   4.814  -0.591   6.121  0.1771  1.9253 -1.7285
  205MOL0     H28261   4.715  -0.463   6.205 -0.6335 -1.6576  1.6893
  205MOL0     H28262   4.789  -0.631   6.373 -1.7660  0.4879 -2.2718
  205MOL0     H28263   4.957  -0.620   6.322  2.1187  3.4030 -3.7774
  205MOL0     H28264   4.809  -0.373   6.452  2.0450  2.7933  3.0096
  205MOL0     H28265   4.959  -0.372   6.371 -0.0353 -1.0766 -1.4863
  205MOL0     H28266   5.052  -0.525   6.542  0.4935  0.3340 -2.0721
  205MOL0     H28267   4.900  -0.559   6.611 -0.3386  0.7204  0.2795
  205MOL0     H28268   5.035  -0.399   6.731 -1.8576  1.5311  1.8272
  205MOL0     H28269   4.870  -0.337   6.699 -1.4679 -1.8908 -1.4774
  205MOL0     H28270   4.915   0.068   5.775  0.3726  0.3784  1.5224
  205MOL0     H28271   4.745   0.156   5.615 -0.8441 -0.1308 -0.6829
  205MOL0     H28272   4.203   0.144   5.643  0.2741 -2.1591 -0.2115
  205MOL0     H28273   4.057   0.296   5.515  3.0300  1.0095  1.0434
  205MOL0     H28274   2.358   0.756   4.674 -2.0163  3.7122  0.1384
  205MOL0     H28275   2.108   0.657   4.678 -1.0285 -0.8483 -0.0048
  205MOL0     H28276   1.766   0.273   4.761 -0.2957  0.7555 -0.1109
  205MOL0     H28277   1.553   0.207   4.790  1.9895  0.3349 -1.5969
  205MOL0     H28278   1.341   0.275   4.788  2.8031  1.0044  1.7554
  205MOL0     H28279   1.193   0.244   4.895 -1.2944 -0.8597 -2.6708
  205MOL0     H28280   1.152   0.422   4.749 -0.9551  3.6098 -0.0671
  205MOL0     H28281   1.295   0.504   4.784  1.1166 -0.7902  0.5065
  205MOL0     H28282   1.077   0.439   4.998  1.4180 -1.1915  0.1403
  205MOL0     H28283   1.208   0.546   5.030 -0.8978  1.1972  0.1909
  205MOL0     H28284   1.043   0.600   4.781  1.8799 -1.4706 -0.3828
  205MOL0     H28285   1.172   0.698   4.852  0.1632 -0.4309 -0.0027
  205MOL0     H28286   0.898   0.836   5.123  2.7869 -0.5774  1.8887
  205MOL0     H28287   1.516   0.516   5.095  1.9117  1.2448  0.7926
  205MOL0     H28288   1.713   0.699   5.080  0.1953  0.4019  0.4643
  205MOL0     H28289   1.744   0.574   5.210 -1.7990 -1.5439 -0.9748
  205MOL0     H28290   1.869   0.622   5.088 -0.1579  1.6728 -2.4997
  206MOL0     O28291   1.262   8.566   6.851 -0.4331 -0.4952 -0.2330
  206MOL0     C28292   1.255   8.633   6.954 -0.5662  0.1579 -0.4239
  206MOL0     O28293   1.359   8.673   7.031 -0.3488  0.0749  0.0677
  206MOL0     C28294   1.475   8.604   7.034  0.0423  0.2575 -0.3002
  206MOL0     C28295   1.476   8.467   6.999 -0.1307 -0.0158  0.7871
  206MOL0     C28296   1.599   8.395   7.007  0.1455 -0.4126  0.2279
  206MOL0     C28297   1.711   8.455   7.050 -0.3405  0.1528  0.1028
  206MOL0     O28298   1.836   8.395   7.047 -0.2140  0.1792 -0.6410
  206MOL0     C28299   1.875   8.353   6.912  0.2826 -0.8102 -0.6240
  206MOL0     C28300   2.030   8.360   6.903  0.3979 -0.4882 -0.3480
  206MOL0     C28301   2.089   8.220   6.937  0.2103 -0.5820  0.5136
  206MOL0     C28302   2.240   8.217   6.902 -0.0680  0.1045  0.4321
  206MOL0     C28303   2.265   8.077   6.836  0.2269 -0.6371  0.3286
  206MOL0     C28304   2.227   8.061   6.687 -0.5708  0.8565  0.2387
  206MOL0     C28305   2.311   8.160   6.593  0.8974  0.5178  0.0667
  206MOL0     C28306   2.221   8.254   6.518 -0.6048 -1.1995  0.4371
  206MOL0     N28307   2.306   8.334   6.424  0.4005  0.6556  0.2351
  206MOL0     C28308   2.326   8.295   6.294  1.0314  0.1938 -0.1440
  206MOL0     C28309   2.381   8.407   6.231  0.0619  0.2094  0.0884
  206MOL0     C28310   2.406   8.409   6.084 -0.1456 -0.1466 -0.5253
  206MOL0     C28311   2.445   8.277   6.011  0.1758 -0.3966 -0.5370
  206MOL0     C28312   2.596   8.258   6.044  0.2892 -0.3672 -0.5828
  206MOL0     C28313   2.639   8.115   6.003  0.2889  0.5307  0.0467
  206MOL0     O28314   2.555   8.018   6.058 -0.3556 -0.6193 -0.1028
  206MOL0     C28315   2.578   7.980   6.188  0.0675 -0.2378  0.2971
  206MOL0     C28316   2.704   7.961   6.251  0.3655 -0.0668 -0.0982
  206MOL0     C28317   2.716   7.893   6.371 -0.5912  0.8097 -0.2492
  206MOL0     C28318   2.854   7.886   6.436  0.5603 -0.2313 -0.7405
  206MOL0     C28319   2.606   7.821   6.426  0.0868  0.3326 -0.3232
  206MOL0     C28320   2.618   7.737   6.551  0.2226 -0.9773 -0.6284
  206MOL0     O28321   2.490   7.730   6.616 -0.0726  0.4690 -0.2444
  206MOL0     C28322   2.478   7.671   6.742  0.3135 -1.2166  0.1306
  206MOL0     C28323   2.383   7.566   6.769  0.4689  0.8739 -0.4472
  206MOL0     C28324   2.389   7.517   6.902  0.3236 -0.2022  0.0093
  206MOL0     C28325   2.490   7.544   6.994 -0.8897 -0.8060 -0.1589
  206MOL0     O28326   2.492   7.468   7.109 -0.0046 -0.2224 -0.1081
  206MOL0     C28327   2.558   7.508   7.222 -0.6271 -0.1065  0.1154
  206MOL0     C28328   2.566   7.397   7.326 -0.3737 -0.9595  0.7274
  206MOL0     C28329   2.435   7.336   7.354 -0.2613 -0.1250 -0.3745
  206MOL0     C28330   2.412   7.205   7.285 -1.2209  0.2473  0.1831
  206MOL0     C28331   2.273   7.150   7.312  0.8612 -0.1535  0.6384
  206MOL0     C28332   2.237   7.041   7.210 -0.2835  0.5509 -0.1904
  206MOL0     C28333   2.310   6.910   7.229 -0.4367  0.8705 -0.2742
  206MOL0     C28334   2.267   6.798   7.133  0.6805  0.1619 -1.3407
  206MOL0    Cl28335   2.353   6.645   7.153 -0.3189  0.4166  0.2110
  206MOL0     C28336   2.577   7.646   6.958  0.4575 -0.1009 -0.0638
  206MOL0     C28337   2.569   7.710   6.836  0.6191 -0.6746  0.4377
  206MOL0     O28338   2.711   7.663   6.568 -0.2929  0.0792  0.0329
  206MOL0     C28339   2.484   7.850   6.367  0.2099  0.2257 -0.2112
  206MOL0     C28340   2.467   7.924   6.252  0.0348 -0.3312  0.1769
  206MOL0     N28341   2.388   8.509   6.326  0.4018  0.2938  0.1250
  206MOL0     N28342   2.349   8.462   6.439  0.0190  0.3749  0.3026
  206MOL0     C28343   1.716   8.586   7.086  0.1812  0.2129 -0.0576
  206MOL0     C28344   1.599   8.665   7.073 -0.5684 -0.4912 -0.2671
  206MOL0     C28345   1.122   8.682   7.000  0.3286 -0.8348 -0.8837
  206MOL0     C28346   1.116   8.817   7.049  0.0976 -1.0782  0.8480
  206MOL0     C28347   0.994   8.871   7.082  0.1795  0.1372  0.3994
  206MOL0     C28348   0.882   8.795   7.073  0.9270  0.1469  0.3686
  206MOL0     O28349   0.760   8.831   7.104 -0.5271 -0.0326  0.3904
  206MOL0     C28350   0.739   8.916   7.218  0.5370 -0.4255 -0.1848
  206MOL0     C28351   0.591   8.936   7.226 -0.6480 -0.3644  0.0675
  206MOL0     C28352   0.526   8.812   7.295  0.1971  0.3228  0.1012
  206MOL0     C28353   0.370   8.812   7.281  0.2788  0.1830 -0.0668
  206MOL0     C28354   0.307   8.694   7.336  0.0178  0.1624 -0.1162
  206MOL0     C28355   0.272   8.585   7.376  0.5321 -0.0586 -0.7757
  206MOL0     C28356   0.886   8.668   7.024  0.2276 -0.3643  0.3327
  206MOL0     C28357   1.000   8.604   6.984 -0.2737 -0.2174 -0.3403
  206MOL0     C28358   1.000   8.464   6.933  0.2222  0.3420 -0.1339
  206MOL0     H28359   1.390   8.408   6.968 -0.7203  0.8427  0.7583
  206MOL0     H28360   1.603   8.290   6.981  0.2435 -0.3645  0.0415
  206MOL0     H28361   1.822   8.413   6.838 -1.7645 -1.9194 -0.1058
  206MOL0     H28362   1.850   8.250   6.885  2.2739 -1.6466  0.4722
  206MOL0     H28363   2.050   8.399   6.802  0.0992  1.1277  0.1847
  206MOL0     H28364   2.076   8.427   6.976  0.5615 -0.9915  0.0147
  206MOL0     H28365   2.087   8.194   7.043  3.9149  1.2818  1.2241
  206MOL0     H28366   2.030   8.148   6.880 -1.1157  1.4925 -0.8846
  206MOL0     H28367   2.261   8.292   6.825  0.5827  0.0296  0.5278
  206MOL0     H28368   2.298   8.237   6.993 -3.1457 -1.4828  2.9797
  206MOL0     H28369   2.216   8.002   6.900 -2.3291  0.5539 -0.1028
  206MOL0     H28370   2.373   8.065   6.848  0.1796 -0.0229  1.4389
  206MOL0     H28371   2.256   7.960   6.656 -0.9123  1.1877 -1.2795
  206MOL0     H28372   2.119   8.081   6.685 -0.7979 -0.0889  1.9385
  206MOL0     H28373   2.369   8.100   6.522  2.2216  0.6927  0.9689
  206MOL0     H28374   2.388   8.208   6.655  0.0965  0.7238  0.9340
  206MOL0     H28375   2.137   8.214   6.461 -2.5142 -2.0733  3.6213
  206MOL0     H28376   2.177   8.323   6.590 -0.0667 -1.8649  1.4332
  206MOL0     H28377   2.292   8.209   6.237  0.0274 -0.4634  1.3747
  206MOL0     H28378   2.475   8.488   6.056 -0.8637  0.6037 -0.2099
  206MOL0     H28379   2.308   8.441   6.049 -0.3319  2.7356  2.1816
  206MOL0     H28380   2.383   8.191   6.038 -0.0088 -0.2354 -0.4425
  206MOL0     H28381   2.430   8.284   5.903 -5.0488 -1.4480 -0.1257
  206MOL0     H28382   2.659   8.330   5.991 -2.0274  1.6239 -0.7992
  206MOL0     H28383   2.602   8.272   6.153  2.8950 -0.4988 -0.6362
  206MOL0     H28384   2.625   8.108   5.894  1.4536 -1.5902 -0.0331
  206MOL0     H28385   2.746   8.103   6.020  0.0720  0.7075  1.5985
  206MOL0     H28386   2.791   7.994   6.196  0.7388 -0.1332  0.4502
  206MOL0     H28387   2.923   7.960   6.394 -0.4816  0.4498 -1.2987
  206MOL0     H28388   2.895   7.785   6.431  1.4417 -0.1318  2.2812
  206MOL0     H28389   2.849   7.910   6.543  1.4301 -2.3006 -0.1967
  206MOL0     H28390   2.314   7.531   6.693  0.6016  1.5118 -0.8707
  206MOL0     H28391   2.320   7.448   6.948 -0.1873  0.5298  0.3535
  206MOL0     H28392   2.653   7.561   7.207 -1.3906  1.8352  1.6593
  206MOL0     H28393   2.508   7.593   7.269  1.8422  1.7316 -0.3691
  206MOL0     H28394   2.636   7.321   7.288  0.5259  0.3923 -0.4179
  206MOL0     H28395   2.601   7.442   7.419 -1.0864  1.7393 -0.2289
  206MOL0     H28396   2.363   7.408   7.316  0.0014  0.3044 -0.0604
  206MOL0     H28397   2.424   7.331   7.463 -0.5411  0.2659 -0.3834
  206MOL0     H28398   2.487   7.132   7.319  1.0947  1.8512 -1.1541
  206MOL0     H28399   2.412   7.213   7.176  0.0840 -2.1983 -0.0911
  206MOL0     H28400   2.259   7.107   7.412 -0.6914  0.3002  0.6450
  206MOL0     H28401   2.199   7.230   7.311 -0.0033 -0.7855  3.2993
  206MOL0     H28402   2.247   7.073   7.106 -0.1498 -0.1348 -0.3908
  206MOL0     H28403   2.133   7.013   7.226  0.2835 -1.0808  0.7863
  206MOL0     H28404   2.322   6.881   7.334 -0.9539  0.4463 -0.3300
  206MOL0     H28405   2.416   6.925   7.207  0.0764 -2.4835 -0.6018
  206MOL0     H28406   2.281   6.834   7.031  0.3287  2.4183 -0.6447
  206MOL0     H28407   2.161   6.774   7.148  0.5632  2.7421  4.9531
  206MOL0     H28408   2.660   7.677   7.020  1.6518 -0.4666 -1.4179
  206MOL0     H28409   2.652   7.772   6.803  1.6846 -3.3430 -2.3511
  206MOL0     H28410   2.391   7.807   6.405  0.4382 -2.4616 -2.4470
  206MOL0     H28411   2.369   7.926   6.205 -0.2349  0.0282  0.7491
  206MOL0     H28412   1.808   8.627   7.128 -0.1685 -1.1751  2.2854
  206MOL0     H28413   1.603   8.765   7.116  0.5912 -0.2776 -0.8390
  206MOL0     H28414   1.199   8.887   7.048  0.6511 -1.5707  3.6218
  206MOL0     H28415   0.995   8.973   7.120 -2.3422  0.4105 -0.1378
  206MOL0     H28416   0.777   8.876   7.312  0.8821  1.6926  0.6380
  206MOL0     H28417   0.785   9.013   7.196  0.8284 -0.8729 -1.6897
  206MOL0     H28418   0.557   8.947   7.123  1.4251 -0.9560 -0.7129
  206MOL0     H28419   0.563   9.027   7.280 -4.2262 -1.1099 -0.2539
  206MOL0     H28420   0.560   8.722   7.242  1.9429  0.8521  0.2462
  206MOL0     H28421   0.546   8.809   7.403 -1.6129  0.4116  0.4649
  206MOL0     H28422   0.341   8.802   7.176  1.8735 -2.2079 -0.3628
  206MOL0     H28423   0.324   8.907   7.311  1.2258  0.0146  2.1001
  206MOL0     H28424   0.244   8.482   7.389  0.3095  0.3102  2.3768
  206MOL0     H28425   0.791   8.619   7.004 -0.0488 -0.1890  1.1592
  206MOL0     H28426   0.906   8.418   6.967 -1.8500  1.7800 -3.4050
  206MOL0     H28427   1.009   8.460   6.824  1.8225  1.8162 -0.0885
  206MOL0     H28428   1.085   8.417   6.982  0.1977 -0.3543 -0.7543
  207MOL0     O28429   8.963   7.438   4.216  0.0285  0.1373 -0.3187
  207MOL0     C28430   8.887   7.400   4.126  0.1120  0.3143  0.2417
  207MOL0     O28431   8.917   7.407   3.993 -0.3430  0.4556 -0.7329
  207MOL0     C28432   9.051   7.420   3.966  0.1865 -0.0049 -0.4055
  207MOL0     C28433   9.113   7.546   3.970 -0.1318  0.6724  0.3093
  207MOL0     C28434   9.247   7.561   3.928 -0.6919 -0.4254 -0.8579
  207MOL0     C28435   9.326   7.442   3.909  0.4185  0.0417  0.0358
  207MOL0     O28436   9.467   7.439   3.883  0.4114  0.0356  0.0260
  207MOL0     C28437   9.548   7.529   3.952  0.3095 -0.0723  0.1669
  207MOL0     C28438   9.684   7.554   3.882 -0.2115 -0.0102 -0.1124
  207MOL0     C28439   9.773   7.654   3.951 -0.5334 -0.7223  0.3983
  207MOL0     C28440   9.913   7.666   3.883  0.0909  0.0812  0.7969
  207MOL0     C28441   9.979   7.800   3.904  0.4371  0.4836  0.4985
  207MOL0     C28442   9.984   7.841   4.056 -0.2109 -0.1090  0.6446
  207MOL0     C28443  10.088   7.949   4.097  1.2388  0.5255 -0.2292
  207MOL0     C28444  10.076   8.065   4.003 -0.1104 -0.3963 -0.3708
  207MOL0     N28445  10.166   8.173   4.034 -0.1956 -0.2511  0.1279
  207MOL0     C28446  10.186   8.286   3.954  0.3823 -0.0984 -0.0392
  207MOL0     C28447  10.231   8.379   4.038 -0.3516  0.0382 -0.4261
  207MOL0     C28448  10.228   8.530   4.016  0.1174 -0.4850  0.3942
  207MOL0     C28449  10.202   8.609   4.139  0.8016  0.3665  0.6844
  207MOL0     C28450  10.156   8.754   4.118 -0.0350  0.6257 -0.8939
  207MOL0     C28451  10.022   8.778   4.051  0.4955  0.1797 -0.6442
  207MOL0     O28452   9.927   8.741   4.155 -0.1477 -0.2287 -0.1917
  207MOL0     C28453   9.794   8.766   4.146 -0.2207  0.0423 -0.2276
  207MOL0     C28454   9.721   8.717   4.252  0.3376 -1.2392 -0.2937
  207MOL0     C28455   9.582   8.741   4.253  0.5206 -0.2542 -0.1649
  207MOL0     C28456   9.494   8.669   4.356  0.1843 -0.8498  0.2341
  207MOL0     C28457   9.519   8.813   4.147 -0.0731  0.3875 -0.3430
  207MOL0     C28458   9.370   8.836   4.136  0.6813 -0.5734 -0.4177
  207MOL0     O28459   9.311   8.835   4.009 -0.0957 -0.2013 -0.6533
  207MOL0     C28460   9.182   8.883   3.990  0.6795  0.7594 -0.5966
  207MOL0     C28461   9.078   8.799   3.953  0.1616 -0.0343  0.7519
  207MOL0     C28462   8.948   8.844   3.958  0.1685 -1.2849  0.6587
  207MOL0     C28463   8.916   8.975   3.991  0.1853 -0.4248 -0.7491
  207MOL0     O28464   8.792   9.033   3.987  0.2742  0.7174 -0.9184
  207MOL0     C28465   8.717   9.003   3.863  0.0485  1.0908 -0.1257
  207MOL0     C28466   8.758   9.069   3.725  0.8487  1.5542  0.5919
  207MOL0     C28467   8.831   8.968   3.638 -0.9217  0.5502  0.6937
  207MOL0     C28468   8.860   9.017   3.491 -0.2498  0.0500 -0.8653
  207MOL0     C28469   8.910   8.902   3.404  0.7101 -0.1174  0.1659
  207MOL0     C28470   8.972   8.947   3.279  0.7087  0.6777 -0.0408
  207MOL0     C28471   9.087   9.044   3.293 -0.1140 -0.6788 -0.0215
  207MOL0     C28472   9.189   9.007   3.396 -0.2941 -0.5356  0.1281
  207MOL0    Cl28473   9.288   8.854   3.367 -0.4163  0.1829  0.0830
  207MOL0     C28474   9.023   9.058   4.031 -0.4849  0.3161  0.4942
  207MOL0     C28475   9.158   9.011   4.029  0.0721 -0.5041 -0.6946
  207MOL0     O28476   9.304   8.839   4.242 -0.3994 -0.1939 -0.1479
  207MOL0     C28477   9.601   8.858   4.046  0.0680  0.7130  0.0277
  207MOL0     C28478   9.732   8.844   4.050  0.3961 -0.4174 -0.1920
  207MOL0     N28479  10.264   8.314   4.162 -0.2253 -0.6670  0.0251
  207MOL0     N28480  10.215   8.196   4.160 -1.4865 -1.2630  0.0779
  207MOL0     C28481   9.262   7.321   3.908 -0.2024  0.5640 -0.3483
  207MOL0     C28482   9.134   7.311   3.938  0.5483 -0.9826  0.0133
  207MOL0     C28483   8.750   7.362   4.154 -0.9378  0.0719 -0.6275
  207MOL0     C28484   8.706   7.244   4.099 -0.1314  0.3483 -0.2693
  207MOL0     C28485   8.576   7.192   4.123  0.0857  0.2336 -0.4405
  207MOL0     C28486   8.485   7.261   4.199  0.5647 -0.2055  0.1445
  207MOL0     O28487   8.368   7.197   4.231 -0.0040 -0.2317 -0.8991
  207MOL0     C28488   8.248   7.268   4.176 -0.2151  0.0386 -0.0811
  207MOL0     C28489   8.117   7.199   4.223  0.2662  0.5998 -0.1425
  207MOL0     C28490   8.103   7.042   4.204  0.2778  0.3858 -0.7476
  207MOL0     C28491   8.066   6.990   4.066 -0.0102 -0.9607 -0.1050
  207MOL0     C28492   8.180   7.008   3.970 -0.3603  0.3559  0.2625
  207MOL0     C28493   8.280   7.026   3.906 -0.3705 -0.2331  0.7237
  207MOL0     C28494   8.527   7.387   4.256  0.1161 -0.5052  0.0841
  207MOL0     C28495   8.657   7.442   4.229 -0.1633  0.4283 -0.2708
  207MOL0     C28496   8.679   7.581   4.289 -0.8823 -0.0863  0.6735
  207MOL0     H28497   9.051   7.629   4.004  1.7856  1.6685  1.5016
  207MOL0     H28498   9.296   7.658   3.923 -1.6425  0.1957  0.8568
  207MOL0     H28499   9.570   7.480   4.048  1.4764  1.4600  0.7273
  207MOL0     H28500   9.493   7.623   3.965  0.0768  0.2937 -2.8119
  207MOL0     H28501   9.743   7.462   3.886 -0.0790  0.1191  2.1995
  207MOL0     H28502   9.659   7.591   3.782 -0.6634  1.9547  0.6855
  207MOL0     H28503   9.721   7.750   3.944  2.8279  1.3111  0.8666
  207MOL0     H28504   9.786   7.634   4.057  0.5147 -0.2732  0.3633
  207MOL0     H28505   9.983   7.598   3.931  0.4402 -0.1991 -0.1043
  207MOL0     H28506   9.909   7.642   3.777  0.0827  2.5516  0.1707
  207MOL0     H28507   9.921   7.876   3.851  0.2224  0.5892  0.8828
  207MOL0     H28508  10.078   7.798   3.859  0.2735 -3.4156  0.0370
  207MOL0     H28509   9.885   7.884   4.076 -0.0115  0.6669  0.0496
  207MOL0     H28510   9.995   7.751   4.116 -0.9683 -0.7662 -0.1704
  207MOL0     H28511  10.187   7.901   4.100  0.8283 -0.3402 -0.0661
  207MOL0     H28512  10.064   7.968   4.202 -2.5724 -0.1550 -0.8166
  207MOL0     H28513  10.116   8.036   3.906 -0.0315  3.9236 -1.8229
  207MOL0     H28514   9.973   8.099   3.988 -0.1490  0.0965  0.8409
  207MOL0     H28515  10.150   8.302   3.853  3.0105 -2.5242 -1.5289
  207MOL0     H28516  10.156   8.557   3.938  0.7117 -0.8224 -0.2838
  207MOL0     H28517  10.331   8.557   3.992  1.3917  1.0345  6.0336
  207MOL0     H28518  10.136   8.552   4.205  0.1352 -0.5098 -0.6595
  207MOL0     H28519  10.297   8.613   4.192 -0.5717 -3.8184  3.9905
  207MOL0     H28520  10.163   8.795   4.220  1.4859 -1.1262 -0.2342
  207MOL0     H28521  10.232   8.811   4.064 -0.4892 -0.1458 -2.4117
  207MOL0     H28522  10.015   8.882   4.019 -0.0869  0.8406  1.4644
  207MOL0     H28523  10.012   8.710   3.966  2.8841 -0.1969 -0.6886
  207MOL0     H28524   9.772   8.660   4.329 -1.1144 -0.9169  0.9679
  207MOL0     H28525   9.448   8.722   4.439  0.8629 -2.0651  1.4433
  207MOL0     H28526   9.566   8.606   4.410 -0.4307 -0.3531  1.6818
  207MOL0     H28527   9.412   8.614   4.310 -2.0727  1.0257  1.8161
  207MOL0     H28528   9.109   8.699   3.926  0.7105  0.2192  0.4142
  207MOL0     H28529   8.868   8.785   3.913 -0.3881  0.8271 -1.3107
  207MOL0     H28530   8.712   8.894   3.862 -2.3333  1.1081  1.2558
  207MOL0     H28531   8.614   9.036   3.883  0.2617  2.1459 -0.6906
  207MOL0     H28532   8.664   9.089   3.673 -1.1613 -1.8801  2.5344
  207MOL0     H28533   8.819   9.157   3.749  1.6574  1.1591  0.0556
  207MOL0     H28534   8.775   8.874   3.629 -0.7952  0.3944  1.4224
  207MOL0     H28535   8.926   8.929   3.676 -1.0878 -2.6145 -1.7108
  207MOL0     H28536   8.932   9.097   3.506 -0.1143 -0.4985  2.0116
  207MOL0     H28537   8.777   9.075   3.452 -0.4954  0.0347 -0.3797
  207MOL0     H28538   8.981   8.846   3.465 -1.5553 -2.7910  0.5392
  207MOL0     H28539   8.817   8.849   3.379  0.4628  1.0381 -1.5743
  207MOL0     H28540   8.896   8.987   3.211  1.8670  2.6459 -0.2588
  207MOL0     H28541   8.997   8.854   3.226 -2.2456 -0.7306  0.8458
  207MOL0     H28542   9.065   9.151   3.291 -1.1319 -0.6010  4.7504
  207MOL0     H28543   9.131   9.031   3.194 -0.0672 -2.6764  0.2198
  207MOL0     H28544   9.142   9.007   3.495  1.0365 -0.8833  0.7727
  207MOL0     H28545   9.263   9.086   3.396 -0.7792  0.2220 -4.6312
  207MOL0     H28546   9.021   9.164   4.053 -0.9644  0.7313 -1.4049
  207MOL0     H28547   9.240   9.079   4.048 -1.4968  1.8223 -1.7516
  207MOL0     H28548   9.558   8.910   3.960 -1.8587  0.7120  0.9394
  207MOL0     H28549   9.777   8.895   3.965 -2.6865  1.3783 -0.8942
  207MOL0     H28550   9.309   7.225   3.894  0.8020  0.5233  2.6198
  207MOL0     H28551   9.092   7.212   3.946 -2.8258  0.4326  2.3259
  207MOL0     H28552   8.765   7.192   4.024 -1.6802 -0.2374 -1.1137
  207MOL0     H28553   8.532   7.104   4.076 -0.1413 -0.9061  1.7998
  207MOL0     H28554   8.255   7.375   4.198  1.5030 -0.4443  2.1010
  207MOL0     H28555   8.253   7.264   4.067  0.8331  3.4393 -0.2893
  207MOL0     H28556   8.033   7.243   4.169 -0.3827 -1.2611 -0.7259
  207MOL0     H28557   8.109   7.216   4.331 -1.7759 -1.5780  0.1259
  207MOL0     H28558   8.192   6.995   4.246  2.0164  1.2281 -3.2310
  207MOL0     H28559   8.022   7.013   4.271  1.6758 -0.8270  0.4791
  207MOL0     H28560   7.968   7.032   4.042  0.7070  1.2183  0.5610
  207MOL0     H28561   8.049   6.882   4.077  1.2575 -1.1990 -0.3653
  207MOL0     H28562   8.360   7.059   3.844 -1.9457  1.0926 -0.7109
  207MOL0     H28563   8.452   7.440   4.313 -0.8307 -2.4500  0.7382
  207MOL0     H28564   8.744   7.574   4.377  3.1589  0.7691 -1.9644
  207MOL0     H28565   8.721   7.657   4.223 -2.3695  1.3458  1.3044
  207MOL0     H28566   8.584   7.628   4.315  0.0164  3.3361 -1.5618
  208MOL0     O28567   9.740   7.603  10.028 -0.3718 -0.2296  0.8451
  208MOL0     C28568   9.759   7.545  10.135 -0.6032  0.7472  0.0367
  208MOL0     O28569   9.876   7.472  10.169  0.6940  1.0073 -0.4567
  208MOL0     C28570  10.002   7.490  10.113  0.7974 -0.4416  0.3411
  208MOL0     C28571  10.051   7.614  10.065  0.4403 -0.9883  0.1269
  208MOL0     C28572  10.181   7.627  10.027 -0.1046 -0.8814 -0.7460
  208MOL0     C28573  10.271   7.514  10.034  0.2132 -0.1242  0.5237
  208MOL0     O28574  10.405   7.500  10.009  0.3651  0.0106  0.0853
  208MOL0     C28575  10.486   7.621  10.000  0.6914  0.2621  0.2820
  208MOL0     C28576  10.600   7.591   9.906 -0.7060 -0.6049 -0.6718
  208MOL0     C28577  10.709   7.705   9.908  0.4216  0.1982  0.7831
  208MOL0     C28578  10.823   7.684   9.811  0.1884 -0.3198  0.0714
  208MOL0     C28579  10.917   7.804   9.833 -0.3230 -0.3158  0.3633
  208MOL0     C28580  11.023   7.796   9.726  0.0231  0.1543  0.0763
  208MOL0     C28581  11.142   7.707   9.756 -0.2268  0.9367  0.2895
  208MOL0     C28582  11.238   7.780   9.847 -0.8304  0.4486 -0.8400
  208MOL0     N28583  11.323   7.865   9.764 -0.3731 -0.1113  0.2895
  208MOL0     C28584  11.440   7.818   9.699 -0.2030  0.0901 -0.2440
  208MOL0     C28585  11.496   7.921   9.635  1.0358 -0.4896 -0.3150
  208MOL0     C28586  11.607   7.921   9.537 -0.4213  0.7417  0.1394
  208MOL0     C28587  11.739   7.903   9.614  0.0453 -0.5271 -1.0673
  208MOL0     C28588  11.851   7.943   9.523 -0.1410 -0.3127  0.7338
  208MOL0     C28589  11.977   7.876   9.570 -0.8434 -0.1792 -0.4958
  208MOL0     O28590  12.009   7.929   9.705 -0.7538  0.1733  0.2652
  208MOL0     C28591  12.131   7.892   9.769  0.3666  0.2661  0.0337
  208MOL0     C28592  12.171   7.973   9.874 -0.2408 -0.6205  0.0160
  208MOL0     C28593  12.279   7.941   9.965  0.3698  0.4466  0.3169
  208MOL0     C28594  12.283   8.012  10.090  0.8622 -0.2595  0.0082
  208MOL0     C28595  12.359   7.836   9.927  0.2752  0.1849  1.1241
  208MOL0     C28596  12.480   7.794   9.998  0.3524 -0.1941 -0.2062
  208MOL0     O28597  12.577   7.764   9.913 -0.7500  0.0081  0.3356
  208MOL0     C28598  12.687   7.710   9.967  0.2140  0.1363 -0.3628
  208MOL0     C28599  12.781   7.801  10.002  1.3871  0.3929  0.0367
  208MOL0     C28600  12.882   7.759  10.079 -0.5031 -0.0951 -0.8284
  208MOL0     C28601  12.891   7.628  10.125 -0.0371  0.1880  0.2452
  208MOL0     O28602  12.993   7.573  10.193  0.5794  0.1324  0.0226
  208MOL0     C28603  13.085   7.660  10.258  0.0378 -0.1653 -0.7312
  208MOL0     C28604  13.202   7.705  10.157  0.3157  0.3116 -0.5918
  208MOL0     C28605  13.280   7.816  10.224 -0.4287  1.0254 -0.3191
  208MOL0     C28606  13.354   7.764  10.345  0.0997  0.5375  0.5066
  208MOL0     C28607  13.466   7.857  10.391  0.3621 -0.0134  0.1715
  208MOL0     C28608  13.603   7.797  10.365  0.1148 -0.0315  0.4405
  208MOL0     C28609  13.729   7.859  10.440  0.8932 -0.6560  0.6272
  208MOL0     C28610  13.769   7.992  10.375 -0.3235 -0.7533  0.6296
  208MOL0    Cl28611  13.634   8.113  10.401  0.1645 -0.0531  0.2985
  208MOL0     C28612  12.793   7.535  10.086 -0.0391  0.1012 -0.8643
  208MOL0     C28613  12.686   7.582  10.004 -0.1307 -0.2257  0.0310
  208MOL0     O28614  12.476   7.792  10.120  0.3576 -0.8230  0.6569
  208MOL0     C28615  12.324   7.760   9.807  0.8451 -0.3840 -0.0775
  208MOL0     C28616  12.207   7.788   9.732 -0.3069  0.1944  0.0396
  208MOL0     N28617  11.424   8.032   9.668  0.4764  0.3812  0.4431
  208MOL0     N28618  11.335   8.002   9.758 -0.3880 -0.2565  0.0293
  208MOL0     C28619  10.224   7.398  10.089  0.1044 -0.3195 -0.7134
  208MOL0     C28620  10.090   7.388  10.127 -0.7309  1.0796 -0.5137
  208MOL0     C28621   9.648   7.538  10.235 -0.2588  0.3310 -0.0350
  208MOL0     C28622   9.680   7.488  10.357  0.3357  0.6710  1.0085
  208MOL0     C28623   9.583   7.490  10.455 -0.3696  0.2518  0.2753
  208MOL0     C28624   9.455   7.534  10.435  1.0333 -0.0543  0.0041
  208MOL0     O28625   9.374   7.540  10.542 -0.4415 -0.1130  0.2079
  208MOL0     C28626   9.262   7.626  10.546 -0.1001  0.3482  0.3990
  208MOL0     C28627   9.197   7.637  10.692  0.0994 -0.5940  0.3121
  208MOL0     C28628   9.306   7.647  10.799  0.7705 -0.0768 -0.5713
  208MOL0     C28629   9.396   7.770  10.784  0.7239  0.2079 -0.1843
  208MOL0     C28630   9.306   7.893  10.821 -0.1824  0.0179 -0.1978
  208MOL0     C28631   9.250   7.994  10.856  0.0289  0.6094 -0.1924
  208MOL0     C28632   9.422   7.577  10.311  1.1246 -0.4405  0.2284
  208MOL0     C28633   9.513   7.573  10.203 -0.8558  0.0884 -0.3652
  208MOL0     C28634   9.461   7.617  10.067 -0.0477 -0.1903  0.4945
  208MOL0     H28635   9.978   7.693  10.051 -0.6265 -2.3458 -2.7549
  208MOL0     H28636  10.214   7.724   9.992  2.7254 -0.5549  2.2387
  208MOL0     H28637  10.523   7.665  10.093  0.4832  1.1488 -0.0487
  208MOL0     H28638  10.424   7.689   9.941  1.8946  1.0282 -0.1293
  208MOL0     H28639  10.658   7.510   9.950  1.9867  0.6600 -1.6933
  208MOL0     H28640  10.567   7.572   9.803 -0.2486 -0.5083 -0.8374
  208MOL0     H28641  10.661   7.803   9.894 -2.6332 -1.4844 -1.8596
  208MOL0     H28642  10.758   7.716  10.005  1.4494  1.4713  0.1621
  208MOL0     H28643  10.871   7.588   9.829  0.1266 -0.2270  0.7790
  208MOL0     H28644  10.785   7.680   9.709 -1.3322 -1.4401  0.6455
  208MOL0     H28645  10.957   7.801   9.935 -1.8632 -1.6504  0.9729
  208MOL0     H28646  10.858   7.895   9.823 -0.8179 -0.6411  0.2969
  208MOL0     H28647  10.974   7.761   9.635 -4.2040  0.8294  1.8622
  208MOL0     H28648  11.069   7.893   9.704  1.6251 -0.6813 -0.4818
  208MOL0     H28649  11.186   7.670   9.664 -0.1737  0.8754  0.3396
  208MOL0     H28650  11.116   7.612   9.803 -2.5183  0.7180 -1.2670
  208MOL0     H28651  11.182   7.829   9.927 -2.1517  1.5671 -2.3993
  208MOL0     H28652  11.294   7.699   9.895  1.1118  2.5346  0.5906
  208MOL0     H28653  11.482   7.718   9.701 -1.3022 -0.4608 -2.1569
  208MOL0     H28654  11.597   8.012   9.477 -1.3814 -0.0305 -0.9026
  208MOL0     H28655  11.592   7.836   9.470  0.0017  0.6391  0.1669
  208MOL0     H28656  11.731   7.974   9.697 -2.0504  0.4589 -2.0448
  208MOL0     H28657  11.748   7.805   9.662  0.6834 -1.5634 -3.2180
  208MOL0     H28658  11.841   7.924   9.416 -1.2078  0.9297  0.5989
  208MOL0     H28659  11.874   8.050   9.525 -1.6831  0.0583 -0.0973
  208MOL0     H28660  11.974   7.767   9.558  0.3368 -0.1180 -1.5504
  208MOL0     H28661  12.051   7.909   9.496 -1.2772 -0.6801 -1.1667
  208MOL0     H28662  12.109   8.061   9.891  0.7583  0.4523 -1.6234
  208MOL0     H28663  12.183   8.043  10.120  0.4576 -1.4090 -0.0943
  208MOL0     H28664  12.340   8.105  10.086  0.3786  0.1563  1.7232
  208MOL0     H28665  12.325   7.946  10.167  1.6126  0.3337  0.1221
  208MOL0     H28666  12.768   7.903   9.968  0.4912 -0.5266 -2.6160
  208MOL0     H28667  12.954   7.830  10.120  2.0148 -1.3075 -2.9021
  208MOL0     H28668  13.030   7.737  10.312 -2.5874 -1.2049 -1.7745
  208MOL0     H28669  13.130   7.603  10.340  0.0130  0.7307 -0.0782
  208MOL0     H28670  13.267   7.618  10.143 -1.2456 -1.4404  2.1911
  208MOL0     H28671  13.151   7.754  10.074 -0.1450 -0.2404 -0.6450
  208MOL0     H28672  13.231   7.910  10.253  0.2994  1.8088 -1.5519
  208MOL0     H28673  13.355   7.844  10.149 -0.5203 -0.3376 -0.9398
  208MOL0     H28674  13.394   7.664  10.329  3.0375  1.7353 -0.3392
  208MOL0     H28675  13.286   7.742  10.428 -0.0083 -1.6147 -0.1022
  208MOL0     H28676  13.459   7.955  10.345  1.4431 -0.7503 -1.6731
  208MOL0     H28677  13.450   7.872  10.499 -0.3715 -0.8272  0.1915
  208MOL0     H28678  13.637   7.802  10.261  1.9393 -1.2296  0.9245
  208MOL0     H28679  13.599   7.693  10.399  0.6534 -0.1470  0.1627
  208MOL0     H28680  13.811   7.787  10.432  0.1138 -1.4138 -1.0888
  208MOL0     H28681  13.707   7.884  10.545  1.0427 -2.0572  1.0118
  208MOL0     H28682  13.776   7.989  10.266 -1.0438  3.3387  0.3233
  208MOL0     H28683  13.861   8.036  10.415 -0.1429 -0.4906 -0.0593
  208MOL0     H28684  12.812   7.438  10.129  5.3719  1.4729  0.6330
  208MOL0     H28685  12.599   7.525   9.974  0.5623  0.5245 -3.8508
  208MOL0     H28686  12.386   7.674   9.784  0.4128 -0.6341 -0.3213
  208MOL0     H28687  12.181   7.722   9.650 -0.3337  2.0486 -1.5164
  208MOL0     H28688  10.298   7.321  10.106  1.8764  1.4159 -0.1286
  208MOL0     H28689  10.046   7.296  10.164  2.2699  0.4682  1.8647
  208MOL0     H28690   9.783   7.480  10.389 -0.0347  0.0954  2.0963
  208MOL0     H28691   9.624   7.454  10.549  0.0504  0.6239  0.2363
  208MOL0     H28692   9.288   7.726  10.510 -1.4266  0.1068 -1.4074
  208MOL0     H28693   9.185   7.599  10.473 -2.0870 -0.4026  2.6690
  208MOL0     H28694   9.134   7.551  10.716  0.5322 -1.1018 -0.3181
  208MOL0     H28695   9.131   7.724  10.687  1.3926  0.5796  2.2652
  208MOL0     H28696   9.253   7.653  10.895 -0.4107 -1.0867 -1.1313
  208MOL0     H28697   9.358   7.552  10.804  3.0943  1.1628  0.7670
  208MOL0     H28698   9.437   7.765  10.683  0.2563 -3.2591 -0.3159
  208MOL0     H28699   9.480   7.756  10.853  0.7981  4.0961  0.7810
  208MOL0     H28700   9.193   8.083  10.875  0.0780  0.6531 -0.2476
  208MOL0     H28701   9.316   7.589  10.291  0.3919  1.6126  4.3144
  208MOL0     H28702   9.495   7.719  10.046 -3.4940  0.5925 -2.2550
  208MOL0     H28703   9.504   7.555   9.988  0.5330 -0.9147  1.3706
  208MOL0     H28704   9.353   7.609  10.054 -0.0320 -0.2777  0.4193
  209MOL0     O28705   7.101   5.883   1.568  0.3639  0.2884  0.7039
  209MOL0     C28706   7.017   5.932   1.647  0.4743  0.0314 -0.1427
  209MOL0     O28707   7.052   6.018   1.744 -0.4634 -0.4830  0.2498
  209MOL0     C28708   7.179   6.072   1.751  0.3785  0.8565  0.3823
  209MOL0     C28709   7.243   6.111   1.637  0.0033 -0.0870 -0.6068
  209MOL0     C28710   7.370   6.172   1.644 -0.0324 -0.4418 -0.8896
  209MOL0     C28711   7.425   6.191   1.768 -0.3500 -0.4604 -0.3844
  209MOL0     O28712   7.542   6.259   1.781 -0.5238  1.1294 -0.2986
  209MOL0     C28713   7.638   6.187   1.866  0.1378 -0.2517 -0.2774
  209MOL0     C28714   7.768   6.263   1.901  0.0744  0.6093  0.2413
  209MOL0     C28715   7.833   6.325   1.772  0.1594  0.3837  0.5418
  209MOL0     C28716   7.966   6.403   1.790  0.2603 -0.1372  0.0326
  209MOL0     C28717   8.086   6.302   1.805 -0.0442 -0.0968 -0.0544
  209MOL0     C28718   8.221   6.374   1.779 -0.8938 -0.4185  0.6684
  209MOL0     C28719   8.357   6.316   1.836  0.8625  1.0236  0.6271
  209MOL0     C28720   8.471   6.394   1.782  0.3514 -0.9665  0.3197
  209MOL0     N28721   8.602   6.342   1.818 -0.1042 -0.2263  0.3811
  209MOL0     C28722   8.682   6.384   1.916 -0.5307  0.3613  0.1272
  209MOL0     C28723   8.776   6.289   1.934 -0.1655 -0.3342  0.4378
  209MOL0     C28724   8.893   6.297   2.024 -0.9706 -0.2977 -0.6590
  209MOL0     C28725   8.975   6.425   1.991 -0.1219 -1.1887  0.8612
  209MOL0     C28726   9.095   6.434   2.075  0.7489 -0.1257 -0.4976
  209MOL0     C28727   9.212   6.509   2.023  0.3284 -0.6856  0.1405
  209MOL0     O28728   9.227   6.487   1.886 -0.2489 -0.4608  0.0638
  209MOL0     C28729   9.350   6.455   1.837 -0.0965  0.0990  0.1026
  209MOL0     C28730   9.417   6.345   1.875 -0.1999  0.5597 -0.5772
  209MOL0     C28731   9.544   6.316   1.817 -0.1521  0.6260  0.4869
  209MOL0     C28732   9.607   6.181   1.845 -0.6583 -0.2343 -0.9653
  209MOL0     C28733   9.603   6.408   1.726 -0.0423 -0.3268 -0.0273
  209MOL0     C28734   9.735   6.393   1.662 -0.7659 -0.0181 -0.5618
  209MOL0     O28735   9.786   6.494   1.592 -0.0688 -0.0988  0.3841
  209MOL0     C28736   9.910   6.489   1.525  0.5187  0.3353 -0.1209
  209MOL0     C28737  10.026   6.547   1.580  0.9443  0.2341 -0.0868
  209MOL0     C28738  10.149   6.547   1.507  0.3096 -0.0168  0.2629
  209MOL0     C28739  10.156   6.478   1.385  0.4750  0.1061 -0.1855
  209MOL0     O28740  10.270   6.492   1.310 -0.4427 -0.1762 -0.3434
  209MOL0     C28741  10.263   6.432   1.177  0.0396 -0.0222 -0.0082
  209MOL0     C28742  10.370   6.472   1.082 -0.2069  0.6629  0.1988
  209MOL0     C28743  10.378   6.623   1.064 -0.2354 -0.1173  0.7577
  209MOL0     C28744  10.480   6.692   1.163  0.2283  0.3046 -0.0170
  209MOL0     C28745  10.499   6.844   1.154 -0.2683 -0.0222  0.2989
  209MOL0     C28746  10.620   6.905   1.228  0.0115 -0.3531 -0.2090
  209MOL0     C28747  10.756   6.881   1.165  0.4267  0.4043 -0.7591
  209MOL0     C28748  10.842   7.004   1.189  0.4520  0.0481  0.3112
  209MOL0    Cl28749  11.022   6.976   1.178 -0.4889 -0.2073  0.3090
  209MOL0     C28750  10.039   6.405   1.343  0.0044 -0.1383 -0.1768
  209MOL0     C28751   9.917   6.416   1.407 -0.7742 -0.6120 -0.5615
  209MOL0     O28752   9.779   6.278   1.648  0.2130 -0.4949 -0.3248
  209MOL0     C28753   9.525   6.528   1.695 -0.3933  0.1381 -1.1141
  209MOL0     C28754   9.401   6.545   1.747 -0.3033  0.3340  0.4460
  209MOL0     N28755   8.766   6.198   1.839  0.4385 -0.6663 -0.0737
  209MOL0     N28756   8.658   6.223   1.770 -0.1572 -0.0784  0.0682
  209MOL0     C28757   7.345   6.176   1.886 -0.1115 -0.7585 -0.4515
  209MOL0     C28758   7.224   6.107   1.879  0.7089 -0.1895  0.7065
  209MOL0     C28759   6.871   5.887   1.646  0.2710 -0.0329 -0.6041
  209MOL0     C28760   6.800   5.904   1.768  0.4179 -0.0183 -0.9768
  209MOL0     C28761   6.673   5.848   1.780 -0.3043 -0.4429 -0.1457
  209MOL0     C28762   6.608   5.774   1.678 -0.1109  0.5486 -0.8185
  209MOL0     O28763   6.478   5.726   1.677 -0.6562 -0.2715 -0.1129
  209MOL0     C28764   6.401   5.749   1.795  0.1165  0.2148 -0.1602
  209MOL0     C28765   6.296   5.644   1.796 -0.4659 -0.1602 -0.0767
  209MOL0     C28766   6.184   5.650   1.691 -0.2610  0.7779 -0.2929
  209MOL0     C28767   6.097   5.519   1.695 -0.4257  0.1287  0.2682
  209MOL0     C28768   6.002   5.532   1.812  0.3823  0.0506 -0.1902
  209MOL0     C28769   5.934   5.559   1.914 -0.5967 -0.0758 -0.2891
  209MOL0     C28770   6.674   5.760   1.559  0.5662 -0.5327  0.0523
  209MOL0     C28771   6.803   5.813   1.543  0.2363 -0.3825  0.2870
  209MOL0     C28772   6.867   5.789   1.408  0.2366 -0.0840 -0.0326
  209MOL0     H28773   7.201   6.105   1.538 -0.9442 -0.4713 -0.1886
  209MOL0     H28774   7.427   6.205   1.558 -1.0302 -2.2573 -2.3155
  209MOL0     H28775   7.675   6.100   1.812  2.4062 -0.0556  0.8537
  209MOL0     H28776   7.589   6.153   1.958 -1.2647 -3.9457 -2.1932
  209MOL0     H28777   7.747   6.349   1.965 -1.1938  1.3729 -1.1141
  209MOL0     H28778   7.838   6.202   1.958  0.0896  1.1845  0.8406
  209MOL0     H28779   7.859   6.248   1.700  0.2468  1.5631 -0.7303
  209MOL0     H28780   7.764   6.396   1.727 -1.2350 -1.4146 -0.2569
  209MOL0     H28781   7.993   6.455   1.698  1.8244 -3.1448 -1.3557
  209MOL0     H28782   7.951   6.470   1.875  1.5639  0.8733 -0.5044
  209MOL0     H28783   8.083   6.223   1.729  2.0878  1.9103 -2.4065
  209MOL0     H28784   8.089   6.255   1.903 -1.6740 -1.7920 -0.7691
  209MOL0     H28785   8.238   6.388   1.672  0.0390  1.5303  1.0257
  209MOL0     H28786   8.212   6.473   1.824 -1.9505 -0.9657  1.7163
  209MOL0     H28787   8.370   6.211   1.807  1.7820  1.5119 -0.8051
  209MOL0     H28788   8.364   6.309   1.945  0.2028  1.2145  0.6911
  209MOL0     H28789   8.459   6.403   1.674  0.6407  1.4243  0.4455
  209MOL0     H28790   8.462   6.492   1.829  1.9769 -1.0530  0.8942
  209MOL0     H28791   8.685   6.477   1.972 -0.1695 -0.9071  2.3469
  209MOL0     H28792   8.959   6.211   2.013 -0.1948  0.0743  0.9031
  209MOL0     H28793   8.861   6.303   2.128  0.0937 -1.6986 -0.2202
  209MOL0     H28794   8.989   6.426   1.882 -2.2807  0.0552  0.5271
  209MOL0     H28795   8.911   6.513   2.009  1.1775  0.3899 -1.6151
  209MOL0     H28796   9.070   6.483   2.169 -0.5574 -1.5083 -0.0970
  209MOL0     H28797   9.129   6.336   2.108 -1.9094 -0.3774  1.8056
  209MOL0     H28798   9.198   6.615   2.046 -2.2084 -1.0838  0.6370
  209MOL0     H28799   9.308   6.486   2.071  0.9749 -0.5718 -1.0544
  209MOL0     H28800   9.368   6.264   1.929  0.9148  0.5088  0.4025
  209MOL0     H28801   9.549   6.109   1.904  0.1535 -0.7129 -0.7451
  209MOL0     H28802   9.700   6.194   1.900 -1.1607 -0.3545 -0.0733
  209MOL0     H28803   9.615   6.125   1.751 -3.0004 -0.3165 -1.1881
  209MOL0     H28804  10.008   6.594   1.676 -0.8680 -1.6179  0.5632
  209MOL0     H28805  10.233   6.601   1.550  1.3302 -1.8188  0.5935
  209MOL0     H28806  10.272   6.323   1.173 -1.0223 -0.0882 -1.3419
  209MOL0     H28807  10.164   6.451   1.137 -0.2316  0.5620  0.8989
  209MOL0     H28808  10.470   6.443   1.116 -0.2507  1.4403  1.0286
  209MOL0     H28809  10.357   6.422   0.986  0.8630  0.6328  0.0511
  209MOL0     H28810  10.284   6.673   1.087  0.8768  1.8466  1.2780
  209MOL0     H28811  10.405   6.649   0.961  0.1268  2.6758  1.4844
  209MOL0     H28812  10.576   6.645   1.144  1.0573  1.1102  1.8513
  209MOL0     H28813  10.447   6.666   1.264 -0.8667  0.8817 -0.2024
  209MOL0     H28814  10.516   6.871   1.049 -0.1979 -1.7950 -0.1754
  209MOL0     H28815  10.422   6.908   1.198  3.5057  5.0343  0.4499
  209MOL0     H28816  10.623   6.861   1.328  1.4651  2.0507  0.9156
  209MOL0     H28817  10.601   7.012   1.241  0.9287  0.0322 -1.8209
  209MOL0     H28818  10.743   6.849   1.061 -0.8928  0.1535 -0.5279
  209MOL0     H28819  10.792   6.797   1.225 -0.9448  0.9914  0.9816
  209MOL0     H28820  10.830   7.030   1.294  0.4625 -0.0244  0.3307
  209MOL0     H28821  10.811   7.084   1.121  1.3775  3.0183  3.1298
  209MOL0     H28822  10.039   6.350   1.250  3.1145 -0.4103 -0.1206
  209MOL0     H28823   9.828   6.361   1.381 -1.0029 -1.0021  0.9711
  209MOL0     H28824   9.561   6.603   1.625  0.9183 -0.3117 -0.9547
  209MOL0     H28825   9.344   6.636   1.730 -0.6902 -0.0021 -0.0434
  209MOL0     H28826   7.389   6.205   1.981  0.2984 -2.5905 -0.0505
  209MOL0     H28827   7.160   6.094   1.966 -0.7883  1.3591 -0.0919
  209MOL0     H28828   6.850   5.944   1.856 -1.7220  0.8754 -0.0995
  209MOL0     H28829   6.613   5.864   1.869 -1.7572 -0.5218 -1.0654
  209MOL0     H28830   6.462   5.739   1.886  1.6395  2.9964 -0.7523
  209MOL0     H28831   6.349   5.844   1.810 -0.1577  0.0323  0.0526
  209MOL0     H28832   6.249   5.655   1.894  1.4003 -1.0255  0.9714
  209MOL0     H28833   6.349   5.548   1.798 -1.6042 -0.9365 -2.7710
  209MOL0     H28834   6.122   5.739   1.706  0.4804  1.2957 -0.2133
  209MOL0     H28835   6.228   5.664   1.592  1.2702  1.1069  0.4054
  209MOL0     H28836   6.164   5.433   1.708 -1.0841 -0.0871  2.5410
  209MOL0     H28837   6.039   5.513   1.602  1.6770  0.9028 -1.1861
  209MOL0     H28838   5.888   5.590   2.005  0.2565  0.1831  0.0639
  209MOL0     H28839   6.619   5.716   1.477 -0.0723 -1.1676  0.7923
  209MOL0     H28840   6.976   5.791   1.412  0.3806 -0.2356 -2.5661
  209MOL0     H28841   6.842   5.695   1.358  0.6814  1.0311 -2.4474
  209MOL0     H28842   6.830   5.873   1.349 -1.3040  0.0724  1.0707
  210MOL0     O28843   3.411   9.906   5.344  0.2362  0.9670 -0.0170
  210MOL0     C28844   3.324   9.815   5.343 -0.4433  0.1050  0.9981
  210MOL0     O28845   3.348   9.687   5.361 -0.1563  0.7169 -0.4361
  210MOL0     C28846   3.463   9.622   5.387  0.5475 -0.4633  0.5412
  210MOL0     C28847   3.563   9.674   5.477  0.8900 -0.0573 -0.0467
  210MOL0     C28848   3.663   9.601   5.513  0.2765  0.5629 -0.0164
  210MOL0     C28849   3.672   9.466   5.475  0.3580  0.0195  0.0774
  210MOL0     O28850   3.773   9.387   5.524  0.2803 -0.2081 -0.5712
  210MOL0     C28851   3.875   9.443   5.607 -0.3804  0.5791  0.5222
  210MOL0     C28852   3.968   9.325   5.644 -1.0640  0.1278 -0.3468
  210MOL0     C28853   4.084   9.375   5.722  0.2032  0.3598 -0.0482
  210MOL0     C28854   4.173   9.483   5.661 -0.3476  0.0814  0.2738
  210MOL0     C28855   4.284   9.516   5.764  0.4782 -0.1245 -0.0248
  210MOL0     C28856   4.361   9.397   5.821 -0.4546  0.1765  0.4116
  210MOL0     C28857   4.511   9.418   5.872  0.4701  0.2394  0.7243
  210MOL0     C28858   4.604   9.488   5.777  0.2194 -1.3141  0.7235
  210MOL0     N28859   4.742   9.508   5.830 -0.4519  0.7200  0.0147
  210MOL0     C28860   4.796   9.622   5.883  0.3036  0.1747  1.4880
  210MOL0     C28861   4.905   9.576   5.947 -0.6331 -0.2198  0.0778
  210MOL0     C28862   4.996   9.666   6.031  0.3078 -0.2159 -0.3150
  210MOL0     C28863   5.153   9.624   6.030 -0.2122  0.0136  1.2605
  210MOL0     C28864   5.201   9.642   5.890  0.2867  0.5248  0.8494
  210MOL0     C28865   5.355   9.614   5.889  0.3758  0.7394  0.1204
  210MOL0     O28866   5.434   9.733   5.912  0.2165 -0.6628 -0.3357
  210MOL0     C28867   5.572   9.719   5.918  0.7588  0.7071  0.3299
  210MOL0     C28868   5.641   9.841   5.897 -0.9456 -0.0139  0.0687
  210MOL0     C28869   5.784   9.838   5.898 -0.2682  0.2643  0.7460
  210MOL0     C28870   5.858   9.972   5.852 -0.0209  1.0910 -0.0411
  210MOL0     C28871   5.848   9.712   5.919 -0.3187 -0.4762  0.8283
  210MOL0     C28872   5.996   9.691   5.915  0.2282 -0.3363 -0.0653
  210MOL0     O28873   6.078   9.794   5.882  0.3445  0.3798  0.3328
  210MOL0     C28874   6.215   9.808   5.879  0.1801 -0.8188 -0.0936
  210MOL0     C28875   6.257   9.936   5.855  0.2180 -0.7342  0.1402
  210MOL0     C28876   6.395   9.958   5.853 -0.2973  0.7877  0.2895
  210MOL0     C28877   6.493   9.852   5.868 -0.3635 -0.3482  0.0672
  210MOL0     O28878   6.624   9.876   5.856 -0.0076  0.4335  0.5715
  210MOL0     C28879   6.667   9.856   5.721 -0.1284 -0.8499 -0.3935
  210MOL0     C28880   6.704   9.996   5.656  0.5231 -0.5159  0.2270
  210MOL0     C28881   6.838  10.036   5.715 -0.8636 -0.3177 -1.2696
  210MOL0     C28882   6.922  10.127   5.634  0.9107 -0.6281  0.7658
  210MOL0     C28883   7.034  10.182   5.712  0.8430  0.4808  0.6038
  210MOL0     C28884   7.158  10.098   5.708 -0.2930  1.4539  0.2441
  210MOL0     C28885   7.273  10.153   5.794  0.4705 -0.6596 -0.4045
  210MOL0     C28886   7.397  10.070   5.771 -0.4068  0.0808 -0.8247
  210MOL0    Cl28887   7.371   9.905   5.808  0.0318  0.6881 -0.1144
  210MOL0     C28888   6.438   9.721   5.890 -0.5600 -1.2199  0.4926
  210MOL0     C28889   6.304   9.695   5.888  0.8227  0.2569 -0.4706
  210MOL0     O28890   6.038   9.586   5.976  0.5024 -0.1972  0.0808
  210MOL0     C28891   5.777   9.596   5.934 -0.1922  0.8036  0.4552
  210MOL0     C28892   5.639   9.602   5.935 -0.5890  0.2996  0.4008
  210MOL0     N28893   4.917   9.437   5.931  0.5278 -0.0411 -0.1400
  210MOL0     N28894   4.822   9.402   5.865 -0.3634  0.0535  0.0739
  210MOL0     C28895   3.569   9.406   5.387  0.0757  0.1397  0.6953
  210MOL0     C28896   3.463   9.488   5.347 -0.8573 -0.2814 -0.4503
  210MOL0     C28897   3.180   9.860   5.312 -0.7426 -0.1867  0.1168
  210MOL0     C28898   3.095   9.759   5.277  0.7830  0.6687 -0.5421
  210MOL0     C28899   2.966   9.792   5.220 -1.0196 -0.0821 -0.6234
  210MOL0     C28900   2.917   9.926   5.216  0.6435 -0.4361  0.7489
  210MOL0     O28901   2.787   9.971   5.202 -0.5537  0.1616  0.0766
  210MOL0     C28902   2.683   9.879   5.196  0.1920 -0.4408 -0.0592
  210MOL0     C28903   2.558   9.967   5.196 -0.0710  0.7030 -0.3925
  210MOL0     C28904   2.429   9.886   5.165 -0.0260  0.7539  0.6992
  210MOL0     C28905   2.313   9.975   5.104  0.3226 -0.4356 -0.1158
  210MOL0     C28906   2.204   9.887   5.054 -0.2635 -0.6491 -0.6556
  210MOL0     C28907   2.108   9.821   5.024  0.6801 -0.1325  0.4540
  210MOL0     C28908   3.000  10.022   5.268  0.1894  0.2431  0.2675
  210MOL0     C28909   3.133   9.999   5.308  0.6245 -0.4288 -0.3073
  210MOL0     C28910   3.223  10.112   5.345 -0.1116  0.7199 -0.4009
  210MOL0     H28911   3.546   9.775   5.514  0.3849 -0.0372 -0.3324
  210MOL0     H28912   3.712   9.642   5.600 -3.0005  1.2943  1.6472
  210MOL0     H28913   3.826   9.483   5.696 -0.2076  1.8162  0.0723
  210MOL0     H28914   3.929   9.520   5.552  0.1183  0.3297  0.6519
  210MOL0     H28915   3.905   9.260   5.706 -1.7249  1.9189  0.9428
  210MOL0     H28916   4.013   9.276   5.557 -0.8684  1.5476 -1.0702
  210MOL0     H28917   4.052   9.409   5.821 -0.3588  2.2388 -0.8246
  210MOL0     H28918   4.148   9.289   5.739 -1.0933 -0.8820 -1.1731
  210MOL0     H28919   4.207   9.443   5.566  0.1207  3.1474 -0.9673
  210MOL0     H28920   4.125   9.580   5.648  1.8270  1.1820 -0.0984
  210MOL0     H28921   4.237   9.562   5.851  1.1255 -2.9456  1.9763
  210MOL0     H28922   4.350   9.594   5.724  1.4601 -1.1889 -0.5667
  210MOL0     H28923   4.310   9.368   5.913  0.8628 -0.1049  1.0891
  210MOL0     H28924   4.363   9.316   5.748 -2.4038  2.1727 -2.0182
  210MOL0     H28925   4.540   9.312   5.871  0.8361  0.3269  1.5241
  210MOL0     H28926   4.511   9.466   5.970 -1.7487 -0.4262  1.0920
  210MOL0     H28927   4.605   9.416   5.695  0.2857 -1.0653  0.5072
  210MOL0     H28928   4.576   9.591   5.754  1.4369 -1.3641 -1.1777
  210MOL0     H28929   4.753   9.721   5.887 -0.6411 -0.0291 -1.5293
  210MOL0     H28930   4.955   9.657   6.132 -2.6362 -1.8800 -1.5243
  210MOL0     H28931   4.993   9.772   6.007  1.1116  0.4699  2.3083
  210MOL0     H28932   5.200   9.680   6.111  0.3451  0.6876  0.4924
  210MOL0     H28933   5.147   9.518   6.056 -1.4701  0.0468  1.1626
  210MOL0     H28934   5.153   9.561   5.834  4.4978 -1.8831  0.3637
  210MOL0     H28935   5.192   9.741   5.844  2.2360  0.5343  0.4148
  210MOL0     H28936   5.368   9.551   5.978 -2.3121  0.0824  0.1304
  210MOL0     H28937   5.380   9.571   5.791  0.3877  0.6687  0.1543
  210MOL0     H28938   5.595   9.939   5.885  0.6713  1.1621  2.6203
  210MOL0     H28939   5.794  10.059   5.837 -1.3015  0.1488 -0.2072
  210MOL0     H28940   5.916   9.959   5.760  2.1656  0.8857  1.2893
  210MOL0     H28941   5.931  10.002   5.928 -1.0385 -3.4505  3.0933
  210MOL0     H28942   6.173  10.005   5.853  1.8353  1.3054 -1.9170
  210MOL0     H28943   6.424  10.060   5.833 -2.6533  2.0261  2.5006
  210MOL0     H28944   6.751   9.786   5.714  1.0825  0.4735  0.3580
  210MOL0     H28945   6.592   9.806   5.659 -0.6195 -0.5663 -0.0359
  210MOL0     H28946   6.729   9.977   5.551  0.9609 -1.7120  0.5241
  210MOL0     H28947   6.629  10.075   5.662  1.3863  0.2829  0.7915
  210MOL0     H28948   6.908   9.952   5.708 -1.0781 -0.4634 -1.7359
  210MOL0     H28949   6.818  10.056   5.820  3.9707  0.4499 -0.2666
  210MOL0     H28950   6.863  10.218   5.621  0.8858 -0.7872 -0.2811
  210MOL0     H28951   6.955  10.081   5.541 -0.4687 -0.7799  0.3375
  210MOL0     H28952   7.063  10.278   5.669  1.2886  1.8067  3.5677
  210MOL0     H28953   6.997  10.206   5.812 -1.3142 -2.4270  0.6212
  210MOL0     H28954   7.187  10.086   5.603 -3.0477  0.9734 -0.5305
  210MOL0     H28955   7.136   9.997   5.744 -0.5944  1.5326  0.2804
  210MOL0     H28956   7.247  10.132   5.898 -0.8050  0.8450 -0.4018
  210MOL0     H28957   7.293  10.260   5.796 -1.8194 -0.1994  0.6506
  210MOL0     H28958   7.477  10.111   5.833 -0.6448 -1.0529  0.2696
  210MOL0     H28959   7.433  10.066   5.668  1.2734  0.6025 -0.2840
  210MOL0     H28960   6.503   9.636   5.905 -0.4730 -1.0942  0.8359
  210MOL0     H28961   6.255   9.601   5.913 -0.9843  0.6619 -2.2163
  210MOL0     H28962   5.823   9.498   5.938  1.7412  1.6326 -0.5453
  210MOL0     H28963   5.581   9.513   5.959  0.2028  0.3346  2.6435
  210MOL0     H28964   3.577   9.300   5.365 -1.1919  0.1818 -0.0622
  210MOL0     H28965   3.384   9.449   5.284 -0.0793 -2.4570 -0.1487
  210MOL0     H28966   3.126   9.655   5.273  1.4582  0.7455  1.5917
  210MOL0     H28967   2.899   9.710   5.199 -1.3150 -0.3288  1.1720
  210MOL0     H28968   2.693   9.831   5.099  2.3974 -1.2001  0.4898
  210MOL0     H28969   2.687   9.807   5.278  0.5342 -1.2473 -0.7730
  210MOL0     H28970   2.573  10.045   5.120  1.6991  0.7172 -0.0720
  210MOL0     H28971   2.546  10.021   5.290  0.5860  4.4389 -2.2599
  210MOL0     H28972   2.458   9.816   5.086  0.7803 -0.6633  2.1878
  210MOL0     H28973   2.393   9.825   5.248  1.4025 -1.2729 -0.0709
  210MOL0     H28974   2.338  10.041   5.020 -2.1362 -1.4882 -1.8028
  210MOL0     H28975   2.286  10.025   5.198  0.8522  0.3192 -0.3591
  210MOL0     H28976   2.012   9.779   5.001  1.6863 -3.2092  1.5219
  210MOL0     H28977   2.974  10.127   5.265 -0.2232  0.1891  1.5072
  210MOL0     H28978   3.178  10.209   5.323  1.5204  0.9589 -3.1701
  210MOL0     H28979   3.242  10.097   5.452 -1.2578 -1.4762 -0.4534
  210MOL0     H28980   3.321  10.117   5.297 -0.5641 -1.0277 -1.6143
  211MOL0     O28981  11.014   9.142   8.444 -0.1528  0.3648 -0.4239
  211MOL0     C28982  11.081   9.203   8.530 -0.2097  0.2193 -0.4844
  211MOL0     O28983  11.033   9.267   8.637  0.8707 -0.1711 -0.2980
  211MOL0     C28984  10.900   9.277   8.648  0.3553 -0.5712  1.8539
  211MOL0     C28985  10.837   9.247   8.777  0.4423  0.9452  0.0377
  211MOL0     C28986  10.700   9.250   8.813  0.1946 -0.4702 -0.0759
  211MOL0     C28987  10.615   9.290   8.706 -0.2040 -0.8011  0.0784
  211MOL0     O28988  10.484   9.313   8.743 -0.0308 -0.1208  0.1745
  211MOL0     C28989  10.405   9.401   8.662  0.2634 -0.2782 -0.0579
  211MOL0     C28990  10.288   9.458   8.741  0.5186  0.5726 -0.9045
  211MOL0     C28991  10.327   9.532   8.863 -0.3315  0.0063 -0.1905
  211MOL0     C28992  10.359   9.678   8.824 -0.1293  0.0896  0.0939
  211MOL0     C28993  10.378   9.751   8.956 -0.0037  1.0886 -0.1845
  211MOL0     C28994  10.422   9.902   8.960 -0.2339 -0.6057  0.0093
  211MOL0     C28995  10.414   9.962   9.104 -0.0954  0.2291 -0.6602
  211MOL0     C28996  10.506   9.879   9.195 -0.2074 -0.2925 -0.6828
  211MOL0     N28997  10.546   9.955   9.321  0.2287 -0.0329 -0.1462
  211MOL0     C28998  10.628  10.061   9.335  0.5977 -0.9190 -0.2580
  211MOL0     C28999  10.645  10.077   9.469 -0.4212 -0.3101 -0.7913
  211MOL0     C29000  10.734  10.171   9.552 -0.7384  0.4855 -0.0382
  211MOL0     C29001  10.848  10.241   9.482  0.3208 -0.7832 -0.4063
  211MOL0     C29002  10.966  10.156   9.445 -0.0435 -0.8726 -0.5907
  211MOL0     C29003  11.094  10.243   9.430  0.1053 -0.5234 -0.0209
  211MOL0     O29004  11.199  10.153   9.369  0.4469  0.0132  0.2595
  211MOL0     C29005  11.329  10.197   9.344 -0.1471  0.2184 -0.0426
  211MOL0     C29006  11.377  10.331   9.348 -0.8180 -0.5889 -0.1773
  211MOL0     C29007  11.509  10.366   9.317 -0.0267  0.9123 -1.2265
  211MOL0     C29008  11.551  10.502   9.346  1.6636 -0.7236 -0.1395
  211MOL0     C29009  11.596  10.266   9.274 -0.7735  0.9395 -0.9719
  211MOL0     C29010  11.738  10.284   9.258  0.2056  0.2944  0.1819
  211MOL0     O29011  11.796  10.233   9.139  0.4417  0.5593  0.2798
  211MOL0     C29012  11.923  10.265   9.094  0.1902 -0.4322  0.6106
  211MOL0     C29013  11.983  10.384   9.111  0.1007 -0.3600 -0.0572
  211MOL0     C29014  12.122  10.391   9.082 -0.3275 -0.1162 -0.2036
  211MOL0     C29015  12.199  10.281   9.043  0.1040 -0.1400 -0.1854
  211MOL0     O29016  12.335  10.283   9.011  0.3433  0.1034  0.9133
  211MOL0     C29017  12.413  10.402   9.053  0.5803 -0.0027  0.0785
  211MOL0     C29018  12.563  10.390   9.030 -0.1964  0.0926 -0.5087
  211MOL0     C29019  12.593  10.372   8.883 -0.1844 -0.2824 -0.0049
  211MOL0     C29020  12.518  10.442   8.774  0.8944 -0.0681 -0.4026
  211MOL0     C29021  12.567  10.436   8.632  0.2563  0.0637  0.8736
  211MOL0     C29022  12.540  10.304   8.560 -0.2369  0.5108 -0.8052
  211MOL0     C29023  12.539  10.312   8.409 -0.0019  0.3882  0.3839
  211MOL0     C29024  12.474  10.176   8.365  0.5720  0.3075 -0.0942
  211MOL0    Cl29025  12.448  10.177   8.189  0.1271  0.0106 -0.1371
  211MOL0     C29026  12.134  10.157   9.018 -0.2251 -0.6636  0.1555
  211MOL0     C29027  11.993  10.149   9.037  0.0489 -0.5096  0.1529
  211MOL0     O29028  11.798  10.333   9.352  0.1356  0.6357 -0.5868
  211MOL0     C29029  11.556  10.131   9.274  0.2470 -0.2513  0.3367
  211MOL0     C29030  11.423  10.099   9.306 -0.1528  0.3605  0.1732
  211MOL0     N29031  10.563   9.987   9.530  0.5404  0.5833  0.3324
  211MOL0     N29032  10.509   9.919   9.443  0.4378 -0.6030 -0.2614
  211MOL0     C29033  10.671   9.308   8.575 -0.6773  0.2617  0.1405
  211MOL0     C29034  10.807   9.308   8.542 -0.2459 -0.5464 -0.1488
  211MOL0     C29035  11.234   9.203   8.515  0.2198  0.4279  1.7398
  211MOL0     C29036  11.307   9.251   8.627 -0.4320 -0.3032 -0.5757
  211MOL0     C29037  11.454   9.259   8.632 -0.4118 -0.1306  0.2705
  211MOL0     C29038  11.527   9.211   8.515  0.2283 -0.0984  0.5778
  211MOL0     O29039  11.666   9.196   8.498  0.1961  0.5469 -0.4434
  211MOL0     C29040  11.750   9.220   8.615  0.0846  0.0979  0.0776
  211MOL0     C29041  11.887   9.176   8.575  0.1645 -0.2091  0.6282
  211MOL0     C29042  12.000   9.205   8.672  0.5891 -1.2656 -0.2775
  211MOL0     C29043  12.141   9.192   8.620  1.0506  0.0644 -0.1931
  211MOL0     C29044  12.173   9.062   8.559  0.2360 -0.1000 -0.6306
  211MOL0     C29045  12.208   8.957   8.511 -0.3736 -0.2008 -0.2579
  211MOL0     C29046  11.455   9.163   8.404  0.6583 -1.3749 -0.1586
  211MOL0     C29047  11.312   9.164   8.396  0.5582  0.5447 -0.1612
  211MOL0     C29048  11.259   9.126   8.260 -0.5754 -0.3503 -0.2413
  211MOL0     H29049  10.920   9.233   8.846  3.1290  2.4460 -2.6715
  211MOL0     H29050  10.656   9.236   8.912  1.1938 -1.2128  0.2818
  211MOL0     H29051  10.355   9.360   8.574 -0.0137  1.4953 -0.7516
  211MOL0     H29052  10.464   9.486   8.628 -1.9247  1.2182 -0.3083
  211MOL0     H29053  10.229   9.528   8.681 -0.4748 -0.2849 -0.9343
  211MOL0     H29054  10.228   9.373   8.772  0.2433  0.5855 -1.3965
  211MOL0     H29055  10.236   9.516   8.922  0.5661  0.8583  1.5087
  211MOL0     H29056  10.407   9.492   8.927  1.2898 -0.0227 -2.1444
  211MOL0     H29057  10.450   9.689   8.764 -0.4964 -2.5562 -1.1077
  211MOL0     H29058  10.279   9.721   8.762  2.3602  1.7743 -2.1443
  211MOL0     H29059  10.455   9.693   9.008 -0.5105  0.0660 -0.5444
  211MOL0     H29060  10.280   9.736   9.002  0.8147  0.1204  1.3335
  211MOL0     H29061  10.516   9.919   8.908 -0.7615  0.3995 -0.6575
  211MOL0     H29062  10.342   9.957   8.908  1.6709  0.3870 -2.0110
  211MOL0     H29063  10.311   9.957   9.139  0.9905 -2.4768  2.6498
  211MOL0     H29064  10.431  10.071   9.103 -1.0171  0.4222  0.7567
  211MOL0     H29065  10.448   9.788   9.214 -1.2042 -0.4880 -3.9893
  211MOL0     H29066  10.592   9.855   9.132  1.8896  0.9102  1.5687
  211MOL0     H29067  10.674  10.108   9.249  0.2528 -0.9350 -0.4510
  211MOL0     H29068  10.765  10.104   9.633 -2.2728  1.4387  1.3889
  211MOL0     H29069  10.679  10.253   9.598  0.7697  0.2097  2.4549
  211MOL0     H29070  10.812  10.295   9.394 -0.3682 -1.4277 -0.5257
  211MOL0     H29071  10.880  10.320   9.550  0.5577  0.0934 -1.5051
  211MOL0     H29072  10.977  10.083   9.525 -2.7025  0.1342  0.7951
  211MOL0     H29073  10.937  10.110   9.350 -3.3605 -2.3533  0.9765
  211MOL0     H29074  11.055  10.318   9.360 -3.7646 -1.4441  0.9086
  211MOL0     H29075  11.120  10.281   9.530 -2.0856 -1.1966  0.8634
  211MOL0     H29076  11.306  10.407   9.378 -1.2173 -0.8239 -0.5155
  211MOL0     H29077  11.604  10.544   9.260  0.4826 -0.7665 -0.9075
  211MOL0     H29078  11.614  10.502   9.435  0.1696 -0.8804  0.9751
  211MOL0     H29079  11.470  10.575   9.362  2.3167 -0.1898  0.8548
  211MOL0     H29080  11.932  10.469   9.154  0.0351  0.5213 -1.7900
  211MOL0     H29081  12.173  10.486   9.095 -1.0202 -0.1088  3.8488
  211MOL0     H29082  12.373  10.493   9.009  2.8570  2.0492  1.9932
  211MOL0     H29083  12.395  10.404   9.161  0.0307 -1.8421  0.0729
  211MOL0     H29084  12.615  10.479   9.067 -2.0094  0.9676  0.0881
  211MOL0     H29085  12.592  10.295   9.074  0.5227  0.0538 -1.0526
  211MOL0     H29086  12.591  10.263   8.869  2.9548 -1.0976  4.0624
  211MOL0     H29087  12.699  10.395   8.871  0.0598  1.0550  3.5181
  211MOL0     H29088  12.515  10.544   8.813  1.9745 -0.7329  1.6004
  211MOL0     H29089  12.412  10.412   8.771  0.2750  1.8849  0.4890
  211MOL0     H29090  12.513  10.513   8.576  0.2202 -0.7463 -0.2480
  211MOL0     H29091  12.673  10.462   8.631  0.4644 -0.4609  3.4311
  211MOL0     H29092  12.448  10.251   8.585  0.3644 -2.2947 -3.8260
  211MOL0     H29093  12.626  10.247   8.597  0.1610  0.8091 -1.2710
  211MOL0     H29094  12.639  10.316   8.363  1.0839  0.9632  2.6671
  211MOL0     H29095  12.480  10.395   8.368 -0.4151  0.1303  0.4560
  211MOL0     H29096  12.380  10.152   8.417  0.7213  0.3956  0.2199
  211MOL0     H29097  12.535  10.088   8.385  0.8353 -0.0970 -2.4276
  211MOL0     H29098  12.186  10.074   8.971 -0.5254 -0.3755 -0.6992
  211MOL0     H29099  11.935  10.059   9.020 -0.0474  0.0698 -3.2232
  211MOL0     H29100  11.609  10.049   9.227 -2.2092 -0.3202 -2.6380
  211MOL0     H29101  11.380  10.000   9.313 -1.4113  0.6513 -2.5563
  211MOL0     H29102  10.601   9.317   8.493 -0.9334  0.5067  0.3868
  211MOL0     H29103  10.831   9.327   8.438 -0.4782  0.6542  0.0017
  211MOL0     H29104  11.259   9.295   8.714  1.2253  2.6579 -1.0184
  211MOL0     H29105  11.501   9.298   8.722 -1.2143 -1.9139  1.5191
  211MOL0     H29106  11.753   9.328   8.634 -1.1572  0.6026 -2.2508
  211MOL0     H29107  11.714   9.157   8.698 -0.0662 -0.0394 -0.0915
  211MOL0     H29108  11.907   9.229   8.481  0.9656  0.2374  1.0456
  211MOL0     H29109  11.882   9.070   8.549 -2.0471 -0.3750  1.4844
  211MOL0     H29110  11.986   9.306   8.711  0.5533 -0.7392 -1.5807
  211MOL0     H29111  11.989   9.137   8.756 -1.6460 -1.8437 -0.9789
  211MOL0     H29112  12.203   9.199   8.710 -1.0453 -5.9478  2.2272
  211MOL0     H29113  12.165   9.261   8.539  1.0564  0.4412  0.1238
  211MOL0     H29114  12.250   8.871   8.463  1.0057  0.1345  0.2738
  211MOL0     H29115  11.505   9.129   8.314 -1.0123  0.5597 -1.9528
  211MOL0     H29116  11.182   9.199   8.232 -0.0206 -0.1191 -1.2184
  211MOL0     H29117  11.324   9.129   8.172 -0.3055  2.2589 -0.0443
  211MOL0     H29118  11.229   9.022   8.275 -0.9909 -0.1323  0.4784
  212MOL0     O29119   0.426   3.636   7.835 -0.8802 -0.5721 -0.1897
  212MOL0     C29120   0.429   3.721   7.747 -0.2651 -0.8404  0.1770
  212MOL0     O29121   0.520   3.821   7.748 -0.1187  0.6200  0.0923
  212MOL0     C29122   0.547   3.880   7.871  0.9857 -0.4486  0.0552
  212MOL0     C29123   0.458   3.968   7.939  0.0648 -0.5472 -0.1011
  212MOL0     C29124   0.500   4.019   8.065 -0.0670  0.1986  0.6764
  212MOL0     C29125   0.614   3.974   8.131  0.1109  0.2102 -0.6782
  212MOL0     O29126   0.642   4.014   8.260  0.2096 -0.7539  0.1509
  212MOL0     C29127   0.777   4.047   8.296  0.2748  0.5309  0.0572
  212MOL0     C29128   0.781   4.112   8.428 -0.3908 -0.1733 -0.4580
  212MOL0     C29129   0.762   4.260   8.434  0.0981 -0.9347 -0.1131
  212MOL0     C29130   0.757   4.318   8.582  0.0181 -0.9560  0.2758
  212MOL0     C29131   0.700   4.456   8.585 -0.1230  0.4960  0.1605
  212MOL0     C29132   0.680   4.517   8.722 -0.8929  0.6446 -0.3051
  212MOL0     C29133   0.645   4.663   8.721  0.5122 -1.4781  0.9449
  212MOL0     C29134   0.505   4.690   8.661 -0.8928  0.7882  0.1141
  212MOL0     N29135   0.460   4.825   8.669  0.8159 -1.2523  0.0463
  212MOL0     C29136   0.438   4.897   8.555 -0.9146  0.4563  0.5962
  212MOL0     C29137   0.365   4.998   8.604  0.4613 -0.7708  1.0321
  212MOL0     C29138   0.303   5.103   8.515 -0.1926  0.4899 -0.6865
  212MOL0     C29139   0.387   5.232   8.498 -0.0271 -0.0601 -0.5064
  212MOL0     C29140   0.311   5.340   8.428  0.3213 -0.6694  0.4959
  212MOL0     C29141   0.401   5.446   8.363 -0.8304  0.0105 -0.4296
  212MOL0     O29142   0.337   5.514   8.251  0.2855  0.1419  0.2292
  212MOL0     C29143   0.207   5.574   8.260  0.6485  0.1653 -1.0453
  212MOL0     C29144   0.129   5.604   8.376 -0.0853 -0.5103  0.0795
  212MOL0     C29145  -0.004   5.644   8.364  0.2427 -0.8406 -0.9776
  212MOL0     C29146  -0.077   5.695   8.491 -0.4105  0.8882  0.3821
  212MOL0     C29147  -0.069   5.662   8.236  0.4877  0.3006  0.6572
  212MOL0     C29148  -0.203   5.720   8.207 -0.4166  0.9730  0.1277
  212MOL0     O29149  -0.307   5.701   8.300  0.0537  0.2207 -0.1325
  212MOL0     C29150  -0.430   5.764   8.285  0.3255 -0.0402 -0.3362
  212MOL0     C29151  -0.444   5.905   8.302  0.0693  0.6836 -0.3441
  212MOL0     C29152  -0.564   5.967   8.296  0.4145  0.3279 -0.3673
  212MOL0     C29153  -0.680   5.898   8.263 -0.0582 -0.3045 -0.1565
  212MOL0     O29154  -0.802   5.957   8.261  0.2861  0.3272 -0.0117
  212MOL0     C29155  -0.845   6.036   8.375  0.5815  0.7548  0.3059
  212MOL0     C29156  -0.955   6.138   8.341  0.2428 -0.1988  0.9060
  212MOL0     C29157  -0.966   6.238   8.452  0.3317  0.5524 -0.5505
  212MOL0     C29158  -1.103   6.315   8.448 -0.3340  0.3118 -0.3982
  212MOL0     C29159  -1.138   6.418   8.556 -0.3552  0.1707  0.3162
  212MOL0     C29160  -1.273   6.479   8.509 -0.4155  0.2239  0.2983
  212MOL0     C29161  -1.312   6.578   8.610 -0.3645 -0.3345 -0.0983
  212MOL0     C29162  -1.449   6.628   8.593  0.5562 -0.7220  0.5008
  212MOL0    Cl29163  -1.566   6.492   8.584 -0.3468  0.0838  0.2057
  212MOL0     C29164  -0.671   5.759   8.242 -0.2952  0.1013 -0.3021
  212MOL0     C29165  -0.544   5.690   8.253 -1.0279 -1.3728  0.4456
  212MOL0     O29166  -0.218   5.771   8.102  0.3219  0.4402  0.8989
  212MOL0     C29167   0.017   5.641   8.119 -0.8788  0.3910  0.8578
  212MOL0     C29168   0.151   5.601   8.139  0.6092  0.2904  0.0426
  212MOL0     N29169   0.349   4.992   8.740 -0.4249 -0.1407 -0.7785
  212MOL0     N29170   0.408   4.884   8.783 -0.0608 -0.2097 -0.2573
  212MOL0     C29171   0.697   3.880   8.063  0.7542 -0.0915 -0.0291
  212MOL0     C29172   0.662   3.840   7.928  0.5397  0.9453 -0.5080
  212MOL0     C29173   0.366   3.701   7.609 -0.1618 -0.4308 -0.8804
  212MOL0     C29174   0.422   3.758   7.497  0.9812  0.9943 -0.2102
  212MOL0     C29175   0.372   3.745   7.366  0.2268  0.5339 -0.1828
  212MOL0     C29176   0.252   3.667   7.350 -0.2612 -0.1228 -0.5897
  212MOL0     O29177   0.201   3.656   7.221 -1.0177  0.5274 -0.0483
  212MOL0     C29178   0.069   3.594   7.211  0.5603  0.2999 -0.4458
  212MOL0     C29179   0.030   3.599   7.064 -0.6209 -0.2447 -0.0870
  212MOL0     C29180   0.111   3.498   6.982 -0.1553  0.0506  0.6826
  212MOL0     C29181   0.026   3.418   6.891 -0.0574  1.0078 -0.2068
  212MOL0     C29182   0.109   3.335   6.801 -0.2673  0.4939 -0.4555
  212MOL0     C29183   0.171   3.260   6.739 -0.5647  0.2430 -0.0513
  212MOL0     C29184   0.192   3.618   7.469  0.3288  0.2199  0.1518
  212MOL0     C29185   0.243   3.642   7.600  0.8947 -0.3428  0.1116
  212MOL0     C29186   0.162   3.599   7.715  0.0012  0.4754 -0.4272
  212MOL0     H29187   0.368   4.004   7.890 -0.3419 -1.2804  0.0976
  212MOL0     H29188   0.446   4.097   8.118 -1.3071 -0.0777 -0.1540
  212MOL0     H29189   0.825   4.102   8.214 -4.0771 -0.0321 -3.1736
  212MOL0     H29190   0.841   3.960   8.312 -1.0918 -0.5642 -0.2479
  212MOL0     H29191   0.693   4.072   8.478  0.1420  0.7615  1.3362
  212MOL0     H29192   0.867   4.080   8.487 -0.6460  0.3844  0.2270
  212MOL0     H29193   0.856   4.308   8.403 -2.0311  2.4534 -1.9823
  212MOL0     H29194   0.683   4.298   8.370 -1.3972 -0.9279  1.6686
  212MOL0     H29195   0.694   4.249   8.638  1.4471 -1.0352  1.8557
  212MOL0     H29196   0.854   4.316   8.633 -1.2439  0.8856  2.9355
  212MOL0     H29197   0.602   4.440   8.539  0.0865  0.6823 -0.3645
  212MOL0     H29198   0.760   4.523   8.522  0.3662 -0.3917 -0.3485
  212MOL0     H29199   0.599   4.461   8.769 -0.1437  0.8386  1.2539
  212MOL0     H29200   0.771   4.503   8.781 -2.0760  2.4135  2.0909
  212MOL0     H29201   0.720   4.715   8.661 -3.0438 -0.4003 -3.0242
  212MOL0     H29202   0.647   4.707   8.821  0.0606  0.2675  0.2149
  212MOL0     H29203   0.499   4.655   8.558  1.0516  0.0959  0.1988
  212MOL0     H29204   0.435   4.626   8.715 -0.3086 -0.0227 -0.0715
  212MOL0     H29205   0.461   4.881   8.450  1.9728  3.1110  0.6590
  212MOL0     H29206   0.210   5.133   8.563  0.0071  2.4462 -1.4094
  212MOL0     H29207   0.296   5.058   8.416  2.2213  1.1687 -1.2416
  212MOL0     H29208   0.427   5.263   8.594  1.8870  0.5619 -1.4535
  212MOL0     H29209   0.475   5.207   8.437  0.0714 -0.1325 -0.3340
  212MOL0     H29210   0.247   5.283   8.360 -1.5489 -0.7787  2.2212
  212MOL0     H29211   0.241   5.391   8.495 -2.7951 -2.1911 -1.3707
  212MOL0     H29212   0.424   5.525   8.436 -0.3487  0.3694 -0.9631
  212MOL0     H29213   0.495   5.403   8.327 -2.6070 -3.0201 -1.7600
  212MOL0     H29214   0.156   5.585   8.480 -0.2527 -0.7859  0.0733
  212MOL0     H29215  -0.138   5.785   8.481  0.7715  2.0301  2.6665
  212MOL0     H29216  -0.014   5.727   8.574 -1.9235  1.5695  1.3211
  212MOL0     H29217  -0.131   5.604   8.519  1.8263 -0.3464  0.9500
  212MOL0     H29218  -0.353   5.962   8.311 -0.1344  1.0689 -0.7268
  212MOL0     H29219  -0.561   6.073   8.317  0.3474 -0.1895  2.7397
  212MOL0     H29220  -0.867   5.983   8.469  2.6347  2.9484  2.1546
  212MOL0     H29221  -0.756   6.093   8.405 -0.2001  2.2875 -0.1923
  212MOL0     H29222  -0.936   6.188   8.245 -3.6917 -0.3783 -0.1265
  212MOL0     H29223  -1.047   6.078   8.336 -0.0436  0.2292  0.9901
  212MOL0     H29224  -0.888   6.313   8.437  0.0609  0.5818 -1.9782
  212MOL0     H29225  -0.954   6.197   8.553 -0.9224  0.0895 -0.5621
  212MOL0     H29226  -1.180   6.238   8.444  0.7380 -0.7421 -1.4980
  212MOL0     H29227  -1.105   6.361   8.348 -2.2741 -1.1345 -1.0868
  212MOL0     H29228  -1.160   6.362   8.647  1.4368  1.5680  1.6941
  212MOL0     H29229  -1.058   6.491   8.569 -0.2724 -0.2170  2.1547
  212MOL0     H29230  -1.357   6.415   8.483  0.1537  0.3659 -2.1891
  212MOL0     H29231  -1.255   6.535   8.416  1.7578  0.9304  1.0731
  212MOL0     H29232  -1.247   6.665   8.616 -0.4263 -0.3882  2.2810
  212MOL0     H29233  -1.311   6.542   8.714  0.9198  3.8569  1.5397
  212MOL0     H29234  -1.448   6.695   8.506  0.5050  3.2209  3.2250
  212MOL0     H29235  -1.480   6.696   8.673 -0.6954 -1.2728  0.5093
  212MOL0     H29236  -0.768   5.714   8.227  0.0669 -0.1926 -1.9767
  212MOL0     H29237  -0.544   5.582   8.256 -0.1039 -1.3525  2.2893
  212MOL0     H29238  -0.015   5.659   8.017  3.4885 -1.0182 -0.9854
  212MOL0     H29239   0.227   5.593   8.062  0.5631  0.1436  0.0125
  212MOL0     H29240   0.787   3.856   8.119  1.2086  0.4689 -0.5065
  212MOL0     H29241   0.715   3.763   7.872 -1.1648 -1.3442  0.8243
  212MOL0     H29242   0.511   3.817   7.518  1.3521  0.6516 -0.8036
  212MOL0     H29243   0.431   3.788   7.285  2.0954  1.8638  1.7617
  212MOL0     H29244   0.073   3.490   7.244 -0.7974  0.2573 -0.3615
  212MOL0     H29245  -0.007   3.642   7.273 -2.2056 -1.8888 -1.9310
  212MOL0     H29246   0.054   3.695   7.017 -0.9525 -1.2059 -2.3665
  212MOL0     H29247  -0.078   3.581   7.066 -0.5140 -0.9331 -0.0587
  212MOL0     H29248   0.182   3.551   6.918 -1.5614  0.2027 -0.8211
  212MOL0     H29249   0.174   3.426   7.035 -0.9084 -0.7649  0.5062
  212MOL0     H29250  -0.024   3.496   6.832 -0.3177  0.4534 -0.7376
  212MOL0     H29251  -0.044   3.348   6.939 -0.3380  0.8607 -0.8163
  212MOL0     H29252   0.221   3.199   6.667 -0.2608 -0.3734  0.6660
  212MOL0     H29253   0.096   3.568   7.461 -0.4808  0.9984  3.3502
  212MOL0     H29254   0.055   3.600   7.694 -0.3036 -0.4495  0.9079
  212MOL0     H29255   0.198   3.504   7.756  0.2075  1.1308  0.9606
  212MOL0     H29256   0.180   3.673   7.793 -4.2024 -0.1813  1.4117
  213MOL0     O29257   2.014  10.760   8.012 -0.2811 -0.1218  0.3739
  213MOL0     C29258   2.039  10.654   8.064 -0.1549  0.4116 -0.3409
  213MOL0     O29259   2.051  10.631   8.200 -0.3310  0.4028 -0.6711
  213MOL0     C29260   2.000  10.728   8.273  0.1562 -0.1478 -0.3943
  213MOL0     C29261   1.886  10.697   8.352 -0.2864  0.1340 -0.7258
  213MOL0     C29262   1.811  10.806   8.413 -0.0657 -0.7475 -0.2228
  213MOL0     C29263   1.854  10.940   8.413 -0.1921  0.9631 -0.8127
  213MOL0     O29264   1.781  11.045   8.477 -0.4464 -0.5956  0.4230
  213MOL0     C29265   1.853  11.166   8.502 -0.2604  0.7112 -0.0431
  213MOL0     C29266   1.756  11.249   8.592 -0.2194  0.6801  0.4967
  213MOL0     C29267   1.722  11.169   8.723  0.3039  0.2128 -0.5090
  213MOL0     C29268   1.670  11.262   8.832  0.5296 -0.3976  0.2350
  213MOL0     C29269   1.520  11.308   8.801 -0.2570 -0.4680 -0.2812
  213MOL0     C29270   1.478  11.422   8.896 -0.5589 -0.4370 -0.0187
  213MOL0     C29271   1.333  11.451   8.881 -0.2897  0.0176 -0.2107
  213MOL0     C29272   1.290  11.550   8.997  0.4005  0.5569 -0.4429
  213MOL0     N29273   1.154  11.586   8.962  0.5744  0.4665  0.1476
  213MOL0     C29274   1.040  11.534   9.020  0.4177  0.6860 -0.4632
  213MOL0     C29275   0.946  11.620   8.970 -0.1186 -0.0735 -0.2800
  213MOL0     C29276   0.804  11.605   8.979 -0.1133  0.0548  0.3553
  213MOL0     C29277   0.759  11.598   9.127  1.3649 -0.1261  0.4258
  213MOL0     C29278   0.602  11.610   9.147  0.0377 -0.3178  0.2589
  213MOL0     C29279   0.567  11.702   9.260  0.0936 -0.2598  0.1121
  213MOL0     O29280   0.421  11.704   9.259  0.5005 -0.0910 -0.0369
  213MOL0     C29281   0.344  11.615   9.331 -0.5090 -0.4646 -0.1365
  213MOL0     C29282   0.388  11.485   9.385 -0.0673  0.0146 -1.2712
  213MOL0     C29283   0.298  11.403   9.463 -0.5765 -0.0401  0.0037
  213MOL0     C29284   0.337  11.253   9.499  0.3448 -0.1759 -0.1298
  213MOL0     C29285   0.165  11.454   9.493  0.0693 -0.2978 -0.3534
  213MOL0     C29286   0.064  11.393   9.587  0.4862 -1.3734  0.1801
  213MOL0     O29287   0.108  11.315   9.689  0.7016 -0.1149 -0.1207
  213MOL0     C29288   0.012  11.254   9.768  0.6319 -0.5769 -0.5167
  213MOL0     C29289  -0.003  11.289   9.911  0.3821  0.3967  0.0210
  213MOL0     C29290  -0.089  11.221   9.988 -0.4888  0.0851 -0.1378
  213MOL0     C29291  -0.159  11.110   9.931 -0.0378 -0.0746  0.2729
  213MOL0     O29292  -0.242  11.044  10.010 -0.2846 -0.5323 -0.6822
  213MOL0     C29293  -0.377  11.003   9.991  0.4233  0.1044 -0.6100
  213MOL0     C29294  -0.393  10.867  10.060  0.9446  0.5725 -0.1153
  213MOL0     C29295  -0.543  10.818  10.023 -0.3497 -0.7597 -1.1824
  213MOL0     C29296  -0.554  10.676  10.077 -0.0967  0.6123  1.0025
  213MOL0     C29297  -0.667  10.586  10.017  0.0437 -0.6859  0.1934
  213MOL0     C29298  -0.803  10.643  10.033  0.2576 -1.0247  1.0071
  213MOL0     C29299  -0.918  10.562   9.984  0.9452  1.1662  0.1814
  213MOL0     C29300  -0.912  10.505   9.837  0.7584 -0.2829  1.0224
  213MOL0    Cl29301  -1.060  10.401   9.827 -0.1625  0.3868  0.4389
  213MOL0     C29302  -0.149  11.082   9.795  0.1513  0.5219 -0.5614
  213MOL0     C29303  -0.066  11.153   9.714  0.0946  0.2855  0.6600
  213MOL0     O29304  -0.054  11.427   9.566  0.1100  0.2852  0.0772
  213MOL0     C29305   0.131  11.579   9.439 -0.6313  0.4399  0.5871
  213MOL0     C29306   0.219  11.660   9.367  0.0774  0.1983 -0.0096
  213MOL0     N29307   1.006  11.707   8.882 -0.4409 -0.8642 -0.1664
  213MOL0     N29308   1.131  11.687   8.885 -0.5307 -0.5116 -0.7061
  213MOL0     C29309   1.976  10.960   8.349 -0.2882  1.4999  0.0585
  213MOL0     C29310   2.053  10.861   8.285 -1.1461 -0.2807 -0.9508
  213MOL0     C29311   2.045  10.525   7.984 -0.8624 -0.3743  0.5655
  213MOL0     C29312   2.010  10.410   8.050 -0.7597  0.3122 -0.0636
  213MOL0     C29313   2.008  10.289   7.981  0.4081 -0.0262 -0.4192
  213MOL0     C29314   2.041  10.283   7.854  0.1568 -0.9179  0.7055
  213MOL0     O29315   2.057  10.172   7.776 -0.4934  0.1268 -0.2899
  213MOL0     C29316   2.054  10.035   7.830  0.2787 -0.1208 -0.4456
  213MOL0     C29317   2.204  10.000   7.855  0.0873 -0.3430  0.5185
  213MOL0     C29318   2.225   9.905   7.965  0.1895 -0.8144 -0.4357
  213MOL0     C29319   2.212   9.752   7.955 -0.0297  0.1400 -0.7281
  213MOL0     C29320   2.084   9.710   7.907  0.2707 -1.1915  1.0181
  213MOL0     C29321   1.975   9.688   7.855  0.6313  0.4890  0.3001
  213MOL0     C29322   2.085  10.398   7.790  0.3126 -0.0088  0.9013
  213MOL0     C29323   2.096  10.522   7.851  0.5415 -0.8161 -0.1699
  213MOL0     C29324   2.137  10.646   7.765 -0.3059  0.1862 -0.5192
  213MOL0     H29325   1.852  10.594   8.343  3.6886 -1.1773 -3.8923
  213MOL0     H29326   1.722  10.785   8.470  1.0696 -0.4846  1.7412
  213MOL0     H29327   1.882  11.230   8.418 -0.6418  2.4945  1.1339
  213MOL0     H29328   1.950  11.143   8.549 -0.2014  1.5671  0.2750
  213MOL0     H29329   1.804  11.341   8.627 -0.8152  1.4313 -0.5893
  213MOL0     H29330   1.661  11.259   8.537 -1.3386 -4.0467  1.1379
  213MOL0     H29331   1.633  11.105   8.713 -0.8890  1.0609  3.0793
  213MOL0     H29332   1.808  11.116   8.763  0.2394  1.5644  1.5672
  213MOL0     H29333   1.669  11.211   8.929 -3.4367 -3.6222 -1.1996
  213MOL0     H29334   1.740  11.345   8.831  0.5593 -0.1505  4.3649
  213MOL0     H29335   1.462  11.216   8.812 -0.3964 -0.1723  1.9343
  213MOL0     H29336   1.513  11.337   8.696 -0.0868 -1.1736 -0.4920
  213MOL0     H29337   1.492  11.381   8.996 -0.1739 -0.8469 -0.2384
  213MOL0     H29338   1.538  11.513   8.888 -0.5698 -0.5197 -1.3055
  213MOL0     H29339   1.270  11.362   8.888 -1.2417  0.6470 -0.6041
  213MOL0     H29340   1.318  11.490   8.780  0.9987  0.9529 -0.0643
  213MOL0     H29341   1.283  11.500   9.094  1.5812  1.3974  0.0949
  213MOL0     H29342   1.336  11.649   9.006 -0.5553  1.1163 -1.4878
  213MOL0     H29343   1.026  11.455   9.093 -1.3341  2.1938  0.9260
  213MOL0     H29344   0.790  11.507   8.932 -2.1865  0.8498 -0.8187
  213MOL0     H29345   0.749  11.689   8.934  0.6493  0.4733  0.1875
  213MOL0     H29346   0.800  11.514   9.183 -0.2629 -1.7126 -0.6512
  213MOL0     H29347   0.796  11.692   9.168 -1.1098  1.6196 -1.0441
  213MOL0     H29348   0.553  11.650   9.057  1.6961 -0.5778 -0.7905
  213MOL0     H29349   0.564  11.508   9.159  2.6985 -1.3347  0.5133
  213MOL0     H29350   0.604  11.665   9.356 -0.6794  0.5388  0.7378
  213MOL0     H29351   0.615  11.796   9.232  1.0228 -0.5542  0.6760
  213MOL0     H29352   0.490  11.457   9.360  0.6441  0.4474  0.9013
  213MOL0     H29353   0.358  11.263   9.605 -0.7182  0.9867 -0.0072
  213MOL0     H29354   0.420  11.211   9.441 -0.2387  0.4711 -1.4969
  213MOL0     H29355   0.244  11.196   9.490 -0.2307  0.4513  1.5697
  213MOL0     H29356   0.053  11.372   9.953 -0.9751  1.4558 -0.1997
  213MOL0     H29357  -0.109  11.252  10.091  3.2501 -0.2797  0.8532
  213MOL0     H29358  -0.438  11.073  10.048 -2.3606 -2.0194 -0.7789
  213MOL0     H29359  -0.403  11.016   9.886  0.7472  0.7753 -0.6118
  213MOL0     H29360  -0.324  10.789  10.028  0.0902 -0.3335  0.2041
  213MOL0     H29361  -0.386  10.875  10.169 -3.2082 -1.1132  0.4701
  213MOL0     H29362  -0.562  10.846   9.918  0.3910  1.4405 -0.7932
  213MOL0     H29363  -0.616  10.870  10.086  0.4277 -0.3268 -0.6280
  213MOL0     H29364  -0.574  10.683  10.185 -2.1472 -0.3975  0.7358
  213MOL0     H29365  -0.457  10.630  10.061 -0.4426  0.9741 -2.9648
  213MOL0     H29366  -0.652  10.586   9.909  1.3903  2.1906  0.2934
  213MOL0     H29367  -0.673  10.490  10.070 -2.2539 -0.9228 -0.4189
  213MOL0     H29368  -0.802  10.728   9.964 -0.3658 -0.2517  1.9376
  213MOL0     H29369  -0.815  10.673  10.137  1.8276 -1.8416  1.4618
  213MOL0     H29370  -1.013  10.617   9.992  1.3639  1.7508  1.5202
  213MOL0     H29371  -0.924  10.474  10.048 -0.5317  0.4546 -0.8827
  213MOL0     H29372  -0.820  10.452   9.814  0.7344 -1.0096  2.5130
  213MOL0     H29373  -0.909  10.584   9.761  1.5294  0.9625  2.3141
  213MOL0     H29374  -0.199  10.996   9.751  0.3525 -0.0191  0.2450
  213MOL0     H29375  -0.057  11.131   9.608  0.4692 -1.7934  1.0936
  213MOL0     H29376   0.037  11.628   9.463 -1.6155 -1.8962  1.9033
  213MOL0     H29377   0.188  11.757   9.330 -1.0058 -0.6282 -1.3975
  213MOL0     H29378   2.018  11.060   8.340  1.9300  0.7773  1.5601
  213MOL0     H29379   2.145  10.889   8.234 -0.2480 -2.7804 -0.8561
  213MOL0     H29380   1.979  10.406   8.154  2.4663 -0.5714  1.0030
  213MOL0     H29381   1.984  10.201   8.041  2.4413  0.5343  1.3629
  213MOL0     H29382   1.993  10.031   7.920  0.9081  1.1858  0.0666
  213MOL0     H29383   2.002   9.962   7.768  1.9482 -0.6380 -1.2978
  213MOL0     H29384   2.260  10.090   7.879  2.0080 -1.6878  1.3361
  213MOL0     H29385   2.242   9.966   7.759 -1.7204 -1.8985  0.2827
  213MOL0     H29386   2.325   9.927   8.002 -1.2973  2.8028  2.0801
  213MOL0     H29387   2.155   9.934   8.044 -1.0670  2.8053 -2.6645
  213MOL0     H29388   2.231   9.711   8.054 -1.2440  4.2748  1.4394
  213MOL0     H29389   2.289   9.713   7.888  0.6408 -0.5334  0.4254
  213MOL0     H29390   1.877   9.661   7.821 -1.9156  5.2361  2.7425
  213MOL0     H29391   2.100  10.398   7.682 -1.4700  0.1309  0.6233
  213MOL0     H29392   2.219  10.700   7.815  0.1326 -1.1989  0.3280
  213MOL0     H29393   2.174  10.624   7.665 -1.2851 -0.1257 -0.8213
  213MOL0     H29394   2.049  10.704   7.734 -2.2967 -2.1643  0.4198
  214MOL0     O29395   4.469   5.795   8.558 -0.2540  0.4266  0.0964
  214MOL0     C29396   4.472   5.761   8.677 -0.0480 -0.1289  0.4448
  214MOL0     O29397   4.573   5.775   8.761  0.1560  0.7844  0.0900
  214MOL0     C29398   4.682   5.829   8.696 -0.5555 -0.7294  0.1379
  214MOL0     C29399   4.789   5.753   8.653 -0.1164  0.3823  0.6661
  214MOL0     C29400   4.901   5.818   8.595  0.5912  0.2537 -0.0378
  214MOL0     C29401   4.899   5.962   8.568 -0.4659  0.2745 -0.6272
  214MOL0     O29402   5.001   6.016   8.493  0.3325  0.3301 -0.0550
  214MOL0     C29403   5.086   6.099   8.569 -1.2245 -0.8761 -0.3790
  214MOL0     C29404   5.225   6.127   8.492  0.1096 -1.0794  0.4973
  214MOL0     C29405   5.328   6.014   8.481  0.3793  0.2143 -0.0958
  214MOL0     C29406   5.326   5.935   8.349 -0.5360 -0.4255  0.1397
  214MOL0     C29407   5.382   6.016   8.225  0.8601  0.0981  0.2392
  214MOL0     C29408   5.412   5.919   8.110  0.3635  0.5597  0.2292
  214MOL0     C29409   5.497   5.965   7.989 -0.7406 -0.6171 -0.2396
  214MOL0     C29410   5.600   5.858   7.950  0.6704 -0.2679 -0.0212
  214MOL0     N29411   5.700   5.841   8.063  0.2081  0.2231 -0.9197
  214MOL0     C29412   5.692   5.753   8.169 -0.3917 -0.1588 -0.1758
  214MOL0     C29413   5.814   5.771   8.233 -0.5508 -0.4095 -0.1860
  214MOL0     C29414   5.868   5.704   8.358 -0.5257  0.0415 -0.0379
  214MOL0     C29415   5.785   5.731   8.482 -0.5199  0.0382 -0.7773
  214MOL0     C29416   5.768   5.883   8.521 -0.4907  0.0589 -0.5931
  214MOL0     C29417   5.683   5.897   8.650  0.4216  0.7520  0.7651
  214MOL0     O29418   5.559   5.819   8.647 -0.2670  0.0986  0.2466
  214MOL0     C29419   5.472   5.816   8.753 -0.1400  0.5989 -0.3887
  214MOL0     C29420   5.350   5.756   8.748  0.0440  0.1240  0.1996
  214MOL0     C29421   5.255   5.759   8.857 -0.9201 -0.2280  0.3604
  214MOL0     C29422   5.124   5.683   8.843  0.2223  0.0917 -0.5373
  214MOL0     C29423   5.288   5.838   8.976  0.3710 -0.3119 -0.0493
  214MOL0     C29424   5.214   5.841   9.093 -0.3643 -0.3571  0.1162
  214MOL0     O29425   5.077   5.850   9.078 -0.9038 -0.4043  0.0292
  214MOL0     C29426   4.999   5.875   9.190  0.2727 -0.3992  0.3274
  214MOL0     C29427   5.029   5.974   9.287 -0.0541 -1.2033 -0.2985
  214MOL0     C29428   4.946   5.985   9.395 -0.9775  0.0166 -0.0039
  214MOL0     C29429   4.827   5.915   9.405 -0.5844 -0.8411  0.8075
  214MOL0     O29430   4.757   5.950   9.515 -0.3285  0.3124  0.3570
  214MOL0     C29431   4.665   5.852   9.560 -0.1771  0.0129  0.4936
  214MOL0     C29432   4.633   5.886   9.709 -0.2387 -0.4698 -0.2988
  214MOL0     C29433   4.755   5.876   9.805 -0.0532 -0.9908  0.5832
  214MOL0     C29434   4.724   5.946   9.934  0.2383  0.3377  0.0593
  214MOL0     C29435   4.846   5.910  10.023  0.5832  0.1863  0.2337
  214MOL0     C29436   4.833   5.951  10.169 -0.1827 -0.3743 -0.2328
  214MOL0     C29437   4.950   5.892  10.246 -0.2390 -0.6649  0.2612
  214MOL0     C29438   4.939   5.745  10.295 -0.3654 -1.3475 -0.4491
  214MOL0    Cl29439   5.101   5.698  10.360  0.3272  0.4156 -0.5960
  214MOL0     C29440   4.795   5.822   9.301 -0.2822 -0.1412 -0.1230
  214MOL0     C29441   4.882   5.802   9.198  0.6241 -0.2317  0.1110
  214MOL0     O29442   5.270   5.833   9.206 -0.6051  0.1934 -0.0166
  214MOL0     C29443   5.404   5.915   8.966 -0.6128 -0.2268  0.1653
  214MOL0     C29444   5.497   5.897   8.860 -0.2514 -0.2341 -0.2495
  214MOL0     N29445   5.891   5.866   8.168 -0.2287  1.2312 -0.7635
  214MOL0     N29446   5.819   5.907   8.068 -0.5256  0.2729  0.8197
  214MOL0     C29447   4.785   6.033   8.604 -0.5262  0.0506  0.0385
  214MOL0     C29448   4.682   5.968   8.676  0.7495  0.1931 -0.5024
  214MOL0     C29449   4.350   5.698   8.728  0.5745  0.3403  0.1124
  214MOL0     C29450   4.229   5.757   8.687 -0.5701 -0.0386 -0.2578
  214MOL0     C29451   4.113   5.706   8.741  0.4104 -0.3278  0.1392
  214MOL0     C29452   4.104   5.603   8.833 -0.1446 -0.4262  0.6516
  214MOL0     O29453   3.975   5.573   8.881 -0.3868 -0.3468 -0.4312
  214MOL0     C29454   3.942   5.431   8.892 -0.4699 -0.1784  0.0653
  214MOL0     C29455   3.942   5.369   9.037 -0.6002  0.0162  0.5742
  214MOL0     C29456   3.876   5.466   9.132 -1.0105  0.5581 -0.7669
  214MOL0     C29457   3.937   5.452   9.276 -0.0759 -0.1024  0.2501
  214MOL0     C29458   3.903   5.556   9.371 -0.4394  0.7348 -0.6068
  214MOL0     C29459   3.876   5.624   9.469  0.5372 -0.0880  0.3928
  214MOL0     C29460   4.223   5.553   8.874 -0.0844  0.9783  0.7763
  214MOL0     C29461   4.353   5.597   8.835  0.0763 -0.4577 -0.1191
  214MOL0     C29462   4.475   5.544   8.903  0.2457 -0.7636 -0.0679
  214MOL0     H29463   4.791   5.644   8.658  0.3419  0.3969  0.8390
  214MOL0     H29464   4.986   5.760   8.561  1.0574  0.4560  0.7590
  214MOL0     H29465   5.102   6.048   8.664  2.3047  0.4790 -0.1034
  214MOL0     H29466   5.042   6.195   8.596  0.1848 -0.8547  2.0495
  214MOL0     H29467   5.195   6.152   8.390 -1.2343 -1.3633  0.8018
  214MOL0     H29468   5.277   6.213   8.535  0.8939 -2.2673  2.0231
  214MOL0     H29469   5.433   6.040   8.496  0.5618  0.0152 -0.9761
  214MOL0     H29470   5.303   5.944   8.563  4.7393 -0.3551  0.9805
  214MOL0     H29471   5.390   5.850   8.377 -0.9758  0.0834  2.9678
  214MOL0     H29472   5.224   5.902   8.331 -0.5052 -0.7290  0.5030
  214MOL0     H29473   5.476   6.063   8.254  1.0685  0.9428 -1.6283
  214MOL0     H29474   5.317   6.096   8.187  3.3933  1.0826 -2.3836
  214MOL0     H29475   5.459   5.835   8.162 -2.0614  0.4611  2.4811
  214MOL0     H29476   5.310   5.891   8.080  0.8155 -0.8990 -0.0249
  214MOL0     H29477   5.565   6.045   8.019  0.1252 -1.6414  0.6347
  214MOL0     H29478   5.439   5.995   7.902 -0.7819 -2.9032 -1.0529
  214MOL0     H29479   5.544   5.766   7.930 -0.6635  0.6544 -0.6973
  214MOL0     H29480   5.655   5.882   7.858  0.8068  2.7260  0.7527
  214MOL0     H29481   5.607   5.691   8.196 -1.5387  1.7731  0.9355
  214MOL0     H29482   5.970   5.740   8.378 -0.1894 -0.2771 -1.1364
  214MOL0     H29483   5.858   5.600   8.328 -1.6714  0.7301 -2.2112
  214MOL0     H29484   5.688   5.680   8.478  0.8266 -2.7094 -0.5602
  214MOL0     H29485   5.836   5.687   8.568  0.7789  2.5193 -0.1724
  214MOL0     H29486   5.867   5.921   8.546  0.2154 -1.5201 -0.8266
  214MOL0     H29487   5.724   5.936   8.436  1.9570 -0.0088 -1.9827
  214MOL0     H29488   5.758   5.864   8.722  4.2812 -0.6454 -3.4437
  214MOL0     H29489   5.651   6.000   8.670 -3.5363  0.4588 -2.6631
  214MOL0     H29490   5.334   5.705   8.653  1.4868  0.5071 -0.2748
  214MOL0     H29491   5.074   5.678   8.940 -1.2665  0.7293 -1.2395
  214MOL0     H29492   5.152   5.582   8.811  0.5988  0.1736 -0.4587
  214MOL0     H29493   5.057   5.729   8.769  0.8891 -0.3494 -1.4384
  214MOL0     H29494   5.116   6.038   9.284 -1.1028  0.5210  2.2852
  214MOL0     H29495   4.969   6.051   9.478  0.6464  1.2843 -1.3752
  214MOL0     H29496   4.581   5.857   9.490  0.1084  0.2508  0.1624
  214MOL0     H29497   4.691   5.746   9.558  1.3304  0.3346  1.6845
  214MOL0     H29498   4.582   5.982   9.714 -3.9188 -2.2444 -0.2768
  214MOL0     H29499   4.560   5.817   9.752 -0.5584  0.1153  0.0949
  214MOL0     H29500   4.837   5.934   9.762  4.4121 -3.1896  5.0490
  214MOL0     H29501   4.790   5.773   9.819  1.4128 -0.4491  0.9861
  214MOL0     H29502   4.634   5.907   9.982  0.7933 -1.7387 -0.4992
  214MOL0     H29503   4.721   6.053   9.914  2.2049 -0.0523 -2.9455
  214MOL0     H29504   4.860   5.802  10.031 -0.4550  0.0648  0.5766
  214MOL0     H29505   4.929   5.971   9.988  1.4775 -0.2851  1.4275
  214MOL0     H29506   4.740   5.911  10.211 -0.8109 -0.5565 -1.7246
  214MOL0     H29507   4.835   6.059  10.187 -1.3045 -0.2950 -0.4875
  214MOL0     H29508   4.978   5.959  10.328  0.1955  1.8773 -1.8080
  214MOL0     H29509   5.038   5.884  10.181  1.3115 -1.3975  2.3402
  214MOL0     H29510   4.912   5.687  10.207  1.6088  1.3419 -3.0318
  214MOL0     H29511   4.869   5.734  10.379  1.8499 -2.0327  1.4342
  214MOL0     H29512   4.696   5.781   9.317 -0.5529  0.4049 -0.3792
  214MOL0     H29513   4.858   5.727   9.123 -1.0418 -0.1916  0.5539
  214MOL0     H29514   5.446   5.980   9.043  4.0833  1.5186 -3.4125
  214MOL0     H29515   5.581   5.967   8.860 -1.0989  0.8175 -0.1120
  214MOL0     H29516   4.788   6.140   8.588  2.5472  0.1707  0.8509
  214MOL0     H29517   4.604   6.038   8.703  2.1683  0.9347  2.0825
  214MOL0     H29518   4.223   5.844   8.623 -1.4733  0.5990  0.6588
  214MOL0     H29519   4.019   5.751   8.711  1.2217  0.3994 -1.4009
  214MOL0     H29520   3.838   5.417   8.860 -1.0153 -3.6417  2.7954
  214MOL0     H29521   4.000   5.368   8.826 -2.2663  0.2518 -2.0357
  214MOL0     H29522   4.043   5.334   9.060 -0.6867 -0.7641 -0.1693
  214MOL0     H29523   3.885   5.276   9.030 -0.0041 -0.3049 -0.1331
  214MOL0     H29524   3.890   5.572   9.107  1.5531  0.2448 -0.9721
  214MOL0     H29525   3.769   5.444   9.130 -0.2097 -4.2966 -1.4477
  214MOL0     H29526   4.044   5.429   9.276 -0.4069 -1.7720 -0.3210
  214MOL0     H29527   3.887   5.366   9.321 -1.3008  0.4776  0.0568
  214MOL0     H29528   3.832   5.679   9.550 -1.1906  0.3205 -0.7595
  214MOL0     H29529   4.214   5.470   8.943 -0.6396  0.7371  0.4224
  214MOL0     H29530   4.548   5.528   8.823 -2.7081 -0.7233 -2.9812
  214MOL0     H29531   4.522   5.608   8.979  2.0665 -0.1989 -1.6010
  214MOL0     H29532   4.458   5.443   8.941 -2.2987 -0.6700 -0.7716
  215MOL0     O29533   4.592   2.294   1.727  0.2456  0.6537  0.3775
  215MOL0     C29534   4.544   2.200   1.658 -0.1122 -0.8827 -0.0002
  215MOL0     O29535   4.612   2.103   1.593 -0.2084 -0.8595 -0.4461
  215MOL0     C29536   4.745   2.103   1.609  0.0294 -0.4730 -0.3816
  215MOL0     C29537   4.837   2.201   1.554  0.0272  0.6088 -0.2865
  215MOL0     C29538   4.974   2.195   1.569 -0.9896 -0.0982 -0.6964
  215MOL0     C29539   5.028   2.087   1.633 -0.6842  0.1078 -0.2947
  215MOL0     O29540   5.165   2.066   1.642  0.1318 -0.8291  0.5901
  215MOL0     C29541   5.250   2.186   1.633 -0.5326  0.4405 -0.1416
  215MOL0     C29542   5.377   2.165   1.704  0.0030  0.1120 -0.9661
  215MOL0     C29543   5.491   2.243   1.650  0.3902  0.6119  0.1630
  215MOL0     C29544   5.510   2.389   1.690 -0.0756  0.6344  0.3328
  215MOL0     C29545   5.634   2.451   1.627  0.1331  0.1260  0.5638
  215MOL0     C29546   5.657   2.597   1.674  0.0651 -0.4231 -0.1953
  215MOL0     C29547   5.585   2.702   1.604  0.2067 -0.6723 -0.9217
  215MOL0     C29548   5.642   2.841   1.624 -1.1034 -0.2034 -0.4613
  215MOL0     N29549   5.627   2.882   1.761 -0.2752 -0.6080  0.3252
  215MOL0     C29550   5.727   2.922   1.842  0.0412 -0.4204 -0.2387
  215MOL0     C29551   5.665   2.977   1.952 -0.3820 -0.0269 -0.4236
  215MOL0     C29552   5.739   3.009   2.073  0.1904 -0.5791 -0.5127
  215MOL0     C29553   5.803   3.143   2.043 -0.1797  0.2361 -0.0514
  215MOL0     C29554   5.935   3.172   2.119 -0.1649  0.4082 -0.3315
  215MOL0     C29555   5.919   3.223   2.257  0.7509  0.6639 -1.1090
  215MOL0     O29556   6.028   3.303   2.308 -0.5963  0.3418 -0.0079
  215MOL0     C29557   6.043   3.333   2.441  0.5256 -0.2354  0.7667
  215MOL0     C29558   6.176   3.342   2.486 -0.0380  0.3610  0.9034
  215MOL0     C29559   6.203   3.347   2.623  0.3051  0.1612  0.1756
  215MOL0     C29560   6.353   3.345   2.648 -0.3865 -0.2322 -0.4985
  215MOL0     C29561   6.099   3.346   2.721 -0.1714  0.3698  0.0312
  215MOL0     C29562   6.130   3.369   2.865  0.4579  0.2332 -0.0538
  215MOL0     O29563   6.040   3.315   2.955  0.5672 -0.1130 -0.7253
  215MOL0     C29564   6.072   3.286   3.078  1.1253 -0.7400  0.2949
  215MOL0     C29565   5.977   3.326   3.167  0.2130  0.4887 -0.1340
  215MOL0     C29566   5.989   3.281   3.301  0.3091  0.2172 -0.7074
  215MOL0     C29567   6.113   3.229   3.346  0.8559  0.5627  0.1482
  215MOL0     O29568   6.130   3.210   3.480 -0.0852 -0.3233  0.8058
  215MOL0     C29569   6.263   3.221   3.535 -0.0783 -0.5184  1.2502
  215MOL0     C29570   6.280   3.271   3.676 -0.1288 -0.4872 -0.4820
  215MOL0     C29571   6.246   3.159   3.779  0.0282  0.0214  0.6343
  215MOL0     C29572   6.102   3.113   3.778  1.3317 -0.2107 -0.1365
  215MOL0     C29573   6.084   3.022   3.896 -0.0092  1.5424  0.2703
  215MOL0     C29574   5.945   2.964   3.891 -0.3411 -0.7843  0.1747
  215MOL0     C29575   5.903   2.890   4.017  0.2949 -0.4458 -0.3075
  215MOL0     C29576   5.770   2.802   4.004 -0.0136  0.0491  0.3794
  215MOL0    Cl29577   5.615   2.873   3.967  0.1171  0.2507 -0.3989
  215MOL0     C29578   6.207   3.187   3.250 -0.2838 -0.7388 -0.2698
  215MOL0     C29579   6.187   3.212   3.118 -0.4166 -1.1065 -0.6656
  215MOL0     O29580   6.223   3.445   2.888  0.0473 -0.7608 -0.0254
  215MOL0     C29581   5.968   3.348   2.669 -0.0758  0.6453  0.4992
  215MOL0     C29582   5.938   3.334   2.530 -0.0371  0.0660  0.5243
  215MOL0     N29583   5.524   2.961   1.938 -0.4058 -0.2882 -0.0542
  215MOL0     N29584   5.508   2.903   1.822  0.0385  0.1592 -0.4801
  215MOL0     C29585   4.946   1.994   1.696  0.8054 -0.0052  0.1150
  215MOL0     C29586   4.806   1.999   1.680  0.3312  0.5793 -0.2215
  215MOL0     C29587   4.394   2.200   1.627  0.7318 -0.6225 -0.3779
  215MOL0     C29588   4.329   2.325   1.647  0.8990  0.5658  1.0220
  215MOL0     C29589   4.188   2.341   1.626  0.5263  0.8953  0.3045
  215MOL0     C29590   4.116   2.227   1.578 -0.5566  0.7020 -0.2700
  215MOL0     O29591   3.981   2.231   1.551 -0.5196  0.2721  0.2616
  215MOL0     C29592   3.907   2.339   1.604 -0.1952 -0.7320 -1.3505
  215MOL0     C29593   3.754   2.313   1.584  0.9077  0.1449 -0.0813
  215MOL0     C29594   3.706   2.196   1.680 -1.4202 -0.6640 -0.5843
  215MOL0     C29595   3.620   2.087   1.621  0.8162 -0.1054 -0.4941
  215MOL0     C29596   3.544   2.009   1.717  0.3142 -0.0803 -0.4802
  215MOL0     C29597   3.479   1.941   1.791 -0.3403 -0.1281 -0.1608
  215MOL0     C29598   4.184   2.110   1.558 -0.1331  0.6389  0.0441
  215MOL0     C29599   4.314   2.087   1.579 -0.7631 -0.3436 -0.7415
  215MOL0     C29600   4.362   1.944   1.552 -0.4336  0.8491 -0.9659
  215MOL0     H29601   4.784   2.288   1.517 -0.5505 -1.0209 -3.7895
  215MOL0     H29602   5.045   2.264   1.524  0.0053 -1.5452 -1.4085
  215MOL0     H29603   5.206   2.276   1.676  0.7182 -0.1900  2.7694
  215MOL0     H29604   5.278   2.195   1.528  0.4008  3.5545  0.2752
  215MOL0     H29605   5.349   2.160   1.810 -2.3326 -1.5731 -1.5692
  215MOL0     H29606   5.403   2.062   1.677  0.5568 -0.0040 -0.0287
  215MOL0     H29607   5.579   2.184   1.675  0.5379  0.4294 -0.7270
  215MOL0     H29608   5.486   2.245   1.540  3.4649  1.3904 -0.0613
  215MOL0     H29609   5.423   2.438   1.646 -1.1731 -1.1359  0.4098
  215MOL0     H29610   5.519   2.393   1.799  0.0827 -2.2057  0.5124
  215MOL0     H29611   5.631   2.449   1.518  1.1334  0.2757  0.5173
  215MOL0     H29612   5.719   2.391   1.659  0.9939  1.7679  1.5274
  215MOL0     H29613   5.640   2.605   1.782  3.6992  0.6236  0.4516
  215MOL0     H29614   5.765   2.615   1.666 -0.2863  1.4785 -1.2167
  215MOL0     H29615   5.478   2.706   1.627  0.4818 -1.2434  0.5646
  215MOL0     H29616   5.586   2.669   1.500  1.1590 -1.1081 -0.7887
  215MOL0     H29617   5.750   2.841   1.607 -1.2544 -1.9409 -1.6794
  215MOL0     H29618   5.603   2.921   1.560  0.2384  2.3127  1.6803
  215MOL0     H29619   5.830   2.909   1.809 -0.8265 -1.9334 -2.5960
  215MOL0     H29620   5.813   2.933   2.101  0.9406  0.3485  0.0884
  215MOL0     H29621   5.666   3.031   2.151 -0.3106 -2.1066 -0.5146
  215MOL0     H29622   5.847   3.137   1.943 -0.3033  2.6834 -0.2969
  215MOL0     H29623   5.737   3.230   2.043  1.0704  1.2625 -2.3018
  215MOL0     H29624   5.992   3.082   2.142 -1.8669 -0.2347  1.6993
  215MOL0     H29625   5.997   3.235   2.056  1.2974 -0.9155 -0.2594
  215MOL0     H29626   5.820   3.266   2.273  1.3044  1.2348  1.2709
  215MOL0     H29627   5.909   3.135   2.323 -0.7447  1.3908 -0.3132
  215MOL0     H29628   6.255   3.343   2.411  0.8424 -0.5107  1.7896
  215MOL0     H29629   6.414   3.305   2.567  1.5661  2.2081 -0.3379
  215MOL0     H29630   6.389   3.291   2.736  1.0149 -1.1313 -1.5778
  215MOL0     H29631   6.396   3.444   2.663  0.6079 -0.6304 -0.6781
  215MOL0     H29632   5.894   3.392   3.142 -1.8422 -1.9978 -0.2652
  215MOL0     H29633   5.913   3.313   3.372 -0.3509 -0.5314 -1.0660
  215MOL0     H29634   6.321   3.130   3.518 -2.8039 -2.4984  2.0193
  215MOL0     H29635   6.303   3.297   3.466 -1.3277 -1.3320 -0.4585
  215MOL0     H29636   6.385   3.300   3.690  0.0027 -1.6662  1.2338
  215MOL0     H29637   6.216   3.356   3.704  1.1471  0.2341  0.3676
  215MOL0     H29638   6.264   3.197   3.880  1.3154 -1.4781  1.0106
  215MOL0     H29639   6.311   3.071   3.770 -2.5348 -1.9160 -0.2269
  215MOL0     H29640   6.083   3.073   3.678 -0.8990 -0.2087  0.2330
  215MOL0     H29641   6.032   3.196   3.790 -1.5878 -2.6765  1.1736
  215MOL0     H29642   6.155   2.940   3.883 -0.2066  1.7598 -2.7881
  215MOL0     H29643   6.092   3.075   3.992 -0.5520 -0.6215  1.5768
  215MOL0     H29644   5.946   2.896   3.806 -0.5562 -1.1674  0.4726
  215MOL0     H29645   5.871   3.039   3.862  0.2563 -0.8133 -1.5496
  215MOL0     H29646   5.892   2.963   4.097 -1.5834  1.9234 -2.5465
  215MOL0     H29647   5.985   2.819   4.035  0.8414  0.6939  1.9512
  215MOL0     H29648   5.770   2.743   4.096  1.5856  0.3618  0.6086
  215MOL0     H29649   5.786   2.732   3.922 -0.0453  0.2321  0.2176
  215MOL0     H29650   6.293   3.128   3.280 -0.7658 -1.5209 -0.3897
  215MOL0     H29651   6.261   3.180   3.046 -2.4750 -2.5882 -2.2724
  215MOL0     H29652   5.897   3.372   2.748 -0.2420  1.0873  0.2189
  215MOL0     H29653   5.838   3.340   2.489 -0.3477 -0.3988  1.2034
  215MOL0     H29654   4.989   1.918   1.760  1.3210  0.9094  0.9035
  215MOL0     H29655   4.745   1.916   1.714  3.3426 -3.3929 -3.5062
  215MOL0     H29656   4.380   2.415   1.680 -2.4121  3.1396 -0.2237
  215MOL0     H29657   4.152   2.443   1.633  2.2758  1.8046 -2.4901
  215MOL0     H29658   3.928   2.340   1.711  1.7803  0.2397 -1.7033
  215MOL0     H29659   3.939   2.436   1.564  0.1570 -0.5428 -0.6051
  215MOL0     H29660   3.730   2.289   1.480  0.5429 -4.7441  0.9158
  215MOL0     H29661   3.689   2.395   1.617  0.9926  0.0133  0.4123
  215MOL0     H29662   3.800   2.152   1.714  2.2948  6.7630  0.6825
  215MOL0     H29663   3.656   2.240   1.766  1.6048  1.6438  0.1389
  215MOL0     H29664   3.676   2.017   1.558 -1.7361  0.5229 -3.7506
  215MOL0     H29665   3.560   2.127   1.539  3.8404  0.3501 -2.6626
  215MOL0     H29666   3.436   1.879   1.868 -0.3859 -0.0507 -0.1238
  215MOL0     H29667   4.135   2.019   1.524  1.6717 -1.2886  2.2680
  215MOL0     H29668   4.277   1.875   1.546 -1.8403  2.0213  2.7110
  215MOL0     H29669   4.421   1.922   1.463 -0.3802 -1.6513 -0.3866
  215MOL0     H29670   4.425   1.910   1.635 -2.0180 -3.6398 -1.3208
  216MOL0     O29671  10.302  11.079   1.445 -0.7379 -0.7519  0.0355
  216MOL0     C29672  10.310  10.957   1.466  0.4803  0.5061  0.1154
  216MOL0     O29673  10.235  10.881   1.541 -0.3481  0.3559 -0.8850
  216MOL0     C29674  10.144  10.926   1.638  0.0991 -0.2548 -0.7442
  216MOL0     C29675  10.146  11.057   1.695  0.5011  0.3428  0.4328
  216MOL0     C29676  10.045  11.092   1.791 -0.0588 -0.1761  0.5285
  216MOL0     C29677   9.968  10.995   1.849  0.8499 -0.0684  0.4764
  216MOL0     O29678   9.882  11.035   1.955  0.4301  0.1444  0.6577
  216MOL0     C29679   9.827  10.935   2.044 -0.0667  1.5444  0.1640
  216MOL0     C29680   9.715  10.997   2.121  0.0338 -0.5326 -0.6175
  216MOL0     C29681   9.594  11.006   2.038  0.7018 -0.0691  0.7202
  216MOL0     C29682   9.470  11.047   2.116 -0.7395  0.0281  0.9721
  216MOL0     C29683   9.365  11.086   2.013 -0.0011 -0.0794 -0.3347
  216MOL0     C29684   9.235  11.122   2.086 -0.0377 -0.5311 -0.0110
  216MOL0     C29685   9.121  11.141   1.985 -0.7310 -0.8058 -0.7282
  216MOL0     C29686   8.994  11.170   2.055  0.6010 -0.4266  0.0651
  216MOL0     N29687   8.872  11.149   1.975 -0.9456  0.1726  0.5599
  216MOL0     C29688   8.825  11.228   1.878  0.2036 -0.1930 -0.0039
  216MOL0     C29689   8.698  11.182   1.856 -0.8718  0.0464 -0.1532
  216MOL0     C29690   8.598  11.237   1.757 -0.2200 -1.0039 -0.5547
  216MOL0     C29691   8.591  11.159   1.622  0.3965  0.1121 -0.4137
  216MOL0     C29692   8.520  11.249   1.521 -0.1806 -0.4777  0.0979
  216MOL0     C29693   8.503  11.188   1.380 -0.0750 -0.8926 -0.1161
  216MOL0     O29694   8.621  11.235   1.299  0.5644 -0.3702 -0.3269
  216MOL0     C29695   8.640  11.192   1.170 -0.2408  0.1992  0.0410
  216MOL0     C29696   8.763  11.206   1.110  1.2167  0.1348  0.2750
  216MOL0     C29697   8.795  11.161   0.980  0.5870  0.7625 -0.5800
  216MOL0     C29698   8.926  11.186   0.908 -0.4135 -0.6040 -0.1680
  216MOL0     C29699   8.690  11.095   0.912 -0.2862  1.2915 -0.0918
  216MOL0     C29700   8.717  11.045   0.768  0.5126 -0.0032  0.0153
  216MOL0     O29701   8.832  10.982   0.750 -0.1590  0.0441  0.0719
  216MOL0     C29702   8.878  10.975   0.625  0.2598  0.3144 -0.0414
  216MOL0     C29703   8.938  10.856   0.581 -0.6763 -0.2473 -0.4251
  216MOL0     C29704   8.995  10.837   0.454 -0.1834  0.7998 -0.7664
  216MOL0     C29705   8.999  10.953   0.378  0.0649  0.5736  0.0226
  216MOL0     O29706   9.059  10.971   0.256 -0.4217  0.4655 -0.4974
  216MOL0     C29707   9.088  10.857   0.174  0.3152  0.8246 -0.4640
  216MOL0     C29708   9.121  10.872   0.025 -0.6139 -0.1558  0.1511
  216MOL0     C29709   9.130  10.737  -0.045  0.4916  0.6909 -0.4152
  216MOL0     C29710   9.201  10.755  -0.183  0.2692  0.2472 -1.1911
  216MOL0     C29711   9.154  10.656  -0.284  0.7209  0.8314 -0.6787
  216MOL0     C29712   9.157  10.509  -0.228  1.6036 -0.3657 -0.7528
  216MOL0     C29713   9.301  10.453  -0.186  0.4542 -0.6456  0.2766
  216MOL0     C29714   9.312  10.354  -0.067 -0.5709  0.6862  0.8133
  216MOL0    Cl29715   9.240  10.188  -0.090 -0.1110 -0.5807  0.3916
  216MOL0     C29716   8.948  11.076   0.422 -0.9212 -0.6227 -0.3058
  216MOL0     C29717   8.878  11.088   0.540 -0.7284 -0.5241  0.3027
  216MOL0     O29718   8.629  11.057   0.680  0.0262 -0.2557  0.4563
  216MOL0     C29719   8.565  11.069   0.974  0.4059 -0.4323  0.9114
  216MOL0     C29720   8.536  11.125   1.101  0.6332  0.2208  0.6605
  216MOL0     N29721   8.677  11.072   1.929 -0.1801 -0.9290  0.7115
  216MOL0     N29722   8.788  11.046   1.993  0.8080  0.2336 -0.7209
  216MOL0     C29723   9.975  10.858   1.803 -0.0842 -0.6105 -0.2787
  216MOL0     C29724  10.057  10.825   1.695 -1.0925  0.4266  0.6002
  216MOL0     C29725  10.403  10.883   1.377  0.4906 -0.7576  0.6769
  216MOL0     C29726  10.483  10.954   1.285  0.3651 -0.0575 -0.0484
  216MOL0     C29727  10.582  10.899   1.207  0.2457 -0.4710 -0.7220
  216MOL0     C29728  10.594  10.756   1.204  0.6508  0.4403  0.0270
  216MOL0     O29729  10.702  10.708   1.136 -0.0460  0.3563  0.4797
  216MOL0     C29730  10.821  10.724   1.219 -0.5019 -0.5042  0.1984
  216MOL0     C29731  10.917  10.823   1.158 -0.3096  0.0678  0.5280
  216MOL0     C29732  10.979  10.784   1.025 -0.2932  0.6803 -0.6672
  216MOL0     C29733  11.097  10.870   0.977 -0.0128 -0.1481 -0.1773
  216MOL0     C29734  11.172  10.806   0.881 -0.3029  0.0601  0.8989
  216MOL0     C29735  11.241  10.743   0.808 -0.0209  1.0326  0.5429
  216MOL0     C29736  10.522  10.687   1.299 -0.2976 -0.0300  1.2916
  216MOL0     C29737  10.420  10.746   1.381 -0.2589  0.5710  0.9389
  216MOL0     C29738  10.354  10.644   1.464  0.2433 -0.0687 -0.2967
  216MOL0     H29739  10.221  11.134   1.679 -0.6624  1.5439  0.5846
  216MOL0     H29740  10.029  11.190   1.834 -3.6554 -0.5195  0.3479
  216MOL0     H29741   9.895  10.897   2.121 -0.6818 -1.1025 -0.5142
  216MOL0     H29742   9.780  10.858   1.983 -0.2290  0.3581  1.7278
  216MOL0     H29743   9.690  10.939   2.210 -1.8777 -0.2737 -0.9472
  216MOL0     H29744   9.741  11.097   2.158 -1.6250 -0.0366 -0.7442
  216MOL0     H29745   9.616  11.090   1.971  1.1727  0.3622  1.3998
  216MOL0     H29746   9.588  10.909   1.988  3.2199 -0.2627  0.6351
  216MOL0     H29747   9.435  10.963   2.177  1.2720 -1.7525 -0.1944
  216MOL0     H29748   9.497  11.130   2.183  1.0352  1.2571 -1.1005
  216MOL0     H29749   9.348  11.012   1.933 -2.2609  0.2906 -0.2566
  216MOL0     H29750   9.395  11.180   1.965 -1.2171  1.3661  1.6149
  216MOL0     H29751   9.209  11.042   2.156 -0.2975 -2.1115 -1.8380
  216MOL0     H29752   9.241  11.205   2.157 -0.2846  0.5283 -1.1903
  216MOL0     H29753   9.118  11.046   1.930 -0.8036 -0.0554 -2.0427
  216MOL0     H29754   9.136  11.221   1.913 -3.2111 -0.0114 -0.4412
  216MOL0     H29755   8.991  11.099   2.137  0.9304  0.7331  1.1147
  216MOL0     H29756   8.998  11.268   2.105 -0.2585 -0.6145  0.5152
  216MOL0     H29757   8.873  11.305   1.819  1.6227 -2.1813 -1.5711
  216MOL0     H29758   8.627  11.342   1.742  0.2025 -1.1606 -0.8667
  216MOL0     H29759   8.500  11.237   1.805  0.1619 -1.1174  0.2335
  216MOL0     H29760   8.693  11.132   1.593  0.5212 -1.4913  1.3821
  216MOL0     H29761   8.525  11.075   1.645 -1.4083  1.1978 -1.3282
  216MOL0     H29762   8.422  11.286   1.552 -0.2020  1.5450 -2.1082
  216MOL0     H29763   8.588  11.333   1.504  0.6071 -1.1377 -0.0979
  216MOL0     H29764   8.484  11.080   1.380 -2.3289 -0.5502 -0.0915
  216MOL0     H29765   8.414  11.232   1.333  1.7839  3.3628 -0.1124
  216MOL0     H29766   8.830  11.268   1.169  0.3978  1.7397 -0.3876
  216MOL0     H29767   8.988  11.242   0.979 -1.7587  1.7567 -0.7159
  216MOL0     H29768   8.926  11.254   0.822  1.9265 -0.7763 -0.3719
  216MOL0     H29769   8.986  11.098   0.882 -0.4785  0.2989 -4.0515
  216MOL0     H29770   8.938  10.769   0.646 -0.0081  0.1752  0.1489
  216MOL0     H29771   9.033  10.744   0.413 -0.3947  0.2770  0.1726
  216MOL0     H29772   9.179  10.805   0.205  0.8984  0.9682 -1.8520
  216MOL0     H29773   9.009  10.781   0.169  1.4578 -0.3946 -0.6754
  216MOL0     H29774   9.055  10.942  -0.028 -1.3700 -1.4703 -0.7284
  216MOL0     H29775   9.222  10.912   0.026 -1.0903  1.0966  0.0731
  216MOL0     H29776   9.034  10.686  -0.059  0.9652 -0.5129  0.5049
  216MOL0     H29777   9.196  10.679   0.020 -0.1224 -2.8974 -2.6682
  216MOL0     H29778   9.308  10.739  -0.168  0.3561  1.9976  0.3558
  216MOL0     H29779   9.176  10.859  -0.206 -2.7404  0.4848  2.1808
  216MOL0     H29780   9.049  10.679  -0.304  0.2946  0.4902  0.9850
  216MOL0     H29781   9.215  10.668  -0.373 -0.6544 -0.8014 -1.9001
  216MOL0     H29782   9.112  10.440  -0.301  0.0934  0.8227 -1.0071
  216MOL0     H29783   9.093  10.499  -0.140  0.2988  0.2718 -1.5789
  216MOL0     H29784   9.366  10.538  -0.165  0.0596 -0.1138 -0.6134
  216MOL0     H29785   9.343  10.401  -0.273  2.0022  0.7592  0.1411
  216MOL0     H29786   9.271  10.405   0.021 -1.7773  3.5460 -1.2451
  216MOL0     H29787   9.414  10.316  -0.055 -1.4721 -2.3969 -0.3253
  216MOL0     H29788   8.954  11.155   0.348  1.6172 -0.8862 -0.4608
  216MOL0     H29789   8.822  11.177   0.565 -0.9641  0.5735 -3.6178
  216MOL0     H29790   8.495  11.010   0.916 -1.8746 -0.8701  3.8897
  216MOL0     H29791   8.438  11.113   1.145 -1.2282  2.4186 -2.5344
  216MOL0     H29792   9.909  10.788   1.852 -0.7456 -0.5830 -1.1144
  216MOL0     H29793  10.053  10.725   1.654  1.0971  1.1576 -1.6426
  216MOL0     H29794  10.463  11.060   1.282 -3.3627 -0.6179 -2.2093
  216MOL0     H29795  10.646  10.961   1.146  1.1439 -1.1258 -0.4680
  216MOL0     H29796  10.801  10.776   1.313  1.4210  2.6572 -0.9855
  216MOL0     H29797  10.869  10.626   1.221  0.7999  0.1220  0.7091
  216MOL0     H29798  11.000  10.839   1.228 -0.3323 -1.1050  0.8309
  216MOL0     H29799  10.874  10.924   1.163  2.2025  1.1874  1.5918
  216MOL0     H29800  11.015  10.682   1.040 -0.2235  0.7999 -0.0005
  216MOL0     H29801  10.892  10.780   0.958 -1.1432 -1.1726  0.4750
  216MOL0     H29802  11.164  10.895   1.060  0.0570  2.2032 -0.8462
  216MOL0     H29803  11.067  10.968   0.936 -0.9333  0.0387  0.8950
  216MOL0     H29804  11.300  10.670   0.757  0.0431  1.8444 -0.5835
  216MOL0     H29805  10.550  10.582   1.297 -1.8032 -0.5032  2.5035
  216MOL0     H29806  10.350  10.659   1.573 -3.2786 -2.7160  0.1199
  216MOL0     H29807  10.248  10.639   1.439 -0.0529 -0.5322  0.9489
  216MOL0     H29808  10.400  10.547   1.443 -1.7535 -1.0566 -0.3621
  217MOL0     O29809   1.253   0.439  11.057  0.1714  0.6879 -0.1958
  217MOL0     C29810   1.299   0.336  11.104 -0.4193  0.4127 -0.3041
  217MOL0     O29811   1.436   0.324  11.149  0.3930  0.6966  0.1392
  217MOL0     C29812   1.550   0.402  11.115 -0.2520 -0.3239 -0.6564
  217MOL0     C29813   1.550   0.508  11.015  0.4333 -0.0166 -0.3483
  217MOL0     C29814   1.666   0.556  10.956 -0.2377  0.3074 -0.3992
  217MOL0     C29815   1.785   0.522  11.014 -0.0988 -0.4298  0.1174
  217MOL0     O29816   1.888   0.585  10.946  0.1432  0.5641  0.7207
  217MOL0     C29817   2.005   0.602  11.026 -0.6529 -0.3568 -0.1935
  217MOL0     C29818   2.106   0.677  10.943 -0.3402 -0.1625 -1.1558
  217MOL0     C29819   2.075   0.829  10.918  0.0978  1.2291  0.2653
  217MOL0     C29820   1.973   0.846  10.800 -0.2081  0.4446  0.1183
  217MOL0     C29821   1.974   0.993  10.748 -0.1034  0.7461  0.0316
  217MOL0     C29822   1.878   1.084  10.822  0.5257  0.3321  0.0212
  217MOL0     C29823   1.871   1.225  10.771  0.1649  0.0075  0.7721
  217MOL0     C29824   1.910   1.333  10.874  0.0815 -0.3495 -0.6151
  217MOL0     N29825   2.048   1.358  10.891 -0.3009  0.5429 -0.2523
  217MOL0     C29826   2.123   1.266  10.960 -0.0931 -0.1254  0.1178
  217MOL0     C29827   2.249   1.301  10.916 -0.6563  0.2882 -0.8649
  217MOL0     C29828   2.388   1.240  10.958 -0.0418 -0.1640 -0.5218
  217MOL0     C29829   2.417   1.293  11.097 -0.0444 -0.5974 -0.0496
  217MOL0     C29830   2.484   1.423  11.098 -0.0601  0.3114  0.7170
  217MOL0     C29831   2.552   1.453  11.231  0.8435  0.8587 -0.0075
  217MOL0     O29832   2.564   1.590  11.248 -0.3712  0.1233  0.3258
  217MOL0     C29833   2.672   1.658  11.194 -0.6065  0.5244 -0.4203
  217MOL0     C29834   2.671   1.795  11.188 -0.4078  0.0514  0.0421
  217MOL0     C29835   2.763   1.870  11.129 -0.3707  0.0077 -0.1349
  217MOL0     C29836   2.746   2.021  11.131  0.1717 -1.1486  0.6069
  217MOL0     C29837   2.873   1.812  11.064 -0.6160 -0.2502  0.6724
  217MOL0     C29838   2.980   1.886  10.992  0.6114  0.6083  0.2742
  217MOL0     O29839   3.107   1.838  11.000 -0.5424  0.2931  0.5047
  217MOL0     C29840   3.221   1.857  10.917 -0.4285  0.7088  0.1744
  217MOL0     C29841   3.343   1.817  10.969  0.0267 -1.2229 -0.4384
  217MOL0     C29842   3.463   1.829  10.898  0.0825 -0.4222  0.1190
  217MOL0     C29843   3.455   1.888  10.768 -0.8072 -0.1794  0.3250
  217MOL0     O29844   3.562   1.908  10.691  0.3082  0.3330 -0.1743
  217MOL0     C29845   3.679   1.959  10.754 -0.1522  0.1721 -1.2459
  217MOL0     C29846   3.783   1.990  10.644  0.1352 -1.5296  0.3637
  217MOL0     C29847   3.764   2.145  10.598 -0.0311  0.2950 -0.5254
  217MOL0     C29848   3.814   2.149  10.463  1.0607  0.3108  1.4499
  217MOL0     C29849   3.788   2.287  10.401 -0.4037  0.1065 -0.1272
  217MOL0     C29850   3.849   2.297  10.253  0.7524 -0.4933 -0.0319
  217MOL0     C29851   3.818   2.438  10.196 -0.2846 -0.1468  0.2819
  217MOL0     C29852   3.854   2.434  10.050 -0.3362  0.7872  0.4626
  217MOL0    Cl29853   3.758   2.566   9.973  0.2602 -0.0337  0.1181
  217MOL0     C29854   3.332   1.932  10.715  0.6029 -0.7247  0.3434
  217MOL0     C29855   3.216   1.905  10.786  0.0816 -0.3705  0.2096
  217MOL0     O29856   2.945   1.979  10.923 -0.4696 -0.1287  1.0618
  217MOL0     C29857   2.881   1.670  11.064  0.5889  0.1415 -0.4664
  217MOL0     C29858   2.777   1.591  11.126  0.3700 -0.2952 -0.1711
  217MOL0     N29859   2.239   1.405  10.832  0.6484 -0.4158 -0.0927
  217MOL0     N29860   2.119   1.430  10.807 -1.2389 -0.3341 -0.5714
  217MOL0     C29861   1.792   0.415  11.107  0.5779 -0.9252  0.2751
  217MOL0     C29862   1.670   0.352  11.153 -0.3138 -0.7130 -0.1772
  217MOL0     C29863   1.210   0.216  11.106  0.0131 -1.0464 -0.6252
  217MOL0     C29864   1.267   0.098  11.151 -0.5746 -0.4542  0.6461
  217MOL0     C29865   1.202  -0.024  11.153 -0.2724  0.1121 -0.9283
  217MOL0     C29866   1.065  -0.024  11.125 -1.1327  0.0821  0.2537
  217MOL0     O29867   0.975  -0.136  11.150 -0.6086  0.5078 -0.0750
  217MOL0     C29868   1.039  -0.259  11.185  0.4756  0.1418 -0.5796
  217MOL0     C29869   1.093  -0.339  11.071  0.3077  1.3233  0.2728
  217MOL0     C29870   0.991  -0.370  10.956 -0.0132  0.9007  0.8434
  217MOL0     C29871   0.941  -0.254  10.856  0.1741  0.5000  0.4076
  217MOL0     C29872   0.841  -0.303  10.758  0.4976 -0.3116 -0.5516
  217MOL0     C29873   0.751  -0.330  10.683 -0.4373 -0.6383  0.1126
  217MOL0     C29874   0.993   0.088  11.083  0.0669  0.5046  0.6223
  217MOL0     C29875   1.066   0.208  11.083  0.2776  0.1654  0.0044
  217MOL0     C29876   0.977   0.329  11.083  0.6002 -0.6763  0.0945
  217MOL0     H29877   1.463   0.546  10.962  0.6219  2.2536  0.8409
  217MOL0     H29878   1.666   0.640  10.887 -2.9185  0.9461  0.2500
  217MOL0     H29879   2.042   0.505  11.059 -0.6771 -0.2067  0.2782
  217MOL0     H29880   1.972   0.665  11.109  2.5402  0.1742  0.7909
  217MOL0     H29881   2.201   0.668  10.997  0.6935  2.8647 -2.2984
  217MOL0     H29882   2.118   0.618  10.852 -1.0169 -3.4893  0.7219
  217MOL0     H29883   2.040   0.872  11.012  4.8176  2.8926  1.5773
  217MOL0     H29884   2.167   0.885  10.898  0.3071  0.2884 -1.6074
  217MOL0     H29885   2.012   0.783  10.719  1.0248 -0.6181  1.4987
  217MOL0     H29886   1.870   0.815  10.817  0.1767 -0.0343  1.7165
  217MOL0     H29887   1.956   0.991  10.640 -4.9368  4.2476  0.4389
  217MOL0     H29888   2.078   1.027  10.756  0.6759 -0.9939 -1.6779
  217MOL0     H29889   1.776   1.049  10.841  0.0689  1.5151 -0.1954
  217MOL0     H29890   1.911   1.085  10.926 -0.6100 -0.8077  0.4198
  217MOL0     H29891   1.767   1.239  10.739  0.6606  3.0109  0.1194
  217MOL0     H29892   1.942   1.233  10.688 -0.7109 -2.5999 -0.3195
  217MOL0     H29893   1.855   1.425  10.852 -0.4723  0.2859  2.7526
  217MOL0     H29894   1.873   1.292  10.968 -0.2684  2.8792  0.8072
  217MOL0     H29895   2.082   1.196  11.033 -1.6302 -0.0402 -0.6418
  217MOL0     H29896   2.463   1.270  10.885 -1.1561  5.0044  0.0260
  217MOL0     H29897   2.389   1.131  10.963  0.8506 -0.1482 -0.1951
  217MOL0     H29898   2.329   1.303  11.161  1.4737  0.6228  1.9829
  217MOL0     H29899   2.481   1.215  11.140  0.3271 -0.8905 -1.1059
  217MOL0     H29900   2.567   1.435  11.027  2.3762 -1.0719  3.1262
  217MOL0     H29901   2.404   1.492  11.071 -3.2170 -2.9438  1.1093
  217MOL0     H29902   2.475   1.418  11.300  0.8656  3.0765  1.2619
  217MOL0     H29903   2.644   1.397  11.248  0.8688  0.2039 -2.1127
  217MOL0     H29904   2.583   1.843  11.227  1.7267  3.2352  1.3672
  217MOL0     H29905   2.670   2.050  11.205  0.5887 -1.0373  0.9985
  217MOL0     H29906   2.700   2.047  11.035 -1.1035 -1.1267  1.2002
  217MOL0     H29907   2.839   2.073  11.155 -0.3063 -0.4053  0.8942
  217MOL0     H29908   3.349   1.786  11.072 -0.1984  0.4912  0.1204
  217MOL0     H29909   3.557   1.812  10.950 -0.0599  2.8748  1.7501
  217MOL0     H29910   3.657   2.051  10.810  0.5957  0.3528 -1.2291
  217MOL0     H29911   3.711   1.881  10.823  0.5817  1.2032 -0.3735
  217MOL0     H29912   3.887   1.991  10.676  0.2665  2.1628  0.2292
  217MOL0     H29913   3.776   1.921  10.559  1.0823 -2.7692  1.2583
  217MOL0     H29914   3.808   2.213  10.670  0.8262 -0.7984  0.0083
  217MOL0     H29915   3.656   2.167  10.596  0.0006  1.1601  2.6147
  217MOL0     H29916   3.760   2.075  10.404  2.7480 -0.1017  0.3528
  217MOL0     H29917   3.918   2.116  10.454 -0.0590 -3.3875  0.4351
  217MOL0     H29918   3.679   2.301  10.393 -0.3521  2.3379  1.9476
  217MOL0     H29919   3.833   2.367  10.459 -2.0690  0.5727  0.6026
  217MOL0     H29920   3.808   2.218  10.189  0.3810 -1.4790  1.3805
  217MOL0     H29921   3.957   2.281  10.249  0.5425 -1.7032 -2.7084
  217MOL0     H29922   3.880   2.516  10.242  0.3998 -2.1859  3.0858
  217MOL0     H29923   3.712   2.467  10.207 -0.0370  1.4973 -1.1501
  217MOL0     H29924   3.830   2.341   9.997 -4.5865  2.6176 -1.3087
  217MOL0     H29925   3.962   2.452  10.042 -0.0848 -1.0600 -1.0552
  217MOL0     H29926   3.325   1.976  10.616  0.2695 -1.1214  0.1867
  217MOL0     H29927   3.117   1.917  10.745 -0.6103 -2.5386  1.0968
  217MOL0     H29928   2.970   1.624  11.022  0.3603  0.2949 -1.1218
  217MOL0     H29929   2.782   1.483  11.113 -0.5041 -0.1724 -1.8519
  217MOL0     H29930   1.891   0.389  11.145  0.4469 -0.3638  1.0085
  217MOL0     H29931   1.689   0.268  11.219  2.2954 -0.0978 -0.0180
  217MOL0     H29932   1.373   0.095  11.171 -0.3882  0.8784 -0.0129
  217MOL0     H29933   1.252  -0.119  11.166 -1.9182 -1.1293 -2.9448
  217MOL0     H29934   1.110  -0.245  11.268  0.1978  0.5427 -0.4088
  217MOL0     H29935   0.967  -0.325  11.234 -1.2274  2.4070  0.1240
  217MOL0     H29936   1.124  -0.438  11.104 -0.0711  0.6831 -1.1888
  217MOL0     H29937   1.187  -0.298  11.033  1.6285 -3.1671 -1.9214
  217MOL0     H29938   1.041  -0.444  10.893 -2.0143 -0.0132  0.2428
  217MOL0     H29939   0.899  -0.410  10.999 -0.5251  0.6543 -0.4222
  217MOL0     H29940   1.028  -0.210  10.807  0.6434  0.8091  1.4658
  217MOL0     H29941   0.895  -0.173  10.915  0.0686 -2.1679  4.3929
  217MOL0     H29942   0.657  -0.337  10.633 -1.0470 -1.4269  1.3159
  217MOL0     H29943   0.886   0.080  11.069  0.3897 -0.7194 -1.5058
  217MOL0     H29944   0.990   0.379  10.986 -2.3591 -0.9319 -0.5433
  217MOL0     H29945   0.874   0.295  11.097  0.8151 -2.1370 -1.5471
  217MOL0     H29946   0.996   0.396  11.167  2.3949 -0.8552 -0.1318
  218MOL0     O29947   3.991   2.608   0.048  1.0300 -0.1072 -0.4309
  218MOL0     C29948   3.985   2.716   0.121 -0.6849  0.7862  0.2386
  218MOL0     O29949   4.080   2.756   0.194  0.0105  1.3468 -0.2979
  218MOL0     C29950   4.199   2.685   0.220  0.2122 -0.4251 -1.0799
  218MOL0     C29951   4.253   2.574   0.157 -0.3618 -0.1431  1.5506
  218MOL0     C29952   4.377   2.519   0.197 -0.2707 -1.3385  0.0327
  218MOL0     C29953   4.447   2.572   0.313  0.0479  0.1355  0.5256
  218MOL0     O29954   4.562   2.516   0.362  0.1404  0.3061 -0.2166
  218MOL0     C29955   4.594   2.379   0.327  1.1947 -0.6970  0.2166
  218MOL0     C29956   4.720   2.337   0.390 -1.0000  0.5470  0.1876
  218MOL0     C29957   4.753   2.184   0.355  0.4580  0.0574 -0.5821
  218MOL0     C29958   4.808   2.167   0.219  0.9489  0.2229 -0.5167
  218MOL0     C29959   4.859   2.025   0.182  0.2852 -0.0247  0.0779
  218MOL0     C29960   4.997   1.993   0.254 -0.4324  0.7336  0.0723
  218MOL0     C29961   5.081   1.887   0.190 -0.5533 -0.4395  0.4578
  218MOL0     C29962   5.156   1.936   0.066 -0.7550 -0.4097 -0.3384
  218MOL0     N29963   5.285   1.876   0.029  0.1503  0.5271 -0.2469
  218MOL0     C29964   5.308   1.770  -0.056  0.1409  0.6880 -0.3540
  218MOL0     C29965   5.432   1.793  -0.113 -0.3838  0.0510 -0.3320
  218MOL0     C29966   5.507   1.709  -0.215 -0.1942  0.4094  0.2477
  218MOL0     C29967   5.563   1.577  -0.153  0.5472 -0.2903 -0.4305
  218MOL0     C29968   5.658   1.614  -0.039  0.0808  0.3666  0.2217
  218MOL0     C29969   5.694   1.492   0.050  0.1396 -0.2895  0.1669
  218MOL0     O29970   5.576   1.411   0.077 -0.6424 -0.5946 -0.0747
  218MOL0     C29971   5.479   1.458   0.152 -0.2407 -1.1332  0.2705
  218MOL0     C29972   5.499   1.553   0.256 -0.4108  0.2702  0.3172
  218MOL0     C29973   5.396   1.580   0.342  0.3438 -0.1812 -0.4348
  218MOL0     C29974   5.420   1.668   0.462  0.1985  0.5732 -0.1825
  218MOL0     C29975   5.262   1.522   0.317  0.1748 -0.5953 -0.3911
  218MOL0     C29976   5.141   1.540   0.402  1.0710 -0.4346 -0.4507
  218MOL0     O29977   5.020   1.496   0.354  0.6905 -0.5620 -0.0916
  218MOL0     C29978   4.912   1.506   0.442 -0.5144  0.0017 -0.3230
  218MOL0     C29979   4.841   1.389   0.476 -0.2701 -0.1494 -0.0687
  218MOL0     C29980   4.725   1.395   0.561 -0.0287  0.2573  0.4113
  218MOL0     C29981   4.688   1.514   0.623  1.7078  0.0128 -0.2635
  218MOL0     O29982   4.569   1.523   0.688 -0.4507  0.2399 -0.1077
  218MOL0     C29983   4.474   1.418   0.675 -0.0161  0.0275 -0.3837
  218MOL0     C29984   4.346   1.459   0.755  0.0748  0.9013  0.0433
  218MOL0     C29985   4.368   1.485   0.901  0.1753  0.3063  0.6058
  218MOL0     C29986   4.394   1.350   0.975  0.4057 -0.1940 -0.3992
  218MOL0     C29987   4.265   1.265   1.008 -0.1586  0.1772 -1.0326
  218MOL0     C29988   4.315   1.125   1.055 -1.2761  0.3776  1.2136
  218MOL0     C29989   4.373   1.144   1.192 -0.6331  0.9440  0.3331
  218MOL0     C29990   4.287   1.116   1.306  0.0442  0.2504 -0.0844
  218MOL0    Cl29991   4.370   1.117   1.460 -0.5486  0.1722 -1.0798
  218MOL0     C29992   4.766   1.626   0.604 -1.1091  0.0071  0.6587
  218MOL0     C29993   4.870   1.631   0.511 -0.4821 -0.1351  0.0391
  218MOL0     O29994   5.153   1.595   0.515 -0.2746  0.4913 -0.5521
  218MOL0     C29995   5.245   1.447   0.197 -0.2660  0.0614 -0.9254
  218MOL0     C29996   5.354   1.403   0.124  0.7686 -0.8115  0.9440
  218MOL0     N29997   5.482   1.898  -0.048 -0.0297  0.4763  0.2281
  218MOL0     N29998   5.406   1.935   0.043  0.8640 -0.8760 -0.1560
  218MOL0     C29999   4.385   2.683   0.370  0.4958  1.2932 -0.4983
  218MOL0     C30000   4.261   2.736   0.333 -0.5476 -0.6608 -0.0217
  218MOL0     C30001   3.871   2.814   0.104  0.2965 -0.6625 -0.3356
  218MOL0     C30002   3.890   2.942   0.149 -0.4075  0.0929  0.1204
  218MOL0     C30003   3.786   3.042   0.148 -0.1532  0.8294  0.5748
  218MOL0     C30004   3.663   3.010   0.084 -1.2145 -0.3071 -0.0541
  218MOL0     O30005   3.557   3.096   0.062 -0.4994 -0.6205  0.0288
  218MOL0     C30006   3.561   3.229   0.131  0.1237 -0.0523  0.1962
  218MOL0     C30007   3.427   3.300   0.149 -0.1544  0.0352  0.2862
  218MOL0     C30008   3.329   3.239   0.257 -0.1464  0.8597  0.2677
  218MOL0     C30009   3.191   3.295   0.258  0.0300  0.1899 -0.0465
  218MOL0     C30010   3.166   3.426   0.329 -0.7217  0.3502 -0.0281
  218MOL0     C30011   3.134   3.534   0.391 -0.5832  0.2169  0.9745
  218MOL0     C30012   3.654   2.878   0.032 -0.2330 -0.7688 -0.3822
  218MOL0     C30013   3.749   2.777   0.048  0.0606  0.3618 -0.5112
  218MOL0     C30014   3.722   2.642  -0.010  0.1456 -0.1402  0.6972
  218MOL0     H30015   4.203   2.529   0.071  1.5726  0.2015  0.1810
  218MOL0     H30016   4.420   2.434   0.144 -2.8609 -1.4682 -2.0642
  218MOL0     H30017   4.604   2.371   0.218 -0.1195  0.2798  0.0053
  218MOL0     H30018   4.512   2.314   0.357 -0.5544  1.5087  0.4253
  218MOL0     H30019   4.799   2.402   0.352  0.2652 -1.6302 -1.0896
  218MOL0     H30020   4.713   2.346   0.499 -0.8031  1.1202  0.1565
  218MOL0     H30021   4.825   2.159   0.434  1.6914  1.3123 -1.2585
  218MOL0     H30022   4.671   2.112   0.360  0.3114  0.2352 -0.4380
  218MOL0     H30023   4.720   2.187   0.157  0.4752  0.4355  0.2075
  218MOL0     H30024   4.893   2.236   0.208  1.3225 -0.0386  0.5849
  218MOL0     H30025   4.858   2.005   0.075  0.0002 -0.3297  0.1370
  218MOL0     H30026   4.788   1.951   0.219  0.4294 -0.0757  0.2507
  218MOL0     H30027   5.061   2.081   0.265  0.8708 -0.0715 -0.7465
  218MOL0     H30028   4.969   1.955   0.352 -4.3348  1.5148 -0.5680
  218MOL0     H30029   5.022   1.801   0.157  0.4324 -0.6684 -0.7928
  218MOL0     H30030   5.154   1.851   0.262 -0.9763  0.6817  1.4876
  218MOL0     H30031   5.090   1.924  -0.020  0.3660 -3.2342 -0.9098
  218MOL0     H30032   5.189   2.038   0.090 -0.2819 -0.5962 -0.1976
  218MOL0     H30033   5.242   1.692  -0.092  3.2422 -1.3051 -2.2150
  218MOL0     H30034   5.590   1.759  -0.266  2.5667 -2.5554  1.5233
  218MOL0     H30035   5.438   1.685  -0.296 -2.0374  0.1648  1.8260
  218MOL0     H30036   5.472   1.524  -0.122  0.3655  0.3989  0.2261
  218MOL0     H30037   5.619   1.525  -0.231 -0.6258  0.5129 -1.8476
  218MOL0     H30038   5.741   1.669  -0.084  1.5035 -1.2792  0.7170
  218MOL0     H30039   5.597   1.687   0.015 -1.2886  0.4241 -1.2973
  218MOL0     H30040   5.762   1.421   0.001 -0.2206  0.2649 -1.1619
  218MOL0     H30041   5.745   1.520   0.142  0.4490 -2.7398  0.8189
  218MOL0     H30042   5.598   1.593   0.281  0.3542 -2.3695  1.9496
  218MOL0     H30043   5.399   1.613   0.554  1.9379 -0.1705 -0.1880
  218MOL0     H30044   5.366   1.763   0.458 -3.8342 -1.4458  1.1218
  218MOL0     H30045   5.526   1.695   0.472  0.0153  0.7485  1.6702
  218MOL0     H30046   4.867   1.299   0.421  1.2829  0.0885  0.2484
  218MOL0     H30047   4.665   1.306   0.571  0.2455 -0.0358 -0.4823
  218MOL0     H30048   4.443   1.391   0.573  0.7591 -2.0043 -0.1401
  218MOL0     H30049   4.511   1.331   0.731 -1.7983  0.1013  1.0055
  218MOL0     H30050   4.305   1.552   0.716 -1.7053 -0.3217 -1.1539
  218MOL0     H30051   4.271   1.382   0.736  2.3251 -1.1572 -1.1309
  218MOL0     H30052   4.283   1.541   0.942  1.2353  2.1994  0.3506
  218MOL0     H30053   4.462   1.540   0.914 -0.0245  0.3938  1.7858
  218MOL0     H30054   4.428   1.387   1.072 -1.6125  2.1524 -0.4914
  218MOL0     H30055   4.475   1.295   0.926  0.8280 -0.1573  0.2502
  218MOL0     H30056   4.207   1.321   1.082  0.5043 -3.0225  2.1641
  218MOL0     H30057   4.187   1.257   0.931 -0.6486  0.4994 -0.5799
  218MOL0     H30058   4.395   1.095   0.986 -0.3954  1.0162  1.9412
  218MOL0     H30059   4.233   1.054   1.044 -0.9180  0.3619 -2.8595
  218MOL0     H30060   4.412   1.242   1.221 -0.3059  0.2553  2.3451
  218MOL0     H30061   4.447   1.064   1.201 -2.6041 -0.9558  0.4808
  218MOL0     H30062   4.235   1.021   1.294 -1.1523  1.1264 -2.6398
  218MOL0     H30063   4.204   1.187   1.303 -0.9995 -0.9456 -0.4047
  218MOL0     H30064   4.729   1.712   0.659 -0.0122  2.3527 -1.9766
  218MOL0     H30065   4.928   1.722   0.498  0.0619 -0.1614  1.9918
  218MOL0     H30066   5.145   1.413   0.169  0.2313 -0.0637 -2.6676
  218MOL0     H30067   5.337   1.327   0.049 -0.3974 -0.2617  0.6287
  218MOL0     H30068   4.430   2.736   0.454 -0.6791 -0.0807  1.0668
  218MOL0     H30069   4.209   2.818   0.381 -1.1322 -0.3046 -1.2339
  218MOL0     H30070   3.990   2.973   0.177 -1.2212  3.3100 -0.1453
  218MOL0     H30071   3.817   3.135   0.194  0.6352  0.4283  0.8743
  218MOL0     H30072   3.608   3.219   0.229 -1.6262 -4.1484  0.8260
  218MOL0     H30073   3.620   3.298   0.069 -0.9332  1.8692  1.2176
  218MOL0     H30074   3.383   3.282   0.050 -0.2702 -2.2419  0.6989
  218MOL0     H30075   3.442   3.408   0.157  1.0506  0.0597 -1.7549
  218MOL0     H30076   3.309   3.136   0.227 -1.4640  1.0955  0.2717
  218MOL0     H30077   3.377   3.255   0.354 -1.6867  0.2678  1.1583
  218MOL0     H30078   3.132   3.220   0.311 -1.4011  0.0729 -1.7474
  218MOL0     H30079   3.157   3.296   0.155 -0.6609  1.8177  0.1715
  218MOL0     H30080   3.118   3.620   0.453 -0.7640  0.8194  0.1112
  218MOL0     H30081   3.550   2.873  -0.001 -0.0572 -0.8362 -0.9360
  218MOL0     H30082   3.629   2.633  -0.068  0.2784  0.4881  0.3777
  218MOL0     H30083   3.796   2.610  -0.084 -0.6274  1.3299 -0.7910
  218MOL0     H30084   3.713   2.563   0.065 -3.6261 -0.4863  0.1225
  219MOL0     O30085   0.014   9.805   1.019 -0.1974 -0.3783 -0.0709
  219MOL0     C30086   0.053   9.911   0.976  0.3368  0.5786  0.0114
  219MOL0     O30087  -0.022  10.001   0.907 -0.3276 -0.1899 -0.7101
  219MOL0     C30088  -0.151   9.972   0.881 -0.3229  0.1252 -0.3304
  219MOL0     C30089  -0.188   9.914   0.762  0.4663  0.6160 -0.4743
  219MOL0     C30090  -0.327   9.888   0.732 -0.1450 -0.3652  0.4438
  219MOL0     C30091  -0.427   9.923   0.822  0.1676  0.6092  0.6215
  219MOL0     O30092  -0.558   9.893   0.777  0.2309 -0.5335  0.3625
  219MOL0     C30093  -0.621   9.785   0.846  0.5064  0.1309  0.2194
  219MOL0     C30094  -0.771   9.784   0.838  0.7140  0.0416  0.7735
  219MOL0     C30095  -0.834   9.922   0.861  0.3555  0.4599 -0.1859
  219MOL0     C30096  -0.978   9.924   0.838  0.3429  0.1774  0.4230
  219MOL0     C30097  -1.037  10.059   0.860 -0.7584  0.4040 -0.2606
  219MOL0     C30098  -1.181  10.065   0.807  0.0964 -0.1911  0.3659
  219MOL0     C30099  -1.249  10.203   0.838 -0.2166 -0.2673  0.1083
  219MOL0     C30100  -1.273  10.279   0.711  0.5575  0.4257  0.8260
  219MOL0     N30101  -1.147  10.340   0.664  0.0299 -0.4656  0.4315
  219MOL0     C30102  -1.076  10.281   0.558  1.4770 -0.5631  1.1097
  219MOL0     C30103  -0.970  10.362   0.553 -0.3680 -0.6644 -0.0094
  219MOL0     C30104  -0.862  10.350   0.459 -0.2482 -0.0378  0.7156
  219MOL0     C30105  -0.842  10.480   0.374  0.8625  0.5335  0.1556
  219MOL0     C30106  -0.700  10.490   0.317 -0.0334 -0.0229 -0.6987
  219MOL0     C30107  -0.660  10.387   0.213 -0.3439 -0.3383 -0.3298
  219MOL0     O30108  -0.523  10.353   0.194 -0.0287 -0.4181  0.2302
  219MOL0     C30109  -0.497  10.274   0.086 -0.4084 -0.0783 -0.4510
  219MOL0     C30110  -0.584  10.181   0.023  0.0537  0.0077 -0.9828
  219MOL0     C30111  -0.538  10.098  -0.071 -0.0646 -0.6495  0.2205
  219MOL0     C30112  -0.635   9.988  -0.126 -0.0832 -0.0003  0.0582
  219MOL0     C30113  -0.403  10.113  -0.114  0.7629 -0.6118  1.0112
  219MOL0     C30114  -0.332  10.029  -0.220 -0.5629 -0.5358 -0.2219
  219MOL0     O30115  -0.225  10.085  -0.285 -0.2693  0.4267 -0.1508
  219MOL0     C30116  -0.146   9.996  -0.356  0.8679 -0.2438  0.3954
  219MOL0     C30117  -0.163   9.985  -0.496  0.3756 -0.1814  0.1274
  219MOL0     C30118  -0.084   9.897  -0.570 -0.1129  0.3396  0.5777
  219MOL0     C30119   0.021   9.825  -0.512  0.1017  0.1338  1.0016
  219MOL0     O30120   0.109   9.742  -0.578 -0.0012 -0.4956 -0.0680
  219MOL0     C30121   0.173   9.785  -0.701 -0.3999  0.2624 -0.2388
  219MOL0     C30122   0.289   9.695  -0.726 -0.2270 -0.9141  0.0392
  219MOL0     C30123   0.347   9.706  -0.870 -0.2880 -0.0165 -0.0543
  219MOL0     C30124   0.489   9.746  -0.878  0.2164  0.0651 -0.3813
  219MOL0     C30125   0.503   9.892  -0.831  0.3284  0.6199  0.1382
  219MOL0     C30126   0.642   9.935  -0.785  0.0073  0.0500 -0.2702
  219MOL0     C30127   0.725   9.967  -0.914  0.7480  0.2930 -0.3206
  219MOL0     C30128   0.865  10.015  -0.891 -0.7458 -0.9553 -0.2144
  219MOL0    Cl30129   0.964   9.888  -0.805  0.1633  0.0114 -0.0338
  219MOL0     C30130   0.043   9.839  -0.378  0.9973 -0.0339 -0.0924
  219MOL0     C30131  -0.045   9.920  -0.307 -0.6946 -0.8387 -0.0280
  219MOL0     O30132  -0.375   9.913  -0.239 -0.4545 -0.5590 -0.1165
  219MOL0     C30133  -0.316  10.205  -0.054  0.5865  0.7286 -0.4989
  219MOL0     C30134  -0.366  10.276   0.054  0.6675 -0.0331  0.4022
  219MOL0     N30135  -0.975  10.463   0.649  0.2347  0.1153 -0.0462
  219MOL0     N30136  -1.082  10.443   0.712  0.3797  0.6864  0.4009
  219MOL0     C30137  -0.388   9.970   0.948  0.3535  0.0317 -0.2208
  219MOL0     C30138  -0.250  10.008   0.968  1.0717 -0.4909 -0.6586
  219MOL0     C30139   0.206   9.942   0.979  0.7763  0.5530 -0.0245
  219MOL0     C30140   0.245  10.072   0.964 -0.3378  0.9278  0.6655
  219MOL0     C30141   0.380  10.111   0.952  0.3220  0.8319  0.7996
  219MOL0     C30142   0.484  10.015   0.949  0.3413  0.5080  0.1812
  219MOL0     O30143   0.618  10.025   0.937 -0.4289 -0.7220  0.3514
  219MOL0     C30144   0.673  10.156   0.912 -0.6241  0.9515  0.0969
  219MOL0     C30145   0.819  10.147   0.940 -0.7072  0.4372 -0.4471
  219MOL0     C30146   0.896  10.280   0.919  0.5854  0.0679  0.3637
  219MOL0     C30147   1.038  10.282   0.980  0.1134  0.4571 -0.2067
  219MOL0     C30148   1.129  10.392   0.926 -0.1075 -0.2269 -1.4086
  219MOL0     C30149   1.191  10.489   0.884 -0.2717 -0.3194  0.4575
  219MOL0     C30150   0.443   9.886   0.973 -0.5296  0.0802  0.4797
  219MOL0     C30151   0.312   9.843   0.974  0.3125 -0.0410  0.3404
  219MOL0     C30152   0.284   9.697   0.972  0.0489 -0.2970 -0.4956
  219MOL0     H30153  -0.117   9.871   0.692 -2.1794 -2.4940 -1.5029
  219MOL0     H30154  -0.366   9.838   0.644 -0.6756  0.0675  0.4273
  219MOL0     H30155  -0.599   9.795   0.953 -0.2119  0.5028  0.3402
  219MOL0     H30156  -0.581   9.693   0.802 -2.2491 -0.7125 -0.7080
  219MOL0     H30157  -0.808   9.750   0.740 -5.0217  0.3354  2.4931
  219MOL0     H30158  -0.800   9.714   0.917  3.4457 -0.9535  1.0362
  219MOL0     H30159  -0.805   9.965   0.957  0.6869  1.7453 -0.8303
  219MOL0     H30160  -0.794   9.999   0.794 -1.4122  2.3011  0.7808
  219MOL0     H30161  -0.989   9.886   0.736  1.8991  0.8165 -0.0123
  219MOL0     H30162  -1.020   9.851   0.908  1.1298  0.7794  1.5423
  219MOL0     H30163  -0.981  10.138   0.808 -1.2996  1.0569  0.1285
  219MOL0     H30164  -1.036  10.080   0.967  0.6233  0.7087 -0.3073
  219MOL0     H30165  -1.193  10.040   0.701 -4.1571 -1.3347  0.9273
  219MOL0     H30166  -1.230   9.980   0.856 -3.0314 -0.4705 -2.8346
  219MOL0     H30167  -1.193  10.278   0.895 -2.8338  1.2816  0.8061
  219MOL0     H30168  -1.344  10.192   0.891  0.1067  1.5533  1.1534
  219MOL0     H30169  -1.316  10.209   0.638  1.8857 -1.7235  2.0150
  219MOL0     H30170  -1.346  10.356   0.734 -1.6774 -1.0856 -0.7630
  219MOL0     H30171  -1.088  10.190   0.501  2.0728  0.2950 -0.4603
  219MOL0     H30172  -0.869  10.262   0.394  3.3060 -0.8939  1.2757
  219MOL0     H30173  -0.766  10.334   0.510  0.8676  0.3249 -1.1712
  219MOL0     H30174  -0.911  10.463   0.291 -0.2379 -4.1071  1.7057
  219MOL0     H30175  -0.869  10.570   0.430  2.2860  0.7593  0.5266
  219MOL0     H30176  -0.682  10.587   0.270  0.7282  0.3676  0.3658
  219MOL0     H30177  -0.644  10.484   0.411  0.3000  1.6892 -0.7478
  219MOL0     H30178  -0.717  10.295   0.227  0.6970 -0.7830  1.2684
  219MOL0     H30179  -0.704  10.422   0.119 -0.2898  0.2318 -0.1472
  219MOL0     H30180  -0.683  10.164   0.063 -0.5975 -0.5556 -2.7050
  219MOL0     H30181  -0.629   9.994  -0.235 -0.9697 -1.0754 -0.0680
  219MOL0     H30182  -0.737  10.005  -0.091 -0.2120  0.7950 -0.6806
  219MOL0     H30183  -0.622   9.888  -0.084 -1.1949  0.3298  1.2446
  219MOL0     H30184  -0.238  10.050  -0.541 -0.8757 -0.8412  1.1614
  219MOL0     H30185  -0.104   9.878  -0.676  2.5194 -1.3314  0.2985
  219MOL0     H30186   0.090   9.785  -0.772 -0.4658  1.3447 -0.1772
  219MOL0     H30187   0.210   9.888  -0.699  1.8170 -0.3987 -2.4244
  219MOL0     H30188   0.363   9.726  -0.652 -1.3002  1.0677  0.3489
  219MOL0     H30189   0.268   9.591  -0.702 -1.9836 -0.3575  1.0715
  219MOL0     H30190   0.292   9.784  -0.923  0.7336  0.6074 -0.2173
  219MOL0     H30191   0.330   9.612  -0.924 -0.0557  0.7884 -1.5865
  219MOL0     H30192   0.522   9.737  -0.982 -1.4400 -1.4494 -0.8068
  219MOL0     H30193   0.543   9.679  -0.811 -1.3435  0.5957  1.5229
  219MOL0     H30194   0.467   9.962  -0.906  2.1371  1.2786 -0.1738
  219MOL0     H30195   0.436   9.915  -0.747 -1.2911  0.0896 -0.9595
  219MOL0     H30196   0.680   9.854  -0.722 -0.9770 -0.5223 -0.3993
  219MOL0     H30197   0.626  10.026  -0.725 -2.0705  1.1609 -2.3618
  219MOL0     H30198   0.684  10.046  -0.977  1.0412 -0.2875 -1.2593
  219MOL0     H30199   0.724   9.874  -0.971  0.5266  0.5115 -0.6722
  219MOL0     H30200   0.866  10.102  -0.826  1.5706 -0.6879 -0.5339
  219MOL0     H30201   0.910  10.045  -0.986  1.1482  0.7143  1.1392
  219MOL0     H30202   0.123   9.793  -0.321  2.7419  1.2574 -1.3918
  219MOL0     H30203  -0.031   9.934  -0.201  1.6384  0.6281 -0.4641
  219MOL0     H30204  -0.213  10.210  -0.088  0.8413  0.8594  0.2821
  219MOL0     H30205  -0.302  10.350   0.102 -1.6208  4.6479 -2.8977
  219MOL0     H30206  -0.462   9.992   1.024  0.0766 -1.6113  0.0322
  219MOL0     H30207  -0.226  10.053   1.063  0.4086 -0.9389 -0.2660
  219MOL0     H30208   0.164  10.144   0.949 -0.7220  0.2947 -0.3970
  219MOL0     H30209   0.405  10.217   0.951 -0.9905  1.2391 -2.2102
  219MOL0     H30210   0.652  10.188   0.810  0.1029 -0.0828 -0.3948
  219MOL0     H30211   0.635  10.238   0.974  1.6499  1.4704  0.9271
  219MOL0     H30212   0.873  10.076   0.877 -0.7117 -0.2025  0.2520
  219MOL0     H30213   0.832  10.125   1.046 -1.3568 -0.8014 -0.6111
  219MOL0     H30214   0.915  10.288   0.811  0.7674  1.2072  0.4658
  219MOL0     H30215   0.834  10.365   0.950  0.2151  0.9144 -2.4238
  219MOL0     H30216   1.098  10.191   0.971 -1.4857 -0.4699 -2.5055
  219MOL0     H30217   1.023  10.306   1.086  1.3474 -2.5714  0.7743
  219MOL0     H30218   1.234  10.582   0.852 -1.1071  0.0747  0.4557
  219MOL0     H30219   0.524   9.814   0.971  2.6343  3.2992  1.5670
  219MOL0     H30220   0.371   9.640   0.938  0.0848 -1.3890  1.2833
  219MOL0     H30221   0.278   9.658   1.074  1.4548 -4.6808 -1.8800
  219MOL0     H30222   0.198   9.663   0.914  1.7144 -3.9705 -1.0655
  220MOL0     O30223   2.770   5.475   9.091 -0.0707 -0.5139 -0.5574
  220MOL0     C30224   2.848   5.421   9.167  0.2673 -0.2953  0.9696
  220MOL0     O30225   2.839   5.291   9.199 -0.5920 -0.3614  0.7115
  220MOL0     C30226   2.723   5.224   9.166 -0.6205 -0.9464  0.5610
  220MOL0     C30227   2.708   5.145   9.057  0.4606 -0.2190  0.2747
  220MOL0     C30228   2.602   5.057   9.047  0.3405  1.2812 -0.1430
  220MOL0     C30229   2.514   5.037   9.154 -0.5295 -0.7681 -0.2245
  220MOL0     O30230   2.421   4.944   9.141 -0.6606  0.2160  0.4383
  220MOL0     C30231   2.285   4.960   9.182 -0.9516 -1.0577 -0.1565
  220MOL0     C30232   2.207   4.857   9.112  0.3365  0.5632  0.1477
  220MOL0     C30233   2.064   4.840   9.155 -0.0193  0.4573  0.5887
  220MOL0     C30234   1.971   4.961   9.119 -0.2320  0.5363 -0.4403
  220MOL0     C30235   1.825   4.918   9.115  0.7363  0.6830  0.1305
  220MOL0     C30236   1.753   4.885   9.251  0.0346  0.2904  0.1699
  220MOL0     C30237   1.769   4.992   9.355  0.6769 -0.9139  0.2938
  220MOL0     C30238   1.740   5.138   9.310 -0.4969  0.0613 -0.7091
  220MOL0     N30239   1.711   5.214   9.434  0.5128 -0.6209 -0.2204
  220MOL0     C30240   1.587   5.267   9.473 -0.4290  0.9722  0.5066
  220MOL0     C30241   1.624   5.321   9.591  0.5148 -0.4799  0.8318
  220MOL0     C30242   1.532   5.398   9.680  0.6127  0.6702 -0.1419
  220MOL0     C30243   1.517   5.543   9.632  0.2078  0.2753  0.9508
  220MOL0     C30244   1.630   5.632   9.665 -0.6405 -0.7436  0.3696
  220MOL0     C30245   1.641   5.660   9.817 -0.5728 -0.5579 -0.4098
  220MOL0     O30246   1.723   5.777   9.844 -0.4355 -0.2392 -0.3108
  220MOL0     C30247   1.853   5.765   9.887  0.1899  1.0350 -1.2509
  220MOL0     C30248   1.945   5.654   9.873  0.2813 -0.8436  0.0801
  220MOL0     C30249   2.075   5.670   9.931 -0.6225 -0.0894 -0.1353
  220MOL0     C30250   2.153   5.540   9.937  0.4459 -0.0592 -0.5399
  220MOL0     C30251   2.126   5.798   9.977  0.1040 -0.2203  0.6248
  220MOL0     C30252   2.274   5.812  10.019 -0.0050  0.4478 -0.3178
  220MOL0     O30253   2.300   5.919  10.094 -0.4048 -0.3770  0.2077
  220MOL0     C30254   2.424   5.932  10.160  0.6022  1.5512  0.7352
  220MOL0     C30255   2.465   6.066  10.186  1.2184 -0.1589  1.0527
  220MOL0     C30256   2.580   6.105  10.248  0.0942 -0.4480 -0.0447
  220MOL0     C30257   2.658   6.002  10.309 -1.0210  0.2772 -0.1273
  220MOL0     O30258   2.764   6.052  10.381  0.7054 -0.2130  0.0245
  220MOL0     C30259   2.825   5.962  10.480  0.3925  0.4503  0.8285
  220MOL0     C30260   2.940   6.035  10.557  0.1246  0.9705 -0.5116
  220MOL0     C30261   3.056   5.942  10.609  0.7060 -0.0509 -0.5757
  220MOL0     C30262   3.158   6.023  10.688 -0.2617 -0.6937 -0.3071
  220MOL0     C30263   3.271   5.930  10.743 -0.2350 -0.8325  0.1260
  220MOL0     C30264   3.378   6.001  10.825  0.0133  1.3600  0.2645
  220MOL0     C30265   3.516   5.937  10.840  0.1578  0.1933  0.4094
  220MOL0     C30266   3.633   6.023  10.888  0.8342 -0.2932  0.2517
  220MOL0    Cl30267   3.587   6.107  11.037  0.2357  0.2150  0.1145
  220MOL0     C30268   2.611   5.868  10.298  0.7290  0.0580  0.4073
  220MOL0     C30269   2.501   5.826  10.220 -0.2010  0.5508  0.1008
  220MOL0     O30270   2.359   5.736   9.976  0.5345 -1.0158 -0.0891
  220MOL0     C30271   2.035   5.901   9.990  0.3166  0.1623 -0.2664
  220MOL0     C30272   1.898   5.881   9.952  0.6225  0.9665 -0.2499
  220MOL0     N30273   1.761   5.311   9.629  0.2743 -0.0275  0.2544
  220MOL0     N30274   1.808   5.248   9.530 -0.2229  0.0029  0.6979
  220MOL0     C30275   2.533   5.119   9.261 -0.0281  0.4629 -0.3154
  220MOL0     C30276   2.632   5.208   9.267  0.8952 -0.7489  0.7899
  220MOL0     C30277   2.945   5.514   9.224  0.1251 -0.9551  0.6617
  220MOL0     C30278   2.949   5.645   9.171 -0.0289  0.6373 -0.2462
  220MOL0     C30279   3.045   5.733   9.208  0.8005  0.5992 -0.4757
  220MOL0     C30280   3.139   5.695   9.312  0.6871 -0.1217 -0.5457
  220MOL0     O30281   3.232   5.779   9.368 -0.2987 -0.3186  0.5008
  220MOL0     C30282   3.225   5.923   9.342 -0.8732  0.4340  0.0620
  220MOL0     C30283   3.272   6.002   9.469 -0.3584 -0.2721  0.6727
  220MOL0     C30284   3.178   6.004   9.592  0.4718  0.5278 -0.0299
  220MOL0     C30285   3.238   6.063   9.719 -0.3857  0.0842  0.9173
  220MOL0     C30286   3.222   6.206   9.722  0.4685  0.2001 -0.5444
  220MOL0     C30287   3.209   6.328   9.722  0.3564  0.1457 -0.9109
  220MOL0     C30288   3.138   5.564   9.357 -0.1230 -0.7384 -0.8044
  220MOL0     C30289   3.041   5.477   9.318  0.7437  0.8307  0.0630
  220MOL0     C30290   3.052   5.331   9.356  0.5010 -0.1204  0.1305
  220MOL0     H30291   2.776   5.162   8.975  0.3459  2.4677  0.6527
  220MOL0     H30292   2.583   4.996   8.959  0.6169 -0.0209  0.6769
  220MOL0     H30293   2.245   5.060   9.165 -1.3806 -1.1457  0.3138
  220MOL0     H30294   2.273   4.936   9.289  1.6312  1.0307  0.7067
  220MOL0     H30295   2.205   4.864   9.003 -0.5270 -1.3921  0.0092
  220MOL0     H30296   2.247   4.758   9.137  2.1661  1.4743  1.0236
  220MOL0     H30297   2.022   4.746   9.121 -3.0367  1.9043  0.0056
  220MOL0     H30298   2.064   4.831   9.264  0.1322  1.9676  0.7355
  220MOL0     H30299   1.985   5.038   9.196  1.2655  0.2242 -0.3747
  220MOL0     H30300   1.997   4.999   9.020 -2.6332  2.0993 -0.5643
  220MOL0     H30301   1.819   4.835   9.044 -0.3909  1.1700 -0.3753
  220MOL0     H30302   1.767   4.997   9.065  2.7280  0.8739 -2.0446
  220MOL0     H30303   1.645   4.874   9.233 -0.1211 -0.8768  1.6443
  220MOL0     H30304   1.785   4.789   9.293 -0.8818 -0.3916 -0.6271
  220MOL0     H30305   1.872   4.990   9.392  1.5874 -2.0934 -2.0811
  220MOL0     H30306   1.722   4.977   9.452  2.1538  0.6150  1.3146
  220MOL0     H30307   1.824   5.177   9.250  0.4877  0.3192  0.7973
  220MOL0     H30308   1.654   5.152   9.244 -0.5925 -1.5683 -0.9569
  220MOL0     H30309   1.482   5.249   9.452  0.4290 -1.2838 -2.4263
  220MOL0     H30310   1.567   5.385   9.782  1.0866  0.3546 -0.3378
  220MOL0     H30311   1.434   5.350   9.677  0.6316  0.6434 -2.5929
  220MOL0     H30312   1.494   5.540   9.525  0.0149  1.3421  0.9557
  220MOL0     H30313   1.427   5.584   9.678 -0.3552 -1.6539  1.6805
  220MOL0     H30314   1.722   5.598   9.616 -2.2165 -0.7983 -2.7870
  220MOL0     H30315   1.608   5.716   9.598 -0.4682 -3.8203 -3.9714
  220MOL0     H30316   1.542   5.687   9.856 -0.3782  1.1085 -0.9987
  220MOL0     H30317   1.669   5.569   9.869 -0.1416  0.4740  1.2471
  220MOL0     H30318   1.918   5.563   9.819 -2.0052  0.3410 -0.9323
  220MOL0     H30319   2.243   5.531   9.875 -0.1683 -0.1808 -1.4255
  220MOL0     H30320   2.078   5.462   9.923 -1.8940  1.2605  3.1871
  220MOL0     H30321   2.187   5.536  10.041 -0.0120  1.6859 -0.2972
  220MOL0     H30322   2.416   6.151  10.138  2.1074 -0.5998 -0.7080
  220MOL0     H30323   2.629   6.202  10.251 -0.0259 -0.4005  0.4176
  220MOL0     H30324   2.748   5.925  10.548 -2.7606  1.9966 -1.6357
  220MOL0     H30325   2.867   5.876  10.427 -2.5106 -0.2899 -0.4936
  220MOL0     H30326   2.982   6.103  10.483  0.4088  0.1609 -1.1090
  220MOL0     H30327   2.905   6.093  10.643  0.8566 -2.3279  2.2406
  220MOL0     H30328   3.105   5.917  10.514 -1.6800  0.5604 -2.0301
  220MOL0     H30329   3.029   5.852  10.665  0.0123  1.5456  1.7544
  220MOL0     H30330   3.109   6.052  10.781  1.3463  0.4361  0.2251
  220MOL0     H30331   3.198   6.107  10.631  1.7781 -0.1980  1.7404
  220MOL0     H30332   3.224   5.855  10.807  1.3440 -2.8811 -0.9983
  220MOL0     H30333   3.316   5.876  10.659  1.4738  0.8396 -0.1168
  220MOL0     H30334   3.343   6.047  10.918  0.4282  1.5447  0.3278
  220MOL0     H30335   3.406   6.088  10.764 -2.3618  2.3459  0.4527
  220MOL0     H30336   3.545   5.893  10.744  2.2858 -0.7317  1.4071
  220MOL0     H30337   3.513   5.849  10.905  1.6679 -0.9332 -0.9594
  220MOL0     H30338   3.656   6.090  10.805  1.0040 -0.9344 -0.2238
  220MOL0     H30339   3.715   5.955  10.909 -1.4920 -2.8091  1.8691
  220MOL0     H30340   2.670   5.783  10.332 -0.2215 -0.6957  0.2098
  220MOL0     H30341   2.480   5.720  10.207 -0.2208  0.2345  2.3283
  220MOL0     H30342   2.063   5.992  10.042 -0.9058  1.3055 -1.5258
  220MOL0     H30343   1.828   5.962   9.966  0.0222  0.2271  1.1584
  220MOL0     H30344   2.467   5.095   9.344 -1.6706  0.8299 -1.4490
  220MOL0     H30345   2.652   5.270   9.355  0.9545 -0.0913  0.3230
  220MOL0     H30346   2.864   5.672   9.109 -0.9309  1.2935  1.2159
  220MOL0     H30347   3.049   5.828   9.154  2.5644  0.0925 -1.3329
  220MOL0     H30348   3.283   5.943   9.251  2.1990 -2.2040  1.2610
  220MOL0     H30349   3.122   5.953   9.319 -0.5790  1.7766  0.3842
  220MOL0     H30350   3.295   6.104   9.437 -2.6089  0.0224 -0.1657
  220MOL0     H30351   3.363   5.953   9.504  0.5100  1.3159  0.7398
  220MOL0     H30352   3.093   6.066   9.560  0.0260  0.1427  0.3835
  220MOL0     H30353   3.133   5.909   9.622 -0.6127  1.4039  1.2597
  220MOL0     H30354   3.343   6.035   9.730 -0.6830 -1.6098 -0.2115
  220MOL0     H30355   3.178   6.009   9.793  0.0692 -2.0589 -0.2207
  220MOL0     H30356   3.199   6.434   9.712  4.0644  0.4023 -4.2372
  220MOL0     H30357   3.205   5.533   9.437 -1.7576  0.4619  1.0941
  220MOL0     H30358   3.072   5.269   9.268  0.5660  0.4408 -0.2570
  220MOL0     H30359   3.136   5.311   9.424 -1.9120 -1.2075  3.0407
  220MOL0     H30360   2.966   5.298   9.415 -0.5114 -2.0851 -2.2608
  221MOL0     O30361   2.968   4.872   2.892 -0.7891 -0.0170  0.6861
  221MOL0     C30362   2.973   4.941   2.991 -0.2756 -0.1088 -0.3092
  221MOL0     O30363   3.083   4.999   3.046  0.2796 -0.1667 -0.6083
  221MOL0     C30364   3.210   4.959   3.020  0.7640 -0.4776 -0.5492
  221MOL0     C30365   3.256   4.938   2.892 -0.3040 -0.3537  0.5782
  221MOL0     C30366   3.372   4.871   2.875 -0.7052 -0.4744  0.0814
  221MOL0     C30367   3.466   4.850   2.979  0.3542 -0.3724 -0.2607
  221MOL0     O30368   3.594   4.802   2.995 -0.5114  0.5301  0.2962
  221MOL0     C30369   3.633   4.699   2.899 -0.0174  0.1409 -0.3970
  221MOL0     C30370   3.565   4.567   2.940 -0.7364  0.0360 -0.3610
  221MOL0     C30371   3.423   4.548   2.896  0.2767  0.2685 -0.4040
  221MOL0     C30372   3.354   4.423   2.952 -0.1619  1.3284 -0.8941
  221MOL0     C30373   3.211   4.417   2.909  0.4797 -0.4332 -0.0358
  221MOL0     C30374   3.108   4.526   2.942  0.1304  0.7070  0.0004
  221MOL0     C30375   3.118   4.597   3.074  0.2943 -0.3486 -0.1983
  221MOL0     C30376   3.030   4.531   3.184 -0.4476  0.5644  0.0507
  221MOL0     N30377   3.108   4.450   3.273 -1.0827  1.0614 -0.5722
  221MOL0     C30378   3.123   4.313   3.260 -0.1905 -0.4500  0.2451
  221MOL0     C30379   3.214   4.284   3.361 -0.1205 -0.1135  0.5350
  221MOL0     C30380   3.277   4.150   3.391  0.5084  0.7147  0.1373
  221MOL0     C30381   3.417   4.126   3.345  0.3288  0.5268 -0.3563
  221MOL0     C30382   3.518   4.237   3.391 -0.2781  0.3492 -0.0785
  221MOL0     C30383   3.654   4.205   3.331 -0.1691  0.3260 -1.0359
  221MOL0     O30384   3.645   4.191   3.193 -0.5907 -0.3114  0.9528
  221MOL0     C30385   3.761   4.211   3.113 -0.1898 -0.4060  0.0389
  221MOL0     C30386   3.741   4.233   2.978 -0.0156  0.4700  0.3112
  221MOL0     C30387   3.854   4.257   2.897  0.7566  0.3789  0.3016
  221MOL0     C30388   3.821   4.301   2.760 -0.4732 -0.0573 -0.1329
  221MOL0     C30389   3.985   4.249   2.945  0.3577  1.3694  0.1795
  221MOL0     C30390   4.099   4.249   2.857  0.1474 -0.1885 -0.5160
  221MOL0     O30391   4.103   4.162   2.756  0.3815  0.4098  0.2044
  221MOL0     C30392   4.192   4.190   2.653  0.2639  0.4891 -0.4137
  221MOL0     C30393   4.186   4.298   2.575  0.6585  0.4015  0.3254
  221MOL0     C30394   4.279   4.317   2.466  0.9264 -0.2312  0.2647
  221MOL0     C30395   4.367   4.209   2.431  0.2935 -0.5634  0.4569
  221MOL0     O30396   4.442   4.234   2.320  0.4277  0.0765 -0.0165
  221MOL0     C30397   4.491   4.125   2.240 -0.1814 -0.9628 -1.1822
  221MOL0     C30398   4.631   4.154   2.188 -0.0132  1.4016  0.5232
  221MOL0     C30399   4.625   4.273   2.095 -0.6326 -0.4272  0.0783
  221MOL0     C30400   4.767   4.304   2.035  0.0436 -0.2954 -0.0540
  221MOL0     C30401   4.757   4.426   1.946 -0.0619 -0.4203 -0.5666
  221MOL0     C30402   4.716   4.386   1.801 -0.0303  0.0716 -0.2868
  221MOL0     C30403   4.700   4.528   1.721  0.3019  1.0424 -1.3380
  221MOL0     C30404   4.666   4.516   1.575  0.0582 -0.5927 -0.3629
  221MOL0    Cl30405   4.674   4.671   1.487 -0.5161  0.2060 -0.0017
  221MOL0     C30406   4.361   4.100   2.519  0.1796  0.3395 -0.4773
  221MOL0     C30407   4.276   4.088   2.620  0.0647 -0.1252  0.8542
  221MOL0     O30408   4.193   4.323   2.885  0.3682 -0.5685  0.1003
  221MOL0     C30409   4.007   4.223   3.084  0.0229 -0.4004  0.3577
  221MOL0     C30410   3.894   4.204   3.168 -0.3880 -0.5633  0.3193
  221MOL0     N30411   3.240   4.400   3.428 -0.5588 -1.2181 -0.1972
  221MOL0     N30412   3.175   4.500   3.380 -0.4266 -0.1619 -0.3182
  221MOL0     C30413   3.427   4.893   3.106  0.4806 -0.0327 -0.9763
  221MOL0     C30414   3.296   4.945   3.129 -0.1360 -0.8002  0.6470
  221MOL0     C30415   2.841   4.987   3.048 -0.0063  0.2936  0.5972
  221MOL0     C30416   2.731   4.970   2.965  0.6619 -0.3914  0.2162
  221MOL0     C30417   2.601   5.015   2.995 -1.2085  0.1390  0.2391
  221MOL0     C30418   2.588   5.092   3.114  1.3519 -0.2036  0.4738
  221MOL0     O30419   2.470   5.156   3.146  0.3335 -0.3518 -0.6047
  221MOL0     C30420   2.348   5.136   3.073 -0.0037 -0.2702  0.8117
  221MOL0     C30421   2.242   5.220   3.142  0.8178  0.2348 -0.2291
  221MOL0     C30422   2.109   5.224   3.054  0.4946 -0.2181  0.3776
  221MOL0     C30423   1.998   5.292   3.117 -0.6829 -0.3359 -0.4998
  221MOL0     C30424   1.947   5.239   3.244  0.5960  0.4096 -0.8426
  221MOL0     C30425   1.900   5.202   3.344  0.2488  1.0270 -0.2665
  221MOL0     C30426   2.696   5.094   3.201  0.0251 -0.1791 -0.4781
  221MOL0     C30427   2.819   5.049   3.173 -0.2459 -0.3075 -0.3836
  221MOL0     C30428   2.925   5.057   3.284 -0.1493  0.2077 -0.3278
  221MOL0     H30429   3.192   4.959   2.806  1.2799  2.9612  0.0534
  221MOL0     H30430   3.394   4.842   2.772  0.4160 -0.4527  0.3061
  221MOL0     H30431   3.742   4.686   2.903 -0.1471 -0.8243  0.6701
  221MOL0     H30432   3.602   4.722   2.797 -0.8009 -0.6106 -0.3380
  221MOL0     H30433   3.619   4.482   2.897 -1.4265 -1.5255  1.6685
  221MOL0     H30434   3.574   4.552   3.048  1.4302 -0.4322 -0.5632
  221MOL0     H30435   3.361   4.635   2.920 -0.8771 -0.2992 -1.2135
  221MOL0     H30436   3.409   4.540   2.788 -2.3957  0.4475 -0.1270
  221MOL0     H30437   3.401   4.334   2.909  0.2889  1.8324 -1.4702
  221MOL0     H30438   3.369   4.422   3.061 -0.9314  2.6142 -0.7664
  221MOL0     H30439   3.158   4.333   2.954 -0.5278  0.2910  0.1644
  221MOL0     H30440   3.209   4.399   2.801  1.5140 -2.0546  0.1786
  221MOL0     H30441   3.116   4.608   2.869 -1.8462 -0.0070 -1.0745
  221MOL0     H30442   3.006   4.489   2.942  0.2098  0.4851 -0.8116
  221MOL0     H30443   3.079   4.698   3.058  4.9713  1.2831 -3.1133
  221MOL0     H30444   3.220   4.608   3.111  0.0530 -0.3664  0.4935
  221MOL0     H30445   2.980   4.616   3.231 -0.8653  1.6987 -2.2803
  221MOL0     H30446   2.945   4.473   3.148 -0.0353  0.8027 -1.3920
  221MOL0     H30447   3.086   4.247   3.182  1.3653  0.6052 -1.4451
  221MOL0     H30448   3.213   4.074   3.344 -1.6425  2.4539  0.0981
  221MOL0     H30449   3.269   4.130   3.498  3.0641  1.5903  0.5426
  221MOL0     H30450   3.456   4.031   3.383  0.5108 -0.0356 -1.8704
  221MOL0     H30451   3.414   4.130   3.236  1.0794 -0.6400 -0.4360
  221MOL0     H30452   3.494   4.331   3.340  0.9766  1.4077  1.1888
  221MOL0     H30453   3.534   4.256   3.498  0.5670 -1.4118  0.1488
  221MOL0     H30454   3.716   4.288   3.366  2.3837 -2.8686  2.9223
  221MOL0     H30455   3.704   4.121   3.378 -1.0918 -0.7168 -1.8514
  221MOL0     H30456   3.640   4.220   2.940  0.5894  1.5995 -1.8644
  221MOL0     H30457   3.736   4.369   2.754  0.6895  1.3820 -0.9241
  221MOL0     H30458   3.800   4.213   2.699 -0.2879  0.3434 -0.7823
  221MOL0     H30459   3.900   4.349   2.702  0.0025  0.0143  0.5605
  221MOL0     H30460   4.119   4.373   2.615 -0.8216 -1.8814  2.4994
  221MOL0     H30461   4.287   4.411   2.413  0.0314 -0.2966  0.0027
  221MOL0     H30462   4.498   4.032   2.296  2.8398 -1.2293 -1.8331
  221MOL0     H30463   4.429   4.101   2.154 -0.3073 -0.2681 -1.2910
  221MOL0     H30464   4.709   4.158   2.265  0.8605 -2.9258  0.1270
  221MOL0     H30465   4.659   4.065   2.130 -1.8234  0.8340  0.4721
  221MOL0     H30466   4.583   4.361   2.145  0.6017  1.8729 -2.6584
  221MOL0     H30467   4.555   4.252   2.014  0.3641 -0.8674 -0.6913
  221MOL0     H30468   4.803   4.216   1.981 -1.6123 -0.8626 -0.2915
  221MOL0     H30469   4.833   4.327   2.119 -0.4514 -0.7474  0.4774
  221MOL0     H30470   4.682   4.495   1.986  0.1995  0.0453 -0.8669
  221MOL0     H30471   4.853   4.478   1.960  0.2748 -1.6032  2.4222
  221MOL0     H30472   4.619   4.336   1.797  1.0658 -2.1072 -1.5727
  221MOL0     H30473   4.785   4.314   1.757 -1.3074 -2.3290  1.4243
  221MOL0     H30474   4.804   4.561   1.724  0.9954 -0.9209 -2.0271
  221MOL0     H30475   4.634   4.593   1.779  2.0168 -0.8144  3.1157
  221MOL0     H30476   4.568   4.469   1.567 -1.0384  1.3248  1.0819
  221MOL0     H30477   4.733   4.446   1.524  0.3754 -1.4656  1.2000
  221MOL0     H30478   4.431   4.018   2.505 -0.8735 -0.6661 -0.0033
  221MOL0     H30479   4.273   4.000   2.682 -1.0825 -0.9555 -0.3372
  221MOL0     H30480   4.107   4.224   3.125 -0.1428  0.2739  0.7740
  221MOL0     H30481   3.900   4.164   3.269 -0.7349 -1.5105 -0.0213
  221MOL0     H30482   3.490   4.871   3.192 -0.4450 -0.8913 -0.4980
  221MOL0     H30483   3.273   4.992   3.224  0.4378  1.4452 -0.2506
  221MOL0     H30484   2.740   4.908   2.877  1.8795  0.3201 -0.1777
  221MOL0     H30485   2.524   4.991   2.922 -1.9031 -0.8926  1.2766
  221MOL0     H30486   2.376   5.180   2.977  0.3743  0.0284  1.0538
  221MOL0     H30487   2.318   5.034   3.047  0.7878 -0.3558  0.1794
  221MOL0     H30488   2.281   5.320   3.162 -2.0601  1.0949  1.8405
  221MOL0     H30489   2.220   5.181   3.242 -0.8809  2.0087  0.1592
  221MOL0     H30490   2.147   5.275   2.965  5.3366 -0.1674  2.1993
  221MOL0     H30491   2.084   5.119   3.040  1.1501 -0.3773  0.3917
  221MOL0     H30492   1.915   5.274   3.049 -0.3163  2.9324 -2.0317
  221MOL0     H30493   2.011   5.401   3.121  0.8972 -0.5127  0.0134
  221MOL0     H30494   1.863   5.152   3.431  0.9424 -0.6223 -0.8834
  221MOL0     H30495   2.689   5.132   3.303 -2.7760 -1.5645 -0.0598
  221MOL0     H30496   2.877   5.083   3.379 -1.3964 -2.8384 -0.0291
  221MOL0     H30497   2.994   4.973   3.297 -0.1758  0.5803  3.4511
  221MOL0     H30498   2.992   5.140   3.259  0.4471  0.0187  0.5883
  222MOL0     O30499  10.159   1.344   9.911 -0.3467 -0.1829  0.7338
  222MOL0     C30500  10.122   1.465   9.923  0.1519  0.0350  0.0347
  222MOL0     O30501  10.192   1.561   9.982 -0.4194 -0.0839 -0.1405
  222MOL0     C30502  10.307   1.515  10.044  0.0258 -0.1078  0.9719
  222MOL0     C30503  10.422   1.469   9.970 -0.2876 -0.5799 -0.7853
  222MOL0     C30504  10.536   1.428  10.051 -0.8106  0.9412 -0.6106
  222MOL0     C30505  10.526   1.422  10.194  0.0841 -0.1773  0.8120
  222MOL0     O30506  10.623   1.378  10.275  0.2096 -0.0215 -0.5102
  222MOL0     C30507  10.742   1.458  10.280  0.2810 -0.0294 -0.0672
  222MOL0     C30508  10.834   1.393  10.382 -0.2888 -0.5574 -0.2270
  222MOL0     C30509  10.971   1.447  10.375  0.3461 -0.3553 -0.3968
  222MOL0     C30510  11.075   1.349  10.433 -0.0285  0.7701  0.3651
  222MOL0     C30511  11.224   1.378  10.413  0.9439  0.0140 -0.5056
  222MOL0     C30512  11.276   1.353  10.275 -0.2985 -0.8831 -0.1195
  222MOL0     C30513  11.412   1.426  10.250 -0.0843  0.1596 -0.7018
  222MOL0     C30514  11.433   1.411  10.106 -0.2813  0.0616 -0.0240
  222MOL0     N30515  11.564   1.465  10.057  0.5516  0.0564 -0.3027
  222MOL0     C30516  11.582   1.590  10.008 -0.0852 -0.9801  0.5676
  222MOL0     C30517  11.717   1.595   9.995 -0.4648 -0.0430  0.2833
  222MOL0     C30518  11.786   1.719   9.960 -0.0708  0.1722  0.8769
  222MOL0     C30519  11.915   1.691   9.881  0.2379 -0.0867 -0.6821
  222MOL0     C30520  11.915   1.592   9.759  0.8447 -0.6160 -0.9387
  222MOL0     C30521  11.796   1.639   9.665  0.0467  0.1675  0.3746
  222MOL0     O30522  11.790   1.565   9.537 -0.4325  0.8891 -0.8258
  222MOL0     C30523  11.889   1.599   9.442  0.4978 -0.0803 -0.6255
  222MOL0     C30524  11.956   1.727   9.435 -0.6902  0.2641  0.8138
  222MOL0     C30525  12.047   1.768   9.339 -0.2794  0.7199 -0.2980
  222MOL0     C30526  12.109   1.901   9.353  0.0261 -0.3167  0.3527
  222MOL0     C30527  12.058   1.685   9.219  0.8053 -0.3898 -0.0072
  222MOL0     C30528  12.133   1.716   9.097 -0.8025  0.4074  0.4853
  222MOL0     O30529  12.106   1.641   8.988 -0.9677 -0.0069  0.5719
  222MOL0     C30530  12.195   1.657   8.884 -0.2698 -0.4686 -0.6742
  222MOL0     C30531  12.265   1.547   8.834 -0.7341 -0.3374 -0.8116
  222MOL0     C30532  12.326   1.552   8.708  0.9112 -0.0049  0.2113
  222MOL0     C30533  12.337   1.674   8.637  0.3178 -0.3929 -0.8341
  222MOL0     O30534  12.409   1.691   8.528 -0.3453  0.1660  0.2061
  222MOL0     C30535  12.524   1.608   8.500  0.5511 -0.7635 -0.6908
  222MOL0     C30536  12.586   1.652   8.370  0.0777 -0.0984  0.1738
  222MOL0     C30537  12.653   1.781   8.368 -0.0920  0.7473 -0.6051
  222MOL0     C30538  12.712   1.808   8.233 -0.2239 -0.0475  0.9060
  222MOL0     C30539  12.760   1.961   8.217 -0.2352  0.6025 -0.1949
  222MOL0     C30540  12.632   2.046   8.209 -0.4823  0.3014  0.3746
  222MOL0     C30541  12.657   2.189   8.155  0.1648 -0.3531  0.6597
  222MOL0     C30542  12.696   2.286   8.263 -0.4292 -0.5290 -0.5934
  222MOL0    Cl30543  12.865   2.251   8.311 -0.1119 -0.1165  0.4127
  222MOL0     C30544  12.256   1.780   8.683  0.8859  0.7661 -0.0969
  222MOL0     C30545  12.180   1.768   8.802  0.0424  0.1675  0.4180
  222MOL0     O30546  12.219   1.796   9.106 -0.3893 -0.4238  0.3335
  222MOL0     C30547  12.005   1.561   9.219 -0.0866  0.5878  1.5378
  222MOL0     C30548  11.920   1.516   9.331 -0.0746 -1.4821  0.6190
  222MOL0     N30549  11.774   1.463  10.018 -0.1031 -0.3397  0.7803
  222MOL0     N30550  11.676   1.387  10.050  0.0641 -0.0885  0.3817
  222MOL0     C30551  10.408   1.473  10.249 -0.3755  0.0935 -0.4184
  222MOL0     C30552  10.310   1.531  10.176  0.2700  0.2269 -0.1292
  222MOL0     C30553  10.001   1.517   9.848 -0.7574 -0.1358 -0.5918
  222MOL0     C30554   9.987   1.658   9.825 -0.4523 -0.9070 -0.3976
  222MOL0     C30555   9.874   1.715   9.766 -0.5896  0.1189  0.2294
  222MOL0     C30556   9.782   1.633   9.708  0.1988  0.1874  0.6148
  222MOL0     O30557   9.675   1.693   9.660  0.6313 -0.1241 -0.1932
  222MOL0     C30558   9.561   1.620   9.617 -0.7984  0.5040 -0.0136
  222MOL0     C30559   9.472   1.712   9.536  0.2784 -0.1229 -0.0261
  222MOL0     C30560   9.548   1.788   9.419  0.4385  0.2197 -0.5193
  222MOL0     C30561   9.441   1.882   9.354 -0.3979  0.0435 -0.1649
  222MOL0     C30562   9.425   2.007   9.432  1.0734  0.3887 -0.3390
  222MOL0     C30563   9.392   2.109   9.483 -0.2552  0.3673 -0.7514
  222MOL0     C30564   9.798   1.499   9.716 -0.3153  0.5319  0.5269
  222MOL0     C30565   9.904   1.437   9.786 -0.5271 -0.5614  0.0957
  222MOL0     C30566   9.897   1.285   9.795 -0.2445  0.4709  0.3471
  222MOL0     H30567  10.425   1.481   9.862 -2.1662  3.6786 -0.5703
  222MOL0     H30568  10.629   1.392  10.008 -0.5101  0.6319  0.2912
  222MOL0     H30569  10.718   1.562  10.305  2.2083  0.5946 -0.6224
  222MOL0     H30570  10.782   1.459  10.178 -0.7415  1.0394 -0.4896
  222MOL0     H30571  10.792   1.412  10.481 -2.4290 -0.9575 -1.0008
  222MOL0     H30572  10.840   1.284  10.371 -1.4208 -0.5649 -0.9536
  222MOL0     H30573  10.994   1.473  10.271 -0.8270  2.3848 -0.0444
  222MOL0     H30574  10.964   1.537  10.436 -0.1152 -0.3123 -0.5105
  222MOL0     H30575  11.052   1.328  10.538  1.2788 -0.7964  0.3768
  222MOL0     H30576  11.059   1.255  10.379  2.2401  0.8672 -0.5761
  222MOL0     H30577  11.283   1.317  10.482  1.1976  1.9692  1.1128
  222MOL0     H30578  11.234   1.483  10.442  0.3405 -0.4464  1.5213
  222MOL0     H30579  11.281   1.247  10.249  1.7126 -1.0980  0.8959
  222MOL0     H30580  11.214   1.410  10.206  0.2902  0.1119  0.1471
  222MOL0     H30581  11.489   1.377  10.310 -0.0318 -0.7208 -1.4647
  222MOL0     H30582  11.392   1.528  10.284  1.9202 -0.0572  1.3909
  222MOL0     H30583  11.416   1.306  10.081 -3.3145  0.4705 -0.1635
  222MOL0     H30584  11.355   1.465  10.050 -1.3071  0.1173  1.4062
  222MOL0     H30585  11.509   1.669   9.995  1.9359  0.6279 -2.4417
  222MOL0     H30586  11.808   1.773  10.052  0.5851  0.9518  0.2724
  222MOL0     H30587  11.721   1.787   9.905 -1.0042  2.1286  4.1297
  222MOL0     H30588  11.959   1.789   9.859  2.1773 -0.3618  1.5375
  222MOL0     H30589  11.987   1.649   9.952  1.1207  2.2348 -0.1167
  222MOL0     H30590  12.011   1.597   9.705  0.3415 -4.9285 -2.6279
  222MOL0     H30591  11.911   1.485   9.780  1.0505 -0.4305  0.1245
  222MOL0     H30592  11.699   1.634   9.717 -1.2477 -2.0251 -2.0014
  222MOL0     H30593  11.810   1.745   9.644  0.5062 -0.1630 -1.1096
  222MOL0     H30594  11.944   1.786   9.525 -3.3068  0.3558  0.4737
  222MOL0     H30595  12.071   1.968   9.275  2.8481  1.3001  0.2372
  222MOL0     H30596  12.214   1.885   9.328 -0.6945 -2.1816 -1.8377
  222MOL0     H30597  12.094   1.940   9.454  2.1770 -2.9154  1.8139
  222MOL0     H30598  12.261   1.457   8.894  2.2537  0.4597  0.8000
  222MOL0     H30599  12.378   1.465   8.671  1.1591  0.0290  0.4716
  222MOL0     H30600  12.598   1.619   8.580  1.6764 -2.1539 -1.5002
  222MOL0     H30601  12.490   1.505   8.486 -0.8040 -0.0658 -2.9939
  222MOL0     H30602  12.666   1.578   8.362 -0.7085 -1.5689  3.8532
  222MOL0     H30603  12.509   1.634   8.294 -0.8845 -1.4539  1.3967
  222MOL0     H30604  12.736   1.781   8.440 -0.3863 -2.7769 -0.0849
  222MOL0     H30605  12.579   1.857   8.394 -0.4909  0.3692 -0.6348
  222MOL0     H30606  12.646   1.788   8.148  2.6952  0.7114 -1.7766
  222MOL0     H30607  12.788   1.733   8.207  0.7029  1.0118  0.4499
  222MOL0     H30608  12.813   1.992   8.307 -2.5801  2.4380  0.6450
  222MOL0     H30609  12.818   1.982   8.126  1.5222  1.1581  1.0063
  222MOL0     H30610  12.585   2.050   8.308  3.0189  2.4945  2.1602
  222MOL0     H30611  12.555   2.011   8.140 -0.1820 -1.6757  0.9932
  222MOL0     H30612  12.562   2.231   8.120  0.2722 -0.9063 -0.3599
  222MOL0     H30613  12.733   2.182   8.076 -1.1720 -1.4013 -0.6065
  222MOL0     H30614  12.629   2.262   8.346 -0.8627 -1.0718 -1.0898
  222MOL0     H30615  12.682   2.389   8.230 -0.1287 -0.7176 -1.3480
  222MOL0     H30616  12.250   1.881   8.643  0.3508  0.6857 -0.2152
  222MOL0     H30617  12.120   1.854   8.832 -1.1647 -1.1368  1.9302
  222MOL0     H30618  12.023   1.484   9.144  0.4474  0.2330  2.0156
  222MOL0     H30619  11.872   1.419   9.331  0.5703 -1.8321 -0.8929
  222MOL0     H30620  10.404   1.488  10.357 -1.7948  1.6340 -0.6417
  222MOL0     H30621  10.236   1.588  10.231  1.0063  1.3327 -0.2550
  222MOL0     H30622  10.066   1.724   9.859 -2.2705  1.5530 -0.7134
  222MOL0     H30623   9.854   1.818   9.739  2.2965  0.5639 -0.4893
  222MOL0     H30624   9.583   1.535   9.552 -3.1560  1.1515 -1.8085
  222MOL0     H30625   9.511   1.574   9.703 -2.1427  0.3176 -0.8474
  222MOL0     H30626   9.434   1.791   9.602 -1.1461  0.2647 -1.2582
  222MOL0     H30627   9.393   1.649   9.495  1.1311 -1.1320 -0.1542
  222MOL0     H30628   9.628   1.852   9.458  0.7003  0.0444 -0.7702
  222MOL0     H30629   9.591   1.724   9.342  2.5741  0.6887  0.2165
  222MOL0     H30630   9.342   1.841   9.332 -0.7745  1.6820 -1.8780
  222MOL0     H30631   9.486   1.913   9.259 -2.0828  1.1035 -0.6823
  222MOL0     H30632   9.356   2.196   9.533 -1.9815  0.2076 -1.6359
  222MOL0     H30633   9.723   1.436   9.671  0.2507  0.3454 -0.1772
  222MOL0     H30634   9.954   1.237   9.875  1.5253  0.0205 -1.1164
  222MOL0     H30635   9.796   1.244   9.795  0.5673 -1.6719 -0.4655
  222MOL0     H30636   9.935   1.248   9.699 -2.0648 -1.4994  0.3094
  223MOL0     O30637   4.593   0.409   1.645 -0.1578 -0.4232  0.0386
  223MOL0     C30638   4.687   0.377   1.713  0.1957  0.2995 -0.3720
  223MOL0     O30639   4.804   0.324   1.659  0.8047 -0.1318  0.6864
  223MOL0     C30640   4.833   0.342   1.527 -0.2536  0.4572 -0.6250
  223MOL0     C30641   4.970   0.358   1.496  0.2741 -0.2204  1.0533
  223MOL0     C30642   5.016   0.396   1.371 -0.3538  0.5101  0.0022
  223MOL0     C30643   4.923   0.408   1.268 -0.7947 -0.0319  0.6530
  223MOL0     O30644   4.959   0.450   1.144 -0.1102 -1.2213 -0.4491
  223MOL0     C30645   5.101   0.449   1.104 -0.5469  0.6408  0.5177
  223MOL0     C30646   5.091   0.481   0.950 -0.1347 -0.1835 -0.1722
  223MOL0     C30647   5.042   0.626   0.922 -0.4265  0.2366 -0.3745
  223MOL0     C30648   5.130   0.734   0.976  0.1429  0.6618  0.1623
  223MOL0     C30649   5.067   0.871   0.959 -0.3862 -0.3564 -0.5998
  223MOL0     C30650   5.067   0.912   0.811 -0.0622  0.0492  0.1362
  223MOL0     C30651   5.011   1.052   0.800  0.3919 -0.0660  0.2568
  223MOL0     C30652   4.986   1.088   0.650  0.4096 -0.5372 -1.1308
  223MOL0     N30653   5.115   1.127   0.597 -0.0814 -0.6344 -0.1565
  223MOL0     C30654   5.177   1.239   0.638 -0.3113  0.0271 -0.0077
  223MOL0     C30655   5.304   1.217   0.608  0.5521 -0.4544  0.0526
  223MOL0     C30656   5.413   1.316   0.639  0.4668 -0.4642 -0.0150
  223MOL0     C30657   5.536   1.295   0.547  0.1195 -0.5311 -0.5107
  223MOL0     C30658   5.657   1.371   0.590 -0.8550 -0.1843 -0.2172
  223MOL0     C30659   5.782   1.339   0.508  1.1491 -0.0783 -0.4289
  223MOL0     O30660   5.903   1.353   0.588  0.4815  0.7280 -0.1113
  223MOL0     C30661   6.027   1.317   0.530  0.9580 -0.4112 -0.2223
  223MOL0     C30662   6.119   1.270   0.617 -0.5306  0.3238  0.4197
  223MOL0     C30663   6.243   1.224   0.575 -0.3250 -1.3067  0.7076
  223MOL0     C30664   6.337   1.185   0.688  0.3644  0.6150 -0.0127
  223MOL0     C30665   6.277   1.230   0.436  0.1049  0.7479 -0.7018
  223MOL0     C30666   6.404   1.198   0.378  0.8178  0.0755  0.0812
  223MOL0     O30667   6.512   1.258   0.431  1.2790 -0.3019 -0.5031
  223MOL0     C30668   6.638   1.240   0.387 -0.3597  0.3329 -1.0340
  223MOL0     C30669   6.685   1.238   0.255 -0.8728  0.4644  0.0789
  223MOL0     C30670   6.820   1.231   0.225  0.2032 -0.1023 -1.2516
  223MOL0     C30671   6.915   1.240   0.335 -0.0173  0.5497  0.3662
  223MOL0     O30672   7.055   1.226   0.323 -0.6877  0.6268  0.4243
  223MOL0     C30673   7.123   1.156   0.219 -0.1088 -0.1605  0.3358
  223MOL0     C30674   7.277   1.152   0.247 -0.1541  0.2648  0.9868
  223MOL0     C30675   7.322   1.253   0.353  0.1254  0.4167 -0.5881
  223MOL0     C30676   7.472   1.277   0.346  0.4091  0.3040 -1.0548
  223MOL0     C30677   7.520   1.352   0.472 -0.5863 -0.0434 -0.1878
  223MOL0     C30678   7.668   1.376   0.485  1.1679 -0.3466 -0.2173
  223MOL0     C30679   7.696   1.461   0.611  0.5087  0.1405  0.3920
  223MOL0     C30680   7.832   1.530   0.591  0.7668  0.1546  0.1531
  223MOL0    Cl30681   7.812   1.650   0.462  0.9588  0.0693  0.1814
  223MOL0     C30682   6.868   1.241   0.466 -0.0916  0.0359 -0.2418
  223MOL0     C30683   6.727   1.235   0.499 -0.4004 -0.2892 -1.0499
  223MOL0     O30684   6.401   1.127   0.283 -0.2571 -1.3139 -0.6491
  223MOL0     C30685   6.170   1.260   0.348 -0.3626  0.4697 -0.2172
  223MOL0     C30686   6.048   1.313   0.391  0.0272 -0.2177 -0.2470
  223MOL0     N30687   5.318   1.093   0.545 -0.0287  0.3079  0.3397
  223MOL0     N30688   5.196   1.043   0.532 -0.8826 -0.0255 -0.0190
  223MOL0     C30689   4.791   0.382   1.295 -0.3337 -0.6059 -0.0285
  223MOL0     C30690   4.742   0.344   1.418 -0.8768  0.0716  0.0165
  223MOL0     C30691   4.686   0.375   1.860  0.0624 -0.0653 -0.7145
  223MOL0     C30692   4.806   0.374   1.927 -0.8073  0.8201  0.5696
  223MOL0     C30693   4.810   0.373   2.070 -0.3643  0.7815 -0.0256
  223MOL0     C30694   4.701   0.354   2.151 -0.4554 -0.8837  0.3892
  223MOL0     O30695   4.729   0.306   2.275 -0.0172  0.2543 -0.1145
  223MOL0     C30696   4.614   0.277   2.357  0.9384 -0.2543 -0.0785
  223MOL0     C30697   4.650   0.254   2.502  0.0123  0.4664  0.5611
  223MOL0     C30698   4.751   0.140   2.524 -0.0592  0.2567 -0.4970
  223MOL0     C30699   4.785   0.123   2.668 -0.0968 -0.7236 -0.2191
  223MOL0     C30700   4.893   0.025   2.691  0.0826  0.8331  0.6266
  223MOL0     C30701   4.989  -0.043   2.732  0.2599  0.4935  0.8497
  223MOL0     C30702   4.578   0.362   2.086  0.6339 -0.1981 -0.1178
  223MOL0     C30703   4.567   0.381   1.944 -1.0951 -0.6576 -0.4721
  223MOL0     C30704   4.432   0.410   1.889  0.4283  0.5271  0.0664
  223MOL0     H30705   5.036   0.337   1.579  0.8151 -0.9767  0.4347
  223MOL0     H30706   5.122   0.403   1.350 -0.7465  0.7695 -2.2060
  223MOL0     H30707   5.140   0.347   1.107  3.2891  1.7866 -2.5405
  223MOL0     H30708   5.158   0.525   1.157  0.7344  0.0921 -0.0300
  223MOL0     H30709   5.191   0.455   0.913 -0.0936 -1.5527  0.8220
  223MOL0     H30710   5.029   0.406   0.900 -0.3765 -0.4534  0.5170
  223MOL0     H30711   5.037   0.644   0.814  0.5231 -2.4018 -0.9283
  223MOL0     H30712   4.946   0.641   0.972  0.1560 -0.4967  1.0335
  223MOL0     H30713   5.138   0.718   1.083 -1.6373 -0.7574  0.1176
  223MOL0     H30714   5.230   0.726   0.932 -0.4164  0.5619 -1.1531
  223MOL0     H30715   5.123   0.948   1.012  2.1241  0.6296 -4.2634
  223MOL0     H30716   4.966   0.862   1.001  0.0664  0.9961  0.8555
  223MOL0     H30717   5.171   0.913   0.775  0.2536  0.6883  1.0210
  223MOL0     H30718   5.004   0.841   0.756  0.2650  1.2954 -1.9555
  223MOL0     H30719   5.078   1.125   0.847  1.9059  0.8943 -3.0729
  223MOL0     H30720   4.925   1.062   0.866  0.8587  1.6913  0.6490
  223MOL0     H30721   4.951   0.995   0.604 -0.0890 -0.5747 -0.6943
  223MOL0     H30722   4.910   1.164   0.629 -0.1540 -1.2802 -1.8788
  223MOL0     H30723   5.135   1.329   0.682 -0.5814 -0.7607  1.3874
  223MOL0     H30724   5.436   1.296   0.745  1.1629  0.6089  0.0526
  223MOL0     H30725   5.372   1.417   0.637 -1.3522 -1.1825 -0.6789
  223MOL0     H30726   5.564   1.190   0.533 -1.7036 -1.0347 -0.5489
  223MOL0     H30727   5.513   1.328   0.446 -3.1339 -2.0866 -0.3771
  223MOL0     H30728   5.627   1.476   0.581 -1.1114 -0.4057 -2.5614
  223MOL0     H30729   5.679   1.335   0.691  0.6903 -2.1564 -1.1863
  223MOL0     H30730   5.781   1.236   0.470 -1.2101 -0.0951 -0.4687
  223MOL0     H30731   5.785   1.400   0.418 -3.1945  0.0560 -0.7205
  223MOL0     H30732   6.089   1.267   0.722 -0.9401  0.5725  0.3115
  223MOL0     H30733   6.327   1.248   0.776  0.3941  2.4785 -1.2793
  223MOL0     H30734   6.440   1.179   0.651  1.0763  1.4614  1.7384
  223MOL0     H30735   6.314   1.085   0.727  0.2382  0.9987  0.9130
  223MOL0     H30736   6.624   1.248   0.166 -1.8383  4.0044  0.9709
  223MOL0     H30737   6.863   1.218   0.126  0.8940  1.5435 -1.2034
  223MOL0     H30738   7.089   1.052   0.219 -0.3882 -0.0790 -0.4056
  223MOL0     H30739   7.103   1.187   0.116  2.8616  1.0421  0.0183
  223MOL0     H30740   7.310   1.050   0.269  0.5348  0.0864 -0.7041
  223MOL0     H30741   7.320   1.175   0.149 -1.5483  1.2359  0.5658
  223MOL0     H30742   7.295   1.216   0.452 -2.9409  2.4050 -0.5504
  223MOL0     H30743   7.283   1.353   0.333  1.0266  0.9960  0.4110
  223MOL0     H30744   7.491   1.335   0.255  0.0721 -1.9123 -2.6256
  223MOL0     H30745   7.526   1.183   0.340  1.8373  1.1790 -3.0215
  223MOL0     H30746   7.481   1.453   0.453  3.6672  1.5438 -1.5929
  223MOL0     H30747   7.489   1.307   0.566  1.7104 -0.3776  0.4554
  223MOL0     H30748   7.693   1.440   0.400  1.5407  0.9997  0.8593
  223MOL0     H30749   7.715   1.278   0.474 -3.7751 -3.2081  1.0981
  223MOL0     H30750   7.693   1.390   0.694  0.5145  1.2142  1.3345
  223MOL0     H30751   7.626   1.544   0.624  0.0552 -0.3758  1.3602
  223MOL0     H30752   7.912   1.459   0.566  0.6154 -0.5594  1.5588
  223MOL0     H30753   7.868   1.581   0.681 -0.8753  1.8576 -0.0844
  223MOL0     H30754   6.952   1.226   0.533  2.0517  1.0438 -2.5246
  223MOL0     H30755   6.687   1.240   0.599 -3.8277  4.2140 -2.3196
  223MOL0     H30756   6.186   1.270   0.241  1.1372  2.3144  0.1222
  223MOL0     H30757   5.984   1.344   0.309  1.9980 -2.3203 -2.7456
  223MOL0     H30758   4.717   0.391   1.216 -0.0795 -0.8074 -0.2959
  223MOL0     H30759   4.637   0.322   1.434 -0.7933 -0.1626  0.2369
  223MOL0     H30760   4.897   0.356   1.871 -2.4519 -4.4868 -0.9564
  223MOL0     H30761   4.910   0.371   2.112  0.0319  0.0534 -0.9484
  223MOL0     H30762   4.565   0.374   2.351 -0.3440 -0.9123 -0.8002
  223MOL0     H30763   4.540   0.201   2.327  0.3060  0.5881 -0.6959
  223MOL0     H30764   4.560   0.231   2.559 -0.2481 -0.2798 -0.1381
  223MOL0     H30765   4.684   0.349   2.545 -0.4533  0.5168  0.8113
  223MOL0     H30766   4.714   0.046   2.482 -1.0634  1.0471 -1.4487
  223MOL0     H30767   4.846   0.166   2.476  2.6777  0.3154  4.3427
  223MOL0     H30768   4.700   0.097   2.733 -1.2075  2.1624 -0.3901
  223MOL0     H30769   4.819   0.220   2.706 -0.9498 -0.4978 -0.0200
  223MOL0     H30770   5.064  -0.099   2.784  0.9239  3.6116  3.5610
  223MOL0     H30771   4.489   0.362   2.148  1.1629  0.5608  0.6671
  223MOL0     H30772   4.425   0.456   1.790 -1.0402 -0.3159 -0.2526
  223MOL0     H30773   4.382   0.313   1.879  3.7419 -1.1558 -1.9963
  223MOL0     H30774   4.371   0.472   1.956 -1.2981 -1.9238  0.9174
  224MOL0     O30775   3.217   4.058   6.901  0.0073  0.2398 -0.6063
  224MOL0     C30776   3.297   4.090   6.814  0.4490  1.1745  0.0534
  224MOL0     O30777   3.422   4.033   6.810 -0.5051  0.1161 -0.2512
  224MOL0     C30778   3.482   3.972   6.922 -0.7113  1.0616  0.9114
  224MOL0     C30779   3.586   3.870   6.892  0.8631 -0.6258  0.4680
  224MOL0     C30780   3.652   3.800   6.995 -0.4618 -0.1621 -0.2652
  224MOL0     C30781   3.614   3.827   7.135  0.2064  0.0687  0.0482
  224MOL0     O30782   3.669   3.766   7.242 -0.5923 -0.5301 -0.2421
  224MOL0     C30783   3.812   3.778   7.263  0.5679  0.1088  0.2225
  224MOL0     C30784   3.844   3.882   7.361 -0.5175 -0.1358  0.6938
  224MOL0     C30785   3.992   3.872   7.403 -0.0200 -0.0417  0.8772
  224MOL0     C30786   4.022   3.976   7.511  0.0785  0.3914  0.0330
  224MOL0     C30787   3.986   3.921   7.650  0.1024 -0.7657  0.6726
  224MOL0     C30788   4.016   4.028   7.753  0.1416 -0.3784 -0.5395
  224MOL0     C30789   4.009   3.980   7.896  0.2638 -0.4894 -0.2376
  224MOL0     C30790   4.110   3.872   7.935  0.4948 -0.2253 -0.1820
  224MOL0     N30791   4.250   3.915   7.945 -0.8502  0.0731  0.3266
  224MOL0     C30792   4.298   4.001   8.035 -0.3163  0.2503 -0.5510
  224MOL0     C30793   4.435   3.992   8.019  0.8400 -0.2757 -0.5092
  224MOL0     C30794   4.537   4.066   8.097  0.4107 -0.2919  1.0021
  224MOL0     C30795   4.569   3.987   8.225  1.0624  0.0979  0.1071
  224MOL0     C30796   4.596   3.841   8.191 -0.0167  0.0226  0.3677
  224MOL0     C30797   4.651   3.765   8.312 -0.1399 -0.2730  0.1346
  224MOL0     O30798   4.774   3.825   8.353 -0.0257 -0.3326 -0.2775
  224MOL0     C30799   4.847   3.764   8.454  0.0607  1.0037 -0.6980
  224MOL0     C30800   4.932   3.842   8.529  0.0113 -0.0175 -0.0412
  224MOL0     C30801   5.018   3.787   8.629 -0.6777 -0.3195  0.0606
  224MOL0     C30802   5.106   3.882   8.719 -0.0880 -0.0099  0.2823
  224MOL0     C30803   5.029   3.642   8.645  0.3636 -0.3579  0.1234
  224MOL0     C30804   5.097   3.573   8.750 -0.2338  0.3222  0.6208
  224MOL0     O30805   5.116   3.438   8.730 -0.3560 -0.7798 -0.2395
  224MOL0     C30806   5.186   3.365   8.831  0.5447  0.1495  1.1197
  224MOL0     C30807   5.310   3.305   8.819 -1.3626  0.2786 -0.1408
  224MOL0     C30808   5.362   3.217   8.920 -0.5484  0.2871  0.3930
  224MOL0     C30809   5.300   3.200   9.041  0.0860 -0.2262 -1.1088
  224MOL0     O30810   5.357   3.119   9.136 -0.7627 -0.2350 -0.0996
  224MOL0     C30811   5.318   3.136   9.272 -0.0428 -0.3902  0.3762
  224MOL0     C30812   5.399   3.078   9.379 -0.4487 -0.0304 -0.2780
  224MOL0     C30813   5.547   3.126   9.356  0.6909 -0.0574  0.1068
  224MOL0     C30814   5.635   3.085   9.480 -0.0164 -0.3190 -0.2374
  224MOL0     C30815   5.785   3.087   9.439  0.4648 -0.1926 -0.2312
  224MOL0     C30816   5.870   3.046   9.561 -0.3612  1.1367  0.4765
  224MOL0     C30817   6.020   3.038   9.527  0.9348 -1.0820  0.5968
  224MOL0     C30818   6.106   3.035   9.657  0.1026  0.2939  0.6826
  224MOL0    Cl30819   6.285   3.026   9.625  0.1623  0.5340 -0.4579
  224MOL0     C30820   5.180   3.278   9.060 -0.5062 -0.7609  0.6174
  224MOL0     C30821   5.117   3.350   8.957  0.3992  0.3533  0.4988
  224MOL0     O30822   5.120   3.630   8.856 -0.6321  0.5397  0.2059
  224MOL0     C30823   4.947   3.564   8.558 -1.1617  0.5649 -1.0852
  224MOL0     C30824   4.863   3.619   8.471  0.4305 -0.4615  0.1795
  224MOL0     N30825   4.463   3.902   7.915  0.1698 -0.3592  0.2847
  224MOL0     N30826   4.347   3.875   7.857 -0.5771 -0.1834 -0.0081
  224MOL0     C30827   3.514   3.916   7.156 -0.2963 -0.2465  0.5157
  224MOL0     C30828   3.450   3.988   7.055  0.1007  0.1327 -0.9664
  224MOL0     C30829   3.266   4.202   6.719 -0.5114 -0.3530 -1.2738
  224MOL0     C30830   3.370   4.236   6.631  0.6002  0.0610  0.3357
  224MOL0     C30831   3.345   4.315   6.522 -0.8258  0.2555 -0.5748
  224MOL0     C30832   3.218   4.370   6.498 -0.9541 -0.1846 -0.0322
  224MOL0     O30833   3.192   4.445   6.385  0.3275  0.7545  0.0475
  224MOL0     C30834   3.298   4.512   6.319 -1.1026  0.2594  0.1432
  224MOL0     C30835   3.250   4.646   6.279  0.2816 -0.1328 -0.1817
  224MOL0     C30836   3.254   4.752   6.391 -1.2689  0.2564 -0.2166
  224MOL0     C30837   3.394   4.818   6.403  0.7563  0.2825  0.2951
  224MOL0     C30838   3.424   4.917   6.296 -1.1062  0.2564 -0.2270
  224MOL0     C30839   3.465   4.993   6.213  1.3459  0.8680 -0.0737
  224MOL0     C30840   3.120   4.348   6.597 -0.7082  0.5767  1.1282
  224MOL0     C30841   3.140   4.273   6.709 -0.6249 -0.7516 -0.3933
  224MOL0     C30842   3.014   4.249   6.799 -0.2078 -0.8146 -0.0351
  224MOL0     H30843   3.606   3.830   6.793 -0.9680 -2.1288  0.6645
  224MOL0     H30844   3.743   3.746   6.971  0.4055  1.5087 -0.8994
  224MOL0     H30845   3.877   3.787   7.175  1.9342  0.5778  1.2540
  224MOL0     H30846   3.838   3.681   7.305 -1.5469  0.2947  2.1744
  224MOL0     H30847   3.825   3.977   7.311 -1.1363 -0.1363  0.9220
  224MOL0     H30848   3.784   3.876   7.452  1.0398  2.9130  2.0956
  224MOL0     H30849   4.022   3.774   7.443  0.6002 -1.1943 -2.1232
  224MOL0     H30850   4.050   3.888   7.312 -0.5145  2.7170  0.9836
  224MOL0     H30851   4.129   3.999   7.520  0.2838 -0.6986  0.6254
  224MOL0     H30852   3.967   4.069   7.495 -4.6486 -1.2479  4.1197
  224MOL0     H30853   4.034   3.825   7.670  2.6644  0.3365  0.2472
  224MOL0     H30854   3.878   3.908   7.654 -0.1700  0.9241 -0.3088
  224MOL0     H30855   4.113   4.077   7.740  1.6322 -2.9136  0.2642
  224MOL0     H30856   3.939   4.101   7.726 -0.6374 -1.1730 -0.5076
  224MOL0     H30857   3.908   3.944   7.918 -0.7082  0.8656 -2.1668
  224MOL0     H30858   4.009   4.073   7.955 -0.2017  0.8248 -2.2118
  224MOL0     H30859   4.076   3.848   8.036 -1.3798  3.5809  0.2679
  224MOL0     H30860   4.109   3.782   7.872 -2.6667  0.4806 -1.3383
  224MOL0     H30861   4.248   4.057   8.113 -1.2383 -0.4651 -0.6135
  224MOL0     H30862   4.494   4.165   8.111  1.6099  0.9677 -3.0088
  224MOL0     H30863   4.622   4.094   8.035  1.2950  0.9744  2.6775
  224MOL0     H30864   4.662   4.030   8.265  1.3995 -1.2128  0.8108
  224MOL0     H30865   4.491   3.992   8.302 -1.2046 -0.4503 -2.0308
  224MOL0     H30866   4.502   3.786   8.173  0.4869 -1.2671  1.5064
  224MOL0     H30867   4.667   3.835   8.108 -0.3960  1.4814 -0.0927
  224MOL0     H30868   4.582   3.783   8.395  0.5976 -0.2852  0.7598
  224MOL0     H30869   4.660   3.661   8.280 -2.0411  0.4517 -3.2829
  224MOL0     H30870   4.934   3.948   8.504 -2.7198  0.6179  1.9605
  224MOL0     H30871   5.072   3.982   8.690 -3.1479 -1.7689 -2.9678
  224MOL0     H30872   5.210   3.864   8.690 -0.6455 -2.8893 -0.2187
  224MOL0     H30873   5.087   3.875   8.827 -1.4759  2.5844  0.3035
  224MOL0     H30874   5.357   3.318   8.722 -2.2360  1.0409 -0.4801
  224MOL0     H30875   5.455   3.164   8.903  2.0281  3.7645  2.4184
  224MOL0     H30876   5.315   3.244   9.291 -2.9105 -0.5201  1.1156
  224MOL0     H30877   5.220   3.091   9.288  0.0329 -1.1938 -1.2789
  224MOL0     H30878   5.351   3.090   9.477  1.2383 -2.0567  0.8922
  224MOL0     H30879   5.401   2.970   9.362  0.3647 -0.0421 -0.1500
  224MOL0     H30880   5.551   3.233   9.332 -3.9742  0.4961  0.7265
  224MOL0     H30881   5.585   3.075   9.268 -0.9363 -0.2042 -0.5412
  224MOL0     H30882   5.618   2.984   9.519 -1.7563  0.3871  0.9387
  224MOL0     H30883   5.606   3.153   9.560 -0.2194  0.9346 -1.3374
  224MOL0     H30884   5.800   3.022   9.353  0.0965  0.6269 -0.9224
  224MOL0     H30885   5.809   3.188   9.405 -3.3718  0.4853 -1.3467
  224MOL0     H30886   5.838   2.942   9.570  1.9090  0.1837 -1.3056
  224MOL0     H30887   5.849   3.103   9.651 -0.2066  0.1544  1.1477
  224MOL0     H30888   6.043   3.130   9.471 -2.1810 -1.0788 -0.8725
  224MOL0     H30889   6.035   2.950   9.463 -0.5023  0.8963 -2.7577
  224MOL0     H30890   6.072   2.963   9.732  1.2289 -0.3710  0.5651
  224MOL0     H30891   6.083   3.132   9.704 -0.2947  1.1705 -1.2088
  224MOL0     H30892   5.133   3.292   9.157 -3.1146 -1.1550 -0.5227
  224MOL0     H30893   5.027   3.406   8.981 -1.9922 -2.5415 -1.0197
  224MOL0     H30894   4.943   3.456   8.557  1.7920  0.0912  3.8582
  224MOL0     H30895   4.809   3.557   8.400  1.3067 -1.4010  0.3123
  224MOL0     H30896   3.480   3.923   7.259  1.1185 -1.5971  1.1191
  224MOL0     H30897   3.366   4.053   7.079 -0.5676 -0.2537 -2.1331
  224MOL0     H30898   3.471   4.197   6.639  0.0155 -1.6708 -0.2980
  224MOL0     H30899   3.418   4.329   6.442  0.0367  3.1896  0.5750
  224MOL0     H30900   3.391   4.527   6.373  0.0970 -2.2604 -1.0411
  224MOL0     H30901   3.323   4.457   6.228 -1.1145 -0.8961  0.8117
  224MOL0     H30902   3.143   4.651   6.255  0.1396  0.7149  0.5662
  224MOL0     H30903   3.312   4.684   6.197  0.4279 -1.0347 -0.5062
  224MOL0     H30904   3.182   4.834   6.383 -1.8134 -0.1895  0.0495
  224MOL0     H30905   3.224   4.699   6.482  1.8378 -0.1914  0.6701
  224MOL0     H30906   3.473   4.743   6.404 -0.5818 -1.1848 -0.1540
  224MOL0     H30907   3.406   4.871   6.498  0.0874 -2.0575  1.7460
  224MOL0     H30908   3.483   5.068   6.138 -1.8491  0.7808 -1.1069
  224MOL0     H30909   3.019   4.387   6.587 -2.5598 -3.9473  0.0703
  224MOL0     H30910   2.946   4.333   6.784  2.8058  1.8567  0.0450
  224MOL0     H30911   2.975   4.154   6.762  1.3969 -0.5808 -2.5701
  224MOL0     H30912   3.036   4.268   6.904 -0.4580  3.9633 -0.6149
  225MOL0     O30913   0.905   4.244   9.631 -0.4617 -0.1862 -0.4360
  225MOL0     C30914   0.903   4.225   9.757 -0.2569  0.4411 -0.9482
  225MOL0     O30915   1.001   4.267   9.848  0.2360  0.2638 -0.2108
  225MOL0     C30916   1.108   4.341   9.812 -0.8142 -0.1981  0.9559
  225MOL0     C30917   1.096   4.443   9.720 -0.3503 -0.0287  0.3484
  225MOL0     C30918   1.205   4.527   9.688  0.2572 -0.4317 -0.0788
  225MOL0     C30919   1.328   4.506   9.749 -0.0413  1.3358 -0.2662
  225MOL0     O30920   1.424   4.598   9.725  0.0297 -0.7827 -0.4495
  225MOL0     C30921   1.537   4.604   9.813  0.0398 -0.3319  0.5518
  225MOL0     C30922   1.622   4.729   9.781 -0.3815 -0.2732  0.4199
  225MOL0     C30923   1.703   4.706   9.647  1.0645 -0.4558 -0.0210
  225MOL0     C30924   1.854   4.666   9.666 -0.0065  0.2632 -0.0386
  225MOL0     C30925   1.945   4.777   9.618  0.3168  0.1011 -0.5462
  225MOL0     C30926   1.948   4.910   9.696  0.1398 -0.5643  0.2617
  225MOL0     C30927   2.044   5.002   9.638  0.1370 -0.4180  0.1310
  225MOL0     C30928   2.064   5.137   9.715  0.2366 -0.5918 -0.2380
  225MOL0     N30929   2.161   5.230   9.654  0.7385  0.0038  0.1307
  225MOL0     C30930   2.282   5.278   9.709  0.6150  0.3580  0.7236
  225MOL0     C30931   2.344   5.339   9.605  1.1775 -0.4526  0.0830
  225MOL0     C30932   2.487   5.389   9.597  0.7228 -0.0435 -0.6848
  225MOL0     C30933   2.512   5.507   9.497  0.0896  0.6102  0.1471
  225MOL0     C30934   2.653   5.551   9.477  0.2801 -0.2779  0.5309
  225MOL0     C30935   2.722   5.549   9.614 -0.8979  0.2637 -0.1707
  225MOL0     O30936   2.849   5.626   9.606 -1.1885  0.4666  0.2301
  225MOL0     C30937   2.915   5.646   9.722 -0.4350  0.2858  1.1562
  225MOL0     C30938   2.859   5.681   9.846  0.2953  0.1391  0.1508
  225MOL0     C30939   2.929   5.711   9.964 -0.1817  0.6127  0.7918
  225MOL0     C30940   2.857   5.752  10.091 -0.1308  0.3061 -0.0391
  225MOL0     C30941   3.070   5.702   9.941 -0.7874 -0.3373  0.2207
  225MOL0     C30942   3.162   5.722  10.051 -0.4800 -0.5175 -0.4103
  225MOL0     O30943   3.297   5.763  10.030  0.5411 -0.0321  0.7413
  225MOL0     C30944   3.381   5.779  10.137 -0.5640  0.4661 -0.3189
  225MOL0     C30945   3.508   5.721  10.145  0.4849  0.5169  1.1988
  225MOL0     C30946   3.584   5.736  10.261  0.0197  0.1717 -0.5965
  225MOL0     C30947   3.538   5.822  10.361  0.3367  0.0238  0.6235
  225MOL0     O30948   3.627   5.841  10.462  0.2688 -0.6597 -0.0592
  225MOL0     C30949   3.693   5.967  10.463  0.2470 -0.0026  0.0163
  225MOL0     C30950   3.810   5.958  10.563  0.5823 -0.4504 -0.5489
  225MOL0     C30951   3.927   5.880  10.502  0.3575 -0.2992 -0.2168
  225MOL0     C30952   4.057   5.894  10.579  0.7696 -0.6123  0.5092
  225MOL0     C30953   4.185   5.842  10.515  0.3442  1.3972 -0.1885
  225MOL0     C30954   4.234   5.913  10.387 -0.2299 -0.1986 -1.0745
  225MOL0     C30955   4.333   5.818  10.315  0.2811 -0.1094 -1.0631
  225MOL0     C30956   4.388   5.884  10.186  0.4587 -0.1386 -1.1227
  225MOL0    Cl30957   4.268   5.947  10.065 -0.1305  0.1163  0.0594
  225MOL0     C30958   3.409   5.882  10.357  0.0445 -0.7392 -0.2526
  225MOL0     C30959   3.330   5.863  10.239  0.6343  0.0620 -0.3995
  225MOL0     O30960   3.119   5.684  10.158 -0.3673 -0.7439  0.4810
  225MOL0     C30961   3.130   5.686   9.813 -0.2859  0.8543 -0.1324
  225MOL0     C30962   3.050   5.648   9.706  0.6843  0.5606 -0.3888
  225MOL0     N30963   2.263   5.327   9.493 -0.1744  1.0973  0.6746
  225MOL0     N30964   2.154   5.262   9.522 -0.0783 -0.3549  0.0546
  225MOL0     C30965   1.337   4.395   9.838 -0.9137 -0.2916 -0.8766
  225MOL0     C30966   1.234   4.311   9.868  0.4942 -0.0722 -0.0284
  225MOL0     C30967   0.801   4.124   9.811 -0.2827 -0.7553 -0.1351
  225MOL0     C30968   0.842   4.040   9.917  0.2805  0.8293  0.1330
  225MOL0     C30969   0.750   3.943   9.966  0.3410  0.0907 -0.3884
  225MOL0     C30970   0.625   3.923   9.914  0.8233 -0.5198 -0.7284
  225MOL0     O30971   0.550   3.825   9.971  0.4597 -0.1219 -0.7261
  225MOL0     C30972   0.426   3.779   9.897  1.0091  0.0373 -0.2268
  225MOL0     C30973   0.379   3.645   9.957  1.0304 -0.8211 -0.1946
  225MOL0     C30974   0.476   3.524   9.935  0.8938 -0.1596 -0.2037
  225MOL0     C30975   0.605   3.529  10.011  0.1649  0.2465 -0.3789
  225MOL0     C30976   0.646   3.386  10.034  0.7479 -1.1031  0.5164
  225MOL0     C30977   0.691   3.276  10.065  0.4115  0.4006  0.5928
  225MOL0     C30978   0.589   4.007   9.811  0.0126  0.3798  0.2495
  225MOL0     C30979   0.670   4.103   9.751 -0.6950 -0.0835  0.1626
  225MOL0     C30980   0.620   4.182   9.628  0.3420  0.1212  0.3774
  225MOL0     H30981   1.000   4.475   9.680  0.9681  4.9807  0.6032
  225MOL0     H30982   1.203   4.612   9.621  4.6084  1.3874  1.7228
  225MOL0     H30983   1.602   4.517   9.799  0.3801 -0.2356  1.4620
  225MOL0     H30984   1.506   4.621   9.916  0.6692  3.8832  0.2000
  225MOL0     H30985   1.564   4.821   9.771 -0.8101 -0.6993 -1.2393
  225MOL0     H30986   1.689   4.751   9.864 -0.2116  2.2085 -0.3151
  225MOL0     H30987   1.658   4.624   9.590 -0.0736  0.8836 -1.0994
  225MOL0     H30988   1.684   4.791   9.581 -0.2241 -0.2504  0.5982
  225MOL0     H30989   1.881   4.640   9.769 -2.4621  0.2667  0.6870
  225MOL0     H30990   1.874   4.577   9.605  0.2374  0.6029 -0.4629
  225MOL0     H30991   1.910   4.797   9.516  1.3935  1.0867 -0.7496
  225MOL0     H30992   2.047   4.737   9.613 -0.0632 -1.1669  1.0625
  225MOL0     H30993   1.850   4.959   9.691  1.2210  1.6435 -3.5247
  225MOL0     H30994   1.977   4.887   9.799  0.0852  1.2659  0.7239
  225MOL0     H30995   2.030   5.042   9.537  7.0887  3.9295  0.2319
  225MOL0     H30996   2.143   4.956   9.631  1.0786  1.1160  2.2876
  225MOL0     H30997   1.968   5.189   9.721  0.6620  0.0528  1.4061
  225MOL0     H30998   2.091   5.115   9.818  0.5344  0.1587 -0.1505
  225MOL0     H30999   2.317   5.252   9.809  0.0970  1.3311  1.1695
  225MOL0     H31000   2.556   5.306   9.581  1.0927  0.3175 -0.9837
  225MOL0     H31001   2.515   5.419   9.699 -1.5659 -0.3175  0.1013
  225MOL0     H31002   2.463   5.484   9.402 -0.4734  0.6994  0.4115
  225MOL0     H31003   2.463   5.601   9.528 -0.5104  0.6031 -0.7251
  225MOL0     H31004   2.710   5.489   9.408 -1.6260  0.3567 -1.7506
  225MOL0     H31005   2.649   5.656   9.444 -1.1776 -1.1546 -2.5074
  225MOL0     H31006   2.657   5.586   9.695 -1.2563  1.5570 -1.0211
  225MOL0     H31007   2.756   5.447   9.632  0.0470  0.7913  1.2659
  225MOL0     H31008   2.751   5.668   9.850  0.4680 -2.6730 -1.4586
  225MOL0     H31009   2.755   5.777  10.062 -2.4262 -3.8725  3.2405
  225MOL0     H31010   2.906   5.834  10.144  1.9603 -1.0182  0.1799
  225MOL0     H31011   2.843   5.669  10.161 -2.7850  1.5424  1.0343
  225MOL0     H31012   3.542   5.663  10.060  2.0561  1.1100  1.4028
  225MOL0     H31013   3.680   5.687  10.266  1.5259  2.8114 -1.5664
  225MOL0     H31014   3.731   6.002  10.366 -0.3104  1.7420  0.3851
  225MOL0     H31015   3.628   6.050  10.495  1.3842  1.7864 -2.0561
  225MOL0     H31016   3.840   6.063  10.575 -0.5909 -0.2425  0.7759
  225MOL0     H31017   3.764   5.922  10.655 -1.3785  2.0313 -0.4253
  225MOL0     H31018   3.940   5.921  10.401 -0.6833  0.4435 -0.0655
  225MOL0     H31019   3.907   5.773  10.497 -3.2641  0.1295  1.5920
  225MOL0     H31020   4.044   5.842  10.675 -2.6679 -2.4534 -0.7817
  225MOL0     H31021   4.071   6.000  10.601 -0.7767 -0.4774  1.0139
  225MOL0     H31022   4.256   5.828  10.598  0.1061 -4.8596 -0.5931
  225MOL0     H31023   4.155   5.744  10.476  2.8137  0.7527 -0.6779
  225MOL0     H31024   4.281   6.007  10.417  2.9400 -2.1526  0.5464
  225MOL0     H31025   4.157   5.937  10.312 -0.9491  1.0502  0.0087
  225MOL0     H31026   4.279   5.725  10.297 -1.7777  0.7772  0.2135
  225MOL0     H31027   4.415   5.797  10.384  1.0701 -2.0160 -2.4922
  225MOL0     H31028   4.448   5.809  10.133  2.5466 -0.0421  0.9197
  225MOL0     H31029   4.455   5.966  10.212 -0.8135  0.0596  1.8903
  225MOL0     H31030   3.375   5.956  10.429  0.3738  1.1210 -1.9134
  225MOL0     H31031   3.241   5.923  10.222  0.3717 -0.3788 -0.5987
  225MOL0     H31032   3.236   5.674   9.794 -0.6421 -2.7669 -0.5355
  225MOL0     H31033   3.102   5.620   9.615  0.8989 -0.9835  0.1701
  225MOL0     H31034   1.429   4.365   9.888 -0.9503 -1.7287 -1.6231
  225MOL0     H31035   1.250   4.227   9.934  1.9485  0.4303  0.2890
  225MOL0     H31036   0.936   4.049   9.970  0.5919 -2.6157  0.4060
  225MOL0     H31037   0.773   3.893  10.060 -3.0296  0.0761  0.5410
  225MOL0     H31038   0.347   3.854   9.903  0.2411 -0.8254  1.1350
  225MOL0     H31039   0.455   3.760   9.794  0.7808  0.5049 -0.3761
  225MOL0     H31040   0.283   3.622   9.910  1.0740 -1.3960 -0.0165
  225MOL0     H31041   0.362   3.653  10.064 -0.6748  1.6538 -0.5650
  225MOL0     H31042   0.416   3.439   9.972  1.5465 -0.2050  0.7869
  225MOL0     H31043   0.504   3.502   9.832  2.7691  2.5611 -0.3673
  225MOL0     H31044   0.592   3.582  10.106 -0.1109  2.9922 -1.8474
  225MOL0     H31045   0.680   3.592   9.961 -1.1923  3.1880  1.0545
  225MOL0     H31046   0.719   3.173  10.076  2.5881  0.6182 -1.8121
  225MOL0     H31047   0.487   3.999   9.773 -0.1698 -0.8939  0.9444
  225MOL0     H31048   0.654   4.285   9.644  0.8983 -0.4994  3.7941
  225MOL0     H31049   0.650   4.141   9.531 -1.8373 -0.3109 -0.1508
  225MOL0     H31050   0.511   4.186   9.631  0.2980 -0.5824 -0.0932
  226MOL0     O31051   3.207   4.886   9.681 -0.4481  0.2621 -0.2048
  226MOL0     C31052   3.207   4.899   9.559 -0.0784 -1.1651 -0.2232
  226MOL0     O31053   3.265   4.997   9.490  0.3300 -0.0525  0.0453
  226MOL0     C31054   3.288   5.120   9.542  0.2675 -0.0885  0.0968
  226MOL0     C31055   3.224   5.187   9.649  0.5453 -0.6183  0.2932
  226MOL0     C31056   3.263   5.327   9.678 -0.5776  0.2976  0.2843
  226MOL0     C31057   3.366   5.385   9.602 -1.2143 -0.6511  0.4379
  226MOL0     O31058   3.397   5.517   9.647 -0.7960  0.4608  0.4265
  226MOL0     C31059   3.476   5.602   9.558 -0.5460 -0.7102 -0.1861
  226MOL0     C31060   3.469   5.738   9.616  0.4998 -0.9535  0.7410
  226MOL0     C31061   3.523   5.761   9.762  0.5773  0.6133  0.0024
  226MOL0     C31062   3.641   5.855   9.753  0.3932 -0.2064 -0.9090
  226MOL0     C31063   3.700   5.875   9.899 -0.5997  0.2515  1.2074
  226MOL0     C31064   3.831   5.956   9.890  0.2514 -0.8672 -0.6389
  226MOL0     C31065   3.881   6.002  10.031 -0.0348  0.0105  0.0564
  226MOL0     C31066   3.951   6.140  10.018 -0.0469 -0.6130 -0.3093
  226MOL0     N31067   3.981   6.192  10.157  0.6462 -1.0238  0.4117
  226MOL0     C31068   4.104   6.215  10.210 -0.2410 -0.0860 -0.5209
  226MOL0     C31069   4.081   6.245  10.340  0.3931 -0.4267 -0.1920
  226MOL0     C31070   4.172   6.288  10.452 -0.3394  0.6496 -0.2390
  226MOL0     C31071   4.311   6.309  10.395 -0.5770  0.0582 -1.3818
  226MOL0     C31072   4.398   6.382  10.503 -0.5293  0.4869  0.4770
  226MOL0     C31073   4.453   6.294  10.620 -0.9500 -0.5155 -0.0614
  226MOL0     O31074   4.517   6.179  10.570  0.1594 -0.0879  0.1502
  226MOL0     C31075   4.531   6.075  10.664  0.0809 -0.3856 -0.2955
  226MOL0     C31076   4.558   5.945  10.621 -0.1508  0.5426 -0.0073
  226MOL0     C31077   4.582   5.836  10.709  0.0252  1.4727  0.2488
  226MOL0     C31078   4.622   5.699  10.653 -0.1916  0.2778  0.1859
  226MOL0     C31079   4.563   5.859  10.850  0.0222 -0.5493  0.1997
  226MOL0     C31080   4.590   5.756  10.955  0.0156  1.4843 -0.0443
  226MOL0     O31081   4.709   5.744  11.020 -0.1945  0.8802 -1.1941
  226MOL0     C31082   4.815   5.828  10.995 -0.5881 -0.3313  0.1143
  226MOL0     C31083   4.843   5.943  11.074  0.2000 -0.8909 -0.2870
  226MOL0     C31084   4.954   6.028  11.051 -0.2735  0.7451 -0.0509
  226MOL0     C31085   5.038   5.999  10.942  0.5270 -0.6219  0.1520
  226MOL0     O31086   5.147   6.062  10.898  0.1361  0.2689  0.6662
  226MOL0     C31087   5.163   6.200  10.920 -0.1898  0.0093 -0.5567
  226MOL0     C31088   5.295   6.250  10.862 -0.3132 -0.1743 -0.0700
  226MOL0     C31089   5.293   6.403  10.875 -1.1703 -0.6251 -0.0804
  226MOL0     C31090   5.435   6.459  10.864 -0.0065  0.6212 -0.3935
  226MOL0     C31091   5.500   6.397  10.728  0.0347 -0.0564 -0.1998
  226MOL0     C31092   5.645   6.449  10.714 -0.5698  0.0877  0.2747
  226MOL0     C31093   5.700   6.403  10.573  1.1766 -0.5840 -0.3775
  226MOL0     C31094   5.800   6.284  10.574 -0.3343 -0.6414  0.1939
  226MOL0    Cl31095   5.944   6.304  10.681  0.3474  0.3203  0.3732
  226MOL0     C31096   5.016   5.885  10.863  0.2601 -0.3121 -0.1866
  226MOL0     C31097   4.905   5.801  10.893 -0.1734 -0.1966 -0.2459
  226MOL0     O31098   4.488   5.695  10.987 -0.7451  0.8025 -0.1066
  226MOL0     C31099   4.548   5.989  10.893 -0.1748  0.7346 -0.0304
  226MOL0     C31100   4.521   6.092  10.804  0.1770 -0.2572 -0.2259
  226MOL0     N31101   3.938   6.244  10.366 -1.1635  0.2427  0.8763
  226MOL0     N31102   3.881   6.216  10.250 -0.2128  0.3081 -1.1351
  226MOL0     C31103   3.428   5.320   9.493  0.2199 -0.0264  0.2221
  226MOL0     C31104   3.380   5.189   9.471 -0.6310  0.0901  0.2361
  226MOL0     C31105   3.165   4.781   9.469  0.4557  0.4342  0.1781
  226MOL0     C31106   3.212   4.785   9.336  0.8849 -0.6226 -0.0096
  226MOL0     C31107   3.166   4.691   9.243  0.1639 -0.4645  0.5990
  226MOL0     C31108   3.092   4.578   9.288  0.3598  0.1958  0.5678
  226MOL0     O31109   3.047   4.481   9.204  0.1648 -0.4199  0.5648
  226MOL0     C31110   3.062   4.474   9.066 -0.3062 -0.5314  1.0750
  226MOL0     C31111   2.977   4.376   8.996  0.8795 -0.2085  0.1755
  226MOL0     C31112   2.988   4.360   8.846  1.2503  0.2306 -0.6639
  226MOL0     C31113   2.851   4.292   8.795 -0.0644 -0.8661  0.1101
  226MOL0     C31114   2.845   4.266   8.648 -0.6761 -1.1116  0.0575
  226MOL0     C31115   2.839   4.252   8.528  0.4023 -0.1086  0.6863
  226MOL0     C31116   3.045   4.575   9.414  0.0747  0.0775 -0.1419
  226MOL0     C31117   3.074   4.674   9.515 -0.9667 -0.5423  0.4620
  226MOL0     C31118   3.003   4.665   9.643  0.3973  0.0113 -0.3342
  226MOL0     H31119   3.148   5.131   9.703 -2.4742 -0.9386 -3.8846
  226MOL0     H31120   3.220   5.377   9.764 -0.8388 -1.3533  1.1592
  226MOL0     H31121   3.432   5.589   9.458 -1.2966  0.8651 -0.0939
  226MOL0     H31122   3.583   5.579   9.559 -0.0473  1.3151 -0.8772
  226MOL0     H31123   3.508   5.809   9.543  2.5691 -1.8917  0.8725
  226MOL0     H31124   3.361   5.756   9.613  0.7121  0.3227  0.1101
  226MOL0     H31125   3.448   5.794   9.834  0.3818 -1.0109  0.5897
  226MOL0     H31126   3.551   5.669   9.814 -0.4577  0.2368 -0.0846
  226MOL0     H31127   3.729   5.820   9.698  1.6560  0.0803  0.8411
  226MOL0     H31128   3.603   5.945   9.703 -0.4473  1.0186  1.7501
  226MOL0     H31129   3.725   5.787   9.959  0.7442 -0.8642 -0.8704
  226MOL0     H31130   3.629   5.940   9.952 -1.2936  2.5553 -2.2417
  226MOL0     H31131   3.912   5.901   9.842  1.7556  0.6093  0.1250
  226MOL0     H31132   3.805   6.043   9.828  0.9517 -0.4422 -0.3495
  226MOL0     H31133   3.948   5.934  10.084 -0.8586 -2.2179 -1.6136
  226MOL0     H31134   3.794   6.020  10.096 -0.1873 -1.6133  0.3239
  226MOL0     H31135   4.041   6.131   9.957  2.2724  0.3308  2.7390
  226MOL0     H31136   3.894   6.216   9.963  1.6559  0.0193 -1.2905
  226MOL0     H31137   4.201   6.218  10.160 -1.2132 -2.5219 -2.7670
  226MOL0     H31138   4.165   6.207  10.526 -2.3424  1.3583  0.4100
  226MOL0     H31139   4.140   6.382  10.497  3.4891  1.9357  0.0842
  226MOL0     H31140   4.362   6.218  10.363  0.9803 -0.4584  2.0423
  226MOL0     H31141   4.305   6.370  10.305  2.7334  1.8958 -0.5447
  226MOL0     H31142   4.483   6.427  10.452 -0.3115 -0.0005  0.4015
  226MOL0     H31143   4.346   6.466  10.550  0.3131  1.2556  0.0691
  226MOL0     H31144   4.522   6.361  10.671 -1.2771  1.7462 -2.3982
  226MOL0     H31145   4.374   6.269  10.692  1.1487 -0.7927  2.2827
  226MOL0     H31146   4.557   5.931  10.513  1.0002 -2.8282  0.3128
  226MOL0     H31147   4.730   5.687  10.647 -0.3149 -1.5192  0.9381
  226MOL0     H31148   4.582   5.690  10.551  0.2053  3.3245 -0.3249
  226MOL0     H31149   4.573   5.621  10.712 -2.1379  0.0280 -1.5915
  226MOL0     H31150   4.785   5.966  11.163  0.0504  3.3188 -1.2454
  226MOL0     H31151   4.974   6.119  11.106 -2.8413  1.2769  0.1020
  226MOL0     H31152   5.076   6.254  10.879 -0.7195  1.6648  2.4045
  226MOL0     H31153   5.174   6.220  11.027 -1.2960 -0.0866 -0.4076
  226MOL0     H31154   5.378   6.210  10.922 -3.4048 -2.1671  3.3314
  226MOL0     H31155   5.299   6.224  10.756 -3.0886 -0.1417 -0.2595
  226MOL0     H31156   5.261   6.440  10.973  0.3618  0.3411  0.0936
  226MOL0     H31157   5.237   6.441  10.789 -0.1040  0.3745 -0.3676
  226MOL0     H31158   5.499   6.424  10.945  0.2064  1.7742 -0.0611
  226MOL0     H31159   5.438   6.568  10.861 -1.1718  0.7206  1.0563
  226MOL0     H31160   5.505   6.288  10.734 -0.0821 -0.0363  0.2650
  226MOL0     H31161   5.434   6.424  10.644 -2.1795 -1.5370  0.9793
  226MOL0     H31162   5.702   6.402  10.794 -0.2871 -0.5626 -0.2990
  226MOL0     H31163   5.657   6.558  10.725  4.5357 -0.0568 -1.4956
  226MOL0     H31164   5.744   6.495  10.533 -2.7426  2.3411  1.3544
  226MOL0     H31165   5.619   6.379  10.503 -0.5753  0.7784  1.0488
  226MOL0     H31166   5.826   6.270  10.468  1.4802  0.1473  0.4993
  226MOL0     H31167   5.746   6.192  10.599 -2.3389  0.5771  0.5861
  226MOL0     H31168   5.078   5.863  10.777 -2.0173  1.9525 -2.5860
  226MOL0     H31169   4.894   5.708  10.838 -1.8430 -1.0580  1.4492
  226MOL0     H31170   4.573   6.009  10.996  1.1880  1.0000 -0.3931
  226MOL0     H31171   4.501   6.190  10.846 -1.7662 -0.4041 -0.7098
  226MOL0     H31172   3.502   5.368   9.430 -0.6654 -0.5599 -1.2962
  226MOL0     H31173   3.407   5.137   9.380  2.1577 -0.9573  1.5377
  226MOL0     H31174   3.261   4.873   9.295  0.9263  0.8067  2.8735
  226MOL0     H31175   3.180   4.708   9.137 -0.2854  2.0521  0.9040
  226MOL0     H31176   3.058   4.568   9.010  2.0319 -2.4631 -2.7219
  226MOL0     H31177   3.166   4.445   9.046 -0.6514 -0.7171 -0.6079
  226MOL0     H31178   2.872   4.408   9.004  1.0884  1.2408 -2.0529
  226MOL0     H31179   2.985   4.282   9.051  0.5944 -0.7682 -0.7124
  226MOL0     H31180   3.013   4.455   8.797 -2.6503  3.6337  3.0880
  226MOL0     H31181   3.075   4.296   8.828  2.2108  0.9854  1.1097
  226MOL0     H31182   2.775   4.370   8.800 -0.1907 -0.6516 -3.1805
  226MOL0     H31183   2.822   4.210   8.861 -1.1240  0.7127  1.6936
  226MOL0     H31184   2.816   4.244   8.424 -2.8727  3.1821  0.9418
  226MOL0     H31185   2.979   4.492   9.436 -0.2778 -0.3667 -2.6160
  226MOL0     H31186   3.053   4.603   9.717 -1.9696 -0.3940  1.0401
  226MOL0     H31187   2.999   4.764   9.689  0.5180 -0.8673  1.6700
  226MOL0     H31188   2.906   4.622   9.615  1.1706 -1.8805 -0.2765
  227MOL0     O31189   5.620   7.551  10.772  0.4713 -0.1459  0.0801
  227MOL0     C31190   5.586   7.624  10.684 -0.3264 -0.8857 -0.0005
  227MOL0     O31191   5.667   7.683  10.590  0.3925  0.4194  0.4175
  227MOL0     C31192   5.795   7.639  10.576 -0.2812 -0.4223  0.1863
  227MOL0     C31193   5.828   7.513  10.519 -0.4182  1.0795 -0.0259
  227MOL0     C31194   5.961   7.485  10.495 -0.1018 -0.5904 -0.5849
  227MOL0     C31195   6.058   7.580  10.508 -0.0305 -0.7220 -0.3423
  227MOL0     O31196   6.191   7.544  10.471  0.3859 -0.0074 -0.0647
  227MOL0     C31197   6.299   7.605  10.540  0.6346  0.5190 -0.1395
  227MOL0     C31198   6.412   7.626  10.448 -0.1315  0.6365  0.1591
  227MOL0     C31199   6.469   7.492  10.405  0.0737  0.7240  0.1835
  227MOL0     C31200   6.600   7.501  10.336  0.1629 -0.2278 -0.2310
  227MOL0     C31201   6.644   7.372  10.277 -0.1253 -0.2454 -0.6120
  227MOL0     C31202   6.702   7.281  10.391  0.4335  0.0097  0.0681
  227MOL0     C31203   6.857   7.270  10.414  0.1916 -0.0607 -0.3233
  227MOL0     C31204   6.940   7.207  10.296  0.5549 -0.4994  0.4018
  227MOL0     N31205   7.081   7.241  10.279  0.0607 -0.2208  0.0497
  227MOL0     C31206   7.129   7.336  10.189 -0.1458  0.2649  0.3305
  227MOL0     C31207   7.263   7.303  10.182  0.1659 -0.4905  0.4586
  227MOL0     C31208   7.382   7.355  10.096  0.6199 -0.3057  0.2194
  227MOL0     C31209   7.504   7.392  10.180 -0.1707  0.7113  0.6162
  227MOL0     C31210   7.456   7.508  10.272 -0.0753 -0.2293 -1.0357
  227MOL0     C31211   7.580   7.571  10.346  0.2452  0.7804  0.0361
  227MOL0     O31212   7.622   7.685  10.276 -0.4129  0.2548  0.1394
  227MOL0     C31213   7.750   7.738  10.263  0.3884 -0.6103  0.3672
  227MOL0     C31214   7.752   7.858  10.194  1.2428 -1.3952 -0.0390
  227MOL0     C31215   7.867   7.919  10.157 -0.0161 -0.7534  0.2991
  227MOL0     C31216   7.854   8.049  10.073 -0.1338  1.2747 -0.3591
  227MOL0     C31217   7.986   7.878  10.210 -0.6143  0.2186 -0.3249
  227MOL0     C31218   8.111   7.963  10.216  0.1934  0.2377  0.7829
  227MOL0     O31219   8.222   7.898  10.269 -0.7347 -0.3461 -0.3519
  227MOL0     C31220   8.351   7.924  10.220 -0.5338  0.6812 -0.1255
  227MOL0     C31221   8.375   7.966  10.087  0.7536  0.6240 -0.2220
  227MOL0     C31222   8.507   7.987  10.049  0.0032  0.2354  0.2175
  227MOL0     C31223   8.622   7.958  10.128  0.6068 -0.4333 -0.5354
  227MOL0     O31224   8.751   7.957  10.084  0.5092 -0.4445 -0.1977
  227MOL0     C31225   8.783   8.037   9.972  0.8568 -0.2674 -0.4469
  227MOL0     C31226   8.782   8.189   9.996  0.1274  0.2387 -0.1014
  227MOL0     C31227   8.888   8.238  10.091 -0.6451  1.0156 -0.2840
  227MOL0     C31228   8.886   8.392  10.111  0.1983 -0.9500  0.4525
  227MOL0     C31229   8.999   8.462  10.182  0.4471 -0.0923 -1.2307
  227MOL0     C31230   9.015   8.422  10.331  0.2904 -0.7340  0.0640
  227MOL0     C31231   9.134   8.500  10.381  0.0594 -0.1773 -0.5526
  227MOL0     C31232   9.220   8.418  10.482 -0.4760  0.4216 -0.3725
  227MOL0    Cl31233   9.110   8.357  10.618  0.1335  0.0607 -0.2624
  227MOL0     C31234   8.585   7.911  10.253 -0.5451 -0.1269  0.1846
  227MOL0     C31235   8.454   7.900  10.305 -0.1861 -0.0046  0.9731
  227MOL0     O31236   8.111   8.079  10.173 -0.1655 -0.0850 -0.5702
  227MOL0     C31237   7.980   7.755  10.279  0.0498  0.8940  0.1740
  227MOL0     C31238   7.863   7.675  10.296 -0.2782  0.0783 -0.5716
  227MOL0     N31239   7.290   7.204  10.268  0.5619 -0.4502 -0.3906
  227MOL0     N31240   7.178   7.177  10.331 -0.8026  0.0690 -0.6379
  227MOL0     C31241   6.024   7.712  10.537  0.3739 -0.6589  0.3465
  227MOL0     C31242   5.894   7.738  10.582  0.1819 -0.1795 -0.3684
  227MOL0     C31243   5.441   7.673  10.695  0.8204 -0.5928 -0.0357
  227MOL0     C31244   5.353   7.600  10.776  0.4377 -0.6781  0.3747
  227MOL0     C31245   5.219   7.640  10.785  0.4004 -0.2364  0.3606
  227MOL0     C31246   5.172   7.767  10.735  1.6242  0.1912  1.7566
  227MOL0     O31247   5.035   7.795  10.739 -0.1555  0.2644 -0.1540
  227MOL0     C31248   4.996   7.896  10.639 -0.2035 -0.6614  0.3834
  227MOL0     C31249   4.845   7.933  10.634  0.0752 -0.1592  0.1716
  227MOL0     C31250   4.784   7.964  10.774  0.2032  0.3759  0.3896
  227MOL0     C31251   4.860   8.083  10.834  0.2804  0.3712 -0.2009
  227MOL0     C31252   4.802   8.126  10.963  0.3887 -0.0758 -0.0864
  227MOL0     C31253   4.736   8.162  11.059 -0.2521 -0.7265 -0.0053
  227MOL0     C31254   5.263   7.845  10.671 -0.9556  0.5535 -0.2407
  227MOL0     C31255   5.394   7.799  10.642 -0.5302 -1.1457 -0.0852
  227MOL0     C31256   5.468   7.892  10.554 -0.1942 -0.4778 -1.0867
  227MOL0     H31257   5.753   7.434  10.511 -1.4792  1.8273  1.7678
  227MOL0     H31258   5.984   7.380  10.480 -0.0627 -0.7704  0.6680
  227MOL0     H31259   6.323   7.543  10.627 -0.5409 -2.5145 -1.8074
  227MOL0     H31260   6.273   7.701  10.586 -0.3192  0.3436 -0.3050
  227MOL0     H31261   6.369   7.680  10.364 -0.9885  1.0984  0.8697
  227MOL0     H31262   6.491   7.688  10.492 -0.0902  1.7243 -1.3771
  227MOL0     H31263   6.472   7.420  10.486  1.7084  0.8817  0.2962
  227MOL0     H31264   6.404   7.448  10.329  2.0566 -0.1905 -1.0839
  227MOL0     H31265   6.576   7.571  10.256  1.5048  0.9868  0.3881
  227MOL0     H31266   6.679   7.546  10.396 -0.4190  0.7873 -0.1881
  227MOL0     H31267   6.721   7.388  10.201  0.3658 -2.8669 -0.7299
  227MOL0     H31268   6.559   7.337  10.217 -0.3229  0.2959 -0.6596
  227MOL0     H31269   6.655   7.290  10.490  0.9083  1.1503  0.2065
  227MOL0     H31270   6.676   7.181  10.355 -0.0875  0.3897 -0.6209
  227MOL0     H31271   6.882   7.212  10.503  0.2047 -1.6551 -1.3141
  227MOL0     H31272   6.902   7.369  10.424  0.5465 -0.1773 -0.7328
  227MOL0     H31273   6.932   7.098  10.303 -2.4249 -0.2470  4.9966
  227MOL0     H31274   6.889   7.218  10.200 -0.6419 -1.2958  0.9305
  227MOL0     H31275   7.078   7.392  10.112 -0.0930  0.1472  0.2098
  227MOL0     H31276   7.340   7.431  10.029  0.2343  0.6214  1.4837
  227MOL0     H31277   7.400   7.276  10.022 -2.2943 -0.6195 -0.2925
  227MOL0     H31278   7.535   7.305  10.240 -0.5446  0.4551  0.4393
  227MOL0     H31279   7.587   7.432  10.121 -0.2395  1.4414  0.9949
  227MOL0     H31280   7.406   7.580  10.206  2.4482  0.2133 -2.5906
  227MOL0     H31281   7.392   7.471  10.353 -0.0311  0.9905 -0.4118
  227MOL0     H31282   7.553   7.582  10.451 -0.0376 -1.1616  0.2002
  227MOL0     H31283   7.653   7.490  10.348  0.3968  0.8810  2.9284
  227MOL0     H31284   7.655   7.900  10.171  0.4255 -2.6232  0.9851
  227MOL0     H31285   7.767   8.047  10.006 -0.6400  2.5278  0.2317
  227MOL0     H31286   7.940   8.067  10.009 -0.5826  0.6603 -1.1609
  227MOL0     H31287   7.839   8.133  10.141 -0.7634  1.0539 -0.2093
  227MOL0     H31288   8.286   7.993  10.032  0.6624  0.9909  0.1043
  227MOL0     H31289   8.511   8.023   9.947 -0.9856 -1.3828 -0.4254
  227MOL0     H31290   8.880   8.002   9.934  1.7746 -2.3089  3.2682
  227MOL0     H31291   8.705   8.009   9.901 -0.5138 -0.1830  0.9581
  227MOL0     H31292   8.801   8.241   9.903  0.4980  1.0330  0.4109
  227MOL0     H31293   8.683   8.227  10.023 -0.5293 -1.8407  0.6796
  227MOL0     H31294   8.983   8.213  10.044 -1.4887  1.2617 -2.2506
  227MOL0     H31295   8.885   8.194  10.191  0.5679  0.8519 -0.3093
  227MOL0     H31296   8.788   8.410  10.156  0.6691  1.7731  0.5126
  227MOL0     H31297   8.865   8.441  10.016 -0.3759  2.5913  2.2599
  227MOL0     H31298   9.087   8.441  10.120  0.6991 -0.1362 -0.8589
  227MOL0     H31299   8.985   8.569  10.164  1.2671  0.5212  1.4235
  227MOL0     H31300   9.041   8.316  10.337  0.9696 -0.5746  0.0563
  227MOL0     H31301   8.928   8.437  10.395  1.2895  0.8833  1.0974
  227MOL0     H31302   9.104   8.588  10.438 -0.6991 -1.5285  1.2564
  227MOL0     H31303   9.194   8.539  10.299  0.2416  0.4930 -0.0996
  227MOL0     H31304   9.302   8.474  10.527  1.0595 -3.0584  1.6383
  227MOL0     H31305   9.264   8.340  10.420  0.4438  0.4543  0.2256
  227MOL0     H31306   8.670   7.883  10.315 -0.5018 -0.2407  0.0753
  227MOL0     H31307   8.444   7.873  10.409  2.0191  1.0692  1.5276
  227MOL0     H31308   8.067   7.709  10.324 -0.6026  0.6937  1.2618
  227MOL0     H31309   7.867   7.576  10.341 -1.6149  1.1634  2.1650
  227MOL0     H31310   6.084   7.802  10.528 -0.9666  0.6808  3.3183
  227MOL0     H31311   5.870   7.842  10.605  0.2072  0.0502 -1.3432
  227MOL0     H31312   5.384   7.500  10.804  1.7180 -0.8872 -1.5711
  227MOL0     H31313   5.141   7.589  10.842  1.7040 -2.0818  0.5666
  227MOL0     H31314   5.046   7.991  10.657  0.0036 -0.7798  0.4445
  227MOL0     H31315   5.021   7.870  10.535 -1.0046 -1.1530  0.3031
  227MOL0     H31316   4.796   7.840  10.602  1.5155 -0.3360 -1.6820
  227MOL0     H31317   4.824   8.013  10.563  1.3375  1.5047  1.5933
  227MOL0     H31318   4.676   7.980  10.784  0.3798  1.0990  1.3263
  227MOL0     H31319   4.810   7.875  10.832 -0.0588 -0.5050 -0.8116
  227MOL0     H31320   4.871   8.166  10.764 -1.2773 -0.9526 -2.1574
  227MOL0     H31321   4.962   8.054  10.864 -0.8813 -0.9558  2.9200
  227MOL0     H31322   4.672   8.207  11.132  0.1327  3.2192 -1.8204
  227MOL0     H31323   5.248   7.946  10.635  0.8528  0.6180 -0.9261
  227MOL0     H31324   5.492   7.825  10.471 -3.2411 -1.0501 -1.6141
  227MOL0     H31325   5.412   7.984  10.531 -2.9829 -2.7686 -4.4048
  227MOL0     H31326   5.567   7.927  10.586 -0.9118  0.8182 -0.2005
  228MOL0     O31327   3.510   2.593   5.720  0.7865  0.3769  0.4314
  228MOL0     C31328   3.475   2.528   5.819 -0.8355  0.0804  0.3588
  228MOL0     O31329   3.540   2.425   5.884  0.1440  0.4306  0.5148
  228MOL0     C31330   3.662   2.382   5.843 -0.3837 -0.0101 -0.4523
  228MOL0     C31331   3.760   2.340   5.934 -0.2821  0.0517 -0.4581
  228MOL0     C31332   3.891   2.304   5.896 -0.0959  0.5418  0.2040
  228MOL0     C31333   3.933   2.299   5.756  1.4840 -0.1539 -0.3730
  228MOL0     O31334   4.051   2.256   5.700  0.3307  0.1767 -0.1031
  228MOL0     C31335   4.163   2.253   5.786 -0.2381  0.1600 -0.0881
  228MOL0     C31336   4.297   2.280   5.716 -0.0892  0.6799 -0.0353
  228MOL0     C31337   4.323   2.205   5.583 -0.4709 -0.6635  0.6521
  228MOL0     C31338   4.455   2.252   5.516  0.5608 -0.1122  0.4010
  228MOL0     C31339   4.490   2.164   5.391  0.2073  0.3110  0.3119
  228MOL0     C31340   4.594   2.233   5.306 -0.3296 -0.9060 -0.1748
  228MOL0     C31341   4.629   2.159   5.175  0.3086 -0.0472  0.6299
  228MOL0     C31342   4.758   2.220   5.103  0.1398  0.8902  0.2101
  228MOL0     N31343   4.883   2.215   5.184 -0.2779 -0.0688  0.3711
  228MOL0     C31344   4.994   2.299   5.166  0.0960  0.4858  0.3992
  228MOL0     C31345   5.083   2.277   5.263 -0.3070  0.1294  0.6573
  228MOL0     C31346   5.215   2.339   5.293 -0.3477  0.2953 -0.5419
  228MOL0     C31347   5.312   2.239   5.359  0.4192 -0.0385 -0.3753
  228MOL0     C31348   5.369   2.133   5.268  0.5506 -0.2067  0.2659
  228MOL0     C31349   5.519   2.153   5.246 -0.2555  0.8463  0.5866
  228MOL0     O31350   5.558   2.280   5.213 -0.3865 -0.4901 -0.5788
  228MOL0     C31351   5.682   2.304   5.183 -0.8400  0.2632 -0.1832
  228MOL0     C31352   5.702   2.423   5.106 -0.3194  0.5588 -0.2216
  228MOL0     C31353   5.832   2.455   5.056 -0.5269  0.5876  0.0786
  228MOL0     C31354   5.844   2.587   4.977 -0.5126  0.3371 -0.6607
  228MOL0     C31355   5.936   2.361   5.080 -0.3907  0.4851  0.0735
  228MOL0     C31356   6.076   2.373   5.036 -0.2972 -0.0475  0.1149
  228MOL0     O31357   6.166   2.286   5.094  0.4651 -0.2803 -0.5552
  228MOL0     C31358   6.284   2.277   5.032  0.0009  0.3720  0.2724
  228MOL0     C31359   6.396   2.349   5.077 -0.3250 -0.2761  0.6071
  228MOL0     C31360   6.515   2.341   5.006 -0.2559 -0.9794  0.0575
  228MOL0     C31361   6.534   2.242   4.912 -0.3628  1.2099  0.1609
  228MOL0     O31362   6.660   2.230   4.853  0.2844 -0.1867 -0.4111
  228MOL0     C31363   6.752   2.126   4.896  0.2389 -0.5818 -0.0170
  228MOL0     C31364   6.847   2.158   5.002 -0.0763 -0.7086  0.6965
  228MOL0     C31365   6.930   2.275   4.956 -0.4377 -0.6030 -0.3257
  228MOL0     C31366   7.037   2.297   5.068  0.1727  0.3108  0.1308
  228MOL0     C31367   7.095   2.442   5.044 -0.3091  0.4992 -0.2575
  228MOL0     C31368   7.214   2.461   5.143 -0.0120 -0.7239  0.7777
  228MOL0     C31369   7.346   2.398   5.099  0.3073  0.2740 -0.5527
  228MOL0     C31370   7.413   2.469   4.981 -0.3040  0.2228  0.1196
  228MOL0    Cl31371   7.546   2.371   4.923  0.2733 -0.0478 -0.1197
  228MOL0     C31372   6.424   2.155   4.874 -1.7775 -0.2640 -0.6628
  228MOL0     C31373   6.302   2.173   4.938 -0.0915 -0.5762  0.4807
  228MOL0     O31374   6.104   2.456   4.949  0.3773 -0.6724 -0.9292
  228MOL0     C31375   5.918   2.243   5.154  0.3924 -0.2466  0.1051
  228MOL0     C31376   5.792   2.220   5.205  0.8295  0.1226 -0.2862
  228MOL0     N31377   5.032   2.172   5.336  0.0525 -0.4574  0.2523
  228MOL0     N31378   4.915   2.136   5.289  0.2299  0.5653  0.3934
  228MOL0     C31379   3.836   2.345   5.669 -0.0204  0.5274 -0.3201
  228MOL0     C31380   3.703   2.379   5.700 -0.1469  0.2458 -0.8994
  228MOL0     C31381   3.342   2.555   5.864 -0.7514  1.2912  1.0082
  228MOL0     C31382   3.244   2.579   5.766 -0.0799 -0.1901  0.3036
  228MOL0     C31383   3.110   2.598   5.795  0.2774 -0.2896  0.5681
  228MOL0     C31384   3.072   2.624   5.921  0.2101  0.3179 -0.0349
  228MOL0     O31385   2.949   2.677   5.958  0.8181 -0.1461  1.3088
  228MOL0     C31386   2.871   2.749   5.854 -0.6037  0.1448 -0.3082
  228MOL0     C31387   2.777   2.859   5.911 -0.7663 -0.3986  0.3694
  228MOL0     C31388   2.676   2.802   6.011 -0.7441  0.3129 -0.0324
  228MOL0     C31389   2.585   2.688   5.958  0.0252 -0.6644 -0.3965
  228MOL0     C31390   2.517   2.715   5.833 -0.7850 -0.0113 -0.8207
  228MOL0     C31391   2.445   2.733   5.742 -0.1535  0.1123  0.5630
  228MOL0     C31392   3.170   2.593   6.023  0.0876 -0.1969 -0.0283
  228MOL0     C31393   3.302   2.554   6.002 -0.0288  0.8463  0.6578
  228MOL0     C31394   3.396   2.549   6.125 -0.8857 -0.0364 -0.1215
  228MOL0     H31395   3.750   2.348   6.042  1.1036 -2.7209 -0.0266
  228MOL0     H31396   3.963   2.266   5.968  3.0457  2.6193 -1.6246
  228MOL0     H31397   4.175   2.154   5.830  1.8719  0.8441  1.0473
  228MOL0     H31398   4.159   2.328   5.866  0.0750  1.0648 -0.9015
  228MOL0     H31399   4.301   2.388   5.697  1.3860  0.3967 -1.5864
  228MOL0     H31400   4.380   2.253   5.783 -0.6662  1.2169  0.9137
  228MOL0     H31401   4.321   2.100   5.613 -1.3547 -0.0496  2.9657
  228MOL0     H31402   4.236   2.215   5.518  0.7927 -4.1905 -1.8844
  228MOL0     H31403   4.446   2.358   5.488  2.6974  0.0198  0.0240
  228MOL0     H31404   4.536   2.241   5.589  1.3277  2.1898 -0.0204
  228MOL0     H31405   4.404   2.134   5.331  0.0127  3.4112 -1.1545
  228MOL0     H31406   4.526   2.072   5.437  1.7590  1.0003  0.5196
  228MOL0     H31407   4.567   2.334   5.274 -1.4618 -1.3468 -0.6750
  228MOL0     H31408   4.674   2.258   5.376 -3.0015  1.9200  2.2151
  228MOL0     H31409   4.541   2.155   5.110  1.8860  1.6204 -1.8054
  228MOL0     H31410   4.655   2.059   5.211 -0.2932  0.9096  4.0454
  228MOL0     H31411   4.774   2.151   5.019 -1.3473  0.5586  0.1793
  228MOL0     H31412   4.743   2.323   5.069  0.4228  1.2083  1.0236
  228MOL0     H31413   4.993   2.379   5.093  2.6843  0.3372  0.1013
  228MOL0     H31414   5.195   2.422   5.361 -1.6561  0.2791 -0.8911
  228MOL0     H31415   5.260   2.363   5.196 -2.3439 -1.0308 -1.8728
  228MOL0     H31416   5.398   2.295   5.397 -0.1546  0.9362 -0.4755
  228MOL0     H31417   5.258   2.203   5.447 -3.0768  2.5740 -1.2560
  228MOL0     H31418   5.363   2.034   5.315 -0.7705 -0.8900 -1.2531
  228MOL0     H31419   5.315   2.130   5.173  0.1561 -2.5689  0.4963
  228MOL0     H31420   5.575   2.126   5.336 -0.5465  0.3484  0.6239
  228MOL0     H31421   5.554   2.081   5.171  0.8959  0.7363  1.1983
  228MOL0     H31422   5.630   2.501   5.084  1.7679  2.2991 -1.2523
  228MOL0     H31423   5.765   2.656   5.008 -0.7444 -0.1701 -0.0779
  228MOL0     H31424   5.857   2.576   4.869  1.0594 -0.3902 -0.4210
  228MOL0     H31425   5.931   2.638   5.018 -0.9206 -0.9833  2.1619
  228MOL0     H31426   6.390   2.430   5.148 -1.0586  0.9810 -0.8172
  228MOL0     H31427   6.597   2.412   5.018 -2.0425  1.0115  1.0851
  228MOL0     H31428   6.698   2.043   4.943  1.8461 -1.8067 -0.2633
  228MOL0     H31429   6.803   2.091   4.806 -0.5112 -1.7513 -0.0024
  228MOL0     H31430   6.814   2.176   5.104  1.1034 -2.2593  1.3849
  228MOL0     H31431   6.918   2.075   5.014  1.4620 -0.1297 -2.9428
  228MOL0     H31432   6.865   2.362   4.956  1.5089  0.9725  1.4753
  228MOL0     H31433   6.977   2.254   4.860 -0.5390 -2.2144 -0.0637
  228MOL0     H31434   7.114   2.219   5.061 -0.2714 -0.3317  1.8603
  228MOL0     H31435   6.997   2.308   5.169  2.6303 -0.6506  1.3124
  228MOL0     H31436   7.126   2.451   4.940 -0.3928  2.2931 -0.1591
  228MOL0     H31437   7.014   2.513   5.062 -1.3751 -0.7156 -0.0390
  228MOL0     H31438   7.185   2.430   5.244  1.2424 -0.5015  1.2290
  228MOL0     H31439   7.228   2.568   5.157 -0.3779 -0.6241  0.4045
  228MOL0     H31440   7.330   2.298   5.057 -4.7775  0.8889 -0.6708
  228MOL0     H31441   7.413   2.396   5.186 -1.8099 -1.0451  1.1437
  228MOL0     H31442   7.444   2.569   5.013  0.4217 -0.8913  3.2466
  228MOL0     H31443   7.352   2.487   4.892 -0.7382 -0.6018  0.2397
  228MOL0     H31444   6.422   2.075   4.800 -3.1434  0.6701 -1.6980
  228MOL0     H31445   6.217   2.111   4.915 -1.0332  0.2354  1.5994
  228MOL0     H31446   5.991   2.169   5.184 -1.5107 -2.8163 -1.2559
  228MOL0     H31447   5.790   2.126   5.258 -0.7187 -1.4417 -2.8941
  228MOL0     H31448   3.863   2.371   5.568 -2.7496 -0.8452 -1.5068
  228MOL0     H31449   3.650   2.425   5.617  1.3539  2.3774 -0.7593
  228MOL0     H31450   3.279   2.577   5.663  0.8160  3.6095  0.3816
  228MOL0     H31451   3.038   2.616   5.716 -2.4955 -0.5274  2.8993
  228MOL0     H31452   2.938   2.799   5.783 -1.8030  0.7625 -1.0327
  228MOL0     H31453   2.811   2.678   5.796 -2.0292  0.7114  0.4376
  228MOL0     H31454   2.720   2.913   5.834  0.5943 -0.3079 -0.6139
  228MOL0     H31455   2.842   2.933   5.958 -3.5970  0.8008  2.7618
  228MOL0     H31456   2.734   2.771   6.098  0.2139  1.3940 -0.2443
  228MOL0     H31457   2.624   2.893   6.043  1.6739  1.0751  2.0702
  228MOL0     H31458   2.516   2.656   6.036 -2.0240  0.4838 -1.6344
  228MOL0     H31459   2.646   2.597   5.946  0.5762 -0.4163  0.4627
  228MOL0     H31460   2.376   2.761   5.665 -1.6743 -3.4151  0.4420
  228MOL0     H31461   3.157   2.622   6.127 -2.7641  1.0698 -0.6588
  228MOL0     H31462   3.342   2.509   6.211  0.7535 -0.6143  0.6957
  228MOL0     H31463   3.487   2.488   6.121 -1.0291 -0.2887  0.3413
  228MOL0     H31464   3.425   2.651   6.155 -4.0857  1.1089 -0.5307
  229MOL0     O31465   7.119  10.759  11.405  0.0702 -0.3552  0.2403
  229MOL0     C31466   7.018  10.822  11.394  0.3627  0.2700 -0.1615
  229MOL0     O31467   6.947  10.870  11.498 -0.3554  0.0635  0.4120
  229MOL0     C31468   7.007  10.856  11.617 -0.1590 -0.3234 -0.6427
  229MOL0     C31469   7.108  10.933  11.663 -0.1285 -0.4264 -0.1667
  229MOL0     C31470   7.154  10.931  11.800 -0.0645 -0.3545  0.4411
  229MOL0     C31471   7.090  10.850  11.895 -0.1022  0.4295 -0.8646
  229MOL0     O31472   7.146  10.862  12.019 -0.3767  0.1685  0.0927
  229MOL0     C31473   7.180  10.731  12.087 -0.3219  0.4134 -0.4612
  229MOL0     C31474   7.268  10.764  12.204 -0.2188 -0.3434 -0.1895
  229MOL0     C31475   7.414  10.781  12.167  0.2094 -0.0336  0.3414
  229MOL0     C31476   7.500  10.754  12.290  0.0950 -0.2085 -0.1489
  229MOL0     C31477   7.654  10.783  12.258 -0.2410  0.2990 -0.2474
  229MOL0     C31478   7.726  10.780  12.387  0.4497 -0.1191  0.3893
  229MOL0     C31479   7.880  10.789  12.360 -0.5833  1.2399  0.1473
  229MOL0     C31480   7.955  10.820  12.489 -0.5754 -0.5340 -0.6587
  229MOL0     N31481   8.099  10.810  12.456  0.5034 -0.0959 -0.2350
  229MOL0     C31482   8.169  10.703  12.425 -0.7300  0.0877  0.2658
  229MOL0     C31483   8.302  10.732  12.450  0.7711  0.2928  0.0670
  229MOL0     C31484   8.424  10.646  12.407  0.1057  0.1158 -0.7448
  229MOL0     C31485   8.426  10.632  12.258 -0.0141  0.5357  0.0199
  229MOL0     C31486   8.403  10.760  12.170  0.5227 -0.0440  0.9535
  229MOL0     C31487   8.468  10.747  12.027 -0.1085 -0.0463 -0.9775
  229MOL0     O31488   8.447  10.632  11.951 -0.0909 -0.1876 -0.1658
  229MOL0     C31489   8.523  10.616  11.842 -0.3263 -0.0952 -0.1829
  229MOL0     C31490   8.469  10.535  11.741 -0.3547  0.3694  0.2062
  229MOL0     C31491   8.531  10.500  11.627  0.8166 -0.3885  1.3348
  229MOL0     C31492   8.458  10.395  11.543 -0.4808 -0.2774 -0.4949
  229MOL0     C31493   8.663  10.548  11.598 -0.3837  0.7666 -0.4950
  229MOL0     C31494   8.738  10.507  11.478  0.7905  0.5016 -0.2618
  229MOL0     O31495   8.721  10.375  11.428 -0.6401 -1.0264 -0.3754
  229MOL0     C31496   8.784  10.351  11.306  0.3046  0.4582 -0.0008
  229MOL0     C31497   8.749  10.415  11.192 -0.0311 -0.9229  0.8884
  229MOL0     C31498   8.800  10.389  11.069 -0.3384  1.1234  0.4265
  229MOL0     C31499   8.894  10.290  11.050 -0.0557 -0.2457 -0.0941
  229MOL0     O31500   8.939  10.279  10.920  0.2294  0.0071 -0.1287
  229MOL0     C31501   9.076  10.257  10.892 -0.4982 -0.4347  0.4930
  229MOL0     C31502   9.098  10.249  10.739  0.1625 -0.5823  0.4285
  229MOL0     C31503   9.242  10.223  10.696 -1.2087 -0.4520 -0.2015
  229MOL0     C31504   9.336  10.346  10.717 -0.7841 -0.5278  0.2053
  229MOL0     C31505   9.473  10.337  10.644 -0.7583  1.5393  0.1503
  229MOL0     C31506   9.559  10.466  10.625  0.1658 -0.2386 -0.6014
  229MOL0     C31507   9.690  10.454  10.558 -0.7202 -0.4516 -0.6717
  229MOL0     C31508   9.783  10.565  10.594 -0.2220 -0.1734  0.0630
  229MOL0    Cl31509   9.941  10.553  10.510 -0.1037 -0.1724  0.3994
  229MOL0     C31510   8.938  10.224  11.162 -1.2151  0.5223 -0.8154
  229MOL0     C31511   8.888  10.253  11.293 -0.2473 -0.6956  0.2953
  229MOL0     O31512   8.811  10.592  11.431 -0.7583  0.3099 -0.0199
  229MOL0     C31513   8.715  10.638  11.698  0.0082 -0.2748 -0.0203
  229MOL0     C31514   8.651  10.674  11.817 -0.3375  0.3732  0.4002
  229MOL0     N31515   8.314  10.870  12.471 -0.2134  0.6442 -0.7747
  229MOL0     N31516   8.195  10.911  12.483 -0.2610 -0.7316 -0.4411
  229MOL0     C31517   6.989  10.768  11.851  0.0265  0.3010  0.1612
  229MOL0     C31518   6.943  10.770  11.713 -0.7346  0.0719 -0.5640
  229MOL0     C31519   6.972  10.847  11.257 -0.4054 -0.6475  0.0615
  229MOL0     C31520   6.905  10.971  11.238  1.0068 -0.6869  0.1951
  229MOL0     C31521   6.875  11.010  11.104 -0.3850  0.0986  0.3476
  229MOL0     C31522   6.899  10.916  11.002  0.0859 -0.4548  0.1046
  229MOL0     O31523   6.855  10.953  10.876  0.0322  0.2489 -1.1035
  229MOL0     C31524   6.912  10.894  10.758  0.1624  0.1173  0.2231
  229MOL0     C31525   6.825  10.883  10.623  0.7188 -0.1947 -0.6593
  229MOL0     C31526   6.761  11.024  10.585 -0.8307  0.5808 -0.7605
  229MOL0     C31527   6.741  11.037  10.429  0.1021  0.0816 -0.2978
  229MOL0     C31528   6.659  10.932  10.369 -0.6731  0.1039 -0.0031
  229MOL0     C31529   6.590  10.851  10.314  0.3977  0.1186  0.2467
  229MOL0     C31530   6.956  10.794  11.028 -0.3173  0.2407 -0.0296
  229MOL0     C31531   6.994  10.757  11.149 -0.5487  0.7989 -0.3933
  229MOL0     C31532   7.069  10.622  11.158 -0.4599  0.5759 -0.1487
  229MOL0     H31533   7.152  10.994  11.584 -0.0954 -2.8239 -2.1038
  229MOL0     H31534   7.233  10.992  11.844 -0.4205  0.4103  0.0372
  229MOL0     H31535   7.229  10.665  12.015  0.0211  0.3057 -0.1304
  229MOL0     H31536   7.095  10.669  12.118 -0.8288  0.9336 -0.7993
  229MOL0     H31537   7.231  10.855  12.252 -0.5711 -1.3710  1.5457
  229MOL0     H31538   7.263  10.675  12.267 -1.0877 -1.9134 -2.3267
  229MOL0     H31539   7.441  10.702  12.097 -1.8794 -1.0992  0.6495
  229MOL0     H31540   7.434  10.881  12.127  2.2096  0.6279  2.7573
  229MOL0     H31541   7.466  10.821  12.369  1.3285  2.2171 -1.5692
  229MOL0     H31542   7.492  10.649  12.321 -1.0796  0.2940  1.3693
  229MOL0     H31543   7.669  10.885  12.221 -1.0448  0.6295  0.3083
  229MOL0     H31544   7.690  10.709  12.185 -2.2827 -0.5449 -0.4839
  229MOL0     H31545   7.691  10.857  12.456  1.3708 -1.2280  2.1695
  229MOL0     H31546   7.713  10.683  12.436  1.0293 -1.0066 -1.1495
  229MOL0     H31547   7.906  10.867  12.288 -0.6303  0.9190 -0.2244
  229MOL0     H31548   7.917  10.698  12.312 -0.0799  1.8648 -0.6866
  229MOL0     H31549   7.925  10.915  12.534 -1.0631 -0.3757 -1.2970
  229MOL0     H31550   7.939  10.735  12.556 -1.0901  0.6159  0.7334
  229MOL0     H31551   8.136  10.600  12.410 -0.9962  0.0533  1.0296
  229MOL0     H31552   8.418  10.548  12.455  0.1873  0.8759  0.8776
  229MOL0     H31553   8.514  10.703  12.431 -0.8614  0.5249  2.3281
  229MOL0     H31554   8.517  10.582  12.224  0.0115  0.6053 -0.0133
  229MOL0     H31555   8.348  10.560  12.233 -1.7598  2.5720 -0.7091
  229MOL0     H31556   8.294  10.765  12.157  0.6109  1.2267  0.5902
  229MOL0     H31557   8.438  10.857  12.206  3.9120 -0.1166 -1.6933
  229MOL0     H31558   8.446  10.831  11.960  1.4064  0.2139 -1.1889
  229MOL0     H31559   8.575  10.757  12.047 -0.4074  1.8267 -0.1463
  229MOL0     H31560   8.366  10.499  11.748 -0.8542  1.4121 -1.2840
  229MOL0     H31561   8.480  10.413  11.437 -2.2782 -0.2281 -0.9011
  229MOL0     H31562   8.350  10.400  11.557 -0.3009  1.7495  0.5137
  229MOL0     H31563   8.492  10.294  11.568  1.7662  0.2278 -1.2730
  229MOL0     H31564   8.677  10.496  11.201 -1.1195 -1.4727 -2.0192
  229MOL0     H31565   8.767  10.458  10.992  0.1904  2.0263  0.9951
  229MOL0     H31566   9.124  10.340  10.942 -0.3119  1.1391 -2.1034
  229MOL0     H31567   9.104  10.160  10.934  4.0074  0.2662 -0.4051
  229MOL0     H31568   9.041  10.158  10.716  2.5076 -1.6291 -1.7998
  229MOL0     H31569   9.051  10.331  10.685  1.5190 -1.4137 -2.1577
  229MOL0     H31570   9.240  10.207  10.587  2.6828 -1.1228 -0.3333
  229MOL0     H31571   9.284  10.130  10.737  1.4777  0.4366 -0.7204
  229MOL0     H31572   9.336  10.391  10.817  2.4990 -2.9758  1.4883
  229MOL0     H31573   9.290  10.432  10.667 -0.8523 -0.6282  0.0975
  229MOL0     H31574   9.522  10.259  10.703 -3.6313  0.2073  0.9705
  229MOL0     H31575   9.457  10.299  10.543  1.2884 -0.3883  0.4748
  229MOL0     H31576   9.576  10.502  10.727  1.7103 -0.8232 -0.6217
  229MOL0     H31577   9.492  10.538  10.576 -0.3062  0.4203  0.9578
  229MOL0     H31578   9.674  10.446  10.450 -3.4606 -0.1867 -0.3610
  229MOL0     H31579   9.742  10.364  10.593 -1.9493 -1.8778 -2.3168
  229MOL0     H31580   9.802  10.563  10.702  0.4155 -0.3806 -0.0482
  229MOL0     H31581   9.734  10.659  10.566 -0.6514 -0.5459 -0.4493
  229MOL0     H31582   9.006  10.144  11.134  0.7657  1.6975  0.3988
  229MOL0     H31583   8.920  10.178  11.365 -1.5018 -0.1074  1.5154
  229MOL0     H31584   8.816  10.674  11.679 -0.6141  1.8416  0.4454
  229MOL0     H31585   8.706  10.738  11.885  0.9330 -2.4662  2.2437
  229MOL0     H31586   6.939  10.712  11.930 -4.1909  1.4213 -1.4185
  229MOL0     H31587   6.871  10.695  11.682 -0.6074  0.0490 -0.8072
  229MOL0     H31588   6.896  11.043  11.318  4.1945  1.1576 -0.9333
  229MOL0     H31589   6.826  11.102  11.076  1.0313  0.9033  0.3856
  229MOL0     H31590   6.995  10.964  10.744  0.7905 -0.5569  0.4815
  229MOL0     H31591   6.967  10.801  10.774  0.1580  0.3750  1.9130
  229MOL0     H31592   6.739  10.818  10.638 -0.4513  1.2258 -0.9695
  229MOL0     H31593   6.888  10.849  10.541  3.1456  0.5836  0.7470
  229MOL0     H31594   6.669  11.039  10.643  0.0714  4.1646  0.0082
  229MOL0     H31595   6.833  11.105  10.603 -2.3386  1.8087  0.0182
  229MOL0     H31596   6.839  11.048  10.382 -0.1458 -1.4000 -1.2034
  229MOL0     H31597   6.692  11.135  10.425 -0.0798  0.1314  1.7428
  229MOL0     H31598   6.527  10.773  10.274  0.8511  1.0812 -2.6290
  229MOL0     H31599   6.966  10.709  10.961  2.6859 -0.7176  1.4304
  229MOL0     H31600   7.048  10.561  11.246  1.8121 -2.7136 -1.6805
  229MOL0     H31601   7.044  10.545  11.084 -1.8189 -0.2720  1.1295
  229MOL0     H31602   7.176  10.641  11.158 -0.4755  0.8522  1.5560
  230MOL0     O31603  10.325   9.677   3.651 -0.2821  0.7208  0.6831
  230MOL0     C31604  10.421   9.726   3.717  0.0021  0.0678  0.5964
  230MOL0     O31605  10.488   9.840   3.689  0.0227 -0.0746 -0.6277
  230MOL0     C31606  10.478   9.912   3.572  0.4223  0.8613 -0.4586
  230MOL0     C31607  10.412   9.882   3.455 -0.1194  1.0461 -0.0582
  230MOL0     C31608  10.423   9.963   3.341 -0.6469 -0.8163 -0.3814
  230MOL0     C31609  10.513  10.066   3.339 -0.7010 -0.3092  0.4146
  230MOL0     O31610  10.532  10.158   3.247  0.6437 -0.8120  0.3699
  230MOL0     C31611  10.470  10.141   3.122  0.1531  0.0070  0.1916
  230MOL0     C31612  10.478  10.266   3.029  0.3336  0.2345  0.2980
  230MOL0     C31613  10.624  10.304   3.006 -0.8198 -0.2804  0.1042
  230MOL0     C31614  10.653  10.412   2.908 -0.0550  0.4644  0.1165
  230MOL0     C31615  10.621  10.367   2.763  0.1554 -0.1136 -0.3179
  230MOL0     C31616  10.625  10.487   2.667  0.2938 -0.1650 -0.1687
  230MOL0     C31617  10.774  10.517   2.639  0.9464 -0.0526  0.5551
  230MOL0     C31618  10.783  10.605   2.509 -1.0468 -1.0230  0.3578
  230MOL0     N31619  10.919  10.620   2.444  0.4815 -0.3399 -0.4520
  230MOL0     C31620  11.018  10.693   2.500 -0.5701 -0.3986  1.2746
  230MOL0     C31621  11.124  10.658   2.412 -0.5556  0.4926  0.4236
  230MOL0     C31622  11.261  10.719   2.410 -0.4486 -0.5861 -0.0059
  230MOL0     C31623  11.363  10.643   2.324  0.9135  0.1323 -0.1912
  230MOL0     C31624  11.497  10.717   2.311  0.3159 -1.4836 -0.2236
  230MOL0     C31625  11.588  10.651   2.207  1.0972 -0.4173  0.0470
  230MOL0     O31626  11.709  10.727   2.201 -0.0339  0.0551  0.2488
  230MOL0     C31627  11.796  10.687   2.099  0.3302 -1.3872  0.4110
  230MOL0     C31628  11.785  10.568   2.024 -0.2911 -0.7541  0.2853
  230MOL0     C31629  11.873  10.534   1.917  0.5880 -0.1995 -0.5264
  230MOL0     C31630  11.855  10.412   1.834 -0.1160  1.4345 -0.5453
  230MOL0     C31631  11.982  10.619   1.892 -0.4228 -0.2280 -0.3957
  230MOL0     C31632  12.077  10.596   1.783  0.3299 -0.2438 -0.9445
  230MOL0     O31633  12.205  10.578   1.826 -0.2396  0.0675 -0.9271
  230MOL0     C31634  12.304  10.576   1.739 -0.3333  0.9424 -0.2537
  230MOL0     C31635  12.403  10.672   1.756 -0.5468  0.3032 -0.1074
  230MOL0     C31636  12.518  10.682   1.671 -0.1538  0.4021 -0.3766
  230MOL0     C31637  12.528  10.597   1.565  0.5591  0.7169  0.1457
  230MOL0     O31638  12.646  10.608   1.488 -0.9516  0.2113  1.1128
  230MOL0     C31639  12.676  10.533   1.368  0.3711  0.4872 -0.8408
  230MOL0     C31640  12.824  10.504   1.339 -0.3373 -0.3566  0.4600
  230MOL0     C31641  12.854  10.413   1.216  0.1132  0.2715 -0.8683
  230MOL0     C31642  13.003  10.405   1.197 -0.2497 -0.0372 -0.1599
  230MOL0     C31643  13.032  10.347   1.056  0.8400  0.0421  0.2968
  230MOL0     C31644  13.179  10.366   1.013 -0.9227 -1.3837  0.2043
  230MOL0     C31645  13.232  10.287   0.895  0.1387  0.3138 -0.2740
  230MOL0     C31646  13.384  10.292   0.893  0.0616 -0.2533 -0.4849
  230MOL0    Cl31647  13.428  10.216   0.746 -0.0025 -0.1011  0.3206
  230MOL0     C31648  12.424  10.511   1.536 -0.6678 -0.1002 -0.4147
  230MOL0     C31649  12.314  10.492   1.627 -0.0548 -1.0631  0.2327
  230MOL0     O31650  12.035  10.594   1.668 -0.1907 -0.2776 -0.4327
  230MOL0     C31651  11.995  10.739   1.970  0.1651 -0.8547  0.2861
  230MOL0     C31652  11.910  10.766   2.069  0.6901  0.1424  0.1014
  230MOL0     N31653  11.077  10.575   2.312 -0.1642  0.7349  0.2057
  230MOL0     N31654  10.952  10.556   2.336  0.2750 -0.2622  0.1376
  230MOL0     C31655  10.576  10.100   3.459 -0.1669  0.2245  0.0227
  230MOL0     C31656  10.555  10.027   3.577  0.7911  0.7659  0.1782
  230MOL0     C31657  10.462   9.671   3.847 -0.5441 -0.1613 -0.2103
  230MOL0     C31658  10.360   9.635   3.936  0.3957  0.2937 -0.0459
  230MOL0     C31659  10.389   9.586   4.062 -0.6013 -0.1999  0.0561
  230MOL0     C31660  10.523   9.584   4.113 -0.0654 -0.6281 -0.2567
  230MOL0     O31661  10.540   9.549   4.245 -0.4952 -0.1512 -0.3065
  230MOL0     C31662  10.668   9.570   4.306 -0.2601 -1.0735 -0.6356
  230MOL0     C31663  10.647   9.584   4.457 -0.6754  0.1756 -0.3764
  230MOL0     C31664  10.586   9.456   4.530  0.3342  0.7391 -0.4105
  230MOL0     C31665  10.567   9.471   4.682 -1.0846 -0.1833  0.7818
  230MOL0     C31666  10.517   9.345   4.747  0.3212 -0.2613 -0.6577
  230MOL0     C31667  10.479   9.244   4.800  0.0255  0.2306  0.3583
  230MOL0     C31668  10.624   9.625   4.029  0.1446 -0.1337  0.0794
  230MOL0     C31669  10.598   9.669   3.898  0.2433 -0.2509 -0.9220
  230MOL0     C31670  10.721   9.680   3.805  0.1179 -0.0312 -0.9307
  230MOL0     H31671  10.333   9.808   3.448 -1.9384  2.8933 -0.1262
  230MOL0     H31672  10.367   9.935   3.253  1.3192 -2.0954 -1.2892
  230MOL0     H31673  10.367  10.106   3.133  1.2721 -2.9614  3.0829
  230MOL0     H31674  10.524  10.060   3.073  1.1956 -0.0907  1.4408
  230MOL0     H31675  10.435  10.248   2.930  1.0693 -0.7327  0.1360
  230MOL0     H31676  10.421  10.350   3.070 -3.2332 -0.9521 -1.7767
  230MOL0     H31677  10.652  10.333   3.108 -0.7105 -1.2772  0.3658
  230MOL0     H31678  10.680  10.213   2.984  0.1863  0.6042 -1.1258
  230MOL0     H31679  10.586  10.493   2.938  0.6927  1.1695 -0.0682
  230MOL0     H31680  10.757  10.443   2.925  0.3456 -1.4513  1.4979
  230MOL0     H31681  10.527  10.312   2.752  0.2278 -0.9214  2.4206
  230MOL0     H31682  10.705  10.301   2.739  0.4877  0.5928 -1.1541
  230MOL0     H31683  10.566  10.458   2.579 -0.9277 -0.4691  0.7247
  230MOL0     H31684  10.581  10.580   2.705 -0.1022  0.8322 -2.8054
  230MOL0     H31685  10.831  10.425   2.624  0.9033  0.0950 -0.5985
  230MOL0     H31686  10.809  10.581   2.720  2.2878 -1.1825  0.9184
  230MOL0     H31687  10.721  10.556   2.433 -0.6823  1.5506 -1.7500
  230MOL0     H31688  10.742  10.705   2.527 -3.6384 -2.2075  1.5342
  230MOL0     H31689  11.009  10.759   2.586 -0.9127 -0.2741  1.1431
  230MOL0     H31690  11.289  10.726   2.516  2.1658  1.1164 -0.6927
  230MOL0     H31691  11.248  10.820   2.368 -1.4033  0.1679  1.9639
  230MOL0     H31692  11.382  10.544   2.366 -0.0109 -0.1515 -0.4235
  230MOL0     H31693  11.316  10.628   2.226 -0.4324 -0.2939  0.4874
  230MOL0     H31694  11.477  10.822   2.290 -1.2807 -1.7789 -0.2639
  230MOL0     H31695  11.548  10.708   2.407 -2.0380 -3.8925  0.9352
  230MOL0     H31696  11.621  10.555   2.247 -2.3320 -1.2683  1.1203
  230MOL0     H31697  11.529  10.640   2.116 -0.7575 -0.4055  1.2085
  230MOL0     H31698  11.705  10.499   2.049 -0.0352 -0.4744  1.9822
  230MOL0     H31699  11.775  10.422   1.760 -1.8790 -3.3832  0.3391
  230MOL0     H31700  11.828  10.326   1.896  1.3632  0.3188 -1.3674
  230MOL0     H31701  11.946  10.368   1.792 -0.9231  0.9047 -1.8109
  230MOL0     H31702  12.398  10.728   1.848 -0.1372 -1.8630  1.3130
  230MOL0     H31703  12.596  10.756   1.686  1.9367 -1.7039 -0.4068
  230MOL0     H31704  12.631  10.436   1.391 -0.0967  1.1014  1.0029
  230MOL0     H31705  12.632  10.578   1.278  2.7912 -2.3215 -3.6799
  230MOL0     H31706  12.869  10.603   1.330  0.2285 -0.6287  0.2109
  230MOL0     H31707  12.861  10.467   1.435 -2.6048 -1.1635  1.0733
  230MOL0     H31708  12.815  10.468   1.130 -1.8821 -0.3770 -0.4413
  230MOL0     H31709  12.802  10.317   1.232  0.1660  0.5028  0.8947
  230MOL0     H31710  13.049  10.345   1.276  1.0054 -2.8876 -2.8256
  230MOL0     H31711  13.046  10.505   1.206 -0.0859  0.5524 -4.8846
  230MOL0     H31712  13.006  10.241   1.062 -1.5579  0.3184 -2.6515
  230MOL0     H31713  12.970  10.400   0.983  1.3759 -2.4270 -2.1213
  230MOL0     H31714  13.238  10.333   1.099 -0.2594  0.8774  0.6923
  230MOL0     H31715  13.204  10.471   0.998 -3.9408 -0.6541 -0.4325
  230MOL0     H31716  13.192  10.323   0.800  1.7714  0.9561 -0.7630
  230MOL0     H31717  13.208  10.181   0.907 -0.7014  0.4987 -0.3073
  230MOL0     H31718  13.435  10.238   0.973  0.0925  1.8548  0.9875
  230MOL0     H31719  13.422  10.395   0.895  2.3537 -1.0113 -1.8695
  230MOL0     H31720  12.427  10.439   1.455  0.2504 -0.6807  0.1269
  230MOL0     H31721  12.230  10.424   1.625 -2.3883  1.6510 -0.9072
  230MOL0     H31722  12.088  10.794   1.955  0.1936 -0.9852 -0.0157
  230MOL0     H31723  11.943  10.850   2.128 -0.2275  1.5706 -1.3293
  230MOL0     H31724  10.629  10.194   3.474  0.3300 -0.4226  3.0483
  230MOL0     H31725  10.603  10.060   3.669 -0.7339  1.3630  0.7848
  230MOL0     H31726  10.256   9.656   3.913  0.3537  4.1505  2.7116
  230MOL0     H31727  10.310   9.562   4.133  3.2172 -2.1465  4.1505
  230MOL0     H31728  10.732   9.482   4.297 -0.8392 -1.8911  2.2780
  230MOL0     H31729  10.717   9.659   4.264 -1.8048  0.6223  0.9671
  230MOL0     H31730  10.576   9.664   4.477 -0.7151 -0.1568  0.8787
  230MOL0     H31731  10.740   9.600   4.511 -0.1591 -2.9715 -0.1436
  230MOL0     H31732  10.494   9.438   4.474  0.7386  2.2099 -1.6132
  230MOL0     H31733  10.671   9.389   4.513 -0.8543 -0.1270 -3.9474
  230MOL0     H31734  10.496   9.552   4.702  0.6480  2.5898 -3.0261
  230MOL0     H31735  10.665   9.494   4.726 -1.1056 -1.1606  1.3831
  230MOL0     H31736  10.450   9.152   4.846 -0.9074  0.5576  0.4409
  230MOL0     H31737  10.724   9.644   4.066 -0.7265  1.8378  1.5837
  230MOL0     H31738  10.677   9.648   3.710 -5.4092  1.0273  0.9351
  230MOL0     H31739  10.764   9.780   3.793 -1.3542  1.1507  2.3687
  230MOL0     H31740  10.797   9.602   3.822 -1.6438 -2.3017 -2.8283
  231MOL0     O31741   5.131   4.129   6.670 -0.2155  0.0430  0.6814
  231MOL0     C31742   5.170   4.023   6.614 -0.0666 -0.2305  0.3077
  231MOL0     O31743   5.087   3.939   6.542 -0.2820  0.5970  0.3913
  231MOL0     C31744   4.953   3.962   6.527 -0.3117 -1.1851  0.5933
  231MOL0     C31745   4.894   3.892   6.420  0.3578 -0.1169 -0.4364
  231MOL0     C31746   4.755   3.904   6.401  0.0320  1.0474 -0.0596
  231MOL0     C31747   4.674   3.992   6.469 -0.0535 -0.6960  0.9923
  231MOL0     O31748   4.537   3.992   6.440 -0.4361  0.3482 -0.0444
  231MOL0     C31749   4.463   4.105   6.484 -0.8128 -0.7826  0.0621
  231MOL0     C31750   4.333   4.113   6.413 -0.9294 -0.1281  0.5118
  231MOL0     C31751   4.247   4.224   6.468 -0.3726  0.5406  0.4559
  231MOL0     C31752   4.254   4.374   6.413  0.4932 -0.4342 -0.0793
  231MOL0     C31753   4.162   4.481   6.483  0.5158  0.2302  0.3234
  231MOL0     C31754   4.179   4.628   6.430 -0.5984 -0.1559  0.3232
  231MOL0     C31755   4.173   4.642   6.282  1.1294 -0.6591 -0.6563
  231MOL0     C31756   4.189   4.792   6.253 -0.3376  0.9435  0.2993
  231MOL0     N31757   4.214   4.820   6.108  0.0131  0.2179 -0.2389
  231MOL0     C31758   4.285   4.926   6.061 -0.7391 -0.5088 -0.2841
  231MOL0     C31759   4.249   4.930   5.929  0.1702  1.4086  0.5726
  231MOL0     C31760   4.320   5.026   5.831 -0.1334  0.0680  0.2430
  231MOL0     C31761   4.444   4.984   5.749  0.0177 -0.6955 -0.0229
  231MOL0     C31762   4.559   4.954   5.842  0.1411  0.3653 -0.4596
  231MOL0     C31763   4.677   4.892   5.764 -0.2852  0.0440  0.0660
  231MOL0     O31764   4.781   4.863   5.863  0.1112 -0.1555 -0.0183
  231MOL0     C31765   4.892   4.802   5.825  0.4679  0.3255 -0.1054
  231MOL0     C31766   4.986   4.751   5.925  0.0430 -0.9351  0.5460
  231MOL0     C31767   5.092   4.667   5.885  0.2442 -0.6364 -0.0491
  231MOL0     C31768   5.168   4.589   5.994 -0.0036  0.3043 -0.1715
  231MOL0     C31769   5.126   4.647   5.748 -0.4409  0.1527 -0.7420
  231MOL0     C31770   5.249   4.575   5.703 -0.1443  0.3129 -0.5669
  231MOL0     O31771   5.364   4.597   5.780 -0.3305  0.5407  0.4088
  231MOL0     C31772   5.487   4.571   5.729  0.6226 -0.6272  0.1495
  231MOL0     C31773   5.573   4.521   5.824  0.4728  0.3109  0.6065
  231MOL0     C31774   5.707   4.497   5.806  0.1080 -0.4766  0.5893
  231MOL0     C31775   5.760   4.505   5.680 -1.0037  0.0069  0.7102
  231MOL0     O31776   5.896   4.476   5.649 -0.0852  0.6783 -0.5936
  231MOL0     C31777   6.001   4.532   5.735 -0.2950 -0.2679 -0.1428
  231MOL0     C31778   6.132   4.559   5.658 -0.1131 -0.3363 -0.8729
  231MOL0     C31779   6.180   4.440   5.570  0.6784 -0.8119 -1.1013
  231MOL0     C31780   6.334   4.454   5.535  0.9905  0.7427 -0.4177
  231MOL0     C31781   6.375   4.363   5.420  0.1436 -0.8631  0.3033
  231MOL0     C31782   6.524   4.359   5.412  0.4896 -0.8592 -0.5367
  231MOL0     C31783   6.571   4.243   5.327 -0.3946  0.2479 -0.6643
  231MOL0     C31784   6.715   4.235   5.299 -0.3173  0.6898 -0.4825
  231MOL0    Cl31785   6.805   4.234   5.457  0.1336 -0.2307 -0.1211
  231MOL0     C31786   5.674   4.562   5.578 -0.7012 -0.0801  0.3278
  231MOL0     C31787   5.542   4.599   5.596  0.5673  0.9151 -0.4175
  231MOL0     O31788   5.238   4.500   5.607  0.0390  0.2938  0.2766
  231MOL0     C31789   5.045   4.705   5.651  0.0796 -0.1101  1.2269
  231MOL0     C31790   4.928   4.771   5.689  0.3102  0.2443  0.2401
  231MOL0     N31791   4.163   4.819   5.906  0.4219  0.5284  0.5274
  231MOL0     N31792   4.132   4.763   6.012 -0.1770  0.3620 -0.7554
  231MOL0     C31793   4.735   4.054   6.585 -0.4632 -0.4277  1.2874
  231MOL0     C31794   4.875   4.042   6.615  0.3007 -0.5073  0.1012
  231MOL0     C31795   5.314   3.980   6.632  0.3336  0.4316  0.2770
  231MOL0     C31796   5.383   4.048   6.734 -0.1753  0.1538 -0.2087
  231MOL0     C31797   5.524   4.027   6.754 -0.4632  0.5505  0.1967
  231MOL0     C31798   5.592   3.935   6.678 -0.6193  0.8785 -0.0545
  231MOL0     O31799   5.731   3.923   6.667  0.4968 -0.1220  0.1204
  231MOL0     C31800   5.783   4.004   6.567 -0.0004  1.0768  0.3681
  231MOL0     C31801   5.930   3.970   6.562 -0.0888  0.1731  0.9099
  231MOL0     C31802   5.969   3.827   6.511  0.5959  0.4164 -0.3968
  231MOL0     C31803   6.125   3.801   6.477 -0.3271 -0.2416 -0.1369
  231MOL0     C31804   6.157   3.884   6.363  0.5666 -0.1472  0.2620
  231MOL0     C31805   6.168   3.938   6.255 -0.2989  1.3133 -0.5179
  231MOL0     C31806   5.518   3.861   6.582 -0.4487  0.2368 -1.2861
  231MOL0     C31807   5.384   3.874   6.567  1.1023  0.3084  0.2393
  231MOL0     C31808   5.314   3.787   6.461 -0.2721 -1.0397  0.9128
  231MOL0     H31809   4.954   3.823   6.362 -0.6654 -1.6055  0.2110
  231MOL0     H31810   4.716   3.842   6.320 -2.2815  0.3749  1.4588
  231MOL0     H31811   4.517   4.199   6.464 -0.7977 -0.6905  0.5349
  231MOL0     H31812   4.433   4.102   6.589 -3.1150 -0.6727 -0.5514
  231MOL0     H31813   4.350   4.131   6.307 -0.2562  1.9727  0.9205
  231MOL0     H31814   4.286   4.015   6.417  2.0183 -1.7507 -0.9149
  231MOL0     H31815   4.151   4.186   6.431 -2.4594  1.5850  4.2883
  231MOL0     H31816   4.250   4.226   6.577  0.4725  1.6005  0.4298
  231MOL0     H31817   4.355   4.414   6.412  0.3870 -0.1171  0.8069
  231MOL0     H31818   4.237   4.371   6.305  0.5333  2.2830 -0.2218
  231MOL0     H31819   4.181   4.492   6.591  1.7363  0.4017  0.1068
  231MOL0     H31820   4.063   4.436   6.481  0.3820  0.4897  0.8443
  231MOL0     H31821   4.109   4.687   6.491 -0.4022  0.2420  0.1715
  231MOL0     H31822   4.279   4.658   6.464 -0.9399  1.1051  0.2856
  231MOL0     H31823   4.071   4.613   6.255 -0.4471  1.4913  2.4441
  231MOL0     H31824   4.242   4.576   6.228 -0.8803 -1.4351 -2.4356
  231MOL0     H31825   4.093   4.844   6.263 -1.9826 -1.7671 -0.1555
  231MOL0     H31826   4.276   4.826   6.308  1.2820  0.6068 -1.9106
  231MOL0     H31827   4.358   4.989   6.111 -0.5046 -2.1503  1.5000
  231MOL0     H31828   4.346   5.109   5.897 -1.1131 -0.4509  1.3258
  231MOL0     H31829   4.244   5.054   5.758  1.3494  3.4519 -0.1962
  231MOL0     H31830   4.417   4.894   5.694  0.2323  0.0409 -1.3699
  231MOL0     H31831   4.482   5.063   5.684  0.2133 -1.0231 -0.3147
  231MOL0     H31832   4.594   5.048   5.885 -2.4297  1.2503 -0.1061
  231MOL0     H31833   4.530   4.883   5.920 -0.2112  0.8483 -0.1485
  231MOL0     H31834   4.652   4.796   5.716  0.4446 -0.2758  0.3111
  231MOL0     H31835   4.722   4.960   5.691  0.2253 -1.2273 -0.8589
  231MOL0     H31836   4.957   4.761   6.029 -2.2430 -1.8212  0.0577
  231MOL0     H31837   5.102   4.582   6.081 -1.3309  0.5670 -1.1130
  231MOL0     H31838   5.262   4.637   6.023 -0.1925 -0.2551  1.4824
  231MOL0     H31839   5.203   4.487   5.974 -2.3766 -1.0499  1.9983
  231MOL0     H31840   5.536   4.498   5.923 -2.3510  0.6962 -0.2765
  231MOL0     H31841   5.764   4.459   5.891 -0.4824 -1.9147  0.3785
  231MOL0     H31842   5.968   4.626   5.780  2.3786 -0.1110  1.6851
  231MOL0     H31843   6.009   4.462   5.818 -1.8310  0.7795  0.9603
  231MOL0     H31844   6.128   4.649   5.597 -0.2971  1.4128  1.6029
  231MOL0     H31845   6.198   4.585   5.741 -3.4576 -0.0142  1.8760
  231MOL0     H31846   6.111   4.444   5.485 -0.5943 -3.7523 -0.3214
  231MOL0     H31847   6.161   4.348   5.626 -3.2770  0.7381  0.4641
  231MOL0     H31848   6.394   4.438   5.624 -1.1239 -0.8885  0.8057
  231MOL0     H31849   6.342   4.556   5.496 -0.7054  1.9304  2.1018
  231MOL0     H31850   6.328   4.265   5.438 -2.9047  0.5855  0.9680
  231MOL0     H31851   6.339   4.405   5.326 -0.6140 -0.4255  0.7793
  231MOL0     H31852   6.567   4.349   5.512 -0.0830  2.2549  0.1483
  231MOL0     H31853   6.561   4.457   5.379  0.4317 -0.5008  0.4202
  231MOL0     H31854   6.513   4.255   5.235 -2.3409  1.0980  0.5981
  231MOL0     H31855   6.545   4.153   5.384 -1.2863  1.5251  1.0286
  231MOL0     H31856   6.742   4.323   5.240  4.1784 -0.6425 -0.8520
  231MOL0     H31857   6.730   4.141   5.245 -2.0597  0.6142 -0.8980
  231MOL0     H31858   5.725   4.578   5.484  0.4949 -0.5089  0.8887
  231MOL0     H31859   5.473   4.656   5.535  1.1172  2.8420  0.6884
  231MOL0     H31860   5.069   4.692   5.546  0.3384 -1.5048  1.4478
  231MOL0     H31861   4.870   4.788   5.599  1.0980 -1.0411 -0.5419
  231MOL0     H31862   4.677   4.111   6.657 -0.9208  1.5156 -0.5004
  231MOL0     H31863   4.911   4.084   6.708 -0.6852 -2.0816  1.2512
  231MOL0     H31864   5.343   4.119   6.804  0.0080  1.2211 -1.1589
  231MOL0     H31865   5.576   4.080   6.833  0.1013  0.9562 -0.4365
  231MOL0     H31866   5.730   3.982   6.473 -1.2915  1.2134  1.0391
  231MOL0     H31867   5.769   4.111   6.587  3.6450  2.0641 -1.4599
  231MOL0     H31868   5.971   3.974   6.664 -2.3361 -2.6734  2.0381
  231MOL0     H31869   5.982   4.037   6.492 -0.9474 -0.6638 -0.5780
  231MOL0     H31870   5.942   3.752   6.586  0.4487 -0.4639 -1.2957
  231MOL0     H31871   5.904   3.811   6.424  1.3017 -1.3599 -0.6411
  231MOL0     H31872   6.154   3.698   6.453 -1.4769 -0.8409  0.9512
  231MOL0     H31873   6.200   3.832   6.550 -0.8682  0.5476  0.1038
  231MOL0     H31874   6.189   3.990   6.164  1.9546  3.5356  1.1472
  231MOL0     H31875   5.572   3.789   6.522  0.0974 -1.8330  1.4999
  231MOL0     H31876   5.301   3.855   6.377  0.9098  0.4147  1.8604
  231MOL0     H31877   5.371   3.699   6.429 -1.6845 -1.6606 -0.0226
  231MOL0     H31878   5.216   3.750   6.493 -1.2096  1.0499  0.6197
  232MOL0     O31879  10.241   9.335  10.653 -0.0492 -0.0206  0.7592
  232MOL0     C31880  10.216   9.311  10.537  0.1349 -0.7376  0.9354
  232MOL0     O31881  10.307   9.291  10.441 -0.5490  0.7804  0.5700
  232MOL0     C31882  10.446   9.303  10.477 -0.0670  0.1548 -0.1467
  232MOL0     C31883  10.536   9.195  10.478 -0.1705 -0.5031  0.5382
  232MOL0     C31884  10.667   9.211  10.513  0.5375  0.4600  0.1981
  232MOL0     C31885  10.719   9.330  10.560  0.1535  0.3776  0.4935
  232MOL0     O31886  10.858   9.340  10.595  0.5332  0.6010  0.4973
  232MOL0     C31887  10.946   9.342  10.480 -0.3866 -0.1567  0.4723
  232MOL0     C31888  11.066   9.442  10.508  0.0259 -0.8906  0.1643
  232MOL0     C31889  11.015   9.579  10.550 -0.6675  0.8979  0.6627
  232MOL0     C31890  11.111   9.677  10.616  0.1779 -0.1080  0.3550
  232MOL0     C31891  11.040   9.811  10.656 -0.3621  0.3929  0.7884
  232MOL0     C31892  10.912   9.790  10.740  0.2135 -0.1877  0.4666
  232MOL0     C31893  10.852   9.929  10.787  0.4410 -0.0357  1.1409
  232MOL0     C31894  10.876   9.957  10.934 -0.1164 -0.4891  0.2173
  232MOL0     N31895  10.827  10.098  10.962 -0.3039  0.2631  0.2569
  232MOL0     C31896  10.698  10.125  11.011  0.0500 -0.1956  0.6430
  232MOL0     C31897  10.691  10.264  11.005  0.7316 -0.0507 -0.4769
  232MOL0     C31898  10.564  10.337  11.042  0.2363  0.0106  0.0429
  232MOL0     C31899  10.441  10.277  10.970  0.0382  0.3480  0.1834
  232MOL0     C31900  10.312  10.275  11.047  0.5979 -0.6354 -0.0795
  232MOL0     C31901  10.310  10.194  11.182 -0.3309 -0.7002 -0.0333
  232MOL0     O31902  10.365  10.062  11.166  0.5522  0.1860 -0.0484
  232MOL0     C31903  10.300   9.954  11.222  0.0082 -0.8364 -0.3391
  232MOL0     C31904  10.374   9.841  11.253 -0.1725 -0.8187 -0.0515
  232MOL0     C31905  10.321   9.719  11.315 -0.3920 -0.2435 -0.4467
  232MOL0     C31906  10.422   9.613  11.366 -0.5436 -0.4635  0.5573
  232MOL0     C31907  10.180   9.717  11.345 -0.5713  0.6518 -0.4514
  232MOL0     C31908  10.112   9.597  11.409  0.3276  0.9814 -0.0803
  232MOL0     O31909   9.982   9.613  11.454 -0.0365 -1.0005  0.9189
  232MOL0     C31910   9.915   9.506  11.497  0.3185  0.1386 -0.3639
  232MOL0     C31911   9.953   9.420  11.601 -0.3660  0.2445 -0.5168
  232MOL0     C31912   9.870   9.308  11.632 -0.2270  0.3034 -0.2093
  232MOL0     C31913   9.752   9.281  11.559 -0.4573  0.1778 -0.3540
  232MOL0     O31914   9.676   9.172  11.603  0.3004  0.1390  0.2498
  232MOL0     C31915   9.593   9.104  11.507  0.6072 -0.6863  1.0690
  232MOL0     C31916   9.550   8.981  11.576 -0.3302 -0.0641  0.2891
  232MOL0     C31917   9.446   9.004  11.681  0.6014  0.0632 -0.7500
  232MOL0     C31918   9.411   8.859  11.720  0.6800 -0.7672  0.0804
  232MOL0     C31919   9.299   8.846  11.829  0.6608  0.1082  0.5498
  232MOL0     C31920   9.270   8.698  11.857 -0.2143  0.7960 -0.5253
  232MOL0     C31921   9.176   8.684  11.967  0.4647  0.0936  0.0396
  232MOL0     C31922   9.139   8.539  11.993 -0.2494  1.1321  0.0474
  232MOL0    Cl31923   9.011   8.536  12.124 -0.0789 -0.1183 -0.3130
  232MOL0     C31924   9.716   9.369  11.451  0.4131 -0.2145 -0.5209
  232MOL0     C31925   9.806   9.477  11.420  0.8460  0.4625  0.3728
  232MOL0     O31926  10.170   9.486  11.393  0.4328 -0.0757  0.2010
  232MOL0     C31927  10.105   9.823  11.284 -0.1588  0.3620 -0.4946
  232MOL0     C31928  10.166   9.944  11.235  0.3815  0.2526 -0.3936
  232MOL0     N31929  10.809  10.323  10.964  0.1392  0.7371 -0.2297
  232MOL0     N31930  10.897  10.215  10.952 -0.4507 -1.2640  0.1898
  232MOL0     C31931  10.634   9.444  10.556  0.3476  0.4837 -0.3852
  232MOL0     C31932  10.500   9.426  10.513 -0.0611  1.0729 -1.0820
  232MOL0     C31933  10.082   9.302  10.485 -0.9670 -0.2624 -0.0946
  232MOL0     C31934  10.043   9.202  10.398  0.6349  0.0825 -0.0961
  232MOL0     C31935   9.915   9.193  10.344  0.1687  1.0050 -0.9279
  232MOL0     C31936   9.812   9.272  10.383  0.7106  0.3251  0.0438
  232MOL0     O31937   9.693   9.267  10.319 -1.1001  0.2329  0.3645
  232MOL0     C31938   9.628   9.137  10.317 -0.1692  0.1766  0.5667
  232MOL0     C31939   9.557   9.110  10.181 -0.9446  0.4849 -0.6858
  232MOL0     C31940   9.425   9.191  10.160  0.1486  0.0757  0.0497
  232MOL0     C31941   9.372   9.174  10.015  0.0236  0.4887 -0.4924
  232MOL0     C31942   9.459   9.247   9.922  0.6172  0.7687 -1.2058
  232MOL0     C31943   9.532   9.306   9.853  0.1320  0.8024  0.1397
  232MOL0     C31944   9.840   9.374  10.477 -0.1226  1.1273 -0.0621
  232MOL0     C31945   9.977   9.395  10.528 -0.5952 -0.2071  0.5764
  232MOL0     C31946  10.007   9.505  10.617 -0.1036 -0.2877  0.4175
  232MOL0     H31947  10.504   9.096  10.448  0.1714  0.0766 -2.0330
  232MOL0     H31948  10.738   9.130  10.495 -0.9319 -0.7839 -0.2980
  232MOL0     H31949  10.890   9.376  10.392 -2.4284 -2.5432  0.7317
  232MOL0     H31950  10.991   9.246  10.455  0.5871 -0.0897  1.8884
  232MOL0     H31951  11.131   9.407  10.589  0.4246  0.9873  0.6896
  232MOL0     H31952  11.130   9.447  10.419  0.8618 -0.4584  0.7783
  232MOL0     H31953  10.963   9.620  10.463 -1.4822 -1.4342 -0.0284
  232MOL0     H31954  10.936   9.562  10.624 -1.9192 -0.7526 -0.9598
  232MOL0     H31955  11.167   9.626  10.694  3.3439 -0.8375 -2.1665
  232MOL0     H31956  11.194   9.700  10.549 -0.5822 -2.0633 -1.3740
  232MOL0     H31957  11.015   9.866  10.564 -1.4561  1.6695  1.8181
  232MOL0     H31958  11.106   9.868  10.721  0.2115  0.0783  0.4955
  232MOL0     H31959  10.838   9.751  10.670  1.9943 -0.6960 -1.2286
  232MOL0     H31960  10.939   9.728  10.826  1.3596 -1.2466 -0.6347
  232MOL0     H31961  10.745   9.920  10.768  0.0793  3.2380  1.0885
  232MOL0     H31962  10.880  10.011  10.721  0.3954 -0.6035  0.3955
  232MOL0     H31963  10.815   9.885  10.989 -2.3711 -0.5936 -2.2195
  232MOL0     H31964  10.981   9.942  10.964  0.4063 -1.1298 -1.7809
  232MOL0     H31965  10.611  10.064  11.035 -1.7181  1.7715 -0.3963
  232MOL0     H31966  10.580  10.444  11.027  1.0069 -0.1230 -0.1437
  232MOL0     H31967  10.556  10.320  11.149 -1.3060 -1.4802 -0.2651
  232MOL0     H31968  10.415  10.327  10.876 -0.7511 -1.5572 -0.6593
  232MOL0     H31969  10.470  10.178  10.935 -1.4795 -0.2154  0.4871
  232MOL0     H31970  10.278  10.377  11.069  1.9433 -0.3660  0.8569
  232MOL0     H31971  10.243  10.227  10.977  1.4496 -0.4154 -1.0932
  232MOL0     H31972  10.366  10.237  11.266  1.1293 -1.8354 -0.3779
  232MOL0     H31973  10.206  10.187  11.213 -0.3630 -1.1508 -0.2378
  232MOL0     H31974  10.475   9.861  11.218  0.6687 -2.9311  0.9926
  232MOL0     H31975  10.412   9.596  11.474  2.9000 -0.6492  0.9507
  232MOL0     H31976  10.523   9.651  11.346 -2.0427  2.9605 -1.3628
  232MOL0     H31977  10.418   9.517  11.314  2.0977 -0.9866  1.1940
  232MOL0     H31978  10.042   9.446  11.657  0.1713 -2.8211  0.2109
  232MOL0     H31979   9.891   9.242  11.715 -1.6345 -1.1679 -0.9876
  232MOL0     H31980   9.509   9.168  11.479  0.8781 -1.3764 -1.5295
  232MOL0     H31981   9.632   9.081  11.408 -2.7560 -0.2104 -0.5199
  232MOL0     H31982   9.514   8.910  11.500 -1.1335 -0.5517  1.1072
  232MOL0     H31983   9.633   8.923  11.619  1.0467  1.7982  0.2463
  232MOL0     H31984   9.355   9.052  11.645  0.2640 -0.6707 -0.9012
  232MOL0     H31985   9.486   9.057  11.767  1.5591 -0.0801 -1.0907
  232MOL0     H31986   9.506   8.812  11.747  0.9786 -1.4433 -1.9745
  232MOL0     H31987   9.373   8.817  11.627  0.8581  0.5072 -0.5911
  232MOL0     H31988   9.342   8.884  11.922 -0.8230  1.1525  0.8265
  232MOL0     H31989   9.207   8.901  11.809 -0.0224 -0.0230  3.0574
  232MOL0     H31990   9.359   8.648  11.896 -1.3674 -1.0381 -0.1405
  232MOL0     H31991   9.240   8.646  11.766  2.3068  2.1435 -2.2506
  232MOL0     H31992   9.080   8.730  11.941  0.9394  0.7331 -0.6503
  232MOL0     H31993   9.217   8.734  12.055  1.5238  1.2500 -1.0554
  232MOL0     H31994   9.229   8.485  12.023 -1.7392 -0.6594  1.4906
  232MOL0     H31995   9.097   8.500  11.900 -0.3192  1.7717 -0.1954
  232MOL0     H31996   9.622   9.352  11.399  0.5165  0.0803 -0.8093
  232MOL0     H31997   9.779   9.537  11.334  1.7762  2.8596  1.6606
  232MOL0     H31998   9.996   9.817  11.290 -0.0340 -1.8584  0.6549
  232MOL0     H31999  10.100  10.024  11.203 -1.1380 -0.6495  0.3337
  232MOL0     H32000  10.690   9.536  10.575  2.5566 -0.9727  0.5180
  232MOL0     H32001  10.435   9.513  10.514  0.1352  1.2595 -2.4008
  232MOL0     H32002  10.109   9.119  10.373  3.0167  1.8385 -0.0748
  232MOL0     H32003   9.897   9.113  10.273 -1.0570 -1.8747  2.2982
  232MOL0     H32004   9.698   9.056  10.336 -2.8070 -2.0796  1.2346
  232MOL0     H32005   9.560   9.118  10.401 -0.1613 -2.9541 -0.0257
  232MOL0     H32006   9.537   9.002  10.177 -1.7181  0.5755  0.2881
  232MOL0     H32007   9.629   9.128  10.101  1.7072 -0.6571  1.2859
  232MOL0     H32008   9.349   9.158  10.232 -0.1594  0.0124 -0.2949
  232MOL0     H32009   9.438   9.299  10.157  2.4842 -0.1684 -0.9645
  232MOL0     H32010   9.274   9.223  10.016 -1.2422 -1.8194  1.9068
  232MOL0     H32011   9.353   9.070   9.985  0.7270  0.3423 -0.4386
  232MOL0     H32012   9.597   9.341   9.775  1.8478 -0.3552  0.9776
  232MOL0     H32013   9.771   9.455  10.499  1.2694  2.7465 -1.3183
  232MOL0     H32014   9.938   9.589  10.599  2.8564  2.1179 -0.5421
  232MOL0     H32015   9.983   9.468  10.717  0.3294  0.2403  0.7241
  232MOL0     H32016  10.106   9.546  10.598 -0.7744  1.3743  0.3258
  233MOL0     O32017   9.399   8.027   6.591  0.6276  0.8161  0.2033
  233MOL0     C32018   9.371   8.139   6.632 -0.4114  0.5299  0.6233
  233MOL0     O32019   9.469   8.228   6.682  0.4531 -0.3200  0.3138
  233MOL0     C32020   9.596   8.191   6.661  0.9498 -0.0298 -0.7521
  233MOL0     C32021   9.670   8.152   6.770 -0.8578 -0.1619 -0.5305
  233MOL0     C32022   9.814   8.123   6.757  0.2312 -0.0540  0.4715
  233MOL0     C32023   9.869   8.134   6.621 -0.0760 -0.1632  0.6341
  233MOL0     O32024  10.002   8.110   6.608 -0.4498  0.4982 -0.3458
  233MOL0     C32025  10.050   8.084   6.471 -0.4660  0.2101 -0.4470
  233MOL0     C32026  10.198   8.048   6.487  1.1479 -0.5601  0.3182
  233MOL0     C32027  10.284   8.169   6.531  0.4053  0.6015 -0.4486
  233MOL0     C32028  10.428   8.133   6.557  0.5813 -1.1449  0.3828
  233MOL0     C32029  10.509   8.235   6.650  1.2419 -0.3043 -0.7613
  233MOL0     C32030  10.472   8.383   6.617 -0.5697  0.3503 -0.2563
  233MOL0     C32031  10.573   8.469   6.694 -0.1776  0.0078  0.4300
  233MOL0     C32032  10.557   8.616   6.651  0.0323 -0.6269 -0.7076
  233MOL0     N32033  10.602   8.643   6.514  0.6228  0.7379  0.7463
  233MOL0     C32034  10.731   8.634   6.467 -0.2490  0.0057  0.0461
  233MOL0     C32035  10.725   8.636   6.331  0.3895 -0.3510  0.2868
  233MOL0     C32036  10.852   8.655   6.245 -0.2958 -0.5690  0.8391
  233MOL0     C32037  10.969   8.728   6.315 -0.3508  0.5873  0.1477
  233MOL0     C32038  11.065   8.775   6.209 -0.2868  0.2761  0.0168
  233MOL0     C32039  11.185   8.829   6.276 -0.4479  0.5672 -0.2939
  233MOL0     O32040  11.282   8.864   6.176  0.4067 -0.1245 -0.0993
  233MOL0     C32041  11.401   8.928   6.210  0.0934 -0.1330  0.1123
  233MOL0     C32042  11.448   8.928   6.340 -0.0923 -0.9290 -0.6034
  233MOL0     C32043  11.580   8.967   6.379 -0.2025  0.9164  0.0095
  233MOL0     C32044  11.619   8.959   6.519  0.6880  0.2148 -0.0755
  233MOL0     C32045  11.666   9.010   6.278 -0.3015 -0.1328 -0.2088
  233MOL0     C32046  11.811   9.056   6.305 -0.0616  0.4373  0.5161
  233MOL0     O32047  11.886   9.090   6.198  0.5352  0.5662 -0.6073
  233MOL0     C32048  12.019   9.115   6.222 -0.8203  0.6852  0.1046
  233MOL0     C32049  12.113   9.037   6.292 -0.5902 -0.9161  1.1243
  233MOL0     C32050  12.242   9.081   6.315  0.0704  0.5233  0.5632
  233MOL0     C32051  12.289   9.207   6.277  0.0044 -0.8417 -0.4401
  233MOL0     O32052  12.406   9.253   6.319  0.2145 -0.7005 -0.5963
  233MOL0     C32053  12.511   9.198   6.244 -0.1356 -0.4137 -0.5865
  233MOL0     C32054  12.635   9.171   6.323 -0.0590 -0.3125  0.0619
  233MOL0     C32055  12.704   9.048   6.278  0.6598  0.5757  0.1994
  233MOL0     C32056  12.840   9.057   6.343 -0.1680  0.3256  0.0736
  233MOL0     C32057  12.918   8.932   6.301  0.3041  0.4780  0.4582
  233MOL0     C32058  13.060   8.924   6.352 -0.5061  0.1594  0.5362
  233MOL0     C32059  13.141   9.018   6.248  0.4853  1.4624 -0.6347
  233MOL0     C32060  13.227   9.119   6.316  0.3237  0.1104 -0.0920
  233MOL0    Cl32061  13.134   9.267   6.353  0.4830 -0.3469 -0.3766
  233MOL0     C32062  12.203   9.286   6.200 -0.0609  0.5774  0.0831
  233MOL0     C32063  12.072   9.238   6.177 -0.0481 -0.1674 -0.1117
  233MOL0     O32064  11.857   9.049   6.420  0.4413  0.3264  0.2506
  233MOL0     C32065  11.621   9.008   6.146 -0.3096  0.8107 -0.2884
  233MOL0     C32066  11.495   8.961   6.115  0.0768 -0.0797 -0.2613
  233MOL0     N32067  10.590   8.634   6.306  0.1085  0.5424  0.2000
  233MOL0     N32068  10.516   8.633   6.412  0.4916 -0.3434  0.2894
  233MOL0     C32069   9.785   8.180   6.515  0.1661 -0.5556 -0.6671
  233MOL0     C32070   9.652   8.214   6.536 -0.3575 -0.1297 -0.3810
  233MOL0     C32071   9.227   8.176   6.636 -0.0509  0.0327  0.5620
  233MOL0     C32072   9.136   8.076   6.600 -0.0496  0.9657 -1.1047
  233MOL0     C32073   8.997   8.097   6.618  0.0092 -0.1859  0.3174
  233MOL0     C32074   8.947   8.212   6.673  0.1038 -0.3003 -0.4490
  233MOL0     O32075   8.815   8.227   6.714 -0.5026  0.2286  1.0215
  233MOL0     C32076   8.723   8.135   6.658 -0.4187 -0.5376 -0.4816
  233MOL0     C32077   8.579   8.174   6.676 -0.2098 -0.4263 -0.8461
  233MOL0     C32078   8.540   8.322   6.645 -0.2753  0.7566 -0.5060
  233MOL0     C32079   8.585   8.355   6.501  0.1479  0.3943 -0.6771
  233MOL0     C32080   8.549   8.256   6.404  0.2514  0.8047 -0.2910
  233MOL0     C32081   8.522   8.161   6.326 -0.2547 -0.3411 -0.2728
  233MOL0     C32082   9.049   8.313   6.711  0.2403 -0.1508 -0.6798
  233MOL0     C32083   9.183   8.306   6.688 -0.7117 -0.0129  0.4361
  233MOL0     C32084   9.265   8.425   6.734  0.2178 -0.0277  0.5978
  233MOL0     H32085   9.612   8.160   6.861 -1.0400  1.7310 -0.7641
  233MOL0     H32086   9.880   8.105   6.841  1.1308 -0.7497 -0.3704
  233MOL0     H32087  10.043   8.179   6.417 -0.2957 -0.4250 -1.6341
  233MOL0     H32088   9.989   8.010   6.418  0.5081  1.0697 -2.9339
  233MOL0     H32089  10.213   7.965   6.557  0.8963 -0.1247  0.8957
  233MOL0     H32090  10.234   8.011   6.391 -0.9872 -1.2550 -0.2733
  233MOL0     H32091  10.270   8.249   6.457 -1.3363 -1.4714 -2.4965
  233MOL0     H32092  10.239   8.204   6.625 -1.8855 -0.3750 -1.1222
  233MOL0     H32093  10.437   8.036   6.606  3.6334 -1.0380  0.1991
  233MOL0     H32094  10.473   8.129   6.458  3.5203 -0.5281  1.5838
  233MOL0     H32095  10.616   8.215   6.646  1.4848 -0.3247  2.7524
  233MOL0     H32096  10.472   8.215   6.751  5.0626 -2.0001  0.4674
  233MOL0     H32097  10.485   8.381   6.509  0.2995 -0.0159 -0.1602
  233MOL0     H32098  10.373   8.411   6.654  0.1453 -0.4171  2.5573
  233MOL0     H32099  10.678   8.437   6.692  0.1854  1.0584  1.3563
  233MOL0     H32100  10.541   8.465   6.798  0.2588  0.3224  0.5790
  233MOL0     H32101  10.453   8.648   6.661 -0.4715 -2.2768 -0.4057
  233MOL0     H32102  10.616   8.685   6.712  1.5157 -2.4845  0.0662
  233MOL0     H32103  10.816   8.634   6.535 -0.5495 -0.5998  0.4346
  233MOL0     H32104  10.823   8.714   6.158  2.2648  0.8140  0.8405
  233MOL0     H32105  10.882   8.562   6.197  0.8293  0.4235 -0.4463
  233MOL0     H32106  10.930   8.805   6.382  0.7516 -0.8170  2.5244
  233MOL0     H32107  11.022   8.655   6.377 -0.6226 -0.1463 -0.4667
  233MOL0     H32108  11.100   8.693   6.147  2.1092  2.3129 -1.5485
  233MOL0     H32109  11.018   8.848   6.143  0.3821  0.4691 -0.2590
  233MOL0     H32110  11.172   8.916   6.341  0.8567  2.3053 -2.2444
  233MOL0     H32111  11.227   8.743   6.330 -1.9365 -3.2852 -4.6359
  233MOL0     H32112  11.393   8.873   6.416  0.3418  1.0953  1.2852
  233MOL0     H32113  11.628   9.061   6.558 -2.9672  1.1311 -1.2645
  233MOL0     H32114  11.707   8.897   6.541 -0.4313 -1.4032  0.0116
  233MOL0     H32115  11.535   8.914   6.572  2.3951 -1.0675  1.7259
  233MOL0     H32116  12.073   8.945   6.334 -0.4432 -1.4000  0.2201
  233MOL0     H32117  12.305   9.021   6.379 -2.4397 -1.8550  0.9900
  233MOL0     H32118  12.481   9.102   6.201  0.3307  0.1685 -2.2904
  233MOL0     H32119  12.535   9.270   6.165  2.1328 -1.5941 -1.0726
  233MOL0     H32120  12.701   9.255   6.299  0.7541 -1.3166 -1.3334
  233MOL0     H32121  12.610   9.172   6.430 -0.1677 -3.5491  0.1673
  233MOL0     H32122  12.713   9.047   6.169  0.8223  4.4444  0.0546
  233MOL0     H32123  12.650   8.957   6.305 -0.6370  1.1551 -0.3538
  233MOL0     H32124  12.831   9.049   6.452  0.6407  2.6969  0.3742
  233MOL0     H32125  12.892   9.151   6.322  1.4403 -0.4397  0.4436
  233MOL0     H32126  12.881   8.840   6.347 -0.9376  0.4676 -0.5088
  233MOL0     H32127  12.916   8.908   6.194  1.2393 -3.1354  1.1171
  233MOL0     H32128  13.095   8.821   6.353  1.2006  0.6686  2.5443
  233MOL0     H32129  13.072   8.970   6.451 -1.6717  1.9188 -0.0935
  233MOL0     H32130  13.073   9.066   6.177  1.3883  2.4219 -0.8757
  233MOL0     H32131  13.209   8.958   6.186  0.6755  0.1725  0.7738
  233MOL0     H32132  13.313   9.153   6.257  2.3911 -0.4268  2.4463
  233MOL0     H32133  13.264   9.067   6.405 -2.8981 -1.5489  0.4339
  233MOL0     H32134  12.230   9.384   6.163  0.3239  0.3195 -0.3308
  233MOL0     H32135  12.010   9.307   6.120  1.9835  2.3021  0.4626
  233MOL0     H32136  11.676   9.051   6.064  1.2031  2.9798  1.7367
  233MOL0     H32137  11.461   8.941   6.014 -2.0248 -0.5879  0.4909
  233MOL0     H32138   9.831   8.215   6.423 -0.9010 -0.0069 -1.0097
  233MOL0     H32139   9.596   8.252   6.450 -0.2539 -0.8369 -0.7678
  233MOL0     H32140   9.168   7.979   6.563  1.4937  0.1054  2.1598
  233MOL0     H32141   8.940   8.007   6.596 -4.2719  1.8712  1.8239
  233MOL0     H32142   8.740   8.118   6.552 -4.4107  2.1027 -1.7489
  233MOL0     H32143   8.743   8.043   6.714  0.7729 -1.0570 -1.7122
  233MOL0     H32144   8.542   8.152   6.776 -0.8929 -0.8929 -1.1920
  233MOL0     H32145   8.525   8.093   6.626  0.6782 -4.2189  3.6936
  233MOL0     H32146   8.433   8.327   6.665 -0.4822 -2.3483 -0.3071
  233MOL0     H32147   8.588   8.389   6.717 -2.5180  0.3350  1.5082
  233MOL0     H32148   8.694   8.367   6.504  0.9633 -4.8490  0.6100
  233MOL0     H32149   8.523   8.437   6.464 -0.2306 -0.3348 -1.7132
  233MOL0     H32150   8.510   8.086   6.250 -3.9490  0.3854 -0.5992
  233MOL0     H32151   9.011   8.410   6.742  1.8689  1.5263 -3.4780
  233MOL0     H32152   9.202   8.512   6.754 -1.7839 -0.8828 -1.4003
  233MOL0     H32153   9.313   8.398   6.828  1.4971  2.2238  0.6404
  233MOL0     H32154   9.345   8.448   6.664  0.5264  0.8486  1.2341
  234MOL0     O32155   8.025   0.692   1.973  0.7856  0.4513 -0.2961
  234MOL0     C32156   8.046   0.574   1.960  0.2134 -0.6960  0.4853
  234MOL0     O32157   8.161   0.516   1.996  0.0487  0.4370  0.2367
  234MOL0     C32158   8.242   0.578   2.083 -0.1783 -0.1835  0.2626
  234MOL0     C32159   8.306   0.697   2.051  0.2860 -0.3537  0.5074
  234MOL0     C32160   8.391   0.769   2.134  0.0030  0.4080  0.2063
  234MOL0     C32161   8.425   0.709   2.256 -0.4517  0.0175 -1.3654
  234MOL0     O32162   8.510   0.761   2.346  0.0025 -0.7268  0.0352
  234MOL0     C32163   8.466   0.861   2.442  0.0412 -0.1474  0.0495
  234MOL0     C32164   8.584   0.896   2.529 -0.1180  0.0575  0.8084
  234MOL0     C32165   8.540   0.989   2.644 -0.6285 -0.6257  0.3005
  234MOL0     C32166   8.658   0.982   2.743 -0.4023  0.0632 -0.1220
  234MOL0     C32167   8.661   1.110   2.823 -0.4646 -0.4371 -0.4173
  234MOL0     C32168   8.781   1.122   2.922 -1.8033  0.3417  0.7834
  234MOL0     C32169   8.782   1.010   3.028  0.2366 -0.7825  0.1654
  234MOL0     C32170   8.860   1.028   3.166  0.9282 -0.5859  0.6099
  234MOL0     N32171   9.009   1.065   3.160  0.2621 -0.3769 -0.4421
  234MOL0     C32172   9.061   1.171   3.090  0.6148 -0.3442 -0.2652
  234MOL0     C32173   9.197   1.143   3.077 -0.3404 -0.4085 -1.5652
  234MOL0     C32174   9.293   1.237   3.006  0.9273 -0.6005 -0.3087
  234MOL0     C32175   9.298   1.371   3.085 -1.2234  0.0614  0.2578
  234MOL0     C32176   9.388   1.357   3.219 -0.1766  0.8076  0.1497
  234MOL0     C32177   9.393   1.495   3.291  0.0166  0.9517 -0.2717
  234MOL0     O32178   9.459   1.585   3.197  0.4523 -0.5042  0.1843
  234MOL0     C32179   9.576   1.649   3.241  0.0867 -0.5712  0.8517
  234MOL0     C32180   9.675   1.590   3.330 -0.2062  0.5441  1.3452
  234MOL0     C32181   9.782   1.663   3.379 -0.0365 -1.0331 -0.4579
  234MOL0     C32182   9.860   1.604   3.490 -0.3098 -0.4753 -0.1176
  234MOL0     C32183   9.814   1.786   3.320 -0.1064 -1.1478  0.0890
  234MOL0     C32184   9.947   1.854   3.333  0.1426 -0.6453  0.7986
  234MOL0     O32185   9.959   1.972   3.264 -0.0740 -0.1805 -0.2155
  234MOL0     C32186  10.059   2.065   3.294  0.2631  0.1939 -0.5559
  234MOL0     C32187  10.170   2.065   3.211  0.1814 -0.1601  0.2799
  234MOL0     C32188  10.256   2.171   3.207 -0.1431  0.8311  0.0065
  234MOL0     C32189  10.249   2.281   3.298  0.7430  0.5699 -0.3091
  234MOL0     O32190  10.336   2.386   3.300  0.1718 -0.5113 -0.3775
  234MOL0     C32191  10.275   2.508   3.246 -0.4863  0.3039  0.2184
  234MOL0     C32192  10.386   2.595   3.189  0.7106 -0.2293 -0.2792
  234MOL0     C32193  10.456   2.534   3.073 -0.3983  0.5953  0.2386
  234MOL0     C32194  10.570   2.613   2.999 -0.0212  0.6651  0.2668
  234MOL0     C32195  10.697   2.635   3.080  0.3693  1.0085 -0.2434
  234MOL0     C32196  10.818   2.660   2.988  0.4163  0.5237  0.0076
  234MOL0     C32197  10.934   2.703   3.064  0.5284  0.3980  0.2873
  234MOL0     C32198  11.063   2.681   2.975 -0.2544 -0.1206  0.0147
  234MOL0    Cl32199  11.091   2.517   2.926 -0.1143  0.1381  0.0796
  234MOL0     C32200  10.129   2.278   3.386  0.1809  0.2465  0.1252
  234MOL0     C32201  10.032   2.179   3.380 -0.0340 -0.0067 -0.0906
  234MOL0     O32202  10.044   1.794   3.377  0.3887  0.9940  0.0331
  234MOL0     C32203   9.723   1.838   3.222 -0.3509 -0.0062  0.7960
  234MOL0     C32204   9.605   1.773   3.186  0.2311 -0.0111 -0.4188
  234MOL0     N32205   9.220   1.026   3.142  0.5482 -1.0131  0.4415
  234MOL0     N32206   9.111   0.986   3.195  0.3357  0.5777 -0.3087
  234MOL0     C32207   8.365   0.583   2.287 -0.5938  0.0437  0.0432
  234MOL0     C32208   8.276   0.522   2.205  0.3184  0.1942  0.2814
  234MOL0     C32209   7.939   0.502   1.886 -0.4549 -1.2128  0.0681
  234MOL0     C32210   7.958   0.371   1.845 -0.4251  0.8119 -0.8399
  234MOL0     C32211   7.857   0.283   1.800  0.0355 -0.1158 -0.0514
  234MOL0     C32212   7.727   0.337   1.796  0.4019 -0.1655 -0.2099
  234MOL0     O32213   7.617   0.280   1.743 -0.0417 -0.7816 -0.1006
  234MOL0     C32214   7.591   0.294   1.607 -1.2759  0.3517 -0.5776
  234MOL0     C32215   7.468   0.218   1.570  0.0249  0.6865 -0.0551
  234MOL0     C32216   7.434   0.272   1.431 -0.2763 -0.3830  0.0489
  234MOL0     C32217   7.278   0.286   1.410 -1.0005 -0.6178 -0.4682
  234MOL0     C32218   7.224   0.418   1.461 -0.6828 -0.1390  0.1666
  234MOL0     C32219   7.155   0.509   1.494  0.9816 -0.1821  0.0594
  234MOL0     C32220   7.702   0.470   1.835 -0.0134 -0.9822  0.9841
  234MOL0     C32221   7.806   0.555   1.869  0.7426  0.1876 -0.0989
  234MOL0     C32222   7.766   0.705   1.877  0.5048 -0.2627 -0.1170
  234MOL0     H32223   8.291   0.741   1.953  1.2665 -0.2986  0.3704
  234MOL0     H32224   8.431   0.866   2.106 -1.1644  0.9952  0.5042
  234MOL0     H32225   8.385   0.820   2.502  0.6595 -0.0612  0.9614
  234MOL0     H32226   8.436   0.949   2.385  1.7796 -0.4500 -1.4692
  234MOL0     H32227   8.630   0.803   2.563 -1.6964 -0.7690  0.7523
  234MOL0     H32228   8.651   0.957   2.466  1.8702 -1.3401  1.4538
  234MOL0     H32229   8.530   1.094   2.616  2.1930 -0.3907 -0.1458
  234MOL0     H32230   8.444   0.950   2.679 -1.6148  0.0183 -1.5391
  234MOL0     H32231   8.655   0.897   2.812  1.1948 -0.8680 -1.0986
  234MOL0     H32232   8.755   0.972   2.692  0.5147 -2.9902  1.9232
  234MOL0     H32233   8.574   1.116   2.890  1.1238 -0.7884  1.7858
  234MOL0     H32234   8.657   1.198   2.758 -0.3050 -0.3976 -0.3736
  234MOL0     H32235   8.879   1.114   2.874 -1.3078  1.0384  1.6442
  234MOL0     H32236   8.775   1.213   2.982 -1.3330 -0.0656  1.4781
  234MOL0     H32237   8.834   0.924   2.986  0.3726 -1.2910  1.3219
  234MOL0     H32238   8.678   0.988   3.057  0.4473 -2.9804 -0.5541
  234MOL0     H32239   8.802   1.109   3.213  0.6733  0.5125 -1.4740
  234MOL0     H32240   8.833   0.948   3.235 -1.9022 -0.0344  0.2745
  234MOL0     H32241   9.003   1.257   3.057 -1.2544 -0.0840  3.1812
  234MOL0     H32242   9.254   1.252   2.905  1.5737 -1.3256 -0.6796
  234MOL0     H32243   9.390   1.188   2.997  0.7502 -0.8733 -0.8044
  234MOL0     H32244   9.354   1.444   3.026  1.0357 -1.6786  0.1213
  234MOL0     H32245   9.194   1.393   3.110 -1.4117 -2.7259  2.4482
  234MOL0     H32246   9.346   1.281   3.286 -0.2041  0.1129 -0.6307
  234MOL0     H32247   9.489   1.323   3.192  0.6179  0.8724  2.8013
  234MOL0     H32248   9.292   1.529   3.318  0.3964  0.5347  1.7946
  234MOL0     H32249   9.447   1.492   3.386 -1.6242 -0.3948  0.6806
  234MOL0     H32250   9.671   1.494   3.381  1.2796 -0.4181 -0.2701
  234MOL0     H32251   9.900   1.683   3.554 -2.0010 -1.7302  2.6842
  234MOL0     H32252   9.951   1.552   3.458  1.6785  2.2965  0.6947
  234MOL0     H32253   9.808   1.532   3.554  1.0270  0.1668  1.7511
  234MOL0     H32254  10.175   2.001   3.123 -2.6032  1.3311 -1.1219
  234MOL0     H32255  10.336   2.175   3.133 -0.5599  2.1550 -0.3996
  234MOL0     H32256  10.199   2.486   3.170  2.8450 -2.3411 -2.6913
  234MOL0     H32257  10.227   2.566   3.326  0.4041  0.0963  0.9147
  234MOL0     H32258  10.339   2.683   3.146 -0.4605  0.2381  1.8069
  234MOL0     H32259  10.461   2.631   3.261  1.0802  1.5459 -1.4939
  234MOL0     H32260  10.379   2.521   2.997 -0.3241 -1.5790  0.4731
  234MOL0     H32261  10.506   2.445   3.113  1.1252  0.3881 -1.9759
  234MOL0     H32262  10.521   2.706   2.969 -0.7852  0.2997  0.3580
  234MOL0     H32263  10.589   2.558   2.906 -0.8673 -1.4570  1.2861
  234MOL0     H32264  10.673   2.716   3.149 -1.8728 -0.7172  1.1612
  234MOL0     H32265  10.712   2.539   3.129 -0.5695  0.9434 -0.0744
  234MOL0     H32266  10.800   2.739   2.914  0.0028 -1.5781 -2.2742
  234MOL0     H32267  10.831   2.567   2.933 -1.0168  0.8387 -0.9265
  234MOL0     H32268  10.959   2.656   3.160 -0.4195  1.8777  1.2948
  234MOL0     H32269  10.923   2.808   3.091 -0.8584  0.2453  0.3728
  234MOL0     H32270  11.152   2.709   3.030  2.4941 -1.6590 -3.2434
  234MOL0     H32271  11.051   2.742   2.885  0.5737  0.2861  0.1812
  234MOL0     H32272  10.123   2.369   3.444 -1.6953  1.4943 -1.8920
  234MOL0     H32273   9.939   2.180   3.437  0.7581 -0.9463  1.2644
  234MOL0     H32274   9.743   1.938   3.186 -1.8434  1.0613  2.7573
  234MOL0     H32275   9.532   1.813   3.116 -0.9397 -2.4101 -0.6891
  234MOL0     H32276   8.381   0.550   2.389  1.7625  3.0338  0.7678
  234MOL0     H32277   8.243   0.423   2.234  1.5491  0.3164  2.2545
  234MOL0     H32278   8.054   0.329   1.872 -1.7075 -0.8037  1.5069
  234MOL0     H32279   7.881   0.184   1.761 -0.9038 -0.9378  1.3663
  234MOL0     H32280   7.585   0.401   1.585  0.4384  0.0764 -2.6243
  234MOL0     H32281   7.679   0.251   1.558 -0.8363  0.0097  0.4686
  234MOL0     H32282   7.390   0.242   1.642  0.6889  0.6159  0.7072
  234MOL0     H32283   7.480   0.110   1.571  0.4562  0.7242 -0.5047
  234MOL0     H32284   7.474   0.372   1.412  3.0943 -1.7533 -0.7973
  234MOL0     H32285   7.472   0.199   1.359 -1.8383 -1.1232 -0.0672
  234MOL0     H32286   7.223   0.207   1.462 -0.0928  1.2777  3.8145
  234MOL0     H32287   7.246   0.286   1.306 -2.6592 -0.4023  0.0086
  234MOL0     H32288   7.104   0.598   1.526  1.6801  0.9639 -1.8271
  234MOL0     H32289   7.606   0.518   1.816  0.0142 -0.5861  1.8119
  234MOL0     H32290   7.754   0.732   1.983  0.9616  0.2593 -0.1937
  234MOL0     H32291   7.834   0.773   1.825  0.4374 -0.6596 -0.7379
  234MOL0     H32292   7.668   0.731   1.837  1.1077  2.2321 -0.1604
  235MOL0     O32293   1.156   0.009   3.761 -0.8295  0.9378 -0.1108
  235MOL0     C32294   1.122   0.096   3.679 -0.1928 -0.2666  0.2513
  235MOL0     O32295   1.212   0.169   3.607 -0.1027  0.2818 -0.0505
  235MOL0     C32296   1.344   0.139   3.626  0.0944  0.5346  0.0413
  235MOL0     C32297   1.407   0.017   3.584  0.0462 -0.7489  0.3713
  235MOL0     C32298   1.542  -0.010   3.604  0.7556 -0.3268 -0.6579
  235MOL0     C32299   1.626   0.087   3.663 -0.0346  0.2864 -0.0883
  235MOL0     O32300   1.758   0.065   3.681  0.1666  0.2290  0.7231
  235MOL0     C32301   1.848   0.160   3.732 -0.0345 -0.2366 -0.2737
  235MOL0     C32302   1.953   0.070   3.794  0.1837 -0.8974  0.2876
  235MOL0     C32303   2.060   0.155   3.857  0.2994 -0.3620 -0.1284
  235MOL0     C32304   2.168   0.071   3.934  0.3154  0.1114  0.4395
  235MOL0     C32305   2.244   0.146   4.042 -0.1259 -0.2777  0.4126
  235MOL0     C32306   2.349   0.238   3.984 -0.4240 -0.5096  0.1664
  235MOL0     C32307   2.418   0.317   4.088  1.0036 -0.2108 -0.5025
  235MOL0     C32308   2.563   0.356   4.051  0.7164 -0.3898  0.0316
  235MOL0     N32309   2.617   0.457   4.149 -0.1543 -0.4800 -0.2570
  235MOL0     C32310   2.696   0.416   4.260  0.3139 -0.4798 -0.8322
  235MOL0     C32311   2.720   0.535   4.322 -0.0547 -0.4269 -0.4656
  235MOL0     C32312   2.807   0.541   4.445 -0.4261  0.5542  0.2013
  235MOL0     C32313   2.937   0.625   4.412 -0.2159 -0.2577 -0.4570
  235MOL0     C32314   3.036   0.642   4.530 -0.0251 -0.2507 -0.9540
  235MOL0     C32315   3.165   0.712   4.488 -0.2894  0.0368 -0.0794
  235MOL0     O32316   3.240   0.711   4.612  0.4223  0.0542 -0.4703
  235MOL0     C32317   3.357   0.781   4.604  0.5548 -0.6525  0.2343
  235MOL0     C32318   3.444   0.796   4.719  0.1113 -0.0366 -0.5654
  235MOL0     C32319   3.567   0.863   4.712 -1.0021 -0.6164  0.1090
  235MOL0     C32320   3.628   0.881   4.844 -0.4353  0.8286  0.5509
  235MOL0     C32321   3.618   0.901   4.590 -1.1984 -0.1039 -0.0123
  235MOL0     C32322   3.754   0.959   4.567 -0.0643  1.0224  0.0156
  235MOL0     O32323   3.841   0.942   4.662 -0.2020  0.3821 -0.7646
  235MOL0     C32324   3.975   0.930   4.623 -1.0799  0.0326  0.0725
  235MOL0     C32325   4.023   0.862   4.516  0.8697 -0.4023 -0.3628
  235MOL0     C32326   4.157   0.857   4.489  0.0126  0.4774  1.1363
  235MOL0     C32327   4.252   0.913   4.577 -0.4051  0.2574 -0.1111
  235MOL0     O32328   4.387   0.912   4.565  0.1795  0.0223  0.2469
  235MOL0     C32329   4.457   0.870   4.450  0.6808 -0.6447 -0.1765
  235MOL0     C32330   4.605   0.873   4.481 -0.1692  0.1923  0.0867
  235MOL0     C32331   4.684   0.765   4.410  0.1325  0.5119  0.5051
  235MOL0     C32332   4.684   0.632   4.489 -0.0853 -0.4701 -0.4506
  235MOL0     C32333   4.760   0.516   4.417  0.1277 -0.1855 -0.5727
  235MOL0     C32334   4.912   0.536   4.426 -0.1680 -0.3847 -0.0263
  235MOL0     C32335   4.992   0.434   4.348  0.6392 -0.0655 -0.3096
  235MOL0     C32336   5.144   0.437   4.376  0.7544 -0.4086 -0.4923
  235MOL0    Cl32337   5.227   0.594   4.324 -0.0668  0.0741 -0.3121
  235MOL0     C32338   4.201   0.981   4.685 -0.0359 -0.1277  1.0314
  235MOL0     C32339   4.063   0.985   4.711 -0.9712  0.4671 -0.1930
  235MOL0     O32340   3.778   1.006   4.452  1.0220 -0.3600 -0.2708
  235MOL0     C32341   3.541   0.877   4.479 -0.7256 -0.0565 -0.0861
  235MOL0     C32342   3.411   0.828   4.483 -0.9344 -0.4904 -0.4474
  235MOL0     N32343   2.665   0.639   4.248  0.0307 -0.1725 -0.6757
  235MOL0     N32344   2.614   0.593   4.143 -0.2420 -0.6412  0.1887
  235MOL0     C32345   1.558   0.201   3.702 -0.4534 -0.2315  0.5557
  235MOL0     C32346   1.423   0.230   3.689 -0.1327 -0.4131 -0.4651
  235MOL0     C32347   0.988   0.143   3.663 -0.0366 -0.2744 -0.0605
  235MOL0     C32348   0.953   0.256   3.586 -0.1372  0.4256 -0.2848
  235MOL0     C32349   0.820   0.292   3.562  0.7850  1.1651  0.7529
  235MOL0     C32350   0.718   0.222   3.616  0.1540  1.6141 -0.1852
  235MOL0     O32351   0.594   0.233   3.574  0.2392 -0.0154 -0.6565
  235MOL0     C32352   0.521   0.338   3.651  0.6193 -0.0608  0.3873
  235MOL0     C32353   0.439   0.270   3.750  1.1682  0.0823  0.2681
  235MOL0     C32354   0.329   0.361   3.808 -0.4873 -1.2288  0.2410
  235MOL0     C32355   0.282   0.327   3.950  0.2160 -0.8113  0.1460
  235MOL0     C32356   0.173   0.421   3.988 -0.4121  0.1555 -0.3461
  235MOL0     C32357   0.084   0.500   4.009  0.0997  0.4504  0.2454
  235MOL0     C32358   0.750   0.112   3.691  0.3109  0.3997  0.6915
  235MOL0     C32359   0.877   0.063   3.712  0.0493 -0.8963 -0.2516
  235MOL0     C32360   0.894  -0.078   3.776 -0.0297  0.7056  0.7996
  235MOL0     H32361   1.357  -0.070   3.543  3.5256 -2.7780  0.1086
  235MOL0     H32362   1.578  -0.108   3.576  0.2343 -0.3944 -1.1178
  235MOL0     H32363   1.804   0.217   3.814  1.2622 -0.6827  0.7616
  235MOL0     H32364   1.884   0.236   3.663 -1.9068  2.4538  1.5174
  235MOL0     H32365   1.898   0.015   3.871  0.2047 -3.3622 -1.3542
  235MOL0     H32366   2.002  -0.003   3.729  0.7461 -2.4734  2.3662
  235MOL0     H32367   2.120   0.205   3.780  0.8746  1.3746  1.3784
  235MOL0     H32368   2.013   0.227   3.925  1.3245  0.9361 -0.7520
  235MOL0     H32369   2.106   0.001   3.991 -4.5574  4.9284  1.9043
  235MOL0     H32370   2.237   0.022   3.865  0.7531  1.1888  0.0994
  235MOL0     H32371   2.289   0.079   4.115 -4.7275  0.3747  4.3535
  235MOL0     H32372   2.175   0.204   4.105  0.1050  1.2444 -0.6671
  235MOL0     H32373   2.427   0.186   3.927 -1.8533 -2.1314 -0.4116
  235MOL0     H32374   2.304   0.316   3.922 -0.3201 -0.4696  0.1413
  235MOL0     H32375   2.431   0.263   4.183 -1.3703 -1.8507 -1.0393
  235MOL0     H32376   2.355   0.405   4.105 -2.4239 -2.7306  1.0605
  235MOL0     H32377   2.626   0.267   4.057 -1.0899 -1.8897 -1.6537
  235MOL0     H32378   2.569   0.405   3.953 -1.3740  1.0533  0.5468
  235MOL0     H32379   2.725   0.317   4.293  1.6273  0.5809  1.4641
  235MOL0     H32380   2.833   0.443   4.486  1.5383  1.7521  2.0839
  235MOL0     H32381   2.760   0.598   4.526  0.6823  3.4292 -1.0496
  235MOL0     H32382   2.994   0.588   4.327  0.4950  1.1895 -0.6309
  235MOL0     H32383   2.897   0.721   4.379 -1.5318 -0.7178 -0.2614
  235MOL0     H32384   3.000   0.702   4.614  4.5352  0.6037  0.6826
  235MOL0     H32385   3.054   0.548   4.582 -3.5660  0.2513  1.5063
  235MOL0     H32386   3.225   0.652   4.419  0.4270  0.3633  0.2407
  235MOL0     H32387   3.136   0.815   4.463 -1.8148 -0.2296  0.4929
  235MOL0     H32388   3.403   0.761   4.813  1.4973  0.0232  0.0735
  235MOL0     H32389   3.729   0.840   4.853 -1.1971 -1.1639  0.2969
  235MOL0     H32390   3.562   0.854   4.927 -1.7363  1.1803 -0.3438
  235MOL0     H32391   3.641   0.990   4.851  1.3667  0.6607  0.2989
  235MOL0     H32392   3.953   0.805   4.455  0.1763 -0.6406  0.6314
  235MOL0     H32393   4.188   0.806   4.398 -1.5934  0.1311  0.7461
  235MOL0     H32394   4.419   0.773   4.417  0.6404 -0.1846 -1.5837
  235MOL0     H32395   4.424   0.942   4.374 -2.1046  1.1706  2.5421
  235MOL0     H32396   4.653   0.969   4.461 -0.3419  0.6575  1.7606
  235MOL0     H32397   4.623   0.861   4.589  1.7017  1.0950 -0.0738
  235MOL0     H32398   4.788   0.794   4.392  0.1102 -0.5609 -1.6598
  235MOL0     H32399   4.641   0.755   4.310  2.2519 -2.6927 -0.2088
  235MOL0     H32400   4.584   0.602   4.522 -0.3960 -0.5915 -1.4601
  235MOL0     H32401   4.732   0.645   4.586 -2.8268  0.3681  0.9057
  235MOL0     H32402   4.741   0.417   4.460  2.0029 -0.8856 -1.2365
  235MOL0     H32403   4.719   0.496   4.318 -1.0254 -4.3930  0.5387
  235MOL0     H32404   4.949   0.542   4.529 -0.1550 -3.7696  0.2791
  235MOL0     H32405   4.940   0.626   4.371  1.0228 -0.3617  0.5714
  235MOL0     H32406   4.979   0.450   4.240  4.6672 -0.9948 -1.0915
  235MOL0     H32407   4.944   0.340   4.377 -3.1061  1.9660  0.6868
  235MOL0     H32408   5.190   0.353   4.323  0.5480 -0.3632 -0.7433
  235MOL0     H32409   5.150   0.427   4.485  0.8261 -2.4750 -0.6462
  235MOL0     H32410   4.263   1.039   4.752  1.4402 -0.6638  0.1857
  235MOL0     H32411   4.028   1.028   4.804 -2.3525 -0.7188 -0.1336
  235MOL0     H32412   3.575   0.923   4.386 -0.7759  3.8456  1.6340
  235MOL0     H32413   3.363   0.817   4.386  0.5601 -2.3423 -1.0369
  235MOL0     H32414   1.611   0.280   3.754 -0.8193 -0.5856  1.4916
  235MOL0     H32415   1.366   0.318   3.719 -1.8768 -1.9206  0.8753
  235MOL0     H32416   1.024   0.313   3.527 -1.9756  0.3984 -2.6711
  235MOL0     H32417   0.798   0.375   3.495  2.0966 -0.2618 -1.5739
  235MOL0     H32418   0.588   0.416   3.688 -0.2664  0.9403 -0.0299
  235MOL0     H32419   0.453   0.395   3.587  1.6460 -0.0010 -0.6962
  235MOL0     H32420   0.504   0.253   3.836  1.3126  2.4727  0.6925
  235MOL0     H32421   0.398   0.180   3.702 -1.5901  1.4940 -0.2277
  235MOL0     H32422   0.356   0.466   3.813 -1.5998 -0.5908 -3.8241
  235MOL0     H32423   0.241   0.354   3.743 -1.4223  1.1139  1.1600
  235MOL0     H32424   0.358   0.336   4.028 -0.9420 -1.7096  1.4384
  235MOL0     H32425   0.251   0.222   3.948  1.7110 -1.2958  0.9464
  235MOL0     H32426   0.011   0.573   4.039  0.0274  0.1139  0.9133
  235MOL0     H32427   0.680   0.041   3.731  1.2689 -0.5969  0.6343
  235MOL0     H32428   0.807  -0.142   3.795  0.5835 -0.6802 -0.7861
  235MOL0     H32429   0.963  -0.137   3.714 -1.2849  0.1223 -0.0646
  235MOL0     H32430   0.937  -0.051   3.874 -0.0385  3.0082  0.2201
  236MOL0     O32431  11.145   3.685   0.493 -0.1345 -0.8912 -0.5294
  236MOL0     C32432  11.024   3.657   0.510  0.1355 -0.6735  0.5587
  236MOL0     O32433  10.970   3.568   0.601  0.4773 -0.0749 -0.0191
  236MOL0     C32434  11.053   3.473   0.654  0.0356  0.4148 -0.1192
  236MOL0     C32435  11.145   3.408   0.582 -1.2875 -0.4007 -0.1580
  236MOL0     C32436  11.218   3.298   0.622  0.8021  0.5596  0.7797
  236MOL0     C32437  11.191   3.242   0.756  0.3807  1.3372 -0.3927
  236MOL0     O32438  11.244   3.125   0.810  0.1890 -0.5956 -0.1558
  236MOL0     C32439  11.384   3.107   0.786  0.2721  0.5376 -0.3983
  236MOL0     C32440  11.471   3.154   0.905  0.0510 -0.0528 -0.4869
  236MOL0     C32441  11.525   3.306   0.878  0.5107 -0.1529  0.8950
  236MOL0     C32442  11.619   3.369   0.972 -1.2028 -0.3165  0.6064
  236MOL0     C32443  11.681   3.493   0.924 -0.7771 -0.2623 -0.2087
  236MOL0     C32444  11.759   3.564   1.034  0.3833 -0.1284  0.1043
  236MOL0     C32445  11.832   3.684   0.979  0.6169 -0.7348  0.2704
  236MOL0     C32446  11.923   3.749   1.086  0.4253  0.0987  0.3560
  236MOL0     N32447  11.979   3.858   1.012  0.5498  0.6887 -0.6119
  236MOL0     C32448  12.091   3.863   0.925 -0.6048  0.6988 -0.7951
  236MOL0     C32449  12.101   3.986   0.879 -0.1126 -0.0077 -0.0190
  236MOL0     C32450  12.200   4.033   0.782  0.7206 -0.4942  0.3652
  236MOL0     C32451  12.316   4.097   0.848  0.3920  1.0625 -0.0232
  236MOL0     C32452  12.440   4.124   0.752 -0.1025 -0.5407  0.5856
  236MOL0     C32453  12.521   4.003   0.720 -0.2835  0.7217  0.1851
  236MOL0     O32454  12.567   3.935   0.841 -0.6341  0.8354  0.6077
  236MOL0     C32455  12.678   3.992   0.896  0.1938  0.1536 -0.1143
  236MOL0     C32456  12.686   3.963   1.037  0.1062  0.8262  0.6180
  236MOL0     C32457  12.810   3.982   1.105 -0.3403 -0.2291 -0.0851
  236MOL0     C32458  12.823   3.923   1.246 -1.0750 -0.0664 -0.2777
  236MOL0     C32459  12.918   4.048   1.039 -0.6236  0.4885  0.2618
  236MOL0     C32460  13.049   4.056   1.101 -1.3910  0.3871 -0.0213
  236MOL0     O32461  13.143   4.024   1.005  0.4746  0.6118  0.0679
  236MOL0     C32462  13.272   4.049   1.028 -0.7601 -0.6485  0.8484
  236MOL0     C32463  13.345   4.061   0.911 -0.5294  0.1117  1.6395
  236MOL0     C32464  13.476   4.084   0.907 -0.2024 -0.3924 -0.5083
  236MOL0     C32465  13.551   4.101   1.034 -0.2718  0.5767  0.3093
  236MOL0     O32466  13.685   4.108   1.052  0.4323 -0.6899  0.5872
  236MOL0     C32467  13.775   4.156   0.948 -0.4969 -0.3286 -0.0568
  236MOL0     C32468  13.907   4.189   1.019  0.1876 -0.2760 -0.7567
  236MOL0     C32469  13.970   4.074   1.108  0.1406  0.9375  0.8032
  236MOL0     C32470  14.073   4.135   1.210 -0.0611 -0.3844  0.4448
  236MOL0     C32471  14.178   4.218   1.130  0.4248  0.2268  0.6895
  236MOL0     C32472  14.269   4.143   1.036 -0.2165 -0.4727 -0.4539
  236MOL0     C32473  14.317   4.013   1.100  0.0240  0.0314  0.9511
  236MOL0     C32474  14.423   3.931   1.016 -0.2180 -0.0124  1.2581
  236MOL0    Cl32475  14.556   4.047   0.981  0.1957 -0.1734  0.2157
  236MOL0     C32476  13.485   4.101   1.148 -1.5785  0.1086 -0.5440
  236MOL0     C32477  13.347   4.075   1.151  0.5848 -0.3138  0.1971
  236MOL0     O32478  13.076   4.094   1.218  0.6460 -0.4369 -0.0844
  236MOL0     C32479  12.908   4.084   0.901  1.1277  0.9657 -0.1154
  236MOL0     C32480  12.787   4.061   0.831 -0.1256 -0.3481  0.0860
  236MOL0     N32481  11.995   4.055   0.929  0.1878  0.2839 -0.4229
  236MOL0     N32482  11.925   3.985   1.014  0.1900  0.2750  0.1350
  236MOL0     C32483  11.101   3.318   0.839  0.2707 -0.2150  0.9965
  236MOL0     C32484  11.026   3.425   0.782  0.8814  0.2829 -0.3099
  236MOL0     C32485  10.923   3.727   0.421 -0.8068 -0.6265 -0.0288
  236MOL0     C32486  10.933   3.872   0.403 -0.6738  0.4560  0.6785
  236MOL0     C32487  10.841   3.942   0.332  0.4134  0.0569  0.4349
  236MOL0     C32488  10.729   3.876   0.281 -0.2976 -0.1980  1.2537
  236MOL0     O32489  10.634   3.953   0.212 -0.2472  0.1666 -0.1949
  236MOL0     C32490  10.569   3.897   0.099  0.5105 -0.6388 -0.1139
  236MOL0     C32491  10.506   4.005   0.008  0.1487  0.2730 -0.3627
  236MOL0     C32492  10.417   4.121   0.077  0.4610  0.0073  0.8884
  236MOL0     C32493  10.334   4.207  -0.015  0.3164 -1.0329 -0.2813
  236MOL0     C32494  10.412   4.266  -0.128 -0.0693  0.2419 -0.3550
  236MOL0     C32495  10.476   4.290  -0.227 -0.5091 -0.2277  0.2381
  236MOL0     C32496  10.713   3.733   0.303  0.5236 -0.5655 -0.7080
  236MOL0     C32497  10.808   3.657   0.374  0.3718 -0.4238  0.1238
  236MOL0     C32498  10.781   3.502   0.392 -0.1750 -0.9768 -0.4956
  236MOL0     H32499  11.169   3.451   0.485  0.5321 -0.8321  0.0684
  236MOL0     H32500  11.277   3.237   0.554  0.9573 -0.1938  1.5693
  236MOL0     H32501  11.423   3.140   0.689  1.1520 -1.5748 -0.8273
  236MOL0     H32502  11.401   2.999   0.783  0.3039  0.5487 -0.7185
  236MOL0     H32503  11.410   3.154   0.995 -1.0429  0.6703 -1.2038
  236MOL0     H32504  11.563   3.099   0.927  0.7857  0.9139 -1.0204
  236MOL0     H32505  11.584   3.292   0.788 -1.6132  0.7285 -0.7100
  236MOL0     H32506  11.431   3.359   0.860  0.2333 -0.9351 -0.0530
  236MOL0     H32507  11.576   3.399   1.068  0.6543  1.8748  0.8384
  236MOL0     H32508  11.695   3.298   1.005  2.2717  3.1049  0.7293
  236MOL0     H32509  11.602   3.557   0.884 -1.1157 -1.3611 -1.3623
  236MOL0     H32510  11.746   3.474   0.839  1.6996 -1.8689  1.8842
  236MOL0     H32511  11.677   3.596   1.098 -1.0400 -2.6113 -0.3358
  236MOL0     H32512  11.831   3.493   1.076 -0.6530 -0.0175  2.1476
  236MOL0     H32513  11.767   3.762   0.938  3.9572  0.9558 -2.3135
  236MOL0     H32514  11.891   3.648   0.894 -2.7542  0.9277 -3.0774
  236MOL0     H32515  11.865   3.781   1.173 -1.2490  0.9164 -1.0185
  236MOL0     H32516  12.002   3.680   1.118  1.2844  1.3707  1.0536
  236MOL0     H32517  12.162   3.789   0.889 -1.9536 -0.4125 -1.2165
  236MOL0     H32518  12.141   4.100   0.719 -1.6864 -4.2517 -1.8007
  236MOL0     H32519  12.229   3.953   0.713  0.3169  0.2653 -0.7077
  236MOL0     H32520  12.281   4.189   0.897  0.3832 -0.0687  2.2225
  236MOL0     H32521  12.348   4.038   0.934 -1.0234  0.7118  0.2908
  236MOL0     H32522  12.420   4.187   0.665  2.3994  0.4155  0.6181
  236MOL0     H32523  12.510   4.184   0.812  0.4679 -0.8862  0.2710
  236MOL0     H32524  12.459   3.941   0.654  0.0827 -0.8635  1.2593
  236MOL0     H32525  12.598   4.037   0.650  0.9032  1.1764  1.6495
  236MOL0     H32526  12.602   3.901   1.069  1.9667 -1.2751  1.7323
  236MOL0     H32527  12.721   3.917   1.285 -0.9506 -1.3172 -0.1044
  236MOL0     H32528  12.881   3.978   1.320 -0.3362 -1.0156 -0.1329
  236MOL0     H32529  12.859   3.820   1.239 -3.8648 -1.0363 -2.7478
  236MOL0     H32530  13.289   4.054   0.818 -0.5394  1.7621  1.4884
  236MOL0     H32531  13.536   4.098   0.818  1.8277 -2.8321  0.3414
  236MOL0     H32532  13.797   4.081   0.871  0.4729  0.0822 -0.1953
  236MOL0     H32533  13.750   4.246   0.891  4.0367 -1.1070 -3.9809
  236MOL0     H32534  13.974   4.203   0.934 -1.4056 -2.5461 -2.5179
  236MOL0     H32535  13.885   4.278   1.078  0.9641 -1.0852  0.8234
  236MOL0     H32536  14.020   3.999   1.046  0.6099  0.8241  1.3169
  236MOL0     H32537  13.896   4.023   1.170 -1.0254 -1.1348 -2.0399
  236MOL0     H32538  14.121   4.054   1.264 -0.5004 -1.1155 -0.2333
  236MOL0     H32539  14.023   4.205   1.278 -2.2387 -0.8101 -0.6093
  236MOL0     H32540  14.136   4.303   1.075 -0.4332 -0.4086  0.3450
  236MOL0     H32541  14.249   4.266   1.197  0.0829  1.7297  0.0230
  236MOL0     H32542  14.359   4.195   1.004  0.9466 -2.2739 -0.2530
  236MOL0     H32543  14.211   4.122   0.945 -0.3443  1.6858 -0.9127
  236MOL0     H32544  14.234   3.942   1.105  1.3922 -1.8253 -1.0263
  236MOL0     H32545  14.346   4.035   1.203 -1.1956  0.2109  1.2724
  236MOL0     H32546  14.385   3.879   0.927 -1.5759 -0.0080  1.8223
  236MOL0     H32547  14.459   3.848   1.078 -3.1952 -3.6462 -1.3742
  236MOL0     H32548  13.539   4.123   1.240  1.0053  0.4118 -2.0372
  236MOL0     H32549  13.300   4.063   1.249 -0.7861 -1.6316 -0.5894
  236MOL0     H32550  12.994   4.117   0.842  1.4181  0.8258  0.2265
  236MOL0     H32551  12.805   4.078   0.725  1.5439 -0.5089  0.3108
  236MOL0     H32552  11.077   3.282   0.939 -2.5475  0.4038  0.6475
  236MOL0     H32553  10.957   3.484   0.841 -1.0988 -1.6572 -0.5431
  236MOL0     H32554  11.014   3.936   0.436  1.0745 -0.7527 -1.0970
  236MOL0     H32555  10.849   4.050   0.321  0.0927  0.1731  1.2370
  236MOL0     H32556  10.644   3.837   0.046  1.2643  0.7178 -0.6226
  236MOL0     H32557  10.484   3.835   0.129  0.7710 -1.0043 -0.1233
  236MOL0     H32558  10.446   3.961  -0.072  1.4974  0.5898 -1.5816
  236MOL0     H32559  10.589   4.057  -0.041 -0.4110  1.8691  0.3545
  236MOL0     H32560  10.341   4.084   0.146 -0.5224 -0.7090 -0.5225
  236MOL0     H32561  10.487   4.181   0.136  1.5157  0.8589 -1.1225
  236MOL0     H32562  10.299   4.292   0.044  0.5669 -1.2274  0.1509
  236MOL0     H32563  10.249   4.150  -0.055  1.1630 -1.4079 -1.6335
  236MOL0     H32564  10.537   4.303  -0.315 -0.3791 -0.6301  0.2645
  236MOL0     H32565  10.623   3.688   0.265 -1.9902  1.8129  1.9310
  236MOL0     H32566  10.756   3.463   0.491 -0.7069 -0.3088 -0.3590
  236MOL0     H32567  10.701   3.468   0.325  0.9177 -2.4652 -1.1027
  236MOL0     H32568  10.871   3.447   0.363  0.1711  0.6251 -2.7079
  237MOL0     O32569   0.286   3.532   4.965 -0.4754  0.1160 -0.5356
  237MOL0     C32570   0.302   3.577   5.080 -0.2069  0.1310  0.1867
  237MOL0     O32571   0.420   3.596   5.142  0.2957 -0.1524 -1.2338
  237MOL0     C32572   0.535   3.559   5.088 -0.8994  0.3609 -0.6069
  237MOL0     C32573   0.581   3.607   4.964 -0.1673 -0.1859 -0.1302
  237MOL0     C32574   0.709   3.562   4.914  0.5852 -0.4491  0.5894
  237MOL0     C32575   0.786   3.474   4.994  0.1638  0.6752 -0.1521
  237MOL0     O32576   0.909   3.414   4.955 -0.7809 -0.9058  0.0934
  237MOL0     C32577   0.997   3.506   4.887 -1.0424  0.6869 -0.5366
  237MOL0     C32578   1.121   3.430   4.864 -0.0774  0.3472 -0.3189
  237MOL0     C32579   1.250   3.515   4.828  0.3024 -0.3018 -0.4492
  237MOL0     C32580   1.256   3.643   4.912 -0.4549 -0.7024 -0.4599
  237MOL0     C32581   1.393   3.718   4.916  0.2962  0.1803  0.3096
  237MOL0     C32582   1.410   3.805   4.786 -0.3025  0.8182 -0.3699
  237MOL0     C32583   1.527   3.908   4.796  0.8357 -0.6019  0.5982
  237MOL0     C32584   1.529   3.982   4.658 -0.0698  0.3922 -0.6723
  237MOL0     N32585   1.627   4.087   4.653 -0.6275  0.3926 -0.0545
  237MOL0     C32586   1.602   4.223   4.636  0.5816  0.8119  0.6839
  237MOL0     C32587   1.718   4.278   4.647 -0.7977  0.2003  0.7518
  237MOL0     C32588   1.740   4.427   4.639  0.2385  0.8250  0.5603
  237MOL0     C32589   1.890   4.446   4.609 -0.9347 -0.8649 -0.1923
  237MOL0     C32590   1.925   4.587   4.553 -0.5609  0.5028 -0.5132
  237MOL0     C32591   2.069   4.627   4.537  0.5266  0.7089 -0.5903
  237MOL0     O32592   2.078   4.761   4.490  0.4539 -0.3173 -0.5711
  237MOL0     C32593   2.199   4.822   4.496 -1.1182  0.5964  0.0810
  237MOL0     C32594   2.245   4.893   4.610  1.3087 -0.7616  0.4306
  237MOL0     C32595   2.371   4.943   4.613  0.1537 -0.2976  0.1300
  237MOL0     C32596   2.417   5.020   4.742 -0.1269  0.5360  0.2580
  237MOL0     C32597   2.460   4.924   4.500  0.9017 -0.1043 -0.2940
  237MOL0     C32598   2.596   4.976   4.491  0.3549 -1.1837  0.1639
  237MOL0     O32599   2.637   4.991   4.365  0.0141 -0.2866 -0.5757
  237MOL0     C32600   2.771   5.023   4.345  0.4461  0.6868  0.5088
  237MOL0     C32601   2.828   5.149   4.391  1.2768  0.8174  0.5061
  237MOL0     C32602   2.965   5.174   4.389  0.0796 -0.1416  0.2032
  237MOL0     C32603   3.047   5.077   4.331 -0.1667 -0.3059  0.5411
  237MOL0     O32604   3.186   5.094   4.319  0.1530 -0.4560 -0.3220
  237MOL0     C32605   3.255   5.220   4.333  1.3086 -0.1107 -0.0852
  237MOL0     C32606   3.375   5.212   4.238 -0.3277  0.3506 -0.8563
  237MOL0     C32607   3.444   5.352   4.245 -0.1633  0.3563  0.3092
  237MOL0     C32608   3.553   5.341   4.132 -0.2400 -0.6719 -0.8708
  237MOL0     C32609   3.686   5.257   4.155  0.8465 -0.0552  0.3921
  237MOL0     C32610   3.772   5.321   4.252  0.0119  0.5496  0.8083
  237MOL0     C32611   3.898   5.226   4.256 -0.1553 -0.4648 -0.2586
  237MOL0     C32612   4.029   5.308   4.259  0.3733  0.2046  0.2304
  237MOL0    Cl32613   4.169   5.197   4.281  0.0886  0.0554  0.1909
  237MOL0     C32614   2.993   4.954   4.289  0.6134 -1.3568  0.2717
  237MOL0     C32615   2.861   4.924   4.302  0.0953 -0.3163 -0.9054
  237MOL0     O32616   2.664   5.007   4.590  0.3336 -0.4259  0.2612
  237MOL0     C32617   2.405   4.856   4.387 -0.3433  0.5615  0.0149
  237MOL0     C32618   2.276   4.801   4.391 -0.9743  0.1701  0.8712
  237MOL0     N32619   1.817   4.180   4.668 -0.1629 -0.3098  1.3831
  237MOL0     N32620   1.757   4.068   4.680  0.3414 -0.7340  0.8234
  237MOL0     C32621   0.736   3.427   5.113 -0.3557 -0.7593 -0.1674
  237MOL0     C32622   0.607   3.469   5.160 -0.6570  0.5591 -0.8588
  237MOL0     C32623   0.177   3.619   5.148  0.3010 -0.5431  0.3908
  237MOL0     C32624   0.079   3.688   5.075 -0.0858  1.0266  0.4725
  237MOL0     C32625  -0.052   3.720   5.125 -0.8736 -0.4311 -0.0905
  237MOL0     C32626  -0.081   3.689   5.261 -0.1775 -0.6485 -0.2031
  237MOL0     O32627  -0.196   3.719   5.319  1.2202 -0.5555 -0.2192
  237MOL0     C32628  -0.280   3.816   5.248 -0.2503  0.4596 -0.5124
  237MOL0     C32629  -0.417   3.780   5.311 -0.6764 -0.6715 -0.3878
  237MOL0     C32630  -0.525   3.878   5.265 -0.8328 -0.0716 -0.5137
  237MOL0     C32631  -0.622   3.821   5.162  1.2198 -0.0163 -0.0638
  237MOL0     C32632  -0.555   3.791   5.039  0.2730 -0.5646 -0.1543
  237MOL0     C32633  -0.493   3.767   4.934 -0.8793  0.1580 -0.2669
  237MOL0     C32634   0.016   3.617   5.331 -0.3799  0.9836  0.2047
  237MOL0     C32635   0.140   3.582   5.281  0.0791 -0.4061 -0.1873
  237MOL0     C32636   0.246   3.529   5.378  0.0315  0.3836  0.5563
  237MOL0     H32637   0.519   3.676   4.908  1.7686  0.3022 -1.7826
  237MOL0     H32638   0.735   3.584   4.811 -1.4385 -0.4228  0.0401
  237MOL0     H32639   1.017   3.580   4.964 -1.4918 -0.8126  1.0725
  237MOL0     H32640   0.954   3.549   4.796  1.2458  1.2475 -1.4403
  237MOL0     H32641   1.136   3.373   4.956  0.1806 -0.3208 -0.7626
  237MOL0     H32642   1.117   3.351   4.788  0.0612  1.6643 -1.7295
  237MOL0     H32643   1.331   3.452   4.866  1.2343  1.6195  0.8885
  237MOL0     H32644   1.269   3.534   4.722  3.4803 -3.9197 -0.7556
  237MOL0     H32645   1.181   3.709   4.867  1.0231  0.5123 -1.2563
  237MOL0     H32646   1.227   3.635   5.017  2.1287 -0.6540  0.3428
  237MOL0     H32647   1.470   3.640   4.931 -0.4129 -1.0617 -1.9141
  237MOL0     H32648   1.409   3.783   5.002 -0.1110 -0.9054  1.2259
  237MOL0     H32649   1.442   3.734   4.709 -1.7715 -3.2930  2.4898
  237MOL0     H32650   1.318   3.855   4.755 -0.6965 -0.1528 -0.8175
  237MOL0     H32651   1.626   3.866   4.817  1.7984  0.4920 -1.4328
  237MOL0     H32652   1.494   3.967   4.882  0.0443 -0.1613  0.0090
  237MOL0     H32653   1.564   3.909   4.584 -0.4702 -0.7129  0.2010
  237MOL0     H32654   1.432   4.022   4.627 -1.0765 -0.8792  0.7316
  237MOL0     H32655   1.503   4.260   4.610 -0.2997 -2.4189 -0.9849
  237MOL0     H32656   1.711   4.479   4.730 -2.7222 -0.4034  0.4335
  237MOL0     H32657   1.681   4.449   4.549  1.1810 -2.1135 -0.9191
  237MOL0     H32658   1.949   4.420   4.698 -1.7750  1.6913  1.2292
  237MOL0     H32659   1.915   4.380   4.526 -0.5854 -1.2911  0.2440
  237MOL0     H32660   1.895   4.580   4.448  0.0152  0.5444 -0.6815
  237MOL0     H32661   1.882   4.671   4.608  2.1029  0.8410  1.2380
  237MOL0     H32662   2.104   4.621   4.640  0.1508  2.9087 -0.2823
  237MOL0     H32663   2.126   4.571   4.462 -0.0224  3.2036 -3.0547
  237MOL0     H32664   2.177   4.894   4.694 -1.4604 -0.9140 -1.6738
  237MOL0     H32665   2.341   5.002   4.819  0.9496 -3.2530  0.6564
  237MOL0     H32666   2.436   5.127   4.734  1.2431  0.3052  0.1699
  237MOL0     H32667   2.513   4.986   4.784 -1.5964 -1.5532  2.1797
  237MOL0     H32668   2.758   5.225   4.425  1.2347  0.7501  0.5706
  237MOL0     H32669   2.985   5.274   4.426  0.1124 -0.5208  1.2532
  237MOL0     H32670   3.188   5.297   4.294  1.3852 -0.6651 -1.3622
  237MOL0     H32671   3.280   5.231   4.438 -2.0007 -2.1227  1.0702
  237MOL0     H32672   3.444   5.139   4.281 -0.1459  1.9355  1.8010
  237MOL0     H32673   3.342   5.191   4.136 -4.1813  1.7353 -0.0792
  237MOL0     H32674   3.489   5.374   4.343 -1.5544  1.4668  0.7253
  237MOL0     H32675   3.371   5.429   4.221  0.1422  0.9672  1.2700
  237MOL0     H32676   3.592   5.440   4.107  1.4814 -0.6796  1.4199
  237MOL0     H32677   3.514   5.316   4.033  2.1266 -1.9652 -1.5694
  237MOL0     H32678   3.652   5.155   4.175 -1.3706  0.8352  1.5523
  237MOL0     H32679   3.735   5.259   4.057  1.5259 -1.1424  0.6904
  237MOL0     H32680   3.720   5.312   4.348 -0.3455  0.6730  0.6281
  237MOL0     H32681   3.803   5.424   4.229 -2.0478  1.3735  1.5056
  237MOL0     H32682   3.889   5.160   4.170  1.4805 -0.6022 -0.3484
  237MOL0     H32683   3.896   5.166   4.348  1.3193 -0.9035 -0.4833
  237MOL0     H32684   4.018   5.377   4.343 -1.7991  0.0992  0.0831
  237MOL0     H32685   4.038   5.370   4.169  4.4611  0.1341  0.4004
  237MOL0     H32686   3.065   4.885   4.246  2.4099  0.1763  0.7064
  237MOL0     H32687   2.829   4.824   4.276 -0.2992  0.1230 -2.2199
  237MOL0     H32688   2.472   4.836   4.303  1.7528 -0.7284  1.8857
  237MOL0     H32689   2.228   4.754   4.305 -2.7916  0.0870  1.8845
  237MOL0     H32690   0.790   3.366   5.184  2.2787  1.3560 -0.1842
  237MOL0     H32691   0.582   3.428   5.257 -1.9717 -1.7419 -2.0911
  237MOL0     H32692   0.109   3.727   4.978  0.9227  1.8390  1.0930
  237MOL0     H32693  -0.115   3.778   5.058 -0.4025  1.9636  1.4233
  237MOL0     H32694  -0.248   3.919   5.267  2.8434 -0.8815  2.8555
  237MOL0     H32695  -0.280   3.803   5.140  2.2035  0.7316 -0.6091
  237MOL0     H32696  -0.406   3.770   5.420  1.6717 -1.7470 -0.6663
  237MOL0     H32697  -0.441   3.678   5.279 -1.5480 -0.7637  0.5031
  237MOL0     H32698  -0.580   3.889   5.360  1.2953  0.5543  0.7164
  237MOL0     H32699  -0.484   3.977   5.242  0.5927 -1.0917 -2.6073
  237MOL0     H32700  -0.705   3.888   5.135 -1.6035 -2.9540  0.6855
  237MOL0     H32701  -0.667   3.726   5.192  2.1468 -0.2338  0.6623
  237MOL0     H32702  -0.443   3.738   4.844  0.0300  1.6681 -0.2737
  237MOL0     H32703  -0.001   3.612   5.438  0.0686  0.8931  0.2739
  237MOL0     H32704   0.268   3.426   5.348  1.8211 -0.0856  3.1106
  237MOL0     H32705   0.338   3.587   5.369  0.6097 -0.6966 -0.9305
  237MOL0     H32706   0.221   3.522   5.484 -0.6449  2.4766  0.5849
  238MOL0     O32707   9.654   8.972   3.725  0.3834 -0.0408 -0.7430
  238MOL0     C32708   9.667   9.093   3.729  0.1099  0.3516  0.8665
  238MOL0     O32709   9.784   9.156   3.729 -0.7202 -1.0812  0.3622
  238MOL0     C32710   9.895   9.088   3.749 -0.1490  0.3532 -1.2926
  238MOL0     C32711   9.982   9.134   3.842  0.8947 -0.2191  0.0191
  238MOL0     C32712  10.115   9.078   3.855  0.5763  0.4493  0.0128
  238MOL0     C32713  10.158   8.969   3.784  0.2315  0.0597  0.1234
  238MOL0     O32714  10.280   8.914   3.795  0.1434  0.2266 -0.4180
  238MOL0     C32715  10.315   8.773   3.782  0.4343  0.0870  0.0193
  238MOL0     C32716  10.441   8.742   3.848  0.4109  0.8228  0.0080
  238MOL0     C32717  10.548   8.832   3.794 -0.1441 -0.8335  0.8444
  238MOL0     C32718  10.600   8.795   3.652 -0.1338 -0.1685 -0.6278
  238MOL0     C32719  10.700   8.897   3.607  0.3999  0.3696 -0.4981
  238MOL0     C32720  10.744   8.878   3.464  0.3733  0.1789 -0.1145
  238MOL0     C32721  10.839   8.985   3.409 -0.8504 -0.4297 -0.2097
  238MOL0     C32722  10.889   8.946   3.274 -0.1083  0.3352 -0.1832
  238MOL0     N32723  10.990   9.044   3.223  0.7093  0.3718 -0.0389
  238MOL0     C32724  11.077   9.133   3.283  0.2288 -0.3816  0.1531
  238MOL0     C32725  11.157   9.184   3.187  0.3304  0.1948 -0.7086
  238MOL0     C32726  11.274   9.278   3.214 -0.1146  0.3440 -0.5645
  238MOL0     C32727  11.403   9.199   3.205  0.1247 -0.2761 -0.1042
  238MOL0     C32728  11.523   9.294   3.189 -0.3206  0.3267 -0.1153
  238MOL0     C32729  11.655   9.222   3.146  0.2562  0.2799  1.1163
  238MOL0     O32730  11.754   9.325   3.128 -0.1666  0.0147  0.4894
  238MOL0     C32731  11.880   9.277   3.144  0.0163  0.2902  0.4511
  238MOL0     C32732  11.958   9.325   3.251  0.2010 -0.7601 -0.2995
  238MOL0     C32733  12.092   9.281   3.270  0.1636  0.3610 -0.0936
  238MOL0     C32734  12.158   9.338   3.388  0.2274 -0.3594 -0.7000
  238MOL0     C32735  12.148   9.191   3.183  0.1748  0.1163  0.2490
  238MOL0     C32736  12.286   9.140   3.184  0.4143  0.6652 -0.0083
  238MOL0     O32737  12.370   9.228   3.250 -0.3361  0.1498  0.3379
  238MOL0     C32738  12.500   9.212   3.265  0.8497 -0.0652  0.1207
  238MOL0     C32739  12.577   9.132   3.184 -0.0962  0.2925 -0.6610
  238MOL0     C32740  12.711   9.094   3.218  0.0298 -0.3363  0.4444
  238MOL0     C32741  12.769   9.153   3.329  0.7369 -0.5609  0.2503
  238MOL0     O32742  12.892   9.124   3.381 -0.1176  0.0935  0.4116
  238MOL0     C32743  13.006   9.102   3.296 -0.6387 -0.6771 -0.2173
  238MOL0     C32744  13.141   9.115   3.372 -0.1927 -0.2781 -0.7941
  238MOL0     C32745  13.253   9.132   3.265  0.3646  0.5658 -0.9800
  238MOL0     C32746  13.396   9.120   3.322  0.4852 -0.6250 -0.6578
  238MOL0     C32747  13.492   9.168   3.209 -0.0548 -0.4343 -0.7140
  238MOL0     C32748  13.632   9.194   3.267  0.0133  0.4014  0.2370
  238MOL0     C32749  13.739   9.250   3.180  0.8103  0.1323  1.5455
  238MOL0     C32750  13.882   9.230   3.234  0.4635  0.1574 -0.2025
  238MOL0    Cl32751  13.996   9.328   3.130  0.2389 -0.2996 -0.6075
  238MOL0     C32752  12.694   9.246   3.411  0.6679  0.3238 -0.1005
  238MOL0     C32753  12.556   9.277   3.379 -0.3894 -0.1337  0.4887
  238MOL0     O32754  12.313   9.032   3.133 -0.4997  0.1645  0.0930
  238MOL0     C32755  12.078   9.164   3.061  0.0826  0.0732 -0.1660
  238MOL0     C32756  11.951   9.212   3.042  1.4046 -1.3984  0.9210
  238MOL0     N32757  11.115   9.130   3.071  0.4746  0.2754 -0.4946
  238MOL0     N32758  11.025   9.046   3.092  0.2839  0.7069  0.5533
  238MOL0     C32759  10.069   8.922   3.683 -0.8849  0.1935 -0.3019
  238MOL0     C32760   9.939   8.985   3.670 -0.5004  0.5294  0.4712
  238MOL0     C32761   9.534   9.155   3.754 -0.5065 -0.5748 -0.2253
  238MOL0     C32762   9.417   9.095   3.712  0.1175  0.7164  0.4557
  238MOL0     C32763   9.294   9.141   3.742 -0.2786 -0.9806  0.4227
  238MOL0     C32764   9.284   9.264   3.807  0.6264 -0.7518 -0.3666
  238MOL0     O32765   9.158   9.322   3.832 -0.2680  0.0825  0.1345
  238MOL0     C32766   9.154   9.448   3.900  0.6014 -0.1421 -0.2001
  238MOL0     C32767   9.004   9.498   3.890 -0.0730 -0.2123  0.4369
  238MOL0     C32768   8.900   9.418   3.966 -0.7767  0.0666  0.0956
  238MOL0     C32769   8.768   9.494   3.994  1.4821  0.3548 -0.4996
  238MOL0     C32770   8.668   9.405   4.060  0.2024  0.3683  0.6906
  238MOL0     C32771   8.601   9.326   4.126  0.9568 -0.8466  0.1253
  238MOL0     C32772   9.397   9.323   3.865 -0.3879  0.4024 -0.5774
  238MOL0     C32773   9.528   9.262   3.851  1.0766  0.4072  0.6213
  238MOL0     C32774   9.649   9.322   3.924  0.8978 -0.5934  0.2557
  238MOL0     H32775   9.957   9.220   3.903 -2.1679 -0.2832 -0.9837
  238MOL0     H32776  10.183   9.135   3.917  0.4972  0.8932 -0.3028
  238MOL0     H32777  10.326   8.746   3.677  1.4140 -2.5976  0.7508
  238MOL0     H32778  10.236   8.718   3.834  2.6778 -0.6558  2.9278
  238MOL0     H32779  10.435   8.755   3.957 -0.3646  1.7225 -0.1281
  238MOL0     H32780  10.455   8.641   3.808  1.3598  1.0321 -0.2148
  238MOL0     H32781  10.509   8.934   3.791  0.7105 -0.5178 -0.6468
  238MOL0     H32782  10.632   8.823   3.865  0.0636 -3.6899  0.3674
  238MOL0     H32783  10.636   8.691   3.651 -1.5794 -0.7334  1.1562
  238MOL0     H32784  10.512   8.802   3.588 -3.2188 -0.9631  3.1495
  238MOL0     H32785  10.780   8.883   3.679 -1.0072  0.4010  1.1309
  238MOL0     H32786  10.683   9.004   3.614  2.2561  0.6820 -0.3836
  238MOL0     H32787  10.790   8.779   3.459  0.7889  0.2601  1.5581
  238MOL0     H32788  10.651   8.886   3.407 -2.1096  1.2648  3.6707
  238MOL0     H32789  10.923   8.991   3.479 -1.1022 -0.3169  0.0831
  238MOL0     H32790  10.788   9.081   3.401  0.6402  0.3904 -0.2960
  238MOL0     H32791  10.921   8.842   3.277 -3.4296 -0.8109 -0.9095
  238MOL0     H32792  10.810   8.948   3.199 -0.9892  0.4794  0.7247
  238MOL0     H32793  11.093   9.162   3.387 -3.4436  3.1590 -0.0173
  238MOL0     H32794  11.280   9.322   3.314  0.1907 -1.2522  0.1486
  238MOL0     H32795  11.278   9.362   3.144  1.3182 -1.0636 -2.2594
  238MOL0     H32796  11.424   9.129   3.287 -0.1687 -0.9402 -0.5889
  238MOL0     H32797  11.406   9.140   3.113 -0.0432 -1.8327  0.8577
  238MOL0     H32798  11.501   9.365   3.109  1.5303  0.6441 -0.4077
  238MOL0     H32799  11.547   9.343   3.284  0.3587  0.0603 -0.1367
  238MOL0     H32800  11.684   9.137   3.209  1.0678  0.0553  0.4635
  238MOL0     H32801  11.620   9.185   3.049 -1.7014 -0.6823  2.1391
  238MOL0     H32802  11.925   9.405   3.317  2.3649  0.0734 -0.1435
  238MOL0     H32803  12.218   9.421   3.348 -1.0355 -0.1868 -2.3445
  238MOL0     H32804  12.231   9.273   3.437  0.8413  1.2999  0.7238
  238MOL0     H32805  12.091   9.386   3.460 -0.0307 -1.7848  0.0281
  238MOL0     H32806  12.548   9.088   3.089 -0.2984  0.8385 -0.8507
  238MOL0     H32807  12.781   9.033   3.161 -0.5027  1.4097 -2.2610
  238MOL0     H32808  13.013   8.999   3.259  2.1514 -0.5386 -0.3000
  238MOL0     H32809  12.997   9.165   3.207  2.1129 -0.1171 -0.1791
  238MOL0     H32810  13.138   9.200   3.442 -1.5524 -1.5421  0.7575
  238MOL0     H32811  13.163   9.030   3.438  1.2750  1.2898  0.8554
  238MOL0     H32812  13.236   9.229   3.218  1.0276  0.1536 -2.1079
  238MOL0     H32813  13.240   9.060   3.184  0.8424 -1.2368  0.4626
  238MOL0     H32814  13.431   9.020   3.349  3.5223  0.1475 -1.3642
  238MOL0     H32815  13.400   9.189   3.406 -2.1233  0.6246 -1.4669
  238MOL0     H32816  13.501   9.102   3.122  0.3662  1.1617 -1.9275
  238MOL0     H32817  13.458   9.265   3.174  1.6550 -0.0966 -1.5856
  238MOL0     H32818  13.659   9.099   3.312 -3.5738 -2.1330 -2.3637
  238MOL0     H32819  13.620   9.261   3.352 -2.4213 -0.0561  0.3336
  238MOL0     H32820  13.721   9.357   3.167  0.3342 -0.2715 -2.6672
  238MOL0     H32821  13.729   9.212   3.078  0.2565  1.3679  1.1192
  238MOL0     H32822  13.907   9.123   3.230 -1.8266 -0.5140  1.2211
  238MOL0     H32823  13.886   9.254   3.341 -3.3216 -1.7697  0.5562
  238MOL0     H32824  12.747   9.289   3.495 -0.6013 -0.4094  1.1268
  238MOL0     H32825  12.504   9.350   3.439  3.7286  2.3088  1.4362
  238MOL0     H32826  12.117   9.112   2.974  0.3290 -0.0817  0.0338
  238MOL0     H32827  11.896   9.185   2.953  1.1538 -1.8106  1.2018
  238MOL0     H32828  10.094   8.836   3.623 -1.2207 -0.0166 -0.1471
  238MOL0     H32829   9.871   8.952   3.591  1.1917  1.4489 -1.4815
  238MOL0     H32830   9.422   9.003   3.656  0.1910  0.9100  0.1427
  238MOL0     H32831   9.205   9.091   3.705 -0.8285 -0.6638  1.2826
  238MOL0     H32832   9.177   9.445   4.007 -0.7214  4.6073  0.4631
  238MOL0     H32833   9.231   9.515   3.862  1.5331 -0.3777  1.1871
  238MOL0     H32834   8.973   9.504   3.786 -1.1301  2.4645  0.8475
  238MOL0     H32835   8.995   9.601   3.926 -4.0770 -0.0452 -0.5495
  238MOL0     H32836   8.883   9.326   3.911  1.7841 -0.0253 -0.6784
  238MOL0     H32837   8.941   9.391   4.064  0.0576 -2.1366 -0.8246
  238MOL0     H32838   8.726   9.536   3.901  2.8944  0.1753 -1.2484
  238MOL0     H32839   8.795   9.568   4.070  1.2460  0.3331 -0.3949
  238MOL0     H32840   8.531   9.259   4.172 -2.3636  0.5163 -2.4984
  238MOL0     H32841   9.403   9.416   3.922  1.7897  0.4646 -0.8311
  238MOL0     H32842   9.714   9.379   3.858  1.4972 -0.5134  0.9084
  238MOL0     H32843   9.612   9.384   4.007 -0.9316 -0.0313 -0.9184
  238MOL0     H32844   9.703   9.236   3.966  0.2431 -1.4696 -0.6376
  239MOL0     O32845   4.510   9.188   4.515 -0.0634  0.6604 -0.7983
  239MOL0     C32846   4.600   9.268   4.483  0.1006 -0.1451 -0.1789
  239MOL0     O32847   4.739   9.243   4.485  0.5884 -0.0131  0.6604
  239MOL0     C32848   4.781   9.127   4.533 -0.3734 -0.1509  0.3673
  239MOL0     C32849   4.753   9.081   4.660 -0.4997 -0.2777 -0.4646
  239MOL0     C32850   4.796   8.961   4.697 -0.2706  0.0390 -0.0717
  239MOL0     C32851   4.875   8.872   4.612  0.1193 -0.4339  0.3042
  239MOL0     O32852   4.926   8.748   4.649  0.6447  0.5998  0.2023
  239MOL0     C32853   4.921   8.708   4.782  0.0972  0.4321 -0.2940
  239MOL0     C32854   4.985   8.570   4.801  0.0680 -0.0217 -0.1890
  239MOL0     C32855   5.128   8.555   4.742  0.3974 -0.4276 -1.7918
  239MOL0     C32856   5.194   8.424   4.785  0.0559 -0.1398  0.0306
  239MOL0     C32857   5.344   8.427   4.757 -0.2404  0.0078  0.6887
  239MOL0     C32858   5.369   8.374   4.612  0.6400 -0.6656  0.2278
  239MOL0     C32859   5.511   8.389   4.564  0.3526 -0.2567 -0.5671
  239MOL0     C32860   5.599   8.281   4.624 -0.4350  0.6090 -0.8826
  239MOL0     N32861   5.735   8.319   4.598 -0.7585  0.5401  0.6664
  239MOL0     C32862   5.807   8.376   4.697  0.0577 -0.4835  0.0085
  239MOL0     C32863   5.913   8.445   4.639  0.6759  0.1439 -0.6524
  239MOL0     C32864   6.016   8.533   4.707  1.0464 -0.2746 -0.8899
  239MOL0     C32865   6.100   8.461   4.810 -0.2750 -0.1888  0.1739
  239MOL0     C32866   6.202   8.548   4.889 -0.0270 -0.8002 -0.2834
  239MOL0     C32867   6.310   8.613   4.803  0.2185 -0.3508 -0.1007
  239MOL0     O32868   6.413   8.665   4.887 -0.3143  0.0237 -0.0221
  239MOL0     C32869   6.529   8.709   4.835  0.2494  0.2517  0.1047
  239MOL0     C32870   6.554   8.726   4.698 -0.8218  0.1801  0.7946
  239MOL0     C32871   6.678   8.787   4.663  0.3824 -0.7396  0.3469
  239MOL0     C32872   6.686   8.812   4.513 -0.7594 -0.6355 -0.3071
  239MOL0     C32873   6.773   8.826   4.752 -1.0135 -0.8446  0.4003
  239MOL0     C32874   6.919   8.859   4.701  0.0739 -0.1702  0.8914
  239MOL0     O32875   6.989   8.943   4.774  0.3220 -0.7366  0.1295
  239MOL0     C32876   7.098   9.012   4.729  0.3571 -0.0169 -0.5460
  239MOL0     C32877   7.170   9.080   4.823 -0.3739 -0.6936 -0.4413
  239MOL0     C32878   7.280   9.160   4.794  1.0296  1.0486  0.0833
  239MOL0     C32879   7.323   9.174   4.662  0.4224  0.1938 -0.2273
  239MOL0     O32880   7.435   9.253   4.623  0.0304 -0.2417 -0.0470
  239MOL0     C32881   7.544   9.254   4.711  0.6261 -0.3157  0.1776
  239MOL0     C32882   7.680   9.259   4.636 -0.4290 -0.2789  1.0080
  239MOL0     C32883   7.805   9.235   4.731 -1.0892 -0.3901  0.2812
  239MOL0     C32884   7.933   9.260   4.666  0.2947  0.8211  0.3799
  239MOL0     C32885   8.049   9.223   4.752 -0.1012  0.5666 -0.4093
  239MOL0     C32886   8.180   9.293   4.713  0.2185  0.4962 -0.4909
  239MOL0     C32887   8.243   9.238   4.588  0.5027  0.1281  0.8691
  239MOL0     C32888   8.389   9.185   4.610  0.0623  0.3664  0.3703
  239MOL0    Cl32889   8.445   9.127   4.463  0.5274 -0.1017  0.1670
  239MOL0     C32890   7.259   9.103   4.564 -0.0735 -0.2807  0.6983
  239MOL0     C32891   7.153   9.013   4.598 -0.3926  0.3713  0.0419
  239MOL0     O32892   6.964   8.772   4.621 -0.0417 -0.3406  0.4897
  239MOL0     C32893   6.744   8.819   4.885 -0.1556 -0.2056 -0.0156
  239MOL0     C32894   6.624   8.761   4.929  0.5025 -0.6018  0.0613
  239MOL0     N32895   5.899   8.427   4.507 -0.6370  0.4077 -0.3502
  239MOL0     N32896   5.798   8.346   4.483 -0.2964 -0.1917  0.1393
  239MOL0     C32897   4.905   8.916   4.483  0.5158  0.0567  0.4873
  239MOL0     C32898   4.860   9.044   4.449  0.8356  0.1598  0.4992
  239MOL0     C32899   4.554   9.410   4.456 -0.9313  0.1337  1.0856
  239MOL0     C32900   4.653   9.508   4.436  0.3058 -0.3504 -0.7626
  239MOL0     C32901   4.633   9.646   4.434  0.9077 -0.1932 -0.2989
  239MOL0     C32902   4.505   9.688   4.451 -0.3979 -1.7898  0.5449
  239MOL0     O32903   4.494   9.821   4.461  0.4853  0.6636  0.1005
  239MOL0     C32904   4.379   9.877   4.405 -0.4827  0.2295  0.1857
  239MOL0     C32905   4.419  10.031   4.372  0.3717 -0.0915 -0.8706
  239MOL0     C32906   4.497  10.098   4.494 -1.0853  0.9459  0.3667
  239MOL0     C32907   4.515  10.245   4.488 -0.2374  0.8373 -0.0917
  239MOL0     C32908   4.476  10.303   4.624  0.2339  0.5121 -0.3689
  239MOL0     C32909   4.456  10.329   4.738  0.0009 -0.1445 -0.5036
  239MOL0     C32910   4.395   9.593   4.451 -0.0282 -0.3709 -0.3194
  239MOL0     C32911   4.423   9.454   4.450  1.0305  0.4558  0.1606
  239MOL0     C32912   4.309   9.368   4.435  0.1597  0.5835 -0.0328
  239MOL0     H32913   4.700   9.140   4.734  2.1827 -0.8649  2.0949
  239MOL0     H32914   4.766   8.928   4.796 -0.9207 -0.0757 -0.3017
  239MOL0     H32915   4.821   8.703   4.827 -0.9220  0.0874 -2.4667
  239MOL0     H32916   4.977   8.780   4.843 -0.9227 -0.1970  1.4597
  239MOL0     H32917   4.969   8.545   4.906 -2.5839  1.9911 -0.0070
  239MOL0     H32918   4.920   8.502   4.745 -0.5867 -0.2765  0.8560
  239MOL0     H32919   5.126   8.565   4.633  1.1114  1.4312 -1.6783
  239MOL0     H32920   5.185   8.637   4.788  2.7442 -3.5158  1.3297
  239MOL0     H32921   5.179   8.415   4.893  0.0769  0.3010  0.0710
  239MOL0     H32922   5.154   8.333   4.738 -3.8554  0.5927  1.5462
  239MOL0     H32923   5.387   8.362   4.834 -0.8707 -1.6995 -0.3213
  239MOL0     H32924   5.387   8.526   4.775  2.0542 -1.4074  3.8703
  239MOL0     H32925   5.340   8.270   4.598 -0.0795 -0.5065  0.4927
  239MOL0     H32926   5.302   8.428   4.543  2.2677  0.3199 -0.6458
  239MOL0     H32927   5.547   8.490   4.582  1.4230 -0.9904  1.6980
  239MOL0     H32928   5.517   8.366   4.457  1.5041 -1.6741 -0.2282
  239MOL0     H32929   5.588   8.263   4.731 -1.3124  2.3208 -0.6603
  239MOL0     H32930   5.574   8.189   4.569 -0.2757  0.5166 -0.8018
  239MOL0     H32931   5.774   8.387   4.800 -1.1229  2.3700 -0.5778
  239MOL0     H32932   5.958   8.615   4.751  1.1423 -0.3471 -0.6287
  239MOL0     H32933   6.089   8.577   4.638  0.5739  1.6505 -0.2351
  239MOL0     H32934   6.033   8.406   4.876 -1.4408 -0.6404 -1.3149
  239MOL0     H32935   6.159   8.386   4.756 -1.6045 -1.1558 -0.0022
  239MOL0     H32936   6.152   8.630   4.942 -0.4790 -2.1051  1.4051
  239MOL0     H32937   6.250   8.485   4.964  0.5467 -3.1359 -2.4768
  239MOL0     H32938   6.355   8.544   4.730 -1.0000 -0.0084 -1.2216
  239MOL0     H32939   6.264   8.692   4.743 -1.4890 -1.0783  0.2053
  239MOL0     H32940   6.481   8.712   4.618  0.7983 -0.9539 -0.5446
  239MOL0     H32941   6.745   8.901   4.486  0.4223 -1.6427 -1.1848
  239MOL0     H32942   6.588   8.816   4.465 -0.5530  1.1012 -0.6666
  239MOL0     H32943   6.755   8.736   4.475  3.1701  1.1733  2.4805
  239MOL0     H32944   7.142   9.077   4.928  0.7227 -1.0409 -0.1450
  239MOL0     H32945   7.324   9.217   4.876 -2.7792  2.7240  1.1804
  239MOL0     H32946   7.534   9.346   4.768  0.9903 -1.4796  2.2158
  239MOL0     H32947   7.547   9.167   4.778 -1.7519 -1.2494 -0.8342
  239MOL0     H32948   7.684   9.179   4.562  2.3623  0.0774  0.6601
  239MOL0     H32949   7.682   9.362   4.600  1.9003 -0.0984  1.5246
  239MOL0     H32950   7.809   9.131   4.763  2.2426 -0.0244  1.4990
  239MOL0     H32951   7.802   9.288   4.828  0.4494 -1.2604  0.8314
  239MOL0     H32952   7.937   9.364   4.632  1.0109  0.1839 -1.6733
  239MOL0     H32953   7.946   9.215   4.567  0.0909  2.4493 -0.4275
  239MOL0     H32954   8.023   9.254   4.854  0.6641  2.6887 -0.8137
  239MOL0     H32955   8.057   9.114   4.759  1.0866  0.6583 -0.0997
  239MOL0     H32956   8.249   9.284   4.798  2.1262  1.1909 -1.8898
  239MOL0     H32957   8.152   9.398   4.702 -1.3664  0.0187 -1.3067
  239MOL0     H32958   8.238   9.318   4.513 -0.8996  1.5554  2.4009
  239MOL0     H32959   8.182   9.156   4.548  1.8687 -0.2553 -0.5201
  239MOL0     H32960   8.409   9.107   4.685 -0.7154 -2.0805 -1.8057
  239MOL0     H32961   8.447   9.274   4.634  2.2730 -0.5202 -1.2649
  239MOL0     H32962   7.301   9.115   4.465 -1.4071  0.2478  0.1745
  239MOL0     H32963   7.102   8.954   4.522 -2.5951  1.9505  0.1878
  239MOL0     H32964   6.805   8.865   4.961  0.6353 -0.7604 -0.3037
  239MOL0     H32965   6.590   8.766   5.032  1.7621 -3.2703  0.6774
  239MOL0     H32966   4.966   8.855   4.418 -0.5154  0.0910 -0.5398
  239MOL0     H32967   4.885   9.077   4.350 -0.8016 -0.0571 -0.0247
  239MOL0     H32968   4.759   9.486   4.433  0.8796  2.1830 -1.0687
  239MOL0     H32969   4.727   9.699   4.420  2.2016 -2.2975 -0.0720
  239MOL0     H32970   4.344   9.819   4.319 -0.3036  1.6059 -0.8534
  239MOL0     H32971   4.312   9.866   4.491 -1.4010 -1.4284 -0.6928
  239MOL0     H32972   4.319  10.073   4.359  0.2102  0.2710  1.2309
  239MOL0     H32973   4.466  10.056   4.276 -2.3837  3.5410 -1.5068
  239MOL0     H32974   4.438  10.068   4.581 -1.7106 -0.7042 -0.5892
  239MOL0     H32975   4.592  10.045   4.502 -1.7139 -0.2949 -0.1809
  239MOL0     H32976   4.459  10.282   4.402  0.6394 -0.4870 -1.2870
  239MOL0     H32977   4.618  10.267   4.457  0.2132 -2.4508 -1.3125
  239MOL0     H32978   4.443  10.352   4.842 -1.9904 -0.4404 -0.6333
  239MOL0     H32979   4.289   9.615   4.459 -0.2225 -1.8076  2.6593
  239MOL0     H32980   4.276   9.330   4.532 -1.5715  0.2642 -0.7101
  239MOL0     H32981   4.227   9.422   4.388  1.9040  1.2683 -2.5232
  239MOL0     H32982   4.342   9.290   4.365  0.2593  1.1316 -0.6071
  240MOL0     O32983   8.592   7.156   6.596 -0.0244 -0.6205 -0.4182
  240MOL0     C32984   8.533   7.268   6.613 -0.1466  0.9599  0.7691
  240MOL0     O32985   8.583   7.363   6.698  0.2690  0.1568  0.7200
  240MOL0     C32986   8.699   7.333   6.765 -0.0711 -0.1181 -0.2156
  240MOL0     C32987   8.818   7.395   6.731 -0.7407  0.1955  0.1098
  240MOL0     C32988   8.937   7.338   6.781 -0.0333  0.1257 -0.4602
  240MOL0     C32989   8.944   7.246   6.880  0.5353 -0.0968 -0.3719
  240MOL0     O32990   9.060   7.201   6.932 -0.1612  0.6737  0.1591
  240MOL0     C32991   9.076   7.208   7.073 -0.2382 -0.3111 -0.6064
  240MOL0     C32992   9.206   7.140   7.120  0.7135  0.1368  0.1762
  240MOL0     C32993   9.211   7.111   7.262 -0.7098 -0.7467 -0.0337
  240MOL0     C32994   9.208   7.225   7.359  0.4045  0.0718 -0.5673
  240MOL0     C32995   9.165   7.193   7.506 -0.0379  0.5461 -0.5797
  240MOL0     C32996   9.245   7.265   7.618 -0.9145 -0.1668 -0.1589
  240MOL0     C32997   9.398   7.239   7.626 -1.1651  0.2403 -0.7505
  240MOL0     C32998   9.457   7.294   7.756 -0.9068  0.4332 -1.0839
  240MOL0     N32999   9.608   7.261   7.764  0.3467  0.0366  0.4384
  240MOL0     C33000   9.709   7.342   7.704  0.1841 -0.2946  0.6715
  240MOL0     C33001   9.830   7.286   7.740 -0.2599 -0.4347  0.5891
  240MOL0     C33002   9.965   7.358   7.709  0.6564  1.4345  0.1378
  240MOL0     C33003  10.085   7.261   7.747  0.4551 -0.5683 -0.3795
  240MOL0     C33004  10.217   7.333   7.709  0.2278  0.2140 -0.3958
  240MOL0     C33005  10.330   7.241   7.755 -0.3483  0.4583 -0.8737
  240MOL0     O33006  10.458   7.290   7.702  0.2611 -0.1822 -0.6617
  240MOL0     C33007  10.570   7.224   7.752  0.1881  0.8312  0.4583
  240MOL0     C33008  10.576   7.123   7.852  0.1261 -0.1934 -0.0204
  240MOL0     C33009  10.695   7.066   7.891  0.1257  0.2043  0.9877
  240MOL0     C33010  10.695   6.949   7.980  0.3628 -0.7335  1.4558
  240MOL0     C33011  10.818   7.109   7.823  0.3882 -0.5403 -0.6642
  240MOL0     C33012  10.949   7.029   7.829 -0.1196  0.0113  0.6067
  240MOL0     O33013  10.941   6.893   7.851 -0.3241  0.4538 -0.5123
  240MOL0     C33014  11.058   6.835   7.902 -0.2048  0.3769 -0.4665
  240MOL0     C33015  11.095   6.842   8.040 -0.2320  0.2117 -0.1814
  240MOL0     C33016  11.207   6.770   8.083 -0.4585  0.6271 -0.2386
  240MOL0     C33017  11.280   6.696   7.995  0.2061  0.4605  0.6972
  240MOL0     O33018  11.356   6.598   8.043  0.4297  0.4807  0.0755
  240MOL0     C33019  11.494   6.616   8.016  0.3856  0.5165  0.2590
  240MOL0     C33020  11.570   6.551   8.135 -0.1299  0.0049  0.6112
  240MOL0     C33021  11.719   6.534   8.088  0.4686  0.3477 -0.0820
  240MOL0     C33022  11.758   6.420   8.000  0.0259  0.6304  0.1094
  240MOL0     C33023  11.891   6.440   7.920  1.2477  0.2549  0.1506
  240MOL0     C33024  11.910   6.321   7.825 -0.3067 -0.2244 -0.1089
  240MOL0     C33025  12.047   6.320   7.752  0.8139  0.0879  0.0265
  240MOL0     C33026  12.076   6.209   7.642 -0.0300 -0.1191  0.6302
  240MOL0    Cl33027  12.215   6.266   7.542 -0.0551 -0.2754 -0.2138
  240MOL0     C33028  11.243   6.692   7.859 -0.0576  0.0613  1.3025
  240MOL0     C33029  11.138   6.768   7.810  0.6958 -1.1608  0.8147
  240MOL0     O33030  11.055   7.095   7.830 -0.5340 -1.0973 -0.8354
  240MOL0     C33031  10.816   7.219   7.742  0.2990  0.2399  0.0582
  240MOL0     C33032  10.692   7.275   7.706  0.7264 -0.2334  0.3451
  240MOL0     N33033   9.799   7.173   7.809  0.7739 -0.2182 -0.0291
  240MOL0     N33034   9.667   7.164   7.832 -0.2383 -0.5274 -0.2213
  240MOL0     C33035   8.817   7.184   6.907  0.4456 -0.0633  0.1065
  240MOL0     C33036   8.698   7.231   6.859  0.4720 -0.5319  0.5436
  240MOL0     C33037   8.392   7.297   6.545  0.3189 -0.5999 -0.6289
  240MOL0     C33038   8.343   7.429   6.557  0.7341  0.2317  0.1732
  240MOL0     C33039   8.221   7.464   6.501  0.2019  0.5936 -0.6234
  240MOL0     C33040   8.139   7.373   6.441 -0.2401 -0.0926 -0.2685
  240MOL0     O33041   8.008   7.414   6.410  0.3633  0.3465  0.4280
  240MOL0     C33042   7.900   7.328   6.354  0.2047 -0.8940 -1.1081
  240MOL0     C33043   7.771   7.301   6.444 -0.2623 -0.2390 -0.8674
  240MOL0     C33044   7.802   7.230   6.571 -0.5039  0.6653  0.7246
  240MOL0     C33045   7.853   7.085   6.548  0.7379  0.4473  0.3349
  240MOL0     C33046   7.764   7.008   6.468 -0.2647  0.6201  0.0921
  240MOL0     C33047   7.687   6.973   6.387 -0.5650 -0.2636 -0.5859
  240MOL0     C33048   8.184   7.244   6.425 -1.0321 -0.2172  0.0180
  240MOL0     C33049   8.313   7.199   6.471  0.6137 -0.3820  0.1809
  240MOL0     C33050   8.368   7.058   6.441 -0.4511 -0.9011 -0.3566
  240MOL0     H33051   8.824   7.466   6.649 -1.9004 -0.4779 -0.5957
  240MOL0     H33052   9.034   7.382   6.756  1.9648 -2.0088  2.7525
  240MOL0     H33053   8.983   7.165   7.110  0.0527 -0.8082 -0.4563
  240MOL0     H33054   9.084   7.317   7.084 -3.1453 -0.1383  0.6042
  240MOL0     H33055   9.211   7.042   7.071  2.9021  0.2299  0.1186
  240MOL0     H33056   9.287   7.203   7.083  0.7621  0.1643  0.3278
  240MOL0     H33057   9.129   7.042   7.283  0.5940 -2.1818  0.5550
  240MOL0     H33058   9.304   7.055   7.277 -1.1787 -2.3322 -2.4395
  240MOL0     H33059   9.310   7.263   7.351 -0.1344  1.4786 -1.0583
  240MOL0     H33060   9.136   7.303   7.330 -0.8319 -0.9114 -0.2197
  240MOL0     H33061   9.174   7.084   7.518 -1.6358  0.2798 -1.5199
  240MOL0     H33062   9.060   7.219   7.518 -0.3158 -0.7416 -0.0674
  240MOL0     H33063   9.237   7.372   7.598  5.5695  0.6655 -0.4119
  240MOL0     H33064   9.200   7.235   7.713 -1.2026 -1.4812 -0.6871
  240MOL0     H33065   9.444   7.280   7.535  2.0440 -0.8908  0.2112
  240MOL0     H33066   9.426   7.133   7.625  4.3686  1.3408 -3.2535
  240MOL0     H33067   9.441   7.400   7.778 -1.0655 -0.1891  2.2484
  240MOL0     H33068   9.408   7.246   7.841 -0.1667  2.0237  0.2926
  240MOL0     H33069   9.689   7.437   7.655 -0.3789 -0.4513  0.5940
  240MOL0     H33070   9.956   7.445   7.775 -2.3734  0.8577  0.6120
  240MOL0     H33071   9.965   7.393   7.605 -3.5118 -0.1896 -0.6183
  240MOL0     H33072  10.095   7.239   7.853  0.9916 -2.6662 -0.8244
  240MOL0     H33073  10.074   7.173   7.683  1.2378 -0.7477 -0.2796
  240MOL0     H33074  10.214   7.335   7.599  0.0250 -3.6824 -0.6228
  240MOL0     H33075  10.214   7.434   7.750  1.3234  0.7009 -1.4321
  240MOL0     H33076  10.333   7.244   7.864 -0.4785  1.3671 -0.8836
  240MOL0     H33077  10.311   7.140   7.717 -1.5438  0.6777 -0.8994
  240MOL0     H33078  10.485   7.072   7.884 -0.9204  0.9132 -1.1401
  240MOL0     H33079  10.731   6.854   7.938 -2.9237 -1.2230 -0.6329
  240MOL0     H33080  10.603   6.943   8.038 -1.5509  2.9007 -0.8232
  240MOL0     H33081  10.775   6.967   8.053  0.1278  3.4224  0.9375
  240MOL0     H33082  11.032   6.898   8.108 -1.1556  1.6632 -2.1066
  240MOL0     H33083  11.206   6.755   8.191 -2.8784  1.8332 -0.0280
  240MOL0     H33084  11.527   6.565   7.925 -1.1022  0.3736 -0.2221
  240MOL0     H33085  11.525   6.721   8.017  2.0045  0.0760  0.1005
  240MOL0     H33086  11.568   6.619   8.220  1.0324  1.5747 -0.5604
  240MOL0     H33087  11.524   6.455   8.162 -2.4175  0.3682 -1.5681
  240MOL0     H33088  11.796   6.543   8.165  1.6747  1.7946 -1.3710
  240MOL0     H33089  11.732   6.622   8.024 -1.9159  1.4368  0.8106
  240MOL0     H33090  11.683   6.396   7.924  0.3274 -0.2171  0.0673
  240MOL0     H33091  11.772   6.336   8.068  0.9999 -0.4550 -1.3616
  240MOL0     H33092  11.882   6.528   7.857 -2.7508 -0.9009 -1.1953
  240MOL0     H33093  11.977   6.449   7.988  0.5623  0.7921  0.9573
  240MOL0     H33094  11.831   6.321   7.749 -0.6750  0.4521  0.2673
  240MOL0     H33095  11.893   6.233   7.888 -2.5010  1.2080  1.4530
  240MOL0     H33096  12.126   6.309   7.827 -1.0903  4.5546  3.1040
  240MOL0     H33097  12.066   6.417   7.705  0.1375  1.7333  2.9333
  240MOL0     H33098  11.985   6.200   7.583  0.9799  3.2258 -1.7713
  240MOL0     H33099  12.104   6.111   7.681  0.6669 -1.5852 -3.0904
  240MOL0     H33100  11.306   6.625   7.802  1.3418 -0.0368  2.9043
  240MOL0     H33101  11.111   6.764   7.704 -0.2791 -1.0822  1.0463
  240MOL0     H33102  10.908   7.265   7.710  1.5726 -2.1697  0.0538
  240MOL0     H33103  10.688   7.365   7.647  0.0329  0.1681  0.9944
  240MOL0     H33104   8.813   7.108   6.984  0.4831 -1.0784 -0.8610
  240MOL0     H33105   8.617   7.170   6.898  0.9071  0.1115  2.5589
  240MOL0     H33106   8.399   7.493   6.625 -1.5503 -3.0934  5.9443
  240MOL0     H33107   8.167   7.557   6.513  1.5150  1.2928  0.1319
  240MOL0     H33108   7.853   7.387   6.275 -3.2123  0.8294  1.8755
  240MOL0     H33109   7.945   7.236   6.317  1.2410 -0.8807  0.0398
  240MOL0     H33110   7.697   7.243   6.388  0.4245 -0.6442 -1.3680
  240MOL0     H33111   7.721   7.392   6.478  4.6441  1.6157  2.4794
  240MOL0     H33112   7.874   7.286   6.631 -2.4738  1.4946  2.4536
  240MOL0     H33113   7.709   7.230   6.629 -0.9384  3.1919  0.1720
  240MOL0     H33114   7.842   7.027   6.640 -0.8355 -1.6200 -1.0664
  240MOL0     H33115   7.960   7.077   6.526  0.7091 -1.7455  0.7690
  240MOL0     H33116   7.611   6.939   6.319 -1.0751 -0.3080  0.0073
  240MOL0     H33117   8.129   7.160   6.384 -0.5077 -1.2945  1.4462
  240MOL0     H33118   8.401   6.990   6.521 -0.5201 -1.6062 -0.9230
  240MOL0     H33119   8.293   7.010   6.378 -0.2234 -0.0763 -1.2746
  240MOL0     H33120   8.454   7.071   6.375 -0.7019  0.6873 -0.4202
  241MOL0     O33121   8.601   2.912   8.728 -0.0136 -0.2186  0.2576
  241MOL0     C33122   8.551   2.905   8.836 -0.7757 -0.9930 -0.7938
  241MOL0     O33123   8.624   2.926   8.954  1.1505 -0.0276 -0.3927
  241MOL0     C33124   8.756   2.959   8.953 -0.3386 -0.0421  0.0386
  241MOL0     C33125   8.837   2.905   9.064  0.4695  0.3402 -0.2154
  241MOL0     C33126   8.975   2.932   9.066 -0.3936  0.4595  0.5831
  241MOL0     C33127   9.042   3.012   8.972 -0.2572  0.7748  0.0575
  241MOL0     O33128   9.175   3.019   8.987  0.3761  0.2404 -0.0444
  241MOL0     C33129   9.245   3.140   8.936  0.1315 -0.5101 -0.5866
  241MOL0     C33130   9.389   3.129   8.985  0.7960 -0.2431  0.2042
  241MOL0     C33131   9.468   3.234   8.924  0.5698 -0.2694 -0.0793
  241MOL0     C33132   9.447   3.380   8.974 -0.7411  0.0902  0.4673
  241MOL0     C33133   9.564   3.477   8.922  0.3080 -0.0411 -0.0283
  241MOL0     C33134   9.534   3.618   8.953 -0.2194 -0.0790 -0.1494
  241MOL0     C33135   9.630   3.703   8.865  0.4308  0.1871 -0.0350
  241MOL0     C33136   9.738   3.759   8.950 -0.1671  0.5983  0.1512
  241MOL0     N33137   9.835   3.826   8.854  0.6035 -1.2886 -0.3623
  241MOL0     C33138   9.966   3.801   8.834 -0.4314  0.0488 -0.2846
  241MOL0     C33139  10.000   3.874   8.726 -0.2231  0.3478  0.6274
  241MOL0     C33140  10.142   3.887   8.662  0.6629 -0.0473 -0.1431
  241MOL0     C33141  10.238   3.937   8.765  0.2900 -0.3381  0.6261
  241MOL0     C33142  10.361   3.995   8.699 -1.4060  0.2254 -0.1186
  241MOL0     C33143  10.442   3.887   8.629 -0.4659  0.2332  0.3640
  241MOL0     O33144  10.552   3.958   8.561 -0.2351  0.6209 -0.1133
  241MOL0     C33145  10.664   3.891   8.514  0.2074  0.3690  0.5623
  241MOL0     C33146  10.775   3.974   8.510 -0.3460  0.5059  0.1472
  241MOL0     C33147  10.902   3.924   8.466  0.3643  0.0352 -0.0971
  241MOL0     C33148  11.015   4.026   8.460  0.6503  0.1407 -0.1145
  241MOL0     C33149  10.908   3.787   8.416 -0.1996  0.5921 -1.0000
  241MOL0     C33150  11.035   3.719   8.371 -0.2136  0.5568  0.3918
  241MOL0     O33151  11.038   3.586   8.386 -0.0625  0.2617  0.4241
  241MOL0     C33152  11.148   3.508   8.361 -0.1521 -0.2860  0.4283
  241MOL0     C33153  11.272   3.548   8.411 -0.1458 -0.4214 -0.3780
  241MOL0     C33154  11.382   3.473   8.385  0.2535  0.7092 -0.4830
  241MOL0     C33155  11.376   3.360   8.301 -0.5878 -0.8814 -0.5733
  241MOL0     O33156  11.495   3.302   8.286 -0.3473  0.3032 -0.6204
  241MOL0     C33157  11.512   3.196   8.193  0.1566 -0.2624  0.0162
  241MOL0     C33158  11.662   3.159   8.176 -0.2187  0.8978 -0.1819
  241MOL0     C33159  11.740   3.279   8.119 -0.4009  0.0184 -0.7870
  241MOL0     C33160  11.890   3.248   8.103 -0.7429 -0.0697  0.7881
  241MOL0     C33161  11.962   3.355   8.025 -0.2163  0.1479  0.4846
  241MOL0     C33162  12.114   3.330   8.004 -0.1639  0.6667  0.4290
  241MOL0     C33163  12.167   3.450   7.923  0.1885 -0.5498  0.0485
  241MOL0     C33164  12.318   3.456   7.878  0.1663 -0.1408  0.0934
  241MOL0    Cl33165  12.370   3.310   7.794 -0.1177  0.3066  0.3681
  241MOL0     C33166  11.255   3.311   8.251 -0.3881 -0.4180  0.1952
  241MOL0     C33167  11.144   3.401   8.276  0.0454  0.1783  0.5701
  241MOL0     O33168  11.123   3.785   8.324  0.0616 -0.0245  0.7069
  241MOL0     C33169  10.788   3.713   8.400  0.1471  0.2277 -0.7125
  241MOL0     C33170  10.666   3.759   8.459  0.8309  0.1918  0.1698
  241MOL0     N33171   9.888   3.931   8.673 -0.2511 -0.5139 -0.2269
  241MOL0     N33172   9.791   3.897   8.747 -0.4647  0.4531 -0.3126
  241MOL0     C33173   8.967   3.071   8.866 -0.4746 -0.0868 -0.7244
  241MOL0     C33174   8.827   3.040   8.863  0.6916  0.2148 -0.7494
  241MOL0     C33175   8.406   2.881   8.847  0.5197  0.0528  0.3959
  241MOL0     C33176   8.325   2.954   8.939 -0.0939  0.1380  0.0232
  241MOL0     C33177   8.184   2.944   8.937 -0.3147  0.1658 -0.6262
  241MOL0     C33178   8.120   2.845   8.853  0.0674 -0.6972  0.9713
  241MOL0     O33179   7.994   2.791   8.862  0.0199  0.8047  0.0169
  241MOL0     C33180   7.902   2.858   8.952 -0.4064  0.0474 -1.1734
  241MOL0     C33181   7.760   2.828   8.922  0.4148  1.2417 -1.0603
  241MOL0     C33182   7.726   2.682   8.951 -0.2599 -0.0256 -0.1481
  241MOL0     C33183   7.599   2.653   8.866  0.3088 -0.1564  0.4535
  241MOL0     C33184   7.557   2.516   8.880  0.2991 -0.7053 -0.0955
  241MOL0     C33185   7.520   2.401   8.868 -0.3647 -0.4361 -0.2549
  241MOL0     C33186   8.201   2.777   8.761  0.0721 -0.0484  0.0224
  241MOL0     C33187   8.339   2.804   8.745 -0.6421  0.7719  0.1818
  241MOL0     C33188   8.412   2.729   8.634 -0.3755 -0.5603  0.7217
  241MOL0     H33189   8.799   2.849   9.149  2.3779  0.6685  0.9070
  241MOL0     H33190   9.036   2.891   9.146  0.1586  0.1379  0.0073
  241MOL0     H33191   9.200   3.232   8.972 -3.2051 -1.6588 -1.5158
  241MOL0     H33192   9.246   3.135   8.826 -1.5279 -1.0754 -0.6051
  241MOL0     H33193   9.396   3.120   9.094 -0.7421  0.4745  0.3785
  241MOL0     H33194   9.430   3.036   8.944  1.6866  0.4649 -0.5562
  241MOL0     H33195   9.564   3.198   8.961  0.4055  1.0337  1.7486
  241MOL0     H33196   9.460   3.239   8.815  0.4232  3.5980 -0.0433
  241MOL0     H33197   9.352   3.415   8.934  0.6205  1.4019 -1.8484
  241MOL0     H33198   9.448   3.378   9.084  0.1708 -2.5087  0.4903
  241MOL0     H33199   9.576   3.455   8.816  0.0868 -0.0476 -0.0524
  241MOL0     H33200   9.648   3.439   8.980 -0.4522 -0.0491  1.1190
  241MOL0     H33201   9.435   3.660   8.931 -0.0809  0.5178  0.3233
  241MOL0     H33202   9.552   3.631   9.061  3.6186 -3.6916 -0.1282
  241MOL0     H33203   9.570   3.788   8.832  1.4481  0.2305 -1.8848
  241MOL0     H33204   9.672   3.654   8.777  0.1576  0.6526 -0.4268
  241MOL0     H33205   9.706   3.824   9.032 -0.5176 -1.3519  1.6366
  241MOL0     H33206   9.797   3.676   8.990  1.9607  0.8530 -2.2780
  241MOL0     H33207  10.035   3.755   8.904 -0.3813  1.8620  0.9214
  241MOL0     H33208  10.128   3.960   8.582  1.4820  0.9271  0.5770
  241MOL0     H33209  10.169   3.791   8.619  1.2201 -0.4701  1.0913
  241MOL0     H33210  10.196   4.021   8.822  0.5221  0.1267  0.1259
  241MOL0     H33211  10.273   3.862   8.836 -3.0719 -1.1500  1.5878
  241MOL0     H33212  10.337   4.075   8.628 -0.2199 -1.7517 -2.9230
  241MOL0     H33213  10.426   4.035   8.777 -1.3174  3.1000 -1.5319
  241MOL0     H33214  10.481   3.818   8.705  0.1574  0.2112  0.0275
  241MOL0     H33215  10.385   3.837   8.550  1.0033  1.6287 -1.6587
  241MOL0     H33216  10.766   4.077   8.544  0.6639  0.4249  0.7214
  241MOL0     H33217  11.052   4.041   8.358  2.2977 -0.6347  0.3363
  241MOL0     H33218  11.100   3.979   8.510 -0.1526 -0.5117  0.6635
  241MOL0     H33219  10.992   4.122   8.508 -2.8313 -1.2084  1.2793
  241MOL0     H33220  11.265   3.626   8.487  5.7116 -0.0875  0.3190
  241MOL0     H33221  11.477   3.492   8.435 -0.3983  0.8371  0.7372
  241MOL0     H33222  11.451   3.108   8.215  0.3969 -0.2503  0.7507
  241MOL0     H33223  11.476   3.236   8.098  2.8627 -1.2298 -1.5325
  241MOL0     H33224  11.708   3.114   8.265  3.0266  2.2872 -0.9891
  241MOL0     H33225  11.674   3.084   8.098  2.3239 -1.6690  2.3936
  241MOL0     H33226  11.725   3.364   8.187 -0.6005  0.4240 -1.3247
  241MOL0     H33227  11.707   3.312   8.020  0.6894 -1.1281 -1.5593
  241MOL0     H33228  11.912   3.151   8.057  0.4108 -1.7507  4.5191
  241MOL0     H33229  11.941   3.253   8.200  3.4795 -0.5514 -1.1913
  241MOL0     H33230  11.924   3.348   7.923  2.2184 -2.1858 -0.3745
  241MOL0     H33231  11.954   3.449   8.081 -1.2170  0.7096 -0.5519
  241MOL0     H33232  12.131   3.240   7.944 -0.8566 -0.4026  1.7614
  241MOL0     H33233  12.175   3.323   8.095 -2.1949 -0.7111  1.7813
  241MOL0     H33234  12.147   3.534   7.990 -2.1423  0.4651 -1.7831
  241MOL0     H33235  12.099   3.458   7.838  1.4622 -1.5867 -1.1249
  241MOL0     H33236  12.387   3.463   7.963 -1.7261 -2.9363  2.0417
  241MOL0     H33237  12.322   3.548   7.819 -1.0672  1.6677  2.6437
  241MOL0     H33238  11.240   3.214   8.204 -0.0354  0.7136 -2.4701
  241MOL0     H33239  11.046   3.381   8.235  1.6861 -4.7404 -1.7525
  241MOL0     H33240  10.805   3.614   8.359  2.4396  0.7338 -1.1354
  241MOL0     H33241  10.577   3.698   8.448  0.7201 -0.3668  3.1984
  241MOL0     H33242   9.011   3.136   8.791  0.2145  0.0459 -0.2171
  241MOL0     H33243   8.765   3.080   8.783  1.6279  0.6198 -1.2879
  241MOL0     H33244   8.363   3.025   9.012 -1.4249  0.2981  0.5821
  241MOL0     H33245   8.125   2.997   9.012 -0.5410  0.3223 -0.9131
  241MOL0     H33246   7.931   2.813   9.047  1.3526  0.4837 -1.4778
  241MOL0     H33247   7.923   2.965   8.961  0.3511  0.2882 -4.4487
  241MOL0     H33248   7.734   2.850   8.818 -2.2837 -0.1123 -0.7680
  241MOL0     H33249   7.698   2.887   8.990 -0.6686 -1.3212  0.3533
  241MOL0     H33250   7.805   2.622   8.905  0.2958  1.1233 -0.7460
  241MOL0     H33251   7.720   2.645   9.053  0.9182  0.7411  0.2162
  241MOL0     H33252   7.621   2.668   8.760 -0.2735 -0.3710  0.3034
  241MOL0     H33253   7.518   2.718   8.899  1.9059  1.8280  0.6695
  241MOL0     H33254   7.496   2.298   8.884  0.7484 -0.5914  0.5382
  241MOL0     H33255   8.149   2.706   8.697 -0.3450  0.4724 -0.2211
  241MOL0     H33256   8.490   2.782   8.579 -0.6203  0.0231  0.9205
  241MOL0     H33257   8.444   2.635   8.679 -1.7845 -1.3224  0.1794
  241MOL0     H33258   8.336   2.711   8.559  0.7837 -1.1020 -0.3550
  242MOL0     O33259   7.435   6.836   0.221  0.4279  1.1213  0.2851
  242MOL0     C33260   7.431   6.805   0.338  0.0505  0.8146  0.0026
  242MOL0     O33261   7.507   6.710   0.398 -0.0135  0.2892  0.5124
  242MOL0     C33262   7.609   6.645   0.324  0.7612  0.7524 -0.3621
  242MOL0     C33263   7.737   6.671   0.355 -0.1156  0.2508  0.1855
  242MOL0     C33264   7.845   6.616   0.284 -0.0986 -0.0933 -0.6607
  242MOL0     C33265   7.818   6.527   0.182 -0.2114 -0.1153  0.6050
  242MOL0     O33266   7.922   6.468   0.117  0.6747 -1.0529  0.5458
  242MOL0     C33267   7.943   6.503  -0.023  0.2140  0.0634  0.3625
  242MOL0     C33268   8.080   6.479  -0.083  0.9704 -0.6512  0.2313
  242MOL0     C33269   8.186   6.555  -0.004 -0.4892 -1.0273 -0.5348
  242MOL0     C33270   8.280   6.468   0.066  0.3609  0.4582  0.1415
  242MOL0     C33271   8.403   6.541   0.106 -0.1028 -0.1522 -0.0658
  242MOL0     C33272   8.489   6.459   0.213 -0.4942  0.2942  1.1750
  242MOL0     C33273   8.614   6.543   0.248  0.2971 -0.7325 -0.5527
  242MOL0     C33274   8.722   6.459   0.313  0.0166  0.3541  0.2575
  242MOL0     N33275   8.835   6.525   0.376 -1.1651  0.9261  0.2778
  242MOL0     C33276   8.925   6.469   0.457  0.0561 -0.7626 -0.1111
  242MOL0     C33277   9.036   6.547   0.446  0.4563 -0.1390 -1.0037
  242MOL0     C33278   9.166   6.521   0.509 -0.1391 -0.1529  1.2031
  242MOL0     C33279   9.250   6.429   0.420 -0.2948 -0.1761  0.2724
  242MOL0     C33280   9.383   6.372   0.490 -0.2491 -0.0654 -0.5306
  242MOL0     C33281   9.479   6.460   0.577 -0.0490  0.5232  0.0931
  242MOL0     O33282   9.521   6.570   0.493 -0.5983  0.0118  0.2844
  242MOL0     C33283   9.628   6.650   0.533  0.2168 -0.0073 -0.1763
  242MOL0     C33284   9.689   6.721   0.438 -0.1791  0.2552  0.5096
  242MOL0     C33285   9.807   6.792   0.454 -0.2056  0.4956  0.0068
  242MOL0     C33286   9.865   6.869   0.338  0.1246 -0.2191 -0.3784
  242MOL0     C33287   9.862   6.804   0.586 -0.1515 -0.1322  0.4981
  242MOL0     C33288   9.994   6.867   0.617  0.3986 -0.0533 -0.3899
  242MOL0     O33289  10.088   6.876   0.528  0.1558 -0.0373 -0.0714
  242MOL0     C33290  10.208   6.933   0.569 -0.2359 -0.5192 -0.1336
  242MOL0     C33291  10.224   7.076   0.562 -0.0851 -0.2266  0.6569
  242MOL0     C33292  10.345   7.124   0.606  0.2112 -0.2020 -0.7922
  242MOL0     C33293  10.445   7.034   0.657  0.1631 -0.3679 -0.0621
  242MOL0     O33294  10.566   7.082   0.712  0.1156  0.2545 -0.1116
  242MOL0     C33295  10.602   7.214   0.676 -0.3970  0.6402 -0.3564
  242MOL0     C33296  10.749   7.229   0.737 -0.2528  0.0543 -0.4164
  242MOL0     C33297  10.839   7.108   0.726  0.0714  0.6901 -0.2473
  242MOL0     C33298  10.973   7.121   0.786 -0.4128 -0.0792  0.2878
  242MOL0     C33299  11.066   7.005   0.744 -0.5642  0.0574 -0.1365
  242MOL0     C33300  11.214   7.030   0.788 -0.4631  0.0712  0.1245
  242MOL0     C33301  11.229   7.020   0.944 -0.1479 -0.8760  1.0163
  242MOL0     C33302  11.367   7.050   0.998  0.6073 -0.2637  0.3769
  242MOL0    Cl33303  11.493   6.934   0.957 -0.0600 -0.1875 -0.0086
  242MOL0     C33304  10.419   6.901   0.666 -0.1641 -0.3717 -0.1743
  242MOL0     C33305  10.302   6.843   0.616  0.2263  0.1663  0.3993
  242MOL0     O33306  10.013   6.882   0.741 -0.1543 -0.5684 -0.6060
  242MOL0     C33307   9.781   6.745   0.689  0.1739  0.3936 -0.3054
  242MOL0     C33308   9.679   6.658   0.662  1.0528  0.1147  1.2625
  242MOL0     N33309   9.004   6.657   0.365 -0.0616  0.0048 -0.0189
  242MOL0     N33310   8.886   6.643   0.326  0.4991  0.8234 -0.2325
  242MOL0     C33311   7.688   6.502   0.138  0.0041 -0.7153 -0.2212
  242MOL0     C33312   7.587   6.562   0.213 -0.3773  0.4476 -0.9341
  242MOL0     C33313   7.329   6.868   0.422  0.5980  0.3264 -0.1868
  242MOL0     C33314   7.308   6.811   0.544 -0.1474 -0.1930 -0.3869
  242MOL0     C33315   7.216   6.872   0.635  0.6015 -0.6960  0.6495
  242MOL0     C33316   7.149   6.990   0.608 -0.8209  0.4364  0.0004
  242MOL0     O33317   7.053   7.043   0.683  0.3641 -0.5086 -0.2461
  242MOL0     C33318   7.015   6.973   0.803  0.4769 -0.3917 -0.7321
  242MOL0     C33319   6.888   7.042   0.853 -0.4932  0.0155 -0.2212
  242MOL0     C33320   6.764   7.022   0.768  0.4239 -0.3610  0.8856
  242MOL0     C33321   6.653   7.111   0.807  0.1575 -0.7116 -0.4568
  242MOL0     C33322   6.591   7.050   0.932 -0.2853  0.3386  0.7556
  242MOL0     C33323   6.536   6.993   1.018 -0.8917  0.6063 -0.4242
  242MOL0     C33324   7.170   7.046   0.478  0.1974  0.2149 -0.1310
  242MOL0     C33325   7.255   6.985   0.384 -0.8756  1.2100 -0.5428
  242MOL0     C33326   7.287   7.073   0.259  0.2048  0.2847 -0.2543
  242MOL0     H33327   7.775   6.738   0.432  5.0607  0.4653 -2.1428
  242MOL0     H33328   7.947   6.631   0.316 -0.8396  2.0813  0.8426
  242MOL0     H33329   7.935   6.612  -0.031 -0.6082  0.2823  3.3098
  242MOL0     H33330   7.870   6.460  -0.092  2.8259 -1.5943 -1.6117
  242MOL0     H33331   8.112   6.377  -0.103  0.3508 -0.2275 -3.7803
  242MOL0     H33332   8.076   6.513  -0.187  2.6342  0.8195  0.6043
  242MOL0     H33333   8.236   6.629  -0.067 -1.7457  2.3541  2.1156
  242MOL0     H33334   8.137   6.621   0.068 -1.5231  0.4708 -2.5242
  242MOL0     H33335   8.226   6.428   0.153 -1.4459  0.9970 -0.6745
  242MOL0     H33336   8.312   6.390  -0.003 -1.0314  0.8070 -0.9527
  242MOL0     H33337   8.374   6.640   0.143 -1.3147  0.0636 -1.5159
  242MOL0     H33338   8.453   6.551   0.009 -1.9238 -1.8643 -1.2412
  242MOL0     H33339   8.433   6.436   0.304  1.0900 -2.4668  1.5776
  242MOL0     H33340   8.531   6.368   0.169 -1.6122 -0.4146  1.5278
  242MOL0     H33341   8.575   6.621   0.314  0.5910 -2.0769  1.2839
  242MOL0     H33342   8.656   6.605   0.168  1.4205 -1.2495 -0.3760
  242MOL0     H33343   8.666   6.397   0.383 -0.0058 -0.8808 -0.8091
  242MOL0     H33344   8.766   6.389   0.241  1.5639 -0.5444  1.9853
  242MOL0     H33345   8.918   6.367   0.492  3.6837 -1.5523 -1.2530
  242MOL0     H33346   9.153   6.472   0.606 -1.3495 -1.2895  0.5039
  242MOL0     H33347   9.215   6.614   0.539  0.9789 -0.1176 -0.6128
  242MOL0     H33348   9.184   6.354   0.375 -0.6026  0.0374  0.3665
  242MOL0     H33349   9.284   6.484   0.332 -3.8293  4.0706  1.1978
  242MOL0     H33350   9.353   6.283   0.546  0.0330  0.0262 -0.2279
  242MOL0     H33351   9.444   6.333   0.408 -0.1643 -0.4199 -0.2983
  242MOL0     H33352   9.436   6.507   0.666  1.1002  1.9389 -0.0579
  242MOL0     H33353   9.567   6.401   0.604 -0.1225  0.2046 -0.3440
  242MOL0     H33354   9.643   6.693   0.344  1.1080 -0.0801 -0.0323
  242MOL0     H33355   9.809   6.963   0.341 -4.1572 -2.5052  1.1085
  242MOL0     H33356   9.836   6.818   0.246  0.5182 -1.1357 -0.0031
  242MOL0     H33357   9.973   6.885   0.339  0.2008 -0.5627  1.4478
  242MOL0     H33358  10.144   7.136   0.520  2.1946  1.7884 -1.1031
  242MOL0     H33359  10.367   7.230   0.602  1.1622 -0.4183 -2.0073
  242MOL0     H33360  10.618   7.225   0.568  0.5488 -0.6699 -0.3770
  242MOL0     H33361  10.544   7.296   0.718 -1.4956  0.3404 -1.2363
  242MOL0     H33362  10.798   7.321   0.702  1.4903  0.1952  2.1228
  242MOL0     H33363  10.740   7.244   0.845  2.2337  1.3236 -0.3060
  242MOL0     H33364  10.832   7.087   0.619 -1.4726  3.4146 -0.7638
  242MOL0     H33365  10.789   7.022   0.772  3.2026 -1.0108  0.2691
  242MOL0     H33366  10.975   7.134   0.894 -3.2851  0.3921  0.3663
  242MOL0     H33367  11.022   7.212   0.751 -2.0182  1.5646  2.0619
  242MOL0     H33368  11.032   6.918   0.800 -1.1564  0.8742  0.7980
  242MOL0     H33369  11.063   6.983   0.636 -1.5786 -1.2725  0.1418
  242MOL0     H33370  11.256   7.122   0.746 -1.9585 -0.5427 -3.0640
  242MOL0     H33371  11.260   6.947   0.734 -2.1750  0.8574 -2.8032
  242MOL0     H33372  11.205   6.920   0.981  0.7903 -2.1608 -1.5776
  242MOL0     H33373  11.166   7.094   0.995 -1.9913 -0.9654 -0.9987
  242MOL0     H33374  11.355   7.043   1.106  0.1033 -3.7828  0.2105
  242MOL0     H33375  11.397   7.153   0.974 -1.1031 -0.0716 -1.2482
  242MOL0     H33376  10.483   6.822   0.704 -0.2310 -1.1033 -1.5097
  242MOL0     H33377  10.272   6.739   0.603  0.5505  0.1572 -0.3219
  242MOL0     H33378   9.805   6.756   0.795 -2.4635 -0.2405  0.4357
  242MOL0     H33379   9.631   6.605   0.744  2.0370  0.4418  2.0718
  242MOL0     H33380   7.673   6.428   0.061  0.0795 -3.0443  1.8625
  242MOL0     H33381   7.480   6.547   0.199 -0.5146  2.5149 -2.3785
  242MOL0     H33382   7.339   6.713   0.579 -0.1247 -0.5477 -1.3727
  242MOL0     H33383   7.193   6.813   0.723  2.7996  1.1864  2.6288
  242MOL0     H33384   6.992   6.868   0.784  1.5151 -1.3145  2.3977
  242MOL0     H33385   7.096   6.965   0.877  0.6558 -3.3098 -1.1172
  242MOL0     H33386   6.921   7.146   0.862  2.2464 -0.9932  4.2772
  242MOL0     H33387   6.870   7.002   0.953 -0.4298  3.4003  1.2939
  242MOL0     H33388   6.786   7.042   0.663  0.8258  1.1000  1.2257
  242MOL0     H33389   6.732   6.918   0.767 -0.9570  0.0415 -1.0899
  242MOL0     H33390   6.585   7.107   0.721 -0.7507  2.2215  0.0370
  242MOL0     H33391   6.680   7.216   0.819  1.8983 -0.8796 -2.2858
  242MOL0     H33392   6.477   6.941   1.091 -2.1237 -0.4585 -2.1123
  242MOL0     H33393   7.111   7.134   0.458  0.8662  0.8817  0.7639
  242MOL0     H33394   7.245   7.024   0.171 -0.8672  0.7222 -0.0109
  242MOL0     H33395   7.237   7.171   0.264  1.7659  1.0918  0.1750
  242MOL0     H33396   7.393   7.099   0.250 -0.0420  0.8768 -1.7379
  243MOL0     O33397   7.499   4.309   7.877 -0.0057  0.1716  0.0008
  243MOL0     C33398   7.419   4.300   7.972 -0.4087 -0.3210 -0.4671
  243MOL0     O33399   7.299   4.233   7.966 -0.6314 -0.1236  0.4515
  243MOL0     C33400   7.256   4.166   7.850 -0.0174 -0.4340  0.5046
  243MOL0     C33401   7.150   4.209   7.774 -1.6107 -0.4807 -0.3318
  243MOL0     C33402   7.107   4.140   7.666 -0.5345  0.3833  0.2081
  243MOL0     C33403   7.158   4.006   7.641  0.0578 -1.0626 -0.4196
  243MOL0     O33404   7.097   3.925   7.541  0.2530  0.2936 -0.6857
  243MOL0     C33405   7.096   3.985   7.412 -0.2537  0.4648 -0.5786
  243MOL0     C33406   6.970   3.943   7.349  0.3140 -0.0840 -1.1583
  243MOL0     C33407   6.851   4.012   7.417 -0.0250  0.2397 -0.5158
  243MOL0     C33408   6.838   4.156   7.385 -0.1795  0.2205  0.5811
  243MOL0     C33409   6.747   4.217   7.489 -0.3153 -0.1568  0.3393
  243MOL0     C33410   6.600   4.183   7.490  0.2266 -0.3207 -0.0044
  243MOL0     C33411   6.538   4.185   7.635  0.6710  0.5376 -0.3120
  243MOL0     C33412   6.399   4.124   7.640  0.4585  0.1333  0.2699
  243MOL0     N33413   6.399   3.975   7.623 -0.4420  0.3041  0.4013
  243MOL0     C33414   6.506   3.895   7.625 -0.1002  0.0256 -1.0468
  243MOL0     C33415   6.461   3.770   7.643  0.6619  0.1613 -0.0370
  243MOL0     C33416   6.545   3.661   7.682  0.0697  0.1381  0.9541
  243MOL0     C33417   6.581   3.576   7.560  0.4631 -0.6038  0.4853
  243MOL0     C33418   6.681   3.652   7.460 -0.3710 -0.8527  0.5293
  243MOL0     C33419   6.700   3.578   7.330 -0.1766  0.2740 -0.1000
  243MOL0     O33420   6.829   3.599   7.283 -0.1689 -0.2378 -0.0200
  243MOL0     C33421   6.855   3.579   7.145  0.1873  0.0176 -0.5548
  243MOL0     C33422   6.946   3.657   7.067 -0.4326  0.1358  0.0861
  243MOL0     C33423   6.982   3.618   6.937  0.8126  0.3258 -0.4199
  243MOL0     C33424   7.092   3.705   6.870  0.9788 -0.2404  0.4019
  243MOL0     C33425   6.920   3.505   6.871 -0.0481  0.2127  0.5130
  243MOL0     C33426   6.944   3.454   6.727 -0.0184 -0.3924  0.0027
  243MOL0     O33427   7.010   3.536   6.646 -0.4310  0.1028 -0.4548
  243MOL0     C33428   7.033   3.510   6.518 -0.0698  0.3154 -0.4056
  243MOL0     C33429   6.937   3.522   6.418  0.4328  0.5076  0.4043
  243MOL0     C33430   6.958   3.483   6.286  0.3123 -0.4835  0.0581
  243MOL0     C33431   7.091   3.445   6.247  0.6539 -0.6407  0.2302
  243MOL0     O33432   7.109   3.408   6.110  0.3064 -0.2146 -0.3136
  243MOL0     C33433   7.229   3.449   6.054 -0.3562  0.7736  0.8183
  243MOL0     C33434   7.207   3.432   5.904 -0.4640  0.0633  0.7257
  243MOL0     C33435   7.315   3.521   5.831  0.3908  0.5889 -1.0815
  243MOL0     C33436   7.280   3.522   5.683 -0.3466 -0.1821 -0.5245
  243MOL0     C33437   7.404   3.554   5.595 -0.8115 -0.0092  0.2279
  243MOL0     C33438   7.444   3.699   5.606  0.3170 -0.1521 -0.3833
  243MOL0     C33439   7.547   3.723   5.504 -0.0182  0.1017 -0.8857
  243MOL0     C33440   7.668   3.809   5.560  0.9542  0.3655  0.6831
  243MOL0    Cl33441   7.765   3.722   5.683  0.1182  0.1608 -0.0631
  243MOL0     C33442   7.197   3.464   6.346  0.6848  0.6417  1.2566
  243MOL0     C33443   7.163   3.493   6.475 -0.0957  1.3788 -0.0930
  243MOL0     O33444   6.893   3.347   6.696  0.0241 -0.5208 -0.0246
  243MOL0     C33445   6.826   3.436   6.947  0.1461 -0.8811 -0.5317
  243MOL0     C33446   6.791   3.471   7.079 -0.3559  0.0716  0.2280
  243MOL0     N33447   6.322   3.772   7.655 -0.0583  0.7906  0.3636
  243MOL0     N33448   6.286   3.891   7.639 -1.3246 -0.1506 -0.3953
  243MOL0     C33449   7.266   3.966   7.709  0.5471  0.6522  0.2708
  243MOL0     C33450   7.310   4.045   7.816 -0.1720  0.0533  0.2707
  243MOL0     C33451   7.458   4.356   8.106 -0.1341  0.5428  0.2820
  243MOL0     C33452   7.356   4.398   8.192  0.1149 -0.0857  0.3307
  243MOL0     C33453   7.386   4.447   8.318  0.6252 -0.3108 -0.3290
  243MOL0     C33454   7.516   4.450   8.367  0.8230 -1.0016 -0.8354
  243MOL0     O33455   7.562   4.501   8.482  0.5558 -0.1635 -0.5199
  243MOL0     C33456   7.470   4.536   8.581  0.2242 -0.6771 -0.5098
  243MOL0     C33457   7.544   4.601   8.696  0.1779 -0.4463  1.1057
  243MOL0     C33458   7.663   4.511   8.748 -0.6243  1.1584 -0.7448
  243MOL0     C33459   7.793   4.565   8.682 -0.4932  0.0718 -0.4646
  243MOL0     C33460   7.912   4.490   8.726  0.0662  0.7754  1.0470
  243MOL0     C33461   8.001   4.413   8.764  1.0592 -0.1153  1.1294
  243MOL0     C33462   7.615   4.407   8.281 -0.5307  0.0788  1.3537
  243MOL0     C33463   7.594   4.371   8.148 -0.2644  0.2438 -0.4381
  243MOL0     C33464   7.715   4.344   8.054  0.6331 -0.4461  0.2981
  243MOL0     H33465   7.115   4.312   7.782  0.1503  0.2720 -1.5578
  243MOL0     H33466   7.028   4.191   7.613 -0.6621  0.1733  0.1960
  243MOL0     H33467   7.179   3.948   7.352  1.8899  0.7716  2.0055
  243MOL0     H33468   7.112   4.094   7.409  1.8656  0.1757 -3.2527
  243MOL0     H33469   6.964   3.990   7.250  0.2071 -0.7590 -1.4792
  243MOL0     H33470   6.962   3.835   7.337  0.1941 -0.0839 -1.0912
  243MOL0     H33471   6.763   3.963   7.373 -0.4092 -1.0404  1.5416
  243MOL0     H33472   6.845   3.990   7.524 -2.2426  1.3557 -0.3405
  243MOL0     H33473   6.931   4.213   7.392 -0.1737  0.0708  2.0921
  243MOL0     H33474   6.797   4.176   7.286 -1.6485 -2.8798  0.4423
  243MOL0     H33475   6.748   4.327   7.482 -1.5793 -0.2425 -2.6240
  243MOL0     H33476   6.806   4.200   7.579  2.3065 -0.2930 -1.3113
  243MOL0     H33477   6.549   4.254   7.425  1.2399  1.7738  1.3615
  243MOL0     H33478   6.590   4.085   7.443  0.5341  0.7153 -2.3303
  243MOL0     H33479   6.521   4.288   7.667 -1.1118 -0.1775  1.2694
  243MOL0     H33480   6.594   4.148   7.722 -0.5672 -1.5475 -0.3479
  243MOL0     H33481   6.355   4.150   7.737 -0.8691  1.3344 -0.6156
  243MOL0     H33482   6.345   4.173   7.559  1.1134  1.0952  0.3988
  243MOL0     H33483   6.611   3.921   7.629 -0.4945  1.6984  2.6257
  243MOL0     H33484   6.488   3.593   7.747 -1.9333 -1.3192 -2.1317
  243MOL0     H33485   6.635   3.698   7.732  0.7427  2.4699 -1.7398
  243MOL0     H33486   6.630   3.484   7.595 -0.8023 -1.2668  0.5765
  243MOL0     H33487   6.486   3.556   7.510 -0.4737  1.4951  1.3319
  243MOL0     H33488   6.642   3.751   7.433 -0.8235 -1.0478  0.4552
  243MOL0     H33489   6.777   3.661   7.512  0.4630 -1.8429 -0.8025
  243MOL0     H33490   6.680   3.470   7.339  2.1178 -0.1429  0.4822
  243MOL0     H33491   6.632   3.620   7.255 -1.9154 -3.1460 -0.6603
  243MOL0     H33492   6.972   3.751   7.114  0.1961  0.6078 -1.1418
  243MOL0     H33493   7.147   3.766   6.942  0.9128  0.3314 -0.0235
  243MOL0     H33494   7.040   3.771   6.800  2.7668  1.7371  0.8353
  243MOL0     H33495   7.165   3.636   6.829  3.0934  3.0420 -1.8824
  243MOL0     H33496   6.841   3.562   6.447  1.0429  0.3339  2.9042
  243MOL0     H33497   6.879   3.493   6.212  0.5318  2.5639  0.1238
  243MOL0     H33498   7.252   3.555   6.067  2.8492  0.2875 -0.1248
  243MOL0     H33499   7.304   3.376   6.086 -0.0390  0.6179 -0.2417
  243MOL0     H33500   7.209   3.325   5.884 -4.3754  0.2173 -1.4284
  243MOL0     H33501   7.105   3.460   5.877 -1.6659 -3.2072  1.3817
  243MOL0     H33502   7.417   3.484   5.844  1.2444  2.4491 -2.0759
  243MOL0     H33503   7.313   3.626   5.862 -0.3782  0.0805  0.7225
  243MOL0     H33504   7.206   3.601   5.670 -0.2006  0.1412  0.5130
  243MOL0     H33505   7.241   3.422   5.664  2.7688 -2.2181  2.6467
  243MOL0     H33506   7.494   3.502   5.629 -2.9360 -3.8979  0.5192
  243MOL0     H33507   7.384   3.528   5.490  1.3703 -2.7736  0.3783
  243MOL0     H33508   7.471   3.706   5.712  0.6665  0.0844 -0.4884
  243MOL0     H33509   7.361   3.770   5.598 -1.0488 -1.3490  1.8583
  243MOL0     H33510   7.512   3.776   5.415 -2.1127 -2.0535 -1.4459
  243MOL0     H33511   7.590   3.631   5.464  0.0835  0.2751 -1.1849
  243MOL0     H33512   7.634   3.906   5.598  2.0403  1.3243 -0.7106
  243MOL0     H33513   7.727   3.828   5.471  1.2583  2.3819  1.2539
  243MOL0     H33514   7.300   3.460   6.312  0.3958  1.2143  0.2423
  243MOL0     H33515   7.246   3.524   6.538  1.2652  0.9072 -1.5932
  243MOL0     H33516   6.780   3.348   6.902  0.2463  0.4943 -3.5570
  243MOL0     H33517   6.727   3.407   7.139 -0.1932 -1.0342 -0.7386
  243MOL0     H33518   7.308   3.870   7.683  0.9479  0.6721  0.8382
  243MOL0     H33519   7.388   4.009   7.882 -0.5695 -1.6745 -0.1337
  243MOL0     H33520   7.256   4.406   8.150  0.6294  2.1140 -0.6523
  243MOL0     H33521   7.311   4.505   8.372  0.2951  1.1181 -2.2448
  243MOL0     H33522   7.396   4.606   8.543  1.4312  0.5690 -0.6191
  243MOL0     H33523   7.403   4.456   8.617 -1.2351  1.0931  0.9371
  243MOL0     H33524   7.476   4.636   8.774 -1.1951  1.4042 -0.8025
  243MOL0     H33525   7.594   4.690   8.656 -1.8372  0.8492  1.3282
  243MOL0     H33526   7.667   4.521   8.856 -1.1156 -0.3065 -0.5590
  243MOL0     H33527   7.655   4.404   8.724  0.4951  0.0004  3.3763
  243MOL0     H33528   7.796   4.672   8.706  0.3565  0.0387 -0.3900
  243MOL0     H33529   7.775   4.566   8.575  1.5859  4.1089 -0.9921
  243MOL0     H33530   8.078   4.344   8.790  2.8296  0.8059 -1.2616
  243MOL0     H33531   7.718   4.416   8.315  0.4506  1.2652 -1.5502
  243MOL0     H33532   7.707   4.413   7.969 -0.7057 -0.2685  0.5528
  243MOL0     H33533   7.806   4.383   8.102  0.7367  1.9116 -1.6248
  243MOL0     H33534   7.727   4.240   8.023 -2.5602 -0.7272 -0.3089
  244MOL0     O33535   6.528   3.958   1.891 -0.2031  0.7259 -0.2671
  244MOL0     C33536   6.474   4.064   1.866 -0.2482 -0.7956  0.5342
  244MOL0     O33537   6.543   4.165   1.812 -0.6758  0.9837  0.1297
  244MOL0     C33538   6.672   4.160   1.851  0.1746 -1.1956  0.1078
  244MOL0     C33539   6.778   4.078   1.807 -0.9035 -0.5999  0.1919
  244MOL0     C33540   6.911   4.110   1.843  0.4284 -0.7837 -0.1654
  244MOL0     C33541   6.938   4.217   1.919  0.3466 -0.1049  0.3365
  244MOL0     O33542   7.071   4.247   1.931 -0.4718  0.1452 -0.2320
  244MOL0     C33543   7.114   4.310   2.049 -0.6882  0.4458 -0.3745
  244MOL0     C33544   7.268   4.283   2.066 -0.2829  0.4035 -0.1896
  244MOL0     C33545   7.326   4.378   2.175  0.3324  0.0638  0.5196
  244MOL0     C33546   7.467   4.346   2.214 -0.6168  0.3988  0.6480
  244MOL0     C33547   7.525   4.433   2.321 -0.4195  0.2225 -0.5811
  244MOL0     C33548   7.471   4.399   2.460 -0.2274  0.2697  0.9211
  244MOL0     C33549   7.521   4.272   2.535  0.0212  0.7182  0.5571
  244MOL0     C33550   7.454   4.236   2.673 -0.8349  0.7306  0.9125
  244MOL0     N33551   7.489   4.332   2.780 -0.1448 -0.6312 -0.5585
  244MOL0     C33552   7.395   4.429   2.811  0.0930 -0.0498  0.2232
  244MOL0     C33553   7.453   4.499   2.904  0.1042 -0.4727 -0.0422
  244MOL0     C33554   7.388   4.617   2.978 -0.6198  0.8376 -0.0233
  244MOL0     C33555   7.443   4.748   2.932  0.0655 -0.0805 -0.5025
  244MOL0     C33556   7.563   4.789   3.017  0.3253 -0.6648 -0.2542
  244MOL0     C33557   7.608   4.934   2.993 -0.2615 -0.5478 -0.3527
  244MOL0     O33558   7.701   4.924   2.883 -0.4916  0.1296 -0.0401
  244MOL0     C33559   7.771   5.041   2.852  0.0802 -0.2960  0.2491
  244MOL0     C33560   7.760   5.173   2.907 -0.5599  0.4673 -0.4169
  244MOL0     C33561   7.841   5.279   2.864  0.0503 -0.0961  0.6086
  244MOL0     C33562   7.810   5.413   2.923  0.1296  0.2984  0.2325
  244MOL0     C33563   7.945   5.247   2.767  0.0932 -0.2520  0.9948
  244MOL0     C33564   8.045   5.353   2.729 -1.0687  0.2142 -0.8554
  244MOL0     O33565   8.080   5.366   2.596  0.3400 -0.2775  0.6271
  244MOL0     C33566   8.160   5.472   2.558 -0.2263  1.1891  0.5129
  244MOL0     C33567   8.293   5.471   2.583 -0.0559  0.4328  0.1603
  244MOL0     C33568   8.376   5.569   2.541 -0.5955 -0.3923  0.6271
  244MOL0     C33569   8.326   5.679   2.474 -1.0267  0.2904  1.0192
  244MOL0     O33570   8.409   5.778   2.437 -0.5257  1.0297 -0.1812
  244MOL0     C33571   8.398   5.826   2.303  0.2616  0.8299  0.2944
  244MOL0     C33572   8.513   5.920   2.270 -0.1760 -0.1989  0.3577
  244MOL0     C33573   8.506   6.052   2.346 -0.0669  0.3950  0.2290
  244MOL0     C33574   8.648   6.106   2.379 -0.5361 -1.0931 -0.6271
  244MOL0     C33575   8.652   6.215   2.484  0.3226  0.1683 -0.4166
  244MOL0     C33576   8.787   6.291   2.493  0.8477  0.1173  0.3620
  244MOL0     C33577   8.890   6.199   2.549  0.5715  0.0800  0.3797
  244MOL0     C33578   9.036   6.235   2.497  0.6231  0.6452  0.2831
  244MOL0    Cl33579   9.052   6.156   2.335  0.3059  0.5895  0.0152
  244MOL0     C33580   8.189   5.688   2.446 -0.5674 -0.1266  0.1522
  244MOL0     C33581   8.106   5.583   2.490 -0.0438  0.0922  0.5928
  244MOL0     O33582   8.102   5.412   2.819 -0.0485  0.4344 -0.3452
  244MOL0     C33583   7.957   5.124   2.709  0.4063  0.5440 -0.0458
  244MOL0     C33584   7.875   5.027   2.754  0.4536  0.8981 -0.2240
  244MOL0     N33585   7.577   4.446   2.939 -0.0154  0.4015 -0.0697
  244MOL0     N33586   7.602   4.342   2.861  0.4539 -0.3725 -0.1874
  244MOL0     C33587   6.834   4.301   1.966  0.0107  0.3653 -0.2072
  244MOL0     C33588   6.701   4.264   1.941 -0.3399  0.4072 -0.1164
  244MOL0     C33589   6.331   4.081   1.862  0.2878  1.0537 -1.3116
  244MOL0     C33590   6.279   4.189   1.786  0.0245 -0.6449 -0.5696
  244MOL0     C33591   6.142   4.215   1.784  0.9255 -0.2152  0.8077
  244MOL0     C33592   6.047   4.139   1.850  0.0191 -0.2016 -0.0199
  244MOL0     O33593   5.914   4.138   1.837  0.1611  0.8254  0.1106
  244MOL0     C33594   5.849   4.217   1.732 -0.2236 -0.0618 -1.2292
  244MOL0     C33595   5.700   4.196   1.723 -0.4758  1.0899  0.3353
  244MOL0     C33596   5.627   4.274   1.842 -0.1891 -0.1215 -0.1446
  244MOL0     C33597   5.481   4.238   1.844 -0.0911 -0.0431 -0.3315
  244MOL0     C33598   5.399   4.325   1.927  0.1899  0.6133  0.5308
  244MOL0     C33599   5.346   4.405   2.006  0.6417  0.6379 -1.0974
  244MOL0     C33600   6.099   4.035   1.930 -0.2959  0.0008 -0.5488
  244MOL0     C33601   6.237   4.013   1.947 -0.5334  0.3785 -0.1642
  244MOL0     C33602   6.277   3.899   2.033 -0.0944 -0.6326  0.2357
  244MOL0     H33603   6.760   3.989   1.748 -0.5040 -0.3274 -0.3574
  244MOL0     H33604   6.987   4.048   1.796  0.2139 -2.3364  1.4421
  244MOL0     H33605   7.066   4.266   2.137  0.7220  4.1966  2.5785
  244MOL0     H33606   7.091   4.416   2.044  0.5155  0.7073 -0.8490
  244MOL0     H33607   7.283   4.177   2.089  1.4782  0.9177  1.3361
  244MOL0     H33608   7.327   4.290   1.974 -1.4198 -0.8102 -1.0333
  244MOL0     H33609   7.317   4.482   2.144  1.3505 -0.8245 -3.1924
  244MOL0     H33610   7.269   4.365   2.268 -1.8711 -2.0150 -0.9945
  244MOL0     H33611   7.466   4.243   2.251  0.4464 -0.8730 -2.5342
  244MOL0     H33612   7.530   4.353   2.125 -2.2044 -0.1498 -0.5621
  244MOL0     H33613   7.499   4.534   2.288 -0.9139 -0.4777 -2.4895
  244MOL0     H33614   7.632   4.415   2.311 -0.4013 -0.6690  0.9077
  244MOL0     H33615   7.498   4.474   2.535 -0.3711 -0.4224  1.6761
  244MOL0     H33616   7.362   4.408   2.449  0.0009 -0.5063 -5.1922
  244MOL0     H33617   7.629   4.271   2.552  1.0308  2.4061 -4.2833
  244MOL0     H33618   7.505   4.190   2.464 -2.1926  2.3485 -0.9490
  244MOL0     H33619   7.347   4.216   2.668 -0.1681 -3.5018 -0.9874
  244MOL0     H33620   7.489   4.137   2.704 -3.3065 -0.9296 -1.2188
  244MOL0     H33621   7.293   4.443   2.775  0.7956 -0.6838 -2.2484
  244MOL0     H33622   7.399   4.599   3.085  0.1621  1.1065 -0.0491
  244MOL0     H33623   7.285   4.613   2.941  1.1915  0.0150 -6.2043
  244MOL0     H33624   7.448   4.742   2.823 -0.1380 -1.1826 -0.4673
  244MOL0     H33625   7.368   4.822   2.963  1.3000  0.6531  0.8081
  244MOL0     H33626   7.527   4.780   3.120  1.1684  2.0893  0.3719
  244MOL0     H33627   7.637   4.712   2.992 -2.7700 -2.7160 -4.2697
  244MOL0     H33628   7.522   5.000   2.978 -0.0653 -0.1976  0.0105
  244MOL0     H33629   7.657   4.967   3.086 -2.1682 -0.6140  0.7307
  244MOL0     H33630   7.691   5.197   2.987  0.5216  3.8830 -0.3430
  244MOL0     H33631   7.729   5.467   2.872 -0.1362 -0.5102 -0.2215
  244MOL0     H33632   7.905   5.468   2.924  0.6986 -0.5901 -1.2418
  244MOL0     H33633   7.792   5.397   3.030 -0.3484  4.8351  1.0512
  244MOL0     H33634   8.330   5.393   2.649 -0.5980 -2.2346 -2.4592
  244MOL0     H33635   8.476   5.557   2.581  0.2153 -0.4843 -1.2901
  244MOL0     H33636   8.395   5.741   2.235 -0.6767 -0.2449  1.6108
  244MOL0     H33637   8.302   5.878   2.308  1.1270  2.6034 -0.7636
  244MOL0     H33638   8.606   5.865   2.289  0.7588  0.5937 -1.5900
  244MOL0     H33639   8.509   5.948   2.164  0.7842  0.0099  0.3638
  244MOL0     H33640   8.453   6.031   2.439  0.4186 -0.6857  0.2749
  244MOL0     H33641   8.438   6.116   2.290 -2.4131 -0.7945  1.5690
  244MOL0     H33642   8.690   6.148   2.287 -3.6565 -1.1177 -2.1881
  244MOL0     H33643   8.713   6.028   2.418  0.7103  0.2784  0.1261
  244MOL0     H33644   8.579   6.292   2.457 -1.0613 -0.5062  1.2159
  244MOL0     H33645   8.628   6.177   2.584  1.2558 -1.4528 -0.7661
  244MOL0     H33646   8.793   6.386   2.548 -0.1543  0.7609 -0.6101
  244MOL0     H33647   8.810   6.317   2.389 -2.4190 -0.0973 -0.5133
  244MOL0     H33648   8.876   6.094   2.521 -2.1184  0.9916 -2.2687
  244MOL0     H33649   8.888   6.202   2.658  2.4181 -4.2737  0.7516
  244MOL0     H33650   9.114   6.198   2.565  1.5878  2.5589  0.2753
  244MOL0     H33651   9.039   6.342   2.476 -0.4721  0.3893 -1.3776
  244MOL0     H33652   8.147   5.778   2.403  2.6725  3.2454  3.3792
  244MOL0     H33653   7.999   5.594   2.475  0.3005 -0.6565 -3.5378
  244MOL0     H33654   8.043   5.101   2.648  0.1848  1.5982 -0.7827
  244MOL0     H33655   7.882   4.927   2.714  3.9507  1.3551 -1.1555
  244MOL0     H33656   6.843   4.400   2.011 -1.7645 -0.0939  1.2620
  244MOL0     H33657   6.617   4.320   1.980 -0.3267  1.5692 -1.6899
  244MOL0     H33658   6.344   4.255   1.729  1.3187  1.5637  3.1250
  244MOL0     H33659   6.110   4.288   1.711  0.3322  0.2261  1.5021
  244MOL0     H33660   5.870   4.324   1.743 -0.7172  0.1659 -2.3868
  244MOL0     H33661   5.899   4.183   1.641 -0.3400 -1.3566 -0.8395
  244MOL0     H33662   5.683   4.088   1.722  1.7145  0.6863 -0.7886
  244MOL0     H33663   5.675   4.230   1.622  1.5939 -2.1128 -1.4471
  244MOL0     H33664   5.684   4.266   1.935  1.4772  2.8896 -0.7821
  244MOL0     H33665   5.644   4.381   1.827  1.0931 -0.1720  0.7677
  244MOL0     H33666   5.464   4.133   1.870  0.4358 -0.3522 -1.1894
  244MOL0     H33667   5.448   4.241   1.740  0.9184 -0.4171 -0.6776
  244MOL0     H33668   5.297   4.475   2.070 -2.7627 -1.6398 -0.9242
  244MOL0     H33669   6.035   3.964   1.981 -0.6645  1.3862  0.9982
  244MOL0     H33670   6.348   3.827   1.991  0.4555 -0.3701  0.7078
  244MOL0     H33671   6.317   3.939   2.126  0.4038 -0.7246  0.0672
  244MOL0     H33672   6.183   3.853   2.066 -0.4756 -1.3323 -1.6932
  245MOL0     O33673   1.940   0.455  11.432  0.1964 -0.0654 -0.3248
  245MOL0     C33674   1.842   0.395  11.486  0.0067  0.1033 -0.6451
  245MOL0     O33675   1.865   0.286  11.559  0.5063  0.6350 -0.2238
  245MOL0     C33676   1.989   0.244  11.600 -0.9475  0.4755 -0.5260
  245MOL0     C33677   2.072   0.319  11.693  0.0611 -0.0022  0.3005
  245MOL0     C33678   2.191   0.271  11.747  0.2620  0.3038  0.0536
  245MOL0     C33679   2.239   0.140  11.714 -0.3330 -0.1440 -0.0583
  245MOL0     O33680   2.355   0.081  11.770  0.1412  1.0217  0.3361
  245MOL0     C33681   2.440   0.173  11.841 -0.3783 -0.1640 -0.3073
  245MOL0     C33682   2.578   0.108  11.866  0.5387 -0.4199 -0.4471
  245MOL0     C33683   2.648   0.071  11.732  0.4963 -0.2530  0.0765
  245MOL0     C33684   2.767  -0.017  11.760  0.4259 -0.1819 -0.4549
  245MOL0     C33685   2.728  -0.162  11.795 -0.4024 -0.6217 -0.5800
  245MOL0     C33686   2.819  -0.269  11.746  0.4370 -0.4826 -0.2081
  245MOL0     C33687   2.962  -0.246  11.808  0.1116  0.3980 -0.2071
  245MOL0     C33688   3.049  -0.366  11.774 -0.5040 -0.0949 -0.9886
  245MOL0     N33689   3.180  -0.315  11.795 -0.4131  1.1312  0.4206
  245MOL0     C33690   3.260  -0.341  11.905  0.2307  0.7594 -0.2566
  245MOL0     C33691   3.378  -0.302  11.860  0.2522 -0.0385 -0.0241
  245MOL0     C33692   3.515  -0.313  11.937  0.0908 -0.4627 -0.1941
  245MOL0     C33693   3.552  -0.457  11.961  0.4415  0.9038  0.1361
  245MOL0     C33694   3.691  -0.461  12.030 -0.3771 -0.4186 -0.1171
  245MOL0     C33695   3.728  -0.604  12.062 -0.8644  1.2022  0.1058
  245MOL0     O33696   3.750  -0.678  11.940  0.7007 -0.6736 -0.3619
  245MOL0     C33697   3.759  -0.811  11.962 -0.2971  0.7116 -0.9263
  245MOL0     C33698   3.657  -0.890  12.024 -0.3962 -1.5358 -0.4511
  245MOL0     C33699   3.681  -1.020  12.051 -0.5550 -0.4740  0.2038
  245MOL0     C33700   3.564  -1.103  12.075  0.0691 -0.2752  0.2892
  245MOL0     C33701   3.809  -1.076  12.022 -0.7173  0.0920  0.4432
  245MOL0     C33702   3.852  -1.216  12.064 -0.5547  0.5576 -0.9028
  245MOL0     O33703   3.760  -1.317  12.079  0.3985 -0.6532  0.2539
  245MOL0     C33704   3.808  -1.434  12.136 -0.8136  0.2829 -0.2400
  245MOL0     C33705   3.823  -1.545  12.059 -1.0299  0.1663  0.3439
  245MOL0     C33706   3.866  -1.668  12.118 -0.7577 -0.6592 -0.1501
  245MOL0     C33707   3.896  -1.679  12.250 -0.6980  1.1475 -0.0624
  245MOL0     O33708   3.933  -1.798  12.313  0.1570  0.1796  0.0813
  245MOL0     C33709   4.073  -1.807  12.351 -0.1536 -0.0376  0.2105
  245MOL0     C33710   4.090  -1.931  12.440 -0.1224 -0.0433 -0.0878
  245MOL0     C33711   4.230  -1.948  12.486  0.0981  0.0668 -0.0124
  245MOL0     C33712   4.261  -2.074  12.569 -0.0949 -0.1955 -0.1314
  245MOL0     C33713   4.413  -2.076  12.592  0.6809  0.5641 -0.6820
  245MOL0     C33714   4.459  -2.201  12.678  1.1219 -0.1699 -0.1713
  245MOL0     C33715   4.600  -2.240  12.635  1.1579 -0.7401 -0.3442
  245MOL0     C33716   4.651  -2.360  12.709  0.3292 -0.1999 -1.1317
  245MOL0    Cl33717   4.668  -2.314  12.884  0.3177 -0.0197 -0.0125
  245MOL0     C33718   3.867  -1.568  12.338  0.9913  0.6331 -0.4335
  245MOL0     C33719   3.832  -1.446  12.277  0.1793 -0.0734 -0.7147
  245MOL0     O33720   3.971  -1.228  12.104 -1.0192  0.3456  0.2076
  245MOL0     C33721   3.912  -0.993  11.969 -0.3272  0.5408 -0.7791
  245MOL0     C33722   3.891  -0.861  11.953 -0.8444 -0.4541 -0.0016
  245MOL0     N33723   3.368  -0.236  11.735 -0.0317  0.7367 -0.9461
  245MOL0     N33724   3.252  -0.254  11.698  0.1165 -0.2634 -0.4647
  245MOL0     C33725   2.163   0.070  11.623  0.3500 -0.5785 -0.2736
  245MOL0     C33726   2.030   0.111  11.577  0.7144 -0.0497  0.2921
  245MOL0     C33727   1.707   0.456  11.469  0.4641 -0.4292  0.4284
  245MOL0     C33728   1.593   0.369  11.493 -0.9772  0.1274  1.4881
  245MOL0     C33729   1.465   0.428  11.479  0.2419  1.2037  0.7538
  245MOL0     C33730   1.448   0.562  11.454  1.0974 -0.8330  0.2836
  245MOL0     O33731   1.316   0.602  11.438 -0.3147 -0.1603  0.0003
  245MOL0     C33732   1.281   0.710  11.342  0.1847 -0.0845 -0.0237
  245MOL0     C33733   1.151   0.677  11.284  1.0029 -0.1046  1.3291
  245MOL0     C33734   1.106   0.781  11.173 -0.2752 -0.0254 -0.3657
  245MOL0     C33735   1.087   0.727  11.028 -0.4729 -0.5250  0.0670
  245MOL0     C33736   0.956   0.669  11.008  0.7893 -0.1655  0.2983
  245MOL0     C33737   0.841   0.625  10.984  0.4280 -0.3879  0.4578
  245MOL0     C33738   1.558   0.644  11.429 -0.6428  0.0597 -0.8703
  245MOL0     C33739   1.688   0.599  11.438 -0.2251 -0.1082 -0.1160
  245MOL0     C33740   1.793   0.698  11.405  0.6177 -0.2665 -0.3728
  245MOL0     H33741   2.058   0.420  11.729  0.0014  0.5828 -1.2685
  245MOL0     H33742   2.247   0.340  11.810  0.4283  0.1033  0.1255
  245MOL0     H33743   2.393   0.210  11.932 -0.4755 -2.5945  0.7147
  245MOL0     H33744   2.464   0.256  11.774 -0.7449 -0.7010 -1.1055
  245MOL0     H33745   2.642   0.177  11.922  2.1266  0.2996 -3.0126
  245MOL0     H33746   2.560   0.023  11.933 -1.0506 -0.8774 -1.3912
  245MOL0     H33747   2.579   0.029  11.658  1.9966 -0.2968 -1.3753
  245MOL0     H33748   2.694   0.159  11.686  2.7143 -0.3030  2.0265
  245MOL0     H33749   2.839  -0.017  11.678  3.1298  0.2455  1.7499
  245MOL0     H33750   2.821   0.021  11.848 -1.3614  1.1722  0.1167
  245MOL0     H33751   2.626  -0.184  11.760  0.0933  0.3675 -2.8231
  245MOL0     H33752   2.732  -0.162  11.904  0.8638 -0.0885 -0.6102
  245MOL0     H33753   2.775  -0.365  11.776  0.1829 -0.3460 -0.1432
  245MOL0     H33754   2.822  -0.262  11.637 -0.8983  0.4987 -0.2032
  245MOL0     H33755   2.947  -0.227  11.914 -0.5261  1.5417 -0.4886
  245MOL0     H33756   3.004  -0.157  11.761  1.6211 -0.3115 -0.2402
  245MOL0     H33757   3.032  -0.452  11.840  1.8212  1.6470  2.1846
  245MOL0     H33758   3.032  -0.392  11.669 -0.7630 -2.0982 -0.4936
  245MOL0     H33759   3.234  -0.406  11.989  1.4394 -2.5828 -2.2663
  245MOL0     H33760   3.517  -0.254  12.029  0.0479  0.1310 -0.5680
  245MOL0     H33761   3.603  -0.276  11.883  0.9689  0.7039  1.9271
  245MOL0     H33762   3.474  -0.499  12.025  0.6018  1.4736  0.7185
  245MOL0     H33763   3.567  -0.511  11.867  0.9787  2.8698 -0.9564
  245MOL0     H33764   3.768  -0.422  11.963  0.4770 -0.4784  0.8053
  245MOL0     H33765   3.687  -0.396  12.118 -2.1768 -2.9117  1.7814
  245MOL0     H33766   3.821  -0.598  12.119 -1.5618  1.0848  1.2953
  245MOL0     H33767   3.652  -0.659  12.119  1.4278 -2.4992 -0.0593
  245MOL0     H33768   3.559  -0.856  12.054  0.2816 -0.4927  0.7127
  245MOL0     H33769   3.575  -1.176  12.157 -1.3386 -0.3625  0.4323
  245MOL0     H33770   3.539  -1.158  11.984  1.6322 -2.1859  0.9360
  245MOL0     H33771   3.471  -1.048  12.089  0.2047  0.5170 -1.7360
  245MOL0     H33772   3.799  -1.539  11.953  1.7980 -1.1073 -0.4666
  245MOL0     H33773   3.879  -1.755  12.054  3.3240 -1.2655  1.2111
  245MOL0     H33774   4.135  -1.800  12.261 -0.0209  2.0025  0.3971
  245MOL0     H33775   4.095  -1.720  12.414  3.8814 -2.0933  2.0248
  245MOL0     H33776   4.028  -1.920  12.530 -0.2178 -1.1164 -0.0101
  245MOL0     H33777   4.056  -2.024  12.393  2.5915 -1.6916  1.0110
  245MOL0     H33778   4.236  -1.869  12.561 -0.3938 -1.9529  2.2990
  245MOL0     H33779   4.300  -1.943  12.402 -0.5037  0.3633 -0.5064
  245MOL0     H33780   4.225  -2.160  12.513  1.8686  1.8088 -5.1180
  245MOL0     H33781   4.211  -2.067  12.666 -1.4217 -1.0394 -0.7362
  245MOL0     H33782   4.458  -2.078  12.492  0.3774 -0.7230 -0.8120
  245MOL0     H33783   4.436  -1.983  12.646  2.0425 -1.0370  1.6991
  245MOL0     H33784   4.393  -2.287  12.665  1.5468 -0.2286 -2.4184
  245MOL0     H33785   4.471  -2.170  12.782 -1.9500  1.5035 -0.1913
  245MOL0     H33786   4.658  -2.147  12.645 -2.0565  1.3227  0.7850
  245MOL0     H33787   4.606  -2.278  12.533 -1.7763 -1.1994 -0.4188
  245MOL0     H33788   4.749  -2.385  12.667 -0.0393 -0.4226 -1.8727
  245MOL0     H33789   4.584  -2.446  12.706 -0.1657  0.1870 -1.1700
  245MOL0     H33790   3.865  -1.581  12.445 -0.7829  0.0190 -0.5074
  245MOL0     H33791   3.827  -1.353  12.333  1.0817 -0.3776 -0.1014
  245MOL0     H33792   4.010  -1.039  11.963 -0.5849 -0.4143  1.2569
  245MOL0     H33793   3.971  -0.793  11.925 -0.6614 -0.7733 -0.2581
  245MOL0     H33794   2.197  -0.029  11.593 -0.1482 -1.7878  2.8324
  245MOL0     H33795   1.971   0.046  11.513  0.5152  1.3527 -1.0222
  245MOL0     H33796   1.600   0.264  11.518 -3.4825 -0.0532  1.6959
  245MOL0     H33797   1.372   0.372  11.481 -1.1651  3.3956  2.3892
  245MOL0     H33798   1.269   0.800  11.402 -2.8279  1.7768 -3.1323
  245MOL0     H33799   1.348   0.713  11.256 -0.0595 -2.5935 -0.4019
  245MOL0     H33800   1.069   0.680  11.356 -2.1362 -0.0057 -1.9442
  245MOL0     H33801   1.156   0.580  11.233 -0.1268  0.9611 -1.0028
  245MOL0     H33802   1.011   0.820  11.211  1.0225  3.0590  0.0580
  245MOL0     H33803   1.183   0.858  11.161  0.2300 -0.6686 -1.2995
  245MOL0     H33804   1.165   0.660  10.990 -3.0181 -2.2293 -2.6891
  245MOL0     H33805   1.095   0.817  10.966  0.5587 -1.9261 -1.9499
  245MOL0     H33806   0.737   0.603  10.969 -0.1203  2.0134  0.2429
  245MOL0     H33807   1.548   0.738  11.377  2.3977  2.0992  1.8151
  245MOL0     H33808   1.751   0.798  11.391 -0.4163 -0.7787 -1.1271
  245MOL0     H33809   1.867   0.701  11.485  0.4180 -0.0074 -0.2004
  245MOL0     H33810   1.842   0.680  11.309  2.1363  5.1630 -0.9272
  246MOL0     O33811   1.974   2.739   9.574 -0.4438  0.8042  0.4107
  246MOL0     C33812   1.898   2.659   9.636  0.1297  0.1674  0.3466
  246MOL0     O33813   1.941   2.570   9.737 -0.3065 -0.3308 -1.1181
  246MOL0     C33814   2.061   2.601   9.797  0.6528  0.7683  1.0306
  246MOL0     C33815   2.059   2.685   9.909  0.8976 -0.0236  0.1293
  246MOL0     C33816   2.179   2.732   9.962 -0.6108 -0.2323  0.1262
  246MOL0     C33817   2.302   2.695   9.911 -0.0253 -1.2507 -1.0786
  246MOL0     O33818   2.414   2.734   9.986 -0.2788 -0.5232 -0.7722
  246MOL0     C33819   2.540   2.720   9.922 -0.0732  0.0525 -0.2375
  246MOL0     C33820   2.645   2.771  10.023  0.3846 -0.3936 -0.3588
  246MOL0     C33821   2.713   2.661  10.103  0.3911 -0.0070  0.2377
  246MOL0     C33822   2.856   2.650  10.062 -0.1369  0.1020  0.0326
  246MOL0     C33823   2.913   2.521  10.126  0.0029 -0.4368  0.4665
  246MOL0     C33824   3.058   2.495  10.112 -0.1332  0.2455 -0.8712
  246MOL0     C33825   3.108   2.377  10.197 -1.3110 -0.1092  0.2234
  246MOL0     C33826   3.259   2.399  10.220  0.3397  0.2360 -0.3341
  246MOL0     N33827   3.319   2.278  10.277  0.5344  0.0482  0.3849
  246MOL0     C33828   3.324   2.146  10.233  0.8844 -0.5519 -0.3066
  246MOL0     C33829   3.373   2.083  10.337  0.2181  0.3870  0.1572
  246MOL0     C33830   3.423   1.940  10.341 -0.2605  0.4606  0.5728
  246MOL0     C33831   3.554   1.897  10.268  0.6918 -0.1973  0.9054
  246MOL0     C33832   3.572   1.746  10.283 -0.0518 -0.2869 -0.2500
  246MOL0     C33833   3.627   1.708  10.419 -0.1563 -1.0023 -0.5107
  246MOL0     O33834   3.765   1.701  10.438  0.5920 -0.1828 -0.8450
  246MOL0     C33835   3.810   1.601  10.524 -0.2706 -0.0579 -0.3359
  246MOL0     C33836   3.739   1.556  10.636 -0.5868  0.9576 -0.2795
  246MOL0     C33837   3.787   1.458  10.723 -0.2223  0.0451 -0.3622
  246MOL0     C33838   3.702   1.415  10.835 -0.1581 -0.0531  0.5902
  246MOL0     C33839   3.912   1.411  10.708  0.8686  0.1634  0.1286
  246MOL0     C33840   3.974   1.293  10.773  0.2623 -0.5473 -0.3245
  246MOL0     O33841   4.101   1.303  10.830  0.1417  0.0534 -0.1325
  246MOL0     C33842   4.166   1.194  10.881 -0.1754 -0.2909 -0.2726
  246MOL0     C33843   4.183   1.074  10.811 -0.1055  0.6359  0.2147
  246MOL0     C33844   4.230   0.958  10.869 -0.4629  0.1188 -0.1158
  246MOL0     C33845   4.271   0.963  11.008  0.6125 -0.4014  1.0374
  246MOL0     O33846   4.320   0.859  11.083  0.6400  0.1534 -0.7242
  246MOL0     C33847   4.349   0.736  11.021 -0.4189  1.0720  0.2292
  246MOL0     C33848   4.424   0.650  11.124 -0.9057 -0.4860  0.3565
  246MOL0     C33849   4.571   0.697  11.122  0.1303  0.4818  0.4379
  246MOL0     C33850   4.668   0.604  11.202 -0.0843  0.1176  0.2636
  246MOL0     C33851   4.815   0.656  11.195 -0.4100  0.6445 -0.4231
  246MOL0     C33852   4.904   0.567  11.278  0.2094 -0.9210 -0.4350
  246MOL0     C33853   5.044   0.629  11.300  0.2096  0.0714 -0.5974
  246MOL0     C33854   5.109   0.564  11.428 -0.3441 -0.1658 -0.2548
  246MOL0    Cl33855   5.265   0.651  11.451  0.2236 -0.2730 -0.1385
  246MOL0     C33856   4.255   1.083  11.080 -0.3605 -0.5268 -0.6898
  246MOL0     C33857   4.209   1.197  11.020  0.1045  0.0956 -0.3418
  246MOL0     O33858   3.899   1.190  10.768  0.1872 -0.0100 -0.4858
  246MOL0     C33859   3.985   1.454  10.599  0.4777  0.0436 -1.0213
  246MOL0     C33860   3.941   1.554  10.511 -0.7939 -0.2994  0.0024
  246MOL0     N33861   3.396   2.165  10.440  0.7013 -0.3023 -0.2152
  246MOL0     N33862   3.378   2.280  10.402 -0.0386 -0.2877 -0.0548
  246MOL0     C33863   2.311   2.598   9.814  0.5908  0.8229 -0.0576
  246MOL0     C33864   2.187   2.549   9.759  0.1415  0.0163 -0.0213
  246MOL0     C33865   1.770   2.651   9.591  0.3974 -0.4066  0.2598
  246MOL0     C33866   1.743   2.543   9.506  0.0526  0.0743  0.4357
  246MOL0     C33867   1.630   2.535   9.431  0.2522  0.5416  0.4331
  246MOL0     C33868   1.523   2.621   9.453 -1.0106  0.0962  0.3559
  246MOL0     O33869   1.393   2.618   9.400 -0.4441 -0.3260  0.3666
  246MOL0     C33870   1.356   2.518   9.292  0.4235 -0.0679  0.2347
  246MOL0     C33871   1.254   2.425   9.346  0.3472  0.0942  0.0972
  246MOL0     C33872   1.324   2.297   9.412 -0.9363 -0.0722 -0.2433
  246MOL0     C33873   1.214   2.210   9.476 -0.1687 -0.7519  1.5251
  246MOL0     C33874   1.263   2.080   9.510 -0.6369 -1.1141  0.0863
  246MOL0     C33875   1.299   1.972   9.550 -0.1148  0.7302  0.0752
  246MOL0     C33876   1.547   2.726   9.540 -0.2366 -0.0546  0.0554
  246MOL0     C33877   1.671   2.752   9.606  1.0221  0.0038 -0.0312
  246MOL0     C33878   1.691   2.877   9.687  0.1956 -0.0465 -0.2619
  246MOL0     H33879   1.967   2.712   9.959  1.3840 -0.9383  1.5787
  246MOL0     H33880   2.178   2.806  10.041 -2.0575  0.4507 -0.4849
  246MOL0     H33881   2.545   2.781   9.831  0.2280 -2.9077 -2.3802
  246MOL0     H33882   2.564   2.619   9.886 -0.2082 -0.3597  0.7866
  246MOL0     H33883   2.704   2.839   9.962 -0.2914 -1.0291 -1.7849
  246MOL0     H33884   2.591   2.833  10.095 -2.0426 -1.8092 -0.8049
  246MOL0     H33885   2.712   2.682  10.210 -0.2965 -0.8985  0.4268
  246MOL0     H33886   2.657   2.569  10.081  1.1770 -0.0509 -1.7329
  246MOL0     H33887   2.873   2.641   9.954 -1.3838 -2.3023 -0.0187
  246MOL0     H33888   2.919   2.734  10.094  1.2390 -1.4017  1.4539
  246MOL0     H33889   2.865   2.436  10.077 -0.6724  0.1622  0.0676
  246MOL0     H33890   2.878   2.522  10.230 -1.0197 -0.3646  0.1310
  246MOL0     H33891   3.080   2.471  10.008  4.7142  1.0576 -0.2540
  246MOL0     H33892   3.120   2.583  10.134 -1.2899  0.9902 -0.4354
  246MOL0     H33893   3.096   2.290  10.131 -0.0885  0.2025 -0.4329
  246MOL0     H33894   3.050   2.373  10.290 -0.8143  1.0010  0.5973
  246MOL0     H33895   3.306   2.432  10.127 -1.3677  0.2497 -1.2341
  246MOL0     H33896   3.265   2.479  10.295  0.3803 -0.2108  0.1437
  246MOL0     H33897   3.310   2.099  10.136 -1.3690  0.1388 -0.3900
  246MOL0     H33898   3.337   1.886  10.299  0.8142 -1.0753  0.2671
  246MOL0     H33899   3.438   1.922  10.447 -3.1212  2.7046  1.4872
  246MOL0     H33900   3.536   1.919  10.162  1.3353 -0.2781  0.7741
  246MOL0     H33901   3.648   1.948  10.290  1.1821 -0.5240 -0.3193
  246MOL0     H33902   3.475   1.698  10.263  0.9161 -1.6265 -1.9966
  246MOL0     H33903   3.641   1.702  10.211 -0.1860 -2.5936  0.9449
  246MOL0     H33904   3.583   1.775  10.493  1.4432 -1.2619  0.7460
  246MOL0     H33905   3.582   1.611  10.443  1.5870 -1.7728 -0.1825
  246MOL0     H33906   3.636   1.581  10.659 -0.6265 -1.1873  2.3858
  246MOL0     H33907   3.625   1.490  10.851 -0.9117 -0.3406 -1.4037
  246MOL0     H33908   3.756   1.404  10.930 -2.0304 -1.5400  1.5552
  246MOL0     H33909   3.651   1.319  10.817 -1.4669  0.6387  0.5119
  246MOL0     H33910   4.157   1.079  10.706 -2.7042 -1.2663  0.6779
  246MOL0     H33911   4.245   0.862  10.820 -2.8107 -2.0261  2.9128
  246MOL0     H33912   4.252   0.694  10.994 -1.0741  1.9075  1.2266
  246MOL0     H33913   4.403   0.735  10.925  0.2012  1.9169  0.5606
  246MOL0     H33914   4.385   0.657  11.226  1.4710  1.9130  1.2183
  246MOL0     H33915   4.424   0.549  11.084 -0.1200 -0.4315  0.2045
  246MOL0     H33916   4.577   0.795  11.170  0.2314  1.4818 -1.5320
  246MOL0     H33917   4.608   0.702  11.019  1.0858  4.8160  0.7859
  246MOL0     H33918   4.670   0.504  11.157  0.8806  1.2643 -2.4316
  246MOL0     H33919   4.636   0.589  11.306  0.7993  1.1328  0.7086
  246MOL0     H33920   4.847   0.662  11.091  1.3123 -0.5214 -0.0094
  246MOL0     H33921   4.814   0.755  11.242  0.8908 -0.3022  1.7805
  246MOL0     H33922   4.915   0.466  11.238  4.6044  0.5347 -3.6895
  246MOL0     H33923   4.861   0.566  11.379 -2.2606  0.4678 -1.4133
  246MOL0     H33924   5.044   0.736  11.323  0.1012 -0.2306  0.9779
  246MOL0     H33925   5.105   0.604  11.213 -1.5079  0.3657 -1.9365
  246MOL0     H33926   5.124   0.457  11.417  1.5311 -0.2050  1.8198
  246MOL0     H33927   5.052   0.579  11.521  0.1723  2.0356 -0.2200
  246MOL0     H33928   4.273   1.085  11.187  0.1301  3.7218 -0.6644
  246MOL0     H33929   4.187   1.282  11.085  0.2964 -0.2516  0.1830
  246MOL0     H33930   4.080   1.408  10.575  1.3052  0.3603  1.4557
  246MOL0     H33931   4.003   1.587  10.429 -0.9886  1.0907  0.3904
  246MOL0     H33932   2.399   2.552   9.770 -0.6165 -1.2051 -0.4564
  246MOL0     H33933   2.175   2.484   9.673  2.2916  0.7006 -0.8981
  246MOL0     H33934   1.826   2.474   9.494  0.1283  0.0038  1.2635
  246MOL0     H33935   1.612   2.449   9.367  1.1206 -0.3453  1.3555
  246MOL0     H33936   1.307   2.578   9.214 -1.8244 -2.1813 -0.1163
  246MOL0     H33937   1.444   2.469   9.251 -0.0979 -0.6058 -0.2628
  246MOL0     H33938   1.186   2.385   9.270  1.0337 -2.6412  0.8066
  246MOL0     H33939   1.199   2.478   9.424  2.7095  0.4109  1.6599
  246MOL0     H33940   1.368   2.243   9.328  2.2525 -0.8536  1.7360
  246MOL0     H33941   1.403   2.328   9.481 -1.4030 -2.6233  1.6169
  246MOL0     H33942   1.122   2.202   9.418 -0.8618  2.4191  1.9679
  246MOL0     H33943   1.187   2.257   9.571  0.4952  3.2356 -0.0191
  246MOL0     H33944   1.338   1.880   9.588 -2.8936 -1.1711 -1.3775
  246MOL0     H33945   1.456   2.784   9.551 -0.0293  0.2672  0.1000
  246MOL0     H33946   1.751   2.952   9.636 -1.1670  2.1788  1.2480
  246MOL0     H33947   1.593   2.925   9.696  0.4742  1.1204 -2.7543
  246MOL0     H33948   1.730   2.851   9.786  1.5782  5.2223  0.8786
  247MOL0     O33949   4.919  10.501  10.547  0.2578 -0.8682 -0.6732
  247MOL0     C33950   4.805  10.542  10.573  0.2494 -0.3614  1.3923
  247MOL0     O33951   4.759  10.582  10.700 -0.0647  0.6215  0.4436
  247MOL0     C33952   4.840  10.551  10.808 -0.0446  0.9944 -0.1303
  247MOL0     C33953   4.890  10.415  10.824  0.2146 -1.3432 -0.5410
  247MOL0     C33954   4.947  10.383  10.944  0.0478 -0.9509  0.9492
  247MOL0     C33955   4.991  10.487  11.032 -0.1819  0.9493 -0.2103
  247MOL0     O33956   5.080  10.451  11.134 -0.0022  0.0854 -0.6253
  247MOL0     C33957   5.165  10.556  11.180 -0.1975 -0.2879 -0.2120
  247MOL0     C33958   5.256  10.486  11.277 -0.0923  0.2891 -0.4500
  247MOL0     C33959   5.350  10.587  11.341 -0.1333 -0.6348 -0.9723
  247MOL0     C33960   5.405  10.522  11.464 -0.5089 -0.2263 -0.0169
  247MOL0     C33961   5.509  10.603  11.548  0.0550  0.5507 -0.3058
  247MOL0     C33962   5.651  10.561  11.531 -0.3253  0.5053  0.7008
  247MOL0     C33963   5.743  10.616  11.641  0.4517 -0.0092  0.1821
  247MOL0     C33964   5.878  10.554  11.656  0.4572 -0.5138  0.4799
  247MOL0     N33965   5.989  10.634  11.715  0.3102  0.2595  0.9725
  247MOL0     C33966   5.970  10.704  11.829 -0.8518  0.3369 -0.1249
  247MOL0     C33967   6.092  10.773  11.847 -0.0859 -0.3285  0.2964
  247MOL0     C33968   6.137  10.839  11.969 -0.0917  0.4935 -0.2174
  247MOL0     C33969   6.260  10.775  12.027  0.4947 -0.2073 -0.3924
  247MOL0     C33970   6.310  10.816  12.170 -0.5150  0.1213 -0.0337
  247MOL0     C33971   6.386  10.944  12.164  0.4011 -0.1904  0.5543
  247MOL0     O33972   6.451  10.961  12.288 -0.0183 -0.9899 -0.1899
  247MOL0     C33973   6.510  11.084  12.318  0.0142  0.2970  0.7401
  247MOL0     C33974   6.550  11.110  12.450  0.0951  0.0617  0.3880
  247MOL0     C33975   6.637  11.221  12.479  0.6703 -0.1383 -0.4826
  247MOL0     C33976   6.684  11.235  12.622 -0.2635  0.0264  0.2815
  247MOL0     C33977   6.669  11.316  12.376 -0.1626 -0.3584  0.5093
  247MOL0     C33978   6.751  11.446  12.401  0.4544  0.2653 -0.0836
  247MOL0     O33979   6.751  11.534  12.301  0.5820  0.0568 -0.3072
  247MOL0     C33980   6.813  11.655  12.319 -0.7332 -0.0493  0.2399
  247MOL0     C33981   6.740  11.764  12.366 -0.2162 -0.7242  0.1219
  247MOL0     C33982   6.812  11.886  12.396 -0.0522 -0.8067 -0.9275
  247MOL0     C33983   6.943  11.912  12.366 -0.2863 -0.1313 -0.1617
  247MOL0     O33984   6.989  12.033  12.415  0.7666 -0.2684  0.4187
  247MOL0     C33985   7.131  12.039  12.451  0.0984  0.0830  0.1912
  247MOL0     C33986   7.174  12.170  12.517  0.4521  0.0917 -0.7840
  247MOL0     C33987   7.119  12.282  12.443  0.1981  0.4139 -0.7322
  247MOL0     C33988   7.149  12.407  12.517  0.1606  0.8772 -0.0377
  247MOL0     C33989   7.110  12.522  12.430  0.1103 -0.9141  0.6372
  247MOL0     C33990   6.960  12.563  12.420  0.3028  0.2227 -0.0678
  247MOL0     C33991   6.891  12.570  12.554  0.2867 -1.0362  0.1206
  247MOL0     C33992   6.816  12.712  12.572  0.3279  0.5865 -0.1441
  247MOL0    Cl33993   6.947  12.823  12.595 -0.2324 -0.0734  0.1237
  247MOL0     C33994   7.008  11.805  12.301 -0.9526  0.1390 -0.4914
  247MOL0     C33995   6.947  11.676  12.277 -0.0408 -0.6477  0.5570
  247MOL0     O33996   6.801  11.467  12.511  0.3485  0.5392  0.3647
  247MOL0     C33997   6.628  11.285  12.246 -0.1015 -0.0680 -0.0819
  247MOL0     C33998   6.545  11.177  12.218 -0.3804 -0.5941  0.1498
  247MOL0     N33999   6.175  10.728  11.750 -0.2311  0.4430 -0.0062
  247MOL0     N34000   6.110  10.649  11.674  0.4474  0.0732  0.0510
  247MOL0     C34001   4.945  10.614  11.009  0.6573 -0.5100 -0.8056
  247MOL0     C34002   4.860  10.647  10.905 -0.5394  0.6093 -0.1955
  247MOL0     C34003   4.710  10.573  10.464  0.6286  0.8599  0.2481
  247MOL0     C34004   4.593  10.634  10.502 -0.3819  0.5166 -0.3383
  247MOL0     C34005   4.489  10.653  10.418 -0.3414  0.1558  0.1184
  247MOL0     C34006   4.498  10.599  10.283 -0.0233 -0.0760 -0.3473
  247MOL0     O34007   4.407  10.618  10.189  0.2942 -0.4064  0.2134
  247MOL0     C34008   4.303  10.713  10.207  0.4942  0.8457  0.0763
  247MOL0     C34009   4.356  10.857  10.199 -0.1568  0.1303  0.5062
  247MOL0     C34010   4.381  10.914  10.056 -0.1017 -0.3610  0.4784
  247MOL0     C34011   4.528  10.886  10.011  1.1752  0.0591 -0.4847
  247MOL0     C34012   4.537  10.945   9.885 -0.4004 -0.1105 -0.6283
  247MOL0     C34013   4.537  10.965   9.763  0.6770  0.4359  0.2715
  247MOL0     C34014   4.610  10.542  10.237 -0.3562  0.0485  0.0296
  247MOL0     C34015   4.721  10.529  10.326  0.1752  0.2326 -0.3073
  247MOL0     C34016   4.839  10.455  10.274 -0.2652  0.3036 -0.3721
  247MOL0     H34017   4.855  10.343  10.750 -2.4232  0.7574 -1.5255
  247MOL0     H34018   4.969  10.281  10.973 -0.8744 -0.8757  1.9657
  247MOL0     H34019   5.106  10.637  11.225  1.3006  1.7880 -1.7572
  247MOL0     H34020   5.213  10.611  11.099 -1.3258  2.0689  0.6226
  247MOL0     H34021   5.189  10.427  11.339 -1.1930 -2.6198 -4.0498
  247MOL0     H34022   5.320  10.417  11.221 -0.4977 -0.6816  0.2658
  247MOL0     H34023   5.426  10.619  11.269 -0.3430 -1.8656 -1.7586
  247MOL0     H34024   5.312  10.690  11.344  1.5389  0.0386 -1.4115
  247MOL0     H34025   5.323  10.503  11.534 -2.1586  2.2999 -1.1225
  247MOL0     H34026   5.449  10.425  11.438 -0.8439 -0.3823 -0.0039
  247MOL0     H34027   5.484  10.590  11.654  0.4954  2.9718  0.1520
  247MOL0     H34028   5.502  10.711  11.538  1.1297  0.8736  1.8237
  247MOL0     H34029   5.644  10.452  11.524 -1.7428  0.5700  0.7112
  247MOL0     H34030   5.680  10.595  11.432 -2.0905  0.6038  0.1794
  247MOL0     H34031   5.701  10.603  11.741 -1.9505  0.1748 -0.7460
  247MOL0     H34032   5.759  10.722  11.622  0.4634  0.3361  1.9430
  247MOL0     H34033   5.869  10.456  11.705 -1.0871 -0.2264  0.8277
  247MOL0     H34034   5.907  10.535  11.552  0.1359  2.2785 -0.1891
  247MOL0     H34035   5.887  10.705  11.899 -1.9889  0.7124 -1.4439
  247MOL0     H34036   6.056  10.832  12.042  0.3661  1.9601  0.4577
  247MOL0     H34037   6.156  10.945  11.956  2.6320  0.0407 -0.5178
  247MOL0     H34038   6.257  10.666  12.030 -0.3893 -0.1808  0.0889
  247MOL0     H34039   6.343  10.788  11.958  2.0367 -3.2690  0.7082
  247MOL0     H34040   6.231  10.816  12.245  0.7182  3.1104  1.4383
  247MOL0     H34041   6.382  10.739  12.200 -0.6220 -0.2435 -0.6870
  247MOL0     H34042   6.453  10.948  12.078  4.1708 -0.2151  3.2504
  247MOL0     H34043   6.310  11.022  12.149  2.5791  1.3970 -3.8081
  247MOL0     H34044   6.524  11.041  12.529 -0.3667  1.0249  1.0947
  247MOL0     H34045   6.678  11.338  12.658  0.6808  0.1839  0.0161
  247MOL0     H34046   6.789  11.204  12.626 -0.7746 -1.7690  0.7371
  247MOL0     H34047   6.623  11.176  12.692 -2.1563  0.3622 -0.9953
  247MOL0     H34048   6.636  11.743  12.386 -0.3128  0.0851  0.4926
  247MOL0     H34049   6.756  11.964  12.446  0.9163  0.5203 -1.8435
  247MOL0     H34050   7.151  11.961  12.525  0.3577  0.4984  0.5617
  247MOL0     H34051   7.192  12.024  12.361 -1.0646  2.4445 -1.0769
  247MOL0     H34052   7.136  12.181  12.620  0.0542  1.9604 -1.0908
  247MOL0     H34053   7.283  12.169  12.508  0.5126  0.9564 -0.2720
  247MOL0     H34054   7.011  12.287  12.433  0.1782  1.0899 -0.3017
  247MOL0     H34055   7.172  12.283  12.347  1.0125 -1.3029 -0.3486
  247MOL0     H34056   7.256  12.417  12.532  0.6286 -0.5991 -2.0626
  247MOL0     H34057   7.087  12.403  12.608  1.4621 -0.1902  0.8542
  247MOL0     H34058   7.164  12.606  12.476 -0.8280  0.3609 -0.5271
  247MOL0     H34059   7.149  12.524  12.328  1.4453 -1.5930  1.1082
  247MOL0     H34060   6.915  12.489  12.353  0.4187 -1.3211  1.4968
  247MOL0     H34061   6.957  12.654  12.358 -0.8949 -0.9772 -1.8600
  247MOL0     H34062   6.957  12.557  12.640  0.0109  0.4974  0.6067
  247MOL0     H34063   6.817  12.490  12.558  1.1771 -1.8292  1.9547
  247MOL0     H34064   6.750  12.725  12.659  0.4233  2.7397 -0.3541
  247MOL0     H34065   6.748  12.738  12.490 -2.0524 -1.7145  0.9198
  247MOL0     H34066   7.111  11.818  12.270 -1.9492  2.9986 -3.1390
  247MOL0     H34067   7.008  11.598  12.234  2.7082  1.2172  0.8092
  247MOL0     H34068   6.661  11.353  12.168  1.2956 -1.1255 -0.4547
  247MOL0     H34069   6.515  11.158  12.116 -4.6268  0.6976  0.9770
  247MOL0     H34070   4.963  10.700  11.073 -0.3810 -0.6789 -0.2731
  247MOL0     H34071   4.819  10.747  10.912  0.0570  0.9304 -1.1988
  247MOL0     H34072   4.575  10.669  10.603 -1.9946  0.5147 -0.6035
  247MOL0     H34073   4.405  10.702  10.464  0.4363  1.2213  0.4426
  247MOL0     H34074   4.231  10.705  10.125 -3.0258  0.5656  2.9725
  247MOL0     H34075   4.238  10.708  10.294 -0.5664  3.2379 -0.4910
  247MOL0     H34076   4.453  10.864  10.248 -0.6811  0.9530  1.4424
  247MOL0     H34077   4.277  10.920  10.241 -0.7539  0.6136 -1.2462
  247MOL0     H34078   4.308  10.863   9.992  0.0486 -3.3478  2.4776
  247MOL0     H34079   4.358  11.021  10.056 -0.6873 -0.4369  2.7046
  247MOL0     H34080   4.551  10.780  10.001  1.6975  0.0284  0.8096
  247MOL0     H34081   4.594  10.924  10.090  1.6085 -4.3864  1.5828
  247MOL0     H34082   4.544  10.998   9.661 -0.0674 -0.4400 -0.0724
  247MOL0     H34083   4.623  10.503  10.137  2.1342  0.1548  0.2500
  247MOL0     H34084   4.860  10.363  10.329 -1.0434  0.7197  0.6515
  247MOL0     H34085   4.839  10.422  10.170  3.3466  0.3517 -0.5013
  247MOL0     H34086   4.930  10.514  10.287  0.0482  0.0619 -1.3779
  248MOL0     O34087   2.175   7.476   3.243 -0.6746 -0.2598 -0.4528
  248MOL0     C34088   2.129   7.465   3.352 -0.0859  0.6668 -0.1220
  248MOL0     O34089   2.209   7.448   3.466 -0.1554 -0.0479  1.2144
  248MOL0     C34090   2.344   7.467   3.469 -0.0884  0.3827 -0.7593
  248MOL0     C34091   2.422   7.415   3.581 -0.0150 -0.0648 -0.0898
  248MOL0     C34092   2.558   7.429   3.593 -0.3512  0.6103 -0.3587
  248MOL0     C34093   2.637   7.502   3.502  0.3917  0.0157 -0.4061
  248MOL0     O34094   2.769   7.537   3.499  0.6675 -0.8713  0.3646
  248MOL0     C34095   2.798   7.637   3.598  0.0167 -0.0179  0.4961
  248MOL0     C34096   2.946   7.668   3.625  0.4569  0.4868 -0.1854
  248MOL0     C34097   3.020   7.754   3.520 -0.1545 -0.0990 -0.2120
  248MOL0     C34098   2.995   7.904   3.536 -0.2384  0.6267 -0.8791
  248MOL0     C34099   3.072   8.013   3.450  0.3199  0.2034  0.7140
  248MOL0     C34100   3.223   8.001   3.446  0.3372  0.1887 -0.1044
  248MOL0     C34101   3.275   8.091   3.338 -0.2579  0.1888 -0.0531
  248MOL0     C34102   3.436   8.105   3.343  0.4399 -0.7215 -0.2953
  248MOL0     N34103   3.477   8.226   3.273  0.0445 -0.4448 -0.3970
  248MOL0     C34104   3.471   8.350   3.317 -0.1474 -0.5504  0.9045
  248MOL0     C34105   3.515   8.443   3.226  0.2825  0.2399 -0.6534
  248MOL0     C34106   3.518   8.593   3.260 -0.6846  0.1559  0.3965
  248MOL0     C34107   3.619   8.637   3.364  0.3010  1.2607 -0.0340
  248MOL0     C34108   3.595   8.782   3.391 -0.5811 -0.6645 -0.0106
  248MOL0     C34109   3.658   8.875   3.280 -0.3345 -0.1825  0.3619
  248MOL0     O34110   3.798   8.852   3.271 -0.4776  0.4639  0.1829
  248MOL0     C34111   3.882   8.953   3.249  0.0059 -0.8388  0.3387
  248MOL0     C34112   3.858   9.062   3.163 -0.0523  0.8792 -0.2742
  248MOL0     C34113   3.949   9.167   3.149  0.6655 -0.7324  0.0758
  248MOL0     C34114   3.912   9.274   3.052 -0.1137  0.1233 -0.2422
  248MOL0     C34115   4.072   9.150   3.208 -0.0207  0.3759  0.4457
  248MOL0     C34116   4.184   9.248   3.188 -0.3130 -0.2465  0.1950
  248MOL0     O34117   4.306   9.190   3.163 -0.6283  0.0004 -0.2696
  248MOL0     C34118   4.430   9.262   3.171 -0.2258 -0.0615  0.0391
  248MOL0     C34119   4.457   9.384   3.224  0.1311 -0.5132  0.0620
  248MOL0     C34120   4.584   9.434   3.222  0.4338  0.0162 -0.0505
  248MOL0     C34121   4.688   9.363   3.165 -0.1735  0.2312 -0.0349
  248MOL0     O34122   4.815   9.417   3.146 -0.4190 -0.5390 -0.3538
  248MOL0     C34123   4.857   9.540   3.216 -0.9682  0.1057 -0.6875
  248MOL0     C34124   5.003   9.576   3.211  0.2097 -0.0948 -0.1255
  248MOL0     C34125   5.074   9.475   3.294  0.3469  0.2120  0.1044
  248MOL0     C34126   5.228   9.492   3.299  0.4587 -0.2876  0.7775
  248MOL0     C34127   5.298   9.358   3.346 -0.0069  0.4702  0.6769
  248MOL0     C34128   5.277   9.310   3.485 -0.2448  0.2426  0.2021
  248MOL0     C34129   5.356   9.395   3.585  0.8922  0.0344  1.0472
  248MOL0     C34130   5.338   9.340   3.726  0.1892 -0.7352 -0.0080
  248MOL0    Cl34131   5.459   9.424   3.838 -0.1834  0.3250 -0.4148
  248MOL0     C34132   4.671   9.227   3.124 -0.0989 -0.0034  0.1394
  248MOL0     C34133   4.540   9.183   3.128  0.4895  0.4537 -0.2456
  248MOL0     O34134   4.167   9.368   3.185 -0.3319 -0.4889  0.5759
  248MOL0     C34135   4.106   9.030   3.279 -0.1450  0.0393  0.4866
  248MOL0     C34136   4.003   8.933   3.304 -0.2495  0.1826  0.4403
  248MOL0     N34137   3.542   8.365   3.116  0.9392  0.3187 -0.4272
  248MOL0     N34138   3.510   8.241   3.146 -0.8444  0.3685  0.5878
  248MOL0     C34139   2.562   7.568   3.405 -0.0534  0.6611  0.3682
  248MOL0     C34140   2.417   7.545   3.393 -0.4810  0.3303  0.7368
  248MOL0     C34141   1.982   7.479   3.372  0.9912 -0.6698 -0.6261
  248MOL0     C34142   1.932   7.447   3.501 -0.0332 -0.4432 -0.3396
  248MOL0     C34143   1.796   7.470   3.531  0.2010 -0.1049  0.6526
  248MOL0     C34144   1.704   7.500   3.435  0.5540 -0.0550  0.4580
  248MOL0     O34145   1.577   7.481   3.474 -0.1410 -0.3019 -0.3923
  248MOL0     C34146   1.468   7.471   3.387  0.5297 -0.6469 -0.1813
  248MOL0     C34147   1.428   7.614   3.332  0.2498 -0.5123  0.7657
  248MOL0     C34148   1.384   7.711   3.444  0.0158  0.2154 -0.1009
  248MOL0     C34149   1.357   7.846   3.395  0.8837 -0.3339 -0.2319
  248MOL0     C34150   1.229   7.841   3.319  0.0427 -0.3733  0.4293
  248MOL0     C34151   1.135   7.832   3.241 -0.0480 -0.0421  0.5527
  248MOL0     C34152   1.752   7.525   3.306  0.2217  0.1044  0.2603
  248MOL0     C34153   1.883   7.525   3.277 -0.4115 -0.2674  0.1615
  248MOL0     C34154   1.917   7.588   3.145  0.0476  0.3077  1.2411
  248MOL0     H34155   2.372   7.362   3.660 -2.2516  1.3445 -0.4803
  248MOL0     H34156   2.592   7.378   3.683  0.4167 -0.2541 -1.1149
  248MOL0     H34157   2.742   7.615   3.689 -0.1735  0.3484  0.4719
  248MOL0     H34158   2.755   7.730   3.560  0.0065 -0.2025  0.0509
  248MOL0     H34159   2.954   7.713   3.724  0.3571 -0.8829  0.4764
  248MOL0     H34160   3.005   7.575   3.628 -0.9485 -0.4947 -1.3759
  248MOL0     H34161   3.125   7.727   3.531 -0.4803 -1.0203  0.8825
  248MOL0     H34162   2.982   7.739   3.418 -1.8861  3.0480 -0.1494
  248MOL0     H34163   2.888   7.897   3.515 -0.2049 -3.5503 -0.6171
  248MOL0     H34164   3.016   7.937   3.638 -0.2384  2.1727 -1.3577
  248MOL0     H34165   3.052   8.114   3.486 -1.6812  0.2111 -0.3017
  248MOL0     H34166   3.026   8.010   3.351 -0.2922  1.2569  0.9578
  248MOL0     H34167   3.268   8.039   3.538  0.1952  1.6031 -0.5821
  248MOL0     H34168   3.265   7.903   3.422  3.0483  1.7496 -2.3763
  248MOL0     H34169   3.235   8.191   3.360  0.9548  0.1877  2.4558
  248MOL0     H34170   3.247   8.062   3.236  1.4009 -0.2548 -0.4083
  248MOL0     H34171   3.465   8.117   3.447 -2.6427 -0.6508  0.6657
  248MOL0     H34172   3.483   8.022   3.289  2.3525 -0.3348  0.6973
  248MOL0     H34173   3.449   8.389   3.415  0.3882  0.3381  0.6836
  248MOL0     H34174   3.416   8.616   3.292 -0.7602  0.4919 -0.0848
  248MOL0     H34175   3.529   8.646   3.165 -1.0871 -1.7271 -0.7692
  248MOL0     H34176   3.596   8.579   3.455 -0.7275 -0.4164 -1.3108
  248MOL0     H34177   3.723   8.619   3.334  1.0765 -0.9460  3.3490
  248MOL0     H34178   3.487   8.791   3.407 -0.9345 -0.9484 -1.9499
  248MOL0     H34179   3.652   8.808   3.481 -0.2120 -2.7466  0.4012
  248MOL0     H34180   3.635   8.850   3.177  3.3262 -0.2374 -0.5861
  248MOL0     H34181   3.630   8.979   3.301  2.1616  0.8021 -0.7754
  248MOL0     H34182   3.768   9.057   3.102  0.4697 -1.9690 -0.9190
  248MOL0     H34183   3.924   9.375   3.093 -0.0334  0.2756 -0.6433
  248MOL0     H34184   3.807   9.259   3.026 -1.3870  1.5331  3.3828
  248MOL0     H34185   3.982   9.270   2.968 -0.7908  2.4743 -0.9781
  248MOL0     H34186   4.383   9.449   3.272  0.0319 -0.5852  0.0054
  248MOL0     H34187   4.600   9.535   3.258 -2.1303  1.1865 -1.8622
  248MOL0     H34188   4.802   9.621   3.168  0.3814  0.8304 -1.0601
  248MOL0     H34189   4.826   9.541   3.321 -2.3042  0.7339 -1.0696
  248MOL0     H34190   5.043   9.573   3.110  2.3067 -4.0662  0.6244
  248MOL0     H34191   5.008   9.673   3.261 -1.8047 -0.4815  0.9299
  248MOL0     H34192   5.051   9.376   3.255 -0.8880  0.2936  0.5743
  248MOL0     H34193   5.032   9.493   3.393  0.0961  0.4781 -0.0477
  248MOL0     H34194   5.255   9.571   3.371 -1.4850  0.9346  0.2414
  248MOL0     H34195   5.261   9.517   3.198 -0.2243 -2.1981  0.0528
  248MOL0     H34196   5.261   9.279   3.280 -2.3292  1.2853  0.8874
  248MOL0     H34197   5.406   9.372   3.337  0.3620 -1.9871  0.8092
  248MOL0     H34198   5.294   9.202   3.494  1.9441  0.1589 -3.0879
  248MOL0     H34199   5.170   9.322   3.503 -0.6760  3.0032 -3.1943
  248MOL0     H34200   5.312   9.495   3.577 -0.0739 -0.3640  1.1956
  248MOL0     H34201   5.459   9.409   3.552  0.1114  0.8928 -1.2997
  248MOL0     H34202   5.369   9.235   3.723 -0.8552 -1.0438 -2.2730
  248MOL0     H34203   5.234   9.348   3.757  0.3988  0.5011  0.4399
  248MOL0     H34204   4.762   9.179   3.092  0.9113  1.2071  1.0835
  248MOL0     H34205   4.499   9.093   3.083  0.1599  0.7823 -0.6158
  248MOL0     H34206   4.201   9.015   3.330  0.5853 -0.7219 -1.0352
  248MOL0     H34207   4.011   8.850   3.374  2.2377  0.1595  0.2104
  248MOL0     H34208   2.614   7.633   3.336  0.8630  2.4587  2.5964
  248MOL0     H34209   2.366   7.608   3.321 -0.2067  0.3947  0.5982
  248MOL0     H34210   2.006   7.419   3.575 -1.4455 -0.5486  1.0737
  248MOL0     H34211   1.757   7.461   3.632 -1.0188  1.3154  0.3383
  248MOL0     H34212   1.481   7.404   3.302 -1.9051  0.3852 -1.4700
  248MOL0     H34213   1.383   7.432   3.445 -0.9932 -0.1332 -1.9671
  248MOL0     H34214   1.335   7.602   3.276 -0.0811 -0.3177  1.2563
  248MOL0     H34215   1.506   7.661   3.273  0.6051 -1.9312  0.0523
  248MOL0     H34216   1.292   7.673   3.489  1.7700 -2.4253  1.5096
  248MOL0     H34217   1.439   7.710   3.539 -2.8961 -2.4216  1.7603
  248MOL0     H34218   1.438   7.886   3.334  3.7763 -4.9592  0.0741
  248MOL0     H34219   1.322   7.908   3.478  1.6591 -0.7912  0.4566
  248MOL0     H34220   1.049   7.837   3.177 -0.8383  0.8108  1.6462
  248MOL0     H34221   1.676   7.552   3.234 -0.2952  1.4115  1.2610
  248MOL0     H34222   1.847   7.658   3.098 -0.8908 -1.6725 -0.4921
  248MOL0     H34223   2.007   7.645   3.170 -0.5162  0.8898  1.9970
  248MOL0     H34224   1.930   7.512   3.068 -0.6984  0.5630  0.8592
  249MOL0     O34225   9.675   0.310   7.415  0.2537 -0.0560 -1.1190
  249MOL0     C34226   9.657   0.259   7.530  0.5342  0.6798  0.2976
  249MOL0     O34227   9.726   0.148   7.578  0.7223  0.0822  0.3366
  249MOL0     C34228   9.842   0.113   7.513  0.9899 -0.6662  0.4339
  249MOL0     C34229   9.966   0.147   7.570  0.0934  0.4421  0.7763
  249MOL0     C34230  10.091   0.117   7.510  0.0504 -1.4563  1.2712
  249MOL0     C34231  10.098   0.058   7.379  0.6279 -0.3370  0.6115
  249MOL0     O34232  10.215   0.022   7.317  0.2591  0.4003  0.2218
  249MOL0     C34233  10.213   0.039   7.171  0.2928  0.1790  0.5857
  249MOL0     C34234  10.363   0.016   7.129 -0.5579 -0.9045 -0.0158
  249MOL0     C34235  10.408   0.057   6.983 -0.1239 -0.3341 -0.2490
  249MOL0     C34236  10.391   0.206   6.949 -0.0650  0.3003  0.1199
  249MOL0     C34237  10.486   0.263   6.847  0.1903 -0.8126  0.5057
  249MOL0     C34238  10.477   0.195   6.715 -0.0203 -0.3328  0.2411
  249MOL0     C34239  10.604   0.207   6.624  0.6372 -0.3381  0.2760
  249MOL0     C34240  10.585   0.120   6.497 -0.7285 -0.2249 -0.3541
  249MOL0     N34241  10.687   0.163   6.400 -0.1719  0.3808  0.4262
  249MOL0     C34242  10.806   0.104   6.392  0.0146  0.4515  0.1251
  249MOL0     C34243  10.862   0.169   6.287  0.0556 -0.0070 -0.6712
  249MOL0     C34244  10.987   0.147   6.221  0.1411  0.2404  0.0565
  249MOL0     C34245  11.030   0.250   6.109  0.3050  0.7618  0.1925
  249MOL0     C34246  11.162   0.214   6.044  0.5847  0.2903 -0.3319
  249MOL0     C34247  11.181   0.249   5.896  0.1446 -0.7480  0.7406
  249MOL0     O34248  11.311   0.204   5.857  0.1547 -0.0043  0.6935
  249MOL0     C34249  11.385   0.269   5.760 -0.2339 -0.0303 -0.5339
  249MOL0     C34250  11.352   0.390   5.693  0.1203 -0.3172  0.6760
  249MOL0     C34251  11.441   0.449   5.599 -0.9183 -0.0089 -0.0715
  249MOL0     C34252  11.390   0.579   5.536  0.0875 -0.5350 -0.1167
  249MOL0     C34253  11.568   0.386   5.569  0.1130 -0.2856 -0.2947
  249MOL0     C34254  11.679   0.438   5.483 -0.1788  0.1183 -0.1540
  249MOL0     O34255  11.796   0.355   5.475  0.5692 -0.7024 -0.0270
  249MOL0     C34256  11.918   0.400   5.447  1.4293  0.7284 -0.5839
  249MOL0     C34257  11.971   0.530   5.439 -0.2193  0.3437  0.3801
  249MOL0     C34258  12.108   0.554   5.435  0.4751  0.0659 -0.6770
  249MOL0     C34259  12.196   0.441   5.428  0.1654  0.0061  0.6221
  249MOL0     O34260  12.328   0.436   5.412 -0.6087 -0.3471 -0.2693
  249MOL0     C34261  12.402   0.561   5.414 -0.3855  0.9856  0.1306
  249MOL0     C34262  12.538   0.546   5.352 -0.2586  0.2525  0.5295
  249MOL0     C34263  12.620   0.429   5.425 -0.0439  0.1371  0.2355
  249MOL0     C34264  12.762   0.414   5.356  0.0137 -0.1847  0.7095
  249MOL0     C34265  12.850   0.327   5.444 -0.5580 -0.9633 -0.5848
  249MOL0     C34266  12.967   0.268   5.363  0.5200 -0.4467  0.5767
  249MOL0     C34267  13.071   0.183   5.450 -0.8940 -0.0110 -0.4125
  249MOL0     C34268  13.203   0.156   5.378 -0.0808 -0.2864 -0.4285
  249MOL0    Cl34269  13.179   0.058   5.227  0.2343 -0.0470 -0.3564
  249MOL0     C34270  12.137   0.315   5.424  0.1172  0.0179 -0.7285
  249MOL0     C34271  12.002   0.295   5.425 -0.6209 -0.1313 -0.4656
  249MOL0     O34272  11.669   0.553   5.434 -0.0840 -0.2213 -0.1270
  249MOL0     C34273  11.597   0.269   5.646 -0.4055  0.2423  0.0848
  249MOL0     C34274  11.504   0.216   5.742 -0.2305 -0.2209  0.1523
  249MOL0     N34275  10.785   0.279   6.247 -0.5254  0.1579  0.1959
  249MOL0     N34276  10.675   0.262   6.308  0.5848 -0.0621 -0.0051
  249MOL0     C34277   9.970   0.017   7.331  0.8526  0.6805  0.0770
  249MOL0     C34278   9.840   0.047   7.390  0.5165  0.9030  0.6446
  249MOL0     C34279   9.536   0.308   7.602  0.9850  0.5105 -0.4372
  249MOL0     C34280   9.482   0.222   7.704 -0.7381 -0.3272  0.5219
  249MOL0     C34281   9.380   0.270   7.784 -0.3511 -0.3502 -1.0320
  249MOL0     C34282   9.314   0.385   7.763  0.0345 -0.4684 -0.3376
  249MOL0     O34283   9.201   0.431   7.826 -0.2951 -0.8436 -0.1170
  249MOL0     C34284   9.133   0.348   7.913  0.3238  0.5592 -0.4056
  249MOL0     C34285   8.991   0.393   7.916 -0.1791  0.4512  1.4136
  249MOL0     C34286   8.904   0.287   7.983  0.0555  0.3995  0.2560
  249MOL0     C34287   8.804   0.232   7.876 -0.6139  0.6909 -0.2383
  249MOL0     C34288   8.697   0.161   7.954  0.1972  0.3122  0.0063
  249MOL0     C34289   8.623   0.093   8.026 -0.4952  0.3678 -0.5566
  249MOL0     C34290   9.363   0.475   7.668 -0.1031 -0.1888 -0.1342
  249MOL0     C34291   9.475   0.444   7.589 -0.3859  0.0108  0.2061
  249MOL0     C34292   9.525   0.548   7.494  0.1184  0.0229 -0.0310
  249MOL0     H34293   9.969   0.191   7.669  2.0301  1.1758  0.4249
  249MOL0     H34294  10.190   0.133   7.552  0.8566 -0.6928 -0.7560
  249MOL0     H34295  10.181   0.138   7.136  0.2518  0.1494  0.5390
  249MOL0     H34296  10.143  -0.031   7.125  1.8546 -1.3157  0.3912
  249MOL0     H34297  10.419   0.090   7.187 -0.5102 -0.2856 -0.8127
  249MOL0     H34298  10.379  -0.088   7.156 -2.1871 -1.0666  0.4681
  249MOL0     H34299  10.516   0.039   6.977  0.1306  1.3499 -1.8722
  249MOL0     H34300  10.359  -0.007   6.909 -0.4115  0.3869 -0.6966
  249MOL0     H34301  10.288   0.225   6.917 -0.7893 -2.8165  0.2735
  249MOL0     H34302  10.408   0.260   7.043 -1.5296  0.2100  0.4560
  249MOL0     H34303  10.591   0.267   6.878  0.3938  0.0938 -0.2471
  249MOL0     H34304  10.455   0.367   6.830 -2.0653 -1.2906  1.3651
  249MOL0     H34305  10.450   0.089   6.720  3.6341 -1.3589  1.1077
  249MOL0     H34306  10.401   0.253   6.663  1.8637 -2.1073 -5.1861
  249MOL0     H34307  10.702   0.181   6.663  1.8671  1.5853 -1.3492
  249MOL0     H34308  10.602   0.311   6.591  0.4925 -1.3346 -3.3607
  249MOL0     H34309  10.593   0.012   6.512  0.4425 -0.2518 -1.0399
  249MOL0     H34310  10.487   0.138   6.451 -1.2999 -2.4102 -0.0896
  249MOL0     H34311  10.842   0.015   6.442  1.8750  2.5396  2.8606
  249MOL0     H34312  10.988   0.047   6.178 -2.8198 -0.4481  1.2587
  249MOL0     H34313  11.065   0.150   6.298 -0.1205  0.1687  0.3303
  249MOL0     H34314  10.948   0.252   6.036 -0.4153 -1.4894  0.8394
  249MOL0     H34315  11.040   0.345   6.162  2.8563 -0.0626  1.3347
  249MOL0     H34316  11.247   0.266   6.089  0.5065  1.1863 -1.1604
  249MOL0     H34317  11.174   0.107   6.062 -4.4497 -0.1805  2.1246
  249MOL0     H34318  11.109   0.197   5.832 -0.5302  0.6495  0.2994
  249MOL0     H34319  11.161   0.357   5.891 -4.4486 -1.3719  0.6948
  249MOL0     H34320  11.256   0.438   5.709  0.0721 -0.1627 -0.0200
  249MOL0     H34321  11.293   0.615   5.573 -0.2670 -2.2025  0.6631
  249MOL0     H34322  11.383   0.557   5.429  0.7879  0.8121 -0.4612
  249MOL0     H34323  11.457   0.664   5.546  0.5004 -0.4973 -2.5805
  249MOL0     H34324  11.907   0.617   5.449  1.9091  2.3110 -1.8076
  249MOL0     H34325  12.129   0.660   5.442  0.2062  0.0044  3.2604
  249MOL0     H34326  12.352   0.644   5.362  0.4506  0.8719 -0.8997
  249MOL0     H34327  12.419   0.593   5.517  0.4213 -1.8730  0.9816
  249MOL0     H34328  12.523   0.517   5.248 -1.2710 -1.8119  1.1763
  249MOL0     H34329  12.584   0.644   5.360 -0.6009  0.5768 -1.1664
  249MOL0     H34330  12.565   0.334   5.427  1.3532 -0.6911  1.4792
  249MOL0     H34331  12.626   0.466   5.527  0.4466 -1.7949  0.9468
  249MOL0     H34332  12.805   0.514   5.346 -2.0355  0.6308 -0.5522
  249MOL0     H34333  12.752   0.367   5.258 -0.7094  0.3285  0.5323
  249MOL0     H34334  12.892   0.390   5.523 -2.0337 -2.4723  1.5363
  249MOL0     H34335  12.792   0.251   5.496 -0.2018 -1.6520 -1.1728
  249MOL0     H34336  13.035   0.343   5.321  1.7173 -1.4519  0.6625
  249MOL0     H34337  12.930   0.199   5.286  0.4134 -1.9743  1.9469
  249MOL0     H34338  13.027   0.084   5.468 -0.9347  0.0988  0.0942
  249MOL0     H34339  13.094   0.226   5.548  1.3576  1.8644 -1.6630
  249MOL0     H34340  13.278   0.099   5.434 -0.0976 -1.3260 -1.4298
  249MOL0     H34341  13.252   0.250   5.350 -1.7093  0.7458  0.0335
  249MOL0     H34342  12.204   0.230   5.408  0.2981 -0.6674  2.8256
  249MOL0     H34343  11.965   0.193   5.420 -0.3310 -0.3144  0.8876
  249MOL0     H34344  11.692   0.216   5.652 -0.3012  0.3650 -0.4208
  249MOL0     H34345  11.522   0.137   5.814  0.1071 -1.2028 -0.9869
  249MOL0     H34346   9.969  -0.040   7.239  2.1924 -0.4706  0.7393
  249MOL0     H34347   9.744   0.014   7.351  0.8104 -2.6211  2.4660
  249MOL0     H34348   9.518   0.122   7.725  0.8841  0.1996  0.3650
  249MOL0     H34349   9.339   0.191   7.846 -1.2725  1.6390  1.0376
  249MOL0     H34350   9.125   0.248   7.870  2.1425  0.1542  0.1264
  249MOL0     H34351   9.184   0.333   8.008 -0.8820 -2.0174 -0.0780
  249MOL0     H34352   8.961   0.424   7.816 -0.2873  0.2626  1.3873
  249MOL0     H34353   8.990   0.485   7.975 -2.9201  1.7046 -0.4196
  249MOL0     H34354   8.959   0.198   8.015  0.1131  0.8476  1.4698
  249MOL0     H34355   8.848   0.326   8.069 -0.5258  1.0591 -0.4036
  249MOL0     H34356   8.865   0.160   7.821  0.7616  1.3468  0.3668
  249MOL0     H34357   8.768   0.303   7.802 -3.4772 -1.0329 -0.6577
  249MOL0     H34358   8.555   0.029   8.076 -2.6865  0.4784 -3.1494
  249MOL0     H34359   9.313   0.571   7.675 -0.6170 -0.6041  3.0762
  249MOL0     H34360   9.632   0.555   7.517  0.3358 -1.7148 -0.3146
  249MOL0     H34361   9.507   0.524   7.388  1.9721  0.5584 -0.4981
  249MOL0     H34362   9.485   0.649   7.497  0.1324  0.1274 -1.9533
  250MOL0     O34363   8.893   5.800   4.576 -0.0451  0.5973 -0.3248
  250MOL0     C34364   8.834   5.877   4.500  0.2997  0.3722  0.9877
  250MOL0     O34365   8.887   5.992   4.452  0.4204 -0.2569  0.1362
  250MOL0     C34366   9.021   6.012   4.478 -0.2769 -0.3756  0.2308
  250MOL0     C34367   9.054   6.095   4.585 -0.2711  0.1399  0.3592
  250MOL0     C34368   9.183   6.109   4.633  0.6170  0.5071 -0.0844
  250MOL0     C34369   9.283   6.031   4.572  1.0389 -0.1172 -0.6269
  250MOL0     O34370   9.417   6.038   4.605 -0.1734  0.6441  0.5173
  250MOL0     C34371   9.448   6.073   4.738  0.0532 -0.3825 -0.6944
  250MOL0     C34372   9.580   6.021   4.792  0.7386 -0.0297 -0.2747
  250MOL0     C34373   9.696   6.077   4.716  0.3869 -0.7542 -0.3253
  250MOL0     C34374   9.822   6.092   4.794 -0.4387  0.3862  0.1584
  250MOL0     C34375   9.931   6.179   4.719 -0.0066  0.2421 -0.1336
  250MOL0     C34376  10.014   6.096   4.630  0.4742  0.2916 -0.5847
  250MOL0     C34377  10.153   6.136   4.612 -0.8344 -0.1937  0.5631
  250MOL0     C34378  10.161   6.277   4.551 -0.4208  0.0671  0.2146
  250MOL0     N34379  10.303   6.322   4.528  0.2722 -0.1462 -0.1890
  250MOL0     C34380  10.360   6.342   4.409  0.0736  0.7409 -0.2683
  250MOL0     C34381  10.488   6.382   4.436 -0.1720  0.2196  0.6740
  250MOL0     C34382  10.601   6.426   4.351  0.8068 -0.5076 -0.5066
  250MOL0     C34383  10.718   6.478   4.436 -0.0942 -0.2184  0.3234
  250MOL0     C34384  10.831   6.532   4.346 -0.8150 -0.2739 -0.7040
  250MOL0     C34385  10.968   6.551   4.421  0.4349  0.0798 -0.4788
  250MOL0     O34386  11.072   6.549   4.320  0.3903 -0.1282  0.5641
  250MOL0     C34387  11.206   6.563   4.345 -0.0292  0.5719 -0.0760
  250MOL0     C34388  11.301   6.573   4.238  0.3660  0.2990  0.6228
  250MOL0     C34389  11.440   6.593   4.268 -0.4254 -0.0420  0.1640
  250MOL0     C34390  11.543   6.606   4.151 -0.1671  0.0838 -0.0163
  250MOL0     C34391  11.481   6.602   4.401  0.4361  0.3342 -0.7473
  250MOL0     C34392  11.618   6.632   4.445  0.4440  0.2254  0.0714
  250MOL0     O34393  11.655   6.568   4.559  0.4279 -0.1536 -0.0556
  250MOL0     C34394  11.777   6.600   4.612 -0.5207 -0.5412  0.0395
  250MOL0     C34395  11.784   6.669   4.734  0.5170 -0.6033 -0.0945
  250MOL0     C34396  11.907   6.712   4.785 -0.3310  0.6737  0.5090
  250MOL0     C34397  12.027   6.663   4.723  0.5959  0.8604  0.0490
  250MOL0     O34398  12.142   6.680   4.779 -0.3368  0.2521 -0.0533
  250MOL0     C34399  12.171   6.813   4.830 -0.4436 -0.8416 -0.1829
  250MOL0     C34400  12.322   6.805   4.888  0.0872 -0.6667  0.9351
  250MOL0     C34401  12.343   6.916   4.994  0.0493 -0.1521  0.7027
  250MOL0     C34402  12.469   6.892   5.078  0.0695  0.8860 -0.0212
  250MOL0     C34403  12.589   6.906   4.996  0.0567  0.0069  0.9456
  250MOL0     C34404  12.716   6.916   5.070 -0.0230  0.4228  0.7548
  250MOL0     C34405  12.841   6.932   4.977  0.1876  0.5998 -0.3102
  250MOL0     C34406  12.884   7.068   4.923 -0.1061  0.6119 -0.4044
  250MOL0    Cl34407  12.863   7.208   5.036  0.6977  0.7966  0.3247
  250MOL0     C34408  12.018   6.598   4.604 -0.4225 -0.4843 -0.7194
  250MOL0     C34409  11.894   6.566   4.546  0.9315 -0.5271  0.9056
  250MOL0     O34410  11.674   6.733   4.399 -0.0613  0.6860 -0.9332
  250MOL0     C34411  11.385   6.592   4.506  0.2545 -0.2438  0.0590
  250MOL0     C34412  11.249   6.563   4.475  0.3915 -0.9377  0.1168
  250MOL0     N34413  10.498   6.379   4.576 -0.4330  0.2070  0.3139
  250MOL0     N34414  10.386   6.341   4.628  0.2509  0.3814  0.1905
  250MOL0     C34415   9.251   5.951   4.457  0.2541  0.3636  0.6286
  250MOL0     C34416   9.125   5.944   4.411 -0.5703  0.2747 -0.9863
  250MOL0     C34417   8.698   5.849   4.460  0.3098  0.6672 -0.0808
  250MOL0     C34418   8.609   5.790   4.544 -0.2916  0.5566 -0.1330
  250MOL0     C34419   8.476   5.774   4.513 -0.2963 -0.1530 -0.6045
  250MOL0     C34420   8.426   5.814   4.391 -0.5194 -0.3431  0.2960
  250MOL0     O34421   8.291   5.816   4.348 -0.9205 -0.7771  0.5714
  250MOL0     C34422   8.195   5.752   4.432 -0.0430  0.4318 -0.4451
  250MOL0     C34423   8.192   5.604   4.407 -0.3686 -0.0608 -0.5502
  250MOL0     C34424   8.070   5.544   4.482  0.0832 -0.7012  0.5458
  250MOL0     C34425   8.081   5.392   4.472  0.4944  0.3988 -0.2558
  250MOL0     C34426   8.079   5.342   4.337 -0.1975  0.0102  0.0246
  250MOL0     C34427   8.071   5.282   4.237 -0.0281  0.3019  0.2513
  250MOL0     C34428   8.518   5.869   4.300  0.3705  1.0064  0.2509
  250MOL0     C34429   8.658   5.874   4.329  1.2106 -0.0783  0.2329
  250MOL0     C34430   8.760   5.884   4.219 -0.0759 -0.3375  0.4149
  250MOL0     H34431   8.979   6.163   4.625  0.7657  2.7822 -1.8747
  250MOL0     H34432   9.206   6.179   4.712 -0.7835 -1.6341  2.3866
  250MOL0     H34433   9.375   6.048   4.816  0.1807  0.5648 -0.2520
  250MOL0     H34434   9.453   6.182   4.732 -0.3309 -0.3454 -0.3510
  250MOL0     H34435   9.587   6.050   4.897 -0.7866  1.3411 -0.4979
  250MOL0     H34436   9.586   5.913   4.780 -1.7824 -0.2357 -0.2869
  250MOL0     H34437   9.715   6.019   4.625 -1.8070  0.1845 -1.4575
  250MOL0     H34438   9.670   6.176   4.678 -0.7973 -0.4296  1.2206
  250MOL0     H34439   9.810   6.145   4.889  0.2901  2.0537 -0.6394
  250MOL0     H34440   9.858   5.993   4.825  1.1982  1.3143  1.3962
  250MOL0     H34441   9.993   6.220   4.800 -1.4223  1.6596  0.2943
  250MOL0     H34442   9.883   6.255   4.656 -0.8666 -1.6545 -1.8651
  250MOL0     H34443  10.021   6.001   4.683 -1.7751  0.1305 -0.4591
  250MOL0     H34444   9.966   6.078   4.533  0.7736 -2.0299 -0.3476
  250MOL0     H34445  10.215   6.069   4.552  0.3748  0.0880  1.4479
  250MOL0     H34446  10.204   6.132   4.709  0.4470 -1.8127 -0.1251
  250MOL0     H34447  10.103   6.285   4.459 -0.1137  1.9035  0.1404
  250MOL0     H34448  10.116   6.351   4.618  2.9674  1.7886  0.8306
  250MOL0     H34449  10.308   6.334   4.314 -1.1825 -0.7761  0.5070
  250MOL0     H34450  10.578   6.507   4.281  2.7059  0.1978 -0.3723
  250MOL0     H34451  10.635   6.343   4.288  0.6832 -0.1498 -1.0621
  250MOL0     H34452  10.685   6.559   4.502 -0.2957  0.9451 -1.1710
  250MOL0     H34453  10.763   6.406   4.505 -2.6810 -0.4404  1.9369
  250MOL0     H34454  10.849   6.473   4.255 -0.4959  2.6745 -2.6663
  250MOL0     H34455  10.797   6.629   4.309  1.1647  0.6286 -0.2566
  250MOL0     H34456  10.969   6.646   4.476  1.4862 -1.2249  1.9056
  250MOL0     H34457  10.997   6.471   4.490  0.4045 -0.0185 -0.5806
  250MOL0     H34458  11.270   6.566   4.134  0.3316 -3.5063  0.7505
  250MOL0     H34459  11.511   6.670   4.069  1.1152  2.7503  1.4224
  250MOL0     H34460  11.553   6.506   4.108  0.4523 -0.8585  2.1578
  250MOL0     H34461  11.641   6.645   4.182 -1.8972  4.0411  1.0540
  250MOL0     H34462  11.696   6.712   4.780  1.4851 -0.1528  1.3880
  250MOL0     H34463  11.924   6.770   4.875  3.7138  1.0975 -0.3700
  250MOL0     H34464  12.180   6.880   4.743 -0.3793 -1.2910 -0.5272
  250MOL0     H34465  12.102   6.849   4.907 -0.5591 -1.1956 -0.1222
  250MOL0     H34466  12.348   6.711   4.937  0.6307 -0.1371  1.6859
  250MOL0     H34467  12.386   6.832   4.803 -1.2714  0.5060  0.2250
  250MOL0     H34468  12.256   6.900   5.059 -1.2518 -2.2896 -1.3682
  250MOL0     H34469  12.336   7.010   4.939 -1.8461 -0.2976  0.6049
  250MOL0     H34470  12.454   6.792   5.118 -0.3916  0.5995 -0.8819
  250MOL0     H34471  12.475   6.965   5.159 -1.7705 -0.5074  1.4610
  250MOL0     H34472  12.601   6.822   4.926 -0.3221 -0.2306  1.1614
  250MOL0     H34473  12.576   6.996   4.935 -0.6891 -0.0659  0.9872
  250MOL0     H34474  12.726   6.817   5.118  0.5960  0.2968  0.3743
  250MOL0     H34475  12.715   6.996   5.145 -1.4436 -0.0617  1.3038
  250MOL0     H34476  12.839   6.856   4.899 -0.2961  1.1728 -0.8744
  250MOL0     H34477  12.928   6.908   5.039  1.2033  0.8220 -1.6100
  250MOL0     H34478  12.823   7.085   4.833 -1.7227  0.4916  0.6179
  250MOL0     H34479  12.989   7.082   4.896  0.4857  2.9545  2.5790
  250MOL0     H34480  12.117   6.590   4.561 -0.1966  0.0914 -0.3211
  250MOL0     H34481  11.893   6.501   4.459  2.0321  1.9191 -1.0606
  250MOL0     H34482  11.428   6.605   4.605  0.5319 -0.9498  0.0328
  250MOL0     H34483  11.177   6.545   4.554  2.4435 -1.8412  1.8937
  250MOL0     H34484   9.330   5.885   4.422 -0.8001  0.5656 -2.3869
  250MOL0     H34485   9.091   5.871   4.338 -1.5011 -1.6395  1.2238
  250MOL0     H34486   8.641   5.760   4.643 -0.2723 -0.2270 -0.3631
  250MOL0     H34487   8.413   5.727   4.587 -0.8191  0.1294 -0.8652
  250MOL0     H34488   8.209   5.765   4.539  2.3129  2.8546 -0.9461
  250MOL0     H34489   8.097   5.786   4.397 -0.8902 -1.0076  0.4064
  250MOL0     H34490   8.288   5.574   4.451 -1.0713  0.0976  1.1670
  250MOL0     H34491   8.190   5.577   4.301 -1.2472 -0.5416 -0.4221
  250MOL0     H34492   8.077   5.577   4.586 -0.5919  0.8404  0.1373
  250MOL0     H34493   7.976   5.582   4.439  0.5382  1.1579  1.0817
  250MOL0     H34494   7.997   5.345   4.524  0.6516  1.2040  0.7602
  250MOL0     H34495   8.172   5.357   4.521  0.1696 -1.2053 -0.7603
  250MOL0     H34496   8.072   5.235   4.141  1.7795 -0.6667  0.7019
  250MOL0     H34497   8.491   5.883   4.196 -1.4714  2.1322  0.8504
  250MOL0     H34498   8.728   5.836   4.126 -0.7267 -0.2715  0.5981
  250MOL0     H34499   8.780   5.989   4.196  3.9439 -0.8040  0.9760
  250MOL0     H34500   8.861   5.848   4.240  0.7799 -0.9583 -3.8909
  251MOL0     O34501   5.599   7.372   1.955  0.0920  0.1807 -0.1347
  251MOL0     C34502   5.622   7.438   1.856 -0.0015  0.6680 -1.0520
  251MOL0     O34503   5.540   7.534   1.804  0.4301  0.3198  0.0335
  251MOL0     C34504   5.410   7.569   1.837 -0.3337  0.3655 -0.7296
  251MOL0     C34505   5.372   7.700   1.869  0.3392  0.7176  1.1251
  251MOL0     C34506   5.237   7.721   1.911 -0.2198 -0.4251  0.4951
  251MOL0     C34507   5.142   7.620   1.925 -1.4021 -0.2732  0.0989
  251MOL0     O34508   5.012   7.632   1.967  0.6024 -0.1537 -0.1887
  251MOL0     C34509   4.975   7.768   1.999  0.4341 -0.2366 -0.0710
  251MOL0     C34510   4.847   7.778   2.074  1.3792 -0.3496  0.4995
  251MOL0     C34511   4.853   7.737   2.221  0.2675  0.3659 -0.1955
  251MOL0     C34512   4.915   7.848   2.306  0.7917  0.1984 -0.0090
  251MOL0     C34513   4.900   7.815   2.459  0.3450 -0.0497 -0.0623
  251MOL0     C34514   5.017   7.719   2.501 -0.7257 -0.5294 -0.3567
  251MOL0     C34515   5.146   7.808   2.530  0.5457  1.0542  0.5993
  251MOL0     C34516   5.264   7.714   2.533 -0.5837 -0.3423  0.3639
  251MOL0     N34517   5.366   7.777   2.617 -0.1898 -0.8276 -0.3225
  251MOL0     C34518   5.438   7.707   2.718 -0.0021  0.2256 -0.5330
  251MOL0     C34519   5.530   7.801   2.756  0.0222  0.4459  0.4006
  251MOL0     C34520   5.625   7.789   2.866  0.0244  0.1907  0.2481
  251MOL0     C34521   5.631   7.908   2.956 -0.1947  0.0373  0.1489
  251MOL0     C34522   5.749   7.919   3.057  0.0800 -0.8431 -0.4182
  251MOL0     C34523   5.824   7.789   3.107  0.8458  0.0946 -0.2387
  251MOL0     O34524   5.961   7.821   3.136  0.5343  0.0145  0.2414
  251MOL0     C34525   6.008   7.830   3.261 -0.5798  0.0385  0.3118
  251MOL0     C34526   5.925   7.856   3.372 -0.9386  0.8115  0.6537
  251MOL0     C34527   5.990   7.876   3.496 -0.2135  0.8110 -0.7372
  251MOL0     C34528   5.899   7.941   3.596 -0.0251 -0.2990  0.0716
  251MOL0     C34529   6.128   7.844   3.528  0.8929  0.0885  0.4223
  251MOL0     C34530   6.188   7.848   3.664  0.2427  0.2415  0.9130
  251MOL0     O34531   6.301   7.916   3.661 -0.1726  0.7792  0.0230
  251MOL0     C34532   6.366   7.929   3.780  0.3617  0.3361 -0.1883
  251MOL0     C34533   6.311   7.929   3.914 -0.1317  0.4510  0.2645
  251MOL0     C34534   6.396   7.946   4.027  0.5600  0.0165 -0.1052
  251MOL0     C34535   6.533   7.973   4.013 -0.2799  0.3331  0.3473
  251MOL0     O34536   6.608   7.955   4.127  0.0884  0.2682 -0.0414
  251MOL0     C34537   6.723   8.052   4.143  0.0787  0.9392  0.3820
  251MOL0     C34538   6.836   7.994   4.243  0.1258 -0.0105  1.2660
  251MOL0     C34539   6.928   7.886   4.183  0.0213 -0.0478  0.4902
  251MOL0     C34540   6.856   7.752   4.175  0.9097 -0.6663  1.3149
  251MOL0     C34541   6.942   7.646   4.108 -0.4189  0.0482 -0.8619
  251MOL0     C34542   7.066   7.622   4.182  0.3158 -0.5352  0.7841
  251MOL0     C34543   7.128   7.484   4.149  0.2921  0.2887  0.9795
  251MOL0     C34544   7.263   7.460   4.209 -0.7657 -0.1477  0.5635
  251MOL0    Cl34545   7.330   7.306   4.159 -0.2653  0.4222  0.3745
  251MOL0     C34546   6.577   7.973   3.879  0.3106 -0.4604  0.5766
  251MOL0     C34547   6.501   7.952   3.761  0.5268  0.1167 -0.2093
  251MOL0     O34548   6.123   7.804   3.756 -0.4536  0.1445  0.4204
  251MOL0     C34549   6.198   7.800   3.414  0.7692  0.8940  0.4200
  251MOL0     C34550   6.147   7.807   3.278  0.6511  0.0548 -0.0622
  251MOL0     N34551   5.539   7.900   2.666  0.6919 -0.4287 -0.2240
  251MOL0     N34552   5.442   7.883   2.578  0.4894 -0.9941 -0.7402
  251MOL0     C34553   5.181   7.491   1.880 -0.2784 -0.0909  0.6614
  251MOL0     C34554   5.313   7.465   1.853 -0.1129 -0.6135 -0.1674
  251MOL0     C34555   5.767   7.420   1.797  0.7933 -0.2918 -0.1309
  251MOL0     C34556   5.873   7.392   1.877 -0.1376 -0.0412  1.1368
  251MOL0     C34557   6.000   7.377   1.836 -1.0505  1.1629 -0.1017
  251MOL0     C34558   6.037   7.413   1.703  0.2472  0.4756  0.0445
  251MOL0     O34559   6.162   7.413   1.646 -0.0802  0.1714  0.3153
  251MOL0     C34560   6.283   7.409   1.725  0.1730  0.0489  0.3943
  251MOL0     C34561   6.415   7.436   1.649 -0.5943  0.8639  0.1905
  251MOL0     C34562   6.452   7.343   1.537 -1.2184  0.6324  0.6923
  251MOL0     C34563   6.596   7.372   1.469  0.0210  0.2104  0.4471
  251MOL0     C34564   6.632   7.303   1.343  0.3366  0.1373 -0.1184
  251MOL0     C34565   6.658   7.227   1.253 -0.4339  0.5630 -0.2494
  251MOL0     C34566   5.928   7.456   1.616  0.7726 -0.0185 -0.0759
  251MOL0     C34567   5.794   7.450   1.661 -0.0090  0.0304  0.1478
  251MOL0     C34568   5.679   7.481   1.569 -0.1789  0.5603  0.1158
  251MOL0     H34569   5.436   7.785   1.850 -1.5762  2.0637  0.4861
  251MOL0     H34570   5.226   7.822   1.951 -2.6132  0.2255 -1.5706
  251MOL0     H34571   4.964   7.831   1.911  0.7397  1.6296  1.1590
  251MOL0     H34572   5.052   7.822   2.055  1.0063 -0.3187 -0.7768
  251MOL0     H34573   4.808   7.879   2.059  2.3498 -0.1367 -0.7716
  251MOL0     H34574   4.782   7.709   2.021 -0.0085  1.2280  0.0676
  251MOL0     H34575   4.752   7.721   2.260 -0.2022  1.7629 -0.7598
  251MOL0     H34576   4.909   7.643   2.224 -1.5403 -0.7258  1.1847
  251MOL0     H34577   5.017   7.870   2.273  0.5724 -1.0254 -1.6145
  251MOL0     H34578   4.851   7.934   2.286  2.6429  1.4847 -0.7109
  251MOL0     H34579   4.800   7.776   2.477 -0.3449  1.3352 -0.6741
  251MOL0     H34580   4.913   7.901   2.526  0.6483 -1.6270  1.9877
  251MOL0     H34581   4.997   7.661   2.591 -1.7537  0.8772  0.3628
  251MOL0     H34582   5.045   7.649   2.421 -0.3540 -0.2686 -0.4557
  251MOL0     H34583   5.128   7.866   2.620 -0.2710  1.1419  0.3861
  251MOL0     H34584   5.166   7.879   2.450 -1.1679  2.1725  1.1120
  251MOL0     H34585   5.227   7.619   2.573  0.0001  0.1051  2.0752
  251MOL0     H34586   5.295   7.695   2.430  0.2805 -0.2209  0.5921
  251MOL0     H34587   5.410   7.618   2.774 -0.0655  1.0448  0.7822
  251MOL0     H34588   5.723   7.789   2.817  0.5206 -1.6736  1.1563
  251MOL0     H34589   5.604   7.696   2.920  0.1045 -0.1074 -0.2298
  251MOL0     H34590   5.645   7.997   2.893 -2.8947 -0.2407 -0.9394
  251MOL0     H34591   5.542   7.914   3.019 -1.1239  0.7219 -1.1954
  251MOL0     H34592   5.823   7.979   3.004 -0.1196 -1.1994 -1.1045
  251MOL0     H34593   5.706   7.979   3.138 -2.0752 -2.7161 -0.0602
  251MOL0     H34594   5.775   7.740   3.192  2.1638 -0.4252  0.2388
  251MOL0     H34595   5.827   7.719   3.023 -2.2472 -1.5581  0.8663
  251MOL0     H34596   5.820   7.881   3.362 -0.3850  3.6251  0.9063
  251MOL0     H34597   5.848   7.864   3.653 -1.6954 -1.4102 -2.7438
  251MOL0     H34598   5.830   7.998   3.533  1.5073 -1.9443 -3.3894
  251MOL0     H34599   5.948   8.007   3.669  1.4968 -3.0259  1.6550
  251MOL0     H34600   6.209   7.906   3.940  0.3927 -2.3485  0.0979
  251MOL0     H34601   6.352   7.959   4.125 -2.5080  1.4309 -1.5191
  251MOL0     H34602   6.776   8.052   4.047 -0.0135 -4.7002 -0.0340
  251MOL0     H34603   6.690   8.148   4.184 -1.2784  0.0150  1.5887
  251MOL0     H34604   6.895   8.084   4.264  1.6798 -0.4689 -0.8072
  251MOL0     H34605   6.792   7.953   4.335  1.3629 -3.3839  0.5313
  251MOL0     H34606   7.013   7.869   4.250  1.9098  0.2843 -1.6638
  251MOL0     H34607   6.975   7.921   4.090  3.1368  2.8047  2.8853
  251MOL0     H34608   6.782   7.781   4.101  3.2371  0.7935 -0.5843
  251MOL0     H34609   6.812   7.716   4.269  1.6044 -0.7589  1.6107
  251MOL0     H34610   6.887   7.552   4.101  1.7098 -1.4836  1.4981
  251MOL0     H34611   6.961   7.674   4.004 -1.8744 -1.4526 -1.5736
  251MOL0     H34612   7.056   7.626   4.290 -0.2168 -2.7286  0.8599
  251MOL0     H34613   7.136   7.700   4.150 -1.3442 -0.0157 -1.9847
  251MOL0     H34614   7.135   7.477   4.040 -1.5958  0.3205  0.8241
  251MOL0     H34615   7.061   7.407   4.189  1.2826 -0.2690  1.6251
  251MOL0     H34616   7.259   7.461   4.318  2.0869 -1.3667  0.7627
  251MOL0     H34617   7.329   7.541   4.176 -1.0485 -0.2641 -0.3244
  251MOL0     H34618   6.685   7.966   3.873  0.2389 -0.2311 -1.5213
  251MOL0     H34619   6.552   7.948   3.665 -0.4206  2.3487 -0.8509
  251MOL0     H34620   6.301   7.767   3.411 -0.1584 -2.3666  1.2203
  251MOL0     H34621   6.212   7.790   3.194 -2.2923 -0.3958 -2.4041
  251MOL0     H34622   5.106   7.413   1.885 -0.1453 -0.1533  2.0535
  251MOL0     H34623   5.338   7.360   1.850 -2.1113 -1.1431 -0.0795
  251MOL0     H34624   5.857   7.381   1.984  0.8427  1.0283  1.4197
  251MOL0     H34625   6.086   7.331   1.883 -1.3958 -0.4511 -0.9530
  251MOL0     H34626   6.268   7.474   1.811  0.0715  0.2495  0.2274
  251MOL0     H34627   6.295   7.308   1.765  0.3776  0.0587  0.3580
  251MOL0     H34628   6.486   7.429   1.731 -0.7958 -0.4983  0.2616
  251MOL0     H34629   6.401   7.538   1.611  0.0877  0.6866 -0.5452
  251MOL0     H34630   6.468   7.249   1.590  0.7804 -0.2670 -1.3193
  251MOL0     H34631   6.375   7.341   1.460  1.8789 -0.0021 -2.6914
  251MOL0     H34632   6.668   7.336   1.544 -1.0654  0.3251  1.5907
  251MOL0     H34633   6.606   7.479   1.450 -0.0247  0.1268 -0.0596
  251MOL0     H34634   6.695   7.156   1.182  0.4892  1.6664 -0.8994
  251MOL0     H34635   5.958   7.498   1.521 -0.8149  0.3387 -0.4408
  251MOL0     H34636   5.715   7.459   1.468 -1.7716 -0.7605 -0.2081
  251MOL0     H34637   5.592   7.415   1.579 -1.7006  2.0862 -2.0641
  251MOL0     H34638   5.655   7.588   1.579  1.3060  0.8606  0.6263
  252MOL0     O34639   1.616   1.251   2.638  0.6450 -0.5404 -0.0800
  252MOL0     C34640   1.645   1.142   2.591 -0.1425 -0.0338 -0.7152
  252MOL0     O34641   1.550   1.062   2.534 -0.4860 -0.0548 -0.0385
  252MOL0     C34642   1.425   1.121   2.505 -0.7224  0.0115 -0.4558
  252MOL0     C34643   1.407   1.206   2.396  0.3297 -0.3556  0.3046
  252MOL0     C34644   1.274   1.253   2.367  0.1621 -0.6221 -0.2947
  252MOL0     C34645   1.168   1.225   2.449  1.0413 -0.2131  0.2783
  252MOL0     O34646   1.038   1.280   2.434 -0.4561 -0.2991  0.3498
  252MOL0     C34647   1.000   1.309   2.301  0.1533 -0.1844 -0.1734
  252MOL0     C34648   1.016   1.460   2.269 -0.3689 -0.0510 -0.6392
  252MOL0     C34649   0.895   1.534   2.317  0.3160 -0.7738 -0.0227
  252MOL0     C34650   0.921   1.683   2.309  0.6137  0.1752 -0.0433
  252MOL0     C34651   0.910   1.721   2.157 -0.0884  0.2323  0.3676
  252MOL0     C34652   0.915   1.869   2.140  0.3087 -0.1090  0.1832
  252MOL0     C34653   1.043   1.939   2.188 -0.0576 -0.2828  0.0125
  252MOL0     C34654   1.168   1.894   2.114 -0.3161  0.1785  0.1171
  252MOL0     N34655   1.285   1.970   2.152  1.2553 -0.1119  0.6219
  252MOL0     C34656   1.317   2.015   2.281  0.2352 -0.2669  0.3180
  252MOL0     C34657   1.445   2.068   2.268  0.0498  0.0741  1.4040
  252MOL0     C34658   1.528   2.139   2.371  0.7391  0.3040 -0.2879
  252MOL0     C34659   1.570   2.278   2.329  0.9646  0.0945 -0.2100
  252MOL0     C34660   1.653   2.341   2.445 -0.4425 -0.6091  0.2026
  252MOL0     C34661   1.728   2.461   2.394 -0.3483 -0.0374 -0.3525
  252MOL0     O34662   1.795   2.522   2.510  0.6023 -0.1091  0.5040
  252MOL0     C34663   1.903   2.609   2.483 -0.2562  0.1067  0.9973
  252MOL0     C34664   1.913   2.683   2.362  0.5516  0.1095 -0.3165
  252MOL0     C34665   2.005   2.789   2.349  0.0033  0.8283  0.5635
  252MOL0     C34666   1.983   2.879   2.233  0.7361  0.0371  0.0534
  252MOL0     C34667   2.097   2.820   2.459 -0.7750  0.3090  0.4985
  252MOL0     C34668   2.193   2.937   2.457 -0.0111  0.3059 -0.9070
  252MOL0     O34669   2.238   2.973   2.583 -0.5817 -0.2867  0.6144
  252MOL0     C34670   2.320   3.087   2.577  0.1968  0.8278 -0.1679
  252MOL0     C34671   2.452   3.081   2.530  0.0874 -0.3360  0.0653
  252MOL0     C34672   2.530   3.200   2.549 -0.2762  0.4710  0.0971
  252MOL0     C34673   2.487   3.318   2.616  0.2083  0.1101 -0.2813
  252MOL0     O34674   2.565   3.427   2.615 -0.8909 -0.9147  0.3695
  252MOL0     C34675   2.502   3.562   2.615 -0.9214  0.3525  0.3299
  252MOL0     C34676   2.614   3.652   2.650  0.2690 -0.4909 -0.5876
  252MOL0     C34677   2.562   3.804   2.654  0.0461 -0.0531 -0.5416
  252MOL0     C34678   2.667   3.901   2.705 -0.0269  0.5986 -0.0997
  252MOL0     C34679   2.610   4.042   2.732 -0.5882 -0.0657  0.1691
  252MOL0     C34680   2.522   4.075   2.853 -0.1577  0.4060 -0.9917
  252MOL0     C34681   2.605   4.042   2.986  0.6467 -0.4783  0.4281
  252MOL0     C34682   2.569   4.120   3.104 -0.1456  0.1395  0.3778
  252MOL0    Cl34683   2.611   4.037   3.257  0.1764 -0.3010 -0.4042
  252MOL0     C34684   2.357   3.321   2.660  0.9137  0.2801 -0.1647
  252MOL0     C34685   2.277   3.199   2.651  0.3052 -0.7416  0.6663
  252MOL0     O34686   2.224   2.988   2.352 -0.1060 -0.9176 -0.3694
  252MOL0     C34687   2.087   2.742   2.572 -0.3901 -0.0180  1.3208
  252MOL0     C34688   1.997   2.644   2.585 -0.4093  0.0854  0.8992
  252MOL0     N34689   1.481   2.050   2.130 -0.4715 -0.4890 -0.1072
  252MOL0     N34690   1.382   2.001   2.065 -0.3498 -0.1956 -0.3258
  252MOL0     C34691   1.185   1.142   2.566 -0.1168 -0.8265 -0.1142
  252MOL0     C34692   1.315   1.091   2.588 -1.3715  0.3746  0.7329
  252MOL0     C34693   1.784   1.095   2.584 -0.4252 -0.0626 -0.9102
  252MOL0     C34694   1.815   0.973   2.640  0.0443 -0.0013 -0.2365
  252MOL0     C34695   1.944   0.926   2.629  0.5558 -0.0711  0.2661
  252MOL0     C34696   2.053   1.010   2.587 -0.2540 -0.3382  0.3118
  252MOL0     O34697   2.187   0.980   2.599 -0.2258 -0.0636 -0.2041
  252MOL0     C34698   2.223   0.847   2.657 -0.1064 -0.6461  0.1563
  252MOL0     C34699   2.362   0.855   2.711  0.1324 -0.2291 -0.1583
  252MOL0     C34700   2.375   0.946   2.832 -1.2779 -0.2407 -0.7916
  252MOL0     C34701   2.516   0.942   2.883  0.0235 -0.8586 -0.0574
  252MOL0     C34702   2.610   1.016   2.794 -0.7264 -0.2780  0.4582
  252MOL0     C34703   2.694   1.057   2.725  0.1191 -0.5213  0.2208
  252MOL0     C34704   2.020   1.136   2.544  0.3198  0.0975 -0.3527
  252MOL0     C34705   1.890   1.188   2.544 -1.2828 -0.3648  0.1798
  252MOL0     C34706   1.866   1.322   2.481 -0.0445  0.2492  0.2505
  252MOL0     H34707   1.481   1.238   2.323 -0.7735 -1.3333 -1.2922
  252MOL0     H34708   1.272   1.318   2.280  0.2955  1.8446  1.4448
  252MOL0     H34709   0.895   1.279   2.310  0.9868 -2.5556  5.3138
  252MOL0     H34710   1.036   1.242   2.222 -1.3306 -1.4433  0.1727
  252MOL0     H34711   1.109   1.502   2.307 -0.8795  0.7643 -0.2528
  252MOL0     H34712   1.011   1.459   2.160 -1.4301  0.8899 -0.6229
  252MOL0     H34713   0.813   1.506   2.251 -2.0268 -1.0039  2.7770
  252MOL0     H34714   0.864   1.519   2.421  0.8727  0.1622  0.2872
  252MOL0     H34715   0.859   1.750   2.368  0.6515 -0.2404  0.4730
  252MOL0     H34716   1.021   1.699   2.349  2.2553 -2.3202 -2.6994
  252MOL0     H34717   0.809   1.697   2.123  0.7422  1.9658 -3.9674
  252MOL0     H34718   0.983   1.679   2.088 -2.1856  1.7450 -3.0196
  252MOL0     H34719   0.895   1.907   2.039  1.6541  1.7750  0.5640
  252MOL0     H34720   0.830   1.910   2.195 -0.9502 -1.8428 -0.3763
  252MOL0     H34721   1.050   1.933   2.297 -0.9847  2.0104  0.2644
  252MOL0     H34722   1.034   2.044   2.158 -0.5285 -0.1711  0.5296
  252MOL0     H34723   1.198   1.789   2.122 -0.2431 -0.2418 -3.6621
  252MOL0     H34724   1.144   1.893   2.007 -3.5744 -0.8956  0.7524
  252MOL0     H34725   1.267   2.000   2.376  1.4058  2.9686  1.5661
  252MOL0     H34726   1.615   2.073   2.367 -2.1710 -3.8649 -3.0208
  252MOL0     H34727   1.461   2.144   2.458 -0.5887 -0.2848 -1.2481
  252MOL0     H34728   1.638   2.271   2.245 -0.4492  2.0312 -1.6302
  252MOL0     H34729   1.481   2.338   2.304  0.8664  0.5078  1.0294
  252MOL0     H34730   1.578   2.363   2.521 -0.6402  0.1831 -0.2100
  252MOL0     H34731   1.727   2.265   2.472  1.2777  1.8261  3.0633
  252MOL0     H34732   1.791   2.434   2.309 -1.3487  0.0486 -1.1291
  252MOL0     H34733   1.658   2.536   2.356  1.1865  0.7540 -1.7139
  252MOL0     H34734   1.842   2.665   2.283  0.2796 -1.0501  0.1742
  252MOL0     H34735   1.898   2.846   2.172  2.8670  0.6014 -3.5101
  252MOL0     H34736   2.076   2.877   2.176  0.8723 -0.5931  0.2930
  252MOL0     H34737   1.963   2.980   2.271  2.0155  1.4509 -2.7492
  252MOL0     H34738   2.491   2.993   2.480 -2.1748 -0.1386 -2.2625
  252MOL0     H34739   2.633   3.206   2.518 -0.0734 -1.3825  0.2757
  252MOL0     H34740   2.443   3.579   2.524 -2.8166  1.2774  1.6647
  252MOL0     H34741   2.428   3.560   2.696 -0.8129  0.1641  0.4239
  252MOL0     H34742   2.663   3.617   2.741 -0.2350 -0.8660 -0.4525
  252MOL0     H34743   2.683   3.648   2.565 -1.9202 -1.0360 -2.4618
  252MOL0     H34744   2.475   3.802   2.720  0.3387  0.0470 -0.1467
  252MOL0     H34745   2.528   3.837   2.556  0.8827  2.4640 -0.0484
  252MOL0     H34746   2.743   3.897   2.626  0.0687  0.9965 -0.0281
  252MOL0     H34747   2.708   3.865   2.799  1.6178 -3.3939 -2.0866
  252MOL0     H34748   2.700   4.102   2.747  0.0936 -1.5213  2.4925
  252MOL0     H34749   2.557   4.078   2.643  1.2062 -0.8285 -1.2602
  252MOL0     H34750   2.437   4.007   2.852  1.7681 -2.2262  0.5295
  252MOL0     H34751   2.483   4.177   2.863  0.1040  0.4699 -0.6085
  252MOL0     H34752   2.711   4.068   2.975  0.5078 -0.5026 -1.2214
  252MOL0     H34753   2.596   3.934   3.000  1.6141 -0.7307 -0.7406
  252MOL0     H34754   2.461   4.138   3.105 -0.4713 -1.1849 -2.4555
  252MOL0     H34755   2.616   4.218   3.096 -0.9406  0.4711 -0.2970
  252MOL0     H34756   2.305   3.403   2.708  1.0748 -0.4294  1.2770
  252MOL0     H34757   2.180   3.199   2.700 -0.5745 -0.6876 -1.0122
  252MOL0     H34758   2.149   2.763   2.658 -0.3119  0.2030  1.2110
  252MOL0     H34759   1.980   2.587   2.676 -2.0125 -0.9179  0.0284
  252MOL0     H34760   1.105   1.117   2.634  0.8524 -2.6145  0.4389
  252MOL0     H34761   1.334   1.035   2.679 -0.8598  1.6593  1.4378
  252MOL0     H34762   1.742   0.905   2.682  0.5717 -0.1074  0.5179
  252MOL0     H34763   1.952   0.824   2.667 -3.6677 -0.3828  0.7969
  252MOL0     H34764   2.157   0.801   2.731  0.6863  0.1050  1.3794
  252MOL0     H34765   2.221   0.778   2.573  0.1384  0.6249 -0.9247
  252MOL0     H34766   2.427   0.883   2.628 -1.3640 -2.3797 -2.1747
  252MOL0     H34767   2.401   0.758   2.741  0.6850  0.1650  0.4335
  252MOL0     H34768   2.355   1.049   2.799 -1.1689  0.0676  0.0876
  252MOL0     H34769   2.298   0.923   2.906  0.3050 -0.1118  0.9811
  252MOL0     H34770   2.562   0.843   2.896  1.6956 -0.6135 -3.0607
  252MOL0     H34771   2.514   1.007   2.971  2.1298  2.2194 -2.0540
  252MOL0     H34772   2.763   1.103   2.657 -2.5370  3.0634 -0.3175
  252MOL0     H34773   2.109   1.193   2.518  0.0790  0.4628 -0.3724
  252MOL0     H34774   1.781   1.320   2.412 -1.7923  0.6903  2.2970
  252MOL0     H34775   1.848   1.390   2.564 -0.5256 -1.2690  1.4434
  252MOL0     H34776   1.952   1.360   2.425 -2.1159  1.9042 -2.0290
  253MOL0     O34777   7.174   3.043   8.337  0.4581 -0.5373  0.7744
  253MOL0     C34778   7.113   3.143   8.290  0.1027 -0.3433 -0.4781
  253MOL0     O34779   7.173   3.233   8.198 -0.1555 -0.1853 -0.6544
  253MOL0     C34780   7.307   3.211   8.179 -0.3234 -0.2268  0.6369
  253MOL0     C34781   7.358   3.100   8.115 -1.1122 -0.0844 -0.6366
  253MOL0     C34782   7.499   3.072   8.102  0.3745  0.3156  0.4101
  253MOL0     C34783   7.586   3.174   8.134  0.5669 -0.1614 -0.3041
  253MOL0     O34784   7.724   3.142   8.126 -0.0446  0.4381 -0.6175
  253MOL0     C34785   7.822   3.239   8.181 -0.3276 -0.2598  0.8565
  253MOL0     C34786   7.966   3.184   8.155 -0.4581 -0.5893  0.1146
  253MOL0     C34787   8.061   3.311   8.134  0.1242  0.2709  0.0600
  253MOL0     C34788   8.198   3.278   8.076  0.2612  0.0040 -0.3774
  253MOL0     C34789   8.263   3.406   8.019 -0.5510  0.2550 -0.2908
  253MOL0     C34790   8.397   3.375   7.956  0.6358 -0.0764  0.2029
  253MOL0     C34791   8.445   3.495   7.871 -0.3470 -0.1853 -0.4201
  253MOL0     C34792   8.459   3.629   7.943  0.5618 -0.4274  0.6265
  253MOL0     N34793   8.576   3.698   7.893 -0.3159  0.4334  0.2072
  253MOL0     C34794   8.699   3.726   7.958 -0.1941  0.6669  0.2868
  253MOL0     C34795   8.773   3.791   7.869 -0.6734  0.3313  0.8661
  253MOL0     C34796   8.911   3.830   7.903 -0.4843 -0.9475  0.2854
  253MOL0     C34797   8.951   3.961   7.821 -0.2452 -0.0698  0.2406
  253MOL0     C34798   9.021   3.932   7.680 -0.4184  0.5961 -0.9823
  253MOL0     C34799   9.175   3.919   7.710 -0.1894  0.2544  0.9629
  253MOL0     O34800   9.239   3.852   7.614 -0.4104  0.6771 -0.5253
  253MOL0     C34801   9.376   3.867   7.598  0.0342 -0.1178 -1.0408
  253MOL0     C34802   9.437   3.979   7.537  0.7778  0.8905 -0.5124
  253MOL0     C34803   9.578   3.984   7.528  0.5727 -0.3666  1.0129
  253MOL0     C34804   9.649   4.112   7.472 -0.2716  0.3777 -0.2866
  253MOL0     C34805   9.659   3.879   7.572 -0.6277 -0.1103 -0.0957
  253MOL0     C34806   9.809   3.865   7.557  0.2181  0.4664  0.6645
  253MOL0     O34807   9.866   3.785   7.648 -0.3218 -0.2552 -0.3992
  253MOL0     C34808  10.003   3.768   7.647 -0.1593 -0.2868  0.2209
  253MOL0     C34809  10.078   3.878   7.676  0.1519 -1.0151 -0.5870
  253MOL0     C34810  10.217   3.875   7.668 -0.5478 -0.0278 -1.1290
  253MOL0     C34811  10.279   3.755   7.635  0.2393  0.3505  0.4582
  253MOL0     O34812  10.415   3.747   7.649  0.2813 -0.1783 -0.1758
  253MOL0     C34813  10.489   3.866   7.595 -0.0489 -0.1613  0.1366
  253MOL0     C34814  10.635   3.841   7.563 -0.7570  0.3276  0.3033
  253MOL0     C34815  10.739   3.967   7.584  0.8772 -0.0575 -0.1057
  253MOL0     C34816  10.886   3.908   7.584  0.0847 -0.0146 -0.1535
  253MOL0     C34817  10.936   3.878   7.446  0.6468  0.2555  0.4086
  253MOL0     C34818  11.089   3.872   7.432  1.4039 -0.7348  1.6978
  253MOL0     C34819  11.148   3.772   7.532  0.3706  0.2732 -0.4911
  253MOL0     C34820  11.300   3.762   7.509 -0.7076  0.6284 -0.6848
  253MOL0    Cl34821  11.392   3.886   7.587  0.1632 -0.3363 -0.1602
  253MOL0     C34822  10.209   3.648   7.598  0.0452  0.4589  0.2828
  253MOL0     C34823  10.068   3.659   7.599  0.2454  0.2707 -0.8524
  253MOL0     O34824   9.869   3.932   7.482 -0.3420  0.0828 -0.4872
  253MOL0     C34825   9.590   3.769   7.634 -0.0694  0.2840  0.3727
  253MOL0     C34826   9.456   3.762   7.645 -0.6264 -0.1097  0.1298
  253MOL0     N34827   8.690   3.818   7.756 -0.4766 -0.3669 -0.4181
  253MOL0     N34828   8.579   3.751   7.761 -0.0476  0.2027  0.2635
  253MOL0     C34829   7.544   3.286   8.204 -0.1048  0.6391  0.7803
  253MOL0     C34830   7.401   3.309   8.221 -0.3115 -0.0759  0.7156
  253MOL0     C34831   7.000   3.188   8.379  0.3400 -0.4135 -0.8197
  253MOL0     C34832   6.966   3.326   8.373 -0.0338 -0.7189 -0.1658
  253MOL0     C34833   6.865   3.381   8.435  0.9694 -0.6513 -0.2068
  253MOL0     C34834   6.778   3.306   8.511 -0.3126 -0.1442 -0.6167
  253MOL0     O34835   6.665   3.365   8.571  0.1744  0.0580 -0.3656
  253MOL0     C34836   6.539   3.305   8.576 -0.4541  0.0045 -0.5710
  253MOL0     C34837   6.474   3.283   8.434 -0.0190 -0.2950  0.0361
  253MOL0     C34838   6.458   3.400   8.340 -0.5590 -0.0266 -0.0367
  253MOL0     C34839   6.364   3.502   8.386  0.1043 -1.3323 -0.0175
  253MOL0     C34840   6.235   3.449   8.401 -0.1957  0.3030 -0.3867
  253MOL0     C34841   6.131   3.394   8.436 -0.3443 -0.6610 -0.6132
  253MOL0     C34842   6.809   3.165   8.526 -0.2972 -0.0633 -0.0164
  253MOL0     C34843   6.921   3.106   8.461 -0.0888  0.3190 -0.3670
  253MOL0     C34844   6.933   2.953   8.475 -0.9866 -0.0475  0.3084
  253MOL0     H34845   7.288   3.025   8.081 -0.9099 -1.0322  0.9513
  253MOL0     H34846   7.536   2.983   8.052 -2.5770 -1.9987  2.0035
  253MOL0     H34847   7.811   3.259   8.288 -0.3447 -0.5976  0.9187
  253MOL0     H34848   7.796   3.331   8.129  1.1327 -0.4567 -0.2993
  253MOL0     H34849   8.008   3.115   8.228  0.6190  0.4415  0.4886
  253MOL0     H34850   7.972   3.144   8.053  1.1066 -0.2498  0.0489
  253MOL0     H34851   8.008   3.387   8.076 -2.8671  0.8558  3.2068
  253MOL0     H34852   8.072   3.367   8.227  1.9435  0.1545 -0.0517
  253MOL0     H34853   8.260   3.232   8.153 -2.2530  0.0061  1.7654
  253MOL0     H34854   8.182   3.206   7.995 -1.6848  0.8069 -0.7588
  253MOL0     H34855   8.271   3.480   8.099 -1.0464 -0.9299  0.8894
  253MOL0     H34856   8.198   3.452   7.943  3.3697  1.4790 -3.2360
  253MOL0     H34857   8.464   3.353   8.039 -2.9048 -3.1069  2.5673
  253MOL0     H34858   8.393   3.282   7.898 -0.5934 -0.3462  0.6972
  253MOL0     H34859   8.371   3.486   7.791 -0.4254 -3.6314 -0.0946
  253MOL0     H34860   8.541   3.475   7.822  0.7467 -0.5180  1.7398
  253MOL0     H34861   8.370   3.691   7.925  0.2261 -0.7298  1.2116
  253MOL0     H34862   8.466   3.613   8.051 -0.3651 -1.5134  0.5437
  253MOL0     H34863   8.715   3.701   8.063  1.3155  0.1672 -0.0331
  253MOL0     H34864   8.975   3.754   7.857  1.0107  0.7330 -0.5291
  253MOL0     H34865   8.916   3.840   8.012  0.1350 -1.8184  0.3409
  253MOL0     H34866   8.859   4.018   7.803 -1.4266 -2.8445 -3.7124
  253MOL0     H34867   9.012   4.032   7.878 -0.1886 -1.0787  1.4797
  253MOL0     H34868   8.984   3.838   7.639 -0.5884  1.3056 -2.5638
  253MOL0     H34869   9.016   4.018   7.613  0.4957  2.7394  1.5428
  253MOL0     H34870   9.208   4.023   7.719 -1.6027  0.6140  2.6306
  253MOL0     H34871   9.187   3.868   7.806 -0.1677 -1.2042  0.2156
  253MOL0     H34872   9.378   4.064   7.503  2.9415  1.5922 -2.8613
  253MOL0     H34873   9.725   4.137   7.547 -0.3026  4.1648 -1.3443
  253MOL0     H34874   9.582   4.194   7.447  1.1479  1.1438 -1.8134
  253MOL0     H34875   9.696   4.084   7.377 -1.8352 -2.0597 -0.4329
  253MOL0     H34876  10.028   3.966   7.715 -0.3917 -1.9271  0.8330
  253MOL0     H34877  10.269   3.964   7.703  0.4022 -1.3524  1.0714
  253MOL0     H34878  10.438   3.892   7.502  1.7208  1.1069 -0.5317
  253MOL0     H34879  10.471   3.942   7.671 -0.8898  2.2485 -2.3376
  253MOL0     H34880  10.677   3.760   7.623  2.0371  3.3795  2.9041
  253MOL0     H34881  10.647   3.809   7.459  2.1645  0.5340  0.4833
  253MOL0     H34882  10.711   4.018   7.677 -3.4531 -0.1558 -1.1672
  253MOL0     H34883  10.718   4.042   7.507  1.4825  0.0647 -0.1614
  253MOL0     H34884  10.896   3.825   7.654  1.7124  1.7464  1.8441
  253MOL0     H34885  10.950   3.979   7.638 -1.5731  2.1619 -0.9033
  253MOL0     H34886  10.892   3.782   7.419  1.4308 -0.6762  2.2694
  253MOL0     H34887  10.895   3.953   7.377 -3.9544 -2.4887 -0.2622
  253MOL0     H34888  11.124   3.974   7.453  2.7283  0.0578 -3.0927
  253MOL0     H34889  11.118   3.843   7.331 -0.5608  1.0025  0.5564
  253MOL0     H34890  11.096   3.676   7.520 -0.7504  0.5477  1.8052
  253MOL0     H34891  11.122   3.808   7.632 -0.1905 -2.6250  0.4989
  253MOL0     H34892  11.326   3.772   7.404  0.4249 -0.5103 -0.5280
  253MOL0     H34893  11.329   3.666   7.552 -0.1682  0.5287 -1.2801
  253MOL0     H34894  10.267   3.561   7.569  1.2483  1.4473 -0.3345
  253MOL0     H34895  10.006   3.570   7.594 -0.4691  0.4434  2.5403
  253MOL0     H34896   9.650   3.684   7.664 -1.8655 -2.2272 -2.5927
  253MOL0     H34897   9.428   3.677   7.708 -1.3269  0.2154  0.2621
  253MOL0     H34898   7.625   3.350   8.235  7.2683 -3.1138 -6.7295
  253MOL0     H34899   7.358   3.402   8.257 -0.6201  0.0140  0.1360
  253MOL0     H34900   7.020   3.397   8.312 -1.0880  0.0218 -0.2585
  253MOL0     H34901   6.837   3.483   8.410 -1.6334 -1.5654 -1.3836
  253MOL0     H34902   6.546   3.214   8.636 -0.0459  1.4753  1.7572
  253MOL0     H34903   6.471   3.369   8.634 -0.9756 -1.4736  0.5131
  253MOL0     H34904   6.377   3.233   8.443 -0.6008  0.3972 -1.8162
  253MOL0     H34905   6.542   3.217   8.379 -0.4194 -2.2608  1.7819
  253MOL0     H34906   6.557   3.446   8.352 -1.3797  1.5085  1.2750
  253MOL0     H34907   6.443   3.370   8.236  0.5624  4.3553 -1.6548
  253MOL0     H34908   6.359   3.582   8.310 -1.1878 -0.8408  0.5501
  253MOL0     H34909   6.381   3.548   8.483 -2.9721  1.0928 -0.4556
  253MOL0     H34910   6.040   3.352   8.474 -1.0657  1.4953  0.1444
  253MOL0     H34911   6.753   3.103   8.594 -0.8875 -0.0616 -0.4866
  253MOL0     H34912   6.837   2.908   8.503  0.4215 -3.1492  0.6024
  253MOL0     H34913   6.962   2.907   8.380 -0.3813  0.4473  0.2486
  253MOL0     H34914   7.001   2.925   8.556  1.5622 -1.9704 -2.2574
  254MOL0     O34915  11.299   6.589   0.130  0.9181  0.5219  0.1911
  254MOL0     C34916  11.271   6.482   0.191 -0.8821 -0.3696  0.0276
  254MOL0     O34917  11.364   6.383   0.207  0.3836  0.3453  0.0621
  254MOL0     C34918  11.496   6.392   0.164 -0.3932  0.2992 -0.1241
  254MOL0     C34919  11.593   6.319   0.241  0.3078  0.8593  0.5949
  254MOL0     C34920  11.726   6.332   0.220  0.0872  0.1541 -0.0669
  254MOL0     C34921  11.769   6.405   0.114 -1.4170  0.0309  0.0776
  254MOL0     O34922  11.910   6.410   0.101 -0.5310 -0.1773 -0.3982
  254MOL0     C34923  11.969   6.537   0.132 -0.6169 -0.6072  0.0770
  254MOL0     C34924  12.094   6.530   0.048  0.1921 -0.0669 -0.1252
  254MOL0     C34925  12.201   6.631   0.102  0.8170  0.1571 -0.5498
  254MOL0     C34926  12.311   6.633   0.003 -0.0372 -0.8337 -0.1157
  254MOL0     C34927  12.384   6.768  -0.013  0.1754  0.0839 -0.0646
  254MOL0     C34928  12.321   6.865  -0.111 -0.3224  0.4261 -0.0811
  254MOL0     C34929  12.392   7.001  -0.085  0.0688 -0.3526  0.2970
  254MOL0     C34930  12.330   7.128  -0.146 -1.2927  0.5581 -0.3444
  254MOL0     N34931  12.418   7.245  -0.112 -0.7763 -0.9054  0.1338
  254MOL0     C34932  12.406   7.320   0.002  0.6016 -0.2382 -0.4413
  254MOL0     C34933  12.497   7.419  -0.017  0.4911  0.6060  0.3912
  254MOL0     C34934  12.520   7.537   0.082  0.8658 -0.2504  0.1316
  254MOL0     C34935  12.672   7.555   0.112 -0.0365  0.3890  0.5039
  254MOL0     C34936  12.690   7.589   0.255 -0.0482  0.6291  0.0457
  254MOL0     C34937  12.835   7.607   0.280 -0.3867 -0.2216 -0.5170
  254MOL0     O34938  12.912   7.491   0.242  0.5211  0.2756  0.5220
  254MOL0     C34939  13.049   7.501   0.252 -0.2267  0.2490 -0.5988
  254MOL0     C34940  13.115   7.417   0.156  0.4766 -0.3352  0.4541
  254MOL0     C34941  13.254   7.401   0.150 -0.1645 -0.5802  0.3289
  254MOL0     C34942  13.317   7.322   0.040 -0.7162 -0.5907 -0.4256
  254MOL0     C34943  13.330   7.484   0.233  0.6793 -0.6967  0.6146
  254MOL0     C34944  13.477   7.490   0.238  0.7846 -0.4377  0.1805
  254MOL0     O34945  13.538   7.607   0.262 -0.5765 -0.6047 -0.5085
  254MOL0     C34946  13.672   7.609   0.272 -0.3889  0.1267 -1.7595
  254MOL0     C34947  13.757   7.619   0.166  0.4149 -1.4451  0.4110
  254MOL0     C34948  13.897   7.612   0.184 -0.0527  0.3166  0.0806
  254MOL0     C34949  13.963   7.635   0.309  0.0278  0.9335 -0.0049
  254MOL0     O34950  14.099   7.658   0.334 -0.1963 -0.4031  0.0828
  254MOL0     C34951  14.164   7.732   0.226  0.4715  0.5698 -0.4499
  254MOL0     C34952  14.311   7.785   0.254  0.5106 -0.5160 -0.0799
  254MOL0     C34953  14.291   7.914   0.344  0.3193  0.7588  0.8826
  254MOL0     C34954  14.427   7.971   0.391 -0.6301 -0.2002 -0.5700
  254MOL0     C34955  14.426   8.083   0.502  0.9061  0.1716  0.7632
  254MOL0     C34956  14.563   8.140   0.525 -0.5060 -0.2375  0.3200
  254MOL0     C34957  14.576   8.236   0.643 -0.4838  0.3075  0.0084
  254MOL0     C34958  14.693   8.327   0.628  0.2134 -0.5507 -0.1641
  254MOL0    Cl34959  14.854   8.234   0.603  0.4380  0.0489  0.2524
  254MOL0     C34960  13.870   7.635   0.419 -0.0639  0.9154  0.4054
  254MOL0     C34961  13.726   7.609   0.406  0.6717  0.4270 -0.4442
  254MOL0     O34962  13.530   7.386   0.215 -0.5840  0.0115  0.5856
  254MOL0     C34963  13.263   7.564   0.326 -0.3737  0.0203 -0.0718
  254MOL0     C34964  13.129   7.571   0.339  0.0614  0.2791  0.7599
  254MOL0     N34965  12.552   7.397  -0.141  1.0548  0.1645  0.1073
  254MOL0     N34966  12.505   7.296  -0.201 -0.5010 -0.0710 -0.5036
  254MOL0     C34967  11.683   6.475   0.028 -0.4801 -0.0646 -0.7154
  254MOL0     C34968  11.544   6.466   0.054 -0.0324  0.3548 -0.5778
  254MOL0     C34969  11.134   6.455   0.219  0.4786 -1.2886  0.5835
  254MOL0     C34970  11.088   6.323   0.216  0.6577  0.2111 -0.2359
  254MOL0     C34971  10.946   6.278   0.221 -0.5885  0.0255  0.9800
  254MOL0     C34972  10.858   6.384   0.229 -0.1311  0.1078 -0.4023
  254MOL0     O34973  10.719   6.371   0.231 -0.1880  0.1962 -0.9295
  254MOL0     C34974  10.664   6.254   0.297  0.7056  0.8058 -0.6023
  254MOL0     C34975  10.694   6.236   0.444  0.4358 -0.7512 -1.1082
  254MOL0     C34976  10.631   6.355   0.529 -0.1338  0.8473 -0.5437
  254MOL0     C34977  10.650   6.331   0.683  0.6296  0.2520  0.0645
  254MOL0     C34978  10.540   6.233   0.716  0.1188  0.6484 -0.2900
  254MOL0     C34979  10.445   6.163   0.732 -0.0045 -0.3175 -0.2316
  254MOL0     C34980  10.896   6.519   0.237 -0.2772  0.5916 -0.6558
  254MOL0     C34981  11.032   6.556   0.227  0.0494  0.7263 -0.3527
  254MOL0     C34982  11.049   6.702   0.235  0.0806 -0.3006  0.0954
  254MOL0     H34983  11.555   6.255   0.320  0.1352 -0.0578 -0.2069
  254MOL0     H34984  11.789   6.266   0.279 -1.1981 -1.0723 -0.0080
  254MOL0     H34985  11.991   6.553   0.238 -1.3079 -1.1737  0.3144
  254MOL0     H34986  11.902   6.619   0.101 -0.0964  1.1468  3.1689
  254MOL0     H34987  12.125   6.425   0.042  0.2540 -0.2076  2.0046
  254MOL0     H34988  12.071   6.567  -0.053 -0.0451  0.7044  0.2014
  254MOL0     H34989  12.154   6.729   0.091 -0.7881 -0.3766  0.9776
  254MOL0     H34990  12.224   6.600   0.205 -0.0784 -0.1017 -0.4172
  254MOL0     H34991  12.381   6.560   0.044 -0.1995 -0.5569  0.6897
  254MOL0     H34992  12.263   6.609  -0.092 -3.1900  0.6371  0.9638
  254MOL0     H34993  12.479   6.749  -0.063 -0.5310  2.0218 -2.3195
  254MOL0     H34994  12.397   6.808   0.088 -1.2991 -1.1579  0.6621
  254MOL0     H34995  12.332   6.824  -0.212  3.5189 -2.4157  1.2349
  254MOL0     H34996  12.215   6.876  -0.085 -0.3833 -0.8435  0.2608
  254MOL0     H34997  12.495   6.986  -0.119 -0.9228 -3.0191 -1.9494
  254MOL0     H34998  12.382   7.018   0.022 -0.4806 -2.7660  0.6794
  254MOL0     H34999  12.338   7.111  -0.254 -2.2763  2.8432 -0.8523
  254MOL0     H35000  12.226   7.146  -0.117 -0.8358  2.4018  0.2824
  254MOL0     H35001  12.348   7.304   0.092  0.7784  0.2664 -0.2298
  254MOL0     H35002  12.463   7.524   0.174  0.4570  1.3781  0.1411
  254MOL0     H35003  12.482   7.629   0.035  0.9529 -0.0372  0.4764
  254MOL0     H35004  12.736   7.473   0.077 -1.2618 -0.6225  0.5385
  254MOL0     H35005  12.696   7.649   0.062 -2.8759  1.6329  1.2759
  254MOL0     H35006  12.627   7.674   0.281  0.0824  1.8392 -3.1136
  254MOL0     H35007  12.656   7.505   0.317  1.1143  0.7125  0.8326
  254MOL0     H35008  12.875   7.689   0.219  0.9774 -1.3597 -1.2247
  254MOL0     H35009  12.865   7.636   0.381 -0.5073  0.6634 -0.7252
  254MOL0     H35010  13.055   7.352   0.093 -0.1531 -0.9808  1.6874
  254MOL0     H35011  13.238   7.293  -0.030 -2.5682  1.4511  0.7058
  254MOL0     H35012  13.366   7.233   0.081  0.3249  0.8994  1.7931
  254MOL0     H35013  13.381   7.393  -0.013 -0.2197 -0.2982  0.5448
  254MOL0     H35014  13.721   7.616   0.064  0.3532 -3.8631  0.4448
  254MOL0     H35015  13.955   7.610   0.093 -2.1715 -1.3223 -1.3258
  254MOL0     H35016  14.159   7.664   0.141 -0.8925 -1.3881  1.0942
  254MOL0     H35017  14.102   7.817   0.196 -1.6506 -0.2066  1.4239
  254MOL0     H35018  14.358   7.706   0.313 -0.8410  0.4672  2.5048
  254MOL0     H35019  14.367   7.803   0.162  0.1666  1.4837  0.0529
  254MOL0     H35020  14.221   7.890   0.424 -1.9709 -0.3580 -1.3150
  254MOL0     H35021  14.246   7.980   0.270 -2.6511 -0.6237  1.3177
  254MOL0     H35022  14.479   8.004   0.301  0.9167  1.0703  0.7251
  254MOL0     H35023  14.485   7.890   0.435  0.4920 -0.0707 -1.7609
  254MOL0     H35024  14.359   8.161   0.465  1.6863 -0.1348 -1.4661
  254MOL0     H35025  14.385   8.046   0.597  3.4478 -0.1809  1.7986
  254MOL0     H35026  14.599   8.200   0.441  2.2702  1.8703  2.7525
  254MOL0     H35027  14.636   8.058   0.529  0.3793  0.5595  3.1538
  254MOL0     H35028  14.596   8.180   0.735  0.4751  1.4782  0.5531
  254MOL0     H35029  14.483   8.293   0.656 -1.2453 -1.5084  4.7741
  254MOL0     H35030  14.710   8.386   0.719 -2.9665 -0.6730  0.6184
  254MOL0     H35031  14.666   8.390   0.543 -2.7882 -1.3871  0.0621
  254MOL0     H35032  13.903   7.644   0.522  2.9795 -0.8749 -0.2812
  254MOL0     H35033  13.668   7.596   0.496 -0.8987  1.4228 -1.2822
  254MOL0     H35034  13.319   7.631   0.391 -0.6940  1.2688 -1.0289
  254MOL0     H35035  13.097   7.633   0.421  0.7157  1.5815  0.0583
  254MOL0     H35036  11.716   6.544  -0.049  0.6735  2.3367  1.7375
  254MOL0     H35037  11.469   6.515  -0.008 -2.3654 -1.2688  0.7950
  254MOL0     H35038  11.150   6.237   0.194  1.9160  1.0524 -0.0660
  254MOL0     H35039  10.916   6.174   0.224 -4.1307  0.8729  0.2089
  254MOL0     H35040  10.556   6.261   0.283  0.5163 -0.0267  0.3337
  254MOL0     H35041  10.695   6.160   0.250 -0.1165 -0.2490  0.8660
  254MOL0     H35042  10.801   6.218   0.460  0.2994 -1.6065 -1.0904
  254MOL0     H35043  10.656   6.149   0.498  2.5634  0.3842  2.6237
  254MOL0     H35044  10.671   6.455   0.508 -0.2174  0.6921 -1.4533
  254MOL0     H35045  10.524   6.360   0.508 -0.4788  0.2981  0.9075
  254MOL0     H35046  10.621   6.421   0.738  1.9772  0.4470  0.4788
  254MOL0     H35047  10.749   6.292   0.707  0.1461 -1.6078 -0.7917
  254MOL0     H35048  10.353   6.108   0.738  0.9169 -1.9312 -0.1165
  254MOL0     H35049  10.821   6.597   0.241 -0.2688  0.5766 -0.0013
  254MOL0     H35050  11.044   6.757   0.140  2.2455  2.2492  1.3329
  254MOL0     H35051  10.978   6.754   0.300  2.1613  1.4122  1.1049
  254MOL0     H35052  11.144   6.736   0.276  0.5399  2.1674 -2.6501
  255MOL0     O35053   8.431   2.638   4.837 -0.3487  0.1046 -0.0985
  255MOL0     C35054   8.380   2.542   4.891 -0.9260  0.0229 -0.6286
  255MOL0     O35055   8.422   2.475   5.000  0.2910 -0.1417  0.0281
  255MOL0     C35056   8.552   2.499   5.055 -0.1856 -0.2636  0.3223
  255MOL0     C35057   8.671   2.529   4.985  0.2078  0.4765  0.4115
  255MOL0     C35058   8.795   2.526   5.056 -0.1075 -0.9028 -0.8595
  255MOL0     C35059   8.797   2.506   5.196  0.4600  0.1750  0.3319
  255MOL0     O35060   8.911   2.520   5.262 -1.2990 -0.2301 -0.4628
  255MOL0     C35061   8.966   2.395   5.313  0.6964 -0.2353  0.1898
  255MOL0     C35062   9.061   2.428   5.427 -0.1657 -0.1024  0.2657
  255MOL0     C35063   9.110   2.314   5.520 -1.0029  0.5552  0.1726
  255MOL0     C35064   9.164   2.175   5.454  0.1154  1.1915  0.9060
  255MOL0     C35065   9.236   2.080   5.554 -0.2262  0.6175  0.4558
  255MOL0     C35066   9.286   1.955   5.488  0.2287  1.0163 -0.1454
  255MOL0     C35067   9.181   1.844   5.485  0.6201 -0.5314  0.1125
  255MOL0     C35068   9.220   1.730   5.389  0.2676 -1.0128 -0.7834
  255MOL0     N35069   9.102   1.639   5.376 -0.2371  0.3751  0.0654
  255MOL0     C35070   9.007   1.636   5.277 -1.1864  0.0014  0.2095
  255MOL0     C35071   8.922   1.542   5.321  0.8977 -0.6301  0.0399
  255MOL0     C35072   8.807   1.490   5.239  0.2524 -0.3164 -0.5795
  255MOL0     C35073   8.856   1.402   5.134  0.3574  0.7731  0.1438
  255MOL0     C35074   8.902   1.270   5.194 -0.1087  0.7836 -0.0831
  255MOL0     C35075   8.948   1.173   5.085 -0.7948 -0.2953 -0.1283
  255MOL0     O35076   8.866   1.165   4.975 -0.3010  0.0516 -0.2756
  255MOL0     C35077   8.918   1.096   4.867 -0.1397  1.1372 -0.6556
  255MOL0     C35078   8.833   1.092   4.758  0.0188 -0.2066 -0.1614
  255MOL0     C35079   8.883   1.042   4.627  0.6984 -0.1795  0.4082
  255MOL0     C35080   8.803   1.074   4.506  0.2543 -0.8000  0.6918
  255MOL0     C35081   9.013   0.988   4.613  0.2134 -0.3450 -0.3763
  255MOL0     C35082   9.057   0.924   4.487 -0.0887  0.0414  0.4848
  255MOL0     O35083   9.118   1.000   4.385 -0.5055  0.5963 -0.0465
  255MOL0     C35084   9.178   0.935   4.288  0.4754  0.7492 -0.3871
  255MOL0     C35085   9.109   0.921   4.169 -0.0592 -0.6963 -0.3011
  255MOL0     C35086   9.157   0.847   4.058  0.1231 -0.4220 -0.4339
  255MOL0     C35087   9.289   0.796   4.076  0.2392 -0.5258  0.1321
  255MOL0     O35088   9.347   0.722   3.977  0.7139 -0.3829  0.2309
  255MOL0     C35089   9.277   0.700   3.860  0.3002 -0.1134 -0.1720
  255MOL0     C35090   9.383   0.621   3.780  0.5447  0.3727  0.7044
  255MOL0     C35091   9.516   0.692   3.758  0.1496  0.1699 -0.6361
  255MOL0     C35092   9.593   0.632   3.644  0.5603  0.0943  1.2484
  255MOL0     C35093   9.718   0.712   3.626  0.1169 -1.0732 -0.8507
  255MOL0     C35094   9.811   0.662   3.516  0.8232 -0.3727 -0.6918
  255MOL0     C35095   9.881   0.780   3.443  0.6474  0.4391  0.1210
  255MOL0     C35096   9.990   0.722   3.356  0.6050  0.0548 -0.0537
  255MOL0    Cl35097  10.061   0.831   3.232  0.4711  0.4330 -0.3393
  255MOL0     C35098   9.364   0.807   4.193  0.2550 -0.8638 -0.0873
  255MOL0     C35099   9.304   0.884   4.292 -0.2501 -0.2004 -0.1279
  255MOL0     O35100   9.071   0.805   4.501  1.1569  1.1002  0.2810
  255MOL0     C35101   9.088   0.982   4.735 -0.1191 -0.4640  0.6938
  255MOL0     C35102   9.048   1.039   4.858 -0.0473 -0.0727 -0.8757
  255MOL0     N35103   8.961   1.506   5.450  0.5557  0.6985 -0.3209
  255MOL0     N35104   9.072   1.550   5.476 -0.6688  0.8263 -0.5763
  255MOL0     C35105   8.671   2.488   5.256 -0.3372 -1.7669 -0.4456
  255MOL0     C35106   8.552   2.477   5.190  0.4888  0.6121  0.3797
  255MOL0     C35107   8.239   2.500   4.844 -0.0635  0.6769 -0.2448
  255MOL0     C35108   8.170   2.393   4.914  0.1702  0.1073 -0.1644
  255MOL0     C35109   8.049   2.343   4.865  0.5122 -0.2299  0.2116
  255MOL0     C35110   7.987   2.399   4.744  1.0181 -0.3342 -0.3003
  255MOL0     O35111   7.869   2.343   4.706 -0.1707 -0.0721 -0.2311
  255MOL0     C35112   7.766   2.414   4.626  0.2175 -0.3441 -0.3544
  255MOL0     C35113   7.639   2.332   4.607 -0.8143 -0.3057 -0.1002
  255MOL0     C35114   7.652   2.248   4.483  0.0114 -0.2516  0.0766
  255MOL0     C35115   7.529   2.171   4.424 -0.3148  0.1712 -0.3904
  255MOL0     C35116   7.448   2.261   4.336  0.1787  0.0582 -0.1387
  255MOL0     C35117   7.400   2.338   4.256  0.1632 -0.1190  0.3682
  255MOL0     C35118   8.047   2.501   4.676 -0.6024 -0.7272 -0.2721
  255MOL0     C35119   8.170   2.553   4.731 -0.4900  0.0537 -0.7302
  255MOL0     C35120   8.222   2.673   4.647  0.1303  0.1923 -0.6829
  255MOL0     H35121   8.676   2.529   4.877  0.2891 -2.4254  0.3399
  255MOL0     H35122   8.891   2.535   5.006 -0.5900  5.1014 -1.4514
  255MOL0     H35123   9.017   2.338   5.235 -4.2144 -3.5620 -1.0672
  255MOL0     H35124   8.879   2.342   5.354  0.2167  0.8621  0.6363
  255MOL0     H35125   9.140   2.494   5.391 -0.8492 -0.7986 -2.7489
  255MOL0     H35126   9.006   2.501   5.487 -0.4691  0.4908 -0.7129
  255MOL0     H35127   9.192   2.345   5.586 -0.7000 -1.5322  0.8568
  255MOL0     H35128   9.033   2.305   5.597 -0.0449  1.2348  1.2493
  255MOL0     H35129   9.076   2.126   5.411 -0.3772  0.5575  2.5537
  255MOL0     H35130   9.238   2.204   5.379  1.9563 -0.8648  1.8276
  255MOL0     H35131   9.166   2.040   5.628 -1.4447 -1.3763 -1.6407
  255MOL0     H35132   9.306   2.134   5.618  0.0991 -1.2448  1.7414
  255MOL0     H35133   9.299   1.979   5.382  0.2156 -3.8143 -1.4859
  255MOL0     H35134   9.380   1.911   5.522 -1.3297 -3.8287 -1.3835
  255MOL0     H35135   9.086   1.888   5.456  0.3462 -0.3951  1.1529
  255MOL0     H35136   9.164   1.818   5.590 -0.1755  3.8698  1.2816
  255MOL0     H35137   9.252   1.755   5.287  1.0133 -0.8701 -0.5192
  255MOL0     H35138   9.305   1.672   5.425  0.8024  0.9946  1.4590
  255MOL0     H35139   9.002   1.683   5.179  2.0241  0.8241  0.3060
  255MOL0     H35140   8.747   1.574   5.203 -0.3313  1.0820  3.1575
  255MOL0     H35141   8.741   1.426   5.298  0.2442  0.1237 -0.1043
  255MOL0     H35142   8.770   1.387   5.067 -1.0047  1.5945  1.6437
  255MOL0     H35143   8.943   1.440   5.080  1.3381 -1.6062 -0.0824
  255MOL0     H35144   8.992   1.279   5.255  0.1525 -0.7173 -0.2197
  255MOL0     H35145   8.826   1.219   5.254  2.2961 -0.2449  2.2929
  255MOL0     H35146   9.042   1.212   5.044 -0.4253  0.9932  1.8212
  255MOL0     H35147   8.971   1.077   5.132 -1.3134  0.5157  1.8692
  255MOL0     H35148   8.740   1.147   4.751 -0.6733 -1.5519 -3.3093
  255MOL0     H35149   8.802   0.993   4.432  0.9698 -1.4085  1.3306
  255MOL0     H35150   8.855   1.160   4.462  0.1215 -0.7452  0.6421
  255MOL0     H35151   8.700   1.103   4.529  1.2590  2.4629  1.6633
  255MOL0     H35152   9.011   0.969   4.172  0.6397  0.8355 -1.0079
  255MOL0     H35153   9.100   0.853   3.967  1.2269 -3.2877 -1.4192
  255MOL0     H35154   9.179   0.651   3.869 -0.6289  1.7576  0.3948
  255MOL0     H35155   9.259   0.793   3.805 -0.7168 -0.4421 -0.4244
  255MOL0     H35156   9.410   0.527   3.828 -0.1028 -0.0559  0.2380
  255MOL0     H35157   9.335   0.599   3.684  1.1158 -0.3424  0.5704
  255MOL0     H35158   9.577   0.691   3.849 -1.7658 -0.4624  0.6950
  255MOL0     H35159   9.491   0.796   3.735 -0.3392  0.0682 -0.5572
  255MOL0     H35160   9.534   0.636   3.552  1.9136 -3.1921  0.1009
  255MOL0     H35161   9.602   0.523   3.652 -0.8162 -0.2624 -0.9762
  255MOL0     H35162   9.678   0.813   3.609 -0.4743 -1.7755 -4.2367
  255MOL0     H35163   9.771   0.715   3.722 -1.8637  0.3996  0.2714
  255MOL0     H35164   9.744   0.608   3.448  3.3571 -1.5468 -2.3937
  255MOL0     H35165   9.875   0.585   3.561  1.5233 -0.8407 -2.4313
  255MOL0     H35166   9.933   0.845   3.515  3.3556 -3.2084  1.8210
  255MOL0     H35167   9.813   0.842   3.385  1.0713  0.1336 -0.7270
  255MOL0     H35168   9.939   0.645   3.296 -2.7907  1.9281  0.2274
  255MOL0     H35169  10.074   0.680   3.413  1.2990  0.3858 -0.8121
  255MOL0     H35170   9.465   0.767   4.199  0.2232 -0.8025  1.0048
  255MOL0     H35171   9.369   0.895   4.378  3.3417  1.0339 -2.7351
  255MOL0     H35172   9.188   0.939   4.740  0.8095  1.5460  0.3143
  255MOL0     H35173   9.109   1.022   4.946 -2.2939 -2.1061  0.4138
  255MOL0     H35174   8.672   2.477   5.364  0.5601 -2.1755 -0.4891
  255MOL0     H35175   8.470   2.448   5.256 -0.4078 -0.6855 -1.2259
  255MOL0     H35176   8.216   2.354   5.005  0.6852 -0.1178 -0.5184
  255MOL0     H35177   7.995   2.264   4.918  0.4230 -0.2289  0.1215
  255MOL0     H35178   7.738   2.502   4.685  1.1013 -0.3816  0.1430
  255MOL0     H35179   7.805   2.441   4.527  1.2260 -1.6859 -0.3512
  255MOL0     H35180   7.552   2.397   4.598 -0.3747  0.6190  1.9081
  255MOL0     H35181   7.621   2.271   4.696 -0.2545 -2.5035 -1.4124
  255MOL0     H35182   7.703   2.298   4.400  1.6234 -2.8154 -0.5999
  255MOL0     H35183   7.724   2.170   4.507  3.0121  2.1991 -0.2506
  255MOL0     H35184   7.464   2.142   4.507  2.0500 -0.2871  1.4008
  255MOL0     H35185   7.553   2.085   4.360 -2.6408  0.1402 -1.3321
  255MOL0     H35186   7.374   2.408   4.179  4.0757  1.1511  0.0335
  255MOL0     H35187   8.001   2.528   4.581 -1.8945 -2.6107 -0.2463
  255MOL0     H35188   8.261   2.753   4.711  0.9830 -2.4290  2.3076
  255MOL0     H35189   8.289   2.639   4.568 -0.3554 -2.6059 -0.0034
  255MOL0     H35190   8.133   2.702   4.590 -3.2913 -3.7350  2.0762
  256MOL0     O35191   1.119   2.341   1.184 -0.0044 -0.7245 -0.0785
  256MOL0     C35192   1.056   2.368   1.284 -0.6681 -0.3311  0.4214
  256MOL0     O35193   1.100   2.450   1.388 -0.1242  0.5220  1.0551
  256MOL0     C35194   1.192   2.547   1.360 -0.2227 -0.3736 -0.3211
  256MOL0     C35195   1.202   2.620   1.243 -0.6980 -0.6140 -0.1013
  256MOL0     C35196   1.312   2.713   1.229 -0.2127  0.1128 -1.3432
  256MOL0     C35197   1.404   2.738   1.340  0.4326  0.5342  0.8017
  256MOL0     O35198   1.514   2.818   1.326  0.2688  0.5516 -0.4413
  256MOL0     C35199   1.493   2.958   1.292 -0.1911  0.7397  0.5035
  256MOL0     C35200   1.615   3.037   1.339  0.2782  0.5751 -0.1273
  256MOL0     C35201   1.652   3.010   1.485 -0.7371  0.1145  0.3503
  256MOL0     C35202   1.688   3.158   1.545 -1.4764 -0.6641 -0.3407
  256MOL0     C35203   1.819   3.225   1.493 -0.6394  0.1023  0.2305
  256MOL0     C35204   1.849   3.370   1.547  0.0523  0.7776  0.4688
  256MOL0     C35205   1.996   3.393   1.530 -0.2927 -0.3667 -0.5417
  256MOL0     C35206   2.080   3.325   1.641  0.4151 -0.4449  0.4168
  256MOL0     N35207   2.217   3.315   1.602 -0.3674 -0.0263 -0.2218
  256MOL0     C35208   2.297   3.206   1.614 -0.8571  0.1737  0.5393
  256MOL0     C35209   2.422   3.244   1.578  0.9161 -0.6210  0.1072
  256MOL0     C35210   2.543   3.169   1.565  0.1105 -0.0945  0.7189
  256MOL0     C35211   2.584   3.168   1.411 -0.0429 -0.6873 -0.4943
  256MOL0     C35212   2.695   3.075   1.375  1.0306 -0.4361 -0.0766
  256MOL0     C35213   2.844   3.119   1.406 -0.3482 -0.3299  0.0640
  256MOL0     O35214   2.863   3.113   1.550 -0.3941 -0.6333  0.4115
  256MOL0     C35215   3.000   3.118   1.587  0.4543  0.0120  0.1653
  256MOL0     C35216   3.114   3.124   1.501  0.3231  0.5649 -0.6428
  256MOL0     C35217   3.243   3.137   1.550  0.5754 -0.5961 -0.6129
  256MOL0     C35218   3.340   3.168   1.438 -0.4356  0.6549 -0.0642
  256MOL0     C35219   3.273   3.125   1.685 -0.1277 -0.6012 -0.3350
  256MOL0     C35220   3.410   3.137   1.738  1.2521  0.3323  0.0107
  256MOL0     O35221   3.412   3.143   1.875 -0.2479  0.0747 -0.2507
  256MOL0     C35222   3.542   3.130   1.925  0.6485  0.1612  0.1415
  256MOL0     C35223   3.645   3.220   1.891  0.9783  0.1563 -0.4162
  256MOL0     C35224   3.773   3.218   1.947 -0.2416  0.1881 -0.1392
  256MOL0     C35225   3.804   3.106   2.029  0.4788 -0.7507 -0.0429
  256MOL0     O35226   3.925   3.107   2.088  0.1597  0.3178 -0.0857
  256MOL0     C35227   3.980   2.991   2.150  0.8367 -0.2414  0.3052
  256MOL0     C35228   4.130   3.009   2.142 -0.6134  0.6381  0.5756
  256MOL0     C35229   4.192   2.895   2.238  0.0776 -0.1790  0.1151
  256MOL0     C35230   4.212   2.936   2.381  0.5565  0.0657  0.4417
  256MOL0     C35231   4.345   3.008   2.402 -0.1690 -0.7763 -0.6057
  256MOL0     C35232   4.469   2.910   2.380  0.2809 -0.4582  0.7430
  256MOL0     C35233   4.561   2.914   2.501  0.1788 -0.7570 -0.6976
  256MOL0     C35234   4.687   2.826   2.469 -0.5793 -0.4092 -0.5209
  256MOL0    Cl35235   4.752   2.764   2.627 -0.3888 -0.0060  0.2650
  256MOL0     C35236   3.699   3.011   2.053 -0.5071 -0.1753  0.1704
  256MOL0     C35237   3.571   3.026   2.005 -0.3110  0.3328 -0.3905
  256MOL0     O35238   3.510   3.115   1.669 -0.3099  0.2094  0.4088
  256MOL0     C35239   3.163   3.097   1.767 -0.3032  0.6779 -0.3251
  256MOL0     C35240   3.030   3.109   1.722 -0.4110 -0.1324 -0.8917
  256MOL0     N35241   2.415   3.378   1.545 -0.1296 -0.7401  0.2613
  256MOL0     N35242   2.299   3.426   1.574 -0.1310 -0.3762  0.3622
  256MOL0     C35243   1.385   2.667   1.456 -0.1015 -0.2037 -0.7294
  256MOL0     C35244   1.276   2.573   1.465 -0.0880  0.0370  0.3799
  256MOL0     C35245   0.921   2.301   1.293  0.8494  0.3196  0.2413
  256MOL0     C35246   0.846   2.323   1.407  0.3426 -0.2544  0.7140
  256MOL0     C35247   0.719   2.272   1.422  0.4902  0.6976  0.4314
  256MOL0     C35248   0.655   2.202   1.330 -0.3924  1.1780 -0.6712
  256MOL0     O35249   0.531   2.165   1.361 -0.4190 -0.0590 -1.0572
  256MOL0     C35250   0.468   2.064   1.281 -0.1845  0.3678  0.1303
  256MOL0     C35251   0.321   2.056   1.328 -0.2685  0.7133 -0.4699
  256MOL0     C35252   0.240   2.179   1.303  0.1016 -0.4092 -0.2649
  256MOL0     C35253   0.101   2.158   1.361  0.2738 -0.4690 -0.4350
  256MOL0     C35254   0.014   2.280   1.327 -0.5393  0.3141 -0.3667
  256MOL0     C35255  -0.061   2.375   1.303 -0.4947  0.2950  0.7787
  256MOL0     C35256   0.725   2.170   1.212 -0.7779  0.4647  0.2835
  256MOL0     C35257   0.855   2.214   1.191  0.0329  0.2714 -0.7619
  256MOL0     C35258   0.932   2.173   1.064 -0.1051  0.4142 -0.2904
  256MOL0     H35259   1.134   2.605   1.160 -0.2462 -1.4713 -0.3251
  256MOL0     H35260   1.324   2.765   1.135  1.9001  1.4327 -0.4243
  256MOL0     H35261   1.402   2.993   1.341 -0.5870 -0.1627  0.4333
  256MOL0     H35262   1.487   2.969   1.183  4.2768  0.0055 -0.0296
  256MOL0     H35263   1.701   3.017   1.274  2.3317  1.2925  2.2255
  256MOL0     H35264   1.587   3.142   1.324 -0.9873  0.7328  2.7801
  256MOL0     H35265   1.569   2.952   1.526  0.5593 -1.7551  0.4567
  256MOL0     H35266   1.747   2.956   1.486  0.0046  1.3667 -0.3018
  256MOL0     H35267   1.611   3.234   1.537  0.1511  1.4266  2.1365
  256MOL0     H35268   1.700   3.149   1.654  0.4831  2.4374 -0.1957
  256MOL0     H35269   1.816   3.220   1.384  1.9640  0.5359  0.0512
  256MOL0     H35270   1.893   3.151   1.527 -2.3587  0.0009  4.3543
  256MOL0     H35271   1.800   3.441   1.480  0.2546  2.7659  2.3110
  256MOL0     H35272   1.813   3.392   1.648  0.4001  0.2016  0.7274
  256MOL0     H35273   2.017   3.500   1.543 -0.7327 -0.2425 -0.8176
  256MOL0     H35274   2.021   3.359   1.430 -1.6607  0.5585 -1.2406
  256MOL0     H35275   2.060   3.362   1.742 -1.9942 -0.9008  0.1830
  256MOL0     H35276   2.045   3.221   1.650 -0.9473  0.0626  1.3261
  256MOL0     H35277   2.275   3.100   1.626  0.2883 -0.4237 -1.9544
  256MOL0     H35278   2.527   3.066   1.599  0.2882  0.5949  3.0451
  256MOL0     H35279   2.630   3.204   1.621 -0.2961  0.7593  0.8338
  256MOL0     H35280   2.496   3.125   1.360 -0.0269 -2.1688  0.6562
  256MOL0     H35281   2.595   3.274   1.385 -0.1666 -0.4748  0.2958
  256MOL0     H35282   2.672   2.974   1.409 -0.0249 -0.2958 -0.3658
  256MOL0     H35283   2.690   3.055   1.268  1.3407 -2.1116  0.1843
  256MOL0     H35284   2.907   3.045   1.356  1.2295  1.8243 -1.3462
  256MOL0     H35285   2.866   3.219   1.367 -1.2134 -0.5196 -0.9590
  256MOL0     H35286   3.095   3.102   1.396 -2.2943 -3.5351  0.4553
  256MOL0     H35287   3.372   3.082   1.379 -0.5148  0.2930  0.4114
  256MOL0     H35288   3.430   3.224   1.465  0.0263 -0.2009  0.2204
  256MOL0     H35289   3.286   3.228   1.365 -0.4070 -1.9668 -2.4469
  256MOL0     H35290   3.620   3.308   1.832 -2.2744  2.5793  3.9292
  256MOL0     H35291   3.847   3.291   1.919  1.1228  0.0272  2.6343
  256MOL0     H35292   3.940   2.973   2.249 -2.7597  0.6739 -0.8453
  256MOL0     H35293   3.953   2.903   2.091 -0.0612 -0.8245  1.5493
  256MOL0     H35294   4.169   3.000   2.040  1.1216 -0.8210  1.3060
  256MOL0     H35295   4.147   3.110   2.179 -0.9393  1.5452 -1.6091
  256MOL0     H35296   4.290   2.872   2.194  0.1345 -0.6698  0.4999
  256MOL0     H35297   4.134   2.804   2.223  1.5053 -1.2863  1.0004
  256MOL0     H35298   4.214   2.850   2.449  3.0459  0.5456  1.0709
  256MOL0     H35299   4.137   3.008   2.414  0.9431  0.9806 -0.5953
  256MOL0     H35300   4.350   3.097   2.338  0.8819  0.7140  1.4295
  256MOL0     H35301   4.352   3.040   2.506 -0.5398  1.9190 -1.3434
  256MOL0     H35302   4.517   2.932   2.283  2.9902 -2.9995  1.3754
  256MOL0     H35303   4.435   2.807   2.368 -2.6103  0.4627  0.2145
  256MOL0     H35304   4.504   2.861   2.578  1.1660 -2.5885 -1.1816
  256MOL0     H35305   4.575   3.018   2.532  3.3580 -1.3585  0.2864
  256MOL0     H35306   4.764   2.888   2.423  0.9808 -0.5063  1.7789
  256MOL0     H35307   4.657   2.742   2.405 -1.5720  0.6893 -1.5333
  256MOL0     H35308   3.725   2.927   2.117  1.0900 -0.5409 -0.9158
  256MOL0     H35309   3.488   2.962   2.032  0.5654 -0.5153  0.3950
  256MOL0     H35310   3.175   3.081   1.874  1.4268 -1.5911 -0.8057
  256MOL0     H35311   2.947   3.115   1.792 -0.0654 -0.1857 -0.4741
  256MOL0     H35312   1.451   2.693   1.538 -2.2072  1.7902  0.4595
  256MOL0     H35313   1.273   2.506   1.550  1.6712 -3.1414 -1.8082
  256MOL0     H35314   0.883   2.376   1.494  1.6938 -0.9802  0.5935
  256MOL0     H35315   0.662   2.297   1.511 -4.1816  2.1762 -2.5986
  256MOL0     H35316   0.478   2.083   1.174 -2.3750 -1.4517 -0.4725
  256MOL0     H35317   0.515   1.966   1.288  1.5732  0.8448 -2.9659
  256MOL0     H35318   0.320   2.028   1.434  0.3273 -0.3889 -0.7425
  256MOL0     H35319   0.279   1.969   1.276 -0.7835  0.8298 -0.2581
  256MOL0     H35320   0.281   2.263   1.359 -1.1673  0.0527  0.0160
  256MOL0     H35321   0.237   2.209   1.198 -0.3284 -0.9903 -0.4265
  256MOL0     H35322   0.095   2.146   1.469 -1.5631  0.8606 -0.3354
  256MOL0     H35323   0.050   2.077   1.307  0.0503  1.3843 -3.2219
  256MOL0     H35324  -0.138   2.448   1.289 -1.9278 -1.8212 -4.5274
  256MOL0     H35325   0.681   2.114   1.129  4.5376  0.0778 -2.7175
  256MOL0     H35326   0.876   2.098   1.007 -1.7520 -1.1949  3.1616
  256MOL0     H35327   0.954   2.257   0.997  2.0797  0.0467 -0.0889
  256MOL0     H35328   1.020   2.120   1.100 -0.1841  1.8991  2.3015
  257MOL0     O35329   0.141   6.203   3.259  0.2378  0.4799 -0.0874
  257MOL0     C35330   0.049   6.185   3.189  0.4491  0.8828 -0.1769
  257MOL0     O35331  -0.083   6.149   3.231 -0.6278  0.7003 -0.2138
  257MOL0     C35332  -0.090   6.081   3.352  0.4149 -0.5904  0.7681
  257MOL0     C35333  -0.048   5.950   3.354 -0.3894  1.0102 -0.3726
  257MOL0     C35334  -0.052   5.878   3.478  0.5167 -0.6568 -0.4883
  257MOL0     C35335  -0.108   5.946   3.586  0.4991  0.1897 -0.9604
  257MOL0     O35336  -0.108   5.876   3.703  0.7816  0.3697 -0.5330
  257MOL0     C35337  -0.050   5.942   3.824  0.4296 -0.0811 -0.2720
  257MOL0     C35338   0.103   5.922   3.825 -0.9516 -0.5158 -0.4374
  257MOL0     C35339   0.150   5.785   3.870  0.6187 -0.1378 -0.0859
  257MOL0     C35340   0.303   5.791   3.898 -0.1841 -0.2055  0.1991
  257MOL0     C35341   0.349   5.672   3.984  0.3960  0.2282  0.4111
  257MOL0     C35342   0.322   5.706   4.130  0.0329  0.0823 -0.6462
  257MOL0     C35343   0.369   5.595   4.221  0.0517 -0.2305 -0.5554
  257MOL0     C35344   0.358   5.627   4.372 -0.8364  0.3969 -0.5121
  257MOL0     N35345   0.483   5.706   4.419 -0.7210  0.4294 -0.3753
  257MOL0     C35346   0.614   5.648   4.442  0.5912 -0.0324 -0.1920
  257MOL0     C35347   0.686   5.756   4.490 -0.7256  0.3084 -0.0534
  257MOL0     C35348   0.824   5.732   4.537  0.3840 -0.4143 -1.2311
  257MOL0     C35349   0.939   5.819   4.491 -0.5226  0.0155 -0.6745
  257MOL0     C35350   1.070   5.810   4.584 -0.1126 -0.6686 -0.5744
  257MOL0     C35351   1.159   5.940   4.582 -0.5291  0.4313 -0.0910
  257MOL0     O35352   1.219   5.955   4.710  0.0809  0.1723  0.5197
  257MOL0     C35353   1.309   6.057   4.721 -0.4771  0.6196  0.0658
  257MOL0     C35354   1.283   6.178   4.648  0.2908  0.4203 -0.1168
  257MOL0     C35355   1.375   6.283   4.653 -0.2127 -0.6542  0.1403
  257MOL0     C35356   1.334   6.406   4.581  0.2189 -0.2255  0.5480
  257MOL0     C35357   1.500   6.272   4.724  0.2173  0.5127  0.4509
  257MOL0     C35358   1.601   6.380   4.736  0.4277  0.8590 -0.7885
  257MOL0     O35359   1.637   6.449   4.624  1.0295  0.2379  0.5722
  257MOL0     C35360   1.747   6.526   4.630 -0.5148 -0.6786 -0.2179
  257MOL0     C35361   1.743   6.662   4.583  0.3298  0.8050 -0.8178
  257MOL0     C35362   1.862   6.733   4.586  0.2263  0.1180  0.5024
  257MOL0     C35363   1.985   6.682   4.633 -0.3801 -0.3511  0.3229
  257MOL0     O35364   2.103   6.748   4.666  0.6133 -0.2935 -0.0881
  257MOL0     C35365   2.096   6.885   4.639  0.1186 -0.4378 -0.0492
  257MOL0     C35366   2.229   6.957   4.669  0.1680  0.0282 -0.0992
  257MOL0     C35367   2.349   6.883   4.604  0.9010 -0.6565 -0.1616
  257MOL0     C35368   2.466   6.884   4.701 -0.6000  0.8305  0.1148
  257MOL0     C35369   2.601   6.837   4.637 -0.5851 -0.1104  0.3653
  257MOL0     C35370   2.666   6.960   4.571  0.3764  0.6037 -0.1020
  257MOL0     C35371   2.759   6.914   4.455 -0.4507  0.0769 -0.4190
  257MOL0     C35372   2.894   6.861   4.503  0.0135  0.1780 -0.6851
  257MOL0    Cl35373   2.964   6.802   4.358 -0.1108  0.2966  0.1683
  257MOL0     C35374   1.994   6.548   4.651 -0.3561 -0.2295 -0.5643
  257MOL0     C35375   1.874   6.476   4.650  0.2190  0.8750  0.1849
  257MOL0     O35376   1.653   6.398   4.848 -0.9946  0.0016  0.5177
  257MOL0     C35377   1.516   6.151   4.794  0.4259 -0.3328 -0.6647
  257MOL0     C35378   1.427   6.048   4.788  0.3548 -0.1823 -0.9450
  257MOL0     N35379   0.607   5.866   4.496  0.4696  0.0494  0.4856
  257MOL0     N35380   0.490   5.837   4.457  1.1597 -0.1844 -0.3757
  257MOL0     C35381  -0.157   6.072   3.583 -0.5648 -0.2389  0.2721
  257MOL0     C35382  -0.147   6.147   3.467 -0.5681  0.3388  0.2470
  257MOL0     C35383   0.080   6.216   3.051  0.0094  1.1919 -1.0120
  257MOL0     C35384  -0.034   6.230   2.972  0.4028  0.0342  0.0244
  257MOL0     C35385  -0.027   6.255   2.839 -0.3754  0.2101 -1.1733
  257MOL0     C35386   0.098   6.284   2.780 -0.1744 -0.0155  1.0045
  257MOL0     O35387   0.104   6.334   2.651  0.4492  0.2168 -0.4181
  257MOL0     C35388   0.208   6.300   2.569 -0.7363  0.5127  0.2608
  257MOL0     C35389   0.189   6.164   2.516 -0.0788 -0.3283 -0.5730
  257MOL0     C35390   0.073   6.155   2.416  0.2831 -0.4906 -0.4714
  257MOL0     C35391   0.123   6.197   2.280 -0.0154 -0.1875  0.7543
  257MOL0     C35392   0.011   6.204   2.182 -0.5036 -0.6827 -1.1747
  257MOL0     C35393  -0.085   6.230   2.112 -1.0543 -0.6624  0.3502
  257MOL0     C35394   0.212   6.276   2.864  0.7006 -0.8971  0.8200
  257MOL0     C35395   0.205   6.240   2.995 -0.4289 -0.9846  0.5417
  257MOL0     C35396   0.333   6.226   3.066 -0.1241  0.1296  0.3085
  257MOL0     H35397  -0.004   5.909   3.264  1.0539 -0.3530  0.8784
  257MOL0     H35398  -0.018   5.776   3.496  4.0411  0.6396  1.1051
  257MOL0     H35399  -0.092   5.903   3.918  2.8643  0.3348  1.0710
  257MOL0     H35400  -0.080   6.047   3.822  0.9909  0.0971  0.4591
  257MOL0     H35401   0.135   5.926   3.721 -1.0822  1.3430 -0.4320
  257MOL0     H35402   0.146   5.998   3.891 -1.1210  2.3362 -3.3908
  257MOL0     H35403   0.116   5.754   3.969  3.0067 -3.4031 -0.1442
  257MOL0     H35404   0.121   5.714   3.792  0.1755  1.4853 -1.4571
  257MOL0     H35405   0.349   5.779   3.800 -1.9410 -2.1436 -0.4562
  257MOL0     H35406   0.339   5.883   3.947  2.0538 -0.7373 -0.3150
  257MOL0     H35407   0.456   5.654   3.972  0.3178  0.2045 -0.2987
  257MOL0     H35408   0.294   5.582   3.956  0.3961  1.0138 -2.4634
  257MOL0     H35409   0.384   5.793   4.155 -1.9431  1.4082 -0.1050
  257MOL0     H35410   0.218   5.731   4.152 -1.3751 -4.5849 -1.0368
  257MOL0     H35411   0.476   5.584   4.203  0.1167  0.0905 -0.3839
  257MOL0     H35412   0.314   5.504   4.197 -0.9011 -0.0597  0.8584
  257MOL0     H35413   0.265   5.681   4.388 -0.6421  0.4062  0.6442
  257MOL0     H35414   0.361   5.533   4.427 -0.5962 -0.0216 -1.2213
  257MOL0     H35415   0.652   5.547   4.430  1.2223 -0.4706  3.9633
  257MOL0     H35416   0.852   5.627   4.522 -1.6549 -1.1415 -0.2326
  257MOL0     H35417   0.818   5.746   4.645  0.0527  1.7445 -1.4791
  257MOL0     H35418   0.966   5.770   4.396 -0.3099 -0.7970 -0.2049
  257MOL0     H35419   0.910   5.924   4.488 -2.8188 -0.4646  1.6245
  257MOL0     H35420   1.034   5.786   4.684  3.0838 -0.6608  0.7084
  257MOL0     H35421   1.122   5.718   4.554  2.0270  0.7940 -1.6324
  257MOL0     H35422   1.223   5.925   4.495 -2.0762 -0.0848 -1.1904
  257MOL0     H35423   1.090   6.023   4.561 -1.8873 -0.4559  0.7069
  257MOL0     H35424   1.186   6.190   4.600 -0.9896 -1.0641  1.9200
  257MOL0     H35425   1.235   6.439   4.613 -2.2907 -3.4043 -2.9898
  257MOL0     H35426   1.332   6.384   4.474  3.7335  1.1441  0.0580
  257MOL0     H35427   1.413   6.481   4.594  0.8260 -0.5624 -1.0081
  257MOL0     H35428   1.645   6.707   4.567  0.9175  2.6486  0.4895
  257MOL0     H35429   1.851   6.839   4.564 -1.4524  0.0589  0.9490
  257MOL0     H35430   2.064   6.912   4.538  0.6113 -2.8130 -0.9004
  257MOL0     H35431   2.022   6.929   4.706  1.7901  0.8124  1.0263
  257MOL0     H35432   2.218   7.063   4.642  1.4605  0.0908 -0.4169
  257MOL0     H35433   2.236   6.968   4.778 -1.9130  1.3541 -0.0331
  257MOL0     H35434   2.378   6.932   4.510  0.0031  1.1944  0.4793
  257MOL0     H35435   2.334   6.777   4.579  1.6734 -1.0847  1.1033
  257MOL0     H35436   2.450   6.808   4.779  2.3264  0.5876  0.6155
  257MOL0     H35437   2.473   6.978   4.756 -1.8337  0.5630  0.7801
  257MOL0     H35438   2.663   6.811   4.724 -2.4076 -1.4135  1.3522
  257MOL0     H35439   2.592   6.747   4.575  0.7151 -0.5854  0.8276
  257MOL0     H35440   2.726   6.998   4.655  0.4603  2.9634 -1.1386
  257MOL0     H35441   2.595   7.037   4.538  0.5460  0.3881 -1.0014
  257MOL0     H35442   2.791   6.997   4.391  2.1237 -0.0045  0.6521
  257MOL0     H35443   2.706   6.840   4.394  1.6491 -0.1432 -2.0748
  257MOL0     H35444   2.885   6.774   4.568  1.3444  1.8746  1.9398
  257MOL0     H35445   2.949   6.939   4.557 -0.3749  0.5200 -0.7762
  257MOL0     H35446   2.084   6.488   4.660 -1.7382 -2.4555 -0.8544
  257MOL0     H35447   1.880   6.369   4.670 -1.1572  0.7075 -0.1792
  257MOL0     H35448   1.609   6.148   4.849  1.0273  2.1625 -1.3983
  257MOL0     H35449   1.462   5.957   4.836 -2.0789  0.1580  1.7424
  257MOL0     H35450  -0.208   6.103   3.673  0.3874  0.7741  0.4792
  257MOL0     H35451  -0.186   6.247   3.446 -0.0101  0.6671  0.7280
  257MOL0     H35452  -0.133   6.223   3.016  0.2016 -1.2545 -0.5841
  257MOL0     H35453  -0.119   6.267   2.782  0.4679  0.7693 -2.4649
  257MOL0     H35454   0.206   6.371   2.485 -1.7737  0.3590  0.1510
  257MOL0     H35455   0.308   6.318   2.609 -0.0568  1.5438 -1.7377
  257MOL0     H35456   0.177   6.093   2.598  3.3548 -1.7075 -1.0797
  257MOL0     H35457   0.280   6.137   2.461 -1.6392 -2.5624 -2.2188
  257MOL0     H35458   0.053   6.048   2.421 -0.1723 -0.3499  2.5207
  257MOL0     H35459  -0.020   6.206   2.441  0.5855 -0.0583 -0.1987
  257MOL0     H35460   0.200   6.129   2.243 -0.2980 -0.2493  0.2656
  257MOL0     H35461   0.160   6.299   2.296 -1.0124  0.3219 -0.0419
  257MOL0     H35462  -0.169   6.266   2.055  0.8857 -0.5345 -2.6296
  257MOL0     H35463   0.310   6.300   2.826 -0.3458 -1.8716 -2.9027
  257MOL0     H35464   0.327   6.287   3.157 -2.9936 -1.3843  1.2439
  257MOL0     H35465   0.360   6.125   3.097 -2.0960 -0.2706  0.8365
  257MOL0     H35466   0.417   6.263   3.006  2.0921 -1.0530  2.4870
  258MOL0     O35467   2.734   2.668   8.415  0.0104  0.2170  0.2840
  258MOL0     C35468   2.726   2.736   8.312  0.6003 -0.3145  0.3390
  258MOL0     O35469   2.801   2.845   8.264  0.2944 -0.5328  0.8473
  258MOL0     C35470   2.913   2.875   8.343 -0.3705  1.1289 -0.4241
  258MOL0     C35471   3.047   2.841   8.300  0.7021  0.0662  0.3597
  258MOL0     C35472   3.159   2.896   8.370 -0.2466  0.2521 -0.7947
  258MOL0     C35473   3.151   2.970   8.485  0.2145  0.0618 -0.7987
  258MOL0     O35474   3.270   3.019   8.534 -0.6584 -0.1218  0.2079
  258MOL0     C35475   3.261   3.115   8.640 -1.3066 -0.3205  0.4890
  258MOL0     C35476   3.378   3.091   8.733 -0.0580 -0.3800  0.2986
  258MOL0     C35477   3.516   3.099   8.652  0.0475 -1.1384 -0.7118
  258MOL0     C35478   3.634   3.159   8.726  0.2535 -0.6299 -1.1014
  258MOL0     C35479   3.759   3.151   8.643  0.4424  0.5909  0.5918
  258MOL0     C35480   3.853   3.250   8.709  0.3403  0.6394  0.2181
  258MOL0     C35481   3.841   3.389   8.660  1.8339 -0.2789  0.6644
  258MOL0     C35482   3.929   3.416   8.534 -0.1974  0.0856 -0.6790
  258MOL0     N35483   4.072   3.386   8.536 -0.1988 -0.3941  0.1343
  258MOL0     C35484   4.167   3.483   8.558  0.1091  0.3311 -0.0948
  258MOL0     C35485   4.275   3.419   8.513 -0.5215 -0.2465  0.7308
  258MOL0     C35486   4.407   3.477   8.536  0.3647  0.4412 -0.4023
  258MOL0     C35487   4.475   3.402   8.655  0.1980  0.4910  0.8585
  258MOL0     C35488   4.633   3.417   8.663  0.4582 -0.8427  0.5461
  258MOL0     C35489   4.702   3.329   8.770  0.1424  0.0654 -0.7019
  258MOL0     O35490   4.684   3.385   8.900  0.2689 -0.2776  0.5466
  258MOL0     C35491   4.753   3.324   9.000 -0.2662  0.4026  0.6129
  258MOL0     C35492   4.742   3.377   9.129  0.0886  0.2633 -0.5389
  258MOL0     C35493   4.802   3.318   9.240 -0.4926  1.1124  0.4292
  258MOL0     C35494   4.783   3.398   9.372 -0.4841  0.1958 -1.1769
  258MOL0     C35495   4.875   3.197   9.232 -0.3073 -0.6100 -0.7039
  258MOL0     C35496   4.935   3.125   9.356  0.0618  0.0919  0.5095
  258MOL0     O35497   4.908   3.161   9.488 -0.1241  0.1246 -0.6486
  258MOL0     C35498   4.966   3.088   9.588 -0.2991  0.1372  0.0358
  258MOL0     C35499   4.963   2.948   9.603 -0.4196  0.4819 -0.1275
  258MOL0     C35500   5.033   2.879   9.698 -0.3054  0.0331  0.6515
  258MOL0     C35501   5.124   2.959   9.773 -0.5426  0.3309  0.0930
  258MOL0     O35502   5.204   2.925   9.875  0.9208  0.2038 -0.5118
  258MOL0     C35503   5.169   2.798   9.935 -0.3384  0.0392 -0.6485
  258MOL0     C35504   5.248   2.790  10.063 -0.1618  0.4704 -0.3028
  258MOL0     C35505   5.400   2.794  10.036  1.1939 -0.6635 -0.7310
  258MOL0     C35506   5.476   2.757  10.159  0.3950  0.0992  0.4643
  258MOL0     C35507   5.436   2.607  10.206  0.4601 -0.4282 -0.2188
  258MOL0     C35508   5.537   2.537  10.298  0.1621  0.1445 -0.5397
  258MOL0     C35509   5.562   2.610  10.430  0.0586  0.1362  0.3431
  258MOL0     C35510   5.699   2.587  10.470 -0.4635  0.2176  0.0526
  258MOL0    Cl35511   5.817   2.653  10.352 -0.0575  0.2230  0.1777
  258MOL0     C35512   5.129   3.093   9.757  0.6625  0.4650  0.6606
  258MOL0     C35513   5.039   3.162   9.678  0.2112  0.9000  1.3660
  258MOL0     O35514   5.001   3.028   9.327  0.0909 -0.4951 -0.1269
  258MOL0     C35515   4.868   3.133   9.106 -0.3225  0.5056  0.4052
  258MOL0     C35516   4.813   3.196   8.996 -0.0202 -0.5551 -0.0829
  258MOL0     N35517   4.243   3.296   8.459 -1.2263  0.3579  0.0239
  258MOL0     N35518   4.127   3.273   8.481 -0.0779 -0.3727 -0.6087
  258MOL0     C35519   3.019   3.004   8.526 -0.2188  0.2402  0.1093
  258MOL0     C35520   2.900   2.955   8.459 -0.1155  0.3939  0.0355
  258MOL0     C35521   2.612   2.683   8.230  0.3638  0.1622 -0.2628
  258MOL0     C35522   2.492   2.667   8.298 -0.5346  0.3056  0.1273
  258MOL0     C35523   2.390   2.590   8.246 -0.8203  0.3116 -0.1739
  258MOL0     C35524   2.399   2.532   8.120 -0.1001  0.1775 -0.6200
  258MOL0     O35525   2.281   2.463   8.095 -0.1422 -0.3591  0.2083
  258MOL0     C35526   2.252   2.410   7.961  0.2906 -0.1998 -0.6260
  258MOL0     C35527   2.311   2.273   7.938  0.1389 -0.7312 -0.0915
  258MOL0     C35528   2.225   2.181   7.837  0.4745  0.6858  0.0446
  258MOL0     C35529   2.300   2.054   7.783  0.1406 -1.0081 -0.2847
  258MOL0     C35530   2.381   1.994   7.890 -0.7817  1.0251 -0.0887
  258MOL0     C35531   2.434   1.932   7.978  0.2251 -0.3126 -0.6693
  258MOL0     C35532   2.516   2.564   8.042 -0.4493  0.2714 -0.0416
  258MOL0     C35533   2.626   2.640   8.097 -1.3143  0.4719  0.3358
  258MOL0     C35534   2.746   2.690   8.017 -0.5609  0.0221  1.0858
  258MOL0     H35535   3.066   2.802   8.200  3.4175  2.9885 -0.4684
  258MOL0     H35536   3.261   2.883   8.334  0.2184 -1.7807  1.0286
  258MOL0     H35537   3.164   3.115   8.692 -1.4996  1.2659  0.1830
  258MOL0     H35538   3.272   3.213   8.592 -1.6730 -0.8561 -0.7066
  258MOL0     H35539   3.370   3.160   8.817  0.9809  0.9879 -0.6828
  258MOL0     H35540   3.379   2.992   8.779 -1.6256  0.2232  1.7115
  258MOL0     H35541   3.553   3.004   8.612  2.5364  0.5185 -2.5544
  258MOL0     H35542   3.501   3.168   8.569 -0.6337  0.8710  1.0065
  258MOL0     H35543   3.605   3.263   8.745 -0.2809 -1.1765  1.5507
  258MOL0     H35544   3.654   3.108   8.821 -2.3533 -0.4980 -0.4035
  258MOL0     H35545   3.741   3.180   8.539  1.0376 -2.6036 -0.5112
  258MOL0     H35546   3.801   3.050   8.645 -0.7147  0.1062  1.7400
  258MOL0     H35547   3.829   3.251   8.816 -1.2291 -0.6848 -0.0792
  258MOL0     H35548   3.957   3.216   8.711  0.0310 -0.2690  1.3633
  258MOL0     H35549   3.859   3.458   8.743  0.1838 -1.3223  1.9691
  258MOL0     H35550   3.735   3.408   8.638  2.6069  2.2568 -1.4776
  258MOL0     H35551   3.877   3.376   8.446  0.9755 -0.1966 -1.2525
  258MOL0     H35552   3.913   3.523   8.523 -2.7487 -0.3564 -2.0730
  258MOL0     H35553   4.152   3.586   8.591 -0.8406  0.5870 -1.2693
  258MOL0     H35554   4.408   3.583   8.563 -2.5638  0.7452 -1.1118
  258MOL0     H35555   4.458   3.465   8.440  1.4082 -1.1973  0.3005
  258MOL0     H35556   4.435   3.422   8.755  1.9360  0.4490  1.5990
  258MOL0     H35557   4.453   3.296   8.643 -0.5313  0.6231  0.9791
  258MOL0     H35558   4.666   3.394   8.562 -0.8693  0.9193 -0.3356
  258MOL0     H35559   4.647   3.523   8.687 -2.9328  0.3098 -1.7782
  258MOL0     H35560   4.669   3.225   8.760  1.4331 -0.2829 -1.5579
  258MOL0     H35561   4.807   3.344   8.746  0.1163  0.2921 -0.6763
  258MOL0     H35562   4.684   3.467   9.148  0.6077  0.5950 -0.5259
  258MOL0     H35563   4.721   3.487   9.358 -1.2835 -0.5220 -2.4230
  258MOL0     H35564   4.881   3.427   9.411 -0.6080  2.3566 -2.2913
  258MOL0     H35565   4.722   3.346   9.447 -1.1273 -0.4146 -2.1001
  258MOL0     H35566   4.903   2.891   9.533  0.0442 -0.2843  0.0898
  258MOL0     H35567   5.022   2.772   9.711  0.7009  0.0874  2.2022
  258MOL0     H35568   5.061   2.787   9.950 -0.3632  0.4743 -0.4807
  258MOL0     H35569   5.203   2.717   9.870 -0.7321 -1.3159  0.7608
  258MOL0     H35570   5.205   2.858  10.138 -2.6726  0.0708 -1.2542
  258MOL0     H35571   5.219   2.698  10.114 -0.4829  0.8104  0.1412
  258MOL0     H35572   5.417   2.899  10.008  0.5795 -0.3116  0.1730
  258MOL0     H35573   5.434   2.741   9.947  0.6784  0.3677 -1.5717
  258MOL0     H35574   5.456   2.831  10.237  1.5160  1.3577 -0.4029
  258MOL0     H35575   5.583   2.755  10.137  0.5325  1.8144  0.8788
  258MOL0     H35576   5.336   2.610  10.249 -1.3193  0.7555 -3.9797
  258MOL0     H35577   5.434   2.543  10.117 -0.3166  2.7177 -2.6544
  258MOL0     H35578   5.625   2.524  10.236 -0.2648  1.6721 -1.5371
  258MOL0     H35579   5.497   2.440  10.328  1.7865 -0.0440  1.1733
  258MOL0     H35580   5.497   2.567  10.506 -0.3844  0.0940 -0.0556
  258MOL0     H35581   5.543   2.715  10.409  1.6993  0.4356  0.2003
  258MOL0     H35582   5.713   2.479  10.468  4.0061  0.6317 -0.3262
  258MOL0     H35583   5.721   2.622  10.571  1.7277  0.7105 -0.5455
  258MOL0     H35584   5.195   3.163   9.806 -0.7384  3.7880 -1.8256
  258MOL0     H35585   5.036   3.269   9.663  1.8688  0.5757 -2.4173
  258MOL0     H35586   4.906   3.032   9.090 -0.2245  0.4300  1.0616
  258MOL0     H35587   4.817   3.146   8.900  0.6754  0.4032 -0.5672
  258MOL0     H35588   2.995   3.081   8.599 -2.6002 -0.2012 -0.1287
  258MOL0     H35589   2.806   2.993   8.499 -0.2735  0.9681 -0.8661
  258MOL0     H35590   2.490   2.718   8.394  0.2655 -0.8759  0.7917
  258MOL0     H35591   2.292   2.591   8.292 -0.3564 -2.2706  1.0228
  258MOL0     H35592   2.143   2.401   7.955  0.4719 -1.7365 -2.4887
  258MOL0     H35593   2.291   2.485   7.891  0.6960 -0.4753 -0.6949
  258MOL0     H35594   2.339   2.214   8.025 -0.9281 -1.5439 -0.2708
  258MOL0     H35595   2.405   2.296   7.887  0.2427 -0.2670  0.3018
  258MOL0     H35596   2.126   2.150   7.872 -0.2190  0.9463 -1.6060
  258MOL0     H35597   2.190   2.239   7.751 -1.8742  0.0445  0.4881
  258MOL0     H35598   2.363   2.083   7.698  1.1530 -2.8725 -0.2112
  258MOL0     H35599   2.227   1.987   7.738 -0.1225 -0.9535  0.0576
  258MOL0     H35600   2.488   1.877   8.052  0.4586  0.3227 -0.3574
  258MOL0     H35601   2.535   2.530   7.941 -0.6652 -1.8509  0.5921
  258MOL0     H35602   2.729   2.795   7.989 -2.3523 -0.6995 -0.7763
  258MOL0     H35603   2.845   2.682   8.063  1.7962  4.7410 -2.2231
  258MOL0     H35604   2.758   2.624   7.931 -0.9777 -1.4628  2.1363
  259MOL0     O35605   1.015   5.593   1.490  0.1409  0.5091  0.2654
  259MOL0     C35606   0.937   5.684   1.462 -0.3642 -0.4802  0.3959
  259MOL0     O35607   0.957   5.788   1.370  0.2448 -0.2792 -0.2237
  259MOL0     C35608   1.080   5.804   1.328 -0.0957  0.2734  0.1609
  259MOL0     C35609   1.170   5.883   1.400 -0.2482 -0.6684 -0.6789
  259MOL0     C35610   1.301   5.905   1.356  0.1798  0.7896 -0.2893
  259MOL0     C35611   1.337   5.858   1.226 -0.0187  0.2062 -0.7367
  259MOL0     O35612   1.461   5.891   1.188 -0.5716  0.1039 -0.7772
  259MOL0     C35613   1.487   5.930   1.053  0.9082  0.0735  0.2707
  259MOL0     C35614   1.639   5.966   1.036  0.1546  0.0171 -0.3424
  259MOL0     C35615   1.678   6.094   1.095 -0.3189  0.4997 -0.7109
  259MOL0     C35616   1.831   6.109   1.075  0.0597 -1.1233  0.2633
  259MOL0     C35617   1.904   6.201   1.173 -1.0192 -0.5816  0.6624
  259MOL0     C35618   2.051   6.219   1.141  0.0216  0.5258 -0.5384
  259MOL0     C35619   2.128   6.316   1.230  0.1521  0.1469 -0.1198
  259MOL0     C35620   2.235   6.375   1.152  0.3361  0.0403  0.2906
  259MOL0     N35621   2.358   6.287   1.168 -0.4194  0.1922  0.0311
  259MOL0     C35622   2.416   6.217   1.074 -0.1120 -0.0836 -0.1612
  259MOL0     C35623   2.542   6.199   1.126 -0.8422  0.2419 -0.2307
  259MOL0     C35624   2.660   6.164   1.024 -0.2549 -0.6269 -0.7581
  259MOL0     C35625   2.717   6.294   0.966  0.0397 -1.4158  0.9979
  259MOL0     C35626   2.774   6.403   1.062  0.4609 -0.1399  0.3324
  259MOL0     C35627   2.827   6.527   0.986  0.8215 -0.1345  0.5251
  259MOL0     O35628   2.926   6.493   0.887  0.6945  0.0233  0.3149
  259MOL0     C35629   3.061   6.492   0.905 -0.4678 -0.6746 -0.4457
  259MOL0     C35630   3.143   6.445   0.809  0.0967  0.6455 -0.1246
  259MOL0     C35631   3.277   6.440   0.823 -0.4306 -0.7357  0.1446
  259MOL0     C35632   3.357   6.392   0.700 -0.9383 -0.2157  0.0938
  259MOL0     C35633   3.336   6.478   0.947  0.3799 -0.2158  0.4535
  259MOL0     C35634   3.474   6.470   0.996  0.3444  0.1313  0.6082
  259MOL0     O35635   3.496   6.477   1.132  0.2919  0.1458 -0.0892
  259MOL0     C35636   3.625   6.492   1.172 -0.0811 -0.7104  1.2632
  259MOL0     C35637   3.691   6.375   1.169  0.0261  0.3950  0.3141
  259MOL0     C35638   3.817   6.375   1.232  0.0277  0.2841 -0.0128
  259MOL0     C35639   3.877   6.491   1.283  0.6451  0.1311 -0.0914
  259MOL0     O35640   3.995   6.481   1.344 -0.4465 -0.2594 -0.0774
  259MOL0     C35641   4.080   6.601   1.356 -0.6800 -0.1632 -0.5884
  259MOL0     C35642   4.064   6.680   1.497 -0.8371 -0.0194  0.3057
  259MOL0     C35643   4.081   6.576   1.602 -0.3333 -0.6778 -0.0974
  259MOL0     C35644   4.081   6.657   1.736  0.1905  0.8162 -0.6410
  259MOL0     C35645   4.125   6.579   1.873  0.4103 -0.0070 -0.0180
  259MOL0     C35646   4.258   6.511   1.875  0.2286  0.3150  0.1511
  259MOL0     C35647   4.372   6.595   1.830  0.6341 -0.2158 -0.3797
  259MOL0     C35648   4.512   6.533   1.865 -0.6053  0.3455 -0.2527
  259MOL0    Cl35649   4.652   6.617   1.798  0.0220 -0.9946  0.2029
  259MOL0     C35650   3.807   6.611   1.276 -0.2144 -0.8049 -0.0730
  259MOL0     C35651   3.684   6.613   1.215 -0.1908  0.1835  0.2913
  259MOL0     O35652   3.560   6.444   0.917 -0.3016 -0.8482 -0.1397
  259MOL0     C35653   3.250   6.529   1.047 -0.1386  0.5407  0.7325
  259MOL0     C35654   3.116   6.540   1.027  0.9619  1.3616 -0.7813
  259MOL0     N35655   2.557   6.254   1.245 -0.9779  0.4110  0.6928
  259MOL0     N35656   2.438   6.293   1.276  0.0396  0.3502  0.1023
  259MOL0     C35657   1.250   5.786   1.149  0.4367  0.1304 -1.0959
  259MOL0     C35658   1.118   5.759   1.203  0.5360 -0.0755 -0.3237
  259MOL0     C35659   0.811   5.695   1.545 -1.0458 -0.6301 -0.3366
  259MOL0     C35660   0.769   5.828   1.590 -0.9947  0.1240  0.0220
  259MOL0     C35661   0.660   5.845   1.667 -0.1491  0.0140  0.2706
  259MOL0     C35662   0.577   5.735   1.697  0.2715  0.0851  0.5029
  259MOL0     O35663   0.472   5.766   1.772  0.2817 -0.1695  0.0247
  259MOL0     C35664   0.383   5.658   1.806  1.2141  0.6621 -0.1810
  259MOL0     C35665   0.272   5.690   1.906  0.5715 -0.3568 -0.3096
  259MOL0     C35666   0.333   5.731   2.032  0.5148 -0.2432 -0.3449
  259MOL0     C35667   0.219   5.735   2.135 -0.7716  0.1421  0.4306
  259MOL0     C35668   0.261   5.804   2.253 -0.0976  0.6101  0.2468
  259MOL0     C35669   0.318   5.862   2.342  0.2612 -0.6418  0.4909
  259MOL0     C35670   0.620   5.608   1.654 -1.0143  0.6307  0.0355
  259MOL0     C35671   0.735   5.585   1.584 -0.5815  0.9601  0.4653
  259MOL0     C35672   0.766   5.436   1.542 -0.9448 -0.0532  0.0005
  259MOL0     H35673   1.150   5.919   1.500  0.8136 -0.6415 -0.4634
  259MOL0     H35674   1.367   5.955   1.426 -0.3769  0.4998  0.4587
  259MOL0     H35675   1.439   6.021   1.016  4.1322  1.1022 -1.8972
  259MOL0     H35676   1.464   5.845   0.988  0.4536 -0.0357  0.5732
  259MOL0     H35677   1.696   5.889   1.089 -2.3222  1.1882  4.6533
  259MOL0     H35678   1.660   5.972   0.929  3.5536 -1.9338  0.0636
  259MOL0     H35679   1.623   6.178   1.053 -1.3212  0.3063  0.1436
  259MOL0     H35680   1.665   6.092   1.204  6.0973  0.6262  0.4400
  259MOL0     H35681   1.886   6.014   1.084 -0.3793 -1.2247  2.2193
  259MOL0     H35682   1.853   6.145   0.973  0.3661 -2.4264 -0.1534
  259MOL0     H35683   1.900   6.157   1.273  0.1173 -0.2000  0.8834
  259MOL0     H35684   1.865   6.303   1.163  2.8697  1.0737  0.6980
  259MOL0     H35685   2.098   6.123   1.162  0.1782  0.5638 -0.7132
  259MOL0     H35686   2.068   6.236   1.034  1.9387 -0.6828 -0.4881
  259MOL0     H35687   2.155   6.261   1.321 -5.1397 -0.4426  1.4401
  259MOL0     H35688   2.061   6.401   1.246  0.6258  1.0870 -2.6622
  259MOL0     H35689   2.209   6.400   1.049 -2.2138 -0.4250  0.7457
  259MOL0     H35690   2.278   6.465   1.196  3.0909 -0.5256 -1.0334
  259MOL0     H35691   2.380   6.204   0.973 -1.8091  0.5196  0.3374
  259MOL0     H35692   2.619   6.098   0.946 -1.9503  0.2504 -0.6557
  259MOL0     H35693   2.739   6.118   1.083 -2.5017 -1.5370  1.7422
  259MOL0     H35694   2.799   6.269   0.897 -1.9229  1.2309 -2.6758
  259MOL0     H35695   2.636   6.341   0.910  2.0524  1.3267  0.1389
  259MOL0     H35696   2.697   6.444   1.129  1.5297  0.5000  1.2226
  259MOL0     H35697   2.853   6.368   1.130 -0.2184  0.2177  1.3317
  259MOL0     H35698   2.744   6.577   0.934  0.2190 -3.0748 -1.5789
  259MOL0     H35699   2.851   6.605   1.059 -1.7262 -1.3391  2.8611
  259MOL0     H35700   3.103   6.413   0.713  1.9240  1.8607 -1.3529
  259MOL0     H35701   3.309   6.396   0.602  0.9026  3.5327 -0.8286
  259MOL0     H35702   3.395   6.290   0.717  1.8114  0.7748  0.4671
  259MOL0     H35703   3.442   6.459   0.685 -2.0301  1.5606  1.5798
  259MOL0     H35704   3.649   6.283   1.129  1.5177  0.6815 -2.1378
  259MOL0     H35705   3.869   6.281   1.250 -0.6562 -1.0411 -3.9413
  259MOL0     H35706   4.185   6.568   1.357  0.4114  2.9702 -0.2251
  259MOL0     H35707   4.070   6.679   1.280  2.9692 -1.0312 -2.2088
  259MOL0     H35708   4.140   6.759   1.507 -1.9255  1.2731 -1.1901
  259MOL0     H35709   3.968   6.731   1.510 -1.7231 -1.2095 -1.2716
  259MOL0     H35710   4.179   6.529   1.592  0.2790  0.2832  1.1037
  259MOL0     H35711   3.992   6.513   1.607 -1.2428  0.6684  1.5433
  259MOL0     H35712   3.980   6.682   1.768  0.1662 -0.5241  0.4034
  259MOL0     H35713   4.147   6.744   1.730  0.7682  0.3303 -1.5819
  259MOL0     H35714   4.118   6.650   1.957 -2.9589  1.4461 -1.3584
  259MOL0     H35715   4.048   6.509   1.906  0.1066  0.4677  0.2983
  259MOL0     H35716   4.258   6.422   1.811 -2.2694 -1.2429  2.1248
  259MOL0     H35717   4.280   6.498   1.981 -1.5078  0.5523  0.5773
  259MOL0     H35718   4.360   6.696   1.871 -0.6778 -0.3408 -0.4229
  259MOL0     H35719   4.378   6.598   1.720  1.8103  1.9481 -0.3281
  259MOL0     H35720   4.502   6.430   1.830 -0.4131  0.4079 -0.4959
  259MOL0     H35721   4.524   6.530   1.973  0.2724 -3.0081 -0.3406
  259MOL0     H35722   3.837   6.709   1.313 -1.2302  0.0331 -1.3764
  259MOL0     H35723   3.632   6.708   1.202 -3.0884 -1.5976 -2.4414
  259MOL0     H35724   3.290   6.578   1.135 -2.1438  0.3233  1.8258
  259MOL0     H35725   3.064   6.577   1.115 -1.5084 -1.7598 -0.7395
  259MOL0     H35726   1.285   5.742   1.056  4.0348  1.0793 -0.3246
  259MOL0     H35727   1.056   5.699   1.136  1.8733 -1.5660 -0.2832
  259MOL0     H35728   0.834   5.908   1.554  4.0454 -3.5607 -0.2236
  259MOL0     H35729   0.637   5.945   1.701 -1.6004 -0.7699  1.7500
  259MOL0     H35730   0.330   5.634   1.713 -0.3371  0.9389  0.5842
  259MOL0     H35731   0.437   5.573   1.846 -1.4436  0.2019  2.9093
  259MOL0     H35732   0.209   5.603   1.925  0.1066  0.4881  2.6371
  259MOL0     H35733   0.219   5.780   1.873  0.2807  0.4874  2.2346
  259MOL0     H35734   0.412   5.657   2.052  1.4607  0.7130 -0.4791
  259MOL0     H35735   0.386   5.823   2.009  0.1793 -0.2963 -1.4039
  259MOL0     H35736   0.195   5.629   2.150  0.5718 -0.1999  0.3011
  259MOL0     H35737   0.132   5.787   2.095 -0.5800  0.5405  0.5323
  259MOL0     H35738   0.372   5.917   2.416 -1.4634  0.7492  0.8106
  259MOL0     H35739   0.563   5.518   1.677 -0.3971 -0.3669 -2.0208
  259MOL0     H35740   0.797   5.417   1.439 -0.3665 -0.8608  0.3175
  259MOL0     H35741   0.840   5.396   1.612 -1.7864  0.7807  1.4228
  259MOL0     H35742   0.673   5.378   1.553 -1.0410  0.2844  1.1277
  260MOL0     O35743   4.787  11.141   8.625 -0.7608  0.1048 -0.0720
  260MOL0     C35744   4.734  11.247   8.579  0.5659  0.3200  0.4432
  260MOL0     O35745   4.795  11.341   8.511 -0.3976  1.0470  0.2361
  260MOL0     C35746   4.932  11.313   8.492  1.0526 -0.3263 -0.2860
  260MOL0     C35747   4.978  11.280   8.366 -0.4741 -0.0245  0.2426
  260MOL0     C35748   5.115  11.266   8.347 -0.4380  0.3712  0.3389
  260MOL0     C35749   5.204  11.294   8.451 -1.1456 -0.3022  0.0202
  260MOL0     O35750   5.342  11.287   8.455 -0.0708  0.1134 -0.2725
  260MOL0     C35751   5.414  11.276   8.336 -0.0060  0.2914  0.2085
  260MOL0     C35752   5.430  11.131   8.291 -0.1853 -0.0651  0.2576
  260MOL0     C35753   5.569  11.068   8.329  0.3174  0.3298  0.0167
  260MOL0     C35754   5.564  11.001   8.473  0.7996 -0.3340 -0.0146
  260MOL0     C35755   5.686  10.908   8.509 -0.1449  1.3637  0.4274
  260MOL0     C35756   5.800  10.992   8.575 -0.2963 -0.3244 -0.5527
  260MOL0     C35757   5.883  10.894   8.654 -0.4151  0.5988 -0.5163
  260MOL0     C35758   5.994  10.823   8.562  1.0117  0.6639 -0.9677
  260MOL0     N35759   6.035  10.706   8.642 -0.0913  0.1241 -0.3653
  260MOL0     C35760   6.132  10.707   8.735  0.2988  0.4762  0.1921
  260MOL0     C35761   6.177  10.582   8.761  0.7090  0.0034 -0.0301
  260MOL0     C35762   6.293  10.540   8.840  0.0370  0.2979  0.5428
  260MOL0     C35763   6.308  10.385   8.851  0.1035 -0.1691 -0.4270
  260MOL0     C35764   6.427  10.345   8.927  0.4145 -0.0956  0.0019
  260MOL0     C35765   6.571  10.355   8.852  0.0558  0.1491 -0.9960
  260MOL0     O35766   6.673  10.303   8.941  0.6448 -0.0857  0.1750
  260MOL0     C35767   6.800  10.276   8.894 -0.1112 -0.4797 -1.2459
  260MOL0     C35768   6.898  10.248   8.991 -0.1627 -0.2256  0.0697
  260MOL0     C35769   7.033  10.213   8.966 -0.3740  0.3596 -0.5594
  260MOL0     C35770   7.123  10.182   9.077 -0.3830 -0.3410  0.0924
  260MOL0     C35771   7.077  10.218   8.832  0.3375  0.0576  0.1372
  260MOL0     C35772   7.211  10.196   8.785  0.0783  0.1866  0.4911
  260MOL0     O35773   7.208  10.129   8.672 -0.3164  0.2984 -0.1718
  260MOL0     C35774   7.317  10.046   8.651  0.0693 -0.0673 -0.4561
  260MOL0     C35775   7.401  10.068   8.538  1.0942  0.7403  0.2237
  260MOL0     C35776   7.502   9.976   8.508  1.1588 -0.3189 -0.6582
  260MOL0     C35777   7.524   9.864   8.584  0.4008 -0.4980 -0.5981
  260MOL0     O35778   7.641   9.790   8.562  0.4574  0.8980  0.5056
  260MOL0     C35779   7.655   9.648   8.599 -0.8658 -0.0141 -0.0023
  260MOL0     C35780   7.803   9.601   8.582  0.2879  0.1497  0.1993
  260MOL0     C35781   7.917   9.661   8.668  0.3216 -0.1511 -0.0597
  260MOL0     C35782   7.880   9.658   8.818  0.3653 -0.7253  0.0882
  260MOL0     C35783   7.995   9.718   8.896 -0.1544 -0.0251  0.2288
  260MOL0     C35784   7.977   9.730   9.045 -0.6602 -1.4266  0.0389
  260MOL0     C35785   8.116   9.768   9.108 -0.0656 -1.0189  0.1724
  260MOL0     C35786   8.125   9.916   9.128  0.2942 -0.3015  0.6823
  260MOL0    Cl35787   8.186   9.998   8.992 -0.4801  0.0478 -0.1178
  260MOL0     C35788   7.445   9.835   8.696  0.1024 -0.0334  1.0407
  260MOL0     C35789   7.349   9.929   8.730 -0.0235  0.3582  0.5034
  260MOL0     O35790   7.307  10.232   8.851 -0.1029  0.2994  0.2427
  260MOL0     C35791   6.984  10.259   8.732  0.2303  0.3726  0.1325
  260MOL0     C35792   6.845  10.273   8.760 -0.4490 -0.6664 -0.4024
  260MOL0     N35793   6.081  10.504   8.684  0.1381 -0.3552  0.6302
  260MOL0     N35794   6.000  10.580   8.624  0.4636 -0.4511  0.4411
  260MOL0     C35795   5.157  11.336   8.571 -0.1321  0.3912  0.1849
  260MOL0     C35796   5.019  11.351   8.591 -0.0803  0.5405  0.4465
  260MOL0     C35797   4.589  11.248   8.582  0.1617  0.2087  0.3784
  260MOL0     C35798   4.523  11.348   8.507 -0.4288 -0.1772 -1.2009
  260MOL0     C35799   4.383  11.364   8.519 -0.3912  0.0440 -0.2570
  260MOL0     C35800   4.305  11.281   8.606  0.7535  0.2760 -0.1503
  260MOL0     O35801   4.168  11.290   8.621  0.2385  0.3320  1.0720
  260MOL0     C35802   4.092  11.392   8.543  0.7225 -0.2774 -0.0848
  260MOL0     C35803   3.966  11.421   8.621  0.0844  0.8717  0.1576
  260MOL0     C35804   3.886  11.533   8.559  1.1037  0.9404  0.8071
  260MOL0     C35805   3.960  11.665   8.538  0.5125  0.8583  0.0109
  260MOL0     C35806   3.872  11.773   8.490  0.5452 -0.4345  0.6332
  260MOL0     C35807   3.795  11.854   8.442 -0.0720 -0.0501  0.1111
  260MOL0     C35808   4.368  11.182   8.678  0.6203  0.1325  1.4512
  260MOL0     C35809   4.507  11.166   8.676  0.1201  0.0774 -0.4885
  260MOL0     C35810   4.561  11.078   8.780  0.4932 -0.1622  0.3944
  260MOL0     H35811   4.911  11.251   8.286 -0.8587  1.6567 -0.0858
  260MOL0     H35812   5.143  11.223   8.251 -1.9794  0.4608 -0.1774
  260MOL0     H35813   5.512  11.315   8.367  0.6801 -0.8539 -0.4528
  260MOL0     H35814   5.374  11.341   8.258 -0.1742 -0.2533 -0.1646
  260MOL0     H35815   5.342  11.068   8.310  0.0260 -0.3005  0.4647
  260MOL0     H35816   5.426  11.145   8.182 -2.9264  0.3422  0.3362
  260MOL0     H35817   5.586  10.989   8.255 -2.3831 -1.2076  0.8882
  260MOL0     H35818   5.648  11.144   8.325 -1.4068  2.1539 -1.9808
  260MOL0     H35819   5.538  11.081   8.544  1.0052 -0.4711  0.2166
  260MOL0     H35820   5.477  10.935   8.481 -0.8568  1.9530  2.6868
  260MOL0     H35821   5.713  10.855   8.417  1.2490  0.3855  1.3693
  260MOL0     H35822   5.635  10.838   8.576 -1.9391  1.7007 -0.5088
  260MOL0     H35823   5.880  11.038   8.516  2.1371 -2.3904  0.9124
  260MOL0     H35824   5.761  11.070   8.641  2.6518 -1.2748  2.6286
  260MOL0     H35825   5.822  10.822   8.709  0.1542  1.7622  1.7780
  260MOL0     H35826   5.938  10.963   8.719 -1.9749 -0.0478  1.6139
  260MOL0     H35827   5.951  10.781   8.471 -0.1229 -0.1892 -0.0684
  260MOL0     H35828   6.077  10.893   8.544  0.6227  2.5595  3.3040
  260MOL0     H35829   6.169  10.803   8.771  0.0716  0.2658  1.0115
  260MOL0     H35830   6.287  10.585   8.939  2.2265 -0.2291  0.9809
  260MOL0     H35831   6.386  10.574   8.792 -0.2814 -2.4021 -2.2819
  260MOL0     H35832   6.233  10.358   8.925  0.4439  0.4080  0.1393
  260MOL0     H35833   6.296  10.336   8.754 -0.1384 -1.9019  0.4472
  260MOL0     H35834   6.431  10.399   9.022 -0.4227  2.3162 -1.2620
  260MOL0     H35835   6.419  10.239   8.952 -0.0585  0.0701  0.5842
  260MOL0     H35836   6.569  10.285   8.768  0.1262 -2.0935  0.7632
  260MOL0     H35837   6.598  10.450   8.806 -0.4539  1.4429  1.2369
  260MOL0     H35838   6.869  10.253   9.096  0.3680 -1.5169  0.2980
  260MOL0     H35839   7.190  10.105   9.038 -2.0771 -1.4700 -0.7310
  260MOL0     H35840   7.067  10.139   9.160 -0.5978  1.1786  0.7568
  260MOL0     H35841   7.175  10.275   9.102  0.4986 -0.5235 -0.9858
  260MOL0     H35842   7.385  10.156   8.478  0.4551  0.4229 -0.0716
  260MOL0     H35843   7.556   9.986   8.414  0.5736 -2.7515 -1.3189
  260MOL0     H35844   7.623   9.624   8.700 -0.6741 -1.1126 -0.1927
  260MOL0     H35845   7.591   9.583   8.538 -2.5682  2.3167 -0.8336
  260MOL0     H35846   7.802   9.495   8.608 -1.4000  0.5093  1.8444
  260MOL0     H35847   7.821   9.605   8.474 -3.1008  0.0100 -0.4750
  260MOL0     H35848   7.929   9.767   8.646 -1.5225  1.2375  4.4239
  260MOL0     H35849   8.013   9.611   8.658  0.6538  0.7438 -1.5586
  260MOL0     H35850   7.854   9.558   8.855  1.6261 -1.3587 -0.7010
  260MOL0     H35851   7.791   9.717   8.843 -0.0486 -0.5755 -1.6133
  260MOL0     H35852   8.069   9.639   8.881  0.1031  0.3061 -0.3046
  260MOL0     H35853   8.017   9.820   8.862  2.4177 -0.3807  0.6035
  260MOL0     H35854   7.938   9.642   9.098  0.0805  0.0916  3.3953
  260MOL0     H35855   7.907   9.811   9.069  1.1702  0.1455  0.2966
  260MOL0     H35856   8.193   9.744   9.033 -1.7736 -1.3978 -1.5199
  260MOL0     H35857   8.128   9.728   9.209 -1.4774  2.4572  1.8701
  260MOL0     H35858   8.189   9.951   9.209 -3.1991  1.7581  2.7825
  260MOL0     H35859   8.025   9.955   9.147  0.4158  0.2555  0.2126
  260MOL0     H35860   7.466   9.747   8.756 -3.8051 -3.8771 -2.5438
  260MOL0     H35861   7.296   9.906   8.822 -2.5919  1.8427 -0.5038
  260MOL0     H35862   7.022  10.263   8.630 -0.2451 -0.2103 -0.0773
  260MOL0     H35863   6.769  10.292   8.685  1.1967 -0.7946 -2.1764
  260MOL0     H35864   5.232  11.364   8.644 -1.3073 -0.0414  1.6016
  260MOL0     H35865   4.986  11.381   8.690 -0.3357 -1.0174  0.8585
  260MOL0     H35866   4.574  11.406   8.430 -1.7761 -1.5270 -3.2104
  260MOL0     H35867   4.344  11.454   8.472  0.9301  3.2409  4.0944
  260MOL0     H35868   4.146  11.487   8.531  0.0877  0.0775 -0.2223
  260MOL0     H35869   4.055  11.352   8.449  2.6382  2.5287 -2.2192
  260MOL0     H35870   3.990  11.439   8.727  0.9186 -1.0372  0.3289
  260MOL0     H35871   3.910  11.327   8.617  1.5236 -0.0122  0.1828
  260MOL0     H35872   3.843  11.503   8.463  0.9838  2.4896  0.3543
  260MOL0     H35873   3.806  11.547   8.633 -0.5103 -0.2122 -0.6151
  260MOL0     H35874   4.041  11.662   8.465 -0.8001 -0.7949 -1.4885
  260MOL0     H35875   3.986  11.696   8.640 -1.6575 -1.2212  1.3208
  260MOL0     H35876   3.745  11.936   8.395  4.4422  3.0100  0.0650
  260MOL0     H35877   4.310  11.115   8.742 -0.2767 -1.4286 -0.8775
  260MOL0     H35878   4.641  11.136   8.829 -0.0625  1.6613 -0.7624
  260MOL0     H35879   4.482  11.050   8.850 -1.1175  2.0520 -0.4216
  260MOL0     H35880   4.613  10.994   8.734  4.1510  2.8949 -1.7306
  261MOL0     O35881  11.187   8.002   0.349  0.0512 -0.8452  0.0525
  261MOL0     C35882  11.285   8.014   0.280 -0.0075  0.1276  0.5294
  261MOL0     O35883  11.318   7.925   0.178  0.3921 -0.5413 -0.0455
  261MOL0     C35884  11.258   7.799   0.186 -0.0252 -1.0252  0.2147
  261MOL0     C35885  11.332   7.686   0.232  0.9780 -0.1200 -0.4696
  261MOL0     C35886  11.271   7.564   0.236  0.0057  0.7109 -0.5413
  261MOL0     C35887  11.141   7.540   0.194 -0.2409  0.9238  0.3766
  261MOL0     O35888  11.079   7.415   0.208 -0.4592  0.0187  0.1073
  261MOL0     C35889  10.937   7.416   0.196 -0.1675  0.3442  0.3291
  261MOL0     C35890  10.885   7.281   0.254 -0.1066 -0.3241 -0.3294
  261MOL0     C35891  10.767   7.222   0.176 -0.2638  0.8790 -0.4213
  261MOL0     C35892  10.704   7.102   0.264  0.4095 -0.1508  0.1805
  261MOL0     C35893  10.637   6.993   0.177 -0.4544  0.7376 -0.2550
  261MOL0     C35894  10.722   6.887   0.108 -0.0055  0.5686  0.6944
  261MOL0     C35895  10.630   6.813   0.013  0.1669  0.2262  0.0970
  261MOL0     C35896  10.703   6.716  -0.081  0.8725  0.4405  0.6748
  261MOL0     N35897  10.614   6.629  -0.163  0.5923 -0.3187 -0.2286
  261MOL0     C35898  10.515   6.536  -0.123 -0.1852  0.4891 -0.2785
  261MOL0     C35899  10.472   6.471  -0.234  0.7746  1.1003  0.2624
  261MOL0     C35900  10.383   6.351  -0.242  1.4538 -0.4252  0.5922
  261MOL0     C35901  10.232   6.378  -0.282 -0.8650 -0.0745 -0.5102
  261MOL0     C35902  10.220   6.454  -0.409 -0.0532 -0.2284 -0.4433
  261MOL0     C35903  10.071   6.444  -0.445 -0.1782  0.2721  0.1420
  261MOL0     O35904   9.992   6.504  -0.344  0.4070  0.0764  0.1342
  261MOL0     C35905   9.869   6.545  -0.385  0.3371  0.0335  0.4889
  261MOL0     C35906   9.853   6.683  -0.399  0.4732  0.6636 -0.5002
  261MOL0     C35907   9.733   6.737  -0.445 -1.1286 -0.7435  0.4162
  261MOL0     C35908   9.729   6.883  -0.483  0.3201  0.0719  0.8647
  261MOL0     C35909   9.625   6.644  -0.480 -0.1438 -0.0967 -0.5094
  261MOL0     C35910   9.484   6.670  -0.539  0.0333  0.0155 -1.0498
  261MOL0     O35911   9.412   6.558  -0.571 -0.7432 -0.1927 -0.6986
  261MOL0     C35912   9.279   6.582  -0.593 -0.4790  0.3995 -0.2710
  261MOL0     C35913   9.180   6.520  -0.510  0.4565  0.8999  0.1162
  261MOL0     C35914   9.043   6.537  -0.538  0.3477  0.0947  0.0521
  261MOL0     C35915   9.001   6.607  -0.647  1.4713 -0.5380  0.0879
  261MOL0     O35916   8.869   6.617  -0.690 -0.0427 -0.2445  0.0818
  261MOL0     C35917   8.783   6.696  -0.616 -0.7099 -0.1931  0.7743
  261MOL0     C35918   8.778   6.835  -0.664  0.3663  0.6153  0.6404
  261MOL0     C35919   8.761   6.850  -0.813  0.2552 -1.0444  0.2797
  261MOL0     C35920   8.735   6.994  -0.854 -1.1917 -0.5876  0.2226
  261MOL0     C35921   8.723   7.002  -1.010  0.2712 -0.5026  0.3551
  261MOL0     C35922   8.583   6.934  -1.037 -0.1624 -0.1004 -0.6888
  261MOL0     C35923   8.547   6.938  -1.184  0.1361 -0.3044 -0.4597
  261MOL0     C35924   8.484   7.074  -1.223  0.0441  0.3308  0.5381
  261MOL0    Cl35925   8.305   7.099  -1.185 -0.0098 -0.0348  0.3597
  261MOL0     C35926   9.095   6.671  -0.732 -0.3503  0.8742 -0.4711
  261MOL0     C35927   9.231   6.664  -0.701 -0.2023  0.4574 -1.2696
  261MOL0     O35928   9.439   6.784  -0.537  0.0992 -0.1739 -0.3894
  261MOL0     C35929   9.650   6.508  -0.452  0.4198 -0.2710 -0.1160
  261MOL0     C35930   9.771   6.463  -0.413  0.6247 -0.1761 -0.4265
  261MOL0     N35931  10.525   6.544  -0.338 -0.1981  1.1047  0.2610
  261MOL0     N35932  10.610   6.633  -0.293 -0.1521 -0.4281  0.4521
  261MOL0     C35933  11.076   7.651   0.146  0.2534 -0.0449 -0.0790
  261MOL0     C35934  11.129   7.777   0.149 -0.6919 -0.3391  0.1118
  261MOL0     C35935  11.358   8.141   0.289 -0.7892 -0.9528  0.3100
  261MOL0     C35936  11.287   8.262   0.290 -0.2131  0.2099 -0.4447
  261MOL0     C35937  11.359   8.381   0.284 -0.2450 -0.2419 -0.5861
  261MOL0     C35938  11.508   8.381   0.273  0.5265  0.3575 -0.0874
  261MOL0     O35939  11.590   8.493   0.279  0.3137 -1.1126 -0.1344
  261MOL0     C35940  11.529   8.608   0.337 -0.5054  0.3004  0.1105
  261MOL0     C35941  11.490   8.603   0.485  0.3640  0.0589 -0.3634
  261MOL0     C35942  11.362   8.686   0.489  0.2744  0.5880 -0.5329
  261MOL0     C35943  11.315   8.686   0.636  0.8616 -0.1374  0.3840
  261MOL0     C35944  11.412   8.751   0.722  0.2065  0.1019  1.2127
  261MOL0     C35945  11.473   8.810   0.810 -0.7898  0.0851  0.5660
  261MOL0     C35946  11.574   8.262   0.280  0.5423  1.3673 -0.2584
  261MOL0     C35947  11.500   8.140   0.284 -0.2355  1.0062 -0.2579
  261MOL0     C35948  11.586   8.018   0.268 -0.3203 -0.5232 -0.7766
  261MOL0     H35949  11.438   7.683   0.257  1.3307  0.5022 -1.8174
  261MOL0     H35950  11.321   7.476   0.277 -3.8252 -0.4204  2.2677
  261MOL0     H35951  10.909   7.430   0.092  0.9937  1.8935  0.1858
  261MOL0     H35952  10.890   7.498   0.252 -1.1805 -0.0489  0.0569
  261MOL0     H35953  10.958   7.200   0.256 -0.3481 -0.5379 -0.2568
  261MOL0     H35954  10.847   7.297   0.355 -0.2132  1.1345 -0.5770
  261MOL0     H35955  10.698   7.306   0.163 -1.6320 -0.1386  0.1336
  261MOL0     H35956  10.807   7.178   0.084 -5.1168 -0.6233 -2.1378
  261MOL0     H35957  10.769   7.053   0.337  0.6205  1.8114  1.3931
  261MOL0     H35958  10.619   7.144   0.319 -0.4387 -2.4988  0.7658
  261MOL0     H35959  10.594   7.059   0.100 -2.2011 -0.0842 -0.0294
  261MOL0     H35960  10.560   6.945   0.237  2.6967 -2.2312  1.7688
  261MOL0     H35961  10.793   6.944   0.048 -2.9040  2.7866 -0.8766
  261MOL0     H35962  10.779   6.837   0.188  1.2339  1.7969  0.6199
  261MOL0     H35963  10.571   6.881  -0.049 -2.6169 -2.2951 -0.2452
  261MOL0     H35964  10.569   6.752   0.080  3.0991 -0.8423  2.0273
  261MOL0     H35965  10.755   6.777  -0.156  1.7672 -0.2703  0.7031
  261MOL0     H35966  10.778   6.657  -0.027  0.6437  2.3979  3.3803
  261MOL0     H35967  10.488   6.515  -0.020 -1.7145 -0.0872 -0.7717
  261MOL0     H35968  10.385   6.301  -0.145  0.2131 -1.1256  0.2817
  261MOL0     H35969  10.427   6.281  -0.313 -0.0658 -1.0107  0.1794
  261MOL0     H35970  10.182   6.283  -0.304 -2.3707  0.8120 -1.0126
  261MOL0     H35971  10.190   6.431  -0.196 -1.6408 -0.6855 -0.4991
  261MOL0     H35972  10.238   6.562  -0.401  0.8416 -0.3121 -1.1789
  261MOL0     H35973  10.278   6.418  -0.494 -4.1716 -1.6037 -2.9713
  261MOL0     H35974  10.047   6.492  -0.540 -2.0003  0.4177  0.6347
  261MOL0     H35975  10.046   6.338  -0.455  0.0311  0.4209 -2.4159
  261MOL0     H35976   9.942   6.735  -0.367  0.1359  0.5912  0.5839
  261MOL0     H35977   9.637   6.920  -0.437 -0.4059 -3.0778  2.2283
  261MOL0     H35978   9.715   6.896  -0.591 -0.9641  1.9475  1.2132
  261MOL0     H35979   9.818   6.944  -0.464 -0.8299  3.1838 -2.6420
  261MOL0     H35980   9.207   6.450  -0.432 -4.3376  0.7197  1.9249
  261MOL0     H35981   8.971   6.473  -0.487 -0.5016  0.9930  0.0178
  261MOL0     H35982   8.680   6.658  -0.615 -0.7066 -0.1943  1.2342
  261MOL0     H35983   8.806   6.704  -0.509 -1.3861  1.1983  0.8401
  261MOL0     H35984   8.679   6.869  -0.632 -0.6539 -2.2410  0.8885
  261MOL0     H35985   8.871   6.882  -0.632 -0.4655  0.9613  2.7240
  261MOL0     H35986   8.679   6.780  -0.833 -0.2911  0.1361 -1.8735
  261MOL0     H35987   8.845   6.813  -0.872  0.1057 -0.7914 -0.0913
  261MOL0     H35988   8.831   7.039  -0.826  1.1024 -4.6397 -0.3992
  261MOL0     H35989   8.654   7.050  -0.807  0.6028  2.9153 -0.4757
  261MOL0     H35990   8.721   7.110  -1.028 -0.7251  0.3481  4.5693
  261MOL0     H35991   8.805   6.951  -1.061 -0.3523 -0.1214 -1.0850
  261MOL0     H35992   8.505   6.985  -0.979  2.2914  3.2209 -0.0450
  261MOL0     H35993   8.589   6.829  -1.006  1.4041  0.4348  0.9603
  261MOL0     H35994   8.487   6.850  -1.210  2.7509 -2.4030  0.0959
  261MOL0     H35995   8.641   6.927  -1.238  0.1401 -1.4390 -0.2475
  261MOL0     H35996   8.491   7.091  -1.330  0.0867  4.3134  1.0307
  261MOL0     H35997   8.552   7.151  -1.183  0.8570 -0.6701  1.1426
  261MOL0     H35998   9.063   6.711  -0.827  1.9882  0.5930 -1.4320
  261MOL0     H35999   9.299   6.705  -0.775  1.1535  0.4832 -0.0532
  261MOL0     H36000   9.577   6.432  -0.478  2.1566 -1.4130 -1.8673
  261MOL0     H36001   9.795   6.358  -0.407  1.2450 -0.0066  0.2886
  261MOL0     H36002  10.975   7.645   0.106  0.4232  2.0074 -0.9824
  261MOL0     H36003  11.069   7.858   0.109 -0.4497  1.5050  3.1305
  261MOL0     H36004  11.179   8.254   0.289 -0.1231 -1.8544  0.9566
  261MOL0     H36005  11.309   8.476   0.294  1.9905  0.7723  3.2618
  261MOL0     H36006  11.607   8.685   0.335 -0.2351  0.0159 -0.7764
  261MOL0     H36007  11.452   8.645   0.269 -0.0604 -1.5757 -1.4976
  261MOL0     H36008  11.570   8.638   0.551 -0.6106  1.1646  0.2805
  261MOL0     H36009  11.462   8.506   0.526 -1.4319  0.2626 -1.0254
  261MOL0     H36010  11.393   8.784   0.451  0.6863  0.1157 -1.4673
  261MOL0     H36011  11.276   8.646   0.434 -0.0592  0.7997 -0.1663
  261MOL0     H36012  11.315   8.581   0.668  0.7495 -0.4513 -0.6138
  261MOL0     H36013  11.218   8.736   0.636  1.5202  1.3935 -2.5815
  261MOL0     H36014  11.516   8.858   0.897 -0.4802 -1.2138  1.1511
  261MOL0     H36015  11.682   8.263   0.272  0.4604  1.6133 -1.5137
  261MOL0     H36016  11.550   7.938   0.333 -0.6588 -0.9461 -1.4681
  261MOL0     H36017  11.579   7.973   0.169  1.9330 -1.1289 -0.7292
  261MOL0     H36018  11.692   8.042   0.283 -0.4406 -0.0282 -0.7168
  262MOL0     O36019   6.633  10.217   8.472  0.2311 -0.3314 -0.6471
  262MOL0     C36020   6.566  10.146   8.397  0.2592 -0.3889  0.8646
  262MOL0     O36021   6.605  10.033   8.341  0.2891 -0.1412 -0.0848
  262MOL0     C36022   6.723   9.970   8.352 -0.1252 -1.2596 -0.5196
  262MOL0     C36023   6.727   9.844   8.297 -0.2950  0.7344  2.3057
  262MOL0     C36024   6.842   9.764   8.303 -0.0849  0.3448  0.5300
  262MOL0     C36025   6.957   9.822   8.364 -0.1415 -0.0263  0.9904
  262MOL0     O36026   7.071   9.743   8.376  0.2421  0.6908  0.0883
  262MOL0     C36027   7.197   9.813   8.354 -0.6500 -0.1658  0.4574
  262MOL0     C36028   7.305   9.703   8.336  0.0882 -0.2752 -0.2790
  262MOL0     C36029   7.356   9.698   8.188 -0.3571 -0.1007  0.0443
  262MOL0     C36030   7.244   9.652   8.095 -0.7061 -0.3223 -0.9163
  262MOL0     C36031   7.273   9.671   7.946  0.1722 -0.2080  0.0662
  262MOL0     C36032   7.379   9.565   7.900  0.1481 -0.4687 -0.6316
  262MOL0     C36033   7.405   9.571   7.753  0.3659 -0.8324  0.0326
  262MOL0     C36034   7.482   9.451   7.701 -1.1605  0.0194  0.0591
  262MOL0     N36035   7.623   9.419   7.755  0.4700 -0.1505  0.1618
  262MOL0     C36036   7.656   9.315   7.835  0.6461  0.6077 -0.6876
  262MOL0     C36037   7.794   9.316   7.846 -0.2278 -0.1692  0.5030
  262MOL0     C36038   7.889   9.228   7.929  0.6931 -0.4595  0.4238
  262MOL0     C36039   7.911   9.293   8.069  0.9533 -0.5831  0.3256
  262MOL0     C36040   7.992   9.418   8.074 -0.3063 -0.5117  0.2577
  262MOL0     C36041   7.993   9.484   8.213 -0.0578 -0.0225  0.4190
  262MOL0     O36042   8.051   9.423   8.326 -0.0505 -0.2398  0.1809
  262MOL0     C36043   8.182   9.383   8.308 -0.4993  1.1346  0.0733
  262MOL0     C36044   8.275   9.449   8.223 -0.2247 -0.2651 -0.6796
  262MOL0     C36045   8.403   9.410   8.226  0.9579 -0.2077  0.4740
  262MOL0     C36046   8.500   9.494   8.147  0.2788 -0.4086  0.6031
  262MOL0     C36047   8.455   9.311   8.315  0.0289  0.1621  0.0580
  262MOL0     C36048   8.602   9.285   8.332 -0.2307  0.5122  0.1392
  262MOL0     O36049   8.628   9.180   8.415 -0.1342 -0.6707 -0.6830
  262MOL0     C36050   8.758   9.140   8.440  0.5170 -0.0961  0.0218
  262MOL0     C36051   8.840   9.083   8.337  0.5238  0.1122  0.3624
  262MOL0     C36052   8.969   9.038   8.370 -0.5033  0.2556  0.3505
  262MOL0     C36053   9.030   9.049   8.492  0.0450 -0.0131 -0.1374
  262MOL0     O36054   9.149   8.992   8.531  0.2367  0.8858  0.1208
  262MOL0     C36055   9.256   9.036   8.453  0.5960 -0.1262  0.7221
  262MOL0     C36056   9.395   9.000   8.511  0.5753  0.0294 -0.2752
  262MOL0     C36057   9.433   9.089   8.632  0.2001  0.0547  0.5192
  262MOL0     C36058   9.551   9.029   8.699 -0.3549  0.9257  0.4251
  262MOL0     C36059   9.589   9.131   8.801 -0.4716 -0.2717  0.5101
  262MOL0     C36060   9.727   9.106   8.878 -0.1231 -0.6547 -0.0068
  262MOL0     C36061   9.731   9.180   9.013 -0.5370 -0.2174 -0.2112
  262MOL0     C36062   9.856   9.155   9.105  0.0642 -0.4252  0.1002
  262MOL0    Cl36063  10.010   9.161   9.008  0.1276 -0.1235  0.1408
  262MOL0     C36064   8.947   9.109   8.590  0.7686  0.7609  0.2365
  262MOL0     C36065   8.819   9.157   8.566  0.3675 -0.1722 -0.1659
  262MOL0     O36066   8.695   9.346   8.279  0.1617 -0.4531  0.6384
  262MOL0     C36067   8.357   9.248   8.401 -0.5447 -0.5313 -0.3501
  262MOL0     C36068   8.226   9.283   8.401  0.0140  0.3559  0.7760
  262MOL0     N36069   7.840   9.426   7.763  0.9922 -0.3367  0.2258
  262MOL0     N36070   7.742   9.471   7.704  0.3945  0.6425 -0.1465
  262MOL0     C36071   6.958   9.956   8.407 -0.0160 -0.4806 -0.0829
  262MOL0     C36072   6.841  10.032   8.412  0.7330  0.9006  0.3163
  262MOL0     C36073   6.421  10.185   8.369 -0.0025 -0.1009  0.0203
  262MOL0     C36074   6.344  10.105   8.275 -0.9579  1.0925 -0.4046
  262MOL0     C36075   6.215  10.135   8.241 -0.8502  0.8018 -0.9657
  262MOL0     C36076   6.151  10.234   8.310 -0.5607  1.0957  0.3913
  262MOL0     O36077   6.019  10.263   8.282 -0.0186  0.7711  0.4900
  262MOL0     C36078   5.925  10.305   8.379 -0.1630  1.0523  0.4624
  262MOL0     C36079   5.796  10.363   8.317 -0.6877 -0.1683  0.0771
  262MOL0     C36080   5.819  10.505   8.249 -0.3286 -0.0093 -0.0516
  262MOL0     C36081   5.683  10.552   8.176 -0.8020 -0.4813 -0.5149
  262MOL0     C36082   5.696  10.686   8.120  0.5783  0.3837 -0.3447
  262MOL0     C36083   5.690  10.795   8.073  0.4194 -0.1208 -1.0857
  262MOL0     C36084   6.228  10.323   8.382 -0.1127 -0.2650 -0.6162
  262MOL0     C36085   6.362  10.307   8.408 -0.1396 -0.4062 -0.6687
  262MOL0     C36086   6.427  10.416   8.500  0.4973  0.8645  0.3489
  262MOL0     H36087   6.634   9.816   8.248 -0.1712  4.4708 -0.5101
  262MOL0     H36088   6.835   9.663   8.263 -1.2678 -0.5545  2.8065
  262MOL0     H36089   7.226   9.866   8.445  0.1379  0.3615 -0.0825
  262MOL0     H36090   7.193   9.875   8.264 -1.1129 -0.3642  0.3375
  262MOL0     H36091   7.392   9.719   8.401 -0.6207  0.2001  0.5874
  262MOL0     H36092   7.256   9.609   8.363 -2.0199  1.0167  0.6427
  262MOL0     H36093   7.404   9.791   8.157 -1.0559  0.5260  0.7785
  262MOL0     H36094   7.431   9.622   8.166 -0.9179  0.0715 -2.7554
  262MOL0     H36095   7.223   9.546   8.111 -0.2191 -0.1806  0.9610
  262MOL0     H36096   7.153   9.708   8.120  0.1780 -0.1925  2.4868
  262MOL0     H36097   7.322   9.767   7.929 -1.9865  0.6188 -2.0323
  262MOL0     H36098   7.182   9.666   7.886  0.4164 -1.0848 -0.2424
  262MOL0     H36099   7.474   9.580   7.952 -1.0151 -0.3236  1.5474
  262MOL0     H36100   7.337   9.468   7.930 -0.3008 -0.4992 -1.3317
  262MOL0     H36101   7.450   9.667   7.725 -1.3173 -0.9139 -3.4746
  262MOL0     H36102   7.314   9.572   7.692 -0.0794 -0.5141  0.6806
  262MOL0     H36103   7.418   9.370   7.738 -0.1509 -0.6554  0.3473
  262MOL0     H36104   7.474   9.464   7.592  0.2496 -0.7126 -0.1551
  262MOL0     H36105   7.584   9.250   7.883 -0.2071  0.0370 -2.6595
  262MOL0     H36106   7.975   9.217   7.862  0.2599  0.9359 -0.3980
  262MOL0     H36107   7.851   9.126   7.944 -1.6525  0.4174  0.8469
  262MOL0     H36108   7.815   9.320   8.114  2.4101  1.2000  2.5860
  262MOL0     H36109   7.967   9.218   8.125 -0.5844 -4.1387 -2.5164
  262MOL0     H36110   8.093   9.394   8.041 -0.3265  0.3605 -0.4622
  262MOL0     H36111   7.947   9.487   8.002 -0.6220 -1.9787 -1.0223
  262MOL0     H36112   8.043   9.575   8.179  1.3041 -1.6252 -2.1817
  262MOL0     H36113   7.886   9.494   8.235 -1.4413 -1.2381 -4.5056
  262MOL0     H36114   8.259   9.531   8.154 -2.0648  0.8354  0.9779
  262MOL0     H36115   8.462   9.564   8.072 -0.9505  1.0097  2.4498
  262MOL0     H36116   8.568   9.425   8.096  0.5650 -0.5343  1.1393
  262MOL0     H36117   8.566   9.560   8.205  1.0604  1.2011 -1.9338
  262MOL0     H36118   8.814   9.073   8.232 -0.0932  1.0048  0.4194
  262MOL0     H36119   9.031   8.994   8.293 -0.7898  0.5833 -0.0704
  262MOL0     H36120   9.248   8.986   8.356 -0.2778  0.7542  0.3287
  262MOL0     H36121   9.249   9.144   8.443 -0.0462 -0.2414 -0.2440
  262MOL0     H36122   9.384   8.899   8.553 -2.7823  0.4231  0.1123
  262MOL0     H36123   9.479   9.001   8.442  1.2959 -0.6845  0.5618
  262MOL0     H36124   9.347   9.079   8.698 -1.6059 -0.2318 -1.7608
  262MOL0     H36125   9.439   9.196   8.611 -1.2310  0.3282  1.4100
  262MOL0     H36126   9.628   9.002   8.626 -0.9368 -0.3657  0.2488
  262MOL0     H36127   9.518   8.941   8.756 -2.7853  1.3259 -0.2703
  262MOL0     H36128   9.590   9.232   8.760  2.5030 -0.6257 -0.5340
  262MOL0     H36129   9.508   9.114   8.872  0.0115 -0.3064  1.0573
  262MOL0     H36130   9.808   9.138   8.812  0.6113 -1.4348  0.4983
  262MOL0     H36131   9.747   9.001   8.899  0.1701 -0.7919 -0.9352
  262MOL0     H36132   9.640   9.145   9.064 -0.7854 -0.7398 -0.9971
  262MOL0     H36133   9.718   9.286   8.988  0.5906 -0.7968 -3.7972
  262MOL0     H36134   9.847   9.052   9.140  3.7109 -0.8793  0.0952
  262MOL0     H36135   9.845   9.226   9.188 -3.6566  0.3711 -0.8611
  262MOL0     H36136   8.976   9.116   8.694  0.7150  1.8455  0.1902
  262MOL0     H36137   8.765   9.201   8.649 -1.6864  0.3815 -1.7126
  262MOL0     H36138   8.406   9.190   8.479  0.4203 -1.0796 -1.3203
  262MOL0     H36139   8.148   9.239   8.462  0.6520 -0.3651  1.0892
  262MOL0     H36140   7.039  10.009   8.456 -0.3974 -1.8746  2.2215
  262MOL0     H36141   6.844  10.131   8.458 -1.2500  1.3154 -0.3599
  262MOL0     H36142   6.393  10.019   8.230  2.9412  1.8149  1.9828
  262MOL0     H36143   6.165  10.068   8.172 -1.3124 -2.3623  2.2105
  262MOL0     H36144   5.881  10.219   8.431 -0.5108  0.7214 -0.3606
  262MOL0     H36145   5.965  10.373   8.454 -0.4007  0.6392  0.9794
  262MOL0     H36146   5.710  10.371   8.384 -1.7545  2.9539 -1.4568
  262MOL0     H36147   5.758  10.294   8.241 -1.0103 -0.3979  0.4454
  262MOL0     H36148   5.849  10.578   8.325  1.6887 -1.2319  0.3953
  262MOL0     H36149   5.899  10.495   8.175 -0.9599 -1.0390 -0.6097
  262MOL0     H36150   5.603  10.559   8.250  0.2062  1.7333  0.4302
  262MOL0     H36151   5.674  10.483   8.091  0.4082  0.2672 -1.2748
  262MOL0     H36152   5.679  10.901   8.058 -4.0716 -0.3111 -0.6074
  262MOL0     H36153   6.170  10.406   8.422  1.1356  0.1482  0.4161
  262MOL0     H36154   6.368  10.506   8.519 -0.0853  0.8236 -1.1181
  262MOL0     H36155   6.446  10.368   8.596 -0.3948 -1.5372 -0.6123
  262MOL0     H36156   6.526  10.442   8.461  1.4410 -0.8672  1.4579
  263MOL0     O36157   3.366   0.729   2.946 -0.3630  0.1348 -0.3444
  263MOL0     C36158   3.351   0.607   2.918 -0.1759 -0.3616 -0.5248
  263MOL0     O36159   3.428   0.536   2.826 -0.6624 -0.0004  0.1499
  263MOL0     C36160   3.551   0.576   2.812  0.2437 -0.6930 -0.2946
  263MOL0     C36161   3.634   0.616   2.914 -0.8799 -0.5885 -0.0151
  263MOL0     C36162   3.765   0.652   2.884  0.9225  0.2711 -0.7710
  263MOL0     C36163   3.820   0.630   2.757  0.0887 -0.5084 -0.5129
  263MOL0     O36164   3.950   0.668   2.756 -1.1087 -0.3790 -0.9772
  263MOL0     C36165   4.012   0.728   2.647 -0.8902  0.1650  0.5478
  263MOL0     C36166   3.937   0.858   2.605  0.0824 -0.1991 -0.0595
  263MOL0     C36167   3.953   0.970   2.708 -0.6912 -0.2408 -0.2118
  263MOL0     C36168   3.829   0.988   2.801 -0.0748 -0.2305  1.3363
  263MOL0     C36169   3.722   1.061   2.725  0.0577 -0.0014 -0.0063
  263MOL0     C36170   3.597   0.965   2.715  0.1722 -0.7474 -0.3075
  263MOL0     C36171   3.492   1.035   2.631  0.1112 -0.3565  0.0748
  263MOL0     C36172   3.358   0.972   2.668 -0.3854 -0.2157 -0.5333
  263MOL0     N36173   3.242   1.012   2.585  0.4977 -0.0138  0.1374
  263MOL0     C36174   3.238   1.130   2.511 -0.6686  0.0842 -0.2308
  263MOL0     C36175   3.107   1.139   2.469  0.2386  0.4095  0.0603
  263MOL0     C36176   3.050   1.257   2.396 -0.2262  0.5211 -0.1336
  263MOL0     C36177   2.943   1.216   2.291 -0.6545  0.4454  0.7621
  263MOL0     C36178   2.799   1.261   2.327 -0.5312 -0.1257 -0.4635
  263MOL0     C36179   2.700   1.228   2.218 -1.0810 -0.5462 -0.6294
  263MOL0     O36180   2.565   1.208   2.250  0.6519  0.3723  0.3078
  263MOL0     C36181   2.511   1.282   2.347  1.1099 -0.0995  1.5124
  263MOL0     C36182   2.517   1.425   2.357  0.1800  0.0891 -0.3090
  263MOL0     C36183   2.489   1.485   2.487 -0.0030 -0.2519  0.5649
  263MOL0     C36184   2.499   1.637   2.488  0.0200 -0.2126  0.5134
  263MOL0     C36185   2.443   1.404   2.591 -0.2439 -0.1710  1.0556
  263MOL0     C36186   2.381   1.455   2.718 -0.2375  0.0551  0.0671
  263MOL0     O36187   2.273   1.388   2.767 -0.1869  0.0565 -0.3548
  263MOL0     C36188   2.154   1.455   2.793  0.0886 -0.1587 -0.8708
  263MOL0     C36189   2.051   1.391   2.850 -0.3168  0.1701 -0.4978
  263MOL0     C36190   1.927   1.439   2.882  0.2386 -0.4857  0.3005
  263MOL0     C36191   1.895   1.568   2.839  0.3970  0.2781  0.0818
  263MOL0     O36192   1.770   1.630   2.854 -0.5080  0.0634  0.0690
  263MOL0     C36193   1.679   1.585   2.959 -0.6899  0.2450  0.6098
  263MOL0     C36194   1.591   1.701   3.005  0.2840  0.4013 -0.7006
  263MOL0     C36195   1.654   1.784   3.120 -0.4326 -0.6839 -0.0402
  263MOL0     C36196   1.773   1.868   3.087 -0.2359 -0.2794  0.6481
  263MOL0     C36197   1.830   1.932   3.221  0.8832  0.0780 -0.4590
  263MOL0     C36198   1.952   2.013   3.178  0.2909 -0.2488  0.0693
  263MOL0     C36199   2.001   2.110   3.288 -0.6544 -0.1921 -0.8307
  263MOL0     C36200   2.139   2.161   3.247  1.3841 -0.0749 -0.2675
  263MOL0    Cl36201   2.157   2.223   3.075  0.1595 -0.2281  0.0487
  263MOL0     C36202   1.999   1.640   2.778 -0.5578 -0.0702  0.8082
  263MOL0     C36203   2.123   1.585   2.753 -0.6396  0.7548 -0.0555
  263MOL0     O36204   2.423   1.558   2.765 -0.1797 -0.4824 -0.9587
  263MOL0     C36205   2.432   1.264   2.566  0.4740 -0.4562 -0.2319
  263MOL0     C36206   2.465   1.203   2.449  0.2054 -0.9545 -1.2767
  263MOL0     N36207   3.027   1.036   2.516  0.1277 -0.7566 -0.5453
  263MOL0     N36208   3.114   0.966   2.588  0.5340  0.0014  0.4980
  263MOL0     C36209   3.743   0.576   2.650  0.0694  0.7378  0.0958
  263MOL0     C36210   3.602   0.568   2.680 -0.0453 -0.5349  0.4505
  263MOL0     C36211   3.265   0.529   3.013  0.3826  0.0058 -0.2796
  263MOL0     C36212   3.269   0.388   2.993 -0.1764 -0.2737 -0.1717
  263MOL0     C36213   3.194   0.298   3.075 -0.5486 -0.7378  0.5404
  263MOL0     C36214   3.112   0.343   3.173  0.5611 -0.7729  0.4785
  263MOL0     O36215   3.038   0.247   3.244  0.9003 -0.9370  0.5544
  263MOL0     C36216   2.961   0.294   3.351  0.2815 -2.1438 -0.0711
  263MOL0     C36217   2.875   0.189   3.425 -0.3452 -0.1278  0.0176
  263MOL0     C36218   2.783   0.107   3.329  0.3108 -0.6125  0.8598
  263MOL0     C36219   2.662   0.040   3.396  0.1075  0.4877  0.2580
  263MOL0     C36220   2.624  -0.073   3.309  0.1444 -0.1383  0.1859
  263MOL0     C36221   2.597  -0.168   3.238  0.8274  0.3830 -0.5305
  263MOL0     C36222   3.110   0.480   3.188  0.3820 -0.4540 -0.8545
  263MOL0     C36223   3.184   0.573   3.117 -0.3468 -0.3108 -0.5620
  263MOL0     C36224   3.162   0.719   3.166 -0.0159  0.0978 -0.1327
  263MOL0     H36225   3.593   0.622   3.014 -0.9284 -0.5985 -0.0346
  263MOL0     H36226   3.835   0.682   2.961 -1.7829 -0.2023  2.0448
  263MOL0     H36227   4.008   0.661   2.561  0.6366  1.4693 -0.6065
  263MOL0     H36228   4.118   0.753   2.660 -1.0423  0.4837  1.1982
  263MOL0     H36229   3.988   0.887   2.512 -2.0623  1.5246 -0.7911
  263MOL0     H36230   3.831   0.837   2.586 -0.2225  0.0181  1.2933
  263MOL0     H36231   4.039   0.943   2.770 -1.4332 -1.4914  0.3129
  263MOL0     H36232   3.971   1.068   2.663 -0.5347 -1.2428 -2.4337
  263MOL0     H36233   3.805   0.888   2.840 -0.4439 -0.8430 -0.3694
  263MOL0     H36234   3.869   1.057   2.875 -1.7476  2.9765 -0.5524
  263MOL0     H36235   3.748   1.081   2.620  0.0640  4.1482  0.6461
  263MOL0     H36236   3.691   1.154   2.772  0.5431  0.0229  0.2718
  263MOL0     H36237   3.636   0.875   2.666 -0.6505 -2.1354  1.4726
  263MOL0     H36238   3.557   0.929   2.810 -0.6240 -2.0137 -1.0898
  263MOL0     H36239   3.510   1.029   2.523  3.3729  0.0961  0.4987
  263MOL0     H36240   3.479   1.139   2.661 -0.8508 -0.8545  1.4616
  263MOL0     H36241   3.368   0.864   2.667 -0.6200 -0.2364 -0.5769
  263MOL0     H36242   3.325   0.988   2.771 -0.1897  0.4153 -0.5633
  263MOL0     H36243   3.311   1.209   2.499 -2.3142  1.5894 -0.6150
  263MOL0     H36244   3.128   1.316   2.347  0.2027 -0.4709 -0.6599
  263MOL0     H36245   2.999   1.324   2.467 -0.3993 -0.0924  0.3253
  263MOL0     H36246   2.963   1.263   2.194 -3.1778  2.6007  1.1743
  263MOL0     H36247   2.943   1.107   2.277 -1.2023  0.0250  3.5647
  263MOL0     H36248   2.773   1.219   2.425 -1.9519  2.6596  0.4550
  263MOL0     H36249   2.800   1.371   2.329 -1.9312 -0.0729 -1.4704
  263MOL0     H36250   2.704   1.313   2.149 -1.0039  0.0447  0.0982
  263MOL0     H36251   2.730   1.143   2.156  0.7355  2.1010 -3.7020
  263MOL0     H36252   2.561   1.486   2.279  4.3384 -0.2554  1.5012
  263MOL0     H36253   2.554   1.663   2.397  1.8063  0.3737  1.7133
  263MOL0     H36254   2.560   1.686   2.565 -0.7036 -0.1959  1.0914
  263MOL0     H36255   2.398   1.678   2.484 -0.5234 -1.5908 -2.8942
  263MOL0     H36256   2.073   1.287   2.874 -1.3531  0.0181 -0.1649
  263MOL0     H36257   1.856   1.379   2.938 -0.3173  1.7476  2.1536
  263MOL0     H36258   1.621   1.512   2.902  1.4570 -0.4844 -0.7535
  263MOL0     H36259   1.739   1.542   3.040  1.0882 -2.8628 -2.1498
  263MOL0     H36260   1.575   1.769   2.921 -1.1142  0.3797 -0.4662
  263MOL0     H36261   1.495   1.660   3.035  0.5116  1.0229  1.0488
  263MOL0     H36262   1.684   1.707   3.192  2.2530 -0.3113 -0.6305
  263MOL0     H36263   1.585   1.854   3.167  1.0594 -0.6052  2.2070
  263MOL0     H36264   1.747   1.949   3.019 -0.1577  1.1969  2.3120
  263MOL0     H36265   1.856   1.809   3.047  0.2946  1.2303 -0.5841
  263MOL0     H36266   1.759   1.996   3.274  1.5956  0.7509 -0.2796
  263MOL0     H36267   1.861   1.854   3.291 -1.8832 -1.3346 -0.7099
  263MOL0     H36268   1.929   2.075   3.091  0.8321  0.8993  0.7185
  263MOL0     H36269   2.036   1.950   3.148  0.1180 -0.5789  0.2710
  263MOL0     H36270   2.020   2.059   3.383  1.0628  0.3010 -0.8815
  263MOL0     H36271   1.928   2.190   3.298 -0.5438 -0.3062  1.5171
  263MOL0     H36272   2.215   2.083   3.258  0.1423 -1.2782  0.3133
  263MOL0     H36273   2.176   2.242   3.310 -1.2520  1.9159 -1.0754
  263MOL0     H36274   1.973   1.738   2.740 -0.3632  0.7530  2.7248
  263MOL0     H36275   2.197   1.638   2.694  2.6165 -4.4254 -1.2891
  263MOL0     H36276   2.396   1.192   2.639 -0.6034 -1.2319 -1.4781
  263MOL0     H36277   2.466   1.094   2.447 -1.0942 -0.9778 -1.9731
  263MOL0     H36278   3.777   0.560   2.548 -2.6359  0.7638 -0.8983
  263MOL0     H36279   3.533   0.551   2.598 -0.3328  2.2752  0.0352
  263MOL0     H36280   3.312   0.332   2.911 -1.7715 -2.5605  0.4370
  263MOL0     H36281   3.211   0.191   3.065 -0.7939 -0.7483  0.2048
  263MOL0     H36282   3.016   0.361   3.418 -0.8923 -1.4289  0.2100
  263MOL0     H36283   2.890   0.360   3.301 -0.8617 -2.5886  0.9093
  263MOL0     H36284   2.815   0.244   3.498 -1.5346 -1.1987 -0.1127
  263MOL0     H36285   2.941   0.127   3.487  2.6616  1.2182 -1.6361
  263MOL0     H36286   2.743   0.162   3.243  1.2929 -1.4583 -0.1872
  263MOL0     H36287   2.849   0.028   3.290  2.4064  1.3332  0.2993
  263MOL0     H36288   2.581   0.114   3.392 -0.7316 -0.4249 -0.2076
  263MOL0     H36289   2.682   0.016   3.501  1.1866 -0.1429 -0.0863
  263MOL0     H36290   2.561  -0.252   3.183 -1.4551 -0.6408  2.2488
  263MOL0     H36291   3.061   0.523   3.274 -0.0960 -1.4872 -0.6058
  263MOL0     H36292   3.119   0.784   3.090 -1.2670  0.8960  1.2095
  263MOL0     H36293   3.097   0.734   3.253  1.6751  4.2215  0.6534
  263MOL0     H36294   3.258   0.766   3.190  0.7623 -1.3372 -0.3021
  264MOL0     O36295   3.282   5.761   5.129 -0.0460  0.3888  0.8603
  264MOL0     C36296   3.211   5.723   5.034  0.8505  0.4170  0.2275
  264MOL0     O36297   3.251   5.678   4.913 -0.0680  0.2295 -0.7889
  264MOL0     C36298   3.393   5.671   4.903  0.1756  0.3413  0.6227
  264MOL0     C36299   3.459   5.553   4.936  1.0337 -0.0838 -0.0225
  264MOL0     C36300   3.595   5.554   4.931 -0.2998 -0.6512 -0.5448
  264MOL0     C36301   3.672   5.668   4.894  1.0936  0.8961  0.9578
  264MOL0     O36302   3.806   5.638   4.884  1.0003  0.6851  0.4300
  264MOL0     C36303   3.890   5.756   4.902  0.1896  0.5511  0.4267
  264MOL0     C36304   4.038   5.705   4.894  0.2691 -0.2757 -0.0897
  264MOL0     C36305   4.142   5.819   4.887  0.9220  0.7422  0.0270
  264MOL0     C36306   4.280   5.748   4.904 -0.9436  0.4477  0.6100
  264MOL0     C36307   4.403   5.839   4.889  0.4831  0.8811  0.2211
  264MOL0     C36308   4.532   5.765   4.916  0.5983 -0.9209 -0.0158
  264MOL0     C36309   4.647   5.865   4.917 -0.0251 -0.2811  0.2169
  264MOL0     C36310   4.783   5.800   4.932  0.5921 -0.6084 -0.7834
  264MOL0     N36311   4.884   5.898   4.931 -0.7825 -0.1790  0.3504
  264MOL0     C36312   4.944   5.942   4.818 -0.1029  0.4471 -0.6986
  264MOL0     C36313   5.014   6.057   4.849 -0.3016  0.4791 -0.6176
  264MOL0     C36314   5.103   6.113   4.745  1.0180  0.1842  0.7996
  264MOL0     C36315   5.017   6.161   4.629 -0.6532 -0.1292  0.4416
  264MOL0     C36316   4.963   6.299   4.664 -0.2635  0.4365 -0.2931
  264MOL0     C36317   4.829   6.297   4.741 -0.2557  0.1422  0.8986
  264MOL0     O36318   4.740   6.236   4.656 -0.3927 -0.1386  0.0630
  264MOL0     C36319   4.614   6.214   4.706  1.0508 -0.4930 -0.5807
  264MOL0     C36320   4.521   6.233   4.605  0.7686  0.0798 -0.0236
  264MOL0     C36321   4.377   6.229   4.627  0.0955 -0.9636  0.3266
  264MOL0     C36322   4.284   6.237   4.508  1.2151 -0.0319  0.1867
  264MOL0     C36323   4.334   6.198   4.755 -0.3039  0.6833  0.5578
  264MOL0     C36324   4.191   6.202   4.803 -0.5047 -0.4495 -0.1058
  264MOL0     O36325   4.172   6.222   4.943  0.7613 -0.3814  0.5349
  264MOL0     C36326   4.039   6.206   4.993 -1.1758 -0.4111  0.5887
  264MOL0     C36327   3.936   6.286   4.944  0.3614 -0.2517  0.8762
  264MOL0     C36328   3.808   6.278   5.007 -0.3961  0.1150  0.3127
  264MOL0     C36329   3.796   6.199   5.124 -0.3838 -0.9483  0.9491
  264MOL0     O36330   3.688   6.233   5.197  0.0543  0.5117 -0.0543
  264MOL0     C36331   3.656   6.157   5.318 -0.3604  0.1230 -0.2306
  264MOL0     C36332   3.511   6.120   5.316  0.6898  0.7131  0.3977
  264MOL0     C36333   3.426   6.248   5.307  0.0695  0.3557 -0.4940
  264MOL0     C36334   3.290   6.214   5.249  0.5286 -0.8221 -0.2317
  264MOL0     C36335   3.294   6.245   5.102 -0.0012 -0.1890 -0.5013
  264MOL0     C36336   3.355   6.130   5.013  0.1156  0.4644 -0.6207
  264MOL0     C36337   3.350   6.156   4.870  0.0792  0.0235 -0.0586
  264MOL0     C36338   3.422   6.285   4.828 -0.5130  0.5305  0.5138
  264MOL0    Cl36339   3.384   6.298   4.647  0.1029 -0.0309  0.6417
  264MOL0     C36340   3.898   6.117   5.168 -0.7180 -0.2104 -0.2255
  264MOL0     C36341   4.016   6.124   5.101 -0.2634  0.0466  1.0040
  264MOL0     O36342   4.105   6.163   4.719 -0.1595 -0.3669 -0.3615
  264MOL0     C36343   4.431   6.177   4.859 -0.2587  0.4788  0.3407
  264MOL0     C36344   4.565   6.193   4.835 -0.3979 -0.2590  0.6253
  264MOL0     N36345   5.011   6.072   4.990 -0.6102  0.1263 -0.2183
  264MOL0     N36346   4.937   5.976   5.037  0.4833  0.6724 -0.1504
  264MOL0     C36347   3.606   5.779   4.845  0.1647 -0.2071  0.1590
  264MOL0     C36348   3.463   5.779   4.857 -0.4207  0.0085 -0.1661
  264MOL0     C36349   3.066   5.742   5.047 -0.1299 -0.4986 -0.5837
  264MOL0     C36350   2.985   5.669   4.965  0.8569 -0.5509 -0.1526
  264MOL0     C36351   2.839   5.689   4.970  0.5184  0.8302 -0.0462
  264MOL0     C36352   2.779   5.772   5.063  0.1150 -0.0000 -1.1210
  264MOL0     O36353   2.643   5.793   5.071 -0.5085 -0.2932 -0.7001
  264MOL0     C36354   2.595   5.917   5.105 -0.5014 -0.0786  0.6764
  264MOL0     C36355   2.485   5.955   5.003 -0.0112  1.1920  0.8211
  264MOL0     C36356   2.384   6.054   5.057  0.6604  0.5341 -0.2394
  264MOL0     C36357   2.331   6.136   4.942 -0.5521 -0.1600 -0.6139
  264MOL0     C36358   2.200   6.201   4.945 -0.6303 -0.0831 -0.1274
  264MOL0     C36359   2.083   6.228   4.958  0.1045 -0.4588  0.3992
  264MOL0     C36360   2.866   5.848   5.151 -0.2723  1.6000 -0.0338
  264MOL0     C36361   3.005   5.827   5.144  0.7471 -0.3398 -0.0569
  264MOL0     C36362   3.081   5.917   5.236  0.1663 -0.4479  0.7226
  264MOL0     H36363   3.414   5.458   4.964  1.8813 -0.9926 -1.6185
  264MOL0     H36364   3.669   5.479   4.959 -0.3555 -0.1909  0.8850
  264MOL0     H36365   3.878   5.799   5.002  0.5994 -1.5748  1.4514
  264MOL0     H36366   3.867   5.829   4.824 -0.1929 -0.9358 -0.9069
  264MOL0     H36367   4.057   5.651   4.988 -1.5673 -3.2724 -1.2701
  264MOL0     H36368   4.040   5.637   4.809 -2.4644 -2.2966  1.2869
  264MOL0     H36369   4.141   5.865   4.788 -3.7131 -0.9681 -0.9864
  264MOL0     H36370   4.121   5.892   4.966 -0.6902 -0.7063  1.0033
  264MOL0     H36371   4.285   5.697   5.001  1.9407 -1.1887 -0.2683
  264MOL0     H36372   4.286   5.665   4.832 -4.0648  1.0509 -0.4868
  264MOL0     H36373   4.395   5.914   4.968  0.4740  1.5618 -0.4172
  264MOL0     H36374   4.405   5.876   4.786 -2.3401 -3.4242 -1.6558
  264MOL0     H36375   4.526   5.702   5.005 -1.0647 -1.0343 -0.1661
  264MOL0     H36376   4.543   5.702   4.827  0.7983  0.9851 -1.3860
  264MOL0     H36377   4.621   5.938   4.994 -3.0002  0.3424 -1.2165
  264MOL0     H36378   4.651   5.921   4.823  0.0063 -0.7145 -0.0466
  264MOL0     H36379   4.776   5.744   5.026 -3.8840 -0.5918 -0.9035
  264MOL0     H36380   4.799   5.730   4.849 -1.1821  1.6766 -3.1898
  264MOL0     H36381   4.935   5.900   4.718 -2.0815  3.2279 -1.8218
  264MOL0     H36382   5.180   6.043   4.712  0.2715  0.8942 -2.8911
  264MOL0     H36383   5.153   6.202   4.785 -0.1582  0.9080  0.7308
  264MOL0     H36384   5.081   6.173   4.541 -0.3851 -3.3778  0.0702
  264MOL0     H36385   4.945   6.083   4.602 -2.6169  1.0473  2.0377
  264MOL0     H36386   5.045   6.355   4.710  0.9345 -2.6434  1.6543
  264MOL0     H36387   4.934   6.345   4.569 -3.4198  0.9584  0.8349
  264MOL0     H36388   4.837   6.243   4.836  0.1425 -4.1295 -1.3179
  264MOL0     H36389   4.795   6.394   4.779 -3.1509 -0.2841 -0.3887
  264MOL0     H36390   4.558   6.251   4.504  1.4663 -1.7008 -0.1286
  264MOL0     H36391   4.333   6.289   4.425  1.6666 -2.5898 -1.2490
  264MOL0     H36392   4.185   6.281   4.527  1.5632  1.1117 -0.5210
  264MOL0     H36393   4.281   6.137   4.466  0.3424  0.3847 -0.7863
  264MOL0     H36394   3.955   6.351   4.859 -4.9776  2.3525  1.2805
  264MOL0     H36395   3.736   6.348   4.967 -0.7528  0.5853  1.7149
  264MOL0     H36396   3.723   6.071   5.329 -0.0711  0.3831  0.0616
  264MOL0     H36397   3.681   6.221   5.403  1.0017  1.4342 -1.5667
  264MOL0     H36398   3.495   6.050   5.234  1.2043  1.0700 -0.0204
  264MOL0     H36399   3.490   6.074   5.413 -2.3220  1.8782  0.3883
  264MOL0     H36400   3.474   6.325   5.246  0.8953  0.3223  0.1053
  264MOL0     H36401   3.406   6.282   5.409 -2.0635 -0.6096 -0.5236
  264MOL0     H36402   3.220   6.284   5.295 -0.4347 -1.6880 -0.3221
  264MOL0     H36403   3.263   6.113   5.281  0.0434 -0.4071  0.7068
  264MOL0     H36404   3.187   6.244   5.077 -1.4933  1.1495  4.4616
  264MOL0     H36405   3.335   6.344   5.082  1.0285 -0.4843  0.0949
  264MOL0     H36406   3.311   6.031   5.032  0.1565  0.7405  1.1464
  264MOL0     H36407   3.459   6.113   5.044  0.0359  3.3453  1.6491
  264MOL0     H36408   3.244   6.155   4.844 -0.3281  1.0634  1.3807
  264MOL0     H36409   3.398   6.077   4.813 -0.2611 -1.0902  1.1571
  264MOL0     H36410   3.531   6.277   4.833 -0.6421 -3.0909 -0.0904
  264MOL0     H36411   3.388   6.372   4.885 -0.4088  0.7566  0.2368
  264MOL0     H36412   3.894   6.044   5.249  4.6119  0.8255  1.3385
  264MOL0     H36413   4.098   6.058   5.128 -1.8026 -2.1481  0.5947
  264MOL0     H36414   4.398   6.145   4.957 -0.7513  2.7808  0.9959
  264MOL0     H36415   4.634   6.187   4.919 -0.0638 -2.2507  0.2713
  264MOL0     H36416   3.650   5.862   4.791  1.9490 -0.6848  0.7962
  264MOL0     H36417   3.410   5.864   4.815  0.0587 -0.4001 -1.6866
  264MOL0     H36418   3.031   5.610   4.886  0.0093  2.7008 -3.3431
  264MOL0     H36419   2.770   5.639   4.903  1.6174  1.2018 -1.5000
  264MOL0     H36420   2.555   5.908   5.206 -2.5418 -1.7365 -0.1920
  264MOL0     H36421   2.676   5.989   5.096  0.6397 -1.5711 -3.6697
  264MOL0     H36422   2.436   5.860   4.979  2.2389  0.4389 -1.1863
  264MOL0     H36423   2.544   5.983   4.915 -3.4023  1.2563 -1.6243
  264MOL0     H36424   2.300   6.004   5.107  0.6837  0.2387 -0.4955
  264MOL0     H36425   2.432   6.121   5.129  1.3181 -0.3293  0.1324
  264MOL0     H36426   2.337   6.066   4.858 -2.8122  1.2722 -2.1211
  264MOL0     H36427   2.405   6.213   4.919  1.1144 -0.9766  1.7071
  264MOL0     H36428   1.985   6.269   4.970 -0.2080 -0.7745 -0.9364
  264MOL0     H36429   2.833   5.916   5.229 -0.4039  0.1331  1.2475
  264MOL0     H36430   3.164   5.865   5.284  0.9911  1.8212  1.9035
  264MOL0     H36431   3.115   6.004   5.178 -3.4257  1.7704  1.6198
  264MOL0     H36432   3.013   5.959   5.311  0.1954 -0.8405  0.9716
  265MOL0     O36433   1.955   6.321   9.898  0.4097  0.1458 -0.1111
  265MOL0     C36434   1.961   6.247   9.799 -0.0835  0.8634  0.8912
  265MOL0     O36435   2.072   6.221   9.728  0.0022 -0.6765 -0.3423
  265MOL0     C36436   2.192   6.280   9.763 -0.1580  0.2904  0.3975
  265MOL0     C36437   2.251   6.281   9.891 -0.8436  0.0927 -0.0840
  265MOL0     C36438   2.374   6.338   9.912 -0.0554  0.0037 -0.4625
  265MOL0     C36439   2.440   6.421   9.815 -0.0176  0.6022 -0.2171
  265MOL0     O36440   2.557   6.484   9.818  0.1240  1.2221 -0.6139
  265MOL0     C36441   2.641   6.482   9.944  0.3020  0.1697  0.4571
  265MOL0     C36442   2.784   6.513   9.895  0.2905 -0.2906 -0.0583
  265MOL0     C36443   2.897   6.514  10.003  0.5644  0.1933 -0.8036
  265MOL0     C36444   2.853   6.550  10.145 -0.3781 -0.0553  0.5363
  265MOL0     C36445   2.971   6.600  10.225 -0.9334 -0.1759 -0.0771
  265MOL0     C36446   2.952   6.614  10.384 -0.2523 -0.3969 -0.2173
  265MOL0     C36447   3.078   6.688  10.447  0.0447 -0.7372  0.2049
  265MOL0     C36448   3.084   6.838  10.416  0.4209  0.9600  0.3172
  265MOL0     N36449   3.200   6.891  10.475 -0.1906  0.0619  0.2458
  265MOL0     C36450   3.330   6.872  10.432 -0.3277  0.2513 -0.4314
  265MOL0     C36451   3.407   6.891  10.541 -0.0226  0.8049 -0.3120
  265MOL0     C36452   3.554   6.862  10.531 -0.2970 -0.8232  0.0811
  265MOL0     C36453   3.627   6.905  10.666 -0.7237  0.5835 -1.0033
  265MOL0     C36454   3.775   6.915  10.631 -0.0496 -0.3449  0.0723
  265MOL0     C36455   3.857   6.990  10.739  0.5998 -0.9511 -0.2079
  265MOL0     O36456   3.862   6.918  10.862  0.5125 -0.3793 -0.0915
  265MOL0     C36457   3.964   6.823  10.875  0.3741 -0.8298  0.1324
  265MOL0     C36458   3.967   6.773  11.005  0.1274 -0.0991 -0.5489
  265MOL0     C36459   4.056   6.674  11.033 -0.2368  0.2826 -0.3584
  265MOL0     C36460   4.044   6.607  11.165 -0.8199  0.1463  0.5725
  265MOL0     C36461   4.158   6.623  10.941 -0.3299 -0.1434 -0.5029
  265MOL0     C36462   4.250   6.514  10.971  0.4577  0.6024  0.4548
  265MOL0     O36463   4.334   6.519  11.088  0.1151 -0.1784  0.3055
  265MOL0     C36464   4.381   6.403  11.132  0.2939 -0.4668  0.5352
  265MOL0     C36465   4.518   6.402  11.152  0.0468 -0.2188 -0.9501
  265MOL0     C36466   4.571   6.290  11.211 -0.5937 -0.4309  0.5783
  265MOL0     C36467   4.508   6.175  11.242  0.4430 -0.2192  0.2248
  265MOL0     O36468   4.578   6.071  11.305 -0.3323  0.0017  0.6050
  265MOL0     C36469   4.515   5.942  11.340 -0.4144 -0.5454  0.6478
  265MOL0     C36470   4.580   5.855  11.436 -1.2103 -0.3237  0.3176
  265MOL0     C36471   4.591   5.924  11.573 -0.9703 -0.0230  0.1438
  265MOL0     C36472   4.593   5.823  11.687  0.0538  0.0629  0.2190
  265MOL0     C36473   4.636   5.894  11.814  0.2405  0.4390 -0.1244
  265MOL0     C36474   4.509   5.928  11.897  0.2600 -0.5911 -0.2655
  265MOL0     C36475   4.575   5.990  12.022  0.5186 -0.2461 -0.1574
  265MOL0     C36476   4.495   6.031  12.149 -0.3813 -0.0844 -0.3572
  265MOL0    Cl36477   4.387   5.894  12.184 -0.7062 -0.1459 -0.3900
  265MOL0     C36478   4.366   6.176  11.209 -0.1486  0.2625 -0.7816
  265MOL0     C36479   4.304   6.293  11.177  0.6487 -0.9599  0.9995
  265MOL0     O36480   4.257   6.423  10.889 -0.9058 -0.6229  0.4033
  265MOL0     C36481   4.146   6.675  10.815 -0.5751 -0.2685  0.2225
  265MOL0     C36482   4.050   6.771  10.779 -0.0908 -0.7006 -0.4675
  265MOL0     N36483   3.321   6.934  10.638  0.6350 -0.1165  0.3187
  265MOL0     N36484   3.200   6.940  10.600  0.1933  0.7355 -0.4581
  265MOL0     C36485   2.370   6.422   9.687 -0.0034  0.0544 -0.1735
  265MOL0     C36486   2.258   6.348   9.664  0.2144  0.2961  0.0860
  265MOL0     C36487   1.841   6.174   9.752  0.0228 -0.2819  0.3955
  265MOL0     C36488   1.866   6.073   9.658  0.4908  0.7538 -0.2098
  265MOL0     C36489   1.761   6.000   9.595  0.4195  0.0471  0.0801
  265MOL0     C36490   1.625   6.025   9.627 -0.5379 -0.1508  0.6029
  265MOL0     O36491   1.513   5.964   9.570  0.0711  0.3139 -0.6411
  265MOL0     C36492   1.484   5.958   9.426  0.4183  0.3750  0.8221
  265MOL0     C36493   1.412   5.825   9.390  0.0503  0.2486  0.5921
  265MOL0     C36494   1.257   5.837   9.389 -0.0862  0.3456  0.4236
  265MOL0     C36495   1.203   5.852   9.526 -0.1193  0.0442  0.2362
  265MOL0     C36496   1.056   5.877   9.534  0.0486 -0.2034  0.2355
  265MOL0     C36497   0.939   5.914   9.542  0.1080 -0.0020  0.4508
  265MOL0     C36498   1.605   6.120   9.736 -0.4681 -0.9070 -0.6510
  265MOL0     C36499   1.712   6.193   9.795  0.2781  0.5836 -0.5289
  265MOL0     C36500   1.674   6.296   9.906  0.4181 -0.5874  0.6294
  265MOL0     H36501   2.203   6.227   9.972  1.7990 -0.1648  1.4090
  265MOL0     H36502   2.414   6.323  10.011 -2.4924 -1.5881  0.3728
  265MOL0     H36503   2.644   6.383   9.991  2.3840 -0.1211 -0.1869
  265MOL0     H36504   2.606   6.563  10.008  0.3593  2.2952 -2.0361
  265MOL0     H36505   2.816   6.442   9.817  1.4274  0.0412  0.0834
  265MOL0     H36506   2.780   6.612   9.849 -0.3475 -0.3858 -0.2105
  265MOL0     H36507   2.945   6.416  10.006  1.9733  0.8802  1.0979
  265MOL0     H36508   2.969   6.592   9.977  0.0669  0.9660  0.0648
  265MOL0     H36509   2.788   6.638  10.136  4.0998  3.4408 -2.8605
  265MOL0     H36510   2.797   6.471  10.195 -0.9682 -1.0032 -1.5166
  265MOL0     H36511   3.005   6.697  10.188 -1.4438 -0.2973 -0.8824
  265MOL0     H36512   3.061   6.538  10.213  0.2866  1.4273  0.4869
  265MOL0     H36513   2.865   6.676  10.406  0.6120  0.1182  1.9689
  265MOL0     H36514   2.948   6.515  10.429  0.8315  0.1843  1.2399
  265MOL0     H36515   3.172   6.643  10.416  0.1685  0.7647 -1.7502
  265MOL0     H36516   3.058   6.670  10.553  0.0518  0.1295  0.3586
  265MOL0     H36517   3.094   6.863  10.310 -3.6957  1.1735 -0.2003
  265MOL0     H36518   2.996   6.892  10.453 -1.4809 -0.5930 -1.6292
  265MOL0     H36519   3.358   6.856  10.329  0.7071  0.1055 -0.1437
  265MOL0     H36520   3.586   6.919  10.444  1.9097  2.2792  2.6858
  265MOL0     H36521   3.577   6.757  10.512  4.0025 -0.1794  0.6975
  265MOL0     H36522   3.602   7.008  10.691 -1.9259  0.2507 -0.7446
  265MOL0     H36523   3.597   6.851  10.757 -3.7019  1.6830 -1.2057
  265MOL0     H36524   3.824   6.819  10.613 -1.9379 -1.4633  0.6764
  265MOL0     H36525   3.778   6.969  10.536 -1.6387  0.0682  0.2268
  265MOL0     H36526   3.953   7.008  10.689  0.3808  1.7525  0.1440
  265MOL0     H36527   3.806   7.086  10.755  0.0540 -1.3080  0.1845
  265MOL0     H36528   3.890   6.808  11.072  1.2761 -0.1166  0.8227
  265MOL0     H36529   3.956   6.644  11.219 -1.4133 -1.2613  0.6057
  265MOL0     H36530   4.128   6.632  11.231 -1.9366  4.4661  0.7012
  265MOL0     H36531   4.036   6.500  11.145  1.1865  0.3149 -1.6504
  265MOL0     H36532   4.573   6.492  11.128 -4.3393  3.3549  0.9013
  265MOL0     H36533   4.679   6.292  11.226 -0.3427 -2.1906 -0.6136
  265MOL0     H36534   4.415   5.964  11.379 -0.5396  0.0180  0.0327
  265MOL0     H36535   4.513   5.882  11.249 -0.5526 -1.8321  1.4803
  265MOL0     H36536   4.511   5.771  11.448 -0.7658 -0.7586 -0.1068
  265MOL0     H36537   4.678   5.818  11.403 -2.0477  0.1751 -3.1129
  265MOL0     H36538   4.507   5.994  11.577 -1.3420 -0.3047 -1.8419
  265MOL0     H36539   4.685   5.979  11.572  0.9577 -3.0149  1.5153
  265MOL0     H36540   4.659   5.740  11.661  1.9165  1.9448 -1.4051
  265MOL0     H36541   4.494   5.777  11.692 -0.0201  0.1578 -0.2762
  265MOL0     H36542   4.710   5.834  11.869  1.1746  1.4481 -0.2427
  265MOL0     H36543   4.686   5.987  11.784  0.1538  0.6463  0.3531
  265MOL0     H36544   4.440   5.848  11.925 -0.1676 -0.2284 -0.2647
  265MOL0     H36545   4.449   6.009  11.855 -2.9441 -2.7624 -0.1921
  265MOL0     H36546   4.638   6.076  11.997  1.8658 -0.2641  2.8450
  265MOL0     H36547   4.635   5.907  12.059 -2.8228 -2.6638  0.3033
  265MOL0     H36548   4.449   6.129  12.133  1.7408  1.2203  0.9969
  265MOL0     H36549   4.550   6.050  12.242 -2.6964  3.5604  0.4769
  265MOL0     H36550   4.318   6.079  11.217 -1.6083  1.0812  0.9423
  265MOL0     H36551   4.196   6.304  11.174  0.8718  1.9251  1.0301
  265MOL0     H36552   4.216   6.640  10.740  0.0683 -0.3396  0.8359
  265MOL0     H36553   4.051   6.801  10.674  0.4074 -0.6800 -0.4571
  265MOL0     H36554   2.422   6.478   9.610  1.3145 -2.0946 -0.9270
  265MOL0     H36555   2.221   6.341   9.562  1.3595  1.3464 -0.4141
  265MOL0     H36556   1.965   6.041   9.628  0.0139  0.0485 -1.0960
  265MOL0     H36557   1.791   5.922   9.526 -0.4020  0.7094 -1.0410
  265MOL0     H36558   1.424   6.041   9.387 -2.5063 -2.3020 -0.9358
  265MOL0     H36559   1.575   5.944   9.368  0.2966 -1.9506  1.0851
  265MOL0     H36560   1.451   5.744   9.452  0.6139 -1.3812 -1.7408
  265MOL0     H36561   1.434   5.794   9.287 -0.5408 -1.3779  0.9328
  265MOL0     H36562   1.230   5.929   9.336  0.5293 -0.7494 -1.9005
  265MOL0     H36563   1.199   5.757   9.342 -2.0074  1.9355 -0.0525
  265MOL0     H36564   1.255   5.937   9.570 -0.5615  0.8690 -0.7910
  265MOL0     H36565   1.228   5.766   9.589 -0.1399  1.3416  2.1004
  265MOL0     H36566   0.835   5.940   9.544  0.0140 -0.1363 -1.0845
  265MOL0     H36567   1.502   6.147   9.751 -0.6135 -0.5070 -2.1594
  265MOL0     H36568   1.571   6.283   9.940  1.4450 -1.3879  3.7029
  265MOL0     H36569   1.730   6.294  10.000  2.2794 -1.2869 -0.4414
  265MOL0     H36570   1.670   6.399   9.869 -0.7870  0.6989  3.9649
  266MOL0     O36571   0.168   4.495   4.069  0.4077 -0.3523 -1.0732
  266MOL0     C36572   0.163   4.381   4.028 -0.2151 -0.0548  0.0430
  266MOL0     O36573   0.277   4.322   3.977 -0.3746  0.8312 -0.3519
  266MOL0     C36574   0.402   4.373   4.007  0.3632  0.0444 -0.2696
  266MOL0     C36575   0.496   4.305   4.075 -0.8822  0.2782 -0.0949
  266MOL0     C36576   0.627   4.350   4.100  0.0333  0.0041 -0.1606
  266MOL0     C36577   0.668   4.470   4.040  0.1740  0.3215  0.7331
  266MOL0     O36578   0.792   4.519   4.066 -0.0773 -0.4617  0.6040
  266MOL0     C36579   0.894   4.432   4.108 -0.0557  0.4392 -0.4206
  266MOL0     C36580   1.017   4.489   4.047  0.7624  0.3879  0.3836
  266MOL0     C36581   1.081   4.606   4.126 -0.4636 -0.1302  0.3890
  266MOL0     C36582   1.207   4.655   4.050 -0.4775  0.5260  0.0543
  266MOL0     C36583   1.292   4.738   4.140 -0.2969 -0.5753 -0.2450
  266MOL0     C36584   1.407   4.803   4.060  0.7098 -0.1294  0.2430
  266MOL0     C36585   1.516   4.855   4.156  0.1872 -0.0473 -0.2630
  266MOL0     C36586   1.463   4.991   4.211 -0.3662  0.5192 -0.1413
  266MOL0     N36587   1.559   5.050   4.316 -0.9618 -0.4254  0.7889
  266MOL0     C36588   1.700   5.041   4.325 -0.6256 -0.3609  0.5897
  266MOL0     C36589   1.733   5.107   4.437 -0.1555  0.4547  0.0045
  266MOL0     C36590   1.875   5.135   4.482  0.2156 -0.1061 -0.3297
  266MOL0     C36591   1.941   5.271   4.446  0.5363  0.1834 -0.5331
  266MOL0     C36592   1.866   5.399   4.495  0.1432  0.5123 -0.0019
  266MOL0     C36593   1.821   5.406   4.642 -0.3995 -0.1279  0.1145
  266MOL0     O36594   1.919   5.344   4.727  0.2190 -0.0559 -0.7124
  266MOL0     C36595   1.908   5.351   4.864 -0.4452  0.1207  1.3130
  266MOL0     C36596   1.802   5.274   4.926  0.0621 -0.1151  0.3571
  266MOL0     C36597   1.771   5.287   5.060  0.7946 -1.1405 -0.3364
  266MOL0     C36598   1.637   5.232   5.106  0.4090 -0.2508 -0.1691
  266MOL0     C36599   1.855   5.365   5.141 -0.8259 -0.5629  0.9399
  266MOL0     C36600   1.831   5.385   5.280 -0.6629  0.7375  0.7215
  266MOL0     O36601   1.833   5.502   5.333 -0.1143 -0.3882 -0.0301
  266MOL0     C36602   1.857   5.525   5.460  0.7108 -0.2337  0.2100
  266MOL0     C36603   1.750   5.537   5.551 -0.0803  1.2034 -0.2180
  266MOL0     C36604   1.774   5.560   5.690 -0.0601 -0.4431  0.5560
  266MOL0     C36605   1.906   5.578   5.736 -0.3216 -1.0815  0.0297
  266MOL0     O36606   1.920   5.589   5.872 -0.6807 -0.0975 -0.2500
  266MOL0     C36607   2.049   5.590   5.945  0.0070 -0.5199  0.3447
  266MOL0     C36608   2.037   5.673   6.076  0.1989 -0.9459  0.3818
  266MOL0     C36609   2.166   5.706   6.150 -0.2495  0.2237 -0.5111
  266MOL0     C36610   2.251   5.584   6.183  0.0603  0.3442 -0.3797
  266MOL0     C36611   2.356   5.619   6.291 -1.5753 -0.1640  0.8011
  266MOL0     C36612   2.456   5.500   6.293  0.0679 -0.5165 -0.0808
  266MOL0     C36613   2.576   5.520   6.397 -0.6604  0.0310 -0.2405
  266MOL0     C36614   2.691   5.425   6.391 -0.1080 -0.1992  0.3875
  266MOL0    Cl36615   2.711   5.340   6.549 -0.6420 -0.4554 -0.1925
  266MOL0     C36616   2.014   5.573   5.644  1.0320 -0.0883  0.6613
  266MOL0     C36617   1.991   5.540   5.507 -0.0054 -0.5508  0.1949
  266MOL0     O36618   1.840   5.279   5.342  0.4506  0.3606 -0.0481
  266MOL0     C36619   1.966   5.423   5.078 -0.2474  0.2417 -0.2956
  266MOL0     C36620   1.996   5.422   4.942  0.5710  0.0138 -0.3404
  266MOL0     N36621   1.619   5.160   4.492 -0.5254 -0.4421 -0.2281
  266MOL0     N36622   1.519   5.117   4.420 -0.8738  0.1734  0.0187
  266MOL0     C36623   0.577   4.545   3.965 -0.3508 -0.3320 -0.3020
  266MOL0     C36624   0.440   4.498   3.949  0.3135  0.8826  0.0731
  266MOL0     C36625   0.036   4.301   4.034  0.1712 -1.0668  0.3159
  266MOL0     C36626   0.041   4.164   3.995 -0.3563 -0.2167 -0.5135
  266MOL0     C36627  -0.065   4.082   4.006  0.5360  0.5425 -0.1013
  266MOL0     C36628  -0.185   4.128   4.060  0.3708 -0.3956  0.0033
  266MOL0     O36629  -0.292   4.033   4.065  0.7535 -1.1008  0.0097
  266MOL0     C36630  -0.422   4.085   4.102 -0.2658 -0.0723 -0.1027
  266MOL0     C36631  -0.529   3.972   4.112 -0.8336  0.3845 -0.0597
  266MOL0     C36632  -0.659   4.022   4.170  0.2136  0.0651 -0.5884
  266MOL0     C36633  -0.767   3.918   4.178  1.0064 -0.1676  0.1368
  266MOL0     C36634  -0.893   3.979   4.219  0.7154 -0.2368 -0.1935
  266MOL0     C36635  -0.999   4.026   4.240  0.4643 -0.4776  0.2827
  266MOL0     C36636  -0.194   4.272   4.090  0.0986 -0.5263  0.1470
  266MOL0     C36637  -0.082   4.361   4.087  0.1270 -0.3299 -0.5793
  266MOL0     C36638  -0.098   4.499   4.132 -0.4227  0.3910 -0.3236
  266MOL0     H36639   0.476   4.208   4.120 -0.4936  0.5038  0.5877
  266MOL0     H36640   0.694   4.299   4.169 -0.7162  1.3538  1.6318
  266MOL0     H36641   0.884   4.335   4.059  0.3004  1.7983 -3.4138
  266MOL0     H36642   0.909   4.419   4.216  0.6317  0.3764 -0.5201
  266MOL0     H36643   1.092   4.412   4.033  2.7826  2.5817 -1.9264
  266MOL0     H36644   0.994   4.529   3.948  1.7788  0.4402  0.1615
  266MOL0     H36645   1.010   4.688   4.141  0.4442  0.2005  3.3237
  266MOL0     H36646   1.120   4.567   4.220 -2.0182 -0.6796  0.8396
  266MOL0     H36647   1.270   4.575   4.011 -1.9364  0.4101 -2.1900
  266MOL0     H36648   1.170   4.711   3.964  0.3675 -1.3359 -1.6022
  266MOL0     H36649   1.323   4.682   4.228  2.5200  0.8607 -0.2106
  266MOL0     H36650   1.237   4.826   4.175 -4.6718 -1.6865 -3.3558
  266MOL0     H36651   1.472   4.742   3.997  2.2205 -1.0923  2.5743
  266MOL0     H36652   1.368   4.884   3.997 -0.2985 -1.9427 -1.5822
  266MOL0     H36653   1.608   4.865   4.098  0.0395 -0.1027 -0.5113
  266MOL0     H36654   1.531   4.785   4.238 -1.7669 -0.0184  0.1667
  266MOL0     H36655   1.454   5.069   4.136  2.5027  0.5835 -0.5275
  266MOL0     H36656   1.370   4.961   4.261 -0.8218  0.6446 -0.9086
  266MOL0     H36657   1.769   4.991   4.258 -1.8028 -1.3896  0.0986
  266MOL0     H36658   1.938   5.058   4.437  0.7671 -0.0492  0.3275
  266MOL0     H36659   1.869   5.120   4.590 -0.3883 -0.7910 -0.4506
  266MOL0     H36660   2.040   5.265   4.491  0.2991  0.2543  0.0124
  266MOL0     H36661   1.962   5.283   4.339 -0.9958  1.5073 -0.7255
  266MOL0     H36662   1.938   5.480   4.477  0.9480  0.1604  1.5029
  266MOL0     H36663   1.774   5.404   4.436 -2.3485 -1.9951  3.2881
  266MOL0     H36664   1.806   5.512   4.665  0.9524  0.2561 -0.6295
  266MOL0     H36665   1.733   5.342   4.646  0.6810 -1.6763 -0.0078
  266MOL0     H36666   1.737   5.225   4.854  2.4030 -0.8305 -1.3740
  266MOL0     H36667   1.658   5.132   5.145 -0.4892 -0.8484 -1.1614
  266MOL0     H36668   1.567   5.207   5.026  1.2807 -1.4484 -0.5906
  266MOL0     H36669   1.601   5.296   5.187  3.9904  0.3280  1.1520
  266MOL0     H36670   1.647   5.532   5.515  0.0522  0.3844 -0.5218
  266MOL0     H36671   1.694   5.557   5.764 -0.8916 -0.2542 -0.3134
  266MOL0     H36672   2.076   5.485   5.958 -2.6003 -1.0991  2.0592
  266MOL0     H36673   2.122   5.647   5.887 -1.2491  0.1775 -0.6051
  266MOL0     H36674   1.979   5.763   6.050 -0.6662 -0.7352  2.8213
  266MOL0     H36675   1.975   5.617   6.147  1.5779 -1.1586  1.4609
  266MOL0     H36676   2.134   5.752   6.244  0.2794  0.1203 -0.2769
  266MOL0     H36677   2.230   5.786   6.111  0.5635  1.7618  3.5000
  266MOL0     H36678   2.290   5.546   6.088 -0.3928 -0.4752 -0.2513
  266MOL0     H36679   2.183   5.503   6.212  2.2175 -1.6948 -0.7499
  266MOL0     H36680   2.402   5.718   6.285 -0.6082 -0.6328  0.2178
  266MOL0     H36681   2.301   5.607   6.385 -3.5264 -1.4127 -0.4263
  266MOL0     H36682   2.494   5.474   6.194 -0.1139 -0.7777 -0.0856
  266MOL0     H36683   2.404   5.407   6.317  0.2271 -0.5062  0.3066
  266MOL0     H36684   2.539   5.533   6.500  0.4446 -0.8406  0.2914
  266MOL0     H36685   2.612   5.622   6.384 -2.8025  0.8047 -0.4216
  266MOL0     H36686   2.782   5.478   6.361 -0.0081 -1.7457 -2.3485
  266MOL0     H36687   2.659   5.359   6.310  0.1282 -0.5576  0.5843
  266MOL0     H36688   2.114   5.608   5.667  0.5756  0.5127  1.7904
  266MOL0     H36689   2.075   5.532   5.439  1.5063 -0.7686  2.0113
  266MOL0     H36690   2.038   5.478   5.139  1.2882 -0.6380 -1.2538
  266MOL0     H36691   2.085   5.478   4.916  0.7065  0.0136  0.1271
  266MOL0     H36692   0.598   4.638   3.914  0.1184 -0.5957 -0.5929
  266MOL0     H36693   0.375   4.565   3.893  0.8999  2.1664  0.8968
  266MOL0     H36694   0.135   4.138   3.947  0.4142  1.0415  0.2647
  266MOL0     H36695  -0.075   3.981   3.966 -0.0026  0.8560 -0.7756
  266MOL0     H36696  -0.408   4.120   4.205  3.1262 -2.4610  0.4260
  266MOL0     H36697  -0.461   4.163   4.037 -1.4459  1.4354  2.2646
  266MOL0     H36698  -0.490   3.888   4.170  0.7222 -1.0662 -3.0017
  266MOL0     H36699  -0.547   3.933   4.011  1.5599 -1.7648  0.2603
  266MOL0     H36700  -0.648   4.052   4.275  0.3657 -3.0236  0.3637
  266MOL0     H36701  -0.688   4.104   4.103  0.4228  0.4113 -0.2583
  266MOL0     H36702  -0.753   3.825   4.235  1.9854 -0.6759 -0.8832
  266MOL0     H36703  -0.790   3.874   4.081 -0.8871 -0.2517  0.5907
  266MOL0     H36704  -1.087   4.081   4.266  1.7699  1.8050  0.1502
  266MOL0     H36705  -0.281   4.320   4.133  1.2662  2.1808 -0.2512
  266MOL0     H36706  -0.192   4.519   4.185 -0.4700 -0.1137 -0.2145
  266MOL0     H36707  -0.031   4.517   4.216 -1.3549 -0.6452  0.6810
  266MOL0     H36708  -0.082   4.582   4.063  1.7062  2.2016  2.1575
  267MOL0     O36709   0.684   7.067   0.138  0.0955 -0.1498 -0.1649
  267MOL0     C36710   0.591   7.131   0.087  0.5805  0.3010  0.2374
  267MOL0     O36711   0.595   7.269   0.071 -0.4945  0.0853 -0.8505
  267MOL0     C36712   0.665   7.352   0.159 -0.1874 -0.3288  0.2326
  267MOL0     C36713   0.697   7.323   0.293 -0.6361  0.0023  0.3491
  267MOL0     C36714   0.744   7.423   0.374  0.1923  0.4278 -0.6157
  267MOL0     C36715   0.755   7.558   0.329 -0.5031 -0.4525 -0.4063
  267MOL0     O36716   0.811   7.656   0.407  0.0711 -0.5376  0.3223
  267MOL0     C36717   0.811   7.645   0.548  0.0961 -0.0690 -0.2954
  267MOL0     C36718   0.865   7.784   0.597 -0.0800 -0.3149  0.5091
  267MOL0     C36719   1.014   7.809   0.559 -0.1386  0.2423  0.5960
  267MOL0     C36720   1.106   7.686   0.606  0.4978 -0.4475  0.3578
  267MOL0     C36721   1.245   7.726   0.647  0.2232  0.3113 -0.0928
  267MOL0     C36722   1.311   7.594   0.698  0.4615  0.3199 -0.0360
  267MOL0     C36723   1.457   7.625   0.760  0.3773  0.2478  0.4253
  267MOL0     C36724   1.549   7.505   0.728  0.8674  1.2837 -0.8605
  267MOL0     N36725   1.688   7.526   0.765 -0.5974  0.3470  0.2780
  267MOL0     C36726   1.724   7.552   0.894 -1.1348  0.1020 -0.2731
  267MOL0     C36727   1.851   7.605   0.877  0.2458 -0.1639  0.3290
  267MOL0     C36728   1.927   7.659   0.989 -0.2512 -0.5875  1.1450
  267MOL0     C36729   2.074   7.654   0.954 -0.2352 -0.1014 -0.1050
  267MOL0     C36730   2.153   7.718   1.069  0.2454  1.1239 -0.2153
  267MOL0     C36731   2.299   7.665   1.074  0.3796  0.2415  0.1674
  267MOL0     O36732   2.354   7.687   0.945 -0.0146 -0.2942  0.0796
  267MOL0     C36733   2.491   7.665   0.930 -0.6384 -0.4630  0.0793
  267MOL0     C36734   2.549   7.717   0.814  0.4464 -1.2103 -0.0948
  267MOL0     C36735   2.684   7.717   0.793 -0.7209  0.5108  0.0205
  267MOL0     C36736   2.728   7.773   0.656  0.3903 -0.5458 -0.1689
  267MOL0     C36737   2.777   7.663   0.886  0.4263  0.4814  0.2718
  267MOL0     C36738   2.922   7.642   0.879 -0.8187 -0.6098 -0.0396
  267MOL0     O36739   2.980   7.610   0.996 -0.5057  0.7810  0.3826
  267MOL0     C36740   3.120   7.616   0.990  0.0318  1.0177 -1.0446
  267MOL0     C36741   3.191   7.493   1.007 -0.6350 -0.5236  0.5168
  267MOL0     C36742   3.327   7.487   1.008 -0.2352 -0.7413  0.2923
  267MOL0     C36743   3.407   7.605   0.987  0.8546  0.3239 -0.2041
  267MOL0     O36744   3.545   7.595   1.004 -0.1835 -0.0004 -0.7123
  267MOL0     C36745   3.626   7.682   0.921  0.1921  0.6803 -0.3192
  267MOL0     C36746   3.663   7.603   0.803 -0.0776 -0.2658  0.4218
  267MOL0     C36747   3.727   7.470   0.841  0.5095 -0.5014  0.0639
  267MOL0     C36748   3.757   7.396   0.712  0.4138  0.3266  1.3157
  267MOL0     C36749   3.848   7.272   0.744 -0.5731 -0.7097  0.0994
  267MOL0     C36750   3.995   7.324   0.749 -1.1799 -0.1415 -0.1424
  267MOL0     C36751   4.100   7.206   0.747  0.0970  0.1562  0.0451
  267MOL0     C36752   4.246   7.225   0.787 -1.1260 -0.3659 -0.1964
  267MOL0    Cl36753   4.318   7.067   0.748  0.6122  0.2126 -0.0743
  267MOL0     C36754   3.331   7.718   0.968  0.3260 -0.1013  0.2979
  267MOL0     C36755   3.190   7.731   0.985 -0.4140 -0.3299  0.7696
  267MOL0     O36756   2.982   7.646   0.768 -0.3845  0.0414  0.0269
  267MOL0     C36757   2.710   7.606   0.999 -0.0278  0.3556 -0.3253
  267MOL0     C36758   2.577   7.611   1.027  0.4913  0.6439 -0.2053
  267MOL0     N36759   1.888   7.608   0.740  0.3061 -0.5763 -0.1118
  267MOL0     N36760   1.789   7.555   0.678 -0.4001 -0.6448  0.7335
  267MOL0     C36761   0.718   7.589   0.196 -1.3999 -0.5720 -0.4530
  267MOL0     C36762   0.672   7.483   0.108 -0.4579  0.3116 -0.1174
  267MOL0     C36763   0.472   7.068   0.040 -0.1809  0.1238  1.2412
  267MOL0     C36764   0.418   6.966   0.118  0.7313  0.5438 -0.4674
  267MOL0     C36765   0.315   6.878   0.076  0.0412 -0.2454 -0.0572
  267MOL0     C36766   0.247   6.914  -0.050  0.2170  0.5638  0.0722
  267MOL0     O36767   0.132   6.844  -0.091 -0.3992  0.1653 -0.2843
  267MOL0     C36768   0.019   6.841   0.001 -0.0229  0.0970  0.0486
  267MOL0     C36769  -0.001   6.973   0.074  0.0284 -0.2153 -0.2168
  267MOL0     C36770  -0.132   7.028   0.050 -0.2589 -0.5831 -0.0364
  267MOL0     C36771  -0.151   7.153   0.137  0.3004 -1.0047 -0.5393
  267MOL0     C36772  -0.184   7.133   0.276 -0.4967 -0.6659  0.8358
  267MOL0     C36773  -0.213   7.105   0.391 -0.8586  0.3377 -0.3383
  267MOL0     C36774   0.300   7.014  -0.132 -0.0273 -0.1710  0.7433
  267MOL0     C36775   0.411   7.095  -0.085  1.2610 -0.1177 -0.0897
  267MOL0     C36776   0.457   7.202  -0.178  0.9845  0.7953 -0.3984
  267MOL0     H36777   0.681   7.220   0.321  0.8722 -0.3662 -0.0636
  267MOL0     H36778   0.766   7.386   0.473 -1.2929  2.1267  0.4037
  267MOL0     H36779   0.859   7.555   0.587 -1.3486 -0.4930  0.5898
  267MOL0     H36780   0.709   7.634   0.587  0.1762 -1.6667 -0.4708
  267MOL0     H36781   0.811   7.873   0.564  2.0092  1.2418  1.0978
  267MOL0     H36782   0.870   7.771   0.706 -0.5361  1.6423  0.7879
  267MOL0     H36783   1.024   7.790   0.452  1.0367 -3.9006  1.2784
  267MOL0     H36784   1.046   7.910   0.588  1.4022 -0.5347  1.7805
  267MOL0     H36785   1.052   7.655   0.696 -0.9463  1.6029  0.2570
  267MOL0     H36786   1.109   7.610   0.528  8.4151  0.3399 -0.9200
  267MOL0     H36787   1.252   7.809   0.718 -0.5517  0.7283 -0.4900
  267MOL0     H36788   1.303   7.748   0.556  0.5073  1.1690  0.2860
  267MOL0     H36789   1.250   7.538   0.769  1.1776 -2.7593 -1.6463
  267MOL0     H36790   1.313   7.526   0.611 -0.1509 -1.1620  1.0606
  267MOL0     H36791   1.438   7.637   0.867 -0.2261 -3.2880  0.8398
  267MOL0     H36792   1.497   7.719   0.723 -0.9877 -0.1437 -2.3322
  267MOL0     H36793   1.512   7.414   0.775  0.7338  1.3283 -0.8776
  267MOL0     H36794   1.536   7.489   0.620 -2.1586 -0.6886 -0.3199
  267MOL0     H36795   1.670   7.552   0.988 -1.0187 -0.7963 -0.1989
  267MOL0     H36796   1.907   7.607   1.083 -1.4887  1.6392  2.1985
  267MOL0     H36797   1.895   7.764   0.996  1.2508 -0.0922  0.8440
  267MOL0     H36798   2.115   7.555   0.933  0.6911 -0.0362  1.2517
  267MOL0     H36799   2.099   7.712   0.864 -0.4978  0.7233  0.3499
  267MOL0     H36800   2.145   7.827   1.059 -2.0402  0.9516 -0.9466
  267MOL0     H36801   2.101   7.692   1.162  0.5535  0.8924 -0.1065
  267MOL0     H36802   2.358   7.724   1.146  1.0682  0.7679 -0.8080
  267MOL0     H36803   2.293   7.560   1.105  0.6913 -0.8403 -3.1253
  267MOL0     H36804   2.484   7.752   0.734  1.2759 -1.6996 -0.9956
  267MOL0     H36805   2.818   7.834   0.668  0.6971 -1.2064  0.9586
  267MOL0     H36806   2.643   7.832   0.618  2.2383  4.2902  2.3629
  267MOL0     H36807   2.750   7.688   0.591  0.8450 -0.5557 -0.0003
  267MOL0     H36808   3.135   7.403   1.032  0.3051 -1.0004  0.9369
  267MOL0     H36809   3.379   7.394   1.024  0.5392 -0.3434  0.1230
  267MOL0     H36810   3.578   7.780   0.911  1.7922  2.0781  3.6370
  267MOL0     H36811   3.719   7.707   0.974 -0.5954  1.4629  0.7582
  267MOL0     H36812   3.570   7.577   0.751 -0.8451  2.9515  0.0033
  267MOL0     H36813   3.711   7.661   0.723 -1.6844 -2.6275 -2.5064
  267MOL0     H36814   3.666   7.418   0.915 -0.2227 -1.8353 -1.4337
  267MOL0     H36815   3.822   7.482   0.895  0.2870 -0.1604  0.3834
  267MOL0     H36816   3.806   7.458   0.636 -1.4428  0.8812  0.5067
  267MOL0     H36817   3.666   7.353   0.668  0.4565  1.2957  0.2342
  267MOL0     H36818   3.826   7.231   0.843  0.5029  2.2201  1.6642
  267MOL0     H36819   3.842   7.198   0.664  1.4496 -1.5754  0.7039
  267MOL0     H36820   4.006   7.385   0.839  1.7772 -0.9412  0.1429
  267MOL0     H36821   4.022   7.394   0.670  0.9503  2.7566  2.8876
  267MOL0     H36822   4.103   7.185   0.640  0.4560 -1.8654  0.4261
  267MOL0     H36823   4.055   7.119   0.795 -2.3739 -0.7969 -3.5493
  267MOL0     H36824   4.251   7.242   0.895  1.0343 -0.3455 -0.2658
  267MOL0     H36825   4.298   7.306   0.735 -2.3841  0.0229 -0.9136
  267MOL0     H36826   3.384   7.807   0.935  0.0096 -1.1977 -3.7449
  267MOL0     H36827   3.137   7.826   0.975 -1.8063 -0.9403  2.0406
  267MOL0     H36828   2.780   7.553   1.063  1.5203  1.0145 -1.4065
  267MOL0     H36829   2.547   7.554   1.115 -2.3763  1.1332 -0.7687
  267MOL0     H36830   0.733   7.692   0.166  0.5399 -0.6452  0.0749
  267MOL0     H36831   0.640   7.506   0.007  0.8372  1.3582 -0.3208
  267MOL0     H36832   0.457   6.935   0.214  0.5979  1.7109 -0.0250
  267MOL0     H36833   0.280   6.806   0.149  1.2972 -1.7281 -0.8587
  267MOL0     H36834  -0.068   6.812  -0.058 -0.7357  0.0438  1.1053
  267MOL0     H36835   0.042   6.761   0.072  3.6201  1.9727  1.2708
  267MOL0     H36836   0.075   7.048   0.049 -0.2514  0.3318  0.5431
  267MOL0     H36837   0.027   6.951   0.178  2.6391  2.3366 -0.2380
  267MOL0     H36838  -0.154   7.059  -0.052 -0.0837 -2.4277 -0.6759
  267MOL0     H36839  -0.209   6.952   0.067 -2.2351  1.3765  0.1495
  267MOL0     H36840  -0.238   7.209   0.101  0.3440  1.9853  3.3023
  267MOL0     H36841  -0.062   7.215   0.124  0.1480 -0.8472 -0.8470
  267MOL0     H36842  -0.229   7.082   0.494  2.5675 -1.6743 -0.0964
  267MOL0     H36843   0.249   7.027  -0.227  1.8265  0.3532 -0.2190
  267MOL0     H36844   0.440   7.300  -0.133 -2.9265  0.4304 -0.7248
  267MOL0     H36845   0.562   7.186  -0.207  0.8467 -1.9013  0.2804
  267MOL0     H36846   0.392   7.197  -0.266 -0.1047 -2.5003  0.4405
  268MOL0     O36847   0.506   4.984   1.090  0.2013  0.4283  0.1731
  268MOL0     C36848   0.489   4.960   1.207 -0.6042 -1.1106 -0.0839
  268MOL0     O36849   0.586   4.950   1.309  0.0850  0.0213 -0.0392
  268MOL0     C36850   0.723   4.957   1.298  0.2730 -0.6393 -0.0808
  268MOL0     C36851   0.802   4.934   1.182 -0.0936 -0.0470  0.1063
  268MOL0     C36852   0.945   4.925   1.190  0.1216  0.1443  0.6436
  268MOL0     C36853   1.011   4.936   1.312 -0.3313  0.2454  1.0037
  268MOL0     O36854   1.153   4.928   1.304  0.4110 -0.9653 -0.0590
  268MOL0     C36855   1.229   4.850   1.400 -0.2411  0.4936 -0.1929
  268MOL0     C36856   1.378   4.888   1.402 -0.0247  0.3075  0.2075
  268MOL0     C36857   1.408   4.994   1.509  0.0847  0.3803  0.0702
  268MOL0     C36858   1.554   5.026   1.534 -0.7212  0.2504 -0.2204
  268MOL0     C36859   1.633   4.939   1.630 -0.2116 -0.0499 -0.1959
  268MOL0     C36860   1.758   5.000   1.700 -0.2012  0.2536  1.2314
  268MOL0     C36861   1.814   4.905   1.809  0.0917  0.0149 -0.0159
  268MOL0     C36862   1.915   4.986   1.883  0.5641 -0.2620 -0.3880
  268MOL0     N36863   2.048   5.003   1.820 -0.4374 -0.0425 -0.2003
  268MOL0     C36864   2.130   4.907   1.766  0.5266 -0.2790 -0.2407
  268MOL0     C36865   2.216   4.973   1.686  0.8369 -0.8065  0.0141
  268MOL0     C36866   2.321   4.922   1.594 -0.6632  0.1051  0.8033
  268MOL0     C36867   2.459   4.987   1.608  0.7871  0.1790  0.2315
  268MOL0     C36868   2.501   5.001   1.763 -0.0299  0.2056 -0.5377
  268MOL0     C36869   2.643   5.052   1.773  0.1618  0.7468  0.1492
  268MOL0     O36870   2.737   4.992   1.684 -0.3642  0.0897  0.6103
  268MOL0     C36871   2.859   5.045   1.682  0.2938 -0.6032 -0.7098
  268MOL0     C36872   2.911   5.125   1.783 -0.3749 -0.1365 -0.7555
  268MOL0     C36873   3.046   5.157   1.782  0.1414  0.4564 -0.6098
  268MOL0     C36874   3.103   5.220   1.903  0.7933 -0.8092  0.5434
  268MOL0     C36875   3.128   5.132   1.671 -0.0728 -0.3763  0.1619
  268MOL0     C36876   3.278   5.154   1.662 -0.3836 -0.4652 -0.1740
  268MOL0     O36877   3.331   5.133   1.540  0.5616  0.1118  0.3382
  268MOL0     C36878   3.458   5.104   1.530  0.1994  0.0689  0.8713
  268MOL0     C36879   3.501   4.970   1.566 -0.3640 -0.5120 -0.4995
  268MOL0     C36880   3.636   4.943   1.579  0.8254 -0.4825  0.8964
  268MOL0     C36881   3.731   5.041   1.549 -0.1614  0.4951 -0.3076
  268MOL0     O36882   3.866   5.012   1.552  0.8811 -0.6215 -0.0419
  268MOL0     C36883   3.938   5.046   1.432  0.1747  1.4456 -0.1463
  268MOL0     C36884   4.084   5.047   1.460 -0.7540 -0.3533 -0.2796
  268MOL0     C36885   4.163   5.077   1.327  0.2981  0.3850  0.2581
  268MOL0     C36886   4.316   5.088   1.355  0.3874  0.2342 -0.6800
  268MOL0     C36887   4.380   5.135   1.224 -1.1195  0.3948  0.5475
  268MOL0     C36888   4.532   5.159   1.231  0.4943  0.3399  0.3522
  268MOL0     C36889   4.612   5.049   1.279  0.4935 -0.5432  0.0281
  268MOL0     C36890   4.758   5.081   1.233 -0.8533 -0.2245 -0.1822
  268MOL0    Cl36891   4.802   5.208   1.348 -0.1124 -0.2288  0.5864
  268MOL0     C36892   3.690   5.169   1.520 -1.0873 -1.7088  0.2087
  268MOL0     C36893   3.556   5.204   1.512  0.7250 -0.0232 -0.2223
  268MOL0     O36894   3.348   5.170   1.766 -0.9069  0.5281 -0.5842
  268MOL0     C36895   3.063   5.065   1.561  0.8349 -0.2926 -0.7915
  268MOL0     C36896   2.933   5.024   1.570 -0.4560 -0.2668  0.1047
  268MOL0     N36897   2.184   5.107   1.694 -0.0927  0.4049  0.6752
  268MOL0     N36898   2.083   5.124   1.764 -0.8910  0.3983 -0.7004
  268MOL0     C36899   0.941   4.960   1.428 -0.1740 -0.1195  0.6238
  268MOL0     C36900   0.794   4.985   1.416  0.0480  0.1127  0.2402
  268MOL0     C36901   0.356   4.985   1.267  0.5359 -0.1268  0.8021
  268MOL0     C36902   0.351   5.010   1.401  0.2732 -0.3428  0.8196
  268MOL0     C36903   0.234   5.010   1.468 -0.8470 -1.0784 -0.3845
  268MOL0     C36904   0.109   5.003   1.407  0.7652  0.0136  0.4258
  268MOL0     O36905  -0.009   5.008   1.468  0.1126  0.5879  0.0748
  268MOL0     C36906  -0.011   5.040   1.606 -0.0633  0.3661  0.1767
  268MOL0     C36907  -0.157   5.050   1.646  0.1123 -0.0903  0.0982
  268MOL0     C36908  -0.242   4.917   1.622  0.0607 -0.5852 -0.4627
  268MOL0     C36909  -0.383   4.915   1.687 -0.5031 -0.8444 -1.0000
  268MOL0     C36910  -0.372   4.942   1.824  0.4965 -0.2189 -0.6522
  268MOL0     C36911  -0.371   4.948   1.945 -0.3203  0.4388 -0.7705
  268MOL0     C36912   0.106   4.983   1.265  0.1112 -0.1448  0.2030
  268MOL0     C36913   0.228   4.987   1.196  0.5218 -0.1694 -0.2803
  268MOL0     C36914   0.214   4.995   1.047  0.0989  0.2789  0.3257
  268MOL0     H36915   0.750   4.919   1.088  3.3718 -0.7710 -1.8863
  268MOL0     H36916   1.005   4.898   1.104  1.5172 -1.6009  2.0725
  268MOL0     H36917   1.221   4.746   1.364  0.5957  0.4258 -0.2030
  268MOL0     H36918   1.196   4.862   1.504 -0.4698  0.5675 -0.2738
  268MOL0     H36919   1.438   4.805   1.441 -0.8219  0.1856  1.2376
  268MOL0     H36920   1.409   4.921   1.303  0.6414 -0.9072 -0.0068
  268MOL0     H36921   1.361   5.092   1.500  0.0842  0.4599  0.8496
  268MOL0     H36922   1.372   4.953   1.604 -3.4182  1.5508 -0.5935
  268MOL0     H36923   1.619   5.027   1.446  0.4109  1.6382  0.5791
  268MOL0     H36924   1.561   5.122   1.587 -1.8133 -0.9601  2.2721
  268MOL0     H36925   1.667   4.845   1.586  3.0007  1.0614 -0.3189
  268MOL0     H36926   1.566   4.904   1.709  0.2919 -3.0996 -0.9860
  268MOL0     H36927   1.835   5.031   1.628 -3.2930 -1.8612 -3.5231
  268MOL0     H36928   1.729   5.090   1.755  2.2131  2.0390 -0.1745
  268MOL0     H36929   1.860   4.815   1.768  2.3730  2.1660 -2.5606
  268MOL0     H36930   1.724   4.886   1.869 -0.8712  1.0176 -1.0754
  268MOL0     H36931   1.869   5.074   1.928 -0.7670  0.4830 -3.0154
  268MOL0     H36932   1.929   4.920   1.970 -3.6451  0.7811  1.3442
  268MOL0     H36933   2.125   4.799   1.773 -1.7563 -0.2894 -1.3209
  268MOL0     H36934   2.286   4.911   1.491 -0.0017 -3.2393  0.8209
  268MOL0     H36935   2.343   4.818   1.620 -1.2416 -0.5697 -1.2096
  268MOL0     H36936   2.534   4.926   1.557  3.3856  2.6218  0.9264
  268MOL0     H36937   2.451   5.083   1.557  3.6435 -0.3146 -1.3074
  268MOL0     H36938   2.435   5.063   1.825 -0.1453 -1.9750  1.6882
  268MOL0     H36939   2.510   4.900   1.805  0.0684  0.6050  0.4494
  268MOL0     H36940   2.642   5.160   1.757  1.6931  0.4074 -2.7067
  268MOL0     H36941   2.667   5.024   1.876 -2.9566 -0.9224  0.5568
  268MOL0     H36942   2.859   5.127   1.878  1.1047 -1.8573  0.1614
  268MOL0     H36943   3.028   5.258   1.973 -0.3933  3.4806 -2.6508
  268MOL0     H36944   3.154   5.311   1.868 -0.2944 -0.3813  0.0328
  268MOL0     H36945   3.177   5.158   1.954  3.1858  0.8347 -0.6812
  268MOL0     H36946   3.427   4.892   1.580 -0.5579  0.2086  4.0954
  268MOL0     H36947   3.673   4.844   1.605  0.7112 -0.1539  2.3452
  268MOL0     H36948   3.922   4.967   1.357  1.5933  1.4611 -0.4834
  268MOL0     H36949   3.908   5.143   1.391 -0.7745  1.1515 -0.1764
  268MOL0     H36950   4.105   5.121   1.538  1.1313 -1.8984  0.7533
  268MOL0     H36951   4.119   4.948   1.490  0.5735 -0.1234 -0.9510
  268MOL0     H36952   4.129   5.176   1.293 -0.3085  0.4052  0.9066
  268MOL0     H36953   4.152   5.008   1.243  0.6219  1.7172 -0.9201
  268MOL0     H36954   4.345   4.987   1.386  0.5583  0.7806  1.0243
  268MOL0     H36955   4.336   5.142   1.447 -0.5757 -1.3043  0.4830
  268MOL0     H36956   4.364   5.052   1.154  1.1403 -1.8514  2.5103
  268MOL0     H36957   4.332   5.226   1.188  1.8585  1.5805 -0.7015
  268MOL0     H36958   4.551   5.253   1.284  2.5431  0.7358 -0.9859
  268MOL0     H36959   4.568   5.184   1.131  1.9424 -1.8490  0.2809
  268MOL0     H36960   4.572   4.947   1.267  1.7535 -1.4035  2.4400
  268MOL0     H36961   4.621   5.059   1.388  4.5227  2.0826 -0.3343
  268MOL0     H36962   4.771   5.122   1.133 -0.5940  0.0079 -0.0526
  268MOL0     H36963   4.820   4.993   1.253 -1.8204 -0.9812 -0.3993
  268MOL0     H36964   3.768   5.244   1.504 -2.0922 -0.5099  0.7905
  268MOL0     H36965   3.525   5.304   1.483  0.9283  0.5994  1.5784
  268MOL0     H36966   3.118   5.048   1.469  2.1035  1.5780 -0.4358
  268MOL0     H36967   2.890   4.974   1.484  0.2186  0.5798 -0.7472
  268MOL0     H36968   0.987   4.964   1.526 -1.7830 -0.5185  1.4329
  268MOL0     H36969   0.729   5.013   1.498 -0.4938  0.6273 -0.3549
  268MOL0     H36970   0.436   5.002   1.468  1.1347 -0.9768 -0.3182
  268MOL0     H36971   0.234   5.023   1.575 -2.8746  2.0113 -0.6253
  268MOL0     H36972   0.048   4.963   1.655 -0.3392 -1.7543 -2.5743
  268MOL0     H36973   0.031   5.140   1.623 -2.7547  1.2772  2.0537
  268MOL0     H36974  -0.214   5.135   1.608  0.0507  1.5064  3.4024
  268MOL0     H36975  -0.146   5.069   1.753 -2.4319  2.2319  0.0633
  268MOL0     H36976  -0.272   4.905   1.517 -0.5300 -2.3131 -0.1253
  268MOL0     H36977  -0.180   4.833   1.653  0.2870 -0.5835 -0.9112
  268MOL0     H36978  -0.421   4.813   1.684 -1.4632 -0.5014 -1.2385
  268MOL0     H36979  -0.453   4.985   1.638 -0.2509 -0.4656 -0.8261
  268MOL0     H36980  -0.377   4.946   2.052 -2.2291  0.1005 -0.8467
  268MOL0     H36981   0.009   4.977   1.216  0.8769 -2.0691 -1.1587
  268MOL0     H36982   0.109   4.980   1.021  0.6110  0.3654 -2.0607
  268MOL0     H36983   0.248   5.086   0.997 -1.2194 -0.3402 -1.8421
  268MOL0     H36984   0.266   4.911   0.999  1.3205  1.0451  0.2507
  269MOL0     O36985   3.096   5.867   4.717  0.7982  0.4039 -0.5345
  269MOL0     C36986   2.995   5.819   4.659  0.6703 -0.1645 -0.1075
  269MOL0     O36987   2.995   5.707   4.585  0.0450  0.6523 -0.1582
  269MOL0     C36988   3.101   5.620   4.594 -0.2192 -0.9996  0.3904
  269MOL0     C36989   3.238   5.663   4.564 -0.0211 -0.2432  0.3992
  269MOL0     C36990   3.346   5.577   4.566 -0.7862  0.2870 -0.2302
  269MOL0     C36991   3.324   5.441   4.603 -0.8430  0.1374 -0.3492
  269MOL0     O36992   3.417   5.350   4.632 -0.0530  0.3126  0.4241
  269MOL0     C36993   3.553   5.366   4.622 -0.1603 -0.8325 -0.2995
  269MOL0     C36994   3.625   5.234   4.606  0.1766  0.4820  0.3515
  269MOL0     C36995   3.773   5.247   4.636  1.1822 -0.2298 -0.0272
  269MOL0     C36996   3.833   5.107   4.656 -0.2133 -0.6391 -1.1609
  269MOL0     C36997   3.978   5.111   4.712 -0.1679  0.6677  0.4887
  269MOL0     C36998   3.986   5.150   4.859  0.6598  0.6216  0.0597
  269MOL0     C36999   4.138   5.150   4.904  0.0803  0.1124 -1.0980
  269MOL0     C37000   4.193   5.283   4.862 -0.3454  0.0327 -0.1818
  269MOL0     N37001   4.338   5.299   4.868  0.6961  0.0313  0.3968
  269MOL0     C37002   4.420   5.272   4.762  0.0247 -0.1914  0.0951
  269MOL0     C37003   4.538   5.314   4.805  0.3220 -0.2945 -0.7211
  269MOL0     C37004   4.663   5.305   4.723  0.1934  0.1500 -0.7178
  269MOL0     C37005   4.723   5.440   4.713  0.0416 -0.8331 -0.7402
  269MOL0     C37006   4.821   5.464   4.594  0.0889  0.1283 -1.0416
  269MOL0     C37007   4.940   5.560   4.620 -0.9520  0.6094 -0.4713
  269MOL0     O37008   5.012   5.533   4.740 -0.3425  0.1908  0.0027
  269MOL0     C37009   5.103   5.636   4.774  0.4553  0.7672 -0.6358
  269MOL0     C37010   5.123   5.659   4.912 -0.9909 -0.0571  0.3357
  269MOL0     C37011   5.225   5.744   4.958 -0.2951  0.1527  0.3810
  269MOL0     C37012   5.226   5.768   5.103 -0.5603 -1.3174  0.5046
  269MOL0     C37013   5.299   5.821   4.864 -0.1766 -0.2471 -0.0589
  269MOL0     C37014   5.387   5.939   4.902 -0.3889  0.4161 -0.5343
  269MOL0     O37015   5.370   6.012   5.022  0.1648  0.3655  0.3563
  269MOL0     C37016   5.466   6.107   5.039 -0.6811  0.0379 -0.9791
  269MOL0     C37017   5.590   6.058   5.081  0.6394  0.1077 -0.5397
  269MOL0     C37018   5.693   6.154   5.106 -0.0592 -0.0528 -0.5440
  269MOL0     C37019   5.669   6.288   5.106 -0.3628  0.1868 -0.0985
  269MOL0     O37020   5.783   6.368   5.127 -0.2856 -0.2326  0.0449
  269MOL0     C37021   5.772   6.512   5.147  0.2420  0.0642  0.5697
  269MOL0     C37022   5.904   6.571   5.192  0.1221  0.1459  0.1902
  269MOL0     C37023   5.913   6.570   5.345  0.4034  1.0738  0.2461
  269MOL0     C37024   6.044   6.636   5.365  0.2086  0.2106 -0.0529
  269MOL0     C37025   6.093   6.616   5.510 -0.4691  0.4915  0.2057
  269MOL0     C37026   6.235   6.680   5.523  0.2523 -0.6554  0.3601
  269MOL0     C37027   6.325   6.663   5.649  0.3579 -0.1599 -0.2820
  269MOL0     C37028   6.384   6.522   5.669 -0.7297  0.3521 -0.0004
  269MOL0    Cl37029   6.546   6.522   5.592  0.2420 -0.1117  0.0986
  269MOL0     C37030   5.548   6.333   5.060  0.4027 -0.1648  0.4070
  269MOL0     C37031   5.450   6.244   5.023  0.1459 -0.5234  0.1714
  269MOL0     O37032   5.475   5.960   4.816  0.6409  0.6688  0.1504
  269MOL0     C37033   5.278   5.800   4.731 -0.1315  1.2315  0.3370
  269MOL0     C37034   5.183   5.711   4.680 -0.4122 -0.3502 -0.0057
  269MOL0     N37035   4.522   5.352   4.939 -0.3329 -0.4234  1.3172
  269MOL0     N37036   4.400   5.338   4.977 -0.0661  0.2794  0.3114
  269MOL0     C37037   3.192   5.403   4.637  0.6016  0.0828 -0.6985
  269MOL0     C37038   3.079   5.483   4.633 -0.8946 -0.5674  0.2736
  269MOL0     C37039   2.865   5.892   4.663  0.3130 -0.2972  0.5921
  269MOL0     C37040   2.754   5.834   4.604  0.1212 -0.2148  0.5532
  269MOL0     C37041   2.629   5.898   4.581 -0.7581  1.6359 -0.2950
  269MOL0     C37042   2.612   6.020   4.646 -0.2228 -0.0713  0.0522
  269MOL0     O37043   2.490   6.081   4.634 -0.2991  0.6464  0.6736
  269MOL0     C37044   2.499   6.200   4.568  1.2171  0.1572  0.2745
  269MOL0     C37045   2.363   6.262   4.522 -0.4285  0.8300 -0.8911
  269MOL0     C37046   2.383   6.378   4.426 -0.3514 -0.0954  0.1839
  269MOL0     C37047   2.406   6.513   4.491  0.2660 -0.8225 -0.2308
  269MOL0     C37048   2.468   6.613   4.394  0.7009  0.9837 -0.5694
  269MOL0     C37049   2.480   6.704   4.312 -0.0931 -0.0090 -0.7848
  269MOL0     C37050   2.701   6.075   4.732  0.6332  0.5818  0.4282
  269MOL0     C37051   2.829   6.018   4.737 -0.6407 -0.2543 -0.2568
  269MOL0     C37052   2.938   6.101   4.805  0.0243  0.5393 -0.9363
  269MOL0     H37053   3.249   5.769   4.544 -2.7604  0.0541  0.0853
  269MOL0     H37054   3.449   5.604   4.547 -0.3568 -0.6010  0.7629
  269MOL0     H37055   3.579   5.410   4.719 -0.9063 -0.3822 -0.2955
  269MOL0     H37056   3.581   5.433   4.540  0.1077 -0.3327  0.1939
  269MOL0     H37057   3.573   5.165   4.674 -2.0408  0.9037 -0.8352
  269MOL0     H37058   3.624   5.185   4.509  0.4545  1.7052 -0.2821
  269MOL0     H37059   3.823   5.304   4.557 -2.7909  1.3978 -1.6007
  269MOL0     H37060   3.772   5.305   4.729 -1.7823 -0.0272 -0.1182
  269MOL0     H37061   3.770   5.061   4.733  0.9377 -0.7639 -0.2503
  269MOL0     H37062   3.831   5.059   4.558  3.2163  0.2559 -1.8145
  269MOL0     H37063   4.031   5.181   4.646 -0.3296 -0.0055 -0.3829
  269MOL0     H37064   4.027   5.017   4.684  0.5667  2.1895 -4.2266
  269MOL0     H37065   3.939   5.248   4.873  1.9341  1.0280  1.8027
  269MOL0     H37066   3.926   5.070   4.903  1.1304 -0.7770 -1.6947
  269MOL0     H37067   4.199   5.061   4.882 -0.0781 -0.3778  0.3432
  269MOL0     H37068   4.139   5.146   5.013  0.0618  3.0013 -0.9150
  269MOL0     H37069   4.168   5.302   4.757  1.4214  0.9761 -0.4584
  269MOL0     H37070   4.145   5.355   4.928  1.4507  2.0976 -1.0456
  269MOL0     H37071   4.393   5.228   4.667  2.7316  0.6764 -1.1663
  269MOL0     H37072   4.639   5.275   4.620 -1.6230  2.0411 -0.8989
  269MOL0     H37073   4.734   5.233   4.766 -1.0814  0.5885  2.3286
  269MOL0     H37074   4.645   5.516   4.700  0.4830 -0.2584 -0.1170
  269MOL0     H37075   4.771   5.464   4.809  0.1272 -2.2055 -0.4271
  269MOL0     H37076   4.862   5.364   4.577  0.7426  0.0937  0.5490
  269MOL0     H37077   4.771   5.491   4.501 -1.7496  0.1183 -0.0832
  269MOL0     H37078   4.995   5.564   4.525 -0.7043 -1.5832 -0.4805
  269MOL0     H37079   4.904   5.662   4.634 -0.6745  0.2764  4.0604
  269MOL0     H37080   5.056   5.614   4.985 -0.2416 -0.4547  0.7886
  269MOL0     H37081   5.230   5.672   5.156  0.1686 -1.2636  0.5604
  269MOL0     H37082   5.139   5.828   5.132  0.6786  1.7891 -1.6835
  269MOL0     H37083   5.311   5.828   5.136 -1.4509  0.4442 -0.2661
  269MOL0     H37084   5.612   5.952   5.090 -4.0300 -1.2152 -1.6492
  269MOL0     H37085   5.795   6.124   5.131 -0.2138 -0.8695 -0.8563
  269MOL0     H37086   5.750   6.563   5.053  0.0837 -0.1770  0.4727
  269MOL0     H37087   5.693   6.538   5.218 -0.4881  0.3454 -0.3297
  269MOL0     H37088   5.985   6.521   5.138 -0.9474 -0.4865 -0.8724
  269MOL0     H37089   5.904   6.677   5.165  0.0934 -0.4809 -2.5930
  269MOL0     H37090   5.906   6.466   5.376 -2.6212  0.5115 -1.8384
  269MOL0     H37091   5.836   6.634   5.388 -0.4787 -0.4103  0.9413
  269MOL0     H37092   6.020   6.742   5.349 -2.0801 -0.1356  0.8108
  269MOL0     H37093   6.124   6.601   5.299 -2.7503 -2.1150 -2.6926
  269MOL0     H37094   6.031   6.669   5.583 -0.7466 -0.9694  1.0607
  269MOL0     H37095   6.107   6.514   5.544 -1.3479  0.7367  1.3737
  269MOL0     H37096   6.208   6.783   5.501 -2.0716 -1.3519 -0.4305
  269MOL0     H37097   6.294   6.631   5.445 -1.3991  1.6427 -2.5369
  269MOL0     H37098   6.267   6.690   5.738  3.1829 -0.1004  1.6698
  269MOL0     H37099   6.404   6.738   5.643 -0.1593  0.3536 -0.7744
  269MOL0     H37100   6.322   6.445   5.622 -1.0774  1.5493 -1.5563
  269MOL0     H37101   6.403   6.493   5.773 -0.8952 -2.4827 -0.6794
  269MOL0     H37102   5.517   6.433   5.029  0.2839  0.1665  1.5329
  269MOL0     H37103   5.355   6.269   4.977 -0.4448  1.1470  2.1730
  269MOL0     H37104   5.338   5.857   4.661 -1.2904  0.6885 -1.1577
  269MOL0     H37105   5.171   5.701   4.572 -0.1510  0.8610 -0.1558
  269MOL0     H37106   3.174   5.296   4.644 -0.5237  0.3575  1.3120
  269MOL0     H37107   2.981   5.447   4.662 -1.2753  0.5965  0.4754
  269MOL0     H37108   2.759   5.736   4.556  0.7819  1.2408 -2.6086
  269MOL0     H37109   2.544   5.860   4.526 -0.7093  0.0826  0.6264
  269MOL0     H37110   2.554   6.270   4.631  1.5524 -0.7083  0.9486
  269MOL0     H37111   2.552   6.192   4.472 -1.1261  0.9994 -1.1785
  269MOL0     H37112   2.302   6.284   4.609 -0.4506  1.2527 -1.0129
  269MOL0     H37113   2.327   6.174   4.467  2.1369 -0.3227 -0.8726
  269MOL0     H37114   2.456   6.359   4.346 -1.2296  2.4299 -1.3119
  269MOL0     H37115   2.290   6.386   4.370 -0.8295  0.4957  1.0488
  269MOL0     H37116   2.486   6.507   4.566 -1.4139 -2.4643  1.5447
  269MOL0     H37117   2.314   6.551   4.535  0.4974 -0.5504  0.0216
  269MOL0     H37118   2.479   6.791   4.250  0.5170  0.7893  0.2878
  269MOL0     H37119   2.681   6.164   4.791 -1.2811  0.6882 -0.3138
  269MOL0     H37120   2.901   6.194   4.850 -0.7761 -0.0146 -0.4377
  269MOL0     H37121   2.964   6.049   4.898 -2.8585  0.3819 -0.1215
  269MOL0     H37122   3.020   6.118   4.734  1.1235 -2.7428 -0.6344
  270MOL0     O37123   6.111  10.146   4.915 -0.1255  0.5045 -0.2782
  270MOL0     C37124   6.028  10.221   4.854 -1.7401  0.7943  0.4515
  270MOL0     O37125   6.067  10.332   4.778  0.0078  0.6740 -0.2851
  270MOL0     C37126   6.203  10.359   4.772 -0.3151 -0.7113  0.6078
  270MOL0     C37127   6.274  10.338   4.652 -0.0259  0.3012  0.2074
  270MOL0     C37128   6.413  10.362   4.645 -0.0820  0.1045 -0.2842
  270MOL0     C37129   6.486  10.419   4.753 -0.1240 -0.6313  0.2386
  270MOL0     O37130   6.625  10.455   4.760 -0.0636  0.2487 -0.8112
  270MOL0     C37131   6.678  10.525   4.647 -0.1433  0.2381  0.0788
  270MOL0     C37132   6.810  10.457   4.601 -0.5632 -0.0019  0.3577
  270MOL0     C37133   6.808  10.380   4.467  0.2484  0.8115 -0.4616
  270MOL0     C37134   6.824  10.473   4.347  0.6892  0.2330  0.1947
  270MOL0     C37135   6.770  10.404   4.219 -0.3111  0.7300 -0.1125
  270MOL0     C37136   6.736  10.491   4.102 -0.0004  0.2518  0.2276
  270MOL0     C37137   6.860  10.583   4.071 -0.0989  0.3044 -0.8024
  270MOL0     C37138   6.882  10.627   3.924 -0.6527  0.2131  1.1346
  270MOL0     N37139   6.786  10.722   3.880  0.3578 -0.3855  0.0072
  270MOL0     C37140   6.788  10.858   3.917  0.6642 -0.1988  0.6020
  270MOL0     C37141   6.712  10.915   3.822 -0.5995 -0.7321 -0.5846
  270MOL0     C37142   6.683  11.065   3.813  0.2194 -0.1943 -0.3054
  270MOL0     C37143   6.771  11.148   3.705 -0.0350 -0.5266 -0.0915
  270MOL0     C37144   6.707  11.160   3.571  0.1684 -0.6289  0.7739
  270MOL0     C37145   6.804  11.233   3.475  0.1691  0.6881 -0.8633
  270MOL0     O37146   6.832  11.363   3.536 -0.4015  0.4826  0.7953
  270MOL0     C37147   6.753  11.466   3.489 -0.3469  0.3603 -0.5743
  270MOL0     C37148   6.747  11.509   3.355  0.1347 -0.1698 -0.0967
  270MOL0     C37149   6.671  11.627   3.326 -0.1769  1.0047 -0.1564
  270MOL0     C37150   6.686  11.668   3.179  0.3676 -0.2169 -0.6334
  270MOL0     C37151   6.593  11.691   3.421 -0.6317  0.1097 -0.0121
  270MOL0     C37152   6.514  11.811   3.381  0.0366  0.3481  0.6738
  270MOL0     O37153   6.564  11.902   3.291  0.7263  1.0138 -0.4401
  270MOL0     C37154   6.490  12.003   3.242 -0.1963 -0.6278 -0.6929
  270MOL0     C37155   6.366  11.993   3.175 -0.0410  0.3296 -0.4528
  270MOL0     C37156   6.313  12.113   3.117 -0.6180  0.1412 -0.4352
  270MOL0     C37157   6.388  12.233   3.111  0.3474 -0.0080 -0.7087
  270MOL0     O37158   6.339  12.345   3.054 -0.1722 -0.0393 -0.1690
  270MOL0     C37159   6.409  12.469   3.071  0.7283  1.3172 -0.2680
  270MOL0     C37160   6.314  12.589   3.061  0.0296 -1.0264  0.3862
  270MOL0     C37161   6.396  12.721   3.068  1.0314 -0.4374  0.5182
  270MOL0     C37162   6.320  12.847   3.011  0.0202 -0.2130  0.0884
  270MOL0     C37163   6.301  12.822   2.859  0.2342 -0.3012 -0.7401
  270MOL0     C37164   6.270  12.956   2.798 -0.8038 -0.0613  0.6530
  270MOL0     C37165   6.234  12.932   2.652  0.6657  0.4006 -0.6217
  270MOL0     C37166   6.211  13.067   2.579 -0.2971  0.3243  0.3312
  270MOL0    Cl37167   6.359  13.163   2.582  0.0683 -0.0961  0.2335
  270MOL0     C37168   6.509  12.233   3.169 -0.1561 -1.0783  0.7283
  270MOL0     C37169   6.556  12.122   3.240 -0.0039 -1.1010 -0.9061
  270MOL0     O37170   6.414  11.826   3.450 -0.3185 -0.0808  0.2890
  270MOL0     C37171   6.599  11.638   3.554  1.1626  0.0709  0.1877
  270MOL0     C37172   6.679  11.529   3.585 -0.3884  0.1386 -0.2877
  270MOL0     N37173   6.693  10.825   3.718  0.8835 -0.1432 -0.3232
  270MOL0     N37174   6.738  10.711   3.753 -0.2866  0.2013 -0.2334
  270MOL0     C37175   6.415  10.436   4.878 -0.6682 -0.2394 -0.2216
  270MOL0     C37176   6.278  10.408   4.881  0.4502  0.2430  0.0563
  270MOL0     C37177   5.881  10.178   4.856 -0.4245  0.3983  0.4650
  270MOL0     C37178   5.851  10.083   4.950  0.1532 -0.1756 -0.4638
  270MOL0     C37179   5.712  10.046   4.957  0.0945  0.3950 -0.9051
  270MOL0     C37180   5.613  10.100   4.874 -0.2554  0.2794  0.3933
  270MOL0     O37181   5.485  10.047   4.888  0.9177  0.1199  0.5194
  270MOL0     C37182   5.389  10.047   4.781  0.0657 -0.7077 -0.9510
  270MOL0     C37183   5.281   9.945   4.809 -0.2608  0.3008  0.7046
  270MOL0     C37184   5.330   9.818   4.881  0.9890  0.0842  1.2592
  270MOL0     C37185   5.415   9.730   4.797  0.2166  0.1797  0.6983
  270MOL0     C37186   5.439   9.586   4.840  0.6067  0.4256 -0.0322
  270MOL0     C37187   5.435   9.473   4.885 -0.6773  0.0861 -0.1215
  270MOL0     C37188   5.651  10.188   4.781  1.1014 -0.4947 -0.2053
  270MOL0     C37189   5.782  10.230   4.762 -0.7473 -0.3890  0.8334
  270MOL0     C37190   5.808  10.317   4.639 -0.0689 -0.4692  0.1627
  270MOL0     H37191   6.216  10.303   4.567 -0.6663  1.3495  0.1975
  270MOL0     H37192   6.466  10.340   4.553  0.6325 -1.3502  0.4353
  270MOL0     H37193   6.715  10.620   4.687  0.4551 -0.0634  0.2343
  270MOL0     H37194   6.613  10.533   4.559  3.0467 -1.8941 -2.7377
  270MOL0     H37195   6.896  10.526   4.594  0.2654 -1.0754 -0.3689
  270MOL0     H37196   6.819  10.385   4.682 -0.1116 -0.7225 -0.3179
  270MOL0     H37197   6.886  10.304   4.463 -0.7940 -0.3829  0.9968
  270MOL0     H37198   6.712  10.331   4.451  0.2361  1.1359 -1.4368
  270MOL0     H37199   6.762  10.561   4.367  0.2411 -0.3926  1.7266
  270MOL0     H37200   6.929  10.502   4.340  0.6372  0.2517 -0.5299
  270MOL0     H37201   6.679  10.346   4.237 -0.2127  0.0717 -1.5734
  270MOL0     H37202   6.851  10.341   4.180  0.1378  0.1043  1.7353
  270MOL0     H37203   6.724  10.425   4.016  3.9843  0.3855 -0.6612
  270MOL0     H37204   6.645  10.547   4.123  0.6936  0.9048  1.7164
  270MOL0     H37205   6.953  10.530   4.095 -0.0479  0.6743 -0.1581
  270MOL0     H37206   6.852  10.674   4.131 -0.2097 -0.8432  0.9919
  270MOL0     H37207   6.976  10.681   3.931 -0.4969 -0.2260  4.9677
  270MOL0     H37208   6.890  10.546   3.851  1.5832  2.3340 -1.1679
  270MOL0     H37209   6.823  10.913   4.003 -2.4906  1.9261  0.7049
  270MOL0     H37210   6.707  11.110   3.910  1.0517  0.2100 -0.6816
  270MOL0     H37211   6.577  11.059   3.788  0.8049  0.7655 -3.4923
  270MOL0     H37212   6.784  11.250   3.742  2.6646  0.0983 -2.3781
  270MOL0     H37213   6.872  11.107   3.697  0.5206  0.7727 -0.0432
  270MOL0     H37214   6.696  11.058   3.534  0.4271 -0.8141  1.2085
  270MOL0     H37215   6.610  11.210   3.564  0.2092 -0.4595  1.4144
  270MOL0     H37216   6.891  11.170   3.457 -1.3817 -1.1964 -2.1853
  270MOL0     H37217   6.761  11.241   3.375 -0.4232  1.4800 -0.5619
  270MOL0     H37218   6.812  11.451   3.290  0.3767  0.8428 -0.7914
  270MOL0     H37219   6.595  11.639   3.125 -0.2046 -1.1422  0.7807
  270MOL0     H37220   6.765  11.612   3.128 -0.5043 -1.0758 -1.0766
  270MOL0     H37221   6.700  11.776   3.163  1.7455 -0.2107  0.4702
  270MOL0     H37222   6.330  11.891   3.170  0.7980 -0.0422  0.7457
  270MOL0     H37223   6.214  12.113   3.072 -0.5345 -0.6259 -0.6342
  270MOL0     H37224   6.439  12.477   3.176  1.7484  2.7429 -0.6269
  270MOL0     H37225   6.499  12.477   3.009  1.8728  2.1117  1.4257
  270MOL0     H37226   6.259  12.575   2.968 -1.1982 -1.4394  1.1513
  270MOL0     H37227   6.234  12.586   3.136 -0.4493  1.4021  0.0467
  270MOL0     H37228   6.491  12.724   3.015  0.9431  0.3733  0.4011
  270MOL0     H37229   6.411  12.729   3.176  0.4028 -1.9826  0.7608
  270MOL0     H37230   6.371  12.938   3.046 -2.0775 -0.3251  3.9556
  270MOL0     H37231   6.225  12.858   3.063  0.7560 -1.9298  1.9581
  270MOL0     H37232   6.392  12.785   2.812  0.2021 -0.9433 -0.3127
  270MOL0     H37233   6.219  12.753   2.839 -1.4860  1.3773  0.1594
  270MOL0     H37234   6.368  13.004   2.804  0.4474 -2.5247  1.3831
  270MOL0     H37235   6.193  13.008   2.855 -0.1773 -1.1615  2.5667
  270MOL0     H37236   6.148  12.865   2.645  2.1830 -1.7557  0.2327
  270MOL0     H37237   6.318  12.882   2.604 -1.0768 -0.4005 -2.9899
  270MOL0     H37238   6.132  13.128   2.626  0.2638  2.2888 -1.1379
  270MOL0     H37239   6.180  13.040   2.478 -0.8226  1.9150  0.0283
  270MOL0     H37240   6.568  12.324   3.175 -2.8772  0.7951  0.8292
  270MOL0     H37241   6.647  12.139   3.296 -0.6965 -0.4344  0.0524
  270MOL0     H37242   6.546  11.689   3.633  1.0421  0.8668 -0.4016
  270MOL0     H37243   6.687  11.500   3.689  3.8872  0.9618 -0.1959
  270MOL0     H37244   6.464  10.463   4.971 -2.4333  4.5660 -0.4136
  270MOL0     H37245   6.221  10.414   4.974  0.5901 -2.7968  0.4533
  270MOL0     H37246   5.925  10.047   5.021  2.5379 -3.6645 -4.2964
  270MOL0     H37247   5.680   9.975   5.032 -3.3258  1.8984 -0.7402
  270MOL0     H37248   5.344  10.146   4.771 -0.8519 -1.1489 -1.2676
  270MOL0     H37249   5.435  10.026   4.684  0.3672  0.8298 -1.1674
  270MOL0     H37250   5.224   9.913   4.721  2.1514  0.3312 -0.9431
  270MOL0     H37251   5.202   9.985   4.873 -1.8913 -0.0027 -1.0148
  270MOL0     H37252   5.387   9.848   4.970  0.3385  0.0095  1.7124
  270MOL0     H37253   5.239   9.765   4.910 -0.1399 -0.2329 -2.3264
  270MOL0     H37254   5.514   9.777   4.792  1.2565 -1.7522  1.9080
  270MOL0     H37255   5.368   9.736   4.698 -0.3249 -3.0650  0.6673
  270MOL0     H37256   5.419   9.373   4.919 -0.0254  0.0232  0.0130
  270MOL0     H37257   5.572  10.223   4.716 -0.8240 -1.7813  1.3233
  270MOL0     H37258   5.906  10.294   4.597  0.3242  0.9537  0.2381
  270MOL0     H37259   5.740  10.287   4.558 -0.1006 -2.8135  0.9715
  270MOL0     H37260   5.795  10.424   4.657 -1.5455 -0.6985  0.6340
  271MOL0     O37261   8.499   3.614   2.109 -0.0879  0.5209  0.1022
  271MOL0     C37262   8.543   3.549   2.205 -0.4782 -0.8587  0.0174
  271MOL0     O37263   8.669   3.554   2.248  0.2387 -0.7371 -0.1063
  271MOL0     C37264   8.733   3.436   2.265 -0.7217  1.1178 -0.1914
  271MOL0     C37265   8.751   3.332   2.172  1.1265 -0.6715 -0.8325
  271MOL0     C37266   8.822   3.216   2.207 -0.0734 -0.4199  0.9804
  271MOL0     C37267   8.890   3.201   2.321 -0.5196 -0.1185 -0.9596
  271MOL0     O37268   8.962   3.087   2.342  0.1440  0.3887  0.1500
  271MOL0     C37269   9.020   3.055   2.462  0.7937  0.0581 -0.7522
  271MOL0     C37270   9.102   2.924   2.476  0.2544  0.8562 -0.6657
  271MOL0     C37271   9.007   2.801   2.484  0.5843 -0.1142 -0.4038
  271MOL0     C37272   8.929   2.786   2.352  0.5553  0.4966  0.1250
  271MOL0     C37273   8.866   2.644   2.342  0.3536  0.7446 -0.0357
  271MOL0     C37274   8.818   2.599   2.210  0.2872  0.6266 -0.2863
  271MOL0     C37275   8.744   2.462   2.224 -0.1705  1.1619  0.0420
  271MOL0     C37276   8.838   2.344   2.262  0.4354  0.0822 -0.7993
  271MOL0     N37277   8.875   2.279   2.137  0.9000  0.5113  0.3203
  271MOL0     C37278   8.958   2.332   2.044 -0.4393 -0.3513 -0.4685
  271MOL0     C37279   8.955   2.237   1.943  0.0636 -0.2581  1.2206
  271MOL0     C37280   9.039   2.233   1.812 -0.3006  0.1903 -0.3675
  271MOL0     C37281   9.163   2.147   1.820  0.0546  0.3938  0.2154
  271MOL0     C37282   9.262   2.199   1.929 -0.2379 -0.0290 -0.4020
  271MOL0     C37283   9.384   2.117   1.923 -0.2111 -0.3375 -0.3073
  271MOL0     O37284   9.459   2.155   2.043  0.4225  0.2966  0.4503
  271MOL0     C37285   9.573   2.096   2.070  0.5687  0.1037 -0.6702
  271MOL0     C37286   9.671   2.186   2.105 -0.0844 -0.6043  0.4943
  271MOL0     C37287   9.800   2.140   2.121  0.6789 -0.1492 -0.3668
  271MOL0     C37288   9.896   2.236   2.173 -0.5479  0.3085 -0.6984
  271MOL0     C37289   9.828   2.001   2.107  0.5340 -0.8889  0.1667
  271MOL0     C37290   9.959   1.943   2.143  1.3100 -1.1269  0.3693
  271MOL0     O37291  10.068   1.982   2.068  0.8676  0.3267 -0.8501
  271MOL0     C37292  10.191   1.931   2.094  0.0478 -0.3863 -0.1891
  271MOL0     C37293  10.284   1.970   1.999 -0.7252  0.3162  0.0668
  271MOL0     C37294  10.420   1.918   2.003  0.1533 -0.0275 -0.1526
  271MOL0     C37295  10.462   1.821   2.101  0.1872  0.2449  1.2364
  271MOL0     O37296  10.592   1.785   2.109  0.6292  0.3166  0.5511
  271MOL0     C37297  10.637   1.710   2.229 -0.9745 -1.1075  0.3435
  271MOL0     C37298  10.787   1.709   2.201  0.0874 -0.2699 -0.2203
  271MOL0     C37299  10.855   1.599   2.291  0.2292 -0.2683  0.0344
  271MOL0     C37300  11.001   1.643   2.346 -0.9026 -0.4004  0.2129
  271MOL0     C37301  11.102   1.658   2.235 -0.0693  0.4354 -0.4197
  271MOL0     C37302  11.235   1.712   2.272 -0.1278  0.2148  0.1209
  271MOL0     C37303  11.313   1.733   2.141  0.3832 -0.1145  0.6924
  271MOL0     C37304  11.465   1.717   2.159 -0.9157 -0.3129  0.0513
  271MOL0    Cl37305  11.552   1.783   2.007 -0.0071 -0.1885  0.2860
  271MOL0     C37306  10.367   1.781   2.192  0.3894 -0.9688 -0.3659
  271MOL0     C37307  10.228   1.825   2.189 -0.1769  0.4841  0.3841
  271MOL0     O37308   9.956   1.869   2.235  0.3311 -0.4067 -0.1527
  271MOL0     C37309   9.721   1.911   2.076 -0.6770  0.9475  0.7216
  271MOL0     C37310   9.593   1.954   2.066 -0.1915 -0.7150 -0.1190
  271MOL0     N37311   8.865   2.138   1.973 -0.3839 -0.3327 -0.1709
  271MOL0     N37312   8.811   2.170   2.087 -0.0148 -0.0259 -0.7210
  271MOL0     C37313   8.891   3.309   2.408  0.2130 -0.1828 -0.8160
  271MOL0     C37314   8.808   3.416   2.389 -0.0811 -0.6812  0.7390
  271MOL0     C37315   8.458   3.477   2.291  0.1925 -0.0093  0.0510
  271MOL0     C37316   8.475   3.481   2.430 -0.4438 -0.3223 -0.3002
  271MOL0     C37317   8.395   3.411   2.525  0.6646  0.9144  0.5828
  271MOL0     C37318   8.295   3.326   2.473  0.0474 -0.0169  0.4650
  271MOL0     O37319   8.216   3.237   2.542  0.9365 -0.4706  0.4935
  271MOL0     C37320   8.249   3.195   2.673 -0.4602  0.0830  0.1753
  271MOL0     C37321   8.137   3.133   2.754 -0.2112 -0.1105  0.0005
  271MOL0     C37322   8.173   3.060   2.886 -0.3579 -0.3141  0.1855
  271MOL0     C37323   8.043   3.021   2.957 -0.0522 -0.7978 -0.4350
  271MOL0     C37324   8.003   3.124   3.052  0.2198 -0.2184 -0.3053
  271MOL0     C37325   7.963   3.201   3.138 -0.0380  0.0915  0.0959
  271MOL0     C37326   8.267   3.329   2.338 -0.7980  0.4301  0.6140
  271MOL0     C37327   8.344   3.395   2.242 -0.2123  0.4997 -0.7347
  271MOL0     C37328   8.292   3.400   2.103  0.4997  0.6148 -0.6221
  271MOL0     H37329   8.709   3.358   2.075  0.1423 -1.1320 -0.5330
  271MOL0     H37330   8.817   3.145   2.125  1.4734  1.1285 -0.5482
  271MOL0     H37331   8.949   3.056   2.546 -0.8031 -0.0178 -2.0613
  271MOL0     H37332   9.090   3.137   2.482 -1.2288  1.4569  1.0830
  271MOL0     H37333   9.178   2.925   2.397  3.2281 -0.0614  1.9776
  271MOL0     H37334   9.165   2.933   2.565  0.0313  1.2594 -0.5477
  271MOL0     H37335   9.066   2.710   2.502  0.5171 -0.3579 -1.3667
  271MOL0     H37336   8.947   2.822   2.573 -0.0056  2.6034 -1.3655
  271MOL0     H37337   8.842   2.851   2.340 -0.2680 -0.1937  1.9990
  271MOL0     H37338   8.998   2.797   2.268  2.2498  1.4590  1.5535
  271MOL0     H37339   8.792   2.628   2.422  0.5281 -2.8318 -0.4641
  271MOL0     H37340   8.950   2.577   2.362 -0.0819  0.7801  2.2560
  271MOL0     H37341   8.739   2.663   2.169 -1.1803 -1.3657 -0.6922
  271MOL0     H37342   8.901   2.589   2.138 -0.4666 -0.4851 -1.0345
  271MOL0     H37343   8.690   2.441   2.131 -0.2775  0.4085  0.2710
  271MOL0     H37344   8.673   2.482   2.305 -0.4343 -0.9479  0.3896
  271MOL0     H37345   8.924   2.371   2.324  0.9993 -1.7266 -0.7133
  271MOL0     H37346   8.793   2.264   2.322  0.4174  0.7131  0.0389
  271MOL0     H37347   9.009   2.427   2.059 -0.2699 -0.2994 -1.3180
  271MOL0     H37348   9.079   2.331   1.784  3.1883 -0.8530  0.4886
  271MOL0     H37349   8.978   2.195   1.729  0.0047 -1.9636  0.3577
  271MOL0     H37350   9.136   2.043   1.840  2.4070 -0.7458 -1.9430
  271MOL0     H37351   9.218   2.143   1.726 -1.7234 -0.8771 -0.8307
  271MOL0     H37352   9.271   2.307   1.917 -1.2176 -0.0771 -1.8449
  271MOL0     H37353   9.208   2.202   2.024  1.8421  0.8142  0.8179
  271MOL0     H37354   9.363   2.010   1.913  0.1381 -0.5034  0.6820
  271MOL0     H37355   9.426   2.146   1.826  0.7565 -1.4809 -0.2456
  271MOL0     H37356   9.631   2.285   2.122 -1.1569 -1.0730  0.7615
  271MOL0     H37357   9.849   2.329   2.207  1.1435  1.0121 -0.1852
  271MOL0     H37358   9.963   2.256   2.089  1.2900 -0.0012  0.6494
  271MOL0     H37359   9.964   2.200   2.250  1.7131  4.7314 -0.2976
  271MOL0     H37360  10.259   2.051   1.932 -1.0698  0.9975  0.9946
  271MOL0     H37361  10.495   1.962   1.937  1.0274 -3.1705 -1.4084
  271MOL0     H37362  10.621   1.774   2.317 -1.6191  1.3857 -1.4654
  271MOL0     H37363  10.588   1.615   2.251 -0.0005 -0.9417  4.0416
  271MOL0     H37364  10.809   1.678   2.098  1.3309 -3.6536  0.9265
  271MOL0     H37365  10.825   1.809   2.222 -1.2643  0.3716 -0.7021
  271MOL0     H37366  10.858   1.511   2.226  1.6107 -1.0822  1.1227
  271MOL0     H37367  10.792   1.578   2.378  2.0071 -0.4106  1.3426
  271MOL0     H37368  11.036   1.567   2.416  0.1569  0.7079  0.9179
  271MOL0     H37369  10.993   1.737   2.400  0.2373 -0.3338  0.2818
  271MOL0     H37370  11.117   1.556   2.197 -1.9531  0.0347 -0.1870
  271MOL0     H37371  11.052   1.706   2.151 -0.2345 -3.0048 -2.5026
  271MOL0     H37372  11.282   1.633   2.333 -1.7747 -0.8519  0.0563
  271MOL0     H37373  11.235   1.806   2.328  0.3799 -1.0247  2.3377
  271MOL0     H37374  11.293   1.834   2.105  0.8864  0.4812  2.0339
  271MOL0     H37375  11.271   1.670   2.062  0.0525  0.5569  0.3191
  271MOL0     H37376  11.466   1.608   2.171 -1.2126 -0.3096  0.1387
  271MOL0     H37377  11.498   1.775   2.246  0.9323  0.2621 -0.9768
  271MOL0     H37378  10.395   1.714   2.273  1.4321 -1.0684 -0.7873
  271MOL0     H37379  10.159   1.776   2.257 -0.6995 -0.4544 -0.7778
  271MOL0     H37380   9.738   1.805   2.061 -2.8780  0.3819  1.8251
  271MOL0     H37381   9.506   1.905   2.023 -1.9702  3.4843 -1.9422
  271MOL0     H37382   8.946   3.318   2.502  0.0412 -0.4697 -0.6875
  271MOL0     H37383   8.817   3.506   2.449 -0.1200  0.9078 -1.5023
  271MOL0     H37384   8.556   3.540   2.471 -0.7452 -1.1989  1.7044
  271MOL0     H37385   8.416   3.427   2.630  1.9427 -1.3779  0.7302
  271MOL0     H37386   8.331   3.122   2.676 -1.0670 -0.5800  1.8868
  271MOL0     H37387   8.283   3.281   2.732 -0.8428  0.4495 -0.1349
  271MOL0     H37388   8.086   3.059   2.693  1.4966 -2.3068  1.1065
  271MOL0     H37389   8.065   3.215   2.763  0.2280  0.1948  0.9217
  271MOL0     H37390   8.225   2.966   2.864  0.8698 -0.6134  3.7215
  271MOL0     H37391   8.226   3.118   2.962 -0.4976  0.9836 -0.6873
  271MOL0     H37392   8.059   2.928   3.013 -0.9178  0.8646  2.7727
  271MOL0     H37393   7.961   3.000   2.888 -0.4916 -3.5817  0.8102
  271MOL0     H37394   7.922   3.285   3.191 -1.0973 -1.6835  2.2709
  271MOL0     H37395   8.180   3.272   2.307  0.9953 -2.1379 -0.0315
  271MOL0     H37396   8.265   3.503   2.079  0.9063  1.5367  2.4509
  271MOL0     H37397   8.360   3.358   2.029  0.7458  2.4879 -1.5178
  271MOL0     H37398   8.203   3.337   2.099  1.2790 -0.9362  2.6267
  272MOL0     O37399   6.344   4.243   0.691  0.0043 -0.4416  0.7321
  272MOL0     C37400   6.276   4.163   0.750 -0.3239  0.3910  0.1462
  272MOL0     O37401   6.305   4.115   0.879  0.1615 -0.1177  0.4596
  272MOL0     C37402   6.416   4.177   0.922 -0.2730 -0.9582 -0.7642
  272MOL0     C37403   6.544   4.119   0.893 -0.2524 -0.0456 -0.0459
  272MOL0     C37404   6.662   4.188   0.935 -0.6192  0.8423 -0.5366
  272MOL0     C37405   6.651   4.292   1.029 -0.1846 -0.4862 -0.4520
  272MOL0     O37406   6.760   4.365   1.071 -0.1958 -0.6584 -0.1948
  272MOL0     C37407   6.887   4.327   1.017  0.2242 -0.3012 -0.2358
  272MOL0     C37408   6.985   4.411   1.088 -0.6020  0.3330 -0.3077
  272MOL0     C37409   7.107   4.419   1.005 -0.7314  0.4125 -0.1718
  272MOL0     C37410   7.172   4.287   0.956  0.0319 -0.1208 -0.4062
  272MOL0     C37411   7.322   4.301   0.929 -0.0950 -0.1774  0.7855
  272MOL0     C37412   7.393   4.174   0.879  0.4188 -0.3234 -0.2651
  272MOL0     C37413   7.549   4.184   0.882  0.0852  0.8313  0.9998
  272MOL0     C37414   7.603   4.200   1.019 -0.0126  0.0321 -1.2575
  272MOL0     N37415   7.748   4.185   1.044 -0.2986  1.2711  0.1947
  272MOL0     C37416   7.853   4.266   0.987  0.5014  0.1236  0.7895
  272MOL0     C37417   7.961   4.225   1.053 -0.3186  0.1590  0.3569
  272MOL0     C37418   8.095   4.289   1.055 -0.5947  0.0097 -0.2801
  272MOL0     C37419   8.193   4.233   0.951 -0.4652  0.5307  1.3926
  272MOL0     C37420   8.206   4.081   0.956  1.4174 -0.2914 -0.0604
  272MOL0     C37421   8.335   4.032   0.890  0.0752 -1.2666 -0.0898
  272MOL0     O37422   8.339   3.887   0.887 -0.7567  0.4404 -0.3076
  272MOL0     C37423   8.337   3.827   1.006  0.6720  0.5591 -0.7971
  272MOL0     C37424   8.444   3.820   1.094  0.1144 -0.6061 -0.2955
  272MOL0     C37425   8.445   3.750   1.210 -0.1082  0.2190  0.6950
  272MOL0     C37426   8.578   3.736   1.279  0.6792  0.6249  0.1071
  272MOL0     C37427   8.331   3.673   1.251  0.4822 -0.3861 -0.5398
  272MOL0     C37428   8.326   3.592   1.381 -0.1809 -0.1667  0.8204
  272MOL0     O37429   8.226   3.501   1.385 -0.0633 -0.2800 -0.0158
  272MOL0     C37430   8.201   3.431   1.501 -0.4828 -0.1572 -0.1191
  272MOL0     C37431   8.181   3.492   1.621 -0.9550 -0.3637 -0.9530
  272MOL0     C37432   8.142   3.412   1.728 -0.0206  0.2671 -0.0082
  272MOL0     C37433   8.131   3.272   1.726  0.9803  0.2852 -0.5668
  272MOL0     O37434   8.094   3.192   1.831  0.7533  0.0200 -0.9075
  272MOL0     C37435   7.958   3.192   1.876  1.4336  0.2279  0.4565
  272MOL0     C37436   7.853   3.162   1.761  0.1502 -0.5922  0.3735
  272MOL0     C37437   7.852   3.020   1.708 -0.9926 -1.0043  0.7940
  272MOL0     C37438   7.747   2.934   1.781  0.0753 -0.0849  0.0628
  272MOL0     C37439   7.748   2.790   1.749 -0.3437  0.9038  0.4384
  272MOL0     C37440   7.642   2.711   1.832  0.2333 -0.9265 -0.0699
  272MOL0     C37441   7.524   2.665   1.743  1.0684  0.1355  0.4251
  272MOL0     C37442   7.415   2.771   1.723 -0.5096 -0.1297  0.5467
  272MOL0    Cl37443   7.284   2.691   1.639  0.6440  0.0891  0.1374
  272MOL0     C37444   8.151   3.207   1.605 -0.1256  0.3905  0.1389
  272MOL0     C37445   8.183   3.291   1.494  0.2231 -0.0745  0.7461
  272MOL0     O37446   8.408   3.615   1.471  0.1307  0.2982 -0.2400
  272MOL0     C37447   8.221   3.669   1.158 -0.0830 -0.0341  0.6469
  272MOL0     C37448   8.225   3.748   1.038  0.2170  0.2697  0.0426
  272MOL0     N37449   7.923   4.127   1.146 -0.1358  0.4264 -0.2333
  272MOL0     N37450   7.795   4.098   1.138 -0.6256  0.1573  0.0425
  272MOL0     C37451   6.531   4.349   1.056 -0.0576  0.3602 -0.1184
  272MOL0     C37452   6.415   4.294   1.007 -0.1888 -0.5559 -0.7629
  272MOL0     C37453   6.160   4.100   0.691  0.8119 -0.3491  0.3081
  272MOL0     C37454   6.032   4.111   0.750 -1.0943  0.0084 -0.1090
  272MOL0     C37455   5.916   4.078   0.679 -0.8744 -0.4786 -0.3127
  272MOL0     C37456   5.910   4.014   0.558  0.6728  0.0453 -0.0454
  272MOL0     O37457   5.787   3.970   0.506 -0.4169 -0.6674  0.2751
  272MOL0     C37458   5.771   3.939   0.368 -0.6815 -0.7078 -0.1629
  272MOL0     C37459   5.620   3.912   0.334 -0.4507 -0.6502  0.4756
  272MOL0     C37460   5.596   3.895   0.180 -0.0650 -0.1108  0.3731
  272MOL0     C37461   5.448   3.827   0.163  0.5664 -0.7651  0.0635
  272MOL0     C37462   5.461   3.683   0.137 -0.5526  0.4352 -0.2612
  272MOL0     C37463   5.482   3.568   0.097 -0.6231 -0.9392  0.4423
  272MOL0     C37464   6.033   4.009   0.492  0.4803 -0.3679 -0.0514
  272MOL0     C37465   6.158   4.045   0.559 -0.1250  0.0323  0.7469
  272MOL0     C37466   6.285   4.023   0.483 -0.2976  0.0385  0.2192
  272MOL0     H37467   6.555   4.028   0.834  0.1928  0.9292 -1.5401
  272MOL0     H37468   6.758   4.154   0.900 -0.5857  0.0005  0.3452
  272MOL0     H37469   6.897   4.354   0.911  0.6315  2.7719  0.4837
  272MOL0     H37470   6.910   4.221   1.031 -1.3692 -0.4097  2.3036
  272MOL0     H37471   6.939   4.507   1.112  0.6535  0.4014  2.1178
  272MOL0     H37472   7.014   4.364   1.182 -0.0951  1.3905  0.0745
  272MOL0     H37473   7.092   4.474   0.911 -1.9398 -0.5557 -0.5734
  272MOL0     H37474   7.182   4.475   1.062  1.2621 -0.1519 -2.1045
  272MOL0     H37475   7.136   4.216   1.032  0.0492  1.7335  1.4224
  272MOL0     H37476   7.126   4.266   0.859  1.7118  0.5807 -1.3969
  272MOL0     H37477   7.371   4.331   1.022 -1.2214 -0.4057  1.4800
  272MOL0     H37478   7.336   4.391   0.869  0.9021  0.2033  1.5738
  272MOL0     H37479   7.361   4.088   0.939  0.0935 -0.8087 -1.1194
  272MOL0     H37480   7.355   4.148   0.780 -3.0464 -1.6953  1.2561
  272MOL0     H37481   7.579   4.262   0.811 -0.1434 -2.8281 -3.5713
  272MOL0     H37482   7.592   4.092   0.842 -0.3160 -0.8879  4.2023
  272MOL0     H37483   7.583   4.302   1.051 -0.1852 -0.1557 -0.7500
  272MOL0     H37484   7.556   4.124   1.083  0.7735 -1.2453 -2.1334
  272MOL0     H37485   7.834   4.330   0.901  1.2378  0.5772  0.9558
  272MOL0     H37486   8.136   4.277   1.155  0.3614 -0.9599 -0.7699
  272MOL0     H37487   8.071   4.395   1.044  4.2932  1.7998  3.0037
  272MOL0     H37488   8.152   4.256   0.852 -1.0691 -1.1854  1.2119
  272MOL0     H37489   8.291   4.275   0.975  0.0477 -0.3262  0.8416
  272MOL0     H37490   8.207   4.050   1.060  0.5573  0.9662  0.3567
  272MOL0     H37491   8.120   4.029   0.913  2.2173 -0.0626 -2.0394
  272MOL0     H37492   8.341   4.075   0.789  0.2404 -1.4625 -0.1642
  272MOL0     H37493   8.420   4.072   0.945  0.6606  0.5883 -2.2129
  272MOL0     H37494   8.525   3.880   1.054  0.1530  0.4210  1.2050
  272MOL0     H37495   8.569   3.773   1.381 -0.4446 -0.3839  0.4007
  272MOL0     H37496   8.663   3.790   1.238  0.4296  1.2600  0.4053
  272MOL0     H37497   8.604   3.630   1.283 -2.8721 -0.4658 -1.2701
  272MOL0     H37498   8.204   3.597   1.641  1.9443 -0.3765 -3.4155
  272MOL0     H37499   8.134   3.455   1.827 -1.3253  1.6829 -0.6911
  272MOL0     H37500   7.943   3.123   1.959  2.2303 -0.0563  0.3772
  272MOL0     H37501   7.932   3.288   1.920 -2.0047 -0.1460 -0.4662
  272MOL0     H37502   7.752   3.189   1.792 -0.1760 -1.9511  0.5713
  272MOL0     H37503   7.880   3.231   1.680 -0.1361 -1.0487 -0.1207
  272MOL0     H37504   7.951   2.974   1.703 -1.0739 -1.2762  1.6266
  272MOL0     H37505   7.833   3.029   1.601 -1.0880 -1.3977  0.7769
  272MOL0     H37506   7.652   2.982   1.759  1.1887  2.3107  0.1919
  272MOL0     H37507   7.762   2.944   1.888  0.3818 -3.2424  0.4114
  272MOL0     H37508   7.732   2.777   1.642 -0.7238 -1.6483  0.7455
  272MOL0     H37509   7.840   2.750   1.792 -0.9580  0.8247  1.7361
  272MOL0     H37510   7.610   2.770   1.918  1.2130 -2.1174  1.1487
  272MOL0     H37511   7.696   2.636   1.891  1.0496 -1.3874 -1.3439
  272MOL0     H37512   7.470   2.581   1.787  0.0103  1.4129  1.6727
  272MOL0     H37513   7.553   2.627   1.645 -0.2949  0.5669 -0.1552
  272MOL0     H37514   7.441   2.852   1.653 -2.0926 -1.4517 -1.7059
  272MOL0     H37515   7.380   2.807   1.820  1.7413  3.0459  0.3622
  272MOL0     H37516   8.159   3.098   1.604 -0.4136  0.3551  0.9730
  272MOL0     H37517   8.204   3.244   1.399  3.4669  0.0443  1.2909
  272MOL0     H37518   8.137   3.601   1.168 -0.4228  0.0260 -1.3791
  272MOL0     H37519   8.143   3.739   0.967 -0.9304 -2.2808  1.5293
  272MOL0     H37520   6.531   4.446   1.104 -1.9403  1.4472 -2.1250
  272MOL0     H37521   6.321   4.345   1.026  0.1282 -0.4548  0.6498
  272MOL0     H37522   6.030   4.132   0.857  3.1264 -2.5508  0.7348
  272MOL0     H37523   5.828   4.117   0.730  0.7628  2.7727  0.2985
  272MOL0     H37524   5.801   4.021   0.302 -0.4347 -0.5056  0.1966
  272MOL0     H37525   5.831   3.850   0.347  2.8254  1.5084 -0.2118
  272MOL0     H37526   5.556   3.992   0.372 -0.2531 -1.0186  1.5943
  272MOL0     H37527   5.600   3.823   0.394 -0.9664 -0.9290 -0.0917
  272MOL0     H37528   5.587   3.995   0.135 -2.5837 -1.3627 -2.2454
  272MOL0     H37529   5.664   3.827   0.129 -1.4644 -1.3657  0.1192
  272MOL0     H37530   5.405   3.873   0.073  1.3339 -1.3052 -0.6049
  272MOL0     H37531   5.383   3.849   0.247 -0.3464  1.4525 -1.1522
  272MOL0     H37532   5.505   3.470   0.060 -2.5772 -0.5665 -2.0702
  272MOL0     H37533   6.049   3.970   0.392 -0.3754 -0.9280  0.0109
  272MOL0     H37534   6.336   4.118   0.468 -0.8491  0.5633  1.5120
  272MOL0     H37535   6.349   3.952   0.537  1.0013  0.7020 -0.4126
  272MOL0     H37536   6.261   3.981   0.385  0.3721  0.9905 -0.3692
  273MOL0     O37537   6.003   8.794   8.294 -0.4994 -0.1651  0.2288
  273MOL0     C37538   5.938   8.856   8.213 -0.5293 -0.1210  0.9025
  273MOL0     O37539   5.919   8.816   8.080  0.0579 -0.2180 -0.1445
  273MOL0     C37540   5.990   8.717   8.016  0.1557  0.6206 -0.3913
  273MOL0     C37541   6.122   8.676   8.050  0.6389 -0.5769  0.2377
  273MOL0     C37542   6.189   8.575   7.976 -0.8047 -0.0655 -1.2808
  273MOL0     C37543   6.121   8.497   7.888  1.0049  0.1868  0.2894
  273MOL0     O37544   6.176   8.401   7.805  0.0162  0.0130 -1.0376
  273MOL0     C37545   6.172   8.274   7.871  0.8539  1.0805  0.6175
  273MOL0     C37546   6.112   8.160   7.784  0.0823 -0.1020  0.2528
  273MOL0     C37547   6.220   8.118   7.682 -0.3338  0.4969  0.9423
  273MOL0     C37548   6.201   8.212   7.560  0.1375 -0.3364 -0.1838
  273MOL0     C37549   6.269   8.151   7.433 -0.9470  0.5662  0.0365
  273MOL0     C37550   6.414   8.114   7.464  0.1513 -0.3168  0.5275
  273MOL0     C37551   6.508   8.232   7.505  0.6686  1.0093  0.5068
  273MOL0     C37552   6.658   8.213   7.470 -0.5508  0.2717  0.6757
  273MOL0     N37553   6.697   8.284   7.348 -0.4521  0.8708  0.6704
  273MOL0     C37554   6.681   8.236   7.218 -0.2602 -0.3709 -0.3503
  273MOL0     C37555   6.720   8.332   7.135  0.2653 -1.1020 -0.2617
  273MOL0     C37556   6.724   8.327   6.985  0.0429  0.0559 -0.3029
  273MOL0     C37557   6.733   8.453   6.908 -0.5590  0.6766 -0.0412
  273MOL0     C37558   6.715   8.427   6.757  0.6309 -0.4326 -0.1707
  273MOL0     C37559   6.572   8.396   6.717  1.1235 -1.7134  0.1953
  273MOL0     O37560   6.562   8.244   6.700 -0.0622 -0.4324 -0.0508
  273MOL0     C37561   6.436   8.189   6.666  0.4186 -0.0326 -0.4123
  273MOL0     C37562   6.313   8.260   6.671  0.0031  0.0937  0.5388
  273MOL0     C37563   6.202   8.188   6.625  0.7646  0.3668 -0.4377
  273MOL0     C37564   6.070   8.254   6.643  0.6033  0.2474  0.0224
  273MOL0     C37565   6.213   8.057   6.573  0.1593 -0.8109  0.3921
  273MOL0     C37566   6.097   7.986   6.521  0.1511  0.6640 -0.9976
  273MOL0     O37567   6.010   8.062   6.450  0.4869  0.3435 -0.0623
  273MOL0     C37568   5.879   8.016   6.449 -0.5425 -0.5930 -0.2422
  273MOL0     C37569   5.847   7.898   6.390 -0.1693  0.3767 -0.2235
  273MOL0     C37570   5.711   7.854   6.376 -0.7996  0.0365  1.1628
  273MOL0     C37571   5.610   7.919   6.434  0.5929 -0.4679 -0.4931
  273MOL0     O37572   5.478   7.888   6.405 -0.3536  0.5927 -0.3755
  273MOL0     C37573   5.380   7.989   6.436 -0.0662 -0.0580 -0.9985
  273MOL0     C37574   5.237   7.958   6.380 -0.2959  0.0564 -0.8201
  273MOL0     C37575   5.244   7.968   6.223 -0.1782  0.0124  0.2655
  273MOL0     C37576   5.106   8.019   6.164  0.6880 -0.2994  0.3921
  273MOL0     C37577   4.991   7.918   6.154 -0.1801 -0.0685 -0.9646
  273MOL0     C37578   5.022   7.811   6.057 -0.0245 -1.1014  0.4378
  273MOL0     C37579   4.902   7.718   6.021  0.2046  0.7475 -0.5072
  273MOL0     C37580   4.954   7.580   5.961 -0.7070  0.6485 -0.2773
  273MOL0    Cl37581   4.810   7.492   5.905 -0.5914  0.3939  0.3112
  273MOL0     C37582   5.639   8.023   6.522 -0.5894 -0.3864  0.2240
  273MOL0     C37583   5.780   8.072   6.527  0.3134 -0.5335 -0.3702
  273MOL0     O37584   6.082   7.866   6.556 -0.2037 -0.2928 -0.4677
  273MOL0     C37585   6.337   7.991   6.571  0.7227 -0.9940  0.6654
  273MOL0     C37586   6.448   8.060   6.624 -0.6366  0.3089  0.6521
  273MOL0     N37587   6.767   8.440   7.208  0.6361  0.7130  0.9140
  273MOL0     N37588   6.761   8.406   7.338 -0.3601 -0.3133 -0.2313
  273MOL0     C37589   5.992   8.534   7.853  0.4257  0.4097  0.5883
  273MOL0     C37590   5.921   8.630   7.924  0.2921  0.1648 -0.2791
  273MOL0     C37591   5.876   8.989   8.263 -0.3992 -0.1919  0.8437
  273MOL0     C37592   5.775   9.029   8.183  1.0713  0.3028 -0.6942
  273MOL0     C37593   5.694   9.136   8.227  0.0648 -0.3809  0.7218
  273MOL0     C37594   5.714   9.198   8.350 -0.7937 -0.0966 -0.6798
  273MOL0     O37595   5.617   9.302   8.381  0.2768  0.3019 -0.6581
  273MOL0     C37596   5.638   9.372   8.512  0.0019  1.5431  0.1467
  273MOL0     C37597   5.556   9.501   8.512  0.4411  0.4654 -0.2475
  273MOL0     C37598   5.562   9.573   8.649 -0.1332 -0.4193 -0.2513
  273MOL0     C37599   5.469   9.697   8.672  0.5699 -0.5317  0.0653
  273MOL0     C37600   5.328   9.662   8.669 -0.0111 -0.9686 -0.3862
  273MOL0     C37601   5.209   9.642   8.649 -0.8849 -0.6304 -0.9934
  273MOL0     C37602   5.821   9.154   8.430  1.0657  0.1490  0.3002
  273MOL0     C37603   5.905   9.055   8.386  0.6306 -0.5051 -0.1308
  273MOL0     C37604   6.026   9.024   8.458  0.0730 -0.3697 -1.0118
  273MOL0     H37605   6.173   8.738   8.123  3.7870 -1.8342 -0.7317
  273MOL0     H37606   6.295   8.556   7.991 -0.1897  3.1400 -0.6266
  273MOL0     H37607   6.125   8.278   7.970  2.9698 -0.1778  1.7642
  273MOL0     H37608   6.279   8.254   7.883  0.8660  1.3360  0.9312
  273MOL0     H37609   6.100   8.076   7.854 -1.8322  0.2373  0.3890
  273MOL0     H37610   6.021   8.194   7.735 -0.0821 -2.0983 -0.9223
  273MOL0     H37611   6.322   8.148   7.709  0.3986  0.0296 -1.1135
  273MOL0     H37612   6.215   8.011   7.656 -3.1161  0.8075 -0.1227
  273MOL0     H37613   6.094   8.210   7.537  0.2770  0.2807 -0.9375
  273MOL0     H37614   6.241   8.312   7.580 -1.5137  0.1077  1.1319
  273MOL0     H37615   6.274   8.223   7.351  2.5783  1.1902  0.6325
  273MOL0     H37616   6.227   8.056   7.397  0.8220 -0.0093 -0.6089
  273MOL0     H37617   6.409   8.030   7.533 -3.8958  1.1752  2.3373
  273MOL0     H37618   6.466   8.076   7.375  0.4935  0.7642  0.2498
  273MOL0     H37619   6.507   8.247   7.613  0.3479  1.4602  0.4441
  273MOL0     H37620   6.457   8.323   7.473 -0.3439  0.7952  1.4440
  273MOL0     H37621   6.724   8.245   7.551  1.2550  1.2879 -1.1137
  273MOL0     H37622   6.687   8.107   7.464 -0.3255  0.3336  0.6490
  273MOL0     H37623   6.640   8.139   7.195  0.3984 -1.1899  1.6394
  273MOL0     H37624   6.627   8.291   6.949 -0.3531  1.9209 -1.2047
  273MOL0     H37625   6.805   8.257   6.960 -2.5636 -2.6065 -2.0431
  273MOL0     H37626   6.648   8.515   6.940 -0.9251 -0.7505  1.9021
  273MOL0     H37627   6.832   8.499   6.923  1.3029 -3.0433  0.1816
  273MOL0     H37628   6.741   8.518   6.703  0.0406 -0.7696 -1.0572
  273MOL0     H37629   6.792   8.355   6.728  0.1414 -1.0585  0.0717
  273MOL0     H37630   6.505   8.439   6.791  1.0962 -2.0720  0.3802
  273MOL0     H37631   6.548   8.437   6.619  4.2565 -0.5034 -0.1790
  273MOL0     H37632   6.314   8.359   6.716 -0.6019 -0.2385  1.3002
  273MOL0     H37633   6.026   8.286   6.548 -2.0052 -1.0453  0.6809
  273MOL0     H37634   6.073   8.337   6.714  0.0532  1.7700 -1.6698
  273MOL0     H37635   5.999   8.176   6.675  1.0429 -0.4391 -0.6337
  273MOL0     H37636   5.922   7.835   6.342 -1.7379  0.0814 -2.4480
  273MOL0     H37637   5.698   7.762   6.321  2.9608 -1.7393  2.8986
  273MOL0     H37638   5.363   7.986   6.544 -4.5299 -2.6327 -1.5188
  273MOL0     H37639   5.409   8.090   6.409 -1.4784  1.1934  1.7184
  273MOL0     H37640   5.199   7.867   6.427  0.0259  1.0847  1.6019
  273MOL0     H37641   5.183   8.044   6.419 -0.5704 -1.1355  1.5983
  273MOL0     H37642   5.276   7.875   6.174  3.5152  1.3102 -0.0804
  273MOL0     H37643   5.318   8.043   6.195 -1.3259  0.8578 -0.5941
  273MOL0     H37644   5.115   8.067   6.067  0.1840  0.7695  0.8611
  273MOL0     H37645   5.062   8.093   6.232 -0.0032  0.9647 -1.3691
  273MOL0     H37646   4.969   7.872   6.251 -1.1615  1.4126 -0.4381
  273MOL0     H37647   4.902   7.972   6.120 -0.1240  0.0780 -0.8800
  273MOL0     H37648   5.111   7.756   6.088 -0.9967 -2.8344  0.2733
  273MOL0     H37649   5.055   7.855   5.963  2.0083 -0.6444  1.3007
  273MOL0     H37650   4.839   7.762   5.943  0.2665  0.8467 -0.5006
  273MOL0     H37651   4.843   7.708   6.113 -0.3229  0.5753 -0.8575
  273MOL0     H37652   5.012   7.520   6.032  0.5643  0.7273 -1.1959
  273MOL0     H37653   5.018   7.603   5.874  0.2304 -2.2389 -0.4525
  273MOL0     H37654   5.562   8.069   6.583 -2.2892 -1.2140 -1.2118
  273MOL0     H37655   5.806   8.164   6.579 -2.2891  0.3686 -0.5417
  273MOL0     H37656   6.339   7.893   6.523 -4.2801 -2.7510  3.3423
  273MOL0     H37657   6.546   8.014   6.616  0.4098  2.2864  1.4281
  273MOL0     H37658   5.939   8.465   7.788 -0.7650 -2.2424  4.1084
  273MOL0     H37659   5.816   8.650   7.904  0.7735 -0.1586 -3.8715
  273MOL0     H37660   5.751   8.992   8.084 -3.0004 -1.1781  0.5979
  273MOL0     H37661   5.616   9.166   8.158  0.7305 -1.0004 -0.3272
  273MOL0     H37662   5.622   9.304   8.596  1.2389  0.4029 -0.5134
  273MOL0     H37663   5.746   9.391   8.515  0.4971 -0.5971 -1.3725
  273MOL0     H37664   5.456   9.460   8.497 -0.1686  1.5458  0.7511
  273MOL0     H37665   5.576   9.575   8.434 -2.1109  0.3068 -1.1350
  273MOL0     H37666   5.527   9.496   8.719 -2.4277  1.2994  0.6124
  273MOL0     H37667   5.664   9.606   8.671  0.3801 -1.5647 -0.7907
  273MOL0     H37668   5.499   9.774   8.601  1.5705  1.5042  2.5522
  273MOL0     H37669   5.488   9.737   8.772  1.1966 -1.1501  0.2042
  273MOL0     H37670   5.104   9.640   8.626 -0.9124 -1.3271 -0.8474
  273MOL0     H37671   5.835   9.196   8.529  1.5096 -1.8426  1.1408
  273MOL0     H37672   6.045   9.091   8.542  2.1556 -1.9610 -0.1340
  273MOL0     H37673   6.028   8.925   8.505  0.3989  0.2744  0.3900
  273MOL0     H37674   6.113   9.017   8.392  1.1543 -3.4013  0.5731
  274MOL0     O37675   5.623   3.417   3.528  0.2230 -0.3215  0.6778
  274MOL0     C37676   5.618   3.300   3.563  1.2400 -0.1181  0.4629
  274MOL0     O37677   5.685   3.250   3.671  0.2817 -0.4717 -0.0062
  274MOL0     C37678   5.754   3.340   3.752  1.0074  1.3053 -0.1306
  274MOL0     C37679   5.878   3.390   3.720 -0.0934 -0.2813  0.5805
  274MOL0     C37680   5.946   3.476   3.806  0.1513 -0.2067 -0.5795
  274MOL0     C37681   5.887   3.521   3.927 -0.0867 -0.4735  0.4443
  274MOL0     O37682   5.941   3.594   4.025  0.2106 -0.5751 -0.4398
  274MOL0     C37683   6.086   3.614   4.038  0.6404  0.3919  0.1023
  274MOL0     C37684   6.117   3.694   4.159  0.6750  0.2879 -0.7122
  274MOL0     C37685   6.261   3.702   4.197 -0.6774  0.7651 -0.0835
  274MOL0     C37686   6.275   3.797   4.317 -0.0738 -0.2628  0.9220
  274MOL0     C37687   6.426   3.823   4.357  1.0053 -0.2976 -0.0862
  274MOL0     C37688   6.498   3.691   4.376  0.0949 -0.5985 -0.8529
  274MOL0     C37689   6.604   3.705   4.483 -0.1169 -0.2919  0.4143
  274MOL0     C37690   6.683   3.580   4.522 -0.8228  0.3569 -0.2879
  274MOL0     N37691   6.774   3.580   4.638  0.5999 -0.1743 -0.3650
  274MOL0     C37692   6.895   3.652   4.646 -0.4506  1.7239  0.7861
  274MOL0     C37693   6.925   3.667   4.772 -0.2523 -0.3693 -0.0186
  274MOL0     C37694   7.058   3.734   4.804  0.3206 -0.7525  0.4268
  274MOL0     C37695   7.019   3.878   4.798 -0.0360  0.1839 -0.4590
  274MOL0     C37696   7.110   3.963   4.884 -0.0658 -0.6557 -0.3400
  274MOL0     C37697   7.250   3.956   4.826  0.3236 -0.3799  0.4839
  274MOL0     O37698   7.332   4.051   4.894  0.6288  0.4941 -0.2111
  274MOL0     C37699   7.459   4.087   4.846  0.5769  0.1917 -0.1789
  274MOL0     C37700   7.527   4.188   4.917 -0.4564 -0.5726  0.0921
  274MOL0     C37701   7.658   4.223   4.890  0.6460 -0.5525 -0.1981
  274MOL0     C37702   7.726   4.328   4.973 -0.5596  0.3661  0.6739
  274MOL0     C37703   7.721   4.166   4.778 -0.1440 -0.1821  0.5217
  274MOL0     C37704   7.855   4.194   4.727 -0.8683  1.0986 -0.4334
  274MOL0     O37705   7.907   4.122   4.620 -0.4423  0.8054 -0.2701
  274MOL0     C37706   8.045   4.103   4.615 -0.0616 -0.8544  1.3510
  274MOL0     C37707   8.105   4.089   4.489  0.6691 -0.5970  0.1144
  274MOL0     C37708   8.241   4.081   4.478  0.9293 -0.5331  0.6659
  274MOL0     C37709   8.326   4.107   4.580  0.2152 -0.6606 -0.1859
  274MOL0     O37710   8.461   4.116   4.548  0.2111 -0.0891  0.6738
  274MOL0     C37711   8.552   4.088   4.652  0.1620 -1.2928 -0.0317
  274MOL0     C37712   8.691   4.047   4.604 -1.1127  0.1567 -0.4736
  274MOL0     C37713   8.699   3.956   4.474  0.9113 -0.7279  0.4201
  274MOL0     C37714   8.838   3.924   4.444 -1.2516 -0.0828 -0.6169
  274MOL0     C37715   8.847   3.813   4.338 -0.8635 -0.4751 -0.2963
  274MOL0     C37716   8.983   3.756   4.329  0.5299 -1.3010 -0.0304
  274MOL0     C37717   8.981   3.627   4.247  0.1189  0.1661  0.8365
  274MOL0     C37718   9.105   3.535   4.263 -0.3324  0.1789  1.8471
  274MOL0    Cl37719   9.233   3.592   4.156 -0.4240 -0.1191  0.3295
  274MOL0     C37720   8.275   4.117   4.707  0.3294  0.8789  0.4528
  274MOL0     C37721   8.135   4.114   4.722  0.0393  0.8996  0.4501
  274MOL0     O37722   7.917   4.280   4.782  0.1306  0.2138 -0.5080
  274MOL0     C37723   7.648   4.078   4.704 -0.3423 -0.0005  0.7196
  274MOL0     C37724   7.523   4.032   4.737  0.3127  0.4169  0.0703
  274MOL0     N37725   6.832   3.596   4.838 -0.8593 -0.1772 -0.6811
  274MOL0     N37726   6.754   3.539   4.765  1.6480  0.1361 -0.5590
  274MOL0     C37727   5.757   3.481   3.957 -1.3576  0.2617  0.4252
  274MOL0     C37728   5.695   3.387   3.871 -0.0217  0.0533  0.4134
  274MOL0     C37729   5.543   3.209   3.468  0.4166 -0.4927  0.4550
  274MOL0     C37730   5.489   3.262   3.351 -0.0868  0.3357 -0.1408
  274MOL0     C37731   5.427   3.189   3.251  1.0954 -0.0533 -0.3116
  274MOL0     C37732   5.405   3.052   3.264 -1.6244  1.0343  0.6966
  274MOL0     O37733   5.343   2.961   3.177  0.2145  0.3248 -0.1286
  274MOL0     C37734   5.300   3.014   3.051  0.4279 -0.0783  0.5626
  274MOL0     C37735   5.242   2.899   2.968 -0.4813 -0.0951 -0.0643
  274MOL0     C37736   5.220   2.946   2.826  0.4682 -0.2483  0.0425
  274MOL0     C37737   5.127   3.070   2.809  0.2000 -0.5433  0.5817
  274MOL0     C37738   5.005   3.060   2.891  0.1889  0.0708 -0.8834
  274MOL0     C37739   4.907   3.048   2.974 -0.1202  0.0728 -0.1642
  274MOL0     C37740   5.455   3.001   3.381  0.0200 -0.2789  0.1789
  274MOL0     C37741   5.531   3.067   3.479  0.4055  0.6372  0.4604
  274MOL0     C37742   5.597   2.982   3.594  1.0343 -0.5703 -0.4508
  274MOL0     H37743   5.926   3.370   3.624 -3.0190 -2.2445 -0.6102
  274MOL0     H37744   6.045   3.512   3.783 -0.0608 -0.1445 -1.4024
  274MOL0     H37745   6.122   3.666   3.949 -0.4395 -2.1741 -1.9559
  274MOL0     H37746   6.145   3.523   4.049  2.9427  1.8844  0.5823
  274MOL0     H37747   6.079   3.796   4.150 -1.5716 -0.4865 -0.6658
  274MOL0     H37748   6.062   3.659   4.248 -0.4675  2.4493 -0.5020
  274MOL0     H37749   6.312   3.605   4.204  0.9635  1.4623 -1.7159
  274MOL0     H37750   6.315   3.744   4.113  0.4145 -1.2465 -0.4453
  274MOL0     H37751   6.222   3.886   4.283  2.8495  0.7154 -1.5257
  274MOL0     H37752   6.223   3.743   4.397  1.0414 -1.2461  1.0129
  274MOL0     H37753   6.437   3.883   4.448  1.8114 -0.6076  0.0378
  274MOL0     H37754   6.485   3.878   4.283  2.7001  1.3675  2.3613
  274MOL0     H37755   6.422   3.625   4.420 -1.3615  2.1106  1.0008
  274MOL0     H37756   6.536   3.650   4.281 -2.3879  2.7840 -3.5614
  274MOL0     H37757   6.568   3.750   4.576  0.6851 -1.2292  1.1999
  274MOL0     H37758   6.676   3.777   4.443 -1.2192  0.6443  0.0785
  274MOL0     H37759   6.612   3.501   4.547 -1.9294  1.5123  0.3672
  274MOL0     H37760   6.726   3.536   4.431 -0.9605 -2.7047  1.0353
  274MOL0     H37761   6.952   3.689   4.562  0.8133  1.7026  1.6146
  274MOL0     H37762   7.130   3.704   4.727 -0.7290 -2.1460 -0.0449
  274MOL0     H37763   7.091   3.695   4.901 -1.8733  0.9788  1.9614
  274MOL0     H37764   7.012   3.906   4.693  0.4806 -0.3409 -0.6422
  274MOL0     H37765   6.923   3.896   4.846  1.1685  0.9194  1.8617
  274MOL0     H37766   7.084   4.069   4.886  0.9440 -0.3812  2.1960
  274MOL0     H37767   7.112   3.923   4.986 -0.4441  2.0248  0.8024
  274MOL0     H37768   7.305   3.862   4.836 -1.1264 -1.2401  0.6222
  274MOL0     H37769   7.237   3.976   4.719  0.0135 -2.4301  0.0952
  274MOL0     H37770   7.471   4.232   4.999 -2.1741 -0.6399 -1.0017
  274MOL0     H37771   7.816   4.271   5.000 -0.0316 -1.2271 -3.5213
  274MOL0     H37772   7.676   4.347   5.068 -3.2851 -1.2231 -0.3184
  274MOL0     H37773   7.736   4.417   4.910  0.0660 -1.8200 -2.5707
  274MOL0     H37774   8.046   4.059   4.403  1.0835  0.1263 -0.4276
  274MOL0     H37775   8.282   4.073   4.378  0.4138  1.6248  0.2287
  274MOL0     H37776   8.566   4.173   4.719  4.1374 -0.4838 -1.6150
  274MOL0     H37777   8.516   4.002   4.709  0.1390 -2.5728 -1.8984
  274MOL0     H37778   8.758   4.132   4.586  0.4554 -0.9603 -0.1534
  274MOL0     H37779   8.735   3.994   4.689 -1.9998  0.5509  0.2520
  274MOL0     H37780   8.648   4.000   4.387  1.2880  0.1905  0.6470
  274MOL0     H37781   8.641   3.868   4.502 -1.8559  0.3313 -1.4175
  274MOL0     H37782   8.881   3.882   4.536  1.3799  0.7543 -1.3618
  274MOL0     H37783   8.884   4.017   4.408 -0.5489 -0.5393 -0.9063
  274MOL0     H37784   8.773   3.740   4.371 -0.0460 -1.0108  0.3735
  274MOL0     H37785   8.825   3.848   4.237  1.1553  1.6342 -0.1005
  274MOL0     H37786   9.014   3.739   4.432 -3.8488  0.0302  1.7282
  274MOL0     H37787   9.049   3.825   4.274 -3.0476  1.8681 -0.7415
  274MOL0     H37788   8.971   3.657   4.142  0.3694  0.1545  0.8088
  274MOL0     H37789   8.894   3.567   4.276  0.6846 -1.8925 -1.3459
  274MOL0     H37790   9.081   3.436   4.223  1.0527  0.6425 -0.2945
  274MOL0     H37791   9.146   3.515   4.362 -0.0092 -1.0883  1.4726
  274MOL0     H37792   8.340   4.128   4.793  1.7165 -1.0440 -0.2778
  274MOL0     H37793   8.108   4.118   4.827  3.5058 -3.3714  1.8187
  274MOL0     H37794   7.698   4.040   4.615  0.8702  1.0867  0.9071
  274MOL0     H37795   7.470   3.964   4.670 -1.0355  0.0023  1.5035
  274MOL0     H37796   5.715   3.507   4.053  1.3212  0.6560  1.5895
  274MOL0     H37797   5.596   3.349   3.895  0.0049  0.4899  1.2246
  274MOL0     H37798   5.481   3.371   3.345  0.6017  0.4828  1.1799
  274MOL0     H37799   5.406   3.225   3.151  0.2836 -2.0713 -0.9184
  274MOL0     H37800   5.215   3.080   3.070  1.2220  0.4196  2.6642
  274MOL0     H37801   5.382   3.062   2.997  4.0493 -3.7317  2.1868
  274MOL0     H37802   5.148   2.869   3.015 -0.6354  0.2769 -0.1318
  274MOL0     H37803   5.295   2.805   2.951 -0.6131  0.0621 -1.5383
  274MOL0     H37804   5.313   2.948   2.768  0.2591  0.0802 -0.2812
  274MOL0     H37805   5.161   2.868   2.777 -3.2273  1.9661  0.5847
  274MOL0     H37806   5.093   3.072   2.705 -2.4982 -2.3141  1.3094
  274MOL0     H37807   5.190   3.157   2.826  0.6171 -0.3927 -1.4826
  274MOL0     H37808   4.812   3.056   3.023 -0.2071 -0.8751 -0.1517
  274MOL0     H37809   5.434   2.897   3.403  3.3677 -1.3339 -0.8701
  274MOL0     H37810   5.565   2.878   3.605 -2.5792  0.5554  1.2177
  274MOL0     H37811   5.705   2.992   3.582  0.9051 -0.3505 -1.4997
  274MOL0     H37812   5.556   3.024   3.686 -1.0030 -0.8788 -1.1548
  275MOL0     O37813   5.766   5.082   2.805  0.1082 -0.5882 -0.4246
  275MOL0     C37814   5.717   5.179   2.747 -0.4621  0.8339 -0.4742
  275MOL0     O37815   5.781   5.293   2.701 -0.0437  0.4914  0.3172
  275MOL0     C37816   5.917   5.293   2.701  0.6410 -0.6990 -0.6644
  275MOL0     C37817   5.983   5.418   2.725  0.3593  0.0951  0.6420
  275MOL0     C37818   6.120   5.425   2.709 -0.6490  0.6915  0.3585
  275MOL0     C37819   6.189   5.314   2.669  0.4291 -0.7690  1.0973
  275MOL0     O37820   6.325   5.319   2.649 -0.0194 -1.0438 -0.3324
  275MOL0     C37821   6.402   5.199   2.623  1.2167 -0.0795  0.0118
  275MOL0     C37822   6.551   5.221   2.608 -0.2019  0.7377  0.2702
  275MOL0     C37823   6.613   5.156   2.478  0.1852  0.8943 -0.6752
  275MOL0     C37824   6.762   5.203   2.486  0.8951 -0.3199  0.1499
  275MOL0     C37825   6.844   5.156   2.363 -0.5913 -0.3744 -0.5069
  275MOL0     C37826   6.991   5.189   2.394  0.0836 -0.6625  0.2443
  275MOL0     C37827   7.073   5.136   2.279  0.4759  0.8975  0.4179
  275MOL0     C37828   7.224   5.150   2.300 -0.3158  0.3642 -0.1929
  275MOL0     N37829   7.299   5.126   2.183  0.3369 -0.6492  0.4613
  275MOL0     C37830   7.421   5.180   2.156  0.5142  0.4352  0.0388
  275MOL0     C37831   7.463   5.139   2.029 -0.1300 -0.0924 -0.4170
  275MOL0     C37832   7.593   5.164   1.967  0.2830 -0.0728 -0.6856
  275MOL0     C37833   7.581   5.225   1.825 -0.6747 -0.7279 -0.7480
  275MOL0     C37834   7.494   5.141   1.731  0.3962  0.2400  0.1181
  275MOL0     C37835   7.511   5.185   1.589  0.1265  0.0265  0.4194
  275MOL0     O37836   7.386   5.165   1.514  0.2641  0.5204  0.1560
  275MOL0     C37837   7.342   5.033   1.494  0.3198  0.8620 -0.3985
  275MOL0     C37838   7.224   5.012   1.435  0.1008  0.2393  0.5166
  275MOL0     C37839   7.176   4.887   1.385  0.0065 -0.0992 -0.0615
  275MOL0     C37840   7.041   4.875   1.320  0.7709  0.1312 -0.3443
  275MOL0     C37841   7.253   4.774   1.409  0.2132  0.8000  0.4496
  275MOL0     C37842   7.220   4.628   1.372  0.0793 -0.0954 -0.8452
  275MOL0     O37843   7.262   4.532   1.464  0.1464 -0.2937  0.3133
  275MOL0     C37844   7.248   4.400   1.450  1.2193 -0.1821 -0.5186
  275MOL0     C37845   7.206   4.317   1.555 -0.5674  0.4318 -0.1855
  275MOL0     C37846   7.188   4.178   1.542  0.5667  0.8175 -0.7123
  275MOL0     C37847   7.222   4.112   1.416  0.0207  0.1447  0.5055
  275MOL0     O37848   7.201   3.976   1.398 -0.0150  0.5965  0.2911
  275MOL0     C37849   7.064   3.932   1.426  0.0971 -0.1555 -0.7120
  275MOL0     C37850   6.980   3.927   1.295 -0.1261  0.1803 -0.3877
  275MOL0     C37851   7.056   3.850   1.183  1.1836  0.0733 -0.8717
  275MOL0     C37852   6.962   3.805   1.067 -0.4087  0.2049 -0.6625
  275MOL0     C37853   7.032   3.817   0.931  0.2899 -0.5470 -0.4703
  275MOL0     C37854   6.929   3.794   0.817  0.1551 -0.4046  0.4339
  275MOL0     C37855   6.992   3.770   0.675 -0.3720  0.6196  0.3252
  275MOL0     C37856   7.049   3.888   0.606  0.1463 -0.5618  0.7409
  275MOL0    Cl37857   7.200   3.951   0.686  0.1422 -0.2858  0.4364
  275MOL0     C37858   7.271   4.199   1.312  0.1293  0.8374  0.4111
  275MOL0     C37859   7.282   4.340   1.332  0.7926  0.0120 -0.4389
  275MOL0     O37860   7.146   4.606   1.271 -0.5917 -0.0157 -0.7705
  275MOL0     C37861   7.374   4.791   1.470  0.0188 -0.4493  0.8425
  275MOL0     C37862   7.422   4.918   1.510  0.1457  0.3835 -0.0125
  275MOL0     N37863   7.365   5.065   1.981 -0.3436  0.1607  0.0254
  275MOL0     N37864   7.276   5.049   2.067  0.2605  0.6533  0.0198
  275MOL0     C37865   6.123   5.190   2.653 -0.7206 -0.0013  0.8808
  275MOL0     C37866   5.992   5.184   2.667 -1.2353 -0.1471  0.2756
  275MOL0     C37867   5.571   5.182   2.723  0.9265 -0.6703 -0.0643
  275MOL0     C37868   5.510   5.282   2.643  0.7386 -0.7819 -0.6744
  275MOL0     C37869   5.377   5.289   2.619  0.2447  0.5372 -0.3714
  275MOL0     C37870   5.287   5.214   2.679 -0.4321 -0.6427 -0.7996
  275MOL0     O37871   5.155   5.234   2.652 -0.6249 -0.1328  0.1744
  275MOL0     C37872   5.066   5.138   2.704  0.7983  0.5659 -0.3043
  275MOL0     C37873   4.927   5.145   2.646  0.2990  0.7526  0.2536
  275MOL0     C37874   4.928   5.093   2.503 -0.1626  0.6423  0.0297
  275MOL0     C37875   4.786   5.068   2.440  0.5642 -0.4443  0.4102
  275MOL0     C37876   4.718   5.202   2.422 -0.0566  0.1609  0.2416
  275MOL0     C37877   4.661   5.304   2.436  0.3965  0.5859  0.3216
  275MOL0     C37878   5.336   5.111   2.763  0.1550 -0.4166 -0.6469
  275MOL0     C37879   5.480   5.089   2.780  0.7203  0.7936  0.4451
  275MOL0     C37880   5.521   4.968   2.865 -0.0920  0.7035  0.5959
  275MOL0     H37881   5.925   5.498   2.768  0.0698 -0.1670  0.7443
  275MOL0     H37882   6.173   5.516   2.736  1.2953  0.6882 -2.9080
  275MOL0     H37883   6.363   5.143   2.538 -1.3353  1.6942 -0.0819
  275MOL0     H37884   6.392   5.131   2.709  0.7166  1.6276  1.3764
  275MOL0     H37885   6.569   5.329   2.605  1.1841  0.5072 -0.4055
  275MOL0     H37886   6.592   5.184   2.703 -0.8522  2.9851  1.5025
  275MOL0     H37887   6.612   5.047   2.474  1.7106  0.8266  0.2086
  275MOL0     H37888   6.570   5.190   2.383 -2.0550  0.9313  0.2796
  275MOL0     H37889   6.755   5.313   2.482  4.0177 -0.0357 -3.3975
  275MOL0     H37890   6.804   5.165   2.579  1.3852  0.1261  0.1161
  275MOL0     H37891   6.803   5.197   2.271  0.0797  2.5695  0.4115
  275MOL0     H37892   6.826   5.048   2.352 -0.8642 -0.3976  0.1396
  275MOL0     H37893   6.997   5.298   2.397  0.9906 -0.6772 -0.5324
  275MOL0     H37894   7.020   5.152   2.493 -0.4798  4.1158  2.5038
  275MOL0     H37895   7.052   5.189   2.186  0.6893  0.2703 -0.0009
  275MOL0     H37896   7.050   5.029   2.274 -2.0935  1.3216  1.8133
  275MOL0     H37897   7.253   5.249   2.335 -1.2494  0.3321  0.7115
  275MOL0     H37898   7.260   5.081   2.377  1.6912  0.0559 -1.3239
  275MOL0     H37899   7.475   5.230   2.236 -2.0510  0.6019  1.8083
  275MOL0     H37900   7.642   5.067   1.955  0.0908 -0.3513  0.6366
  275MOL0     H37901   7.654   5.230   2.030 -0.0494  2.5857 -2.9266
  275MOL0     H37902   7.553   5.330   1.836 -0.5193 -0.7295 -0.3184
  275MOL0     H37903   7.687   5.216   1.799  0.6417  0.4186  3.4950
  275MOL0     H37904   7.543   5.043   1.737  1.6287  0.7300 -1.3345
  275MOL0     H37905   7.388   5.134   1.757  0.3680  0.3305  0.0267
  275MOL0     H37906   7.525   5.293   1.579 -2.1319  0.1698 -2.2782
  275MOL0     H37907   7.599   5.140   1.543  0.8214  1.1147  0.6278
  275MOL0     H37908   7.175   5.107   1.416 -0.1314 -0.0381 -0.3108
  275MOL0     H37909   6.976   4.948   1.369  0.8365  0.5792 -0.9147
  275MOL0     H37910   6.992   4.782   1.351 -0.4743  1.0108  0.4632
  275MOL0     H37911   7.050   4.887   1.212  3.6054 -2.0762 -0.4751
  275MOL0     H37912   7.204   4.376   1.647 -3.7736  1.1645 -0.5811
  275MOL0     H37913   7.168   4.123   1.633  0.9315  2.5427  0.4476
  275MOL0     H37914   7.079   3.829   1.462 -0.6545  0.0670  0.2894
  275MOL0     H37915   7.018   3.992   1.505  1.2004  1.9803 -1.6161
  275MOL0     H37916   6.892   3.865   1.313 -0.2687  0.7362  0.9481
  275MOL0     H37917   6.953   4.024   1.252  0.7388  0.6508  0.0985
  275MOL0     H37918   7.115   3.767   1.224 -0.0500  0.4053  1.7343
  275MOL0     H37919   7.140   3.916   1.157 -0.1314  2.4047  0.5093
  275MOL0     H37920   6.878   3.876   1.065 -1.3963 -0.9413 -0.9128
  275MOL0     H37921   6.934   3.701   1.084  2.8827 -0.9099 -1.4970
  275MOL0     H37922   7.080   3.915   0.928 -1.1527  0.3514  2.1064
  275MOL0     H37923   7.108   3.738   0.930 -0.2791 -1.0916 -0.9014
  275MOL0     H37924   6.859   3.876   0.803 -0.7140 -1.4476 -1.7608
  275MOL0     H37925   6.861   3.710   0.835 -1.4126  0.0391 -2.6671
  275MOL0     H37926   6.911   3.732   0.611  0.5213 -1.6014  0.4502
  275MOL0     H37927   7.068   3.693   0.692 -0.1040  1.0403  1.0490
  275MOL0     H37928   6.974   3.968   0.603  0.1855 -0.5212  0.8221
  275MOL0     H37929   7.060   3.867   0.500 -0.1804  2.4215  0.0222
  275MOL0     H37930   7.286   4.152   1.215  1.9618 -1.5152  1.7036
  275MOL0     H37931   7.313   4.404   1.249  1.7685  0.5670  0.3300
  275MOL0     H37932   7.435   4.701   1.476  1.9332  0.8853  2.8515
  275MOL0     H37933   7.520   4.915   1.556  0.2190 -1.1925 -0.2396
  275MOL0     H37934   6.176   5.102   2.619 -0.8970  1.0264 -2.3565
  275MOL0     H37935   5.951   5.087   2.641  1.2248 -1.2080  0.1062
  275MOL0     H37936   5.577   5.336   2.578  3.0129 -1.8368  0.6985
  275MOL0     H37937   5.330   5.367   2.559 -1.9518 -0.8094 -0.5107
  275MOL0     H37938   5.104   5.037   2.686  1.7494  1.4704 -4.3341
  275MOL0     H37939   5.048   5.150   2.811 -3.3572 -0.9884 -0.6349
  275MOL0     H37940   4.896   5.250   2.642 -1.3049  0.2972 -2.1406
  275MOL0     H37941   4.857   5.091   2.711 -0.5182  1.9737  0.4238
  275MOL0     H37942   4.984   5.169   2.446  3.3059 -1.2178  0.6743
  275MOL0     H37943   4.991   5.004   2.499  1.5117  1.7536  0.3437
  275MOL0     H37944   4.722   5.008   2.506  1.4824 -1.9823 -0.0669
  275MOL0     H37945   4.786   5.018   2.343  3.9262 -3.9584  1.9664
  275MOL0     H37946   4.608   5.397   2.434 -1.5748 -0.4798  0.4569
  275MOL0     H37947   5.264   5.042   2.807  0.8223 -0.3688  0.5606
  275MOL0     H37948   5.554   5.003   2.963  3.3105 -0.4632  0.0011
  275MOL0     H37949   5.436   4.899   2.872  2.1323 -2.2459  0.8011
  275MOL0     H37950   5.600   4.915   2.812 -0.7275 -0.3324  0.6460
  276MOL0     O37951   9.897   6.318   5.506  0.7510  0.3829 -0.2946
  276MOL0     C37952   9.896   6.318   5.627  0.1547 -0.0799  0.5086
  276MOL0     O37953   9.993   6.374   5.707  0.4933  0.2240  0.3604
  276MOL0     C37954  10.111   6.425   5.661  1.2712 -0.0306 -0.1561
  276MOL0     C37955  10.173   6.511   5.751 -0.5330  0.7086  0.1988
  276MOL0     C37956  10.294   6.564   5.736 -0.5934  0.3306  0.6342
  276MOL0     C37957  10.353   6.559   5.611 -0.6002  0.3509 -0.8713
  276MOL0     O37958  10.475   6.618   5.603 -0.3416  0.3791 -0.4009
  276MOL0     C37959  10.523   6.673   5.482  0.3842  0.3291 -0.5009
  276MOL0     C37960  10.660   6.744   5.508 -0.1795  0.4769 -0.3531
  276MOL0     C37961  10.759   6.666   5.604  0.6271  0.5023 -0.6503
  276MOL0     C37962  10.902   6.736   5.613  0.3243 -0.4663 -0.2669
  276MOL0     C37963  10.982   6.644   5.708 -0.4604  0.0837  0.3334
  276MOL0     C37964  11.125   6.696   5.724  0.4762 -0.3430  0.5376
  276MOL0     C37965  11.207   6.598   5.807 -0.5039  0.2817  0.2690
  276MOL0     C37966  11.336   6.662   5.852 -0.5854 -0.2680  0.0111
  276MOL0     N37967  11.425   6.693   5.738  0.4203  0.6189  0.4305
  276MOL0     C37968  11.416   6.797   5.656  0.3778  0.9082 -0.3145
  276MOL0     C37969  11.524   6.789   5.575  0.1321 -0.8835 -0.1027
  276MOL0     C37970  11.562   6.907   5.493  0.8231  0.6016 -0.0201
  276MOL0     C37971  11.640   7.028   5.569 -0.1939  0.4174 -0.0890
  276MOL0     C37972  11.569   7.061   5.698  0.1718  0.4372  0.4976
  276MOL0     C37973  11.622   7.182   5.775 -0.7048 -0.3516 -0.0511
  276MOL0     O37974  11.746   7.144   5.828 -0.5657  0.8136  0.0485
  276MOL0     C37975  11.834   7.234   5.881 -0.3982  0.8463 -0.0466
  276MOL0     C37976  11.830   7.370   5.864 -0.0142 -0.7457 -0.0720
  276MOL0     C37977  11.934   7.443   5.919  0.8487 -0.8668 -0.3522
  276MOL0     C37978  11.919   7.589   5.893 -0.4715  0.3716  0.4742
  276MOL0     C37979  12.040   7.393   6.005  0.6433 -0.3935  1.3482
  276MOL0     C37980  12.130   7.471   6.086  0.3503 -0.5842 -1.1504
  276MOL0     O37981  12.198   7.395   6.182 -0.5925  0.0928  0.1942
  276MOL0     C37982  12.317   7.450   6.236 -0.0008  0.8548  0.0434
  276MOL0     C37983  12.352   7.429   6.368 -0.5800 -0.5505 -0.2376
  276MOL0     C37984  12.476   7.456   6.417  0.0767 -0.0840  0.9501
  276MOL0     C37985  12.570   7.527   6.342  0.3026 -0.0204  0.1782
  276MOL0     O37986  12.687   7.574   6.395  0.3532  0.0852 -0.2960
  276MOL0     C37987  12.678   7.628   6.530 -0.2868 -0.1537 -0.3508
  276MOL0     C37988  12.808   7.710   6.561  1.2360  0.1277  0.2716
  276MOL0     C37989  12.837   7.827   6.470 -0.2373  0.0070 -0.8084
  276MOL0     C37990  12.983   7.882   6.492  1.0932 -0.8067 -0.0611
  276MOL0     C37991  13.013   8.010   6.418  0.1615 -0.3334  0.4042
  276MOL0     C37992  13.012   7.975   6.264 -0.2647  0.0268 -0.8714
  276MOL0     C37993  12.997   8.099   6.175 -0.8869 -0.4299 -0.6045
  276MOL0     C37994  13.070   8.096   6.040  0.5756 -0.1597 -0.9779
  276MOL0    Cl37995  13.022   7.953   5.952 -0.4590  0.1738 -0.4357
  276MOL0     C37996  12.538   7.555   6.210  0.5388  0.6935  0.0943
  276MOL0     C37997  12.413   7.515   6.158 -0.0823  0.5882  0.9303
  276MOL0     O37998  12.143   7.596   6.079  0.0039  0.5947  0.3583
  276MOL0     C37999  12.038   7.248   6.018 -0.4109 -0.2199 -0.6491
  276MOL0     C38000  11.931   7.172   5.962 -0.6673  0.0143  0.2125
  276MOL0     N38001  11.600   6.682   5.609  0.4508  0.3972  0.2587
  276MOL0     N38002  11.537   6.618   5.697  0.9466 -0.0340 -0.6362
  276MOL0     C38003  10.303   6.478   5.512  0.1554  0.3186 -0.2006
  276MOL0     C38004  10.182   6.410   5.534 -0.7462 -0.0807 -0.9917
  276MOL0     C38005   9.805   6.234   5.714 -0.3593  0.4621  0.5339
  276MOL0     C38006   9.831   6.215   5.848 -0.4496  0.4162 -0.6249
  276MOL0     C38007   9.749   6.156   5.939  0.0557  0.1119  0.1603
  276MOL0     C38008   9.630   6.104   5.896  0.9216 -0.7090  0.7932
  276MOL0     O38009   9.539   6.040   5.977  0.1232  0.1605 -0.1642
  276MOL0     C38010   9.549   6.063   6.116  0.0893 -0.1100  0.7885
  276MOL0     C38011   9.445   5.971   6.181  0.1610 -0.3332 -0.0828
  276MOL0     C38012   9.302   6.030   6.171 -0.3124 -0.2292 -0.6558
  276MOL0     C38013   9.203   5.943   6.238 -0.0638 -0.0398 -0.6359
  276MOL0     C38014   9.076   6.017   6.225 -0.1627  0.6020  0.6740
  276MOL0     C38015   8.981   6.090   6.225 -0.1290  0.1410  0.6311
  276MOL0     C38016   9.593   6.124   5.758 -0.1768  0.3108  0.3669
  276MOL0     C38017   9.678   6.192   5.668 -0.4696  0.6589  0.4245
  276MOL0     C38018   9.623   6.214   5.527  0.3526 -0.5153 -0.1436
  276MOL0     H38019  10.124   6.530   5.846  0.3121 -1.4380  1.1236
  276MOL0     H38020  10.339   6.615   5.820 -0.2357  0.4143  0.3982
  276MOL0     H38021  10.455   6.750   5.444  0.5114  0.5274 -0.3338
  276MOL0     H38022  10.543   6.600   5.404  0.1096 -1.0135  0.6450
  276MOL0     H38023  10.697   6.788   5.414 -0.3959  3.8459  1.0130
  276MOL0     H38024  10.629   6.822   5.577  0.3695  0.2660  0.1424
  276MOL0     H38025  10.711   6.682   5.701  1.2544 -0.0498 -0.2434
  276MOL0     H38026  10.762   6.557   5.600  0.4148  0.5153 -1.3982
  276MOL0     H38027  10.950   6.756   5.517  0.3947  0.0400 -0.1318
  276MOL0     H38028  10.884   6.831   5.665  0.8998 -0.9328  0.8320
  276MOL0     H38029  10.973   6.542   5.670 -2.9018  0.8609 -1.4272
  276MOL0     H38030  10.929   6.641   5.804 -1.5786  1.0026 -0.2301
  276MOL0     H38031  11.166   6.712   5.624 -1.6001  1.0573 -0.1531
  276MOL0     H38032  11.109   6.797   5.764 -1.6059 -0.4943  0.1832
  276MOL0     H38033  11.223   6.501   5.760  2.6595 -1.9197  5.1042
  276MOL0     H38034  11.154   6.575   5.899  2.3109 -1.1264  1.6715
  276MOL0     H38035  11.314   6.753   5.907 -0.5198  0.2008 -0.7173
  276MOL0     H38036  11.391   6.603   5.925  1.3116  1.0328 -0.2906
  276MOL0     H38037  11.338   6.871   5.669 -0.8899 -0.6350  1.4727
  276MOL0     H38038  11.474   6.960   5.454  0.1552  0.9627  1.8862
  276MOL0     H38039  11.633   6.876   5.416  0.0555 -2.3088  0.3531
  276MOL0     H38040  11.744   7.009   5.597  0.8268  4.5190 -0.4200
  276MOL0     H38041  11.647   7.104   5.491  3.4328  0.0204 -0.3516
  276MOL0     H38042  11.468   7.084   5.663  0.1048 -0.5564  0.0127
  276MOL0     H38043  11.570   6.970   5.758  0.4987 -1.0463 -1.6589
  276MOL0     H38044  11.621   7.267   5.707 -1.0542 -0.0099  0.3797
  276MOL0     H38045  11.548   7.206   5.852  0.1839  2.9919 -0.0845
  276MOL0     H38046  11.750   7.412   5.803  2.0365  2.5795 -0.7478
  276MOL0     H38047  12.012   7.629   5.852  0.3155  0.9791  2.7202
  276MOL0     H38048  11.884   7.639   5.984  1.1644  0.5175  1.0382
  276MOL0     H38049  11.846   7.600   5.812  1.5508 -0.5582 -1.5865
  276MOL0     H38050  12.278   7.379   6.430 -1.4939 -0.8850 -1.5416
  276MOL0     H38051  12.494   7.446   6.523  4.1729 -0.5577  0.3720
  276MOL0     H38052  12.594   7.698   6.538  0.1771  0.3170  0.6132
  276MOL0     H38053  12.664   7.548   6.604  1.8418 -1.4544 -1.2828
  276MOL0     H38054  12.805   7.745   6.665  0.0800 -0.7464  0.5480
  276MOL0     H38055  12.884   7.635   6.537  0.7225  0.6582 -3.6030
  276MOL0     H38056  12.756   7.900   6.476  0.8603  1.5246 -3.0888
  276MOL0     H38057  12.827   7.782   6.371  2.3965 -0.6154 -0.8569
  276MOL0     H38058  13.048   7.801   6.455 -0.5009 -1.0513 -2.5967
  276MOL0     H38059  12.994   7.897   6.599 -0.2718 -0.4956  0.0589
  276MOL0     H38060  12.936   8.088   6.428  0.6974  0.6272 -2.1565
  276MOL0     H38061  13.112   8.046   6.447  1.5431 -0.9940 -3.0318
  276MOL0     H38062  12.943   7.893   6.242  0.3627 -0.5124 -0.8826
  276MOL0     H38063  13.109   7.931   6.239  0.5415 -0.3087  2.3988
  276MOL0     H38064  13.024   8.190   6.228 -1.1480 -1.9638  2.3999
  276MOL0     H38065  12.891   8.122   6.156 -1.4690 -2.1132  0.3861
  276MOL0     H38066  13.177   8.094   6.063  0.3819  1.1781  0.1951
  276MOL0     H38067  13.045   8.190   5.991  0.6932  1.7804  2.3698
  276MOL0     H38068  12.615   7.606   6.154  0.8790  1.0754  0.8860
  276MOL0     H38069  12.396   7.545   6.055  1.3168  1.4136  0.9163
  276MOL0     H38070  12.109   7.186   6.072 -2.6991 -3.2007 -0.8132
  276MOL0     H38071  11.927   7.065   5.982 -4.2139  0.2042  1.1791
  276MOL0     H38072  10.346   6.487   5.413  0.1638 -2.0946 -0.4816
  276MOL0     H38073  10.165   6.345   5.448  2.5865 -2.7215  0.1472
  276MOL0     H38074   9.918   6.266   5.889 -0.1773  1.6454 -2.6068
  276MOL0     H38075   9.769   6.149   6.046 -3.7940  1.5424  1.1314
  276MOL0     H38076   9.645   6.033   6.160  0.0267 -0.8911  0.4140
  276MOL0     H38077   9.537   6.165   6.153  1.8828  0.2621  0.4542
  276MOL0     H38078   9.473   5.967   6.287 -0.8475 -1.1670  0.1704
  276MOL0     H38079   9.446   5.869   6.142 -1.3971 -0.6438  0.6037
  276MOL0     H38080   9.294   6.128   6.219  1.6357 -0.7085  0.7535
  276MOL0     H38081   9.275   6.039   6.065 -0.3725  0.0740 -0.6167
  276MOL0     H38082   9.233   5.908   6.337  0.2133  1.3226 -0.2206
  276MOL0     H38083   9.213   5.857   6.171  3.0702 -0.3579  0.0614
  276MOL0     H38084   8.892   6.149   6.224 -0.3327 -0.1674 -0.6665
  276MOL0     H38085   9.496   6.091   5.724 -1.0121  0.0193  2.8249
  276MOL0     H38086   9.652   6.311   5.486  1.0791 -1.1504 -1.1809
  276MOL0     H38087   9.666   6.145   5.454 -0.5288  0.4315 -1.5961
  276MOL0     H38088   9.514   6.201   5.533  0.2480  0.5301  0.5400
  277MOL0     O38089   4.630   5.203   8.628 -0.6158  0.7568  0.8085
  277MOL0     C38090   4.591   5.162   8.513 -0.1356 -0.6292  0.0978
  277MOL0     O38091   4.660   5.085   8.433  0.4270 -0.4437 -0.1605
  277MOL0     C38092   4.763   5.008   8.484  0.1993 -0.4918 -1.0680
  277MOL0     C38093   4.897   5.048   8.502  0.0430  0.1701 -0.1289
  277MOL0     C38094   4.984   4.971   8.579 -0.7217  0.5185 -0.3755
  277MOL0     C38095   4.930   4.847   8.638 -0.0408 -0.3084 -0.7360
  277MOL0     O38096   4.999   4.764   8.725 -0.5169 -0.0261  0.6943
  277MOL0     C38097   5.101   4.808   8.808 -0.5588 -0.1768 -0.7605
  277MOL0     C38098   5.135   4.706   8.917  0.9837  0.5536  0.5779
  277MOL0     C38099   5.033   4.676   9.028 -0.0087 -0.2407 -0.3323
  277MOL0     C38100   4.946   4.793   9.080 -0.2869 -0.1278 -0.8081
  277MOL0     C38101   5.020   4.917   9.131 -0.1055  0.3988 -0.0017
  277MOL0     C38102   5.121   4.894   9.247 -0.2946 -0.2599  0.1321
  277MOL0     C38103   5.195   5.029   9.289  0.7670  0.4254 -0.8777
  277MOL0     C38104   5.270   4.996   9.414 -0.2677 -0.6168  0.2070
  277MOL0     N38105   5.392   4.920   9.380  0.4166  0.1217 -0.1899
  277MOL0     C38106   5.482   4.961   9.299 -0.6764  0.5255 -0.4927
  277MOL0     C38107   5.581   4.868   9.302  1.1033 -0.2115 -0.6610
  277MOL0     C38108   5.702   4.880   9.223  0.4435 -0.0376 -0.5576
  277MOL0     C38109   5.815   4.797   9.267 -0.2971  0.5587 -0.5010
  277MOL0     C38110   5.929   4.820   9.165  0.6227  0.0812 -0.0800
  277MOL0     C38111   6.022   4.694   9.159 -0.4741  0.1460  0.0979
  277MOL0     O38112   6.101   4.693   9.040  0.3329  0.5224  0.3510
  277MOL0     C38113   6.184   4.585   9.016  0.0664 -0.5740  0.3687
  277MOL0     C38114   6.237   4.593   8.889  0.7782 -1.1847 -0.7960
  277MOL0     C38115   6.339   4.512   8.845 -0.7300  0.7661  1.1533
  277MOL0     C38116   6.382   4.538   8.697 -0.3038 -0.0336  0.0831
  277MOL0     C38117   6.387   4.413   8.931  0.2015  0.6380 -0.6639
  277MOL0     C38118   6.498   4.330   8.898 -1.4395 -0.0812  0.4197
  277MOL0     O38119   6.517   4.228   8.983 -0.5114 -0.3510 -0.9854
  277MOL0     C38120   6.646   4.183   9.018 -0.3764  0.0895  0.1621
  277MOL0     C38121   6.656   4.048   9.060 -0.2215  0.2831 -0.8956
  277MOL0     C38122   6.779   3.997   9.115  0.5005 -0.1696 -0.3751
  277MOL0     C38123   6.881   4.081   9.141 -1.4705  0.5758  0.0713
  277MOL0     O38124   7.000   4.026   9.188  0.2048  0.8092  0.5008
  277MOL0     C38125   7.114   4.108   9.216  0.6357 -0.1663  0.4693
  277MOL0     C38126   7.226   4.014   9.249 -0.1227  0.2282 -0.3772
  277MOL0     C38127   7.370   4.071   9.289 -0.5327 -0.0203  0.1787
  277MOL0     C38128   7.459   3.951   9.356 -0.0592 -0.2401 -0.2953
  277MOL0     C38129   7.580   4.017   9.419  0.0052 -0.0108  0.2833
  277MOL0     C38130   7.674   4.082   9.311  0.8726 -0.0674  0.6683
  277MOL0     C38131   7.786   4.156   9.372  0.2120 -0.5333  0.2174
  277MOL0     C38132   7.890   4.189   9.259 -0.3571 -0.4077  1.0129
  277MOL0    Cl38133   7.827   4.287   9.121  0.5187 -0.0422 -0.6510
  277MOL0     C38134   6.862   4.217   9.118  0.0173  0.5339 -0.2120
  277MOL0     C38135   6.751   4.273   9.048 -0.0519 -0.2515  0.0155
  277MOL0     O38136   6.574   4.356   8.804  0.2977  0.7886 -0.0663
  277MOL0     C38137   6.316   4.392   9.052 -0.3779 -0.6504  0.1499
  277MOL0     C38138   6.223   4.478   9.099  0.1296 -0.5942  0.2492
  277MOL0     N38139   5.540   4.757   9.362  0.0723  0.5983  0.8124
  277MOL0     N38140   5.423   4.797   9.419 -0.3506  0.8472 -0.5295
  277MOL0     C38141   4.800   4.807   8.614  0.3120  0.3369  0.3708
  277MOL0     C38142   4.710   4.893   8.549 -1.0165  0.5370 -0.1735
  277MOL0     C38143   4.455   5.182   8.465  0.0598 -0.1213 -0.3551
  277MOL0     C38144   4.375   5.074   8.425 -0.4714  0.0872 -0.2494
  277MOL0     C38145   4.239   5.093   8.393 -0.8058  0.7916  0.4080
  277MOL0     C38146   4.181   5.220   8.394 -0.1445 -0.4701 -0.0690
  277MOL0     O38147   4.054   5.255   8.370 -0.0487  0.2871  0.3421
  277MOL0     C38148   3.953   5.256   8.476 -1.2255 -0.4156  0.7211
  277MOL0     C38149   3.863   5.378   8.470  0.4612  0.3268  0.8201
  277MOL0     C38150   3.930   5.513   8.483  0.0386 -0.0506 -0.2527
  277MOL0     C38151   3.832   5.635   8.481  0.7365 -0.5850  0.3014
  277MOL0     C38152   3.754   5.643   8.602 -1.0517  0.1153 -0.6633
  277MOL0     C38153   3.710   5.643   8.715 -0.1670 -1.1562  0.1338
  277MOL0     C38154   4.271   5.332   8.417 -0.1134 -0.1193  0.4658
  277MOL0     C38155   4.408   5.315   8.450 -0.1002 -0.2480  0.0905
  277MOL0     C38156   4.475   5.437   8.484 -0.4008 -0.6230 -0.4539
  277MOL0     H38157   4.927   5.143   8.458 -0.6692  0.4235 -0.0692
  277MOL0     H38158   5.087   5.002   8.597 -0.6424 -0.8732  1.9023
  277MOL0     H38159   5.070   4.904   8.851  2.7173  1.1924 -1.1339
  277MOL0     H38160   5.190   4.839   8.752 -0.1858 -0.5854 -0.3989
  277MOL0     H38161   5.138   4.614   8.860  0.3912  0.0394  1.3562
  277MOL0     H38162   5.234   4.731   8.956  1.5303 -1.1921  0.3620
  277MOL0     H38163   4.958   4.599   9.006 -0.1243 -0.3316  0.3345
  277MOL0     H38164   5.087   4.643   9.117 -1.2322  1.1807  1.0111
  277MOL0     H38165   4.869   4.830   9.012 -3.6764  1.6615  3.4877
  277MOL0     H38166   4.884   4.764   9.166 -1.2287  2.0013 -0.6998
  277MOL0     H38167   4.950   4.992   9.172 -0.1607  0.3232  0.0422
  277MOL0     H38168   5.065   4.961   9.042 -1.0789 -1.3050 -1.3748
  277MOL0     H38169   5.060   4.852   9.328  2.6979 -0.8332  2.2658
  277MOL0     H38170   5.203   4.824   9.229  1.5647  1.4942  1.2532
  277MOL0     H38171   5.121   5.099   9.328  2.5264  1.7840  0.2061
  277MOL0     H38172   5.258   5.071   9.210 -0.3824  0.3645 -1.8581
  277MOL0     H38173   5.306   5.094   9.447 -1.2534 -0.3653  0.5883
  277MOL0     H38174   5.205   4.955   9.492  1.1162  1.5294  2.6616
  277MOL0     H38175   5.482   5.050   9.237  0.0870  0.6325 -0.3457
  277MOL0     H38176   5.735   4.985   9.220  1.0631 -0.1648  0.9944
  277MOL0     H38177   5.669   4.848   9.124  0.2739  2.8164 -1.5153
  277MOL0     H38178   5.844   4.819   9.370  0.5934  0.5983 -0.7534
  277MOL0     H38179   5.783   4.692   9.271  3.1720 -0.6126  0.9495
  277MOL0     H38180   5.896   4.828   9.061 -1.7764 -1.9543  0.4263
  277MOL0     H38181   5.981   4.914   9.183 -0.1231  0.5733 -0.4332
  277MOL0     H38182   6.087   4.706   9.246  1.1564 -1.3440 -0.8502
  277MOL0     H38183   5.964   4.601   9.161 -0.9020  0.4205  0.7388
  277MOL0     H38184   6.203   4.672   8.824  0.9510 -1.6830 -1.5035
  277MOL0     H38185   6.328   4.619   8.647 -1.2272  0.2278  1.4582
  277MOL0     H38186   6.361   4.453   8.632 -0.4217  1.0356 -1.3125
  277MOL0     H38187   6.488   4.565   8.702 -0.7733  1.8183  3.9511
  277MOL0     H38188   6.573   3.978   9.050 -1.7278  1.9363 -0.4784
  277MOL0     H38189   6.797   3.893   9.139  1.2586 -0.1662 -0.9032
  277MOL0     H38190   7.128   4.167   9.125 -0.0417 -4.1712 -2.5026
  277MOL0     H38191   7.094   4.168   9.305  0.2450 -1.1746  1.0684
  277MOL0     H38192   7.191   3.953   9.333 -0.1177 -0.9118 -1.1947
  277MOL0     H38193   7.243   3.955   9.159  2.1350 -0.4375  0.4137
  277MOL0     H38194   7.367   4.161   9.351  4.5874 -0.2807  1.2029
  277MOL0     H38195   7.416   4.106   9.196  1.5026 -2.6880  0.0573
  277MOL0     H38196   7.485   3.887   9.270 -0.9276 -0.0800 -0.6925
  277MOL0     H38197   7.408   3.891   9.431  2.4647 -0.1101  1.6464
  277MOL0     H38198   7.537   4.089   9.489  0.0638  0.3109 -0.0122
  277MOL0     H38199   7.645   3.952   9.478  1.6858  3.5551  2.7291
  277MOL0     H38200   7.613   4.152   9.254 -0.5065  0.3531  2.5479
  277MOL0     H38201   7.698   4.002   9.240 -3.4295 -1.2741  0.2406
  277MOL0     H38202   7.836   4.109   9.457 -1.6695 -3.5452 -0.1965
  277MOL0     H38203   7.740   4.244   9.419 -1.5429 -1.1355 -0.2692
  277MOL0     H38204   7.937   4.096   9.227  0.4623 -1.3620  4.5657
  277MOL0     H38205   7.975   4.246   9.298  0.1091 -0.1159 -0.3820
  277MOL0     H38206   6.941   4.287   9.138 -0.1714  0.5121  0.6195
  277MOL0     H38207   6.744   4.377   9.019  1.1875  0.0951  0.8753
  277MOL0     H38208   6.341   4.312   9.122 -0.5265 -1.0865 -0.2892
  277MOL0     H38209   6.166   4.474   9.192  0.5480  0.0145  0.5372
  277MOL0     H38210   4.766   4.725   8.676 -1.1002  2.7057  2.9774
  277MOL0     H38211   4.606   4.863   8.549 -0.3276 -2.1529 -1.6236
  277MOL0     H38212   4.415   4.973   8.427 -0.1248  0.2050 -1.0093
  277MOL0     H38213   4.168   5.016   8.365 -2.6037  2.3604  0.3738
  277MOL0     H38214   3.885   5.171   8.469 -0.7940 -0.8831  1.9159
  277MOL0     H38215   4.015   5.241   8.565 -0.0379 -4.2655 -0.5434
  277MOL0     H38216   3.783   5.372   8.544  1.8479  2.1254  2.5775
  277MOL0     H38217   3.803   5.383   8.379 -0.0429 -0.0679  1.1245
  277MOL0     H38218   3.996   5.514   8.570  0.4134 -0.1280 -0.5272
  277MOL0     H38219   3.994   5.516   8.393  1.2057  0.3941  0.5651
  277MOL0     H38220   3.760   5.631   8.399  0.4725  0.4382  0.4682
  277MOL0     H38221   3.889   5.727   8.466 -0.1948 -0.3419 -2.1823
  277MOL0     H38222   3.673   5.640   8.815 -3.3633 -0.8857 -0.9249
  277MOL0     H38223   4.227   5.431   8.424  2.2743  0.9361  1.7623
  277MOL0     H38224   4.581   5.432   8.456  0.5368 -0.2073  2.5743
  277MOL0     H38225   4.421   5.514   8.428 -2.1170 -2.3849 -1.3419
  277MOL0     H38226   4.484   5.457   8.592  1.2756 -4.0996  0.1952
  278MOL0     O38227   2.698   5.195   0.790  0.2855 -0.4322  0.4318
  278MOL0     C38228   2.633   5.302   0.785 -0.1841  0.7338 -0.4095
  278MOL0     O38229   2.695   5.431   0.813  0.6881  0.3829  0.0731
  278MOL0     C38230   2.833   5.448   0.819  0.2152  0.8326 -0.2554
  278MOL0     C38231   2.883   5.516   0.927 -0.5684  0.0590  0.1719
  278MOL0     C38232   3.018   5.550   0.946  1.1445  0.0366  0.2041
  278MOL0     C38233   3.113   5.513   0.844  0.8944  0.2890 -0.2314
  278MOL0     O38234   3.244   5.536   0.852  0.1591 -1.0912  0.0455
  278MOL0     C38235   3.280   5.651   0.935 -0.0335 -0.1964  0.2849
  278MOL0     C38236   3.417   5.721   0.895 -0.7987  0.2507  0.2390
  278MOL0     C38237   3.520   5.618   0.842  0.0424  0.4546  0.2495
  278MOL0     C38238   3.664   5.679   0.830 -0.0328  0.9843  0.2553
  278MOL0     C38239   3.743   5.601   0.721 -0.9987 -0.0014 -0.0835
  278MOL0     C38240   3.892   5.623   0.741  0.1391  0.5608  0.2537
  278MOL0     C38241   3.936   5.750   0.661  0.4924 -0.0191 -0.0581
  278MOL0     C38242   4.086   5.771   0.651 -0.0429 -0.5167  0.0177
  278MOL0     N38243   4.119   5.891   0.578  0.3182  0.1551 -0.2253
  278MOL0     C38244   4.085   6.017   0.606 -0.2803 -0.5864  0.4046
  278MOL0     C38245   4.129   6.098   0.504 -0.2059 -0.8707  0.1480
  278MOL0     C38246   4.122   6.249   0.494  0.4629  0.1778  0.0903
  278MOL0     C38247   4.246   6.307   0.564 -0.2949  0.6055 -0.1930
  278MOL0     C38248   4.248   6.454   0.574  0.0720 -0.8598 -0.3306
  278MOL0     C38249   4.369   6.521   0.653  0.5253  0.2723 -0.0422
  278MOL0     O38250   4.485   6.546   0.574  0.3475  0.2588  0.6858
  278MOL0     C38251   4.572   6.648   0.616  0.3566 -0.0379  0.7144
  278MOL0     C38252   4.571   6.718   0.739  0.2329 -0.3123  0.2369
  278MOL0     C38253   4.667   6.819   0.761 -0.0139  0.7977 -0.2038
  278MOL0     C38254   4.663   6.890   0.895  0.7562  0.4568  0.6639
  278MOL0     C38255   4.755   6.854   0.659 -0.6244 -0.5008 -1.1495
  278MOL0     C38256   4.864   6.955   0.678  0.0143  0.1550  0.5786
  278MOL0     O38257   4.859   7.039   0.570 -0.3597 -0.6907  0.0873
  278MOL0     C38258   4.949   7.143   0.568 -0.7743  0.0757 -0.0917
  278MOL0     C38259   4.937   7.269   0.630  0.3776  1.0125 -0.3479
  278MOL0     C38260   5.037   7.369   0.620 -0.2961  1.0330  0.1091
  278MOL0     C38261   5.155   7.335   0.543  0.4349  0.2736 -0.5995
  278MOL0     O38262   5.260   7.417   0.525  0.2529  0.0444  0.8262
  278MOL0     C38263   5.298   7.513   0.622  0.3033 -0.8878  0.0255
  278MOL0     C38264   5.441   7.558   0.577  0.3540 -1.0129  0.1101
  278MOL0     C38265   5.528   7.430   0.568  0.4357 -0.7398 -0.2422
  278MOL0     C38266   5.512   7.329   0.693 -0.5667  0.1159  0.0193
  278MOL0     C38267   5.597   7.203   0.669 -0.1763  0.4636  0.2486
  278MOL0     C38268   5.754   7.213   0.646  0.3229 -0.0933 -1.5141
  278MOL0     C38269   5.815   7.284   0.770  0.4638  0.3494  0.6892
  278MOL0     C38270   5.960   7.295   0.766 -0.4090 -0.9328  0.1104
  278MOL0    Cl38271   5.992   7.432   0.652 -0.3126  0.2096 -0.0202
  278MOL0     C38272   5.163   7.215   0.473 -0.0025 -0.1686  0.1329
  278MOL0     C38273   5.061   7.131   0.485 -0.3098  0.6157 -0.9400
  278MOL0     O38274   4.949   6.952   0.765  0.0907 -0.3619 -0.0748
  278MOL0     C38275   4.755   6.784   0.544  0.2329  1.4421  0.6884
  278MOL0     C38276   4.667   6.680   0.527 -0.6039  0.3844 -0.2298
  278MOL0     N38277   4.177   6.016   0.408 -0.6930 -0.4817 -0.0600
  278MOL0     N38278   4.162   5.897   0.451 -0.1620 -1.0321  0.2140
  278MOL0     C38279   3.067   5.439   0.740 -0.1016  0.5637  0.7651
  278MOL0     C38280   2.933   5.402   0.729  0.6236  0.1479 -0.2200
  278MOL0     C38281   2.485   5.284   0.779 -0.3329 -0.3428  0.1016
  278MOL0     C38282   2.402   5.393   0.801 -0.5744 -0.2202  1.2098
  278MOL0     C38283   2.267   5.390   0.807 -0.6394 -0.2419  0.7909
  278MOL0     C38284   2.193   5.270   0.799 -0.1227 -0.5570 -1.0085
  278MOL0     O38285   2.063   5.275   0.825  0.0600 -0.9339  0.7398
  278MOL0     C38286   2.008   5.189   0.931  0.2628  0.7538 -0.0412
  278MOL0     C38287   1.863   5.214   0.965 -0.5005  0.1851 -0.3879
  278MOL0     C38288   1.838   5.353   0.979 -0.2176  0.7425  0.0522
  278MOL0     C38289   1.716   5.383   1.067 -0.4371  0.3905  1.0121
  278MOL0     C38290   1.728   5.334   1.206 -0.3652 -0.5496  0.2372
  278MOL0     C38291   1.731   5.302   1.325  0.0660  0.1155  0.4358
  278MOL0     C38292   2.271   5.156   0.771 -0.2425  0.0110  1.8992
  278MOL0     C38293   2.414   5.165   0.772 -0.1499  0.2810  0.5644
  278MOL0     C38294   2.480   5.031   0.755  0.3597  0.3997 -0.4840
  278MOL0     H38295   2.804   5.549   0.994 -2.4151 -1.0857 -1.3139
  278MOL0     H38296   3.052   5.613   1.027  1.4803  1.1773 -0.8116
  278MOL0     H38297   3.277   5.611   1.037 -3.3712  2.0306  1.2180
  278MOL0     H38298   3.200   5.724   0.929 -1.0134 -1.3522 -1.9141
  278MOL0     H38299   3.395   5.789   0.812 -1.9151  0.2369  0.5008
  278MOL0     H38300   3.466   5.778   0.975  2.7580  1.1393 -2.3341
  278MOL0     H38301   3.534   5.527   0.901  3.8822 -0.4189 -1.7093
  278MOL0     H38302   3.485   5.590   0.742 -1.6991  1.5314  0.5116
  278MOL0     H38303   3.645   5.783   0.804 -1.4755  0.3342 -1.5250
  278MOL0     H38304   3.729   5.674   0.918  2.6332  2.6828 -1.4821
  278MOL0     H38305   3.713   5.632   0.620  0.2902 -0.0210 -0.4924
  278MOL0     H38306   3.727   5.494   0.740 -0.5111  0.3159  2.4111
  278MOL0     H38307   3.923   5.634   0.845  1.6785  1.5405 -0.2739
  278MOL0     H38308   3.940   5.529   0.712 -1.5921 -1.7736  4.0841
  278MOL0     H38309   3.891   5.836   0.713  0.5847 -0.0129  0.0112
  278MOL0     H38310   3.889   5.742   0.562  1.2330 -1.2524 -0.3346
  278MOL0     H38311   4.119   5.787   0.754  1.8802  2.8986 -0.9684
  278MOL0     H38312   4.145   5.691   0.606 -0.6035 -0.9643  0.0749
  278MOL0     H38313   4.036   6.060   0.693 -2.2467 -0.7186 -0.5811
  278MOL0     H38314   4.033   6.283   0.548  0.6379  0.8879 -0.0621
  278MOL0     H38315   4.108   6.286   0.392 -1.5022 -1.7117 -0.3980
  278MOL0     H38316   4.254   6.266   0.666  1.1663  2.2832  0.4202
  278MOL0     H38317   4.334   6.282   0.504  0.2931  0.4824  0.6881
  278MOL0     H38318   4.244   6.500   0.475  1.5644  1.6024  0.6460
  278MOL0     H38319   4.147   6.479   0.609  0.0148  0.1536 -1.1759
  278MOL0     H38320   4.329   6.613   0.697 -0.5393 -0.0166 -0.3849
  278MOL0     H38321   4.396   6.458   0.738 -0.8216 -2.0567 -1.2384
  278MOL0     H38322   4.497   6.695   0.815 -0.9991 -2.9935 -1.6041
  278MOL0     H38323   4.632   6.822   0.974 -1.0021  0.2751 -0.1267
  278MOL0     H38324   4.581   6.963   0.892  0.0321 -0.3455  0.5338
  278MOL0     H38325   4.762   6.934   0.909  0.9180  0.1684  0.4268
  278MOL0     H38326   4.856   7.291   0.699  1.7742 -0.5373  1.9245
  278MOL0     H38327   5.033   7.473   0.651 -1.0064  1.1606 -0.3865
  278MOL0     H38328   5.232   7.599   0.607  0.8897 -0.7636 -2.1695
  278MOL0     H38329   5.298   7.477   0.725  0.9432 -1.2734 -0.1072
  278MOL0     H38330   5.440   7.604   0.478  0.0522  1.1753  1.0809
  278MOL0     H38331   5.479   7.631   0.650 -2.0321 -0.6337  1.0592
  278MOL0     H38332   5.632   7.462   0.578 -0.0393  0.1562  2.8622
  278MOL0     H38333   5.512   7.389   0.468  2.4717  4.8183 -3.2916
  278MOL0     H38334   5.408   7.295   0.696 -0.9338  1.1797 -0.2545
  278MOL0     H38335   5.542   7.374   0.788  1.2253 -0.1548 -0.3830
  278MOL0     H38336   5.574   7.138   0.754 -2.6107  0.8009 -0.0613
  278MOL0     H38337   5.553   7.148   0.585  1.2045 -1.8540  0.9430
  278MOL0     H38338   5.770   7.270   0.554  1.2451  1.1899 -0.6068
  278MOL0     H38339   5.790   7.110   0.643  2.3469  0.5100 -0.0937
  278MOL0     H38340   5.784   7.222   0.855 -0.3834 -0.7976 -0.4229
  278MOL0     H38341   5.769   7.382   0.774  1.2556  0.7328  0.6362
  278MOL0     H38342   6.013   7.202   0.742 -1.5857 -1.2334 -1.4491
  278MOL0     H38343   5.997   7.320   0.866 -0.1929 -1.1371  0.0837
  278MOL0     H38344   5.253   7.191   0.419 -0.3142 -1.4268  0.1442
  278MOL0     H38345   5.078   7.029   0.450  2.7729  0.5653  0.4153
  278MOL0     H38346   4.835   6.790   0.471  1.5093 -1.4307  1.7038
  278MOL0     H38347   4.661   6.615   0.440 -0.2266 -1.7187  1.2268
  278MOL0     H38348   3.141   5.384   0.683 -0.0382  0.1142  1.2701
  278MOL0     H38349   2.907   5.331   0.651  0.5787 -2.0482  1.6679
  278MOL0     H38350   2.455   5.488   0.801 -0.0151 -0.5295  1.6102
  278MOL0     H38351   2.218   5.486   0.818 -0.7686 -0.0749 -1.0726
  278MOL0     H38352   2.010   5.088   0.889 -1.0828 -0.5730  2.8348
  278MOL0     H38353   2.080   5.186   1.014  1.9496  0.7816 -1.4363
  278MOL0     H38354   1.824   5.161   1.052 -3.8703  0.5253 -1.5565
  278MOL0     H38355   1.799   5.165   0.891 -0.3230 -3.2045  1.4847
  278MOL0     H38356   1.924   5.407   1.018 -0.2406  1.1823 -0.4959
  278MOL0     H38357   1.827   5.381   0.874  3.3360  1.8295 -0.1281
  278MOL0     H38358   1.630   5.336   1.018  1.8228 -1.3252 -1.6260
  278MOL0     H38359   1.694   5.490   1.071  1.0009  0.7708 -0.0062
  278MOL0     H38360   1.726   5.273   1.428  1.3651 -1.7983 -0.0014
  278MOL0     H38361   2.214   5.066   0.749 -0.3257  0.7296 -1.4199
  278MOL0     H38362   2.513   4.998   0.854  0.4405  1.7490 -0.0466
  278MOL0     H38363   2.407   4.956   0.723  0.6612 -0.5126  0.8403
  278MOL0     H38364   2.565   5.025   0.686 -0.4774 -2.2270 -1.4279
  279MOL0     O38365   6.018   0.518   1.033 -0.2633 -0.4637 -0.0799
  279MOL0     C38366   5.903   0.544   1.081 -0.7660  0.5621  0.5146
  279MOL0     O38367   5.881   0.581   1.215 -0.4585  0.1592 -0.2517
  279MOL0     C38368   5.987   0.607   1.306  0.0077  0.2001 -0.2760
  279MOL0     C38369   6.120   0.657   1.278  0.8604  0.1309  0.1805
  279MOL0     C38370   6.204   0.692   1.375 -0.0004  0.2350  0.1138
  279MOL0     C38371   6.164   0.669   1.503 -0.4483 -0.0498 -0.7059
  279MOL0     O38372   6.255   0.669   1.609  0.0044 -0.4345  0.2226
  279MOL0     C38373   6.386   0.729   1.592  0.5615 -0.1583  0.2107
  279MOL0     C38374   6.474   0.684   1.700  0.2261 -0.3828 -1.1618
  279MOL0     C38375   6.620   0.737   1.674  0.8621  0.1917  0.2691
  279MOL0     C38376   6.704   0.722   1.804 -0.1749  0.6566  0.0975
  279MOL0     C38377   6.846   0.771   1.801 -0.5500  0.6559 -0.3844
  279MOL0     C38378   6.915   0.779   1.937 -0.1246 -0.1252  0.2091
  279MOL0     C38379   7.059   0.810   1.918  0.6069  0.1975  0.0390
  279MOL0     C38380   7.123   0.784   2.053 -0.2536 -1.0802 -0.7246
  279MOL0     N38381   7.262   0.850   2.046 -0.4879  0.5989  0.0216
  279MOL0     C38382   7.291   0.977   2.087 -0.5845 -0.1672  0.2302
  279MOL0     C38383   7.425   0.991   2.079 -0.2535  0.3330  0.5173
  279MOL0     C38384   7.500   1.123   2.078 -0.6279  0.1083 -0.5037
  279MOL0     C38385   7.417   1.244   2.121  0.4009  0.6942  0.7524
  279MOL0     C38386   7.499   1.375   2.100  0.9024 -0.4231 -0.6188
  279MOL0     C38387   7.525   1.407   1.955 -0.0713  0.3780 -0.3148
  279MOL0     O38388   7.604   1.527   1.957  0.3345 -0.1724 -0.1452
  279MOL0     C38389   7.650   1.581   1.841  0.5444  0.7342  0.0819
  279MOL0     C38390   7.747   1.675   1.840  0.1988  0.1992 -0.5770
  279MOL0     C38391   7.790   1.739   1.720 -0.1388 -0.4135  0.0784
  279MOL0     C38392   7.925   1.812   1.719 -0.0133 -0.0791  0.2748
  279MOL0     C38393   7.725   1.705   1.598 -0.2793  0.5129  0.3070
  279MOL0     C38394   7.762   1.757   1.467 -0.4436  0.6584  0.5402
  279MOL0     O38395   7.770   1.655   1.375 -0.1121 -0.9789 -0.1234
  279MOL0     C38396   7.775   1.695   1.244 -0.3456 -0.3433 -0.8803
  279MOL0     C38397   7.866   1.623   1.163 -0.5667  0.1108 -0.3518
  279MOL0     C38398   7.873   1.658   1.025  0.2971 -0.2471 -0.2373
  279MOL0     C38399   7.790   1.750   0.969 -1.1678 -0.1958 -0.0324
  279MOL0     O38400   7.818   1.781   0.840  0.9496  0.5543 -0.4567
  279MOL0     C38401   7.742   1.872   0.756 -0.0717 -1.1340  0.2206
  279MOL0     C38402   7.598   1.829   0.719  0.7473  0.8441 -0.2847
  279MOL0     C38403   7.517   1.959   0.695 -0.5312  0.2478 -0.2987
  279MOL0     C38404   7.375   1.913   0.642 -0.3613  0.7351  0.0476
  279MOL0     C38405   7.297   2.036   0.602 -0.3068 -0.1375 -0.2997
  279MOL0     C38406   7.169   1.999   0.530 -0.0041 -0.6531 -0.8938
  279MOL0     C38407   7.105   2.121   0.457 -0.8009 -1.2033 -0.4665
  279MOL0     C38408   6.963   2.099   0.406  0.2483 -0.1072 -0.4189
  279MOL0    Cl38409   6.953   2.244   0.289  0.1709  0.2205 -0.2804
  279MOL0     C38410   7.686   1.819   1.045  0.0092  0.8027 -0.4646
  279MOL0     C38411   7.686   1.793   1.185 -0.5115  0.1413  0.8475
  279MOL0     O38412   7.773   1.876   1.445  0.3394  0.3704 -0.3701
  279MOL0     C38413   7.613   1.619   1.603 -0.0797 -0.2414 -0.1093
  279MOL0     C38414   7.585   1.553   1.713  0.3742 -0.0512  0.1665
  279MOL0     N38415   7.482   0.865   2.064  1.0388 -0.2015  0.0932
  279MOL0     N38416   7.382   0.779   2.041  0.2314 -0.1795  0.8127
  279MOL0     C38417   6.034   0.623   1.530  0.2220  0.9742 -0.4728
  279MOL0     C38418   5.949   0.588   1.430  0.0116  0.6910  0.2708
  279MOL0     C38419   5.785   0.542   0.995  0.5927  0.9172  0.1439
  279MOL0     C38420   5.654   0.526   1.056 -0.4399  0.0788 -0.1081
  279MOL0     C38421   5.538   0.526   0.981 -0.6048 -0.6090 -0.9144
  279MOL0     C38422   5.552   0.534   0.841  0.0620 -0.4862 -0.2927
  279MOL0     O38423   5.430   0.531   0.774 -0.4884  0.1772 -1.0467
  279MOL0     C38424   5.403   0.648   0.699  0.3888 -0.4599 -0.9544
  279MOL0     C38425   5.422   0.635   0.545 -0.5495  0.3584  0.3769
  279MOL0     C38426   5.327   0.530   0.494 -0.0328 -0.7529 -0.2441
  279MOL0     C38427   5.330   0.497   0.344 -0.6309 -0.3512  0.7524
  279MOL0     C38428   5.464   0.458   0.299 -1.0581 -0.6317  1.2303
  279MOL0     C38429   5.570   0.410   0.274 -0.8264  0.1315 -0.4548
  279MOL0     C38430   5.676   0.537   0.778  0.7398  0.0108  0.5191
  279MOL0     C38431   5.790   0.536   0.854 -0.5853  0.5690  0.1680
  279MOL0     C38432   5.923   0.534   0.780  0.1227 -0.0636 -0.2557
  279MOL0     H38433   6.147   0.685   1.177  0.0326 -0.6554 -0.2826
  279MOL0     H38434   6.305   0.716   1.344  0.5861 -2.2103 -0.0747
  279MOL0     H38435   6.382   0.839   1.596  2.9752  0.0678 -1.3692
  279MOL0     H38436   6.444   0.696   1.506  0.0801 -1.6024  0.4171
  279MOL0     H38437   6.426   0.711   1.795 -0.2510 -4.3480 -0.1117
  279MOL0     H38438   6.486   0.576   1.703 -0.0454 -0.4218 -1.3728
  279MOL0     H38439   6.667   0.683   1.591 -1.2869  0.1574 -0.9960
  279MOL0     H38440   6.613   0.842   1.645 -0.8643 -0.2041 -0.8733
  279MOL0     H38441   6.643   0.771   1.880 -0.3580  1.4786 -0.5606
  279MOL0     H38442   6.719   0.616   1.824 -1.2630  0.3057 -0.8450
  279MOL0     H38443   6.866   0.861   1.742  1.1461 -0.3643 -1.4682
  279MOL0     H38444   6.896   0.689   1.749 -2.0270  0.6236 -1.8251
  279MOL0     H38445   6.861   0.857   1.992  1.1618  0.3425  0.8283
  279MOL0     H38446   6.917   0.687   1.996  1.9273  1.0951  2.1726
  279MOL0     H38447   7.072   0.911   1.878 -2.5661 -0.6609 -3.7738
  279MOL0     H38448   7.105   0.743   1.844 -2.6059 -1.1207 -0.9389
  279MOL0     H38449   7.065   0.829   2.133  0.2811  1.6502 -1.7666
  279MOL0     H38450   7.141   0.679   2.079 -0.6876 -0.5572  1.9652
  279MOL0     H38451   7.223   1.061   2.097  0.7641  0.9154  0.5630
  279MOL0     H38452   7.533   1.139   1.975 -2.7461 -1.4432 -1.5035
  279MOL0     H38453   7.591   1.125   2.139 -0.9382  0.7633 -0.0483
  279MOL0     H38454   7.315   1.253   2.082  0.1718 -2.7054  0.2158
  279MOL0     H38455   7.405   1.249   2.229  0.2454  1.1618  0.7160
  279MOL0     H38456   7.452   1.451   2.163  0.5821 -0.5843 -0.6609
  279MOL0     H38457   7.596   1.360   2.148 -0.1177  3.0844  3.1343
  279MOL0     H38458   7.576   1.322   1.908 -3.8285 -2.7085  0.6614
  279MOL0     H38459   7.426   1.414   1.909  0.5661 -3.6765 -2.8555
  279MOL0     H38460   7.795   1.688   1.936  0.3769 -0.4641 -0.5763
  279MOL0     H38461   8.002   1.751   1.671 -0.5001  0.1924 -0.8875
  279MOL0     H38462   7.952   1.838   1.821 -1.2865 -0.8296  0.8208
  279MOL0     H38463   7.914   1.906   1.663 -2.1416 -1.1519 -1.2376
  279MOL0     H38464   7.945   1.560   1.204 -0.3215 -1.1187 -2.5671
  279MOL0     H38465   7.952   1.617   0.963 -1.0456 -0.7074 -1.6880
  279MOL0     H38466   7.734   1.965   0.814  0.4764 -2.0306  1.8167
  279MOL0     H38467   7.801   1.898   0.668 -0.1005  1.5278  0.9028
  279MOL0     H38468   7.601   1.770   0.626 -0.5050  2.0257 -1.1233
  279MOL0     H38469   7.538   1.780   0.796  1.5257 -0.4389 -0.4666
  279MOL0     H38470   7.573   2.020   0.624  2.3367  0.9785  2.3614
  279MOL0     H38471   7.502   2.020   0.785  0.0366 -0.9317  0.6216
  279MOL0     H38472   7.321   1.846   0.709 -1.3014 -0.4739 -1.8276
  279MOL0     H38473   7.377   1.852   0.551 -0.2884  0.5130  0.1978
  279MOL0     H38474   7.265   2.094   0.690 -3.5172  0.3783 -1.6486
  279MOL0     H38475   7.358   2.100   0.537 -1.0948 -0.5803 -1.4995
  279MOL0     H38476   7.102   1.964   0.609  1.0608  1.0235  0.8210
  279MOL0     H38477   7.190   1.912   0.467  1.7960  0.3319 -1.7476
  279MOL0     H38478   7.164   2.136   0.366  1.2986 -0.8797  0.9027
  279MOL0     H38479   7.104   2.210   0.520  0.6149 -2.1406  0.9582
  279MOL0     H38480   6.887   2.111   0.484  0.6604  0.7068 -0.1294
  279MOL0     H38481   6.954   2.000   0.362 -1.9558 -0.2586  0.2323
  279MOL0     H38482   7.609   1.885   1.006 -0.8544  0.2831  0.3288
  279MOL0     H38483   7.613   1.844   1.247 -0.3792 -1.4522  2.4056
  279MOL0     H38484   7.556   1.603   1.512 -2.1694  1.1207  0.8783
  279MOL0     H38485   7.495   1.494   1.708 -0.4674  1.2308 -0.1727
  279MOL0     H38486   6.009   0.590   1.631  2.6834  2.0407  0.5781
  279MOL0     H38487   5.850   0.545   1.439  1.3844 -2.5899  1.0874
  279MOL0     H38488   5.649   0.511   1.163 -3.6103 -0.8516 -0.2851
  279MOL0     H38489   5.449   0.511   1.042  0.5420 -2.1724  0.4598
  279MOL0     H38490   5.302   0.683   0.722  1.3347  0.9343  1.4507
  279MOL0     H38491   5.464   0.734   0.729 -1.6150  1.9276 -3.1826
  279MOL0     H38492   5.523   0.605   0.514  0.1532  4.2173 -1.7202
  279MOL0     H38493   5.400   0.733   0.501 -1.6009  0.4710  1.1351
  279MOL0     H38494   5.346   0.434   0.543  1.1225 -0.4851 -0.1264
  279MOL0     H38495   5.238   0.583   0.530  2.2312  3.4259 -0.2121
  279MOL0     H38496   5.304   0.587   0.287  1.4513  0.3577  0.8253
  279MOL0     H38497   5.266   0.412   0.320  1.0638 -0.7278 -3.0481
  279MOL0     H38498   5.666   0.364   0.265 -1.5906 -1.4585 -0.8816
  279MOL0     H38499   5.681   0.540   0.670 -0.9675  2.4452  0.4243
  279MOL0     H38500   5.988   0.615   0.814 -1.9056  1.3374  0.4672
  279MOL0     H38501   5.980   0.442   0.796 -0.4662 -0.8192 -2.1226
  279MOL0     H38502   5.895   0.535   0.674 -2.8389 -1.9833  0.3919
  280MOL0     O38503   0.699   2.467   9.198 -1.2676 -0.2183 -0.3523
  280MOL0     C38504   0.607   2.491   9.121 -0.3027 -0.9496 -0.5904
  280MOL0     O38505   0.474   2.498   9.162 -0.0383 -0.1358  0.3130
  280MOL0     C38506   0.419   2.494   9.286  0.5828 -0.6402 -1.0071
  280MOL0     C38507   0.489   2.484   9.408  0.0431 -0.4041 -0.1966
  280MOL0     C38508   0.425   2.494   9.528  0.2634 -0.5293 -0.4273
  280MOL0     C38509   0.279   2.516   9.534 -0.0181  0.8682 -0.3995
  280MOL0     O38510   0.210   2.525   9.658  0.4796 -0.1229  0.5812
  280MOL0     C38511   0.286   2.604   9.757  0.2892 -0.9385  0.7192
  280MOL0     C38512   0.197   2.645   9.879 -0.4792 -0.1269  0.0277
  280MOL0     C38513   0.201   2.523   9.988 -0.6125  0.1066  0.2325
  280MOL0     C38514   0.082   2.544  10.078 -0.1708 -0.0935  0.4338
  280MOL0     C38515   0.071   2.683  10.157  0.0187  0.1129 -0.4264
  280MOL0     C38516   0.193   2.689  10.253  0.1541  0.2672  0.4075
  280MOL0     C38517   0.179   2.758  10.388 -0.5277 -0.4150 -0.0502
  280MOL0     C38518   0.208   2.906  10.378 -0.2374  0.1444 -0.1851
  280MOL0     N38519   0.344   2.942  10.353 -0.1443 -0.0060 -0.0600
  280MOL0     C38520   0.452   2.928  10.441  0.0977  0.0649 -0.3746
  280MOL0     C38521   0.552   2.983  10.372 -0.6826 -0.3722  0.2091
  280MOL0     C38522   0.687   2.999  10.432  0.9129  1.0448  0.0027
  280MOL0     C38523   0.792   2.987  10.322  0.3877 -0.2236 -0.5769
  280MOL0     C38524   0.940   3.001  10.362 -0.4775 -0.6284  0.4622
  280MOL0     C38525   1.028   2.978  10.239 -1.2975 -0.2026  1.0909
  280MOL0     O38526   1.007   3.091  10.146  0.7097 -0.4155  0.1992
  280MOL0     C38527   1.076   3.099  10.030  0.3876 -0.0370  0.4911
  280MOL0     C38528   1.181   3.015   9.986 -0.4303 -0.0077  0.4954
  280MOL0     C38529   1.249   3.041   9.862  0.2506 -0.8087  0.0162
  280MOL0     C38530   1.350   2.939   9.822  0.8594 -0.1273 -0.3261
  280MOL0     C38531   1.216   3.156   9.786 -1.0764  0.9574  0.6406
  280MOL0     C38532   1.294   3.209   9.676  0.1655  0.4554 -0.6451
  280MOL0     O38533   1.247   3.322   9.625 -0.4788 -0.2596  0.1070
  280MOL0     C38534   1.321   3.403   9.534  0.1885 -0.5534  0.0599
  280MOL0     C38535   1.321   3.535   9.565 -0.4401  0.8756 -0.2790
  280MOL0     C38536   1.396   3.629   9.481  0.5096  0.2907  0.5276
  280MOL0     C38537   1.462   3.583   9.364  0.1821 -0.2145 -0.2998
  280MOL0     O38538   1.512   3.682   9.274 -1.0949 -0.8215  0.6327
  280MOL0     C38539   1.649   3.653   9.219 -0.0533 -0.2161  0.3388
  280MOL0     C38540   1.744   3.776   9.210  0.4853  0.2731  0.0941
  280MOL0     C38541   1.688   3.862   9.098  0.2966 -0.1512 -0.3609
  280MOL0     C38542   1.769   3.987   9.090  0.6352  0.1086 -0.3330
  280MOL0     C38543   1.878   3.971   9.000 -0.3982 -0.5075  0.5425
  280MOL0     C38544   1.963   4.097   8.963  0.5936  0.4101 -0.1362
  280MOL0     C38545   2.001   4.174   9.092  0.2972 -0.1796  0.3659
  280MOL0     C38546   2.112   4.277   9.067 -0.0735 -0.2979 -0.1330
  280MOL0    Cl38547   2.068   4.444   9.014 -0.1959 -0.6719  0.0201
  280MOL0     C38548   1.455   3.444   9.335  0.2719  0.4010  0.3911
  280MOL0     C38549   1.393   3.355   9.421  0.4780  0.8935 -0.0558
  280MOL0     O38550   1.405   3.159   9.650  0.5558 -0.8404 -0.5740
  280MOL0     C38551   1.111   3.234   9.833 -0.0726 -0.0842 -0.0717
  280MOL0     C38552   1.050   3.207   9.953  0.4879  0.0433 -0.4579
  280MOL0     N38553   0.509   3.021  10.245 -0.8017  0.2333 -1.1497
  280MOL0     N38554   0.387   2.988  10.236  0.0794  0.1055  0.9155
  280MOL0     C38555   0.216   2.515   9.415  0.1765  0.1519 -0.0238
  280MOL0     C38556   0.281   2.515   9.288  0.3299 -0.4141 -0.6219
  280MOL0     C38557   0.639   2.495   8.972  0.2984 -0.4436 -0.7871
  280MOL0     C38558   0.778   2.507   8.941  0.3685  0.0514  1.0860
  280MOL0     C38559   0.816   2.516   8.806 -0.3500  0.1065 -0.2794
  280MOL0     C38560   0.720   2.539   8.710 -0.3645 -0.3147  0.0992
  280MOL0     O38561   0.747   2.578   8.577  0.5725  0.5496 -0.5295
  280MOL0     C38562   0.881   2.565   8.532 -0.5911 -0.3748 -0.1608
  280MOL0     C38563   0.884   2.602   8.386  0.4741  0.1956 -0.9631
  280MOL0     C38564   1.026   2.574   8.330 -0.3536 -0.2627 -0.1240
  280MOL0     C38565   1.123   2.700   8.347  0.5618 -0.4131  0.2976
  280MOL0     C38566   1.255   2.679   8.286 -0.3306 -1.2051  0.2816
  280MOL0     C38567   1.357   2.652   8.230  0.2506  1.5744  0.2293
  280MOL0     C38568   0.584   2.528   8.741 -0.2006 -0.2279  0.4933
  280MOL0     C38569   0.541   2.516   8.872 -0.2547 -0.3394 -0.4387
  280MOL0     C38570   0.391   2.517   8.892  0.1070  0.0324  0.4287
  280MOL0     H38571   0.597   2.470   9.413  0.2273  0.8538 -0.3669
  280MOL0     H38572   0.489   2.488   9.616 -1.9832 -0.6200  1.2733
  280MOL0     H38573   0.326   2.688   9.699 -2.0012 -1.5812 -1.9976
  280MOL0     H38574   0.374   2.555   9.801  0.0731  0.6382  3.1152
  280MOL0     H38575   0.217   2.739   9.931 -3.9359 -0.1879  1.7827
  280MOL0     H38576   0.091   2.654   9.853 -0.2052 -1.7182 -1.9567
  280MOL0     H38577   0.191   2.428   9.935  1.0363  0.8635 -1.5611
  280MOL0     H38578   0.299   2.522  10.036 -0.0209 -2.8813 -0.8395
  280MOL0     H38579  -0.007   2.527  10.017 -0.0408 -2.0536  0.7009
  280MOL0     H38580   0.079   2.459  10.147  1.5520 -1.0609 -0.6057
  280MOL0     H38581  -0.022   2.665  10.213  0.4654 -1.1659 -0.0575
  280MOL0     H38582   0.050   2.775  10.102 -1.9103 -0.2642 -0.4170
  280MOL0     H38583   0.214   2.587  10.288 -1.0293 -0.5588 -1.1553
  280MOL0     H38584   0.275   2.720  10.188 -2.4069  1.5811 -2.4285
  280MOL0     H38585   0.257   2.727  10.458 -0.4256  0.2345  0.1341
  280MOL0     H38586   0.081   2.730  10.426 -1.4475 -0.0186 -1.9798
  280MOL0     H38587   0.142   2.952  10.303 -0.9870  0.1042  0.4305
  280MOL0     H38588   0.175   2.952  10.471  1.8590  1.7046 -0.1422
  280MOL0     H38589   0.453   2.891  10.543 -3.9394 -1.6328 -0.7391
  280MOL0     H38590   0.702   2.923  10.509  2.4779 -1.4611 -2.5732
  280MOL0     H38591   0.694   3.098  10.477 -2.0490 -0.4423  4.3560
  280MOL0     H38592   0.764   2.900  10.262 -0.5547 -0.0926 -0.3428
  280MOL0     H38593   0.775   3.072  10.256  0.1729  0.2127  0.0398
  280MOL0     H38594   0.946   3.107  10.390 -2.4378 -0.5441  0.6649
  280MOL0     H38595   0.968   2.942  10.450 -0.1402  2.8362  2.8765
  280MOL0     H38596   1.134   2.975  10.266 -0.3153 -4.2061 -2.2285
  280MOL0     H38597   1.017   2.884  10.185  0.0063  1.0140 -1.4587
  280MOL0     H38598   1.217   2.942  10.058  0.0064  0.7621  1.0758
  280MOL0     H38599   1.341   2.924   9.714 -1.9882  1.5661 -0.4176
  280MOL0     H38600   1.313   2.847   9.870  0.4122  0.0731 -0.2885
  280MOL0     H38601   1.442   2.966   9.875 -1.1971  0.4660  3.2727
  280MOL0     H38602   1.277   3.558   9.661 -2.3864  1.2986 -1.2224
  280MOL0     H38603   1.390   3.735   9.504 -1.5865  1.2157 -3.4182
  280MOL0     H38604   1.697   3.580   9.285 -1.9313 -0.3048  1.7040
  280MOL0     H38605   1.632   3.611   9.120  0.3567  0.6334 -0.1039
  280MOL0     H38606   1.726   3.826   9.306 -0.7118 -0.0936  0.0710
  280MOL0     H38607   1.852   3.759   9.197  0.2347 -1.6766  0.3043
  280MOL0     H38608   1.585   3.886   9.127  0.6864  1.1865 -0.0174
  280MOL0     H38609   1.687   3.809   9.003 -0.5925  0.5911 -0.7844
  280MOL0     H38610   1.801   4.007   9.192  0.1663 -1.1266  0.0836
  280MOL0     H38611   1.703   4.060   9.043  1.0836  0.0467 -1.0783
  280MOL0     H38612   1.943   3.889   9.032 -0.8482 -0.9407  0.3661
  280MOL0     H38613   1.838   3.936   8.904 -0.9144  0.5701  0.3460
  280MOL0     H38614   1.910   4.162   8.893  0.2096  1.2637  0.9039
  280MOL0     H38615   2.051   4.050   8.920  1.2778  0.5997  1.0201
  280MOL0     H38616   2.048   4.091   9.147  0.0826 -0.7801 -0.3394
  280MOL0     H38617   1.918   4.210   9.153 -1.6077 -0.9121 -1.6367
  280MOL0     H38618   2.179   4.231   8.994 -0.0093 -3.0542  1.4930
  280MOL0     H38619   2.167   4.294   9.161 -2.6076  3.7742  0.8679
  280MOL0     H38620   1.499   3.405   9.244 -0.7156 -0.3158  0.1990
  280MOL0     H38621   1.405   3.247   9.415  3.6489  0.7613  4.0985
  280MOL0     H38622   1.079   3.327   9.786 -1.0875  0.0444  0.8423
  280MOL0     H38623   0.978   3.271  10.002  0.1830 -1.4600  1.1795
  280MOL0     H38624   0.111   2.539   9.420  0.5099  1.4895  1.3530
  280MOL0     H38625   0.211   2.504   9.205 -1.2096  2.1005  0.2573
  280MOL0     H38626   0.868   2.511   9.002  1.9699  0.3015 -1.1727
  280MOL0     H38627   0.918   2.528   8.770 -0.6279 -2.1081 -2.0719
  280MOL0     H38628   0.939   2.640   8.587 -0.3365  0.9441 -2.1624
  280MOL0     H38629   0.915   2.462   8.549  1.2414  0.3477  0.8582
  280MOL0     H38630   0.855   2.707   8.375  0.0331  0.1737 -0.1078
  280MOL0     H38631   0.811   2.547   8.325 -1.0386  0.3288  0.6335
  280MOL0     H38632   1.058   2.476   8.367 -3.3541 -1.7242 -1.0326
  280MOL0     H38633   1.007   2.556   8.224  1.3836  0.3552 -0.5586
  280MOL0     H38634   1.132   2.717   8.454 -0.7444  0.7175  0.2535
  280MOL0     H38635   1.080   2.788   8.299  0.4419 -0.6090  0.0378
  280MOL0     H38636   1.443   2.612   8.179 -0.8178  1.3921 -1.4873
  280MOL0     H38637   0.507   2.553   8.668  0.4961 -0.3404 -0.2962
  280MOL0     H38638   0.362   2.584   8.974  1.8689 -0.0659  1.1585
  280MOL0     H38639   0.337   2.550   8.802 -0.5631 -0.0891  0.7756
  280MOL0     H38640   0.346   2.423   8.925  0.2863 -0.3356 -0.3517
  281MOL0     O38641   4.743   9.062   2.465 -0.9070  0.1767  0.1408
  281MOL0     C38642   4.764   9.184   2.453  0.3247  0.1581 -0.1857
  281MOL0     O38643   4.679   9.279   2.498  0.2469 -0.1644  0.5169
  281MOL0     C38644   4.558   9.239   2.537  1.1682 -0.6679 -0.1386
  281MOL0     C38645   4.478   9.148   2.459 -0.2044 -0.7552  0.7472
  281MOL0     C38646   4.360   9.108   2.501  0.3389 -0.5109 -0.9014
  281MOL0     C38647   4.318   9.132   2.629  0.1613 -0.3039  0.4050
  281MOL0     O38648   4.195   9.080   2.654  0.7576  0.6056  0.7800
  281MOL0     C38649   4.136   9.084   2.785  0.6645 -0.4932 -0.3720
  281MOL0     C38650   3.988   9.053   2.776  0.0334  0.0795 -0.2923
  281MOL0     C38651   3.981   8.903   2.738  1.5184  0.1132 -0.2836
  281MOL0     C38652   3.976   8.827   2.877  0.1587  0.5482 -0.9531
  281MOL0     C38653   3.948   8.678   2.855 -0.2493 -0.0536 -0.3707
  281MOL0     C38654   3.925   8.590   2.982  0.6231  0.0640 -0.3287
  281MOL0     C38655   4.037   8.589   3.079  0.0848 -0.4932  0.3986
  281MOL0     C38656   4.173   8.544   3.025 -0.3898 -0.8585 -0.1372
  281MOL0     N38657   4.267   8.651   2.999  0.3276  0.2024 -0.2999
  281MOL0     C38658   4.312   8.685   2.875 -0.0023  0.1600 -0.1086
  281MOL0     C38659   4.385   8.789   2.904  0.9518 -0.5748 -0.1502
  281MOL0     C38660   4.480   8.851   2.809  0.1952 -0.0530 -0.8042
  281MOL0     C38661   4.608   8.769   2.802 -0.0519  0.2049  1.2036
  281MOL0     C38662   4.724   8.826   2.723  0.0310 -0.7212  0.3968
  281MOL0     C38663   4.771   8.960   2.784  0.4658  0.3924  0.0033
  281MOL0     O38664   4.893   8.989   2.717 -0.0972 -0.2259 -0.8127
  281MOL0     C38665   4.957   9.117   2.734  0.1631 -0.2261 -1.0497
  281MOL0     C38666   5.079   9.127   2.675  0.9879 -0.1387  0.1243
  281MOL0     C38667   5.157   9.241   2.692  0.6619 -0.2343 -0.1729
  281MOL0     C38668   5.288   9.244   2.618 -0.2032  1.0099 -0.2135
  281MOL0     C38669   5.100   9.356   2.764 -0.2792  0.3737 -0.6624
  281MOL0     C38670   5.172   9.489   2.761 -0.1787  0.2881  0.5480
  281MOL0     O38671   5.241   9.524   2.640 -0.3628  0.8203  0.1689
  281MOL0     C38672   5.283   9.655   2.639  0.2240  0.5807  0.2527
  281MOL0     C38673   5.212   9.772   2.602  0.3000 -0.5750 -0.6512
  281MOL0     C38674   5.251   9.898   2.638  0.3211 -0.4845 -0.2797
  281MOL0     C38675   5.373   9.920   2.698 -0.0841  0.2130 -0.6950
  281MOL0     O38676   5.421  10.045   2.733 -0.0527  0.2257 -0.5788
  281MOL0     C38677   5.363  10.162   2.667  0.2580  0.5930 -0.8312
  281MOL0     C38678   5.249  10.221   2.745  0.0438  0.0307 -0.1111
  281MOL0     C38679   5.219  10.372   2.711 -1.7402  0.4201 -0.5708
  281MOL0     C38680   5.113  10.424   2.810 -0.3525  0.2910  0.2705
  281MOL0     C38681   5.098  10.581   2.791  0.1309 -0.7345  0.2503
  281MOL0     C38682   4.979  10.644   2.867  0.6672 -0.7332 -0.5845
  281MOL0     C38683   4.973  10.798   2.858  0.1469 -0.4292  0.3225
  281MOL0     C38684   4.846  10.856   2.909 -0.6495 -0.1762  0.3810
  281MOL0    Cl38685   4.854  11.031   2.913 -0.0967  0.2984  0.6207
  281MOL0     C38686   5.449   9.805   2.741  0.2746 -0.2798 -0.3600
  281MOL0     C38687   5.403   9.671   2.705  0.3234 -0.0446 -0.2118
  281MOL0     O38688   5.158   9.555   2.865  0.3976 -0.1608 -0.2804
  281MOL0     C38689   4.991   9.333   2.842 -0.1987 -1.6201  0.2484
  281MOL0     C38690   4.922   9.222   2.820  0.6680 -0.3317 -0.2058
  281MOL0     N38691   4.395   8.812   3.044  0.1355 -0.0314 -0.1442
  281MOL0     N38692   4.309   8.730   3.099 -0.1251  0.0902  0.2447
  281MOL0     C38693   4.403   9.205   2.712 -0.0775 -0.4187 -1.1585
  281MOL0     C38694   4.518   9.260   2.666  0.1919 -0.5168  0.4961
  281MOL0     C38695   4.898   9.215   2.391  0.1284 -0.5566  0.5692
  281MOL0     C38696   4.971   9.112   2.331  0.6066  0.0971 -0.7570
  281MOL0     C38697   5.107   9.126   2.293  0.2401  0.3048  0.3058
  281MOL0     C38698   5.173   9.246   2.290  0.2366  0.4791 -0.8837
  281MOL0     O38699   5.302   9.244   2.245 -0.1872  0.4039  0.2445
  281MOL0     C38700   5.374   9.364   2.236 -0.0414 -0.3597  0.7150
  281MOL0     C38701   5.526   9.340   2.221  0.6299  0.1614  0.5792
  281MOL0     C38702   5.580   9.275   2.349  0.0166 -0.0653 -0.1776
  281MOL0     C38703   5.592   9.363   2.472 -0.6227 -0.3382 -0.2279
  281MOL0     C38704   5.707   9.453   2.478 -0.4923 -0.6297  0.4194
  281MOL0     C38705   5.792   9.536   2.491 -0.2002 -0.0300  0.1929
  281MOL0     C38706   5.098   9.359   2.339 -0.5384  0.7798 -0.7293
  281MOL0     C38707   4.965   9.341   2.392 -0.8999  0.4455  1.5867
  281MOL0     C38708   4.903   9.468   2.446 -0.2691  0.6448 -0.4843
  281MOL0     H38709   4.513   9.100   2.368  0.3937 -1.8306  1.5284
  281MOL0     H38710   4.309   9.024   2.454  1.9757 -2.0054 -0.1636
  281MOL0     H38711   4.147   9.182   2.833 -0.2816 -0.6202  0.1191
  281MOL0     H38712   4.183   9.007   2.847 -0.9767 -1.4226 -0.2443
  281MOL0     H38713   3.935   9.067   2.871 -1.9190 -0.1463 -1.2892
  281MOL0     H38714   3.945   9.129   2.710  1.0221  1.5883  0.7303
  281MOL0     H38715   3.887   8.892   2.684  0.9988  3.7949 -0.3718
  281MOL0     H38716   4.064   8.865   2.678  2.3188  2.2632 -0.6289
  281MOL0     H38717   4.070   8.830   2.932 -1.1264  1.1533  1.3461
  281MOL0     H38718   3.905   8.869   2.949 -0.5803 -2.1288 -0.0089
  281MOL0     H38719   4.024   8.626   2.797 -0.0416 -0.2718  0.0853
  281MOL0     H38720   3.852   8.680   2.803 -2.2596  0.4690  3.0007
  281MOL0     H38721   3.842   8.627   3.043  1.4769  1.4262  0.0712
  281MOL0     H38722   3.902   8.487   2.955 -1.0867  0.5513 -0.8712
  281MOL0     H38723   4.012   8.511   3.151  0.9784 -3.5213 -2.3354
  281MOL0     H38724   4.052   8.686   3.129 -3.5635  0.3084  0.2147
  281MOL0     H38725   4.231   8.499   3.106  0.5251 -1.9178 -1.3409
  281MOL0     H38726   4.144   8.481   2.940 -4.6495 -0.8804  1.1124
  281MOL0     H38727   4.293   8.636   2.781  1.8440  0.0282 -0.4450
  281MOL0     H38728   4.489   8.950   2.856 -2.0337 -0.0281 -0.3007
  281MOL0     H38729   4.440   8.857   2.707 -0.6741  0.2517 -0.4626
  281MOL0     H38730   4.642   8.747   2.903 -0.5670  1.1846  1.6020
  281MOL0     H38731   4.581   8.679   2.745 -1.3500  1.6208 -0.5529
  281MOL0     H38732   4.801   8.749   2.732  1.3737  0.7960  2.9872
  281MOL0     H38733   4.704   8.845   2.617 -2.0341 -2.5622  0.3871
  281MOL0     H38734   4.694   9.037   2.776 -1.1000 -0.9769  1.4166
  281MOL0     H38735   4.793   8.938   2.889 -1.3985 -2.1634 -0.0608
  281MOL0     H38736   5.121   9.044   2.618  1.1977 -0.7043  1.0864
  281MOL0     H38737   5.271   9.295   2.522  1.8832 -0.3539 -1.3824
  281MOL0     H38738   5.324   9.146   2.587 -1.7950  0.7734 -1.4719
  281MOL0     H38739   5.358   9.302   2.678 -1.1014  0.8785  0.9871
  281MOL0     H38740   5.111   9.761   2.562 -0.2574 -1.1415  0.8326
  281MOL0     H38741   5.179   9.973   2.603 -0.5826 -1.1327  0.1476
  281MOL0     H38742   5.445  10.234   2.658  0.7845  0.2874  1.0739
  281MOL0     H38743   5.331  10.139   2.565  1.0248  0.1355 -0.9729
  281MOL0     H38744   5.165  10.156   2.721  0.4914 -0.0858 -1.4329
  281MOL0     H38745   5.260  10.205   2.853 -2.4288  2.8497  0.7111
  281MOL0     H38746   5.188  10.392   2.607  2.2368  0.2611 -1.9520
  281MOL0     H38747   5.312  10.429   2.725 -0.9295 -1.2361  1.1279
  281MOL0     H38748   5.148  10.387   2.906 -2.2296  0.6397  1.1266
  281MOL0     H38749   5.014  10.379   2.798 -0.1324  0.0979 -0.9127
  281MOL0     H38750   5.192  10.629   2.820  0.6129  0.0791 -2.3603
  281MOL0     H38751   5.077  10.597   2.684  1.8598 -0.4073 -0.0669
  281MOL0     H38752   4.982  10.624   2.974 -0.0321 -3.2417 -0.9615
  281MOL0     H38753   4.885  10.601   2.831  1.2849 -1.1297 -1.7768
  281MOL0     H38754   4.980  10.829   2.754  2.3245  0.5380  0.7082
  281MOL0     H38755   5.052  10.836   2.924 -0.1770  2.2052 -0.6967
  281MOL0     H38756   4.815  10.825   3.008 -0.7991  1.2181  0.8015
  281MOL0     H38757   4.778  10.819   2.831  1.9595  2.1369 -3.3677
  281MOL0     H38758   5.532   9.822   2.810  2.2263 -1.8741 -2.1695
  281MOL0     H38759   5.461   9.585   2.738 -0.1842 -0.7186 -1.0219
  281MOL0     H38760   4.964   9.415   2.908  0.3315 -2.1308  1.1180
  281MOL0     H38761   4.828   9.229   2.876  2.0440  1.4290  2.0753
  281MOL0     H38762   4.371   9.216   2.815 -1.4604 -3.3705 -1.1673
  281MOL0     H38763   4.581   9.303   2.744  0.6433  1.7110 -0.9914
  281MOL0     H38764   4.928   9.014   2.316  0.1194 -0.0029  1.0276
  281MOL0     H38765   5.162   9.048   2.241  1.3424  1.1267  0.2153
  281MOL0     H38766   5.330   9.426   2.158 -2.3860  1.5008  3.3193
  281MOL0     H38767   5.358   9.414   2.332  1.4908 -1.5135  1.6227
  281MOL0     H38768   5.582   9.429   2.190  4.0372 -2.1457 -0.4751
  281MOL0     H38769   5.542   9.274   2.136  0.0191 -3.0484  2.7923
  281MOL0     H38770   5.523   9.185   2.373  2.1534 -1.4863 -0.1654
  281MOL0     H38771   5.683   9.263   2.314 -1.1852 -2.8623 -3.3923
  281MOL0     H38772   5.591   9.295   2.559 -0.4944  2.9357  2.5401
  281MOL0     H38773   5.510   9.433   2.485  1.2710  1.8977  0.4418
  281MOL0     H38774   5.867   9.609   2.513  2.7328 -1.9095 -2.7429
  281MOL0     H38775   5.144   9.458   2.336 -2.0647  1.5212 -0.3400
  281MOL0     H38776   4.936   9.560   2.397 -0.7889  0.9868 -0.2061
  281MOL0     H38777   4.795   9.463   2.427 -0.0963  0.3567 -1.4284
  281MOL0     H38778   4.905   9.470   2.555 -0.0964 -0.6034 -0.4453
  282MOL0     O38779  10.813  11.040   9.706  0.3439  0.2608 -0.7349
  282MOL0     C38780  10.725  11.083   9.638 -0.2780  0.1026  0.0050
  282MOL0     O38781  10.588  11.073   9.659  0.8876  0.6273  0.5100
  282MOL0     C38782  10.544  11.017   9.773 -0.0731  0.4246 -0.6588
  282MOL0     C38783  10.444  10.926   9.763  0.3984  0.0304 -0.6196
  282MOL0     C38784  10.383  10.878   9.883  0.2692 -0.9097  0.0211
  282MOL0     C38785  10.424  10.917  10.012  0.6170  0.0909 -0.1879
  282MOL0     O38786  10.365  10.853  10.117  0.2381 -0.0893  0.4980
  282MOL0     C38787  10.342  10.923  10.246 -0.1350 -0.5659 -0.3165
  282MOL0     C38788  10.387  10.824  10.352  0.1883 -0.6742 -0.5840
  282MOL0     C38789  10.299  10.705  10.360  0.2037  0.2478  0.2752
  282MOL0     C38790  10.349  10.598  10.459  0.5838  0.2311 -0.8203
  282MOL0     C38791  10.492  10.539  10.443 -0.1733  0.1489 -0.2988
  282MOL0     C38792  10.519  10.429  10.551 -0.5076  0.7125  0.4145
  282MOL0     C38793  10.665  10.410  10.582  1.0651 -0.7440  0.2020
  282MOL0     C38794  10.724  10.345  10.450  0.0685 -0.1646 -0.1096
  282MOL0     N38795  10.869  10.319  10.459 -0.7593 -0.1224 -1.0305
  282MOL0     C38796  10.945  10.341  10.582  0.0430  0.3491  0.8244
  282MOL0     C38797  11.072  10.317  10.552  0.3578 -0.9715 -0.9667
  282MOL0     C38798  11.181  10.326  10.655 -0.6049  1.1168  0.3249
  282MOL0     C38799  11.171  10.452  10.745 -0.4341  0.2795  0.1502
  282MOL0     C38800  11.169  10.430  10.894  0.6565  0.3144 -1.1406
  282MOL0     C38801  11.291  10.357  10.942  0.6244  0.5430  0.4739
  282MOL0     O38802  11.405  10.442  10.945  1.2306 -0.2940  0.4420
  282MOL0     C38803  11.536  10.401  10.957  1.1807  0.3793 -0.2817
  282MOL0     C38804  11.584  10.280  10.994  0.2037 -0.0028  0.4501
  282MOL0     C38805  11.714  10.247  10.987  0.2959 -0.2987  0.2588
  282MOL0     C38806  11.762  10.110  11.030  0.3896 -0.3031  0.1078
  282MOL0     C38807  11.808  10.336  10.920 -0.3984 -0.0441  0.0785
  282MOL0     C38808  11.950  10.305  10.884 -0.4245 -0.3466  0.5497
  282MOL0     O38809  12.033  10.415  10.880 -0.0276 -0.3639  0.1073
  282MOL0     C38810  12.165  10.403  10.844 -0.2559 -0.3054 -0.1027
  282MOL0     C38811  12.264  10.378  10.947  0.3629  0.0544  0.2328
  282MOL0     C38812  12.392  10.353  10.905 -0.4056 -0.2369 -1.0392
  282MOL0     C38813  12.430  10.365  10.768 -1.0631 -0.3332 -0.1893
  282MOL0     O38814  12.552  10.343  10.722 -0.2737  0.3382  0.0841
  282MOL0     C38815  12.641  10.252  10.797  0.6531  0.0562  0.1817
  282MOL0     C38816  12.784  10.245  10.729  0.0629  0.3934  0.0368
  282MOL0     C38817  12.852  10.381  10.728  0.5477  0.5019 -0.0531
  282MOL0     C38818  12.996  10.378  10.678  0.2965 -0.1839 -0.3148
  282MOL0     C38819  13.066  10.504  10.674  0.5178  0.2228  0.1249
  282MOL0     C38820  13.219  10.499  10.635  0.4900  0.1745  0.3137
  282MOL0     C38821  13.242  10.454  10.490  0.4842 -0.3750 -0.3386
  282MOL0     C38822  13.395  10.484  10.447 -0.7911  0.0443 -0.6696
  282MOL0    Cl38823  13.527  10.379  10.512 -0.3591  0.4352 -0.0855
  282MOL0     C38824  12.333  10.404  10.675  0.8784  0.6825 -0.0347
  282MOL0     C38825  12.196  10.418  10.710 -0.2577 -0.5197 -1.2399
  282MOL0     O38826  11.986  10.188  10.876 -0.3891 -0.3700 -0.3109
  282MOL0     C38827  11.755  10.456  10.874  1.2338 -0.9240  0.5734
  282MOL0     C38828  11.623  10.493  10.897  0.1493  0.5411 -0.3094
  282MOL0     N38829  11.080  10.303  10.409 -0.7449  0.3149  0.8040
  282MOL0     N38830  10.961  10.289  10.359  0.5627 -0.4839 -0.7055
  282MOL0     C38831  10.542  10.994  10.015  0.2354  0.7606  0.2383
  282MOL0     C38832  10.599  11.039   9.900  0.6009 -0.7241  1.2704
  282MOL0     C38833  10.761  11.173   9.522  0.4478  0.0723 -0.0350
  282MOL0     C38834  10.654  11.223   9.442  0.1181 -0.6436  0.4331
  282MOL0     C38835  10.671  11.309   9.337 -0.8414 -0.0464 -0.2263
  282MOL0     C38836  10.804  11.344   9.298 -0.1830  0.7290 -0.5682
  282MOL0     O38837  10.839  11.433   9.199  0.2516 -0.3152 -0.2300
  282MOL0     C38838  10.747  11.488   9.105  0.6327  0.2002  0.2981
  282MOL0     C38839  10.691  11.623   9.138 -0.4014 -0.5793 -0.0342
  282MOL0     C38840  10.614  11.689   9.028 -0.3256  0.5150  0.0107
  282MOL0     C38841  10.589  11.830   9.076  0.8065 -0.0178 -0.2538
  282MOL0     C38842  10.533  11.847   9.210  0.7864 -0.6391  0.2311
  282MOL0     C38843  10.482  11.874   9.313 -0.6710  0.2858  0.1560
  282MOL0     C38844  10.915  11.293   9.374 -1.0178 -0.8785 -0.5597
  282MOL0     C38845  10.888  11.207   9.483 -0.4213 -0.3143  0.4784
  282MOL0     C38846  11.017  11.143   9.543  0.7569  0.4061  0.3362
  282MOL0     H38847  10.419  10.904   9.660 -1.4063 -0.0305 -0.1905
  282MOL0     H38848  10.295  10.819   9.858 -1.5735 -0.4516  4.5283
  282MOL0     H38849  10.238  10.953  10.257 -0.6450 -1.8306 -1.4042
  282MOL0     H38850  10.410  11.009  10.240  1.0362 -1.5399 -1.8883
  282MOL0     H38851  10.484  10.794  10.312  1.5240  2.7555 -0.2036
  282MOL0     H38852  10.392  10.869  10.452 -3.5198  0.1810 -0.6402
  282MOL0     H38853  10.203  10.739  10.400  0.7704  1.0773  0.9535
  282MOL0     H38854  10.292  10.658  10.261 -0.2789 -2.0806  1.3391
  282MOL0     H38855  10.350  10.634  10.562 -2.9963 -0.2466 -0.4934
  282MOL0     H38856  10.290  10.506  10.464  1.3281 -0.2925 -1.3387
  282MOL0     H38857  10.565  10.620  10.453 -0.9168  0.9173 -0.8984
  282MOL0     H38858  10.505  10.499  10.342 -2.0274 -2.5421  0.4304
  282MOL0     H38859  10.478  10.463  10.647 -1.3810 -0.5463  0.5156
  282MOL0     H38860  10.463  10.336  10.538  0.5129  0.0346  0.8012
  282MOL0     H38861  10.682  10.344  10.668 -0.2596 -0.1858  0.9269
  282MOL0     H38862  10.716  10.503  10.607  2.0307 -1.1053 -0.3663
  282MOL0     H38863  10.683  10.249  10.417  0.1966 -2.1828  4.7399
  282MOL0     H38864  10.716  10.410  10.363 -0.5655  0.8138  0.6574
  282MOL0     H38865  10.905  10.363  10.680  1.3473  0.4309  1.3506
  282MOL0     H38866  11.279  10.331  10.605 -0.3320 -0.9971  0.5594
  282MOL0     H38867  11.190  10.232  10.711  1.6200  1.5392  0.7874
  282MOL0     H38868  11.265  10.504  10.728 -0.0140 -0.7304 -0.7613
  282MOL0     H38869  11.079  10.507  10.724 -1.6144 -1.8500 -0.5390
  282MOL0     H38870  11.145  10.519  10.953  4.6672 -0.5060  2.1652
  282MOL0     H38871  11.083  10.364  10.910  2.0391 -1.7026 -1.6712
  282MOL0     H38872  11.272  10.303  11.035  0.5256  2.8788  1.8778
  282MOL0     H38873  11.308  10.277  10.868 -4.3301 -0.8673  0.5172
  282MOL0     H38874  11.510  10.218  11.043 -0.7904 -0.4332 -1.4775
  282MOL0     H38875  11.842  10.118  11.104 -0.6667 -0.2863  1.2842
  282MOL0     H38876  11.790  10.063  10.935  0.1472  1.8184 -1.0731
  282MOL0     H38877  11.683  10.046  11.072 -0.0717 -0.4585 -0.9470
  282MOL0     H38878  12.238  10.371  11.052  2.2376 -1.8711  0.6419
  282MOL0     H38879  12.452  10.338  10.994 -0.5777 -2.8579 -1.2895
  282MOL0     H38880  12.636  10.300  10.895 -0.1434 -2.1251  1.2720
  282MOL0     H38881  12.607  10.149  10.810  0.1270 -0.0766 -1.8498
  282MOL0     H38882  12.850  10.182  10.789  0.8329 -2.1658 -3.2133
  282MOL0     H38883  12.778  10.203  10.628 -0.4091 -0.7577  0.5241
  282MOL0     H38884  12.856  10.405  10.835 -1.0456  1.7455 -0.2274
  282MOL0     H38885  12.791  10.455  10.675  1.0879 -0.1552 -1.6472
  282MOL0     H38886  12.995  10.339  10.576  4.6938 -0.6732 -0.3871
  282MOL0     H38887  13.054  10.305  10.735 -0.0631  0.5345  1.0184
  282MOL0     H38888  13.022  10.576  10.603  0.3901  2.3490  2.2284
  282MOL0     H38889  13.037  10.564  10.761 -0.7800  2.3540 -1.6637
  282MOL0     H38890  13.276  10.437  10.705  2.9242 -1.8391 -3.1359
  282MOL0     H38891  13.259  10.600  10.647  3.5047 -0.7383 -1.1427
  282MOL0     H38892  13.173  10.508  10.424 -1.3175 -0.1578  1.6235
  282MOL0     H38893  13.227  10.346  10.493 -0.7748 -0.2921 -2.1791
  282MOL0     H38894  13.417  10.589  10.465  1.7089 -0.6352  0.7500
  282MOL0     H38895  13.390  10.462  10.340  2.6699  4.1660 -1.9411
  282MOL0     H38896  12.352  10.416  10.568 -3.2496  0.2177 -0.9608
  282MOL0     H38897  12.117  10.454  10.645  1.3166  1.2853 -2.2527
  282MOL0     H38898  11.825  10.526  10.830 -0.9678  1.7294  0.9868
  282MOL0     H38899  11.588  10.586  10.854 -0.7319  1.2046  1.7313
  282MOL0     H38900  10.585  11.018  10.112 -1.6179 -0.3479  1.3729
  282MOL0     H38901  10.676  11.115   9.910 -0.4089  0.5956 -0.6201
  282MOL0     H38902  10.550  11.202   9.466 -0.2099 -0.1996 -0.5214
  282MOL0     H38903  10.583  11.340   9.282  0.2506  2.0483 -0.8985
  282MOL0     H38904  10.807  11.489   9.013  3.1491 -1.7502  1.7791
  282MOL0     H38905  10.664  11.421   9.079  1.3722 -0.5302 -0.2358
  282MOL0     H38906  10.784  11.680   9.145  0.0860 -1.4019  0.2949
  282MOL0     H38907  10.629  11.622   9.228 -1.0290  3.7163 -0.2357
  282MOL0     H38908  10.668  11.689   8.933  1.0066 -0.0064  0.7434
  282MOL0     H38909  10.522  11.633   9.008  1.3548 -1.1538 -4.2189
  282MOL0     H38910  10.519  11.881   9.009  0.8186 -1.2473 -1.2319
  282MOL0     H38911  10.681  11.890   9.076  0.0640  1.1525  0.4766
  282MOL0     H38912  10.441  11.902   9.408  1.2410  2.1913  0.4982
  282MOL0     H38913  11.015  11.324   9.346 -0.6606  1.8548  3.0596
  282MOL0     H38914  11.020  11.163   9.650  0.6291  1.3412  0.1751
  282MOL0     H38915  11.010  11.035   9.523 -0.1350  0.7402 -1.3673
  282MOL0     H38916  11.110  11.182   9.501  0.3992  2.8476  1.6525
  283MOL0     O38917   0.051   8.460   1.595 -0.3027 -0.5896 -0.6213
  283MOL0     C38918  -0.060   8.415   1.618  0.5416 -0.7318  0.5660
  283MOL0     O38919  -0.085   8.338   1.732  0.0766  0.0186 -0.1549
  283MOL0     C38920   0.025   8.300   1.802 -0.3929 -0.1819  0.9954
  283MOL0     C38921   0.046   8.366   1.925 -0.2234 -0.6005  0.2849
  283MOL0     C38922   0.155   8.330   2.006  0.8797 -0.7435 -0.5759
  283MOL0     C38923   0.248   8.243   1.961 -0.4355 -0.3954  0.5783
  283MOL0     O38924   0.364   8.224   2.037  0.2758  0.3618 -1.3949
  283MOL0     C38925   0.472   8.132   2.005  0.3881 -0.9558 -0.7229
  283MOL0     C38926   0.594   8.188   2.082 -0.3884  0.5638  1.0819
  283MOL0     C38927   0.724   8.127   2.047  0.2769 -0.4785  0.5306
  283MOL0     C38928   0.778   8.141   1.896 -0.0228  1.2718  0.3080
  283MOL0     C38929   0.909   8.053   1.878 -0.4241  0.1005 -0.4004
  283MOL0     C38930   0.989   8.068   1.754 -0.2756  0.1389  0.4941
  283MOL0     C38931   0.906   8.070   1.613 -0.4418  0.0682  0.2500
  283MOL0     C38932   0.846   7.938   1.583 -0.0461 -0.7115  0.4836
  283MOL0     N38933   0.954   7.842   1.549 -0.1877 -0.5922 -0.4079
  283MOL0     C38934   1.036   7.761   1.631  0.8945  0.3942  1.0906
  283MOL0     C38935   1.111   7.693   1.539  0.2689  0.0646 -0.5213
  283MOL0     C38936   1.215   7.603   1.593  0.3985  0.4475 -0.0237
  283MOL0     C38937   1.338   7.683   1.638 -0.5855 -0.4669 -0.2778
  283MOL0     C38938   1.434   7.593   1.711 -0.8788 -0.6963  0.3286
  283MOL0     C38939   1.564   7.662   1.764 -0.2972  0.2533  0.4535
  283MOL0     O38940   1.648   7.583   1.836  0.1023 -0.6108 -0.1538
  283MOL0     C38941   1.769   7.640   1.879 -0.2950 -0.2446  0.5773
  283MOL0     C38942   1.874   7.546   1.910  0.0658 -0.0407  0.3966
  283MOL0     C38943   2.004   7.586   1.953  1.1544 -0.6433 -0.9784
  283MOL0     C38944   2.098   7.477   1.992  0.2358  0.1354 -0.5991
  283MOL0     C38945   2.021   7.729   1.974  0.0345 -0.0863 -0.2763
  283MOL0     C38946   2.149   7.787   2.034  0.6902 -0.2284 -0.3363
  283MOL0     O38947   2.244   7.698   2.072  0.1757 -0.0765  0.3069
  283MOL0     C38948   2.369   7.757   2.099 -0.9716 -0.7513 -0.3499
  283MOL0     C38949   2.406   7.789   2.231  0.2323 -0.6475  0.8554
  283MOL0     C38950   2.532   7.853   2.246 -0.0958 -0.2313 -0.4380
  283MOL0     C38951   2.629   7.871   2.145 -0.7763 -0.2398  0.9798
  283MOL0     O38952   2.752   7.929   2.160 -0.3406  0.0298  0.4555
  283MOL0     C38953   2.804   7.917   2.297 -0.4907 -0.6301 -0.5945
  283MOL0     C38954   2.948   7.954   2.300 -0.8849 -0.6058 -0.2150
  283MOL0     C38955   2.988   8.084   2.213 -0.7318 -0.5820  0.2042
  283MOL0     C38956   3.139   8.120   2.188 -0.0276  0.3869  0.3645
  283MOL0     C38957   3.146   8.254   2.111  0.3642 -0.4964 -0.1030
  283MOL0     C38958   3.290   8.303   2.105 -0.4565  0.0673  0.5863
  283MOL0     C38959   3.299   8.418   2.000 -0.2602  0.2161 -0.3582
  283MOL0     C38960   3.440   8.475   1.986 -0.2454  0.1580  0.4443
  283MOL0    Cl38961   3.550   8.355   1.919 -0.1223 -0.0456  0.3046
  283MOL0     C38962   2.589   7.824   2.015  0.3432  0.5349  0.1604
  283MOL0     C38963   2.459   7.774   1.991  0.7155 -0.2165 -0.3389
  283MOL0     O38964   2.166   7.915   2.027  0.3126 -0.0004  0.6825
  283MOL0     C38965   1.920   7.817   1.929  0.5734  0.4232 -0.1721
  283MOL0     C38966   1.802   7.773   1.876 -0.2526  1.0447  0.4968
  283MOL0     N38967   1.086   7.736   1.412 -0.8077  0.2845 -0.6070
  283MOL0     N38968   0.994   7.826   1.417 -0.0776 -0.1630  0.9977
  283MOL0     C38969   0.230   8.174   1.843  0.0741 -0.1796 -0.0329
  283MOL0     C38970   0.114   8.198   1.764  0.0819  0.7202 -0.7246
  283MOL0     C38971  -0.170   8.448   1.521 -0.3151  0.4197  0.1193
  283MOL0     C38972  -0.137   8.479   1.392 -0.4031 -0.1168 -0.3042
  283MOL0     C38973  -0.235   8.515   1.306  0.5328  0.4065  0.7606
  283MOL0     C38974  -0.365   8.519   1.332  0.4021  0.1129  0.0709
  283MOL0     O38975  -0.453   8.551   1.230 -0.4382  0.8696  0.8374
  283MOL0     C38976  -0.588   8.503   1.243 -0.0100 -0.2592  1.1422
  283MOL0     C38977  -0.645   8.539   1.104  0.4772 -0.3431  0.5748
  283MOL0     C38978  -0.796   8.515   1.102 -0.1876  0.8705 -0.1953
  283MOL0     C38979  -0.859   8.521   0.960  1.1554  0.9374 -0.2428
  283MOL0     C38980  -1.009   8.517   0.975 -0.4114 -0.1496  0.2996
  283MOL0     C38981  -1.125   8.492   0.991  0.0899 -0.1298  0.0963
  283MOL0     C38982  -0.401   8.480   1.460 -0.4828  1.0655  0.2349
  283MOL0     C38983  -0.308   8.447   1.559  0.5903 -0.1257 -0.1186
  283MOL0     C38984  -0.369   8.410   1.699 -0.3593  1.0570  0.2341
  283MOL0     H38985  -0.029   8.440   1.953 -1.4152 -1.5817 -0.2341
  283MOL0     H38986   0.177   8.381   2.100  2.3681 -0.9789 -0.7866
  283MOL0     H38987   0.477   8.129   1.896  0.0605  1.2879 -0.8585
  283MOL0     H38988   0.467   8.030   2.044 -1.1678 -0.7924 -0.4002
  283MOL0     H38989   0.610   8.295   2.066  0.3426  0.0083 -2.7478
  283MOL0     H38990   0.583   8.166   2.189  0.6311 -5.3150  0.2712
  283MOL0     H38991   0.796   8.158   2.123 -1.6846 -1.1052  2.7373
  283MOL0     H38992   0.713   8.020   2.062 -0.8905 -0.6797 -1.4007
  283MOL0     H38993   0.703   8.108   1.824  0.3886  0.4332  0.2487
  283MOL0     H38994   0.798   8.245   1.869 -0.4130  1.3270  0.2377
  283MOL0     H38995   0.886   7.946   1.883  0.5946 -0.0684  2.9256
  283MOL0     H38996   0.972   8.080   1.963  0.3826  1.8644 -1.4929
  283MOL0     H38997   1.034   8.167   1.764  0.1065 -0.0423  0.5599
  283MOL0     H38998   1.064   7.989   1.761  1.7425  2.1172  3.1715
  283MOL0     H38999   0.977   8.093   1.533  1.0286  2.8602  2.1996
  283MOL0     H39000   0.825   8.144   1.609 -3.0134 -2.3676  2.4986
  283MOL0     H39001   0.789   7.899   1.668  0.0797 -4.3715 -0.9195
  283MOL0     H39002   0.787   7.963   1.494  1.7097  2.2393  0.0293
  283MOL0     H39003   1.032   7.749   1.739 -1.3655 -2.9143  0.7961
  283MOL0     H39004   1.243   7.535   1.511 -0.7236  2.9527 -2.6522
  283MOL0     H39005   1.173   7.534   1.666  0.1646 -1.5480 -1.9257
  283MOL0     H39006   1.393   7.728   1.556  1.0987  2.0043  2.0343
  283MOL0     H39007   1.309   7.761   1.709  1.1330  0.6917 -0.7914
  283MOL0     H39008   1.386   7.551   1.800  1.5949 -3.0652  0.6859
  283MOL0     H39009   1.461   7.512   1.643  0.6047  0.8074 -0.9626
  283MOL0     H39010   1.621   7.704   1.680 -1.8749  2.5321  0.4163
  283MOL0     H39011   1.546   7.753   1.822 -0.4142  1.2698 -1.1092
  283MOL0     H39012   1.853   7.441   1.895 -0.6762 -0.2892  2.7207
  283MOL0     H39013   2.056   7.378   1.972 -2.0230  0.5740  1.4934
  283MOL0     H39014   2.138   7.483   2.094 -0.2036  0.9821 -0.4645
  283MOL0     H39015   2.185   7.487   1.927 -0.1221  2.7854 -0.7887
  283MOL0     H39016   2.331   7.773   2.308 -2.7320  2.2213 -1.1652
  283MOL0     H39017   2.550   7.881   2.349  0.8858 -1.5853 -0.2091
  283MOL0     H39018   2.748   7.984   2.363  1.0458  0.3057 -0.1724
  283MOL0     H39019   2.792   7.820   2.346 -0.6602 -0.4831 -0.3456
  283MOL0     H39020   2.989   7.972   2.400  0.6965 -1.7017 -0.6234
  283MOL0     H39021   3.005   7.871   2.257 -1.5285 -0.5386 -1.2449
  283MOL0     H39022   2.938   8.168   2.262  1.8333  2.2630 -1.7398
  283MOL0     H39023   2.945   8.068   2.114  0.6534  0.4238 -0.5798
  283MOL0     H39024   3.184   8.037   2.133 -0.4435  0.0723  0.4953
  283MOL0     H39025   3.189   8.142   2.283 -2.7025  3.0867  1.3045
  283MOL0     H39026   3.095   8.255   2.015  0.4169 -2.3293 -0.1817
  283MOL0     H39027   3.097   8.324   2.181  0.6621  0.6052 -0.9711
  283MOL0     H39028   3.342   8.221   2.054 -3.3650 -2.6374  1.6784
  283MOL0     H39029   3.336   8.335   2.199 -3.8809  0.3019  2.3053
  283MOL0     H39030   3.237   8.502   2.031  0.4878  1.0612 -1.1068
  283MOL0     H39031   3.261   8.363   1.913  3.4354  0.1049 -2.0915
  283MOL0     H39032   3.477   8.515   2.081  2.9742  0.3063 -0.7668
  283MOL0     H39033   3.436   8.557   1.915 -0.9434  1.0753  1.5191
  283MOL0     H39034   2.656   7.831   1.930 -0.1029 -0.7984 -0.3185
  283MOL0     H39035   2.425   7.741   1.893 -1.6676 -0.3300  0.4817
  283MOL0     H39036   1.940   7.924   1.933  1.3100  0.3582 -1.6257
  283MOL0     H39037   1.742   7.854   1.834 -0.5671  0.7298  0.3316
  283MOL0     H39038   0.309   8.104   1.817  1.2995  1.1421 -0.0068
  283MOL0     H39039   0.090   8.139   1.676 -1.6418  2.6146 -1.6036
  283MOL0     H39040  -0.035   8.461   1.360 -1.0332 -3.2206 -0.8335
  283MOL0     H39041  -0.202   8.531   1.204  1.0180 -0.6147  0.7448
  283MOL0     H39042  -0.596   8.396   1.262  0.2511 -0.5511 -0.2914
  283MOL0     H39043  -0.648   8.552   1.320  0.1663  1.5504  0.2020
  283MOL0     H39044  -0.585   8.488   1.028 -1.1436  0.4989 -1.3644
  283MOL0     H39045  -0.637   8.646   1.085 -1.3012 -0.1766  0.5690
  283MOL0     H39046  -0.821   8.417   1.143 -0.6118 -0.2643 -2.9546
  283MOL0     H39047  -0.842   8.582   1.174 -0.6427 -2.6934  3.1747
  283MOL0     H39048  -0.814   8.436   0.907  0.6407 -0.6751  1.7580
  283MOL0     H39049  -0.828   8.612   0.908 -0.7743  1.4247 -0.5960
  283MOL0     H39050  -1.227   8.465   1.010 -0.0553 -0.5337 -1.1429
  283MOL0     H39051  -0.503   8.471   1.495 -0.0474 -1.2790  1.1554
  283MOL0     H39052  -0.347   8.482   1.779  0.3745  1.3247 -0.2021
  283MOL0     H39053  -0.477   8.395   1.691 -0.1978  1.0852 -3.3182
  283MOL0     H39054  -0.334   8.307   1.714  0.7474  1.1680 -1.3822
  284MOL0     O39055  10.349   7.847   0.000  0.6006 -1.1891  0.0836
  284MOL0     C39056  10.326   7.847   0.124 -0.1099 -0.1371  0.9550
  284MOL0     O39057  10.202   7.844   0.179  0.0705 -0.0348  0.6903
  284MOL0     C39058  10.088   7.816   0.109  0.0339 -0.9590 -0.6020
  284MOL0     C39059  10.074   7.735  -0.005 -0.0206 -0.4144 -0.0098
  284MOL0     C39060   9.948   7.722  -0.065 -0.5763  0.1780  0.6295
  284MOL0     C39061   9.845   7.803  -0.020  0.7957 -0.0871  0.2228
  284MOL0     O39062   9.729   7.827  -0.100 -0.2507  0.3853 -0.3858
  284MOL0     C39063   9.736   7.782  -0.237  0.6519 -0.2870 -0.8237
  284MOL0     C39064   9.645   7.872  -0.318 -0.4416 -0.2755 -0.2187
  284MOL0     C39065   9.502   7.886  -0.262 -0.8676  0.0958  1.2692
  284MOL0     C39066   9.440   7.745  -0.204  0.9019  0.8532 -0.9156
  284MOL0     C39067   9.287   7.753  -0.178  0.5987 -0.0056  0.4776
  284MOL0     C39068   9.258   7.863  -0.081  1.4527 -0.7206 -1.2105
  284MOL0     C39069   9.116   7.882  -0.045 -0.1918  0.8726  0.4046
  284MOL0     C39070   9.062   7.754   0.023 -0.6294 -0.5210  0.0368
  284MOL0     N39071   8.928   7.770   0.072  0.6367 -0.0211 -0.6496
  284MOL0     C39072   8.887   7.871   0.150 -0.8576 -0.8506  0.1399
  284MOL0     C39073   8.756   7.849   0.181  1.0053 -0.5108  0.6334
  284MOL0     C39074   8.664   7.939   0.258 -0.6585  0.6112 -0.0234
  284MOL0     C39075   8.580   7.871   0.373 -0.7514 -0.5869  0.6903
  284MOL0     C39076   8.519   7.991   0.453 -0.3370  0.0572 -0.4002
  284MOL0     C39077   8.434   7.941   0.568  0.9146  0.3840  0.0772
  284MOL0     O39078   8.348   7.834   0.523 -0.2415  0.8074 -0.8606
  284MOL0     C39079   8.247   7.800   0.617 -0.4005  0.5811 -0.6380
  284MOL0     C39080   8.288   7.753   0.744  1.2257  1.1901  0.1171
  284MOL0     C39081   8.192   7.698   0.835  0.2603 -0.0563 -0.4161
  284MOL0     C39082   8.239   7.674   0.970  0.1405  1.1625  1.1349
  284MOL0     C39083   8.053   7.702   0.798  0.2261  0.9927 -0.3399
  284MOL0     C39084   7.945   7.648   0.879  0.0939  0.2798 -0.2634
  284MOL0     O39085   7.909   7.722   0.993  0.7806 -0.3549  0.1625
  284MOL0     C39086   7.805   7.689   1.077 -0.3867  0.3604 -0.1184
  284MOL0     C39087   7.826   7.746   1.203 -1.1825  0.4612  0.3002
  284MOL0     C39088   7.745   7.725   1.315  0.7354  0.4188 -0.1818
  284MOL0     C39089   7.646   7.626   1.301  1.0005  0.2981 -0.0993
  284MOL0     O39090   7.545   7.593   1.398 -0.4823  0.0697 -0.3749
  284MOL0     C39091   7.564   7.639   1.541  0.4548  0.1223 -0.8405
  284MOL0     C39092   7.452   7.598   1.636 -0.2583  0.1651 -0.2722
  284MOL0     C39093   7.322   7.657   1.596 -0.3156  0.3738  0.1148
  284MOL0     C39094   7.207   7.634   1.696  1.1970 -0.6326  0.2179
  284MOL0     C39095   7.180   7.484   1.706  0.4000 -0.2340  0.1204
  284MOL0     C39096   7.034   7.445   1.711 -0.5409 -0.0065  0.4575
  284MOL0     C39097   7.029   7.294   1.738 -1.7873  0.1387  1.0216
  284MOL0     C39098   6.897   7.236   1.736  0.7764 -0.4068  0.5698
  284MOL0    Cl39099   6.787   7.308   1.870 -0.4062  0.9834  0.0455
  284MOL0     C39100   7.626   7.562   1.177 -0.3320 -0.2049 -0.2205
  284MOL0     C39101   7.696   7.598   1.061 -0.6692 -0.3418 -0.0813
  284MOL0     O39102   7.901   7.547   0.834  0.9265 -0.2130 -0.3462
  284MOL0     C39103   8.014   7.765   0.678  1.2841 -0.1801  0.2168
  284MOL0     C39104   8.111   7.802   0.584 -0.0793  0.4896  0.3153
  284MOL0     N39105   8.727   7.721   0.131 -0.0387 -0.3442 -0.2018
  284MOL0     N39106   8.832   7.682   0.063  0.0665  0.1795 -0.6246
  284MOL0     C39107   9.859   7.889   0.087 -0.4414  0.3914 -0.7013
  284MOL0     C39108   9.978   7.890   0.154 -0.6982  0.1746  0.2248
  284MOL0     C39109  10.438   7.839   0.215 -0.2432  0.0316 -0.1778
  284MOL0     C39110  10.418   7.866   0.354 -0.0252  0.1398 -0.1650
  284MOL0     C39111  10.520   7.876   0.455 -1.0054  0.0085  0.1786
  284MOL0     C39112  10.659   7.862   0.427 -0.8913  0.2011 -0.3251
  284MOL0     O39113  10.753   7.854   0.525 -0.1124  0.2954 -0.1195
  284MOL0     C39114  10.889   7.873   0.493 -0.3945  0.1305  0.3763
  284MOL0     C39115  10.966   7.735   0.470  0.0193  0.0368  0.6227
  284MOL0     C39116  10.960   7.648   0.590 -0.8381  0.1751 -1.7072
  284MOL0     C39117  11.022   7.513   0.580  0.6797 -0.4074 -0.3485
  284MOL0     C39118  11.174   7.525   0.586  0.7944  0.4450 -0.8515
  284MOL0     C39119  11.289   7.560   0.611  0.4579  0.4041 -0.0221
  284MOL0     C39120  10.686   7.831   0.290  0.5011  0.0477  0.3179
  284MOL0     C39121  10.582   7.820   0.188 -0.0835 -0.1955 -0.0117
  284MOL0     C39122  10.639   7.775   0.058 -0.7785 -0.1184 -0.7847
  284MOL0     H39123  10.151   7.673  -0.050  0.2730  0.4178 -0.6755
  284MOL0     H39124   9.953   7.666  -0.158 -2.5278  2.1526 -0.7526
  284MOL0     H39125   9.690   7.683  -0.243 -2.5431  0.6796  3.2344
  284MOL0     H39126   9.831   7.791  -0.291  0.2248 -1.2568 -1.7785
  284MOL0     H39127   9.709   7.960  -0.331 -1.0449 -0.0374 -1.7193
  284MOL0     H39128   9.639   7.843  -0.423 -1.1816  0.1320 -0.2988
  284MOL0     H39129   9.498   7.964  -0.185 -1.1425 -0.8825  2.2622
  284MOL0     H39130   9.447   7.928  -0.347 -2.5832 -3.9469  0.1553
  284MOL0     H39131   9.462   7.658  -0.268 -1.2501  0.3284 -1.0199
  284MOL0     H39132   9.496   7.724  -0.113 -0.5133  1.5082  0.1301
  284MOL0     H39133   9.245   7.657  -0.146  0.5346  0.0312  0.5035
  284MOL0     H39134   9.241   7.776  -0.275 -0.2833 -0.1206  0.8630
  284MOL0     H39135   9.328   7.849   0.001  0.4494 -1.6495 -0.4894
  284MOL0     H39136   9.279   7.962  -0.124 -1.4952  0.8569  0.6112
  284MOL0     H39137   9.064   7.905  -0.139  1.6068 -0.6515 -1.0503
  284MOL0     H39138   9.110   7.965   0.026  1.0809 -0.4101  2.0904
  284MOL0     H39139   9.058   7.665  -0.040  0.4570 -0.4790 -0.1008
  284MOL0     H39140   9.136   7.725   0.098  0.7938  0.0561 -1.1113
  284MOL0     H39141   8.946   7.960   0.173  1.3203 -1.0739 -3.7335
  284MOL0     H39142   8.589   8.000   0.206 -1.9220 -0.4741  0.4537
  284MOL0     H39143   8.741   8.002   0.302  0.1633  0.7086 -1.5288
  284MOL0     H39144   8.502   7.803   0.337 -1.7269  0.6537  0.3904
  284MOL0     H39145   8.653   7.819   0.437 -1.1435 -1.6636  0.2963
  284MOL0     H39146   8.599   8.053   0.494  1.1269  0.7222 -3.9400
  284MOL0     H39147   8.461   8.055   0.385  1.9442  1.8468 -0.7796
  284MOL0     H39148   8.510   7.905   0.637 -0.4907 -0.9923  0.9813
  284MOL0     H39149   8.371   8.020   0.611 -2.2493 -0.6502 -2.2198
  284MOL0     H39150   8.394   7.759   0.770  1.2328 -0.4517  0.6067
  284MOL0     H39151   8.155   7.638   1.030  1.1591  0.2351  2.0459
  284MOL0     H39152   8.277   7.765   1.018  4.2273  0.4775 -0.4194
  284MOL0     H39153   8.319   7.600   0.975 -0.0765  0.8656  0.3631
  284MOL0     H39154   7.915   7.801   1.232 -0.2750 -1.5270  1.4829
  284MOL0     H39155   7.752   7.787   1.404 -1.6361  2.5744 -1.3879
  284MOL0     H39156   7.665   7.603   1.565  1.0355  1.3370 -1.3702
  284MOL0     H39157   7.567   7.748   1.541  0.3492  0.1335 -0.0426
  284MOL0     H39158   7.439   7.489   1.636 -2.6967  0.3752 -1.8983
  284MOL0     H39159   7.470   7.628   1.739 -1.1944  3.2528 -0.9211
  284MOL0     H39160   7.290   7.635   1.494  1.3589 -1.4295 -0.0876
  284MOL0     H39161   7.334   7.765   1.600  2.2650  0.1170  3.0702
  284MOL0     H39162   7.123   7.686   1.648  0.3320 -0.9980  1.3025
  284MOL0     H39163   7.235   7.681   1.790  1.2162 -0.8250  0.3071
  284MOL0     H39164   7.213   7.423   1.622 -0.8817 -1.1966  0.2876
  284MOL0     H39165   7.244   7.444   1.785 -2.4863  0.1189  2.8653
  284MOL0     H39166   6.990   7.465   1.613 -1.6019 -1.3603  0.6224
  284MOL0     H39167   6.981   7.487   1.796 -0.5464 -4.0241  2.7207
  284MOL0     H39168   7.065   7.279   1.840  0.4741 -0.5485  0.1879
  284MOL0     H39169   7.098   7.249   1.666 -0.3551  1.0388  1.7826
  284MOL0     H39170   6.905   7.127   1.749  0.9947 -0.2828  1.5299
  284MOL0     H39171   6.857   7.255   1.636  0.1307 -3.4650  0.1357
  284MOL0     H39172   7.547   7.487   1.175  0.0974 -0.7582  1.7809
  284MOL0     H39173   7.680   7.557   0.961  0.3783 -1.7314  0.2992
  284MOL0     H39174   7.909   7.787   0.665  1.4441  0.8953  0.6721
  284MOL0     H39175   8.100   7.852   0.489 -0.5081  0.7826  0.5174
  284MOL0     H39176   9.783   7.961   0.117  0.9980  1.8167 -0.3429
  284MOL0     H39177   9.981   7.941   0.250  1.6493 -0.2749  0.4602
  284MOL0     H39178  10.319   7.889   0.390 -0.4714 -0.1840 -1.1615
  284MOL0     H39179  10.503   7.902   0.559 -0.0554  0.1426  0.3023
  284MOL0     H39180  10.903   7.926   0.398 -1.6262 -0.5921 -0.2247
  284MOL0     H39181  10.929   7.931   0.577 -1.2430 -1.9413  2.2783
  284MOL0     H39182  11.072   7.753   0.451 -0.1159 -0.9692 -1.3536
  284MOL0     H39183  10.928   7.679   0.384 -1.3579 -1.9424  2.4174
  284MOL0     H39184  11.006   7.708   0.669 -0.7896 -0.1028 -1.5221
  284MOL0     H39185  10.854   7.629   0.612 -0.6243  0.3905 -0.3904
  284MOL0     H39186  10.994   7.456   0.491  0.5302 -2.7074  1.0841
  284MOL0     H39187  10.996   7.453   0.667 -0.3847  1.2725  0.5498
  284MOL0     H39188  11.391   7.594   0.615  1.0737 -1.4131  3.1791
  284MOL0     H39189  10.788   7.800   0.268 -0.1899 -1.4692 -0.9709
  284MOL0     H39190  10.748   7.771   0.061 -0.6806  1.2755 -1.7715
  284MOL0     H39191  10.602   7.675   0.033 -1.6708  0.1622 -0.6301
  284MOL0     H39192  10.624   7.838  -0.030 -0.8198  2.2475  0.8272
  285MOL0     O39193   6.509   5.429   6.860  0.2152 -0.3823 -0.0743
  285MOL0     C39194   6.467   5.481   6.756 -0.3647 -0.5576  1.0828
  285MOL0     O39195   6.543   5.550   6.670  0.7713 -0.0683  0.2243
  285MOL0     C39196   6.680   5.545   6.669 -0.3113 -0.5230  0.1547
  285MOL0     C39197   6.764   5.451   6.740  1.0055 -0.1353  0.7210
  285MOL0     C39198   6.900   5.449   6.720  0.2471 -0.1429 -0.0073
  285MOL0     C39199   6.970   5.540   6.635  0.5079 -0.0059  0.2217
  285MOL0     O39200   7.102   5.542   6.614  0.0330 -0.1620  0.7339
  285MOL0     C39201   7.142   5.405   6.592 -0.2314  0.3231 -0.2103
  285MOL0     C39202   7.298   5.405   6.590  0.0204 -0.2013 -0.5362
  285MOL0     C39203   7.362   5.264   6.581 -0.1839  0.6968  0.1186
  285MOL0     C39204   7.503   5.243   6.623 -0.0532 -0.2358 -0.3068
  285MOL0     C39205   7.612   5.306   6.532  0.1060 -0.8350 -0.6839
  285MOL0     C39206   7.652   5.218   6.420 -0.2531  0.7354  0.0035
  285MOL0     C39207   7.736   5.284   6.307  0.3347 -0.2981 -0.4613
  285MOL0     C39208   7.868   5.342   6.370 -0.5980 -0.4712  0.1425
  285MOL0     N39209   7.969   5.390   6.275 -0.4499 -0.2260  0.2349
  285MOL0     C39210   8.101   5.357   6.264  0.0420 -0.0693 -0.4694
  285MOL0     C39211   8.155   5.429   6.159 -0.8123  0.8357 -0.2240
  285MOL0     C39212   8.292   5.397   6.094  0.5728 -0.0049 -0.5500
  285MOL0     C39213   8.415   5.459   6.178  0.8011 -0.1826 -0.5176
  285MOL0     C39214   8.557   5.417   6.142  0.1941 -0.4562 -0.2991
  285MOL0     C39215   8.663   5.471   6.240 -1.0426 -0.2714  0.0071
  285MOL0     O39216   8.675   5.610   6.205 -0.5793  0.2307 -0.2379
  285MOL0     C39217   8.738   5.681   6.309  0.5107 -0.1117 -0.3739
  285MOL0     C39218   8.670   5.749   6.409  0.8127 -0.2375 -0.1691
  285MOL0     C39219   8.728   5.830   6.504 -0.9065  0.1832 -0.5348
  285MOL0     C39220   8.645   5.894   6.608 -0.1076 -0.0811 -0.6767
  285MOL0     C39221   8.869   5.841   6.502  0.3726 -0.4753  0.5590
  285MOL0     C39222   8.961   5.912   6.605 -0.6072 -0.7929 -0.2557
  285MOL0     O39223   9.090   5.856   6.626 -0.0921 -0.1167 -0.4116
  285MOL0     C39224   9.204   5.931   6.604 -0.4685 -0.5834 -0.2123
  285MOL0     C39225   9.322   5.872   6.642 -0.3220  0.2598  0.3933
  285MOL0     C39226   9.448   5.932   6.603  0.1045 -0.8320 -0.0476
  285MOL0     C39227   9.443   6.056   6.540 -0.2101  0.0850 -0.7610
  285MOL0     O39228   9.554   6.123   6.502  0.1228 -0.0731 -0.3421
  285MOL0     C39229   9.686   6.063   6.508 -0.2777 -0.3960  0.7323
  285MOL0     C39230   9.802   6.138   6.435 -0.2926  0.3282 -0.0815
  285MOL0     C39231   9.935   6.064   6.448 -0.2704  0.7686 -0.0661
  285MOL0     C39232  10.042   6.162   6.392 -0.1683 -0.4564 -0.1336
  285MOL0     C39233  10.187   6.107   6.410  0.7845  0.0719  0.0472
  285MOL0     C39234  10.295   6.220   6.386 -0.4055 -0.3649  0.2780
  285MOL0     C39235  10.440   6.181   6.392  0.6757  0.6363 -0.3088
  285MOL0     C39236  10.530   6.277   6.309  0.5785 -0.3881 -0.2907
  285MOL0    Cl39237  10.707   6.245   6.312 -0.0071  0.0069 -0.1020
  285MOL0     C39238   9.319   6.116   6.509 -0.6263 -0.7901 -0.5700
  285MOL0     C39239   9.204   6.050   6.536 -0.1272  0.0019  0.3838
  285MOL0     O39240   8.925   6.021   6.640 -0.1201  0.1340  0.6302
  285MOL0     C39241   8.937   5.775   6.400 -0.4118  0.4314 -0.1969
  285MOL0     C39242   8.873   5.693   6.299  0.5967  1.1078 -0.5999
  285MOL0     N39243   8.044   5.494   6.106  0.0373  0.1205 -0.7435
  285MOL0     N39244   7.937   5.474   6.170 -0.6646 -0.2274  0.3466
  285MOL0     C39245   6.879   5.636   6.580 -0.1453 -0.9065 -0.6672
  285MOL0     C39246   6.748   5.638   6.587  0.0317 -0.5079 -0.2219
  285MOL0     C39247   6.322   5.462   6.731 -0.3337 -0.1569 -0.4263
  285MOL0     C39248   6.243   5.399   6.837 -0.4204  0.6072  0.1508
  285MOL0     C39249   6.104   5.372   6.816 -0.2386 -0.9033 -0.5789
  285MOL0     C39250   6.038   5.421   6.701 -0.1056  0.3925 -0.9011
  285MOL0     O39251   5.905   5.403   6.683  0.4499 -0.0861 -0.3513
  285MOL0     C39252   5.806   5.408   6.786  0.2133  0.0572 -0.1091
  285MOL0     C39253   5.660   5.370   6.749 -0.7859  0.0411  0.4213
  285MOL0     C39254   5.642   5.223   6.719 -0.1964  0.2248 -0.8178
  285MOL0     C39255   5.501   5.180   6.718 -0.3937  0.6197  0.0184
  285MOL0     C39256   5.419   5.209   6.843 -0.6282  0.0006  0.7321
  285MOL0     C39257   5.357   5.224   6.942  0.3254 -0.4913  0.7711
  285MOL0     C39258   6.118   5.490   6.609  0.2760  0.1108  0.3087
  285MOL0     C39259   6.253   5.509   6.619 -0.4222  0.0665 -0.0852
  285MOL0     C39260   6.316   5.586   6.496  0.7227 -0.0014  0.4635
  285MOL0     H39261   6.722   5.387   6.817  0.8291  2.0426  2.5635
  285MOL0     H39262   6.960   5.394   6.791 -0.4955  1.1881  1.7177
  285MOL0     H39263   7.089   5.384   6.498 -1.3242 -2.3736  0.9191
  285MOL0     H39264   7.118   5.331   6.668  1.5062 -0.2063 -0.1424
  285MOL0     H39265   7.333   5.448   6.496  2.3863  0.0354  0.3855
  285MOL0     H39266   7.340   5.455   6.677  1.3886 -2.3601  0.1295
  285MOL0     H39267   7.295   5.197   6.636 -0.2335  1.3904  0.9271
  285MOL0     H39268   7.348   5.223   6.480 -1.0002  0.1811  0.4230
  285MOL0     H39269   7.521   5.288   6.721  3.0714 -1.8577 -0.0180
  285MOL0     H39270   7.525   5.136   6.635 -1.8982 -0.5698  0.5519
  285MOL0     H39271   7.699   5.333   6.594  0.6309 -0.8129 -1.4138
  285MOL0     H39272   7.582   5.401   6.486 -0.1169 -0.0345  1.0055
  285MOL0     H39273   7.707   5.132   6.461  0.1717  0.5964 -0.8505
  285MOL0     H39274   7.566   5.168   6.374  1.2209 -2.7629  0.7552
  285MOL0     H39275   7.677   5.363   6.260 -1.7991 -1.8090 -0.4362
  285MOL0     H39276   7.761   5.212   6.229 -0.4364 -0.6025 -0.4347
  285MOL0     H39277   7.837   5.416   6.443 -3.6739  1.4098 -2.7968
  285MOL0     H39278   7.904   5.253   6.424 -1.7533 -1.9138 -1.3478
  285MOL0     H39279   8.150   5.276   6.317 -0.4380 -0.9481 -1.3286
  285MOL0     H39280   8.286   5.438   5.993  0.7069 -1.5223 -1.2043
  285MOL0     H39281   8.305   5.288   6.094  0.0582 -0.1192  1.6703
  285MOL0     H39282   8.403   5.567   6.164 -1.1771 -0.6330 -3.0283
  285MOL0     H39283   8.400   5.438   6.284 -0.9446  0.6107 -0.5647
  285MOL0     H39284   8.557   5.307   6.141 -1.2887 -0.5228  1.2994
  285MOL0     H39285   8.586   5.459   6.046  1.8056 -1.2427 -0.1991
  285MOL0     H39286   8.627   5.458   6.342 -0.8959  0.0930  0.1077
  285MOL0     H39287   8.756   5.419   6.215 -0.8890 -0.5133  1.0463
  285MOL0     H39288   8.563   5.756   6.390  0.7769  2.8048  0.5957
  285MOL0     H39289   8.674   6.000   6.601 -0.7476  0.0576 -1.3863
  285MOL0     H39290   8.673   5.864   6.709  1.4654  2.4540 -0.2433
  285MOL0     H39291   8.536   5.883   6.602  0.0780 -4.8464  0.5799
  285MOL0     H39292   9.325   5.782   6.701  1.5656 -1.4187 -2.0349
  285MOL0     H39293   9.540   5.883   6.635  0.7636 -0.1184 -0.8102
  285MOL0     H39294   9.718   6.063   6.612  1.3725  2.1652  0.3001
  285MOL0     H39295   9.684   5.966   6.457  1.3344 -0.1476  0.1556
  285MOL0     H39296   9.790   6.142   6.327  2.4669 -2.4996 -0.6432
  285MOL0     H39297   9.817   6.234   6.484  1.1848 -0.4519  1.0793
  285MOL0     H39298   9.941   5.972   6.390 -0.7855  0.2570  0.6684
  285MOL0     H39299   9.947   6.046   6.556  0.1594 -1.4231 -0.4273
  285MOL0     H39300  10.051   6.252   6.453  2.6757  1.1563 -2.6812
  285MOL0     H39301  10.037   6.200   6.290  0.8685 -3.4537 -1.4014
  285MOL0     H39302  10.201   6.070   6.512 -0.5852 -0.2637  0.1415
  285MOL0     H39303  10.207   6.026   6.340  0.9669 -1.4552  1.7999
  285MOL0     H39304  10.274   6.297   6.461 -1.6506 -3.1888  3.0826
  285MOL0     H39305  10.286   6.269   6.289  0.6463 -1.3839 -0.3592
  285MOL0     H39306  10.452   6.079   6.355 -0.4590  1.3819 -2.9561
  285MOL0     H39307  10.479   6.191   6.494  0.2098 -2.0525  0.2189
  285MOL0     H39308  10.511   6.376   6.351  0.2126 -0.2568 -0.7640
  285MOL0     H39309  10.505   6.287   6.203  0.1312 -0.5644 -0.2060
  285MOL0     H39310   9.321   6.201   6.441  2.4993 -0.8254 -0.6764
  285MOL0     H39311   9.114   6.092   6.493  0.9060 -1.4622 -3.6370
  285MOL0     H39312   9.041   5.794   6.378 -0.0642  1.1292  1.8010
  285MOL0     H39313   8.925   5.637   6.222  0.8389 -1.0168  1.0260
  285MOL0     H39314   6.937   5.709   6.525  0.1609 -0.7892 -0.1998
  285MOL0     H39315   6.684   5.702   6.528 -1.6115  0.4344  2.4238
  285MOL0     H39316   6.294   5.353   6.921 -1.0938  1.1479  0.8615
  285MOL0     H39317   6.037   5.328   6.889 -0.0235  0.6756  0.6148
  285MOL0     H39318   5.840   5.358   6.877  1.0161  3.0161  1.3691
  285MOL0     H39319   5.803   5.511   6.823 -0.0954  0.5560 -1.4569
  285MOL0     H39320   5.634   5.429   6.661  1.0493 -0.5151 -0.5501
  285MOL0     H39321   5.596   5.400   6.833  0.5513  2.0254  0.7871
  285MOL0     H39322   5.683   5.200   6.620  2.8903 -2.3618  0.8796
  285MOL0     H39323   5.699   5.162   6.789 -1.3679 -0.0341 -0.0747
  285MOL0     H39324   5.517   5.073   6.705  2.4594  1.1671 -1.9086
  285MOL0     H39325   5.455   5.230   6.632 -0.5180 -0.5523 -0.6159
  285MOL0     H39326   5.299   5.230   7.031 -2.6883  3.2993 -1.1695
  285MOL0     H39327   6.071   5.534   6.521 -0.0908  0.8334  0.8537
  285MOL0     H39328   6.351   5.688   6.512  0.1994  0.4521 -1.1110
  285MOL0     H39329   6.395   5.525   6.451 -0.6202  0.2108 -2.3856
  285MOL0     H39330   6.241   5.602   6.417  0.2110  0.6270  1.0618
  286MOL0     O39331   1.704   5.643   2.371 -0.1928  0.1039  0.3604
  286MOL0     C39332   1.672   5.703   2.266  1.2078  1.0981 -0.4210
  286MOL0     O39333   1.550   5.685   2.196  0.5817  0.0128  0.2362
  286MOL0     C39334   1.444   5.626   2.243  0.1402 -0.7285 -0.0042
  286MOL0     C39335   1.346   5.566   2.162 -0.5206 -0.6228 -0.3090
  286MOL0     C39336   1.230   5.507   2.207  0.3509  0.4225 -0.2701
  286MOL0     C39337   1.204   5.519   2.343 -0.4849  0.0245 -0.1851
  286MOL0     O39338   1.105   5.450   2.413 -0.3180  0.3654 -1.1828
  286MOL0     C39339   1.019   5.366   2.337  1.0191  0.3181  0.9219
  286MOL0     C39340   0.912   5.282   2.424 -0.7099  0.7275 -0.3062
  286MOL0     C39341   0.831   5.197   2.316 -0.3206 -0.2760 -0.3457
  286MOL0     C39342   0.725   5.106   2.344 -0.1341 -0.8045 -0.9679
  286MOL0     C39343   0.659   5.043   2.203  0.3384 -0.9041 -0.0059
  286MOL0     C39344   0.516   4.976   2.239 -0.2676  0.0944 -0.3237
  286MOL0     C39345   0.537   4.836   2.320  0.7091 -0.7940  0.6745
  286MOL0     C39346   0.595   4.718   2.235 -0.5175  0.9350  0.3215
  286MOL0     N39347   0.557   4.697   2.095  0.6748  0.2791 -0.0014
  286MOL0     C39348   0.631   4.707   1.979  0.4355 -0.7491 -0.3978
  286MOL0     C39349   0.550   4.682   1.876  0.0595 -0.3326  0.1529
  286MOL0     C39350   0.595   4.679   1.737 -0.3190  0.0463 -0.8754
  286MOL0     C39351   0.709   4.571   1.717 -0.4707 -0.5657  0.8692
  286MOL0     C39352   0.770   4.605   1.574 -0.9138 -0.1311 -0.0728
  286MOL0     C39353   0.887   4.509   1.531  0.8456 -0.7151 -0.0988
  286MOL0     O39354   0.982   4.547   1.629 -0.2243 -0.0849  0.3179
  286MOL0     C39355   1.117   4.523   1.607  0.0503  0.4999  0.0283
  286MOL0     C39356   1.212   4.573   1.694  0.4554 -0.7693 -0.6153
  286MOL0     C39357   1.351   4.559   1.662 -0.2594 -0.2589 -0.5302
  286MOL0     C39358   1.451   4.617   1.755  0.6070  0.3815 -0.6104
  286MOL0     C39359   1.385   4.493   1.544  0.0181 -0.6348  0.0779
  286MOL0     C39360   1.529   4.494   1.505  0.1030 -0.2261 -0.6758
  286MOL0     O39361   1.625   4.452   1.588 -0.2237 -0.7766  0.7183
  286MOL0     C39362   1.759   4.440   1.556 -0.6554  0.6208  0.1744
  286MOL0     C39363   1.804   4.320   1.496 -0.1905 -0.1193  0.0188
  286MOL0     C39364   1.942   4.306   1.465  0.3777  0.4084 -0.5458
  286MOL0     C39365   2.024   4.410   1.480 -0.1507  0.0374 -0.5301
  286MOL0     O39366   2.154   4.404   1.449  0.7587 -0.4755 -0.1519
  286MOL0     C39367   2.231   4.303   1.517 -0.5509  0.8807 -0.5214
  286MOL0     C39368   2.375   4.301   1.469 -0.0478 -0.4508  0.4441
  286MOL0     C39369   2.456   4.429   1.485  0.1636 -0.1640 -0.3875
  286MOL0     C39370   2.444   4.526   1.361  0.0208 -0.5017 -0.4648
  286MOL0     C39371   2.553   4.635   1.362  0.2574  0.2303 -0.8212
  286MOL0     C39372   2.690   4.586   1.334  0.2622 -0.1555 -0.7142
  286MOL0     C39373   2.775   4.707   1.305  0.9478  0.1430 -0.4877
  286MOL0     C39374   2.921   4.698   1.333  0.2675  0.1881 -0.4511
  286MOL0    Cl39375   2.994   4.837   1.250  0.8754  0.2032  0.1684
  286MOL0     C39376   1.980   4.531   1.525  0.3770 -0.2765 -0.3782
  286MOL0     C39377   1.847   4.544   1.571  0.2295  0.1275  0.6142
  286MOL0     O39378   1.551   4.538   1.397 -0.2257 -0.1156  0.6037
  286MOL0     C39379   1.287   4.432   1.460 -0.2707 -0.6623 -0.3737
  286MOL0     C39380   1.158   4.444   1.494 -0.2480 -0.1596 -0.0642
  286MOL0     N39381   0.426   4.670   1.923 -0.6108  0.3281 -0.5619
  286MOL0     N39382   0.429   4.662   2.057  0.0701  0.1905 -0.0627
  286MOL0     C39383   1.295   5.594   2.422  0.5906  0.2829  0.1539
  286MOL0     C39384   1.410   5.644   2.377 -0.7171 -0.7708  0.3011
  286MOL0     C39385   1.771   5.781   2.207 -0.5064 -0.7284  0.3308
  286MOL0     C39386   1.800   5.756   2.073  0.4326 -0.8031  0.4619
  286MOL0     C39387   1.911   5.811   2.014  0.0311 -0.3733  0.1296
  286MOL0     C39388   1.988   5.908   2.073 -0.7487  0.2389  0.8030
  286MOL0     O39389   2.096   5.961   2.006  0.5254  0.0560 -0.3696
  286MOL0     C39390   2.225   5.956   2.080  0.7975 -0.3511 -0.3961
  286MOL0     C39391   2.349   5.965   2.007 -0.6308 -0.2586  0.4828
  286MOL0     C39392   2.354   5.883   1.876 -0.1811 -0.1075  0.2787
  286MOL0     C39393   2.494   5.906   1.805 -0.5475 -0.3443 -0.3138
  286MOL0     C39394   2.616   5.888   1.888 -0.2119 -0.5554  1.0682
  286MOL0     C39395   2.718   5.879   1.960  0.0732  0.5241  0.2634
  286MOL0     C39396   1.954   5.941   2.200 -0.3168  0.1469 -0.4178
  286MOL0     C39397   1.849   5.879   2.275 -0.4132  0.0920 -0.1642
  286MOL0     C39398   1.821   5.925   2.417  0.2840  0.3938  0.1043
  286MOL0     H39399   1.368   5.554   2.056 -1.0240 -1.9885 -0.2798
  286MOL0     H39400   1.184   5.439   2.136  0.9359 -1.3927  1.0324
  286MOL0     H39401   1.075   5.295   2.276  1.7198 -0.3486  2.2871
  286MOL0     H39402   0.968   5.443   2.279 -2.6595 -0.5754  2.6436
  286MOL0     H39403   0.966   5.216   2.493 -0.1197  0.6875 -0.7884
  286MOL0     H39404   0.834   5.344   2.467 -0.6674 -0.2029  1.1987
  286MOL0     H39405   0.787   5.264   2.242  1.4592  1.0644 -0.2722
  286MOL0     H39406   0.901   5.130   2.265 -1.6021 -2.9664  1.1922
  286MOL0     H39407   0.783   5.033   2.401  2.9891  2.5033  0.4355
  286MOL0     H39408   0.648   5.134   2.416 -1.3813 -0.4466 -2.3742
  286MOL0     H39409   0.726   4.973   2.153  0.4131 -0.2996 -0.7814
  286MOL0     H39410   0.639   5.131   2.141  0.3826  0.3361  1.6824
  286MOL0     H39411   0.460   5.046   2.301  0.0182 -0.7638  0.9380
  286MOL0     H39412   0.457   4.955   2.149 -1.2369  1.9775 -0.1733
  286MOL0     H39413   0.435   4.811   2.353  0.6335 -1.6334 -0.1365
  286MOL0     H39414   0.613   4.839   2.398  0.4368  0.7197  0.9191
  286MOL0     H39415   0.704   4.710   2.243 -0.4134 -0.9978 -2.0808
  286MOL0     H39416   0.547   4.633   2.283  2.2207 -0.2736  1.0873
  286MOL0     H39417   0.738   4.725   1.979  0.4535 -0.8595 -0.6917
  286MOL0     H39418   0.634   4.778   1.714 -0.3501 -0.2967 -2.5180
  286MOL0     H39419   0.516   4.664   1.663  0.3736  1.9573 -2.0597
  286MOL0     H39420   0.787   4.581   1.793 -0.2921  2.3426  0.4059
  286MOL0     H39421   0.669   4.471   1.736 -2.1048  0.1310  1.2756
  286MOL0     H39422   0.684   4.604   1.506  0.4940  2.2747 -2.0373
  286MOL0     H39423   0.814   4.705   1.574 -3.6639  1.2080 -2.7785
  286MOL0     H39424   0.869   4.402   1.546  4.0807 -1.0186  2.7214
  286MOL0     H39425   0.901   4.531   1.425  0.8527  0.8596  0.1946
  286MOL0     H39426   1.179   4.638   1.774 -2.5381  3.3581 -4.6538
  286MOL0     H39427   1.523   4.687   1.712  0.9437  0.0386 -0.6092
  286MOL0     H39428   1.502   4.546   1.822  1.2749  4.1165  3.3179
  286MOL0     H39429   1.387   4.674   1.823  1.7811  0.4601  0.4778
  286MOL0     H39430   1.735   4.239   1.473  1.8231 -1.7514 -0.5682
  286MOL0     H39431   1.960   4.204   1.433 -0.8686 -0.9066  2.5349
  286MOL0     H39432   2.231   4.336   1.621  2.0912  0.2227 -0.2606
  286MOL0     H39433   2.177   4.208   1.518 -1.9581  1.5967  2.4079
  286MOL0     H39434   2.423   4.239   1.546  1.0767  0.0952  0.2062
  286MOL0     H39435   2.387   4.261   1.368  4.7098 -0.8726  0.9501
  286MOL0     H39436   2.561   4.403   1.501 -0.2288 -2.5284 -1.3130
  286MOL0     H39437   2.414   4.476   1.575 -1.0296 -0.8422 -0.5744
  286MOL0     H39438   2.343   4.569   1.363 -1.9124 -4.5879 -0.0777
  286MOL0     H39439   2.452   4.476   1.264  1.7501  0.3894 -0.8192
  286MOL0     H39440   2.527   4.703   1.281  1.1371  1.9587  0.2808
  286MOL0     H39441   2.555   4.674   1.464  0.3756 -1.2571 -0.2315
  286MOL0     H39442   2.679   4.526   1.243  0.1157 -3.7705  1.4868
  286MOL0     H39443   2.727   4.525   1.416 -0.6353  0.0185 -0.1604
  286MOL0     H39444   2.734   4.781   1.374  0.2870 -1.5203  0.9725
  286MOL0     H39445   2.756   4.739   1.202 -0.4920 -0.6214 -0.4831
  286MOL0     H39446   2.964   4.608   1.287  0.3148 -0.4468  0.7889
  286MOL0     H39447   2.925   4.696   1.443 -2.9892  0.5177 -0.2530
  286MOL0     H39448   2.059   4.606   1.532  0.7378 -0.7932  1.8293
  286MOL0     H39449   1.800   4.633   1.612 -2.0397 -0.9665  0.5466
  286MOL0     H39450   1.307   4.377   1.369  0.0567  1.1505 -1.4473
  286MOL0     H39451   1.082   4.389   1.440 -0.2273 -0.3041  0.0527
  286MOL0     H39452   1.267   5.598   2.527 -1.8531  3.2465 -0.4577
  286MOL0     H39453   1.469   5.699   2.449 -1.7122 -3.0519  3.0580
  286MOL0     H39454   1.728   5.689   2.026 -1.5761  1.9297 -0.6459
  286MOL0     H39455   1.940   5.775   1.916 -1.5476  1.7630 -1.2207
  286MOL0     H39456   2.227   6.038   2.152 -1.7054 -0.5739  0.0289
  286MOL0     H39457   2.229   5.862   2.136 -2.5800 -0.0593  0.5762
  286MOL0     H39458   2.432   5.926   2.068 -0.0496  0.0150 -0.1258
  286MOL0     H39459   2.375   6.068   1.983 -2.0428  0.5204  2.0832
  286MOL0     H39460   2.352   5.783   1.919  0.9582 -0.6950 -0.9731
  286MOL0     H39461   2.275   5.913   1.807 -1.4178  2.1464  2.5083
  286MOL0     H39462   2.494   6.010   1.771 -1.0177 -0.1479  0.2897
  286MOL0     H39463   2.512   5.848   1.714 -0.0340  0.5293 -0.7806
  286MOL0     H39464   2.808   5.858   2.013  1.3857  2.1353 -1.2160
  286MOL0     H39465   2.006   6.017   2.257  2.7906 -2.5376  0.6660
  286MOL0     H39466   1.823   6.035   2.424 -3.0739  0.5053  0.8824
  286MOL0     H39467   1.722   5.893   2.449  0.1836  1.8549  1.3475
  286MOL0     H39468   1.891   5.886   2.491  0.1793  0.5814  0.3051
  287MOL0     O39469   1.931   9.118   4.031 -0.5476 -0.3716 -0.2160
  287MOL0     C39470   1.936   9.008   4.093  0.1777 -1.2494 -0.4919
  287MOL0     O39471   2.044   8.928   4.091 -0.3346  0.5864 -0.4465
  287MOL0     C39472   2.157   8.946   4.007 -0.2899  0.0362 -0.4936
  287MOL0     C39473   2.221   9.071   3.998  0.8824  0.2809  0.8497
  287MOL0     C39474   2.340   9.076   3.930  0.0697 -0.1725 -0.8126
  287MOL0     C39475   2.396   8.969   3.858 -0.3362 -0.0202  0.0660
  287MOL0     O39476   2.523   8.988   3.801  0.2255 -0.0639  0.3111
  287MOL0     C39477   2.524   8.934   3.665 -0.1683  0.1858 -0.3187
  287MOL0     C39478   2.639   8.998   3.588 -0.4610 -1.1310  0.2028
  287MOL0     C39479   2.778   8.957   3.642 -0.3205  0.0461 -0.0010
  287MOL0     C39480   2.880   9.035   3.558  0.0890  0.2592 -0.2789
  287MOL0     C39481   3.025   9.028   3.617 -0.1290  0.5143  0.4494
  287MOL0     C39482   3.088   8.900   3.564 -0.2858  0.1583  0.5225
  287MOL0     C39483   3.243   8.879   3.593 -0.3922  0.0945  0.2999
  287MOL0     C39484   3.282   8.868   3.740 -0.5815  0.2325 -0.2828
  287MOL0     N39485   3.435   8.863   3.749  0.9984  0.1558 -0.4922
  287MOL0     C39486   3.508   8.747   3.765 -0.6129  0.0532 -0.6738
  287MOL0     C39487   3.638   8.787   3.747 -0.6566  0.3841 -0.7348
  287MOL0     C39488   3.760   8.694   3.748 -0.4576 -0.1568  0.0285
  287MOL0     C39489   3.880   8.782   3.779 -1.2309 -0.3982 -0.7903
  287MOL0     C39490   3.933   8.866   3.653  0.0335  0.7595  0.3305
  287MOL0     C39491   4.079   8.894   3.653 -0.4062 -0.5835 -0.2960
  287MOL0     O39492   4.150   8.778   3.625 -0.3705  0.4264 -0.4985
  287MOL0     C39493   4.282   8.789   3.625 -0.7083  0.3490 -0.3437
  287MOL0     C39494   4.350   8.800   3.508 -0.8451 -0.9920 -0.1774
  287MOL0     C39495   4.488   8.822   3.510  0.2440  0.0820  0.7599
  287MOL0     C39496   4.548   8.846   3.373 -0.5295  0.4628  0.2093
  287MOL0     C39497   4.562   8.829   3.633  0.6543  0.6204 -0.7889
  287MOL0     C39498   4.706   8.828   3.646  0.1555  0.2525 -0.3473
  287MOL0     O39499   4.767   8.819   3.773 -0.1103 -0.6279  0.1928
  287MOL0     C39500   4.895   8.857   3.800 -0.1882  0.0827 -1.1075
  287MOL0     C39501   4.954   8.967   3.742  0.4165 -0.2230 -0.8890
  287MOL0     C39502   5.085   9.001   3.777  0.4569  0.9632  0.0242
  287MOL0     C39503   5.154   8.940   3.885 -0.4781 -0.4613 -0.1106
  287MOL0     O39504   5.280   8.988   3.920  0.1931  0.5711  0.3296
  287MOL0     C39505   5.356   8.927   4.024  0.3201 -0.3648 -0.0275
  287MOL0     C39506   5.495   8.985   4.033  0.2485  0.5109 -0.2573
  287MOL0     C39507   5.478   9.131   4.069 -0.8126 -0.2471 -0.4224
  287MOL0     C39508   5.578   9.176   4.175  0.8261  0.9009 -0.0304
  287MOL0     C39509   5.583   9.322   4.202 -1.0889 -0.6357 -0.0962
  287MOL0     C39510   5.483   9.378   4.299 -0.3381  0.2091  0.2530
  287MOL0     C39511   5.519   9.522   4.345  0.3332 -0.7522 -0.2825
  287MOL0     C39512   5.436   9.572   4.466  0.1512  0.2485 -0.0877
  287MOL0    Cl39513   5.264   9.594   4.437  0.4923 -0.3669  0.4217
  287MOL0     C39514   5.084   8.832   3.952 -0.2595 -0.8905  0.4482
  287MOL0     C39515   4.954   8.801   3.913 -1.0675 -0.2302 -0.0391
  287MOL0     O39516   4.761   8.853   3.538  0.1877  0.0332 -0.1327
  287MOL0     C39517   4.491   8.811   3.754 -0.0846 -0.5429 -0.5339
  287MOL0     C39518   4.349   8.791   3.746 -0.6247  0.0713  0.9123
  287MOL0     N39519   3.635   8.926   3.721  0.2058 -0.6502  0.6134
  287MOL0     N39520   3.516   8.973   3.723  0.1848  0.1984  0.9572
  287MOL0     C39521   2.331   8.846   3.864  1.2290  0.0676 -0.0222
  287MOL0     C39522   2.209   8.837   3.940 -0.2103  0.7192  0.5501
  287MOL0     C39523   1.821   8.955   4.167 -0.1087  0.1492 -1.0827
  287MOL0     C39524   1.835   8.819   4.201  0.1382  0.6890 -0.1713
  287MOL0     C39525   1.727   8.751   4.261  0.1775 -0.2725  0.0641
  287MOL0     C39526   1.598   8.815   4.262  0.0957  0.3991 -0.9450
  287MOL0     O39527   1.493   8.746   4.307  0.3344  0.1504 -0.3418
  287MOL0     C39528   1.487   8.605   4.306  0.3912  0.0721 -1.0111
  287MOL0     C39529   1.341   8.587   4.318  0.3037  0.4049  0.3085
  287MOL0     C39530   1.308   8.439   4.342  0.9867  0.3092  0.8369
  287MOL0     C39531   1.325   8.351   4.212 -0.3531  1.1096 -0.0145
  287MOL0     C39532   1.281   8.218   4.229 -0.2800  0.4534  0.1290
  287MOL0     C39533   1.256   8.097   4.234 -0.4023 -0.6081  0.1342
  287MOL0     C39534   1.584   8.954   4.225 -0.8963  0.9461 -0.2868
  287MOL0     C39535   1.698   9.023   4.181  1.0256  0.1423  0.9758
  287MOL0     C39536   1.669   9.162   4.151 -0.4630 -0.2642  0.2044
  287MOL0     H39537   2.179   9.160   4.044  1.4496  0.8190  0.3591
  287MOL0     H39538   2.401   9.165   3.933 -2.9730  2.1429 -2.0943
  287MOL0     H39539   2.431   8.968   3.617 -1.1885  1.2024  2.2179
  287MOL0     H39540   2.533   8.826   3.658 -0.3791  0.0634  1.0454
  287MOL0     H39541   2.634   8.974   3.481 -0.5485  0.9589 -0.3030
  287MOL0     H39542   2.639   9.107   3.597 -0.5888 -1.1542  0.4692
  287MOL0     H39543   2.781   8.988   3.747 -0.0709  0.1419 -0.0371
  287MOL0     H39544   2.799   8.850   3.629  0.6989  0.5162 -3.1712
  287MOL0     H39545   2.889   9.000   3.455 -3.1874  0.6962 -0.8255
  287MOL0     H39546   2.851   9.141   3.554  0.2255  0.4066  1.5234
  287MOL0     H39547   3.022   9.014   3.725  3.3222 -1.6563  0.4465
  287MOL0     H39548   3.084   9.116   3.587  0.2989  0.4998  1.2108
  287MOL0     H39549   3.048   8.802   3.593  1.9324 -1.3225 -1.0919
  287MOL0     H39550   3.072   8.900   3.456 -0.1136  1.2798  0.4873
  287MOL0     H39551   3.294   8.960   3.539  0.1664 -1.2171 -1.2223
  287MOL0     H39552   3.280   8.790   3.541  2.3188  0.8215  0.8275
  287MOL0     H39553   3.245   8.951   3.801  1.4280  2.9518 -2.5074
  287MOL0     H39554   3.241   8.774   3.778 -1.6208  0.5184 -0.6852
  287MOL0     H39555   3.454   8.655   3.785  0.1990 -0.2503  0.1615
  287MOL0     H39556   3.781   8.654   3.648  0.2231 -0.8989  0.4605
  287MOL0     H39557   3.751   8.610   3.818  0.8755 -2.0982 -1.9968
  287MOL0     H39558   3.859   8.855   3.858  2.2496 -2.5046  2.4116
  287MOL0     H39559   3.960   8.718   3.815 -2.8001 -1.4826  0.9598
  287MOL0     H39560   3.919   8.806   3.563  0.2348 -0.2562  0.9676
  287MOL0     H39561   3.884   8.964   3.652  2.5924  2.1157 -0.0546
  287MOL0     H39562   4.102   8.961   3.570 -0.1255 -1.7445 -1.1703
  287MOL0     H39563   4.115   8.935   3.748  1.4136 -1.8916 -0.3732
  287MOL0     H39564   4.291   8.796   3.417  1.8190  2.2011 -2.2380
  287MOL0     H39565   4.470   8.873   3.301  2.3172  1.3259 -2.8033
  287MOL0     H39566   4.598   8.758   3.331 -2.1603 -0.4820  0.1890
  287MOL0     H39567   4.627   8.922   3.371 -0.5296  0.5018  1.2342
  287MOL0     H39568   4.895   9.036   3.683 -0.3327  0.2180  0.3394
  287MOL0     H39569   5.127   9.087   3.727  2.6991  0.7583  1.3958
  287MOL0     H39570   5.312   8.928   4.124  1.8448  1.8164  0.7021
  287MOL0     H39571   5.360   8.822   3.994  2.7843 -1.2074  2.7149
  287MOL0     H39572   5.558   8.927   4.101 -1.0734  0.8129  1.2806
  287MOL0     H39573   5.538   8.980   3.933 -0.1050 -3.5539 -0.3556
  287MOL0     H39574   5.375   9.148   4.103 -1.6068 -1.8908 -1.8511
  287MOL0     H39575   5.483   9.189   3.976 -3.1704  1.1462  0.2302
  287MOL0     H39576   5.674   9.151   4.129 -1.6481 -1.0917 -4.7651
  287MOL0     H39577   5.562   9.114   4.264  1.5875 -1.3265 -1.3943
  287MOL0     H39578   5.683   9.344   4.242 -1.7607  5.1174 -0.7586
  287MOL0     H39579   5.578   9.384   4.112  0.0772  2.4224  1.7915
  287MOL0     H39580   5.488   9.315   4.388 -0.0573 -0.7684 -0.4326
  287MOL0     H39581   5.379   9.370   4.263 -1.1046 -0.7049  2.5125
  287MOL0     H39582   5.496   9.587   4.260  0.0546 -1.2644 -0.6070
  287MOL0     H39583   5.624   9.530   4.373 -0.5328  0.8668  3.0024
  287MOL0     H39584   5.477   9.670   4.491  0.3785  0.2166 -0.3333
  287MOL0     H39585   5.455   9.502   4.548  0.4953  0.6504  0.1818
  287MOL0     H39586   5.135   8.770   4.025  0.5249 -2.7433 -1.5787
  287MOL0     H39587   4.894   8.725   3.962 -0.9346  0.3353  1.0196
  287MOL0     H39588   4.535   8.825   3.852 -2.2653  2.1831  0.1749
  287MOL0     H39589   4.289   8.793   3.837  1.4023  2.9882  2.3739
  287MOL0     H39590   2.372   8.757   3.817  1.1468 -1.3542  2.3869
  287MOL0     H39591   2.156   8.742   3.937  0.5082  0.3020 -2.6120
  287MOL0     H39592   1.930   8.766   4.198  0.4612  1.2771 -2.3161
  287MOL0     H39593   1.737   8.651   4.301 -1.2478 -0.0547  1.0225
  287MOL0     H39594   1.530   8.561   4.215  0.3874 -1.6511 -0.2246
  287MOL0     H39595   1.540   8.570   4.395 -0.2038  0.6150 -0.4306
  287MOL0     H39596   1.282   8.623   4.233  1.2771  0.7713 -0.2239
  287MOL0     H39597   1.317   8.634   4.414  0.4195 -2.5118  1.9153
  287MOL0     H39598   1.374   8.396   4.417  2.0446  2.6732  1.3357
  287MOL0     H39599   1.208   8.432   4.385  1.0447 -1.2230  0.7895
  287MOL0     H39600   1.432   8.350   4.187  0.1981 -0.7403  2.0622
  287MOL0     H39601   1.272   8.397   4.127 -1.0053  2.3026  1.0016
  287MOL0     H39602   1.212   8.001   4.254 -1.9358  0.3716  1.6975
  287MOL0     H39603   1.488   9.001   4.208 -2.5879 -2.0208  0.2891
  287MOL0     H39604   1.747   9.217   4.204 -0.3501 -1.4435  1.3304
  287MOL0     H39605   1.662   9.172   4.043  0.3959 -0.9043  0.0789
  287MOL0     H39606   1.571   9.197   4.185  0.0978  1.6142  0.0066
  288MOL0     O39607  11.325   0.887   0.501 -0.7787  0.2386 -0.1877
  288MOL0     C39608  11.356   0.781   0.446  0.0367  0.4698 -0.1562
  288MOL0     O39609  11.492   0.741   0.436  0.0228  0.0093 -0.1759
  288MOL0     C39610  11.585   0.838   0.484  0.0613 -0.6327  0.6828
  288MOL0     C39611  11.589   0.889   0.614  0.3671 -0.0927  0.3131
  288MOL0     C39612  11.693   0.981   0.656 -0.0634 -0.2546 -1.0265
  288MOL0     C39613  11.788   1.028   0.568 -0.1617  1.0477 -0.8182
  288MOL0     O39614  11.884   1.124   0.607  0.7174  0.3001  0.0154
  288MOL0     C39615  11.863   1.219   0.711 -0.5688 -0.0285  0.2116
  288MOL0     C39616  11.766   1.331   0.675 -1.0807  0.3403 -0.1658
  288MOL0     C39617  11.788   1.393   0.538  0.4312  1.1309  0.4872
  288MOL0     C39618  11.892   1.504   0.546  0.4611  0.0486 -1.3979
  288MOL0     C39619  11.989   1.508   0.428  0.3221  0.5211  0.6938
  288MOL0     C39620  12.108   1.609   0.439  0.1933  0.5220 -0.2656
  288MOL0     C39621  12.203   1.597   0.329 -0.0882  0.4749  0.3148
  288MOL0     C39622  12.163   1.685   0.211  0.3006 -0.2636 -0.3217
  288MOL0     N39623  12.251   1.647   0.097 -0.5105  0.3224 -0.6063
  288MOL0     C39624  12.361   1.718   0.054 -0.1394  0.4368  0.1119
  288MOL0     C39625  12.409   1.646  -0.050 -0.2806 -0.3276 -0.4028
  288MOL0     C39626  12.522   1.681  -0.139  0.5021 -1.5644 -0.5082
  288MOL0     C39627  12.609   1.793  -0.078 -0.1180 -0.0521 -0.1973
  288MOL0     C39628  12.742   1.802  -0.158  0.2468  0.0350 -0.0246
  288MOL0     C39629  12.864   1.857  -0.080 -0.1808 -0.0046  0.1466
  288MOL0     O39630  12.871   1.780   0.043 -0.3756  0.2914  0.1872
  288MOL0     C39631  12.945   1.845   0.146  0.8645 -0.6608  0.3966
  288MOL0     C39632  12.906   1.849   0.283  0.2143 -0.0393 -0.0685
  288MOL0     C39633  12.986   1.888   0.391 -0.7633 -0.1584  0.7499
  288MOL0     C39634  12.933   1.895   0.531  0.2201  0.4702  0.1857
  288MOL0     C39635  13.104   1.944   0.350 -0.8579 -1.1081  0.0156
  288MOL0     C39636  13.197   2.011   0.441 -0.4314  0.1613  0.6276
  288MOL0     O39637  13.327   1.960   0.429  0.3950 -0.0720  0.7258
  288MOL0     C39638  13.432   2.038   0.469 -0.1646  0.3884 -0.6014
  288MOL0     C39639  13.461   2.064   0.605  0.0363 -0.0985 -0.5642
  288MOL0     C39640  13.562   2.150   0.642  0.6385 -0.0856 -0.4961
  288MOL0     C39641  13.659   2.202   0.555  0.0337 -0.1628 -0.5360
  288MOL0     O39642  13.762   2.271   0.608  0.3800 -0.3204 -0.0785
  288MOL0     C39643  13.880   2.308   0.530  0.1544  0.3500 -0.1098
  288MOL0     C39644  13.987   2.343   0.637  0.1492 -0.2909 -1.0739
  288MOL0     C39645  14.011   2.233   0.741  0.8826 -0.6863 -0.8186
  288MOL0     C39646  14.140   2.236   0.820 -0.7648 -0.5665 -0.6983
  288MOL0     C39647  14.127   2.348   0.934 -0.3054 -0.1574 -0.1172
  288MOL0     C39648  14.259   2.398   0.998  0.8545  0.3127 -0.0892
  288MOL0     C39649  14.344   2.465   0.884 -0.0012  0.1222  0.7879
  288MOL0     C39650  14.434   2.577   0.944 -0.0744 -0.0284  0.2378
  288MOL0    Cl39651  14.534   2.502   1.076 -0.0501 -0.1362 -0.3219
  288MOL0     C39652  13.634   2.172   0.419 -0.3132 -1.0759 -0.3476
  288MOL0     C39653  13.529   2.085   0.381 -0.8167 -0.0515 -0.3416
  288MOL0     O39654  13.169   2.101   0.529 -0.0979  0.9627  0.5505
  288MOL0     C39655  13.159   1.946   0.215 -0.3220  0.9400 -1.0108
  288MOL0     C39656  13.075   1.889   0.112 -0.0861 -0.3471 -0.8179
  288MOL0     N39657  12.322   1.541  -0.070 -0.9778 -0.6855 -0.3436
  288MOL0     N39658  12.238   1.533   0.024 -0.6416 -0.3376  0.1893
  288MOL0     C39659  11.780   0.992   0.435 -1.1345 -0.1487  0.3283
  288MOL0     C39660  11.684   0.895   0.403 -0.0397 -0.9033  0.2455
  288MOL0     C39661  11.244   0.691   0.394 -0.1113 -0.6827  0.0757
  288MOL0     C39662  11.115   0.757   0.373  0.1280 -0.3772  0.0995
  288MOL0     C39663  11.007   0.689   0.332  0.0061 -0.2408  0.2024
  288MOL0     C39664  11.014   0.549   0.307  0.7495  0.8023 -0.3084
  288MOL0     O39665  10.906   0.479   0.254  0.1871  0.4437 -0.2683
  288MOL0     C39666  10.834   0.414   0.359  0.3414  0.2933  0.1495
  288MOL0     C39667  10.703   0.365   0.296  0.4689 -0.0027 -0.4523
  288MOL0     C39668  10.604   0.485   0.258  0.3693  0.1267  0.2755
  288MOL0     C39669  10.583   0.585   0.373  0.0769 -0.9093  0.2805
  288MOL0     C39670  10.476   0.681   0.341 -1.3990  0.1103 -0.2239
  288MOL0     C39671  10.394   0.765   0.307  0.6798  0.4851  0.2732
  288MOL0     C39672  11.140   0.485   0.319  0.9738  0.8355  0.3111
  288MOL0     C39673  11.255   0.552   0.361  0.1266  0.1811  0.2469
  288MOL0     C39674  11.385   0.475   0.379  0.1881 -0.1189  0.4950
  288MOL0     H39675  11.510   0.847   0.675 -3.0756  3.4220 -1.2943
  288MOL0     H39676  11.694   1.021   0.756  1.3889  0.3362 -1.2646
  288MOL0     H39677  11.957   1.267   0.739  0.4791 -2.3404  0.8677
  288MOL0     H39678  11.837   1.169   0.805  2.4517  0.6224  1.5249
  288MOL0     H39679  11.666   1.287   0.668 -1.5049  1.4895 -2.4336
  288MOL0     H39680  11.772   1.410   0.750  0.3959  0.6720 -0.5820
  288MOL0     H39681  11.807   1.309   0.471 -1.7001  0.7654  0.2696
  288MOL0     H39682  11.688   1.429   0.514 -0.1065  0.0829  1.0872
  288MOL0     H39683  11.848   1.604   0.551 -1.9647 -0.9121 -2.0325
  288MOL0     H39684  11.960   1.487   0.630  1.0156 -2.8784 -2.3138
  288MOL0     H39685  11.935   1.519   0.334 -0.3827 -0.3931  0.9828
  288MOL0     H39686  12.033   1.408   0.430 -0.7179  0.0574  2.0229
  288MOL0     H39687  12.079   1.710   0.472  1.7361 -0.0278  3.2655
  288MOL0     H39688  12.159   1.578   0.531  1.1505  1.2048 -0.5538
  288MOL0     H39689  12.213   1.493   0.295 -0.5349  1.0880 -1.8299
  288MOL0     H39690  12.304   1.626   0.360 -0.0634  1.5511 -0.6887
  288MOL0     H39691  12.061   1.655   0.183 -0.3181 -0.4907  1.9865
  288MOL0     H39692  12.168   1.791   0.237  6.5156 -0.3018  0.1475
  288MOL0     H39693  12.395   1.815   0.089  1.4384  0.0093 -0.1415
  288MOL0     H39694  12.479   1.715  -0.234  0.9823  1.0209  0.1252
  288MOL0     H39695  12.589   1.595  -0.144  0.6637 -1.8553  3.7700
  288MOL0     H39696  12.560   1.889  -0.064  1.7032  0.9370 -0.3526
  288MOL0     H39697  12.629   1.760   0.025  3.1117 -0.7544 -0.9301
  288MOL0     H39698  12.770   1.706  -0.201 -1.1013  0.3412 -1.6914
  288MOL0     H39699  12.721   1.864  -0.247 -3.9398 -0.3275  0.5173
  288MOL0     H39700  12.951   1.845  -0.145 -0.5627 -2.3621 -0.0084
  288MOL0     H39701  12.860   1.964  -0.058 -2.2391  0.7422 -3.1718
  288MOL0     H39702  12.802   1.822   0.300 -0.1086  1.8224  1.2376
  288MOL0     H39703  12.843   1.957   0.525  0.2353  0.4061 -1.1599
  288MOL0     H39704  13.016   1.920   0.598  2.1621 -3.3169 -0.5532
  288MOL0     H39705  12.903   1.799   0.573 -0.7092  0.5750 -0.2202
  288MOL0     H39706  13.391   2.036   0.684  0.2268  1.9680  0.4068
  288MOL0     H39707  13.568   2.182   0.745  0.0689 -0.5270 -0.3148
  288MOL0     H39708  13.919   2.229   0.466  1.4627 -1.0588  2.2896
  288MOL0     H39709  13.859   2.399   0.472 -0.3570 -1.0047 -2.1531
  288MOL0     H39710  14.083   2.371   0.592  0.4869  1.5452  0.6793
  288MOL0     H39711  13.956   2.430   0.695 -0.0201 -1.4145  0.5885
  288MOL0     H39712  13.994   2.140   0.685 -1.8233 -1.1716  0.6422
  288MOL0     H39713  13.924   2.227   0.807  0.6656 -0.5334 -1.0848
  288MOL0     H39714  14.222   2.261   0.752 -0.9977 -2.2487 -1.6640
  288MOL0     H39715  14.160   2.140   0.869  1.7510 -0.1621 -0.8168
  288MOL0     H39716  14.071   2.431   0.890  1.7891 -0.1232 -3.0319
  288MOL0     H39717  14.065   2.313   1.017 -1.6903 -2.9525 -2.1316
  288MOL0     H39718  14.317   2.318   1.044 -1.0699 -0.2960  1.4031
  288MOL0     H39719  14.242   2.473   1.076  3.4955  2.2335 -1.2142
  288MOL0     H39720  14.276   2.517   0.816 -0.9735 -0.7973  1.0255
  288MOL0     H39721  14.413   2.398   0.832 -3.1578 -2.3239 -0.5913
  288MOL0     H39722  14.380   2.656   0.998 -1.7129  1.1987 -2.9475
  288MOL0     H39723  14.505   2.627   0.877 -1.1643  2.5097  0.8244
  288MOL0     H39724  13.703   2.214   0.347  0.6827  0.4674  1.4212
  288MOL0     H39725  13.515   2.068   0.275  1.7958 -1.4109 -0.5583
  288MOL0     H39726  13.259   1.977   0.186  2.7410 -6.8879 -1.3643
  288MOL0     H39727  13.115   1.876   0.012 -1.0035 -0.6324 -1.1624
  288MOL0     H39728  11.847   1.042   0.367 -0.4502  3.4691  3.3473
  288MOL0     H39729  11.681   0.861   0.300 -1.3164  1.7295 -0.6741
  288MOL0     H39730  11.099   0.863   0.389 -1.5026 -0.5764 -0.0267
  288MOL0     H39731  10.916   0.746   0.317  0.3190 -0.1150 -1.4030
  288MOL0     H39732  10.896   0.332   0.397 -0.3005 -1.3194 -2.0710
  288MOL0     H39733  10.806   0.489   0.434  1.4954  1.6893 -0.7367
  288MOL0     H39734  10.651   0.298   0.366 -1.9744  3.0122  0.9055
  288MOL0     H39735  10.723   0.305   0.207  1.9718 -1.7857  1.0047
  288MOL0     H39736  10.650   0.542   0.176 -0.7510 -1.4545 -1.5332
  288MOL0     H39737  10.507   0.447   0.222  1.2262 -2.3855  0.4744
  288MOL0     H39738  10.675   0.640   0.394  0.5969 -2.0797  1.2081
  288MOL0     H39739  10.544   0.526   0.457 -1.0854  1.2680  1.3430
  288MOL0     H39740  10.325   0.846   0.290 -1.6425 -0.7326  2.9804
  288MOL0     H39741  11.151   0.381   0.290 -0.7181 -0.3511  3.3971
  288MOL0     H39742  11.404   0.447   0.483  0.4780 -0.2382  0.4129
  288MOL0     H39743  11.383   0.384   0.318  0.3466 -0.6602  1.2799
  288MOL0     H39744  11.474   0.522   0.337  0.5680 -2.0268 -1.0283
  289MOL0     O39745  10.228   1.107   8.334  0.6447  0.1868 -0.2854
  289MOL0     C39746  10.161   1.107   8.229 -0.6655  1.0768  0.9136
  289MOL0     O39747  10.211   1.113   8.100  0.4430 -0.1640 -0.0807
  289MOL0     C39748  10.339   1.110   8.061 -0.0876  0.2350 -0.2749
  289MOL0     C39749  10.445   1.054   8.136  0.9129  1.4789  0.2017
  289MOL0     C39750  10.570   1.054   8.082 -1.0992 -0.4964 -0.3291
  289MOL0     C39751  10.605   1.108   7.958  1.0939 -0.4927  0.9936
  289MOL0     O39752  10.725   1.097   7.888 -0.7769  0.3824 -0.4655
  289MOL0     C39753  10.835   1.025   7.949  0.1288 -0.9856  0.3170
  289MOL0     C39754  10.949   1.016   7.843 -0.3378 -0.0696  0.0787
  289MOL0     C39755  11.094   1.008   7.898  0.0295 -0.8563  0.4035
  289MOL0     C39756  11.204   1.016   7.797 -0.1692 -0.1889 -0.6099
  289MOL0     C39757  11.344   0.993   7.858  0.4135 -0.7154  0.4908
  289MOL0     C39758  11.453   1.050   7.770 -0.7019 -1.0414  0.0166
  289MOL0     C39759  11.549   0.935   7.733 -0.4039 -0.2777 -0.9653
  289MOL0     C39760  11.669   0.992   7.656 -0.7653  0.0367 -0.0268
  289MOL0     N39761  11.763   1.055   7.748 -0.0036 -0.3534 -0.7272
  289MOL0     C39762  11.888   1.001   7.771 -0.2748 -0.3051  0.1839
  289MOL0     C39763  11.955   1.096   7.842  0.8887  0.0773  0.8149
  289MOL0     C39764  12.107   1.098   7.860 -0.0217  0.3775 -0.2878
  289MOL0     C39765  12.199   1.075   7.730  0.8288  0.5085 -0.7849
  289MOL0     C39766  12.345   1.037   7.759  0.1558 -0.5288 -0.7315
  289MOL0     C39767  12.428   1.167   7.734  0.4199  0.3870 -0.1483
  289MOL0     O39768  12.566   1.131   7.745 -0.2073 -0.1842  0.1584
  289MOL0     C39769  12.666   1.218   7.779  1.4628 -0.1196  0.4128
  289MOL0     C39770  12.643   1.342   7.826  0.6443 -1.2173 -0.3765
  289MOL0     C39771  12.743   1.432   7.871  0.7991  0.8883 -0.0785
  289MOL0     C39772  12.688   1.554   7.938  0.0507  0.1878  0.0595
  289MOL0     C39773  12.880   1.388   7.870  0.8919 -0.8378 -0.2042
  289MOL0     C39774  12.999   1.473   7.924  0.0294  1.0330  0.0596
  289MOL0     O39775  13.119   1.425   7.894  0.0361  0.0845  0.6868
  289MOL0     C39776  13.210   1.451   7.995  0.3333 -0.0179 -0.1798
  289MOL0     C39777  13.253   1.351   8.090 -0.0147 -0.3760  0.3718
  289MOL0     C39778  13.363   1.388   8.181  0.0632 -0.0077  0.7696
  289MOL0     C39779  13.427   1.510   8.186  0.0174 -0.3970 -0.1703
  289MOL0     O39780  13.513   1.544   8.286 -0.1644 -0.8178  0.3293
  289MOL0     C39781  13.583   1.670   8.287 -0.8004 -0.5398 -0.4866
  289MOL0     C39782  13.667   1.670   8.415  0.8841  0.3368  0.9821
  289MOL0     C39783  13.777   1.774   8.418 -0.3447 -0.1997  0.2718
  289MOL0     C39784  13.871   1.751   8.529  0.0188 -0.1490 -0.0795
  289MOL0     C39785  13.985   1.855   8.525 -0.6730 -0.4149  0.5178
  289MOL0     C39786  14.120   1.789   8.500  0.0710 -0.3161 -1.2027
  289MOL0     C39787  14.221   1.900   8.511  0.1792  0.1677 -0.3596
  289MOL0     C39788  14.360   1.848   8.530 -0.0898 -0.4120  0.4871
  289MOL0    Cl39789  14.383   1.758   8.675 -0.0546  0.3166 -0.0068
  289MOL0     C39790  13.380   1.599   8.091  0.1255 -0.1096  0.5070
  289MOL0     C39791  13.271   1.580   8.001  0.7557  0.2379  0.5638
  289MOL0     O39792  12.980   1.569   8.000 -0.4137  0.3847  0.6478
  289MOL0     C39793  12.901   1.262   7.816 -0.2815 -0.3709 -0.3892
  289MOL0     C39794  12.794   1.180   7.782 -0.4355  0.1139 -0.0547
  289MOL0     N39795  11.872   1.196   7.874  0.0165 -0.9505  0.0240
  289MOL0     N39796  11.765   1.181   7.805  0.8095 -0.6310 -1.0990
  289MOL0     C39797  10.500   1.169   7.889 -0.0589  0.7678 -0.4751
  289MOL0     C39798  10.371   1.169   7.943  1.2764 -1.1695 -0.3092
  289MOL0     C39799  10.015   1.086   8.241 -0.4368 -0.1845 -0.2001
  289MOL0     C39800   9.938   1.134   8.348  0.1659 -0.8307 -0.9411
  289MOL0     C39801   9.796   1.123   8.350 -0.4953  0.7639  0.4238
  289MOL0     C39802   9.734   1.058   8.238  0.2491 -0.5720  1.3486
  289MOL0     O39803   9.594   1.055   8.227  0.0184  0.1997  0.0795
  289MOL0     C39804   9.530   1.019   8.353  1.0518 -0.7304 -0.3071
  289MOL0     C39805   9.384   0.955   8.323 -0.6134 -0.0428  0.1195
  289MOL0     C39806   9.343   0.849   8.426  0.7052 -0.0300 -0.0879
  289MOL0     C39807   9.324   0.887   8.569 -0.1723 -0.1609  0.3298
  289MOL0     C39808   9.255   1.014   8.598  0.2112 -0.1303 -0.0246
  289MOL0     C39809   9.202   1.122   8.629  0.2091  0.2575 -0.5828
  289MOL0     C39810   9.808   0.994   8.139 -0.1185 -0.2204  0.4573
  289MOL0     C39811   9.945   1.005   8.143  0.9352  0.0272  0.6110
  289MOL0     C39812  10.008   0.933   8.032 -0.7668 -0.4688 -0.1025
  289MOL0     H39813  10.435   1.015   8.237  0.5446  1.0612  0.0072
  289MOL0     H39814  10.654   1.014   8.139 -1.5951 -1.9684 -0.5901
  289MOL0     H39815  10.799   0.927   7.982  2.1756 -1.6004  0.8647
  289MOL0     H39816  10.868   1.072   8.043  0.2971 -2.0487  0.8051
  289MOL0     H39817  10.930   0.924   7.786 -1.3149  1.3859 -2.1126
  289MOL0     H39818  10.947   1.099   7.771  1.9485 -0.8552 -0.9828
  289MOL0     H39819  11.104   1.091   7.970 -2.6148 -0.4881  0.4617
  289MOL0     H39820  11.108   0.921   7.963 -2.0549 -1.6917 -0.1603
  289MOL0     H39821  11.186   0.940   7.720 -1.5525 -1.1235  0.5699
  289MOL0     H39822  11.200   1.115   7.751 -0.1849 -0.0638 -0.3387
  289MOL0     H39823  11.355   0.884   7.869 -0.7663 -0.8020  0.8871
  289MOL0     H39824  11.364   1.055   7.946  0.3722 -0.3846  0.2690
  289MOL0     H39825  11.408   1.069   7.672  2.3600 -5.7428 -2.6973
  289MOL0     H39826  11.494   1.142   7.814 -0.2793 -0.1644 -2.0806
  289MOL0     H39827  11.510   0.854   7.672 -1.3977  1.6170 -2.9878
  289MOL0     H39828  11.593   0.884   7.819  0.2585 -2.2476 -2.4058
  289MOL0     H39829  11.719   0.914   7.599 -2.0581 -0.2341 -0.8087
  289MOL0     H39830  11.631   1.062   7.581 -1.9952  0.1105  0.6340
  289MOL0     H39831  11.938   0.922   7.716  0.8303 -1.6272  2.8626
  289MOL0     H39832  12.143   1.024   7.932 -0.5365 -1.6146 -1.9724
  289MOL0     H39833  12.132   1.199   7.893  0.9100 -0.4518  1.7378
  289MOL0     H39834  12.157   0.986   7.681 -1.5265 -0.1684  2.1951
  289MOL0     H39835  12.183   1.159   7.661 -1.7724  0.1723 -0.6880
  289MOL0     H39836  12.358   1.000   7.861 -1.2126  3.8575  1.3053
  289MOL0     H39837  12.382   0.965   7.685  0.4406  0.3799 -1.5079
  289MOL0     H39838  12.421   1.203   7.631 -3.7189 -0.1559 -0.2012
  289MOL0     H39839  12.391   1.243   7.803 -0.9283 -0.8878  0.5782
  289MOL0     H39840  12.544   1.387   7.820  1.1589 -0.2127 -1.9903
  289MOL0     H39841  12.596   1.587   7.889 -0.7718  1.0756  2.1309
  289MOL0     H39842  12.768   1.627   7.921  0.5862 -0.1662  1.0097
  289MOL0     H39843  12.674   1.548   8.046 -1.4889 -3.3861 -0.1917
  289MOL0     H39844  13.199   1.256   8.089 -3.1235  1.2612 -0.0296
  289MOL0     H39845  13.389   1.312   8.254 -2.4843  0.6816  2.5081
  289MOL0     H39846  13.657   1.665   8.206  1.4887 -0.3106  1.4759
  289MOL0     H39847  13.513   1.753   8.279  0.6948  0.5881 -3.0457
  289MOL0     H39848  13.597   1.683   8.499 -0.7653  1.9062 -0.5398
  289MOL0     H39849  13.713   1.571   8.416  1.5586  0.6111 -0.7745
  289MOL0     H39850  13.723   1.865   8.445  1.5897  1.3643 -0.8866
  289MOL0     H39851  13.837   1.789   8.328  0.4006 -0.6184  0.6909
  289MOL0     H39852  13.919   1.653   8.523  2.2716  0.8950  0.1760
  289MOL0     H39853  13.816   1.747   8.624 -1.5325  0.7480 -0.8870
  289MOL0     H39854  13.943   1.935   8.464 -2.1229  0.2487  2.2838
  289MOL0     H39855  13.991   1.900   8.625  2.3912  1.7713 -0.5120
  289MOL0     H39856  14.131   1.735   8.406  4.1067  0.5873 -1.4397
  289MOL0     H39857  14.129   1.706   8.571  0.7950 -0.9681 -2.0430
  289MOL0     H39858  14.206   1.973   8.591  0.8893 -0.7622  0.6527
  289MOL0     H39859  14.222   1.954   8.416 -0.5633  1.0985  0.1444
  289MOL0     H39860  14.434   1.928   8.538  1.6482 -1.8952 -0.0881
  289MOL0     H39861  14.387   1.784   8.445 -0.3205 -0.7316  0.6486
  289MOL0     H39862  13.423   1.696   8.073  0.5993 -0.5607 -0.9335
  289MOL0     H39863  13.238   1.662   7.937 -0.1451  2.0879  3.2002
  289MOL0     H39864  13.004   1.226   7.823 -0.3447 -0.8868 -1.7566
  289MOL0     H39865  12.827   1.081   7.750 -1.2372 -0.6212  1.2966
  289MOL0     H39866  10.515   1.216   7.792  0.7396  0.3615 -0.5541
  289MOL0     H39867  10.289   1.208   7.883  0.6653 -2.7060 -0.5273
  289MOL0     H39868   9.987   1.187   8.429 -1.0037  0.2257 -0.8949
  289MOL0     H39869   9.740   1.172   8.429  1.3163  4.7612 -0.5016
  289MOL0     H39870   9.592   0.951   8.413  1.4560 -0.4248 -0.3762
  289MOL0     H39871   9.527   1.108   8.417  0.5527 -1.0534  0.1332
  289MOL0     H39872   9.387   0.909   8.223 -1.3396 -3.1317  1.3871
  289MOL0     H39873   9.303   1.028   8.315 -2.4072 -2.0089 -0.8331
  289MOL0     H39874   9.248   0.806   8.393  0.9313  0.4427 -1.4060
  289MOL0     H39875   9.409   0.763   8.415  1.4355  0.6985 -1.7450
  289MOL0     H39876   9.418   0.904   8.621  1.3157 -0.8299 -2.0102
  289MOL0     H39877   9.281   0.798   8.616  1.6897 -0.9700  0.5905
  289MOL0     H39878   9.157   1.214   8.658 -0.5656 -0.8204  1.9172
  289MOL0     H39879   9.761   0.946   8.054  2.1964 -3.1212  0.6672
  289MOL0     H39880  10.100   0.882   8.060 -1.4218 -0.6249  1.9364
  289MOL0     H39881   9.940   0.851   8.008 -2.5028  0.3338  1.8120
  289MOL0     H39882  10.023   0.992   7.941 -1.5633 -1.3099 -0.7996
  290MOL0     O39883   4.987   3.983   9.573 -0.2455 -0.2203  1.2429
  290MOL0     C39884   4.998   4.101   9.614  0.2440  0.0911 -0.5023
  290MOL0     O39885   5.108   4.150   9.673 -0.1014  0.0483  0.0540
  290MOL0     C39886   5.211   4.061   9.689  0.7006  0.4235  0.3819
  290MOL0     C39887   5.217   3.975   9.808 -0.8635  0.5402 -0.2229
  290MOL0     C39888   5.320   3.885   9.823 -0.4048 -0.5320 -0.3956
  290MOL0     C39889   5.413   3.868   9.717 -0.1922  0.0455 -0.3211
  290MOL0     O39890   5.516   3.769   9.725 -0.0263 -0.4265 -0.0732
  290MOL0     C39891   5.592   3.749   9.846  0.6380  0.0703  0.4312
  290MOL0     C39892   5.711   3.664   9.821 -0.6225 -0.3343 -0.3147
  290MOL0     C39893   5.782   3.624   9.952 -0.3102  0.2240  0.0098
  290MOL0     C39894   5.920   3.692   9.965  0.0781  0.8978  0.0948
  290MOL0     C39895   5.980   3.668  10.104  0.2075 -0.3937 -0.4878
  290MOL0     C39896   6.098   3.761  10.127  0.3764  0.6686  0.2534
  290MOL0     C39897   6.061   3.907  10.182 -0.2020  0.2875 -0.3213
  290MOL0     C39898   5.955   3.978  10.110  0.1680  0.0520 -0.0779
  290MOL0     N39899   5.926   4.106  10.178  0.0654 -0.2562 -0.1354
  290MOL0     C39900   6.010   4.207  10.192  0.7596 -0.1374  0.1038
  290MOL0     C39901   5.935   4.296  10.259  1.2523  0.9412 -0.2343
  290MOL0     C39902   5.986   4.431  10.296  0.5300 -0.1632  0.4443
  290MOL0     C39903   5.982   4.439  10.455  0.2022  0.8330 -0.1945
  290MOL0     C39904   6.076   4.332  10.522 -0.0792  0.4077 -0.5115
  290MOL0     C39905   6.215   4.324  10.471  0.9852 -0.3880 -0.4503
  290MOL0     O39906   6.277   4.224  10.554 -0.3316  0.0555  0.2295
  290MOL0     C39907   6.413   4.203  10.532  0.5836 -0.3677  0.4239
  290MOL0     C39908   6.488   4.249  10.422  0.3950 -0.8300  0.7896
  290MOL0     C39909   6.627   4.221  10.413  0.0921 -1.2481 -0.1531
  290MOL0     C39910   6.689   4.271  10.289 -0.6336 -0.4241  0.4575
  290MOL0     C39911   6.697   4.154  10.513 -0.1115  0.6648 -0.3603
  290MOL0     C39912   6.841   4.124  10.494 -0.4455  0.3952 -0.7186
  290MOL0     O39913   6.912   4.222  10.555 -0.3726  0.1595  0.5618
  290MOL0     C39914   7.050   4.221  10.560 -0.0223  0.1023  0.5997
  290MOL0     C39915   7.117   4.340  10.573 -0.1027 -0.7201 -0.7424
  290MOL0     C39916   7.253   4.338  10.598  0.5864 -0.7323  0.1294
  290MOL0     C39917   7.323   4.226  10.625 -0.4853  0.8233  0.4121
  290MOL0     O39918   7.460   4.232  10.644 -0.4456 -0.0364 -0.5728
  290MOL0     C39919   7.533   4.358  10.635  0.7473  0.3788  0.9995
  290MOL0     C39920   7.679   4.307  10.636  0.0062 -0.1742  0.5683
  290MOL0     C39921   7.768   4.429  10.617 -0.3031 -0.1843 -0.5342
  290MOL0     C39922   7.909   4.385  10.615 -0.5263  0.4209  1.0934
  290MOL0     C39923   7.992   4.510  10.590 -0.7273 -0.5752  0.7646
  290MOL0     C39924   8.006   4.608  10.702 -0.2441 -0.3144  0.0503
  290MOL0     C39925   8.116   4.717  10.692  0.5948 -0.1967  0.8432
  290MOL0     C39926   8.061   4.855  10.737  0.5043 -0.2541 -0.0818
  290MOL0    Cl39927   8.202   4.968  10.767  0.5056 -0.1792 -0.4661
  290MOL0     C39928   7.256   4.107  10.624  0.4493  0.3755  0.5421
  290MOL0     C39929   7.120   4.101  10.587 -0.7667 -0.9131  0.3093
  290MOL0     O39930   6.882   4.021  10.450 -0.6868  0.3613 -0.3190
  290MOL0     C39931   6.624   4.104  10.628 -0.3141 -0.4342  0.6208
  290MOL0     C39932   6.480   4.129  10.635  0.1993  0.1524 -0.5266
  290MOL0     N39933   5.812   4.243  10.294  0.5469  0.9695 -0.2868
  290MOL0     N39934   5.813   4.124  10.247 -0.2281 -0.1224 -0.4455
  290MOL0     C39935   5.409   3.954   9.604 -0.0199  0.0642  0.5686
  290MOL0     C39936   5.309   4.045   9.594  0.1296 -0.2712 -0.5860
  290MOL0     C39937   4.879   4.179   9.608  0.0315 -0.7941  0.3111
  290MOL0     C39938   4.827   4.227   9.485  0.0226 -0.3583 -0.1749
  290MOL0     C39939   4.716   4.306   9.475 -0.3858 -0.3005 -0.1987
  290MOL0     C39940   4.669   4.360   9.593 -0.2895  0.1495 -0.2164
  290MOL0     O39941   4.566   4.457   9.599  0.4695 -0.6090  0.6362
  290MOL0     C39942   4.516   4.490   9.466  0.4280  0.5704  0.5021
  290MOL0     C39943   4.414   4.605   9.470 -0.3591 -0.8170 -0.3213
  290MOL0     C39944   4.276   4.542   9.506 -0.3590  0.0329  0.2894
  290MOL0     C39945   4.155   4.614   9.456 -0.0275  0.0562  0.3945
  290MOL0     C39946   4.146   4.740   9.525 -0.2103 -0.5279  0.1362
  290MOL0     C39947   4.149   4.839   9.589  0.1319  0.6784 -0.3016
  290MOL0     C39948   4.720   4.317   9.715  0.6636 -0.0988 -1.0403
  290MOL0     C39949   4.822   4.221   9.729  0.5492 -0.3339 -0.5112
  290MOL0     C39950   4.875   4.187   9.862  0.0585  0.6975 -0.2764
  290MOL0     H39951   5.144   3.984   9.888  0.2045 -2.0208  1.1783
  290MOL0     H39952   5.316   3.841   9.922  4.2765 -0.4714  0.0733
  290MOL0     H39953   5.528   3.696   9.917 -0.1299  0.1653 -0.1719
  290MOL0     H39954   5.613   3.844   9.897 -0.3892  0.9702 -0.7449
  290MOL0     H39955   5.663   3.582   9.766  1.7582 -2.6427  0.8517
  290MOL0     H39956   5.762   3.708   9.734 -1.5783  1.0293 -0.2299
  290MOL0     H39957   5.726   3.651  10.042  1.0740 -1.4348  1.4312
  290MOL0     H39958   5.804   3.517   9.946 -0.1755  0.3251 -2.2479
  290MOL0     H39959   5.995   3.666   9.889  3.3334  4.3499  1.7667
  290MOL0     H39960   5.905   3.795   9.931  0.0802  0.5505 -0.9919
  290MOL0     H39961   6.003   3.561  10.117  1.4599 -0.0448  0.3116
  290MOL0     H39962   5.897   3.688  10.172 -0.6425 -2.8162 -0.6866
  290MOL0     H39963   6.164   3.708  10.198  0.7539  1.1911  0.2970
  290MOL0     H39964   6.157   3.755  10.035  1.8708 -0.3268  1.2264
  290MOL0     H39965   6.149   3.965  10.212  0.4556 -0.1929 -1.2767
  290MOL0     H39966   6.014   3.895  10.280 -1.8217 -0.0339 -1.1168
  290MOL0     H39967   5.986   4.013  10.011  0.7931 -0.7709 -0.1781
  290MOL0     H39968   5.863   3.919  10.102 -0.0022  0.4724 -1.5975
  290MOL0     H39969   6.113   4.228  10.163  0.7415  0.7291  0.6001
  290MOL0     H39970   5.910   4.502  10.261  1.9755  1.0080 -0.4457
  290MOL0     H39971   6.080   4.454  10.245  0.9208 -0.3012  1.0820
  290MOL0     H39972   6.021   4.535  10.488 -2.0014  1.2295  1.5428
  290MOL0     H39973   5.881   4.435  10.497 -0.2471  0.1971 -1.2956
  290MOL0     H39974   6.078   4.358  10.628 -1.4069  2.2950 -0.8877
  290MOL0     H39975   6.028   4.234  10.511 -1.0744  0.7793  0.4032
  290MOL0     H39976   6.226   4.299  10.365  0.7583  1.1548 -0.8652
  290MOL0     H39977   6.258   4.424  10.483 -0.8252  0.3409  0.4082
  290MOL0     H39978   6.445   4.295  10.334 -0.3254  0.3705  1.7284
  290MOL0     H39979   6.633   4.348  10.236 -0.2240  1.7440  2.9567
  290MOL0     H39980   6.703   4.188  10.219  0.7246  2.1140 -2.5297
  290MOL0     H39981   6.789   4.310  10.311 -0.8407 -0.1678  0.9613
  290MOL0     H39982   7.063   4.434  10.569  0.4377 -0.2087  1.7589
  290MOL0     H39983   7.303   4.435  10.596  3.1032 -1.8473  2.2294
  290MOL0     H39984   7.513   4.410  10.541 -1.5716 -2.4041 -0.1705
  290MOL0     H39985   7.499   4.415  10.722  0.4776  0.7703  0.6423
  290MOL0     H39986   7.704   4.254  10.728  0.6400  0.6876  0.9037
  290MOL0     H39987   7.693   4.232  10.557 -1.9758  0.5127 -0.5063
  290MOL0     H39988   7.751   4.508  10.691  0.5780 -0.6307  0.1731
  290MOL0     H39989   7.744   4.483  10.525 -2.0118  1.0742  0.6070
  290MOL0     H39990   7.905   4.317  10.530  0.4335  0.7619  0.7582
  290MOL0     H39991   7.937   4.328  10.704  3.5318 -1.8251 -1.3136
  290MOL0     H39992   8.088   4.465  10.564 -1.3680 -0.1928 -2.7511
  290MOL0     H39993   7.964   4.557  10.496  1.4199  1.3476  0.9854
  290MOL0     H39994   8.021   4.553  10.795  0.2562 -1.3268 -0.6180
  290MOL0     H39995   7.907   4.655  10.709 -0.6016 -1.0314 -0.1289
  290MOL0     H39996   8.165   4.732  10.595 -0.2161 -0.5407  0.3634
  290MOL0     H39997   8.199   4.684  10.755  0.4574 -0.4217  0.9084
  290MOL0     H39998   8.010   4.854  10.834  0.5739  2.2668  0.0633
  290MOL0     H39999   7.989   4.895  10.666  1.6738  2.0746 -0.0886
  290MOL0     H40000   7.323   4.021  10.629 -0.5892 -0.7029 -1.9640
  290MOL0     H40001   7.073   4.003  10.590  0.3231 -1.4883 -0.6120
  290MOL0     H40002   6.664   4.054  10.716  1.0100 -1.6485 -0.6249
  290MOL0     H40003   6.416   4.094  10.716 -0.0235 -1.6323 -1.4229
  290MOL0     H40004   5.481   3.955   9.523 -0.4061 -0.7767  0.2035
  290MOL0     H40005   5.309   4.099   9.500 -0.5592  0.9587  0.0810
  290MOL0     H40006   4.880   4.205   9.393  0.4392  1.2048 -0.3360
  290MOL0     H40007   4.677   4.327   9.376  0.7308  1.7227 -0.2613
  290MOL0     H40008   4.599   4.528   9.405 -0.3588  0.1199 -0.8879
  290MOL0     H40009   4.474   4.403   9.416  0.3823 -1.3917  3.7274
  290MOL0     H40010   4.399   4.647   9.370  0.0819 -0.6056 -0.3010
  290MOL0     H40011   4.446   4.681   9.541 -0.0285 -1.2436 -0.0075
  290MOL0     H40012   4.266   4.442   9.463  0.3076  0.5939 -1.2403
  290MOL0     H40013   4.268   4.527   9.614 -2.2788  0.7983  0.2934
  290MOL0     H40014   4.070   4.552   9.486 -0.3244  0.2177 -0.0929
  290MOL0     H40015   4.155   4.615   9.347 -2.8521 -3.0532  0.1938
  290MOL0     H40016   4.155   4.938   9.630 -0.5274  1.2717 -1.5519
  290MOL0     H40017   4.685   4.366   9.805 -1.4304 -3.1984 -0.0128
  290MOL0     H40018   4.824   4.243   9.940 -0.7140  0.1677 -0.3954
  290MOL0     H40019   4.858   4.079   9.866  0.1819  0.4703 -3.3203
  290MOL0     H40020   4.983   4.204   9.869  0.4796 -1.5260 -0.6243
  291MOL0     O40021   0.109   4.489   4.501  0.1576 -0.3905  0.9570
  291MOL0     C40022   0.070   4.599   4.538 -0.1255  0.0964  0.1013
  291MOL0     O40023   0.132   4.723   4.536  0.6167 -0.4384 -0.0843
  291MOL0     C40024   0.229   4.749   4.445  0.6479  0.2011  1.0563
  291MOL0     C40025   0.293   4.875   4.459  0.0369  0.2474 -0.8638
  291MOL0     C40026   0.392   4.921   4.369  1.1878 -0.5883 -0.3008
  291MOL0     C40027   0.408   4.853   4.249 -0.1573 -0.0853  0.6224
  291MOL0     O40028   0.479   4.919   4.157  0.2847 -0.2715  0.4756
  291MOL0     C40029   0.616   4.882   4.158 -0.7204  0.1123  0.3099
  291MOL0     C40030   0.692   4.937   4.039 -0.2256 -0.0492  0.1894
  291MOL0     C40031   0.842   4.968   4.079 -0.6285 -0.2666 -0.0250
  291MOL0     C40032   0.916   5.030   3.957  0.8033 -0.3774 -0.3573
  291MOL0     C40033   1.066   5.023   3.977 -0.0139  0.2702 -0.2815
  291MOL0     C40034   1.118   5.118   4.091  0.0056  0.0231 -0.9552
  291MOL0     C40035   1.114   5.264   4.037 -0.2156  0.0060 -0.5592
  291MOL0     C40036   1.187   5.368   4.131  0.2701 -0.1107 -0.7442
  291MOL0     N40037   1.173   5.501   4.087  0.4677 -1.1540 -0.1220
  291MOL0     C40038   1.250   5.557   3.988  0.2415  0.0596  0.7261
  291MOL0     C40039   1.219   5.685   3.984 -0.4111 -0.1379 -1.1437
  291MOL0     C40040   1.265   5.799   3.891  1.0586  0.3149  0.1154
  291MOL0     C40041   1.229   5.781   3.743  0.3730 -1.1964  1.0375
  291MOL0     C40042   1.272   5.919   3.667  0.6664 -0.7177  0.3148
  291MOL0     C40043   1.417   5.936   3.650 -0.4496  0.1318 -0.4105
  291MOL0     O40044   1.473   5.819   3.578 -0.0453 -0.2385 -0.1379
  291MOL0     C40045   1.574   5.736   3.631  0.2467 -0.3063 -0.6042
  291MOL0     C40046   1.589   5.607   3.583  0.5488  0.3941 -0.5318
  291MOL0     C40047   1.683   5.521   3.635  0.2909  0.0756 -0.3980
  291MOL0     C40048   1.694   5.378   3.573  0.1789  0.2919  0.0560
  291MOL0     C40049   1.766   5.560   3.741  0.3516  0.8308 -0.7621
  291MOL0     C40050   1.880   5.475   3.773  0.9655  0.1457 -0.1386
  291MOL0     O40051   1.915   5.440   3.902 -0.2936  0.5361  0.5454
  291MOL0     C40052   1.817   5.437   4.002 -0.0650  1.0094  0.7582
  291MOL0     C40053   1.735   5.326   4.021  0.1064 -0.2575 -1.4811
  291MOL0     C40054   1.629   5.334   4.113 -0.1294  0.6429  0.3015
  291MOL0     C40055   1.614   5.443   4.189 -0.2404 -0.3203 -0.3021
  291MOL0     O40056   1.504   5.439   4.277 -0.5683  0.0102  0.6736
  291MOL0     C40057   1.478   5.555   4.363  0.1987 -0.7018 -0.2441
  291MOL0     C40058   1.334   5.560   4.414  0.3908  0.4412 -0.2716
  291MOL0     C40059   1.280   5.438   4.494  0.3302  0.0289  0.6542
  291MOL0     C40060   1.358   5.418   4.616  0.1737 -0.6626 -0.6852
  291MOL0     C40061   1.353   5.525   4.729  0.5391 -1.0520 -0.0646
  291MOL0     C40062   1.467   5.501   4.819 -0.6593 -0.0196 -0.4059
  291MOL0     C40063   1.462   5.602   4.937  0.1880 -0.2381 -0.1219
  291MOL0     C40064   1.565   5.570   5.050  0.4182  0.4390  0.1320
  291MOL0    Cl40065   1.518   5.683   5.191 -0.3450 -0.2763 -0.2339
  291MOL0     C40066   1.698   5.543   4.179 -0.4018  0.0707 -0.5551
  291MOL0     C40067   1.804   5.539   4.088  0.6729 -0.1792 -0.8411
  291MOL0     O40068   1.944   5.437   3.675  0.6106  0.1588  0.2652
  291MOL0     C40069   1.761   5.692   3.787 -0.3914  0.5858  0.4883
  291MOL0     C40070   1.662   5.782   3.735  0.1765 -0.1246 -0.4796
  291MOL0     N40071   1.122   5.708   4.079  0.4458  0.4751  0.0111
  291MOL0     N40072   1.091   5.597   4.141 -0.9223 -0.3640  0.0558
  291MOL0     C40073   0.347   4.727   4.231 -0.3305  1.3117 -0.0766
  291MOL0     C40074   0.263   4.674   4.336  0.0751 -0.5479 -0.0039
  291MOL0     C40075  -0.072   4.620   4.557 -0.1627  0.0642  0.2605
  291MOL0     C40076  -0.142   4.713   4.482 -0.6958 -0.0692  0.1329
  291MOL0     C40077  -0.281   4.726   4.497  0.1652 -0.2780 -0.6455
  291MOL0     C40078  -0.357   4.648   4.575  0.1921 -0.7282 -0.3004
  291MOL0     O40079  -0.489   4.659   4.565  0.4027 -0.5772 -0.5299
  291MOL0     C40080  -0.573   4.612   4.672  0.3436  0.4093 -0.5375
  291MOL0     C40081  -0.697   4.705   4.678 -0.3922 -0.0627 -0.0196
  291MOL0     C40082  -0.801   4.679   4.783 -0.1577  1.1670  0.7157
  291MOL0     C40083  -0.753   4.674   4.926 -0.0069 -0.0112  0.5168
  291MOL0     C40084  -0.694   4.799   4.975  0.9613 -0.2125  0.6675
  291MOL0     C40085  -0.635   4.903   4.993 -0.0831 -0.2288 -0.7928
  291MOL0     C40086  -0.289   4.552   4.645  0.5248  0.9100 -0.2154
  291MOL0     C40087  -0.146   4.538   4.640  0.4298  0.2531 -0.5231
  291MOL0     C40088  -0.087   4.435   4.730  0.1294 -0.1749  0.4153
  291MOL0     H40089   0.263   4.937   4.543  1.7121  0.9597 -0.7584
  291MOL0     H40090   0.447   5.014   4.380  0.7578 -0.5466  2.0208
  291MOL0     H40091   0.631   4.774   4.154  3.4762  0.3830  2.6600
  291MOL0     H40092   0.660   4.920   4.251 -1.1723 -4.0205  2.4453
  291MOL0     H40093   0.692   4.869   3.954 -1.1547 -1.3960  1.2312
  291MOL0     H40094   0.649   5.034   4.011  1.6614  1.2997  1.6286
  291MOL0     H40095   0.838   5.054   4.146  0.5448  1.2427 -1.7671
  291MOL0     H40096   0.894   4.882   4.120 -0.1004 -0.1633 -0.4593
  291MOL0     H40097   0.879   4.977   3.869  0.2680  0.8466 -0.8969
  291MOL0     H40098   0.873   5.131   3.961  2.9084  0.7600  5.7753
  291MOL0     H40099   1.120   5.054   3.887  2.1749  2.4328  1.6302
  291MOL0     H40100   1.098   4.919   3.987 -0.0717 -0.0324 -2.5823
  291MOL0     H40101   1.062   5.095   4.183 -0.6636 -1.1198 -1.6254
  291MOL0     H40102   1.217   5.078   4.115  0.0063  1.7505  2.6479
  291MOL0     H40103   1.011   5.296   4.024 -0.2738  0.5011  0.9009
  291MOL0     H40104   1.161   5.287   3.941  1.4887  0.2256  0.2904
  291MOL0     H40105   1.156   5.353   4.235 -0.9114 -1.4108 -1.2459
  291MOL0     H40106   1.296   5.355   4.134  0.8106  3.5137  1.5814
  291MOL0     H40107   1.320   5.512   3.918 -1.7853 -1.9866 -0.1256
  291MOL0     H40108   1.373   5.816   3.890  1.4211 -1.7931 -0.8416
  291MOL0     H40109   1.207   5.881   3.936 -1.9162 -0.7391 -1.5500
  291MOL0     H40110   1.256   5.684   3.699 -0.8352 -1.6815  1.3096
  291MOL0     H40111   1.119   5.788   3.742  0.3823 -0.7026 -0.7263
  291MOL0     H40112   1.232   5.927   3.565 -0.7728  2.6066  1.0047
  291MOL0     H40113   1.239   6.007   3.723  1.3864 -1.4198  1.9095
  291MOL0     H40114   1.435   6.027   3.592 -2.0860  1.2409  0.7349
  291MOL0     H40115   1.447   5.951   3.754 -1.7391  1.0162 -0.1398
  291MOL0     H40116   1.517   5.585   3.505  2.1494 -3.3077 -1.1727
  291MOL0     H40117   1.700   5.304   3.653 -2.5941 -1.8058 -1.4945
  291MOL0     H40118   1.778   5.374   3.502  1.8660 -1.2552  2.0210
  291MOL0     H40119   1.605   5.343   3.519  0.6145 -0.8326  0.0408
  291MOL0     H40120   1.743   5.235   3.961  0.3186  0.4141 -2.4942
  291MOL0     H40121   1.559   5.255   4.135 -3.1686  3.8718  3.7208
  291MOL0     H40122   1.537   5.544   4.454 -0.6210 -1.0738  0.2475
  291MOL0     H40123   1.510   5.654   4.329  0.1242 -0.0642  1.4898
  291MOL0     H40124   1.334   5.650   4.476  0.5296  0.0220  0.3399
  291MOL0     H40125   1.264   5.570   4.329 -1.0318 -0.3292  0.7715
  291MOL0     H40126   1.298   5.355   4.425  0.4878  0.8901 -0.3725
  291MOL0     H40127   1.174   5.450   4.520 -0.2091  1.4795 -1.8211
  291MOL0     H40128   1.463   5.409   4.590  0.8235  1.1969  1.0626
  291MOL0     H40129   1.340   5.320   4.660  2.1293 -0.1325  1.5123
  291MOL0     H40130   1.377   5.627   4.697 -0.7740 -0.4656  0.7386
  291MOL0     H40131   1.261   5.535   4.786  1.1642  0.8475  0.6973
  291MOL0     H40132   1.569   5.516   4.783  0.3647  0.8655  2.5538
  291MOL0     H40133   1.469   5.403   4.867 -0.9659  1.0705  2.0345
  291MOL0     H40134   1.362   5.617   4.980  0.8205 -3.0814  2.7395
  291MOL0     H40135   1.489   5.702   4.902 -3.6456  1.3380  0.8774
  291MOL0     H40136   1.667   5.597   5.022  0.5970  1.1097  1.3154
  291MOL0     H40137   1.551   5.468   5.086 -2.9232  0.8565  0.2725
  291MOL0     H40138   1.685   5.637   4.231 -0.6228  0.2398 -0.9082
  291MOL0     H40139   1.875   5.621   4.084  0.1517  0.2887 -0.7413
  291MOL0     H40140   1.849   5.730   3.837 -0.9999  1.5640  0.8641
  291MOL0     H40141   1.660   5.879   3.784  3.8313 -0.4328  0.6549
  291MOL0     H40142   0.396   4.672   4.152  1.9777 -1.6865  3.1353
  291MOL0     H40143   0.216   4.583   4.301  0.9112 -0.2899 -1.9245
  291MOL0     H40144  -0.088   4.773   4.409  0.2558  0.6653  1.3939
  291MOL0     H40145  -0.328   4.796   4.429  2.4709  0.0429 -2.0349
  291MOL0     H40146  -0.607   4.513   4.640  1.1782  0.4730 -1.6673
  291MOL0     H40147  -0.524   4.594   4.768  0.4861  1.7510 -0.3459
  291MOL0     H40148  -0.749   4.689   4.583  0.3304  1.5714 -0.7199
  291MOL0     H40149  -0.662   4.807   4.695 -0.5826 -0.3797  2.7824
  291MOL0     H40150  -0.884   4.746   4.761 -0.7021  0.9624  2.0874
  291MOL0     H40151  -0.830   4.574   4.772  2.5588  0.4718 -0.9851
  291MOL0     H40152  -0.685   4.590   4.941 -0.9447 -0.6661  1.2813
  291MOL0     H40153  -0.843   4.658   4.986 -0.3665 -1.5553 -0.3798
  291MOL0     H40154  -0.581   4.994   5.010 -0.7293 -0.1713  1.2200
  291MOL0     H40155  -0.347   4.478   4.699  3.4712 -0.7155  0.9702
  291MOL0     H40156  -0.020   4.357   4.691  1.3390  1.2826 -0.5141
  291MOL0     H40157  -0.028   4.502   4.793 -0.1625  2.8060 -2.2689
  291MOL0     H40158  -0.164   4.384   4.790 -3.0037  2.6878 -0.8940
  292MOL0     O40159   7.856   7.403   2.457 -0.6766 -0.7666  0.2581
  292MOL0     C40160   7.755   7.437   2.517  0.1798 -0.6789  0.3624
  292MOL0     O40161   7.749   7.489   2.641 -0.2473  0.2815 -0.0336
  292MOL0     C40162   7.861   7.483   2.723 -0.4053  0.6613 -0.1310
  292MOL0     C40163   7.967   7.586   2.722  0.7236  0.4639 -0.1684
  292MOL0     C40164   8.069   7.564   2.817  0.1211 -0.6789 -0.8551
  292MOL0     C40165   8.069   7.464   2.918  0.6405  0.5683  0.7157
  292MOL0     O40166   8.172   7.447   3.010 -0.2497  0.5548  0.6195
  292MOL0     C40167   8.196   7.541   3.114  0.7056 -0.1268  0.2129
  292MOL0     C40168   8.233   7.683   3.077 -0.3210 -0.4584 -0.3363
  292MOL0     C40169   8.372   7.689   3.002  0.2693  0.0206 -0.4118
  292MOL0     C40170   8.430   7.834   2.979  0.2685 -0.3783  0.0088
  292MOL0     C40171   8.571   7.833   2.933 -0.2220 -0.6512  0.5183
  292MOL0     C40172   8.653   7.948   2.988  0.2140  0.5580  0.3388
  292MOL0     C40173   8.802   7.941   2.950 -0.6904  1.0702  0.4040
  292MOL0     C40174   8.893   7.837   3.031 -0.0728 -1.0118 -0.0428
  292MOL0     N40175   9.031   7.817   2.973  0.3974 -0.5079 -0.5698
  292MOL0     C40176   9.125   7.759   3.049  0.1837  1.0393 -0.6622
  292MOL0     C40177   9.234   7.769   2.964 -0.5999  0.6253 -0.0357
  292MOL0     C40178   9.374   7.730   2.994 -0.5560 -0.2178 -0.9240
  292MOL0     C40179   9.452   7.642   2.888  1.0574  0.3466 -1.0226
  292MOL0     C40180   9.594   7.618   2.942 -0.4004 -0.0276 -0.4388
  292MOL0     C40181   9.693   7.563   2.845  0.2864  0.4771  0.4027
  292MOL0     O40182   9.663   7.428   2.813 -0.4457  0.5311 -0.1295
  292MOL0     C40183   9.754   7.362   2.730 -0.1724 -0.0882  0.1317
  292MOL0     C40184   9.860   7.411   2.653  0.6223  0.5827 -0.4468
  292MOL0     C40185   9.959   7.328   2.591  0.2445 -0.3574 -0.0589
  292MOL0     C40186  10.075   7.398   2.536  0.2745  0.0394 -0.1004
  292MOL0     C40187   9.936   7.191   2.592 -0.0071  0.2595 -0.0765
  292MOL0     C40188  10.029   7.094   2.518 -0.1377  0.1725  0.6183
  292MOL0     O40189   9.993   6.963   2.522 -0.6253 -0.3738 -0.6106
  292MOL0     C40190  10.056   6.876   2.436 -1.0487 -0.3131 -0.1728
  292MOL0     C40191  10.133   6.763   2.490  0.7303 -0.6628  0.2912
  292MOL0     C40192  10.208   6.679   2.408  0.1697  0.1660  0.5382
  292MOL0     C40193  10.208   6.689   2.263 -0.1589  0.3303  0.2891
  292MOL0     O40194  10.247   6.582   2.172  0.7133  0.3905 -0.4233
  292MOL0     C40195  10.277   6.451   2.231 -0.3342 -0.9170 -0.1306
  292MOL0     C40196  10.290   6.345   2.122 -0.0050  0.3320  1.5588
  292MOL0     C40197  10.169   6.339   2.024  0.5674 -0.0820  0.1614
  292MOL0     C40198  10.213   6.247   1.917 -0.7558  0.3498  0.2674
  292MOL0     C40199  10.118   6.241   1.805 -0.3427 -0.1705 -0.1620
  292MOL0     C40200  10.166   6.140   1.705 -0.2685  0.1394  0.3527
  292MOL0     C40201  10.115   6.141   1.558  0.3547 -0.1031 -0.3474
  292MOL0     C40202  10.140   6.021   1.474 -0.4494  0.6199  0.2298
  292MOL0    Cl40203  10.072   6.048   1.302 -0.4621 -0.2055  0.0821
  292MOL0     C40204  10.133   6.797   2.217 -0.0754 -0.6314 -0.1974
  292MOL0     C40205  10.067   6.897   2.295 -0.0237  0.5782 -1.4468
  292MOL0     O40206  10.132   7.132   2.455  0.2049  0.0374 -0.2778
  292MOL0     C40207   9.830   7.141   2.664  0.8885 -0.0531 -0.2161
  292MOL0     C40208   9.737   7.222   2.720  0.5290  0.0478 -0.5567
  292MOL0     N40209   9.194   7.811   2.841  1.3668 -0.7363 -0.0801
  292MOL0     N40210   9.073   7.853   2.848  0.6045 -0.0470  0.3598
  292MOL0     C40211   7.967   7.372   2.913 -0.0530  0.2815 -0.6387
  292MOL0     C40212   7.866   7.374   2.813 -0.1068 -0.0599  1.2572
  292MOL0     C40213   7.633   7.445   2.436 -1.0828 -0.3709 -0.2421
  292MOL0     C40214   7.546   7.553   2.465 -0.5624  0.3818  0.4661
  292MOL0     C40215   7.432   7.568   2.390  0.4668  0.6453  0.5837
  292MOL0     C40216   7.390   7.489   2.284  0.1149  0.0819  0.0738
  292MOL0     O40217   7.282   7.538   2.213  0.0298  0.4090  0.0150
  292MOL0     C40218   7.201   7.444   2.145 -0.3789 -0.0468 -0.1939
  292MOL0     C40219   7.067   7.498   2.105 -0.3504 -0.2940  0.3496
  292MOL0     C40220   6.984   7.528   2.231 -1.0217 -0.9471  0.0379
  292MOL0     C40221   6.836   7.519   2.198  0.0232 -0.1308 -0.0273
  292MOL0     C40222   6.761   7.612   2.284 -1.1563 -0.4647  0.0493
  292MOL0     C40223   6.692   7.681   2.362  0.1181 -0.3061 -1.2276
  292MOL0     C40224   7.475   7.377   2.262 -0.5352 -0.7014  0.1508
  292MOL0     C40225   7.593   7.351   2.337  0.9389 -1.4548  0.0137
  292MOL0     C40226   7.680   7.237   2.287 -0.4045 -0.6762  0.0077
  292MOL0     H40227   7.967   7.670   2.654 -0.8439 -0.6901 -1.6684
  292MOL0     H40228   8.144   7.641   2.803 -2.9971  2.2751 -3.4181
  292MOL0     H40229   8.278   7.506   3.178 -0.0472  1.3308  2.0918
  292MOL0     H40230   8.107   7.549   3.177  1.4471 -2.0114  1.5971
  292MOL0     H40231   8.150   7.721   3.017 -1.0887  2.6407  2.3628
  292MOL0     H40232   8.245   7.747   3.165 -2.1138  0.7659 -0.9298
  292MOL0     H40233   8.446   7.630   3.055 -0.6119 -1.6111 -0.9447
  292MOL0     H40234   8.361   7.633   2.909  0.2216 -1.0274  0.2191
  292MOL0     H40235   8.363   7.883   2.909 -0.5059 -3.7844 -1.8510
  292MOL0     H40236   8.423   7.894   3.070 -3.1418  0.2015 -0.5163
  292MOL0     H40237   8.572   7.822   2.824 -3.3467 -0.7413  0.3847
  292MOL0     H40238   8.616   7.740   2.969 -0.2356 -0.8627  0.0002
  292MOL0     H40239   8.602   8.037   2.950 -1.1621  0.3229  1.5246
  292MOL0     H40240   8.652   7.956   3.097  1.1253  4.5518  0.1851
  292MOL0     H40241   8.855   8.036   2.965  2.0332 -0.1363 -0.9408
  292MOL0     H40242   8.814   7.927   2.842 -2.8350 -1.9354  0.4518
  292MOL0     H40243   8.905   7.870   3.135  0.4815 -1.4366  0.0367
  292MOL0     H40244   8.845   7.739   3.035 -0.6662 -0.7568 -0.8267
  292MOL0     H40245   9.131   7.743   3.156  2.0549 -2.3468 -1.1129
  292MOL0     H40246   9.377   7.681   3.092 -2.2449  0.8305 -0.3008
  292MOL0     H40247   9.420   7.829   3.009 -1.2848  0.0494 -0.3693
  292MOL0     H40248   9.401   7.547   2.871 -0.4360  1.5779 -4.6217
  292MOL0     H40249   9.452   7.692   2.790 -0.1900  0.2344 -1.0923
  292MOL0     H40250   9.645   7.710   2.972  2.4486 -1.1639 -1.4961
  292MOL0     H40251   9.592   7.541   3.020 -2.4284  0.2454 -0.1573
  292MOL0     H40252   9.679   7.623   2.755  0.9301  0.0423  0.0028
  292MOL0     H40253   9.796   7.572   2.880 -0.6125 -0.5423  3.6706
  292MOL0     H40254   9.881   7.517   2.646 -1.6603  1.1070 -0.1280
  292MOL0     H40255  10.066   7.507   2.537 -0.4863 -0.0245  0.3914
  292MOL0     H40256  10.096   7.362   2.435  3.9164 -0.9467  0.8477
  292MOL0     H40257  10.162   7.350   2.581  0.1182  1.5189  1.9425
  292MOL0     H40258  10.127   6.747   2.597 -2.3088 -1.5808  0.0971
  292MOL0     H40259  10.265   6.597   2.450  0.9412  0.8909  0.9234
  292MOL0     H40260  10.376   6.451   2.277 -0.6202  1.8413  0.6806
  292MOL0     H40261  10.197   6.438   2.304 -1.1939 -0.6942 -0.9993
  292MOL0     H40262  10.378   6.363   2.060 -0.1180 -0.7711  1.0522
  292MOL0     H40263  10.301   6.254   2.182 -0.6136  0.9932  2.7058
  292MOL0     H40264  10.148   6.439   1.984  1.4411 -1.4646 -4.3286
  292MOL0     H40265  10.075   6.300   2.063  0.5534 -0.6781 -0.4498
  292MOL0     H40266  10.239   6.149   1.957 -1.1122  0.2633  0.2824
  292MOL0     H40267  10.307   6.285   1.876  1.1572 -1.6026  2.5593
  292MOL0     H40268  10.017   6.219   1.841 -0.9275  1.3433 -0.8327
  292MOL0     H40269  10.114   6.343   1.766 -0.3069 -0.2274 -0.3134
  292MOL0     H40270  10.144   6.042   1.748  0.9542  0.7530  2.5611
  292MOL0     H40271  10.276   6.143   1.702 -0.2804  3.0801  0.4277
  292MOL0     H40272  10.171   6.224   1.513  2.9785 -1.5390  0.0665
  292MOL0     H40273  10.011   6.172   1.567 -0.4323 -2.0879 -1.8976
  292MOL0     H40274  10.086   5.944   1.531 -0.7935  1.4092  0.9867
  292MOL0     H40275  10.246   5.995   1.470  0.2248  2.6205  2.6814
  292MOL0     H40276  10.128   6.819   2.111  1.5069  1.0932  0.0360
  292MOL0     H40277  10.009   6.979   2.255 -2.6603 -0.8300 -0.7168
  292MOL0     H40278   9.818   7.034   2.675  0.0253 -0.1274 -1.5806
  292MOL0     H40279   9.666   7.182   2.791  0.4542  1.2544  0.0798
  292MOL0     H40280   7.962   7.286   2.979  1.2494  1.6976  1.4302
  292MOL0     H40281   7.782   7.306   2.823  0.6826 -1.2892 -0.1847
  292MOL0     H40282   7.562   7.621   2.549 -0.2402 -2.3622  2.7622
  292MOL0     H40283   7.371   7.651   2.424  1.9178  1.2924  1.6907
  292MOL0     H40284   7.256   7.410   2.056 -2.2528 -0.7184 -1.1507
  292MOL0     H40285   7.198   7.356   2.209  3.8648  1.6870  2.8518
  292MOL0     H40286   7.018   7.427   2.038 -1.7417  2.2062 -1.4637
  292MOL0     H40287   7.076   7.589   2.044  0.6614 -2.6213 -3.3306
  292MOL0     H40288   7.000   7.456   2.311 -2.3510 -0.8974  0.3754
  292MOL0     H40289   7.011   7.627   2.269  3.1460 -1.8527 -0.0930
  292MOL0     H40290   6.813   7.413   2.206  0.7921 -0.2827  0.2518
  292MOL0     H40291   6.822   7.544   2.092  0.4601 -3.7928 -1.0894
  292MOL0     H40292   6.625   7.730   2.431  2.7570  0.0881  1.2449
  292MOL0     H40293   7.470   7.317   2.171 -0.7775 -3.6956  2.0008
  292MOL0     H40294   7.614   7.160   2.247 -1.4931  0.7906 -1.1537
  292MOL0     H40295   7.744   7.274   2.207 -2.3054  0.3302 -1.1364
  292MOL0     H40296   7.740   7.190   2.365  1.9112  3.9584  1.3918
  293MOL0     O40297   8.606   0.909  10.673 -0.5834  0.0920  0.2758
  293MOL0     C40298   8.547   0.829  10.745  1.0210  0.4661  0.5293
  293MOL0     O40299   8.605   0.723  10.817  0.3382 -0.0020 -0.4540
  293MOL0     C40300   8.745   0.732  10.832  1.7201 -0.1095 -0.8733
  293MOL0     C40301   8.795   0.806  10.933 -0.1646  0.4664 -0.0033
  293MOL0     C40302   8.931   0.824  10.946 -0.3746  0.3930 -0.2588
  293MOL0     C40303   9.022   0.759  10.859  0.2739  0.6630  0.8427
  293MOL0     O40304   9.156   0.774  10.882 -0.4552  0.0889  0.6061
  293MOL0     C40305   9.252   0.765  10.778 -0.5381 -0.0476  0.5065
  293MOL0     C40306   9.383   0.738  10.850 -0.4928 -1.1196 -0.1277
  293MOL0     C40307   9.491   0.818  10.782  0.4163 -0.7811  0.2755
  293MOL0     C40308   9.618   0.792  10.858  0.0014  0.5756 -0.6618
  293MOL0     C40309   9.730   0.883  10.804 -0.1220  0.0256 -0.5227
  293MOL0     C40310   9.850   0.854  10.889 -0.5662  0.2724  0.1403
  293MOL0     C40311   9.974   0.918  10.835  0.0866 -0.2929  0.1671
  293MOL0     C40312  10.104   0.876  10.916 -0.3360 -0.1790  0.0868
  293MOL0     N40313  10.199   0.980  10.870 -0.1009 -0.2396  0.4263
  293MOL0     C40314  10.217   1.103  10.931 -0.1952  0.2831  1.1580
  293MOL0     C40315  10.322   1.173  10.872  0.0741  0.5113  0.4655
  293MOL0     C40316  10.372   1.304  10.877  0.0677  0.1156 -0.1059
  293MOL0     C40317  10.514   1.304  10.926 -0.2518 -0.3102  0.0271
  293MOL0     C40318  10.595   1.409  10.840  0.1521 -0.2888 -0.4727
  293MOL0     C40319  10.741   1.408  10.875  0.5374 -0.8518  0.5647
  293MOL0     O40320  10.800   1.524  10.808  0.4246 -0.5680 -0.8179
  293MOL0     C40321  10.932   1.532  10.799  1.0422 -0.0246  0.9250
  293MOL0     C40322  10.976   1.635  10.720 -1.3593  0.4457  0.0090
  293MOL0     C40323  11.111   1.662  10.697  0.5640  0.0210  0.2089
  293MOL0     C40324  11.140   1.757  10.588 -0.0436 -0.2213  1.2586
  293MOL0     C40325  11.211   1.580  10.768  0.7044 -0.5909 -1.6325
  293MOL0     C40326  11.357   1.605  10.761 -0.2354  0.1992  0.2415
  293MOL0     O40327  11.440   1.504  10.801 -0.3813 -0.2857  0.3534
  293MOL0     C40328  11.562   1.480  10.739  0.6885  0.3068 -0.8811
  293MOL0     C40329  11.662   1.445  10.832 -0.7426 -0.4278 -0.1401
  293MOL0     C40330  11.792   1.428  10.786  0.4796 -0.0201 -0.2086
  293MOL0     C40331  11.825   1.417  10.654 -0.2112 -0.0120  0.2662
  293MOL0     O40332  11.947   1.373  10.596  0.1087 -0.3137  0.0577
  293MOL0     C40333  12.064   1.427  10.664  0.2767  0.0857  0.8344
  293MOL0     C40334  12.178   1.352  10.591  0.6705  0.0403  0.1495
  293MOL0     C40335  12.306   1.427  10.618  1.2014 -0.8301  0.0086
  293MOL0     C40336  12.423   1.335  10.584  0.7313 -0.3110  0.2714
  293MOL0     C40337  12.549   1.425  10.591  0.6866  0.3827  0.2349
  293MOL0     C40338  12.657   1.360  10.514 -1.2592  1.2473  0.4124
  293MOL0     C40339  12.753   1.471  10.463 -0.3801 -0.4358 -0.3991
  293MOL0     C40340  12.872   1.431  10.376 -0.0108  0.5214 -0.7254
  293MOL0    Cl40341  12.944   1.280  10.442 -0.5425  0.2654 -0.0016
  293MOL0     C40342  11.713   1.422  10.560 -0.1337 -0.2441 -0.1510
  293MOL0     C40343  11.584   1.459  10.601 -0.5431 -0.2838 -0.3714
  293MOL0     O40344  11.394   1.712  10.710  0.3921 -0.5373  0.4319
  293MOL0     C40345  11.163   1.484  10.860  0.4946  0.2050 -0.1154
  293MOL0     C40346  11.025   1.454  10.868 -0.2806 -0.1654  0.2042
  293MOL0     N40347  10.368   1.086  10.775  1.0580 -0.1273 -1.1451
  293MOL0     N40348  10.297   0.981  10.770 -0.3586  0.4302 -0.2086
  293MOL0     C40349   8.968   0.689  10.757  0.1449 -0.4995  1.1678
  293MOL0     C40350   8.829   0.680  10.736  0.2557  0.6394 -0.0587
  293MOL0     C40351   8.398   0.837  10.749 -0.4800 -0.0013  0.1713
  293MOL0     C40352   8.328   0.719  10.736  0.3392 -0.2710  0.3781
  293MOL0     C40353   8.188   0.717  10.709 -0.1155 -0.0881 -0.7415
  293MOL0     C40354   8.120   0.839  10.719  0.0546  0.2828  0.6131
  293MOL0     O40355   7.989   0.834  10.718  0.8327  0.0399 -0.0954
  293MOL0     C40356   7.909   0.950  10.747  0.0664  0.3742 -0.5771
  293MOL0     C40357   7.763   0.901  10.788 -0.5499 -0.5349  0.4364
  293MOL0     C40358   7.679   0.868  10.661 -0.3010  1.1522 -0.4798
  293MOL0     C40359   7.554   0.789  10.680  0.1965 -0.0108 -0.6485
  293MOL0     C40360   7.462   0.767  10.566 -0.7952  0.0425  0.2505
  293MOL0     C40361   7.388   0.743  10.474 -0.8453  0.3030 -0.9908
  293MOL0     C40362   8.191   0.957  10.736  0.4502 -0.6968 -0.7528
  293MOL0     C40363   8.330   0.957  10.753  0.6695 -0.4787 -0.5767
  293MOL0     C40364   8.394   1.082  10.811 -1.2516 -0.3109 -0.1586
  293MOL0     H40365   8.727   0.851  11.004 -0.6034 -1.4555  0.8755
  293MOL0     H40366   8.975   0.867  11.036 -2.6507  2.7920 -0.1779
  293MOL0     H40367   9.259   0.859  10.722  4.6458 -0.5633 -0.1883
  293MOL0     H40368   9.232   0.688  10.703 -0.2437  1.8029 -1.5783
  293MOL0     H40369   9.378   0.771  10.954  2.4425  1.7939 -0.7613
  293MOL0     H40370   9.416   0.634  10.838  0.2021 -0.9779  0.4562
  293MOL0     H40371   9.497   0.796  10.675 -0.5828  1.6925 -0.3583
  293MOL0     H40372   9.468   0.924  10.796  0.8180 -0.9853  2.9308
  293MOL0     H40373   9.597   0.805  10.965  0.3386  0.9670 -0.6411
  293MOL0     H40374   9.636   0.684  10.850 -0.4730  0.3263  1.1323
  293MOL0     H40375   9.699   0.984  10.829 -1.8177 -0.7587  0.7548
  293MOL0     H40376   9.752   0.864  10.698  1.0522  0.5356 -0.3933
  293MOL0     H40377   9.833   0.887  10.992 -0.9594 -1.8551  0.8065
  293MOL0     H40378   9.868   0.747  10.887 -0.3516  0.2913  0.6878
  293MOL0     H40379   9.970   1.027  10.838  2.7447 -0.1232 -0.1553
  293MOL0     H40380   9.996   0.899  10.730 -2.0798  0.3885 -0.4532
  293MOL0     H40381  10.072   0.876  11.021  3.7559  1.8456  1.5761
  293MOL0     H40382  10.129   0.771  10.900 -0.9603 -0.6768  2.0244
  293MOL0     H40383  10.145   1.143  11.001 -1.5990 -0.2510  0.0650
  293MOL0     H40384  10.303   1.366  10.935 -2.3680 -1.9943 -0.5545
  293MOL0     H40385  10.378   1.337  10.773  3.0412 -2.4822 -0.9082
  293MOL0     H40386  10.506   1.329  11.032  0.7432  2.9840 -0.5700
  293MOL0     H40387  10.570   1.210  10.912  2.3516  1.3820 -1.8024
  293MOL0     H40388  10.591   1.382  10.734 -0.6724 -0.3563 -0.4296
  293MOL0     H40389  10.544   1.502  10.866  2.2748  0.8804 -0.2537
  293MOL0     H40390  10.771   1.422  10.980  1.5490  1.3718  0.0307
  293MOL0     H40391  10.791   1.313  10.857 -0.0721 -1.3711  1.5021
  293MOL0     H40392  10.892   1.689  10.678 -1.8262  0.2195  0.6435
  293MOL0     H40393  11.174   1.848  10.638 -3.3725  1.0907  1.4151
  293MOL0     H40394  11.055   1.779  10.522  0.7666  0.9275  0.5605
  293MOL0     H40395  11.216   1.729  10.515 -1.3970  2.2769 -1.3268
  293MOL0     H40396  11.642   1.453  10.938 -1.3021  0.9439 -0.3279
  293MOL0     H40397  11.872   1.408  10.857 -0.8868 -2.7852  0.6992
  293MOL0     H40398  12.079   1.533  10.645  0.3873 -0.3752 -2.1018
  293MOL0     H40399  12.056   1.409  10.772 -0.8018  0.6224  0.8595
  293MOL0     H40400  12.180   1.248  10.622  1.5012 -0.9263 -2.8495
  293MOL0     H40401  12.162   1.352  10.483 -1.0567 -0.7311  0.3782
  293MOL0     H40402  12.324   1.461  10.720  0.1568  4.6082 -1.2907
  293MOL0     H40403  12.304   1.517  10.554 -0.0616 -0.4409  0.5501
  293MOL0     H40404  12.405   1.310  10.479 -1.1380  1.7194  0.0385
  293MOL0     H40405  12.434   1.249  10.651 -0.0907 -0.3918  0.3065
  293MOL0     H40406  12.529   1.529  10.561  1.1679  0.5904  0.6212
  293MOL0     H40407  12.577   1.431  10.696 -0.1748 -1.5126  0.6031
  293MOL0     H40408  12.611   1.304  10.432  0.5842 -1.4411  1.0770
  293MOL0     H40409  12.715   1.286  10.570  3.2994  2.6942 -1.8919
  293MOL0     H40410  12.793   1.514  10.555 -1.8634 -1.2578  0.6748
  293MOL0     H40411  12.693   1.544  10.408 -0.8725 -0.9646 -0.5821
  293MOL0     H40412  12.949   1.510  10.371  0.8807 -0.3934 -4.0372
  293MOL0     H40413  12.846   1.412  10.272 -2.0481  1.8310 -0.5217
  293MOL0     H40414  11.743   1.409  10.457 -1.4116 -1.2408 -0.4190
  293MOL0     H40415  11.504   1.466  10.528 -0.0034 -0.0200 -0.9491
  293MOL0     H40416  11.232   1.420  10.915  0.6656  0.2065 -0.3254
  293MOL0     H40417  11.004   1.367  10.930 -2.4282  1.4341  1.8944
  293MOL0     H40418   9.033   0.645  10.682  0.2871 -1.0126  1.5851
  293MOL0     H40419   8.787   0.637  10.645 -2.7244  0.5901  1.2282
  293MOL0     H40420   8.386   0.627  10.734  1.2606  0.2985  0.2366
  293MOL0     H40421   8.131   0.626  10.699 -1.2414  0.5702 -0.5106
  293MOL0     H40422   7.950   0.993  10.839 -0.8616 -2.5546  1.3468
  293MOL0     H40423   7.910   1.019  10.662 -2.4627  2.1626  0.7427
  293MOL0     H40424   7.714   0.979  10.848  0.2376  0.0276  0.3585
  293MOL0     H40425   7.776   0.805  10.838  0.5751 -0.9710 -0.6506
  293MOL0     H40426   7.652   0.967  10.622 -0.2315  1.1361 -0.5698
  293MOL0     H40427   7.738   0.811  10.589 -1.4459 -0.4219 -0.2297
  293MOL0     H40428   7.487   0.849  10.743 -0.6607 -0.3109 -1.2525
  293MOL0     H40429   7.571   0.695  10.734 -0.4245  0.5085  0.4945
  293MOL0     H40430   7.316   0.716  10.400 -2.3345 -0.7710  0.7787
  293MOL0     H40431   8.134   1.049  10.738 -0.6534 -1.3380  2.0475
  293MOL0     H40432   8.481   1.107  10.749 -0.3863  1.4562  1.6710
  293MOL0     H40433   8.316   1.157  10.806 -0.7526  0.2800  0.6769
  293MOL0     H40434   8.422   1.061  10.915  0.1805  1.2884 -0.1757
  294MOL0     O40435   3.580   0.790   8.434 -0.4216  0.5149 -0.1373
  294MOL0     C40436   3.584   0.851   8.541 -0.4873  0.1492 -0.7638
  294MOL0     O40437   3.490   0.939   8.577 -0.2828 -0.1266 -0.4761
  294MOL0     C40438   3.396   0.996   8.492 -0.2728  0.7365 -0.0774
  294MOL0     C40439   3.402   1.021   8.360  0.6029  0.7640  0.2555
  294MOL0     C40440   3.309   1.101   8.299  0.6757  0.2802  0.0498
  294MOL0     C40441   3.198   1.152   8.366  0.5411 -0.4409 -0.8126
  294MOL0     O40442   3.105   1.227   8.300  0.3641  0.2799  0.0571
  294MOL0     C40443   3.003   1.285   8.380 -0.4957 -0.3280  0.0075
  294MOL0     C40444   2.917   1.385   8.298 -0.4032 -0.0367 -0.7831
  294MOL0     C40445   2.953   1.380   8.142  0.2031  0.1736  0.1893
  294MOL0     C40446   2.877   1.489   8.064 -0.1345 -0.3520 -0.2298
  294MOL0     C40447   2.918   1.519   7.925 -0.2528  0.2265 -0.0116
  294MOL0     C40448   2.823   1.613   7.837  0.5541 -1.0988  0.0760
  294MOL0     C40449   2.775   1.739   7.901 -0.0011 -0.5299 -1.0924
  294MOL0     C40450   2.889   1.833   7.944  0.3786  0.8670  0.8122
  294MOL0     N40451   2.826   1.963   7.954  0.0133  0.4423 -0.1322
  294MOL0     C40452   2.749   1.999   8.062  0.0362  0.1930 -0.0827
  294MOL0     C40453   2.715   2.130   8.029 -0.3501  0.6616  0.1844
  294MOL0     C40454   2.626   2.207   8.104 -0.3643  0.7267 -0.3459
  294MOL0     C40455   2.711   2.278   8.208 -0.2194  0.4200 -0.7444
  294MOL0     C40456   2.774   2.194   8.322 -0.4787 -0.6350 -0.1010
  294MOL0     C40457   2.870   2.285   8.413 -0.6341  0.2303  0.5542
  294MOL0     O40458   2.968   2.368   8.339 -0.3186 -0.5077  0.5119
  294MOL0     C40459   3.052   2.439   8.422 -0.1830  0.5330 -0.5653
  294MOL0     C40460   3.150   2.516   8.362  0.3481 -0.4985  0.5727
  294MOL0     C40461   3.258   2.556   8.435  0.6149  0.8972  0.4297
  294MOL0     C40462   3.367   2.624   8.346  0.2924 -0.1450  0.1396
  294MOL0     C40463   3.272   2.536   8.575  0.6980 -0.1841 -0.0532
  294MOL0     C40464   3.396   2.583   8.647 -0.4848 -0.5561  0.1908
  294MOL0     O40465   3.366   2.627   8.779 -0.7357  0.4534 -0.1647
  294MOL0     C40466   3.438   2.712   8.858  0.2241  1.3152  0.5376
  294MOL0     C40467   3.370   2.769   8.957  0.5779  0.0428 -0.0510
  294MOL0     C40468   3.435   2.834   9.061 -0.0152  0.0324 -0.2798
  294MOL0     C40469   3.575   2.845   9.066  0.2191 -0.0002 -0.3674
  294MOL0     O40470   3.638   2.905   9.180  0.5878  0.0806  0.2305
  294MOL0     C40471   3.783   2.910   9.176 -1.1542  0.8834 -0.6330
  294MOL0     C40472   3.836   2.968   9.303  0.3704 -0.3565 -0.2967
  294MOL0     C40473   3.824   2.873   9.422 -0.3373  0.3788  0.7597
  294MOL0     C40474   3.886   2.938   9.545 -0.7187  0.2655 -0.7599
  294MOL0     C40475   4.035   2.917   9.539  0.2732 -0.3280 -0.9009
  294MOL0     C40476   4.105   2.921   9.678  0.2146 -0.0867 -0.5222
  294MOL0     C40477   4.254   2.928   9.666 -0.3999  0.0235  0.3492
  294MOL0     C40478   4.327   2.968   9.792  0.2274  0.1143  0.3434
  294MOL0    Cl40479   4.267   3.128   9.862  0.4668 -0.1924  0.2966
  294MOL0     C40480   3.646   2.802   8.950  0.2650  0.4258 -0.9469
  294MOL0     C40481   3.574   2.739   8.841 -0.1299 -1.0587 -0.5461
  294MOL0     O40482   3.509   2.556   8.599  0.1775  0.0594 -0.7775
  294MOL0     C40483   3.163   2.472   8.640 -0.0853  0.3645 -0.6839
  294MOL0     C40484   3.062   2.417   8.558 -0.2790  1.3404 -0.0880
  294MOL0     N40485   2.759   2.158   7.901 -0.5603 -0.3522 -0.1433
  294MOL0     N40486   2.815   2.053   7.850 -0.4104  0.0847 -0.1648
  294MOL0     C40487   3.183   1.116   8.509  0.5276  0.1143  0.3261
  294MOL0     C40488   3.291   1.048   8.570  0.5415  0.2360 -0.2153
  294MOL0     C40489   3.694   0.813   8.632 -0.9357 -0.6626 -0.4602
  294MOL0     C40490   3.798   0.732   8.571  0.9021  0.6646  0.5259
  294MOL0     C40491   3.897   0.672   8.647 -0.5057  0.0168 -0.3518
  294MOL0     C40492   3.911   0.705   8.786 -0.2390 -0.3732 -0.1860
  294MOL0     O40493   4.011   0.670   8.866  0.8062  1.1335  0.1377
  294MOL0     C40494   4.123   0.587   8.821  0.1828 -0.3313 -0.5012
  294MOL0     C40495   4.235   0.684   8.783  1.1288 -0.6690 -0.0215
  294MOL0     C40496   4.339   0.607   8.701 -0.0051 -0.1381 -0.5079
  294MOL0     C40497   4.397   0.483   8.771 -0.1131 -1.0837 -0.5282
  294MOL0     C40498   4.312   0.369   8.764 -0.2612 -0.1748  0.1823
  294MOL0     C40499   4.243   0.274   8.755  0.6058 -0.2571 -0.6386
  294MOL0     C40500   3.817   0.783   8.838  0.0878 -0.6498 -0.6935
  294MOL0     C40501   3.704   0.833   8.777 -0.1028  0.1175  0.0459
  294MOL0     C40502   3.604   0.900   8.869  0.1663  0.3621  0.6140
  294MOL0     H40503   3.484   0.998   8.293  1.6168 -4.0121  2.6861
  294MOL0     H40504   3.319   1.121   8.193  2.8515 -0.5855  0.0410
  294MOL0     H40505   3.060   1.340   8.456 -0.9221  0.5302 -0.2850
  294MOL0     H40506   2.937   1.217   8.434 -1.0518  0.5745  0.4968
  294MOL0     H40507   2.809   1.372   8.309 -0.6375  1.3011 -1.3109
  294MOL0     H40508   2.932   1.483   8.342  2.4687  0.5091 -2.7079
  294MOL0     H40509   3.062   1.393   8.133  0.4870 -1.9669  0.0114
  294MOL0     H40510   2.930   1.282   8.098 -1.5470 -0.1924  1.7922
  294MOL0     H40511   2.770   1.465   8.063 -0.2962  0.3451 -0.5961
  294MOL0     H40512   2.903   1.583   8.113 -3.5860  0.2125  0.7861
  294MOL0     H40513   2.942   1.428   7.868  2.9450  0.2188  1.1243
  294MOL0     H40514   3.008   1.581   7.932  0.0219 -0.2476  0.7897
  294MOL0     H40515   2.860   1.652   7.741 -1.8032  2.0494  0.2856
  294MOL0     H40516   2.733   1.554   7.822 -1.7392  2.0551  0.4143
  294MOL0     H40517   2.718   1.723   7.992  1.3673  0.9909  0.0893
  294MOL0     H40518   2.701   1.788   7.837 -2.8262 -0.7352  1.7661
  294MOL0     H40519   2.934   1.802   8.038 -0.8442 -1.3893  0.7209
  294MOL0     H40520   2.966   1.832   7.866  1.1826 -4.6055  1.2896
  294MOL0     H40521   2.725   1.942   8.152  2.6316  0.4523  0.8676
  294MOL0     H40522   2.548   2.151   8.156  1.1442 -1.8359 -0.6797
  294MOL0     H40523   2.577   2.278   8.037  0.3931  1.2201 -0.3998
  294MOL0     H40524   2.791   2.327   8.151 -1.1050  1.0920 -1.4541
  294MOL0     H40525   2.653   2.360   8.253  0.6348  1.1116 -0.8691
  294MOL0     H40526   2.689   2.154   8.377 -0.8818  1.1575  0.6675
  294MOL0     H40527   2.839   2.115   8.283  2.7095  1.6248  0.1906
  294MOL0     H40528   2.810   2.356   8.472 -1.8416  0.1220 -0.5216
  294MOL0     H40529   2.924   2.215   8.478  2.2734  1.0078 -0.8670
  294MOL0     H40530   3.148   2.543   8.257 -0.3804 -1.7196  0.2487
  294MOL0     H40531   3.447   2.551   8.328  2.1017  2.3095 -2.5994
  294MOL0     H40532   3.417   2.696   8.411 -1.2631 -1.3515  2.8767
  294MOL0     H40533   3.336   2.676   8.255  0.8417  2.3528  1.2988
  294MOL0     H40534   3.265   2.740   8.965  1.0272 -1.3088  1.4470
  294MOL0     H40535   3.372   2.867   9.143  0.3352 -0.9223  0.3936
  294MOL0     H40536   3.830   2.813   9.154 -0.3477  0.2911  2.9643
  294MOL0     H40537   3.814   2.977   9.096  0.8302 -2.1617 -2.6188
  294MOL0     H40538   3.942   2.980   9.277 -0.2166  1.9124 -1.9676
  294MOL0     H40539   3.802   3.072   9.307  2.4102  0.6099 -3.6581
  294MOL0     H40540   3.869   2.778   9.391  0.2511  0.4831  1.2814
  294MOL0     H40541   3.715   2.866   9.431 -1.1337  2.9403 -3.8483
  294MOL0     H40542   3.851   2.888   9.636  1.6019  0.3501  0.2372
  294MOL0     H40543   3.866   3.045   9.542  0.2583  0.4383 -1.3422
  294MOL0     H40544   4.062   2.822   9.492 -1.5112 -0.7191 -1.2265
  294MOL0     H40545   4.069   2.995   9.470  0.7545 -0.7143 -1.1040
  294MOL0     H40546   4.076   2.829   9.730  1.0696 -0.0393  0.0479
  294MOL0     H40547   4.073   3.015   9.722  0.6073 -0.2289  0.0761
  294MOL0     H40548   4.276   2.998   9.585  3.0179 -1.0977  0.1740
  294MOL0     H40549   4.299   2.834   9.635 -3.4028 -0.6823 -2.4400
  294MOL0     H40550   4.433   2.982   9.769  0.5587 -2.9512 -0.4328
  294MOL0     H40551   4.328   2.892   9.871  2.1303  0.0366  0.2791
  294MOL0     H40552   3.754   2.809   8.952  0.7051 -3.3533  2.8100
  294MOL0     H40553   3.629   2.693   8.760  1.5860 -2.0519  1.1094
  294MOL0     H40554   3.165   2.465   8.748  1.9137  0.0538 -0.7153
  294MOL0     H40555   2.995   2.357   8.618 -0.0321 -0.5250 -1.5845
  294MOL0     H40556   3.110   1.147   8.583 -0.3279 -1.0875  0.0146
  294MOL0     H40557   3.284   1.032   8.677 -5.3704 -1.0242 -0.4567
  294MOL0     H40558   3.807   0.725   8.464  0.7965 -0.4156  0.5700
  294MOL0     H40559   3.966   0.604   8.599 -0.4420  0.4210 -0.8383
  294MOL0     H40560   4.143   0.521   8.906 -1.5747 -0.3765 -0.0930
  294MOL0     H40561   4.092   0.530   8.732 -0.8003 -1.4131  0.4950
  294MOL0     H40562   4.279   0.727   8.874  0.0441 -0.0583  0.2249
  294MOL0     H40563   4.191   0.757   8.715 -0.5784 -1.4767  0.1579
  294MOL0     H40564   4.294   0.575   8.607 -1.0367 -0.2500  0.0153
  294MOL0     H40565   4.417   0.683   8.694  1.7615 -1.3444  3.3653
  294MOL0     H40566   4.422   0.508   8.874  3.8310 -2.9366 -0.8346
  294MOL0     H40567   4.495   0.457   8.728  0.2721 -0.4868 -0.0190
  294MOL0     H40568   4.177   0.190   8.760 -3.6176  2.7376 -0.8574
  294MOL0     H40569   3.818   0.815   8.942 -0.4852  1.7803 -1.3669
  294MOL0     H40570   3.625   0.878   8.974  1.1105 -1.3184  0.1025
  294MOL0     H40571   3.606   1.007   8.845  1.7493 -0.1296 -1.8173
  294MOL0     H40572   3.503   0.862   8.852  0.1690  0.8843 -0.7456
  295MOL0     O40573   1.569   8.462   8.482  0.7652  0.4270  0.0501
  295MOL0     C40574   1.591   8.514   8.375  0.0705 -0.1531  0.6945
  295MOL0     O40575   1.720   8.529   8.315  0.4384 -0.5831 -0.7498
  295MOL0     C40576   1.824   8.499   8.405  0.7966 -0.5538  0.5476
  295MOL0     C40577   1.847   8.364   8.438 -0.4163 -0.4201 -0.1336
  295MOL0     C40578   1.962   8.322   8.507  0.0856  0.5055  0.4578
  295MOL0     C40579   2.066   8.409   8.535 -0.6553 -0.5936 -0.1171
  295MOL0     O40580   2.181   8.357   8.593 -0.4054 -0.8909  0.3106
  295MOL0     C40581   2.298   8.429   8.606 -1.0646 -0.4855  0.1241
  295MOL0     C40582   2.397   8.364   8.698  0.7642 -0.2307 -0.2669
  295MOL0     C40583   2.488   8.464   8.762 -1.0088 -0.6477  0.9913
  295MOL0     C40584   2.610   8.387   8.818  0.2600 -0.6646  0.0945
  295MOL0     C40585   2.701   8.487   8.883  0.3999  0.1595 -0.4643
  295MOL0     C40586   2.818   8.424   8.953 -0.9476 -0.2837  0.0732
  295MOL0     C40587   2.912   8.529   9.021  0.2437 -0.5635  1.1979
  295MOL0     C40588   3.000   8.452   9.114 -0.0914  0.4587  0.6285
  295MOL0     N40589   3.123   8.424   9.051 -0.3166  0.0068  0.2019
  295MOL0     C40590   3.164   8.303   9.005 -0.1688 -0.7130 -0.0027
  295MOL0     C40591   3.287   8.334   8.948 -0.5002  0.3559 -0.0399
  295MOL0     C40592   3.359   8.222   8.875 -0.4448 -0.0346 -0.7171
  295MOL0     C40593   3.294   8.172   8.749 -0.1744 -1.3743  0.2153
  295MOL0     C40594   3.386   8.073   8.674 -0.8211  0.3417 -0.3439
  295MOL0     C40595   3.372   7.929   8.728 -0.2184  0.7359 -0.0513
  295MOL0     O40596   3.452   7.917   8.841 -0.3008 -0.7166  0.8285
  295MOL0     C40597   3.516   7.797   8.872 -0.3645 -0.1016  0.2303
  295MOL0     C40598   3.625   7.802   8.959 -0.4069  0.1931 -1.2673
  295MOL0     C40599   3.705   7.687   8.992 -0.8550 -0.5253  0.6900
  295MOL0     C40600   3.821   7.709   9.088  0.0823 -0.2733  1.0270
  295MOL0     C40601   3.671   7.564   8.936 -0.0765  0.0868 -0.1463
  295MOL0     C40602   3.724   7.437   8.981  0.3274  0.1177  0.0708
  295MOL0     O40603   3.744   7.342   8.889 -0.0344  0.3319  0.5358
  295MOL0     C40604   3.807   7.221   8.920 -0.0674 -0.5053 -0.1144
  295MOL0     C40605   3.936   7.213   8.986 -0.0134 -0.3693  0.3349
  295MOL0     C40606   3.987   7.093   9.022  0.5300  0.2675 -0.3463
  295MOL0     C40607   3.923   6.977   8.995 -0.5219 -0.0620  0.1188
  295MOL0     O40608   3.968   6.849   9.029  0.0243  0.6124  0.9705
  295MOL0     C40609   4.041   6.816   9.148 -0.6162  0.0970 -0.5702
  295MOL0     C40610   4.162   6.732   9.119 -0.7319  1.2841  0.3653
  295MOL0     C40611   4.152   6.578   9.098 -0.0629 -0.2999  0.0747
  295MOL0     C40612   4.101   6.507   9.221 -0.2816  0.4280  0.2272
  295MOL0     C40613   4.114   6.354   9.205  0.3072  0.5757  0.4767
  295MOL0     C40614   4.027   6.282   9.297 -0.8819  0.1439 -0.4178
  295MOL0     C40615   4.093   6.307   9.438 -0.4576 -0.4063  0.1622
  295MOL0     C40616   4.082   6.202   9.550  0.6137 -0.3085  0.7191
  295MOL0    Cl40617   3.959   6.270   9.667  0.7396 -0.2628  0.1824
  295MOL0     C40618   3.803   6.983   8.929  1.1232  0.6273  0.3710
  295MOL0     C40619   3.741   7.106   8.887  0.8071  0.3113 -0.6849
  295MOL0     O40620   3.721   7.423   9.108  0.5767 -1.0427  0.2126
  295MOL0     C40621   3.568   7.566   8.844 -0.3047 -0.1540  0.8001
  295MOL0     C40622   3.486   7.676   8.820  0.0171  0.0375  0.3876
  295MOL0     N40623   3.318   8.471   8.954 -0.1307  0.0927  0.1726
  295MOL0     N40624   3.220   8.521   9.024 -0.4544  0.1062 -1.2262
  295MOL0     C40625   2.048   8.541   8.498 -0.3946  0.2882  0.2739
  295MOL0     C40626   1.926   8.587   8.450  0.4586 -0.6955 -0.4570
  295MOL0     C40627   1.472   8.553   8.296  0.0095  0.0454  0.0716
  295MOL0     C40628   1.375   8.462   8.271 -0.5429  0.8037  0.3017
  295MOL0     C40629   1.263   8.500   8.206 -0.5228  0.4961 -0.6796
  295MOL0     C40630   1.245   8.619   8.144 -0.6317  0.1887 -0.2550
  295MOL0     O40631   1.123   8.653   8.087 -0.6998 -0.2544 -0.5895
  295MOL0     C40632   1.035   8.727   8.179 -0.2101  0.4821 -0.4321
  295MOL0     C40633   1.091   8.869   8.209  0.1892 -0.9221  0.2322
  295MOL0     C40634   1.095   8.967   8.089  0.2890  0.1513 -0.7286
  295MOL0     C40635   1.159   9.109   8.129 -0.0832 -0.1703  0.6008
  295MOL0     C40636   1.069   9.172   8.230 -0.1818 -0.1794 -0.5169
  295MOL0     C40637   0.982   9.211   8.302 -0.6513 -0.4142  0.4958
  295MOL0     C40638   1.349   8.710   8.165 -0.4165 -0.3807 -0.3134
  295MOL0     C40639   1.466   8.677   8.238  0.2476  0.3191  1.0152
  295MOL0     C40640   1.585   8.779   8.242 -0.0531  0.6070 -0.5005
  295MOL0     H40641   1.777   8.285   8.414 -0.0247 -2.4115  4.3742
  295MOL0     H40642   1.977   8.216   8.519  0.4134  0.3640 -0.9584
  295MOL0     H40643   2.282   8.523   8.659 -1.5654 -0.4056 -0.1606
  295MOL0     H40644   2.341   8.449   8.507 -1.2955 -1.5945 -0.2114
  295MOL0     H40645   2.348   8.319   8.785 -0.3371  3.7040  1.3656
  295MOL0     H40646   2.452   8.286   8.643  0.0605 -0.1626 -1.0769
  295MOL0     H40647   2.522   8.537   8.688  0.2456 -1.9063  0.2723
  295MOL0     H40648   2.434   8.516   8.842 -0.0595 -1.1027  1.9589
  295MOL0     H40649   2.576   8.306   8.882 -0.0916 -1.2851 -0.8582
  295MOL0     H40650   2.662   8.346   8.731  1.2473  0.7769 -0.0336
  295MOL0     H40651   2.650   8.537   8.965 -0.1560  0.6020 -1.0695
  295MOL0     H40652   2.723   8.563   8.807 -1.1590  1.5558  0.4096
  295MOL0     H40653   2.772   8.352   9.022  0.4419 -2.6627 -1.3509
  295MOL0     H40654   2.888   8.374   8.887 -0.1904  0.9127 -0.0499
  295MOL0     H40655   2.866   8.600   9.090  2.2206  0.2118  1.7916
  295MOL0     H40656   2.963   8.586   8.943  1.3831  1.1423  3.0931
  295MOL0     H40657   3.012   8.504   9.210 -2.1183 -0.4091  1.4039
  295MOL0     H40658   2.951   8.358   9.140  0.2726 -0.5011 -1.9465
  295MOL0     H40659   3.105   8.212   9.007 -1.0629 -0.1924 -1.2537
  295MOL0     H40660   3.374   8.141   8.947  4.7210  1.4198  0.2138
  295MOL0     H40661   3.458   8.266   8.863 -1.7076  4.2636  2.3450
  295MOL0     H40662   3.192   8.137   8.767 -0.5985  0.6454  2.2042
  295MOL0     H40663   3.285   8.253   8.676  4.7626 -2.5907 -2.1631
  295MOL0     H40664   3.355   8.090   8.571  1.0331 -0.8221 -1.1508
  295MOL0     H40665   3.490   8.101   8.696 -1.9666  1.5500  4.8060
  295MOL0     H40666   3.269   7.903   8.754  0.8776 -0.6543  3.3886
  295MOL0     H40667   3.392   7.855   8.649 -1.5009  0.4403 -0.1211
  295MOL0     H40668   3.653   7.901   8.994 -0.7307 -0.7073  1.7882
  295MOL0     H40669   3.780   7.691   9.187 -2.2924 -0.8133  0.0109
  295MOL0     H40670   3.863   7.810   9.082  0.5865 -0.4362  1.6819
  295MOL0     H40671   3.896   7.629   9.077  0.1142 -0.1671  0.4452
  295MOL0     H40672   3.986   7.303   9.019 -0.3408  0.3093 -0.9502
  295MOL0     H40673   4.078   7.093   9.082  1.2945  1.4602 -1.4742
  295MOL0     H40674   4.075   6.906   9.201  2.9699 -1.2511 -0.3104
  295MOL0     H40675   3.974   6.760   9.214  1.8100 -2.6240 -0.2238
  295MOL0     H40676   4.213   6.778   9.033  0.6861 -0.0451  0.4520
  295MOL0     H40677   4.234   6.756   9.198  1.7233  3.0546 -2.1813
  295MOL0     H40678   4.247   6.536   9.064 -1.1681 -2.5174 -0.5253
  295MOL0     H40679   4.080   6.566   9.016 -0.7349 -2.6906  0.9258
  295MOL0     H40680   4.000   6.540   9.245 -0.6831 -0.7637  0.2176
  295MOL0     H40681   4.160   6.543   9.306 -2.1751 -0.2875  1.9260
  295MOL0     H40682   4.079   6.321   9.107 -0.8568 -1.1755  1.4229
  295MOL0     H40683   4.222   6.342   9.218  0.4246  1.6998  0.6554
  295MOL0     H40684   4.029   6.175   9.273  0.4873  0.1410 -0.3297
  295MOL0     H40685   3.926   6.324   9.296 -0.4209  1.2613 -1.4688
  295MOL0     H40686   4.044   6.400   9.472 -1.0504 -0.3183 -0.8859
  295MOL0     H40687   4.200   6.320   9.421 -0.3069 -3.0788 -1.4629
  295MOL0     H40688   4.178   6.199   9.601  0.7359 -0.1849  0.4958
  295MOL0     H40689   4.066   6.104   9.503 -0.0403  0.4036 -0.5889
  295MOL0     H40690   3.760   6.892   8.890 -2.2417  1.8796  0.8068
  295MOL0     H40691   3.653   7.117   8.824 -1.5196  3.2601  2.6273
  295MOL0     H40692   3.537   7.468   8.808 -0.1862 -0.1095  0.5750
  295MOL0     H40693   3.411   7.662   8.743  1.3280  2.5222 -1.5053
  295MOL0     H40694   2.123   8.615   8.523  0.5522 -0.7430  0.5750
  295MOL0     H40695   1.923   8.695   8.442  2.0252 -0.5858  0.0883
  295MOL0     H40696   1.394   8.365   8.316 -2.0586 -0.3918 -1.4665
  295MOL0     H40697   1.182   8.429   8.205 -1.3077  1.3624  0.2148
  295MOL0     H40698   0.938   8.722   8.129  0.8507 -2.3550 -2.4374
  295MOL0     H40699   1.031   8.675   8.276  1.5673 -2.2112 -1.6847
  295MOL0     H40700   1.189   8.871   8.257 -0.1099  1.0960  0.8472
  295MOL0     H40701   1.025   8.917   8.282 -0.0331  1.7641 -1.5882
  295MOL0     H40702   1.152   8.926   8.005  0.0964 -1.3312 -0.1715
  295MOL0     H40703   0.997   8.999   8.051  1.4410  3.1318 -1.4928
  295MOL0     H40704   1.156   9.174   8.041  2.0977  0.6599  1.0581
  295MOL0     H40705   1.262   9.103   8.166 -0.7051 -0.6292  2.3564
  295MOL0     H40706   0.907   9.237   8.374  0.1876  2.8806  0.3110
  295MOL0     H40707   1.344   8.810   8.124  0.4547 -0.3842 -0.4449
  295MOL0     H40708   1.549   8.881   8.260 -0.5777  0.5075 -0.9809
  295MOL0     H40709   1.665   8.761   8.314 -0.4076  0.8985 -0.0263
  295MOL0     H40710   1.618   8.767   8.139 -1.7770 -0.9240 -0.9402
  296MOL0     O40711   2.795   2.159   6.671  0.2446  0.7766  0.8811
  296MOL0     C40712   2.912   2.197   6.683  0.8443  0.2138  0.1696
  296MOL0     O40713   2.966   2.316   6.622  0.5927  0.3330 -0.3769
  296MOL0     C40714   2.881   2.425   6.583 -0.0805  0.2612 -0.5363
  296MOL0     C40715   2.941   2.515   6.498  0.2640  0.0150 -0.0888
  296MOL0     C40716   2.874   2.633   6.454 -0.3390  0.4174  0.1509
  296MOL0     C40717   2.741   2.663   6.489 -0.6982 -0.1783 -0.1877
  296MOL0     O40718   2.674   2.763   6.417  0.1627  0.6849  0.5898
  296MOL0     C40719   2.533   2.770   6.438  0.1533 -0.2895  0.2817
  296MOL0     C40720   2.470   2.881   6.352 -0.2222 -0.2437 -0.7090
  296MOL0     C40721   2.325   2.897   6.402 -1.0834 -0.3571  1.0213
  296MOL0     C40722   2.251   3.021   6.342  0.2143 -0.3116 -0.1902
  296MOL0     C40723   2.097   3.020   6.335  0.0325  0.5945  0.4107
  296MOL0     C40724   2.012   3.029   6.473  0.8374  0.1010  0.3414
  296MOL0     C40725   1.857   2.978   6.465 -0.0052 -0.5044  0.5855
  296MOL0     C40726   1.749   3.079   6.425 -0.8285  0.3262 -0.5693
  296MOL0     N40727   1.766   3.204   6.503  0.1805  0.6441 -0.2868
  296MOL0     C40728   1.747   3.210   6.637 -0.1888  0.3490  0.1798
  296MOL0     C40729   1.719   3.336   6.661  0.5400  0.3592 -0.4461
  296MOL0     C40730   1.661   3.376   6.789  0.4875  0.4378 -0.7246
  296MOL0     C40731   1.767   3.417   6.891  0.1815  0.6848  0.2275
  296MOL0     C40732   1.838   3.548   6.840 -0.7300 -0.1528 -0.4874
  296MOL0     C40733   1.928   3.600   6.952 -0.7518  0.3428 -0.7000
  296MOL0     O40734   2.049   3.521   6.969 -1.1240 -0.0776 -0.4766
  296MOL0     C40735   2.149   3.569   7.054 -0.8954  0.5027 -0.1496
  296MOL0     C40736   2.153   3.692   7.114  0.3054  0.6007  0.6780
  296MOL0     C40737   2.256   3.738   7.197  0.1330  0.4086  0.3170
  296MOL0     C40738   2.246   3.879   7.253  1.0155  0.1814  0.3740
  296MOL0     C40739   2.364   3.651   7.216  0.5418  0.1989 -1.0569
  296MOL0     C40740   2.494   3.690   7.289  0.3627 -0.2065  0.4087
  296MOL0     O40741   2.545   3.804   7.243 -0.3022  0.1019 -1.0195
  296MOL0     C40742   2.680   3.821   7.261  0.0468 -0.0207 -0.2564
  296MOL0     C40743   2.710   3.889   7.381  0.4428  0.1324 -0.0153
  296MOL0     C40744   2.845   3.927   7.405  0.4205 -0.9565  0.0637
  296MOL0     C40745   2.940   3.906   7.300 -0.7140 -1.1567  0.1750
  296MOL0     O40746   3.075   3.929   7.288 -0.0734 -0.3706  0.2677
  296MOL0     C40747   3.147   3.963   7.409 -1.1212  0.1685  0.9104
  296MOL0     C40748   3.186   3.850   7.506  0.1786 -0.6882 -0.4658
  296MOL0     C40749   3.320   3.782   7.474  0.0078 -0.8632 -0.1028
  296MOL0     C40750   3.338   3.663   7.563 -0.1108 -0.4324 -0.1979
  296MOL0     C40751   3.492   3.614   7.548  0.2311  1.0467 -0.2384
  296MOL0     C40752   3.520   3.512   7.652 -0.2596  0.5934  0.0263
  296MOL0     C40753   3.654   3.436   7.637 -0.7626 -0.4659  0.4686
  296MOL0     C40754   3.781   3.513   7.626  0.3064  0.2486 -0.2187
  296MOL0    Cl40755   3.843   3.583   7.784 -0.1838 -0.1159  0.4353
  296MOL0     C40756   2.905   3.850   7.176  0.6375 -0.7149 -0.7969
  296MOL0     C40757   2.773   3.809   7.159 -0.6418  0.0536  0.0357
  296MOL0     O40758   2.557   3.602   7.355  0.4137 -0.5590 -0.9888
  296MOL0     C40759   2.369   3.531   7.152 -0.5287 -0.2828 -0.2290
  296MOL0     C40760   2.257   3.486   7.083  0.4954  0.1255  0.0019
  296MOL0     N40761   1.728   3.410   6.548 -0.4088 -0.8799  0.7252
  296MOL0     N40762   1.745   3.326   6.456  0.8456 -0.2598 -0.0318
  296MOL0     C40763   2.687   2.571   6.582  0.4762  1.0366  0.1917
  296MOL0     C40764   2.751   2.451   6.628  0.2507 -0.4552  0.3371
  296MOL0     C40765   2.991   2.124   6.782 -0.3573  0.4535  0.2869
  296MOL0     C40766   3.085   2.193   6.853  0.7595 -0.0886  0.1927
  296MOL0     C40767   3.164   2.131   6.950 -0.3171  0.1260  0.0522
  296MOL0     C40768   3.159   1.994   6.968  0.3810  1.0339  0.2142
  296MOL0     O40769   3.235   1.932   7.071  0.3701 -0.3882 -0.2484
  296MOL0     C40770   3.233   1.790   7.091 -0.4243 -0.5063  0.9150
  296MOL0     C40771   3.147   1.748   7.216  0.1074  0.2132 -0.1892
  296MOL0     C40772   3.154   1.597   7.237 -0.9481  0.4480  0.2891
  296MOL0     C40773   3.064   1.533   7.345 -0.4363 -0.6952 -0.0167
  296MOL0     C40774   3.074   1.596   7.475 -0.2323 -0.0814  0.3368
  296MOL0     C40775   3.089   1.648   7.586  0.0504  1.0362  0.8974
  296MOL0     C40776   3.069   1.927   6.891  0.3712 -0.6129 -0.0903
  296MOL0     C40777   2.980   1.988   6.812 -0.8396  1.0966 -0.7796
  296MOL0     C40778   2.879   1.892   6.749 -0.6593 -0.2584  0.0188
  296MOL0     H40779   3.044   2.499   6.470  0.4121  0.5830  0.1283
  296MOL0     H40780   2.920   2.690   6.374  3.8021 -0.2301  1.7904
  296MOL0     H40781   2.524   2.798   6.544  0.1815 -3.5268  1.2343
  296MOL0     H40782   2.479   2.676   6.425  2.3740 -1.5571 -0.1703
  296MOL0     H40783   2.525   2.974   6.369  1.5648 -0.5325 -3.9768
  296MOL0     H40784   2.474   2.855   6.245 -0.3552  0.8277 -0.9872
  296MOL0     H40785   2.268   2.805   6.386 -1.7747 -0.1644  2.2436
  296MOL0     H40786   2.330   2.911   6.510  0.4079 -2.5916  1.3075
  296MOL0     H40787   2.276   3.109   6.401 -0.6697  0.6291 -1.1839
  296MOL0     H40788   2.290   3.035   6.241  0.5783  2.0017  0.2278
  296MOL0     H40789   2.065   2.933   6.277  0.6998  1.4075 -1.2365
  296MOL0     H40790   2.062   3.104   6.273 -0.6783 -1.0342 -1.5039
  296MOL0     H40791   2.067   2.974   6.550  1.8466  1.0489  0.3285
  296MOL0     H40792   2.010   3.137   6.494 -1.3919  0.8787 -3.0014
  296MOL0     H40793   1.837   2.916   6.554 -1.3873  0.0263  0.6693
  296MOL0     H40794   1.859   2.896   6.392  1.2112 -0.8530  0.9978
  296MOL0     H40795   1.758   3.095   6.317 -0.6011 -2.7664 -1.1069
  296MOL0     H40796   1.651   3.038   6.450 -1.2043  0.4674 -1.7547
  296MOL0     H40797   1.716   3.131   6.705  0.9999 -0.1003  0.2284
  296MOL0     H40798   1.604   3.288   6.821  0.6246  0.3674 -0.6708
  296MOL0     H40799   1.592   3.459   6.776 -3.3360 -2.2378  0.5565
  296MOL0     H40800   1.737   3.444   6.993  1.5808  0.8255  0.6245
  296MOL0     H40801   1.840   3.337   6.907 -0.4267  0.2441  0.8799
  296MOL0     H40802   1.898   3.524   6.752 -0.4873 -0.3522 -0.2719
  296MOL0     H40803   1.756   3.619   6.823 -1.9948 -1.4666 -0.0936
  296MOL0     H40804   1.946   3.707   6.942  0.8692  0.2240  0.5880
  296MOL0     H40805   1.880   3.591   7.050  1.5110  2.8774  0.7699
  296MOL0     H40806   2.064   3.755   7.102  0.7356  1.2815  0.9947
  296MOL0     H40807   2.339   3.914   7.299  1.4641 -1.0170  0.4157
  296MOL0     H40808   2.182   3.877   7.342 -1.9750 -1.3058 -1.6319
  296MOL0     H40809   2.202   3.946   7.178  2.3324 -0.5465 -1.1108
  296MOL0     H40810   2.631   3.911   7.452  1.6693 -1.9094  2.1074
  296MOL0     H40811   2.882   3.959   7.502 -1.7009  0.7648  0.3684
  296MOL0     H40812   3.243   4.013   7.392 -1.2341  0.9738  2.4741
  296MOL0     H40813   3.093   4.039   7.465  0.3516  0.8094  1.5286
  296MOL0     H40814   3.192   3.895   7.605 -0.9361 -0.6307 -0.4110
  296MOL0     H40815   3.099   3.785   7.517 -0.1759 -0.7230 -2.8725
  296MOL0     H40816   3.400   3.855   7.484  0.0950 -0.6856 -1.8286
  296MOL0     H40817   3.322   3.765   7.366  3.0288  2.1876 -0.6926
  296MOL0     H40818   3.265   3.586   7.537 -1.1827  0.2892  0.5987
  296MOL0     H40819   3.319   3.698   7.665 -0.9408  4.9155 -1.8804
  296MOL0     H40820   3.499   3.578   7.445  0.7924  0.4150  0.0123
  296MOL0     H40821   3.560   3.699   7.557  2.6100 -0.7964  0.2862
  296MOL0     H40822   3.439   3.439   7.651 -0.5108  0.8562  0.6260
  296MOL0     H40823   3.518   3.549   7.755  2.4954 -0.8068  0.6696
  296MOL0     H40824   3.651   3.378   7.544  0.6942 -0.9278  0.6791
  296MOL0     H40825   3.676   3.359   7.712  1.7377 -1.9080 -1.5508
  296MOL0     H40826   3.775   3.594   7.553  1.5981 -0.4267 -1.1064
  296MOL0     H40827   3.859   3.442   7.597  1.2880  1.8312 -1.6456
  296MOL0     H40828   2.974   3.835   7.094  3.7644 -0.7480  1.6723
  296MOL0     H40829   2.733   3.779   7.063 -0.7783  0.2975  0.0167
  296MOL0     H40830   2.450   3.459   7.161  0.6168  0.7587 -1.7370
  296MOL0     H40831   2.249   3.380   7.063 -3.3933  0.3473 -0.4046
  296MOL0     H40832   2.584   2.576   6.618  0.9501 -0.0005  1.8070
  296MOL0     H40833   2.695   2.387   6.695  2.1678 -1.4926  1.0371
  296MOL0     H40834   3.098   2.299   6.837  1.9235 -0.4948 -1.9086
  296MOL0     H40835   3.231   2.188   7.014  0.0174 -3.1442  2.9110
  296MOL0     H40836   3.196   1.742   7.000 -2.1708  0.7330  0.9079
  296MOL0     H40837   3.334   1.754   7.112 -0.8142 -1.5607  1.0549
  296MOL0     H40838   3.042   1.775   7.200  0.0295 -1.0790 -2.2189
  296MOL0     H40839   3.189   1.797   7.304  0.5573  1.6588 -1.1496
  296MOL0     H40840   3.133   1.543   7.145 -1.6420 -2.1441  1.8823
  296MOL0     H40841   3.256   1.575   7.271 -1.2989 -1.0003  0.4501
  296MOL0     H40842   3.111   1.434   7.355  2.2315  0.3840 -0.9952
  296MOL0     H40843   2.964   1.516   7.302 -0.7984  1.8839 -0.3087
  296MOL0     H40844   3.098   1.706   7.675 -1.4027 -1.9530  3.1706
  296MOL0     H40845   3.069   1.818   6.895  1.1277 -0.5947  0.9779
  296MOL0     H40846   2.899   1.788   6.775 -0.1225 -0.2800 -0.4613
  296MOL0     H40847   2.781   1.898   6.798 -0.2918 -3.8570  1.4987
  296MOL0     H40848   2.858   1.898   6.642 -1.3040 -2.2802 -0.0044
  297MOL0     O40849   0.243   3.911   3.561  0.3293  0.5903 -0.0150
  297MOL0     C40850   0.187   4.002   3.616 -0.7218  0.0839  0.1444
  297MOL0     O40851   0.249   4.105   3.670 -0.0235 -0.3546  0.4766
  297MOL0     C40852   0.385   4.087   3.675 -0.3052  0.1696 -0.5185
  297MOL0     C40853   0.453   4.075   3.794 -0.4353 -0.1267  0.2552
  297MOL0     C40854   0.591   4.071   3.798  0.7037  0.2026 -0.1503
  297MOL0     C40855   0.668   4.084   3.681  0.7285  0.7374 -0.8789
  297MOL0     O40856   0.798   4.052   3.677  0.1165 -0.4610 -0.1806
  297MOL0     C40857   0.859   4.037   3.799 -1.2538  0.3197 -1.0025
  297MOL0     C40858   1.005   4.018   3.777  0.5724 -0.3050  0.4683
  297MOL0     C40859   1.072   4.129   3.696  0.2587 -0.2495  0.9566
  297MOL0     C40860   1.225   4.119   3.706 -0.0757 -0.6606 -0.0619
  297MOL0     C40861   1.293   4.220   3.801  0.0641 -0.3854  0.4169
  297MOL0     C40862   1.443   4.188   3.835 -0.6719  0.1453  0.6384
  297MOL0     C40863   1.502   4.305   3.913 -1.0248  0.6504 -0.3918
  297MOL0     C40864   1.506   4.444   3.844 -0.0408 -0.1490 -0.8944
  297MOL0     N40865   1.592   4.445   3.726  0.4068  0.2248 -0.1959
  297MOL0     C40866   1.561   4.371   3.611 -0.0476 -0.1734  0.6634
  297MOL0     C40867   1.654   4.396   3.516  0.1147 -0.4214  0.9717
  297MOL0     C40868   1.651   4.359   3.373 -0.3214  0.4597 -0.1688
  297MOL0     C40869   1.693   4.209   3.349 -0.4769 -1.6859 -0.0648
  297MOL0     C40870   1.573   4.118   3.383  0.2133  0.1682  0.1308
  297MOL0     C40871   1.445   4.139   3.294  0.4274 -0.0997  0.2088
  297MOL0     O40872   1.337   4.229   3.344 -0.0299  0.3396  0.5128
  297MOL0     C40873   1.222   4.224   3.266  0.0671 -0.3345  0.2690
  297MOL0     C40874   1.097   4.228   3.330  0.2271  0.7388 -0.2583
  297MOL0     C40875   0.976   4.221   3.268  0.9241  0.1040  0.2492
  297MOL0     C40876   0.852   4.223   3.357 -0.1651  0.7071  0.8218
  297MOL0     C40877   0.975   4.218   3.125  0.4336 -0.8010  0.2855
  297MOL0     C40878   0.847   4.222   3.042 -0.4427 -0.8038 -0.0426
  297MOL0     O40879   0.739   4.276   3.106  0.7548 -0.2683  0.3917
  297MOL0     C40880   0.612   4.273   3.047  0.7983  0.2716 -0.7073
  297MOL0     C40881   0.506   4.239   3.141  0.8404  0.0703 -0.3301
  297MOL0     C40882   0.376   4.221   3.085 -1.1493 -0.0362 -0.4755
  297MOL0     C40883   0.349   4.225   2.950  0.5568  0.0652  0.6556
  297MOL0     O40884   0.217   4.219   2.915  0.4444 -0.2189 -0.0040
  297MOL0     C40885   0.184   4.174   2.779  0.0861  0.0909  0.7620
  297MOL0     C40886   0.134   4.295   2.706  0.3733  0.0446  0.0452
  297MOL0     C40887  -0.014   4.348   2.758 -0.7397 -0.3494  0.3286
  297MOL0     C40888  -0.081   4.422   2.639 -0.0401 -0.0064 -0.4302
  297MOL0     C40889  -0.206   4.515   2.677  0.4627  0.0828  0.8644
  297MOL0     C40890  -0.257   4.601   2.563  0.5895  0.5066  0.3353
  297MOL0     C40891  -0.322   4.510   2.453  0.2408 -1.1180 -0.5432
  297MOL0     C40892  -0.399   4.597   2.342 -0.0089 -0.2272 -0.1925
  297MOL0    Cl40893  -0.302   4.724   2.273 -0.3452 -0.1996 -0.5452
  297MOL0     C40894   0.451   4.247   2.862 -0.5221 -0.2998  0.5774
  297MOL0     C40895   0.579   4.282   2.905  0.1146  0.0563 -0.0792
  297MOL0     O40896   0.853   4.190   2.923 -0.4088  0.2803 -0.5015
  297MOL0     C40897   1.099   4.224   3.058 -0.2255  0.1297 -0.1934
  297MOL0     C40898   1.223   4.228   3.123  0.4667  0.3052  0.2555
  297MOL0     N40899   1.744   4.478   3.581  0.0736  0.1941 -0.5170
  297MOL0     N40900   1.708   4.506   3.700  0.3396 -0.9607 -0.8458
  297MOL0     C40901   0.600   4.084   3.562  0.6221 -0.3607  0.3975
  297MOL0     C40902   0.460   4.095   3.559  0.3726  0.4856  0.8294
  297MOL0     C40903   0.039   4.017   3.585  0.2094 -0.5858 -0.2048
  297MOL0     C40904   0.002   4.127   3.499  0.6650  0.6740  0.6560
  297MOL0     C40905  -0.133   4.133   3.451 -0.4756 -0.4875  0.2420
  297MOL0     C40906  -0.225   4.034   3.477 -0.2842  0.8178 -0.4281
  297MOL0     O40907  -0.353   4.040   3.439  0.2811  0.6476  0.2500
  297MOL0     C40908  -0.417   4.167   3.430  0.1214  0.1117 -0.3687
  297MOL0     C40909  -0.483   4.185   3.566 -0.2847  0.7521 -0.5019
  297MOL0     C40910  -0.623   4.249   3.547  0.3266 -0.6843 -0.4450
  297MOL0     C40911  -0.739   4.152   3.579  0.3430  0.0828  0.0116
  297MOL0     C40912  -0.767   4.161   3.721  0.2696  0.0139 -0.7055
  297MOL0     C40913  -0.772   4.180   3.838 -0.0008 -0.2695 -0.5666
  297MOL0     C40914  -0.184   3.922   3.551 -0.2965 -0.3893 -1.1266
  297MOL0     C40915  -0.054   3.911   3.605 -0.3941 -1.2307  0.5747
  297MOL0     C40916  -0.012   3.783   3.679 -0.0239 -0.7124  1.0092
  297MOL0     H40917   0.388   4.065   3.881 -0.0802  2.4585  0.8951
  297MOL0     H40918   0.634   4.051   3.896  1.0734 -0.7732 -0.5009
  297MOL0     H40919   0.824   3.947   3.850 -1.5178  0.7905 -0.3438
  297MOL0     H40920   0.847   4.117   3.873  1.1792  0.9441 -1.1783
  297MOL0     H40921   1.057   4.011   3.873 -0.9893  0.1610  1.3806
  297MOL0     H40922   1.014   3.921   3.728  0.7696 -1.3810  2.5333
  297MOL0     H40923   1.032   4.126   3.594 -2.1757  2.3828  1.6834
  297MOL0     H40924   1.046   4.229   3.733  2.8540  1.2973 -1.0433
  297MOL0     H40925   1.250   4.021   3.750  1.7111  0.3881  1.4074
  297MOL0     H40926   1.260   4.134   3.604 -1.9908 -2.0446 -0.9850
  297MOL0     H40927   1.242   4.223   3.898  1.2504  0.8128  1.0294
  297MOL0     H40928   1.292   4.313   3.745  0.0433 -0.5276  0.1827
  297MOL0     H40929   1.448   4.093   3.888 -2.0954 -0.7478 -0.7357
  297MOL0     H40930   1.512   4.174   3.751  1.3247 -0.4214  2.2975
  297MOL0     H40931   1.605   4.278   3.937 -1.4179 -0.2402  0.3407
  297MOL0     H40932   1.460   4.301   4.014  1.6780 -2.8807  0.7938
  297MOL0     H40933   1.411   4.493   3.821 -1.5664 -2.3368  0.3329
  297MOL0     H40934   1.543   4.515   3.919  1.8448 -1.0253 -0.9383
  297MOL0     H40935   1.472   4.315   3.587 -0.4244  1.0548 -0.9854
  297MOL0     H40936   1.713   4.433   3.321  1.6483  0.5578  2.1392
  297MOL0     H40937   1.552   4.377   3.331 -0.8767  0.4098  1.0770
  297MOL0     H40938   1.726   4.187   3.247  0.5463 -4.2826  0.7417
  297MOL0     H40939   1.785   4.187   3.403 -0.2082 -1.6738 -0.5147
  297MOL0     H40940   1.601   4.013   3.371  1.9916  0.3218  2.1850
  297MOL0     H40941   1.551   4.128   3.490  0.9174 -1.8783  0.5130
  297MOL0     H40942   1.487   4.182   3.203  0.0948  0.2204  0.2043
  297MOL0     H40943   1.406   4.041   3.265 -2.5496  1.5955 -2.0421
  297MOL0     H40944   1.101   4.241   3.437 -1.5651 -0.1900 -0.0486
  297MOL0     H40945   0.775   4.160   3.311 -1.5652  0.7499  2.9790
  297MOL0     H40946   0.813   4.324   3.370  0.4488  1.2470 -1.1678
  297MOL0     H40947   0.881   4.174   3.450 -3.3256  2.4984  2.9217
  297MOL0     H40948   0.527   4.203   3.241 -0.3410 -1.4888 -0.6039
  297MOL0     H40949   0.299   4.189   3.155 -1.3258 -3.2420 -1.9996
  297MOL0     H40950   0.271   4.133   2.727 -0.0330  0.3910  0.3191
  297MOL0     H40951   0.119   4.086   2.777  0.2905 -0.1490 -3.1345
  297MOL0     H40952   0.197   4.384   2.720  1.4241 -0.8343  1.0821
  297MOL0     H40953   0.117   4.270   2.601 -0.1427 -0.1520  0.1736
  297MOL0     H40954  -0.008   4.414   2.845 -4.7085  2.1516 -0.9927
  297MOL0     H40955  -0.072   4.260   2.786  0.8770 -1.1554  1.2949
  297MOL0     H40956  -0.104   4.350   2.560  0.4120 -1.4928  0.7573
  297MOL0     H40957   0.003   4.483   2.603 -0.0085  0.5309  0.5363
  297MOL0     H40958  -0.285   4.456   2.724  0.0469  2.3616  3.2974
  297MOL0     H40959  -0.167   4.574   2.761  1.0124  0.8130  0.1165
  297MOL0     H40960  -0.175   4.663   2.526 -1.5492  2.6422 -1.1134
  297MOL0     H40961  -0.336   4.670   2.596 -0.6885 -1.2903  1.1961
  297MOL0     H40962  -0.390   4.434   2.493  0.3199 -1.0276 -0.2380
  297MOL0     H40963  -0.248   4.451   2.398 -0.0469 -0.7004 -1.3924
  297MOL0     H40964  -0.496   4.634   2.375  0.5833  1.2490 -0.0297
  297MOL0     H40965  -0.436   4.541   2.256 -4.8573 -2.4824  2.9250
  297MOL0     H40966   0.432   4.259   2.756 -2.3185  1.1689  1.0079
  297MOL0     H40967   0.662   4.323   2.849 -0.7109  0.5092 -0.9937
  297MOL0     H40968   1.100   4.231   2.949  1.8382  4.1310 -0.1046
  297MOL0     H40969   1.312   4.225   3.062 -0.9175 -3.2368 -1.9566
  297MOL0     H40970   0.661   4.080   3.473  0.4857  1.1803  0.2135
  297MOL0     H40971   0.417   4.101   3.459  2.7370 -1.0949 -0.3827
  297MOL0     H40972   0.073   4.198   3.457  0.8543  0.8593  1.2859
  297MOL0     H40973  -0.172   4.217   3.394  2.3024  0.0193 -1.0402
  297MOL0     H40974  -0.360   4.255   3.403 -1.6098  1.2666 -0.4247
  297MOL0     H40975  -0.493   4.155   3.352 -1.4236 -1.8050  1.2812
  297MOL0     H40976  -0.428   4.247   3.638 -0.2812 -0.9951  1.1016
  297MOL0     H40977  -0.494   4.089   3.618 -0.3542 -0.1298 -2.1036
  297MOL0     H40978  -0.642   4.332   3.615 -0.3085 -1.5137  0.4196
  297MOL0     H40979  -0.623   4.279   3.442  1.4048  1.5975  0.1609
  297MOL0     H40980  -0.713   4.050   3.552 -0.2911  0.2973 -1.5410
  297MOL0     H40981  -0.825   4.183   3.519  1.3571  3.0324 -0.0676
  297MOL0     H40982  -0.767   4.200   3.943  0.2825  1.1727 -0.8419
  297MOL0     H40983  -0.257   3.841   3.556  0.0352 -0.7620 -2.0695
  297MOL0     H40984   0.045   3.720   3.610 -0.9311  0.6064 -1.0140
  297MOL0     H40985   0.058   3.807   3.760  0.3471  0.9088  0.2403
  297MOL0     H40986  -0.100   3.727   3.712 -0.4022 -0.4936  0.3675
  298MOL0     O40987   1.690  10.165   7.203  0.2053  0.2340 -0.6530
  298MOL0     C40988   1.639  10.273   7.230 -0.4502  0.2748 -0.1578
  298MOL0     O40989   1.583  10.349   7.134  1.3795 -0.3394  0.0965
  298MOL0     C40990   1.505  10.303   7.025 -0.0741 -0.5828  0.6398
  298MOL0     C40991   1.447  10.177   7.025  0.4227 -0.2806  0.0750
  298MOL0     C40992   1.369  10.137   6.920  0.1078  0.1320 -0.6508
  298MOL0     C40993   1.350  10.223   6.814  0.0664  0.4252 -0.2739
  298MOL0     O40994   1.264  10.193   6.706  0.2811  0.3819  0.0542
  298MOL0     C40995   1.177  10.076   6.718 -0.2286  0.3210 -0.3888
  298MOL0     C40996   1.053  10.111   6.805 -0.5539 -0.7416  0.6120
  298MOL0     C40997   0.984  10.238   6.771 -0.5406  0.3355  0.4464
  298MOL0     C40998   0.871  10.256   6.876 -0.4232 -0.3274  0.1933
  298MOL0     C40999   0.777  10.374   6.867  0.1268  0.0840 -0.0901
  298MOL0     C41000   0.677  10.357   6.750  0.1135  0.7511 -0.6692
  298MOL0     C41001   0.577  10.466   6.735 -0.5264  0.1445  0.4490
  298MOL0     C41002   0.472  10.466   6.848  0.3302 -0.1166  0.6007
  298MOL0     N41003   0.330  10.483   6.805  0.3471  1.0866 -0.5462
  298MOL0     C41004   0.236  10.552   6.881 -0.1874 -0.5096 -0.3390
  298MOL0     C41005   0.118  10.515   6.821  1.3452 -1.3535  0.4126
  298MOL0     C41006  -0.017  10.575   6.865  0.2356 -0.8101  0.1947
  298MOL0     C41007  -0.112  10.483   6.932  0.1649  0.0654  0.6818
  298MOL0     C41008  -0.069  10.468   7.071 -0.0473  0.0621  0.0140
  298MOL0     C41009  -0.152  10.361   7.150 -1.0832 -0.2705  0.5412
  298MOL0     O41010  -0.092  10.335   7.278 -0.1664 -0.5297  0.4805
  298MOL0     C41011  -0.133  10.226   7.356 -0.2050  0.6401 -0.5176
  298MOL0     C41012  -0.053  10.186   7.458  0.5417 -0.2642  0.1625
  298MOL0     C41013  -0.065  10.067   7.521  0.4349  1.0428 -0.4404
  298MOL0     C41014   0.048  10.035   7.620 -0.5715  1.0925  1.0801
  298MOL0     C41015  -0.172   9.979   7.488 -0.3382  0.2381  0.1671
  298MOL0     C41016  -0.188   9.839   7.539 -0.2466 -0.3060 -1.2226
  298MOL0     O41017  -0.281   9.761   7.481  0.3414  0.1053  0.4891
  298MOL0     C41018  -0.304   9.646   7.546 -0.1048  0.2485  0.8658
  298MOL0     C41019  -0.340   9.650   7.685  0.3520 -0.2595  0.1806
  298MOL0     C41020  -0.383   9.539   7.755 -0.1767  0.0603 -0.3155
  298MOL0     C41021  -0.408   9.422   7.687 -0.5038 -0.5666 -0.6287
  298MOL0     O41022  -0.471   9.321   7.749  0.9786 -0.6052 -0.2599
  298MOL0     C41023  -0.413   9.189   7.724 -0.1182 -1.1176  0.1980
  298MOL0     C41024  -0.448   9.089   7.836 -0.3003  0.0181  0.4652
  298MOL0     C41025  -0.373   8.952   7.810 -0.8131 -0.7073 -0.1394
  298MOL0     C41026  -0.391   8.848   7.919  0.6419  0.0960 -0.3048
  298MOL0     C41027  -0.551   8.810   7.954  0.0291 -0.4231  0.0924
  298MOL0     C41028  -0.623   8.750   7.827  0.0080  0.3696  0.0692
  298MOL0     C41029  -0.765   8.703   7.843  0.3106 -0.3653 -0.2979
  298MOL0     C41030  -0.811   8.612   7.732 -0.4106 -0.1743 -0.6400
  298MOL0    Cl41031  -0.833   8.689   7.574 -0.1667 -0.1086  0.2248
  298MOL0     C41032  -0.375   9.410   7.553  0.3342 -1.1125 -0.1400
  298MOL0     C41033  -0.309   9.515   7.485  0.1170  0.0708  0.2774
  298MOL0     O41034  -0.105   9.804   7.620  0.0044  0.5678 -0.0062
  298MOL0     C41035  -0.258  10.024   7.385  0.5820 -0.9803  0.4223
  298MOL0     C41036  -0.239  10.144   7.322 -0.2602  0.8516 -0.6690
  298MOL0     N41037   0.142  10.428   6.718  0.6233  0.4500 -0.6208
  298MOL0     N41038   0.264  10.399   6.720  1.0236  0.4779 -0.3654
  298MOL0     C41039   1.401  10.353   6.811 -1.1012 -0.0119  0.1258
  298MOL0     C41040   1.478  10.399   6.923  0.7075  0.6703 -0.6617
  298MOL0     C41041   1.645  10.335   7.373 -0.6272  0.4069 -0.0395
  298MOL0     C41042   1.546  10.427   7.402  0.3983  0.4312 -0.8180
  298MOL0     C41043   1.536  10.468   7.530  0.8577  0.1094 -0.2303
  298MOL0     C41044   1.623  10.422   7.626  0.8525 -1.2926 -0.0964
  298MOL0     O41045   1.587  10.464   7.753  0.4146 -0.0820 -0.2615
  298MOL0     C41046   1.648  10.401   7.869  0.4268  0.8785  0.4521
  298MOL0     C41047   1.597  10.483   7.989  0.0519  0.2544 -0.2717
  298MOL0     C41048   1.629  10.633   7.977 -0.7018  0.1456 -0.7702
  298MOL0     C41049   1.616  10.702   8.118 -0.0920  0.2808  0.1816
  298MOL0     C41050   1.483  10.695   8.172  0.2979  0.0034 -0.5262
  298MOL0     C41051   1.379  10.696   8.227  0.1240  0.1996  0.1150
  298MOL0     C41052   1.727  10.339   7.594  0.3178 -0.2545  0.2757
  298MOL0     C41053   1.739  10.291   7.472 -0.8535  0.2930  0.5001
  298MOL0     C41054   1.855  10.192   7.447  0.0983 -0.4013 -0.2779
  298MOL0     H41055   1.450  10.109   7.108  1.7960  0.4064  0.6228
  298MOL0     H41056   1.329  10.036   6.917 -0.8496  0.4559  0.4333
  298MOL0     H41057   1.229   9.987   6.756  0.5077 -0.2435 -2.5283
  298MOL0     H41058   1.141  10.048   6.618  1.8949 -1.1197 -0.8171
  298MOL0     H41059   0.982  10.027   6.803 -1.3618 -0.1021  1.4894
  298MOL0     H41060   1.085  10.112   6.910 -1.3671  0.2649  0.8690
  298MOL0     H41061   1.057  10.319   6.767 -1.5367  1.2070 -1.4382
  298MOL0     H41062   0.937  10.239   6.673  0.9928 -0.0377 -0.3119
  298MOL0     H41063   0.819  10.160   6.860  0.8930 -1.1005  0.4190
  298MOL0     H41064   0.920  10.255   6.973  3.1765  2.7427 -1.3538
  298MOL0     H41065   0.832  10.468   6.852 -2.0345  1.4754  0.1905
  298MOL0     H41066   0.719  10.390   6.959 -0.3405  1.8037 -0.6466
  298MOL0     H41067   0.735  10.370   6.658 -2.6198  2.4863 -2.2787
  298MOL0     H41068   0.620  10.264   6.762 -1.1799  1.6016 -0.1010
  298MOL0     H41069   0.530  10.451   6.637  0.2887  0.8737 -0.0654
  298MOL0     H41070   0.623  10.563   6.711  0.0473 -0.7166 -2.3176
  298MOL0     H41071   0.464  10.370   6.901 -2.1069 -0.5329 -0.3672
  298MOL0     H41072   0.509  10.539   6.920  1.1630  0.8071 -0.7169
  298MOL0     H41073   0.255  10.623   6.961  1.4799 -0.8164 -0.4348
  298MOL0     H41074  -0.065  10.619   6.778  0.2976 -0.8146  0.1574
  298MOL0     H41075  -0.005  10.657   6.936 -2.8907 -0.7655  0.8022
  298MOL0     H41076  -0.218  10.511   6.938  0.2878  0.5066  0.8111
  298MOL0     H41077  -0.110  10.382   6.888 -2.4420 -0.7720  2.2810
  298MOL0     H41078   0.036  10.441   7.085  0.1939  0.7926 -0.3731
  298MOL0     H41079  -0.080  10.564   7.121  0.7588 -0.6913  1.7113
  298MOL0     H41080  -0.254  10.394   7.171  0.4115  4.0868  2.1913
  298MOL0     H41081  -0.138  10.266   7.098  3.9313 -0.7612  2.1648
  298MOL0     H41082   0.034  10.242   7.489  0.3791 -0.0374  0.2068
  298MOL0     H41083   0.079   9.932   7.601 -0.7559  1.3920 -1.0171
  298MOL0     H41084   0.016  10.040   7.725  0.8574  5.0228  1.5170
  298MOL0     H41085   0.146  10.084   7.614  0.7270 -1.3995  0.4369
  298MOL0     H41086  -0.342   9.750   7.727  1.6373  0.3225 -1.0281
  298MOL0     H41087  -0.402   9.540   7.862 -3.2357  0.5146 -0.7718
  298MOL0     H41088  -0.457   9.161   7.627  0.5163  0.3312 -0.5394
  298MOL0     H41089  -0.305   9.208   7.723  0.0272 -1.9133 -0.2286
  298MOL0     H41090  -0.415   9.136   7.929  0.0779  2.7555 -0.9225
  298MOL0     H41091  -0.556   9.071   7.841  0.0952 -3.9991 -1.7156
  298MOL0     H41092  -0.267   8.973   7.795 -0.6363  1.3117  2.9105
  298MOL0     H41093  -0.426   8.917   7.721 -0.6528 -1.1164 -0.0716
  298MOL0     H41094  -0.347   8.892   8.009 -0.7183  0.8201  0.0237
  298MOL0     H41095  -0.326   8.764   7.890 -0.3478  0.0732 -2.6791
  298MOL0     H41096  -0.552   8.736   8.035 -2.1985 -2.4133 -1.6134
  298MOL0     H41097  -0.612   8.898   7.973 -0.2605 -0.4426 -0.7040
  298MOL0     H41098  -0.573   8.655   7.806 -3.7326 -1.9143  0.5329
  298MOL0     H41099  -0.604   8.815   7.742 -0.0961  2.0385  1.2774
  298MOL0     H41100  -0.834   8.787   7.850 -0.9519 -1.1666 -2.4453
  298MOL0     H41101  -0.773   8.655   7.942 -2.6030 -1.0099 -0.7481
  298MOL0     H41102  -0.907   8.565   7.756 -1.3932  1.0263 -2.0270
  298MOL0     H41103  -0.741   8.530   7.713 -1.6161 -1.8284  1.5590
  298MOL0     H41104  -0.392   9.322   7.492 -0.6262 -0.0793 -1.4171
  298MOL0     H41105  -0.285   9.507   7.380 -2.0385 -2.6734 -0.1108
  298MOL0     H41106  -0.342   9.963   7.353 -0.4901  1.2572 -1.3894
  298MOL0     H41107  -0.294  10.178   7.235  2.0850  2.9855 -1.4323
  298MOL0     H41108   1.382  10.427   6.734 -2.4062  0.3799  0.7924
  298MOL0     H41109   1.521  10.499   6.917 -0.8080  1.2576 -3.0919
  298MOL0     H41110   1.480  10.467   7.325  0.1511  1.0240 -0.3017
  298MOL0     H41111   1.457  10.531   7.567  1.3231 -0.6473  2.2677
  298MOL0     H41112   1.609  10.299   7.860 -0.9598  1.2726  1.7542
  298MOL0     H41113   1.758  10.397   7.873  0.3985 -2.1179  0.7497
  298MOL0     H41114   1.650  10.438   8.073  3.0449  0.4778 -1.9168
  298MOL0     H41115   1.491  10.463   8.007 -0.1627  2.0808  0.7152
  298MOL0     H41116   1.731  10.646   7.940 -0.6587 -1.7418 -1.3746
  298MOL0     H41117   1.555  10.689   7.919  0.9261  1.9918 -1.1654
  298MOL0     H41118   1.633  10.810   8.108  0.3941  0.1783 -0.1126
  298MOL0     H41119   1.693  10.659   8.183  1.0658 -0.2562 -1.4917
  298MOL0     H41120   1.294  10.702   8.292 -0.5242  2.7342 -0.8710
  298MOL0     H41121   1.798  10.319   7.674 -1.0877  2.9871  2.5334
  298MOL0     H41122   1.930  10.201   7.527 -1.1043 -2.4128  1.1555
  298MOL0     H41123   1.818  10.090   7.444 -0.4233 -0.2162 -3.2811
  298MOL0     H41124   1.910  10.211   7.354 -1.4780  0.4539 -1.0788
  299MOL0     O41125   4.261  10.384   3.533 -0.1460  0.0274 -0.2015
  299MOL0     C41126   4.190  10.292   3.573 -0.7385 -0.5752 -0.3800
  299MOL0     O41127   4.188  10.239   3.702  0.7168  0.0128  0.0497
  299MOL0     C41128   4.281  10.264   3.788 -0.7346  0.8026 -0.3513
  299MOL0     C41129   4.250  10.335   3.909 -0.6663  0.2277 -0.1276
  299MOL0     C41130   4.342  10.367   4.016 -0.0663  0.2446  0.6927
  299MOL0     C41131   4.482  10.323   4.003 -0.2543 -0.6445 -1.0552
  299MOL0     O41132   4.575  10.347   4.098  0.1418  0.1673 -0.6676
  299MOL0     C41133   4.632  10.477   4.071  0.0428 -0.3777  0.4468
  299MOL0     C41134   4.735  10.510   4.182  0.2216 -0.2130 -0.2518
  299MOL0     C41135   4.880  10.503   4.136  0.2422  0.6620 -0.0230
  299MOL0     C41136   4.982  10.523   4.242 -0.8038  0.3694 -0.7019
  299MOL0     C41137   5.017  10.399   4.326 -0.1443  0.1028  0.0910
  299MOL0     C41138   5.131  10.414   4.421  0.1717 -0.4965  0.2695
  299MOL0     C41139   5.181  10.287   4.492 -0.3114  0.2934  0.2740
  299MOL0     C41140   5.069  10.202   4.564 -0.2367  0.8202 -0.0740
  299MOL0     N41141   5.036  10.250   4.701  0.4864 -0.6457 -0.7658
  299MOL0     C41142   4.910  10.296   4.744 -0.1067  1.3268  0.0252
  299MOL0     C41143   4.920  10.323   4.879 -1.0554  0.6436 -0.1069
  299MOL0     C41144   4.816  10.340   4.980 -0.8530  0.2404  0.0946
  299MOL0     C41145   4.832  10.484   5.060  0.8980 -0.0742 -0.6019
  299MOL0     C41146   4.961  10.517   5.143 -0.6587  0.3490  0.1081
  299MOL0     C41147   4.953  10.607   5.264 -1.0218 -1.1543  0.6935
  299MOL0     O41148   4.875  10.723   5.226 -0.6786 -0.0102  0.1796
  299MOL0     C41149   4.782  10.768   5.317  0.1029 -0.9276  0.6854
  299MOL0     C41150   4.811  10.774   5.453  0.2658 -0.3487 -0.5232
  299MOL0     C41151   4.719  10.809   5.545 -0.4213 -0.6219  0.0727
  299MOL0     C41152   4.761  10.801   5.688 -0.7632  0.2129  0.6367
  299MOL0     C41153   4.596  10.858   5.501  0.1430 -0.2755  0.4045
  299MOL0     C41154   4.488  10.920   5.588 -0.4919 -0.1578 -0.0269
  299MOL0     O41155   4.365  10.958   5.527 -0.0085 -0.1119  0.1338
  299MOL0     C41156   4.276  11.032   5.602 -0.3839 -0.5626 -0.4672
  299MOL0     C41157   4.316  11.122   5.703 -0.1622 -0.4227 -0.1390
  299MOL0     C41158   4.222  11.189   5.777  0.0899 -0.6121  0.4734
  299MOL0     C41159   4.080  11.174   5.741 -0.4508  0.2078  0.1968
  299MOL0     O41160   3.995  11.262   5.805 -0.4712  0.4738 -0.2114
  299MOL0     C41161   3.984  11.393   5.758 -0.6065 -0.5726  0.2932
  299MOL0     C41162   3.853  11.457   5.819  0.0661  0.1097 -0.5029
  299MOL0     C41163   3.736  11.369   5.790  0.1315  0.5137  0.3894
  299MOL0     C41164   3.603  11.419   5.847  0.5792 -0.1017 -0.8999
  299MOL0     C41165   3.488  11.351   5.778 -0.3723  1.3431 -0.7965
  299MOL0     C41166   3.355  11.351   5.851  0.2527 -0.1919 -0.5366
  299MOL0     C41167   3.236  11.330   5.757 -0.3886  0.6387  0.3595
  299MOL0     C41168   3.100  11.342   5.822 -0.5321  0.2895  0.2288
  299MOL0    Cl41169   3.061  11.514   5.836  0.2429  0.0835 -0.2388
  299MOL0     C41170   4.046  11.081   5.640  0.2642  0.7756 -0.4059
  299MOL0     C41171   4.143  11.010   5.573  0.2831  0.0397 -0.5064
  299MOL0     O41172   4.509  10.921   5.710  0.1979  0.0223  0.1261
  299MOL0     C41173   4.574  10.852   5.364  0.0959  0.3045 -0.3197
  299MOL0     C41174   4.676  10.816   5.273  0.1690 -0.3687  0.4316
  299MOL0     N41175   5.050  10.303   4.912  0.2453  0.0744  0.2424
  299MOL0     N41176   5.112  10.253   4.814 -0.4018  0.4062 -0.2942
  299MOL0     C41177   4.514  10.255   3.884  0.1516 -0.3567 -0.0925
  299MOL0     C41178   4.418  10.220   3.783  0.4954  0.1130  0.0942
  299MOL0     C41179   4.087  10.249   3.481 -0.0915  0.8994 -0.4437
  299MOL0     C41180   3.971  10.194   3.537  0.3381 -0.2454  0.0914
  299MOL0     C41181   3.865  10.150   3.457  0.8500  0.5307  0.1867
  299MOL0     C41182   3.859  10.171   3.317  0.1672  0.3318  0.2414
  299MOL0     O41183   3.751  10.145   3.232 -0.2710  0.0452  0.5555
  299MOL0     C41184   3.634  10.101   3.287 -0.1703  0.7123 -0.7057
  299MOL0     C41185   3.511  10.121   3.193  0.2908  0.5425  0.3279
  299MOL0     C41186   3.496  10.276   3.161  0.2320 -0.4582  0.2660
  299MOL0     C41187   3.386  10.346   3.233  0.3326 -0.1266  0.6201
  299MOL0     C41188   3.389  10.490   3.209  0.5892  0.5809  0.2727
  299MOL0     C41189   3.402  10.604   3.178 -0.1399  0.8224  0.9524
  299MOL0     C41190   3.983  10.221   3.266  0.2995 -0.6684 -0.4294
  299MOL0     C41191   4.088  10.264   3.345 -0.7385 -0.8425  0.4365
  299MOL0     C41192   4.207  10.323   3.277 -0.3099 -0.3621  0.3954
  299MOL0     H41193   4.148  10.365   3.925  0.1700  2.5558  1.3227
  299MOL0     H41194   4.306  10.435   4.092 -0.5748 -3.4890  4.1308
  299MOL0     H41195   4.558  10.557   4.065  1.8576  1.3493 -0.0252
  299MOL0     H41196   4.687  10.462   3.978 -3.6830  0.4963 -2.0678
  299MOL0     H41197   4.716  10.614   4.212  0.3490 -0.0853 -0.6093
  299MOL0     H41198   4.715  10.438   4.261 -0.1739 -0.0709 -0.2179
  299MOL0     H41199   4.903  10.401   4.107  4.2961  0.9257  1.5260
  299MOL0     H41200   4.898  10.575   4.056  4.0605 -1.4976 -1.3618
  299MOL0     H41201   5.076  10.553   4.195 -1.7759  4.7101 -0.2794
  299MOL0     H41202   4.966  10.603   4.314 -1.4529  1.8178 -2.3862
  299MOL0     H41203   5.057  10.319   4.263  2.4027  0.0368  1.6478
  299MOL0     H41204   4.922  10.371   4.373  0.9114  0.0357  2.3155
  299MOL0     H41205   5.219  10.465   4.379  0.6723  0.4821  2.3784
  299MOL0     H41206   5.087  10.484   4.493 -0.7368 -0.4015 -0.3606
  299MOL0     H41207   5.269  10.308   4.554 -1.2894 -0.1160  1.8639
  299MOL0     H41208   5.215  10.226   4.408  1.0485  1.9593 -0.4508
  299MOL0     H41209   4.985  10.201   4.494  0.4435 -1.0851 -0.9121
  299MOL0     H41210   5.109  10.102   4.577 -3.1138 -0.4081 -0.0068
  299MOL0     H41211   4.825  10.296   4.677 -1.6922 -1.3032  1.8465
  299MOL0     H41212   4.837  10.262   5.054  0.7775 -1.6395 -2.1848
  299MOL0     H41213   4.716  10.328   4.938 -0.2018  0.8348 -1.6775
  299MOL0     H41214   4.819  10.568   4.992 -1.1032  0.3014  0.1969
  299MOL0     H41215   4.745  10.494   5.125  2.0495  2.3629  0.6817
  299MOL0     H41216   5.005  10.424   5.181  0.9202  0.0715 -2.2284
  299MOL0     H41217   5.026  10.556   5.064 -0.6557  1.6282  0.7152
  299MOL0     H41218   4.903  10.550   5.343 -3.3881 -2.8016 -1.7913
  299MOL0     H41219   5.057  10.635   5.284 -1.2321 -1.4174  2.2713
  299MOL0     H41220   4.905  10.738   5.494  0.1565  0.8565  0.8421
  299MOL0     H41221   4.869  10.782   5.695 -1.1310 -1.7570  1.4045
  299MOL0     H41222   4.699  10.719   5.725 -0.1996 -0.5128  0.0120
  299MOL0     H41223   4.751  10.896   5.743  3.6850 -0.2844  2.7868
  299MOL0     H41224   4.420  11.141   5.724 -0.1356 -0.7135 -0.0055
  299MOL0     H41225   4.256  11.255   5.857  2.3259 -0.7164 -0.3213
  299MOL0     H41226   4.073  11.451   5.783 -1.3931  1.3827 -1.1473
  299MOL0     H41227   3.963  11.386   5.651  1.7444 -1.2623 -0.1745
  299MOL0     H41228   3.864  11.465   5.928 -0.0318 -2.0337 -0.2903
  299MOL0     H41229   3.829  11.554   5.775 -0.4253  0.2486  0.0482
  299MOL0     H41230   3.760  11.269   5.827  2.0850  1.3427  1.4769
  299MOL0     H41231   3.732  11.354   5.681  0.4933 -2.2392  0.6808
  299MOL0     H41232   3.587  11.527   5.840  0.9336  0.1338  1.1529
  299MOL0     H41233   3.594  11.395   5.953 -3.3930  3.0571 -0.2514
  299MOL0     H41234   3.475  11.400   5.680 -0.5066 -2.8462 -3.0814
  299MOL0     H41235   3.524  11.249   5.772  1.4145  1.5857  3.0314
  299MOL0     H41236   3.343  11.447   5.902 -0.0412  0.3653 -1.6224
  299MOL0     H41237   3.346  11.288   5.940  0.2433  2.0688  1.1644
  299MOL0     H41238   3.253  11.230   5.717 -1.6921  1.2627 -1.9383
  299MOL0     H41239   3.238  11.399   5.672 -2.0809  0.5562  0.2116
  299MOL0     H41240   3.105  11.294   5.921 -1.3287 -1.4011 -0.5041
  299MOL0     H41241   3.026  11.292   5.759 -0.8467  1.9110 -0.7382
  299MOL0     H41242   3.941  11.057   5.632  0.2549  0.8593 -0.5299
  299MOL0     H41243   4.108  10.950   5.490 -0.3867  0.5197 -0.5754
  299MOL0     H41244   4.481  10.896   5.328 -0.7781  0.9818  2.4920
  299MOL0     H41245   4.655  10.811   5.167  1.9396 -1.7995  0.1022
  299MOL0     H41246   4.611  10.206   3.883  0.8295  0.8970  1.1362
  299MOL0     H41247   4.453  10.154   3.704  1.2559 -0.6473  1.0326
  299MOL0     H41248   3.970  10.183   3.645 -0.9898 -2.5347 -0.0860
  299MOL0     H41249   3.783  10.099   3.506  0.1176 -0.8327 -2.2974
  299MOL0     H41250   3.650   9.995   3.310 -1.9215  0.1681 -1.8095
  299MOL0     H41251   3.599  10.155   3.376 -0.2927  0.3874 -0.5548
  299MOL0     H41252   3.419  10.080   3.237 -0.3979  2.2207  0.5080
  299MOL0     H41253   3.522  10.061   3.102 -1.3687  0.7893 -0.0608
  299MOL0     H41254   3.583  10.339   3.181 -0.8233  1.4508 -0.8998
  299MOL0     H41255   3.473  10.276   3.054 -0.1125  2.5115  0.2733
  299MOL0     H41256   3.384  10.330   3.341 -0.2468  1.8435  0.9434
  299MOL0     H41257   3.288  10.311   3.201 -0.2107  1.3594  0.5938
  299MOL0     H41258   3.401  10.709   3.157  0.6934  0.7569  0.5306
  299MOL0     H41259   3.990  10.239   3.159 -1.1133 -0.6827 -0.5380
  299MOL0     H41260   4.187  10.317   3.169  1.1232  2.7358 -0.1339
  299MOL0     H41261   4.231  10.427   3.298 -1.5788  0.0641 -0.1514
  299MOL0     H41262   4.300  10.266   3.291  1.2752  2.0009  0.0035
  300MOL0     O41263   8.552  10.873   7.137  0.1809 -0.7240  0.5122
  300MOL0     C41264   8.552  10.757   7.101 -0.4068  0.4784 -0.0644
  300MOL0     O41265   8.636  10.695   7.007  0.1029  0.6923 -0.0781
  300MOL0     C41266   8.752  10.754   6.967 -0.7020 -0.2609 -0.3294
  300MOL0     C41267   8.821  10.678   6.875 -1.0189 -0.3369  0.1516
  300MOL0     C41268   8.945  10.714   6.821  0.5451 -0.6225  0.1907
  300MOL0     C41269   9.011  10.829   6.866 -1.6277 -0.3646  0.2126
  300MOL0     O41270   9.133  10.866   6.805  0.9787  0.2582  0.3205
  300MOL0     C41271   9.155  11.010   6.808  0.1748 -0.8796 -0.8948
  300MOL0     C41272   9.250  11.058   6.696  0.3425  0.1764 -0.2909
  300MOL0     C41273   9.386  10.986   6.701 -0.6795  0.0354  0.3536
  300MOL0     C41274   9.465  11.010   6.581 -0.5557  0.1788  0.5156
  300MOL0     C41275   9.584  10.916   6.552  0.2781 -1.0075  0.2714
  300MOL0     C41276   9.611  10.899   6.398  0.6276 -0.2564  1.0345
  300MOL0     C41277   9.707  10.784   6.369 -0.2714 -0.7276 -0.4291
  300MOL0     C41278   9.737  10.770   6.212  0.3208 -0.5345 -0.2569
  300MOL0     N41279   9.804  10.886   6.154  0.1827  0.3332  0.5170
  300MOL0     C41280   9.738  10.985   6.085  0.1723 -0.1801  0.2157
  300MOL0     C41281   9.828  11.067   6.045 -0.8408 -0.5791 -0.0814
  300MOL0     C41282   9.816  11.190   5.963 -0.2890  0.0501  1.3243
  300MOL0     C41283   9.917  11.209   5.847  0.8818  0.5473  0.3484
  300MOL0     C41284   9.918  11.348   5.800 -0.4042  0.0808  0.1002
  300MOL0     C41285  10.019  11.364   5.681 -0.7633  0.4629  1.0632
  300MOL0     O41286  10.032  11.505   5.649 -0.8487  0.4651  0.3080
  300MOL0     C41287  10.148  11.533   5.588  0.0864 -1.2705  0.8178
  300MOL0     C41288  10.168  11.528   5.451  0.1304  0.2789  0.1427
  300MOL0     C41289  10.291  11.557   5.403 -0.8303  0.0276  0.0810
  300MOL0     C41290  10.317  11.538   5.252 -0.4252 -0.5425 -0.8849
  300MOL0     C41291  10.393  11.599   5.489  0.3691 -0.6165  0.4427
  300MOL0     C41292  10.514  11.661   5.445  0.0199 -0.0918 -0.9528
  300MOL0     O41293  10.626  11.613   5.507 -0.6932  0.3215 -0.0168
  300MOL0     C41294  10.744  11.657   5.462 -0.0861 -0.6416 -0.0356
  300MOL0     C41295  10.810  11.599   5.354  0.5758  0.1655 -0.0014
  300MOL0     C41296  10.938  11.626   5.319  0.4498 -0.1549 -0.1496
  300MOL0     C41297  11.019  11.703   5.407  0.2512 -0.5011 -0.0470
  300MOL0     O41298  11.155  11.738   5.390  0.1222  0.0205 -0.3403
  300MOL0     C41299  11.216  11.694   5.269  0.6054 -0.4544 -1.0446
  300MOL0     C41300  11.365  11.720   5.282 -0.7970  0.3964  0.9691
  300MOL0     C41301  11.442  11.658   5.161 -0.8004 -0.1609  0.2427
  300MOL0     C41302  11.580  11.731   5.145  0.7327 -0.8871  0.6662
  300MOL0     C41303  11.655  11.683   5.020  0.0977  0.1152  1.5603
  300MOL0     C41304  11.605  11.775   4.903 -0.9809  0.3125  0.2149
  300MOL0     C41305  11.639  11.721   4.766 -0.8926 -0.7142  1.1184
  300MOL0     C41306  11.604  11.822   4.654 -0.0973 -0.5250  0.1741
  300MOL0    Cl41307  11.713  11.958   4.652 -0.0080 -0.1577  0.0088
  300MOL0     C41308  10.962  11.761   5.522  0.0835 -0.1117 -0.2965
  300MOL0     C41309  10.827  11.734   5.548  0.0621 -0.7534 -0.3643
  300MOL0     O41310  10.514  11.741   5.352  0.6748  0.0174 -0.4487
  300MOL0     C41311  10.380  11.591   5.626 -0.6677  0.3736  0.3559
  300MOL0     C41312  10.255  11.562   5.672  0.5236 -0.1052  0.1653
  300MOL0     N41313   9.949  11.024   6.096 -0.4568 -0.2762  0.3836
  300MOL0     N41314   9.939  10.917   6.163 -0.7080  0.5717  1.3258
  300MOL0     C41315   8.939  10.905   6.961  0.2443  0.6192 -0.2519
  300MOL0     C41316   8.814  10.876   7.014  0.0435  0.5026  0.6132
  300MOL0     C41317   8.468  10.668   7.190  0.1264  0.2622 -0.1363
  300MOL0     C41318   8.488  10.524   7.169 -0.9330  0.6966 -0.1758
  300MOL0     C41319   8.419  10.430   7.235  0.3981  0.0351 -0.3237
  300MOL0     C41320   8.328  10.461   7.328  0.3564  0.8485  0.5006
  300MOL0     O41321   8.256  10.357   7.384 -0.5344  0.5953 -0.0804
  300MOL0     C41322   8.270  10.348   7.526  0.0285  0.0888  0.0554
  300MOL0     C41323   8.149  10.276   7.585  0.0993  0.0593  0.3730
  300MOL0     C41324   8.162  10.260   7.735  0.5891 -1.4140  0.1731
  300MOL0     C41325   8.048  10.192   7.810  1.2383 -0.2862 -0.1926
  300MOL0     C41326   8.106  10.140   7.936 -0.1997  0.2019 -0.3071
  300MOL0     C41327   8.142  10.084   8.042  0.1593  0.8636  0.6409
  300MOL0     C41328   8.298  10.598   7.344  0.0151 -0.8053  0.2167
  300MOL0     C41329   8.369  10.700   7.281  0.5463 -0.0006  0.6682
  300MOL0     C41330   8.333  10.839   7.321  0.2705  0.4193  0.0468
  300MOL0     H41331   8.767  10.595   6.831 -0.0839 -0.1061 -1.5159
  300MOL0     H41332   8.988  10.657   6.739 -1.2402 -0.1548 -1.1156
  300MOL0     H41333   9.193  11.040   6.907 -0.4462  1.4663 -1.3080
  300MOL0     H41334   9.063  11.068   6.796 -0.3086 -1.3619  0.3150
  300MOL0     H41335   9.206  11.039   6.598  2.7104  1.4077 -1.6549
  300MOL0     H41336   9.254  11.167   6.697  3.3345  0.1502 -1.0786
  300MOL0     H41337   9.450  11.022   6.782  2.8236 -2.2984 -1.1488
  300MOL0     H41338   9.372  10.879   6.715 -1.3842 -0.3735 -2.6983
  300MOL0     H41339   9.394  10.999   6.499 -1.8902  0.1900  1.6237
  300MOL0     H41340   9.492  11.116   6.572 -1.3838  0.2984 -0.8080
  300MOL0     H41341   9.571  10.821   6.604 -2.9635 -0.2807  0.9997
  300MOL0     H41342   9.664  10.978   6.594 -2.6547  2.5442  1.1247
  300MOL0     H41343   9.517  10.873   6.348  1.4589  0.6657 -1.0987
  300MOL0     H41344   9.645  10.995   6.359 -1.2714 -0.5872 -1.7394
  300MOL0     H41345   9.665  10.699   6.425 -0.7936 -0.1252  0.1037
  300MOL0     H41346   9.805  10.806   6.414 -0.3053 -0.0777 -0.6625
  300MOL0     H41347   9.797  10.679   6.205  0.5110 -1.0684  4.5433
  300MOL0     H41348   9.649  10.749   6.152  0.7125  1.0192 -1.4518
  300MOL0     H41349   9.635  10.990   6.051  0.5355 -0.8892 -1.0527
  300MOL0     H41350   9.838  11.277   6.027  0.1348  0.9253  0.0239
  300MOL0     H41351   9.718  11.193   5.916 -0.3621  0.8522  1.5114
  300MOL0     H41352  10.009  11.175   5.896  2.4221  1.5600 -1.7221
  300MOL0     H41353   9.896  11.139   5.766 -1.6902  2.5481 -0.8463
  300MOL0     H41354   9.823  11.377   5.755  0.8239  1.8902 -1.5452
  300MOL0     H41355   9.936  11.424   5.877  3.2973 -1.1539  0.6354
  300MOL0     H41356  10.113  11.313   5.707 -0.5691 -1.3831 -2.6740
  300MOL0     H41357   9.973  11.309   5.599  1.4028 -0.3103  0.2907
  300MOL0     H41358  10.085  11.505   5.384  1.1539  4.4394 -2.9286
  300MOL0     H41359  10.421  11.558   5.224  0.5920 -1.9595  1.4914
  300MOL0     H41360  10.247  11.603   5.200  3.5043  2.4517 -3.0489
  300MOL0     H41361  10.307  11.433   5.223  2.4869 -0.5781 -2.1392
  300MOL0     H41362  10.747  11.524   5.307 -0.6428  0.2652  1.4138
  300MOL0     H41363  10.975  11.572   5.232 -1.1103 -0.9591 -0.3675
  300MOL0     H41364  11.203  11.587   5.254  1.3295 -0.9246  1.2987
  300MOL0     H41365  11.175  11.756   5.188  1.5246 -0.1457 -1.2851
  300MOL0     H41366  11.374  11.829   5.275 -1.4537  0.3755 -0.9122
  300MOL0     H41367  11.409  11.686   5.376  2.3531  2.2355  0.3019
  300MOL0     H41368  11.389  11.680   5.068  1.8144  3.0234 -0.7073
  300MOL0     H41369  11.456  11.551   5.176 -1.1070 -0.0432  1.4413
  300MOL0     H41370  11.644  11.708   5.231  0.7538 -1.6535  0.4475
  300MOL0     H41371  11.558  11.839   5.144  1.1839 -0.7731 -0.9806
  300MOL0     H41372  11.765  11.688   5.024  0.3999 -0.8868 -2.1218
  300MOL0     H41373  11.631  11.578   5.003 -1.1073  0.4098  1.3796
  300MOL0     H41374  11.649  11.873   4.922  0.8837 -0.3371 -0.4617
  300MOL0     H41375  11.497  11.789   4.910 -1.4642 -1.9262 -1.6191
  300MOL0     H41376  11.581  11.630   4.751  0.0565 -1.1574 -0.0179
  300MOL0     H41377  11.743  11.689   4.757  0.2908  2.8886  0.5050
  300MOL0     H41378  11.500  11.856   4.645 -0.0024 -0.0659  0.7943
  300MOL0     H41379  11.631  11.754   4.572  1.9028 -1.0762  1.2130
  300MOL0     H41380  11.006  11.816   5.604  1.7837 -4.2416  1.8891
  300MOL0     H41381  10.793  11.776   5.642  1.3857 -0.4913  0.0252
  300MOL0     H41382  10.464  11.619   5.688 -0.5110 -0.0427  0.3320
  300MOL0     H41383  10.248  11.578   5.779  0.5623  0.0152  0.1506
  300MOL0     H41384   8.978  10.994   7.008  0.2558 -0.5358  2.0336
  300MOL0     H41385   8.763  10.935   7.089 -4.6132  0.2450 -1.9973
  300MOL0     H41386   8.570  10.493   7.106 -1.6875 -1.1552 -0.3100
  300MOL0     H41387   8.433  10.324   7.211  0.8900  0.0441 -0.0977
  300MOL0     H41388   8.363  10.295   7.550  0.1648  0.6912  0.9179
  300MOL0     H41389   8.272  10.443   7.581 -0.5305 -1.0775  2.2084
  300MOL0     H41390   8.147  10.181   7.531  0.4906  0.1500  0.1885
  300MOL0     H41391   8.064  10.341   7.563  0.6108  0.9955  1.0830
  300MOL0     H41392   8.254  10.203   7.752  2.9199  1.6450 -1.2545
  300MOL0     H41393   8.181  10.355   7.785  0.8010 -2.6731  2.6464
  300MOL0     H41394   8.021  10.104   7.751 -1.5513  0.9290 -0.8672
  300MOL0     H41395   7.958  10.252   7.822  1.2028 -0.2901 -0.4440
  300MOL0     H41396   8.171  10.036   8.133  0.9247  0.8461  0.3968
  300MOL0     H41397   8.220  10.627   7.414 -0.5815  3.0489 -1.7918
  300MOL0     H41398   8.284  10.834   7.419 -0.9120 -1.3649 -0.5841
  300MOL0     H41399   8.419  10.903   7.340  0.0640 -0.1765  3.8632
  300MOL0     H41400   8.280  10.885   7.237  3.2708 -0.9607 -2.8358
  301MOL0     O41401   5.991   1.588   0.181 -0.7485 -0.5591  0.0280
  301MOL0     C41402   6.028   1.692   0.233 -1.0931 -0.6051 -0.0989
  301MOL0     O41403   6.146   1.756   0.212 -0.3226 -0.4058  0.5759
  301MOL0     C41404   6.242   1.666   0.163  1.4452  0.0206  0.2036
  301MOL0     C41405   6.311   1.576   0.251 -0.2153 -0.0456  0.0281
  301MOL0     C41406   6.421   1.503   0.207  0.3156 -1.1735  0.7256
  301MOL0     C41407   6.467   1.517   0.073  0.6997 -0.2356 -0.7591
  301MOL0     O41408   6.582   1.454   0.037  0.1440  0.1851  0.0470
  301MOL0     C41409   6.673   1.499  -0.065 -0.9194  0.4935 -0.0729
  301MOL0     C41410   6.772   1.401  -0.113 -0.3698 -0.3426 -0.1452
  301MOL0     C41411   6.709   1.289  -0.206  0.2146 -0.4024 -0.8076
  301MOL0     C41412   6.814   1.200  -0.269  0.4079  0.3171 -0.2813
  301MOL0     C41413   6.751   1.117  -0.378  0.1103  0.5047 -0.7093
  301MOL0     C41414   6.738   1.186  -0.518  0.3691 -0.0997  0.5390
  301MOL0     C41415   6.671   1.088  -0.617  0.7090  0.2144 -0.4528
  301MOL0     C41416   6.617   1.158  -0.738 -0.1696  0.0107 -0.7465
  301MOL0     N41417   6.729   1.233  -0.804  0.5131  0.2256 -0.0177
  301MOL0     C41418   6.807   1.172  -0.898  0.6196  0.2145 -1.1196
  301MOL0     C41419   6.891   1.266  -0.941  0.1421 -0.3168 -0.0918
  301MOL0     C41420   6.994   1.245  -1.036 -0.5291  0.5590  0.4296
  301MOL0     C41421   7.124   1.231  -0.963 -0.2527 -0.3806 -0.0557
  301MOL0     C41422   7.236   1.232  -1.062 -0.2427 -0.2541  0.3105
  301MOL0     C41423   7.374   1.223  -0.996  0.2963 -0.2042 -0.2674
  301MOL0     O41424   7.471   1.272  -1.088  0.0027 -0.3245 -0.0906
  301MOL0     C41425   7.599   1.285  -1.042  0.3202 -0.1187  0.2073
  301MOL0     C41426   7.650   1.287  -0.908 -0.0425 -0.5018  0.1998
  301MOL0     C41427   7.783   1.289  -0.865 -0.4170 -0.0412  0.4916
  301MOL0     C41428   7.821   1.286  -0.723  0.1410 -0.4692  0.4173
  301MOL0     C41429   7.878   1.293  -0.976 -0.0324 -0.0680  0.7924
  301MOL0     C41430   8.024   1.278  -0.960 -0.1942 -0.2141  0.7775
  301MOL0     O41431   8.082   1.187  -1.045 -0.0262  0.0406  0.3231
  301MOL0     C41432   8.214   1.173  -1.063  0.1100 -0.1717  1.2458
  301MOL0     C41433   8.325   1.194  -0.976  0.1431 -0.3310 -0.0888
  301MOL0     C41434   8.460   1.181  -1.012  0.2862  0.8546  0.6500
  301MOL0     C41435   8.488   1.153  -1.147  0.4826 -0.1145  0.8753
  301MOL0     O41436   8.617   1.155  -1.201  0.0558 -0.7660 -0.2427
  301MOL0     C41437   8.728   1.190  -1.119  0.4796  0.0999 -0.3308
  301MOL0     C41438   8.862   1.201  -1.203 -0.8822  1.1006 -0.0415
  301MOL0     C41439   8.849   1.221  -1.350  0.9294 -0.8111 -0.4283
  301MOL0     C41440   8.986   1.209  -1.420  0.5821 -0.5572  0.1301
  301MOL0     C41441   9.082   1.325  -1.391 -0.1069 -0.0643  0.6600
  301MOL0     C41442   9.224   1.300  -1.451 -0.5134  0.1905  0.4103
  301MOL0     C41443   9.303   1.426  -1.418 -0.0002 -0.0225 -0.0797
  301MOL0     C41444   9.436   1.447  -1.495  0.1567  0.1907 -0.4278
  301MOL0    Cl41445   9.566   1.333  -1.448  0.1215 -0.2323  0.1391
  301MOL0     C41446   8.380   1.142  -1.238 -0.6595  0.0299  0.0288
  301MOL0     C41447   8.245   1.134  -1.193  0.1872  0.5873  0.3904
  301MOL0     O41448   8.088   1.365  -0.893  0.0591  0.6908  0.3379
  301MOL0     C41449   7.839   1.298  -1.111 -0.0233  0.4071 -0.6223
  301MOL0     C41450   7.701   1.298  -1.142  0.0919  1.7925 -1.1100
  301MOL0     N41451   6.884   1.372  -0.856  1.0354  0.3542  0.3667
  301MOL0     N41452   6.781   1.356  -0.773 -0.3438 -0.3940 -0.2631
  301MOL0     C41453   6.397   1.605  -0.015 -0.3122  1.0780  0.1691
  301MOL0     C41454   6.293   1.675   0.034  0.4978 -0.2907 -0.6980
  301MOL0     C41455   5.916   1.772   0.278  0.2987  0.1458  0.2955
  301MOL0     C41456   5.848   1.863   0.193  0.1012 -0.8327 -0.0585
  301MOL0     C41457   5.725   1.935   0.238 -0.2445  0.9980 -0.1545
  301MOL0     C41458   5.688   1.928   0.371 -0.0637 -0.4285 -1.0614
  301MOL0     O41459   5.584   2.001   0.416 -0.1344 -0.4355 -0.7359
  301MOL0     C41460   5.585   2.143   0.377 -0.2043 -0.2104 -0.2266
  301MOL0     C41461   5.445   2.194   0.358  0.4417  0.3380 -0.3684
  301MOL0     C41462   5.425   2.343   0.344 -0.0253 -0.0953 -1.0943
  301MOL0     C41463   5.279   2.371   0.289 -0.3618  0.0221  0.7149
  301MOL0     C41464   5.173   2.354   0.395  0.2219  0.7924  0.4067
  301MOL0     C41465   5.093   2.320   0.477  0.3244  0.3125 -0.0775
  301MOL0     C41466   5.756   1.841   0.453  0.4392  0.2440 -0.0384
  301MOL0     C41467   5.864   1.760   0.410  0.1402 -0.1024 -1.2940
  301MOL0     C41468   5.938   1.663   0.500 -0.2195  0.2924 -0.0551
  301MOL0     H41469   6.283   1.566   0.355  1.5507 -2.2766  0.3581
  301MOL0     H41470   6.479   1.443   0.276 -0.1161  0.4829  2.6259
  301MOL0     H41471   6.732   1.588  -0.040 -2.2653  1.9625 -1.7835
  301MOL0     H41472   6.616   1.523  -0.156 -0.6953 -0.2013 -0.4059
  301MOL0     H41473   6.842   1.455  -0.177  2.1411 -0.4970  2.2586
  301MOL0     H41474   6.821   1.361  -0.023  2.5797  1.9999 -0.5415
  301MOL0     H41475   6.638   1.230  -0.146  0.0759  2.1494  1.7825
  301MOL0     H41476   6.659   1.342  -0.288  0.0527 -1.7963 -1.6420
  301MOL0     H41477   6.892   1.259  -0.317  2.4096 -2.0805 -0.1800
  301MOL0     H41478   6.855   1.133  -0.192  2.2841 -1.0245 -2.3080
  301MOL0     H41479   6.653   1.081  -0.346  0.6623 -2.2490 -1.7780
  301MOL0     H41480   6.804   1.021  -0.387 -0.4388  0.1805 -0.5203
  301MOL0     H41481   6.687   1.283  -0.519  0.1014 -0.2153 -1.8206
  301MOL0     H41482   6.842   1.197  -0.552  0.0853  0.3809 -0.1935
  301MOL0     H41483   6.581   1.039  -0.581  2.5193 -2.7234  0.4132
  301MOL0     H41484   6.750   1.015  -0.639  2.1829  1.3564  0.7696
  301MOL0     H41485   6.551   1.094  -0.797  0.2075 -0.4920 -0.6217
  301MOL0     H41486   6.557   1.238  -0.693  0.9509 -1.3277  3.5448
  301MOL0     H41487   6.795   1.069  -0.929  0.4503 -1.1753  2.9749
  301MOL0     H41488   7.010   1.337  -1.093  2.3982  1.0542  1.8724
  301MOL0     H41489   6.976   1.164  -1.107 -1.4061  0.1238  1.1261
  301MOL0     H41490   7.129   1.319  -0.898  0.3506 -0.4732  0.0289
  301MOL0     H41491   7.138   1.138  -0.907  1.5085 -1.0255 -1.4919
  301MOL0     H41492   7.220   1.151  -1.133  0.1798 -1.0644  1.1259
  301MOL0     H41493   7.244   1.323  -1.123  2.5979 -1.3177 -1.1145
  301MOL0     H41494   7.371   1.300  -0.918 -0.1464  2.9157 -3.1320
  301MOL0     H41495   7.391   1.121  -0.959 -2.2065 -0.3465  0.6889
  301MOL0     H41496   7.577   1.286  -0.828 -1.7480  0.4998 -1.2735
  301MOL0     H41497   7.901   1.361  -0.715  4.0093 -4.1555 -0.3930
  301MOL0     H41498   7.862   1.189  -0.695  1.7981 -1.2239 -3.8054
  301MOL0     H41499   7.727   1.300  -0.669 -1.1619  3.4403 -2.3501
  301MOL0     H41500   8.289   1.216  -0.876 -3.0128  1.4907 -1.4369
  301MOL0     H41501   8.541   1.200  -0.942  1.4681  2.8770 -1.1544
  301MOL0     H41502   8.711   1.289  -1.076  0.8451 -0.4683  1.2037
  301MOL0     H41503   8.740   1.111  -1.044  0.7383 -1.4054 -1.8838
  301MOL0     H41504   8.923   1.282  -1.162 -0.8455  1.4268 -0.7282
  301MOL0     H41505   8.910   1.106  -1.177 -0.2585  0.7317 -2.2472
  301MOL0     H41506   8.811   1.323  -1.362  1.3141 -0.4026  1.4957
  301MOL0     H41507   8.778   1.150  -1.395 -0.1741 -1.4484  2.1274
  301MOL0     H41508   8.968   1.198  -1.528  0.9658 -1.0062  0.1072
  301MOL0     H41509   9.035   1.119  -1.383  1.3259 -1.1402 -2.1250
  301MOL0     H41510   9.038   1.415  -1.435 -2.9937 -0.7778  1.8570
  301MOL0     H41511   9.095   1.338  -1.283  0.6076  2.0187  0.3827
  301MOL0     H41512   9.225   1.288  -1.560 -0.6216  2.4966  0.1110
  301MOL0     H41513   9.264   1.205  -1.414 -0.3211  0.6065  1.2912
  301MOL0     H41514   9.328   1.425  -1.311  1.5400  1.1613 -0.4009
  301MOL0     H41515   9.242   1.514  -1.438 -0.2547 -0.2575 -0.3390
  301MOL0     H41516   9.464   1.550  -1.473  0.6921  0.1088 -0.7063
  301MOL0     H41517   9.418   1.439  -1.602 -2.4764  1.4828 -0.1436
  301MOL0     H41518   8.408   1.111  -1.338  1.6164 -1.0737  0.9305
  301MOL0     H41519   8.166   1.100  -1.259  0.4597 -0.0648  0.4027
  301MOL0     H41520   7.901   1.316  -1.198 -2.6520  1.4011 -2.4020
  301MOL0     H41521   7.674   1.312  -1.246 -0.8284  2.3568 -0.8067
  301MOL0     H41522   6.418   1.604  -0.121 -0.4040 -1.2619  0.1027
  301MOL0     H41523   6.245   1.738  -0.040  1.6976 -0.3878 -1.5923
  301MOL0     H41524   5.877   1.881   0.090  2.4349  0.3246  0.7343
  301MOL0     H41525   5.664   1.990   0.167  0.2724  1.9568  0.1277
  301MOL0     H41526   5.622   2.208   0.456 -1.4735 -0.7792  0.8574
  301MOL0     H41527   5.623   2.166   0.277 -0.5927  1.9085  0.0685
  301MOL0     H41528   5.377   2.154   0.434  1.2124 -0.5781 -0.1334
  301MOL0     H41529   5.422   2.159   0.257  1.9583  0.2345 -0.7013
  301MOL0     H41530   5.461   2.396   0.432  0.2742 -0.5168 -0.9634
  301MOL0     H41531   5.492   2.382   0.266  0.8651 -1.4751 -1.0424
  301MOL0     H41532   5.262   2.302   0.206  2.1253 -0.7988  0.8176
  301MOL0     H41533   5.277   2.471   0.246 -0.0689  0.2556  1.2401
  301MOL0     H41534   5.037   2.291   0.564  0.7370 -0.9288 -0.1996
  301MOL0     H41535   5.726   1.832   0.557 -2.8320  0.2475 -0.8695
  301MOL0     H41536   5.949   1.573   0.439  1.3438  1.8187 -2.1451
  301MOL0     H41537   6.039   1.695   0.526 -1.0716  1.6831  1.8460
  301MOL0     H41538   5.885   1.632   0.591 -0.2248 -0.2332 -0.2328
  302MOL0     O41539   2.988   6.110   0.054  0.0102 -0.1366  0.6388
  302MOL0     C41540   2.888   6.126  -0.018  0.2461 -0.7930 -0.3341
  302MOL0     O41541   2.883   6.210  -0.124 -0.1931  0.8115  0.4660
  302MOL0     C41542   3.005   6.263  -0.148 -0.8070  0.4970  0.2514
  302MOL0     C41543   3.027   6.401  -0.140 -0.0922  0.9914 -0.4646
  302MOL0     C41544   3.149   6.456  -0.175  0.9359  0.2353  0.5044
  302MOL0     C41545   3.251   6.380  -0.231 -0.0401  0.1467 -0.0553
  302MOL0     O41546   3.371   6.429  -0.272 -0.7315  0.5274 -0.1702
  302MOL0     C41547   3.469   6.456  -0.172  0.2373  0.5735  0.0415
  302MOL0     C41548   3.562   6.578  -0.202 -0.3603 -1.6481 -0.2433
  302MOL0     C41549   3.592   6.650  -0.070 -0.3251 -0.1546 -0.5708
  302MOL0     C41550   3.693   6.763  -0.082 -0.0041  0.1158  0.6967
  302MOL0     C41551   3.781   6.782   0.038  0.7856 -0.5737  0.8014
  302MOL0     C41552   3.845   6.927   0.021  0.8942 -0.1968  0.8910
  302MOL0     C41553   3.961   6.909  -0.078 -0.1433  0.1917 -0.2513
  302MOL0     C41554   4.036   7.045  -0.081 -0.0772  0.4099  0.2306
  302MOL0     N41555   4.177   7.031  -0.133  0.3357 -0.4625  0.1937
  302MOL0     C41556   4.216   6.966  -0.257 -0.2874 -0.3287 -0.1860
  302MOL0     C41557   4.347   6.946  -0.232  0.2275 -0.5433 -0.2293
  302MOL0     C41558   4.451   6.889  -0.325 -0.5281 -0.5255  0.7152
  302MOL0     C41559   4.566   6.991  -0.337 -1.2926 -0.4945 -0.5090
  302MOL0     C41560   4.669   6.934  -0.441  0.1113 -0.3333  0.4470
  302MOL0     C41561   4.771   7.035  -0.474 -0.0887 -0.3418 -0.3851
  302MOL0     O41562   4.868   6.980  -0.564 -0.6215  0.7692 -0.1692
  302MOL0     C41563   4.872   7.017  -0.697  0.2101  0.0352  0.9898
  302MOL0     C41564   4.989   7.005  -0.774 -0.2228  0.0554 -0.4400
  302MOL0     C41565   5.010   7.046  -0.911 -0.0028  0.8772 -0.0064
  302MOL0     C41566   5.141   7.008  -0.980  0.9920 -0.8181 -0.1262
  302MOL0     C41567   4.895   7.114  -0.978 -0.8223 -0.1610 -0.2658
  302MOL0     C41568   4.901   7.167  -1.117  0.5672 -1.1058  0.0059
  302MOL0     O41569   4.996   7.138  -1.205  0.8534  0.4739  0.1692
  302MOL0     C41570   4.990   7.215  -1.322  0.5711  0.2131 -0.7672
  302MOL0     C41571   5.097   7.303  -1.342  0.4022 -0.0289 -0.3143
  302MOL0     C41572   5.121   7.362  -1.467  0.1882 -0.4294  0.0816
  302MOL0     C41573   5.046   7.325  -1.580  0.4933 -0.1417  0.3278
  302MOL0     O41574   5.073   7.382  -1.708 -0.6865 -0.0510  0.6532
  302MOL0     C41575   4.963   7.400  -1.803 -1.0092  0.3628 -0.7249
  302MOL0     C41576   5.016   7.495  -1.919 -0.8494  0.0125  0.1938
  302MOL0     C41577   5.135   7.429  -1.988 -0.2140 -0.4312  0.6085
  302MOL0     C41578   5.145   7.488  -2.132 -1.1781  0.3788 -0.2558
  302MOL0     C41579   5.254   7.419  -2.213  0.1170 -0.0753 -0.0056
  302MOL0     C41580   5.232   7.274  -2.248 -0.0988  0.1959  0.1019
  302MOL0     C41581   5.362   7.222  -2.322  0.4189 -0.3901 -0.4342
  302MOL0     C41582   5.327   7.085  -2.378 -0.0012  0.1104  0.4331
  302MOL0    Cl41583   5.461   7.025  -2.481 -0.3792 -0.5587 -0.2236
  302MOL0     C41584   4.944   7.225  -1.563 -0.0307  0.6452 -0.0585
  302MOL0     C41585   4.918   7.166  -1.436 -0.5389 -0.3370  0.0707
  302MOL0     O41586   4.815   7.253  -1.138  0.9462 -0.6265 -0.2953
  302MOL0     C41587   4.783   7.124  -0.901 -0.4845 -0.1737 -0.0740
  302MOL0     C41588   4.765   7.077  -0.770  0.3737  0.7348  0.0891
  302MOL0     N41589   4.385   6.991  -0.110 -0.0137 -0.6121  0.0233
  302MOL0     N41590   4.285   7.048  -0.045 -0.0923 -1.0595  0.3836
  302MOL0     C41591   3.220   6.244  -0.252 -0.6489  0.1786 -0.5573
  302MOL0     C41592   3.105   6.191  -0.210  0.5259  0.2338  0.0061
  302MOL0     C41593   2.768   6.047   0.013 -0.7861 -0.2301 -0.7303
  302MOL0     C41594   2.662   6.024  -0.085  0.2414  0.1268 -0.5238
  302MOL0     C41595   2.552   5.940  -0.061 -0.3003  0.0930  0.3398
  302MOL0     C41596   2.544   5.879   0.061  0.0606 -0.5289  0.2273
  302MOL0     O41597   2.439   5.794   0.096 -0.8258 -0.0518 -0.0991
  302MOL0     C41598   2.390   5.707  -0.008  0.0314  0.6573 -0.5701
  302MOL0     C41599   2.308   5.604   0.064  0.1653 -0.0532  0.1413
  302MOL0     C41600   2.240   5.504  -0.033  0.2073 -0.1998 -0.7215
  302MOL0     C41601   2.179   5.390   0.040  0.7250  0.0665 -0.0210
  302MOL0     C41602   2.066   5.413   0.125  0.8060 -0.5671 -0.1742
  302MOL0     C41603   1.971   5.436   0.199 -1.0415  0.2895 -0.0990
  302MOL0     C41604   2.629   5.916   0.166  0.3777 -0.3007  0.3744
  302MOL0     C41605   2.744   5.996   0.144  1.1614  0.3292  0.2278
  302MOL0     C41606   2.833   6.031   0.260 -0.2947  0.2301 -0.0082
  302MOL0     H41607   2.949   6.457  -0.090 -2.6105 -1.3138 -1.5351
  302MOL0     H41608   3.175   6.559  -0.156  0.7833  0.1902  0.9758
  302MOL0     H41609   3.529   6.364  -0.169  0.2983  0.5762 -0.7804
  302MOL0     H41610   3.409   6.458  -0.081  3.2956  0.6700  2.2122
  302MOL0     H41611   3.658   6.539  -0.239  0.2907 -1.4441  1.1460
  302MOL0     H41612   3.506   6.647  -0.266 -1.6340 -2.0421  0.4115
  302MOL0     H41613   3.499   6.694  -0.033  0.7041  2.0480 -0.3794
  302MOL0     H41614   3.619   6.577   0.006  0.5574  2.0226  1.3342
  302MOL0     H41615   3.754   6.753  -0.173 -0.9952  1.9316 -0.2300
  302MOL0     H41616   3.629   6.851  -0.095 -0.6193 -0.4203 -0.0141
  302MOL0     H41617   3.853   6.702   0.060  1.3346 -0.1796  0.4631
  302MOL0     H41618   3.714   6.788   0.124  1.3702  3.2956  1.1540
  302MOL0     H41619   3.774   7.005  -0.007  2.3431  0.7066 -0.4364
  302MOL0     H41620   3.885   6.966   0.115  3.1031  2.2466 -0.9025
  302MOL0     H41621   3.925   6.881  -0.178  0.0914 -0.1169 -0.2543
  302MOL0     H41622   4.027   6.829  -0.042  1.3056  1.9713  1.2812
  302MOL0     H41623   3.974   7.121  -0.131  0.1184 -0.5718 -1.6313
  302MOL0     H41624   4.036   7.082   0.021  0.7455  2.3760 -0.4372
  302MOL0     H41625   4.151   6.960  -0.343 -0.8990  2.5054 -0.0238
  302MOL0     H41626   4.411   6.897  -0.427  0.6949  1.0284  0.3123
  302MOL0     H41627   4.496   6.797  -0.289  0.1192  0.0138  1.3047
  302MOL0     H41628   4.522   7.085  -0.370 -3.8937 -1.8097 -1.0992
  302MOL0     H41629   4.625   7.002  -0.246 -0.0435 -0.3430 -1.3090
  302MOL0     H41630   4.721   6.845  -0.406 -0.2192 -0.9128 -0.4945
  302MOL0     H41631   4.602   6.900  -0.521 -0.2719 -1.1390  1.0979
  302MOL0     H41632   4.732   7.133  -0.505  1.5189  0.3243 -0.4260
  302MOL0     H41633   4.818   7.057  -0.378 -0.4817  0.0166 -0.2716
  302MOL0     H41634   5.078   6.971  -0.723 -1.0451 -1.0728  0.3058
  302MOL0     H41635   5.194   6.923  -0.937  0.5373 -1.9194 -1.6975
  302MOL0     H41636   5.214   7.090  -0.981  1.1286 -0.9093  0.8451
  302MOL0     H41637   5.112   6.976  -1.080  0.4511 -0.5484 -0.0602
  302MOL0     H41638   5.150   7.333  -1.251 -2.5385  3.9097  0.3804
  302MOL0     H41639   5.192   7.445  -1.466 -1.3242  0.9460  2.0653
  302MOL0     H41640   4.924   7.310  -1.851 -0.4628 -1.0439  1.3614
  302MOL0     H41641   4.886   7.451  -1.745 -0.1692  1.7211 -0.7459
  302MOL0     H41642   4.932   7.521  -1.985  0.0095 -0.1806 -1.0114
  302MOL0     H41643   5.048   7.592  -1.880 -0.8962  0.6927 -1.3612
  302MOL0     H41644   5.122   7.321  -1.987 -0.1322 -0.4345  1.4117
  302MOL0     H41645   5.226   7.450  -1.932  0.6444 -0.2991 -0.7866
  302MOL0     H41646   5.159   7.596  -2.136 -0.4615  0.4198  1.9715
  302MOL0     H41647   5.050   7.472  -2.184 -1.0200  0.8980 -0.7074
  302MOL0     H41648   5.282   7.479  -2.300 -3.7177 -0.0365 -1.4141
  302MOL0     H41649   5.344   7.408  -2.152 -0.5758 -2.6128  0.6586
  302MOL0     H41650   5.150   7.277  -2.319 -0.5629 -2.6622  0.3961
  302MOL0     H41651   5.214   7.207  -2.164  0.3092  0.1588  0.1661
  302MOL0     H41652   5.425   7.217  -2.232 -1.0822  0.4425  0.7031
  302MOL0     H41653   5.412   7.285  -2.396  2.9318 -0.5759  0.9492
  302MOL0     H41654   5.238   7.090  -2.441  1.0279 -0.0223 -1.0869
  302MOL0     H41655   5.312   7.003  -2.307 -0.7469 -0.9042 -0.8428
  302MOL0     H41656   4.895   7.179  -1.648 -0.7908  0.5367  0.4292
  302MOL0     H41657   4.834   7.098  -1.429  0.4449 -1.8782 -1.9080
  302MOL0     H41658   4.695   7.163  -0.952  0.4435  0.4075 -1.2918
  302MOL0     H41659   4.659   7.087  -0.748 -0.2998 -0.3822 -2.3153
  302MOL0     H41660   3.284   6.175  -0.307  0.9117  0.4666  0.8328
  302MOL0     H41661   3.085   6.086  -0.231 -1.9290  1.1345 -2.7834
  302MOL0     H41662   2.672   6.063  -0.186 -2.2017  1.7172 -0.2578
  302MOL0     H41663   2.477   5.940  -0.140  0.5909 -0.1509 -0.5245
  302MOL0     H41664   2.329   5.769  -0.074 -0.4050  2.4155  1.3547
  302MOL0     H41665   2.469   5.653  -0.061 -0.0736  1.6308 -1.7457
  302MOL0     H41666   2.231   5.659   0.119  0.3439  1.0777 -0.6805
  302MOL0     H41667   2.373   5.558   0.138  2.3440  2.2804 -0.1609
  302MOL0     H41668   2.160   5.549  -0.092 -0.0952 -1.0561 -0.9768
  302MOL0     H41669   2.326   5.470  -0.092  1.6419  2.2529 -0.2096
  302MOL0     H41670   2.255   5.345   0.106  0.4958 -2.5519 -1.3955
  302MOL0     H41671   2.151   5.317  -0.036  1.0269 -0.2649  0.1757
  302MOL0     H41672   1.888   5.448   0.266 -3.8062  0.4749 -3.2635
  302MOL0     H41673   2.611   5.865   0.260  2.4924 -0.8350  0.5222
  302MOL0     H41674   2.792   5.981   0.348 -0.2830 -2.3370 -1.3730
  302MOL0     H41675   2.934   5.994   0.240  0.1443  2.1034 -1.5696
  302MOL0     H41676   2.823   6.139   0.270 -2.4214  0.1200 -0.4828
  303MOL0     O41677   8.937   1.647   4.910  0.1016 -0.0335 -0.4929
  303MOL0     C41678   8.919   1.759   4.866 -0.1252  0.6138 -0.4254
  303MOL0     O41679   9.010   1.856   4.873 -0.1492  0.2227  0.0211
  303MOL0     C41680   9.146   1.816   4.885 -0.1253 -0.6836 -0.5852
  303MOL0     C41681   9.219   1.735   4.793 -0.5679  0.5490  1.2228
  303MOL0     C41682   9.355   1.723   4.809 -0.3341  0.8501  0.4359
  303MOL0     C41683   9.431   1.771   4.912  0.1520 -0.2822 -0.2452
  303MOL0     O41684   9.563   1.733   4.920 -0.2117 -0.1100  0.0484
  303MOL0     C41685   9.644   1.810   5.003  0.8879  0.6823  0.4779
  303MOL0     C41686   9.779   1.740   5.010 -0.3166  0.2463 -0.9018
  303MOL0     C41687   9.871   1.792   4.900  0.2801  0.4061  0.5566
  303MOL0     C41688  10.011   1.758   4.912  0.4757  0.5805 -0.0297
  303MOL0     C41689  10.096   1.785   4.784 -0.0273 -0.4153 -0.1611
  303MOL0     C41690  10.087   1.679   4.676  0.4965 -0.2870  0.0004
  303MOL0     C41691  10.195   1.682   4.563  0.1267  0.3459  0.0443
  303MOL0     C41692  10.339   1.636   4.615  0.3425 -0.5649 -0.4583
  303MOL0     N41693  10.404   1.743   4.679  0.5525  0.4446 -0.6025
  303MOL0     C41694  10.477   1.722   4.793 -0.6021 -0.7836 -0.6076
  303MOL0     C41695  10.529   1.842   4.821 -0.3011 -0.2074 -0.2326
  303MOL0     C41696  10.610   1.888   4.939  0.8072  0.2461  0.4199
  303MOL0     C41697  10.722   1.779   4.964  0.8301  0.0649  0.0407
  303MOL0     C41698  10.789   1.806   5.099  0.5270  0.6131  0.6056
  303MOL0     C41699  10.904   1.893   5.067 -1.0481 -0.6729  0.3714
  303MOL0     O41700  10.876   2.021   5.023  0.0550  0.0542  0.5699
  303MOL0     C41701  10.972   2.090   4.960  1.0534 -0.3242  0.5807
  303MOL0     C41702  10.939   2.187   4.861  0.4533  0.3713  0.1916
  303MOL0     C41703  11.032   2.268   4.798  0.3072 -0.1818 -0.0191
  303MOL0     C41704  10.980   2.366   4.698  0.1669  0.4380 -0.2212
  303MOL0     C41705  11.169   2.248   4.829  0.1607 -0.1939  0.2441
  303MOL0     C41706  11.276   2.341   4.785 -0.1762 -0.6140  1.1799
  303MOL0     O41707  11.251   2.473   4.749 -0.3413  0.4795  0.1726
  303MOL0     C41708  11.362   2.545   4.701  1.0577 -0.0241 -0.2507
  303MOL0     C41709  11.448   2.511   4.595 -0.3606 -0.0537  0.0794
  303MOL0     C41710  11.541   2.608   4.546  0.1683 -0.5036 -0.8086
  303MOL0     C41711  11.556   2.732   4.596 -0.3132 -0.0658 -0.2902
  303MOL0     O41712  11.654   2.808   4.537  0.2151 -0.3485  0.4501
  303MOL0     C41713  11.690   2.939   4.588  0.8034  1.1653 -0.0484
  303MOL0     C41714  11.808   2.988   4.508  0.3360 -1.2390 -0.8964
  303MOL0     C41715  11.940   2.929   4.556  0.4833  0.0536 -0.5263
  303MOL0     C41716  11.956   2.785   4.519  0.3592  0.1659  0.6739
  303MOL0     C41717  12.096   2.730   4.543 -0.0720  0.2503 -0.4615
  303MOL0     C41718  12.207   2.774   4.446 -0.9243  0.1143 -0.3368
  303MOL0     C41719  12.325   2.678   4.456 -1.1224  0.4559 -0.5335
  303MOL0     C41720  12.436   2.717   4.358  0.5068  0.2146 -0.9491
  303MOL0    Cl41721  12.372   2.707   4.191 -0.2746  0.5718  0.0854
  303MOL0     C41722  11.462   2.768   4.695  0.0834  0.0875  0.3314
  303MOL0     C41723  11.370   2.676   4.737 -0.2323 -1.3067 -0.5700
  303MOL0     O41724  11.389   2.293   4.783 -0.2010  0.0242  0.0547
  303MOL0     C41725  11.213   2.141   4.910 -0.0804  0.5124  0.4298
  303MOL0     C41726  11.115   2.064   4.980 -0.4325 -0.1894  0.7359
  303MOL0     N41727  10.484   1.934   4.722  0.0784  0.3464  0.3607
  303MOL0     N41728  10.408   1.870   4.639 -0.4318  0.1946 -0.3863
  303MOL0     C41729   9.362   1.847   5.008 -0.2783  0.4478 -0.4158
  303MOL0     C41730   9.221   1.863   4.995 -0.2335 -0.3260 -0.0967
  303MOL0     C41731   8.779   1.801   4.838  0.5152  0.6812  0.9160
  303MOL0     C41732   8.671   1.756   4.926  0.0101  0.0783 -0.4602
  303MOL0     C41733   8.535   1.797   4.900 -0.6004 -0.1238  0.0918
  303MOL0     C41734   8.500   1.867   4.781 -0.7404  0.1260  0.3109
  303MOL0     O41735   8.372   1.893   4.746  0.3105  0.0396 -0.5579
  303MOL0     C41736   8.261   1.857   4.835 -0.1709  0.1978  0.0085
  303MOL0     C41737   8.120   1.903   4.789  0.0366 -0.2935 -0.5575
  303MOL0     C41738   8.114   2.024   4.699  0.7880  0.0615  0.0945
  303MOL0     C41739   7.973   2.061   4.641  0.9337  0.4881 -0.7688
  303MOL0     C41740   7.914   1.944   4.569  0.1797 -0.0852 -0.3055
  303MOL0     C41741   7.849   1.851   4.524  0.3396  0.5129 -0.1969
  303MOL0     C41742   8.606   1.907   4.697  1.1384  0.3317  0.1550
  303MOL0     C41743   8.743   1.875   4.722  1.0965  0.6062 -1.2177
  303MOL0     C41744   8.845   1.924   4.620 -0.1996  0.6854 -0.6098
  303MOL0     H41745   9.176   1.714   4.696 -0.2051 -0.8502  1.3436
  303MOL0     H41746   9.393   1.667   4.724  0.7713 -2.7441  3.0576
  303MOL0     H41747   9.622   1.798   5.109  1.6899  0.7715  0.6637
  303MOL0     H41748   9.649   1.916   4.977 -1.1271  0.6244 -0.2458
  303MOL0     H41749   9.823   1.765   5.107  0.0189 -1.0282 -0.7126
  303MOL0     H41750   9.769   1.632   4.998  3.5226 -0.3096 -0.4088
  303MOL0     H41751   9.836   1.749   4.806  2.2204  1.3475 -0.6476
  303MOL0     H41752   9.870   1.900   4.883 -0.4801 -0.0945 -3.4478
  303MOL0     H41753  10.053   1.814   4.996  0.8931 -0.7540  0.6805
  303MOL0     H41754  10.034   1.658   4.949  1.6106  0.3689 -1.2016
  303MOL0     H41755  10.199   1.793   4.820 -0.7896 -0.9238  2.3176
  303MOL0     H41756  10.066   1.881   4.741  3.3534  0.5561 -0.6058
  303MOL0     H41757  10.099   1.581   4.723  4.7011 -0.4236 -0.9237
  303MOL0     H41758   9.987   1.693   4.633  0.0096  0.9140  1.4293
  303MOL0     H41759  10.199   1.771   4.499 -2.9270 -1.3675 -2.8723
  303MOL0     H41760  10.169   1.597   4.499  1.6499 -1.4651  1.6973
  303MOL0     H41761  10.333   1.554   4.687  0.0997  0.1077  0.3120
  303MOL0     H41762  10.409   1.605   4.537  0.4923 -2.3973  0.3767
  303MOL0     H41763  10.498   1.633   4.850 -2.3674  0.7358  2.7103
  303MOL0     H41764  10.540   1.884   5.023  0.5714  0.1135  0.2164
  303MOL0     H41765  10.643   1.992   4.936  2.6168 -0.3138 -1.0107
  303MOL0     H41766  10.661   1.688   4.969 -2.1291  1.8261 -0.9598
  303MOL0     H41767  10.795   1.767   4.884  1.3498 -0.7912  0.6232
  303MOL0     H41768  10.716   1.859   5.161 -1.0300  1.3577 -1.7336
  303MOL0     H41769  10.824   1.712   5.142  0.1895  0.3621  0.3388
  303MOL0     H41770  10.954   1.898   5.164  1.2358  4.1259 -0.6899
  303MOL0     H41771  10.981   1.846   5.005  2.1068  0.2025  3.2973
  303MOL0     H41772  10.831   2.198   4.852  0.4815  2.7078  1.7974
  303MOL0     H41773  10.883   2.329   4.664 -0.8290 -0.6803  3.4267
  303MOL0     H41774  11.041   2.374   4.607  1.3966  1.7668  0.6672
  303MOL0     H41775  10.957   2.460   4.747 -2.8152  0.7994 -2.0600
  303MOL0     H41776  11.439   2.419   4.537 -3.4971 -0.3597  0.8991
  303MOL0     H41777  11.603   2.580   4.461  0.3589 -3.3686  0.1729
  303MOL0     H41778  11.603   3.003   4.571 -1.4330 -1.3081  1.3421
  303MOL0     H41779  11.709   2.930   4.696 -6.1088 -2.7954  1.4118
  303MOL0     H41780  11.781   2.967   4.404 -2.4320 -2.9865  0.0559
  303MOL0     H41781  11.824   3.094   4.528  1.9838 -1.7797  0.9724
  303MOL0     H41782  11.944   2.925   4.665 -0.3971  0.8214 -0.4519
  303MOL0     H41783  12.032   2.975   4.517  0.8168 -1.9747 -2.2694
  303MOL0     H41784  11.930   2.772   4.414  0.1446  1.4762  0.5537
  303MOL0     H41785  11.881   2.724   4.571 -0.8847 -2.2429 -3.4858
  303MOL0     H41786  12.132   2.746   4.645  1.0147 -1.2918 -0.5763
  303MOL0     H41787  12.094   2.621   4.545  1.9273  0.0575  4.0535
  303MOL0     H41788  12.242   2.876   4.467 -0.3656 -0.4375  1.5998
  303MOL0     H41789  12.162   2.777   4.346  1.1057  0.3531 -1.2907
  303MOL0     H41790  12.289   2.578   4.430 -0.0332 -0.3459  0.9080
  303MOL0     H41791  12.356   2.692   4.560 -1.2680 -0.4290 -0.3582
  303MOL0     H41792  12.520   2.648   4.371  0.2128  0.3748  3.2690
  303MOL0     H41793  12.470   2.818   4.384  1.4174 -0.4031  0.3931
  303MOL0     H41794  11.460   2.870   4.734 -0.9570 -0.6202  2.2722
  303MOL0     H41795  11.300   2.711   4.813 -1.2220 -1.7875 -1.2291
  303MOL0     H41796  11.315   2.106   4.926 -1.2148 -2.7417  1.3557
  303MOL0     H41797  11.145   1.984   5.047 -3.1434 -1.7563  0.1974
  303MOL0     H41798   9.405   1.880   5.102  2.2083 -1.6731 -0.7135
  303MOL0     H41799   9.168   1.907   5.078  1.8823  1.9634  0.1658
  303MOL0     H41800   8.708   1.688   5.002 -2.0831  1.2922  1.7368
  303MOL0     H41801   8.453   1.770   4.967 -2.0111  3.6665  0.1451
  303MOL0     H41802   8.261   1.748   4.852  1.0985  0.3127  0.8699
  303MOL0     H41803   8.264   1.913   4.929 -0.5589  2.1489 -1.1020
  303MOL0     H41804   8.049   1.928   4.869 -0.3552 -1.5904 -0.4803
  303MOL0     H41805   8.083   1.815   4.736  2.6497 -1.5649 -0.4155
  303MOL0     H41806   8.162   2.106   4.754  1.8565 -0.1569 -0.4871
  303MOL0     H41807   8.176   1.988   4.617  1.6668  1.1462  0.2545
  303MOL0     H41808   7.995   2.144   4.573 -0.9025  1.1484 -0.6140
  303MOL0     H41809   7.899   2.082   4.719  2.6895 -0.7518  1.3825
  303MOL0     H41810   7.806   1.765   4.476  0.1362 -0.1801  1.1892
  303MOL0     H41811   8.572   1.958   4.607  0.0538 -0.1491  0.2680
  303MOL0     H41812   8.906   1.839   4.587  0.0199  0.2090  0.9084
  303MOL0     H41813   8.795   1.963   4.531 -3.6134 -2.8645 -0.5515
  303MOL0     H41814   8.898   2.002   4.675  1.9720 -0.5014 -0.9171
  304MOL0     O41815   9.397   7.374   0.230 -0.5228  0.1482 -0.5677
  304MOL0     C41816   9.484   7.297   0.276 -1.1969 -0.7740  0.3037
  304MOL0     O41817   9.455   7.197   0.360 -0.3506 -0.3263  0.8443
  304MOL0     C41818   9.328   7.169   0.402 -0.5001  0.1082 -0.2735
  304MOL0     C41819   9.261   7.252   0.494 -0.6635  0.3977  0.2695
  304MOL0     C41820   9.130   7.218   0.536 -0.4346 -0.4471 -0.1256
  304MOL0     C41821   9.068   7.099   0.500  0.1937 -0.5409  0.2116
  304MOL0     O41822   8.934   7.100   0.538 -0.1496  0.4696  0.5051
  304MOL0     C41823   8.856   6.994   0.484 -0.6932  0.1689 -0.5158
  304MOL0     C41824   8.708   7.011   0.513 -0.2733 -0.4678  0.5432
  304MOL0     C41825   8.618   6.927   0.424  0.0199 -0.1778 -0.1899
  304MOL0     C41826   8.477   6.992   0.416 -0.1438  0.1312 -0.3018
  304MOL0     C41827   8.382   6.902   0.326  0.7295 -0.1728  0.3612
  304MOL0     C41828   8.236   6.960   0.321  0.3793  0.0873 -0.0644
  304MOL0     C41829   8.139   6.896   0.218  0.2578 -0.6934 -0.0060
  304MOL0     C41830   8.123   6.994   0.099  0.7312 -0.0258  0.7956
  304MOL0     N41831   8.025   6.945   0.006 -0.0868  0.4754 -0.0995
  304MOL0     C41832   7.885   6.948   0.032  0.0538 -0.7414 -0.0904
  304MOL0     C41833   7.829   6.898  -0.079  0.4508  0.0019  0.1080
  304MOL0     C41834   7.683   6.868  -0.079  0.5264  0.3485  0.5875
  304MOL0     C41835   7.594   6.995  -0.060 -0.2452  0.3791  0.3818
  304MOL0     C41836   7.456   6.988  -0.113  0.7598  0.2573  0.2773
  304MOL0     C41837   7.459   6.955  -0.255  0.0030 -0.3898  0.4003
  304MOL0     O41838   7.572   7.018  -0.323  0.8320 -0.3233  0.3539
  304MOL0     C41839   7.595   6.973  -0.451  0.2249  0.1438 -0.9560
  304MOL0     C41840   7.731   6.964  -0.480  0.2277 -0.4040  0.5379
  304MOL0     C41841   7.773   6.904  -0.602  0.1172  0.7500 -0.3083
  304MOL0     C41842   7.920   6.892  -0.618  0.4532 -0.8453  0.2987
  304MOL0     C41843   7.680   6.848  -0.695 -0.3294 -0.7202  0.3221
  304MOL0     C41844   7.717   6.832  -0.842 -0.1035  0.0522 -0.7761
  304MOL0     O41845   7.823   6.896  -0.888  0.3429 -0.8571  1.4175
  304MOL0     C41846   7.825   6.944  -1.020  0.4434  0.3175 -0.4924
  304MOL0     C41847   7.704   6.987  -1.086 -0.5475 -0.6374 -0.3292
  304MOL0     C41848   7.715   7.038  -1.220  0.3991 -1.0498  0.3008
  304MOL0     C41849   7.838   7.063  -1.279  0.5265 -0.5626 -0.1798
  304MOL0     O41850   7.841   7.135  -1.396 -0.2303 -0.4861  0.3765
  304MOL0     C41851   7.856   7.279  -1.377  0.3749  0.0027  0.1346
  304MOL0     C41852   8.007   7.320  -1.359  0.0098  0.2415 -0.1500
  304MOL0     C41853   8.116   7.264  -1.461  0.1891  0.0304  0.3963
  304MOL0     C41854   8.072   7.275  -1.599  1.1400  0.6282 -0.1080
  304MOL0     C41855   8.198   7.283  -1.692  0.2107 -0.2118  0.3164
  304MOL0     C41856   8.143   7.315  -1.838 -0.3762  1.0190 -0.3746
  304MOL0     C41857   8.255   7.331  -1.937 -0.1604 -0.0875  1.0976
  304MOL0     C41858   8.338   7.213  -1.970  0.1596  0.3702 -0.0570
  304MOL0    Cl41859   8.500   7.275  -1.992 -0.0865 -0.7141 -0.3359
  304MOL0     C41860   7.957   7.013  -1.221  0.5358  0.9606 -0.1895
  304MOL0     C41861   7.950   6.956  -1.090  0.2074  0.1595 -0.3019
  304MOL0     O41862   7.644   6.766  -0.910  0.6650 -0.3429  0.1058
  304MOL0     C41863   7.543   6.856  -0.662  0.5393  0.1575 -0.1760
  304MOL0     C41864   7.508   6.909  -0.543  0.5101  0.1303  0.1633
  304MOL0     N41865   7.928   6.867  -0.168  0.0280  0.0690  0.6158
  304MOL0     N41866   8.042   6.908  -0.123  0.8030 -0.0263  0.8821
  304MOL0     C41867   9.135   7.005   0.420  0.3853 -0.2488  0.5528
  304MOL0     C41868   9.263   7.043   0.373  0.9465 -0.0551  0.9342
  304MOL0     C41869   9.634   7.326   0.257  0.0665  0.9101  0.7756
  304MOL0     C41870   9.727   7.257   0.341  0.7175 -0.6602  0.2689
  304MOL0     C41871   9.861   7.257   0.324 -0.1856 -0.2186  0.3163
  304MOL0     C41872   9.918   7.340   0.233 -0.4334  0.0890 -0.1092
  304MOL0     O41873  10.051   7.349   0.250  0.4212  0.7292 -0.2410
  304MOL0     C41874  10.133   7.429   0.165  0.6945  0.6012  0.0799
  304MOL0     C41875  10.266   7.355   0.146  0.3743  0.0014  0.7075
  304MOL0     C41876  10.373   7.355   0.257  0.0759  0.7381 -0.3456
  304MOL0     C41877  10.444   7.484   0.255  0.6702  0.2261 -0.7673
  304MOL0     C41878  10.534   7.499   0.370 -0.1273  0.1998 -0.1589
  304MOL0     C41879  10.594   7.515   0.473 -0.4592 -0.4673 -0.1317
  304MOL0     C41880   9.833   7.440   0.170  0.0910  0.1131 -0.0053
  304MOL0     C41881   9.693   7.418   0.171  0.5375 -0.4269  0.2987
  304MOL0     C41882   9.610   7.507   0.081  0.0912  0.4720  0.6600
  304MOL0     H41883   9.300   7.351   0.517  0.2730 -0.1256  1.0137
  304MOL0     H41884   9.065   7.295   0.576 -1.4873 -0.9245 -0.8803
  304MOL0     H41885   8.889   6.896   0.520  2.7405  2.0126  1.9060
  304MOL0     H41886   8.877   7.007   0.377  2.9823  1.8729  0.2547
  304MOL0     H41887   8.684   6.994   0.618 -2.7867  0.8838  0.2750
  304MOL0     H41888   8.681   7.114   0.488  0.7312 -0.5810 -1.1612
  304MOL0     H41889   8.652   6.925   0.320 -0.0182  1.9189 -0.2842
  304MOL0     H41890   8.611   6.830   0.474 -3.1483 -0.6747 -1.3742
  304MOL0     H41891   8.431   6.996   0.515 -0.8204 -2.6295 -0.4053
  304MOL0     H41892   8.482   7.094   0.377  0.6848  0.1023 -0.2922
  304MOL0     H41893   8.369   6.803   0.372  0.4146  0.2027  1.0904
  304MOL0     H41894   8.412   6.887   0.222  1.1266 -0.6823  0.5429
  304MOL0     H41895   8.198   6.942   0.422  4.0002  0.5817  1.5392
  304MOL0     H41896   8.233   7.068   0.306  2.8303  0.3491  0.9821
  304MOL0     H41897   8.044   6.865   0.263  1.4779 -5.2026 -0.0519
  304MOL0     H41898   8.181   6.806   0.173 -0.4084  0.3287 -2.8559
  304MOL0     H41899   8.103   7.098   0.127 -0.6973  0.3746 -1.4622
  304MOL0     H41900   8.212   7.001   0.035  0.0760 -1.8122 -0.3758
  304MOL0     H41901   7.839   6.962   0.130 -2.5616 -3.6629 -0.7580
  304MOL0     H41902   7.668   6.791  -0.003  1.3891 -0.1635  0.2599
  304MOL0     H41903   7.654   6.819  -0.172  0.0059  1.3524  0.2133
  304MOL0     H41904   7.578   7.005   0.048  0.8055 -0.3152  0.6127
  304MOL0     H41905   7.647   7.086  -0.089  0.4785 -0.8088 -2.3626
  304MOL0     H41906   7.397   6.911  -0.062 -0.9089  0.8325 -0.7096
  304MOL0     H41907   7.401   7.081  -0.094 -1.4612 -0.5221 -1.8732
  304MOL0     H41908   7.479   6.847  -0.260  0.1714 -0.3257 -0.7947
  304MOL0     H41909   7.367   6.970  -0.312  0.4352  0.8034 -0.0026
  304MOL0     H41910   7.801   6.993  -0.402  1.3816 -0.5599 -0.4101
  304MOL0     H41911   7.946   6.800  -0.671  1.6852  0.6658 -1.8496
  304MOL0     H41912   7.970   6.898  -0.521  0.7638  0.3187  0.0763
  304MOL0     H41913   7.959   6.976  -0.676  0.1996 -2.0057 -1.6511
  304MOL0     H41914   7.607   6.977  -1.037 -1.2851  0.8100 -1.4326
  304MOL0     H41915   7.628   7.075  -1.274 -1.0013 -0.8134  2.5955
  304MOL0     H41916   7.818   7.328  -1.467  1.3051  2.7429  1.1266
  304MOL0     H41917   7.787   7.304  -1.296 -2.1861 -0.3795 -1.8267
  304MOL0     H41918   8.033   7.426  -1.352  3.3503 -0.4410 -0.5781
  304MOL0     H41919   8.029   7.273  -1.263 -1.0356 -0.4279 -0.2194
  304MOL0     H41920   8.133   7.159  -1.436  1.3942  0.3552  1.0240
  304MOL0     H41921   8.210   7.319  -1.449  1.4670 -1.5591 -1.6589
  304MOL0     H41922   8.007   7.359  -1.628 -4.1232 -2.5472  1.1981
  304MOL0     H41923   8.014   7.185  -1.617  0.0918  1.4106 -0.7688
  304MOL0     H41924   8.258   7.365  -1.650 -0.3590 -0.2743  1.2827
  304MOL0     H41925   8.243   7.184  -1.683 -1.1404 -0.7749  1.3059
  304MOL0     H41926   8.083   7.406  -1.837 -1.5777  0.2495 -0.1397
  304MOL0     H41927   8.083   7.228  -1.867  0.8908 -0.2591  0.6635
  304MOL0     H41928   8.317   7.413  -1.901  1.4165 -0.0313 -1.4991
  304MOL0     H41929   8.211   7.372  -2.029  1.8892  1.7239  0.8332
  304MOL0     H41930   8.307   7.158  -2.059 -1.0277  1.2153 -0.1866
  304MOL0     H41931   8.350   7.150  -1.881 -0.6486  1.0294  0.5424
  304MOL0     H41932   8.056   7.025  -1.264  0.5060  1.3416 -0.1482
  304MOL0     H41933   8.043   6.939  -1.036  0.5046 -1.4148 -1.2481
  304MOL0     H41934   7.468   6.819  -0.732  2.1951 -1.4317 -1.1928
  304MOL0     H41935   7.407   6.920  -0.504  1.3256  0.5838  2.2725
  304MOL0     H41936   9.091   6.916   0.378 -1.2625 -0.1746  1.9771
  304MOL0     H41937   9.307   6.977   0.299  0.0795 -0.2020  0.5272
  304MOL0     H41938   9.699   7.183   0.415 -2.9769 -0.4565 -0.7235
  304MOL0     H41939   9.932   7.200   0.385  2.3868  2.5555  0.1582
  304MOL0     H41940  10.083   7.459   0.072  2.3104  3.1478 -0.0482
  304MOL0     H41941  10.159   7.521   0.218  0.4581  1.9938 -2.0974
  304MOL0     H41942  10.311   7.396   0.055 -1.5406 -1.6086 -1.0784
  304MOL0     H41943  10.235   7.254   0.116 -0.7110  0.3298  0.6971
  304MOL0     H41944  10.332   7.316   0.351  2.7416  0.5269  0.8277
  304MOL0     H41945  10.448   7.280   0.229  0.2993  1.3694 -1.4777
  304MOL0     H41946  10.367   7.562   0.255  0.0911 -0.2515  1.7710
  304MOL0     H41947  10.507   7.494   0.166  0.7524  0.2047 -0.7122
  304MOL0     H41948  10.625   7.523   0.576 -1.6003 -1.3445  0.3011
  304MOL0     H41949   9.884   7.520   0.116  1.8207 -0.9521 -0.0456
  304MOL0     H41950   9.559   7.586   0.137 -1.3632  3.1327 -3.8984
  304MOL0     H41951   9.665   7.556  -0.000 -0.7033  0.8823  0.3530
  304MOL0     H41952   9.531   7.451   0.029  1.0571  0.9941 -1.5014
  305MOL0     O41953   3.907  11.319   8.151  0.0398 -0.5686  0.3983
  305MOL0     C41954   3.829  11.236   8.103  0.0128  0.5181 -0.1985
  305MOL0     O41955   3.732  11.175   8.183 -0.0635 -0.6622  0.4743
  305MOL0     C41956   3.746  11.147   8.312 -0.4803  0.2522 -0.6794
  305MOL0     C41957   3.873  11.116   8.365 -0.5694  0.1058 -0.0541
  305MOL0     C41958   3.897  11.078   8.500 -0.6006  1.0475 -0.0561
  305MOL0     C41959   3.784  11.067   8.585  0.0456  0.0117  0.5407
  305MOL0     O41960   3.786  11.029   8.714 -0.2222  0.2416  0.4443
  305MOL0     C41961   3.910  11.028   8.789 -0.2153 -0.4648  0.9952
  305MOL0     C41962   3.892  10.969   8.925 -0.6061  0.1938 -0.1960
  305MOL0     C41963   4.026  10.925   8.988  0.1068 -0.6429  0.2882
  305MOL0     C41964   4.018  10.885   9.136 -1.0406 -0.2761 -0.5734
  305MOL0     C41965   3.940  10.759   9.181 -0.4394  1.4414 -0.7006
  305MOL0     C41966   4.018  10.682   9.281  0.1576 -0.4806  0.5727
  305MOL0     C41967   3.935  10.595   9.377 -0.4129  0.1240 -0.4325
  305MOL0     C41968   3.882  10.477   9.295 -0.2398 -0.0278 -0.0440
  305MOL0     N41969   3.794  10.394   9.383 -0.5566  0.7541  0.4318
  305MOL0     C41970   3.816  10.260   9.392 -0.0530  1.2113  0.0277
  305MOL0     C41971   3.735  10.223   9.493  0.0734 -0.7173  0.2845
  305MOL0     C41972   3.712  10.071   9.525 -0.8654  0.0120  0.4349
  305MOL0     C41973   3.683  10.041   9.674  0.0591 -0.7833 -0.2579
  305MOL0     C41974   3.654   9.882   9.711  0.1578 -0.4178  0.3660
  305MOL0     C41975   3.760   9.790   9.651  0.4805  0.0479  0.1536
  305MOL0     O41976   3.735   9.652   9.699  0.2759 -0.1743 -0.2726
  305MOL0     C41977   3.695   9.563   9.598  0.6462 -0.4506 -0.7995
  305MOL0     C41978   3.770   9.447   9.580  0.7077  0.1143 -0.1538
  305MOL0     C41979   3.731   9.346   9.485  0.0303 -0.1781 -0.2072
  305MOL0     C41980   3.816   9.218   9.485  0.4859  1.6270 -0.3009
  305MOL0     C41981   3.609   9.366   9.409  0.7051  0.3187 -0.0575
  305MOL0     C41982   3.547   9.276   9.320 -0.4908  0.7519  0.3478
  305MOL0     O41983   3.421   9.311   9.270 -0.4788  0.3845  0.4608
  305MOL0     C41984   3.368   9.230   9.176  0.4377  0.3553  0.4460
  305MOL0     C41985   3.327   9.288   9.055 -0.9232 -0.1475  0.4342
  305MOL0     C41986   3.255   9.219   8.955  0.0796  1.3640  0.3973
  305MOL0     C41987   3.230   9.081   8.977 -0.0339  0.2868 -0.4987
  305MOL0     O41988   3.177   9.027   8.861 -0.1418 -0.0695 -0.2564
  305MOL0     C41989   3.132   8.890   8.849  0.0568  0.5424 -0.0752
  305MOL0     C41990   3.154   8.842   8.701  0.6212  0.2580 -0.0197
  305MOL0     C41991   3.134   8.688   8.673 -0.0038  0.9625  0.3742
  305MOL0     C41992   3.099   8.664   8.529  0.1979 -0.4097 -0.2652
  305MOL0     C41993   3.067   8.509   8.515  0.5656  0.2037  0.5560
  305MOL0     C41994   2.946   8.446   8.578  0.2775 -0.2420 -0.7064
  305MOL0     C41995   2.943   8.289   8.551 -0.3007  0.5463  0.2947
  305MOL0     C41996   2.884   8.247   8.420  0.7709  0.2958 -0.2541
  305MOL0    Cl41997   2.701   8.254   8.424  0.1120 -0.0324  0.1360
  305MOL0     C41998   3.269   9.020   9.099 -0.6509 -0.0450  0.9446
  305MOL0     C41999   3.342   9.096   9.190  0.4736  0.2344 -0.2934
  305MOL0     O42000   3.618   9.180   9.280 -1.1517 -0.4606  0.3161
  305MOL0     C42001   3.538   9.493   9.430  0.1045 -0.5599 -0.4528
  305MOL0     C42002   3.574   9.582   9.531 -0.1332 -0.7931  0.4745
  305MOL0     N42003   3.677  10.326   9.553 -0.0404 -0.2785  0.1057
  305MOL0     N42004   3.711  10.433   9.484 -0.3024  0.7136 -0.1834
  305MOL0     C42005   3.656  11.103   8.539  0.0737 -0.2944  0.4295
  305MOL0     C42006   3.636  11.148   8.405 -0.2874  0.3938  0.6215
  305MOL0     C42007   3.812  11.213   7.957 -0.5155 -0.2089  0.1584
  305MOL0     C42008   3.703  11.138   7.916 -0.9061 -0.5388 -0.4628
  305MOL0     C42009   3.664  11.126   7.784  0.5628  0.2556  0.1893
  305MOL0     C42010   3.738  11.185   7.682  0.1194  0.8656  0.0570
  305MOL0     O42011   3.681  11.184   7.557 -0.0694  0.6610 -0.3767
  305MOL0     C42012   3.738  11.264   7.455 -0.2391  0.6425  0.7280
  305MOL0     C42013   3.674  11.206   7.328 -0.4165 -0.5598  0.0102
  305MOL0     C42014   3.737  11.284   7.206 -0.4467  0.2070 -0.3400
  305MOL0     C42015   3.717  11.216   7.074  0.2288  0.6058  0.0093
  305MOL0     C42016   3.576  11.221   7.017 -1.0634 -0.2102  0.0368
  305MOL0     C42017   3.472  11.185   6.975 -0.1732  0.9478  0.5940
  305MOL0     C42018   3.860  11.245   7.717  0.0479 -0.1117  0.3539
  305MOL0     C42019   3.897  11.259   7.850 -0.2106  0.3311 -0.5679
  305MOL0     C42020   4.034  11.322   7.873  0.1864  0.3540  0.1601
  305MOL0     H42021   3.963  11.131   8.306 -0.2586 -0.5344  0.2456
  305MOL0     H42022   3.999  11.044   8.516 -0.8150  0.5381  0.2403
  305MOL0     H42023   3.942  11.132   8.803 -2.4428  0.6983 -1.4414
  305MOL0     H42024   3.988  10.970   8.739 -0.9214  0.0115 -0.7743
  305MOL0     H42025   3.836  11.046   8.980 -1.9290  0.7343 -2.1761
  305MOL0     H42026   3.831  10.879   8.916  0.7168 -0.5614 -1.8732
  305MOL0     H42027   4.091  10.868   8.920  2.1943  0.3033  1.3998
  305MOL0     H42028   4.077  11.022   8.997  0.1544 -0.7140  0.7560
  305MOL0     H42029   4.121  10.879   9.171 -0.8871  0.5879 -0.8722
  305MOL0     H42030   3.965  10.969   9.182  0.7418  0.7920 -0.3954
  305MOL0     H42031   3.921  10.692   9.097 -0.3110 -2.1285  1.8691
  305MOL0     H42032   3.846  10.781   9.234 -2.0513 -3.9348 -0.7307
  305MOL0     H42033   4.084  10.623   9.217 -2.0595 -0.4865 -1.8717
  305MOL0     H42034   4.083  10.751   9.335  0.2204 -0.3215  0.2947
  305MOL0     H42035   3.863  10.657   9.430  3.0510  0.7908  4.1533
  305MOL0     H42036   4.001  10.559   9.457  0.2698 -1.2861 -1.5653
  305MOL0     H42037   3.826  10.512   9.208 -1.6331  0.9068  1.1835
  305MOL0     H42038   3.965  10.417   9.254  0.2688  0.1039  0.7648
  305MOL0     H42039   3.890  10.207   9.333  0.6607  2.8098 -0.5524
  305MOL0     H42040   3.807  10.020   9.507  0.0058  1.6853  0.1151
  305MOL0     H42041   3.629  10.038   9.461 -0.1011 -3.5132  1.0597
  305MOL0     H42042   3.769  10.066   9.737  0.6993 -0.9776 -1.0394
  305MOL0     H42043   3.603  10.111   9.701  2.5317  2.2264 -0.1336
  305MOL0     H42044   3.644   9.872   9.820 -4.6794  4.3951  0.7652
  305MOL0     H42045   3.562   9.846   9.665  1.7000 -1.6189 -1.9717
  305MOL0     H42046   3.753   9.802   9.543 -0.5561  4.2502  0.5187
  305MOL0     H42047   3.861   9.811   9.688  0.9669 -5.1786  2.7948
  305MOL0     H42048   3.848   9.438   9.655  1.8720 -0.9580 -1.4313
  305MOL0     H42049   3.896   9.212   9.560  2.2991 -2.9039 -2.1711
  305MOL0     H42050   3.865   9.196   9.390  0.8727  1.5185 -0.0813
  305MOL0     H42051   3.758   9.130   9.515 -0.0441  2.0138 -0.1890
  305MOL0     H42052   3.352   9.393   9.053  2.1334 -0.7930 -0.0097
  305MOL0     H42053   3.216   9.268   8.866 -6.0321 -1.2312  1.1968
  305MOL0     H42054   3.198   8.822   8.903 -0.0913 -1.5531 -2.3524
  305MOL0     H42055   3.027   8.879   8.877 -0.0300  2.0180  0.2421
  305MOL0     H42056   3.094   8.902   8.632  0.4716  0.4288  0.2585
  305MOL0     H42057   3.254   8.873   8.668  0.0370  4.0605  1.3584
  305MOL0     H42058   3.061   8.646   8.742 -1.8756  1.4716 -1.2121
  305MOL0     H42059   3.234   8.645   8.689  0.1278  1.3789  0.6902
  305MOL0     H42060   3.181   8.689   8.461  0.4669 -3.3136 -1.1252
  305MOL0     H42061   3.010   8.725   8.514 -0.2022  0.0041  2.9530
  305MOL0     H42062   3.046   8.490   8.410 -3.3735  2.1379  0.8303
  305MOL0     H42063   3.158   8.450   8.534  1.0568  0.2590 -1.4559
  305MOL0     H42064   2.849   8.474   8.536  1.1276 -1.2853 -3.6301
  305MOL0     H42065   2.956   8.458   8.686  0.4943 -1.5365 -0.5611
  305MOL0     H42066   2.896   8.245   8.639  0.1543  0.9258  0.7248
  305MOL0     H42067   3.046   8.255   8.540 -0.6365 -0.8119  1.1229
  305MOL0     H42068   2.914   8.144   8.401 -0.4313 -0.0526 -0.3305
  305MOL0     H42069   2.923   8.326   8.355  0.9804  0.7351  0.3979
  305MOL0     H42070   3.237   8.919   9.126  0.0794 -0.8261 -0.9305
  305MOL0     H42071   3.355   9.053   9.288 -1.1274 -3.0396 -1.3745
  305MOL0     H42072   3.457   9.535   9.370 -0.3298 -0.0881  0.4431
  305MOL0     H42073   3.517   9.673   9.547  1.2988 -0.0095  1.2479
  305MOL0     H42074   3.576  11.096   8.612  1.0968 -1.6408  1.4805
  305MOL0     H42075   3.533  11.161   8.375 -0.0078 -0.6321 -0.8714
  305MOL0     H42076   3.627  11.098   7.982  0.3995 -4.7083 -1.2190
  305MOL0     H42077   3.577  11.068   7.755  0.4309  0.7121 -0.3409
  305MOL0     H42078   3.712  11.368   7.477  1.2919  1.5093 -1.2261
  305MOL0     H42079   3.847  11.253   7.450 -0.3540 -0.2205 -0.4402
  305MOL0     H42080   3.565  11.215   7.339 -0.6042 -1.7010 -0.6922
  305MOL0     H42081   3.695  11.101   7.305  2.2844  0.4487 -2.8198
  305MOL0     H42082   3.687  11.382   7.200  0.7727  0.7659 -1.7868
  305MOL0     H42083   3.843  11.300   7.224 -0.2259 -2.1674  0.8440
  305MOL0     H42084   3.736  11.108   7.079 -0.0229  0.4765 -1.5366
  305MOL0     H42085   3.778  11.259   6.994  1.5102 -3.2515 -1.2974
  305MOL0     H42086   3.375  11.146   6.953 -0.4844  1.7104  0.5679
  305MOL0     H42087   3.925  11.290   7.643 -1.0960  1.4916  0.2624
  305MOL0     H42088   4.113  11.253   7.904 -0.3097 -0.8248 -1.0849
  305MOL0     H42089   4.064  11.389   7.793  0.5842  0.5418  0.4661
  305MOL0     H42090   4.025  11.388   7.960  2.6843  0.8382  0.0968
  306MOL0     O42091   0.819   9.196   0.304  0.0853  0.4781  0.5139
  306MOL0     C42092   0.925   9.171   0.372  0.2128 -0.6076  0.1093
  306MOL0     O42093   1.009   9.060   0.364 -0.1172 -0.5447  0.2312
  306MOL0     C42094   0.994   8.977   0.252 -0.0857 -0.1754 -0.8046
  306MOL0     C42095   1.101   8.938   0.172 -0.0970  0.1675 -0.3641
  306MOL0     C42096   1.078   8.853   0.070  0.1754 -0.4780 -0.1536
  306MOL0     C42097   0.965   8.781   0.051  0.1964 -0.6056  0.3695
  306MOL0     O42098   0.976   8.688  -0.045  0.5101 -0.1482  0.0728
  306MOL0     C42099   0.846   8.651  -0.104  0.2474  0.2219 -0.3601
  306MOL0     C42100   0.849   8.535  -0.196 -0.1752 -0.8822 -0.7376
  306MOL0     C42101   0.917   8.406  -0.133  0.2875 -0.1230 -0.0994
  306MOL0     C42102   0.852   8.274  -0.174 -0.3111  0.2149  0.4620
  306MOL0     C42103   0.916   8.160  -0.110 -0.2904  0.2473  0.1068
  306MOL0     C42104   0.835   8.027  -0.155 -0.5512 -0.5758 -0.1921
  306MOL0     C42105   0.895   7.907  -0.083 -0.1370  0.2015 -0.6593
  306MOL0     C42106   1.044   7.884  -0.109 -0.5609 -1.2755 -0.5186
  306MOL0     N42107   1.126   7.914   0.005  0.0191  0.0694  0.1970
  306MOL0     C42108   1.248   7.963  -0.003  0.2586 -0.5673 -0.2432
  306MOL0     C42109   1.297   7.971   0.127 -0.3901 -0.0645 -0.3872
  306MOL0     C42110   1.428   8.043   0.179 -0.3607 -0.2903  0.0426
  306MOL0     C42111   1.513   7.958   0.287  0.0357 -0.3230  0.1956
  306MOL0     C42112   1.629   8.036   0.353 -0.5049 -0.1010 -0.4956
  306MOL0     C42113   1.749   8.071   0.264  0.2350  0.1938 -0.0609
  306MOL0     O42114   1.819   7.956   0.210  0.5364  0.5912  0.0721
  306MOL0     C42115   1.947   7.982   0.165 -0.0604 -0.7864 -0.6978
  306MOL0     C42116   2.014   8.106   0.172  0.2167 -0.5854 -0.0099
  306MOL0     C42117   2.143   8.118   0.130 -1.0069  0.6536 -0.0111
  306MOL0     C42118   2.226   8.236   0.158  0.0421  0.3844  0.8458
  306MOL0     C42119   2.207   8.002   0.064  1.4252 -0.3185 -0.1048
  306MOL0     C42120   2.341   8.017   0.002  0.4712  0.1438  0.2914
  306MOL0     O42121   2.428   7.914   0.028  0.3367  0.5074 -0.0157
  306MOL0     C42122   2.548   7.916  -0.035  0.2682 -0.1803 -0.2035
  306MOL0     C42123   2.593   7.813  -0.116  0.0362 -0.7398 -0.6622
  306MOL0     C42124   2.729   7.803  -0.162  0.1165 -0.1027 -0.4567
  306MOL0     C42125   2.825   7.893  -0.121 -0.0676 -0.5979  0.3905
  306MOL0     O42126   2.960   7.893  -0.154 -0.3611 -0.3261  0.2340
  306MOL0     C42127   3.000   7.815  -0.274 -0.0770 -0.8165 -0.1791
  306MOL0     C42128   3.153   7.842  -0.307 -0.2075  1.0313  0.7750
  306MOL0     C42129   3.178   7.979  -0.359  0.1246 -0.5285  0.2112
  306MOL0     C42130   3.312   8.028  -0.319 -0.1615  0.1096 -0.6299
  306MOL0     C42131   3.330   8.182  -0.355 -0.2447 -0.2103  0.8248
  306MOL0     C42132   3.459   8.227  -0.281  0.4880 -0.3763  0.0071
  306MOL0     C42133   3.480   8.380  -0.303 -0.3744  0.6830 -0.9551
  306MOL0     C42134   3.582   8.450  -0.215  0.2504 -0.5942 -0.2345
  306MOL0    Cl42135   3.724   8.355  -0.196  0.3694 -0.2234  0.6952
  306MOL0     C42136   2.776   7.998  -0.032  0.0993 -0.7258 -0.0631
  306MOL0     C42137   2.638   8.016  -0.001 -0.7279  1.0514  0.2629
  306MOL0     O42138   2.367   8.112  -0.071 -0.0344 -0.3067 -1.0484
  306MOL0     C42139   2.139   7.883   0.042  0.4039  0.0799 -0.7527
  306MOL0     C42140   2.019   7.875   0.108  0.4635  0.9528 -0.8485
  306MOL0     N42141   1.200   7.919   0.209 -0.0834 -0.0561 -0.1675
  306MOL0     N42142   1.097   7.887   0.136 -0.5193 -0.7090 -0.2925
  306MOL0     C42143   0.866   8.800   0.143 -0.2973 -0.2590 -0.8626
  306MOL0     C42144   0.881   8.903   0.243  0.1780  0.8153  0.7781
  306MOL0     C42145   0.941   9.259   0.489 -0.1076  0.2130 -0.1080
  306MOL0     C42146   0.831   9.330   0.534  0.1804 -0.0133 -0.0835
  306MOL0     C42147   0.834   9.390   0.665  0.3743 -0.6686  0.2565
  306MOL0     C42148   0.955   9.397   0.741  0.4249 -0.5170  0.8634
  306MOL0     O42149   0.965   9.461   0.866  0.1260 -0.4925 -0.0042
  306MOL0     C42150   0.844   9.499   0.941  0.2578 -0.4055  0.3383
  306MOL0     C42151   0.888   9.579   1.060  0.9102  0.3158 -0.2142
  306MOL0     C42152   0.900   9.724   1.014 -0.2397  1.1425  0.5156
  306MOL0     C42153   0.936   9.829   1.126 -0.5638 -0.3569 -0.5145
  306MOL0     C42154   0.836   9.829   1.235  0.0280  0.1388  0.1415
  306MOL0     C42155   0.765   9.833   1.332 -0.3469 -0.1180 -0.5864
  306MOL0     C42156   1.074   9.344   0.689  0.8349 -0.3327 -0.1861
  306MOL0     C42157   1.069   9.273   0.569 -0.7461  0.1170 -0.3291
  306MOL0     C42158   1.198   9.224   0.514  0.1726 -0.3463 -0.7844
  306MOL0     H42159   1.199   8.978   0.191 -1.2466  2.6758  0.6477
  306MOL0     H42160   1.158   8.836  -0.001  0.6621 -1.0014  0.5029
  306MOL0     H42161   0.810   8.731  -0.169  0.9770  0.8730  0.0329
  306MOL0     H42162   0.761   8.625  -0.039  0.5576 -2.1673 -0.8198
  306MOL0     H42163   0.744   8.524  -0.226 -1.3976  0.7934  2.3563
  306MOL0     H42164   0.898   8.568  -0.287 -1.8171  1.7949 -0.7688
  306MOL0     H42165   1.026   8.403  -0.148  0.0237 -0.4539 -2.2930
  306MOL0     H42166   0.905   8.412  -0.025  0.7253 -2.9858  0.1746
  306MOL0     H42167   0.746   8.271  -0.147 -0.1710 -1.9855  0.9306
  306MOL0     H42168   0.877   8.247  -0.277 -0.8910 -0.4589  0.4903
  306MOL0     H42169   0.920   8.163  -0.001 -1.2053  2.0231  0.1238
  306MOL0     H42170   1.022   8.146  -0.131 -0.9335  0.5008 -4.2691
  306MOL0     H42171   0.739   8.035  -0.103  0.2277 -1.2484  1.4029
  306MOL0     H42172   0.822   8.016  -0.263 -1.1291  0.7414 -0.2728
  306MOL0     H42173   0.846   7.817  -0.120  1.3076 -0.9793  0.1584
  306MOL0     H42174   0.869   7.911   0.023  1.5389 -2.5873 -0.0435
  306MOL0     H42175   1.073   7.779  -0.123  0.1065 -1.5613  2.4713
  306MOL0     H42176   1.077   7.924  -0.206  1.4287 -0.1097  0.5822
  306MOL0     H42177   1.299   8.006  -0.088  2.8640 -4.3381 -0.8124
  306MOL0     H42178   1.394   8.137   0.224 -0.7505 -0.5375  0.2647
  306MOL0     H42179   1.491   8.081   0.098  0.7622  1.7120  1.7364
  306MOL0     H42180   1.438   7.925   0.360  0.1456  0.2210  0.5615
  306MOL0     H42181   1.552   7.863   0.250 -3.4905 -2.5261  1.6780
  306MOL0     H42182   1.586   8.130   0.388 -1.2219 -1.1528  1.6068
  306MOL0     H42183   1.667   7.975   0.436  1.9094  1.7894 -0.1081
  306MOL0     H42184   1.710   8.125   0.177 -1.5658 -2.0223 -0.7291
  306MOL0     H42185   1.804   8.141   0.327  2.0184 -0.7949 -0.4539
  306MOL0     H42186   1.973   8.196   0.218  2.1589  1.0419 -1.2880
  306MOL0     H42187   2.323   8.200   0.196 -1.1114  0.5906  4.3245
  306MOL0     H42188   2.187   8.301   0.237  2.7582  0.8002  1.9725
  306MOL0     H42189   2.227   8.293   0.065 -1.1391  1.3317  1.3910
  306MOL0     H42190   2.517   7.744  -0.150 -1.1293 -0.0085  0.3586
  306MOL0     H42191   2.775   7.723  -0.219  2.2276  0.3098  0.5703
  306MOL0     H42192   2.995   7.707  -0.256 -0.2433 -1.0617 -1.5409
  306MOL0     H42193   2.936   7.846  -0.357  0.4867  0.8464 -0.0178
  306MOL0     H42194   3.208   7.825  -0.214 -0.2189 -2.1577  0.2883
  306MOL0     H42195   3.189   7.777  -0.387 -1.8870  0.0025  0.8190
  306MOL0     H42196   3.111   8.053  -0.314  5.2577  3.3893  2.4823
  306MOL0     H42197   3.193   7.989  -0.467 -0.8436  1.0254  0.1873
  306MOL0     H42198   3.397   7.967  -0.353 -2.0346 -1.4505 -2.8105
  306MOL0     H42199   3.320   8.029  -0.210  0.3424 -1.4632 -0.6211
  306MOL0     H42200   3.334   8.207  -0.462  1.3197  1.1925  1.1660
  306MOL0     H42201   3.259   8.255  -0.317  3.5737  5.6792 -1.7232
  306MOL0     H42202   3.554   8.187  -0.317  1.7556  2.0716  0.4678
  306MOL0     H42203   3.451   8.216  -0.172 -3.6991  0.5385 -0.0222
  306MOL0     H42204   3.385   8.433  -0.291 -0.7337 -0.0015 -0.6854
  306MOL0     H42205   3.508   8.402  -0.406  0.0791 -1.1412 -1.2535
  306MOL0     H42206   3.538   8.478  -0.119 -1.0652  4.1236 -1.9386
  306MOL0     H42207   3.605   8.547  -0.260 -1.6154  0.0201  0.0571
  306MOL0     H42208   2.846   8.069   0.012  0.3393  0.7550 -2.5983
  306MOL0     H42209   2.609   8.096   0.067 -1.0884 -1.2250  2.9698
  306MOL0     H42210   2.179   7.800  -0.015 -1.2662  1.1206 -3.6367
  306MOL0     H42211   1.965   7.783   0.127  0.0954  0.6267 -3.1264
  306MOL0     H42212   0.778   8.738   0.131  1.4681 -2.6265 -2.4534
  306MOL0     H42213   0.799   8.926   0.310 -1.9567 -0.6024 -1.2203
  306MOL0     H42214   0.730   9.320   0.496 -0.4363 -0.8077  1.6378
  306MOL0     H42215   0.739   9.436   0.692 -1.4721 -2.4132 -2.7777
  306MOL0     H42216   0.775   9.564   0.886 -0.8552 -0.3289  1.7386
  306MOL0     H42217   0.790   9.410   0.972 -0.7272  0.4958  1.3028
  306MOL0     H42218   0.971   9.524   1.107 -2.0362 -3.6640  0.8474
  306MOL0     H42219   0.811   9.567   1.137  0.9274  0.8938 -0.1020
  306MOL0     H42220   0.970   9.732   0.930 -0.8191  0.5131 -0.0368
  306MOL0     H42221   0.796   9.746   0.988 -0.5199  0.9218  1.4021
  306MOL0     H42222   0.940   9.932   1.088 -2.0186  0.6599  1.8804
  306MOL0     H42223   1.031   9.815   1.177 -1.0786  0.6745  0.7834
  306MOL0     H42224   0.692   9.826   1.410  0.4554 -3.1674  0.0495
  306MOL0     H42225   1.168   9.360   0.741  0.6393 -0.2938  0.1543
  306MOL0     H42226   1.277   9.256   0.583 -0.5060 -2.2864  1.0040
  306MOL0     H42227   1.210   9.115   0.510  0.4312 -0.3814  0.4734
  306MOL0     H42228   1.209   9.261   0.412 -1.8967  1.0567 -0.5640
  307MOL0     O42229   2.753   0.372   7.604 -0.5091 -0.2750  0.5891
  307MOL0     C42230   2.725   0.310   7.505  0.8137  0.0370  0.4170
  307MOL0     O42231   2.809   0.265   7.404  0.4757 -0.5103 -0.5616
  307MOL0     C42232   2.925   0.329   7.396 -0.0464 -0.6910  0.3924
  307MOL0     C42233   2.934   0.442   7.312 -0.6814  0.7106 -1.2963
  307MOL0     C42234   3.052   0.519   7.314 -0.8427  0.0063 -0.7524
  307MOL0     C42235   3.164   0.472   7.377 -0.1372 -1.1305  0.4907
  307MOL0     O42236   3.283   0.542   7.344  0.6829  0.1124 -0.1937
  307MOL0     C42237   3.377   0.560   7.451 -0.0792 -0.5513  0.0069
  307MOL0     C42238   3.328   0.667   7.550  0.0794 -0.4040  0.4025
  307MOL0     C42239   3.319   0.816   7.480 -0.5976  1.0073 -0.9670
  307MOL0     C42240   3.438   0.909   7.493 -0.2086 -0.1057  0.4383
  307MOL0     C42241   3.557   0.841   7.427 -0.8636 -1.2771 -0.3797
  307MOL0     C42242   3.679   0.929   7.403  0.2635  0.0081  0.4081
  307MOL0     C42243   3.650   1.024   7.278  0.4125  0.4431 -0.6527
  307MOL0     C42244   3.753   1.130   7.255  0.5821 -0.6115 -0.6073
  307MOL0     N42245   3.879   1.070   7.218  0.2550  0.0113  0.2670
  307MOL0     C42246   3.900   0.952   7.144 -0.5881 -0.1267 -1.0292
  307MOL0     C42247   4.024   0.962   7.101 -0.0648  0.2109 -0.6751
  307MOL0     C42248   4.082   0.874   6.991 -0.0475  0.8020 -0.7243
  307MOL0     C42249   3.989   0.867   6.865 -0.5690 -0.0976  0.3987
  307MOL0     C42250   3.874   0.750   6.889 -0.3412  0.0645  1.0676
  307MOL0     C42251   3.820   0.679   6.750 -0.6152 -0.5990 -0.1261
  307MOL0     O42252   3.925   0.603   6.697 -1.1773  0.7673  0.0132
  307MOL0     C42253   3.943   0.473   6.735 -0.2516 -0.0675  0.0342
  307MOL0     C42254   4.012   0.391   6.640 -0.9912  0.3554  0.9088
  307MOL0     C42255   4.041   0.254   6.665 -0.3122 -0.9521  0.1517
  307MOL0     C42256   4.129   0.178   6.576  0.3507 -0.2065  0.0413
  307MOL0     C42257   3.988   0.195   6.783  0.7527 -0.2506  0.0136
  307MOL0     C42258   3.987   0.043   6.807  0.0790 -0.1922  0.1851
  307MOL0     O42259   3.985  -0.036   6.695 -0.3515  0.2494 -0.1367
  307MOL0     C42260   3.999  -0.168   6.708 -0.1123 -0.1936 -0.8485
  307MOL0     C42261   4.102  -0.233   6.786 -0.2326  0.6995 -0.1074
  307MOL0     C42262   4.105  -0.371   6.799  0.2189 -0.0581 -0.0764
  307MOL0     C42263   4.030  -0.454   6.722 -0.2663  0.0916 -0.6768
  307MOL0     O42264   4.027  -0.593   6.718  0.0457 -0.6081 -0.5749
  307MOL0     C42265   4.093  -0.664   6.828  0.1017 -0.9130  0.2954
  307MOL0     C42266   4.070  -0.817   6.822  0.3189 -0.2297  0.5065
  307MOL0     C42267   4.167  -0.878   6.718  0.2369 -0.0480 -0.9215
  307MOL0     C42268   4.180  -1.035   6.725 -0.4562  0.6124  0.3888
  307MOL0     C42269   4.207  -1.090   6.586  0.3829 -0.0715 -0.4875
  307MOL0     C42270   4.339  -1.060   6.526  1.4448  0.1551  0.4485
  307MOL0     C42271   4.449  -1.157   6.572 -0.1787 -0.2061 -0.4134
  307MOL0     C42272   4.588  -1.106   6.529 -0.8930 -0.8984 -0.4472
  307MOL0    Cl42273   4.619  -1.087   6.360 -0.1388 -0.2787  0.4664
  307MOL0     C42274   3.937  -0.399   6.631  0.3729  0.3352 -0.6612
  307MOL0     C42275   3.925  -0.259   6.624  0.2145 -0.5638 -0.2547
  307MOL0     O42276   3.962  -0.008   6.916  0.0486 -0.5679  0.0475
  307MOL0     C42277   3.913   0.278   6.873  0.4597 -0.6326 -0.8520
  307MOL0     C42278   3.892   0.408   6.841 -0.6769 -0.7214  0.4479
  307MOL0     N42279   4.085   1.079   7.147 -0.2952 -0.2690 -0.2750
  307MOL0     N42280   3.990   1.148   7.203 -0.9085  0.3535 -0.0685
  307MOL0     C42281   3.159   0.372   7.467 -0.1405  0.0760 -0.6291
  307MOL0     C42282   3.037   0.300   7.480 -1.0700 -0.2636  1.0319
  307MOL0     C42283   2.576   0.276   7.505  0.4343 -0.1172 -0.0912
  307MOL0     C42284   2.489   0.340   7.602  0.0638 -0.5393  0.7642
  307MOL0     C42285   2.356   0.340   7.590 -0.6082  0.1477 -0.4479
  307MOL0     C42286   2.300   0.246   7.499  0.4578 -0.2724  0.3871
  307MOL0     O42287   2.168   0.223   7.473  0.2185  0.0289 -0.2288
  307MOL0     C42288   2.074   0.270   7.573  0.3057 -0.0240 -0.0620
  307MOL0     C42289   2.016   0.144   7.639 -0.2941  0.0390 -0.7548
  307MOL0     C42290   2.109   0.052   7.728  0.3327 -0.0887 -0.0879
  307MOL0     C42291   2.183  -0.051   7.651 -0.2737  0.0022  0.6485
  307MOL0     C42292   2.091  -0.136   7.579  0.3579  0.3740 -0.0871
  307MOL0     C42293   2.021  -0.207   7.515 -0.6871 -0.1470 -0.4797
  307MOL0     C42294   2.369   0.163   7.418  0.3588 -0.0705 -0.4797
  307MOL0     C42295   2.514   0.189   7.414  0.4871  0.2640  0.7921
  307MOL0     C42296   2.588   0.100   7.321  0.8657 -0.8532  0.6488
  307MOL0     H42297   2.846   0.480   7.261 -2.3840 -0.5637  0.5559
  307MOL0     H42298   3.065   0.612   7.261 -0.2443  0.2703 -0.1522
  307MOL0     H42299   3.468   0.596   7.402 -0.0742 -1.7207 -0.8915
  307MOL0     H42300   3.397   0.471   7.511 -0.0481  0.5161  1.6334
  307MOL0     H42301   3.226   0.645   7.582 -0.3214  1.3757  0.4365
  307MOL0     H42302   3.389   0.660   7.641  2.6510  2.0959 -0.9713
  307MOL0     H42303   3.293   0.795   7.376 -1.8412  1.4814 -0.7696
  307MOL0     H42304   3.232   0.869   7.519  0.6644  2.2955  0.2132
  307MOL0     H42305   3.413   0.991   7.425  2.0785 -0.6453 -1.1797
  307MOL0     H42306   3.457   0.931   7.599  3.4941 -1.4209  0.1858
  307MOL0     H42307   3.525   0.797   7.332 -3.0188 -0.5121 -0.0748
  307MOL0     H42308   3.595   0.764   7.494  4.8829  0.6743 -0.7935
  307MOL0     H42309   3.725   0.980   7.487 -0.8987 -0.1315  1.1552
  307MOL0     H42310   3.750   0.851   7.376  3.4722  1.7046  3.2248
  307MOL0     H42311   3.570   1.090   7.311  1.1965  0.5907  1.0947
  307MOL0     H42312   3.618   0.967   7.191  5.2373 -0.5936 -2.0546
  307MOL0     H42313   3.714   1.183   7.168  1.2877  0.0337 -0.5404
  307MOL0     H42314   3.759   1.196   7.342  0.8479 -1.5274  0.0916
  307MOL0     H42315   3.817   0.887   7.122 -1.6431  0.7471  0.2009
  307MOL0     H42316   4.110   0.779   7.036  0.2334  1.4972  0.6313
  307MOL0     H42317   4.171   0.927   6.956 -0.0892  0.5493 -1.2170
  307MOL0     H42318   3.935   0.961   6.855 -1.4359 -0.5243  0.9656
  307MOL0     H42319   4.052   0.851   6.777  0.2340  0.7044  0.8103
  307MOL0     H42320   3.901   0.672   6.961 -1.1222 -0.1504  1.1310
  307MOL0     H42321   3.792   0.805   6.935 -1.6340 -1.2897  0.4672
  307MOL0     H42322   3.730   0.621   6.772 -1.3203  0.6315  0.3213
  307MOL0     H42323   3.789   0.759   6.682  1.5269  0.8424  0.4757
  307MOL0     H42324   4.056   0.430   6.548  1.4439 -1.4736  1.2119
  307MOL0     H42325   4.213   0.142   6.636 -0.2735  0.0452  1.0906
  307MOL0     H42326   4.171   0.246   6.502  2.5942 -0.1082  1.2958
  307MOL0     H42327   4.083   0.097   6.519  1.8034 -1.4521  0.5893
  307MOL0     H42328   4.169  -0.173   6.846 -0.8353  0.2646  1.0314
  307MOL0     H42329   4.177  -0.398   6.875  2.5947  0.8018 -1.8997
  307MOL0     H42330   4.200  -0.642   6.825  0.3259 -2.0707 -0.7632
  307MOL0     H42331   4.053  -0.628   6.924  1.7177  0.5913  0.4688
  307MOL0     H42332   4.094  -0.864   6.918 -0.3195  1.6607  1.6313
  307MOL0     H42333   3.968  -0.831   6.786  0.3279  2.4957 -0.8023
  307MOL0     H42334   4.264  -0.828   6.720  0.0871  0.2588  1.1574
  307MOL0     H42335   4.135  -0.844   6.619  3.1658 -1.1869 -2.3798
  307MOL0     H42336   4.086  -1.070   6.768 -0.0448  0.5630  1.2770
  307MOL0     H42337   4.267  -1.059   6.787 -0.9833 -1.0008  0.5511
  307MOL0     H42338   4.194  -1.198   6.580  1.4025 -0.2681  0.4812
  307MOL0     H42339   4.139  -1.046   6.513 -0.3520  0.5109  0.5194
  307MOL0     H42340   4.361  -0.954   6.544  0.7871  0.3143  0.3531
  307MOL0     H42341   4.338  -1.066   6.417  1.1380  3.9550  0.1139
  307MOL0     H42342   4.435  -1.253   6.522  2.0345 -0.6754 -0.2255
  307MOL0     H42343   4.453  -1.154   6.681  0.3769  3.9877 -0.3909
  307MOL0     H42344   4.668  -1.165   6.573  0.4502  0.7684 -0.5470
  307MOL0     H42345   4.602  -1.008   6.575 -0.8320 -0.8005 -0.6719
  307MOL0     H42346   3.877  -0.456   6.561  0.4200 -1.7749  0.9333
  307MOL0     H42347   3.855  -0.205   6.560  3.0600  1.9312 -1.4859
  307MOL0     H42348   3.872   0.236   6.964  1.1141 -0.3703 -0.4303
  307MOL0     H42349   3.848   0.477   6.912 -1.2330 -2.1996  1.5971
  307MOL0     H42350   3.246   0.334   7.520 -0.0369  1.6583  0.4045
  307MOL0     H42351   3.021   0.217   7.547 -2.9719  0.4258  1.5110
  307MOL0     H42352   2.523   0.415   7.672 -0.8677 -1.1736  1.9225
  307MOL0     H42353   2.303   0.398   7.665  0.4687 -0.4260  0.8001
  307MOL0     H42354   2.117   0.322   7.659 -1.3241  0.7500  0.3212
  307MOL0     H42355   1.993   0.332   7.533  1.4095  1.0537 -0.6794
  307MOL0     H42356   1.972   0.077   7.565 -0.7942 -1.3170  0.6975
  307MOL0     H42357   1.935   0.182   7.702  0.0273 -0.6293  0.0796
  307MOL0     H42358   2.186   0.119   7.768  2.0801 -0.7700 -2.1162
  307MOL0     H42359   2.050   0.007   7.808 -0.8920  0.1656 -0.8320
  307MOL0     H42360   2.245  -0.111   7.718  0.3287 -0.6861 -0.5019
  307MOL0     H42361   2.250  -0.007   7.576 -0.8980 -1.3815 -0.7772
  307MOL0     H42362   1.948  -0.271   7.470  2.3094 -2.3942 -2.4764
  307MOL0     H42363   2.330   0.091   7.348  4.1583 -3.0360  0.1328
  307MOL0     H42364   2.519   0.032   7.269  2.0177  0.0426 -2.2934
  307MOL0     H42365   2.640   0.153   7.241  2.5684 -2.3499  0.7176
  307MOL0     H42366   2.663   0.038   7.369  0.5106  0.9023  3.7605
  308MOL0     O42367   3.424  10.946   2.202  0.3009  0.2918 -0.5680
  308MOL0     C42368   3.302  10.914   2.201  0.1584 -0.3677  0.6029
  308MOL0     O42369   3.239  10.837   2.108 -0.5647  0.3439  0.7590
  308MOL0     C42370   3.319  10.776   2.009  0.2910  0.0155  0.1958
  308MOL0     C42371   3.266  10.774   1.876 -0.6554  0.3668  0.1246
  308MOL0     C42372   3.329  10.701   1.778 -1.0701 -1.0393  0.8326
  308MOL0     C42373   3.438  10.620   1.811 -0.4411 -0.5832 -0.1328
  308MOL0     O42374   3.488  10.538   1.715 -0.1647 -0.2956  0.5186
  308MOL0     C42375   3.391  10.450   1.651  0.1117 -0.0135  0.8886
  308MOL0     C42376   3.473  10.353   1.564  0.2163  0.4767  0.0918
  308MOL0     C42377   3.565  10.418   1.465  0.2963 -0.3218  0.1655
  308MOL0     C42378   3.671  10.332   1.402 -0.4924 -0.1211 -0.3836
  308MOL0     C42379   3.618  10.211   1.328 -0.1187  0.4132 -0.4344
  308MOL0     C42380   3.609  10.081   1.417  0.7846 -0.5210  0.1085
  308MOL0     C42381   3.570   9.959   1.327 -0.5302  0.1286 -0.1056
  308MOL0     C42382   3.572   9.827   1.407 -0.4427  0.2841 -0.1557
  308MOL0     N42383   3.499   9.841   1.532 -0.0564 -0.4147  0.3764
  308MOL0     C42384   3.361   9.835   1.536  0.8199 -0.0763 -0.4948
  308MOL0     C42385   3.320   9.897   1.648 -0.2417  0.3481  0.0242
  308MOL0     C42386   3.182   9.878   1.697  0.2209 -0.4064 -0.0781
  308MOL0     C42387   3.070   9.960   1.621  0.4222 -0.4847  0.4484
  308MOL0     C42388   3.104  10.114   1.635 -0.0857 -0.6148 -0.4366
  308MOL0     C42389   2.998  10.201   1.557 -0.3431  0.5180 -0.6258
  308MOL0     O42390   3.044  10.332   1.529 -0.1447  0.4586  0.3946
  308MOL0     C42391   2.968  10.408   1.442  0.3867  0.3727  0.4133
  308MOL0     C42392   2.838  10.375   1.395  0.5390  0.2913  0.2506
  308MOL0     C42393   2.771  10.460   1.300 -0.4860 -0.5201  0.2216
  308MOL0     C42394   2.642  10.403   1.253  1.0622  0.8621  0.9594
  308MOL0     C42395   2.836  10.574   1.252  0.4793 -0.4441 -0.1298
  308MOL0     C42396   2.766  10.668   1.165  0.1775  0.7690  0.2540
  308MOL0     O42397   2.628  10.683   1.180 -1.0139 -0.2365 -0.0634
  308MOL0     C42398   2.575  10.809   1.155  0.3529  0.3008 -0.1786
  308MOL0     C42399   2.638  10.931   1.197  0.8326  0.1110 -1.0380
  308MOL0     C42400   2.564  11.047   1.187 -0.5735  0.8681 -0.4130
  308MOL0     C42401   2.438  11.062   1.123  0.2377  0.3340  0.5049
  308MOL0     O42402   2.365  11.185   1.105  0.1406  0.0972  0.4248
  308MOL0     C42403   2.375  11.288   1.211 -0.6450  0.1537 -0.9844
  308MOL0     C42404   2.236  11.341   1.237  0.6077  0.6842 -0.6643
  308MOL0     C42405   2.118  11.250   1.268  0.1330  1.0345 -0.8527
  308MOL0     C42406   2.139  11.196   1.407  0.0762 -0.4929  0.4117
  308MOL0     C42407   2.028  11.113   1.465  0.6908 -0.0334 -0.0573
  308MOL0     C42408   1.919  11.186   1.557  0.3220 -0.2541  0.0869
  308MOL0     C42409   1.975  11.203   1.702  0.7608 -1.0786  0.0435
  308MOL0     C42410   1.992  11.078   1.784 -0.3045 -0.2499 -0.3822
  308MOL0    Cl42411   1.828  10.990   1.809  0.1854 -0.0971 -0.0918
  308MOL0     C42412   2.389  10.944   1.065  0.6181 -0.1529 -0.3995
  308MOL0     C42413   2.453  10.820   1.090  0.1066 -0.1645 -0.1803
  308MOL0     O42414   2.833  10.730   1.085 -0.4788 -0.0157 -0.0262
  308MOL0     C42415   2.957  10.614   1.314 -0.9024  0.1501 -0.0083
  308MOL0     C42416   3.029  10.533   1.404 -0.0559  0.6041 -0.0584
  308MOL0     N42417   3.433   9.940   1.720  0.0334 -0.2797  0.2458
  308MOL0     N42418   3.534   9.912   1.649 -0.4709  0.0898  0.0035
  308MOL0     C42419   3.496  10.624   1.936  0.4320 -0.2516 -0.8218
  308MOL0     C42420   3.433  10.697   2.035 -0.4527  0.1667 -1.7419
  308MOL0     C42421   3.222  10.973   2.306 -0.4338  0.2008 -0.7837
  308MOL0     C42422   3.179  10.883   2.399 -0.1291  1.6928 -0.1243
  308MOL0     C42423   3.095  10.931   2.504  0.0977 -0.5874 -0.7420
  308MOL0     C42424   3.075  11.068   2.525  0.0586  0.0858  0.2881
  308MOL0     O42425   2.993  11.112   2.626  0.1042  0.2820 -0.0158
  308MOL0     C42426   2.947  11.250   2.637  0.3162  0.5045 -0.7630
  308MOL0     C42427   2.879  11.275   2.774 -0.4755  0.1940  0.6912
  308MOL0     C42428   2.864  11.420   2.808 -0.2251  0.3535  0.7975
  308MOL0     C42429   2.777  11.444   2.926  0.0111  0.1120 -0.3129
  308MOL0     C42430   2.770  11.586   2.956 -0.1461  0.5467  0.0637
  308MOL0     C42431   2.751  11.709   2.968 -0.1890  0.3399  0.3658
  308MOL0     C42432   3.131  11.158   2.436  0.3626 -1.5295  0.0683
  308MOL0     C42433   3.197  11.117   2.314  0.4223  0.5018  0.7676
  308MOL0     C42434   3.221  11.216   2.204 -0.0219 -0.3364 -0.3441
  308MOL0     H42435   3.175  10.823   1.841 -2.2067 -1.2442  1.6770
  308MOL0     H42436   3.276  10.700   1.683 -1.4892 -0.6435  1.0532
  308MOL0     H42437   3.321  10.504   1.587 -1.2217 -3.1795 -0.5687
  308MOL0     H42438   3.326  10.395   1.719 -2.8632 -1.6590 -2.8834
  308MOL0     H42439   3.525  10.286   1.632  0.9952  1.9909  1.0444
  308MOL0     H42440   3.407  10.290   1.504  1.5120 -0.0762 -0.8030
  308MOL0     H42441   3.501  10.473   1.396 -2.4325 -2.0544  1.1459
  308MOL0     H42442   3.619  10.495   1.521  0.8727 -1.4923  1.2785
  308MOL0     H42443   3.726  10.395   1.332 -2.8984  0.4742 -1.8755
  308MOL0     H42444   3.739  10.302   1.482  1.6205 -0.4104 -2.1978
  308MOL0     H42445   3.673  10.197   1.235 -3.2710  0.0403 -2.4096
  308MOL0     H42446   3.516  10.232   1.293  0.3420  1.3842 -1.2248
  308MOL0     H42447   3.708  10.063   1.459  0.5861 -2.0993 -0.0363
  308MOL0     H42448   3.536  10.102   1.496  1.1476  2.3147 -0.2261
  308MOL0     H42449   3.636   9.947   1.241 -0.7997  2.3446 -0.6840
  308MOL0     H42450   3.473   9.969   1.278 -1.2134  0.5492  1.2793
  308MOL0     H42451   3.540   9.745   1.343  0.7744 -0.6886  0.4538
  308MOL0     H42452   3.678   9.806   1.422 -0.3112  1.3576  0.5630
  308MOL0     H42453   3.292   9.785   1.469 -0.8113  0.3807  0.7781
  308MOL0     H42454   3.185   9.894   1.805 -1.8078 -0.2889 -0.0071
  308MOL0     H42455   3.159   9.772   1.684 -0.5826 -0.1607 -0.7741
  308MOL0     H42456   3.059   9.932   1.516 -2.7991 -1.8614  1.0289
  308MOL0     H42457   2.976   9.938   1.673  0.3281  0.2959  0.6150
  308MOL0     H42458   3.109  10.145   1.740 -2.4697  2.5095 -1.0819
  308MOL0     H42459   3.200  10.132   1.584 -1.6694  2.6201 -2.6851
  308MOL0     H42460   2.970  10.141   1.471  0.3022 -2.0891  0.8590
  308MOL0     H42461   2.903  10.204   1.611 -1.3159 -2.3738 -1.9752
  308MOL0     H42462   2.791  10.283   1.428  0.1218 -0.1338 -1.4011
  308MOL0     H42463   2.632  10.298   1.280  1.3470  0.9803  1.5335
  308MOL0     H42464   2.627  10.414   1.145  0.9159 -2.3248  0.5600
  308MOL0     H42465   2.566  10.445   1.320 -0.4580  0.6387 -0.5417
  308MOL0     H42466   2.735  10.930   1.247  1.2463  0.7527 -1.8088
  308MOL0     H42467   2.595  11.143   1.226  0.8916 -0.4225  1.8364
  308MOL0     H42468   2.416  11.250   1.306  2.1983 -1.1864 -2.6335
  308MOL0     H42469   2.430  11.370   1.164 -0.9626 -0.0500 -1.7214
  308MOL0     H42470   2.236  11.412   1.320  3.5695 -1.7158  1.6058
  308MOL0     H42471   2.217  11.389   1.140  0.2048  0.5429 -0.6589
  308MOL0     H42472   2.106  11.169   1.196  3.6865  1.6198 -2.3258
  308MOL0     H42473   2.028  11.313   1.263 -0.4528  0.4568  1.1677
  308MOL0     H42474   2.140  11.282   1.474 -2.3445 -0.0775  0.0215
  308MOL0     H42475   2.231  11.137   1.413  0.3413 -0.0039  1.2290
  308MOL0     H42476   1.976  11.052   1.390  0.5680  0.1826 -0.1471
  308MOL0     H42477   2.061  11.035   1.534  0.6430  0.1461  0.1681
  308MOL0     H42478   1.826  11.130   1.561  1.5388 -2.5580 -1.6165
  308MOL0     H42479   1.902  11.290   1.525 -1.0167 -0.8165 -1.1313
  308MOL0     H42480   1.900  11.257   1.761  1.7003 -1.1556  1.3353
  308MOL0     H42481   2.062  11.268   1.694  0.1502  0.0706  2.0691
  308MOL0     H42482   2.025  11.103   1.885 -1.4220 -1.1565  0.2394
  308MOL0     H42483   2.072  11.016   1.744  1.7048  1.7076  0.4346
  308MOL0     H42484   2.296  10.954   1.011 -1.8589 -3.1102  2.8871
  308MOL0     H42485   2.396  10.732   1.063 -3.8292  2.4166 -1.1129
  308MOL0     H42486   2.999  10.707   1.278  0.7125 -0.3215  0.6038
  308MOL0     H42487   3.133  10.551   1.429  0.5925 -1.8843 -0.6415
  308MOL0     H42488   3.569  10.550   1.968  2.0097  1.6471  0.1439
  308MOL0     H42489   3.487  10.699   2.130 -0.1682  1.5297 -1.9136
  308MOL0     H42490   3.213  10.780   2.399  0.2124  1.7772  1.3649
  308MOL0     H42491   3.070  10.865   2.586  1.9738  2.9475  3.0750
  308MOL0     H42492   3.034  11.318   2.639  1.1554 -0.5535  0.5714
  308MOL0     H42493   2.873  11.274   2.560  1.7093 -1.0805 -2.6961
  308MOL0     H42494   2.946  11.230   2.847  2.1459  0.9603 -1.1096
  308MOL0     H42495   2.780  11.229   2.780 -0.0426 -0.7202  0.9893
  308MOL0     H42496   2.962  11.466   2.819  0.5362 -0.7328 -1.0457
  308MOL0     H42497   2.823  11.477   2.724 -0.2297  0.6434  0.9948
  308MOL0     H42498   2.830  11.391   3.006  1.3941 -1.3635 -2.1258
  308MOL0     H42499   2.676  11.402   2.917  0.1464 -0.3219  0.1680
  308MOL0     H42500   2.716  11.810   2.973  0.0911  0.4591 -0.0419
  308MOL0     H42501   3.100  11.261   2.442 -0.4734 -1.7148 -0.6733
  308MOL0     H42502   3.174  11.178   2.112 -0.4094  3.2592 -1.8308
  308MOL0     H42503   3.173  11.313   2.221  0.8484  0.3825 -1.7215
  308MOL0     H42504   3.324  11.244   2.181  1.5356 -3.1272  2.5574
  309MOL0     O42505   3.584   2.560   6.518 -1.2825  0.0218 -0.2269
  309MOL0     C42506   3.577   2.491   6.621 -0.2250 -0.3940  0.6857
  309MOL0     O42507   3.682   2.413   6.672 -0.0074  0.1431 -0.7596
  309MOL0     C42508   3.795   2.407   6.592 -0.3107  0.0536 -0.6695
  309MOL0     C42509   3.873   2.517   6.571 -0.5310  1.3569 -0.4445
  309MOL0     C42510   3.983   2.514   6.497  0.5009 -0.0098  0.6322
  309MOL0     C42511   4.026   2.392   6.449  0.4405  0.2297  0.5687
  309MOL0     O42512   4.136   2.386   6.372 -0.4596 -0.0142  0.6360
  309MOL0     C42513   4.158   2.495   6.268  0.1140  0.6297  0.1261
  309MOL0     C42514   4.245   2.452   6.148 -0.8693  0.4443  0.8211
  309MOL0     C42515   4.381   2.390   6.189 -0.0420  0.3198 -0.1247
  309MOL0     C42516   4.469   2.497   6.253  0.2013 -0.1126 -0.0269
  309MOL0     C42517   4.606   2.437   6.279  0.2133 -0.0260  0.2186
  309MOL0     C42518   4.697   2.546   6.334 -0.3784 -0.8733  0.0441
  309MOL0     C42519   4.839   2.502   6.327 -0.2567  0.2668 -1.1808
  309MOL0     C42520   4.890   2.505   6.188  0.0168 -0.4542  0.5059
  309MOL0     N42521   5.034   2.538   6.180 -0.4571 -0.6444 -0.2278
  309MOL0     C42522   5.097   2.571   6.064  0.5759  0.7816 -0.0962
  309MOL0     C42523   5.227   2.602   6.102  0.3675 -0.2117  0.4434
  309MOL0     C42524   5.337   2.641   6.005  0.5108 -0.7480 -0.5684
  309MOL0     C42525   5.449   2.735   6.048  0.1841  0.2912 -0.0760
  309MOL0     C42526   5.569   2.657   6.113  0.7430  0.1587  0.6337
  309MOL0     C42527   5.660   2.750   6.181 -0.8899 -0.0335 -0.1587
  309MOL0     O42528   5.758   2.677   6.259 -0.8449 -0.0597  0.2894
  309MOL0     C42529   5.876   2.733   6.289 -0.3694  0.0708  0.6227
  309MOL0     C42530   5.969   2.653   6.354  0.0191 -0.2567 -0.0034
  309MOL0     C42531   6.088   2.703   6.406  0.6356  0.3342  0.3280
  309MOL0     C42532   6.169   2.606   6.486  1.1891  0.3223 -0.1753
  309MOL0     C42533   6.122   2.837   6.401  0.3930  0.1578 -0.9384
  309MOL0     C42534   6.255   2.895   6.435  0.1329 -0.0409 -1.3266
  309MOL0     O42535   6.369   2.818   6.465 -0.2330  0.5820 -0.3808
  309MOL0     C42536   6.487   2.878   6.505  0.4943 -0.4374  0.6619
  309MOL0     C42537   6.571   2.945   6.413 -0.0334  0.1525 -1.2134
  309MOL0     C42538   6.691   2.994   6.454  1.6389 -0.1106  0.3964
  309MOL0     C42539   6.739   2.975   6.583 -0.1564 -0.1216  0.2220
  309MOL0     O42540   6.864   3.012   6.637  0.2943  0.5665  0.9333
  309MOL0     C42541   6.958   3.070   6.545 -0.4267  0.2995  0.2839
  309MOL0     C42542   7.090   3.101   6.614 -0.1010 -0.8241  0.4240
  309MOL0     C42543   7.171   2.971   6.617 -0.8406 -0.3301  1.0102
  309MOL0     C42544   7.312   3.003   6.666 -0.2577 -0.1526  0.0671
  309MOL0     C42545   7.321   3.018   6.821  0.4317  0.1858  0.3604
  309MOL0     C42546   7.462   3.033   6.881  0.3105 -0.5970 -0.0769
  309MOL0     C42547   7.458   3.063   7.031  0.2149 -0.3624  0.3785
  309MOL0     C42548   7.394   2.947   7.115  0.0433 -0.1710  0.1834
  309MOL0    Cl42549   7.522   2.814   7.112  0.1475 -0.6418  0.1432
  309MOL0     C42550   6.652   2.915   6.675 -0.6446  0.7044  0.3262
  309MOL0     C42551   6.526   2.862   6.639 -0.4060  0.1659  0.9644
  309MOL0     O42552   6.259   3.020   6.446 -0.2386 -0.3447  0.4153
  309MOL0     C42553   6.021   2.919   6.344  0.1647 -0.8448 -0.1355
  309MOL0     C42554   5.906   2.871   6.281  0.2963  0.0280  0.6526
  309MOL0     N42555   5.244   2.566   6.234  0.2364 -0.7552 -0.0979
  309MOL0     N42556   5.127   2.536   6.288 -0.7526  0.0456 -0.3067
  309MOL0     C42557   3.967   2.274   6.480  0.0878 -0.9253 -0.9844
  309MOL0     C42558   3.849   2.280   6.550 -0.4641  0.7540 -1.2349
  309MOL0     C42559   3.459   2.518   6.703 -0.3332 -0.1675  0.1652
  309MOL0     C42560   3.468   2.454   6.829  0.3210  0.8808 -0.4246
  309MOL0     C42561   3.360   2.461   6.920 -0.3847  0.3211  0.4201
  309MOL0     C42562   3.240   2.525   6.880 -0.3614 -0.5081  0.5085
  309MOL0     O42563   3.128   2.509   6.963  0.1186  0.6195  0.2070
  309MOL0     C42564   3.130   2.491   7.103 -0.5925 -0.4390 -0.0012
  309MOL0     C42565   3.193   2.611   7.175  0.9056 -0.2790  0.1042
  309MOL0     C42566   3.105   2.744   7.146 -0.2266  0.7057 -0.8788
  309MOL0     C42567   3.210   2.867   7.134  0.5214 -0.3500 -0.0087
  309MOL0     C42568   3.134   2.997   7.128  0.0253  0.9241  0.0143
  309MOL0     C42569   3.098   3.111   7.134  0.3671 -0.2057  0.6762
  309MOL0     C42570   3.236   2.576   6.751 -0.4508 -0.0822  0.8179
  309MOL0     C42571   3.344   2.582   6.662  0.5393 -1.1032 -0.0543
  309MOL0     C42572   3.318   2.674   6.540  0.4987  0.2959  0.4412
  309MOL0     H42573   3.829   2.615   6.586  0.4444  1.7510 -0.0446
  309MOL0     H42574   4.039   2.605   6.478 -2.3494  1.8367  0.5883
  309MOL0     H42575   4.202   2.584   6.312  3.0486 -0.5578 -0.1821
  309MOL0     H42576   4.060   2.528   6.233  1.5162  3.9109 -1.0225
  309MOL0     H42577   4.186   2.388   6.083  1.6959 -1.7999  0.5429
  309MOL0     H42578   4.260   2.545   6.092 -1.4425 -1.2968 -2.4208
  309MOL0     H42579   4.367   2.301   6.250  0.7038 -0.5904 -1.2448
  309MOL0     H42580   4.430   2.350   6.100  4.1935  2.0020  1.2128
  309MOL0     H42581   4.473   2.587   6.190  2.2924  0.8848  1.3953
  309MOL0     H42582   4.433   2.538   6.348 -0.4435  1.1743 -0.7885
  309MOL0     H42583   4.644   2.402   6.182  0.0734 -1.5244  0.6770
  309MOL0     H42584   4.607   2.350   6.344  0.8075 -0.1954 -0.0143
  309MOL0     H42585   4.672   2.634   6.275  1.9254  0.4434  0.9269
  309MOL0     H42586   4.673   2.572   6.437  0.1390 -0.3210  0.0248
  309MOL0     H42587   4.858   2.399   6.360 -1.2598  0.9552  1.8229
  309MOL0     H42588   4.886   2.568   6.399 -1.2828 -0.1847 -0.0576
  309MOL0     H42589   4.882   2.407   6.142  1.9510  0.3580 -1.7601
  309MOL0     H42590   4.842   2.579   6.123  0.7164 -1.0252 -0.6927
  309MOL0     H42591   5.047   2.557   5.969  0.4289  2.3276 -0.2737
  309MOL0     H42592   5.286   2.683   5.917  0.1863  0.0194 -0.0225
  309MOL0     H42593   5.391   2.549   5.980  1.4314 -0.1252 -0.8990
  309MOL0     H42594   5.478   2.783   5.954 -2.4814  2.6386  0.1875
  309MOL0     H42595   5.418   2.814   6.116  1.3731 -0.1909  1.0798
  309MOL0     H42596   5.526   2.585   6.183  0.5226  0.3716  0.7167
  309MOL0     H42597   5.617   2.603   6.031 -0.9602  0.7917 -0.8320
  309MOL0     H42598   5.715   2.805   6.104  3.3536 -2.6150  0.7474
  309MOL0     H42599   5.601   2.814   6.248 -0.2108 -0.6263  1.0327
  309MOL0     H42600   5.932   2.551   6.364 -1.2753  0.1519 -0.3596
  309MOL0     H42601   6.111   2.527   6.534 -1.0326  0.9518 -1.6655
  309MOL0     H42602   6.222   2.651   6.571 -0.6906  0.3382  1.0319
  309MOL0     H42603   6.241   2.559   6.418  3.1895  3.2237 -0.2841
  309MOL0     H42604   6.542   2.962   6.309 -1.2069  1.9334 -0.6358
  309MOL0     H42605   6.745   3.045   6.374  1.5894 -1.1544 -0.3149
  309MOL0     H42606   6.969   3.002   6.459 -1.2409 -1.2246  1.3288
  309MOL0     H42607   6.925   3.170   6.517  2.5267  0.7847 -1.9342
  309MOL0     H42608   7.147   3.179   6.562  2.5399  0.2524  4.4927
  309MOL0     H42609   7.078   3.148   6.712  3.2434  1.7527 -0.2257
  309MOL0     H42610   7.176   2.933   6.515 -3.1053  1.1680  0.2443
  309MOL0     H42611   7.125   2.903   6.689  2.2158 -0.9645  2.5386
  309MOL0     H42612   7.355   3.092   6.619 -1.1274  1.4089  2.0851
  309MOL0     H42613   7.376   2.916   6.645 -1.5419 -1.0902 -0.1177
  309MOL0     H42614   7.264   3.107   6.848  1.0688  1.5748 -2.4410
  309MOL0     H42615   7.276   2.926   6.861  0.0981 -0.1571 -0.7642
  309MOL0     H42616   7.518   3.112   6.830 -0.3802  0.7793  1.2148
  309MOL0     H42617   7.515   2.939   6.864  1.2734 -0.5887  2.4510
  309MOL0     H42618   7.405   3.157   7.051 -1.2526 -0.8920 -0.8693
  309MOL0     H42619   7.560   3.090   7.061  0.2567  2.8701 -2.1689
  309MOL0     H42620   7.299   2.922   7.068  0.8640 -1.2859 -0.9705
  309MOL0     H42621   7.376   2.985   7.216  1.5335  1.8471 -0.2463
  309MOL0     H42622   6.689   2.898   6.776  2.5465  0.4595 -0.7532
  309MOL0     H42623   6.454   2.813   6.704 -1.9466 -1.1011 -1.5480
  309MOL0     H42624   6.043   3.023   6.324  0.2363 -1.0306 -1.0429
  309MOL0     H42625   5.859   2.947   6.219 -0.7255 -2.2182 -1.5014
  309MOL0     H42626   4.032   2.192   6.450  0.6402 -0.1901 -1.8463
  309MOL0     H42627   3.791   2.190   6.570 -0.8281  1.0436 -0.9610
  309MOL0     H42628   3.550   2.391   6.860 -0.6148  0.4187  1.2489
  309MOL0     H42629   3.352   2.411   7.016 -1.6868  0.4178  0.3790
  309MOL0     H42630   3.037   2.477   7.157 -0.6469  2.4525  0.8455
  309MOL0     H42631   3.198   2.411   7.134  2.5421  2.1508  0.4257
  309MOL0     H42632   3.287   2.628   7.122  0.0446  1.0004 -1.1027
  309MOL0     H42633   3.193   2.578   7.279 -2.3393 -3.7176 -0.7658
  309MOL0     H42634   3.046   2.732   7.055 -0.5471  0.6224 -0.6614
  309MOL0     H42635   3.040   2.761   7.232  2.6272  1.1699  1.3220
  309MOL0     H42636   3.270   2.855   7.043  1.1430 -0.5587  0.4296
  309MOL0     H42637   3.275   2.884   7.220  2.3797  0.9067 -1.5592
  309MOL0     H42638   3.058   3.209   7.151  0.9332  0.0466  0.5504
  309MOL0     H42639   3.138   2.606   6.715  0.0911  0.0116 -0.6472
  309MOL0     H42640   3.403   2.743   6.530  1.9502 -1.4522  0.2453
  309MOL0     H42641   3.308   2.605   6.456  1.1247 -2.7522  2.6850
  309MOL0     H42642   3.226   2.730   6.559 -0.2403 -0.9995  0.8051
  310MOL0     O42643   2.603   7.925   4.684 -0.2162 -0.3404 -0.0307
  310MOL0     C42644   2.670   7.834   4.618  0.3031  0.3812 -0.2474
  310MOL0     O42645   2.619   7.717   4.577 -0.2963 -0.1017 -0.4791
  310MOL0     C42646   2.486   7.701   4.547 -0.5494  0.8915 -0.1851
  310MOL0     C42647   2.390   7.681   4.648 -0.9584 -0.4218  0.4349
  310MOL0     C42648   2.252   7.678   4.623  0.4397  0.6165 -0.9507
  310MOL0     C42649   2.213   7.653   4.488 -0.4707  0.0910 -0.5706
  310MOL0     O42650   2.087   7.629   4.451  0.3252 -0.0240 -0.7092
  310MOL0     C42651   1.992   7.595   4.552 -0.7600 -0.1010  0.0512
  310MOL0     C42652   1.852   7.548   4.491 -1.2417  0.4073  0.3588
  310MOL0     C42653   1.760   7.489   4.602 -0.4643  0.5592 -0.8409
  310MOL0     C42654   1.620   7.440   4.545  0.8248 -0.0104  0.7114
  310MOL0     C42655   1.512   7.399   4.643 -0.6166  0.4725 -0.8686
  310MOL0     C42656   1.382   7.345   4.581 -0.3812 -1.1530  0.0718
  310MOL0     C42657   1.258   7.407   4.638  0.0248 -0.6760  0.2404
  310MOL0     C42658   1.253   7.402   4.797 -0.1233  0.0705  0.2111
  310MOL0     N42659   1.125   7.452   4.837 -0.1083 -0.6291  0.4892
  310MOL0     C42660   1.005   7.392   4.842  0.9827  0.2578  0.6744
  310MOL0     C42661   0.913   7.489   4.878  0.1518 -0.0477  0.2711
  310MOL0     C42662   0.771   7.467   4.935 -0.2801  0.4967 -0.0464
  310MOL0     C42663   0.781   7.429   5.077  0.4443  0.1846  0.5948
  310MOL0     C42664   0.850   7.521   5.171 -0.4546  0.0522  0.3570
  310MOL0     C42665   0.823   7.480   5.322 -0.4404 -0.0053  0.1485
  310MOL0     O42666   0.888   7.566   5.420 -1.1025  0.4850 -0.9395
  310MOL0     C42667   1.022   7.571   5.432 -0.0251 -0.6151  1.1386
  310MOL0     C42668   1.118   7.484   5.382  0.2474  0.3269 -0.2194
  310MOL0     C42669   1.258   7.525   5.400 -0.6044  0.5018  0.4432
  310MOL0     C42670   1.358   7.417   5.367 -0.4145  0.9908 -0.0072
  310MOL0     C42671   1.300   7.654   5.456  0.1441  0.3346 -0.2915
  310MOL0     C42672   1.440   7.698   5.475 -0.0896  0.1504 -0.0234
  310MOL0     O42673   1.545   7.636   5.398  0.5394  0.1308  0.2731
  310MOL0     C42674   1.676   7.645   5.409 -0.2703 -0.3596 -0.1402
  310MOL0     C42675   1.750   7.531   5.377  0.4323  0.5936  1.0698
  310MOL0     C42676   1.890   7.544   5.370 -0.1392  1.2362  0.0959
  310MOL0     C42677   1.963   7.658   5.413 -0.3172  0.2368 -0.2311
  310MOL0     O42678   2.104   7.665   5.417 -0.7371 -0.3707  0.3871
  310MOL0     C42679   2.196   7.571   5.361 -0.0923 -0.3737  0.7548
  310MOL0     C42680   2.235   7.477   5.466  0.0312 -0.1785 -0.5401
  310MOL0     C42681   2.355   7.397   5.400  0.0470  0.2150 -0.2836
  310MOL0     C42682   2.321   7.270   5.317 -0.6075  0.5438 -0.0779
  310MOL0     C42683   2.454   7.235   5.246 -0.1385  0.3347  0.3811
  310MOL0     C42684   2.426   7.118   5.160 -0.0182  0.4415  1.6713
  310MOL0     C42685   2.544   7.087   5.068  0.1263  0.3726  0.7199
  310MOL0     C42686   2.660   7.005   5.120  0.3114 -0.6882 -0.3215
  310MOL0    Cl42687   2.747   6.934   4.980 -0.3288  0.4780  0.0643
  310MOL0     C42688   1.885   7.768   5.454  0.7309  0.4232  0.4920
  310MOL0     C42689   1.738   7.760   5.459 -1.1571 -0.1634  0.0050
  310MOL0     O42690   1.458   7.779   5.563  0.6839 -0.4663 -0.0505
  310MOL0     C42691   1.194   7.732   5.510 -0.1354 -0.5929  0.7967
  310MOL0     C42692   1.065   7.690   5.501  1.1185 -0.1843 -0.2144
  310MOL0     N42693   0.974   7.610   4.879  0.4989 -0.1719  0.7317
  310MOL0     N42694   1.099   7.583   4.848 -0.1744 -0.3046  0.1367
  310MOL0     C42695   2.316   7.653   4.392 -0.1167 -0.7959 -0.1380
  310MOL0     C42696   2.445   7.678   4.419  0.2992  0.2121  0.2942
  310MOL0     C42697   2.799   7.870   4.576 -0.2833 -1.0735  1.0347
  310MOL0     C42698   2.833   8.004   4.544  0.1258  0.0026  0.6533
  310MOL0     C42699   2.957   8.042   4.489 -0.2340  0.0116 -0.4716
  310MOL0     C42700   3.051   7.946   4.460  0.4012  0.5086 -0.2448
  310MOL0     O42701   3.174   7.978   4.401  1.0999 -0.4996 -0.1338
  310MOL0     C42702   3.273   7.880   4.380 -0.3682 -1.1937 -0.1310
  310MOL0     C42703   3.405   7.942   4.314  1.1720  1.0036  0.0925
  310MOL0     C42704   3.510   8.002   4.418  0.0789 -0.2953  0.1904
  310MOL0     C42705   3.652   7.999   4.360 -0.6347  0.0498  1.2260
  310MOL0     C42706   3.677   8.106   4.263 -0.0372 -0.2499 -0.0745
  310MOL0     C42707   3.701   8.201   4.186  0.3689  0.1447  0.1067
  310MOL0     C42708   3.016   7.816   4.482  0.6604 -0.7510 -0.7223
  310MOL0     C42709   2.901   7.772   4.550  0.3521 -0.1990  1.2392
  310MOL0     C42710   2.883   7.622   4.569  0.7049  0.9083 -0.1090
  310MOL0     H42711   2.436   7.691   4.746  1.2371  0.3714 -0.6105
  310MOL0     H42712   2.178   7.670   4.702 -0.0362  2.4939 -1.1521
  310MOL0     H42713   1.977   7.686   4.611 -3.1097 -0.2319 -0.2162
  310MOL0     H42714   2.037   7.514   4.609 -1.6116 -1.2081 -0.8077
  310MOL0     H42715   1.802   7.630   4.439  1.9602  1.5092 -1.2703
  310MOL0     H42716   1.877   7.475   4.414 -1.6145  4.0590 -3.5785
  310MOL0     H42717   1.801   7.402   4.654 -6.4652 -1.9328  0.5865
  310MOL0     H42718   1.749   7.561   4.683 -0.6845 -0.5219  0.1221
  310MOL0     H42719   1.575   7.523   4.489  4.2435  0.2332 -2.0291
  310MOL0     H42720   1.626   7.360   4.471 -1.3131  2.0802 -1.9307
  310MOL0     H42721   1.494   7.488   4.704 -3.4156 -1.8443  2.0604
  310MOL0     H42722   1.555   7.326   4.712 -1.5641 -0.5667 -1.3566
  310MOL0     H42723   1.385   7.355   4.472 -0.1129  1.6174  0.2550
  310MOL0     H42724   1.371   7.238   4.601 -1.0728 -1.3997 -1.4332
  310MOL0     H42725   1.169   7.362   4.592 -0.3552  0.5892 -0.3235
  310MOL0     H42726   1.249   7.512   4.609 -0.0943  0.3912  3.6510
  310MOL0     H42727   1.271   7.301   4.834 -0.2104 -0.5192 -1.2760
  310MOL0     H42728   1.330   7.467   4.839  1.1362 -1.8691  1.0342
  310MOL0     H42729   0.981   7.287   4.843  2.6671 -0.2008  3.5209
  310MOL0     H42730   0.739   7.381   4.876  0.5298  0.3442 -0.2788
  310MOL0     H42731   0.717   7.557   4.907 -0.7676 -0.3580 -1.9664
  310MOL0     H42732   0.679   7.407   5.109  0.6326 -2.2296 -0.2124
  310MOL0     H42733   0.826   7.330   5.092 -0.2745  0.1233  2.8038
  310MOL0     H42734   0.958   7.526   5.150 -0.6888  2.1558 -0.5768
  310MOL0     H42735   0.810   7.621   5.152 -4.4724 -1.7569 -1.7231
  310MOL0     H42736   0.717   7.473   5.351 -0.1378  1.9133  1.9198
  310MOL0     H42737   0.862   7.381   5.346  1.0283  0.4734 -0.1723
  310MOL0     H42738   1.087   7.396   5.327  1.2419 -2.0905  2.8535
  310MOL0     H42739   1.386   7.413   5.262 -2.9264 -1.2249 -0.7065
  310MOL0     H42740   1.302   7.324   5.380 -1.3862  1.6081  0.3537
  310MOL0     H42741   1.447   7.414   5.431  0.5512 -1.8501 -1.3214
  310MOL0     H42742   1.692   7.442   5.353 -1.8494  2.4091 -0.6403
  310MOL0     H42743   1.953   7.457   5.351 -0.2698  0.9269  1.0353
  310MOL0     H42744   2.161   7.526   5.267  0.0970  1.3169 -0.1727
  310MOL0     H42745   2.287   7.623   5.330 -0.0860 -2.1834 -2.7705
  310MOL0     H42746   2.264   7.520   5.562 -1.3267 -0.0667 -0.1674
  310MOL0     H42747   2.161   7.398   5.479  2.0259 -1.8774  1.2420
  310MOL0     H42748   2.411   7.354   5.484  1.6589  1.2110 -0.8004
  310MOL0     H42749   2.411   7.464   5.335  0.3556  0.9142  0.6695
  310MOL0     H42750   2.244   7.284   5.240  0.7664  1.4517 -1.3462
  310MOL0     H42751   2.293   7.189   5.385  2.0441 -1.7066 -1.4892
  310MOL0     H42752   2.486   7.309   5.172  0.0934 -2.0155 -2.0267
  310MOL0     H42753   2.530   7.198   5.316 -2.7513 -2.5369  1.9463
  310MOL0     H42754   2.344   7.130   5.088 -0.1889 -3.3803  0.9996
  310MOL0     H42755   2.403   7.038   5.230  2.2975 -1.8261  0.0274
  310MOL0     H42756   2.586   7.180   5.027 -2.1540  1.3899  0.5233
  310MOL0     H42757   2.508   7.021   4.989 -3.4021  2.6294  0.2297
  310MOL0     H42758   2.621   6.927   5.186  0.1214 -0.7476 -0.5013
  310MOL0     H42759   2.725   7.060   5.187 -1.2001 -3.0266  3.3550
  310MOL0     H42760   1.929   7.860   5.491 -0.7189  0.7106  1.5959
  310MOL0     H42761   1.672   7.843   5.481 -0.4079  1.2661 -2.7289
  310MOL0     H42762   1.224   7.827   5.553 -1.0659 -0.5729  1.4229
  310MOL0     H42763   0.991   7.762   5.537  0.1559 -0.5716 -1.3515
  310MOL0     H42764   2.293   7.645   4.287  1.9103 -0.1457 -0.6673
  310MOL0     H42765   2.517   7.686   4.338  1.2320  0.2424  1.1067
  310MOL0     H42766   2.756   8.078   4.563 -3.1049 -3.2114  1.3094
  310MOL0     H42767   2.973   8.149   4.473 -0.0256 -0.0646 -0.7870
  310MOL0     H42768   3.302   7.826   4.471  2.9867  0.3309 -0.1271
  310MOL0     H42769   3.236   7.806   4.309 -2.5620 -0.0941 -0.2010
  310MOL0     H42770   3.381   8.012   4.233  0.5546 -0.6467 -1.2306
  310MOL0     H42771   3.455   7.860   4.262  2.1967  1.5578  0.1861
  310MOL0     H42772   3.480   8.102   4.452  2.2889  1.2762 -2.0994
  310MOL0     H42773   3.509   7.942   4.509 -1.9782  1.5434  1.4796
  310MOL0     H42774   3.667   7.904   4.308 -1.4058  1.3096 -1.4713
  310MOL0     H42775   3.726   8.005   4.439  1.9996  1.6043 -1.1842
  310MOL0     H42776   3.707   8.289   4.124 -1.8802  0.9112  0.8804
  310MOL0     H42777   3.086   7.743   4.442  0.0320 -2.5183  1.2216
  310MOL0     H42778   2.816   7.578   4.494  2.1471  0.0830 -0.9710
  310MOL0     H42779   2.978   7.568   4.568  0.3469  0.2533 -0.0309
  310MOL0     H42780   2.842   7.603   4.669 -0.5018 -2.7565 -1.1076
  311MOL0     O42781   8.962   6.984   3.998  1.2160  0.3995  0.2291
  311MOL0     C42782   8.952   6.874   3.941 -0.0120  0.3192  0.3561
  311MOL0     O42783   9.058   6.819   3.867 -0.0714  0.5742  0.3681
  311MOL0     C42784   9.167   6.897   3.838  0.3483  0.4516 -0.2191
  311MOL0     C42785   9.186   6.938   3.704  0.4466 -0.0641  0.7624
  311MOL0     C42786   9.311   6.993   3.669 -0.4364 -0.3786 -0.6705
  311MOL0     C42787   9.416   7.010   3.760  0.2415  0.0414 -0.6108
  311MOL0     O42788   9.530   7.070   3.714  0.8122  0.3004 -0.0424
  311MOL0     C42789   9.658   7.025   3.772  1.0227 -0.5118  0.9089
  311MOL0     C42790   9.662   6.869   3.745 -0.1078  0.2153  0.8283
  311MOL0     C42791   9.687   6.833   3.597  0.3791  0.4274 -0.7377
  311MOL0     C42792   9.692   6.678   3.566 -0.0127 -0.0695  0.5472
  311MOL0     C42793   9.770   6.640   3.439  0.3002  0.4143 -0.3122
  311MOL0     C42794   9.794   6.490   3.442 -0.4210  0.3189  0.0323
  311MOL0     C42795   9.875   6.440   3.325 -0.6630 -0.2980  0.2739
  311MOL0     C42796   9.993   6.521   3.284  0.1285  0.0725  0.5061
  311MOL0     N42797  10.052   6.473   3.154  0.0356  0.0603 -0.2771
  311MOL0     C42798  10.027   6.519   3.027 -0.3621 -0.3044  0.3033
  311MOL0     C42799  10.106   6.445   2.947  0.0350 -0.0309  0.3609
  311MOL0     C42800  10.120   6.465   2.795  0.5237 -0.1696 -0.2848
  311MOL0     C42801   9.979   6.502   2.733  0.2305  0.3670 -0.1504
  311MOL0     C42802   9.960   6.466   2.587  0.2453  0.5577  0.2487
  311MOL0     C42803   9.820   6.495   2.522 -0.4590 -0.4463 -0.0591
  311MOL0     O42804   9.817   6.435   2.390  0.2114 -0.7017 -0.0101
  311MOL0     C42805   9.761   6.506   2.293  0.8674 -0.7893  0.2131
  311MOL0     C42806   9.844   6.529   2.188 -0.0160 -0.1094 -0.2911
  311MOL0     C42807   9.810   6.621   2.092 -0.2070  0.2550  0.4835
  311MOL0     C42808   9.909   6.663   1.988  0.1597 -0.2579 -0.0200
  311MOL0     C42809   9.675   6.662   2.081 -0.9102 -0.9385  0.2667
  311MOL0     C42810   9.616   6.756   1.978 -0.5968  0.1556 -0.1350
  311MOL0     O42811   9.692   6.781   1.868  0.0091 -0.9346 -0.3188
  311MOL0     C42812   9.661   6.868   1.770  0.5842 -0.3540 -0.2159
  311MOL0     C42813   9.722   6.845   1.641 -0.0627  1.0012  0.2711
  311MOL0     C42814   9.703   6.937   1.538 -0.7453  0.8598 -0.1928
  311MOL0     C42815   9.633   7.052   1.559  0.8225 -0.4522  0.4555
  311MOL0     O42816   9.629   7.145   1.463 -0.5843 -0.0211  0.2065
  311MOL0     C42817   9.756   7.181   1.393  0.5559 -0.3274 -0.1395
  311MOL0     C42818   9.800   7.336   1.422  0.4349 -0.1390  0.2286
  311MOL0     C42819   9.776   7.398   1.283 -0.4235 -0.6162 -0.8219
  311MOL0     C42820   9.831   7.538   1.261 -0.4930  0.6667  0.0971
  311MOL0     C42821   9.775   7.590   1.123 -0.5463  0.0394  0.2312
  311MOL0     C42822   9.836   7.728   1.090  0.8080 -0.7188 -0.1124
  311MOL0     C42823   9.767   7.768   0.956 -0.0875 -0.7166  1.3325
  311MOL0     C42824   9.809   7.914   0.930  0.1904 -0.1438  0.8918
  311MOL0    Cl42825   9.735   8.024   1.067  0.3876  0.4074 -0.0814
  311MOL0     C42826   9.565   7.072   1.684 -0.2872  0.3882  0.2239
  311MOL0     C42827   9.583   6.978   1.789 -0.2342  0.3084  0.7142
  311MOL0     O42828   9.497   6.775   1.982 -0.8014 -0.2015 -0.1040
  311MOL0     C42829   9.590   6.630   2.184 -0.1238 -0.3817 -0.4779
  311MOL0     C42830   9.630   6.552   2.289  0.1822  1.3686 -0.7905
  311MOL0     N42831  10.180   6.357   3.027 -0.0784  0.2466 -0.7558
  311MOL0     N42832  10.149   6.381   3.150 -0.4392 -0.2565 -0.1307
  311MOL0     C42833   9.392   6.980   3.896  1.4390  0.8446 -0.0168
  311MOL0     C42834   9.273   6.915   3.931 -0.0876 -0.5758 -0.5309
  311MOL0     C42835   8.816   6.805   3.955 -0.2328 -0.0596  0.3666
  311MOL0     C42836   8.716   6.846   4.044 -0.2215  0.3926  0.2320
  311MOL0     C42837   8.596   6.774   4.052 -0.3793  0.2757 -0.1908
  311MOL0     C42838   8.568   6.663   3.969 -0.5232  0.7997  0.4066
  311MOL0     O42839   8.440   6.613   3.969  0.7463 -0.6912  0.1003
  311MOL0     C42840   8.396   6.515   3.875 -0.3333  0.3177 -1.0869
  311MOL0     C42841   8.245   6.479   3.884 -0.0909 -0.0865  0.1148
  311MOL0     C42842   8.167   6.604   3.816  0.2998  0.8479 -0.6366
  311MOL0     C42843   8.017   6.570   3.784 -0.3387 -0.7271 -1.0006
  311MOL0     C42844   7.926   6.664   3.851  0.3657  1.7589  0.5823
  311MOL0     C42845   7.866   6.753   3.898 -0.5016 -0.8035  0.6481
  311MOL0     C42846   8.665   6.619   3.888 -0.1278 -0.6832 -0.2236
  311MOL0     C42847   8.784   6.686   3.884 -0.8707 -0.0780  0.4803
  311MOL0     C42848   8.875   6.629   3.790 -0.0382  0.7490  0.6111
  311MOL0     H42849   9.116   6.919   3.623  0.5015 -0.5756  0.8313
  311MOL0     H42850   9.331   7.030   3.568 -2.0873 -0.5767 -1.0923
  311MOL0     H42851   9.658   7.056   3.877 -0.7514 -1.0496  1.1046
  311MOL0     H42852   9.726   7.089   3.715 -3.8574  1.1073 -3.9689
  311MOL0     H42853   9.755   6.833   3.790  0.5511 -0.9597 -1.3260
  311MOL0     H42854   9.581   6.813   3.792  1.8100 -0.2997  3.8140
  311MOL0     H42855   9.612   6.884   3.536 -0.3706  1.2396  0.8262
  311MOL0     H42856   9.784   6.878   3.571  0.3535 -1.1060 -4.0534
  311MOL0     H42857   9.751   6.637   3.649  2.7518  3.9460  0.8382
  311MOL0     H42858   9.599   6.621   3.564  0.5325 -0.9669 -1.5438
  311MOL0     H42859   9.871   6.681   3.436 -0.3546  2.2186  0.8399
  311MOL0     H42860   9.715   6.663   3.347  3.7257 -1.9976 -3.2755
  311MOL0     H42861   9.834   6.448   3.534 -0.3043 -1.5146 -0.8091
  311MOL0     H42862   9.692   6.450   3.434 -0.2777 -0.2366  0.8791
  311MOL0     H42863   9.800   6.437   3.246 -2.8282  0.5759  2.1782
  311MOL0     H42864   9.904   6.336   3.340 -0.7426 -0.5260 -1.0671
  311MOL0     H42865   9.970   6.626   3.262 -3.3185 -0.5463  0.5939
  311MOL0     H42866  10.063   6.511   3.368 -0.2000 -0.8859  0.6847
  311MOL0     H42867   9.981   6.612   2.996  2.3276  0.8772 -0.5261
  311MOL0     H42868  10.164   6.376   2.750  2.3460  0.0262  0.9649
  311MOL0     H42869  10.189   6.549   2.781 -0.4640  1.0606  1.6555
  311MOL0     H42870   9.899   6.445   2.782  0.2385  0.7094  0.2694
  311MOL0     H42871   9.959   6.608   2.748  0.7046  1.1072 -3.8402
  311MOL0     H42872  10.037   6.507   2.522  0.7018 -0.9019 -0.1748
  311MOL0     H42873   9.971   6.357   2.583 -1.4613  0.4001 -1.9827
  311MOL0     H42874   9.741   6.462   2.590  0.6392 -0.5536  1.1903
  311MOL0     H42875   9.826   6.604   2.515 -1.1707 -0.4657 -1.3292
  311MOL0     H42876   9.945   6.490   2.200 -0.5896 -1.8871 -0.8869
  311MOL0     H42877  10.016   6.648   2.006  0.2592 -1.4357 -1.3318
  311MOL0     H42878   9.897   6.768   1.960  2.5993 -0.2182 -1.2499
  311MOL0     H42879   9.886   6.613   1.893 -1.0570  1.7972 -0.8668
  311MOL0     H42880   9.768   6.747   1.627 -1.3114  0.1391  1.7898
  311MOL0     H42881   9.744   6.912   1.441  1.1982 -1.3901  1.0996
  311MOL0     H42882   9.832   7.107   1.419  1.0124  0.3438  0.4892
  311MOL0     H42883   9.733   7.154   1.290 -3.0762 -3.6632  1.2915
  311MOL0     H42884   9.733   7.380   1.497 -1.5286 -0.6338 -1.1535
  311MOL0     H42885   9.903   7.347   1.459  1.4989 -1.8840 -2.0040
  311MOL0     H42886   9.671   7.399   1.250 -0.1601 -3.1945 -1.9759
  311MOL0     H42887   9.828   7.339   1.207  1.1009 -2.2387  1.3645
  311MOL0     H42888   9.940   7.546   1.254 -0.3513 -0.4042  0.7738
  311MOL0     H42889   9.794   7.600   1.342  0.8402  2.1222 -0.3687
  311MOL0     H42890   9.800   7.525   1.039 -1.0423 -0.3938  0.4174
  311MOL0     H42891   9.669   7.612   1.136 -0.2686  2.4375 -0.9502
  311MOL0     H42892   9.943   7.724   1.067  0.6660  0.9251 -1.1904
  311MOL0     H42893   9.820   7.798   1.173 -0.8056 -0.4812 -0.5988
  311MOL0     H42894   9.658   7.759   0.960 -0.0501 -3.0653 -0.5991
  311MOL0     H42895   9.806   7.707   0.874  1.2558 -1.8328  2.7508
  311MOL0     H42896   9.788   7.937   0.826 -2.9098 -2.7644  0.7741
  311MOL0     H42897   9.917   7.924   0.938  0.1015  1.2219  0.6696
  311MOL0     H42898   9.497   7.156   1.696 -0.6758 -0.1540  2.1839
  311MOL0     H42899   9.526   6.990   1.880  0.3206 -2.4561  1.5197
  311MOL0     H42900   9.490   6.672   2.196 -1.2734 -3.2607  1.2216
  311MOL0     H42901   9.569   6.531   2.376  1.6977 -4.9704 -0.7659
  311MOL0     H42902   9.471   6.982   3.970  1.6051 -2.4262  0.0628
  311MOL0     H42903   9.273   6.866   4.028  1.9352  0.1760 -0.1049
  311MOL0     H42904   8.738   6.932   4.106 -2.6773  3.1294 -2.3477
  311MOL0     H42905   8.529   6.802   4.133  0.4847  3.1978 -0.3660
  311MOL0     H42906   8.415   6.556   3.775  0.6630 -0.8199 -1.3925
  311MOL0     H42907   8.455   6.425   3.894  0.0145  1.1821  2.5439
  311MOL0     H42908   8.214   6.475   3.989 -0.6691  3.2993  0.1849
  311MOL0     H42909   8.222   6.388   3.829  2.6250 -2.1408  2.1225
  311MOL0     H42910   8.182   6.683   3.890 -2.3266 -1.7606  3.0683
  311MOL0     H42911   8.215   6.644   3.727 -2.1093  0.0432 -2.4072
  311MOL0     H42912   7.989   6.468   3.815  0.2183 -0.2659  1.2238
  311MOL0     H42913   8.008   6.579   3.675  2.1303 -0.7329 -1.2574
  311MOL0     H42914   7.796   6.828   3.927  0.6895  0.0275  1.4778
  311MOL0     H42915   8.641   6.536   3.821 -1.3588 -0.4348 -0.1138
  311MOL0     H42916   8.963   6.600   3.848 -1.4741 -3.5142  0.9945
  311MOL0     H42917   8.845   6.534   3.745 -0.5918  0.1533  2.1828
  311MOL0     H42918   8.906   6.702   3.714  4.1342  0.8335  2.0979
  312MOL0     O42919   8.770   7.689   7.847 -0.2755 -0.1298  0.4197
  312MOL0     C42920   8.712   7.764   7.765  0.1005 -0.4603 -1.0391
  312MOL0     O42921   8.762   7.823   7.656 -0.2446 -0.2614 -0.0821
  312MOL0     C42922   8.899   7.815   7.646  0.4490  0.4825 -0.1330
  312MOL0     C42923   8.962   7.692   7.622 -0.8585  0.6632 -0.3971
  312MOL0     C42924   9.101   7.686   7.614 -0.4686  0.5525  0.1432
  312MOL0     C42925   9.178   7.790   7.648 -0.3539  0.4091 -0.4764
  312MOL0     O42926   9.314   7.771   7.658  0.5323  0.4843  0.4209
  312MOL0     C42927   9.399   7.825   7.561 -0.0225 -0.4592 -0.3123
  312MOL0     C42928   9.534   7.749   7.567  0.6165  1.0784  1.4720
  312MOL0     C42929   9.637   7.803   7.465 -0.2538 -0.2613  0.5969
  312MOL0     C42930   9.769   7.728   7.471 -0.3813  0.7149 -0.5671
  312MOL0     C42931   9.877   7.795   7.385  0.3256  0.1467 -1.1479
  312MOL0     C42932  10.017   7.740   7.365  0.3288 -0.0115 -0.4920
  312MOL0     C42933  10.085   7.718   7.504 -0.5045  0.1241  0.3231
  312MOL0     C42934  10.232   7.750   7.506  0.0255 -0.1735 -0.1349
  312MOL0     N42935  10.317   7.682   7.405  0.0136  0.0316 -0.1945
  312MOL0     C42936  10.366   7.556   7.423  0.4388  0.9797  0.0313
  312MOL0     C42937  10.409   7.514   7.306 -0.4389 -0.3714  0.2610
  312MOL0     C42938  10.465   7.376   7.256 -0.0268  0.4363  0.4133
  312MOL0     C42939  10.615   7.383   7.210  0.2173  0.1257  0.6181
  312MOL0     C42940  10.702   7.376   7.336 -0.5504 -0.0507 -0.4748
  312MOL0     C42941  10.851   7.377   7.301  0.3503 -0.0707  0.3248
  312MOL0     O42942  10.935   7.356   7.416 -0.6467  0.1798  0.1617
  312MOL0     C42943  11.073   7.358   7.401  1.4020 -0.3275  0.9105
  312MOL0     C42944  11.153   7.294   7.494  0.5831  0.4673  0.2877
  312MOL0     C42945  11.293   7.286   7.488 -0.4618  0.0271 -0.2754
  312MOL0     C42946  11.347   7.187   7.590 -0.2801 -0.9354 -1.3084
  312MOL0     C42947  11.364   7.358   7.386 -0.5614 -0.4298 -0.0591
  312MOL0     C42948  11.513   7.367   7.370 -0.3905 -0.1030 -0.4391
  312MOL0     O42949  11.551   7.421   7.261 -0.0148  0.2341 -0.2216
  312MOL0     C42950  11.690   7.441   7.248  0.3149  0.4284  1.1166
  312MOL0     C42951  11.738   7.567   7.263  0.2874 -0.2274  1.0318
  312MOL0     C42952  11.877   7.592   7.269  0.4920  0.0302 -0.5322
  312MOL0     C42953  11.969   7.487   7.245  0.1575 -0.7011 -0.5471
  312MOL0     O42954  12.097   7.528   7.236  0.5220  0.7661 -0.3556
  312MOL0     C42955  12.191   7.454   7.160 -0.2315 -0.0181  1.0298
  312MOL0     C42956  12.303   7.547   7.126  0.2372  0.0609  0.1191
  312MOL0     C42957  12.414   7.485   7.036  1.0475 -0.6142 -0.2906
  312MOL0     C42958  12.534   7.578   7.033  0.1459 -0.5533 -0.1199
  312MOL0     C42959  12.643   7.521   6.940 -0.2006 -0.4538  0.0648
  312MOL0     C42960  12.783   7.575   6.979  0.6546  0.0932  0.2018
  312MOL0     C42961  12.893   7.498   6.903 -0.3851  0.0369 -0.2445
  312MOL0     C42962  13.046   7.552   6.924 -0.8532  0.8573  1.1534
  312MOL0    Cl42963  13.076   7.714   6.869  0.4640  0.2230 -0.1794
  312MOL0     C42964  11.915   7.361   7.210 -0.5100 -0.4128  0.4264
  312MOL0     C42965  11.776   7.334   7.210  0.1503  0.6547 -0.3244
  312MOL0     O42966  11.586   7.321   7.458 -1.0577  0.5674 -0.0465
  312MOL0     C42967  11.285   7.442   7.300 -0.3963  1.0389 -0.4349
  312MOL0     C42968  11.138   7.440   7.307  0.5296 -0.3348  0.5874
  312MOL0     N42969  10.390   7.631   7.222 -0.1792  1.0786  0.5932
  312MOL0     N42970  10.330   7.726   7.278  1.1738  0.0834  0.2493
  312MOL0     C42971   9.117   7.905   7.676 -0.2438 -0.1728 -0.6160
  312MOL0     C42972   8.983   7.922   7.659 -0.2176 -0.2892 -0.0456
  312MOL0     C42973   8.558   7.763   7.782 -0.2728  1.1569  0.3025
  312MOL0     C42974   8.480   7.713   7.677  1.3080  0.0720  0.3969
  312MOL0     C42975   8.339   7.704   7.699 -0.1273 -0.4855  1.0211
  312MOL0     C42976   8.277   7.755   7.820 -0.2347  0.0764 -0.1838
  312MOL0     O42977   8.142   7.761   7.857 -0.3147 -0.6759  0.6815
  312MOL0     C42978   8.048   7.695   7.772 -0.1323 -0.0412  0.4402
  312MOL0     C42979   8.006   7.560   7.816  0.3334 -0.3816 -0.6698
  312MOL0     C42980   7.945   7.549   7.955 -0.2888 -0.5161  0.2384
  312MOL0     C42981   7.831   7.636   7.981  0.2927  0.0869 -0.2316
  312MOL0     C42982   7.725   7.628   7.886 -0.5543  0.2113  0.7497
  312MOL0     C42983   7.631   7.632   7.819  0.1460  0.7323  0.2540
  312MOL0     C42984   8.359   7.806   7.921 -0.3147 -0.7382  0.0720
  312MOL0     C42985   8.499   7.814   7.897 -1.0990 -0.6182 -0.0958
  312MOL0     C42986   8.581   7.892   8.001  0.2095 -0.3585 -0.5129
  312MOL0     H42987   8.891   7.610   7.613 -0.3095  0.0666  0.6030
  312MOL0     H42988   9.142   7.586   7.615 -2.1160 -0.1714  1.3647
  312MOL0     H42989   9.406   7.933   7.581 -1.0775  0.2189 -3.1689
  312MOL0     H42990   9.356   7.826   7.461  3.3295 -2.0128 -1.9409
  312MOL0     H42991   9.583   7.743   7.665 -0.1105 -2.0781  1.7647
  312MOL0     H42992   9.517   7.642   7.549 -4.4185  1.8193  0.3962
  312MOL0     H42993   9.596   7.804   7.364 -0.6268  1.5302  0.7412
  312MOL0     H42994   9.655   7.905   7.500 -0.2914  0.0994 -0.4228
  312MOL0     H42995   9.796   7.721   7.576  4.9150  1.9927 -1.5630
  312MOL0     H42996   9.756   7.625   7.437 -0.4354  0.6885 -0.4662
  312MOL0     H42997   9.887   7.900   7.415 -2.5450 -0.0329  0.8289
  312MOL0     H42998   9.823   7.798   7.290 -0.2779  2.7965 -0.7959
  312MOL0     H42999  10.022   7.653   7.300  4.0408  0.0116 -0.4266
  312MOL0     H43000  10.064   7.822   7.310 -1.3443  1.1143 -0.3069
  312MOL0     H43001  10.073   7.614   7.533  0.5513  0.0523  0.5392
  312MOL0     H43002  10.028   7.766   7.585 -3.4666 -0.8292 -1.0398
  312MOL0     H43003  10.232   7.857   7.484 -3.8166  0.3256  1.5039
  312MOL0     H43004  10.274   7.752   7.608  0.2549  0.3309 -0.2324
  312MOL0     H43005  10.353   7.496   7.512  1.9266 -1.3662 -1.2293
  312MOL0     H43006  10.416   7.333   7.167  3.6032 -1.9451 -0.6501
  312MOL0     H43007  10.451   7.300   7.334  3.2245  0.1085  0.7834
  312MOL0     H43008  10.630   7.299   7.141 -1.0687  1.0861 -0.8942
  312MOL0     H43009  10.636   7.469   7.146  1.2002 -1.3195 -1.0956
  312MOL0     H43010  10.680   7.467   7.393 -1.7937  0.6808 -2.0460
  312MOL0     H43011  10.675   7.279   7.380 -1.7528 -0.1125 -1.3166
  312MOL0     H43012  10.866   7.302   7.223  2.0167  1.6704 -1.1384
  312MOL0     H43013  10.870   7.477   7.261 -0.5655  0.6144  1.5313
  312MOL0     H43014  11.088   7.258   7.572 -2.1112  2.4042 -0.9064
  312MOL0     H43015  11.260   7.147   7.643  0.4232  0.6866  1.2513
  312MOL0     H43016  11.399   7.244   7.667 -2.7346  0.9941 -0.9355
  312MOL0     H43017  11.406   7.109   7.542  1.1203  0.5651 -2.1275
  312MOL0     H43018  11.674   7.648   7.297  1.1524  1.4812 -1.1863
  312MOL0     H43019  11.912   7.692   7.294 -1.6727  0.3299  1.7213
  312MOL0     H43020  12.228   7.374   7.226 -0.8752  0.1036  1.5468
  312MOL0     H43021  12.145   7.414   7.070 -1.8873  1.2629  1.2706
  312MOL0     H43022  12.252   7.630   7.076  3.4971  2.1146 -0.1063
  312MOL0     H43023  12.343   7.599   7.214  1.2493  0.2915 -0.4672
  312MOL0     H43024  12.384   7.458   6.934 -1.0380  2.9810 -0.7718
  312MOL0     H43025  12.456   7.394   7.081  2.8480  0.8011  0.9922
  312MOL0     H43026  12.564   7.594   7.137  2.6826  0.1996 -0.8937
  312MOL0     H43027  12.502   7.675   6.995 -0.8426  0.2239  2.5284
  312MOL0     H43028  12.643   7.412   6.938  0.1690 -0.6038  3.4280
  312MOL0     H43029  12.609   7.552   6.841 -2.2346 -1.6117  0.3678
  312MOL0     H43030  12.791   7.544   7.084  1.3889 -1.3899 -0.2604
  312MOL0     H43031  12.797   7.682   6.961 -2.0134  0.5814  0.5037
  312MOL0     H43032  12.867   7.503   6.796 -0.1491 -1.2820 -0.3844
  312MOL0     H43033  12.886   7.392   6.929 -1.6318  0.5963  1.8846
  312MOL0     H43034  13.125   7.493   6.877 -1.5068  1.4159 -0.7669
  312MOL0     H43035  13.070   7.566   7.029  2.5803 -0.4852  0.6815
  312MOL0     H43036  11.973   7.271   7.190  0.2978  0.3259 -0.6638
  312MOL0     H43037  11.733   7.237   7.189  1.9060  0.0081 -1.0941
  312MOL0     H43038  11.314   7.511   7.221 -1.5928  0.5343 -1.3318
  312MOL0     H43039  11.085   7.511   7.245  0.5249  1.1868  2.2539
  312MOL0     H43040   9.179   7.992   7.696  1.7917 -1.7552  0.4265
  312MOL0     H43041   8.950   8.025   7.662 -1.5315 -0.7123  0.5234
  312MOL0     H43042   8.521   7.691   7.579  3.8484  2.9959  0.6534
  312MOL0     H43043   8.284   7.670   7.612 -0.6652  0.2471  1.0596
  312MOL0     H43044   7.961   7.762   7.769  0.5147  0.8659  1.1944
  312MOL0     H43045   8.067   7.697   7.664  2.6016 -0.3044  0.8625
  312MOL0     H43046   8.095   7.496   7.813  0.4599 -0.1938 -1.0139
  312MOL0     H43047   7.935   7.529   7.739  0.4597  2.0406 -1.8668
  312MOL0     H43048   7.920   7.446   7.980  1.4485 -0.9739  0.1901
  312MOL0     H43049   8.024   7.573   8.027  0.2312  0.9231 -0.7609
  312MOL0     H43050   7.876   7.735   7.984  1.4163 -0.4299  1.8420
  312MOL0     H43051   7.787   7.617   8.079  2.1105 -1.5067  0.3541
  312MOL0     H43052   7.548   7.646   7.753  0.0195  0.4527  0.3552
  312MOL0     H43053   8.312   7.825   8.018 -1.5135 -2.3682 -0.1336
  312MOL0     H43054   8.603   7.993   7.965  2.1688 -1.3915 -2.4289
  312MOL0     H43055   8.525   7.908   8.094  2.8610 -1.6482  1.4378
  312MOL0     H43056   8.672   7.837   8.027  1.2582  0.9026 -1.4143
  313MOL0     O43057   1.604   3.060   6.056 -0.2263  0.4073  0.5136
  313MOL0     C43058   1.606   2.940   6.063 -0.8831  0.5865 -0.0799
  313MOL0     O43059   1.494   2.866   6.078 -0.9348 -0.3576 -0.2931
  313MOL0     C43060   1.377   2.923   6.074  0.2909  0.0329 -0.0837
  313MOL0     C43061   1.333   3.021   6.163 -0.6256  0.4191  0.3313
  313MOL0     C43062   1.194   3.068   6.151 -1.2806  0.0329  0.0349
  313MOL0     C43063   1.106   3.020   6.059 -0.0197 -0.8742  0.0311
  313MOL0     O43064   0.983   3.075   6.036  0.4783 -0.6114  0.2172
  313MOL0     C43065   0.946   3.210   6.089  0.4371 -0.2078  0.1794
  313MOL0     C43066   0.883   3.188   6.228  0.2496 -1.2658 -0.0866
  313MOL0     C43067   0.796   3.067   6.257  0.5181 -0.3032  0.5417
  313MOL0     C43068   0.868   2.937   6.289  0.3734 -0.4386  0.5954
  313MOL0     C43069   0.761   2.841   6.346  0.3414 -0.1037 -0.2877
  313MOL0     C43070   0.835   2.713   6.382  0.6389 -0.0892  0.2118
  313MOL0     C43071   0.732   2.604   6.426  0.6002  0.2096 -0.7807
  313MOL0     C43072   0.672   2.515   6.316  0.4538  0.1055  0.7059
  313MOL0     N43073   0.557   2.438   6.378  0.2222 -0.0811 -0.7014
  313MOL0     C43074   0.558   2.304   6.388  0.1864  0.0569 -0.4045
  313MOL0     C43075   0.450   2.260   6.450  0.9011 -0.7223  0.3630
  313MOL0     C43076   0.404   2.117   6.492  0.5644 -0.8163 -0.0392
  313MOL0     C43077   0.435   2.011   6.395 -0.1581  0.0630  0.6217
  313MOL0     C43078   0.324   1.891   6.406 -0.1801 -0.6003  0.0752
  313MOL0     C43079   0.303   1.837   6.551 -0.1333  0.7918  0.3465
  313MOL0     O43080   0.424   1.781   6.604 -0.1625 -0.1414  0.2129
  313MOL0     C43081   0.500   1.690   6.533 -0.5305  0.0559 -0.1776
  313MOL0     C43082   0.640   1.693   6.544 -0.3551  0.2698  0.4258
  313MOL0     C43083   0.724   1.597   6.486 -0.1931  0.1567 -0.2186
  313MOL0     C43084   0.867   1.614   6.508  0.3947 -0.4466 -0.4904
  313MOL0     C43085   0.672   1.498   6.406  0.5224 -0.5443 -0.9381
  313MOL0     C43086   0.757   1.391   6.337  0.0287  0.2738  0.4693
  313MOL0     O43087   0.887   1.378   6.342 -0.1312  0.2688 -0.2109
  313MOL0     C43088   0.944   1.262   6.294 -0.8082 -0.8335  0.3232
  313MOL0     C43089   0.992   1.168   6.382  0.6083  1.0178  0.0270
  313MOL0     C43090   1.056   1.054   6.332  0.0689 -0.4088  0.0256
  313MOL0     C43091   1.065   1.021   6.199 -0.1192  0.0375  0.0719
  313MOL0     O43092   1.097   0.898   6.154 -0.2522 -0.7825 -0.1679
  313MOL0     C43093   1.051   0.781   6.222 -0.6738 -0.2575  0.8142
  313MOL0     C43094   1.048   0.656   6.133 -1.1368  0.0379 -0.4453
  313MOL0     C43095   1.189   0.591   6.115  0.2726  0.2585  0.3897
  313MOL0     C43096   1.188   0.474   6.010 -0.2091 -0.3468  0.0782
  313MOL0     C43097   1.328   0.398   6.000  0.2638 -1.0313 -0.7162
  313MOL0     C43098   1.417   0.464   5.894  0.1759  0.4195 -0.5261
  313MOL0     C43099   1.538   0.382   5.858  0.1244 -0.2239  0.7029
  313MOL0     C43100   1.642   0.459   5.775 -0.3232 -1.0689 -0.3913
  313MOL0    Cl43101   1.807   0.374   5.758  0.4582  0.3164  0.2751
  313MOL0     C43102   1.011   1.116   6.110  0.3299  0.4015  0.2122
  313MOL0     C43103   0.958   1.236   6.155  0.0739  0.2685 -0.4821
  313MOL0     O43104   0.683   1.301   6.286  0.1279 -0.1632 -0.1914
  313MOL0     C43105   0.532   1.494   6.385 -0.0460  0.4601 -1.5830
  313MOL0     C43106   0.450   1.592   6.446  0.3136 -0.0185 -0.3390
  313MOL0     N43107   0.380   2.374   6.473  0.8731 -0.0807 -0.2088
  313MOL0     N43108   0.436   2.479   6.420  0.3358  0.6212 -0.3669
  313MOL0     C43109   1.148   2.914   5.980 -0.8082  0.6129 -0.2366
  313MOL0     C43110   1.283   2.863   5.996  0.3146  0.5521  0.6885
  313MOL0     C43111   1.742   2.871   6.072 -0.1344 -0.0170 -0.0199
  313MOL0     C43112   1.740   2.747   6.132 -0.1349  0.1135 -0.3995
  313MOL0     C43113   1.859   2.670   6.137  0.8680 -0.2598 -0.1955
  313MOL0     C43114   1.982   2.718   6.094  0.6430  0.0408  0.7849
  313MOL0     O43115   2.095   2.644   6.117 -0.5428  0.1454 -0.0080
  313MOL0     C43116   2.223   2.681   6.095  0.2910  0.0612  0.0348
  313MOL0     C43117   2.307   2.592   6.193  0.5780 -0.0305  0.2736
  313MOL0     C43118   2.331   2.458   6.122 -0.5711  0.0969 -1.2180
  313MOL0     C43119   2.413   2.359   6.202  0.4097 -0.7036  0.7965
  313MOL0     C43120   2.555   2.402   6.227  1.3208  0.0436  0.1198
  313MOL0     C43121   2.674   2.423   6.244 -0.0462 -0.0490 -0.6117
  313MOL0     C43122   1.985   2.846   6.041  0.2502  0.0789  0.3671
  313MOL0     C43123   1.866   2.921   6.016  0.8610 -0.0693 -0.0155
  313MOL0     C43124   1.870   3.049   5.935  0.6845  0.2360 -0.3043
  313MOL0     H43125   1.390   3.071   6.240  0.0997 -0.2055  0.2174
  313MOL0     H43126   1.164   3.143   6.224  0.6646 -1.9024  3.0476
  313MOL0     H43127   0.869   3.249   6.023  0.5159  0.5658  0.5437
  313MOL0     H43128   1.027   3.282   6.098 -1.5191  2.0192  0.8056
  313MOL0     H43129   0.952   3.202   6.311 -0.5533 -3.4746  1.0289
  313MOL0     H43130   0.809   3.268   6.242  2.4934  0.5918  1.9996
  313MOL0     H43131   0.731   3.084   6.343  1.4321 -0.7807  1.3433
  313MOL0     H43132   0.724   3.059   6.175  0.5045 -1.5349  0.6488
  313MOL0     H43133   0.897   2.896   6.192  0.2817 -0.7490  0.6982
  313MOL0     H43134   0.952   2.965   6.354  0.5905 -0.6207  0.3962
  313MOL0     H43135   0.681   2.827   6.273  1.5608  0.0814 -1.7032
  313MOL0     H43136   0.722   2.879   6.441 -0.2254  0.1391 -0.6120
  313MOL0     H43137   0.885   2.684   6.289 -3.2557 -2.4811 -1.3859
  313MOL0     H43138   0.906   2.738   6.462 -2.6528  3.2862  2.3803
  313MOL0     H43139   0.646   2.651   6.473  0.0130  1.8644 -3.2749
  313MOL0     H43140   0.782   2.543   6.501  2.4384  1.0222 -1.2642
  313MOL0     H43141   0.631   2.574   6.233  1.1196 -0.4763 -0.0518
  313MOL0     H43142   0.748   2.443   6.284  0.9794  0.3714  1.3396
  313MOL0     H43143   0.649   2.253   6.358  0.0745  0.1931 -0.9927
  313MOL0     H43144   0.298   2.115   6.519  0.3551  0.6916 -0.6339
  313MOL0     H43145   0.456   2.096   6.586  1.4012 -0.6680 -0.4625
  313MOL0     H43146   0.444   2.064   6.300  2.4383  0.7076  1.1386
  313MOL0     H43147   0.531   1.976   6.433  0.3962  0.8637 -0.0026
  313MOL0     H43148   0.229   1.924   6.364 -0.7341 -2.4849 -0.2022
  313MOL0     H43149   0.360   1.813   6.338  1.2605 -1.1084  1.3433
  313MOL0     H43150   0.255   1.911   6.616  2.4047  1.6257  1.4172
  313MOL0     H43151   0.227   1.759   6.549  0.8851 -0.2177 -0.4137
  313MOL0     H43152   0.690   1.767   6.606 -0.5834  0.5830  0.2375
  313MOL0     H43153   0.886   1.683   6.591 -1.7952 -0.8314  0.4104
  313MOL0     H43154   0.911   1.663   6.420 -0.3335  1.8776  0.3547
  313MOL0     H43155   0.926   1.527   6.535 -1.6989 -1.2194  1.9916
  313MOL0     H43156   0.990   1.183   6.490 -0.1366 -2.3680  0.5979
  313MOL0     H43157   1.115   0.991   6.398  0.0028 -1.4540 -0.8851
  313MOL0     H43158   1.114   0.769   6.311  3.6610  2.5673 -1.4672
  313MOL0     H43159   0.950   0.799   6.261 -1.9001 -1.9519 -1.3718
  313MOL0     H43160   0.970   0.602   6.187 -1.2341 -0.5144 -1.1109
  313MOL0     H43161   0.999   0.681   6.038 -1.1963  0.2074 -0.3689
  313MOL0     H43162   1.211   0.553   6.215  0.9285  3.7770  1.6956
  313MOL0     H43163   1.265   0.664   6.086  1.2561 -0.9695 -0.2684
  313MOL0     H43164   1.165   0.513   5.910  0.4515  0.7292  0.3301
  313MOL0     H43165   1.109   0.406   6.044  0.1566  0.1051  1.9396
  313MOL0     H43166   1.378   0.399   6.098  0.0208  0.7710 -0.5770
  313MOL0     H43167   1.309   0.292   5.979  0.0881 -0.7764 -1.8793
  313MOL0     H43168   1.448   0.564   5.925 -0.8851  1.1665 -1.7894
  313MOL0     H43169   1.360   0.481   5.802 -0.0067 -0.7149 -0.6360
  313MOL0     H43170   1.515   0.296   5.793 -0.7376  0.5388 -0.0229
  313MOL0     H43171   1.585   0.337   5.946  0.0134  0.2794  1.0199
  313MOL0     H43172   1.660   0.549   5.835  1.2302 -1.3384 -0.4098
  313MOL0     H43173   1.590   0.481   5.682 -1.7348  1.6333  0.9182
  313MOL0     H43174   0.998   1.106   6.002  1.1060  1.5577  0.0042
  313MOL0     H43175   0.919   1.309   6.084 -2.1149  1.3625  1.6596
  313MOL0     H43176   0.475   1.428   6.322 -4.3614  3.0675 -0.8209
  313MOL0     H43177   0.344   1.573   6.438  0.7842 -4.6199  1.1825
  313MOL0     H43178   1.080   2.867   5.910  1.4744  0.0915 -2.2210
  313MOL0     H43179   1.307   2.769   5.949 -2.0445  0.8154 -1.2682
  313MOL0     H43180   1.651   2.709   6.181  1.5379 -1.6536  1.4242
  313MOL0     H43181   1.849   2.569   6.176 -0.5498 -0.6119 -1.3744
  313MOL0     H43182   2.258   2.661   5.994  3.2604 -0.7364  1.1048
  313MOL0     H43183   2.247   2.783   6.125  1.1302 -0.2163  0.3529
  313MOL0     H43184   2.253   2.565   6.284  2.7480 -0.2081  1.5751
  313MOL0     H43185   2.399   2.646   6.218 -0.8274  2.2211  0.8785
  313MOL0     H43186   2.235   2.412   6.096 -2.4055  2.0007  1.5338
  313MOL0     H43187   2.379   2.483   6.027  3.1274  1.8255  0.8601
  313MOL0     H43188   2.423   2.264   6.148  1.3735 -0.1796  0.0315
  313MOL0     H43189   2.366   2.334   6.298  1.3786 -0.9946  1.2094
  313MOL0     H43190   2.777   2.439   6.269 -0.2283  1.0629 -0.5166
  313MOL0     H43191   2.075   2.886   5.996  0.1438  0.4129  0.4506
  313MOL0     H43192   1.838   3.129   6.002 -2.7653 -1.8148  0.7941
  313MOL0     H43193   1.972   3.073   5.906  1.5805 -1.4487  1.2183
  313MOL0     H43194   1.798   3.037   5.853  1.7256  0.0754 -1.2141
  314MOL0     O43195   4.163   9.455   6.470 -0.6011  0.9363 -0.0818
  314MOL0     C43196   4.256   9.521   6.415  0.0901 -0.9917  0.1150
  314MOL0     O43197   4.267   9.656   6.419  0.3720 -0.2292  0.1272
  314MOL0     C43198   4.172   9.747   6.456 -0.1279  0.8380 -0.2484
  314MOL0     C43199   4.202   9.878   6.427  0.9468 -0.6624 -0.0338
  314MOL0     C43200   4.118   9.979   6.462  0.0263 -0.4536  0.1967
  314MOL0     C43201   3.998   9.965   6.527  0.2858 -0.1734 -0.1189
  314MOL0     O43202   3.922  10.079   6.565 -0.3873 -0.5596 -0.0321
  314MOL0     C43203   3.813  10.059   6.655  0.3025  0.5230 -0.5135
  314MOL0     C43204   3.768  10.191   6.740  0.3189  0.7907 -0.0017
  314MOL0     C43205   3.721  10.303   6.652  1.1827 -0.4289  0.8329
  314MOL0     C43206   3.686  10.426   6.738 -0.0645 -0.1446  0.5968
  314MOL0     C43207   3.633  10.539   6.647  0.0246  0.9001  0.3437
  314MOL0     C43208   3.592  10.656   6.738  0.2470  0.1433  0.3516
  314MOL0     C43209   3.709  10.747   6.780 -0.0332 -0.1596  1.1456
  314MOL0     C43210   3.663  10.877   6.842  0.6977 -0.1673 -0.2030
  314MOL0     N43211   3.602  10.858   6.973  0.6704  0.0060  0.0955
  314MOL0     C43212   3.470  10.881   7.003 -0.1424  0.4518 -0.0376
  314MOL0     C43213   3.473  10.897   7.137  0.5595  0.6127  0.4579
  314MOL0     C43214   3.349  10.934   7.218 -0.5376  0.2450  0.1902
  314MOL0     C43215   3.391  10.960   7.368 -0.9045 -0.6387 -1.0999
  314MOL0     C43216   3.290  11.025   7.474 -0.4025  0.0698  0.7824
  314MOL0     C43217   3.193  10.917   7.532  0.0229  0.5993 -0.1564
  314MOL0     O43218   3.259  10.820   7.615  1.0376 -0.1585  0.4638
  314MOL0     C43219   3.292  10.851   7.738 -0.2902  0.0910  0.4223
  314MOL0     C43220   3.200  10.887   7.834 -1.2477  0.6349 -0.5077
  314MOL0     C43221   3.236  10.905   7.972  0.2716 -0.4626  0.4987
  314MOL0     C43222   3.120  10.938   8.065  0.0750 -0.4238 -0.6006
  314MOL0     C43223   3.369  10.899   8.010 -0.6236 -0.3275 -1.2044
  314MOL0     C43224   3.415  10.897   8.155  0.4215  0.2280 -0.0232
  314MOL0     O43225   3.325  10.885   8.254 -0.8135  0.1297 -0.0061
  314MOL0     C43226   3.362  10.870   8.388 -0.2768 -0.6991  0.1829
  314MOL0     C43227   3.250  10.866   8.465  0.8180  0.6595  0.5898
  314MOL0     C43228   3.255  10.831   8.602  0.3839 -0.5144 -0.4861
  314MOL0     C43229   3.377  10.807   8.662  1.0018 -0.5884  0.4252
  314MOL0     O43230   3.376  10.781   8.797  0.1351  0.4340  0.2511
  314MOL0     C43231   3.439  10.653   8.833 -0.0517 -0.5279  0.8298
  314MOL0     C43232   3.434  10.628   8.983 -0.1910  1.3882 -0.7621
  314MOL0     C43233   3.504  10.498   9.025  0.4531  0.2647  0.8362
  314MOL0     C43234   3.493  10.469   9.177  0.6408 -0.0585 -0.3945
  314MOL0     C43235   3.362  10.405   9.223  0.4136  0.5229 -0.7095
  314MOL0     C43236   3.383  10.332   9.353  0.5081 -0.1759 -0.4611
  314MOL0     C43237   3.346  10.425   9.466 -0.1987 -0.8740 -0.4200
  314MOL0     C43238   3.343  10.369   9.607  0.7051 -0.6555 -0.6215
  314MOL0    Cl43239   3.233  10.232   9.624  0.1638 -0.2120 -0.2118
  314MOL0     C43240   3.495  10.818   8.585 -0.0433 -0.1185 -0.6716
  314MOL0     C43241   3.478  10.849   8.450  0.4023  0.0549 -0.9027
  314MOL0     O43242   3.535  10.909   8.173 -0.2325 -0.6813  0.2314
  314MOL0     C43243   3.463  10.888   7.904 -0.6007 -0.7250  0.1716
  314MOL0     C43244   3.429  10.855   7.770  0.4478 -0.4622  0.2454
  314MOL0     N43245   3.590  10.874   7.188 -0.7205  0.8892  0.3320
  314MOL0     N43246   3.677  10.847   7.088 -0.0332  0.7291  0.1053
  314MOL0     C43247   3.971   9.829   6.560  0.4522 -0.0602  0.3367
  314MOL0     C43248   4.053   9.719   6.527  0.0564 -0.0295 -0.3885
  314MOL0     C43249   4.360   9.439   6.340 -0.5707 -0.4347 -0.2223
  314MOL0     C43250   4.315   9.316   6.281 -0.0759 -0.0283  0.5295
  314MOL0     C43251   4.408   9.235   6.224 -0.8601  0.3272  1.2072
  314MOL0     C43252   4.541   9.268   6.203 -0.2709 -0.0338  0.6235
  314MOL0     O43253   4.624   9.183   6.149 -0.4484 -0.3353  0.0794
  314MOL0     C43254   4.765   9.207   6.162 -0.3133  0.2492  0.0907
  314MOL0     C43255   4.812   9.195   6.310 -0.8052  0.0930  0.1945
  314MOL0     C43256   4.972   9.197   6.316  0.4853  0.7093 -0.2613
  314MOL0     C43257   5.054   9.317   6.264  0.3508  0.8730  0.6296
  314MOL0     C43258   5.034   9.437   6.341  1.1641 -0.1271  0.7338
  314MOL0     C43259   5.002   9.537   6.403 -0.2989 -1.2454 -0.4635
  314MOL0     C43260   4.572   9.399   6.248 -0.3201 -0.7005 -0.1264
  314MOL0     C43261   4.488   9.487   6.318  0.4483 -0.0108  0.3421
  314MOL0     C43262   4.548   9.622   6.361  0.6873 -0.0566 -1.0592
  314MOL0     H43263   4.289   9.895   6.364  0.7233  1.8963  0.2152
  314MOL0     H43264   4.144  10.080   6.435  0.1455  0.2631  2.7147
  314MOL0     H43265   3.849   9.985   6.726 -3.1461  2.0876  3.2488
  314MOL0     H43266   3.733  10.023   6.590  1.5916 -0.5887 -1.5610
  314MOL0     H43267   3.686  10.166   6.807  0.4684 -1.1205 -0.4529
  314MOL0     H43268   3.856  10.221   6.798  0.0268 -1.2233  1.6126
  314MOL0     H43269   3.796  10.341   6.582 -0.2961 -0.9716 -1.1519
  314MOL0     H43270   3.646  10.280   6.576  2.8695  3.2454 -2.3027
  314MOL0     H43271   3.611  10.394   6.812 -1.3086 -0.8184 -0.8895
  314MOL0     H43272   3.772  10.471   6.788  0.1361  2.9290 -2.2278
  314MOL0     H43273   3.559  10.514   6.570  2.0595  0.6078 -1.6211
  314MOL0     H43274   3.721  10.571   6.591  0.0336  2.0372  0.9730
  314MOL0     H43275   3.524  10.719   6.679 -0.6604  0.3983  1.6386
  314MOL0     H43276   3.527  10.619   6.817 -0.0171 -1.8484 -0.7315
  314MOL0     H43277   3.769  10.768   6.691 -0.6424 -1.9241  0.2662
  314MOL0     H43278   3.770  10.679   6.840 -1.2221 -2.6933 -0.3274
  314MOL0     H43279   3.748  10.945   6.854  1.0266 -0.8795  1.9215
  314MOL0     H43280   3.603  10.924   6.763  2.4557 -0.2279 -1.6600
  314MOL0     H43281   3.385  10.898   6.937  1.9994  0.0192 -3.1208
  314MOL0     H43282   3.272  10.859   7.200  0.4061 -0.4711 -0.9065
  314MOL0     H43283   3.316  11.031   7.179  0.1430  0.7637  0.8675
  314MOL0     H43284   3.427  10.863   7.404 -4.7320 -2.1137 -0.7789
  314MOL0     H43285   3.476  11.028   7.381 -0.8080 -1.2795  2.5670
  314MOL0     H43286   3.341  11.076   7.556 -5.2385  1.7963  3.1047
  314MOL0     H43287   3.234  11.097   7.414 -1.2113  1.1469  2.7332
  314MOL0     H43288   3.105  10.954   7.586  1.2496  1.2238  1.5042
  314MOL0     H43289   3.157  10.869   7.440 -0.2629  3.0197 -1.3825
  314MOL0     H43290   3.096  10.903   7.807 -1.6295 -0.9567 -0.1372
  314MOL0     H43291   3.114  10.859   8.140 -0.6435  0.9263  0.8179
  314MOL0     H43292   3.027  10.953   8.010  0.0582  0.7251 -0.2941
  314MOL0     H43293   3.146  11.036   8.107 -0.0179 -0.5742 -0.1917
  314MOL0     H43294   3.154  10.901   8.430  0.8937  0.9039  0.6246
  314MOL0     H43295   3.159  10.826   8.653 -0.7700 -4.4543 -2.5934
  314MOL0     H43296   3.394  10.566   8.784  2.9186 -1.4246 -0.5531
  314MOL0     H43297   3.540  10.652   8.791 -0.8143 -0.0293 -1.1136
  314MOL0     H43298   3.487  10.709   9.035  0.6368 -0.6025  1.7246
  314MOL0     H43299   3.331  10.630   9.020  0.9944  0.4919  3.1190
  314MOL0     H43300   3.609  10.523   9.006 -0.3876  1.4842 -3.1796
  314MOL0     H43301   3.474  10.417   8.958 -3.9820  0.3882  2.3101
  314MOL0     H43302   3.509  10.568   9.220 -0.7977  0.4370 -0.9391
  314MOL0     H43303   3.573  10.410   9.223  0.1721  2.1102  3.6038
  314MOL0     H43304   3.272  10.468   9.226 -1.3362 -1.8534  2.3745
  314MOL0     H43305   3.327  10.328   9.154 -1.3627  1.2832 -0.7139
  314MOL0     H43306   3.481  10.289   9.374 -0.7901 -1.9550  2.8813
  314MOL0     H43307   3.309  10.252   9.339 -0.8140  1.1419 -1.1891
  314MOL0     H43308   3.250  10.475   9.445  0.7054  0.1940 -2.2500
  314MOL0     H43309   3.419  10.507   9.463  0.5705 -1.5573 -0.5074
  314MOL0     H43310   3.300  10.452   9.664 -0.7592 -2.4452  1.0498
  314MOL0     H43311   3.437  10.355   9.661 -1.1581  1.3896  3.6922
  314MOL0     H43312   3.594  10.809   8.630  0.6187 -0.9843 -2.1969
  314MOL0     H43313   3.570  10.851   8.392 -1.9701  1.4560 -5.0758
  314MOL0     H43314   3.566  10.879   7.936  1.5168  3.1508 -4.2042
  314MOL0     H43315   3.498  10.836   7.688 -1.9512 -2.8768 -1.3881
  314MOL0     H43316   3.884   9.790   6.612  0.1979  0.2419  0.1485
  314MOL0     H43317   4.011   9.625   6.561 -1.5791  0.9059  0.3164
  314MOL0     H43318   4.211   9.289   6.295 -1.0840  1.8313 -2.3862
  314MOL0     H43319   4.376   9.138   6.188  3.7371 -1.1611  0.4313
  314MOL0     H43320   4.832   9.147   6.099  0.0728  0.6166  0.1485
  314MOL0     H43321   4.791   9.304   6.119  1.8731 -0.1072  0.5160
  314MOL0     H43322   4.772   9.103   6.352 -0.5454 -0.0239  0.1858
  314MOL0     H43323   4.788   9.282   6.373  2.8708  2.3255 -1.1472
  314MOL0     H43324   4.990   9.191   6.424 -1.6358  1.0126  0.1541
  314MOL0     H43325   5.009   9.099   6.284 -3.2067 -1.2427  0.8443
  314MOL0     H43326   5.029   9.337   6.160  0.5548  1.0960  0.6225
  314MOL0     H43327   5.161   9.296   6.270  1.2187  4.4444  0.3333
  314MOL0     H43328   4.988   9.633   6.449 -2.7762 -0.9522 -1.6516
  314MOL0     H43329   4.674   9.431   6.230 -0.5614 -0.0400 -0.3558
  314MOL0     H43330   4.649   9.637   6.320  1.9453 -2.4540  0.8968
  314MOL0     H43331   4.485   9.708   6.337 -1.0051 -0.4622  1.5257
  314MOL0     H43332   4.557   9.618   6.470 -1.3979 -1.2141 -0.8797
  315MOL0     O43333   7.929   5.035   4.505 -0.1339  0.4536 -0.3340
  315MOL0     C43334   7.971   4.987   4.403  0.1250  0.8475 -0.8502
  315MOL0     O43335   7.891   4.948   4.300 -0.0138 -0.3944 -0.0277
  315MOL0     C43336   7.762   4.994   4.286  0.2533 -0.1532  1.1165
  315MOL0     C43337   7.654   4.903   4.279  0.2958 -0.4253  0.2123
  315MOL0     C43338   7.526   4.945   4.246 -0.0020 -0.6669  0.3058
  315MOL0     C43339   7.502   5.082   4.211  0.3387 -0.3510  0.9939
  315MOL0     O43340   7.376   5.124   4.173  0.3566  0.2511  0.1385
  315MOL0     C43341   7.277   5.027   4.143 -0.0521 -0.2440  0.4006
  315MOL0     C43342   7.151   5.102   4.094 -1.0231  0.2163  0.1476
  315MOL0     C43343   7.016   5.030   4.110  0.3133  0.2327 -0.1158
  315MOL0     C43344   7.028   4.878   4.079  0.2010 -0.3754  0.0450
  315MOL0     C43345   6.903   4.787   4.066 -0.0006  0.2478  1.0440
  315MOL0     C43346   6.830   4.786   4.206 -1.0942  0.2411 -0.3573
  315MOL0     C43347   6.711   4.690   4.220 -0.3222 -0.0601 -0.3998
  315MOL0     C43348   6.762   4.549   4.245  0.0583 -0.1874  0.0569
  315MOL0     N43349   6.653   4.463   4.272  0.9549 -0.1226  0.0890
  315MOL0     C43350   6.578   4.466   4.392 -0.4463 -0.0309 -0.4324
  315MOL0     C43351   6.465   4.391   4.375  0.1688 -0.8406  0.0782
  315MOL0     C43352   6.365   4.355   4.481  0.6440 -0.0752  0.1520
  315MOL0     C43353   6.215   4.378   4.426  0.3759  0.5037  1.2633
  315MOL0     C43354   6.120   4.447   4.527  1.1096 -0.0890 -0.3159
  315MOL0     C43355   5.973   4.423   4.498  0.1370 -0.1035 -0.5394
  315MOL0     O43356   5.951   4.290   4.550 -0.3852  0.4501 -0.0005
  315MOL0     C43357   5.826   4.231   4.535  0.6757 -0.0451 -0.7852
  315MOL0     C43358   5.796   4.113   4.605  0.7861 -0.6672 -0.2767
  315MOL0     C43359   5.668   4.061   4.603  0.4948 -0.0031 -0.4582
  315MOL0     C43360   5.648   3.926   4.682 -0.9677  0.5657 -0.3933
  315MOL0     C43361   5.564   4.125   4.534  0.0355  0.3399  0.8516
  315MOL0     C43362   5.426   4.076   4.521 -0.1567  0.4321  0.0802
  315MOL0     O43363   5.367   4.087   4.393  0.2802 -0.2073  0.4206
  315MOL0     C43364   5.236   4.044   4.387  0.7745  0.2367 -0.1202
  315MOL0     C43365   5.144   4.136   4.351 -0.1464 -0.1650  0.2617
  315MOL0     C43366   5.009   4.102   4.337 -0.7128  0.4532  0.4445
  315MOL0     C43367   4.967   3.973   4.365 -0.7942 -0.4825  0.1377
  315MOL0     O43368   4.835   3.966   4.350 -0.5838  0.4357 -0.0476
  315MOL0     C43369   4.797   3.852   4.285 -0.2371 -0.0601  0.4348
  315MOL0     C43370   4.651   3.851   4.235 -1.1902  0.6245  0.2403
  315MOL0     C43371   4.602   3.709   4.206 -0.4433 -0.0444 -0.2702
  315MOL0     C43372   4.455   3.714   4.168 -0.8161 -0.0259 -0.6626
  315MOL0     C43373   4.404   3.575   4.187 -0.1946  0.4508 -0.2380
  315MOL0     C43374   4.257   3.585   4.156  0.4704 -0.3378 -0.4624
  315MOL0     C43375   4.162   3.458   4.184 -0.4781  0.6094 -0.5621
  315MOL0     C43376   4.010   3.495   4.180  0.4575  0.1552  0.2307
  315MOL0    Cl43377   3.966   3.554   4.016  0.0143 -0.2562 -0.1123
  315MOL0     C43378   5.060   3.878   4.410  0.2832 -0.2492  0.2517
  315MOL0     C43379   5.202   3.905   4.412 -0.5455 -1.0255  0.4077
  315MOL0     O43380   5.365   4.029   4.616 -0.4336  0.1562 -0.2796
  315MOL0     C43381   5.599   4.232   4.453 -0.2325  0.2180  0.3608
  315MOL0     C43382   5.726   4.291   4.459  0.5437  0.8040 -0.3127
  315MOL0     N43383   6.471   4.345   4.248  0.2600  0.4816 -0.7096
  315MOL0     N43384   6.572   4.389   4.188 -0.3807 -0.0401  0.1514
  315MOL0     C43385   7.607   5.177   4.219 -1.1699  0.6285  0.5908
  315MOL0     C43386   7.733   5.132   4.267  0.9624 -0.0022  0.4413
  315MOL0     C43387   8.117   4.935   4.403  0.2485 -0.0834 -0.3928
  315MOL0     C43388   8.198   4.939   4.518 -0.0954  0.5663 -0.8144
  315MOL0     C43389   8.327   4.887   4.529 -0.2267  0.0876  0.4112
  315MOL0     C43390   8.385   4.851   4.408 -0.0761 -0.0896  0.0427
  315MOL0     O43391   8.519   4.810   4.424  0.1174  0.4736 -0.9670
  315MOL0     C43392   8.612   4.921   4.402 -0.3344  0.5583 -0.1124
  315MOL0     C43393   8.758   4.874   4.383 -1.0710 -0.6990  1.2501
  315MOL0     C43394   8.851   4.994   4.350  0.3105 -1.1413  0.0985
  315MOL0     C43395   8.983   4.959   4.286 -0.5805  1.3146 -0.2076
  315MOL0     C43396   9.091   4.924   4.387  0.4822  0.2669 -0.7283
  315MOL0     C43397   9.181   4.891   4.466 -0.0617 -1.2433  1.0205
  315MOL0     C43398   8.314   4.856   4.289 -0.3147  0.9964 -0.1076
  315MOL0     C43399   8.180   4.891   4.282  0.1835 -0.4692 -0.0492
  315MOL0     C43400   8.113   4.890   4.141 -1.1254  0.1872 -0.1227
  315MOL0     H43401   7.657   4.797   4.304 -1.2032 -0.5095  0.1380
  315MOL0     H43402   7.446   4.872   4.248  0.2536 -1.0584 -1.5602
  315MOL0     H43403   7.242   4.982   4.236 -2.3696  1.2961  0.3487
  315MOL0     H43404   7.314   4.957   4.067 -1.9732  0.1103 -0.9375
  315MOL0     H43405   7.146   5.189   4.160 -0.6972  2.3899 -2.4983
  315MOL0     H43406   7.164   5.140   3.992 -1.5207 -1.7459 -0.6979
  315MOL0     H43407   6.976   5.043   4.212 -1.1557 -2.5124 -0.2461
  315MOL0     H43408   6.949   5.072   4.035 -0.0679  1.9094  1.0974
  315MOL0     H43409   7.074   4.867   3.980 -1.3808 -2.8353 -0.5055
  315MOL0     H43410   7.101   4.835   4.148 -1.9657 -2.0895  1.3938
  315MOL0     H43411   6.924   4.682   4.047  1.7470  0.3041  2.4401
  315MOL0     H43412   6.837   4.828   3.989 -0.9978 -0.1574  1.6650
  315MOL0     H43413   6.902   4.783   4.288  0.4825  0.2100 -1.6844
  315MOL0     H43414   6.807   4.892   4.221  3.1991  1.2856  0.1375
  315MOL0     H43415   6.645   4.714   4.136 -3.3286  2.6093  2.4313
  315MOL0     H43416   6.655   4.730   4.304 -0.4991  1.6702 -1.2918
  315MOL0     H43417   6.817   4.509   4.158 -2.2785 -0.5418 -1.3372
  315MOL0     H43418   6.834   4.553   4.327 -0.4702 -2.2045  0.6794
  315MOL0     H43419   6.607   4.514   4.485  0.0279 -1.1415  0.0205
  315MOL0     H43420   6.373   4.424   4.566  2.1096 -1.0510  0.8474
  315MOL0     H43421   6.372   4.255   4.524 -3.3484 -0.6798 -0.2667
  315MOL0     H43422   6.220   4.446   4.340 -0.0416  2.3149  2.6095
  315MOL0     H43423   6.179   4.279   4.396  0.1545  0.5494  1.3745
  315MOL0     H43424   6.137   4.422   4.632 -0.6323 -1.0417 -0.2208
  315MOL0     H43425   6.147   4.553   4.530  2.6456 -0.4685  0.1498
  315MOL0     H43426   5.906   4.490   4.553  0.0541  1.4465 -2.3891
  315MOL0     H43427   5.945   4.432   4.393  0.0658  1.2043 -0.4347
  315MOL0     H43428   5.869   4.063   4.668  0.6387 -1.3975 -0.6755
  315MOL0     H43429   5.550   3.925   4.729 -0.2504  1.5827  1.2039
  315MOL0     H43430   5.725   3.905   4.757 -0.3623 -1.2011 -1.4297
  315MOL0     H43431   5.649   3.835   4.620 -1.1998  0.3931 -0.1410
  315MOL0     H43432   5.166   4.236   4.316 -0.1453 -1.2328 -3.1535
  315MOL0     H43433   4.929   4.168   4.305 -1.6956 -0.7910  0.2390
  315MOL0     H43434   4.870   3.827   4.207 -1.0876 -0.4687 -0.2571
  315MOL0     H43435   4.800   3.776   4.364 -2.6008 -0.4576  0.1997
  315MOL0     H43436   4.578   3.886   4.310 -1.1456  3.2803 -0.8498
  315MOL0     H43437   4.649   3.908   4.142 -0.8171  1.0652  0.4989
  315MOL0     H43438   4.609   3.659   4.303 -2.4522  1.5471  0.7537
  315MOL0     H43439   4.667   3.661   4.132 -0.2722  1.3032 -1.0205
  315MOL0     H43440   4.447   3.741   4.062  0.7156 -1.8710 -1.3082
  315MOL0     H43441   4.404   3.793   4.224 -1.7039  1.5438 -3.4499
  315MOL0     H43442   4.464   3.503   4.130  2.1825  0.8105  1.6250
  315MOL0     H43443   4.423   3.545   4.291  0.5991  0.8637 -0.2559
  315MOL0     H43444   4.241   3.615   4.052 -0.5835 -1.1461 -0.5410
  315MOL0     H43445   4.213   3.672   4.206  1.1675 -0.1670 -0.1229
  315MOL0     H43446   4.188   3.417   4.282  1.2439  1.0985 -0.7974
  315MOL0     H43447   4.179   3.375   4.115  0.9950  0.5997 -0.2118
  315MOL0     H43448   3.973   3.574   4.245  0.5505  1.6705 -1.5013
  315MOL0     H43449   3.952   3.406   4.207  1.2574 -0.2536  0.6449
  315MOL0     H43450   5.040   3.774   4.433  0.1751 -0.3980 -0.4773
  315MOL0     H43451   5.277   3.833   4.443 -0.6592 -1.2106  0.2554
  315MOL0     H43452   5.524   4.278   4.389  1.1263  0.8176 -0.8505
  315MOL0     H43453   5.730   4.384   4.402 -1.2938  1.1355  0.0436
  315MOL0     H43454   7.592   5.279   4.184 -2.5433  1.2949  2.9130
  315MOL0     H43455   7.822   5.194   4.269  2.9214 -2.4940 -1.8008
  315MOL0     H43456   8.143   4.974   4.604  1.9566  0.1447  0.7622
  315MOL0     H43457   8.383   4.897   4.622 -2.1854  1.0696  1.5478
  315MOL0     H43458   8.572   4.987   4.324 -0.3695  1.0417  0.3138
  315MOL0     H43459   8.623   4.978   4.494  0.9222  2.1088 -1.1559
  315MOL0     H43460   8.755   4.805   4.299 -1.3854 -0.8381  1.3730
  315MOL0     H43461   8.778   4.812   4.471  0.0103 -0.5879  1.0884
  315MOL0     H43462   8.799   5.051   4.272 -0.0781  0.6921  1.6359
  315MOL0     H43463   8.863   5.057   4.438  2.0112  0.0313 -0.9117
  315MOL0     H43464   9.007   5.044   4.221  0.4871 -0.4926 -2.3268
  315MOL0     H43465   8.984   4.871   4.220  4.8867  0.6425  0.2616
  315MOL0     H43466   9.262   4.870   4.533  1.4729  0.5929 -0.1410
  315MOL0     H43467   8.366   4.799   4.212  0.9395 -2.3733  2.9221
  315MOL0     H43468   8.183   4.875   4.058  1.3955 -0.3539  1.9718
  315MOL0     H43469   8.048   4.802   4.142  0.9737 -1.4699  1.4489
  315MOL0     H43470   8.047   4.975   4.124 -0.3826  0.4778 -1.7530
  316MOL0     O43471   3.657   8.714   2.225  0.7666  0.8038  0.3120
  316MOL0     C43472   3.689   8.808   2.297  0.7152  0.9189 -0.7319
  316MOL0     O43473   3.621   8.847   2.411  0.4770  0.0339  0.3846
  316MOL0     C43474   3.480   8.834   2.405 -0.7540  1.0832 -0.7430
  316MOL0     C43475   3.390   8.931   2.386 -0.7692 -0.2027  0.4717
  316MOL0     C43476   3.250   8.901   2.375 -0.2669 -0.7907  0.5748
  316MOL0     C43477   3.200   8.766   2.383  0.5450 -0.3278 -0.6320
  316MOL0     O43478   3.059   8.745   2.382 -0.3952  0.5422 -0.5555
  316MOL0     C43479   3.004   8.630   2.314 -0.1826 -0.1788 -0.0180
  316MOL0     C43480   2.854   8.613   2.335  0.7281 -0.1770  0.4395
  316MOL0     C43481   2.816   8.477   2.282 -0.5343 -0.2741  0.1076
  316MOL0     C43482   2.665   8.451   2.280 -0.2385 -0.2505 -0.4622
  316MOL0     C43483   2.643   8.315   2.219  0.0062 -0.4917 -0.3217
  316MOL0     C43484   2.504   8.257   2.228  0.4316 -0.5315 -0.2625
  316MOL0     C43485   2.380   8.307   2.144  0.1457  0.0188 -1.3146
  316MOL0     C43486   2.257   8.219   2.174 -0.1822 -0.9930  0.5922
  316MOL0     N43487   2.132   8.261   2.107 -0.5455  0.0182  0.2837
  316MOL0     C43488   2.085   8.214   1.982  0.0760 -0.0188 -0.2605
  316MOL0     C43489   1.970   8.278   1.960  0.6334 -0.0518 -0.4662
  316MOL0     C43490   1.872   8.265   1.847  0.0486  0.0757 -0.1508
  316MOL0     C43491   1.905   8.358   1.726 -0.3276 -0.0999 -0.2080
  316MOL0     C43492   2.042   8.352   1.671 -1.1138  0.4209 -0.7254
  316MOL0     C43493   2.072   8.214   1.597  0.1010 -1.4424 -0.6043
  316MOL0     O43494   2.202   8.209   1.538  0.4196 -0.1228 -0.1074
  316MOL0     C43495   2.193   8.263   1.414 -0.1857 -0.2342  0.1637
  316MOL0     C43496   2.135   8.195   1.301 -0.9387 -0.7158  0.1420
  316MOL0     C43497   2.125   8.254   1.169  0.0817  0.0446 -0.1566
  316MOL0     C43498   2.023   8.191   1.071  0.7216  0.1855  0.1424
  316MOL0     C43499   2.185   8.386   1.153 -0.3915  0.2850 -0.0628
  316MOL0     C43500   2.181   8.457   1.022 -0.0478  0.1771 -0.2982
  316MOL0     O43501   2.195   8.595   1.035 -0.2722 -0.3133  0.3524
  316MOL0     C43502   2.207   8.677   0.921 -0.0327  0.2107 -0.3231
  316MOL0     C43503   2.303   8.656   0.822  0.7491  0.7353  0.6898
  316MOL0     C43504   2.326   8.738   0.711  0.0365 -0.2405 -0.4974
  316MOL0     C43505   2.238   8.850   0.701  0.5213  0.0839 -0.4631
  316MOL0     O43506   2.233   8.933   0.596  0.0836  0.5384 -0.2723
  316MOL0     C43507   2.276   8.889   0.466 -0.9081 -0.8463  0.2423
  316MOL0     C43508   2.237   8.982   0.351 -0.4261  0.1805  1.0829
  316MOL0     C43509   2.081   8.982   0.339  0.0719 -0.1752 -0.4888
  316MOL0     C43510   2.054   9.085   0.230  0.5609  0.8760 -0.7269
  316MOL0     C43511   1.909   9.096   0.177 -0.1330 -0.0353 -0.1938
  316MOL0     C43512   1.829   9.162   0.299  0.5820 -0.7854 -0.3014
  316MOL0     C43513   1.672   9.165   0.290 -0.6451  0.0364  0.5778
  316MOL0     C43514   1.627   9.251   0.166  0.5536  0.2131 -0.3620
  316MOL0    Cl43515   1.444   9.257   0.174  0.1350 -0.2199  0.6102
  316MOL0     C43516   2.130   8.870   0.793 -0.2626 -0.3330  0.1331
  316MOL0     C43517   2.118   8.781   0.903  0.1515  0.5846 -0.1611
  316MOL0     O43518   2.174   8.403   0.913 -0.0322  0.5070  0.3285
  316MOL0     C43519   2.235   8.460   1.265  0.1641  0.1995  1.5166
  316MOL0     C43520   2.235   8.393   1.390 -0.1033 -0.7321  0.1040
  316MOL0     N43521   1.947   8.369   2.068  0.2233  0.0745 -0.3238
  316MOL0     N43522   2.052   8.358   2.152 -0.9316 -0.6685  0.2164
  316MOL0     C43523   3.297   8.666   2.401  0.2180  0.7117 -0.2803
  316MOL0     C43524   3.433   8.701   2.420  0.0706 -0.8415  0.6517
  316MOL0     C43525   3.811   8.886   2.268 -0.5719 -0.0132 -0.3469
  316MOL0     C43526   3.853   8.980   2.360  0.2176 -0.5962  0.7926
  316MOL0     C43527   3.960   9.060   2.331 -0.0287  0.0327  0.7782
  316MOL0     C43528   4.022   9.068   2.208 -0.3481  0.2231 -0.8986
  316MOL0     O43529   4.127   9.151   2.179  0.7462 -0.2267  0.8403
  316MOL0     C43530   4.103   9.292   2.207 -0.2543  1.3833 -0.2788
  316MOL0     C43531   4.208   9.350   2.309  0.8371  0.1461 -0.0716
  316MOL0     C43532   4.204   9.503   2.316 -0.1063  0.5468 -0.2842
  316MOL0     C43533   4.330   9.551   2.382  0.0912 -0.0312  0.4218
  316MOL0     C43534   4.343   9.700   2.401 -0.4774 -0.4392 -0.5592
  316MOL0     C43535   4.329   9.818   2.433 -0.2884 -0.0104 -0.0842
  316MOL0     C43536   3.992   8.964   2.123  1.1474  1.0758  0.0506
  316MOL0     C43537   3.886   8.873   2.154  0.2975 -0.0224 -0.0517
  316MOL0     C43538   3.848   8.768   2.048 -0.6499 -0.5286 -0.0766
  316MOL0     H43539   3.413   9.037   2.383  0.7309 -0.4300  1.9664
  316MOL0     H43540   3.185   8.986   2.353 -0.9219 -2.1383 -3.8302
  316MOL0     H43541   3.057   8.542   2.352  1.6720  2.1546  3.3623
  316MOL0     H43542   3.016   8.637   2.206 -2.0291 -0.6072 -0.2786
  316MOL0     H43543   2.810   8.628   2.434 -0.7860  2.6028 -0.5343
  316MOL0     H43544   2.809   8.691   2.273 -1.2236 -1.1307  0.5916
  316MOL0     H43545   2.858   8.471   2.182  1.7343 -0.1298  1.0030
  316MOL0     H43546   2.870   8.402   2.339  2.2518  1.5344  0.0198
  316MOL0     H43547   2.626   8.461   2.382  1.5220  0.3929  0.1880
  316MOL0     H43548   2.599   8.524   2.233 -1.1705 -0.2658  0.7637
  316MOL0     H43549   2.711   8.237   2.253 -3.2007 -2.8226  1.1625
  316MOL0     H43550   2.670   8.341   2.116  1.1501  1.5623  0.4310
  316MOL0     H43551   2.525   8.151   2.211  1.5919 -0.4263  0.3814
  316MOL0     H43552   2.482   8.260   2.335 -2.0307 -1.2534 -0.7051
  316MOL0     H43553   2.395   8.309   2.036 -2.0452  1.1310 -1.6478
  316MOL0     H43554   2.362   8.410   2.179 -0.5823 -0.1473 -1.2018
  316MOL0     H43555   2.278   8.114   2.148 -1.2891 -1.2471  0.6585
  316MOL0     H43556   2.241   8.233   2.281  1.2861  2.0616  0.5235
  316MOL0     H43557   2.136   8.155   1.907  1.5044 -1.9171  2.0856
  316MOL0     H43558   1.768   8.282   1.876 -0.2834  0.4458 -1.4829
  316MOL0     H43559   1.884   8.158   1.826  1.2038 -0.0606  1.0918
  316MOL0     H43560   1.834   8.324   1.651 -1.1362  1.1983 -0.0540
  316MOL0     H43561   1.884   8.462   1.755 -2.2664  0.4538 -3.2086
  316MOL0     H43562   2.055   8.435   1.601 -1.9707  2.1878  1.1085
  316MOL0     H43563   2.118   8.380   1.746  0.6994  0.6180 -2.5389
  316MOL0     H43564   2.060   8.139   1.676 -2.2289  1.0138  1.6069
  316MOL0     H43565   1.995   8.184   1.525 -0.8912 -3.3335  1.1377
  316MOL0     H43566   2.102   8.096   1.330  1.5571 -1.2804  1.3146
  316MOL0     H43567   2.013   8.233   0.970 -0.1301  0.9258  0.5136
  316MOL0     H43568   1.932   8.211   1.129  0.6653  1.4180 -0.3420
  316MOL0     H43569   2.041   8.084   1.064  1.4857  0.3525 -0.5677
  316MOL0     H43570   2.353   8.561   0.832 -1.1092 -0.6237 -1.6957
  316MOL0     H43571   2.403   8.707   0.642 -2.0737 -1.1058 -2.5927
  316MOL0     H43572   2.382   8.871   0.488 -0.8178  0.5380  1.0408
  316MOL0     H43573   2.221   8.798   0.440 -3.7673  0.9705 -0.5447
  316MOL0     H43574   2.276   9.083   0.371 -0.1898  0.0672  1.2036
  316MOL0     H43575   2.284   8.943   0.260 -1.8848 -2.4966  1.3930
  316MOL0     H43576   2.043   9.018   0.436  0.4348  0.6835 -0.6601
  316MOL0     H43577   2.049   8.879   0.320  1.3217 -0.4145 -1.4804
  316MOL0     H43578   2.108   9.049   0.142 -1.3010 -1.8313 -0.8986
  316MOL0     H43579   2.075   9.183   0.274 -0.8784  1.2456 -0.8072
  316MOL0     H43580   1.910   9.161   0.088 -4.1134  0.0329 -0.3626
  316MOL0     H43581   1.860   9.001   0.159  0.3256 -0.0783 -1.3456
  316MOL0     H43582   1.864   9.265   0.313  1.6427 -1.4554  2.6013
  316MOL0     H43583   1.850   9.105   0.390 -0.0680  1.1431  1.1231
  316MOL0     H43584   1.628   9.220   0.374  0.0536  0.1521  0.8737
  316MOL0     H43585   1.623   9.067   0.284  0.4625 -0.4607 -3.0337
  316MOL0     H43586   1.665   9.196   0.080  0.0155  1.6507 -1.5758
  316MOL0     H43587   1.662   9.354   0.159  0.3150  0.4940  1.7948
  316MOL0     H43588   2.065   8.956   0.784 -0.2331 -0.4903 -2.2032
  316MOL0     H43589   2.043   8.792   0.981  1.0943 -0.8181  1.0078
  316MOL0     H43590   2.278   8.558   1.250 -0.1227  0.0006 -1.0785
  316MOL0     H43591   2.267   8.447   1.479 -0.4214  0.2800 -0.3857
  316MOL0     H43592   3.278   8.560   2.382  1.8968  0.4544 -0.7003
  316MOL0     H43593   3.502   8.617   2.424  0.0151 -0.9825 -0.8332
  316MOL0     H43594   3.813   8.987   2.461 -1.7605  1.1148 -0.0399
  316MOL0     H43595   3.989   9.132   2.408 -2.5346  0.4563  1.3981
  316MOL0     H43596   4.121   9.344   2.113 -0.0748  0.5694 -0.7009
  316MOL0     H43597   4.004   9.313   2.250 -0.9552 -0.9513 -0.6261
  316MOL0     H43598   4.310   9.327   2.274  1.1593  1.7331 -0.2463
  316MOL0     H43599   4.203   9.316   2.413  3.3709 -2.4815 -0.6628
  316MOL0     H43600   4.194   9.545   2.216  0.3557 -0.7582 -0.9112
  316MOL0     H43601   4.123   9.530   2.385 -1.1584 -0.9721 -0.8689
  316MOL0     H43602   4.422   9.516   2.334 -1.0233  0.6345 -2.4074
  316MOL0     H43603   4.337   9.509   2.483 -0.2915  0.2439  0.5642
  316MOL0     H43604   4.315   9.920   2.463 -1.8391 -0.2446  0.0598
  316MOL0     H43605   4.037   8.954   2.025 -2.7829  1.9961 -2.0219
  316MOL0     H43606   3.916   8.789   1.965  0.0965 -2.2409  0.0394
  316MOL0     H43607   3.882   8.668   2.080  1.0865 -0.6842 -2.1309
  316MOL0     H43608   3.746   8.778   2.010 -1.1373  0.7856  1.4707
  317MOL0     O43609   7.604   5.364   3.932 -0.4700  0.4943 -0.8602
  317MOL0     C43610   7.553   5.471   3.904 -0.1055  0.0854 -0.1425
  317MOL0     O43611   7.616   5.590   3.870  0.5241 -0.1689  0.2835
  317MOL0     C43612   7.752   5.586   3.867 -0.2822 -0.4841 -0.0191
  317MOL0     C43613   7.825   5.627   3.758  0.2894  0.2165  0.2878
  317MOL0     C43614   7.969   5.641   3.760  0.5793 -0.2602 -0.5023
  317MOL0     C43615   8.030   5.618   3.882 -0.8013  0.0318 -0.3274
  317MOL0     O43616   8.165   5.642   3.887 -0.3053  0.1293  0.8519
  317MOL0     C43617   8.223   5.677   4.012 -0.8532 -0.4312  0.0517
  317MOL0     C43618   8.363   5.730   3.978 -0.4416 -0.1038 -0.1504
  317MOL0     C43619   8.362   5.863   3.902 -0.1345  0.2726 -0.2341
  317MOL0     C43620   8.502   5.921   3.899  0.0766  0.0980  0.2484
  317MOL0     C43621   8.478   6.073   3.886  0.6499 -0.7183  0.3356
  317MOL0     C43622   8.599   6.147   3.821  1.1058  0.3578  1.1569
  317MOL0     C43623   8.724   6.134   3.915 -0.7585 -0.3885 -0.8334
  317MOL0     C43624   8.846   6.173   3.834  0.7057  0.2507 -0.8065
  317MOL0     N43625   8.971   6.148   3.918 -0.1169  0.8771  0.0825
  317MOL0     C43626   9.089   6.216   3.896 -0.1903  0.5355  0.1958
  317MOL0     C43627   9.179   6.156   3.979 -0.2761 -0.2679 -0.6979
  317MOL0     C43628   9.323   6.185   3.991  0.3472 -0.2212  1.1438
  317MOL0     C43629   9.391   6.130   4.117  0.1776 -0.0116 -0.2510
  317MOL0     C43630   9.535   6.178   4.128  0.0710  0.1251 -0.5205
  317MOL0     C43631   9.604   6.114   4.256  0.2305 -0.4005  1.2076
  317MOL0     O43632   9.740   6.097   4.237 -0.4521  0.0938 -0.1709
  317MOL0     C43633   9.817   6.207   4.252  0.0714  0.1126 -1.0460
  317MOL0     C43634   9.792   6.320   4.331 -0.0628 -0.2356  0.1929
  317MOL0     C43635   9.879   6.424   4.332  0.3693 -0.1077 -0.9153
  317MOL0     C43636   9.837   6.536   4.421  1.1285 -0.1835 -0.1831
  317MOL0     C43637   9.998   6.428   4.252 -0.1068 -1.1173 -0.1695
  317MOL0     C43638  10.093   6.544   4.246  1.4107 -0.0218 -0.4516
  317MOL0     O43639  10.203   6.528   4.176  0.2809  0.1038  0.3085
  317MOL0     C43640  10.296   6.623   4.162 -0.8876 -0.5246 -0.1946
  317MOL0     C43641  10.332   6.719   4.261  0.4097 -0.7870  0.2185
  317MOL0     C43642  10.444   6.806   4.253  0.0814  0.1170 -0.4164
  317MOL0     C43643  10.520   6.793   4.143 -0.2718 -0.0264 -0.0810
  317MOL0     O43644  10.639   6.863   4.134  0.7858  0.1980 -0.3904
  317MOL0     C43645  10.747   6.838   4.047 -0.8631  1.2589  0.6609
  317MOL0     C43646  10.858   6.932   4.089  1.1377 -0.5342 -0.3323
  317MOL0     C43647  10.967   6.864   4.174 -0.1779  0.3674  0.3950
  317MOL0     C43648  11.063   6.977   4.222  0.5846 -0.2100  0.3823
  317MOL0     C43649  11.196   6.916   4.266  0.1696  0.4293 -0.7053
  317MOL0     C43650  11.295   7.023   4.283  0.3119 -0.9717  0.7000
  317MOL0     C43651  11.435   6.976   4.320 -0.1276  0.3456  0.2428
  317MOL0     C43652  11.467   7.007   4.466 -0.6962 -0.4437 -0.2097
  317MOL0    Cl43653  11.491   7.186   4.501 -0.4333  0.1164  0.0531
  317MOL0     C43654  10.483   6.705   4.042 -0.2121 -0.5075 -0.2831
  317MOL0     C43655  10.377   6.610   4.046  0.5740  0.0577  0.4447
  317MOL0     O43656  10.063   6.652   4.292 -0.1152 -0.3704 -0.6979
  317MOL0     C43657  10.034   6.311   4.191  1.0987  0.3129 -0.3071
  317MOL0     C43658   9.946   6.198   4.198  0.5055  0.3361 -0.1216
  317MOL0     N43659   9.118   6.052   4.045  0.6733  0.5292 -0.0461
  317MOL0     N43660   8.990   6.055   4.011 -0.1996  0.7390 -0.2331
  317MOL0     C43661   7.960   5.568   3.991  0.4289 -0.6949 -0.1224
  317MOL0     C43662   7.824   5.563   3.980  0.1677 -0.6397 -0.2037
  317MOL0     C43663   7.406   5.494   3.927 -0.6571 -0.0722  0.2896
  317MOL0     C43664   7.361   5.610   3.983  0.3858 -0.0602 -0.0735
  317MOL0     C43665   7.225   5.629   4.011  0.0901 -0.2772  0.9267
  317MOL0     C43666   7.131   5.536   3.962 -0.0916  0.2650 -0.0122
  317MOL0     O43667   6.992   5.551   3.975 -0.2311 -0.9951 -0.6031
  317MOL0     C43668   6.896   5.441   3.968 -0.4250  0.1749  0.2076
  317MOL0     C43669   6.755   5.484   4.006  0.6928 -0.9085  0.3124
  317MOL0     C43670   6.754   5.579   4.140 -0.7324 -0.1604  0.6507
  317MOL0     C43671   6.615   5.599   4.197 -0.5859  0.0760  0.6343
  317MOL0     C43672   6.549   5.708   4.120 -0.2164 -0.1558  0.0423
  317MOL0     C43673   6.497   5.801   4.062  0.7453  1.2758  0.8526
  317MOL0     C43674   7.174   5.430   3.885  0.2667 -0.7107  0.1660
  317MOL0     C43675   7.308   5.405   3.875 -0.3916  0.1763  0.3058
  317MOL0     C43676   7.338   5.280   3.788  0.0176 -0.1916 -0.1291
  317MOL0     H43677   7.766   5.647   3.669 -0.2411  0.8384  0.7650
  317MOL0     H43678   8.015   5.666   3.664 -0.5209 -1.2961 -1.3236
  317MOL0     H43679   8.230   5.582   4.067  0.3370  1.6909  3.9113
  317MOL0     H43680   8.168   5.753   4.067  0.4755  2.4900 -2.3898
  317MOL0     H43681   8.418   5.758   4.068  1.1175  1.2336 -1.4468
  317MOL0     H43682   8.432   5.659   3.930  0.6050  0.6020  0.2759
  317MOL0     H43683   8.330   5.843   3.799 -0.4397 -0.3518 -0.0287
  317MOL0     H43684   8.293   5.925   3.959  0.2842 -0.3777  1.0161
  317MOL0     H43685   8.562   5.902   3.989  0.7297 -0.8985 -0.3735
  317MOL0     H43686   8.560   5.887   3.813 -1.5345 -1.4826 -0.2893
  317MOL0     H43687   8.447   6.112   3.983  1.8999  0.5035  0.2841
  317MOL0     H43688   8.395   6.098   3.819  0.9528  2.7258  1.0387
  317MOL0     H43689   8.616   6.099   3.724 -2.5984  1.2801 -0.1227
  317MOL0     H43690   8.580   6.252   3.796  2.1215  0.1349 -0.7642
  317MOL0     H43691   8.745   6.030   3.942  1.0447  0.0981 -0.2177
  317MOL0     H43692   8.718   6.198   4.003 -0.1748 -0.0002 -1.0652
  317MOL0     H43693   8.856   6.105   3.750  1.3921 -0.4478 -0.1703
  317MOL0     H43694   8.853   6.275   3.794  1.7503  0.4416 -0.1770
  317MOL0     H43695   9.120   6.288   3.822 -0.2896  0.6935  0.3067
  317MOL0     H43696   9.319   6.294   3.992 -2.8796 -0.2550  0.5337
  317MOL0     H43697   9.371   6.140   3.903 -3.4669 -0.4761 -1.0188
  317MOL0     H43698   9.352   6.170   4.211  1.2420 -1.7501  0.9925
  317MOL0     H43699   9.375   6.022   4.126  0.0857  0.1842  3.2370
  317MOL0     H43700   9.589   6.150   4.037 -2.4763  0.8361 -2.3790
  317MOL0     H43701   9.537   6.286   4.141  2.5824  0.2723 -1.5831
  317MOL0     H43702   9.588   6.168   4.350  0.6117 -1.4266  1.8850
  317MOL0     H43703   9.560   6.017   4.280  1.2276 -1.3442 -0.5520
  317MOL0     H43704   9.701   6.336   4.388  1.4582  2.4389  2.1254
  317MOL0     H43705   9.780   6.495   4.505  0.7920  0.3029 -0.1649
  317MOL0     H43706   9.769   6.602   4.366 -0.6722 -1.3431  0.5401
  317MOL0     H43707   9.924   6.588   4.462  1.0526  0.5016 -0.8667
  317MOL0     H43708  10.274   6.720   4.352  1.1390 -0.4946  0.6883
  317MOL0     H43709  10.474   6.868   4.336  1.2088  1.5186 -1.8165
  317MOL0     H43710  10.775   6.733   4.056 -3.1023  0.6358  0.9677
  317MOL0     H43711  10.730   6.852   3.939 -0.2651  0.9141  0.5125
  317MOL0     H43712  10.905   6.980   4.003  0.8815 -1.4918 -1.0179
  317MOL0     H43713  10.803   7.007   4.148  0.1603 -1.8020  0.4306
  317MOL0     H43714  11.020   6.796   4.108  1.3021  1.0518  0.8467
  317MOL0     H43715  10.924   6.807   4.257 -1.9776  0.2849 -0.5306
  317MOL0     H43716  11.014   7.039   4.298  0.0065  0.2179 -0.3228
  317MOL0     H43717  11.084   7.042   4.136 -2.2069  1.1876  0.6555
  317MOL0     H43718  11.179   6.867   4.363  1.6328 -0.4550 -0.8736
  317MOL0     H43719  11.229   6.850   4.186 -1.1738 -0.0204 -0.9159
  317MOL0     H43720  11.243   7.080   4.361 -3.4107  0.4119 -2.4604
  317MOL0     H43721  11.303   7.084   4.193 -1.7138 -4.0356 -1.7415
  317MOL0     H43722  11.518   7.018   4.263  1.3316 -0.3084  1.8003
  317MOL0     H43723  11.442   6.867   4.310 -0.6681  0.4609 -2.0831
  317MOL0     H43724  11.553   6.947   4.495 -1.1427 -2.0189 -1.9752
  317MOL0     H43725  11.389   6.964   4.531 -0.9054  0.8972  0.4709
  317MOL0     H43726  10.543   6.714   3.952 -1.8365 -0.8253 -1.4421
  317MOL0     H43727  10.338   6.545   3.969 -0.8192 -2.1125  2.8227
  317MOL0     H43728  10.127   6.306   4.135  1.9910  0.2161  1.1354
  317MOL0     H43729   9.978   6.104   4.154  3.4575  1.1384  0.0687
  317MOL0     H43730   8.011   5.552   4.086  1.0677 -2.2974 -0.6986
  317MOL0     H43731   7.771   5.533   4.070  0.8122  0.2976  0.5158
  317MOL0     H43732   7.419   5.692   4.023 -1.4586  1.1378  0.2559
  317MOL0     H43733   7.190   5.715   4.067  0.0309 -0.2725  0.8818
  317MOL0     H43734   6.897   5.399   3.867  3.4265  2.4960 -0.9288
  317MOL0     H43735   6.915   5.361   4.041 -2.4289  0.7915  1.5049
  317MOL0     H43736   6.681   5.404   4.016 -0.9254  0.4935  0.0946
  317MOL0     H43737   6.725   5.533   3.913  3.0087 -0.6569 -0.3639
  317MOL0     H43738   6.814   5.541   4.223  0.0371 -0.9099 -0.2326
  317MOL0     H43739   6.807   5.671   4.112  0.5061 -1.7608 -2.8198
  317MOL0     H43740   6.622   5.630   4.302  1.5878 -0.5339  0.7228
  317MOL0     H43741   6.547   5.514   4.188  0.5053 -0.8438  0.8361
  317MOL0     H43742   6.466   5.880   3.996  0.3249 -1.5744 -2.6676
  317MOL0     H43743   7.102   5.369   3.832  1.3231 -1.1379 -0.7900
  317MOL0     H43744   7.264   5.204   3.818 -2.8821  0.9250 -3.7112
  317MOL0     H43745   7.343   5.298   3.681 -0.4775 -1.2537 -0.3467
  317MOL0     H43746   7.436   5.242   3.818  1.1347  1.7134 -1.2193
  318MOL0     O43747  11.427   6.184   5.514 -0.0948  0.3527 -0.0853
  318MOL0     C43748  11.457   6.300   5.484  0.7944  0.6861  0.4848
  318MOL0     O43749  11.588   6.350   5.493 -0.7906  0.0838 -0.2537
  318MOL0     C43750  11.701   6.274   5.501 -0.0243 -0.0898 -0.1445
  318MOL0     C43751  11.807   6.325   5.575 -1.1907 -0.6551 -0.4707
  318MOL0     C43752  11.921   6.244   5.585 -0.4699  0.6724 -0.2610
  318MOL0     C43753  11.940   6.121   5.513  0.1051  0.5670 -0.1801
  318MOL0     O43754  12.055   6.048   5.526 -0.5534 -0.4520  0.2922
  318MOL0     C43755  12.058   5.910   5.491  0.0453 -0.0046  1.1592
  318MOL0     C43756  12.205   5.872   5.452  0.0961  0.1015  0.2420
  318MOL0     C43757  12.320   5.914   5.552 -0.2157  0.4669  0.5280
  318MOL0     C43758  12.451   5.848   5.522 -0.1104 -0.5612 -0.2602
  318MOL0     C43759  12.569   5.907   5.588 -0.1039  0.4314  0.1743
  318MOL0     C43760  12.703   5.883   5.521  0.0248 -0.1558 -0.5716
  318MOL0     C43761  12.818   5.955   5.590  0.5457 -0.8106 -0.3514
  318MOL0     C43762  12.953   5.901   5.523  0.0301  1.0188 -0.0762
  318MOL0     N43763  13.065   5.954   5.599  0.8870  0.3416  0.6703
  318MOL0     C43764  13.133   5.894   5.702  0.0174  1.0477 -1.0613
  318MOL0     C43765  13.226   5.981   5.736 -0.5440  0.2722  1.0440
  318MOL0     C43766  13.313   5.950   5.852  0.5979  0.4005  0.1695
  318MOL0     C43767  13.431   6.046   5.848  1.0939 -0.2468  0.0200
  318MOL0     C43768  13.523   6.039   5.964  0.6227  0.1686  0.0115
  318MOL0     C43769  13.650   6.131   5.946  0.8084 -0.5408  0.7985
  318MOL0     O43770  13.760   6.070   5.890 -0.5999  0.7637  1.0593
  318MOL0     C43771  13.839   5.990   5.970  0.3251  1.0068  0.3085
  318MOL0     C43772  13.887   5.864   5.923  0.9302 -0.2896 -0.0216
  318MOL0     C43773  13.985   5.787   5.992  0.3675  0.6855 -0.0228
  318MOL0     C43774  14.018   5.650   5.931  1.2952 -1.0706  0.6415
  318MOL0     C43775  14.050   5.847   6.105  0.0385 -0.0503 -0.3799
  318MOL0     C43776  14.156   5.775   6.171  0.8787 -0.5474  0.2622
  318MOL0     O43777  14.179   5.824   6.297  0.6864  0.5102  0.1186
  318MOL0     C43778  14.308   5.788   6.354  0.3999 -0.4850  0.7329
  318MOL0     C43779  14.294   5.762   6.497 -0.3624 -0.2922  0.9429
  318MOL0     C43780  14.406   5.717   6.569  0.6381 -0.4135 -0.0422
  318MOL0     C43781  14.525   5.689   6.498  0.7987 -0.2335  0.4494
  318MOL0     O43782  14.631   5.635   6.571 -0.3033  0.0204  0.2756
  318MOL0     C43783  14.771   5.641   6.522  0.1898  0.6020 -0.6202
  318MOL0     C43784  14.861   5.611   6.638 -0.0130  0.6119 -0.8258
  318MOL0     C43785  15.013   5.624   6.637  0.7938 -0.0762  0.7909
  318MOL0     C43786  15.085   5.533   6.729 -0.4325 -0.0389 -0.7801
  318MOL0     C43787  15.239   5.556   6.747 -0.8288 -1.0693  0.1178
  318MOL0     C43788  15.320   5.525   6.619  0.0476 -0.6164 -0.0531
  318MOL0     C43789  15.470   5.488   6.647  1.1704  0.5277  0.3758
  318MOL0     C43790  15.549   5.464   6.521 -0.0903 -0.7984  0.3058
  318MOL0    Cl43791  15.720   5.430   6.563 -0.2666 -0.3060  0.1235
  318MOL0     C43792  14.536   5.711   6.360  0.2385 -0.5666  0.3228
  318MOL0     C43793  14.432   5.770   6.286 -0.5773  0.4456  0.6005
  318MOL0     O43794  14.206   5.675   6.121  0.0568 -0.2869 -0.2208
  318MOL0     C43795  14.012   5.980   6.139  0.0916  0.9085  0.9672
  318MOL0     C43796  13.914   6.041   6.066  0.1359  0.2616 -0.4355
  318MOL0     N43797  13.228   6.093   5.640 -0.0739 -0.2278 -0.0234
  318MOL0     N43798  13.131   6.067   5.567  0.8465 -0.7058 -0.4899
  318MOL0     C43799  11.835   6.088   5.430 -0.5799  0.4038  0.2149
  318MOL0     C43800  11.721   6.164   5.416 -0.5039 -0.4591 -0.2894
  318MOL0     C43801  11.339   6.390   5.449  0.7226  0.8856 -0.5948
  318MOL0     C43802  11.374   6.510   5.387 -0.7130 -0.1398 -0.0587
  318MOL0     C43803  11.281   6.594   5.330  0.3979 -0.3667 -0.1270
  318MOL0     C43804  11.145   6.566   5.349 -0.7972 -0.3382  0.0525
  318MOL0     O43805  11.049   6.652   5.317 -0.2887 -0.3524 -0.7086
  318MOL0     C43806  11.065   6.737   5.204 -0.7051 -0.8615  0.8158
  318MOL0     C43807  10.941   6.830   5.199 -1.0674 -0.3367  0.5990
  318MOL0     C43808  10.822   6.747   5.153 -0.2855  0.1274 -0.7239
  318MOL0     C43809  10.705   6.836   5.116  0.8247 -0.3791  0.0552
  318MOL0     C43810  10.592   6.746   5.094 -0.2877  0.3243 -0.2242
  318MOL0     C43811  10.500   6.671   5.085 -0.5739  0.6115  0.2821
  318MOL0     C43812  11.111   6.448   5.420  0.5233 -0.3002  1.3694
  318MOL0     C43813  11.204   6.357   5.464 -0.7126  0.0245 -0.9228
  318MOL0     C43814  11.142   6.248   5.541  0.5406 -0.9517 -0.0366
  318MOL0     H43815  11.806   6.428   5.612 -0.4988 -1.5548  2.2924
  318MOL0     H43816  12.009   6.275   5.639  0.1488  1.6869 -1.7822
  318MOL0     H43817  11.996   5.879   5.407  2.9566  3.1022 -2.4927
  318MOL0     H43818  12.032   5.859   5.585  2.2657 -0.4533  1.6061
  318MOL0     H43819  12.210   5.763   5.442  1.0346  0.3201 -2.2175
  318MOL0     H43820  12.230   5.913   5.354 -0.1201  1.5467  0.7752
  318MOL0     H43821  12.337   6.022   5.541 -1.0161  0.4848 -0.6910
  318MOL0     H43822  12.289   5.883   5.652  0.4084 -0.3637  0.4777
  318MOL0     H43823  12.431   5.748   5.562 -0.1580  1.1271  4.5301
  318MOL0     H43824  12.482   5.830   5.418  0.2025 -0.9786 -0.0981
  318MOL0     H43825  12.566   5.873   5.692 -2.0433 -1.6800 -0.5033
  318MOL0     H43826  12.561   6.016   5.589  1.7449  0.6007  1.2596
  318MOL0     H43827  12.721   5.775   5.518  1.6229 -0.0495  2.1388
  318MOL0     H43828  12.702   5.923   5.419 -0.1743 -1.6487 -1.1801
  318MOL0     H43829  12.832   5.938   5.697  1.5803 -1.6894 -0.6046
  318MOL0     H43830  12.807   6.062   5.574 -0.2159 -0.2356  3.1137
  318MOL0     H43831  12.967   5.792   5.523 -1.9351  0.6532  3.1318
  318MOL0     H43832  12.966   5.932   5.419  2.2168  0.6140  0.0401
  318MOL0     H43833  13.107   5.808   5.761  0.2054  3.2947  2.5893
  318MOL0     H43834  13.358   5.851   5.864 -1.8621 -0.5080  3.1799
  318MOL0     H43835  13.252   5.964   5.941  0.8731  1.1056  0.2465
  318MOL0     H43836  13.476   6.025   5.750  1.4940 -0.3179  0.2185
  318MOL0     H43837  13.399   6.151   5.852  1.2377 -0.1676  4.5322
  318MOL0     H43838  13.476   6.072   6.057  0.9847  0.7734 -0.0111
  318MOL0     H43839  13.555   5.936   5.979  0.5822  0.3534  1.4701
  318MOL0     H43840  13.632   6.227   5.897  1.0949  0.5387  2.6780
  318MOL0     H43841  13.666   6.167   6.049 -1.2606 -1.9129  1.6685
  318MOL0     H43842  13.838   5.823   5.835 -0.1819 -0.3365  0.6075
  318MOL0     H43843  13.988   5.582   6.012 -0.1796 -0.5932  0.5181
  318MOL0     H43844  14.121   5.635   5.899  2.4561 -1.8783  4.2716
  318MOL0     H43845  13.953   5.628   5.846 -0.2014  0.6041  1.2759
  318MOL0     H43846  14.192   5.768   6.534 -1.4378  0.9774 -1.9177
  318MOL0     H43847  14.396   5.679   6.670 -0.0495 -2.6295 -0.8853
  318MOL0     H43848  14.788   5.567   6.444  2.9267 -1.3278  1.6258
  318MOL0     H43849  14.790   5.747   6.501 -2.3316  1.0039 -1.1946
  318MOL0     H43850  14.834   5.683   6.716  1.8521  1.2421 -0.7093
  318MOL0     H43851  14.837   5.510   6.676  1.6234  0.9608  1.3389
  318MOL0     H43852  15.032   5.730   6.655  2.1416 -0.1080 -0.2884
  318MOL0     H43853  15.051   5.596   6.538 -2.7142 -1.7885 -0.2386
  318MOL0     H43854  15.080   5.429   6.697  1.8860 -1.2180  2.2299
  318MOL0     H43855  15.034   5.543   6.825 -0.5535  1.8883 -1.0089
  318MOL0     H43856  15.263   5.657   6.781 -1.2362 -0.3927 -1.4924
  318MOL0     H43857  15.274   5.484   6.821  1.6443 -2.3100 -2.0716
  318MOL0     H43858  15.296   5.606   6.550  2.3328 -2.4392 -3.2037
  318MOL0     H43859  15.276   5.438   6.570  0.7064 -2.6751  2.7536
  318MOL0     H43860  15.474   5.401   6.713  0.6639 -0.2284 -0.5650
  318MOL0     H43861  15.533   5.563   6.697  4.1379 -0.9603 -0.8576
  318MOL0     H43862  15.544   5.557   6.463 -0.4384 -1.1890 -0.3028
  318MOL0     H43863  15.511   5.380   6.462  2.1204 -2.1067  0.6411
  318MOL0     H43864  14.630   5.691   6.309 -0.3794  1.5288 -1.8132
  318MOL0     H43865  14.446   5.776   6.179  1.5626  1.3979  0.8808
  318MOL0     H43866  14.067   6.037   6.212  2.4047 -1.8060  1.5152
  318MOL0     H43867  13.897   6.146   6.089  0.0113  0.7426 -2.4754
  318MOL0     H43868  11.835   5.994   5.376  1.1357  0.4511  0.0895
  318MOL0     H43869  11.633   6.123   5.368 -0.8465 -0.1587  0.0835
  318MOL0     H43870  11.479   6.539   5.386 -1.7892  4.6136 -1.9049
  318MOL0     H43871  11.307   6.685   5.277 -1.1453  2.1121  3.0065
  318MOL0     H43872  11.156   6.798   5.214  0.0343 -1.6215 -0.8180
  318MOL0     H43873  11.078   6.674   5.115  1.6085 -0.3905  0.7599
  318MOL0     H43874  10.968   6.903   5.123  0.6637 -0.7782  0.7544
  318MOL0     H43875  10.920   6.874   5.297 -0.2532  0.7783  0.2894
  318MOL0     H43876  10.862   6.680   5.077  1.8469  0.6396 -0.1244
  318MOL0     H43877  10.792   6.691   5.242  0.5143  3.3072  1.7442
  318MOL0     H43878  10.721   6.900   5.028 -1.2869  1.2921  0.7888
  318MOL0     H43879  10.688   6.913   5.193 -3.3059  0.5273 -1.4798
  318MOL0     H43880  10.423   6.597   5.079 -0.0805  0.1909 -2.0173
  318MOL0     H43881  11.005   6.431   5.435 -0.3222  1.3331 -1.9232
  318MOL0     H43882  11.033   6.251   5.531  0.5085 -0.5067  0.4135
  318MOL0     H43883  11.186   6.155   5.505  1.6641 -1.2537  1.9882
  318MOL0     H43884  11.167   6.266   5.646  0.6223  0.2603 -0.2413
  319MOL0     O43885   0.324   9.818   9.146 -0.6149  0.7717 -0.2605
  319MOL0     C43886   0.304   9.793   9.263  0.1472 -0.1387  0.3346
  319MOL0     O43887   0.400   9.803   9.362 -0.8756 -0.1127  0.9196
  319MOL0     C43888   0.532   9.814   9.322 -0.6381 -0.5856  0.0841
  319MOL0     C43889   0.583   9.734   9.222  0.0513  0.0126  0.1017
  319MOL0     C43890   0.715   9.760   9.170 -0.4976  0.0339  0.1769
  319MOL0     C43891   0.794   9.869   9.215 -0.5280 -0.2040 -0.7437
  319MOL0     O43892   0.911   9.918   9.157 -0.0512 -0.2841 -0.8470
  319MOL0     C43893   0.973   9.848   9.052  0.3790  0.4862  0.0347
  319MOL0     C43894   1.076   9.942   8.977 -0.6339 -0.0779 -0.3796
  319MOL0     C43895   1.175   9.850   8.897  0.1815 -0.7393 -0.1807
  319MOL0     C43896   1.285   9.934   8.832 -0.0557  0.2036  0.2088
  319MOL0     C43897   1.384   9.837   8.758  0.3655  0.2215 -0.0670
  319MOL0     C43898   1.506   9.925   8.710  0.2889  0.4334  0.2691
  319MOL0     C43899   1.594   9.847   8.629  0.0622 -0.1746 -0.4340
  319MOL0     C43900   1.655   9.923   8.511  0.1730 -0.0033 -0.4490
  319MOL0     N43901   1.741   9.834   8.430  0.0483 -0.4116  0.1827
  319MOL0     C43902   1.871   9.795   8.464  0.5818 -0.5328  0.4124
  319MOL0     C43903   1.905   9.713   8.355  0.2199 -0.1424  0.7320
  319MOL0     C43904   2.034   9.643   8.349  0.6193  0.3568 -0.6412
  319MOL0     C43905   2.045   9.550   8.223 -0.5336  0.1539 -0.1390
  319MOL0     C43906   2.178   9.467   8.220  0.3103 -0.9455 -0.6624
  319MOL0     C43907   2.182   9.351   8.316 -0.7029  0.7037 -0.3740
  319MOL0     O43908   2.306   9.282   8.326 -0.2000  0.3879 -0.6007
  319MOL0     C43909   2.305   9.201   8.432  0.1267 -0.1919 -0.8588
  319MOL0     C43910   2.196   9.148   8.512  0.1289 -0.6676  0.8768
  319MOL0     C43911   2.216   9.058   8.618 -0.4204  0.3904 -0.3150
  319MOL0     C43912   2.103   9.027   8.707  0.7541 -0.9033  1.1998
  319MOL0     C43913   2.349   9.002   8.630  1.0152 -0.1534 -0.3355
  319MOL0     C43914   2.375   8.914   8.739  0.3961  0.4712 -0.2966
  319MOL0     O43915   2.454   8.964   8.844  0.7061 -0.0878  0.5285
  319MOL0     C43916   2.488   8.887   8.951  0.1626  0.2014 -0.4837
  319MOL0     C43917   2.616   8.841   8.985  0.1457  0.8189  0.4925
  319MOL0     C43918   2.641   8.799   9.118 -0.0257 -0.0257 -0.2609
  319MOL0     C43919   2.528   8.788   9.209  0.3091  0.0059 -0.5795
  319MOL0     O43920   2.556   8.740   9.333 -0.3300 -0.1077 -0.9231
  319MOL0     C43921   2.460   8.761   9.438  0.8631 -1.1053 -0.4269
  319MOL0     C43922   2.378   8.632   9.445 -0.0188 -0.0190  0.0684
  319MOL0     C43923   2.338   8.634   9.597  0.7029  0.0486  0.1535
  319MOL0     C43924   2.254   8.516   9.634  0.1831  0.0110  0.2285
  319MOL0     C43925   2.196   8.538   9.772  0.4456 -0.0421 -0.3516
  319MOL0     C43926   2.050   8.510   9.786 -0.0394 -0.8306 -0.2832
  319MOL0     C43927   2.013   8.533   9.932  0.1510  0.0065 -0.2450
  319MOL0     C43928   1.870   8.572   9.942 -0.4807  0.6495 -0.8827
  319MOL0    Cl43929   1.759   8.451   9.870 -0.4343 -0.2088 -0.6800
  319MOL0     C43930   2.401   8.826   9.166  0.4338  0.1232 -0.7502
  319MOL0     C43931   2.384   8.884   9.041 -0.0380  0.5547  0.0542
  319MOL0     O43932   2.334   8.799   8.720  1.4769  0.1384  0.0992
  319MOL0     C43933   2.449   9.034   8.538  0.5534 -1.0806  0.5505
  319MOL0     C43934   2.419   9.130   8.441 -1.2955 -0.2291 -0.8086
  319MOL0     N43935   1.791   9.699   8.276 -0.9365  0.2419 -0.2402
  319MOL0     N43936   1.693   9.771   8.320 -0.6444 -0.0778 -0.1005
  319MOL0     C43937   0.737   9.940   9.317  0.4539 -0.4488 -0.8103
  319MOL0     C43938   0.609   9.914   9.372  0.4727 -0.2697  0.3308
  319MOL0     C43939   0.156   9.768   9.299 -0.0910  0.4695  0.4034
  319MOL0     C43940   0.139   9.785   9.431 -0.1075  0.6742  0.1150
  319MOL0     C43941   0.010   9.769   9.487 -0.0398  0.2782  0.2361
  319MOL0     C43942  -0.103   9.739   9.410 -0.3977  0.3106  0.3616
  319MOL0     O43943  -0.232   9.725   9.461  0.3982 -0.1370  0.1679
  319MOL0     C43944  -0.340   9.818   9.422  0.3768  0.3717 -0.6533
  319MOL0     C43945  -0.485   9.770   9.457  0.4207 -0.8070 -0.0837
  319MOL0     C43946  -0.535   9.655   9.363 -0.2708  0.2097  0.4239
  319MOL0     C43947  -0.677   9.611   9.405  0.0393 -0.4899  0.5986
  319MOL0     C43948  -0.733   9.513   9.302 -0.0799 -0.1317 -0.0640
  319MOL0     C43949  -0.755   9.453   9.199 -0.3789  0.0928  0.8496
  319MOL0     C43950  -0.074   9.716   9.272  0.2585 -0.8008  0.3565
  319MOL0     C43951   0.052   9.738   9.215 -0.2992 -0.4890 -0.0602
  319MOL0     C43952   0.075   9.721   9.068  0.4438  0.4346  0.4606
  319MOL0     H43953   0.523   9.655   9.178  2.0248 -2.5344  1.7068
  319MOL0     H43954   0.753   9.700   9.088  1.1660  0.9955  0.1881
  319MOL0     H43955   0.899   9.829   8.973  0.8182  0.0087 -0.2658
  319MOL0     H43956   1.014   9.752   9.083  2.5351  1.9557  2.0476
  319MOL0     H43957   1.024  10.012   8.912 -1.5609 -0.4069 -0.0131
  319MOL0     H43958   1.131  10.008   9.045  0.2751 -2.6978  1.6152
  319MOL0     H43959   1.213   9.771   8.962  0.3138 -0.0496  0.6110
  319MOL0     H43960   1.114   9.797   8.824  1.8375 -2.8786 -0.0897
  319MOL0     H43961   1.245  10.005   8.759 -0.6775  0.6207  0.9379
  319MOL0     H43962   1.337   9.988   8.912  0.2971 -2.1423  1.6627
  319MOL0     H43963   1.340   9.785   8.673  0.3416  1.2591 -0.7147
  319MOL0     H43964   1.423   9.757   8.822  1.5924 -0.1205 -1.1955
  319MOL0     H43965   1.463  10.012   8.659  0.1746 -0.8099 -1.8938
  319MOL0     H43966   1.551   9.968   8.800  1.0901 -0.3610  0.2567
  319MOL0     H43967   1.538   9.760   8.594  1.2310 -1.5621  0.9839
  319MOL0     H43968   1.670   9.806   8.697  0.7836  0.3684 -0.8994
  319MOL0     H43969   1.572   9.962   8.450  0.8929  0.5819 -1.0713
  319MOL0     H43970   1.716  10.009   8.540 -0.9718  0.2897  1.2036
  319MOL0     H43971   1.929   9.818   8.553  1.6438  1.2844 -0.6984
  319MOL0     H43972   2.032   9.576   8.436 -1.1918 -1.7095 -2.1846
  319MOL0     H43973   2.120   9.710   8.345  1.2265 -0.2134  1.5150
  319MOL0     H43974   1.965   9.476   8.231  1.1409 -1.5405  5.2856
  319MOL0     H43975   2.033   9.613   8.135  0.1370 -0.8437 -0.9605
  319MOL0     H43976   2.193   9.435   8.117 -1.9541 -0.0313 -1.3155
  319MOL0     H43977   2.259   9.541   8.228  0.7218 -1.5306  1.1079
  319MOL0     H43978   2.149   9.389   8.413  1.7313  1.4925  0.2000
  319MOL0     H43979   2.103   9.285   8.278 -0.0662  0.7755 -1.8596
  319MOL0     H43980   2.096   9.186   8.495 -0.5616 -3.4623 -2.4304
  319MOL0     H43981   2.132   9.026   8.812  0.9203 -0.3050  1.1629
  319MOL0     H43982   2.068   8.927   8.682  1.1843 -0.7830  0.0161
  319MOL0     H43983   2.016   9.091   8.689 -0.6540 -2.7706  1.1017
  319MOL0     H43984   2.694   8.848   8.910  2.9359  1.9539  3.2790
  319MOL0     H43985   2.732   8.756   9.158 -0.4588 -0.7595 -0.0375
  319MOL0     H43986   2.519   8.777   9.529  0.9347 -1.8612 -0.3296
  319MOL0     H43987   2.399   8.850   9.420 -1.4119 -2.6833 -0.8693
  319MOL0     H43988   2.289   8.622   9.383 -0.8469 -4.5947  1.6157
  319MOL0     H43989   2.444   8.546   9.432  0.3235  0.1719  0.4950
  319MOL0     H43990   2.276   8.723   9.611 -0.9062 -1.0876  0.6162
  319MOL0     H43991   2.428   8.641   9.658  1.5219 -1.4736 -0.8172
  319MOL0     H43992   2.315   8.425   9.625 -0.4238 -0.3922  0.1079
  319MOL0     H43993   2.175   8.501   9.560  1.8248  0.6299 -1.7249
  319MOL0     H43994   2.244   8.472   9.845  1.0170  1.2709  0.4867
  319MOL0     H43995   2.223   8.640   9.799  1.8894 -0.5725  0.3561
  319MOL0     H43996   2.034   8.410   9.745  1.0125 -0.8610 -0.6689
  319MOL0     H43997   2.005   8.590   9.726 -0.5207 -0.7513  0.1760
  319MOL0     H43998   2.077   8.604   9.985  3.3165 -3.1445  0.5800
  319MOL0     H43999   2.021   8.434   9.977 -1.9902  0.7155  1.8734
  319MOL0     H44000   1.867   8.678   9.915 -1.3876  1.2216  1.2365
  319MOL0     H44001   1.840   8.575  10.047  4.8152  0.0643  0.9311
  319MOL0     H44002   2.313   8.825   9.230  0.9072  0.3049 -0.0834
  319MOL0     H44003   2.292   8.934   9.013 -0.6196  0.1081  1.1319
  319MOL0     H44004   2.544   8.982   8.543  0.1921 -1.7773  0.2733
  319MOL0     H44005   2.492   9.165   8.369 -0.6408  3.0953  1.2242
  319MOL0     H44006   0.810  10.010   9.357 -2.0679  1.5031  0.6212
  319MOL0     H44007   0.567   9.977   9.450 -0.4319  2.2082 -1.9657
  319MOL0     H44008   0.220   9.805   9.500  0.1026 -3.1539  1.2143
  319MOL0     H44009  -0.000   9.797   9.591 -0.0544 -0.1697  0.3578
  319MOL0     H44010  -0.309   9.918   9.451 -0.0680  0.3403 -0.0680
  319MOL0     H44011  -0.332   9.823   9.313 -0.0079  0.0741 -0.6968
  319MOL0     H44012  -0.556   9.852   9.454  1.2931 -0.0526 -0.9142
  319MOL0     H44013  -0.477   9.733   9.560 -0.6733  1.1865  0.7665
  319MOL0     H44014  -0.543   9.697   9.262 -0.6002  0.5262  0.5816
  319MOL0     H44015  -0.465   9.570   9.362 -1.9955 -1.2748 -0.2158
  319MOL0     H44016  -0.737   9.702   9.414  2.2724  0.9877  1.2380
  319MOL0     H44017  -0.674   9.564   9.503  2.5132  3.3344  2.5756
  319MOL0     H44018  -0.765   9.391   9.112  0.7060 -1.7192  1.9540
  319MOL0     H44019  -0.165   9.679   9.227 -0.7686 -0.5908  2.1344
  319MOL0     H44020   0.114   9.814   9.024 -2.2367  1.8265  0.7937
  319MOL0     H44021   0.142   9.637   9.049 -0.8103 -0.2697 -1.0947
  319MOL0     H44022  -0.018   9.700   9.013  0.0540  1.0340  0.8782
  320MOL0     O44023   0.479   0.964   4.183  0.4202  0.3869 -0.2595
  320MOL0     C44024   0.455   0.852   4.234  0.1713  0.2501  0.2613
  320MOL0     O44025   0.550   0.759   4.288 -0.1411  0.3072  0.5175
  320MOL0     C44026   0.681   0.781   4.310  0.2874  0.2739 -0.5050
  320MOL0     C44027   0.772   0.835   4.214 -0.4743 -0.3226 -0.0335
  320MOL0     C44028   0.910   0.856   4.243 -0.6358 -0.6100  0.3347
  320MOL0     C44029   0.960   0.826   4.374  0.6771 -1.0366 -0.4181
  320MOL0     O44030   1.090   0.857   4.415 -0.9212  0.0472  1.5501
  320MOL0     C44031   1.193   0.806   4.320  0.4638  0.2215 -0.0476
  320MOL0     C44032   1.301   0.718   4.379  0.0720 -0.2249  0.2065
  320MOL0     C44033   1.375   0.786   4.500  0.0560 -0.8403  1.2237
  320MOL0     C44034   1.441   0.673   4.587 -0.3333 -0.3568  0.4962
  320MOL0     C44035   1.581   0.657   4.545 -0.2270  0.3416 -0.3013
  320MOL0     C44036   1.673   0.554   4.619  0.2653  0.1639 -0.2510
  320MOL0     C44037   1.820   0.555   4.564 -0.2023 -0.0189  0.0241
  320MOL0     C44038   1.846   0.588   4.414  0.1704  0.8312 -0.1341
  320MOL0     N44039   1.987   0.570   4.375 -0.5632 -0.2665 -0.1224
  320MOL0     C44040   2.086   0.658   4.411 -0.5890 -0.1740  0.4919
  320MOL0     C44041   2.194   0.595   4.362  0.0474 -0.3158 -0.8665
  320MOL0     C44042   2.342   0.638   4.371 -0.1087 -1.6379 -0.3070
  320MOL0     C44043   2.358   0.799   4.365 -0.3922 -0.5221  1.2814
  320MOL0     C44044   2.342   0.842   4.214 -0.0155  0.1365 -0.4003
  320MOL0     C44045   2.200   0.829   4.149  0.1007  0.7908 -0.1799
  320MOL0     O44046   2.112   0.933   4.195  0.0606  0.1961  0.5561
  320MOL0     C44047   1.977   0.915   4.164 -0.3493 -0.0444 -0.2423
  320MOL0     C44048   1.887   0.986   4.238  0.1241 -0.0263  0.3487
  320MOL0     C44049   1.748   0.977   4.229 -0.2683  0.4962  0.4831
  320MOL0     C44050   1.671   1.061   4.319  0.3656  0.6529 -0.6778
  320MOL0     C44051   1.695   0.898   4.126 -0.4728  0.7589  0.6111
  320MOL0     C44052   1.552   0.869   4.100  0.4377 -0.3812  0.4231
  320MOL0     O44053   1.525   0.801   3.985 -0.0851 -0.6311 -0.2256
  320MOL0     C44054   1.393   0.768   3.950 -0.6953  0.3030 -0.3578
  320MOL0     C44055   1.386   0.654   3.871  0.6048 -0.4998  0.4158
  320MOL0     C44056   1.268   0.621   3.810  0.2131 -0.1733 -0.2098
  320MOL0     C44057   1.145   0.687   3.837  0.2936  0.0382 -0.5158
  320MOL0     O44058   1.028   0.654   3.778 -0.1186  0.0609  0.4638
  320MOL0     C44059   0.911   0.742   3.807 -0.1792  0.0656  0.3446
  320MOL0     C44060   0.781   0.674   3.756  0.6527  0.0248 -0.7403
  320MOL0     C44061   0.660   0.747   3.811  1.2471  0.9245 -0.7092
  320MOL0     C44062   0.547   0.753   3.707  0.0433 -0.3481 -0.7175
  320MOL0     C44063   0.397   0.761   3.766 -0.3859 -0.4155  0.9579
  320MOL0     C44064   0.290   0.742   3.666 -0.0788  0.2775  0.5850
  320MOL0     C44065   0.149   0.734   3.740 -0.0701  0.0682  0.1666
  320MOL0     C44066   0.031   0.697   3.661 -1.0043  0.1156  0.0764
  320MOL0    Cl44067  -0.001   0.822   3.539 -0.0662 -0.1895 -0.1594
  320MOL0     C44068   1.156   0.800   3.919  0.2697  0.3302 -0.4500
  320MOL0     C44069   1.278   0.827   3.977  0.8144  0.1934  0.1741
  320MOL0     O44070   1.463   0.919   4.175  0.4859 -0.2555 -0.6152
  320MOL0     C44071   1.793   0.837   4.042  0.5281  0.1014  1.0074
  320MOL0     C44072   1.929   0.840   4.061 -1.2608  0.6508 -1.0747
  320MOL0     N44073   2.164   0.469   4.310 -1.3798 -0.1750 -0.1062
  320MOL0     N44074   2.044   0.459   4.317 -0.4196  0.6421 -0.6894
  320MOL0     C44075   0.873   0.759   4.456 -0.6336 -0.0892 -0.4345
  320MOL0     C44076   0.741   0.732   4.428  0.0939  0.3650  0.4868
  320MOL0     C44077   0.307   0.806   4.260  0.2969 -0.2224  0.7963
  320MOL0     C44078   0.280   0.689   4.340  0.0625 -0.3383  1.0893
  320MOL0     C44079   0.149   0.647   4.369  0.4582 -0.6766  0.0653
  320MOL0     C44080   0.045   0.708   4.307 -0.7677 -0.0616  0.3713
  320MOL0     O44081  -0.082   0.666   4.343 -0.4804  0.0994  0.7583
  320MOL0     C44082  -0.195   0.744   4.318  0.3961 -0.1626  0.1239
  320MOL0     C44083  -0.306   0.687   4.406  0.4155  0.0500 -0.1284
  320MOL0     C44084  -0.364   0.559   4.344  0.4820  0.4859 -1.0398
  320MOL0     C44085  -0.473   0.482   4.431 -1.1158 -0.0833  1.0561
  320MOL0     C44086  -0.599   0.561   4.452 -0.4189  0.6236 -0.3819
  320MOL0     C44087  -0.686   0.639   4.476  0.0588 -0.5917  0.0644
  320MOL0     C44088   0.066   0.812   4.223 -0.5650  0.7256 -0.0933
  320MOL0     C44089   0.200   0.861   4.193  0.6910  0.0089 -0.1932
  320MOL0     C44090   0.199   0.980   4.103  0.6194 -0.3763  0.5201
  320MOL0     H44091   0.734   0.869   4.119  2.5032 -0.5188 -1.4203
  320MOL0     H44092   0.975   0.908   4.173 -0.4718  1.4096  1.9002
  320MOL0     H44093   1.238   0.895   4.276  0.9300 -0.5830 -1.2600
  320MOL0     H44094   1.149   0.740   4.244  1.0237 -0.3672  0.1362
  320MOL0     H44095   1.256   0.624   4.413  2.0418 -1.7775 -1.2530
  320MOL0     H44096   1.379   0.690   4.308 -2.4190 -2.3358 -1.8791
  320MOL0     H44097   1.446   0.854   4.451  0.1525  0.1130  2.6336
  320MOL0     H44098   1.304   0.852   4.551 -2.7494 -1.7377 -1.2322
  320MOL0     H44099   1.437   0.696   4.694 -2.0034  3.9566 -0.3024
  320MOL0     H44100   1.388   0.581   4.558 -0.0167  0.5385 -3.5109
  320MOL0     H44101   1.637   0.751   4.537 -1.2122  0.8521 -1.5738
  320MOL0     H44102   1.578   0.618   4.443  0.5882 -1.9044  0.4763
  320MOL0     H44103   1.682   0.588   4.723 -0.4923 -1.8625  0.5209
  320MOL0     H44104   1.614   0.462   4.622 -0.6356  0.7459  0.3444
  320MOL0     H44105   1.855   0.458   4.600 -2.1359 -0.0481  2.0927
  320MOL0     H44106   1.877   0.629   4.622  1.7745 -1.1296 -0.4534
  320MOL0     H44107   1.781   0.529   4.349  0.6591  1.4427 -1.1946
  320MOL0     H44108   1.832   0.696   4.404  1.0543  0.9443 -0.2281
  320MOL0     H44109   2.085   0.754   4.461 -1.7351  0.4236 -0.6082
  320MOL0     H44110   2.401   0.596   4.290 -0.5420 -0.4347 -1.2869
  320MOL0     H44111   2.376   0.601   4.468  0.3023  0.8890  0.5818
  320MOL0     H44112   2.300   0.866   4.428  0.8684  1.3236  0.5789
  320MOL0     H44113   2.460   0.829   4.392  0.5122 -2.9196  0.8884
  320MOL0     H44114   2.379   0.943   4.197 -1.9758  1.1317  0.8672
  320MOL0     H44115   2.408   0.770   4.164  2.4980 -0.0627  2.8885
  320MOL0     H44116   2.205   0.867   4.046  2.1027  0.7105 -0.1559
  320MOL0     H44117   2.153   0.730   4.151  0.3174  0.6621 -1.0852
  320MOL0     H44118   1.925   1.056   4.312 -0.3884  1.8428 -1.1025
  320MOL0     H44119   1.607   1.130   4.264 -2.9571 -0.1993  1.7877
  320MOL0     H44120   1.729   1.126   4.385  0.2567 -0.5308  0.6430
  320MOL0     H44121   1.599   0.992   4.364  1.6842 -1.5642 -1.7958
  320MOL0     H44122   1.475   0.597   3.848  0.9626 -0.1328  0.8614
  320MOL0     H44123   1.263   0.533   3.746 -0.8824 -0.0160 -0.3656
  320MOL0     H44124   0.901   0.753   3.916 -0.3168 -2.7217  0.7005
  320MOL0     H44125   0.926   0.837   3.756  0.9634  0.2202  0.9440
  320MOL0     H44126   0.786   0.675   3.647 -0.2360  1.2096 -0.7980
  320MOL0     H44127   0.759   0.571   3.784 -1.1414  0.5211 -0.2069
  320MOL0     H44128   0.681   0.847   3.852  1.2951  0.3476  0.7244
  320MOL0     H44129   0.627   0.693   3.900 -0.4038  0.6500 -1.4573
  320MOL0     H44130   0.566   0.664   3.646  1.9479 -0.1013 -0.5594
  320MOL0     H44131   0.564   0.837   3.640 -4.1707  0.3021 -1.2461
  320MOL0     H44132   0.390   0.675   3.833  0.4853 -0.4344  1.0365
  320MOL0     H44133   0.378   0.855   3.818 -0.0192 -0.1902  0.6834
  320MOL0     H44134   0.324   0.657   3.605 -0.0317  1.2290 -0.7638
  320MOL0     H44135   0.271   0.816   3.588 -1.1246 -1.7909 -1.2395
  320MOL0     H44136   0.123   0.834   3.775 -0.9708  0.4465 -1.4940
  320MOL0     H44137   0.156   0.657   3.818  0.6130  0.3031  0.3459
  320MOL0     H44138  -0.053   0.694   3.731 -2.3511  0.1196 -1.5060
  320MOL0     H44139   0.029   0.595   3.624 -0.6063 -0.3429  1.2546
  320MOL0     H44140   1.078   0.870   3.949  0.9165  0.5362  0.8236
  320MOL0     H44141   1.271   0.913   4.044 -2.4140 -0.3247  0.6531
  320MOL0     H44142   1.754   0.774   3.963 -0.3324  0.7212  0.9212
  320MOL0     H44143   1.992   0.792   3.987  0.8305  1.1460  0.3200
  320MOL0     H44144   0.890   0.726   4.558 -2.7070  1.1071  0.3441
  320MOL0     H44145   0.684   0.671   4.498 -0.4522  1.2224  0.8045
  320MOL0     H44146   0.360   0.626   4.377  0.4467  0.5587  1.8661
  320MOL0     H44147   0.134   0.556   4.426 -2.0700 -0.7168 -0.5539
  320MOL0     H44148  -0.183   0.848   4.351  0.1336  0.9434 -2.9440
  320MOL0     H44149  -0.225   0.740   4.213 -1.3695 -1.1051  0.6278
  320MOL0     H44150  -0.382   0.766   4.409  1.0639  0.6718  0.2324
  320MOL0     H44151  -0.270   0.672   4.508  1.9982 -1.3086 -0.8442
  320MOL0     H44152  -0.406   0.574   4.244  1.4691  1.0484 -1.3860
  320MOL0     H44153  -0.291   0.477   4.344  0.8629  0.8219 -0.7816
  320MOL0     H44154  -0.420   0.449   4.520  0.8647  2.4942  0.9563
  320MOL0     H44155  -0.505   0.393   4.376 -1.6634 -1.5907  3.6798
  320MOL0     H44156  -0.754   0.717   4.505 -0.7220 -1.2708  0.1177
  320MOL0     H44157  -0.022   0.859   4.183 -2.0036 -2.6794 -1.2596
  320MOL0     H44158   0.098   1.005   4.069  0.4933 -2.0453 -0.4522
  320MOL0     H44159   0.247   1.063   4.155  0.8983 -2.4793  3.8815
  320MOL0     H44160   0.261   0.960   4.015 -1.6221 -0.1593 -1.2035
  321MOL0     O44161   9.129   8.587   8.984  0.1253  0.2303  0.0894
  321MOL0     C44162   9.112   8.661   8.892 -0.1751  0.5133  0.3336
  321MOL0     O44163   9.214   8.717   8.822  0.4445 -0.4259 -0.7154
  321MOL0     C44164   9.330   8.731   8.897 -1.1748 -0.4573  0.6061
  321MOL0     C44165   9.340   8.851   8.972  0.6999  0.2255  0.8027
  321MOL0     C44166   9.450   8.875   9.057  0.0442  1.4725  0.4059
  321MOL0     C44167   9.552   8.782   9.075 -1.0800 -0.0633  0.6038
  321MOL0     O44168   9.663   8.815   9.159  0.3147 -0.6205  0.2919
  321MOL0     C44169   9.785   8.742   9.135 -0.4570  0.4889  0.6349
  321MOL0     C44170   9.897   8.788   9.233  0.7446  0.3370 -0.7436
  321MOL0     C44171  10.022   8.710   9.184 -0.5427 -0.7701  0.3666
  321MOL0     C44172  10.135   8.732   9.293  0.3001  1.0627  0.0350
  321MOL0     C44173  10.258   8.666   9.234 -0.1046 -0.3576  0.3191
  321MOL0     C44174  10.373   8.661   9.342 -0.5202 -0.0708  0.3176
  321MOL0     C44175  10.477   8.576   9.291 -0.2138  0.7961  0.5990
  321MOL0     C44176  10.553   8.645   9.177 -0.2555 -0.5483  0.6073
  321MOL0     N44177  10.636   8.551   9.108 -0.2533  0.7418  0.2127
  321MOL0     C44178  10.711   8.447   9.160 -0.1435 -0.0948 -0.1531
  321MOL0     C44179  10.743   8.378   9.046 -0.5276  0.4696  0.3960
  321MOL0     C44180  10.817   8.247   9.033 -0.0672  0.2981 -0.3551
  321MOL0     C44181  10.969   8.257   9.032 -0.5883  0.1073  0.6374
  321MOL0     C44182  11.012   8.323   9.167 -0.0146 -0.9303 -0.0486
  321MOL0     C44183  11.164   8.319   9.183 -0.4100 -0.0860  0.1937
  321MOL0     O44184  11.219   8.413   9.091 -0.1804 -0.1270  0.2638
  321MOL0     C44185  11.358   8.433   9.100  0.1588 -0.1448 -0.3558
  321MOL0     C44186  11.454   8.341   9.153  0.7354 -0.4997  0.0143
  321MOL0     C44187  11.591   8.381   9.159  0.2091  0.1541 -0.5500
  321MOL0     C44188  11.689   8.267   9.201  0.4762  0.3102  0.3163
  321MOL0     C44189  11.633   8.510   9.122  0.1027  0.3986  0.3824
  321MOL0     C44190  11.774   8.552   9.120  0.8634 -0.2904  0.1108
  321MOL0     O44191  11.799   8.690   9.100 -0.4260 -0.5514 -0.2381
  321MOL0     C44192  11.932   8.725   9.074  0.1360 -0.1143  0.5613
  321MOL0     C44193  11.962   8.793   8.950 -0.2573 -0.1924 -0.7226
  321MOL0     C44194  12.088   8.849   8.921  0.7926  0.0221  0.1809
  321MOL0     C44195  12.197   8.825   9.008 -0.6913 -0.8806 -0.2170
  321MOL0     O44196  12.326   8.866   8.991  0.4922 -0.2654  0.0643
  321MOL0     C44197  12.368   8.915   8.860  0.5785  0.2826 -0.1362
  321MOL0     C44198  12.520   8.946   8.868  0.2179  0.1609  0.0805
  321MOL0     C44199  12.561   8.974   8.723 -0.0736 -0.3029 -0.4106
  321MOL0     C44200  12.714   8.969   8.718 -0.4848 -0.6453  0.6465
  321MOL0     C44201  12.760   9.015   8.581  0.3376 -0.2906 -0.2791
  321MOL0     C44202  12.897   8.964   8.546  0.0621  0.3476 -0.7413
  321MOL0     C44203  13.013   9.013   8.638 -0.0525  0.2211  1.0778
  321MOL0     C44204  13.141   8.924   8.608  0.5098  0.1389  0.1992
  321MOL0    Cl44205  13.244   8.931   8.757  0.0742 -0.3666 -0.0920
  321MOL0     C44206  12.170   8.754   9.121  0.7856  0.1466 -0.4134
  321MOL0     C44207  12.040   8.707   9.154 -1.1181  0.8749  0.5908
  321MOL0     O44208  11.861   8.461   9.111  0.2516  0.9221  0.3424
  321MOL0     C44209  11.530   8.606   9.080  0.2463  0.3631  0.0944
  321MOL0     C44210  11.399   8.559   9.075 -0.6065  1.1371  0.2335
  321MOL0     N44211  10.692   8.434   8.931  0.1456 -0.1582 -0.4340
  321MOL0     N44212  10.635   8.539   8.975 -0.2344  0.4995 -0.4338
  321MOL0     C44213   9.522   8.657   9.003 -0.2253  0.2199  0.2310
  321MOL0     C44214   9.426   8.639   8.898 -0.3339 -0.0327 -0.3891
  321MOL0     C44215   8.977   8.675   8.812  0.0096  0.1122  0.4197
  321MOL0     C44216   8.962   8.783   8.722  0.0885  0.4911  0.2342
  321MOL0     C44217   8.838   8.797   8.654 -0.5953 -1.4650 -0.8004
  321MOL0     C44218   8.735   8.706   8.665  0.4861 -0.4222 -0.6622
  321MOL0     O44219   8.620   8.707   8.587  0.0880  0.5730 -0.1093
  321MOL0     C44220   8.593   8.811   8.487  0.4303  0.1023 -1.0202
  321MOL0     C44221   8.450   8.811   8.443 -0.4623 -0.8289  1.0299
  321MOL0     C44222   8.352   8.866   8.546  0.5361  0.5681 -0.3194
  321MOL0     C44223   8.202   8.838   8.499  0.0318 -0.0843  0.1478
  321MOL0     C44224   8.166   8.931   8.391 -0.5193  0.1369 -0.3032
  321MOL0     C44225   8.160   8.994   8.288 -0.6370  0.3030  0.2709
  321MOL0     C44226   8.753   8.599   8.747 -0.2972 -0.7868 -0.4131
  321MOL0     C44227   8.870   8.581   8.823  0.4258  1.1071 -0.3393
  321MOL0     C44228   8.873   8.466   8.903 -0.5402  0.5235  0.2252
  321MOL0     H44229   9.259   8.922   8.976 -0.7606 -1.3033 -0.2542
  321MOL0     H44230   9.465   8.970   9.107  3.9297  0.0793  2.2075
  321MOL0     H44231   9.817   8.743   9.030  0.0983  3.2214  0.7641
  321MOL0     H44232   9.774   8.636   9.161 -0.1959  0.0322 -0.9800
  321MOL0     H44233   9.915   8.896   9.225 -3.4149  1.2895  0.3817
  321MOL0     H44234   9.880   8.763   9.338 -0.4695 -0.1119 -1.0226
  321MOL0     H44235  10.000   8.603   9.177  1.1680 -1.2044  1.1162
  321MOL0     H44236  10.049   8.751   9.086 -0.5648  1.9111  1.4039
  321MOL0     H44237  10.153   8.839   9.307  1.1610  1.5288 -3.6397
  321MOL0     H44238  10.107   8.686   9.388  0.5482 -0.8808 -0.7965
  321MOL0     H44239  10.280   8.716   9.139 -2.7437 -1.8981 -1.2121
  321MOL0     H44240  10.232   8.562   9.216  1.1426 -0.6355  0.0548
  321MOL0     H44241  10.417   8.757   9.369 -0.2110 -0.0730 -0.1785
  321MOL0     H44242  10.340   8.617   9.437  2.9703 -2.1339  0.7108
  321MOL0     H44243  10.437   8.481   9.254  1.6330  0.3212 -0.2793
  321MOL0     H44244  10.554   8.553   9.365 -0.8223  2.3493  1.7933
  321MOL0     H44245  10.484   8.686   9.103 -0.7625  0.2897  1.5198
  321MOL0     H44246  10.602   8.730   9.225 -0.9233  0.4574 -0.4621
  321MOL0     H44247  10.738   8.427   9.263  1.0997  0.0304 -0.4405
  321MOL0     H44248  10.780   8.185   8.950 -1.1808 -0.8039  0.9285
  321MOL0     H44249  10.803   8.184   9.121  0.9962  2.4110  1.4047
  321MOL0     H44250  11.018   8.165   9.001  1.9816  1.1613  1.3360
  321MOL0     H44251  10.989   8.330   8.952 -0.1716 -0.4681  0.2140
  321MOL0     H44252  10.975   8.426   9.165  0.6430 -0.5930  2.4960
  321MOL0     H44253  10.968   8.275   9.255  2.3045  1.4067  2.5973
  321MOL0     H44254  11.205   8.347   9.280  1.0177  0.3664 -0.5121
  321MOL0     H44255  11.183   8.212   9.171 -0.8008 -0.1179 -0.1514
  321MOL0     H44256  11.412   8.246   9.186  0.0451 -0.0067  0.5905
  321MOL0     H44257  11.761   8.310   9.270  1.8437  0.1280 -0.9429
  321MOL0     H44258  11.747   8.237   9.113 -0.2383  2.6515 -1.0497
  321MOL0     H44259  11.635   8.178   9.236 -0.7972 -0.2563 -2.6988
  321MOL0     H44260  11.893   8.817   8.870 -0.1743  0.9911 -0.4671
  321MOL0     H44261  12.107   8.904   8.829  2.0918 -0.5759  0.0640
  321MOL0     H44262  12.348   8.837   8.786 -1.9565 -1.1974  1.9301
  321MOL0     H44263  12.309   9.006   8.847  0.2750  0.2565  0.9498
  321MOL0     H44264  12.555   9.031   8.928  0.6398 -0.4246  0.6672
  321MOL0     H44265  12.568   8.857   8.908 -0.8590 -0.5801 -0.2265
  321MOL0     H44266  12.525   9.075   8.701  0.2547  0.4308  2.0785
  321MOL0     H44267  12.514   8.903   8.654 -2.2153  0.3415  0.2799
  321MOL0     H44268  12.749   8.867   8.732 -0.6190 -1.2092 -2.4265
  321MOL0     H44269  12.752   9.035   8.796 -2.9945  1.2271  0.4254
  321MOL0     H44270  12.688   8.984   8.505 -1.9395  0.3923  1.4868
  321MOL0     H44271  12.767   9.124   8.580 -2.7302  0.0130 -2.2283
  321MOL0     H44272  12.915   9.005   8.446 -3.2968  1.6219 -0.9481
  321MOL0     H44273  12.892   8.855   8.540 -3.7467 -0.0234  3.5728
  321MOL0     H44274  12.979   8.989   8.740 -5.4070 -0.2330 -0.5288
  321MOL0     H44275  13.025   9.121   8.631 -2.7863  0.5009 -0.4917
  321MOL0     H44276  13.197   8.946   8.517 -0.6848  0.7370 -0.4127
  321MOL0     H44277  13.106   8.823   8.585 -3.4513  1.3880 -0.0159
  321MOL0     H44278  12.247   8.753   9.198  0.1841  1.4719  0.2376
  321MOL0     H44279  12.028   8.649   9.245 -1.3349  0.1629  0.1212
  321MOL0     H44280  11.544   8.711   9.055 -1.3498  0.5274 -0.2327
  321MOL0     H44281  11.323   8.615   9.021 -2.0324 -1.2145 -0.3607
  321MOL0     H44282   9.589   8.573   9.018 -1.4163 -0.3510  3.1690
  321MOL0     H44283   9.420   8.558   8.826  0.2769 -0.3951 -0.0470
  321MOL0     H44284   9.032   8.864   8.709 -2.0199  2.4040  0.2807
  321MOL0     H44285   8.831   8.886   8.592 -1.1875 -1.7452 -1.1421
  321MOL0     H44286   8.626   8.911   8.519 -1.3142  0.7469 -1.0932
  321MOL0     H44287   8.661   8.788   8.405  1.0623 -1.1301 -0.1858
  321MOL0     H44288   8.432   8.708   8.412  1.3635 -0.5311 -1.3346
  321MOL0     H44289   8.445   8.868   8.349 -0.4093  0.8091  1.9853
  321MOL0     H44290   8.367   8.812   8.640  0.5773  3.9243  1.7855
  321MOL0     H44291   8.388   8.968   8.568 -0.8146  1.4924 -2.1443
  321MOL0     H44292   8.143   8.866   8.587 -2.7684 -2.5735 -0.7705
  321MOL0     H44293   8.175   8.732   8.489 -2.3730  0.2920  1.8496
  321MOL0     H44294   8.160   9.045   8.194  1.9038 -3.3905 -2.0094
  321MOL0     H44295   8.660   8.543   8.759 -0.9742  0.2609 -0.6707
  321MOL0     H44296   8.893   8.481   9.009 -1.6832 -1.4508  0.7706
  321MOL0     H44297   8.773   8.422   8.898  0.8219 -2.8037 -0.9530
  321MOL0     H44298   8.939   8.392   8.856 -0.3878  1.2610 -0.7601
  322MOL0     O44299   1.260   3.032   0.726 -0.3233 -0.1235  0.0971
  322MOL0     C44300   1.184   2.987   0.809 -0.2363  0.2235  1.1165
  322MOL0     O44301   1.162   3.029   0.935 -0.5227  0.3458  0.1309
  322MOL0     C44302   1.226   3.140   0.982 -0.0670 -0.9222  0.5816
  322MOL0     C44303   1.259   3.259   0.901  0.4761  1.0367  0.2605
  322MOL0     C44304   1.325   3.363   0.967 -0.2619  0.2895  0.1569
  322MOL0     C44305   1.360   3.351   1.101  0.3602  0.2366  0.0342
  322MOL0     O44306   1.428   3.453   1.156  0.5301  0.4171 -0.0237
  322MOL0     C44307   1.514   3.433   1.267  0.5682 -0.4145  0.3657
  322MOL0     C44308   1.573   3.570   1.314 -0.1757 -0.0293 -0.6649
  322MOL0     C44309   1.667   3.627   1.210  0.7180 -0.4613  0.2318
  322MOL0     C44310   1.823   3.613   1.256  0.6195 -0.2546  0.1794
  322MOL0     C44311   1.910   3.638   1.142 -0.1274  0.2161 -0.7571
  322MOL0     C44312   2.062   3.634   1.174  0.3954  0.5879  0.5449
  322MOL0     C44313   2.093   3.735   1.282  0.2882  0.1663  0.2383
  322MOL0     C44314   2.240   3.788   1.277  0.5838 -0.3568 -0.7006
  322MOL0     N44315   2.284   3.835   1.415  0.3172 -0.2408  1.3487
  322MOL0     C44316   2.361   3.766   1.508 -0.8713 -0.4513  0.2788
  322MOL0     C44317   2.387   3.866   1.600  0.6110  0.1886 -0.0667
  322MOL0     C44318   2.489   3.842   1.706  0.0885 -0.1929  0.7544
  322MOL0     C44319   2.634   3.833   1.645 -0.1985 -0.9387 -0.8926
  322MOL0     C44320   2.687   3.950   1.564  0.0128  0.7306 -0.1283
  322MOL0     C44321   2.719   4.065   1.648 -0.2780  0.8082  0.6070
  322MOL0     O44322   2.838   4.042   1.725  0.7029 -0.5460  0.1248
  322MOL0     C44323   2.968   4.054   1.678 -0.8087 -0.9316 -0.3438
  322MOL0     C44324   3.011   4.080   1.542 -0.2674 -0.4666  0.2793
  322MOL0     C44325   3.146   4.082   1.501 -0.3046  0.0865 -0.2628
  322MOL0     C44326   3.182   4.106   1.359  0.0719 -0.8009  0.1210
  322MOL0     C44327   3.238   4.052   1.601  0.4714  0.2438 -0.8493
  322MOL0     C44328   3.380   4.052   1.577 -0.4601  0.1020 -0.4141
  322MOL0     O44329   3.438   4.013   1.460 -0.1392 -0.4866 -0.3743
  322MOL0     C44330   3.572   3.993   1.441  0.2889 -0.2381 -0.3601
  322MOL0     C44331   3.669   3.952   1.537 -0.5696  0.1037 -1.0539
  322MOL0     C44332   3.801   3.920   1.504  0.4319  0.2527 -0.4640
  322MOL0     C44333   3.830   3.927   1.369  0.2255  0.3660  0.6226
  322MOL0     O44334   3.955   3.905   1.323 -0.4093 -0.3730  0.2992
  322MOL0     C44335   4.075   3.938   1.402  1.0307  0.3906  0.3644
  322MOL0     C44336   4.197   3.921   1.319 -0.5580 -0.3083  0.9744
  322MOL0     C44337   4.325   3.944   1.400 -0.5616 -0.6204  0.1446
  322MOL0     C44338   4.440   4.015   1.323 -1.0000 -0.5369  0.0417
  322MOL0     C44339   4.537   4.077   1.418 -0.9942 -0.1489  0.5993
  322MOL0     C44340   4.598   3.974   1.529 -0.1097  0.5246  0.4489
  322MOL0     C44341   4.716   4.043   1.598 -0.4325 -0.4426  0.2582
  322MOL0     C44342   4.723   3.993   1.745 -0.5616  0.6019 -0.1078
  322MOL0    Cl44343   4.571   4.026   1.836  0.1420  0.1118  0.4384
  322MOL0     C44344   3.738   3.954   1.270  0.4900  0.6962 -0.2204
  322MOL0     C44345   3.610   3.994   1.305  0.4708 -0.4946 -0.6475
  322MOL0     O44346   3.447   4.095   1.673 -0.0057 -0.1220  0.7815
  322MOL0     C44347   3.198   4.037   1.736  0.4829  0.4357  0.0227
  322MOL0     C44348   3.064   4.040   1.775 -0.7093  0.6065  0.6322
  322MOL0     N44349   2.326   3.984   1.568 -0.1924  0.1943 -0.3032
  322MOL0     N44350   2.267   3.961   1.450 -0.0807  0.5543  0.0090
  322MOL0     C44351   1.322   3.238   1.178  0.3202  0.1974 -0.2666
  322MOL0     C44352   1.251   3.141   1.113  0.9459 -0.2993 -0.1645
  322MOL0     C44353   1.105   2.875   0.766 -0.7657  0.3657  0.5341
  322MOL0     C44354   0.981   2.896   0.712  0.6890 -0.3122  0.0042
  322MOL0     C44355   0.906   2.805   0.649  0.7967  0.2040 -0.2451
  322MOL0     C44356   0.936   2.668   0.666  0.0162 -0.8210  0.7631
  322MOL0     O44357   0.855   2.570   0.607 -0.4942  0.4894 -0.0986
  322MOL0     C44358   0.820   2.452   0.688 -0.4329  0.6691  0.8720
  322MOL0     C44359   0.706   2.487   0.766 -0.4817  0.2757 -0.5134
  322MOL0     C44360   0.588   2.529   0.681  0.2312  0.1125 -0.3460
  322MOL0     C44361   0.451   2.518   0.740  0.0148  0.5583  0.0901
  322MOL0     C44362   0.355   2.617   0.687 -0.5702  0.1014  0.0937
  322MOL0     C44363   0.274   2.704   0.664 -0.6716  0.5093  0.7093
  322MOL0     C44364   1.066   2.636   0.721  0.5294 -0.0704  0.5612
  322MOL0     C44365   1.157   2.749   0.761 -0.1711  0.1280  0.5829
  322MOL0     C44366   1.304   2.729   0.762 -0.3879  0.9306 -0.4851
  322MOL0     H44367   1.226   3.273   0.798 -0.7657 -0.8565  0.3492
  322MOL0     H44368   1.343   3.448   0.901 -1.2115 -2.2199 -3.6181
  322MOL0     H44369   1.594   3.372   1.225 -0.0376  0.6525 -2.6388
  322MOL0     H44370   1.454   3.386   1.345  1.9188 -0.3114  1.4932
  322MOL0     H44371   1.491   3.638   1.337  1.2472  0.9292  2.0511
  322MOL0     H44372   1.618   3.546   1.411 -0.7755  0.6551 -0.2059
  322MOL0     H44373   1.644   3.592   1.109  0.1459  0.2730  0.1036
  322MOL0     H44374   1.643   3.733   1.208 -1.1967 -0.8623 -0.9106
  322MOL0     H44375   1.839   3.676   1.344 -1.9520  0.5270  0.1625
  322MOL0     H44376   1.835   3.510   1.292  1.7137 -0.4583 -0.7070
  322MOL0     H44377   1.886   3.730   1.088  0.8899  1.1646  0.3529
  322MOL0     H44378   1.882   3.561   1.070 -0.0456 -2.0683  1.5461
  322MOL0     H44379   2.089   3.533   1.204  0.3115  0.5752  0.5753
  322MOL0     H44380   2.109   3.664   1.080 -0.8408  2.4898  0.4669
  322MOL0     H44381   2.075   3.698   1.383 -1.2107  3.3679  1.2824
  322MOL0     H44382   2.023   3.818   1.272 -0.3468 -0.5393 -1.6076
  322MOL0     H44383   2.313   3.719   1.234  1.4658  0.4860 -0.5687
  322MOL0     H44384   2.240   3.868   1.203 -0.6143 -1.2593 -1.7482
  322MOL0     H44385   2.404   3.667   1.498  1.8678  0.7986 -1.4939
  322MOL0     H44386   2.475   3.743   1.750  2.8950 -0.0479  2.2482
  322MOL0     H44387   2.490   3.913   1.789  1.0883 -0.1474  0.7178
  322MOL0     H44388   2.703   3.822   1.729  0.4826  0.9673 -1.1474
  322MOL0     H44389   2.633   3.747   1.578  0.4414  0.7450 -3.1921
  322MOL0     H44390   2.783   3.929   1.515  0.5820  1.5255  0.6066
  322MOL0     H44391   2.623   3.976   1.479 -2.0786 -0.8489  0.8790
  322MOL0     H44392   2.752   4.138   1.574  5.2321 -0.9459  0.8650
  322MOL0     H44393   2.631   4.085   1.710  0.3593  0.8251  1.5257
  322MOL0     H44394   2.934   4.088   1.466 -1.0072 -0.5892  0.9986
  322MOL0     H44395   3.213   4.012   1.312 -0.8431 -0.8334 -0.4540
  322MOL0     H44396   3.271   4.170   1.352 -1.4710  1.8129  2.4332
  322MOL0     H44397   3.089   4.130   1.306 -0.9736 -3.3544  0.6505
  322MOL0     H44398   3.638   3.939   1.641  1.3579 -2.8747 -0.7380
  322MOL0     H44399   3.872   3.881   1.577 -0.6124  3.1568  2.3448
  322MOL0     H44400   4.068   4.042   1.434 -1.3949  1.0963 -2.0740
  322MOL0     H44401   4.080   3.868   1.486  0.5754 -0.4025 -0.2616
  322MOL0     H44402   4.197   3.818   1.283 -1.8904 -0.1912  0.6067
  322MOL0     H44403   4.192   3.998   1.242 -1.3561 -0.6823  0.6422
  322MOL0     H44404   4.366   3.852   1.442  2.9215  0.5524 -0.3206
  322MOL0     H44405   4.310   4.003   1.491  1.5203 -0.1079  0.2201
  322MOL0     H44406   4.405   4.097   1.260 -1.8010  0.6430  1.9589
  322MOL0     H44407   4.489   3.942   1.257 -0.5599 -2.6492  2.5604
  322MOL0     H44408   4.614   4.113   1.349 -2.5668  1.0725 -0.5784
  322MOL0     H44409   4.490   4.168   1.455 -0.9885  1.4583 -2.9229
  322MOL0     H44410   4.644   3.896   1.468  1.0344  3.0386 -2.1843
  322MOL0     H44411   4.519   3.933   1.593 -0.2922 -1.0483 -0.7115
  322MOL0     H44412   4.691   4.150   1.601  0.0324 -0.3406  0.6351
  322MOL0     H44413   4.809   4.027   1.544 -1.2214  2.4543 -2.2753
  322MOL0     H44414   4.813   4.038   1.787  1.2163  1.2824 -4.2115
  322MOL0     H44415   4.738   3.884   1.740  3.1541  1.0584 -2.3712
  322MOL0     H44416   3.761   3.950   1.164  0.1297  1.2483 -0.3247
  322MOL0     H44417   3.530   4.008   1.234 -1.6128  2.6662  2.0087
  322MOL0     H44418   3.279   4.023   1.807  0.3993  3.3780  0.7936
  322MOL0     H44419   3.021   4.034   1.874 -0.1282 -0.4698  0.8376
  322MOL0     H44420   1.346   3.213   1.281  2.8883  0.1074 -0.8168
  322MOL0     H44421   1.226   3.050   1.168  0.1221  0.4592  0.7531
  322MOL0     H44422   0.946   2.998   0.709  0.5570 -0.3464  0.3859
  322MOL0     H44423   0.812   2.831   0.600 -0.0649 -2.6507 -0.3133
  322MOL0     H44424   0.803   2.357   0.637  0.2684 -1.3218  4.0457
  322MOL0     H44425   0.903   2.432   0.757  0.6298  1.9529  0.0086
  322MOL0     H44426   0.727   2.575   0.827 -4.0430  1.2421 -0.4734
  322MOL0     H44427   0.667   2.398   0.817 -0.8493 -2.9966 -5.6857
  322MOL0     H44428   0.601   2.632   0.645 -2.8751 -0.0123 -2.1949
  322MOL0     H44429   0.588   2.471   0.588  1.7845  1.1308 -1.0472
  322MOL0     H44430   0.464   2.535   0.847  4.1741  0.7168 -0.2835
  322MOL0     H44431   0.409   2.418   0.726  1.3308 -0.0117  0.0296
  322MOL0     H44432   0.196   2.774   0.643 -0.1014  0.4968 -1.7861
  322MOL0     H44433   1.116   2.539   0.713  1.9958  0.5652  1.5919
  322MOL0     H44434   1.320   2.621   0.766  0.7935  1.0977 -0.2576
  322MOL0     H44435   1.358   2.770   0.676  2.5137  0.4075  0.9506
  322MOL0     H44436   1.348   2.771   0.854  1.5615 -1.7598 -0.0641
  323MOL0     O44437  10.099  10.458   8.042 -0.4556  0.1079 -0.3666
  323MOL0     C44438  10.132  10.550   8.117  0.9013  0.8687  0.0071
  323MOL0     O44439  10.194  10.662   8.088 -0.2749  0.2034  0.1854
  323MOL0     C44440  10.269  10.671   7.971  0.7587 -0.3257 -0.2051
  323MOL0     C44441  10.255  10.785   7.895 -0.2539 -0.2156 -0.3778
  323MOL0     C44442  10.304  10.795   7.764 -1.0789 -0.1859  0.0185
  323MOL0     C44443  10.386  10.686   7.722  0.5410  0.6225 -0.0511
  323MOL0     O44444  10.444  10.688   7.600 -0.5247 -0.0566 -0.8768
  323MOL0     C44445  10.523  10.801   7.573 -0.9200 -0.0342 -0.4764
  323MOL0     C44446  10.596  10.767   7.447 -0.8338 -0.8849 -0.6315
  323MOL0     C44447  10.673  10.897   7.391  0.3889 -0.6371  0.4128
  323MOL0     C44448  10.671  10.884   7.236 -0.3026  0.1650  0.2565
  323MOL0     C44449  10.745  11.000   7.173  0.0077  0.1650 -0.3135
  323MOL0     C44450  10.750  10.975   7.028  0.6500  0.8503  0.3167
  323MOL0     C44451  10.840  11.078   6.964  0.1021 -0.0706  0.9142
  323MOL0     C44452  10.773  11.221   6.951 -0.4542 -0.7771 -0.4193
  323MOL0     N44453  10.840  11.320   6.857 -0.3194 -0.0673 -0.0817
  323MOL0     C44454  10.958  11.392   6.886 -0.0521 -0.2052 -1.0631
  323MOL0     C44455  10.990  11.451   6.769 -0.2909 -0.7903 -0.0483
  323MOL0     C44456  11.119  11.521   6.756 -0.1277  0.0154 -0.3336
  323MOL0     C44457  11.077  11.671   6.750  0.7916 -0.3037  0.6366
  323MOL0     C44458  11.180  11.768   6.704  0.3397 -0.0075 -0.1823
  323MOL0     C44459  11.288  11.788   6.806 -0.9517 -0.0382  0.1480
  323MOL0     O44460  11.244  11.861   6.919  0.4893 -0.1412  0.4480
  323MOL0     C44461  11.329  11.883   7.018 -0.5686 -0.3485 -0.5528
  323MOL0     C44462  11.475  11.878   7.016  1.1650  0.0999 -0.2565
  323MOL0     C44463  11.553  11.905   7.133 -0.2526 -0.2399 -0.0949
  323MOL0     C44464  11.702  11.900   7.130 -0.9596  0.5722  0.7843
  323MOL0     C44465  11.492  11.949   7.258 -0.2598  1.2155  0.2114
  323MOL0     C44466  11.569  11.995   7.378  0.1994  0.6094  0.2196
  323MOL0     O44467  11.499  11.983   7.504  0.6587 -0.0104  0.3835
  323MOL0     C44468  11.569  11.979   7.620 -0.3530  0.2941 -0.5565
  323MOL0     C44469  11.517  11.893   7.721 -0.0437  0.4274 -0.3311
  323MOL0     C44470  11.577  11.872   7.844 -0.8319 -0.6159  0.2520
  323MOL0     C44471  11.703  11.935   7.871 -0.2962 -0.0016 -0.0614
  323MOL0     O44472  11.777  11.896   7.979  0.4939 -0.3408 -0.3617
  323MOL0     C44473  11.790  11.760   8.009 -0.0735 -0.3233 -0.6403
  323MOL0     C44474  11.912  11.749   8.104 -0.7143  0.1015  0.3096
  323MOL0     C44475  12.044  11.777   8.025 -1.0832  0.1056  0.1329
  323MOL0     C44476  12.167  11.748   8.112  0.1039  0.7593 -0.7561
  323MOL0     C44477  12.298  11.754   8.035 -0.4697 -0.0141 -0.0082
  323MOL0     C44478  12.326  11.896   7.979  0.0101  0.3045 -0.4855
  323MOL0     C44479  12.285  11.897   7.827  1.0096  0.2199  0.1410
  323MOL0     C44480  12.296  12.037   7.768  0.5913  0.3407 -0.2057
  323MOL0    Cl44481  12.189  12.147   7.842 -0.4420  0.3878 -0.1945
  323MOL0     C44482  11.749  12.025   7.773 -0.9774 -0.2553 -0.0233
  323MOL0     C44483  11.681  12.051   7.655  0.1536  0.1199 -0.8668
  323MOL0     O44484  11.685  12.027   7.368  0.0403  0.3446  0.3623
  323MOL0     C44485  11.350  11.945   7.256 -0.5090 -0.3158 -1.1621
  323MOL0     C44486  11.275  11.912   7.140  0.4334 -0.1131 -0.4877
  323MOL0     N44487  10.897  11.425   6.670  0.3347 -0.5860 -0.0690
  323MOL0     N44488  10.802  11.355   6.724  0.0488 -0.1956 -0.8615
  323MOL0     C44489  10.409  10.576   7.807  0.4561  0.0245  0.2246
  323MOL0     C44490  10.362  10.568   7.937 -1.1821  0.9301 -0.3207
  323MOL0     C44491  10.089  10.546   8.256  0.2750 -0.6545 -0.0671
  323MOL0     C44492  10.169  10.611   8.355  0.2736 -0.1185  0.8847
  323MOL0     C44493  10.138  10.606   8.488  0.9538  1.0107 -0.2723
  323MOL0     C44494  10.030  10.525   8.530 -1.0343 -0.5381  0.3599
  323MOL0     O44495  10.008  10.519   8.669  0.5494  0.2216  0.6512
  323MOL0     C44496   9.951  10.405   8.732  0.2680  0.6784  0.5368
  323MOL0     C44497   9.800  10.404   8.745  0.2185 -0.8062 -0.0241
  323MOL0     C44498   9.757  10.492   8.872 -0.3277  0.5366  0.1096
  323MOL0     C44499   9.601  10.531   8.878 -0.0507 -0.3627 -0.0433
  323MOL0     C44500   9.527  10.398   8.873  0.0869  0.3980 -0.8160
  323MOL0     C44501   9.460  10.296   8.888  0.1357 -0.1436 -0.3521
  323MOL0     C44502   9.951  10.468   8.433  0.0836 -0.1230  0.2984
  323MOL0     C44503   9.975  10.472   8.295 -0.4273 -0.2205  0.1751
  323MOL0     C44504   9.876  10.391   8.210  0.5756  0.6419 -0.9905
  323MOL0     H44505  10.204  10.873   7.933 -0.4847 -0.1016 -0.9374
  323MOL0     H44506  10.287  10.875   7.693 -2.2051 -1.4083 -1.1430
  323MOL0     H44507  10.590  10.823   7.657 -0.9964 -1.6501  0.0530
  323MOL0     H44508  10.464  10.892   7.562 -3.3053 -1.6722 -2.0063
  323MOL0     H44509  10.666  10.683   7.450  1.9235  1.3035  0.1207
  323MOL0     H44510  10.515  10.747   7.377 -2.0616 -2.7330  1.2119
  323MOL0     H44511  10.621  10.983   7.434  1.4164  0.7775 -1.0365
  323MOL0     H44512  10.776  10.889   7.426  1.8603 -2.6131 -3.7001
  323MOL0     H44513  10.723  10.792   7.209  0.0550  0.9034 -1.7527
  323MOL0     H44514  10.566  10.883   7.206  0.3158 -1.1303 -2.1017
  323MOL0     H44515  10.850  10.992   7.203  0.1971 -2.4953 -1.4145
  323MOL0     H44516  10.704  11.094   7.211  0.4188 -0.8607  2.9853
  323MOL0     H44517  10.782  10.871   7.015 -3.2200 -0.2577 -1.8878
  323MOL0     H44518  10.651  10.974   6.982  0.4620  0.3193  0.7266
  323MOL0     H44519  10.858  11.032   6.866  0.0118 -1.5566  1.5728
  323MOL0     H44520  10.938  11.092   7.010  0.4795  0.7299 -0.0739
  323MOL0     H44521  10.668  11.204   6.927 -0.9844 -0.0314  1.1814
  323MOL0     H44522  10.765  11.268   7.050  0.4840  2.8919 -1.9345
  323MOL0     H44523  11.017  11.392   6.977 -0.7517  0.3677 -0.5965
  323MOL0     H44524  11.167  11.467   6.674  0.3383 -4.1186  2.3210
  323MOL0     H44525  11.187  11.504   6.840  1.7928  1.0392 -1.6092
  323MOL0     H44526  10.998  11.676   6.675  1.7107  1.4512 -0.2756
  323MOL0     H44527  11.035  11.703   6.845  0.3724 -0.3883  0.4831
  323MOL0     H44528  11.224  11.737   6.608 -1.0477 -1.8859 -0.2595
  323MOL0     H44529  11.150  11.871   6.684  2.5823  1.3022  2.4651
  323MOL0     H44530  11.322  11.694   6.851  1.1016  1.6769  2.4959
  323MOL0     H44531  11.369  11.840   6.755 -1.4642 -1.1483 -1.8975
  323MOL0     H44532  11.532  11.839   6.932  1.2459  0.1775 -0.2381
  323MOL0     H44533  11.730  11.851   7.036 -0.7179  2.8273 -0.3896
  323MOL0     H44534  11.742  11.835   7.208  1.1256 -0.3616 -0.9597
  323MOL0     H44535  11.751  11.998   7.129 -0.1308  0.1686  0.7140
  323MOL0     H44536  11.435  11.828   7.693  1.7263 -0.8983 -2.8218
  323MOL0     H44537  11.522  11.812   7.916 -0.2932  0.0697  1.2697
  323MOL0     H44538  11.703  11.731   8.067  1.3713 -2.1040  0.7811
  323MOL0     H44539  11.800  11.701   7.917  1.6013 -1.3193  0.1210
  323MOL0     H44540  11.911  11.825   8.182  2.6228  1.3020 -0.6368
  323MOL0     H44541  11.906  11.652   8.154 -1.2084 -0.1715 -0.2688
  323MOL0     H44542  12.038  11.883   8.002  1.4876  0.5138  1.0650
  323MOL0     H44543  12.049  11.722   7.930 -2.2675  2.4804 -1.4233
  323MOL0     H44544  12.169  11.645   8.149  3.4761  1.0800  0.2407
  323MOL0     H44545  12.160  11.814   8.199 -0.8968 -1.3070  0.8203
  323MOL0     H44546  12.381  11.735   8.102 -2.4659 -0.0905  2.5862
  323MOL0     H44547  12.289  11.673   7.962 -0.7409  0.3624 -0.4023
  323MOL0     H44548  12.433  11.917   7.993  0.2097 -1.8526  1.8010
  323MOL0     H44549  12.285  11.977   8.040  3.6812  1.8362  0.1915
  323MOL0     H44550  12.182  11.863   7.819  1.7752 -2.7033  1.4580
  323MOL0     H44551  12.349  11.829   7.770  0.1163 -1.1071  0.6746
  323MOL0     H44552  12.274  12.033   7.661  0.5830  0.4872 -0.2097
  323MOL0     H44553  12.402  12.064   7.771  1.5887 -3.0985  1.0852
  323MOL0     H44554  11.846  12.069   7.795 -0.4241 -2.4545  2.4973
  323MOL0     H44555  11.724  12.135   7.600  2.2878  1.2221  2.2033
  323MOL0     H44556  11.282  11.962   7.339 -0.8713 -0.8963 -1.3376
  323MOL0     H44557  11.167  11.907   7.144  0.3568  0.8295 -1.0179
  323MOL0     H44558  10.468  10.494   7.768 -0.9795 -1.6624  1.4232
  323MOL0     H44559  10.379  10.481   7.999 -1.6236  0.4335 -0.8916
  323MOL0     H44560  10.258  10.667   8.326 -0.7765  0.4362 -1.4769
  323MOL0     H44561  10.198  10.662   8.559  1.1805 -1.7045  1.8750
  323MOL0     H44562   9.984  10.318   8.674  0.2824  0.1916  1.2544
  323MOL0     H44563   9.991  10.396   8.834 -1.8638 -0.0425  1.3657
  323MOL0     H44564   9.758  10.303   8.748 -0.8261 -0.3497  2.0183
  323MOL0     H44565   9.753  10.451   8.658 -1.4491 -0.2762  1.1363
  323MOL0     H44566   9.781  10.423   8.953  1.2239 -1.4503 -1.9126
  323MOL0     H44567   9.813  10.586   8.878 -0.3814  0.4898  2.0328
  323MOL0     H44568   9.573  10.590   8.791 -0.4286  1.1630  1.0735
  323MOL0     H44569   9.583  10.586   8.971  0.5507 -2.0060  1.0984
  323MOL0     H44570   9.411  10.201   8.900 -0.5396 -0.1539 -2.6522
  323MOL0     H44571   9.879  10.401   8.480  1.5530 -0.3795  2.3272
  323MOL0     H44572   9.795  10.354   8.274  0.0895 -0.2312 -2.0846
  323MOL0     H44573   9.831  10.457   8.135 -0.6217  2.2975  1.0778
  323MOL0     H44574   9.913  10.309   8.149 -3.6953 -1.8130 -0.7162
  324MOL0     O44575  10.711   4.301   5.707 -0.5432 -0.1610 -0.1558
  324MOL0     C44576  10.712   4.330   5.829  0.1375  0.9003  0.8632
  324MOL0     O44577  10.818   4.309   5.912 -0.5285  0.2306 -0.3403
  324MOL0     C44578  10.937   4.269   5.849 -0.0558 -0.4137  0.0499
  324MOL0     C44579  11.037   4.366   5.822 -0.7623 -0.1022  0.5577
  324MOL0     C44580  11.149   4.340   5.737  1.1943 -0.8985 -0.2744
  324MOL0     C44581  11.161   4.213   5.678  0.6750  0.1126 -0.3663
  324MOL0     O44582  11.267   4.197   5.599 -0.6868  0.5711 -0.8056
  324MOL0     C44583  11.303   4.072   5.541 -0.1040  0.6461  0.2552
  324MOL0     C44584  11.420   4.091   5.452 -0.5122  0.0428 -0.1072
  324MOL0     C44585  11.538   3.987   5.444 -0.4405  0.4015 -0.9023
  324MOL0     C44586  11.663   4.041   5.518 -0.0659 -0.5314 -0.4929
  324MOL0     C44587  11.790   3.949   5.520  0.4098 -0.4847  0.7203
  324MOL0     C44588  11.787   3.831   5.612  0.0790  0.4115  0.3981
  324MOL0     C44589  11.793   3.856   5.767  0.0663 -0.0218  0.3165
  324MOL0     C44590  11.874   3.977   5.815 -0.2132 -0.0977  0.4434
  324MOL0     N44591  12.027   3.943   5.828  0.2997 -0.7912  0.5989
  324MOL0     C44592  12.123   3.999   5.914 -0.5689 -0.3233 -0.9088
  324MOL0     C44593  12.233   3.922   5.900  0.2423 -0.5601  0.7777
  324MOL0     C44594  12.373   3.947   5.960  0.4304 -0.1139 -0.1315
  324MOL0     C44595  12.451   4.031   5.867 -1.1226  0.0540  0.0237
  324MOL0     C44596  12.567   4.096   5.945  0.4587  0.0011  0.1106
  324MOL0     C44597  12.657   4.006   6.022 -1.3492  1.0112 -0.5210
  324MOL0     O44598  12.711   3.933   5.921 -0.9542  0.2925 -0.3193
  324MOL0     C44599  12.813   3.960   5.845 -0.4210  0.4152  1.3218
  324MOL0     C44600  12.885   4.085   5.845  0.3479 -0.0091 -1.0102
  324MOL0     C44601  12.992   4.118   5.771 -0.1691 -0.1299  0.0195
  324MOL0     C44602  13.056   4.258   5.788 -0.3570 -0.3745 -0.1398
  324MOL0     C44603  13.040   4.013   5.683 -0.0394 -0.2004  0.5564
  324MOL0     C44604  13.161   4.026   5.604 -0.7268  0.5691  0.5031
  324MOL0     O44605  13.256   4.123   5.626 -0.3126  0.3464 -0.9938
  324MOL0     C44606  13.375   4.123   5.552 -0.1370  0.1321  0.7188
  324MOL0     C44607  13.371   4.168   5.417  0.2440 -0.1902 -1.1238
  324MOL0     C44608  13.494   4.190   5.352  0.6310  0.0085 -0.6824
  324MOL0     C44609  13.616   4.164   5.407 -0.7190  0.2916  0.5777
  324MOL0     O44610  13.727   4.172   5.324  0.7171 -0.3548 -0.0876
  324MOL0     C44611  13.850   4.172   5.398 -0.0851 -0.0040  1.2819
  324MOL0     C44612  13.966   4.184   5.298 -0.1963 -1.2791  0.1098
  324MOL0     C44613  14.103   4.137   5.357 -0.2038 -0.6870  0.0552
  324MOL0     C44614  14.142   4.220   5.479 -0.4621 -0.2796 -0.0487
  324MOL0     C44615  14.242   4.154   5.578  0.4028 -0.4651  0.0046
  324MOL0     C44616  14.373   4.096   5.517  0.2294 -0.3717  0.0743
  324MOL0     C44617  14.464   4.209   5.459  0.0923 -0.5529  0.1360
  324MOL0     C44618  14.579   4.138   5.389 -0.9898 -0.6216 -0.0015
  324MOL0    Cl44619  14.539   4.134   5.214  0.2173  0.1320  0.6279
  324MOL0     C44620  13.620   4.108   5.538 -0.3682  0.7232  0.2917
  324MOL0     C44621  13.498   4.092   5.609  0.0200  0.0270  0.2382
  324MOL0     O44622  13.177   3.934   5.520 -0.0981  0.4181  0.6938
  324MOL0     C44623  12.966   3.889   5.679 -0.1257  0.1286 -0.0070
  324MOL0     C44624  12.860   3.859   5.762  0.3322  1.2576 -0.1129
  324MOL0     N44625  12.204   3.845   5.792 -0.1151 -0.1412 -0.8535
  324MOL0     N44626  12.091   3.856   5.749  0.7498  0.5973 -0.0539
  324MOL0     C44627  11.064   4.115   5.707  0.3540  0.0284 -0.0619
  324MOL0     C44628  10.957   4.135   5.794 -0.5501 -0.2332 -0.6112
  324MOL0     C44629  10.590   4.374   5.898 -0.6106  0.2053  0.2786
  324MOL0     C44630  10.592   4.414   6.030 -0.2231 -0.1981 -1.3808
  324MOL0     C44631  10.476   4.463   6.095  0.1972 -0.5789 -0.2314
  324MOL0     C44632  10.350   4.441   6.036 -1.1393  1.0703 -0.1953
  324MOL0     O44633  10.238   4.465   6.112 -0.7024 -0.0122  0.2359
  324MOL0     C44634  10.113   4.413   6.072 -0.4335  0.7163 -0.2997
  324MOL0     C44635  10.114   4.268   6.086 -0.2334  0.0342  0.0478
  324MOL0     C44636  10.142   4.205   6.223  0.6159  0.0442 -0.1698
  324MOL0     C44637  10.059   4.253   6.344 -0.0183 -0.5398  1.4610
  324MOL0     C44638   9.920   4.197   6.324 -0.8734  0.3186  0.4797
  324MOL0     C44639   9.794   4.188   6.327 -0.5407  0.0123 -0.2535
  324MOL0     C44640  10.350   4.394   5.909  0.3554  0.1035  0.9468
  324MOL0     C44641  10.464   4.366   5.830 -0.1365 -0.0233 -0.1582
  324MOL0     C44642  10.444   4.308   5.688  0.2841  0.4675 -0.6795
  324MOL0     H44643  11.018   4.466   5.859 -0.4782  0.6777 -1.2692
  324MOL0     H44644  11.209   4.420   5.698 -1.9942  1.3540 -0.9636
  324MOL0     H44645  11.218   4.020   5.496 -1.1977  1.1394  1.6599
  324MOL0     H44646  11.341   4.013   5.625  0.2049  0.9439  0.3271
  324MOL0     H44647  11.387   4.104   5.349  1.9111  2.0476 -0.7197
  324MOL0     H44648  11.459   4.191   5.471 -1.4404  0.0398  2.1630
  324MOL0     H44649  11.529   3.898   5.507  1.4394  1.7412  1.4385
  324MOL0     H44650  11.565   3.956   5.343  0.4381  2.7828 -1.4706
  324MOL0     H44651  11.694   4.135   5.471 -1.4321  1.3931  2.1653
  324MOL0     H44652  11.639   4.080   5.617 -1.2206  0.2595 -1.0629
  324MOL0     H44653  11.873   4.016   5.542  0.7819 -0.8330  0.3948
  324MOL0     H44654  11.814   3.907   5.422  0.3350  0.7990  0.1305
  324MOL0     H44655  11.700   3.772   5.581 -0.9012  2.1087 -0.2318
  324MOL0     H44656  11.875   3.768   5.599  1.0432  1.2746  2.2232
  324MOL0     H44657  11.828   3.767   5.821  0.4006  1.3360  2.4698
  324MOL0     H44658  11.689   3.874   5.796  0.2298  1.6049 -0.0343
  324MOL0     H44659  11.855   4.066   5.754 -1.1921 -0.2971  0.4361
  324MOL0     H44660  11.836   4.018   5.909 -0.8722 -0.2631  0.2592
  324MOL0     H44661  12.111   4.085   5.979  1.1393 -0.2582 -0.6394
  324MOL0     H44662  12.414   3.847   5.976 -1.7848 -1.0245  0.2710
  324MOL0     H44663  12.374   3.988   6.062 -0.8181 -0.6524  0.1266
  324MOL0     H44664  12.491   3.970   5.786  1.8858 -0.2330  1.6116
  324MOL0     H44665  12.409   4.121   5.821  2.5290  2.0596  0.2866
  324MOL0     H44666  12.625   4.162   5.880  3.1149 -0.2277  2.0836
  324MOL0     H44667  12.521   4.160   6.021 -0.7604 -0.5302 -0.1605
  324MOL0     H44668  12.733   4.045   6.089  1.4497 -2.5966 -1.2553
  324MOL0     H44669  12.593   3.944   6.085 -0.7772  0.5439 -0.3904
  324MOL0     H44670  12.840   4.168   5.898 -1.0713 -1.5675  0.3572
  324MOL0     H44671  13.148   4.265   5.847  0.4739  1.1408 -1.5278
  324MOL0     H44672  12.996   4.335   5.837 -0.1208 -0.2881  0.0143
  324MOL0     H44673  13.076   4.311   5.694  0.1502  1.7132  1.0715
  324MOL0     H44674  13.273   4.193   5.377 -0.5558  2.5879  2.0923
  324MOL0     H44675  13.485   4.214   5.246 -2.1838 -0.3622 -0.5892
  324MOL0     H44676  13.850   4.255   5.469 -4.3661  0.4648  1.0003
  324MOL0     H44677  13.862   4.072   5.442  0.4132 -0.3105  0.4910
  324MOL0     H44678  13.948   4.121   5.210 -0.2035  0.8822 -1.5228
  324MOL0     H44679  13.962   4.284   5.254 -0.0457 -1.3678 -0.1071
  324MOL0     H44680  14.174   4.124   5.275  0.2853 -0.8413  0.4910
  324MOL0     H44681  14.088   4.039   5.401 -0.1083  0.0328  1.7907
  324MOL0     H44682  14.058   4.256   5.540  0.9806  2.3312  0.5682
  324MOL0     H44683  14.187   4.317   5.453 -1.5816  0.3471  0.2949
  324MOL0     H44684  14.254   4.221   5.664 -2.3383  0.1318  0.0035
  324MOL0     H44685  14.178   4.077   5.621 -0.9636  0.7209  0.1820
  324MOL0     H44686  14.341   4.025   5.440 -1.0433 -0.3410  0.5453
  324MOL0     H44687  14.421   4.036   5.595 -1.2652 -1.6372  0.0708
  324MOL0     H44688  14.510   4.272   5.536  1.1601  1.0104 -1.7224
  324MOL0     H44689  14.401   4.262   5.388 -1.1916 -0.4732  1.2760
  324MOL0     H44690  14.604   4.041   5.433  0.3837  0.3276  1.3913
  324MOL0     H44691  14.667   4.203   5.390 -0.6984 -0.9654 -1.3947
  324MOL0     H44692  13.706   4.082   5.598 -2.8568 -2.1776  2.9974
  324MOL0     H44693  13.499   4.051   5.709  1.8639 -0.4583  0.0684
  324MOL0     H44694  13.002   3.810   5.613  2.0543 -0.4981  1.8025
  324MOL0     H44695  12.816   3.760   5.765 -0.0367  1.4048  3.4235
  324MOL0     H44696  11.079   4.014   5.671  3.7635  0.7677 -1.1148
  324MOL0     H44697  10.895   4.048   5.813 -0.2131  0.2377  3.4443
  324MOL0     H44698  10.684   4.416   6.088 -1.8062 -2.0599  1.3960
  324MOL0     H44699  10.480   4.501   6.196 -0.5502 -2.0307  0.3789
  324MOL0     H44700  10.037   4.458   6.135 -0.5452 -2.7077  2.2960
  324MOL0     H44701  10.088   4.438   5.968  0.3343  0.2986 -0.5922
  324MOL0     H44702  10.192   4.226   6.022  1.0082  0.6278  1.1157
  324MOL0     H44703  10.016   4.240   6.045 -1.4208  1.5694  1.6793
  324MOL0     H44704  10.124   4.098   6.210 -1.4066  0.0607  1.8960
  324MOL0     H44705  10.250   4.221   6.232  0.8918  0.9860 -3.7842
  324MOL0     H44706  10.050   4.361   6.330 -1.6730 -0.8873 -0.6056
  324MOL0     H44707  10.108   4.227   6.439 -1.0332  2.1704  2.8523
  324MOL0     H44708   9.691   4.165   6.342 -0.5771 -2.6304 -3.4328
  324MOL0     H44709  10.256   4.376   5.858 -0.3611 -4.4786  3.2864
  324MOL0     H44710  10.485   4.208   5.672 -1.5566 -0.2589 -1.1119
  324MOL0     H44711  10.336   4.291   5.691  0.6086 -1.8516 -0.5780
  324MOL0     H44712  10.476   4.379   5.610  1.2919 -0.8155 -1.4838
  325MOL0     O44713  10.289   8.460   3.661 -0.4027  0.3832 -0.4319
  325MOL0     C44714  10.382   8.455   3.586 -0.7438 -0.4955  0.4195
  325MOL0     O44715  10.499   8.393   3.606 -0.3516 -0.3431  0.2391
  325MOL0     C44716  10.494   8.293   3.703 -0.3598 -1.2120  0.3894
  325MOL0     C44717  10.524   8.308   3.837  0.2039  0.0586  0.6305
  325MOL0     C44718  10.497   8.202   3.927 -0.5141  0.3286 -0.2877
  325MOL0     C44719  10.445   8.076   3.882 -0.3626  0.3322 -0.2569
  325MOL0     O44720  10.440   7.966   3.977  0.2367 -0.4153  0.2936
  325MOL0     C44721  10.446   7.842   3.926  0.3336 -0.6266  0.0603
  325MOL0     C44722  10.460   7.749   4.042  1.1916  0.9998 -0.8039
  325MOL0     C44723  10.607   7.706   4.082 -0.5081  0.4539 -0.2438
  325MOL0     C44724  10.623   7.614   4.206  0.6996  0.3748  0.4380
  325MOL0     C44725  10.744   7.520   4.210  0.5411  0.2798  0.4521
  325MOL0     C44726  10.874   7.570   4.278 -0.6237  0.2924  0.5521
  325MOL0     C44727  10.998   7.527   4.198  0.3352 -0.3602 -0.6015
  325MOL0     C44728  11.032   7.389   4.221 -0.5055 -0.0705  0.8468
  325MOL0     N44729  11.157   7.355   4.138  1.1371 -0.0801 -0.2883
  325MOL0     C44730  11.280   7.336   4.200  0.4727 -0.7229  0.4243
  325MOL0     C44731  11.363   7.327   4.098  1.3017 -0.5272  1.2930
  325MOL0     C44732  11.516   7.301   4.095  0.6707  0.7237 -0.0557
  325MOL0     C44733  11.587   7.426   4.150  0.4206 -0.4546 -0.1593
  325MOL0     C44734  11.722   7.403   4.203 -0.1027 -0.0289 -1.1649
  325MOL0     C44735  11.823   7.356   4.102  0.1563  0.8250 -1.0963
  325MOL0     O44736  11.928   7.295   4.171  0.2549  0.0656 -0.7585
  325MOL0     C44737  12.042   7.262   4.106 -0.1718 -0.2724 -0.5441
  325MOL0     C44738  12.155   7.236   4.182 -0.2488 -0.0211 -0.0977
  325MOL0     C44739  12.280   7.222   4.123 -0.4717 -0.1533  0.4863
  325MOL0     C44740  12.398   7.213   4.223  0.9212 -0.0432  0.3359
  325MOL0     C44741  12.291   7.221   3.983 -0.4238  0.2981  0.4746
  325MOL0     C44742  12.411   7.200   3.903 -0.1436  0.5193  0.6867
  325MOL0     O44743  12.391   7.117   3.795  0.1241 -0.4241  0.4987
  325MOL0     C44744  12.495   7.090   3.714  0.2219 -0.0873 -0.7136
  325MOL0     C44745  12.520   6.958   3.691 -0.4022 -0.1496 -0.2903
  325MOL0     C44746  12.605   6.919   3.586  0.8504 -0.1909 -0.2863
  325MOL0     C44747  12.659   7.016   3.499  0.5082  0.7631  0.1631
  325MOL0     O44748  12.728   6.973   3.389 -0.0929 -0.0493  0.2026
  325MOL0     C44749  12.817   7.066   3.332 -0.0559 -0.6053  0.1513
  325MOL0     C44750  12.939   7.009   3.271 -0.3948  0.1751 -0.0543
  325MOL0     C44751  13.048   7.124   3.247  0.1558  0.0670 -0.1579
  325MOL0     C44752  13.176   7.067   3.175  0.0577  0.3138 -0.0304
  325MOL0     C44753  13.299   7.157   3.187 -0.1049  0.5782 -0.1390
  325MOL0     C44754  13.414   7.092   3.101  0.1251 -0.2136  0.1227
  325MOL0     C44755  13.538   7.184   3.082 -1.5172  0.0515  0.8763
  325MOL0     C44756  13.623   7.133   2.961  0.2646 -0.4767 -0.5581
  325MOL0    Cl44757  13.765   7.226   2.951 -0.2816 -0.3459 -0.4164
  325MOL0     C44758  12.640   7.148   3.534  0.4771 -0.0846 -0.9011
  325MOL0     C44759  12.554   7.188   3.635  0.7608 -0.3056 -0.1451
  325MOL0     O44760  12.515   7.256   3.928 -0.3092  0.1522 -0.2801
  325MOL0     C44761  12.180   7.259   3.913  0.1400 -0.6155  0.3417
  325MOL0     C44762  12.056   7.270   3.970 -0.0929  0.1210 -0.4685
  325MOL0     N44763  11.299   7.341   3.976  0.2339  0.2830  0.2777
  325MOL0     N44764  11.175   7.365   4.006 -0.5109 -0.4181  0.3141
  325MOL0     C44765  10.418   8.066   3.744  0.7544 -0.2266 -0.4100
  325MOL0     C44766  10.441   8.172   3.658 -0.1689  0.0919 -0.1780
  325MOL0     C44767  10.374   8.540   3.461  0.3016  0.0331 -0.4477
  325MOL0     C44768  10.501   8.585   3.410  0.9954 -0.6975  0.1601
  325MOL0     C44769  10.520   8.658   3.299 -0.4374 -0.0962  0.0163
  325MOL0     C44770  10.412   8.718   3.246 -0.7553 -0.3418  1.0723
  325MOL0     O44771  10.445   8.802   3.146 -0.4578 -0.2642  0.2480
  325MOL0     C44772  10.354   8.808   3.036  0.2188 -0.2825 -0.3736
  325MOL0     C44773  10.422   8.883   2.929  0.0881  0.1187  0.3865
  325MOL0     C44774  10.557   8.817   2.873  1.8949  0.4004  0.4883
  325MOL0     C44775  10.670   8.834   2.977 -0.5063 -0.4402  0.3906
  325MOL0     C44776  10.796   8.846   2.901  0.3723 -0.3165 -1.1700
  325MOL0     C44777  10.903   8.851   2.857 -0.1009 -0.4272  0.3943
  325MOL0     C44778  10.285   8.690   3.300 -0.0510 -0.2570  0.4491
  325MOL0     C44779  10.265   8.596   3.401  0.6971  0.5746  0.1248
  325MOL0     C44780  10.125   8.593   3.452 -0.4297 -0.4728 -0.4833
  325MOL0     H44781  10.558   8.404   3.874  1.9992 -1.3263  2.8059
  325MOL0     H44782  10.525   8.213   4.032 -1.2863  1.4477 -0.1819
  325MOL0     H44783  10.529   7.841   3.854 -0.1031  0.3387 -0.4715
  325MOL0     H44784  10.356   7.820   3.869  0.2610  1.6946 -0.8412
  325MOL0     H44785  10.402   7.782   4.128 -0.4244 -2.7137 -0.3251
  325MOL0     H44786  10.415   7.658   4.001 -0.4652  1.6272 -0.4354
  325MOL0     H44787  10.634   7.649   3.993  0.5910  1.6381 -0.6986
  325MOL0     H44788  10.684   7.784   4.076  2.0550 -1.7307  1.6724
  325MOL0     H44789  10.612   7.672   4.298 -1.0323 -2.7328  2.3624
  325MOL0     H44790  10.541   7.541   4.216  0.6725  0.6795  3.2249
  325MOL0     H44791  10.766   7.486   4.109 -0.7650 -2.5519  1.0085
  325MOL0     H44792  10.723   7.426   4.262  1.4978 -0.6286 -0.7493
  325MOL0     H44793  10.867   7.679   4.286  0.2547  0.3872  0.1740
  325MOL0     H44794  10.872   7.536   4.382 -1.1087 -1.0850  0.1075
  325MOL0     H44795  11.082   7.585   4.239 -0.0337  2.0050 -2.9287
  325MOL0     H44796  10.984   7.551   4.093 -0.9558 -1.9213 -0.8212
  325MOL0     H44797  11.066   7.373   4.324  1.9959 -0.6953  0.0009
  325MOL0     H44798  10.946   7.326   4.197  0.3876 -0.5130 -1.4982
  325MOL0     H44799  11.302   7.335   4.306 -1.2977 -0.1447  0.8300
  325MOL0     H44800  11.538   7.300   3.988 -0.0779  2.0399 -0.2486
  325MOL0     H44801  11.544   7.214   4.155  0.0200  0.6280  0.1168
  325MOL0     H44802  11.586   7.506   4.075 -0.5900 -0.3760 -0.0722
  325MOL0     H44803  11.530   7.477   4.228 -2.3302 -0.7391 -1.8550
  325MOL0     H44804  11.763   7.493   4.250 -0.2539 -0.5997  0.0737
  325MOL0     H44805  11.714   7.333   4.286  2.2183  2.4091  1.3071
  325MOL0     H44806  11.772   7.284   4.037  0.3369 -0.4507  0.1196
  325MOL0     H44807  11.855   7.429   4.027 -1.4493  1.7168 -0.9515
  325MOL0     H44808  12.156   7.224   4.290  0.1285 -1.1000 -0.2096
  325MOL0     H44809  12.489   7.198   4.163 -0.0129 -1.2881 -0.8409
  325MOL0     H44810  12.385   7.134   4.297 -1.3007  1.1699  1.3253
  325MOL0     H44811  12.403   7.304   4.282 -0.4076  1.1148 -1.2512
  325MOL0     H44812  12.471   6.890   3.760  0.4146  1.2674  1.7673
  325MOL0     H44813  12.605   6.812   3.566 -1.6214 -0.3181 -0.0034
  325MOL0     H44814  12.778   7.133   3.256  0.5741 -3.0541 -2.5045
  325MOL0     H44815  12.858   7.137   3.404  0.3017  1.2602 -1.8142
  325MOL0     H44816  12.968   6.946   3.355  0.3732  3.2112  2.1197
  325MOL0     H44817  12.915   6.953   3.180 -0.1400  0.6631 -0.4300
  325MOL0     H44818  13.074   7.175   3.340  1.2751  3.1767 -2.0423
  325MOL0     H44819  13.007   7.201   3.182  0.7274  0.1803 -0.3872
  325MOL0     H44820  13.143   7.052   3.071 -0.0858 -0.4325  0.1159
  325MOL0     H44821  13.195   6.965   3.208 -1.5411 -0.2713 -0.7722
  325MOL0     H44822  13.267   7.252   3.143 -0.2971  0.8006  0.4757
  325MOL0     H44823  13.324   7.164   3.293  1.0581  0.0074 -0.3573
  325MOL0     H44824  13.382   7.092   2.996 -0.8703 -0.2562  0.4203
  325MOL0     H44825  13.420   6.986   3.127 -1.9601 -0.0813  1.3908
  325MOL0     H44826  13.603   7.205   3.167  2.2622  0.3492 -1.8090
  325MOL0     H44827  13.494   7.280   3.057  0.0659  0.5305 -0.2532
  325MOL0     H44828  13.558   7.148   2.874 -1.5512  2.1760  1.0912
  325MOL0     H44829  13.643   7.028   2.981  2.7676  0.3796  2.1671
  325MOL0     H44830  12.671   7.230   3.470  1.3510  1.5138  1.4062
  325MOL0     H44831  12.545   7.295   3.652 -1.8684 -0.3825 -0.6984
  325MOL0     H44832  12.197   7.267   3.806  2.3465 -0.6425  0.6355
  325MOL0     H44833  11.973   7.305   3.910 -2.3188  0.3030  2.4830
  325MOL0     H44834  10.366   7.975   3.714  1.1473 -1.0601  1.3059
  325MOL0     H44835  10.405   8.174   3.556 -2.0204 -0.2871  0.4343
  325MOL0     H44836  10.588   8.541   3.457 -0.4426 -3.9825  0.0226
  325MOL0     H44837  10.620   8.663   3.256 -0.3639  0.4780  0.2324
  325MOL0     H44838  10.341   8.706   2.997  3.0702 -1.1347  0.6144
  325MOL0     H44839  10.256   8.848   3.063  1.3277  1.6949  0.9966
  325MOL0     H44840  10.459   8.980   2.964  0.8805  0.2829 -0.8237
  325MOL0     H44841  10.356   8.910   2.846  1.8184  1.9263 -0.4918
  325MOL0     H44842  10.531   8.710   2.869 -1.2294  1.1154 -0.9630
  325MOL0     H44843  10.580   8.855   2.773 -0.2816  0.5196 -0.0094
  325MOL0     H44844  10.678   8.744   3.038  0.0731 -0.7782 -0.1653
  325MOL0     H44845  10.658   8.926   3.035  1.3640  0.3152 -0.3446
  325MOL0     H44846  11.006   8.845   2.827 -0.8321  0.0605 -2.5341
  325MOL0     H44847  10.200   8.734   3.249  0.2662 -0.1932 -0.0262
  325MOL0     H44848  10.069   8.653   3.380  2.2437 -0.8881 -3.1034
  325MOL0     H44849  10.081   8.494   3.461  1.6068 -1.3453  0.5205
  325MOL0     H44850  10.117   8.645   3.548 -0.6361  1.6713 -1.5873
  326MOL0     O44851   2.356   5.060   8.058  0.1576 -0.3943  0.4583
  326MOL0     C44852   2.285   5.156   8.052  0.3634 -0.4052 -0.7348
  326MOL0     O44853   2.325   5.286   8.074 -0.4203  0.2650 -0.5072
  326MOL0     C44854   2.446   5.327   8.132  0.1779 -0.0553 -0.2326
  326MOL0     C44855   2.540   5.253   8.202 -0.4415 -0.2004 -0.3519
  326MOL0     C44856   2.655   5.309   8.260  0.4537  0.8209  0.5652
  326MOL0     C44857   2.684   5.446   8.267  0.3528 -0.2964  0.5530
  326MOL0     O44858   2.786   5.490   8.340 -0.5749  0.0534 -0.4158
  326MOL0     C44859   2.812   5.634   8.358  0.5929 -0.3532  0.1755
  326MOL0     C44860   2.961   5.664   8.390  0.3038 -0.1326  0.3382
  326MOL0     C44861   2.986   5.806   8.354 -0.1491 -0.2792 -0.0325
  326MOL0     C44862   3.136   5.835   8.379 -0.0864 -0.5216  0.6244
  326MOL0     C44863   3.165   5.986   8.354 -0.6602 -0.1028 -0.0052
  326MOL0     C44864   3.313   6.004   8.319 -0.7536 -1.0314 -0.5966
  326MOL0     C44865   3.364   6.145   8.333  0.3113  0.6058 -0.8177
  326MOL0     C44866   3.342   6.194   8.480  0.4869 -0.9576  0.5742
  326MOL0     N44867   3.454   6.278   8.516 -0.6984  0.4943 -0.0229
  326MOL0     C44868   3.446   6.410   8.540  0.1867 -0.3771  0.6730
  326MOL0     C44869   3.568   6.460   8.578 -0.1687 -0.0357 -0.1404
  326MOL0     C44870   3.596   6.591   8.638 -0.2510 -0.1114 -0.8636
  326MOL0     C44871   3.629   6.685   8.526 -0.8763  0.1177 -0.4764
  326MOL0     C44872   3.663   6.832   8.573  0.6138 -0.0212 -0.8547
  326MOL0     C44873   3.687   6.918   8.452  0.3563  0.0779  0.8456
  326MOL0     O44874   3.725   7.048   8.509  0.5378 -0.0169 -0.2217
  326MOL0     C44875   3.771   7.143   8.420  0.0383 -0.0284 -0.4118
  326MOL0     C44876   3.814   7.266   8.473 -0.4269  0.4064 -0.1669
  326MOL0     C44877   3.841   7.374   8.394  0.2150  0.4644 -0.6625
  326MOL0     C44878   3.881   7.503   8.455  0.2291  0.3914  0.2096
  326MOL0     C44879   3.822   7.371   8.255  0.2473  0.4753 -0.3986
  326MOL0     C44880   3.862   7.489   8.172 -0.0257  0.3108 -0.5431
  326MOL0     O44881   3.768   7.532   8.080  0.7092  1.0795  0.4229
  326MOL0     C44882   3.793   7.635   7.992 -0.2418 -0.0816 -0.2407
  326MOL0     C44883   3.679   7.698   7.948  0.4743 -1.4522 -0.5698
  326MOL0     C44884   3.697   7.810   7.863  1.1209  0.0448  0.0908
  326MOL0     C44885   3.821   7.854   7.818 -0.2747  0.6253 -0.7520
  326MOL0     O44886   3.807   7.972   7.742 -0.0972 -0.2973 -0.2034
  326MOL0     C44887   3.922   8.056   7.717  1.1388  0.1196  0.9892
  326MOL0     C44888   3.906   8.183   7.803  0.0837 -0.5511 -0.2417
  326MOL0     C44889   3.931   8.173   7.952 -0.6978 -0.1137  0.1065
  326MOL0     C44890   3.866   8.297   8.026 -1.0552  0.9187  0.1127
  326MOL0     C44891   3.876   8.277   8.174  0.3944  0.4412  0.8272
  326MOL0     C44892   3.823   8.390   8.247 -0.8530 -0.0715 -0.5028
  326MOL0     C44893   3.812   8.351   8.397  0.1977 -0.0004 -0.0091
  326MOL0     C44894   3.766   8.461   8.487  0.0522  0.5493  0.1341
  326MOL0    Cl44895   3.707   8.398   8.647 -0.5334  0.1122  0.2152
  326MOL0     C44896   3.928   7.777   7.854 -0.7616 -0.9344 -0.4093
  326MOL0     C44897   3.916   7.666   7.939  0.6312  0.4577 -0.3752
  326MOL0     O44898   3.977   7.531   8.179  0.3171  0.1826  0.3934
  326MOL0     C44899   3.766   7.253   8.198  0.3036 -0.7530  0.4811
  326MOL0     C44900   3.739   7.139   8.282  0.0760 -0.5561  0.1623
  326MOL0     N44901   3.648   6.347   8.589  0.7123 -0.2606  0.3763
  326MOL0     N44902   3.587   6.244   8.538  0.5768 -0.1784 -0.5265
  326MOL0     C44903   2.573   5.523   8.216 -0.6197  0.4472  0.3563
  326MOL0     C44904   2.459   5.460   8.154 -0.0668 -0.2927 -0.8260
  326MOL0     C44905   2.151   5.126   8.003  0.0899 -0.3411  0.0621
  326MOL0     C44906   2.142   5.038   7.902 -0.2971 -0.2056 -0.1042
  326MOL0     C44907   2.020   5.010   7.842  0.3036 -0.0797  0.6558
  326MOL0     C44908   1.901   5.048   7.904  0.4348  0.1662  1.0490
  326MOL0     O44909   1.790   4.998   7.834 -0.6365  0.4020 -0.3073
  326MOL0     C44910   1.659   5.035   7.868  0.2471  0.0189  0.1277
  326MOL0     C44911   1.558   4.953   7.783  0.7943  0.4756 -0.8799
  326MOL0     C44912   1.421   4.962   7.840  0.6703  0.1014 -1.3370
  326MOL0     C44913   1.315   4.911   7.745 -0.9564 -0.9564 -0.4456
  326MOL0     C44914   1.289   5.008   7.634 -0.8471  0.2128 -0.4256
  326MOL0     C44915   1.249   5.104   7.565 -0.4809 -0.1135 -0.6288
  326MOL0     C44916   1.902   5.131   8.020 -0.1764 -0.5528 -0.8060
  326MOL0     C44917   2.027   5.169   8.070 -1.2973 -0.4374  0.1309
  326MOL0     C44918   2.042   5.254   8.200 -0.3391 -0.3761  0.4727
  326MOL0     H44919   2.534   5.145   8.201  0.9477 -0.2892 -0.9938
  326MOL0     H44920   2.727   5.249   8.315 -1.5804 -0.7932  1.6229
  326MOL0     H44921   2.747   5.668   8.438  0.0413 -3.7469  1.3414
  326MOL0     H44922   2.784   5.682   8.264 -1.0412  1.9096  1.7163
  326MOL0     H44923   2.956   5.635   8.495 -0.8134 -1.3695 -0.0168
  326MOL0     H44924   3.026   5.588   8.345  0.1691 -0.2401  0.3235
  326MOL0     H44925   2.957   5.822   8.249 -1.9290  0.2268  0.4999
  326MOL0     H44926   2.912   5.867   8.406 -0.9919 -1.6469  0.3993
  326MOL0     H44927   3.163   5.815   8.483  1.8679 -0.3512  0.1888
  326MOL0     H44928   3.198   5.780   8.308 -2.1883 -1.8074 -0.3249
  326MOL0     H44929   3.152   6.041   8.448  2.0402  3.4810 -1.4985
  326MOL0     H44930   3.096   6.035   8.286 -3.2634 -2.1267  1.0132
  326MOL0     H44931   3.374   5.941   8.385 -2.6057 -1.2229  1.0327
  326MOL0     H44932   3.330   5.970   8.216  0.3937 -1.2470 -0.3529
  326MOL0     H44933   3.302   6.209   8.271 -3.3052 -2.9118 -1.2771
  326MOL0     H44934   3.472   6.149   8.315  1.2356  0.0400  3.3974
  326MOL0     H44935   3.250   6.249   8.501  0.0611  0.0498 -3.2737
  326MOL0     H44936   3.338   6.111   8.552 -0.6816  0.2700  1.9839
  326MOL0     H44937   3.353   6.465   8.533  0.8266  0.5082 -1.9307
  326MOL0     H44938   3.684   6.569   8.698 -1.3663 -3.0481 -0.1440
  326MOL0     H44939   3.517   6.638   8.699  0.9675  0.4433  0.3355
  326MOL0     H44940   3.703   6.645   8.457 -2.1512 -1.9211 -0.7488
  326MOL0     H44941   3.541   6.700   8.462 -1.2443 -1.9192 -0.4991
  326MOL0     H44942   3.582   6.874   8.634 -0.8678  1.0371 -3.3977
  326MOL0     H44943   3.753   6.824   8.634  2.0951 -0.3668 -2.9824
  326MOL0     H44944   3.766   6.879   8.388  1.7057  0.8874  1.9380
  326MOL0     H44945   3.595   6.930   8.394  0.6544  0.5879  0.4632
  326MOL0     H44946   3.825   7.276   8.580 -1.7697 -0.8288  0.1156
  326MOL0     H44947   3.989   7.517   8.441  0.2220 -0.8015 -1.3037
  326MOL0     H44948   3.871   7.502   8.564 -0.4890 -1.7675  0.1663
  326MOL0     H44949   3.826   7.590   8.417 -1.5676 -0.0383  1.6873
  326MOL0     H44950   3.581   7.677   7.990 -1.1790  2.1215 -2.2514
  326MOL0     H44951   3.623   7.874   7.815 -0.6852 -2.3207 -0.4771
  326MOL0     H44952   4.012   7.999   7.743  0.1642 -2.7366 -1.4387
  326MOL0     H44953   3.926   8.083   7.611  0.5833  1.9534  1.4039
  326MOL0     H44954   3.991   8.240   7.764  0.3938 -2.3334 -2.3539
  326MOL0     H44955   3.807   8.220   7.775  0.0014  0.6512  1.4859
  326MOL0     H44956   4.038   8.166   7.970 -0.7140  0.1372  0.2961
  326MOL0     H44957   3.903   8.072   7.984  1.3872 -0.8159 -0.1217
  326MOL0     H44958   3.759   8.308   8.003 -1.3701  0.0327  1.0466
  326MOL0     H44959   3.924   8.387   8.006  2.3888 -1.4851 -1.6593
  326MOL0     H44960   3.835   8.178   8.195 -0.3312 -0.0531 -2.3572
  326MOL0     H44961   3.982   8.262   8.197  0.3574 -2.1841 -0.3073
  326MOL0     H44962   3.720   8.410   8.217 -1.3389  1.2273  1.7644
  326MOL0     H44963   3.883   8.481   8.233  1.1520 -1.0362  1.3036
  326MOL0     H44964   3.893   8.297   8.448 -0.4382  0.4999  1.5969
  326MOL0     H44965   3.724   8.287   8.404 -1.5218  1.9400 -2.2625
  326MOL0     H44966   3.684   8.511   8.435  0.2135 -2.0455 -2.8897
  326MOL0     H44967   3.852   8.528   8.500  2.1292 -2.0260  0.4375
  326MOL0     H44968   4.027   7.803   7.819  0.8233  0.1469  4.2375
  326MOL0     H44969   3.993   7.591   7.955  1.7018  1.6595  0.2397
  326MOL0     H44970   3.731   7.256   8.095  3.3204  3.7167 -0.7305
  326MOL0     H44971   3.678   7.064   8.233 -0.5684  1.1698 -1.8419
  326MOL0     H44972   2.577   5.628   8.243 -3.9196  0.6286  0.4855
  326MOL0     H44973   2.386   5.528   8.111  1.7850  1.9694 -0.6168
  326MOL0     H44974   2.237   5.002   7.864 -0.8711 -0.4906 -1.3527
  326MOL0     H44975   2.021   4.949   7.753  0.9712 -0.5779  0.9869
  326MOL0     H44976   1.640   5.023   7.975 -2.3850 -0.2181 -0.3159
  326MOL0     H44977   1.647   5.142   7.848 -0.6073  0.1943  1.4550
  326MOL0     H44978   1.578   4.845   7.784 -4.7116 -1.0339 -4.7191
  326MOL0     H44979   1.557   4.981   7.677 -0.5647  2.9399 -0.2948
  326MOL0     H44980   1.426   4.901   7.930  0.4754  0.3330 -1.1693
  326MOL0     H44981   1.398   5.064   7.873  1.5104 -0.4561  1.2022
  326MOL0     H44982   1.215   4.904   7.789 -0.4025  2.1669  1.5692
  326MOL0     H44983   1.346   4.816   7.699 -2.6907 -1.1675 -1.2624
  326MOL0     H44984   1.209   5.191   7.518 -0.8164 -1.0483 -2.1612
  326MOL0     H44985   1.809   5.157   8.070  0.5159 -1.1934  0.8647
  326MOL0     H44986   2.101   5.344   8.181 -0.1122 -0.4169  0.9905
  326MOL0     H44987   1.940   5.279   8.231 -0.2166  1.2752 -0.3236
  326MOL0     H44988   2.094   5.196   8.277  1.6598  1.0391  0.2477
  327MOL0     O44989   6.605   1.416   6.331  0.8457 -0.1993 -0.2093
  327MOL0     C44990   6.571   1.518   6.261  0.5886 -0.0339 -1.0177
  327MOL0     O44991   6.648   1.606   6.191  0.0099 -0.2147  0.9687
  327MOL0     C44992   6.785   1.592   6.196 -0.4912  0.5775 -0.6081
  327MOL0     C44993   6.853   1.468   6.168 -0.1630 -0.7730 -0.0141
  327MOL0     C44994   6.996   1.445   6.178  0.1212 -0.9146 -0.1764
  327MOL0     C44995   7.079   1.562   6.198  0.0467  0.4542  0.2207
  327MOL0     O44996   7.212   1.557   6.183  0.1386  0.3700 -0.3392
  327MOL0     C44997   7.277   1.446   6.240  0.0893  1.0611  0.6793
  327MOL0     C44998   7.426   1.443   6.272  0.3576  0.2259  0.5598
  327MOL0     C44999   7.466   1.302   6.334  0.0854  0.5070  0.2884
  327MOL0     C45000   7.620   1.295   6.349 -0.6132 -0.4092 -0.3904
  327MOL0     C45001   7.673   1.154   6.385  0.5119 -0.0510  0.3849
  327MOL0     C45002   7.693   1.072   6.254 -0.1145  0.1062 -0.0812
  327MOL0     C45003   7.758   0.933   6.278 -0.5804  0.1396 -0.0018
  327MOL0     C45004   7.686   0.846   6.388  0.4852  0.1875 -0.1201
  327MOL0     N45005   7.543   0.829   6.361  0.3393  0.1467  0.5986
  327MOL0     C45006   7.495   0.816   6.236  0.0962  0.3262  0.4805
  327MOL0     C45007   7.364   0.832   6.247 -0.3071 -1.1269  0.2052
  327MOL0     C45008   7.273   0.834   6.132  0.3072 -0.2485 -0.4630
  327MOL0     C45009   7.122   0.868   6.157 -0.0666  0.5837  1.2873
  327MOL0     C45010   7.087   0.991   6.237  0.7065 -0.4188 -0.3602
  327MOL0     C45011   6.942   1.014   6.244 -0.0591  0.3797  0.2276
  327MOL0     O45012   6.882   0.924   6.335  0.6065 -0.0939 -0.5040
  327MOL0     C45013   6.746   0.945   6.357 -0.0798 -1.5594  0.0230
  327MOL0     C45014   6.684   0.849   6.426 -0.2670 -0.6124 -0.6199
  327MOL0     C45015   6.548   0.854   6.471  0.3837 -0.3308  0.7889
  327MOL0     C45016   6.507   0.750   6.574 -0.4035  0.2574  0.4096
  327MOL0     C45017   6.465   0.954   6.416 -0.6063 -0.0167 -0.2404
  327MOL0     C45018   6.318   0.956   6.446  0.7463  0.1770  0.1989
  327MOL0     O45019   6.253   0.838   6.482 -0.1236  0.3742 -0.4154
  327MOL0     C45020   6.117   0.830   6.490 -0.0990  0.6401 -0.2048
  327MOL0     C45021   6.038   0.896   6.585  0.0589 -0.8497  0.4071
  327MOL0     C45022   5.890   0.875   6.580 -0.4864  0.4993  0.7607
  327MOL0     C45023   5.834   0.780   6.488  0.4135 -0.0007  0.6114
  327MOL0     O45024   5.699   0.744   6.486 -0.6197  0.0576  0.3959
  327MOL0     C45025   5.601   0.846   6.473  0.4055  0.4548 -0.2090
  327MOL0     C45026   5.560   0.884   6.318  0.0806  0.4368  1.1591
  327MOL0     C45027   5.454   0.992   6.312 -0.7433  0.2421 -0.0634
  327MOL0     C45028   5.429   1.016   6.162 -0.3842  0.7180 -0.1565
  327MOL0     C45029   5.335   1.127   6.135 -0.3294 -0.4498 -1.0654
  327MOL0     C45030   5.193   1.079   6.163  0.0579  0.1060 -0.2006
  327MOL0     C45031   5.073   1.170   6.127  0.3146  0.6740 -0.0671
  327MOL0     C45032   4.952   1.153   6.215 -0.6603  0.0931 -0.2036
  327MOL0    Cl45033   4.801   1.222   6.153  0.2896  0.1228 -0.2009
  327MOL0     C45034   5.913   0.715   6.391  0.3209  0.3937  0.0758
  327MOL0     C45035   6.052   0.740   6.399 -0.1965 -0.0887 -0.8092
  327MOL0     O45036   6.263   1.066   6.448 -0.8957 -0.4198 -0.0537
  327MOL0     C45037   6.528   1.066   6.347 -0.1124 -0.6316  0.2451
  327MOL0     C45038   6.669   1.058   6.323  0.3335 -0.4440  0.5626
  327MOL0     N45039   7.327   0.842   6.382 -0.6958 -0.4871 -0.4651
  327MOL0     N45040   7.434   0.824   6.450 -0.2968 -0.0991 -0.9890
  327MOL0     C45041   7.011   1.688   6.219 -0.4053  0.1600  0.1022
  327MOL0     C45042   6.875   1.699   6.230 -0.9634 -0.6012  0.7765
  327MOL0     C45043   6.425   1.546   6.245 -1.3536 -0.4256  1.3435
  327MOL0     C45044   6.381   1.626   6.130 -0.0166  0.8738 -0.2271
  327MOL0     C45045   6.245   1.654   6.103  0.0416  0.3457  0.4933
  327MOL0     C45046   6.148   1.613   6.194  0.2148 -0.1692  0.4981
  327MOL0     O45047   6.020   1.655   6.169 -0.0064 -0.6101  0.2696
  327MOL0     C45048   5.903   1.655   6.254 -0.3327  0.3659  0.3928
  327MOL0     C45049   5.801   1.749   6.202  0.2053 -0.4363  0.4319
  327MOL0     C45050   5.680   1.757   6.297  0.3565 -0.2313  0.4218
  327MOL0     C45051   5.579   1.858   6.243 -0.5224  0.2012  0.1392
  327MOL0     C45052   5.442   1.839   6.296 -0.8041  0.8677 -0.2418
  327MOL0     C45053   5.331   1.828   6.335  0.9168 -0.2083 -0.3386
  327MOL0     C45054   6.187   1.537   6.301 -0.1373  0.7894 -0.3345
  327MOL0     C45055   6.319   1.499   6.325  1.2503 -0.7579  0.0851
  327MOL0     C45056   6.351   1.422   6.453  0.2763 -0.0636  0.9825
  327MOL0     H45057   6.782   1.390   6.141 -0.7840 -0.1522 -0.1951
  327MOL0     H45058   7.029   1.342   6.167  2.3913 -0.1326 -1.3376
  327MOL0     H45059   7.264   1.366   6.167 -1.5445  2.0040 -0.1159
  327MOL0     H45060   7.228   1.417   6.333 -1.3043  2.3438  0.3869
  327MOL0     H45061   7.481   1.477   6.183  1.5182  1.4089  1.6983
  327MOL0     H45062   7.437   1.522   6.347 -2.3973  1.0781  0.2036
  327MOL0     H45063   7.414   1.296   6.430 -0.4926 -2.2474 -0.1039
  327MOL0     H45064   7.437   1.225   6.261 -0.4993  1.4811 -0.5408
  327MOL0     H45065   7.665   1.337   6.259 -0.8259  0.4055 -0.1207
  327MOL0     H45066   7.632   1.361   6.435 -2.9026  0.5234 -0.7203
  327MOL0     H45067   7.610   1.110   6.462 -1.5251 -0.1089 -1.2121
  327MOL0     H45068   7.771   1.162   6.434  1.0932 -3.5931  0.0075
  327MOL0     H45069   7.601   1.053   6.198  1.6822 -2.2781 -2.4668
  327MOL0     H45070   7.766   1.120   6.188  1.2851 -0.6401  0.8863
  327MOL0     H45071   7.862   0.942   6.311 -0.4105  1.3739 -0.8211
  327MOL0     H45072   7.765   0.884   6.180  0.6311 -1.7969  1.0059
  327MOL0     H45073   7.737   0.751   6.405  0.5463 -0.0787 -1.6757
  327MOL0     H45074   7.694   0.910   6.476 -1.3667  2.1995 -1.2986
  327MOL0     H45075   7.552   0.802   6.144  1.6280  1.3807  1.2411
  327MOL0     H45076   7.269   0.737   6.082 -3.5580  1.0657 -3.2485
  327MOL0     H45077   7.310   0.913   6.066  0.7967  1.1420  1.3611
  327MOL0     H45078   7.074   0.869   6.059 -1.6338 -1.0703  1.9860
  327MOL0     H45079   7.094   0.787   6.225  1.8393 -0.3775  0.9779
  327MOL0     H45080   7.128   0.994   6.338 -3.3065  2.8985  1.4632
  327MOL0     H45081   7.137   1.075   6.189  0.4575 -0.5532 -0.8760
  327MOL0     H45082   6.935   1.121   6.266  0.1223  0.6874 -1.1294
  327MOL0     H45083   6.890   0.996   6.149 -0.2358  1.2148  0.1649
  327MOL0     H45084   6.752   0.778   6.473 -1.9224 -0.4167  2.2695
  327MOL0     H45085   6.458   0.670   6.518  0.9180 -1.0817  1.1004
  327MOL0     H45086   6.441   0.787   6.653 -1.6533 -0.6079 -0.2014
  327MOL0     H45087   6.600   0.707   6.611 -2.0921 -2.6241  1.6254
  327MOL0     H45088   6.094   0.965   6.648  2.4887 -1.8554 -0.5269
  327MOL0     H45089   5.817   0.927   6.642 -0.1522  0.9584  0.7793
  327MOL0     H45090   5.511   0.806   6.520  0.3079  1.8358  0.8653
  327MOL0     H45091   5.630   0.935   6.531 -0.3397  2.5759 -2.8622
  327MOL0     H45092   5.652   0.917   6.269  0.4751 -2.7706 -0.4643
  327MOL0     H45093   5.521   0.794   6.271  1.0145  0.2034  0.8115
  327MOL0     H45094   5.494   1.080   6.365  2.5687  0.1536 -2.1451
  327MOL0     H45095   5.364   0.949   6.356  0.4109  0.0037  2.2582
  327MOL0     H45096   5.393   0.922   6.119  2.4950  0.1536 -1.6494
  327MOL0     H45097   5.525   1.039   6.114 -0.7126  0.7590 -0.7979
  327MOL0     H45098   5.344   1.210   6.206 -0.2062 -1.7969  0.5568
  327MOL0     H45099   5.360   1.164   6.035 -2.1524  1.7197 -0.7842
  327MOL0     H45100   5.178   1.049   6.268 -4.2207 -1.1998 -0.9868
  327MOL0     H45101   5.168   0.984   6.115  1.5346  0.1957 -1.2129
  327MOL0     H45102   5.054   1.137   6.024  2.1134 -4.7794  1.0149
  327MOL0     H45103   5.095   1.276   6.140 -2.3049  1.1098  1.4376
  327MOL0     H45104   4.964   1.206   6.310 -1.5325  0.6962 -0.4184
  327MOL0     H45105   4.936   1.048   6.240 -1.2603  0.0813 -0.6321
  327MOL0     H45106   5.861   0.647   6.324 -0.3226 -0.4804  1.4092
  327MOL0     H45107   6.137   0.704   6.342  0.6176  1.0231 -0.3323
  327MOL0     H45108   6.466   1.154   6.330 -1.1822 -1.3364  0.4756
  327MOL0     H45109   6.708   1.140   6.262 -2.1231 -0.0793 -0.6613
  327MOL0     H45110   7.071   1.777   6.233  1.1697 -0.8865  0.3935
  327MOL0     H45111   6.841   1.801   6.250 -1.0215 -1.1442  4.0530
  327MOL0     H45112   6.447   1.672   6.058 -0.1461 -2.1059 -2.4482
  327MOL0     H45113   6.222   1.721   6.021 -1.0720 -0.1341  0.3943
  327MOL0     H45114   5.872   1.551   6.262  4.6792 -1.7904 -2.7776
  327MOL0     H45115   5.928   1.685   6.356 -3.3458 -0.6847  1.5536
  327MOL0     H45116   5.768   1.718   6.102 -1.4977  0.1187  0.7879
  327MOL0     H45117   5.851   1.846   6.190  1.4404 -0.9995  0.8180
  327MOL0     H45118   5.628   1.662   6.315  0.8470 -1.7023 -4.5383
  327MOL0     H45119   5.707   1.793   6.397  0.6758  1.4553 -0.2371
  327MOL0     H45120   5.578   1.860   6.134  0.7400  2.2303  0.1004
  327MOL0     H45121   5.607   1.959   6.276 -0.9122 -0.2329  1.9328
  327MOL0     H45122   5.228   1.839   6.360  0.9454  1.3109 -0.7622
  327MOL0     H45123   6.108   1.501   6.367  1.3799 -0.1204  1.0558
  327MOL0     H45124   6.420   1.475   6.519  1.1713  0.7840 -0.5961
  327MOL0     H45125   6.256   1.423   6.508 -0.2352  0.1991  0.1183
  327MOL0     H45126   6.370   1.315   6.439 -0.8519  0.0043 -1.4741
  328MOL0     O45127   6.707   4.738   7.330  0.5911  0.1728  1.1257
  328MOL0     C45128   6.639   4.832   7.368 -0.4866 -0.3020  0.9407
  328MOL0     O45129   6.648   4.957   7.311 -0.3847 -0.0949  0.1634
  328MOL0     C45130   6.746   4.990   7.217 -0.4753  0.4523  0.4898
  328MOL0     C45131   6.714   5.098   7.141  0.2879  0.8933 -0.5595
  328MOL0     C45132   6.796   5.151   7.045  0.1666 -0.2127 -0.8162
  328MOL0     C45133   6.917   5.087   7.017 -0.3458  0.3567  1.0882
  328MOL0     O45134   6.995   5.142   6.918  0.5403 -0.1108  0.4295
  328MOL0     C45135   7.138   5.105   6.893  0.4444 -0.2754  0.0891
  328MOL0     C45136   7.232   5.167   7.003  0.8823  0.9191  0.5875
  328MOL0     C45137   7.379   5.157   6.959  0.4334 -0.6128  0.1621
  328MOL0     C45138   7.463   5.199   7.085  0.0960  0.2922  0.0417
  328MOL0     C45139   7.617   5.201   7.046 -0.0743  0.3923 -0.0620
  328MOL0     C45140   7.690   5.291   7.147  0.1865 -0.2083 -0.1236
  328MOL0     C45141   7.841   5.308   7.143 -0.4926 -0.2964  0.3963
  328MOL0     C45142   7.917   5.188   7.189  0.6614 -0.3183  0.2730
  328MOL0     N45143   8.040   5.183   7.109 -0.2852 -0.1819  0.2407
  328MOL0     C45144   8.106   5.070   7.079  0.2644 -0.5985  0.5749
  328MOL0     C45145   8.226   5.117   7.035 -0.8694 -0.1339 -0.0857
  328MOL0     C45146   8.332   5.020   6.991 -0.6082  0.3232 -0.0691
  328MOL0     C45147   8.287   4.935   6.867 -0.7740 -0.2949  0.2122
  328MOL0     C45148   8.414   4.861   6.812  0.5685  0.5753 -0.0631
  328MOL0     C45149   8.504   4.955   6.729  0.6494  0.2007  0.3302
  328MOL0     O45150   8.627   4.894   6.711 -0.4552  0.5175 -0.1465
  328MOL0     C45151   8.733   4.936   6.632  0.2717 -0.0659  0.1284
  328MOL0     C45152   8.735   5.068   6.576 -0.8110  0.5268 -0.2241
  328MOL0     C45153   8.855   5.108   6.508 -0.0698  0.0245  0.5283
  328MOL0     C45154   8.852   5.246   6.449  0.4146  0.0267 -0.3457
  328MOL0     C45155   8.965   5.022   6.493 -0.5160  0.6660  0.4039
  328MOL0     C45156   9.081   5.053   6.416 -0.4421 -0.2801  0.0217
  328MOL0     O45157   9.146   4.952   6.345  0.9305  0.4802  0.0207
  328MOL0     C45158   9.257   4.999   6.287  0.2971 -0.1931 -0.9944
  328MOL0     C45159   9.383   4.980   6.349 -0.7214  0.1091 -0.2634
  328MOL0     C45160   9.491   5.030   6.284  0.9119 -0.4452  0.0360
  328MOL0     C45161   9.479   5.090   6.159 -0.8384 -0.2111  0.6392
  328MOL0     O45162   9.593   5.139   6.103 -1.1745 -0.2956 -0.1393
  328MOL0     C45163   9.626   5.064   5.982 -0.3301 -0.0635 -0.0008
  328MOL0     C45164   9.751   5.130   5.915 -0.3748  0.0759  0.1625
  328MOL0     C45165   9.871   5.137   6.016  0.1865 -0.7328 -0.3768
  328MOL0     C45166   9.888   5.277   6.065  0.2499 -0.0938 -0.0836
  328MOL0     C45167   9.926   5.287   6.213 -0.0504 -0.0638 -0.2673
  328MOL0     C45168   9.929   5.430   6.260 -0.7153  0.5167  0.3944
  328MOL0     C45169  10.002   5.527   6.169  0.2841  0.6611  0.3160
  328MOL0     C45170  10.022   5.662   6.236  0.9544 -0.2556 -0.0460
  328MOL0    Cl45171   9.876   5.757   6.229 -0.1026  0.2340  0.0104
  328MOL0     C45172   9.355   5.119   6.107 -1.0089  0.0871  0.3844
  328MOL0     C45173   9.243   5.065   6.165  0.2093  0.0697  0.6030
  328MOL0     O45174   9.131   5.164   6.433  0.2512 -0.2463  0.0321
  328MOL0     C45175   8.960   4.894   6.558 -0.4800  0.1264  0.0300
  328MOL0     C45176   8.848   4.853   6.628 -0.0035  0.4103  0.6228
  328MOL0     N45177   8.230   5.258   7.044 -0.3519 -0.0402 -0.5787
  328MOL0     N45178   8.114   5.294   7.081 -0.3958  0.2594 -0.2828
  328MOL0     C45179   6.958   4.975   7.093  0.4775  0.3117 -0.6035
  328MOL0     C45180   6.873   4.927   7.192  0.1266  1.1212 -0.3604
  328MOL0     C45181   6.511   4.798   7.437 -0.3456 -0.3547 -0.0091
  328MOL0     C45182   6.419   4.907   7.439  0.1819  0.5495 -0.8539
  328MOL0     C45183   6.292   4.889   7.506  0.0798  0.9515  1.1843
  328MOL0     C45184   6.259   4.768   7.557 -0.9071  0.3286  0.0574
  328MOL0     O45185   6.135   4.764   7.613 -0.1380 -0.7060 -0.0688
  328MOL0     C45186   6.094   4.653   7.699  0.6127  0.5497  0.6568
  328MOL0     C45187   5.939   4.646   7.715  0.7204  0.3490 -0.6358
  328MOL0     C45188   5.889   4.743   7.825 -0.7561  0.3454 -0.3776
  328MOL0     C45189   5.744   4.776   7.813 -0.1082 -0.1024  0.5297
  328MOL0     C45190   5.711   4.903   7.878 -0.8451  0.2031 -0.3211
  328MOL0     C45191   5.668   4.993   7.946  0.3682  0.5595 -0.5670
  328MOL0     C45192   6.350   4.657   7.552  0.9201  0.3989 -0.0614
  328MOL0     C45193   6.477   4.667   7.497  0.0937 -0.4677  0.8747
  328MOL0     C45194   6.580   4.560   7.508  0.5081  0.5958  0.7604
  328MOL0     H45195   6.628   5.156   7.171 -1.0545 -0.8730 -0.8679
  328MOL0     H45196   6.774   5.241   6.990  0.6028 -0.4804 -1.4322
  328MOL0     H45197   7.167   5.161   6.803  1.7575  0.7043  1.0813
  328MOL0     H45198   7.150   4.998   6.872  1.5679  0.3426 -3.1085
  328MOL0     H45199   7.209   5.273   7.017  1.6296  1.2003 -0.1916
  328MOL0     H45200   7.225   5.111   7.097  2.0927  2.9280  1.9412
  328MOL0     H45201   7.411   5.057   6.929  2.0671 -0.4501  1.2556
  328MOL0     H45202   7.393   5.229   6.878 -2.0673  2.9190  2.5447
  328MOL0     H45203   7.429   5.294   7.127  1.2249  0.5525  0.4062
  328MOL0     H45204   7.448   5.121   7.161 -0.7075  0.9366  0.5553
  328MOL0     H45205   7.618   5.248   6.948  0.2839  1.2469  0.3439
  328MOL0     H45206   7.664   5.102   7.046  0.2685  0.4853  2.3428
  328MOL0     H45207   7.649   5.392   7.132 -1.0516 -0.9167 -1.8030
  328MOL0     H45208   7.654   5.248   7.241 -2.2482 -1.9971 -1.7289
  328MOL0     H45209   7.876   5.397   7.196 -0.1937 -0.7638  1.0016
  328MOL0     H45210   7.863   5.343   7.042 -1.0044  3.5803  1.4720
  328MOL0     H45211   7.933   5.178   7.297 -1.2236 -0.2324  0.5974
  328MOL0     H45212   7.864   5.095   7.166 -0.8267  0.2262  1.3000
  328MOL0     H45213   8.069   4.969   7.097 -0.0642 -0.9025 -1.5036
  328MOL0     H45214   8.365   4.951   7.068  2.9202  0.2738 -1.4505
  328MOL0     H45215   8.418   5.077   6.955  0.3872 -0.8014  0.4854
  328MOL0     H45216   8.214   4.863   6.906 -0.1450 -0.3332  1.3809
  328MOL0     H45217   8.249   5.005   6.793 -0.0637  1.4308  1.4158
  328MOL0     H45218   8.466   4.814   6.896  0.7069  1.7437  0.5335
  328MOL0     H45219   8.387   4.772   6.755 -0.0689  0.2039  0.8019
  328MOL0     H45220   8.463   4.976   6.630 -2.0611 -0.8209  1.1407
  328MOL0     H45221   8.523   5.051   6.778  0.4476  0.3603  0.1038
  328MOL0     H45222   8.666   5.151   6.586  0.0934  1.0892  2.2534
  328MOL0     H45223   8.916   5.316   6.503  0.4254  1.9470 -2.6690
  328MOL0     H45224   8.752   5.290   6.453  1.1496  1.6902  2.6678
  328MOL0     H45225   8.880   5.244   6.344  0.2968  0.9729 -0.4006
  328MOL0     H45226   9.388   4.937   6.449 -0.1729 -0.9305 -0.7206
  328MOL0     H45227   9.586   5.047   6.332  0.4937 -0.0537  0.7476
  328MOL0     H45228   9.664   4.965   6.010 -0.8461 -1.4862 -3.7120
  328MOL0     H45229   9.555   5.040   5.902  0.0965 -1.6675  0.0599
  328MOL0     H45230   9.779   5.077   5.824 -1.9818  3.0491 -2.2541
  328MOL0     H45231   9.727   5.233   5.884  1.0861  0.7924  1.2591
  328MOL0     H45232   9.966   5.105   5.970  0.4304  1.0719 -1.2241
  328MOL0     H45233   9.848   5.062   6.092 -2.6359 -0.1182 -0.5283
  328MOL0     H45234   9.794   5.332   6.055  1.0148  1.9305  2.7803
  328MOL0     H45235   9.961   5.319   5.994  0.0477 -0.9268 -0.8099
  328MOL0     H45236   9.849   5.236   6.271  1.0992  1.3676  2.7385
  328MOL0     H45237  10.013   5.231   6.251 -0.2775 -2.0059 -2.3384
  328MOL0     H45238   9.968   5.444   6.361  1.3810  0.7072 -0.3859
  328MOL0     H45239   9.830   5.477   6.255 -0.5686  1.0171  1.8843
  328MOL0     H45240   9.952   5.546   6.074 -0.6608 -1.6280  0.2865
  328MOL0     H45241  10.097   5.475   6.157 -0.0530  0.4448 -1.7845
  328MOL0     H45242  10.102   5.720   6.188 -0.8015  1.2093 -1.3666
  328MOL0     H45243  10.066   5.644   6.334  2.3661 -0.2038 -0.6487
  328MOL0     H45244   9.358   5.170   6.011 -1.4736 -0.5459  0.0213
  328MOL0     H45245   9.149   5.077   6.112  1.0607  1.1162 -0.7278
  328MOL0     H45246   9.041   4.825   6.539 -0.0730  1.3757 -3.4246
  328MOL0     H45247   8.843   4.758   6.681  2.5519 -1.9383 -2.9282
  328MOL0     H45248   7.053   4.926   7.078 -0.5741 -1.7555 -0.9487
  328MOL0     H45249   6.904   4.846   7.257 -2.2076 -0.4082 -1.0356
  328MOL0     H45250   6.449   5.008   7.412  2.1197  0.4372  0.7046
  328MOL0     H45251   6.213   4.964   7.508 -0.1324  1.0067 -2.3757
  328MOL0     H45252   6.113   4.563   7.639 -1.4483  0.3780  0.1885
  328MOL0     H45253   6.141   4.645   7.797 -0.2482 -1.5709  0.9366
  328MOL0     H45254   5.913   4.542   7.741 -1.4504  1.1119  0.4920
  328MOL0     H45255   5.892   4.659   7.617  1.0016 -2.6974 -1.2810
  328MOL0     H45256   5.899   4.705   7.927  1.4796 -3.4019 -1.7720
  328MOL0     H45257   5.956   4.829   7.823  1.5965 -1.3469  1.2331
  328MOL0     H45258   5.679   4.698   7.855  1.6113 -0.9386  1.7179
  328MOL0     H45259   5.725   4.793   7.707 -0.0714  3.5122  0.9772
  328MOL0     H45260   5.620   5.066   8.008  0.9791  1.1722 -0.7931
  328MOL0     H45261   6.320   4.561   7.590 -1.8228  0.5113 -1.6357
  328MOL0     H45262   6.607   4.504   7.418  0.3909  1.1861  0.3468
  328MOL0     H45263   6.674   4.600   7.545  0.2743 -0.0503  2.1226
  328MOL0     H45264   6.561   4.482   7.582  2.7857 -1.2995 -0.5365
  329MOL0     O45265   9.460   4.855   5.836 -0.7313  0.3339 -0.0101
  329MOL0     C45266   9.364   4.918   5.794  0.3916 -0.6485  0.7347
  329MOL0     O45267   9.372   5.016   5.692  0.2649  0.5999  0.0001
  329MOL0     C45268   9.471   5.003   5.597 -0.0675  0.4769  0.4624
  329MOL0     C45269   9.579   5.092   5.606 -0.3481 -0.1362  0.5639
  329MOL0     C45270   9.684   5.087   5.509 -0.5140 -0.6552 -0.3337
  329MOL0     C45271   9.680   4.992   5.410 -0.3749  0.3308  0.0280
  329MOL0     O45272   9.781   4.986   5.322 -0.5466  0.3086 -0.5084
  329MOL0     C45273   9.751   4.968   5.185  0.5428 -0.9473  0.8451
  329MOL0     C45274   9.736   5.105   5.109  0.3405 -0.7706  0.0850
  329MOL0     C45275   9.786   5.097   4.962  0.1087 -0.1750 -0.2014
  329MOL0     C45276   9.917   5.176   4.936 -0.5542  0.5445  0.6485
  329MOL0     C45277   9.925   5.210   4.784 -0.6226 -0.0445 -0.4696
  329MOL0     C45278  10.059   5.200   4.718 -0.0975 -0.4172  0.5376
  329MOL0     C45279  10.061   5.227   4.570  0.8395  0.9832  0.4751
  329MOL0     C45280  10.202   5.246   4.507  0.7716 -0.2311  0.4556
  329MOL0     N45281  10.223   5.396   4.497 -0.1272 -0.2825  0.7746
  329MOL0     C45282  10.257   5.477   4.606 -0.1232  0.5265  0.0980
  329MOL0     C45283  10.252   5.602   4.560  0.9475  0.7541  0.7146
  329MOL0     C45284  10.266   5.724   4.646 -0.0520 -0.2574 -1.0235
  329MOL0     C45285  10.377   5.807   4.574  0.6815  0.3037  0.1382
  329MOL0     C45286  10.442   5.902   4.670  0.8339  0.1066  0.0835
  329MOL0     C45287  10.509   6.015   4.583 -0.0564 -1.1846 -1.1639
  329MOL0     O45288  10.573   6.112   4.670  0.2236 -0.5292 -0.4935
  329MOL0     C45289  10.708   6.113   4.685  0.1043  0.6685  0.9705
  329MOL0     C45290  10.797   6.014   4.648 -0.0573 -0.4577 -0.3613
  329MOL0     C45291  10.933   6.034   4.668 -0.5328  0.4067  0.0387
  329MOL0     C45292  11.022   5.917   4.631 -0.1709  0.5319  0.2776
  329MOL0     C45293  10.978   6.160   4.718 -0.1546 -0.6741  0.1660
  329MOL0     C45294  11.122   6.207   4.729  0.2686 -0.3708  0.3486
  329MOL0     O45295  11.218   6.116   4.700  0.2109 -0.1257  0.7107
  329MOL0     C45296  11.349   6.129   4.702 -0.9490  0.2030  0.3854
  329MOL0     C45297  11.428   6.008   4.703  0.1460  0.3606 -0.1748
  329MOL0     C45298  11.571   6.013   4.701  0.2514  0.0374  0.0546
  329MOL0     C45299  11.634   6.142   4.697  0.0365 -0.3026 -0.0660
  329MOL0     O45300  11.774   6.141   4.699 -0.0494  0.4153 -0.0171
  329MOL0     C45301  11.847   6.249   4.646  0.3757  0.5972  0.0223
  329MOL0     C45302  11.994   6.211   4.602 -0.1991  0.2271  0.0391
  329MOL0     C45303  12.097   6.235   4.715 -0.2453 -0.0842 -0.4174
  329MOL0     C45304  12.233   6.184   4.684  0.7657 -0.2024  0.6681
  329MOL0     C45305  12.341   6.209   4.787 -0.0246  0.3928  0.6987
  329MOL0     C45306  12.383   6.359   4.804 -0.2731  0.2660 -0.6550
  329MOL0     C45307  12.517   6.363   4.892 -0.0732 -0.7285 -0.4373
  329MOL0     C45308  12.558   6.501   4.939 -0.0159 -0.3353 -0.7761
  329MOL0    Cl45309  12.730   6.479   5.010 -0.1909  0.3207 -0.0204
  329MOL0     C45310  11.555   6.257   4.696 -0.1701 -0.2065 -0.6594
  329MOL0     C45311  11.420   6.250   4.703  0.2675  0.2270 -1.7137
  329MOL0     O45312  11.141   6.323   4.773 -0.0827  0.5237  0.0277
  329MOL0     C45313  10.877   6.248   4.770  0.1387 -0.5849 -0.4010
  329MOL0     C45314  10.746   6.224   4.753 -0.5007 -0.0694  0.1656
  329MOL0     N45315  10.218   5.597   4.419  0.6576 -0.3891 -0.3715
  329MOL0     N45316  10.214   5.483   4.383  0.0738  0.7059  0.5181
  329MOL0     C45317   9.572   4.901   5.405  0.2136 -0.2478 -0.3918
  329MOL0     C45318   9.463   4.906   5.493 -0.1173  0.9049  0.2541
  329MOL0     C45319   9.223   4.897   5.839 -0.1304 -0.1791  0.2863
  329MOL0     C45320   9.121   4.971   5.778  0.5275 -0.2174 -0.2010
  329MOL0     C45321   8.986   4.952   5.813  0.1159 -1.1809 -0.4818
  329MOL0     C45322   8.953   4.869   5.923  0.6073 -0.1596  0.9029
  329MOL0     O45323   8.822   4.868   5.977 -0.0646 -0.1223  0.4858
  329MOL0     C45324   8.786   4.783   6.092 -0.2967 -0.1757  0.5140
  329MOL0     C45325   8.650   4.830   6.145 -0.3667  0.2364  0.3091
  329MOL0     C45326   8.629   4.945   6.248 -0.4446  0.2999 -0.5761
  329MOL0     C45327   8.501   4.942   6.322  0.7750 -0.4252 -0.4637
  329MOL0     C45328   8.382   4.889   6.253  0.1720 -0.8375 -0.2622
  329MOL0     C45329   8.286   4.848   6.199  0.0995 -0.9637  0.1743
  329MOL0     C45330   9.053   4.804   5.990 -0.3536  1.0726  0.3810
  329MOL0     C45331   9.190   4.823   5.951 -0.1799  0.2383 -0.3616
  329MOL0     C45332   9.289   4.740   6.024 -0.1913  0.1875  0.5008
  329MOL0     H45333   9.571   5.153   5.695 -1.9049 -0.0223  0.3813
  329MOL0     H45334   9.766   5.159   5.512 -0.1767 -0.8712 -2.5591
  329MOL0     H45335   9.671   4.900   5.156 -0.3598  1.0740 -1.8648
  329MOL0     H45336   9.843   4.925   5.143  1.1139  1.0465 -0.0612
  329MOL0     H45337   9.632   5.136   5.125  1.1283  1.2051  1.9609
  329MOL0     H45338   9.802   5.176   5.159  2.9927 -0.0665 -3.9715
  329MOL0     H45339   9.814   4.996   4.929 -1.8982 -0.1212 -2.3327
  329MOL0     H45340   9.710   5.134   4.893  0.8561 -1.1139 -1.5986
  329MOL0     H45341   9.921   5.269   4.993  4.5874  0.4455  0.9144
  329MOL0     H45342   9.999   5.109   4.966  0.9364  2.4981  1.1323
  329MOL0     H45343   9.881   5.309   4.768 -1.7587 -0.2020  1.4250
  329MOL0     H45344   9.858   5.144   4.729 -1.2992  1.1270 -1.0846
  329MOL0     H45345  10.138   5.266   4.756 -1.3489  1.1541  0.5169
  329MOL0     H45346  10.082   5.094   4.730 -3.4464 -1.6689 -2.4008
  329MOL0     H45347   9.997   5.308   4.535  1.0045  0.3162 -1.5109
  329MOL0     H45348  10.028   5.137   4.517  0.8703  0.2933  1.5986
  329MOL0     H45349  10.279   5.199   4.570 -1.3300 -2.8407  1.2603
  329MOL0     H45350  10.218   5.190   4.415  1.7847 -0.9870  1.0646
  329MOL0     H45351  10.278   5.450   4.709 -2.4432  0.3812  0.5800
  329MOL0     H45352  10.295   5.686   4.744 -1.0026  2.2789  0.3241
  329MOL0     H45353  10.176   5.783   4.669 -0.2091 -0.9374  0.1690
  329MOL0     H45354  10.453   5.733   4.543 -1.0118 -0.5166 -2.3645
  329MOL0     H45355  10.336   5.861   4.488 -2.1532  0.5935  1.5798
  329MOL0     H45356  10.372   5.945   4.742  1.9441 -0.6805  1.6915
  329MOL0     H45357  10.516   5.852   4.733 -0.2257 -0.1137  1.1974
  329MOL0     H45358  10.585   5.979   4.513  0.5844 -1.2894 -0.4152
  329MOL0     H45359  10.436   6.067   4.519 -0.9085  0.5414  1.0789
  329MOL0     H45360  10.770   5.915   4.612 -4.0574  1.1178 -2.4241
  329MOL0     H45361  10.964   5.839   4.582 -0.1244  1.3785 -1.1943
  329MOL0     H45362  11.070   5.880   4.722 -2.6374 -0.9044  1.1063
  329MOL0     H45363  11.095   5.953   4.558 -0.4029  1.2337  0.3790
  329MOL0     H45364  11.368   5.918   4.710 -1.7931  1.4538 -1.8502
  329MOL0     H45365  11.629   5.922   4.713  2.3322  1.5249  2.5737
  329MOL0     H45366  11.789   6.273   4.557  0.4528 -0.4494 -0.3174
  329MOL0     H45367  11.857   6.327   4.722  2.2140  1.3593 -0.9393
  329MOL0     H45368  11.998   6.107   4.570  0.4115 -0.6943  2.8288
  329MOL0     H45369  12.026   6.280   4.524 -0.5956  2.3995  1.6887
  329MOL0     H45370  12.064   6.187   4.807  2.0262  0.2060  0.6278
  329MOL0     H45371  12.100   6.344   4.724  0.0311 -0.1251  0.0152
  329MOL0     H45372  12.261   6.214   4.582 -1.5270 -1.7560 -0.5079
  329MOL0     H45373  12.222   6.076   4.674  0.2385 -0.0093 -1.3401
  329MOL0     H45374  12.312   6.167   4.884 -3.6055  1.8936  0.4184
  329MOL0     H45375  12.423   6.151   4.744 -0.9824 -0.0743 -0.5981
  329MOL0     H45376  12.305   6.418   4.853 -1.4723  0.5929 -2.8279
  329MOL0     H45377  12.406   6.400   4.706  2.5689  1.5348  0.4230
  329MOL0     H45378  12.592   6.327   4.820  0.7315  2.1186 -1.1761
  329MOL0     H45379  12.512   6.308   4.986  0.2685  0.8364  0.5326
  329MOL0     H45380  12.499   6.535   5.025  2.3215  3.4550 -0.4434
  329MOL0     H45381  12.561   6.575   4.858  0.2628  0.9530  0.3645
  329MOL0     H45382  11.603   6.353   4.680  1.2463 -0.8727 -0.5167
  329MOL0     H45383  11.378   6.349   4.709 -0.9378 -0.3599  0.5282
  329MOL0     H45384  10.897   6.341   4.823 -1.2765 -0.3752 -0.2098
  329MOL0     H45385  10.675   6.296   4.792  0.1795  0.8165 -0.1730
  329MOL0     H45386   9.567   4.828   5.325 -0.6855 -2.3088  1.4360
  329MOL0     H45387   9.382   4.835   5.483 -0.3788  1.1523  0.5635
  329MOL0     H45388   9.147   5.047   5.705 -0.5728  0.1317 -0.2468
  329MOL0     H45389   8.899   4.994   5.763 -0.1010 -4.1690 -2.9301
  329MOL0     H45390   8.786   4.681   6.054  0.1612  0.2677 -0.7136
  329MOL0     H45391   8.861   4.787   6.172  2.0665 -0.4254 -1.5647
  329MOL0     H45392   8.612   4.738   6.190 -2.0655 -0.2454 -1.9312
  329MOL0     H45393   8.587   4.844   6.056  1.4193 -0.4582 -1.1401
  329MOL0     H45394   8.717   4.957   6.312 -2.1891  2.2116  1.6100
  329MOL0     H45395   8.625   5.033   6.183 -1.8073  0.1144 -0.7867
  329MOL0     H45396   8.479   5.047   6.340  0.4705 -0.0561 -2.6968
  329MOL0     H45397   8.494   4.893   6.420 -1.9276  1.1835  0.2282
  329MOL0     H45398   8.207   4.815   6.134 -0.3318 -0.0770  0.2330
  329MOL0     H45399   9.037   4.737   6.074 -0.5285 -1.5120 -1.5928
  329MOL0     H45400   9.374   4.797   6.061 -0.9732  0.2969  2.2193
  329MOL0     H45401   9.241   4.691   6.109 -1.5720 -0.4987 -0.6103
  329MOL0     H45402   9.324   4.660   5.958  3.8814  2.0138  0.1625
  330MOL0     O45403   8.936   8.068   0.478 -0.4591 -0.0660  0.0015
  330MOL0     C45404   9.010   7.974   0.475  0.6754 -0.1225  0.4595
  330MOL0     O45405   9.119   7.965   0.393  1.0937  0.6432 -0.6497
  330MOL0     C45406   9.174   8.067   0.321  0.4924  0.2164  0.1494
  330MOL0     C45407   9.263   8.028   0.229  0.2476 -0.4919 -0.2468
  330MOL0     C45408   9.323   8.126   0.152  0.0603  0.2097  0.5544
  330MOL0     C45409   9.300   8.259   0.159  0.1229 -0.4145  0.3837
  330MOL0     O45410   9.370   8.340   0.074  1.0240  0.0012  0.4346
  330MOL0     C45411   9.371   8.481   0.113  0.4604 -0.1236 -0.1068
  330MOL0     C45412   9.495   8.548   0.045  1.0956  0.3929 -0.3893
  330MOL0     C45413   9.619   8.539   0.126 -0.0478  0.3114  0.4213
  330MOL0     C45414   9.737   8.607   0.065 -0.0457  0.0616  0.3627
  330MOL0     C45415   9.856   8.626   0.164  0.1814 -0.5982 -0.1608
  330MOL0     C45416   9.955   8.718   0.095 -0.4957 -0.6482  0.0074
  330MOL0     C45417  10.068   8.758   0.188 -0.7301  0.9212 -0.4129
  330MOL0     C45418  10.149   8.637   0.240  0.4855 -1.3709 -0.1245
  330MOL0     N45419  10.206   8.654   0.374 -0.2524 -0.1626  0.5543
  330MOL0     C45420  10.303   8.743   0.404  0.2046 -0.2120 -0.4316
  330MOL0     C45421  10.317   8.730   0.541  0.4178 -0.0898  0.7064
  330MOL0     C45422  10.402   8.813   0.632  0.1346  0.6382 -0.2174
  330MOL0     C45423  10.549   8.775   0.596  1.2805 -0.0992 -0.8710
  330MOL0     C45424  10.651   8.870   0.672 -0.1043 -0.7924  0.1955
  330MOL0     C45425  10.795   8.823   0.645 -0.4224  1.1235 -0.7954
  330MOL0     O45426  10.840   8.719   0.738 -0.7105 -0.2942  0.0701
  330MOL0     C45427  10.934   8.748   0.841 -0.1447 -0.5388  0.4806
  330MOL0     C45428  10.953   8.871   0.901  0.2562 -0.1242  0.0231
  330MOL0     C45429  11.054   8.899   0.993 -0.0006 -0.7340 -0.3607
  330MOL0     C45430  11.059   9.038   1.056  0.2225 -0.6425  0.9892
  330MOL0     C45431  11.160   8.805   1.015  0.2780  0.4007 -0.2868
  330MOL0     C45432  11.290   8.827   1.084 -0.2798 -1.0868 -0.2742
  330MOL0     O45433  11.332   8.947   1.109 -0.1051 -0.3981 -0.1389
  330MOL0     C45434  11.455   8.978   1.162 -0.9964 -0.5216  0.4117
  330MOL0     C45435  11.468   8.953   1.299  0.3116 -0.4135 -0.2246
  330MOL0     C45436  11.588   8.977   1.368  0.3716 -0.5762  0.4932
  330MOL0     C45437  11.690   9.050   1.305  0.4024 -0.3140  0.3235
  330MOL0     O45438  11.799   9.101   1.371 -0.4218  0.2542  0.1334
  330MOL0     C45439  11.817   9.090   1.514 -0.3345 -0.5679  0.0927
  330MOL0     C45440  11.962   9.136   1.555  0.2230 -0.2246  0.8043
  330MOL0     C45441  11.984   9.105   1.701  0.5899  0.3432 -0.2740
  330MOL0     C45442  12.121   9.149   1.742 -0.4011  0.2350 -0.7326
  330MOL0     C45443  12.143   9.107   1.883  0.1218  0.4595  0.5311
  330MOL0     C45444  12.255   9.194   1.948  0.5758  0.2821 -0.7972
  330MOL0     C45445  12.278   9.132   2.093 -0.0032  0.4016  0.5696
  330MOL0     C45446  12.315   8.979   2.093 -0.7450  0.2422  0.8628
  330MOL0    Cl45447  12.474   8.967   1.996 -0.1469 -0.4616  0.1938
  330MOL0     C45448  11.672   9.085   1.163 -0.8475 -0.4626  0.5266
  330MOL0     C45449  11.560   9.054   1.093  0.2013  0.1672 -0.7272
  330MOL0     O45450  11.351   8.722   1.107  0.4634 -0.5736 -0.1589
  330MOL0     C45451  11.133   8.673   0.955 -0.9072  0.3716  0.0419
  330MOL0     C45452  11.026   8.646   0.863  0.7118  0.6409  0.0772
  330MOL0     N45453  10.229   8.635   0.594 -0.4108  0.0338  0.1858
  330MOL0     N45454  10.161   8.600   0.491 -0.0495  0.9169  1.0931
  330MOL0     C45455   9.215   8.296   0.264  0.0903  0.2235 -0.1013
  330MOL0     C45456   9.146   8.202   0.340  0.2536 -0.8303 -0.0305
  330MOL0     C45457   8.969   7.858   0.552 -0.1005  0.2249 -0.2191
  330MOL0     C45458   8.879   7.871   0.660 -0.2460  0.4469 -0.3301
  330MOL0     C45459   8.839   7.763   0.738  1.0052  0.0669  0.5488
  330MOL0     C45460   8.901   7.635   0.721  0.2817  0.5365  0.0468
  330MOL0     O45461   8.879   7.513   0.789  0.4150  0.5625  0.4611
  330MOL0     C45462   8.755   7.515   0.876 -0.9923  0.6355 -0.4709
  330MOL0     C45463   8.746   7.374   0.957 -0.3090 -0.0968 -0.1831
  330MOL0     C45464   8.866   7.335   1.045 -0.2092  1.0736  0.1897
  330MOL0     C45465   8.875   7.182   1.033  0.4132  1.1665  0.0728
  330MOL0     C45466   8.985   7.109   1.107 -0.4649  0.0195  1.1263
  330MOL0     C45467   9.072   7.050   1.169 -0.5942  0.7156 -0.0429
  330MOL0     C45468   8.989   7.621   0.613  0.5094  0.3422  0.1033
  330MOL0     C45469   9.021   7.726   0.521  0.1887  0.3781 -1.3258
  330MOL0     C45470   9.115   7.687   0.410 -1.4170  0.0787  0.5643
  330MOL0     H45471   9.305   7.929   0.222  1.7326  0.0532  0.5077
  330MOL0     H45472   9.396   8.095   0.078  0.9821  0.5719  1.3083
  330MOL0     H45473   9.379   8.491   0.221 -0.9234 -1.2456  0.1442
  330MOL0     H45474   9.276   8.525   0.082  0.7240 -0.3584 -1.3232
  330MOL0     H45475   9.505   8.509  -0.057  0.5030 -1.8071  0.3317
  330MOL0     H45476   9.462   8.650   0.025 -1.3901 -0.4358 -0.8439
  330MOL0     H45477   9.602   8.583   0.225  1.5130  1.5223  0.1778
  330MOL0     H45478   9.643   8.435   0.151 -1.1918 -1.5807 -5.0964
  330MOL0     H45479   9.770   8.553  -0.024  0.7481  0.5643  0.3368
  330MOL0     H45480   9.706   8.701   0.018 -1.4729 -0.9095 -0.7388
  330MOL0     H45481   9.891   8.524   0.186  0.0115 -0.8508 -1.0154
  330MOL0     H45482   9.828   8.670   0.260 -1.3483 -1.1393 -0.3183
  330MOL0     H45483  10.002   8.652   0.022  0.7730  0.3828 -0.1371
  330MOL0     H45484   9.903   8.804   0.051 -0.5275  0.4869  2.1217
  330MOL0     H45485  10.016   8.814   0.267  0.0535  1.4500 -0.2623
  330MOL0     H45486  10.141   8.826   0.143  2.6278 -2.2931 -0.2963
  330MOL0     H45487  10.096   8.542   0.240  0.5510 -1.4125 -0.6720
  330MOL0     H45488  10.232   8.620   0.170  0.6839  1.4391 -0.6910
  330MOL0     H45489  10.354   8.814   0.339  1.1209 -0.3580  0.1147
  330MOL0     H45490  10.389   8.785   0.737  4.5296  0.7053  0.5424
  330MOL0     H45491  10.387   8.919   0.611  1.2913  0.6841 -0.9207
  330MOL0     H45492  10.561   8.669   0.618 -0.9366  0.3663  3.6888
  330MOL0     H45493  10.567   8.788   0.488  0.6911 -0.6996 -1.0476
  330MOL0     H45494  10.647   8.973   0.635  4.3358 -0.3002  0.5987
  330MOL0     H45495  10.631   8.869   0.779  1.4847 -1.5757  0.5176
  330MOL0     H45496  10.807   8.790   0.542  3.7570  0.3236 -0.2288
  330MOL0     H45497  10.871   8.901   0.651  0.9284 -0.2319  1.5764
  330MOL0     H45498  10.883   8.949   0.875  0.0213 -0.8032 -1.4355
  330MOL0     H45499  10.957   9.074   1.067  0.4249 -0.2579  1.6599
  330MOL0     H45500  11.118   9.100   0.988  1.2643 -2.4915  0.1086
  330MOL0     H45501  11.105   9.041   1.155  0.8029  2.0214  0.6984
  330MOL0     H45502  11.382   8.900   1.339 -1.0266  1.6577 -0.2135
  330MOL0     H45503  11.602   8.934   1.467  0.9187 -2.1492 -0.2457
  330MOL0     H45504  11.740   9.149   1.565 -0.0916  0.2271 -0.4367
  330MOL0     H45505  11.805   8.985   1.542  0.1446  0.0217  2.8255
  330MOL0     H45506  12.044   9.093   1.497  0.1581  0.1111  0.4567
  330MOL0     H45507  11.960   9.245   1.544  1.4705 -0.3932 -1.4690
  330MOL0     H45508  11.981   8.997   1.715  0.2248  0.0219 -2.5495
  330MOL0     H45509  11.905   9.151   1.761 -1.2157 -0.7726 -1.7023
  330MOL0     H45510  12.138   9.257   1.742  0.7960  0.1208 -3.0906
  330MOL0     H45511  12.189   9.107   1.668  0.0209  0.9892 -0.7702
  330MOL0     H45512  12.048   9.100   1.936 -1.2677 -0.2948 -1.8751
  330MOL0     H45513  12.174   9.002   1.869 -0.9528  0.2689 -0.6266
  330MOL0     H45514  12.233   9.300   1.959  0.8635  0.3324 -0.7025
  330MOL0     H45515  12.344   9.171   1.888  0.6273 -1.9327  0.0157
  330MOL0     H45516  12.195   9.141   2.165  0.7265 -1.0545  1.6404
  330MOL0     H45517  12.351   9.196   2.144 -1.1946  2.9793 -0.7903
  330MOL0     H45518  12.241   8.909   2.052  0.7943 -0.2088 -1.3120
  330MOL0     H45519  12.338   8.943   2.194  3.4063  0.3520  0.1341
  330MOL0     H45520  11.742   9.151   1.114 -1.4577 -0.5791 -0.5155
  330MOL0     H45521  11.540   9.092   0.993  0.9457  1.4754 -0.4096
  330MOL0     H45522  11.209   8.596   0.965 -0.1555 -0.1378 -5.7797
  330MOL0     H45523  11.016   8.548   0.817  1.7008  0.8161 -0.5234
  330MOL0     H45524   9.194   8.401   0.283 -0.5241 -0.4989  4.2582
  330MOL0     H45525   9.074   8.243   0.410 -1.6820  0.1872 -2.4887
  330MOL0     H45526   8.822   7.960   0.688 -1.5837 -0.1853 -0.9266
  330MOL0     H45527   8.772   7.768   0.823  1.5180  2.0368  0.8971
  330MOL0     H45528   8.770   7.599   0.944 -3.5426 -0.2404  1.3126
  330MOL0     H45529   8.666   7.513   0.813  0.3410 -0.7027 -2.4386
  330MOL0     H45530   8.724   7.294   0.886 -1.9920  1.0498 -1.0344
  330MOL0     H45531   8.658   7.380   1.021 -0.4843 -1.1042 -0.3196
  330MOL0     H45532   8.953   7.385   1.000 -1.5001  1.4118 -2.0973
  330MOL0     H45533   8.858   7.355   1.152 -1.5527 -2.9498  1.0057
  330MOL0     H45534   8.884   7.156   0.928 -0.4279  1.1461  0.0016
  330MOL0     H45535   8.787   7.123   1.060  0.5603  1.4288  1.1735
  330MOL0     H45536   9.146   7.000   1.227 -1.1604  1.4480  1.3824
  330MOL0     H45537   9.040   7.527   0.596 -1.0531 -0.0962 -2.6794
  330MOL0     H45538   9.135   7.580   0.405  3.3960  0.7030  0.9861
  330MOL0     H45539   9.086   7.720   0.310  0.5418 -2.1026 -0.8451
  330MOL0     H45540   9.210   7.740   0.424 -2.1510  1.0276  2.1986
  331MOL0     O45541   8.537   4.373   3.433  0.2405 -0.6911  0.9772
  331MOL0     C45542   8.480   4.342   3.539 -0.9212 -0.2498  0.0468
  331MOL0     O45543   8.515   4.402   3.656 -0.3515 -0.1903 -0.0168
  331MOL0     C45544   8.630   4.477   3.658 -0.7846  0.7613 -0.4427
  331MOL0     C45545   8.649   4.599   3.599 -0.1700 -0.8356 -0.0525
  331MOL0     C45546   8.771   4.673   3.609 -0.0633  0.5268  0.3822
  331MOL0     C45547   8.880   4.632   3.671 -0.3389 -0.1967 -0.2563
  331MOL0     O45548   8.995   4.705   3.658  0.0950 -0.0517  0.2222
  331MOL0     C45549   9.115   4.676   3.734 -0.1955  0.0113  0.6640
  331MOL0     C45550   9.105   4.697   3.889  1.2204  0.4308  0.7702
  331MOL0     C45551   9.221   4.660   3.976 -0.0809  0.2278  0.0132
  331MOL0     C45552   9.211   4.670   4.127  0.2311 -0.0364 -0.2478
  331MOL0     C45553   9.348   4.654   4.195 -0.2310 -0.0519  0.2803
  331MOL0     C45554   9.431   4.779   4.223 -0.3912 -1.0752 -0.1133
  331MOL0     C45555   9.556   4.771   4.314 -0.9167  0.2708 -0.2271
  331MOL0     C45556   9.643   4.893   4.301 -0.8198 -0.8990  0.3730
  331MOL0     N45557   9.771   4.880   4.379 -0.1574 -0.2879  0.1140
  331MOL0     C45558   9.892   4.837   4.330  0.0702 -0.3479  0.2189
  331MOL0     C45559   9.978   4.815   4.438 -0.7736 -0.3265 -0.3047
  331MOL0     C45560  10.121   4.776   4.435 -0.8202 -0.7142 -0.3171
  331MOL0     C45561  10.221   4.885   4.440 -0.2701 -0.6842 -0.0947
  331MOL0     C45562  10.365   4.832   4.466 -0.8824  0.1088 -0.7191
  331MOL0     C45563  10.490   4.903   4.404 -0.6178 -0.3089  0.1479
  331MOL0     O45564  10.592   4.798   4.381 -0.3252  0.5373 -0.0652
  331MOL0     C45565  10.706   4.819   4.306 -0.2281 -0.4483 -0.8814
  331MOL0     C45566  10.722   4.930   4.226  0.1682  0.0666  0.1732
  331MOL0     C45567  10.826   4.961   4.144  1.1763  0.8674  0.3944
  331MOL0     C45568  10.813   5.083   4.064  0.5177 -0.2824 -0.2983
  331MOL0     C45569  10.938   4.876   4.151  0.0064  0.5230 -0.4567
  331MOL0     C45570  11.078   4.915   4.091 -1.0940 -1.1939 -0.2459
  331MOL0     O45571  11.178   4.821   4.078 -0.2784  0.4065 -1.2297
  331MOL0     C45572  11.293   4.834   4.009  0.1063 -1.4249  0.1575
  331MOL0     C45573  11.289   4.868   3.874  0.5080  0.4857 -0.6206
  331MOL0     C45574  11.405   4.906   3.808 -0.3639  0.3214  0.3803
  331MOL0     C45575  11.529   4.894   3.869  1.0026  0.5596 -0.4956
  331MOL0     O45576  11.634   4.917   3.786  0.3913  0.6917  0.4652
  331MOL0     C45577  11.713   4.799   3.757 -0.2103  0.6524 -0.0778
  331MOL0     C45578  11.863   4.836   3.767 -0.1428  0.5058 -0.6472
  331MOL0     C45579  11.907   4.919   3.651 -0.7696 -0.1445  0.1502
  331MOL0     C45580  12.063   4.934   3.664 -0.2520  0.4134  0.1425
  331MOL0     C45581  12.125   5.071   3.625  0.3080 -0.4599 -0.4639
  331MOL0     C45582  12.103   5.123   3.481 -0.5428  0.2172  0.3828
  331MOL0     C45583  12.190   5.061   3.372  0.7900 -0.0846 -0.3701
  331MOL0     C45584  12.334   5.061   3.411  0.0510 -0.7625 -0.3934
  331MOL0    Cl45585  12.402   5.227   3.423  0.0585 -0.4517  0.1941
  331MOL0     C45586  11.527   4.866   4.002 -0.0334  0.0593 -0.4725
  331MOL0     C45587  11.407   4.837   4.083  0.2586  0.3387  0.3965
  331MOL0     O45588  11.094   5.029   4.046 -0.1619 -0.1612 -0.3696
  331MOL0     C45589  10.927   4.755   4.227 -0.6722  0.8162  0.2454
  331MOL0     C45590  10.812   4.732   4.299 -0.9518 -0.6353 -0.0620
  331MOL0     N45591   9.902   4.861   4.545 -0.4917 -0.2158  0.9046
  331MOL0     N45592   9.786   4.898   4.510 -0.4537  0.3210 -0.1092
  331MOL0     C45593   8.862   4.504   3.734 -0.8762 -0.5497 -0.6862
  331MOL0     C45594   8.745   4.426   3.733 -0.2865  0.2086 -0.2057
  331MOL0     C45595   8.356   4.252   3.525  0.7307 -1.4056 -0.5909
  331MOL0     C45596   8.297   4.241   3.396 -0.2336 -0.3781 -0.2205
  331MOL0     C45597   8.175   4.179   3.371  0.9831 -0.3616  0.8709
  331MOL0     C45598   8.120   4.100   3.471 -0.3160  0.1588 -0.6920
  331MOL0     O45599   8.004   4.033   3.444  0.1578 -0.0122 -0.2529
  331MOL0     C45600   7.997   3.895   3.499 -0.6915 -0.6547 -0.8545
  331MOL0     C45601   7.861   3.860   3.561  0.4436  0.4084 -0.6988
  331MOL0     C45602   7.733   3.870   3.479  0.1287  0.2459  0.5869
  331MOL0     C45603   7.615   3.788   3.541 -0.4677 -0.1188  0.6829
  331MOL0     C45604   7.504   3.810   3.439  0.5431 -0.3626  0.2914
  331MOL0     C45605   7.416   3.814   3.356  0.1207 -0.9699 -0.1575
  331MOL0     C45606   8.163   4.125   3.604 -0.1825 -0.1431 -0.2614
  331MOL0     C45607   8.275   4.213   3.629 -0.5842 -0.0290 -0.5451
  331MOL0     C45608   8.295   4.246   3.775  0.7788  0.6402 -0.0909
  331MOL0     H45609   8.575   4.632   3.526  1.7540  3.9609 -0.1430
  331MOL0     H45610   8.777   4.765   3.551  0.9356  0.2584  0.0395
  331MOL0     H45611   9.202   4.734   3.704 -0.2974  0.0701  0.4852
  331MOL0     H45612   9.152   4.574   3.720 -2.1098 -0.7668  0.9534
  331MOL0     H45613   9.098   4.806   3.892  3.9796  0.8351 -1.9889
  331MOL0     H45614   9.010   4.651   3.916  0.3525  2.4496  1.3151
  331MOL0     H45615   9.264   4.561   3.961 -2.3408 -0.5107 -2.3410
  331MOL0     H45616   9.292   4.735   3.939  1.5183 -1.1601  0.1276
  331MOL0     H45617   9.163   4.763   4.159 -2.6315 -2.2447  2.4334
  331MOL0     H45618   9.152   4.585   4.162  0.9430 -1.0771 -1.4705
  331MOL0     H45619   9.398   4.569   4.147  1.7462  2.0978 -1.6989
  331MOL0     H45620   9.331   4.610   4.294  0.1456 -0.8897 -0.0179
  331MOL0     H45621   9.465   4.816   4.126 -0.0299  0.4672  0.5685
  331MOL0     H45622   9.379   4.866   4.262  2.1067  0.5621 -0.1601
  331MOL0     H45623   9.611   4.680   4.288 -1.5331 -0.6970  1.7230
  331MOL0     H45624   9.521   4.758   4.416  2.0451  2.3810  1.2182
  331MOL0     H45625   9.670   4.910   4.197 -0.3810 -0.0582  0.6100
  331MOL0     H45626   9.580   4.976   4.333 -0.2623 -0.3234 -0.0036
  331MOL0     H45627   9.926   4.825   4.228 -1.6490 -0.1062 -0.4172
  331MOL0     H45628  10.144   4.709   4.351 -1.4725  0.3096 -1.3435
  331MOL0     H45629  10.140   4.716   4.525  1.1749  0.1077 -0.1246
  331MOL0     H45630  10.215   4.943   4.348 -0.7006  0.2400  0.5076
  331MOL0     H45631  10.203   4.946   4.529  3.8314  1.1634 -0.3267
  331MOL0     H45632  10.376   4.827   4.575  0.8921  2.1155 -0.7278
  331MOL0     H45633  10.375   4.727   4.436  1.5649  0.1663 -0.3424
  331MOL0     H45634  10.458   4.931   4.303 -2.6431 -2.5790  0.0686
  331MOL0     H45635  10.513   4.995   4.459 -0.5185 -0.9158  1.1341
  331MOL0     H45636  10.641   4.998   4.201  2.6823  2.4338 -2.2263
  331MOL0     H45637  10.868   5.071   3.969 -1.4991  3.5923 -2.1696
  331MOL0     H45638  10.859   5.164   4.122  1.2781  1.8435 -3.5861
  331MOL0     H45639  10.710   5.109   4.042  0.1389 -0.5846  1.0504
  331MOL0     H45640  11.196   4.879   3.819  0.0958 -2.2730 -0.6020
  331MOL0     H45641  11.405   4.927   3.702  6.0770  0.1622 -0.0433
  331MOL0     H45642  11.687   4.719   3.827 -1.6632 -1.0553 -2.4062
  331MOL0     H45643  11.688   4.754   3.661 -0.2291 -0.1064  0.2763
  331MOL0     H45644  11.869   4.892   3.861  1.5728  2.5568 -1.8767
  331MOL0     H45645  11.931   4.750   3.771 -0.7046  0.0429 -0.9164
  331MOL0     H45646  11.857   5.017   3.651 -3.1600 -1.3004 -0.9050
  331MOL0     H45647  11.889   4.873   3.554  1.7643 -0.2859 -0.3238
  331MOL0     H45648  12.114   4.860   3.601  1.2542  2.2894 -0.9802
  331MOL0     H45649  12.092   4.910   3.767 -1.1102 -0.5203  0.1787
  331MOL0     H45650  12.084   5.145   3.695  2.0407 -0.6714  0.8203
  331MOL0     H45651  12.231   5.081   3.646  0.4993  0.2941 -1.6856
  331MOL0     H45652  12.121   5.231   3.475 -2.3548  0.6456  1.7555
  331MOL0     H45653  12.003   5.099   3.444  0.0765 -1.8620 -0.0487
  331MOL0     H45654  12.178   5.111   3.276 -1.3153 -1.7544 -1.0651
  331MOL0     H45655  12.163   4.956   3.362  1.5017 -0.5531  1.9676
  331MOL0     H45656  12.388   5.009   3.331 -0.1436  1.6532 -2.2095
  331MOL0     H45657  12.348   5.004   3.503  1.1561  1.1941  0.7280
  331MOL0     H45658  11.623   4.858   4.053 -0.0033 -0.2997 -0.5869
  331MOL0     H45659  11.402   4.824   4.191  1.1628 -0.2835  0.3753
  331MOL0     H45660  10.997   4.672   4.231  0.8273  1.8039 -2.6540
  331MOL0     H45661  10.816   4.640   4.357  1.4826 -0.5614 -0.0084
  331MOL0     H45662   8.946   4.459   3.786 -2.3900 -0.7547  1.7044
  331MOL0     H45663   8.743   4.335   3.793  2.0390  0.5818  0.5566
  331MOL0     H45664   8.349   4.293   3.316 -0.2122 -1.2135 -0.7642
  331MOL0     H45665   8.140   4.193   3.269  3.7811  0.8718 -0.0386
  331MOL0     H45666   8.010   3.836   3.407 -3.7364 -1.2963 -0.9744
  331MOL0     H45667   8.083   3.880   3.564  1.4501  0.2948 -3.2837
  331MOL0     H45668   7.844   3.918   3.652  0.7685  0.8360 -0.9077
  331MOL0     H45669   7.872   3.756   3.592 -2.3400  0.4612  0.8394
  331MOL0     H45670   7.710   3.976   3.470  2.0777  0.9091  2.4919
  331MOL0     H45671   7.759   3.831   3.380  2.9302  1.6795  0.6670
  331MOL0     H45672   7.581   3.832   3.635 -1.3806 -0.6857  0.6213
  331MOL0     H45673   7.632   3.681   3.556 -2.7367 -0.5579  0.3880
  331MOL0     H45674   7.326   3.818   3.297  0.0069  1.9353  0.0519
  331MOL0     H45675   8.097   4.086   3.680  0.6334  0.3000  0.7006
  331MOL0     H45676   8.222   4.325   3.795 -0.5430  0.3349 -3.2170
  331MOL0     H45677   8.270   4.156   3.833 -2.2068  1.0368 -0.6288
  331MOL0     H45678   8.397   4.268   3.809  1.1034 -3.0811  1.9463
  332MOL0     O45679   7.397   8.201   4.082  0.2644  0.2962 -0.6606
  332MOL0     C45680   7.295   8.154   4.026  0.0785 -0.1634  0.1664
  332MOL0     O45681   7.278   8.020   3.991  0.8393  0.1730  0.3884
  332MOL0     C45682   7.368   7.931   4.042  0.4386 -0.4960 -0.2260
  332MOL0     C45683   7.473   7.879   3.969  0.8225 -0.5310 -0.2342
  332MOL0     C45684   7.562   7.798   4.031 -0.6475 -0.5977  0.9506
  332MOL0     C45685   7.554   7.768   4.167 -1.0440  0.8874  0.3022
  332MOL0     O45686   7.655   7.684   4.205  0.5497  0.0471  0.3821
  332MOL0     C45687   7.666   7.659   4.339 -0.2352 -0.3265 -0.0180
  332MOL0     C45688   7.752   7.537   4.366  0.0895  0.0201  0.3096
  332MOL0     C45689   7.773   7.511   4.517  0.7881 -0.4333 -0.3436
  332MOL0     C45690   7.873   7.400   4.542 -0.7822 -0.5521 -0.6776
  332MOL0     C45691   7.994   7.470   4.575 -0.3415  0.1924 -0.1222
  332MOL0     C45692   8.096   7.368   4.615  0.5427  0.2827  0.4170
  332MOL0     C45693   8.243   7.407   4.612 -0.1134  0.3641 -0.6999
  332MOL0     C45694   8.329   7.284   4.636 -0.0555 -0.8159 -0.1212
  332MOL0     N45695   8.472   7.320   4.641  0.2742  1.0506  0.0286
  332MOL0     C45696   8.584   7.285   4.566  0.5184 -0.0408 -0.8380
  332MOL0     C45697   8.687   7.343   4.634 -0.4102  0.0400  1.0069
  332MOL0     C45698   8.827   7.342   4.571 -0.4585 -0.4170  0.6542
  332MOL0     C45699   8.918   7.242   4.644 -1.2729 -1.2559 -0.2299
  332MOL0     C45700   9.060   7.258   4.593  0.3491  0.1957 -1.1701
  332MOL0     C45701   9.153   7.157   4.669 -0.1905 -0.1292 -0.3699
  332MOL0     O45702   9.179   7.215   4.801 -0.5049 -0.2980  0.1902
  332MOL0     C45703   9.309   7.225   4.851 -0.1991 -0.5645 -0.4046
  332MOL0     C45704   9.434   7.191   4.784  0.9013 -0.4108  0.5890
  332MOL0     C45705   9.561   7.222   4.837 -0.1834  1.2149  0.8723
  332MOL0     C45706   9.683   7.197   4.755  0.1293  0.2690  0.8563
  332MOL0     C45707   9.567   7.272   4.966 -0.2385 -0.6597  0.6123
  332MOL0     C45708   9.700   7.309   5.029 -0.6229 -0.2542 -0.6457
  332MOL0     O45709   9.696   7.419   5.106  0.6340 -0.3934 -0.4866
  332MOL0     C45710   9.813   7.483   5.122 -0.4717  0.4751 -0.6274
  332MOL0     C45711   9.919   7.432   5.191  0.7404  0.5112  0.8927
  332MOL0     C45712  10.039   7.508   5.198  0.2148  0.0159 -0.6884
  332MOL0     C45713  10.045   7.634   5.138  0.4274 -0.1991  0.2955
  332MOL0     O45714  10.154   7.718   5.161 -1.2267  0.1947 -0.3637
  332MOL0     C45715  10.264   7.680   5.251 -0.4768  0.7939 -0.0515
  332MOL0     C45716  10.383   7.611   5.189 -0.0353 -0.1453  0.5071
  332MOL0     C45717  10.475   7.691   5.097  0.3381 -0.6434  0.0131
  332MOL0     C45718  10.446   7.673   4.953 -0.7177  0.1276  0.1447
  332MOL0     C45719  10.546   7.750   4.871 -0.2359  0.5508 -0.5339
  332MOL0     C45720  10.525   7.727   4.723 -0.0234 -0.0722 -0.7187
  332MOL0     C45721  10.657   7.734   4.649  0.4950 -0.0394  0.4629
  332MOL0     C45722  10.707   7.582   4.639 -0.1899 -0.2779 -0.5658
  332MOL0    Cl45723  10.608   7.464   4.535 -0.0138 -0.0984 -0.0517
  332MOL0     C45724   9.936   7.683   5.076  1.1470 -0.4478 -0.0651
  332MOL0     C45725   9.819   7.607   5.058  0.3367  0.2268  0.1723
  332MOL0     O45726   9.795   7.226   5.009 -0.1291  0.2680  0.2793
  332MOL0     C45727   9.442   7.300   5.038  0.7156 -0.2289 -0.5821
  332MOL0     C45728   9.321   7.270   4.980 -0.1127  0.1690  0.0277
  332MOL0     N45729   8.646   7.394   4.753  0.4857 -0.0384 -0.2429
  332MOL0     N45730   8.514   7.384   4.758 -0.3413 -1.0822  0.0044
  332MOL0     C45731   7.449   7.821   4.240  0.0770  0.0192  0.0302
  332MOL0     C45732   7.362   7.903   4.176  0.0970 -0.6599  0.6327
  332MOL0     C45733   7.194   8.249   3.979 -0.6483  0.6576 -0.0133
  332MOL0     C45734   7.086   8.197   3.899  0.5532  0.0538 -0.3322
  332MOL0     C45735   6.989   8.279   3.839 -0.0172  0.5907  0.2481
  332MOL0     C45736   6.987   8.416   3.869  0.0193 -1.1090  0.3719
  332MOL0     O45737   6.892   8.505   3.827  0.3141  0.0947  1.0092
  332MOL0     C45738   6.761   8.458   3.781  0.1930  1.1672 -0.6084
  332MOL0     C45739   6.690   8.399   3.904 -1.3498  0.8441 -0.6443
  332MOL0     C45740   6.540   8.375   3.866 -0.1109 -0.6236 -1.2296
  332MOL0     C45741   6.444   8.358   3.988 -0.0361  0.1961 -0.0694
  332MOL0     C45742   6.461   8.469   4.086 -0.2645  0.0302 -0.7805
  332MOL0     C45743   6.495   8.553   4.169 -0.4091  1.1078  0.2481
  332MOL0     C45744   7.098   8.469   3.926  0.3828 -0.6758 -0.8776
  332MOL0     C45745   7.204   8.389   3.973  0.3054  0.4571  0.0751
  332MOL0     C45746   7.323   8.467   4.030  0.1841 -1.0243 -0.7551
  332MOL0     H45747   7.496   7.901   3.865  0.5589 -1.6808 -0.5470
  332MOL0     H45748   7.657   7.773   3.986 -0.5499  0.4295  0.5511
  332MOL0     H45749   7.570   7.629   4.383  0.7129 -2.3749  0.7707
  332MOL0     H45750   7.701   7.749   4.392 -1.4856  0.4200 -0.4057
  332MOL0     H45751   7.696   7.454   4.323 -1.8033  1.4912 -0.2448
  332MOL0     H45752   7.847   7.549   4.313 -1.5299  0.3519 -2.7314
  332MOL0     H45753   7.786   7.606   4.570 -2.5568  0.6189 -1.1446
  332MOL0     H45754   7.681   7.477   4.564  0.3178  0.8294 -0.3091
  332MOL0     H45755   7.834   7.335   4.621 -0.7616  2.9733  2.5068
  332MOL0     H45756   7.889   7.334   4.455  2.0714 -1.7415  0.6089
  332MOL0     H45757   7.975   7.540   4.657 -0.8252 -0.6591  0.5035
  332MOL0     H45758   8.026   7.528   4.488 -0.9192 -1.5336 -1.5234
  332MOL0     H45759   8.067   7.331   4.713  0.2133 -2.4173 -0.6154
  332MOL0     H45760   8.090   7.276   4.556 -2.2972  0.4579  0.3098
  332MOL0     H45761   8.260   7.471   4.699 -1.3894 -0.7354  0.4072
  332MOL0     H45762   8.263   7.445   4.511  1.8166 -3.1326 -1.8140
  332MOL0     H45763   8.309   7.224   4.725  1.8614  0.6491  1.3882
  332MOL0     H45764   8.318   7.214   4.552  2.0318  1.4367 -2.4447
  332MOL0     H45765   8.590   7.243   4.467  1.7901  2.1604 -1.7719
  332MOL0     H45766   8.856   7.446   4.584 -0.7596 -0.5444  2.5406
  332MOL0     H45767   8.834   7.317   4.464  3.5574 -1.1124  0.9503
  332MOL0     H45768   8.908   7.245   4.753 -2.9966  0.0641 -0.3740
  332MOL0     H45769   8.896   7.145   4.600 -2.4561 -1.4537  0.7478
  332MOL0     H45770   9.059   7.228   4.488 -1.0818  0.6634 -1.3052
  332MOL0     H45771   9.097   7.360   4.603  3.1305 -0.6236 -1.9538
  332MOL0     H45772   9.098   7.063   4.682 -1.4908  0.6096 -0.3522
  332MOL0     H45773   9.242   7.140   4.607 -1.4168 -1.7349 -1.7646
  332MOL0     H45774   9.419   7.124   4.699 -0.1522 -1.0208  1.2434
  332MOL0     H45775   9.749   7.284   4.765 -0.2736  0.6622  0.1605
  332MOL0     H45776   9.643   7.196   4.654 -2.6449 -0.8970  1.8809
  332MOL0     H45777   9.735   7.103   4.777  0.9842  0.6344  0.4543
  332MOL0     H45778   9.903   7.334   5.234  0.8228 -0.7651 -1.7925
  332MOL0     H45779  10.126   7.468   5.248  2.7974  4.1197 -1.3830
  332MOL0     H45780  10.300   7.771   5.300  0.2817  0.0689  0.7774
  332MOL0     H45781  10.221   7.617   5.329 -1.2705  2.1551  0.6472
  332MOL0     H45782  10.452   7.573   5.265  3.0297  1.4091 -1.3042
  332MOL0     H45783  10.348   7.527   5.129  2.0412 -0.2045 -0.7197
  332MOL0     H45784  10.579   7.683   5.132  0.0485  0.9829  1.3920
  332MOL0     H45785  10.453   7.796   5.118 -1.0325 -1.2751  2.0641
  332MOL0     H45786  10.347   7.718   4.940 -0.7691 -0.4060 -1.4928
  332MOL0     H45787  10.456   7.566   4.934  0.4775  0.1155  0.7530
  332MOL0     H45788  10.539   7.855   4.900 -1.4491  0.5370 -0.7468
  332MOL0     H45789  10.644   7.712   4.904  0.6415  4.0458  1.4184
  332MOL0     H45790  10.455   7.797   4.678  3.8025  3.2077 -2.1933
  332MOL0     H45791  10.480   7.629   4.701  1.8687 -0.7260 -1.9969
  332MOL0     H45792  10.735   7.795   4.696  2.3141 -1.0586 -1.0996
  332MOL0     H45793  10.632   7.779   4.552  1.5085  0.3015  0.3448
  332MOL0     H45794  10.713   7.538   4.739  1.1988 -2.3335 -1.4708
  332MOL0     H45795  10.811   7.590   4.606 -0.0651 -0.4033 -0.2056
  332MOL0     H45796   9.937   7.789   5.057 -0.2592 -0.3000  0.5396
  332MOL0     H45797   9.728   7.649   5.016 -1.6260 -0.5298  3.3125
  332MOL0     H45798   9.455   7.331   5.142 -1.8382 -1.2492  0.1156
  332MOL0     H45799   9.222   7.288   5.020 -0.2608  0.6159 -0.5209
  332MOL0     H45800   7.443   7.799   4.346 -0.9105  0.5291  0.0876
  332MOL0     H45801   7.281   7.953   4.228 -1.9787 -2.3290 -0.8139
  332MOL0     H45802   7.084   8.089   3.888  3.3022 -0.2984  1.4832
  332MOL0     H45803   6.905   8.247   3.778  2.1120 -0.0449 -2.5654
  332MOL0     H45804   6.703   8.540   3.738  0.7729  1.7409 -0.3170
  332MOL0     H45805   6.772   8.374   3.711 -3.7463  0.0290 -0.0746
  332MOL0     H45806   6.688   8.482   3.976 -3.9742 -1.1961  1.8549
  332MOL0     H45807   6.735   8.311   3.952  0.2791  3.0282  2.2022
  332MOL0     H45808   6.514   8.469   3.816  0.7370  0.4094  0.1959
  332MOL0     H45809   6.529   8.291   3.796 -0.0213 -0.5990 -1.2727
  332MOL0     H45810   6.469   8.266   4.041  0.1254 -0.8076 -1.8297
  332MOL0     H45811   6.345   8.350   3.944 -1.3249  2.6599  2.0946
  332MOL0     H45812   6.533   8.619   4.245 -1.0076 -0.0317  1.5798
  332MOL0     H45813   7.109   8.576   3.935  0.6460 -0.8610  2.3489
  332MOL0     H45814   7.303   8.575   4.032  0.0738 -1.0352 -1.0990
  332MOL0     H45815   7.346   8.441   4.134  0.0765  0.7913 -0.2393
  332MOL0     H45816   7.418   8.445   3.980  0.6393  1.2046 -0.9853
  333MOL0     O45817   1.039  10.140   7.208  0.2767  0.1285  0.9449
  333MOL0     C45818   1.104  10.244   7.242  0.2324  0.6983  0.1735
  333MOL0     O45819   1.229  10.237   7.299 -0.6806 -0.3453 -0.4883
  333MOL0     C45820   1.272  10.117   7.353  0.0097 -0.1883 -0.2800
  333MOL0     C45821   1.339  10.120   7.472 -0.8972 -0.1391 -1.2324
  333MOL0     C45822   1.403  10.017   7.538 -1.1484  0.1896 -0.1061
  333MOL0     C45823   1.424   9.891   7.476  0.6698  0.2501 -0.2934
  333MOL0     O45824   1.491   9.780   7.516  0.1793 -0.4355 -0.3572
  333MOL0     C45825   1.542   9.784   7.652 -0.3968 -0.1741  0.1262
  333MOL0     C45826   1.453   9.692   7.736 -0.0702  0.1943 -0.6327
  333MOL0     C45827   1.312   9.754   7.761  0.5009 -0.2997 -0.4313
  333MOL0     C45828   1.297   9.872   7.859  0.8163 -0.2021  0.6892
  333MOL0     C45829   1.151   9.922   7.854 -0.2942  0.3361 -0.4895
  333MOL0     C45830   1.124  10.052   7.776 -0.9384 -0.5492  0.5740
  333MOL0     C45831   0.981  10.090   7.766 -0.6355  0.2261 -0.0625
  333MOL0     C45832   0.953  10.200   7.664 -0.8584  0.6495  0.3378
  333MOL0     N45833   1.036  10.318   7.692 -0.6814  0.1035 -0.4922
  333MOL0     C45834   1.039  10.393   7.808 -0.0560 -0.1792 -0.3351
  333MOL0     C45835   1.149  10.473   7.792 -0.0251  0.8274  0.2175
  333MOL0     C45836   1.215  10.573   7.880  0.2125 -0.6030  0.1714
  333MOL0     C45837   1.123  10.657   7.970 -0.2649 -0.2816  0.9253
  333MOL0     C45838   1.084  10.576   8.089  0.2987  0.4638 -0.2760
  333MOL0     C45839   1.014  10.650   8.195 -0.3851 -0.0676  0.1059
  333MOL0     O45840   0.877  10.671   8.152  0.4271 -0.3100 -0.3617
  333MOL0     C45841   0.796  10.722   8.253 -0.5630  0.0170  1.2902
  333MOL0     C45842   0.841  10.818   8.338  0.0691  0.2812  0.5600
  333MOL0     C45843   0.745  10.879   8.416 -0.6400 -0.6137  0.1541
  333MOL0     C45844   0.792  10.996   8.489 -0.4740  0.5437  1.0704
  333MOL0     C45845   0.613  10.835   8.416 -0.6516  0.4084 -0.2541
  333MOL0     C45846   0.515  10.895   8.513  0.8996 -0.8209 -0.0644
  333MOL0     O45847   0.390  10.926   8.461 -0.0337  0.2632  0.4369
  333MOL0     C45848   0.280  10.973   8.527 -0.1428  0.8459  0.1863
  333MOL0     C45849   0.280  11.043   8.648  0.5282 -0.7954 -0.0431
  333MOL0     C45850   0.157  11.080   8.706  0.2035  0.4992 -0.2278
  333MOL0     C45851   0.037  11.046   8.654  0.0741 -0.6370 -0.9907
  333MOL0     O45852  -0.088  11.076   8.717 -0.6793  0.8711  0.0782
  333MOL0     C45853  -0.091  11.173   8.825 -0.3794 -0.1158 -0.0363
  333MOL0     C45854  -0.236  11.212   8.864 -0.4459  0.3678 -0.1629
  333MOL0     C45855  -0.303  11.097   8.942  0.8107 -0.3441 -0.3624
  333MOL0     C45856  -0.456  11.135   8.953 -0.5555 -0.1008  0.1278
  333MOL0     C45857  -0.536  11.045   9.050 -0.4088 -0.0831 -0.1976
  333MOL0     C45858  -0.682  11.076   9.057  0.7091 -0.4573  0.0888
  333MOL0     C45859  -0.735  10.979   9.174 -0.3337 -0.0294 -0.1030
  333MOL0     C45860  -0.885  11.019   9.180  0.3137  0.3545 -0.1249
  333MOL0    Cl45861  -0.957  10.934   9.317  0.0988 -0.0297 -0.3958
  333MOL0     C45862   0.036  10.981   8.530 -0.4498 -0.3043  0.2862
  333MOL0     C45863   0.152  10.945   8.465  1.2239 -0.3643 -0.0360
  333MOL0     O45864   0.548  10.931   8.628  0.2200  0.4535  0.3823
  333MOL0     C45865   0.571  10.750   8.316  0.9066 -0.7507 -0.1282
  333MOL0     C45866   0.667  10.689   8.237 -0.5264 -0.2231 -0.2480
  333MOL0     N45867   1.209  10.448   7.664 -0.4098 -0.5197 -0.5271
  333MOL0     N45868   1.145  10.348   7.610  0.5493 -0.6183  0.6843
  333MOL0     C45869   1.366   9.885   7.343 -0.2090  0.2620 -0.4072
  333MOL0     C45870   1.287   9.992   7.291 -0.5503 -0.5099  0.0150
  333MOL0     C45871   1.059  10.371   7.189  0.4636  0.0585 -0.6641
  333MOL0     C45872   1.109  10.431   7.078 -1.0208  0.1442  0.2142
  333MOL0     C45873   1.061  10.549   7.033  0.9282  0.4897  0.1955
  333MOL0     C45874   0.964  10.624   7.110  0.3987 -0.4345 -0.1508
  333MOL0     O45875   0.912  10.749   7.080 -0.6329 -0.4576  0.0536
  333MOL0     C45876   0.949  10.808   6.951  0.5598 -0.1190 -0.5484
  333MOL0     C45877   0.876  10.743   6.830  0.8772 -0.2317 -0.4753
  333MOL0     C45878   0.898  10.829   6.700 -0.9654 -0.2477 -0.2724
  333MOL0     C45879   0.797  10.790   6.588 -1.4106 -0.1938  0.3649
  333MOL0     C45880   0.671  10.832   6.628  0.6836  0.6512  0.5798
  333MOL0     C45881   0.560  10.852   6.652 -0.2269  0.2294 -0.4647
  333MOL0     C45882   0.917  10.569   7.223  0.5004  0.4934  0.0230
  333MOL0     C45883   0.951  10.441   7.256 -0.2497  0.3054  0.7877
  333MOL0     C45884   0.875  10.378   7.370  0.4356  0.1821 -0.3666
  333MOL0     H45885   1.343  10.214   7.525  0.7772  0.4791 -2.3903
  333MOL0     H45886   1.441  10.037   7.638 -2.0172  0.5963  0.1580
  333MOL0     H45887   1.567   9.887   7.681 -1.4186  0.4992 -1.2590
  333MOL0     H45888   1.641   9.741   7.637 -1.2203 -1.8438 -0.8347
  333MOL0     H45889   1.437   9.599   7.680 -3.9466 -0.3351  1.0003
  333MOL0     H45890   1.508   9.666   7.827  2.0717 -2.9047 -2.6231
  333MOL0     H45891   1.260   9.785   7.669 -1.1266  1.6178  1.0468
  333MOL0     H45892   1.250   9.673   7.801 -1.5146  1.8031  0.9919
  333MOL0     H45893   1.335   9.833   7.953  1.5812 -0.1971  0.3861
  333MOL0     H45894   1.363   9.952   7.824  0.6440 -0.4978 -0.3597
  333MOL0     H45895   1.114   9.944   7.954  2.5047 -0.5247  0.8410
  333MOL0     H45896   1.086   9.840   7.823 -1.5865 -0.9054  4.5490
  333MOL0     H45897   1.173  10.135   7.828 -0.8852 -1.4119  1.9637
  333MOL0     H45898   1.166  10.044   7.675  0.1092  0.8784  0.8620
  333MOL0     H45899   0.962  10.131   7.866  0.0481  0.1880  0.0844
  333MOL0     H45900   0.918  10.001   7.757  1.5938 -1.7621  2.3136
  333MOL0     H45901   0.971  10.157   7.566 -0.0521 -1.8052  1.4991
  333MOL0     H45902   0.850  10.237   7.672 -0.7875  1.6545 -2.5176
  333MOL0     H45903   0.981  10.383   7.899 -2.0073  3.2914 -1.0120
  333MOL0     H45904   1.274  10.643   7.820 -0.9480 -1.9020 -2.6509
  333MOL0     H45905   1.288  10.519   7.941  0.6733  0.3702  0.4937
  333MOL0     H45906   1.179  10.739   8.015  1.0288 -1.6920  2.0080
  333MOL0     H45907   1.031  10.690   7.922  0.0326 -1.8479 -0.8349
  333MOL0     H45908   1.008  10.503   8.060 -0.2091  0.5730  0.7488
  333MOL0     H45909   1.172  10.520   8.124 -1.2447 -3.2627 -1.8075
  333MOL0     H45910   1.016  10.590   8.286  0.2851 -0.4760 -0.1737
  333MOL0     H45911   1.054  10.751   8.212 -0.0252 -0.0811 -0.6377
  333MOL0     H45912   0.942  10.851   8.359 -0.3919  1.1273  1.5445
  333MOL0     H45913   0.709  11.065   8.504 -0.3703  1.3732 -1.6681
  333MOL0     H45914   0.863  11.049   8.425 -2.5314  0.8172 -1.1208
  333MOL0     H45915   0.839  10.962   8.582  0.5641 -0.7251  0.1188
  333MOL0     H45916   0.375  11.079   8.687 -0.5134  0.3052  1.6000
  333MOL0     H45917   0.170  11.137   8.797  3.5661  1.2059 -1.0249
  333MOL0     H45918  -0.040  11.127   8.911 -0.9194 -0.1429  0.2746
  333MOL0     H45919  -0.032  11.263   8.805  0.4604 -0.5263  0.5326
  333MOL0     H45920  -0.237  11.300   8.929  3.8177 -0.5177  1.4276
  333MOL0     H45921  -0.282  11.240   8.769 -0.8816 -1.6864 -0.5985
  333MOL0     H45922  -0.253  11.084   9.038  1.9257  1.3842 -0.6684
  333MOL0     H45923  -0.291  11.010   8.876 -1.2099 -1.8424  1.1007
  333MOL0     H45924  -0.506  11.132   8.856 -2.2134 -0.4820  0.9357
  333MOL0     H45925  -0.454  11.233   9.000  1.8502  0.9382 -1.9529
  333MOL0     H45926  -0.510  10.947   9.007  2.3236  1.3085 -2.0580
  333MOL0     H45927  -0.494  11.059   9.150  0.6999 -0.1094 -0.6398
  333MOL0     H45928  -0.725  11.032   8.966 -1.5843  0.9165  0.4352
  333MOL0     H45929  -0.699  11.182   9.079 -0.8860 -0.5695 -0.4506
  333MOL0     H45930  -0.700  11.015   9.271 -2.5699  4.6169 -0.7497
  333MOL0     H45931  -0.726  10.871   9.158  1.2633 -0.0943  1.0757
  333MOL0     H45932  -0.928  10.986   9.086  2.0223 -3.1183  0.1720
  333MOL0     H45933  -0.888  11.128   9.191 -0.0531  0.6961 -2.8215
  333MOL0     H45934  -0.063  10.963   8.489 -1.0539  1.4520  0.8724
  333MOL0     H45935   0.159  10.899   8.366  0.4854  0.1448 -0.3386
  333MOL0     H45936   0.468  10.718   8.303  1.3334 -2.7504  0.9659
  333MOL0     H45937   0.643  10.616   8.161  0.7720  0.4261 -1.3055
  333MOL0     H45938   1.385   9.802   7.277  0.0518 -1.3913  1.6207
  333MOL0     H45939   1.259   9.983   7.186  1.2794  0.2695 -0.5893
  333MOL0     H45940   1.195  10.391   7.025  0.1895 -1.6992  3.2764
  333MOL0     H45941   1.109  10.587   6.943  0.9715 -2.0764 -0.9472
  333MOL0     H45942   0.934  10.916   6.953 -2.1641 -0.4127 -1.2015
  333MOL0     H45943   1.056  10.794   6.934  0.9687 -1.2188  2.3178
  333MOL0     H45944   0.770  10.730   6.854  0.9210 -0.5004 -0.4321
  333MOL0     H45945   0.920  10.645   6.814 -1.1929 -1.2215 -0.3260
  333MOL0     H45946   0.900  10.933   6.733  2.5715  0.5477 -2.5292
  333MOL0     H45947   0.998  10.816   6.658 -1.9476 -2.7088 -2.0661
  333MOL0     H45948   0.795  10.682   6.566 -1.1970 -0.0237 -0.5385
  333MOL0     H45949   0.823  10.839   6.494 -2.5953 -1.4930 -0.6885
  333MOL0     H45950   0.455  10.873   6.662 -0.1258  0.2158  0.7508
  333MOL0     H45951   0.847  10.626   7.283 -0.2507 -1.2205  0.8398
  333MOL0     H45952   0.803  10.307   7.328  1.4663 -1.1197 -0.0285
  333MOL0     H45953   0.942  10.326   7.440  2.3489  1.7756 -0.9266
  333MOL0     H45954   0.822  10.464   7.411 -0.6099  0.3314 -1.9158
  334MOL0     O45955   0.291  10.955   1.210  0.0502 -0.3768 -0.4306
  334MOL0     C45956   0.250  10.895   1.120 -0.1234  0.5086  0.0634
  334MOL0     O45957   0.312  10.891   0.998  0.2755 -0.0648 -0.7426
  334MOL0     C45958   0.381  11.007   0.969 -0.5324  0.4407  0.3381
  334MOL0     C45959   0.333  11.140   0.994  0.6728  0.3460 -0.4137
  334MOL0     C45960   0.418  11.248   0.952  0.3924  0.2006 -0.5437
  334MOL0     C45961   0.535  11.233   0.888 -0.5248 -0.3929  1.0175
  334MOL0     O45962   0.603  11.337   0.839 -0.9732  0.3983 -0.3610
  334MOL0     C45963   0.555  11.464   0.873 -0.2244  0.3661  0.4267
  334MOL0     C45964   0.651  11.567   0.815  0.5701 -0.0790 -0.5429
  334MOL0     C45965   0.794  11.531   0.859  0.2284 -0.6165  0.7485
  334MOL0     C45966   0.893  11.636   0.827  0.4157 -0.0335  0.5974
  334MOL0     C45967   1.031  11.609   0.895 -0.4380 -0.7355  0.4717
  334MOL0     C45968   1.120  11.515   0.817  0.2923  0.1056  0.3758
  334MOL0     C45969   1.256  11.489   0.890  0.6194 -0.2182  0.6276
  334MOL0     C45970   1.343  11.602   0.948  1.0416  0.5485 -0.0133
  334MOL0     N45971   1.469  11.545   0.997  0.3978 -0.9083  0.0729
  334MOL0     C45972   1.478  11.426   1.074 -0.1744 -0.7018  0.4619
  334MOL0     C45973   1.603  11.400   1.069  0.1340 -0.8785 -0.2707
  334MOL0     C45974   1.654  11.274   1.142  0.3972  0.0136  0.2063
  334MOL0     C45975   1.623  11.142   1.059  0.5483 -0.0396 -0.0206
  334MOL0     C45976   1.714  11.127   0.942  0.3926  0.0664  0.3882
  334MOL0     C45977   1.674  11.000   0.863 -0.1583  0.3813  0.1911
  334MOL0     O45978   1.739  10.988   0.744  0.0013 -0.3772  0.0355
  334MOL0     C45979   1.843  10.895   0.737  0.1728 -0.1585  0.4051
  334MOL0     C45980   1.906  10.837   0.846  0.3317 -0.2975  0.0212
  334MOL0     C45981   1.995  10.734   0.830 -0.1877  0.2738 -0.4434
  334MOL0     C45982   2.051  10.681   0.963 -0.3643  0.2465 -0.5867
  334MOL0     C45983   2.046  10.699   0.701  0.3552  0.0277  0.3598
  334MOL0     C45984   2.149  10.596   0.669  0.5707  0.7620 -0.9268
  334MOL0     O45985   2.185  10.575   0.539 -0.2984  0.1985  0.3901
  334MOL0     C45986   2.235  10.454   0.488 -0.3584 -0.1449 -0.0218
  334MOL0     C45987   2.247  10.332   0.552  0.6842  0.5791  0.8995
  334MOL0     C45988   2.261  10.220   0.479 -0.7927  0.2890  0.0410
  334MOL0     C45989   2.287  10.219   0.340 -0.2010 -0.3795 -0.0807
  334MOL0     O45990   2.320  10.113   0.262  0.1366  0.0379 -0.3672
  334MOL0     C45991   2.297   9.976   0.308 -0.1519  0.2200 -1.2479
  334MOL0     C45992   2.276   9.892   0.181 -0.0295 -0.3624 -1.2378
  334MOL0     C45993   2.172   9.949   0.087 -0.2249 -0.5840 -0.2258
  334MOL0     C45994   2.121   9.848  -0.014 -0.3063 -0.9055 -0.2077
  334MOL0     C45995   2.026   9.925  -0.119 -0.5172 -0.6648 -0.0886
  334MOL0     C45996   1.960   9.839  -0.233  0.4247  0.2356 -0.7183
  334MOL0     C45997   1.851   9.920  -0.310 -0.5775  0.6447 -0.2774
  334MOL0     C45998   1.818   9.862  -0.451 -0.4396  0.1823  0.1442
  334MOL0    Cl45999   1.748   9.697  -0.433  0.0363 -0.3216  0.0568
  334MOL0     C46000   2.273  10.343   0.276 -1.1742 -0.1999 -0.1655
  334MOL0     C46001   2.255  10.458   0.353 -0.3387  0.0906  1.2724
  334MOL0     O46002   2.207  10.540   0.764  0.0542  0.1248 -0.1854
  334MOL0     C46003   2.000  10.779   0.588  0.7459 -0.1264 -0.3080
  334MOL0     C46004   1.896  10.868   0.610 -0.5163 -0.1356  0.7849
  334MOL0     N46005   1.661  11.472   0.966 -0.2818 -0.1501 -0.1117
  334MOL0     N46006   1.583  11.561   0.924 -0.1790  0.4963 -0.5691
  334MOL0     C46007   0.589  11.103   0.867  0.1002 -0.8301  0.1432
  334MOL0     C46008   0.510  10.994   0.904 -0.4403 -0.3672 -0.7470
  334MOL0     C46009   0.136  10.801   1.160  0.1969 -0.0246 -0.1037
  334MOL0     C46010   0.089  10.720   1.053 -0.3183  0.6780  0.5807
  334MOL0     C46011  -0.013  10.628   1.078 -0.2912  0.5193  0.2081
  334MOL0     C46012  -0.078  10.611   1.200  0.1815 -0.8586  0.6736
  334MOL0     O46013  -0.166  10.513   1.212 -0.0544 -0.8631 -0.4578
  334MOL0     C46014  -0.183  10.468   1.341 -0.0802  0.5553 -0.2612
  334MOL0     C46015  -0.263  10.344   1.343 -0.1318 -0.6561  0.3298
  334MOL0     C46016  -0.398  10.348   1.275 -0.2609 -0.7651  0.1307
  334MOL0     C46017  -0.465  10.212   1.285  0.0291 -0.4516  0.8526
  334MOL0     C46018  -0.482  10.178   1.426  0.9488  0.9385  0.2478
  334MOL0     C46019  -0.509  10.175   1.543  0.4105 -0.8567 -0.0825
  334MOL0     C46020  -0.039  10.705   1.307  0.0282  0.2599  0.1802
  334MOL0     C46021   0.067  10.796   1.288  0.1105 -0.2451  0.0431
  334MOL0     C46022   0.100  10.888   1.410  0.3678 -0.4537 -0.3438
  334MOL0     H46023   0.238  11.165   1.039  0.1255  0.2651 -1.4776
  334MOL0     H46024   0.369  11.343   0.967 -1.8184 -0.3569 -3.4603
  334MOL0     H46025   0.554  11.491   0.979 -0.3665  2.0670  0.0360
  334MOL0     H46026   0.453  11.489   0.840 -1.0505 -3.3172 -0.2432
  334MOL0     H46027   0.652  11.570   0.706 -0.3489 -0.6045 -0.5803
  334MOL0     H46028   0.613  11.657   0.864 -1.4525 -1.7855  1.2580
  334MOL0     H46029   0.783  11.523   0.967  1.9851  2.4343  1.2560
  334MOL0     H46030   0.830  11.430   0.833 -1.2315 -0.5272 -2.0102
  334MOL0     H46031   0.897  11.635   0.717 -0.3524  2.4096  0.4922
  334MOL0     H46032   0.853  11.737   0.843  3.3067  1.5617 -1.3703
  334MOL0     H46033   1.002  11.569   0.993  1.0934  2.6148  2.4667
  334MOL0     H46034   1.072  11.709   0.911 -1.9113  0.0762 -0.6853
  334MOL0     H46035   1.074  11.421   0.786 -1.4946  1.6379 -1.9488
  334MOL0     H46036   1.145  11.568   0.725 -5.2759  1.7417 -0.5274
  334MOL0     H46037   1.315  11.436   0.814  1.7913  1.2397  0.4899
  334MOL0     H46038   1.245  11.419   0.974  3.0155 -0.1252  1.0892
  334MOL0     H46039   1.358  11.677   0.870  1.2008 -0.5853 -1.1141
  334MOL0     H46040   1.293  11.657   1.028  1.1748  2.1261 -0.9761
  334MOL0     H46041   1.397  11.389   1.135 -1.9027  0.6091 -0.9233
  334MOL0     H46042   1.601  11.271   1.237  1.1399 -0.2314  0.6133
  334MOL0     H46043   1.763  11.288   1.145  0.3583  1.4617 -1.9559
  334MOL0     H46044   1.633  11.049   1.116  1.0052  0.1734  0.2520
  334MOL0     H46045   1.521  11.144   1.019  0.8933 -0.4848 -0.9531
  334MOL0     H46046   1.706  11.218   0.881 -2.5876 -2.1683 -2.9211
  334MOL0     H46047   1.820  11.121   0.970  0.4803  4.2918  1.6692
  334MOL0     H46048   1.679  10.906   0.919  0.4025 -0.1079 -0.6566
  334MOL0     H46049   1.565  11.008   0.852 -0.5577 -1.0161  2.5392
  334MOL0     H46050   1.880  10.860   0.949  2.6713  2.0034  0.1988
  334MOL0     H46051   2.108  10.588   0.969  1.8673  1.5410 -0.8225
  334MOL0     H46052   1.963  10.670   1.028  2.0996 -1.0545  2.8051
  334MOL0     H46053   2.110  10.758   1.013 -2.2096  0.0500  2.1155
  334MOL0     H46054   2.235  10.319   0.659  3.2296 -2.5868  0.9449
  334MOL0     H46055   2.270  10.135   0.547 -0.8351 -1.2654 -1.8047
  334MOL0     H46056   2.378   9.934   0.369 -2.5273  1.1825  3.0503
  334MOL0     H46057   2.205   9.971   0.367 -0.2041  0.7669 -1.2734
  334MOL0     H46058   2.372   9.882   0.130  0.6433 -1.3056  0.1886
  334MOL0     H46059   2.245   9.792   0.211 -1.3439  0.4857  0.3920
  334MOL0     H46060   2.233  10.018   0.027  0.1660  0.3762  1.2229
  334MOL0     H46061   2.094  10.015   0.126  1.7465  0.9436  1.3820
  334MOL0     H46062   2.070   9.771   0.044  0.5138 -1.2339  0.1066
  334MOL0     H46063   2.203   9.803  -0.072 -0.7489 -3.0788  0.7393
  334MOL0     H46064   1.942   9.964  -0.062  0.4617 -0.2771  1.1443
  334MOL0     H46065   2.076  10.014  -0.156  2.2893 -1.1795  2.1049
  334MOL0     H46066   1.913   9.752  -0.187 -2.8663 -0.3930 -4.6643
  334MOL0     H46067   2.038   9.802  -0.300  1.7208 -2.2207  1.9880
  334MOL0     H46068   1.891  10.020  -0.328  0.9588 -0.4564 -3.8126
  334MOL0     H46069   1.759   9.924  -0.250 -0.8115  0.9595 -0.6505
  334MOL0     H46070   1.905   9.854  -0.517 -0.8654  0.7088 -0.5050
  334MOL0     H46071   1.737   9.918  -0.499 -2.8655 -3.1016 -0.0038
  334MOL0     H46072   2.281  10.353   0.168  1.5505  0.9878  0.0658
  334MOL0     H46073   2.245  10.551   0.298  0.2731 -1.1916 -1.1664
  334MOL0     H46074   2.042  10.784   0.488 -1.6266  2.1746 -1.3111
  334MOL0     H46075   1.837  10.912   0.530 -1.3114  2.8954  2.8490
  334MOL0     H46076   0.688  11.094   0.825  0.0139 -1.7549  0.0998
  334MOL0     H46077   0.566  10.901   0.908  0.7950  0.3079 -1.6550
  334MOL0     H46078   0.120  10.721   0.950  1.9021 -2.0685  1.1027
  334MOL0     H46079  -0.051  10.560   1.002 -0.7976 -2.1548  2.6563
  334MOL0     H46080  -0.087  10.455   1.392 -1.3311  1.3514  2.4638
  334MOL0     H46081  -0.243  10.540   1.396 -0.3929 -1.7574  2.6545
  334MOL0     H46082  -0.273  10.307   1.446 -1.5548 -1.4750 -0.0763
  334MOL0     H46083  -0.203  10.263   1.300  1.1573 -0.3689  1.5053
  334MOL0     H46084  -0.465  10.428   1.306  2.0514  1.5288 -0.3863
  334MOL0     H46085  -0.378  10.361   1.168 -1.5966 -0.4343 -0.0877
  334MOL0     H46086  -0.398  10.138   1.238 -1.3546 -1.7760  0.8834
  334MOL0     H46087  -0.565  10.221   1.241  1.0784 -2.7974 -2.4137
  334MOL0     H46088  -0.533  10.186   1.647  0.2454  3.2876 -0.4047
  334MOL0     H46089  -0.089  10.698   1.403  1.6836  0.5588  1.0922
  334MOL0     H46090   0.088  10.992   1.379  1.9187 -0.4834 -1.1370
  334MOL0     H46091   0.028  10.866   1.490 -0.8629 -0.0735 -1.3217
  334MOL0     H46092   0.202  10.866   1.444  0.5552  1.6458  0.5978
  335MOL0     O46093   8.311   2.401   0.476 -0.0538  0.2291  0.0301
  335MOL0     C46094   8.356   2.508   0.433 -0.8409  0.2527  0.1696
  335MOL0     O46095   8.301   2.573   0.336  0.0936 -0.0790 -0.5547
  335MOL0     C46096   8.192   2.524   0.265 -0.0977 -0.0823  0.2064
  335MOL0     C46097   8.070   2.598   0.249 -0.3353 -0.3001  0.5827
  335MOL0     C46098   7.964   2.550   0.178 -0.3061 -0.1609  0.2212
  335MOL0     C46099   7.956   2.426   0.131  0.3448  0.2429  0.4709
  335MOL0     O46100   7.847   2.365   0.062 -0.3458 -0.6183  0.9323
  335MOL0     C46101   7.716   2.436   0.053  0.1656  0.0244  0.0874
  335MOL0     C46102   7.699   2.499  -0.090 -0.7728  0.1044 -0.4402
  335MOL0     C46103   7.678   2.394  -0.196 -0.8592 -0.2049  0.8135
  335MOL0     C46104   7.523   2.360  -0.208 -1.2844  0.4169  0.2567
  335MOL0     C46105   7.497   2.276  -0.330 -0.1246  0.1509  1.0623
  335MOL0     C46106   7.350   2.244  -0.336  0.5496  0.2888 -0.2048
  335MOL0     C46107   7.314   2.147  -0.452 -0.3125 -0.4367  0.1499
  335MOL0     C46108   7.210   2.202  -0.548 -0.5262  0.5732 -0.6616
  335MOL0     N46109   7.126   2.099  -0.622  0.0209  0.4359 -0.0568
  335MOL0     C46110   6.992   2.084  -0.617 -0.4426  0.6083 -0.8503
  335MOL0     C46111   6.961   1.969  -0.685 -1.6150 -0.1480 -0.3318
  335MOL0     C46112   6.822   1.917  -0.695  0.1335 -0.1424 -0.2340
  335MOL0     C46113   6.767   1.919  -0.839  0.1283 -0.2348  0.1732
  335MOL0     C46114   6.623   1.869  -0.835  0.3562 -0.0952 -0.1224
  335MOL0     C46115   6.517   1.960  -0.775 -0.7442  0.5061  0.5427
  335MOL0     O46116   6.533   2.105  -0.799 -0.7988 -0.3452 -0.4370
  335MOL0     C46117   6.602   2.178  -0.703 -0.3239 -0.4082  0.9401
  335MOL0     C46118   6.570   2.180  -0.571  0.2978  0.6824 -0.1745
  335MOL0     C46119   6.634   2.268  -0.480  1.0257 -0.5887 -0.0120
  335MOL0     C46120   6.582   2.244  -0.341  0.4569 -0.5985  0.1031
  335MOL0     C46121   6.728   2.363  -0.518  0.3153 -0.2133  0.1375
  335MOL0     C46122   6.788   2.456  -0.418  0.6409 -0.3891 -0.6635
  335MOL0     O46123   6.720   2.485  -0.301 -0.8506 -0.4312  0.3949
  335MOL0     C46124   6.767   2.563  -0.196 -0.6422 -0.6291  0.7239
  335MOL0     C46125   6.726   2.541  -0.057  0.2897 -0.0422  1.0293
  335MOL0     C46126   6.769   2.615   0.049  0.3939 -0.5479  0.2763
  335MOL0     C46127   6.844   2.729   0.021  0.9177  0.2066 -0.4025
  335MOL0     O46128   6.885   2.802   0.134  0.6575 -0.3408 -0.2910
  335MOL0     C46129   7.002   2.877   0.117  0.2208 -0.2526 -0.5440
  335MOL0     C46130   6.984   3.024   0.088  0.1980  0.8112  0.0259
  335MOL0     C46131   7.116   3.096   0.062  0.3816 -0.4362  0.0631
  335MOL0     C46132   7.221   3.025  -0.036  0.1709  0.2191 -0.4059
  335MOL0     C46133   7.338   3.113  -0.077  0.5978  0.4302 -0.1828
  335MOL0     C46134   7.424   3.142   0.047 -0.5053  0.5418 -0.0676
  335MOL0     C46135   7.572   3.201   0.013  0.7703  0.4407 -0.9177
  335MOL0     C46136   7.635   3.236   0.142 -0.4079  0.2250  0.9213
  335MOL0    Cl46137   7.555   3.351   0.253  0.3523  0.0164  0.6141
  335MOL0     C46138   6.870   2.764  -0.109  0.2132 -0.0909  0.2686
  335MOL0     C46139   6.839   2.684  -0.221  0.0444 -0.5352 -0.6684
  335MOL0     O46140   6.904   2.489  -0.443  0.9285 -1.2205 -0.0872
  335MOL0     C46141   6.764   2.359  -0.658  0.4296  0.8844 -1.0150
  335MOL0     C46142   6.700   2.269  -0.749 -0.4158 -0.5396  0.5856
  335MOL0     N46143   7.085   1.910  -0.720 -0.0474  0.7911 -0.0957
  335MOL0     N46144   7.183   1.991  -0.675 -0.5430 -0.6146  0.7667
  335MOL0     C46145   8.069   2.343   0.157  0.8262 -0.6049  0.5070
  335MOL0     C46146   8.181   2.394   0.221  0.9488 -0.2778 -0.0286
  335MOL0     C46147   8.482   2.550   0.487 -0.2214  0.5260  0.0823
  335MOL0     C46148   8.544   2.652   0.409 -0.4307  0.1368  0.1810
  335MOL0     C46149   8.670   2.698   0.435 -0.4281  0.1262  0.4678
  335MOL0     C46150   8.745   2.638   0.539 -1.0255 -0.1762  0.8202
  335MOL0     O46151   8.877   2.681   0.540  0.1465 -0.4685  0.2373
  335MOL0     C46152   8.961   2.652   0.653 -0.2776 -0.5281 -0.1574
  335MOL0     C46153   9.017   2.505   0.628 -0.0767  0.4693  0.3691
  335MOL0     C46154   9.156   2.503   0.552  0.3724 -0.0312  0.2366
  335MOL0     C46155   9.206   2.358   0.532  0.3917 -0.1905  0.7712
  335MOL0     C46156   9.338   2.347   0.473 -0.1572  0.3387 -0.2151
  335MOL0     C46157   9.439   2.341   0.414 -0.4612  0.0186  0.0248
  335MOL0     C46158   8.685   2.544   0.621  0.3149 -0.6976  0.0161
  335MOL0     C46159   8.550   2.507   0.599  0.1086 -0.0258 -0.4787
  335MOL0     C46160   8.486   2.411   0.694  0.7461  0.7214  0.0186
  335MOL0     H46161   8.064   2.699   0.290  4.3428  0.3201  0.3425
  335MOL0     H46162   7.876   2.611   0.167 -1.8900 -2.4530 -0.4689
  335MOL0     H46163   7.713   2.511   0.133 -1.3849 -0.4300  0.4914
  335MOL0     H46164   7.636   2.363   0.068  1.2432 -1.2564 -0.2070
  335MOL0     H46165   7.614   2.567  -0.094 -0.3447  0.6659 -4.7031
  335MOL0     H46166   7.782   2.567  -0.113  0.2086 -1.6157 -2.3180
  335MOL0     H46167   7.714   2.447  -0.284 -0.9369 -2.1766 -0.4647
  335MOL0     H46168   7.742   2.305  -0.187 -1.9887 -1.2287 -0.7591
  335MOL0     H46169   7.479   2.322  -0.116 -0.4903  2.6093  1.6027
  335MOL0     H46170   7.466   2.451  -0.223 -3.7800 -0.5868  2.8269
  335MOL0     H46171   7.556   2.183  -0.328  1.1344  0.9210  1.9851
  335MOL0     H46172   7.524   2.331  -0.420 -0.2803 -2.9364 -1.0270
  335MOL0     H46173   7.317   2.197  -0.243 -1.2472  0.4361 -0.7193
  335MOL0     H46174   7.281   2.329  -0.337 -3.2602 -2.5002 -2.6833
  335MOL0     H46175   7.285   2.052  -0.408  0.9281 -1.5716 -1.3604
  335MOL0     H46176   7.404   2.124  -0.510 -0.3322  1.1680 -0.5739
  335MOL0     H46177   7.135   2.266  -0.500  0.1949  2.1246 -1.5448
  335MOL0     H46178   7.262   2.257  -0.627 -1.9586  1.8832 -0.7577
  335MOL0     H46179   6.928   2.144  -0.554 -0.8971 -2.6776  2.1227
  335MOL0     H46180   6.759   1.974  -0.627  3.1158  2.5388  0.4775
  335MOL0     H46181   6.827   1.814  -0.657 -0.1724 -0.0673  0.0110
  335MOL0     H46182   6.769   2.024  -0.871 -0.2890 -0.8952 -2.1681
  335MOL0     H46183   6.828   1.857  -0.905  0.0794 -1.6869  1.4277
  335MOL0     H46184   6.593   1.860  -0.939 -1.5616 -0.4735  0.4298
  335MOL0     H46185   6.622   1.778  -0.774  1.1184  0.8827  1.4395
  335MOL0     H46186   6.418   1.930  -0.811 -0.0411 -0.3203 -0.7564
  335MOL0     H46187   6.526   1.951  -0.666  0.1899  2.5723  0.6960
  335MOL0     H46188   6.486   2.118  -0.540 -0.5433  2.6476  1.8088
  335MOL0     H46189   6.523   2.330  -0.310  0.3686 -0.8730  0.7100
  335MOL0     H46190   6.671   2.226  -0.279  1.4952 -0.0972 -1.1945
  335MOL0     H46191   6.514   2.159  -0.331 -0.0151 -0.1786  0.5014
  335MOL0     H46192   6.669   2.449  -0.048  1.7683 -1.2773 -1.4236
  335MOL0     H46193   6.739   2.578   0.146  2.5071  1.9077  1.9993
  335MOL0     H46194   7.040   2.870   0.219 -0.6357  1.0061 -0.1208
  335MOL0     H46195   7.067   2.829   0.043  0.3345  1.1090 -1.3570
  335MOL0     H46196   6.924   3.051   0.000 -0.9373  2.1979  1.1581
  335MOL0     H46197   6.931   3.080   0.166  1.4329  2.8058 -0.4984
  335MOL0     H46198   7.157   3.099   0.163 -2.0842  2.1089  1.1444
  335MOL0     H46199   7.096   3.200   0.035  1.0991 -0.8691 -2.4238
  335MOL0     H46200   7.167   2.985  -0.123  0.9181  0.4324 -0.9835
  335MOL0     H46201   7.267   2.938   0.011  1.0652  1.1885  0.5541
  335MOL0     H46202   7.397   3.057  -0.149 -1.4050 -2.1050  0.0264
  335MOL0     H46203   7.309   3.205  -0.130 -0.4066  0.4248  0.3192
  335MOL0     H46204   7.430   3.051   0.109 -0.6581 -0.6614 -1.7586
  335MOL0     H46205   7.367   3.215   0.104 -2.0001  1.0205 -2.0750
  335MOL0     H46206   7.561   3.287  -0.053 -0.5252  1.3069  0.3646
  335MOL0     H46207   7.632   3.116  -0.022  0.8244 -1.2130  2.6963
  335MOL0     H46208   7.725   3.293   0.119 -0.2279 -0.1952  0.5720
  335MOL0     H46209   7.660   3.145   0.196 -0.2120 -0.0338  0.4044
  335MOL0     H46210   6.927   2.855  -0.129  1.4420 -0.5780  1.4237
  335MOL0     H46211   6.866   2.719  -0.320 -4.3569  1.7413 -1.2703
  335MOL0     H46212   6.829   2.438  -0.695 -2.6937  3.7693 -0.7344
  335MOL0     H46213   6.742   2.269  -0.849 -0.0091 -0.5479  0.7560
  335MOL0     H46214   8.056   2.239   0.127 -1.2315 -0.3071  0.2696
  335MOL0     H46215   8.264   2.331   0.250  0.9514 -0.5551 -0.6286
  335MOL0     H46216   8.493   2.701   0.326 -0.7775  1.0392  0.9033
  335MOL0     H46217   8.725   2.759   0.364  0.5270 -0.9781  0.2301
  335MOL0     H46218   9.030   2.735   0.670 -2.7067  1.5824 -0.0855
  335MOL0     H46219   8.897   2.650   0.742 -1.5615 -0.2277 -1.0590
  335MOL0     H46220   8.940   2.443   0.580  2.1526  0.2320 -3.2966
  335MOL0     H46221   9.035   2.460   0.726 -0.8636 -1.4681 -0.3221
  335MOL0     H46222   9.144   2.548   0.452 -1.1529 -1.3468 -0.2091
  335MOL0     H46223   9.232   2.565   0.602 -0.4439 -0.4021  2.0202
  335MOL0     H46224   9.128   2.307   0.476  0.4204 -1.2008  1.6248
  335MOL0     H46225   9.216   2.313   0.632  0.4554 -2.3673 -0.1674
  335MOL0     H46226   9.521   2.351   0.346 -1.8375 -4.3143 -2.7010
  335MOL0     H46227   8.730   2.508   0.713 -0.0688 -1.0207  0.0774
  335MOL0     H46228   8.383   2.438   0.715  0.6869  0.6431 -0.1679
  335MOL0     H46229   8.478   2.314   0.644  0.5136  1.4723 -1.4544
  335MOL0     H46230   8.529   2.399   0.794 -0.0377  0.1623  0.3008
  336MOL0     O46231   6.228   9.796   8.167 -0.3443 -0.6355  0.7067
  336MOL0     C46232   6.289   9.724   8.083  0.0105 -0.6801 -0.2195
  336MOL0     O46233   6.261   9.727   7.948 -0.1602  0.1572  0.6289
  336MOL0     C46234   6.204   9.841   7.907  0.3101  0.5480  0.2113
  336MOL0     C46235   6.276   9.959   7.909  0.0280 -1.6089  0.3515
  336MOL0     C46236   6.217  10.080   7.853 -0.6568  0.0158  0.2195
  336MOL0     C46237   6.082  10.077   7.814 -0.3391  0.8693  0.7497
  336MOL0     O46238   6.019  10.187   7.766  0.3271 -0.3833  0.5820
  336MOL0     C46239   5.921  10.256   7.847 -0.4431 -0.1350 -0.0568
  336MOL0     C46240   5.970  10.401   7.856  0.2225  0.4499 -0.1832
  336MOL0     C46241   6.083  10.422   7.959  0.6214 -0.9044  0.1912
  336MOL0     C46242   6.101  10.575   7.986 -0.3591  0.3225  0.3026
  336MOL0     C46243   6.176  10.594   8.112 -0.0964 -0.3056  0.1393
  336MOL0     C46244   6.185  10.736   8.151  0.7374  0.3762 -0.3341
  336MOL0     C46245   6.258  10.833   8.062 -0.2917  0.0285  0.6763
  336MOL0     C46246   6.307  10.968   8.122  0.0621  0.5114  0.2841
  336MOL0     N46247   6.195  11.042   8.165  0.5024 -0.6326 -0.2470
  336MOL0     C46248   6.130  11.138   8.097  0.3475 -0.5962  0.3705
  336MOL0     C46249   6.037  11.181   8.184  0.4858 -1.2710 -0.5171
  336MOL0     C46250   5.931  11.282   8.172 -0.2344 -0.0769 -0.5691
  336MOL0     C46251   5.819  11.222   8.075 -0.5509  0.0332  1.0981
  336MOL0     C46252   5.692  11.309   8.066  0.0504  0.7056 -0.6545
  336MOL0     C46253   5.700  11.417   7.950 -0.3385 -0.0909 -0.1028
  336MOL0     O46254   5.582  11.498   7.964 -0.3449 -0.9376 -0.4950
  336MOL0     C46255   5.589  11.628   7.908  0.1702  1.4153 -0.8090
  336MOL0     C46256   5.494  11.721   7.964 -0.0990  0.5839 -0.6617
  336MOL0     C46257   5.488  11.855   7.917  0.5166 -0.5445  0.4669
  336MOL0     C46258   5.358  11.931   7.932 -0.0582 -0.6994  0.6748
  336MOL0     C46259   5.582  11.893   7.822 -0.3076  0.2098  0.0073
  336MOL0     C46260   5.596  12.028   7.766 -0.0010  0.0462 -0.1281
  336MOL0     O46261   5.674  12.035   7.650  0.0771 -0.6657  0.1009
  336MOL0     C46262   5.700  12.157   7.592 -0.3050 -0.4470 -0.6971
  336MOL0     C46263   5.592  12.237   7.547 -0.2867 -0.2724 -0.0243
  336MOL0     C46264   5.612  12.362   7.486  0.3712 -0.0068 -0.4674
  336MOL0     C46265   5.736  12.407   7.464 -0.1648 -0.4404  0.3386
  336MOL0     O46266   5.769  12.523   7.389  0.2207  0.0207  0.0629
  336MOL0     C46267   5.653  12.608   7.364  0.5369  0.5592  0.7583
  336MOL0     C46268   5.709  12.727   7.289 -1.0591 -0.3064  0.2565
  336MOL0     C46269   5.814  12.688   7.170  0.7329 -0.3179 -0.2182
  336MOL0     C46270   5.801  12.766   7.040  0.7101 -0.4611  0.6783
  336MOL0     C46271   5.930  12.787   6.963  0.2348  1.2944 -0.1036
  336MOL0     C46272   5.926  12.920   6.887 -0.0219  0.3545  0.8041
  336MOL0     C46273   6.061  12.938   6.813 -0.2357  0.6286 -0.0817
  336MOL0     C46274   6.071  13.080   6.766 -0.7857 -0.1744  0.6592
  336MOL0    Cl46275   6.227  13.103   6.669  0.0525 -0.0312 -0.0226
  336MOL0     C46276   5.847  12.326   7.500 -0.2144 -0.5859  0.8236
  336MOL0     C46277   5.832  12.201   7.567  0.1926  0.0131  0.4178
  336MOL0     O46278   5.555  12.120   7.828  0.2857  0.1474  0.3783
  336MOL0     C46279   5.678  11.802   7.780  0.4645 -0.0451 -0.7299
  336MOL0     C46280   5.684  11.667   7.816 -0.3447 -0.2237  0.4156
  336MOL0     N46281   6.033  11.100   8.297  0.1260 -0.1587 -0.3211
  336MOL0     N46282   6.141  11.021   8.288 -0.0891  0.1111 -0.7563
  336MOL0     C46283   6.017   9.957   7.825 -0.3505 -0.5098  0.9715
  336MOL0     C46284   6.074   9.841   7.865  0.5229  1.1501  0.2588
  336MOL0     C46285   6.387   9.633   8.141  0.1570  0.7581  0.0890
  336MOL0     C46286   6.360   9.575   8.262 -0.8627  0.0549  0.0602
  336MOL0     C46287   6.438   9.477   8.323  0.5141 -0.1133  0.0630
  336MOL0     C46288   6.557   9.432   8.255  0.1077 -0.1295 -0.5429
  336MOL0     O46289   6.628   9.322   8.294  0.0777  0.0516 -0.3898
  336MOL0     C46290   6.602   9.266   8.422  0.1911 -0.7933 -0.2445
  336MOL0     C46291   6.679   9.132   8.452 -0.8901 -0.1295  0.3133
  336MOL0     C46292   6.659   9.085   8.601 -1.4793 -0.0790  1.0857
  336MOL0     C46293   6.530   9.008   8.620 -0.3936 -1.5356 -0.7893
  336MOL0     C46294   6.425   9.113   8.618 -0.2630 -0.2518 -1.1493
  336MOL0     C46295   6.338   9.199   8.618  0.1654 -0.0660  0.1448
  336MOL0     C46296   6.602   9.502   8.139  0.1068 -0.1445  0.4791
  336MOL0     C46297   6.517   9.603   8.089 -0.1307  1.1375  0.4326
  336MOL0     C46298   6.571   9.674   7.973 -0.5539  0.1017  0.3199
  336MOL0     H46299   6.382   9.957   7.933  0.8914  0.6698 -2.6777
  336MOL0     H46300   6.277  10.170   7.848 -1.1840  0.3075 -1.9635
  336MOL0     H46301   5.915  10.217   7.949 -1.7358  0.8168  0.2467
  336MOL0     H46302   5.821  10.242   7.805 -1.0023  0.6000  1.0198
  336MOL0     H46303   5.999  10.434   7.756 -2.1871  1.4521 -0.6329
  336MOL0     H46304   5.885  10.460   7.890  0.2255 -0.1300  0.8498
  336MOL0     H46305   6.060  10.369   8.051  1.0563 -1.0380  0.2231
  336MOL0     H46306   6.177  10.380   7.924  0.2101 -1.3879 -0.3672
  336MOL0     H46307   6.155  10.625   7.906 -0.2487 -1.4394 -0.7776
  336MOL0     H46308   6.004  10.624   7.995 -1.4775 -1.6753 -0.3501
  336MOL0     H46309   6.281  10.565   8.098 -0.5369 -0.9219 -2.6169
  336MOL0     H46310   6.118  10.543   8.188 -2.3354 -2.8729 -3.0114
  336MOL0     H46311   6.090  10.784   8.175  1.0167  1.0142 -0.5022
  336MOL0     H46312   6.237  10.722   8.246  0.1203 -0.2098 -0.0691
  336MOL0     H46313   6.180  10.858   7.989  0.1269 -0.0020  0.2080
  336MOL0     H46314   6.341  10.789   8.006  1.2100  0.9761  2.0564
  336MOL0     H46315   6.374  10.946   8.206  0.3262  1.6860  0.4065
  336MOL0     H46316   6.368  11.026   8.052  0.7521  2.3777  2.3265
  336MOL0     H46317   6.137  11.180   7.997  0.9711 -1.9368 -0.1675
  336MOL0     H46318   5.966  11.378   8.133  0.4864 -0.2330 -0.3240
  336MOL0     H46319   5.898  11.308   8.273 -0.9302  2.4537 -1.3809
  336MOL0     H46320   5.855  11.216   7.971 -2.1574  0.6237  0.4742
  336MOL0     H46321   5.798  11.118   8.104  1.7050 -1.1677 -1.1168
  336MOL0     H46322   5.596  11.257   8.062 -0.2716  1.2508 -0.0628
  336MOL0     H46323   5.678  11.363   8.160  1.4200 -0.2927  0.1506
  336MOL0     H46324   5.795  11.470   7.940 -0.9149  0.8749 -0.6009
  336MOL0     H46325   5.681  11.354   7.863 -2.3043 -2.1299  1.6514
  336MOL0     H46326   5.435  11.680   8.045  0.3053 -1.6181 -1.4360
  336MOL0     H46327   5.288  11.878   7.998 -0.7837 -0.6851 -0.0624
  336MOL0     H46328   5.315  11.955   7.834  4.9758  2.6258 -1.0777
  336MOL0     H46329   5.390  12.025   7.978  1.4674 -1.3062  0.8822
  336MOL0     H46330   5.493  12.200   7.573 -0.0247  0.8960  3.0559
  336MOL0     H46331   5.523  12.420   7.465  0.9831  1.8756  1.7090
  336MOL0     H46332   5.586  12.560   7.292  1.8418  2.8151 -2.1787
  336MOL0     H46333   5.597  12.651   7.447 -2.1919 -1.3698  0.0515
  336MOL0     H46334   5.618  12.780   7.259 -0.2562 -0.2602 -2.3424
  336MOL0     H46335   5.759  12.803   7.350  3.0366 -0.2424 -2.7411
  336MOL0     H46336   5.814  12.582   7.143  1.0392 -0.4074  0.1259
  336MOL0     H46337   5.914  12.698   7.213  0.7892 -1.9794  0.0877
  336MOL0     H46338   5.771  12.866   7.074  1.0817 -0.9485  2.5253
  336MOL0     H46339   5.723  12.730   6.972  2.1424  0.5108 -1.5822
  336MOL0     H46340   6.020  12.780   7.025 -0.9498  0.1940  1.5602
  336MOL0     H46341   5.939  12.702   6.895  1.6909  2.0415 -0.9044
  336MOL0     H46342   5.911  13.010   6.947 -1.7092  0.6537  0.0176
  336MOL0     H46343   5.844  12.916   6.814  0.7149 -3.3772 -0.0123
  336MOL0     H46344   6.067  12.866   6.731  2.6559 -0.5850  1.0739
  336MOL0     H46345   6.141  12.919   6.885  0.5857  0.8253 -0.9185
  336MOL0     H46346   6.064  13.146   6.853 -0.5712 -0.7471  1.1186
  336MOL0     H46347   5.990  13.110   6.699 -0.4470  2.3191  1.2856
  336MOL0     H46348   5.951  12.358   7.491  0.4134 -2.1216  1.9642
  336MOL0     H46349   5.910  12.127   7.580  0.6054  0.3702  0.0293
  336MOL0     H46350   5.749  11.834   7.703  1.6899  5.1240  2.0936
  336MOL0     H46351   5.754  11.595   7.774 -2.6158 -2.2280 -0.1327
  336MOL0     H46352   5.912   9.954   7.795 -0.4325  0.5435  1.1143
  336MOL0     H46353   6.015   9.750   7.861  1.3355  0.6354 -1.0132
  336MOL0     H46354   6.266   9.599   8.312  0.5723  1.9148  2.0462
  336MOL0     H46355   6.411   9.438   8.421 -3.7155 -3.2738 -2.0379
  336MOL0     H46356   6.618   9.339   8.502 -2.3626 -1.0192  0.5720
  336MOL0     H46357   6.497   9.235   8.424  0.3635 -1.5261  2.8803
  336MOL0     H46358   6.777   9.172   8.428 -0.7602 -1.5075 -1.6397
  336MOL0     H46359   6.661   9.047   8.385 -2.1280 -1.6619  2.4695
  336MOL0     H46360   6.741   9.019   8.632  0.5475  1.6596 -0.2185
  336MOL0     H46361   6.677   9.178   8.655  0.1917 -0.2601  0.9027
  336MOL0     H46362   6.526   8.945   8.709 -2.5181  0.2128  0.4627
  336MOL0     H46363   6.508   8.938   8.538 -3.1693 -0.1815 -1.3289
  336MOL0     H46364   6.262   9.270   8.640  3.3496  3.3701  1.0909
  336MOL0     H46365   6.700   9.472   8.102  1.1339  0.8992  2.2218
  336MOL0     H46366   6.549   9.619   7.880  2.4078  1.1687 -1.1570
  336MOL0     H46367   6.533   9.776   7.964 -0.9748 -0.1107 -0.3779
  336MOL0     H46368   6.679   9.691   7.979 -0.1946  1.1224 -4.4945
  337MOL0     O46369   8.129   6.725   3.482 -0.3930 -0.3618 -0.2709
  337MOL0     C46370   8.129   6.836   3.540 -0.4592  0.1504  0.3725
  337MOL0     O46371   8.241   6.912   3.560 -0.2304  0.1896 -0.5868
  337MOL0     C46372   8.362   6.871   3.508  0.2542  0.8461 -0.5507
  337MOL0     C46373   8.453   6.837   3.614 -0.6030  0.5042  0.5433
  337MOL0     C46374   8.584   6.789   3.582  0.0206  0.3393  0.6396
  337MOL0     C46375   8.637   6.799   3.450  0.6835 -0.0801 -0.0169
  337MOL0     O46376   8.768   6.767   3.415 -0.3740 -0.3727 -0.3436
  337MOL0     C46377   8.828   6.829   3.303 -0.1477  0.1477 -0.1854
  337MOL0     C46378   8.983   6.820   3.312 -0.5339  0.5488 -0.1422
  337MOL0     C46379   9.047   6.863   3.179  0.9087 -0.0141 -0.7049
  337MOL0     C46380   9.192   6.907   3.191  0.0567 -0.5476  0.4319
  337MOL0     C46381   9.252   6.964   3.058  0.0419 -0.2726 -1.0329
  337MOL0     C46382   9.371   7.046   3.087 -0.7771 -0.0026  0.2451
  337MOL0     C46383   9.497   6.957   3.100 -0.5589 -0.1990 -1.1613
  337MOL0     C46384   9.617   7.051   3.105  0.2884  0.5520  0.5606
  337MOL0     N46385   9.756   6.983   3.097 -1.2529  0.7884 -0.4013
  337MOL0     C46386   9.864   7.040   3.027  0.1179  0.2558  0.3030
  337MOL0     C46387   9.978   6.986   3.070 -0.1191 -0.3101  0.6588
  337MOL0     C46388  10.121   7.024   3.046 -0.3564  0.6459 -0.1904
  337MOL0     C46389  10.162   6.970   2.910 -0.0292 -0.0491  0.2729
  337MOL0     C46390  10.276   7.062   2.869  0.6449 -0.2307 -0.0475
  337MOL0     C46391  10.331   7.010   2.739 -0.7622  0.2074  0.0392
  337MOL0     O46392  10.410   6.888   2.737 -0.3259 -0.1344 -0.5892
  337MOL0     C46393  10.450   6.850   2.613  0.4901  0.1107 -0.0536
  337MOL0     C46394  10.501   6.728   2.599 -0.8094 -0.0603 -0.1630
  337MOL0     C46395  10.546   6.671   2.471 -0.1793  0.1223 -0.4721
  337MOL0     C46396  10.641   6.550   2.477 -0.4243  0.2595 -0.1818
  337MOL0     C46397  10.523   6.751   2.354  0.2075 -0.9081 -0.3991
  337MOL0     C46398  10.564   6.707   2.219 -0.2451  0.0922  0.1313
  337MOL0     O46399  10.616   6.577   2.200  0.1550 -0.8077  1.0189
  337MOL0     C46400  10.647   6.513   2.081  0.5010  0.1366 -0.5042
  337MOL0     C46401  10.563   6.514   1.969 -0.3301  0.1877 -0.3824
  337MOL0     C46402  10.597   6.437   1.860  0.2918 -0.9449  1.1859
  337MOL0     C46403  10.718   6.368   1.852  0.3018 -0.1053  0.7076
  337MOL0     O46404  10.755   6.300   1.735 -0.1369  0.2017 -0.8895
  337MOL0     C46405  10.663   6.279   1.635 -0.4239 -0.7426  1.8370
  337MOL0     C46406  10.724   6.208   1.514 -0.5299 -0.2298  0.3377
  337MOL0     C46407  10.806   6.080   1.557  0.0003  0.9862  0.2384
  337MOL0     C46408  10.840   5.989   1.434  0.0234 -0.6129  0.4874
  337MOL0     C46409  10.881   5.841   1.462 -0.3957 -0.1908  0.6031
  337MOL0     C46410  11.010   5.843   1.546  0.1346 -0.1217 -0.5161
  337MOL0     C46411  10.977   5.817   1.690 -0.4273  0.7232 -1.1275
  337MOL0     C46412  11.096   5.771   1.788  0.4082  0.1331 -0.6533
  337MOL0    Cl46413  11.228   5.889   1.810  0.0723  0.1389 -0.3435
  337MOL0     C46414  10.799   6.361   1.961  0.6255 -1.0265 -0.3814
  337MOL0     C46415  10.768   6.439   2.074  0.2467  0.5393 -0.1242
  337MOL0     O46416  10.547   6.784   2.127 -0.1429  0.7349  0.9089
  337MOL0     C46417  10.476   6.883   2.368 -0.2689  0.2429 -1.1008
  337MOL0     C46418  10.433   6.925   2.499  0.5265 -0.1402 -0.4195
  337MOL0     N46419   9.935   6.882   3.149  0.8074  0.5905 -0.5234
  337MOL0     N46420   9.806   6.878   3.172 -0.5831 -0.4785  0.5901
  337MOL0     C46421   8.541   6.829   3.348  0.8005  1.2293 -0.4785
  337MOL0     C46422   8.406   6.872   3.381  0.0626 -0.5810  0.4256
  337MOL0     C46423   8.000   6.903   3.569 -0.2352 -0.8945 -0.4400
  337MOL0     C46424   8.004   7.037   3.618 -0.5549  0.5288 -0.4849
  337MOL0     C46425   7.892   7.113   3.635 -0.7980 -0.1391  0.4498
  337MOL0     C46426   7.762   7.065   3.614 -0.3525 -0.5485 -0.8116
  337MOL0     O46427   7.662   7.146   3.652 -0.5499 -0.0738 -0.3548
  337MOL0     C46428   7.537   7.082   3.654  0.3507  0.4313  0.0504
  337MOL0     C46429   7.427   7.174   3.703  0.0960  0.8621  0.3534
  337MOL0     C46430   7.394   7.302   3.622 -0.4745 -0.2390 -0.4347
  337MOL0     C46431   7.283   7.390   3.686  0.7305 -0.7182  0.4429
  337MOL0     C46432   7.156   7.306   3.700 -0.4506 -0.2335  0.1434
  337MOL0     C46433   7.050   7.247   3.716  0.4613  0.2068  0.7253
  337MOL0     C46434   7.752   6.937   3.562 -0.0810  0.4007  0.1988
  337MOL0     C46435   7.871   6.856   3.541 -0.7964 -0.1715  0.7981
  337MOL0     C46436   7.838   6.719   3.467 -0.2803 -0.5289 -0.2018
  337MOL0     H46437   8.416   6.835   3.716 -2.7030 -1.8064 -0.1614
  337MOL0     H46438   8.652   6.765   3.664  2.2473  0.1792 -1.1374
  337MOL0     H46439   8.789   6.931   3.304 -2.4378 -0.5516  3.5424
  337MOL0     H46440   8.799   6.779   3.211 -2.4451 -0.5778  0.8520
  337MOL0     H46441   9.022   6.880   3.394  3.3958 -0.0952 -1.3265
  337MOL0     H46442   8.988   6.711   3.325  1.1483  0.5574 -0.4963
  337MOL0     H46443   9.046   6.773   3.118  2.2836 -2.6483  2.8196
  337MOL0     H46444   8.978   6.940   3.143 -0.8628 -2.0824 -2.0424
  337MOL0     H46445   9.200   6.990   3.261 -1.0843  1.7279 -1.9554
  337MOL0     H46446   9.249   6.819   3.220 -0.7639 -1.6016 -1.0013
  337MOL0     H46447   9.168   7.019   3.016  0.8446  2.6295  0.8920
  337MOL0     H46448   9.282   6.878   2.998  1.7752 -0.9337  0.6720
  337MOL0     H46449   9.386   7.114   3.003 -2.7971  0.3188  0.0775
  337MOL0     H46450   9.350   7.116   3.169 -0.4640  0.7091 -0.2782
  337MOL0     H46451   9.502   6.886   3.017 -0.2323 -1.2457 -0.2668
  337MOL0     H46452   9.495   6.899   3.193  2.0498  1.7986  0.2767
  337MOL0     H46453   9.607   7.130   3.029 -1.4560  0.5801  0.7958
  337MOL0     H46454   9.612   7.100   3.202  1.8331 -0.5248  1.2343
  337MOL0     H46455   9.849   7.138   2.983 -2.7965 -1.1409 -2.1898
  337MOL0     H46456  10.185   6.972   3.118 -2.0527 -0.1692  0.7881
  337MOL0     H46457  10.142   7.131   3.059 -2.6548  0.9531  1.5982
  337MOL0     H46458  10.193   6.866   2.927 -3.1595 -1.3459 -1.1984
  337MOL0     H46459  10.082   6.965   2.836  0.7062  2.1533 -0.7405
  337MOL0     H46460  10.233   7.161   2.854  1.2365 -0.1762 -1.5562
  337MOL0     H46461  10.351   7.058   2.948  0.6206 -0.7874 -0.0455
  337MOL0     H46462  10.246   7.007   2.670 -2.3897  2.0593  1.8305
  337MOL0     H46463  10.385   7.097   2.703 -1.9694  0.7450 -0.5371
  337MOL0     H46464  10.510   6.658   2.682  1.4793  0.3150 -0.0304
  337MOL0     H46465  10.688   6.546   2.575 -2.4911  3.6727  1.1350
  337MOL0     H46466  10.720   6.559   2.401 -1.5731  3.6801 -1.1849
  337MOL0     H46467  10.582   6.463   2.448 -0.6497 -0.0174  1.0771
  337MOL0     H46468  10.474   6.576   1.963  1.6784  3.0804 -4.1524
  337MOL0     H46469  10.544   6.444   1.766  1.2361  0.0720  0.7032
  337MOL0     H46470  10.568   6.233   1.662 -1.1118 -1.8693 -1.8966
  337MOL0     H46471  10.641   6.381   1.601 -2.7499 -1.5303  0.8144
  337MOL0     H46472  10.645   6.181   1.443 -1.3639  0.4422  0.9846
  337MOL0     H46473  10.791   6.281   1.468  0.0613 -1.2700 -0.5123
  337MOL0     H46474  10.746   6.016   1.622 -0.9624  2.4672  0.8442
  337MOL0     H46475  10.894   6.104   1.618  0.8007  2.0096 -1.2658
  337MOL0     H46476  10.904   6.052   1.372  0.6880  0.3312  2.0788
  337MOL0     H46477  10.746   5.975   1.380  0.9231  2.2337 -2.0668
  337MOL0     H46478  10.804   5.772   1.500 -2.4190  0.2620 -2.3113
  337MOL0     H46479  10.899   5.809   1.359 -1.1974 -2.8184  1.2097
  337MOL0     H46480  11.072   5.931   1.529 -0.5828  0.4731 -0.1013
  337MOL0     H46481  11.067   5.754   1.517  0.1816  0.7352 -3.3730
  337MOL0     H46482  10.902   5.738   1.689  1.3114 -1.0454  0.4200
  337MOL0     H46483  10.926   5.904   1.733  2.8071  2.0162  0.5071
  337MOL0     H46484  11.132   5.675   1.750 -3.0140 -1.3149 -0.6694
  337MOL0     H46485  11.042   5.767   1.883  0.8112  2.4991 -0.2625
  337MOL0     H46486  10.889   6.300   1.963  1.0834 -0.3384  0.8418
  337MOL0     H46487  10.843   6.423   2.151 -1.0149 -1.2496  0.8057
  337MOL0     H46488  10.455   6.944   2.280 -1.5162 -0.7326 -1.5045
  337MOL0     H46489  10.380   7.019   2.500 -0.5162 -0.7124 -0.0245
  337MOL0     H46490   8.555   6.814   3.242 -0.2973 -1.1691 -0.3360
  337MOL0     H46491   8.328   6.886   3.308 -0.6760  0.9321  1.4488
  337MOL0     H46492   8.098   7.088   3.639  0.9896 -3.0372  2.2142
  337MOL0     H46493   7.895   7.215   3.671  1.1340 -0.0055 -0.0173
  337MOL0     H46494   7.507   7.042   3.557  0.6681 -1.9427  0.8701
  337MOL0     H46495   7.537   7.008   3.735  0.2905  2.2870  1.8213
  337MOL0     H46496   7.453   7.196   3.807  0.7666  1.2009  0.1220
  337MOL0     H46497   7.333   7.119   3.697  1.3561 -1.5039  1.0767
  337MOL0     H46498   7.485   7.362   3.615 -0.7101 -0.0518 -2.6287
  337MOL0     H46499   7.365   7.279   3.519 -1.0599 -0.5156 -0.2137
  337MOL0     H46500   7.274   7.469   3.610 -1.2766 -0.0739  1.2880
  337MOL0     H46501   7.302   7.437   3.783  1.6752  1.6013 -0.7943
  337MOL0     H46502   6.953   7.214   3.749  0.9261  0.3734  2.3244
  337MOL0     H46503   7.658   6.895   3.525  1.5852 -2.8337 -0.8046
  337MOL0     H46504   7.734   6.711   3.433 -0.4054 -1.8675  0.3964
  337MOL0     H46505   7.898   6.688   3.381  0.5898 -1.9643  0.8715
  337MOL0     H46506   7.846   6.633   3.535  0.2888 -0.7476 -0.5423
  338MOL0     O46507   7.280   8.409   5.739 -0.1948 -0.0730 -0.3420
  338MOL0     C46508   7.304   8.455   5.630  0.1993  0.5080  0.8347
  338MOL0     O46509   7.212   8.503   5.540 -0.0450 -0.3457 -0.3618
  338MOL0     C46510   7.088   8.465   5.568  0.3714 -0.4938 -0.1533
  338MOL0     C46511   6.992   8.551   5.628  0.5165 -0.6885  0.4773
  338MOL0     C46512   6.856   8.511   5.635 -0.1085 -0.3909 -0.3882
  338MOL0     C46513   6.813   8.377   5.604  0.2749  0.0346 -0.5086
  338MOL0     O46514   6.688   8.317   5.631 -0.0678  0.5521  0.0734
  338MOL0     C46515   6.590   8.425   5.676 -0.6152  0.0358  0.2886
  338MOL0     C46516   6.453   8.359   5.686 -0.0551 -1.1169  0.0188
  338MOL0     C46517   6.427   8.264   5.563  0.2692  0.5409  0.0049
  338MOL0     C46518   6.283   8.218   5.584  0.4525  0.4173 -0.2640
  338MOL0     C46519   6.240   8.122   5.479  0.1787 -0.1953  0.4095
  338MOL0     C46520   6.204   8.188   5.342 -0.0209  0.6053 -0.5128
  338MOL0     C46521   6.092   8.286   5.348  0.1446 -0.8906 -0.3458
  338MOL0     C46522   6.097   8.361   5.212  0.2220 -0.2597 -0.3651
  338MOL0     N46523   5.949   8.393   5.186  1.0590 -0.3986  0.9156
  338MOL0     C46524   5.871   8.505   5.185 -0.0392  0.6352 -0.2243
  338MOL0     C46525   5.753   8.462   5.143  0.8521  0.0928 -0.0971
  338MOL0     C46526   5.628   8.527   5.115 -0.0766 -1.2737  0.1205
  338MOL0     C46527   5.639   8.644   5.014  0.0633  0.4092 -0.4758
  338MOL0     C46528   5.521   8.740   5.027 -0.7033 -1.0225 -0.1381
  338MOL0     C46529   5.550   8.858   4.936  0.1021 -0.3610  0.4108
  338MOL0     O46530   5.576   8.818   4.802  0.2851 -0.1593 -0.6861
  338MOL0     C46531   5.646   8.907   4.722 -0.3506  0.0203  0.1396
  338MOL0     C46532   5.623   9.042   4.707 -1.3242  0.6274  0.0747
  338MOL0     C46533   5.698   9.117   4.611 -0.5698 -0.8499  0.7205
  338MOL0     C46534   5.672   9.269   4.609 -0.5981 -0.0514 -0.0354
  338MOL0     C46535   5.804   9.057   4.539 -1.0744  0.2009  0.8076
  338MOL0     C46536   5.905   9.142   4.455  0.5302  0.6399 -0.3944
  338MOL0     O46537   5.949   9.253   4.512 -0.0750  0.7045 -0.4459
  338MOL0     C46538   6.048   9.328   4.454 -0.4642 -0.5717  0.4140
  338MOL0     C46539   6.062   9.459   4.495  0.5529  0.1420 -0.2992
  338MOL0     C46540   6.174   9.542   4.475  0.2036  0.5614 -1.0800
  338MOL0     C46541   6.284   9.490   4.401  0.1145  0.5815 -0.3128
  338MOL0     O46542   6.385   9.576   4.389 -0.8330 -0.3830 -0.0155
  338MOL0     C46543   6.448   9.586   4.262 -0.1342  0.3691 -0.6450
  338MOL0     C46544   6.553   9.697   4.278  0.2076  0.3401  0.2073
  338MOL0     C46545   6.649   9.704   4.158  0.2373  0.8750  0.2353
  338MOL0     C46546   6.777   9.759   4.197  0.5060  0.1381  0.6182
  338MOL0     C46547   6.886   9.735   4.093 -0.2771 -0.2087  0.4887
  338MOL0     C46548   7.025   9.780   4.131  0.0538 -0.2927 -0.1551
  338MOL0     C46549   7.049   9.922   4.169  0.4414  0.4259  0.9319
  338MOL0     C46550   7.191   9.940   4.201  0.3747  1.0362 -0.6980
  338MOL0    Cl46551   7.225  10.113   4.246 -0.2293  0.0142 -0.1778
  338MOL0     C46552   6.277   9.356   4.348  0.6309  0.3305  0.8012
  338MOL0     C46553   6.156   9.279   4.379  0.5079 -0.5829 -0.2595
  338MOL0     O46554   5.927   9.096   4.340  0.6308 -0.2315  0.3226
  338MOL0     C46555   5.832   8.915   4.553  0.8442 -0.1542 -0.5896
  338MOL0     C46556   5.750   8.844   4.641 -0.2811 -0.3852  0.6186
  338MOL0     N46557   5.756   8.323   5.112 -0.5866 -0.0405 -0.6518
  338MOL0     N46558   5.875   8.286   5.131 -0.0945 -0.6441  0.1100
  338MOL0     C46559   6.909   8.292   5.545 -0.3133 -0.0975 -0.3722
  338MOL0     C46560   7.042   8.339   5.525 -0.1967 -0.0420  0.3472
  338MOL0     C46561   7.437   8.454   5.577  0.0124 -0.5445 -0.4165
  338MOL0     C46562   7.457   8.475   5.442 -0.7181  0.0731 -0.0434
  338MOL0     C46563   7.581   8.485   5.395  0.3455 -0.0744  0.5433
  338MOL0     C46564   7.698   8.493   5.472 -0.0787 -0.5095 -1.0678
  338MOL0     O46565   7.816   8.480   5.400  0.0750  0.2529  0.0711
  338MOL0     C46566   7.941   8.471   5.470 -0.4166  0.2919 -0.0499
  338MOL0     C46567   8.052   8.500   5.369 -0.2416  0.0730 -0.5211
  338MOL0     C46568   8.057   8.400   5.261  0.2916 -0.3145 -0.6084
  338MOL0     C46569   8.177   8.430   5.172  0.6318 -0.6950  0.0650
  338MOL0     C46570   8.197   8.314   5.088  0.3871 -0.3818  0.0347
  338MOL0     C46571   8.232   8.209   5.041 -0.0899 -0.4263 -0.0180
  338MOL0     C46572   7.673   8.469   5.610 -0.0652 -0.1989 -0.0822
  338MOL0     C46573   7.549   8.444   5.668  0.0967  0.0747  0.4490
  338MOL0     C46574   7.545   8.446   5.824 -0.1509 -0.5634 -0.4488
  338MOL0     H46575   7.021   8.647   5.669 -0.1996 -0.7876  1.2604
  338MOL0     H46576   6.802   8.588   5.689 -0.0333 -0.0556 -0.7783
  338MOL0     H46577   6.584   8.498   5.595 -0.5328  0.4604  0.6672
  338MOL0     H46578   6.621   8.482   5.764  0.9685  0.3164 -0.4325
  338MOL0     H46579   6.454   8.307   5.782  0.9620  0.5307  0.9427
  338MOL0     H46580   6.381   8.442   5.685  3.5818  2.3592  0.7180
  338MOL0     H46581   6.437   8.310   5.464  0.4876  2.7291  0.9806
  338MOL0     H46582   6.483   8.170   5.568  0.2470  0.5925  1.5764
  338MOL0     H46583   6.275   8.167   5.680  1.3523 -0.6468 -0.7375
  338MOL0     H46584   6.219   8.307   5.579 -1.5097 -0.7313  2.1960
  338MOL0     H46585   6.144   8.074   5.501  1.1117 -2.2874  0.1428
  338MOL0     H46586   6.310   8.041   5.460  0.2565  0.3741 -2.1726
  338MOL0     H46587   6.289   8.241   5.299 -0.0831  0.6579 -0.5714
  338MOL0     H46588   6.169   8.115   5.269 -3.3972  0.5854  0.9517
  338MOL0     H46589   6.106   8.366   5.421  1.3209  0.5368 -2.0411
  338MOL0     H46590   5.995   8.241   5.370  0.6819 -1.2992  1.3877
  338MOL0     H46591   6.163   8.448   5.209  0.0034 -0.1002 -2.3817
  338MOL0     H46592   6.136   8.301   5.129  4.0410  2.2003 -0.5708
  338MOL0     H46593   5.898   8.605   5.217  0.7186  0.1072  0.8379
  338MOL0     H46594   5.600   8.568   5.213  2.1544  1.4406 -0.2386
  338MOL0     H46595   5.548   8.463   5.077  0.1656  0.0728 -2.9788
  338MOL0     H46596   5.728   8.708   5.020 -0.3961  1.0109  0.0358
  338MOL0     H46597   5.641   8.593   4.917 -0.7968 -2.2681  0.8413
  338MOL0     H46598   5.431   8.693   4.986 -0.6358 -1.4440  0.1834
  338MOL0     H46599   5.499   8.776   5.128 -0.1899 -0.3476 -0.2632
  338MOL0     H46600   5.470   8.932   4.936  0.1327 -0.2762 -1.1328
  338MOL0     H46601   5.641   8.905   4.973  0.8780 -1.7098  0.2770
  338MOL0     H46602   5.553   9.092   4.774 -0.9324  0.1203  0.8702
  338MOL0     H46603   5.705   9.315   4.702  0.2250 -2.1468  0.7642
  338MOL0     H46604   5.564   9.285   4.602 -0.8019 -1.6376 -1.3780
  338MOL0     H46605   5.720   9.319   4.524  1.3343 -0.8930  0.5042
  338MOL0     H46606   5.988   9.482   4.571 -0.4734 -2.0587 -0.5563
  338MOL0     H46607   6.184   9.638   4.525  0.6374  0.1597 -0.3746
  338MOL0     H46608   6.494   9.490   4.237 -0.2678 -0.0392  0.6351
  338MOL0     H46609   6.378   9.613   4.183 -3.4537 -1.5439  1.4109
  338MOL0     H46610   6.493   9.787   4.290 -0.4223  0.1358 -1.2195
  338MOL0     H46611   6.615   9.679   4.367 -2.1948  2.0318  2.3608
  338MOL0     H46612   6.602   9.754   4.073 -0.6534 -0.2875  0.0291
  338MOL0     H46613   6.652   9.603   4.116  0.3995  1.3603 -0.9631
  338MOL0     H46614   6.805   9.710   4.291  0.3051 -0.3651  0.4164
  338MOL0     H46615   6.746   9.862   4.214 -1.0602 -0.3428  0.8235
  338MOL0     H46616   6.876   9.629   4.070 -0.9795  0.2653 -1.5456
  338MOL0     H46617   6.867   9.782   3.996  0.6009  1.6497  1.1603
  338MOL0     H46618   7.096   9.756   4.052  2.1755  1.1756  1.2188
  338MOL0     H46619   7.050   9.717   4.217  0.8754 -2.0015 -1.5759
  338MOL0     H46620   6.990   9.952   4.256  1.5031  1.2936  1.3653
  338MOL0     H46621   7.013   9.977   4.082 -0.0873 -1.9134 -0.4211
  338MOL0     H46622   7.249   9.921   4.110  0.2754  1.3126 -0.8187
  338MOL0     H46623   7.226   9.866   4.274  2.6088  0.1966 -2.4772
  338MOL0     H46624   6.365   9.319   4.296  1.6480  2.0843  1.2173
  338MOL0     H46625   6.151   9.174   4.351 -2.0114 -0.4354 -0.5634
  338MOL0     H46626   5.912   8.859   4.506 -0.3567 -1.8595 -0.7422
  338MOL0     H46627   5.758   8.735   4.642 -1.4172 -0.5093 -0.6083
  338MOL0     H46628   6.878   8.193   5.515  0.7755 -0.1727 -1.2939
  338MOL0     H46629   7.107   8.268   5.474 -0.6362 -0.6598  0.6357
  338MOL0     H46630   7.387   8.468   5.360  0.6372 -1.6200 -1.1318
  338MOL0     H46631   7.598   8.505   5.289 -4.1368  4.3010  0.2381
  338MOL0     H46632   7.948   8.540   5.554 -0.0772  1.4196 -0.9793
  338MOL0     H46633   7.944   8.373   5.518  2.5476  1.0334  1.5106
  338MOL0     H46634   8.144   8.493   5.428 -1.2263  0.7641  1.1702
  338MOL0     H46635   8.042   8.600   5.327 -3.9980 -0.4308 -1.1938
  338MOL0     H46636   8.089   8.304   5.303  1.7110  0.6731  0.6799
  338MOL0     H46637   7.959   8.395   5.213 -1.8836  1.6962  3.1881
  338MOL0     H46638   8.266   8.434   5.235  0.5232 -3.1937  0.4577
  338MOL0     H46639   8.170   8.526   5.120 -0.4173  0.1380  1.6415
  338MOL0     H46640   8.251   8.110   5.005 -0.0448  0.4965 -2.7412
  338MOL0     H46641   7.763   8.460   5.671 -1.0380 -2.2123  1.1558
  338MOL0     H46642   7.640   8.406   5.862  0.3511 -0.5964 -1.6725
  338MOL0     H46643   7.539   8.551   5.853  1.0220  0.0539 -2.2525
  338MOL0     H46644   7.458   8.399   5.870  0.1640 -0.2336  0.4922
  339MOL0     O46645   7.469   0.690   0.109  0.0863 -0.2271 -0.2558
  339MOL0     C46646   7.472   0.713  -0.016 -0.4488 -0.4864 -0.7847
  339MOL0     O46647   7.360   0.697  -0.092 -0.6146 -0.6775  0.0573
  339MOL0     C46648   7.228   0.689  -0.048  1.0603  0.8987  0.3002
  339MOL0     C46649   7.168   0.802   0.018  0.4211  0.1766 -0.4725
  339MOL0     C46650   7.035   0.806   0.067  0.4695  0.0207  0.1063
  339MOL0     C46651   6.961   0.690   0.052  0.4647 -0.0817 -0.9817
  339MOL0     O46652   6.831   0.678   0.097 -0.0938  1.1524 -0.0503
  339MOL0     C46653   6.732   0.630   0.008 -0.7775  0.5799 -0.1834
  339MOL0     C46654   6.591   0.678   0.038 -0.3736 -0.3371  0.2402
  339MOL0     C46655   6.578   0.825   0.087 -0.1975  0.5503 -0.8616
  339MOL0     C46656   6.572   0.923  -0.035  0.4457 -0.0635  0.1275
  339MOL0     C46657   6.428   0.930  -0.098 -0.3605 -0.3327 -0.1393
  339MOL0     C46658   6.344   1.038  -0.049  0.1033 -0.5820  1.1428
  339MOL0     C46659   6.376   1.180  -0.089  0.0162 -0.0987 -0.3907
  339MOL0     C46660   6.259   1.275  -0.063  0.4956  0.0156  0.0199
  339MOL0     N46661   6.137   1.216  -0.135 -0.1003  0.1683  0.4520
  339MOL0     C46662   6.023   1.180  -0.070  0.3375  0.5562  0.2504
  339MOL0     C46663   5.934   1.165  -0.178 -0.0220  0.4124  0.1421
  339MOL0     C46664   5.792   1.137  -0.169  0.1473  0.2630  0.0807
  339MOL0     C46665   5.737   1.070  -0.291  0.0853 -0.5559  0.1285
  339MOL0     C46666   5.797   0.933  -0.310 -0.8270  0.4760  0.7138
  339MOL0     C46667   5.781   0.885  -0.452 -0.2537 -0.4898  0.5218
  339MOL0     O46668   5.852   0.758  -0.473 -0.8982 -0.1126  0.2492
  339MOL0     C46669   5.993   0.758  -0.472 -0.0458  0.9138 -0.0479
  339MOL0     C46670   6.075   0.872  -0.468  0.1268 -0.5760 -0.5648
  339MOL0     C46671   6.214   0.858  -0.464 -0.1074  0.3836  0.5423
  339MOL0     C46672   6.295   0.978  -0.472  0.3675 -0.2786  0.2416
  339MOL0     C46673   6.271   0.726  -0.442  0.4061 -0.3474 -0.1983
  339MOL0     C46674   6.418   0.694  -0.445 -0.0499 -0.1598  0.3732
  339MOL0     O46675   6.454   0.586  -0.359 -0.6791  0.2549  0.0151
  339MOL0     C46676   6.584   0.544  -0.366 -0.3706  0.0684 -0.1789
  339MOL0     C46677   6.702   0.628  -0.360 -0.5749  0.3486 -0.4854
  339MOL0     C46678   6.830   0.579  -0.365 -0.0472  0.7455  0.3631
  339MOL0     C46679   6.853   0.441  -0.350  0.0752  0.9860 -0.8378
  339MOL0     O46680   6.984   0.401  -0.343  0.4192 -0.1790 -1.0539
  339MOL0     C46681   7.026   0.289  -0.414  0.4041  0.1518 -0.5877
  339MOL0     C46682   7.188   0.299  -0.438  0.1546 -0.7224 -0.2043
  339MOL0     C46683   7.224   0.428  -0.521  0.4395  0.3123  0.1391
  339MOL0     C46684   7.226   0.558  -0.438 -0.2457  0.0850 -0.4608
  339MOL0     C46685   7.273   0.674  -0.517  0.1415 -0.5081 -0.8043
  339MOL0     C46686   7.161   0.752  -0.584  0.3969 -0.8127  0.1962
  339MOL0     C46687   7.085   0.845  -0.494  0.6272  0.7962 -0.2142
  339MOL0     C46688   7.155   0.975  -0.476  0.3058 -0.0084  0.1254
  339MOL0    Cl46689   7.317   0.968  -0.408  0.0123  0.1236  0.1508
  339MOL0     C46690   6.744   0.359  -0.348 -0.0902 -0.0721  0.3408
  339MOL0     C46691   6.610   0.408  -0.358 -0.1172  0.4917 -0.1568
  339MOL0     O46692   6.486   0.742  -0.529  0.2409  0.1675  0.3778
  339MOL0     C46693   6.182   0.624  -0.438 -0.0305  0.9816 -0.3196
  339MOL0     C46694   6.047   0.634  -0.456  0.7569  0.8756  0.4662
  339MOL0     N46695   5.995   1.208  -0.293  0.0288 -1.0380  0.1650
  339MOL0     N46696   6.119   1.249  -0.266 -0.5094  0.3778 -0.4112
  339MOL0     C46697   7.018   0.576   0.001  0.5443 -0.1629  0.2370
  339MOL0     C46698   7.146   0.577  -0.047 -0.5576 -0.0545  0.4240
  339MOL0     C46699   7.608   0.741  -0.088  0.2119 -0.0902  0.6807
  339MOL0     C46700   7.593   0.777  -0.219 -0.1208 -0.1738  0.4641
  339MOL0     C46701   7.711   0.811  -0.295  0.9604  0.0386 -1.1379
  339MOL0     C46702   7.837   0.816  -0.237 -0.0873 -0.5710 -0.0861
  339MOL0     O46703   7.933   0.870  -0.324 -0.4931 -0.9837 -0.4096
  339MOL0     C46704   8.057   0.916  -0.264  0.4999  0.1284 -0.1501
  339MOL0     C46705   8.167   0.806  -0.250 -0.5453  0.0709 -1.2206
  339MOL0     C46706   8.300   0.855  -0.186 -0.9894 -0.0961  0.9046
  339MOL0     C46707   8.400   0.730  -0.184 -0.0533  0.7124  0.3728
  339MOL0     C46708   8.524   0.777  -0.115  0.6172  0.5331  0.9686
  339MOL0     C46709   8.628   0.796  -0.052 -0.5045 -0.4718 -0.5872
  339MOL0     C46710   7.853   0.771  -0.108 -0.1691 -0.2294 -0.9159
  339MOL0     C46711   7.733   0.754  -0.026  0.2709 -0.4421 -0.0935
  339MOL0     C46712   7.746   0.740   0.124 -0.1584 -0.4249  0.4604
  339MOL0     H46713   7.239   0.882   0.035  0.0393  0.3496  0.3508
  339MOL0     H46714   6.998   0.890   0.125  1.3151 -1.2396  2.6310
  339MOL0     H46715   6.733   0.521   0.014 -1.3908  0.6379  1.3246
  339MOL0     H46716   6.752   0.657  -0.096  0.3295 -1.1459 -0.4768
  339MOL0     H46717   6.521   0.662  -0.045 -2.2929  1.1346  1.4829
  339MOL0     H46718   6.545   0.611   0.112 -1.8267 -0.8669 -1.0890
  339MOL0     H46719   6.489   0.838   0.149  0.1089 -3.9301  0.8883
  339MOL0     H46720   6.664   0.838   0.153  1.5815 -5.3246 -1.4380
  339MOL0     H46721   6.610   1.022  -0.008  0.6812  0.2133 -1.1496
  339MOL0     H46722   6.639   0.886  -0.114 -0.7659  0.5336 -1.2202
  339MOL0     H46723   6.379   0.834  -0.079 -1.2224  0.1669  0.1943
  339MOL0     H46724   6.445   0.948  -0.204  1.1541  1.1765  0.3046
  339MOL0     H46725   6.253   1.010  -0.103  0.9538  0.6391 -1.0520
  339MOL0     H46726   6.334   1.029   0.060 -0.6925  0.9693  1.2300
  339MOL0     H46727   6.403   1.182  -0.195 -0.1702 -0.3922 -0.4435
  339MOL0     H46728   6.463   1.212  -0.031 -0.3889  2.8618 -1.2229
  339MOL0     H46729   6.229   1.285   0.041  2.8302  1.9347  0.6004
  339MOL0     H46730   6.283   1.374  -0.103  0.6635 -0.2067 -0.4461
  339MOL0     H46731   6.002   1.172   0.036  2.2200 -0.7105  0.5742
  339MOL0     H46732   5.745   1.235  -0.158  3.5248  2.3562 -2.2461
  339MOL0     H46733   5.777   1.068  -0.086 -0.1159 -1.8468 -1.6509
  339MOL0     H46734   5.629   1.058  -0.295 -0.1240  0.8788  0.6398
  339MOL0     H46735   5.763   1.132  -0.378  0.9994  0.0708  0.8294
  339MOL0     H46736   5.906   0.938  -0.296 -0.5125  1.0637 -1.5901
  339MOL0     H46737   5.769   0.855  -0.239  0.4432 -2.7996 -2.1076
  339MOL0     H46738   5.673   0.873  -0.462 -0.5444  1.3818  0.9850
  339MOL0     H46739   5.816   0.963  -0.521 -0.5121  0.7962  1.7895
  339MOL0     H46740   6.026   0.969  -0.469 -1.1863 -1.1742 -2.8888
  339MOL0     H46741   6.390   0.973  -0.417  0.9767  0.7863 -0.6895
  339MOL0     H46742   6.234   1.065  -0.443 -0.4709 -0.9102  0.3974
  339MOL0     H46743   6.311   0.988  -0.579 -1.9190 -3.2070 -0.4964
  339MOL0     H46744   6.686   0.734  -0.344  0.6132  1.0098 -3.1533
  339MOL0     H46745   6.916   0.642  -0.382 -0.5578  1.7960  1.5783
  339MOL0     H46746   7.006   0.203  -0.349 -0.1095 -0.1747 -1.1758
  339MOL0     H46747   6.979   0.263  -0.509  3.6964 -1.7349 -1.9156
  339MOL0     H46748   7.236   0.325  -0.343 -0.1297 -1.5422  0.1715
  339MOL0     H46749   7.233   0.205  -0.469 -1.5984 -1.6058 -0.1858
  339MOL0     H46750   7.154   0.433  -0.605  2.4243 -2.8582 -1.9200
  339MOL0     H46751   7.327   0.420  -0.555 -0.5227  1.4873 -3.4451
  339MOL0     H46752   7.300   0.534  -0.360 -1.3771 -1.5266  0.1766
  339MOL0     H46753   7.140   0.587  -0.377  0.3041 -1.9480  1.4119
  339MOL0     H46754   7.334   0.742  -0.455 -1.0411 -0.5594  0.4480
  339MOL0     H46755   7.348   0.637  -0.589  1.5013  1.3662 -0.4394
  339MOL0     H46756   7.096   0.677  -0.629  2.5195 -1.8100 -1.3794
  339MOL0     H46757   7.199   0.806  -0.671 -0.5616 -0.2687  0.0969
  339MOL0     H46758   7.075   0.796  -0.396  1.9833 -0.0385 -0.4597
  339MOL0     H46759   6.984   0.856  -0.533  0.7777  3.7364 -0.0215
  339MOL0     H46760   7.088   1.043  -0.422 -0.0212 -0.8047  0.7416
  339MOL0     H46761   7.170   1.021  -0.574  0.5057  1.5009  0.8330
  339MOL0     H46762   6.767   0.255  -0.326  3.8087  0.9987  2.2409
  339MOL0     H46763   6.531   0.334  -0.350  1.8481 -1.6095  0.8947
  339MOL0     H46764   6.219   0.525  -0.413 -2.9387  0.1487  1.1142
  339MOL0     H46765   5.976   0.554  -0.438  0.4989  0.6039 -1.4939
  339MOL0     H46766   6.968   0.480   0.001  2.0068 -0.9819  1.8594
  339MOL0     H46767   7.189   0.481  -0.075  1.6424  0.4001  1.9489
  339MOL0     H46768   7.500   0.788  -0.274  0.4127  0.9266 -0.2532
  339MOL0     H46769   7.702   0.830  -0.402  1.3638  0.3184 -1.1238
  339MOL0     H46770   8.105   1.005  -0.307 -0.2013  0.3489 -0.4872
  339MOL0     H46771   8.024   0.961  -0.170  2.4595  1.5261 -0.0716
  339MOL0     H46772   8.189   0.775  -0.353 -1.5804 -0.6569 -1.2364
  339MOL0     H46773   8.129   0.719  -0.197 -0.4075  0.9704  0.4184
  339MOL0     H46774   8.347   0.932  -0.247 -3.7058 -1.1451 -2.9285
  339MOL0     H46775   8.280   0.896  -0.086  1.6228  3.0579  0.2957
  339MOL0     H46776   8.429   0.698  -0.285  1.6401 -4.5707  2.1925
  339MOL0     H46777   8.367   0.640  -0.131  0.4392  0.0164 -0.4746
  339MOL0     H46778   8.714   0.810   0.010 -3.1343  0.6432  3.1752
  339MOL0     H46779   7.953   0.765  -0.066  1.0982  0.0934 -3.6638
  339MOL0     H46780   7.852   0.738   0.153  0.1983 -5.0415 -0.3275
  339MOL0     H46781   7.703   0.831   0.166  1.1648  0.1108  0.6999
  339MOL0     H46782   7.704   0.644   0.156 -1.6646  1.0293  3.2269
  340MOL0     O46783   6.500   6.834   6.115 -0.4897  0.3628 -0.0196
  340MOL0     C46784   6.502   6.953   6.091 -0.5345 -0.1699  0.4272
  340MOL0     O46785   6.411   7.044   6.122  0.5359 -0.1616  0.2981
  340MOL0     C46786   6.306   6.993   6.188  0.7025 -0.0236  0.6133
  340MOL0     C46787   6.211   6.911   6.126  0.4115  0.5587 -0.1899
  340MOL0     C46788   6.113   6.848   6.202 -0.2109 -0.4627  0.7046
  340MOL0     C46789   6.106   6.862   6.341 -1.1737  0.2150 -0.0289
  340MOL0     O46790   6.005   6.798   6.415  0.2724 -0.1460  0.2463
  340MOL0     C46791   5.964   6.669   6.378  0.5732  1.0293 -0.1996
  340MOL0     C46792   5.924   6.589   6.499  0.0310 -0.5867  0.0283
  340MOL0     C46793   5.859   6.448   6.468  0.5926  0.3574 -0.1471
  340MOL0     C46794   5.939   6.358   6.368  0.0625  0.5712  0.9688
  340MOL0     C46795   5.876   6.218   6.341 -0.4502 -0.2640  0.5531
  340MOL0     C46796   5.728   6.221   6.284  0.4294 -0.2005 -0.0101
  340MOL0     C46797   5.670   6.078   6.266 -0.4642 -0.2825 -0.0783
  340MOL0     C46798   5.662   5.976   6.386 -0.0533 -0.9328  0.6653
  340MOL0     N46799   5.574   6.031   6.503 -0.5194  0.3144  0.1740
  340MOL0     C46800   5.613   6.136   6.579  0.2198  0.2261  0.2056
  340MOL0     C46801   5.517   6.144   6.681 -0.6203  0.1068  0.2903
  340MOL0     C46802   5.539   6.238   6.802 -0.2966 -0.6116  0.7233
  340MOL0     C46803   5.451   6.187   6.927 -0.3557 -0.1858  1.1469
  340MOL0     C46804   5.483   6.232   7.068 -0.3833 -0.9466  0.0949
  340MOL0     C46805   5.609   6.188   7.128 -0.4210 -0.3045 -0.3591
  340MOL0     O46806   5.623   6.271   7.252  0.0972  0.1113 -1.0769
  340MOL0     C46807   5.742   6.264   7.321  0.1193 -0.3981 -0.3986
  340MOL0     C46808   5.841   6.173   7.297 -0.1180  0.4097  0.3899
  340MOL0     C46809   5.970   6.179   7.352  0.0766 -0.1790 -0.1434
  340MOL0     C46810   6.068   6.066   7.315  0.0269 -0.5656  0.3146
  340MOL0     C46811   6.002   6.293   7.433  0.7309  0.2772  0.6098
  340MOL0     C46812   6.132   6.308   7.495 -0.2019 -0.5544  0.3567
  340MOL0     O46813   6.217   6.203   7.519  0.2023  0.0133 -0.1655
  340MOL0     C46814   6.329   6.224   7.594  0.8504 -0.0908  0.0868
  340MOL0     C46815   6.420   6.329   7.577  0.8852  0.9977 -0.2218
  340MOL0     C46816   6.531   6.335   7.661  0.0145 -0.6353 -0.0497
  340MOL0     C46817   6.545   6.256   7.775  0.7570  0.4787  0.0891
  340MOL0     O46818   6.645   6.281   7.862 -0.6861 -0.3070 -0.3318
  340MOL0     C46819   6.685   6.172   7.946 -0.3145  0.0498 -0.3740
  340MOL0     C46820   6.816   6.213   8.018  0.3678 -0.5513  0.5077
  340MOL0     C46821   6.951   6.222   7.942 -0.7498 -0.6468 -0.0929
  340MOL0     C46822   7.070   6.287   8.021 -0.0193 -0.4168  0.0142
  340MOL0     C46823   7.205   6.249   7.955  0.6224  0.1823 -0.0162
  340MOL0     C46824   7.320   6.338   8.016  0.2350  0.5332  0.1100
  340MOL0     C46825   7.462   6.303   7.971 -0.1045 -0.8644  0.1997
  340MOL0     C46826   7.486   6.335   7.817 -0.9295 -0.0443  0.2173
  340MOL0    Cl46827   7.656   6.314   7.787 -0.3932  0.5975 -0.1132
  340MOL0     C46828   6.449   6.157   7.793  1.2187  0.1672 -0.3763
  340MOL0     C46829   6.340   6.140   7.706  0.1105  0.5347  0.4247
  340MOL0     O46830   6.159   6.423   7.522  0.0142 -0.3701 -0.2378
  340MOL0     C46831   5.901   6.381   7.458  0.5867  0.5747 -0.0772
  340MOL0     C46832   5.776   6.369   7.405  0.4998  0.4274 -0.0167
  340MOL0     N46833   5.419   6.046   6.651  0.4599  0.4460  0.5855
  340MOL0     N46834   5.454   5.977   6.542 -0.2040  0.8628 -0.7197
  340MOL0     C46835   6.195   6.946   6.406 -0.1147  0.0848  1.0141
  340MOL0     C46836   6.294   7.012   6.327  0.6479  0.4022  0.8520
  340MOL0     C46837   6.634   6.995   6.030  0.2659  0.4168 -0.0288
  340MOL0     C46838   6.678   7.123   6.046  0.2720 -0.3314 -0.1802
  340MOL0     C46839   6.801   7.166   6.000 -0.4870  0.3445  0.7187
  340MOL0     C46840   6.889   7.076   5.933 -0.9954  0.1636 -0.2201
  340MOL0     O46841   7.014   7.125   5.895 -0.1857  0.3972  1.1480
  340MOL0     C46842   7.040   7.132   5.749 -0.8068 -0.1169  0.7233
  340MOL0     C46843   7.170   7.213   5.739 -0.4224  0.7513 -0.0387
  340MOL0     C46844   7.210   7.237   5.594 -0.1273 -0.7830 -0.3746
  340MOL0     C46845   7.352   7.301   5.595  0.4250  0.1798 -0.1121
  340MOL0     C46846   7.406   7.360   5.470  1.2140  0.9593  0.3405
  340MOL0     C46847   7.440   7.408   5.357 -0.0396 -0.1488  0.0662
  340MOL0     C46848   6.842   6.945   5.911 -0.8108 -0.6173  0.0974
  340MOL0     C46849   6.713   6.900   5.959  0.0183 -0.2462  0.1720
  340MOL0     C46850   6.669   6.765   5.905 -0.1261 -0.1139 -0.3340
  340MOL0     H46851   6.209   6.877   6.023  0.6129  0.2212 -0.0830
  340MOL0     H46852   6.029   6.803   6.150  0.5562  1.0764 -2.0652
  340MOL0     H46853   6.041   6.622   6.315  0.5497  2.8757 -1.6874
  340MOL0     H46854   5.872   6.682   6.321 -2.0108 -2.4758  2.7399
  340MOL0     H46855   6.011   6.565   6.561  2.1955  2.2780 -1.6466
  340MOL0     H46856   5.856   6.646   6.564  0.7665 -0.5542  0.7777
  340MOL0     H46857   5.855   6.393   6.563  0.5135  0.9102  0.1692
  340MOL0     H46858   5.756   6.457   6.432 -0.9257 -3.4363  2.5772
  340MOL0     H46859   5.972   6.409   6.277  0.2136 -2.2030 -0.6365
  340MOL0     H46860   6.030   6.323   6.419  0.0950  1.1484  1.3164
  340MOL0     H46861   5.867   6.170   6.439  1.2880  0.1217  0.9356
  340MOL0     H46862   5.936   6.157   6.273 -1.4178 -0.7527  0.1232
  340MOL0     H46863   5.666   6.279   6.353  0.9240  2.2296 -1.4926
  340MOL0     H46864   5.718   6.274   6.189  0.9971 -3.4498 -2.0553
  340MOL0     H46865   5.746   6.030   6.203  2.1519 -0.9833  3.3604
  340MOL0     H46866   5.572   6.078   6.216  0.9450 -1.7645 -3.1040
  340MOL0     H46867   5.608   5.884   6.360 -1.5223 -0.2649  1.2722
  340MOL0     H46868   5.761   5.946   6.421  0.1572 -0.1632  0.7494
  340MOL0     H46869   5.709   6.186   6.578 -0.2057  1.0638 -0.1941
  340MOL0     H46870   5.507   6.340   6.779 -4.0114 -1.4326  1.6959
  340MOL0     H46871   5.644   6.231   6.831 -0.0158 -1.0157 -0.3406
  340MOL0     H46872   5.348   6.217   6.907  0.8253  1.7526 -3.0064
  340MOL0     H46873   5.453   6.077   6.927 -2.0874 -0.3151 -1.6561
  340MOL0     H46874   5.504   6.338   7.056  0.4071 -0.9211  1.5091
  340MOL0     H46875   5.394   6.224   7.131 -1.5325 -1.6725 -1.5392
  340MOL0     H46876   5.595   6.081   7.143 -2.6337  0.2536  2.4367
  340MOL0     H46877   5.694   6.208   7.062  1.3590 -0.1795  1.8363
  340MOL0     H46878   5.813   6.089   7.233 -1.2076 -0.4289  1.8983
  340MOL0     H46879   6.136   6.099   7.236 -0.2093 -1.8658 -0.4549
  340MOL0     H46880   6.008   5.991   7.263 -2.5912  0.1818  2.0812
  340MOL0     H46881   6.119   6.017   7.398 -0.1226 -0.7411  0.3013
  340MOL0     H46882   6.408   6.405   7.500  1.6747 -1.1570 -2.6259
  340MOL0     H46883   6.614   6.400   7.636 -0.2801 -0.6328 -1.0771
  340MOL0     H46884   6.602   6.154   8.016 -0.5026  0.8765 -0.3747
  340MOL0     H46885   6.692   6.076   7.893 -0.8282 -1.7625  2.5930
  340MOL0     H46886   6.800   6.316   8.052  0.1534 -0.3134 -0.2798
  340MOL0     H46887   6.831   6.162   8.114 -0.8284  1.6799  1.9576
  340MOL0     H46888   6.935   6.281   7.851 -2.3838  2.1605  1.8588
  340MOL0     H46889   6.970   6.119   7.911  2.4603 -0.6836  1.5525
  340MOL0     H46890   7.070   6.246   8.122  1.0799 -2.2622 -0.6768
  340MOL0     H46891   7.054   6.394   8.038  1.0465 -0.0023 -1.3643
  340MOL0     H46892   7.220   6.142   7.969  3.2161  0.1796 -2.0160
  340MOL0     H46893   7.205   6.266   7.847 -1.5083  0.1837 -0.0670
  340MOL0     H46894   7.317   6.339   8.125 -1.3176  0.7031  0.0927
  340MOL0     H46895   7.297   6.438   7.978  1.1820  0.0530 -1.8822
  340MOL0     H46896   7.478   6.197   7.993 -0.9338 -0.7500  1.4016
  340MOL0     H46897   7.526   6.366   8.034 -0.6629  0.7966 -0.8293
  340MOL0     H46898   7.449   6.436   7.795 -2.4407 -0.7591 -0.6344
  340MOL0     H46899   7.438   6.261   7.752 -0.0464 -0.7001  0.2939
  340MOL0     H46900   6.451   6.084   7.873 -2.5700 -2.1646 -2.1269
  340MOL0     H46901   6.260   6.071   7.734  0.0069  0.3566 -0.2980
  340MOL0     H46902   5.921   6.468   7.520 -1.2632  1.4008 -0.5629
  340MOL0     H46903   5.704   6.439   7.446 -2.2363 -0.3263 -3.1240
  340MOL0     H46904   6.193   6.967   6.513 -0.5182  2.0476  0.6681
  340MOL0     H46905   6.364   7.076   6.381  0.9969  2.0347 -1.3897
  340MOL0     H46906   6.619   7.187   6.110 -1.3218 -4.0534  2.4460
  340MOL0     H46907   6.848   7.262   6.022  4.0067 -1.1619 -1.1017
  340MOL0     H46908   7.056   7.028   5.719  2.8804 -0.4180  3.0344
  340MOL0     H46909   6.956   7.178   5.696 -2.4965 -2.3134  1.3347
  340MOL0     H46910   7.253   7.158   5.785 -1.6171 -2.0442 -1.0134
  340MOL0     H46911   7.156   7.308   5.791  0.7456  0.1182  1.4985
  340MOL0     H46912   7.205   7.144   5.537  1.9974 -1.6759  0.8135
  340MOL0     H46913   7.138   7.309   5.554 -0.4083 -2.0179 -2.2523
  340MOL0     H46914   7.426   7.228   5.629 -0.2205 -1.6490 -2.3267
  340MOL0     H46915   7.350   7.394   5.651 -1.0534 -0.2881  0.6627
  340MOL0     H46916   7.477   7.438   5.261  0.1259 -1.2630 -0.2276
  340MOL0     H46917   6.914   6.896   5.846  0.9072  0.9167  0.7467
  340MOL0     H46918   6.567   6.783   5.869 -1.0134  0.3766  2.1713
  340MOL0     H46919   6.734   6.720   5.830  0.0792 -0.9635  0.3288
  340MOL0     H46920   6.671   6.688   5.983  0.4793 -1.4219 -1.6017
  341MOL0     O46921   6.428   5.236  10.427  0.0867 -0.1281  0.7273
  341MOL0     C46922   6.390   5.341  10.477  0.1330  0.9444 -1.3451
  341MOL0     O46923   6.463   5.456  10.478 -0.1381  0.2168 -0.5740
  341MOL0     C46924   6.596   5.446  10.449 -0.6655  0.4271  0.7952
  341MOL0     C46925   6.688   5.387  10.533 -0.2540  0.6995 -0.0120
  341MOL0     C46926   6.829   5.388  10.511  0.6664 -0.1815 -0.7948
  341MOL0     C46927   6.880   5.470  10.406 -0.0441  0.5021 -0.2133
  341MOL0     O46928   7.018   5.472  10.372  0.7867 -0.3449  0.2434
  341MOL0     C46929   7.130   5.456  10.465  0.3493 -0.3052  0.4773
  341MOL0     C46930   7.255   5.385  10.415  1.0812 -0.1741  0.5720
  341MOL0     C46931   7.309   5.455  10.295 -0.3953  0.3552 -0.3174
  341MOL0     C46932   7.438   5.394  10.250 -0.0133 -0.1077 -1.0329
  341MOL0     C46933   7.500   5.469  10.138 -0.2190 -0.3988  0.0415
  341MOL0     C46934   7.650   5.423  10.110  0.0269 -0.2096 -0.0314
  341MOL0     C46935   7.687   5.480   9.974 -1.0683 -0.0272  0.1855
  341MOL0     C46936   7.822   5.420   9.925 -0.1022 -0.0621 -0.3053
  341MOL0     N46937   7.923   5.499   9.971  0.6028 -0.0897  0.1298
  341MOL0     C46938   7.993   5.480  10.080  0.1113  0.7856 -0.3497
  341MOL0     C46939   8.067   5.590  10.089 -0.2841 -0.4326 -0.4027
  341MOL0     C46940   8.179   5.592  10.191  1.0374 -0.7715 -0.5496
  341MOL0     C46941   8.305   5.553  10.108  0.0046  0.0015  0.6147
  341MOL0     C46942   8.423   5.541  10.203 -0.2561 -0.2558  0.4007
  341MOL0     C46943   8.533   5.449  10.143  0.0208  0.5065  0.2672
  341MOL0     O46944   8.615   5.507  10.039  0.5309  0.2227  0.2837
  341MOL0     C46945   8.727   5.428  10.005  0.4673 -0.1673 -0.1788
  341MOL0     C46946   8.753   5.290  10.028  0.0788  0.3315  0.8308
  341MOL0     C46947   8.870   5.229   9.968  0.5786 -1.8287  0.9430
  341MOL0     C46948   8.900   5.078   9.983  0.0045  0.2124  0.2408
  341MOL0     C46949   8.954   5.312   9.886 -1.1020  0.4216 -0.4267
  341MOL0     C46950   9.074   5.263   9.828  0.8391  0.2162  1.2198
  341MOL0     O46951   9.074   5.272   9.696 -0.6442  0.1889 -0.9383
  341MOL0     C46952   9.198   5.245   9.643  0.3301 -0.2589  0.1171
  341MOL0     C46953   9.284   5.357   9.614  0.3707  0.0251 -0.6077
  341MOL0     C46954   9.419   5.332   9.577  0.1223 -0.4923  0.5583
  341MOL0     C46955   9.466   5.202   9.549 -0.5222 -0.2226  0.4403
  341MOL0     O46956   9.589   5.178   9.486 -0.4321  0.7734  0.2176
  341MOL0     C46957   9.679   5.292   9.470 -0.5059 -0.3313  0.5691
  341MOL0     C46958   9.823   5.247   9.448  0.1537  0.4801 -0.1354
  341MOL0     C46959   9.895   5.186   9.569  0.5822  0.6970  0.1133
  341MOL0     C46960  10.046   5.152   9.556  0.8734 -0.3879 -0.2335
  341MOL0     C46961  10.129   5.280   9.571  0.5384 -0.6866 -0.1612
  341MOL0     C46962  10.172   5.324   9.717  0.2193  0.4816 -0.7603
  341MOL0     C46963  10.263   5.443   9.703 -0.8115  0.4872  0.0120
  341MOL0     C46964  10.316   5.479   9.842  0.7091  0.1613 -0.2987
  341MOL0    Cl46965  10.487   5.536   9.828  0.4226  0.6663 -0.3144
  341MOL0     C46966   9.380   5.097   9.569 -0.4049 -0.4170  0.1080
  341MOL0     C46967   9.246   5.115   9.617  0.3186 -0.0962 -0.1406
  341MOL0     O46968   9.154   5.201   9.895 -0.8726  0.5568  0.4204
  341MOL0     C46969   8.941   5.448   9.879  0.8199  0.1945 -0.7995
  341MOL0     C46970   8.827   5.504   9.944  0.1945 -0.5331  0.3248
  341MOL0     N46971   8.035   5.675   9.984 -0.4440 -0.8445  0.3907
  341MOL0     N46972   7.949   5.617   9.905  0.4754  0.2798 -0.1972
  341MOL0     C46973   6.787   5.529  10.316  0.3946  1.5789 -0.5704
  341MOL0     C46974   6.648   5.518  10.339  0.1854  0.1304 -0.5425
  341MOL0     C46975   6.270   5.351  10.569 -0.2435 -0.0396  0.1107
  341MOL0     C46976   6.224   5.479  10.615  0.0525 -0.6515  0.6110
  341MOL0     C46977   6.115   5.486  10.707 -0.4031 -0.0865  0.3311
  341MOL0     C46978   6.049   5.380  10.749 -0.3195  0.6143  0.2459
  341MOL0     O46979   5.949   5.382  10.843 -0.7015  0.0518 -0.1343
  341MOL0     C46980   5.810   5.406  10.800 -1.6729  0.5516  0.1723
  341MOL0     C46981   5.766   5.296  10.695 -0.7871 -0.6705 -0.4165
  341MOL0     C46982   5.614   5.319  10.678  0.4603 -0.1989 -0.0468
  341MOL0     C46983   5.526   5.272  10.803 -0.2007 -0.0889 -0.3296
  341MOL0     C46984   5.426   5.169  10.752  0.0168 -0.4238  0.0854
  341MOL0     C46985   5.336   5.088  10.724  0.2863 -0.5841 -0.3659
  341MOL0     C46986   6.089   5.258  10.705 -0.0866  0.9095 -0.5897
  341MOL0     C46987   6.200   5.237  10.624 -0.6216  0.2033 -0.2222
  341MOL0     C46988   6.254   5.095  10.608  0.9425  0.0138  0.7619
  341MOL0     H46989   6.650   5.333  10.619 -0.0722  0.9117  0.2052
  341MOL0     H46990   6.890   5.335  10.584 -1.5928  0.2813  1.5607
  341MOL0     H46991   7.095   5.413  10.559 -1.1320  3.7959  2.0222
  341MOL0     H46992   7.168   5.554  10.496  1.6151  0.3444 -2.7193
  341MOL0     H46993   7.331   5.392  10.493  1.8163 -3.2144  0.2701
  341MOL0     H46994   7.227   5.281  10.395  1.6565 -0.2148 -0.0457
  341MOL0     H46995   7.243   5.444  10.208  0.1997  0.4371 -0.7788
  341MOL0     H46996   7.311   5.562  10.314  2.4761  0.3157 -0.0248
  341MOL0     H46997   7.514   5.405  10.328  1.0173  0.4944 -2.0934
  341MOL0     H46998   7.423   5.292  10.216 -0.9499 -0.0304 -0.8813
  341MOL0     H46999   7.500   5.573  10.172  0.2209  0.4976 -2.4680
  341MOL0     H47000   7.442   5.480  10.045 -1.2221  5.1623  0.9520
  341MOL0     H47001   7.715   5.457  10.190 -2.3252 -0.1339  1.9678
  341MOL0     H47002   7.656   5.314  10.103  1.0145 -0.1203 -0.8077
  341MOL0     H47003   7.691   5.588   9.989  0.9978 -0.0815  0.2414
  341MOL0     H47004   7.616   5.460   9.894  1.0849  4.7305 -3.3901
  341MOL0     H47005   7.825   5.314   9.953  0.5075  0.2853  1.0097
  341MOL0     H47006   7.835   5.412   9.816  2.0166 -0.7626 -0.0465
  341MOL0     H47007   7.989   5.390  10.141 -2.2829  0.0241 -1.4905
  341MOL0     H47008   8.169   5.518  10.272 -2.5444  0.8259  0.6442
  341MOL0     H47009   8.190   5.691  10.235  1.2997 -1.0108 -0.0638
  341MOL0     H47010   8.277   5.458  10.061  2.9891 -0.1060 -1.1908
  341MOL0     H47011   8.318   5.623  10.025  2.0170 -0.2532  0.6754
  341MOL0     H47012   8.462   5.640  10.224  0.2755 -0.4077  0.1396
  341MOL0     H47013   8.387   5.502  10.299  2.1509  0.7164  1.7854
  341MOL0     H47014   8.594   5.416  10.228 -0.4524  0.6007  0.6475
  341MOL0     H47015   8.477   5.367  10.099  0.2429  0.9937 -0.9528
  341MOL0     H47016   8.685   5.219  10.074 -0.6710 -0.2318 -1.0484
  341MOL0     H47017   8.977   5.058  10.058  0.7370  0.6076 -0.3870
  341MOL0     H47018   8.925   5.027   9.889 -3.4648 -2.1671  0.4231
  341MOL0     H47019   8.806   5.028  10.009 -0.7412  0.5807 -1.5859
  341MOL0     H47020   9.224   5.447   9.621 -2.4796 -1.7414 -0.5266
  341MOL0     H47021   9.485   5.419   9.574 -0.9800  0.6110  3.7533
  341MOL0     H47022   9.648   5.352   9.384  0.9325 -1.2991 -0.6861
  341MOL0     H47023   9.683   5.365   9.551 -1.9113  0.8229 -0.3486
  341MOL0     H47024   9.826   5.164   9.377 -1.7029 -0.1700  0.4723
  341MOL0     H47025   9.878   5.334   9.412 -0.3141  0.8109 -0.0575
  341MOL0     H47026   9.834   5.100   9.598  0.4410  1.2007  1.3338
  341MOL0     H47027   9.883   5.250   9.656 -2.6628 -1.0748  1.1209
  341MOL0     H47028  10.070   5.106   9.459  1.3832 -2.0768  0.6437
  341MOL0     H47029  10.067   5.082   9.638 -1.1471 -0.8557 -0.0498
  341MOL0     H47030  10.222   5.269   9.515 -0.2112  1.1998 -1.9186
  341MOL0     H47031  10.076   5.363   9.524  1.4786 -1.0385 -1.9213
  341MOL0     H47032  10.220   5.242   9.772 -1.4009  0.1729  0.2792
  341MOL0     H47033  10.090   5.356   9.782  1.3263 -0.2604  1.0875
  341MOL0     H47034  10.221   5.535   9.661 -0.8356  0.5146  0.0964
  341MOL0     H47035  10.351   5.409   9.647  0.0547  2.3859  0.1198
  341MOL0     H47036  10.316   5.387   9.902 -0.8813  0.8445  0.8044
  341MOL0     H47037  10.247   5.549   9.888 -1.5404 -1.4062 -1.0777
  341MOL0     H47038   9.407   4.999   9.533 -1.8630 -1.2533  1.1692
  341MOL0     H47039   9.181   5.033   9.646 -1.2931  1.0358 -0.4355
  341MOL0     H47040   9.009   5.523   9.841 -1.1838  3.3782  1.4409
  341MOL0     H47041   8.814   5.612   9.940  1.2444 -0.4149 -0.2823
  341MOL0     H47042   6.827   5.591  10.236 -0.8096  1.3552 -1.3631
  341MOL0     H47043   6.569   5.567  10.284 -3.1244 -1.5607  2.3277
  341MOL0     H47044   6.258   5.574  10.575 -1.4700  0.0926  1.0194
  341MOL0     H47045   6.089   5.589  10.729  1.2322  0.6857 -1.0840
  341MOL0     H47046   5.743   5.398  10.886  0.5844 -0.0480  1.9606
  341MOL0     H47047   5.799   5.504  10.753 -1.1452 -0.1177 -1.4403
  341MOL0     H47048   5.793   5.195  10.727 -0.6682  0.3856  3.2780
  341MOL0     H47049   5.808   5.311  10.595 -1.1772 -0.3136 -0.5299
  341MOL0     H47050   5.601   5.426  10.660  2.8060  0.2136  0.3827
  341MOL0     H47051   5.580   5.265  10.590 -3.4961  1.5048  0.2574
  341MOL0     H47052   5.468   5.353  10.849 -0.4464 -0.2866 -0.2907
  341MOL0     H47053   5.591   5.233  10.882 -0.5133 -3.6644 -1.6889
  341MOL0     H47054   5.263   5.011  10.708  1.1721 -1.5600  0.1103
  341MOL0     H47055   6.047   5.165  10.743 -0.7703  0.6742 -1.8872
  341MOL0     H47056   6.275   5.068  10.504  1.1432 -1.7071  1.2256
  341MOL0     H47057   6.351   5.102  10.657  2.6804  1.2907 -2.5488
  341MOL0     H47058   6.195   5.014  10.653 -3.2410  3.4808  2.2626
  342MOL0     O47059   0.040   9.964  10.491  1.0579 -0.6512  0.9041
  342MOL0     C47060   0.064  10.033  10.391  0.4979  0.7550 -0.2701
  342MOL0     O47061   0.010  10.018  10.273  0.0615  0.1804 -0.2050
  342MOL0     C47062  -0.092   9.927  10.267 -0.5707  0.5740 -0.9079
  342MOL0     C47063  -0.217   9.978  10.285  0.1574  0.2299 -0.3940
  342MOL0     C47064  -0.322   9.891  10.273 -0.2043  0.6128  0.4541
  342MOL0     C47065  -0.307   9.757  10.231 -0.5219 -0.3676  0.1987
  342MOL0     O47066  -0.422   9.685  10.212  0.3588 -0.0585  0.7894
  342MOL0     C47067  -0.439   9.561  10.140 -0.1875  0.2270  0.4799
  342MOL0     C47068  -0.587   9.527  10.118  0.3323 -0.2345  0.0820
  342MOL0     C47069  -0.655   9.629  10.021 -0.6703  0.0442 -0.0093
  342MOL0     C47070  -0.805   9.611  10.009 -0.0773  0.1604 -0.0218
  342MOL0     C47071  -0.864   9.676   9.879  0.3187 -0.1853 -0.4994
  342MOL0     C47072  -1.020   9.654   9.872 -0.1384  0.5782 -0.0153
  342MOL0     C47073  -1.099   9.762   9.799  0.0539 -0.9333  0.4032
  342MOL0     C47074  -1.234   9.704   9.749 -0.0415 -0.3516 -0.2486
  342MOL0     N47075  -1.228   9.623   9.628  0.0858 -0.0323 -0.2237
  342MOL0     C47076  -1.156   9.657   9.513 -0.1523  0.5746 -0.6448
  342MOL0     C47077  -1.179   9.556   9.429  0.3810  0.2582 -0.4324
  342MOL0     C47078  -1.139   9.538   9.289 -0.0479 -0.1325 -0.2011
  342MOL0     C47079  -1.190   9.407   9.231  0.1384  0.0829  0.2392
  342MOL0     C47080  -1.125   9.282   9.300  0.5023 -0.4205  0.4339
  342MOL0     C47081  -1.152   9.153   9.204 -0.6828  0.0947 -0.5682
  342MOL0     O47082  -1.085   9.035   9.254 -0.2630 -0.3063  0.1071
  342MOL0     C47083  -0.955   9.031   9.206  1.3205 -0.3590  0.7764
  342MOL0     C47084  -0.858   9.091   9.281  0.7307  1.1615  0.6272
  342MOL0     C47085  -0.723   9.084   9.246  0.7088  0.0381  0.4584
  342MOL0     C47086  -0.623   9.141   9.346 -0.5698  0.7740 -0.0239
  342MOL0     C47087  -0.698   9.007   9.122  0.8596  0.0483  0.5364
  342MOL0     C47088  -0.561   8.994   9.067  0.4327  0.1518 -0.3662
  342MOL0     O47089  -0.545   8.906   8.963  0.4399  0.1069  0.5281
  342MOL0     C47090  -0.426   8.885   8.899  0.1766 -0.5809 -0.9415
  342MOL0     C47091  -0.404   8.747   8.874 -0.0423 -0.2971 -0.6340
  342MOL0     C47092  -0.277   8.708   8.827  0.6725  0.6413 -0.8165
  342MOL0     C47093  -0.189   8.802   8.775 -0.3729 -1.0137  0.1563
  342MOL0     O47094  -0.084   8.743   8.703  0.7543 -0.3240  0.0239
  342MOL0     C47095   0.006   8.832   8.646  0.0980  0.3399 -0.1246
  342MOL0     C47096   0.129   8.764   8.591  0.6599 -0.8252 -0.1176
  342MOL0     C47097   0.213   8.855   8.507  0.6861 -0.4837  0.4899
  342MOL0     C47098   0.345   8.781   8.469 -0.5983 -0.5711  0.1573
  342MOL0     C47099   0.411   8.852   8.345 -1.1099 -0.2442 -0.1965
  342MOL0     C47100   0.360   8.821   8.200 -0.2293  0.1602  0.1953
  342MOL0     C47101   0.362   8.671   8.163 -0.4824  0.4171  0.5262
  342MOL0     C47102   0.502   8.624   8.138  0.2726 -0.6859  0.1653
  342MOL0    Cl47103   0.597   8.707   8.004 -0.2099 -0.0856  0.4948
  342MOL0     C47104  -0.215   8.944   8.795 -0.8578  0.1556 -0.7003
  342MOL0     C47105  -0.331   8.985   8.863  0.1231 -0.4612 -0.3522
  342MOL0     O47106  -0.480   9.081   9.098 -0.2805 -0.2521  0.3435
  342MOL0     C47107  -0.799   8.950   9.042  0.3304  0.0945 -0.0609
  342MOL0     C47108  -0.924   8.958   9.095  0.1094 -0.0381  0.3468
  342MOL0     N47109  -1.273   9.465   9.489  0.0456 -0.0189 -0.0077
  342MOL0     N47110  -1.293   9.507   9.606 -0.0759  0.7089 -0.9352
  342MOL0     C47111  -0.171   9.705  10.222  0.0614 -0.0796  0.1741
  342MOL0     C47112  -0.066   9.794  10.244  0.7086 -0.0759  0.2435
  342MOL0     C47113   0.181  10.125  10.402  0.2442  0.5018  0.6547
  342MOL0     C47114   0.278  10.137  10.299 -0.0737 -0.3527  0.0372
  342MOL0     C47115   0.397  10.207  10.298 -0.1061 -0.4212 -0.8397
  342MOL0     C47116   0.432  10.274  10.420  0.9493  0.3871 -0.4928
  342MOL0     O47117   0.546  10.350  10.433 -1.0289  0.5503  0.1453
  342MOL0     C47118   0.608  10.414  10.323  0.0088  0.2058 -0.2893
  342MOL0     C47119   0.742  10.334  10.297 -0.3943  0.5705 -0.3449
  342MOL0     C47120   0.833  10.409  10.196 -0.6021 -0.5013  1.1427
  342MOL0     C47121   0.969  10.326  10.176  0.3414 -0.2925  0.3220
  342MOL0     C47122   1.065  10.330  10.292  0.5182  0.6697  0.4257
  342MOL0     C47123   1.139  10.347  10.384  0.0352  0.2224 -0.1869
  342MOL0     C47124   0.341  10.252  10.524 -0.2803  0.2133  0.0656
  342MOL0     C47125   0.222  10.178  10.528  0.5055  0.2678  1.3631
  342MOL0     C47126   0.148  10.175  10.659 -0.7014  0.1155 -0.0286
  342MOL0     H47127  -0.244  10.077  10.321 -0.6625 -1.2298  3.4564
  342MOL0     H47128  -0.420   9.932  10.293 -1.1311 -1.8946  1.3178
  342MOL0     H47129  -0.406   9.476  10.201 -0.2319  0.7077  1.1776
  342MOL0     H47130  -0.401   9.567  10.038 -1.0261  1.3063  0.2203
  342MOL0     H47131  -0.603   9.423  10.089  0.0489 -0.9682  2.5836
  342MOL0     H47132  -0.633   9.530  10.217  1.4012  0.4969  0.5823
  342MOL0     H47133  -0.632   9.732  10.051 -1.8634  0.3427 -0.0848
  342MOL0     H47134  -0.608   9.608   9.925 -2.2269  2.0061 -1.2895
  342MOL0     H47135  -0.836   9.506  10.006 -0.2905  0.1280  2.1590
  342MOL0     H47136  -0.844   9.646  10.105  3.5532 -3.8498  3.3273
  342MOL0     H47137  -0.827   9.619   9.793 -1.5164  1.3859 -2.4517
  342MOL0     H47138  -0.843   9.783   9.870 -1.0390  0.2192  0.6457
  342MOL0     H47139  -1.038   9.561   9.817 -3.9574  1.5286 -0.6090
  342MOL0     H47140  -1.071   9.631   9.966  1.0723 -0.5828  0.3903
  342MOL0     H47141  -1.042   9.798   9.713  1.6141 -2.3996  0.7706
  342MOL0     H47142  -1.117   9.847   9.865  1.8382  0.5834 -0.9490
  342MOL0     H47143  -1.286   9.654   9.831  1.4491  2.2203  2.4696
  342MOL0     H47144  -1.299   9.789   9.725  1.2655  1.1831  1.4385
  342MOL0     H47145  -1.108   9.753   9.500 -1.8078  1.8006  1.6073
  342MOL0     H47146  -1.031   9.550   9.282  0.0725  1.1306  2.4981
  342MOL0     H47147  -1.179   9.623   9.233  2.2276 -0.3111 -2.2301
  342MOL0     H47148  -1.299   9.403   9.233  0.0699 -1.2280 -2.0875
  342MOL0     H47149  -1.161   9.413   9.125  0.1552 -0.6231  0.1998
  342MOL0     H47150  -1.023   9.319   9.315  0.6340 -1.0022  0.9987
  342MOL0     H47151  -1.159   9.273   9.403  1.2981 -0.2700  0.7223
  342MOL0     H47152  -1.259   9.130   9.198 -0.8240  0.9192 -1.4152
  342MOL0     H47153  -1.119   9.167   9.100  0.8853  2.0306  0.1294
  342MOL0     H47154  -0.895   9.122   9.378  0.5755  1.5170  0.4525
  342MOL0     H47155  -0.593   9.243   9.322 -0.6592  0.5032 -1.3575
  342MOL0     H47156  -0.530   9.086   9.327 -1.9360 -1.0871 -1.8019
  342MOL0     H47157  -0.656   9.124   9.449 -3.4148 -1.0733 -1.1211
  342MOL0     H47158  -0.479   8.671   8.892 -2.3330  1.5251 -1.9947
  342MOL0     H47159  -0.259   8.601   8.822 -2.6117 -0.0231 -1.1983
  342MOL0     H47160  -0.035   8.892   8.564  1.2161  0.0696 -0.9171
  342MOL0     H47161   0.043   8.907   8.717  1.9316  1.7591 -2.4092
  342MOL0     H47162   0.189   8.723   8.673 -1.0103 -0.3137  1.4475
  342MOL0     H47163   0.092   8.677   8.535 -4.3111  1.8959 -1.6732
  342MOL0     H47164   0.225   8.944   8.570 -1.0642  0.0745  0.0913
  342MOL0     H47165   0.166   8.868   8.409  3.0925 -0.2882 -0.7085
  342MOL0     H47166   0.327   8.673   8.457 -0.9145 -0.2983 -2.4224
  342MOL0     H47167   0.416   8.779   8.552  0.5606  0.6236 -0.7697
  342MOL0     H47168   0.377   8.955   8.362 -2.0684 -0.3194 -1.4600
  342MOL0     H47169   0.519   8.838   8.351 -1.2432 -2.0420 -1.1430
  342MOL0     H47170   0.416   8.884   8.129 -0.2219  0.1993  0.2365
  342MOL0     H47171   0.257   8.854   8.213 -0.3396 -0.2779  0.4470
  342MOL0     H47172   0.297   8.657   8.076 -0.1398 -3.4007  0.6858
  342MOL0     H47173   0.324   8.603   8.240 -1.7202  0.2802 -0.1870
  342MOL0     H47174   0.502   8.516   8.124 -1.4802 -0.5427 -1.3255
  342MOL0     H47175   0.564   8.645   8.225  0.2988  1.9656 -0.4013
  342MOL0     H47176  -0.143   9.015   8.756  0.6351  0.6339  2.5658
  342MOL0     H47177  -0.355   9.090   8.868  3.7239  0.5013 -0.4217
  342MOL0     H47178  -0.777   8.902   8.948  1.8072  1.7602 -0.6260
  342MOL0     H47179  -1.006   8.928   9.031 -2.2282  1.3516  2.5029
  342MOL0     H47180  -0.151   9.599  10.217 -0.3258 -0.3815  3.1882
  342MOL0     H47181   0.037   9.762  10.236  1.6751  2.9997 -1.3482
  342MOL0     H47182   0.254  10.080  10.210 -0.1215 -1.5921  0.8085
  342MOL0     H47183   0.456  10.215  10.208 -2.0161 -1.4601 -2.2391
  342MOL0     H47184   0.546  10.418  10.233  0.1187  0.4537 -0.3552
  342MOL0     H47185   0.629  10.520  10.336  2.7249 -0.2331 -0.5114
  342MOL0     H47186   0.719  10.235  10.256 -0.4808  0.7113 -0.6364
  342MOL0     H47187   0.810  10.332  10.383 -0.0582  0.3313 -0.6064
  342MOL0     H47188   0.779  10.427  10.102  0.9364 -0.2259  0.2749
  342MOL0     H47189   0.858  10.510  10.228 -0.2088 -0.1058 -0.3041
  342MOL0     H47190   1.018  10.349  10.081 -2.3175 -3.5315 -2.0760
  342MOL0     H47191   0.938  10.223  10.156 -1.1684 -0.1605  1.7032
  342MOL0     H47192   1.199  10.365  10.471 -0.3285  2.0469 -0.2835
  342MOL0     H47193   0.370  10.302  10.616  2.8116  1.4687 -1.4432
  342MOL0     H47194   0.120  10.072  10.684 -4.1507  0.9941  0.2124
  342MOL0     H47195   0.210  10.198  10.746 -0.3446 -4.5722  1.2021
  342MOL0     H47196   0.058  10.236  10.641 -0.4330  0.6138  0.3035
  343MOL0     O47197   9.186   5.955   2.159 -0.1382 -0.0170  0.1071
  343MOL0     C47198   9.274   5.879   2.213 -1.0952  0.0240 -1.7143
  343MOL0     O47199   9.249   5.748   2.261  0.0991 -0.0237 -0.5744
  343MOL0     C47200   9.120   5.708   2.251 -0.1742  0.8692 -0.1310
  343MOL0     C47201   9.110   5.571   2.214  0.3986 -0.3128 -1.0695
  343MOL0     C47202   8.983   5.506   2.202 -0.5124 -0.5137 -0.0417
  343MOL0     C47203   8.865   5.579   2.234 -0.3261 -0.1557 -0.3829
  343MOL0     O47204   8.746   5.506   2.240  1.0094  0.3818 -0.3090
  343MOL0     C47205   8.621   5.555   2.289  0.1091  0.3412 -0.6113
  343MOL0     C47206   8.515   5.443   2.268 -0.0683 -0.7088  0.0202
  343MOL0     C47207   8.538   5.307   2.342 -0.0669 -0.7000  0.0913
  343MOL0     C47208   8.414   5.215   2.340  1.1399 -0.2752 -0.0920
  343MOL0     C47209   8.435   5.069   2.377  0.5410  0.1648 -0.0406
  343MOL0     C47210   8.459   4.979   2.256  0.0024  0.2668 -0.7825
  343MOL0     C47211   8.435   4.838   2.316 -0.9035 -0.1743  0.3259
  343MOL0     C47212   8.444   4.748   2.190 -0.2507 -0.4775  0.1226
  343MOL0     N47213   8.403   4.614   2.225 -0.2904 -0.1817  0.5966
  343MOL0     C47214   8.383   4.519   2.129  0.3301  0.5574 -0.0343
  343MOL0     C47215   8.365   4.405   2.201  0.1518  0.3331 -0.0828
  343MOL0     C47216   8.318   4.263   2.149 -0.7512 -0.8620 -0.1158
  343MOL0     C47217   8.433   4.165   2.135  0.7422  0.4307  0.1477
  343MOL0     C47218   8.513   4.145   2.267  0.6027 -0.1035  0.5532
  343MOL0     C47219   8.588   4.014   2.259 -0.3501 -0.1379 -0.3040
  343MOL0     O47220   8.691   3.998   2.153 -0.0084  0.2074  0.1552
  343MOL0     C47221   8.799   3.928   2.176  0.3995 -0.2390  1.1242
  343MOL0     C47222   8.906   3.956   2.091 -0.8516 -1.0379 -0.1168
  343MOL0     C47223   9.028   3.890   2.111 -0.3845 -0.8021  0.4873
  343MOL0     C47224   9.125   3.910   2.001  0.2501 -0.6275 -0.0139
  343MOL0     C47225   9.051   3.808   2.226 -0.9707  0.3010 -0.1350
  343MOL0     C47226   9.184   3.746   2.262 -0.3887 -0.6147 -0.0821
  343MOL0     O47227   9.287   3.821   2.223 -0.1423  0.3998 -0.6744
  343MOL0     C47228   9.404   3.751   2.202 -0.9880  0.5325  0.2870
  343MOL0     C47229   9.426   3.683   2.080 -0.7351  0.0923  0.0197
  343MOL0     C47230   9.526   3.597   2.071 -0.0686  0.6010 -0.8465
  343MOL0     C47231   9.615   3.569   2.181  0.0311 -0.5735  0.2425
  343MOL0     O47232   9.718   3.480   2.178 -0.3898 -0.3026 -0.2452
  343MOL0     C47233   9.733   3.404   2.053  0.2794 -0.4458 -0.0769
  343MOL0     C47234   9.805   3.484   1.934  0.9190 -0.3317 -0.4475
  343MOL0     C47235   9.941   3.543   1.976  0.4390 -0.2705 -0.5942
  343MOL0     C47236  10.060   3.480   1.891 -0.5853  0.4517 -0.6150
  343MOL0     C47237  10.093   3.335   1.926  0.6692  0.0071 -0.4237
  343MOL0     C47238  10.198   3.279   1.826  0.7549  0.8112  0.3087
  343MOL0     C47239  10.194   3.123   1.811 -0.1682 -0.1023  0.8495
  343MOL0     C47240  10.295   3.056   1.719  0.1879  0.6505  0.6314
  343MOL0    Cl47241  10.225   3.036   1.561 -0.0510  0.4112 -0.5231
  343MOL0     C47242   9.594   3.639   2.297  0.9705  0.5980  0.4608
  343MOL0     C47243   9.485   3.720   2.314  0.2993 -0.2342 -0.1421
  343MOL0     O47244   9.184   3.647   2.342  0.1184 -0.7446  0.5589
  343MOL0     C47245   8.933   3.779   2.298  0.1185  0.2124  0.3237
  343MOL0     C47246   8.808   3.838   2.275 -0.5997  0.2051  0.4283
  343MOL0     N47247   8.370   4.439   2.334 -0.8462  0.1901  0.2124
  343MOL0     N47248   8.396   4.561   2.357 -0.4536  0.2817 -0.1544
  343MOL0     C47249   8.875   5.712   2.272 -0.2968 -0.3815  0.7645
  343MOL0     C47250   9.000   5.776   2.283  0.4455 -0.1700  0.0216
  343MOL0     C47251   9.423   5.924   2.216 -0.4471 -0.4244  0.6675
  343MOL0     C47252   9.517   5.832   2.183 -0.0041  0.4125 -0.5199
  343MOL0     C47253   9.656   5.862   2.171  0.1848 -0.4191 -0.3361
  343MOL0     C47254   9.692   5.994   2.190 -1.5177  0.1828  0.4344
  343MOL0     O47255   9.827   6.021   2.171  0.4467  0.2836 -0.6221
  343MOL0     C47256   9.875   6.153   2.214  0.1003  0.1717  0.6655
  343MOL0     C47257   9.977   6.121   2.316  0.1783  0.1002 -0.2443
  343MOL0     C47258   9.924   6.055   2.451  0.8294  0.9685 -0.1129
  343MOL0     C47259  10.016   6.006   2.557  0.2022 -0.3712 -0.2366
  343MOL0     C47260  10.084   5.886   2.517 -0.4664 -0.3851 -0.3718
  343MOL0     C47261  10.134   5.776   2.485 -0.1611 -0.6033 -0.3797
  343MOL0     C47262   9.592   6.089   2.207 -0.1418 -0.2163  0.6854
  343MOL0     C47263   9.461   6.056   2.226  0.4718 -0.5177 -0.0168
  343MOL0     C47264   9.362   6.167   2.244 -0.0985  0.3272  0.0607
  343MOL0     H47265   9.203   5.516   2.211  2.0451  2.0636  1.3750
  343MOL0     H47266   8.970   5.401   2.180 -0.7045 -0.0363 -2.5332
  343MOL0     H47267   8.589   5.640   2.227  3.4088  2.2153  0.0210
  343MOL0     H47268   8.623   5.577   2.397  0.4797  0.8073 -0.7098
  343MOL0     H47269   8.415   5.483   2.285  0.3822  1.4971 -1.9526
  343MOL0     H47270   8.515   5.441   2.158  2.7670  1.9577 -0.1586
  343MOL0     H47271   8.615   5.242   2.299  0.3394 -1.8170  2.3336
  343MOL0     H47272   8.577   5.314   2.444 -2.6464 -0.1709  1.1029
  343MOL0     H47273   8.352   5.253   2.422 -1.4246  2.1091 -2.9098
  343MOL0     H47274   8.362   5.230   2.245  0.0168  1.7950  0.7796
  343MOL0     H47275   8.338   5.041   2.419 -2.0101  3.9572 -2.7212
  343MOL0     H47276   8.516   5.062   2.451  2.1598 -1.1399 -1.8265
  343MOL0     H47277   8.390   5.006   2.176  0.6679 -0.5668 -1.6614
  343MOL0     H47278   8.559   4.975   2.212 -0.3579 -3.3374 -1.5281
  343MOL0     H47279   8.334   4.828   2.358 -1.5181  1.2754 -0.7074
  343MOL0     H47280   8.510   4.805   2.389 -1.0598  0.0770  0.6074
  343MOL0     H47281   8.367   4.785   2.122 -0.4551 -0.3697  0.4132
  343MOL0     H47282   8.542   4.754   2.141  0.4026  1.3706  1.5295
  343MOL0     H47283   8.401   4.520   2.021  0.4561  0.2788 -0.0148
  343MOL0     H47284   8.265   4.271   2.053 -0.7579  0.6808 -0.0023
  343MOL0     H47285   8.241   4.227   2.218  1.2371  1.5159  3.6875
  343MOL0     H47286   8.393   4.075   2.087  1.2582 -1.0064  2.2576
  343MOL0     H47287   8.508   4.206   2.066  1.5260 -0.3940  0.4945
  343MOL0     H47288   8.574   4.235   2.277 -0.3168  0.5452  0.4617
  343MOL0     H47289   8.444   4.133   2.351 -1.0878  1.1160 -0.5954
  343MOL0     H47290   8.635   3.995   2.356  2.0265 -2.8122 -1.8013
  343MOL0     H47291   8.508   3.942   2.241 -1.6411  1.6718 -2.2513
  343MOL0     H47292   8.902   4.034   2.016 -1.3330 -2.1998 -1.3411
  343MOL0     H47293   9.216   3.966   2.023  0.1442 -0.0858 -0.9463
  343MOL0     H47294   9.081   3.975   1.925 -0.2134  0.0128  0.7783
  343MOL0     H47295   9.153   3.815   1.954  1.0203 -0.0076 -0.8364
  343MOL0     H47296   9.358   3.698   1.997 -1.1882 -1.2483  0.1277
  343MOL0     H47297   9.540   3.534   1.984  3.5987  0.2072 -0.1425
  343MOL0     H47298   9.805   3.328   2.085 -1.4059 -1.7200  0.8058
  343MOL0     H47299   9.645   3.346   2.023  0.3112 -0.0238 -1.0204
  343MOL0     H47300   9.819   3.419   1.847  1.6354  2.5498 -2.6138
  343MOL0     H47301   9.740   3.569   1.915 -0.5335 -0.4329  3.2530
  343MOL0     H47302   9.956   3.523   2.083 -2.1863  2.0825  0.3482
  343MOL0     H47303   9.936   3.652   1.968 -1.8624 -0.1062  1.7315
  343MOL0     H47304  10.149   3.541   1.910 -0.6086  0.2931  0.0339
  343MOL0     H47305  10.036   3.488   1.785 -0.9747 -1.7264 -0.7343
  343MOL0     H47306  10.135   3.330   2.027  1.8007  3.7237 -0.5737
  343MOL0     H47307   9.997   3.282   1.929  0.5579  0.2724  1.9309
  343MOL0     H47308  10.299   3.313   1.849  0.8267  0.7265  0.1239
  343MOL0     H47309  10.178   3.322   1.727 -0.0256 -1.7252 -0.6990
  343MOL0     H47310  10.091   3.097   1.788  0.4300 -2.1465  0.2347
  343MOL0     H47311  10.215   3.079   1.909  1.1939 -1.3780  0.0279
  343MOL0     H47312  10.324   2.958   1.758  2.8179  0.7018 -0.9389
  343MOL0     H47313  10.392   3.107   1.720 -0.0254  1.0681  1.8972
  343MOL0     H47314   9.665   3.611   2.375  1.9825 -0.8163 -0.9154
  343MOL0     H47315   9.453   3.761   2.409 -3.1525  0.8190 -1.5986
  343MOL0     H47316   8.949   3.714   2.383  0.5978 -0.7468 -0.4803
  343MOL0     H47317   8.721   3.796   2.326  0.4769  1.0722  3.1962
  343MOL0     H47318   8.797   5.782   2.297  0.2542  0.9305 -0.9106
  343MOL0     H47319   9.003   5.874   2.329 -1.1456  0.6087 -1.4322
  343MOL0     H47320   9.484   5.729   2.183 -2.8676  1.2551 -0.7700
  343MOL0     H47321   9.728   5.787   2.145  2.7176  1.9924 -0.7196
  343MOL0     H47322   9.911   6.205   2.125 -1.6947 -0.7005 -0.6215
  343MOL0     H47323   9.809   6.222   2.268  2.0717  1.5203  1.5073
  343MOL0     H47324  10.027   6.218   2.329  2.0896 -0.3919 -3.0276
  343MOL0     H47325  10.065   6.067   2.278  1.1278 -0.2314  2.2567
  343MOL0     H47326   9.865   6.137   2.491  0.3298  1.7203 -2.2462
  343MOL0     H47327   9.864   5.964   2.434  1.4297  0.6465 -0.5853
  343MOL0     H47328   9.955   5.983   2.645 -2.3148 -3.0573 -2.4694
  343MOL0     H47329  10.084   6.089   2.577 -0.7786  0.1299  1.2229
  343MOL0     H47330  10.158   5.673   2.472 -0.9435 -0.8918  0.3876
  343MOL0     H47331   9.611   6.195   2.191  2.3069 -0.8795 -1.4068
  343MOL0     H47332   9.301   6.186   2.156 -0.3981  2.2931  0.6340
  343MOL0     H47333   9.302   6.142   2.333  2.7046 -2.9061  1.2743
  343MOL0     H47334   9.402   6.266   2.269 -0.9802  1.1078 -1.4616
  344MOL0     O47335   6.342   3.278   5.592 -0.5880  0.2517 -0.5855
  344MOL0     C47336   6.278   3.384   5.602  0.7781  0.7704  0.1964
  344MOL0     O47337   6.265   3.456   5.709 -0.2524  0.4092 -0.5596
  344MOL0     C47338   6.360   3.435   5.801 -0.0886 -1.2714  0.7770
  344MOL0     C47339   6.485   3.497   5.776  0.2956  0.3247  0.1858
  344MOL0     C47340   6.587   3.479   5.863  0.5293 -0.1435  0.7663
  344MOL0     C47341   6.566   3.397   5.979 -0.7648 -0.1246 -0.8807
  344MOL0     O47342   6.676   3.376   6.058 -0.0940 -0.3695 -0.4103
  344MOL0     C47343   6.771   3.268   6.012 -0.1952  0.0210 -0.3420
  344MOL0     C47344   6.706   3.135   6.064 -0.3607 -0.7337 -0.1362
  344MOL0     C47345   6.808   3.017   6.059  0.3619  0.1765 -0.0788
  344MOL0     C47346   6.922   3.030   6.155 -1.2242 -0.1514  0.7843
  344MOL0     C47347   7.049   2.960   6.091  0.3100 -0.8883 -0.0450
  344MOL0     C47348   7.175   2.995   6.171  0.5460  0.0026  0.0187
  344MOL0     C47349   7.299   2.921   6.120 -0.8221 -0.4490 -0.0737
  344MOL0     C47350   7.415   2.937   6.214 -0.6854  0.5022  1.0270
  344MOL0     N47351   7.454   3.078   6.220 -0.8885  0.0498 -0.2182
  344MOL0     C47352   7.518   3.150   6.116 -0.0482 -0.1239 -0.3240
  344MOL0     C47353   7.515   3.272   6.154 -0.5160 -0.1384  0.2323
  344MOL0     C47354   7.565   3.389   6.073  0.3183  0.4777  0.3428
  344MOL0     C47355   7.720   3.419   6.092  0.2773  1.0163  0.2536
  344MOL0     C47356   7.813   3.331   6.008 -0.8437 -1.0159  0.1771
  344MOL0     C47357   7.957   3.332   6.072  0.4427  0.4258 -0.0482
  344MOL0     O47358   8.024   3.462   6.033 -0.5579  0.5545  0.2021
  344MOL0     C47359   8.152   3.469   6.048 -0.0627 -0.0289 -1.2721
  344MOL0     C47360   8.235   3.360   6.088 -0.3968 -0.0691 -0.5096
  344MOL0     C47361   8.373   3.373   6.090  0.5024 -0.2717 -0.8775
  344MOL0     C47362   8.455   3.253   6.138  0.7607 -0.3562  0.4679
  344MOL0     C47363   8.434   3.495   6.064 -0.2169  0.1861 -0.1484
  344MOL0     C47364   8.575   3.521   6.062 -0.7702 -0.1257 -0.4908
  344MOL0     O47365   8.613   3.601   5.959 -0.7148 -0.1524 -0.1829
  344MOL0     C47366   8.749   3.627   5.940 -0.0694  0.6342 -0.8838
  344MOL0     C47367   8.809   3.748   5.970 -0.5303  0.3115 -0.6348
  344MOL0     C47368   8.949   3.770   5.951 -0.2071  0.8882  0.1086
  344MOL0     C47369   9.022   3.665   5.895 -0.6751 -0.2584 -0.5197
  344MOL0     O47370   9.154   3.687   5.863  0.4379 -0.9447  0.2494
  344MOL0     C47371   9.247   3.575   5.836 -0.3796 -0.1612  0.2382
  344MOL0     C47372   9.391   3.629   5.821  0.3771 -0.9378 -0.6923
  344MOL0     C47373   9.457   3.598   5.691  0.3371 -0.3825  0.8216
  344MOL0     C47374   9.595   3.664   5.683  0.2687  0.2019 -0.7026
  344MOL0     C47375   9.698   3.604   5.775 -1.0643 -0.2826 -0.5855
  344MOL0     C47376   9.823   3.695   5.768  0.1265 -0.4601 -0.6542
  344MOL0     C47377   9.900   3.689   5.638  0.6709 -0.0124 -0.4042
  344MOL0     C47378  10.039   3.750   5.661 -0.1855 -0.3523 -0.0182
  344MOL0    Cl47379  10.132   3.716   5.518  0.1914 -0.0333 -0.0902
  344MOL0     C47380   8.962   3.542   5.872 -0.7207 -0.1196  0.4070
  344MOL0     C47381   8.825   3.527   5.885 -0.8621  0.9641  0.3020
  344MOL0     O47382   8.643   3.472   6.155 -0.3101  0.7311  0.3558
  344MOL0     C47383   8.352   3.606   6.034  0.4572  0.5244 -0.4937
  344MOL0     C47384   8.211   3.590   6.023 -0.3744 -0.5087 -1.1200
  344MOL0     N47385   7.472   3.280   6.284 -0.2439  0.2401 -0.2053
  344MOL0     N47386   7.427   3.169   6.325  0.0516  0.0491 -0.4467
  344MOL0     C47387   6.438   3.329   5.992  0.8955 -0.1782 -0.7291
  344MOL0     C47388   6.337   3.350   5.899  0.0376 -0.4977 -0.7815
  344MOL0     C47389   6.221   3.434   5.477 -0.0229  0.2601  0.5766
  344MOL0     C47390   6.185   3.569   5.472  0.2877  0.1770  0.4865
  344MOL0     C47391   6.147   3.635   5.356 -0.0431  0.8743  0.3421
  344MOL0     C47392   6.131   3.576   5.233 -0.4729  0.6816 -0.5460
  344MOL0     O47393   6.086   3.645   5.115 -0.1670 -0.5197  0.2230
  344MOL0     C47394   6.072   3.572   4.992  0.0206 -0.6133  0.3994
  344MOL0     C47395   6.006   3.657   4.882  0.0610 -0.0907  0.4817
  344MOL0     C47396   6.104   3.772   4.840  0.1689 -0.2298 -0.1116
  344MOL0     C47397   6.030   3.845   4.725 -0.3480 -0.7941 -0.0070
  344MOL0     C47398   6.127   3.942   4.679  0.7260 -1.4992 -0.6906
  344MOL0     C47399   6.195   4.022   4.628 -0.1132 -0.5810  0.5705
  344MOL0     C47400   6.160   3.434   5.234  0.2425 -0.8343 -0.2571
  344MOL0     C47401   6.196   3.366   5.354 -0.0827 -0.1029  0.6554
  344MOL0     C47402   6.205   3.217   5.340 -0.3168 -0.4679 -0.5280
  344MOL0     H47403   6.484   3.564   5.690 -0.2106 -0.9634 -0.8639
  344MOL0     H47404   6.678   3.538   5.864  0.2719  0.3000 -0.5536
  344MOL0     H47405   6.868   3.279   6.060 -1.9064  0.5140  3.3856
  344MOL0     H47406   6.779   3.263   5.903 -0.8609 -0.1881 -0.3909
  344MOL0     H47407   6.674   3.144   6.168  1.6245  1.0570  0.3795
  344MOL0     H47408   6.618   3.112   6.002  0.0884  0.2563 -1.1821
  344MOL0     H47409   6.751   2.927   6.086  1.5051  0.0640  2.1507
  344MOL0     H47410   6.842   2.993   5.958 -0.9357 -0.3309 -0.4191
  344MOL0     H47411   6.947   3.134   6.176 -0.8367 -0.0117 -0.2973
  344MOL0     H47412   6.892   2.972   6.244 -0.5204 -2.4456 -0.3876
  344MOL0     H47413   7.061   3.013   5.997  0.0933  0.3834  0.6270
  344MOL0     H47414   7.050   2.850   6.090  0.9783 -0.8820 -0.4304
  344MOL0     H47415   7.189   3.102   6.150 -4.9706  0.4589 -3.4749
  344MOL0     H47416   7.150   2.978   6.276  0.6576 -1.5959 -0.1921
  344MOL0     H47417   7.322   2.950   6.017  1.3189 -0.5070  0.3421
  344MOL0     H47418   7.285   2.813   6.135  0.0931 -0.2897  2.4506
  344MOL0     H47419   7.391   2.890   6.311 -3.6439 -3.8609 -1.4625
  344MOL0     H47420   7.502   2.884   6.173 -0.8767 -0.8307  2.2560
  344MOL0     H47421   7.533   3.111   6.016 -1.1407  0.7324 -0.8512
  344MOL0     H47422   7.509   3.479   6.100 -1.2073  0.1256 -1.4291
  344MOL0     H47423   7.544   3.364   5.968  0.3220 -1.2419  0.7214
  344MOL0     H47424   7.741   3.525   6.072  0.5463  0.5434 -2.2703
  344MOL0     H47425   7.742   3.394   6.196 -3.2803 -4.1525  0.1243
  344MOL0     H47426   7.780   3.227   5.996 -0.9109 -0.8925 -0.7291
  344MOL0     H47427   7.810   3.365   5.904  0.9023  0.3472  0.5322
  344MOL0     H47428   7.951   3.319   6.181  3.1054 -2.0633 -0.0884
  344MOL0     H47429   8.013   3.244   6.041 -0.3327  0.0552 -0.4086
  344MOL0     H47430   8.194   3.262   6.111 -0.3495 -0.0226 -0.2297
  344MOL0     H47431   8.397   3.160   6.140  0.2477 -0.0232  1.6494
  344MOL0     H47432   8.491   3.271   6.239  0.4903  1.7041  0.2494
  344MOL0     H47433   8.537   3.236   6.067  0.3331  0.2592 -0.2024
  344MOL0     H47434   8.752   3.834   6.004  0.2936 -0.3738  2.8885
  344MOL0     H47435   9.000   3.865   5.956  0.3924  0.8676 -3.4106
  344MOL0     H47436   9.246   3.506   5.922 -0.7760 -1.1866 -0.5624
  344MOL0     H47437   9.217   3.525   5.744 -1.4760 -0.4582  0.7408
  344MOL0     H47438   9.398   3.738   5.829  0.9933 -0.9270 -1.2983
  344MOL0     H47439   9.447   3.577   5.898 -0.7560 -3.6553 -1.5560
  344MOL0     H47440   9.393   3.620   5.605 -0.0944 -1.7925  0.7454
  344MOL0     H47441   9.467   3.489   5.691 -1.4709 -0.5902 -0.1878
  344MOL0     H47442   9.579   3.770   5.708 -1.4290 -0.6915  2.6919
  344MOL0     H47443   9.633   3.651   5.582 -0.0482 -2.4254 -0.5579
  344MOL0     H47444   9.652   3.604   5.875 -1.2599 -1.1095 -0.6733
  344MOL0     H47445   9.722   3.499   5.755 -4.9897 -1.2374 -1.2291
  344MOL0     H47446   9.889   3.662   5.849  0.2530 -1.7840 -1.2835
  344MOL0     H47447   9.790   3.799   5.780  1.5089 -0.0519 -0.1362
  344MOL0     H47448   9.839   3.745   5.567 -2.1001  0.7207  2.3088
  344MOL0     H47449   9.920   3.585   5.610  1.2156 -0.2199  0.6709
  344MOL0     H47450  10.074   3.705   5.754 -1.1351 -1.7679 -0.3172
  344MOL0     H47451  10.031   3.859   5.667 -0.8914 -0.1086 -3.3859
  344MOL0     H47452   9.012   3.451   5.841 -1.7312 -1.1516  1.6877
  344MOL0     H47453   8.783   3.433   5.850  0.0050  0.2531  1.1116
  344MOL0     H47454   8.407   3.693   5.998  0.2147  1.3202  0.9588
  344MOL0     H47455   8.142   3.664   5.985 -1.5937 -0.8450  0.3383
  344MOL0     H47456   6.423   3.258   6.072 -1.3148  1.0321 -0.0068
  344MOL0     H47457   6.245   3.293   5.908 -3.1911  4.3316  1.3548
  344MOL0     H47458   6.189   3.635   5.559 -0.9375  2.5793 -1.1759
  344MOL0     H47459   6.127   3.741   5.366 -0.4137  0.7299  1.1742
  344MOL0     H47460   6.169   3.528   4.966  0.0632 -0.7937  0.8518
  344MOL0     H47461   6.015   3.479   4.996  1.0126 -1.4364 -2.4190
  344MOL0     H47462   5.924   3.706   4.934  0.4836 -0.8467  1.9147
  344MOL0     H47463   5.971   3.598   4.797 -0.5599  1.5504 -0.4405
  344MOL0     H47464   6.113   3.839   4.926  0.0351  1.9455 -1.6932
  344MOL0     H47465   6.202   3.733   4.814  1.1321  1.9319  0.0133
  344MOL0     H47466   5.940   3.887   4.771 -0.6179 -0.8237 -0.5082
  344MOL0     H47467   5.991   3.778   4.648 -0.5303 -1.2116  0.4386
  344MOL0     H47468   6.251   4.101   4.582 -1.7288 -0.0922 -0.6447
  344MOL0     H47469   6.156   3.371   5.146 -0.8346 -2.2160  0.7426
  344MOL0     H47470   6.146   3.190   5.252  1.6572  3.8556 -3.5472
  344MOL0     H47471   6.310   3.192   5.327  0.1447  0.8330  0.4832
  344MOL0     H47472   6.165   3.168   5.430  0.5575  1.8976  1.2701
  345MOL0     O47473   3.134   7.720   5.264 -0.1644  0.1143  0.5072
  345MOL0     C47474   3.068   7.624   5.305 -0.2858  0.4474  0.3082
  345MOL0     O47475   3.122   7.496   5.339  0.6343 -0.1045  0.0061
  345MOL0     C47476   3.250   7.485   5.308 -0.6401 -0.0112  0.1204
  345MOL0     C47477   3.284   7.454   5.178  0.2990  0.0486  0.4239
  345MOL0     C47478   3.418   7.432   5.149 -0.1788  0.2171 -0.5413
  345MOL0     C47479   3.521   7.434   5.242  0.0692  0.6328 -0.9481
  345MOL0     O47480   3.647   7.417   5.198 -0.0499 -0.5576 -0.2601
  345MOL0     C47481   3.739   7.364   5.302 -0.2311 -0.0498  0.7465
  345MOL0     C47482   3.695   7.219   5.328 -0.1743  0.0984 -0.5513
  345MOL0     C47483   3.816   7.148   5.392  0.2262 -0.1568  0.4682
  345MOL0     C47484   3.786   7.020   5.466  1.3767  0.7509  0.5204
  345MOL0     C47485   3.865   7.001   5.593  0.6138 -0.5830 -0.6184
  345MOL0     C47486   4.004   6.960   5.571 -0.0884  0.7456 -0.4501
  345MOL0     C47487   4.087   6.923   5.701  0.1300  0.3079  0.1280
  345MOL0     C47488   4.221   6.858   5.673  0.1009  0.0931 -0.6999
  345MOL0     N47489   4.293   6.845   5.808  0.2596 -0.1240  0.3261
  345MOL0     C47490   4.258   6.785   5.928 -0.1486  0.4103  0.0959
  345MOL0     C47491   4.369   6.789   6.006 -0.5864 -0.3429  0.2630
  345MOL0     C47492   4.379   6.755   6.148 -0.2794  0.4726 -0.7509
  345MOL0     C47493   4.394   6.870   6.238 -0.1298 -0.4942 -0.8688
  345MOL0     C47494   4.412   6.842   6.385  0.0159  0.2597  0.1555
  345MOL0     C47495   4.463   6.949   6.479 -0.3019 -0.9977 -1.2822
  345MOL0     O47496   4.468   6.921   6.619 -0.6940 -0.5550  0.6304
  345MOL0     C47497   4.550   6.999   6.702  0.2545  0.6147  0.2467
  345MOL0     C47498   4.576   6.959   6.829  0.6460  0.3994  0.1942
  345MOL0     C47499   4.667   7.034   6.913 -0.1861 -0.0647  0.8557
  345MOL0     C47500   4.688   6.978   7.049  0.2844 -0.3940 -0.2715
  345MOL0     C47501   4.729   7.154   6.869  0.6126  0.0705  0.0098
  345MOL0     C47502   4.821   7.233   6.958  0.3980  0.3192  0.5466
  345MOL0     O47503   4.810   7.221   7.094 -0.2738  0.3086  0.7309
  345MOL0     C47504   4.891   7.310   7.163 -0.1825  0.7833  0.6238
  345MOL0     C47505   5.011   7.263   7.222  0.8952  0.0724  0.0096
  345MOL0     C47506   5.095   7.354   7.286  0.2706 -0.3104 -0.3129
  345MOL0     C47507   5.056   7.490   7.303  0.1973  0.1768  0.0747
  345MOL0     O47508   5.135   7.562   7.381  0.0698  0.5867  0.1042
  345MOL0     C47509   5.088   7.685   7.448  0.8076  1.1505  0.2108
  345MOL0     C47510   5.177   7.715   7.572  0.6317 -0.7170 -0.4451
  345MOL0     C47511   5.329   7.695   7.539 -0.4724 -0.5444 -0.5077
  345MOL0     C47512   5.384   7.548   7.565  1.0780  0.7189  0.1591
  345MOL0     C47513   5.528   7.557   7.603  0.2230  0.1002  0.2047
  345MOL0     C47514   5.579   7.431   7.661 -0.1362  0.6297 -0.2476
  345MOL0     C47515   5.727   7.447   7.708  0.3028 -0.5436  0.4012
  345MOL0     C47516   5.788   7.317   7.763 -0.3597 -0.3028 -0.1581
  345MOL0    Cl47517   5.966   7.298   7.732 -0.1320 -0.0983 -0.2275
  345MOL0     C47518   4.937   7.535   7.245 -0.6634 -0.8902 -0.5955
  345MOL0     C47519   4.856   7.452   7.176  0.2341  0.2486  0.3334
  345MOL0     O47520   4.899   7.313   6.903 -0.0425  1.0080 -0.1270
  345MOL0     C47521   4.703   7.198   6.734 -0.0813  0.7313  0.2950
  345MOL0     C47522   4.615   7.117   6.661 -0.4406 -0.2022  0.2060
  345MOL0     N47523   4.472   6.826   5.929  0.4761 -0.0233  0.0019
  345MOL0     N47524   4.431   6.866   5.815  0.3233  0.4949  0.5643
  345MOL0     C47525   3.485   7.468   5.377 -0.6057  0.4739  0.5718
  345MOL0     C47526   3.352   7.491   5.404  0.0541 -0.3827  0.1935
  345MOL0     C47527   2.926   7.654   5.351 -0.3110  0.0668  0.0862
  345MOL0     C47528   2.890   7.777   5.407 -0.0802 -0.3744  0.3184
  345MOL0     C47529   2.767   7.802   5.466  0.2095 -1.0165  0.2076
  345MOL0     C47530   2.669   7.707   5.462  0.2926 -0.2013  0.6605
  345MOL0     O47531   2.550   7.714   5.534  0.1076 -0.4893 -1.1085
  345MOL0     C47532   2.510   7.843   5.581  0.5527 -0.0348  0.7282
  345MOL0     C47533   2.356   7.846   5.563  0.3416 -0.2567  0.8394
  345MOL0     C47534   2.300   7.976   5.617  0.3270 -0.6301  0.4001
  345MOL0     C47535   2.290   7.985   5.777 -0.2174 -0.3169  0.6963
  345MOL0     C47536   2.201   8.085   5.826  0.2140 -0.4055 -0.1680
  345MOL0     C47537   2.124   8.173   5.854 -0.4148  0.1727 -0.6771
  345MOL0     C47538   2.693   7.587   5.393 -0.2211 -0.5464 -0.1280
  345MOL0     C47539   2.820   7.557   5.339 -1.0374  0.5119 -0.4287
  345MOL0     C47540   2.841   7.415   5.277 -0.4145 -0.3280 -0.1761
  345MOL0     H47541   3.210   7.437   5.100 -0.6257  0.7823  1.1141
  345MOL0     H47542   3.432   7.391   5.049 -0.8882 -3.6049  0.7636
  345MOL0     H47543   3.745   7.421   5.395  1.1704  2.4364 -0.7397
  345MOL0     H47544   3.838   7.370   5.255 -0.5755 -0.8196 -0.1193
  345MOL0     H47545   3.612   7.216   5.400 -0.4678 -0.0271 -0.8959
  345MOL0     H47546   3.666   7.178   5.231  0.3949  0.9417 -1.0865
  345MOL0     H47547   3.887   7.119   5.314 -0.4270 -2.0675  0.5225
  345MOL0     H47548   3.862   7.216   5.464  1.0722  1.6896 -1.7112
  345MOL0     H47549   3.682   7.028   5.499  0.3668 -1.0621 -1.9370
  345MOL0     H47550   3.787   6.929   5.405  1.7176  0.4666  0.9430
  345MOL0     H47551   3.817   6.928   5.658  3.0610 -1.7996 -0.0790
  345MOL0     H47552   3.870   7.098   5.643  1.3483 -0.1150 -1.5480
  345MOL0     H47553   3.999   6.873   5.505 -1.2731 -0.4226  1.1207
  345MOL0     H47554   4.061   7.030   5.509  2.0475 -1.7672 -1.5234
  345MOL0     H47555   4.023   6.856   5.758  0.6324  0.5422  0.9807
  345MOL0     H47556   4.117   7.013   5.755 -0.6413 -0.5160  1.9859
  345MOL0     H47557   4.213   6.759   5.627 -0.2313 -1.6432  2.8121
  345MOL0     H47558   4.286   6.918   5.608  0.1674  0.0514 -0.6728
  345MOL0     H47559   4.167   6.738   5.962 -0.1994  0.8461  0.5882
  345MOL0     H47560   4.459   6.682   6.163 -0.3898  0.2971 -1.0056
  345MOL0     H47561   4.284   6.708   6.174  0.7052 -0.0262  2.3038
  345MOL0     H47562   4.475   6.937   6.207  0.4984 -1.0445 -0.4427
  345MOL0     H47563   4.308   6.937   6.226 -0.5054 -0.6293  0.8914
  345MOL0     H47564   4.315   6.806   6.420  0.0407  2.3538  2.7545
  345MOL0     H47565   4.483   6.759   6.385  0.1863  0.4043  0.0879
  345MOL0     H47566   4.566   6.975   6.451 -0.0193 -1.6608 -0.8961
  345MOL0     H47567   4.408   7.042   6.462 -0.8598 -0.9368  0.6924
  345MOL0     H47568   4.521   6.871   6.860  0.7396  1.1618  2.8471
  345MOL0     H47569   4.653   6.875   7.056 -0.1398 -0.5257 -3.1603
  345MOL0     H47570   4.623   7.031   7.120  0.2158 -0.9964  0.1182
  345MOL0     H47571   4.793   6.977   7.079  0.4000 -0.9659 -0.6729
  345MOL0     H47572   5.040   7.160   7.201  1.5269  0.6030 -1.8318
  345MOL0     H47573   5.190   7.327   7.331 -1.6395 -0.0304  4.4859
  345MOL0     H47574   5.097   7.765   7.374  0.7112  0.7071 -0.2951
  345MOL0     H47575   4.982   7.674   7.472  1.2377 -0.4697  1.6181
  345MOL0     H47576   5.156   7.820   7.593  1.1438 -0.3020 -1.9416
  345MOL0     H47577   5.129   7.657   7.652 -1.4520  1.4706 -0.0102
  345MOL0     H47578   5.375   7.762   7.612 -0.9200  0.2035 -0.9002
  345MOL0     H47579   5.360   7.733   7.441 -2.0065  1.2205 -0.3705
  345MOL0     H47580   5.368   7.482   7.479  0.3247  0.1102  0.7485
  345MOL0     H47581   5.317   7.510   7.643 -2.6549  2.8273 -1.7397
  345MOL0     H47582   5.593   7.573   7.516  1.8083 -1.8107  0.9513
  345MOL0     H47583   5.539   7.639   7.674  0.9299 -0.1152  0.3530
  345MOL0     H47584   5.574   7.351   7.587 -1.5499 -1.1552  1.6670
  345MOL0     H47585   5.507   7.394   7.735 -0.6728 -1.6701 -1.8349
  345MOL0     H47586   5.745   7.534   7.772  3.3415  0.0740 -1.0771
  345MOL0     H47587   5.793   7.479   7.627 -0.0887  0.5324  0.4986
  345MOL0     H47588   5.727   7.241   7.713  0.4376 -0.6165 -0.6603
  345MOL0     H47589   5.779   7.316   7.872  1.0524  2.2624  0.0537
  345MOL0     H47590   4.912   7.640   7.259 -2.7022 -1.6868  2.7358
  345MOL0     H47591   4.762   7.491   7.138  0.6027  0.7415 -0.0845
  345MOL0     H47592   4.746   7.285   6.685  1.1427 -1.1540 -2.2020
  345MOL0     H47593   4.598   7.163   6.564  1.4983  2.7507  1.1361
  345MOL0     H47594   3.545   7.464   5.468  0.5416 -2.9870 -0.1928
  345MOL0     H47595   3.324   7.499   5.509  1.4383 -1.9771  0.7411
  345MOL0     H47596   2.953   7.865   5.397  0.1134 -0.5055  0.3576
  345MOL0     H47597   2.749   7.893   5.523  0.3985 -1.5258  1.0933
  345MOL0     H47598   2.531   7.855   5.688  2.8126  1.2425  0.2068
  345MOL0     H47599   2.551   7.923   5.519  0.0167 -1.9218 -2.2541
  345MOL0     H47600   2.306   7.765   5.616 -2.2184  1.1618  0.7150
  345MOL0     H47601   2.329   7.836   5.457 -0.1356  0.1054  0.9245
  345MOL0     H47602   2.347   8.063   5.571  0.9411 -0.6888  0.8910
  345MOL0     H47603   2.199   7.977   5.575  1.2666 -1.0820 -2.0132
  345MOL0     H47604   2.389   7.989   5.824  0.3886  3.1573 -0.5997
  345MOL0     H47605   2.240   7.890   5.799  1.7803 -2.4611 -2.8984
  345MOL0     H47606   2.059   8.246   5.898  0.0352  1.1302 -1.5302
  345MOL0     H47607   2.628   7.501   5.404 -0.9809  0.0654  0.2800
  345MOL0     H47608   2.876   7.418   5.174 -0.0428  1.9739 -0.0272
  345MOL0     H47609   2.911   7.355   5.336  0.9638 -0.2254 -1.6419
  345MOL0     H47610   2.748   7.357   5.276 -0.7080  0.0798  1.1083
  346MOL0     O47611   2.787   5.561   7.746  0.1214  0.5497 -0.6067
  346MOL0     C47612   2.716   5.610   7.834  0.1684 -0.6684 -1.1786
  346MOL0     O47613   2.767   5.681   7.947 -0.0947  0.4504  0.7772
  346MOL0     C47614   2.899   5.662   7.966 -0.9753  0.0254 -0.1631
  346MOL0     C47615   2.938   5.531   7.992  0.0055 -0.8509  0.7484
  346MOL0     C47616   3.060   5.508   8.056 -0.6068 -1.0197  0.1771
  346MOL0     C47617   3.159   5.608   8.064  0.8878 -0.4719 -0.2850
  346MOL0     O47618   3.274   5.595   8.130 -0.2257  0.2103 -0.0937
  346MOL0     C47619   3.286   5.497   8.242  0.8201 -0.3649  0.1536
  346MOL0     C47620   3.425   5.508   8.306 -0.0945 -0.1456 -0.3923
  346MOL0     C47621   3.440   5.444   8.444  0.3888  0.5958 -0.2934
  346MOL0     C47622   3.360   5.520   8.552 -0.7016  0.4539  0.4183
  346MOL0     C47623   3.367   5.447   8.682  0.2354  0.4592  0.1371
  346MOL0     C47624   3.308   5.516   8.806 -0.2087 -0.3099 -0.5348
  346MOL0     C47625   3.288   5.418   8.915 -0.1527  0.8616 -0.0863
  346MOL0     C47626   3.258   5.490   9.044 -0.1167 -0.1638 -0.2778
  346MOL0     N47627   3.378   5.545   9.113 -0.1019 -0.0370  0.0907
  346MOL0     C47628   3.422   5.672   9.108  0.1800  0.4628  0.2583
  346MOL0     C47629   3.529   5.670   9.187  0.3264 -0.8134  0.0067
  346MOL0     C47630   3.632   5.773   9.222  0.1136 -0.0389  0.2314
  346MOL0     C47631   3.699   5.826   9.100 -0.6623  0.5799  1.0863
  346MOL0     C47632   3.818   5.913   9.135 -0.2325  0.5384 -0.5533
  346MOL0     C47633   3.938   5.898   9.045 -0.5502  0.7383 -0.0647
  346MOL0     O47634   3.920   5.919   8.907  0.1683 -0.3971 -0.2767
  346MOL0     C47635   3.975   6.037   8.864 -0.5092  0.0643 -0.3423
  346MOL0     C47636   4.114   6.055   8.836  0.0074  0.1610 -0.1043
  346MOL0     C47637   4.167   6.180   8.809  0.3741 -1.0032 -0.1002
  346MOL0     C47638   4.315   6.196   8.825 -0.0690 -0.1293  0.3569
  346MOL0     C47639   4.080   6.294   8.790  0.5566 -0.0835 -0.0963
  346MOL0     C47640   4.116   6.433   8.759 -0.9443 -0.1907 -0.1414
  346MOL0     O47641   4.018   6.513   8.708  0.1029 -0.5574 -0.1694
  346MOL0     C47642   4.037   6.626   8.647 -0.6465  0.3293  0.9934
  346MOL0     C47643   3.994   6.643   8.511  0.1527 -0.2739  0.1124
  346MOL0     C47644   4.003   6.771   8.449 -0.6354  0.8451 -1.0722
  346MOL0     C47645   4.064   6.878   8.522 -0.5835 -0.2733  0.8110
  346MOL0     O47646   4.112   7.001   8.472 -0.1602 -0.6603 -0.2227
  346MOL0     C47647   4.075   7.032   8.336  0.0413 -0.0845 -0.7751
  346MOL0     C47648   4.110   7.183   8.307  0.0141 -1.2607  0.8129
  346MOL0     C47649   4.258   7.215   8.279  0.4970  1.2751 -0.6849
  346MOL0     C47650   4.278   7.359   8.254  0.0970  0.0995 -0.2074
  346MOL0     C47651   4.415   7.377   8.191  0.0298  0.5560 -0.0378
  346MOL0     C47652   4.459   7.513   8.161 -0.6694 -0.9430 -0.4219
  346MOL0     C47653   4.598   7.525   8.098  0.4295 -0.1609 -0.5476
  346MOL0     C47654   4.654   7.666   8.094 -0.3259  0.1253 -0.3395
  346MOL0    Cl47655   4.757   7.704   8.242 -0.1978 -0.4328  0.0390
  346MOL0     C47656   4.109   6.857   8.648  0.7574 -1.5068 -0.6249
  346MOL0     C47657   4.088   6.738   8.718  1.3808  0.4615 -0.3684
  346MOL0     O47658   4.236   6.461   8.761 -0.5064 -0.2621  0.3119
  346MOL0     C47659   3.940   6.271   8.809 -0.3645 -0.2826  0.2518
  346MOL0     C47660   3.890   6.144   8.840 -0.6248  0.7153 -1.1661
  346MOL0     N47661   3.548   5.543   9.234 -0.4332  0.1012 -0.0229
  346MOL0     N47662   3.454   5.467   9.198  0.2087  0.3753  0.0583
  346MOL0     C47663   3.125   5.732   8.013 -0.1257  0.7218 -0.4025
  346MOL0     C47664   2.987   5.764   7.977 -0.4319  0.2599  0.1166
  346MOL0     C47665   2.568   5.587   7.826 -0.5090  0.1833 -0.0038
  346MOL0     C47666   2.484   5.696   7.857  0.4536  0.2866  0.5862
  346MOL0     C47667   2.343   5.686   7.843  0.1794 -0.6537 -1.2551
  346MOL0     C47668   2.283   5.564   7.814  0.5114 -1.0358  0.1940
  346MOL0     O47669   2.149   5.571   7.792 -0.1311 -0.4774 -0.8535
  346MOL0     C47670   2.068   5.458   7.815 -0.2756 -0.6228 -0.4490
  346MOL0     C47671   1.924   5.505   7.826  0.0094 -1.2315  0.4846
  346MOL0     C47672   1.883   5.534   7.679 -0.1080  0.4964  0.5873
  346MOL0     C47673   1.772   5.643   7.684 -0.2379  0.1210  0.0565
  346MOL0     C47674   1.649   5.589   7.744 -0.1839 -0.9787  0.3961
  346MOL0     C47675   1.543   5.540   7.783  0.9670  0.6662 -1.1552
  346MOL0     C47676   2.365   5.451   7.799  0.1889 -0.3310  0.7596
  346MOL0     C47677   2.508   5.466   7.797  0.4074 -0.9057 -0.0244
  346MOL0     C47678   2.593   5.346   7.773 -0.5130 -0.7317 -0.1245
  346MOL0     H47679   2.868   5.448   7.984 -2.7242  1.4332 -0.7740
  346MOL0     H47680   3.072   5.403   8.081 -0.9044 -0.7946  1.3482
  346MOL0     H47681   3.274   5.399   8.194  0.6666 -0.1565 -0.2394
  346MOL0     H47682   3.213   5.514   8.322  0.4377 -0.6179 -0.1378
  346MOL0     H47683   3.495   5.473   8.229  1.3600  1.6466  0.0450
  346MOL0     H47684   3.461   5.611   8.313  1.8557 -0.4624 -3.6687
  346MOL0     H47685   3.423   5.336   8.439  0.2256  0.6388 -0.7426
  346MOL0     H47686   3.543   5.448   8.482 -0.1692 -0.5193  1.4414
  346MOL0     H47687   3.390   5.624   8.569 -0.0697  0.1818  1.0374
  346MOL0     H47688   3.253   5.518   8.534 -0.6803  2.8826 -0.3871
  346MOL0     H47689   3.469   5.413   8.701 -0.1524 -1.5773 -1.1440
  346MOL0     H47690   3.311   5.354   8.668  0.1604  0.6582 -0.9627
  346MOL0     H47691   3.373   5.597   8.838  2.6068 -2.3541 -0.7021
  346MOL0     H47692   3.202   5.535   8.783 -1.5659 -2.1836  3.2520
  346MOL0     H47693   3.382   5.363   8.922  1.0805  2.8341 -0.3713
  346MOL0     H47694   3.210   5.350   8.881  0.3715  0.1429  0.1373
  346MOL0     H47695   3.190   5.575   9.033 -0.5392 -0.3629  0.7198
  346MOL0     H47696   3.210   5.422   9.115 -0.3986 -0.3031 -0.5938
  346MOL0     H47697   3.377   5.765   9.076  0.5032  0.7017  0.4904
  346MOL0     H47698   3.701   5.725   9.292  1.7672 -0.6330 -1.7235
  346MOL0     H47699   3.582   5.859   9.269  2.7419  1.0195  1.2867
  346MOL0     H47700   3.732   5.745   9.035 -1.2307  0.4796  0.9156
  346MOL0     H47701   3.626   5.887   9.045 -1.4062 -1.8531 -0.8063
  346MOL0     H47702   3.767   6.010   9.134  0.7034  1.0660  0.5589
  346MOL0     H47703   3.854   5.887   9.235  0.4239  0.2633 -0.8551
  346MOL0     H47704   4.015   5.966   9.083  1.3424 -0.3274 -1.7876
  346MOL0     H47705   3.976   5.795   9.049 -0.3530  0.7622 -1.1946
  346MOL0     H47706   4.177   5.971   8.863 -0.6683 -0.0256  0.9424
  346MOL0     H47707   4.362   6.210   8.727 -0.9390 -4.2385 -0.8489
  346MOL0     H47708   4.363   6.109   8.871  0.2270 -0.1678 -0.0176
  346MOL0     H47709   4.340   6.288   8.878 -0.7622  0.5284 -0.4249
  346MOL0     H47710   3.956   6.572   8.439 -2.0999  2.1580 -1.2967
  346MOL0     H47711   3.984   6.774   8.342  2.3367 -5.9135 -2.3104
  346MOL0     H47712   4.110   6.965   8.257 -1.2074 -0.5621 -0.9479
  346MOL0     H47713   3.966   7.033   8.330  0.1236  1.6107 -2.9023
  346MOL0     H47714   4.050   7.215   8.222 -0.2455  0.1329  1.4973
  346MOL0     H47715   4.082   7.236   8.398  1.6254  1.8609 -0.3908
  346MOL0     H47716   4.298   7.153   8.198 -0.1653 -0.7818  0.5076
  346MOL0     H47717   4.306   7.187   8.373  0.3391 -2.9310 -1.6398
  346MOL0     H47718   4.263   7.416   8.346  1.6276 -0.4033  0.3928
  346MOL0     H47719   4.213   7.399   8.175  0.5547  0.9019 -0.1826
  346MOL0     H47720   4.484   7.318   8.253  0.1667 -0.1436 -0.8272
  346MOL0     H47721   4.420   7.340   8.088 -1.4764  1.3973 -0.4444
  346MOL0     H47722   4.449   7.575   8.251  0.9658 -1.0881 -0.1133
  346MOL0     H47723   4.390   7.547   8.084 -1.5195 -1.8075 -0.0633
  346MOL0     H47724   4.591   7.494   7.993 -0.8009 -0.8315 -0.2888
  346MOL0     H47725   4.670   7.455   8.142 -0.3296 -0.5353  0.1327
  346MOL0     H47726   4.569   7.735   8.091  0.8205  1.6356  0.6304
  346MOL0     H47727   4.724   7.686   8.012  1.0825  1.8331  1.2019
  346MOL0     H47728   4.154   6.941   8.699  1.3968 -2.5389  0.5628
  346MOL0     H47729   4.119   6.715   8.819 -0.3992 -1.0912 -0.1119
  346MOL0     H47730   3.867   6.351   8.817  0.7170  0.6533  1.0335
  346MOL0     H47731   3.785   6.134   8.865 -0.3717  2.8960  1.2425
  346MOL0     H47732   3.195   5.813   8.028 -2.3672  2.9643 -1.4413
  346MOL0     H47733   2.965   5.868   7.955 -0.6045  0.3462  0.6854
  346MOL0     H47734   2.530   5.791   7.878  2.1641 -0.1987 -0.7427
  346MOL0     H47735   2.275   5.770   7.845 -0.8203 -1.4540 -0.5596
  346MOL0     H47736   2.085   5.375   7.745  0.8017 -2.1304  1.4865
  346MOL0     H47737   2.094   5.415   7.912  0.8162  0.4555 -0.2526
  346MOL0     H47738   1.927   5.594   7.889 -0.9600  0.8100 -2.1357
  346MOL0     H47739   1.865   5.423   7.867  2.5751 -2.7664  1.2907
  346MOL0     H47740   1.970   5.563   7.620  0.7609  1.9175  2.4479
  346MOL0     H47741   1.842   5.440   7.642  0.9950  0.6303 -1.0597
  346MOL0     H47742   1.761   5.685   7.584 -0.5317 -0.0891  0.0002
  346MOL0     H47743   1.810   5.724   7.747  1.2616 -0.7429  0.3020
  346MOL0     H47744   1.440   5.523   7.806  0.9888 -2.5155 -2.8529
  346MOL0     H47745   2.310   5.359   7.783 -0.0935 -0.0764  0.2283
  346MOL0     H47746   2.663   5.322   7.854 -1.2555  0.0569  0.7721
  346MOL0     H47747   2.537   5.253   7.767  0.5744 -1.3872 -0.4498
  346MOL0     H47748   2.656   5.360   7.684  1.2283  0.7300  1.2453
  347MOL0     O47749   7.760   4.295   0.411  0.1954  0.1337  0.3991
  347MOL0     C47750   7.698   4.346   0.313  0.1593 -0.1842 -0.3684
  347MOL0     O47751   7.745   4.446   0.235  0.7152  0.1617  0.7439
  347MOL0     C47752   7.877   4.495   0.250 -0.7880  0.0087 -0.0783
  347MOL0     C47753   7.942   4.526   0.369 -0.5220 -0.0243 -0.6205
  347MOL0     C47754   8.069   4.584   0.358  0.5194  0.5347 -0.5752
  347MOL0     C47755   8.125   4.611   0.243  0.2925 -0.5239  0.1368
  347MOL0     O47756   8.249   4.665   0.227 -0.0412  0.2250 -0.7245
  347MOL0     C47757   8.305   4.728   0.337  0.5927 -1.7776 -0.2345
  347MOL0     C47758   8.432   4.800   0.286  0.2326  0.1774 -0.2267
  347MOL0     C47759   8.542   4.708   0.234 -0.0301  0.4415  0.3053
  347MOL0     C47760   8.681   4.757   0.256 -0.0583 -1.1005  0.2818
  347MOL0     C47761   8.796   4.652   0.254  1.2602  0.4021  0.8969
  347MOL0     C47762   8.829   4.633   0.101 -0.1662 -0.1665  0.7684
  347MOL0     C47763   8.955   4.548   0.097 -0.7321 -0.3137  0.3644
  347MOL0     C47764   9.002   4.541  -0.051  0.1877  0.1509 -0.0124
  347MOL0     N47765   9.138   4.501  -0.054 -0.7869 -0.6718  0.1445
  347MOL0     C47766   9.225   4.524  -0.158 -0.1379 -0.1459  0.3022
  347MOL0     C47767   9.333   4.444  -0.128  0.1575  0.8801 -0.1831
  347MOL0     C47768   9.457   4.428  -0.206 -0.5676 -0.1858  0.3591
  347MOL0     C47769   9.434   4.314  -0.306 -0.1566  0.2621 -0.8205
  347MOL0     C47770   9.554   4.284  -0.403  0.1115  0.5051 -0.1784
  347MOL0     C47771   9.539   4.153  -0.480 -0.1103 -0.2348 -1.0571
  347MOL0     O47772   9.650   4.131  -0.571  0.0827 -0.7251  1.0794
  347MOL0     C47773   9.769   4.085  -0.515 -0.5636 -0.1822 -0.4448
  347MOL0     C47774   9.867   4.063  -0.612  0.0763 -0.5317  0.2722
  347MOL0     C47775   9.997   4.015  -0.580 -0.2017  0.5245  0.7217
  347MOL0     C47776  10.086   4.000  -0.701  0.4686 -0.7523  1.3474
  347MOL0     C47777  10.035   3.983  -0.454  0.0407  0.7741  0.4624
  347MOL0     C47778  10.155   3.908  -0.424  0.7050 -0.0488  0.0173
  347MOL0     O47779  10.150   3.810  -0.326  0.2247 -0.7840 -0.2574
  347MOL0     C47780  10.245   3.712  -0.324  0.0096  1.0504  0.2452
  347MOL0     C47781  10.382   3.740  -0.347  0.1647  0.6684  0.3084
  347MOL0     C47782  10.479   3.633  -0.361 -0.3775  0.1364 -0.0972
  347MOL0     C47783  10.444   3.501  -0.352 -0.3655  0.2986  0.2108
  347MOL0     O47784  10.544   3.414  -0.391  0.0689 -0.3829  0.4129
  347MOL0     C47785  10.539   3.268  -0.366 -0.8828  0.2746 -0.7431
  347MOL0     C47786  10.453   3.192  -0.469 -1.0079 -1.2310 -0.5937
  347MOL0     C47787  10.496   3.221  -0.605 -0.6295 -0.5642  0.4200
  347MOL0     C47788  10.422   3.127  -0.699 -0.4561  0.3337  0.3168
  347MOL0     C47789  10.455   3.150  -0.844  0.6201  0.2416  0.3349
  347MOL0     C47790  10.380   3.058  -0.940 -0.2287  0.3689  0.1483
  347MOL0     C47791  10.449   3.051  -1.076 -0.4275  0.1510  0.3818
  347MOL0     C47792  10.376   2.962  -1.166  0.0771 -0.1105  0.0199
  347MOL0    Cl47793  10.380   2.793  -1.089  0.0027 -0.0227 -0.5516
  347MOL0     C47794  10.318   3.469  -0.309  0.7683 -0.0882  0.0887
  347MOL0     C47795  10.218   3.572  -0.304  0.1379 -0.4648 -0.8164
  347MOL0     O47796  10.255   3.945  -0.487 -0.1142 -0.0943  0.2720
  347MOL0     C47797   9.937   4.004  -0.355 -0.0028  0.8126  0.1762
  347MOL0     C47798   9.809   4.049  -0.384 -0.4897  0.9520 -0.3288
  347MOL0     N47799   9.315   4.383  -0.008  0.1189 -0.0923  0.1741
  347MOL0     N47800   9.202   4.433   0.043 -0.1042 -0.0517  0.4422
  347MOL0     C47801   8.072   4.577   0.122 -0.3640  1.1171 -0.0799
  347MOL0     C47802   7.943   4.521   0.127 -0.3914 -0.7879  0.4658
  347MOL0     C47803   7.582   4.264   0.259 -0.3886  0.1175 -0.6933
  347MOL0     C47804   7.543   4.287   0.129 -0.5985  0.0127  0.0743
  347MOL0     C47805   7.438   4.223   0.072  0.2954 -0.5898  0.3476
  347MOL0     C47806   7.369   4.129   0.136  0.0321  0.9413 -0.5461
  347MOL0     O47807   7.271   4.060   0.065 -0.3533 -0.1677 -0.4631
  347MOL0     C47808   7.152   4.030   0.135 -0.7495 -0.0639 -0.6814
  347MOL0     C47809   7.036   4.031   0.037  0.4795  0.4923 -0.1603
  347MOL0     C47810   6.913   3.951   0.067 -0.6385  0.0094 -0.3977
  347MOL0     C47811   6.817   4.034   0.160 -0.5789 -0.2114  0.1303
  347MOL0     C47812   6.714   3.944   0.220 -1.2245  0.4490 -1.4705
  347MOL0     C47813   6.641   3.859   0.254  0.7405 -0.3091 -0.5320
  347MOL0     C47814   7.402   4.100   0.269 -0.6130 -0.2659 -0.2840
  347MOL0     C47815   7.501   4.173   0.338 -0.1192 -0.0951  0.7411
  347MOL0     C47816   7.532   4.150   0.490  0.1782 -0.4111 -0.9311
  347MOL0     H47817   7.891   4.508   0.463  0.3239  2.4330  0.3710
  347MOL0     H47818   8.110   4.614   0.454 -1.9837  2.0452  0.1161
  347MOL0     H47819   8.327   4.662   0.421  0.4322 -1.0580  0.3865
  347MOL0     H47820   8.235   4.805   0.372 -0.4216 -3.0159  0.5383
  347MOL0     H47821   8.408   4.870   0.206 -1.1725  0.9308  0.8079
  347MOL0     H47822   8.466   4.862   0.369  0.6350  1.4469 -1.3070
  347MOL0     H47823   8.543   4.620   0.298  1.3461  0.3714  0.2198
  347MOL0     H47824   8.521   4.686   0.129 -2.7717  5.5692 -0.5607
  347MOL0     H47825   8.696   4.834   0.179  3.5093 -2.0445 -0.1179
  347MOL0     H47826   8.690   4.815   0.348 -0.1180  1.0968 -1.0316
  347MOL0     H47827   8.757   4.558   0.295 -0.2908  0.3650 -0.5487
  347MOL0     H47828   8.881   4.692   0.309  0.9022  1.2050  0.8764
  347MOL0     H47829   8.741   4.590   0.052 -0.1798 -0.7881  1.3216
  347MOL0     H47830   8.834   4.727   0.046  1.3044 -0.9766 -0.5722
  347MOL0     H47831   8.918   4.453   0.137 -1.8497  0.4353  1.1708
  347MOL0     H47832   9.039   4.591   0.154  0.8002 -1.9361 -0.5799
  347MOL0     H47833   8.931   4.468  -0.092  0.1745  0.7334 -1.0548
  347MOL0     H47834   8.979   4.637  -0.098 -0.8079 -0.6830 -1.3082
  347MOL0     H47835   9.211   4.595  -0.239  1.4744  0.0519  0.1626
  347MOL0     H47836   9.536   4.419  -0.131  1.4932  2.2607 -1.3578
  347MOL0     H47837   9.477   4.524  -0.254 -0.4572 -1.1643 -1.6658
  347MOL0     H47838   9.415   4.222  -0.250 -2.3776  1.4968  0.6148
  347MOL0     H47839   9.346   4.332  -0.367  0.8652  2.3715 -1.7945
  347MOL0     H47840   9.556   4.363  -0.479 -0.0456  0.3991 -0.2923
  347MOL0     H47841   9.649   4.283  -0.348  1.0581 -4.3837 -1.4677
  347MOL0     H47842   9.527   4.077  -0.403 -2.3372  1.0248 -0.0520
  347MOL0     H47843   9.437   4.159  -0.520 -1.5175 -1.0554  2.0930
  347MOL0     H47844   9.831   4.067  -0.715 -0.1402  0.0864  0.3729
  347MOL0     H47845  10.122   3.900  -0.725  1.3762 -0.2081  0.3284
  347MOL0     H47846  10.176   4.062  -0.705 -0.2297  0.3614 -3.5449
  347MOL0     H47847  10.028   4.033  -0.788  0.8904 -4.8153 -0.7107
  347MOL0     H47848  10.420   3.841  -0.355  2.1929 -0.1130 -0.5084
  347MOL0     H47849  10.582   3.667  -0.361 -0.8062  1.5047  0.0279
  347MOL0     H47850  10.642   3.232  -0.367 -1.1731 -0.9070  2.1162
  347MOL0     H47851  10.509   3.240  -0.265  1.9753 -2.5860 -0.5180
  347MOL0     H47852  10.457   3.083  -0.457 -2.5711 -1.4646 -1.9146
  347MOL0     H47853  10.352   3.229  -0.449 -0.1225 -0.1998  2.7063
  347MOL0     H47854  10.604   3.218  -0.620 -0.6792  0.7844 -0.4186
  347MOL0     H47855  10.457   3.319  -0.635 -1.9493 -1.3340 -0.4849
  347MOL0     H47856  10.315   3.149  -0.686 -1.0897  0.3684 -3.7821
  347MOL0     H47857  10.429   3.020  -0.677  0.1674  0.1618 -0.6870
  347MOL0     H47858  10.447   3.253  -0.880  0.2632 -0.3140 -1.2629
  347MOL0     H47859  10.561   3.124  -0.850  0.2067 -2.0431  1.7182
  347MOL0     H47860  10.273   3.080  -0.947 -0.5624 -0.4980  1.9003
  347MOL0     H47861  10.388   2.960  -0.892 -0.6237 -0.7291 -1.9155
  347MOL0     H47862  10.553   3.020  -1.067  1.5870  5.2663 -1.5607
  347MOL0     H47863  10.451   3.150  -1.122  0.7378 -0.2535 -0.4487
  347MOL0     H47864  10.421   2.954  -1.266  0.8032  1.3952  0.1906
  347MOL0     H47865  10.273   2.993  -1.187 -0.1855 -0.3528  0.9249
  347MOL0     H47866  10.300   3.365  -0.288 -0.9313  0.0939 -0.3043
  347MOL0     H47867  10.112   3.552  -0.292  0.1834 -1.7000 -2.1461
  347MOL0     H47868   9.955   3.972  -0.253  2.3142 -0.1789 -0.4740
  347MOL0     H47869   9.738   4.054  -0.302  1.9274 -1.2236  2.1227
  347MOL0     H47870   8.116   4.610   0.029  0.0930  2.0955  0.4622
  347MOL0     H47871   7.889   4.491   0.038 -0.9472  1.0333  0.1295
  347MOL0     H47872   7.591   4.367   0.073  2.2253 -0.7510  1.2009
  347MOL0     H47873   7.403   4.251  -0.027  2.2138 -1.9058 -0.7653
  347MOL0     H47874   7.167   3.935   0.187  0.6734  0.8825  0.7126
  347MOL0     H47875   7.145   4.106   0.214  1.4742  0.2302 -0.7218
  347MOL0     H47876   7.068   4.002  -0.064 -0.7612 -2.7555  0.2576
  347MOL0     H47877   7.009   4.136   0.021 -0.9289  0.0632 -0.7555
  347MOL0     H47878   6.843   3.940  -0.017 -1.8350 -0.4915  0.6396
  347MOL0     H47879   6.942   3.854   0.109 -1.3205 -1.1305 -2.3785
  347MOL0     H47880   6.772   4.108   0.093  0.2064  0.4657  0.3386
  347MOL0     H47881   6.873   4.091   0.235 -0.4532  3.3393 -2.3981
  347MOL0     H47882   6.577   3.778   0.282  0.7214 -0.4640 -1.0152
  347MOL0     H47883   7.345   4.025   0.322  0.8231 -1.3211 -0.1942
  347MOL0     H47884   7.623   4.100   0.524 -0.2657 -0.0383  0.9454
  347MOL0     H47885   7.538   4.242   0.549 -1.0329 -0.2997 -0.9490
  347MOL0     H47886   7.445   4.102   0.536  0.0982  0.6805  0.1131
  348MOL0     O47887   2.937   1.367   4.769  0.4364  0.6509 -0.0796
  348MOL0     C47888   2.983   1.471   4.743 -0.2974  0.1773  0.3006
  348MOL0     O47889   2.991   1.580   4.833 -0.5488  0.5403  0.6564
  348MOL0     C47890   2.941   1.535   4.962  0.0557 -0.1781  0.2595
  348MOL0     C47891   3.030   1.460   5.046  0.0145  0.4680  0.2132
  348MOL0     C47892   2.999   1.436   5.182  0.0431  0.4480  0.7055
  348MOL0     C47893   2.873   1.467   5.236 -0.1738 -0.0639  0.3872
  348MOL0     O47894   2.835   1.440   5.366 -0.0437  0.1907  0.8734
  348MOL0     C47895   2.894   1.330   5.437  0.5627  0.4321 -0.6730
  348MOL0     C47896   2.797   1.258   5.537  0.1498  0.0552  0.0205
  348MOL0     C47897   2.712   1.349   5.617  0.5435 -1.2016 -0.5458
  348MOL0     C47898   2.805   1.449   5.687 -0.0662  0.3852 -0.8854
  348MOL0     C47899   2.747   1.531   5.801  0.5779 -0.7095 -0.4191
  348MOL0     C47900   2.839   1.645   5.846  0.5586  0.4651 -0.1140
  348MOL0     C47901   2.833   1.691   5.992 -0.3644 -0.3767 -0.6623
  348MOL0     C47902   2.864   1.577   6.092 -0.1754  0.2652  0.4910
  348MOL0     N47903   2.905   1.639   6.219  0.7017  0.0619 -0.4698
  348MOL0     C47904   3.031   1.687   6.251  0.2489 -0.2303 -0.0337
  348MOL0     C47905   3.027   1.721   6.379 -0.7611 -0.4750  0.0706
  348MOL0     C47906   3.136   1.783   6.464 -0.1743 -0.1752  0.1138
  348MOL0     C47907   3.138   1.936   6.461 -0.1907 -0.4390  0.6482
  348MOL0     C47908   3.244   2.012   6.533 -0.7730  0.0789  0.2960
  348MOL0     C47909   3.266   2.153   6.469  0.2500 -0.2569 -0.1489
  348MOL0     O47910   3.329   2.163   6.340  0.0903  0.4895  0.1663
  348MOL0     C47911   3.456   2.130   6.319 -0.2401  0.5393  0.7573
  348MOL0     C47912   3.474   1.996   6.304 -0.2274 -0.3065  0.3097
  348MOL0     C47913   3.600   1.949   6.271 -0.3026 -0.3273 -0.1607
  348MOL0     C47914   3.608   1.800   6.247  0.4495  0.2544 -0.2580
  348MOL0     C47915   3.715   2.037   6.262 -0.0127 -0.5665 -0.3676
  348MOL0     C47916   3.852   1.998   6.229 -0.0363 -0.1460  0.2618
  348MOL0     O47917   3.939   2.093   6.173 -0.4496  0.1933  0.2199
  348MOL0     C47918   4.064   2.039   6.126 -0.6891 -0.1282 -0.2074
  348MOL0     C47919   4.182   2.046   6.200  0.1953  0.0225  1.1707
  348MOL0     C47920   4.305   2.003   6.148  0.7576  0.1522  1.2912
  348MOL0     C47921   4.304   1.944   6.016 -0.5528  0.6007  0.3168
  348MOL0     O47922   4.416   1.895   5.949  0.2090 -0.2537  0.4891
  348MOL0     C47923   4.529   1.974   5.956 -0.0553  0.8007 -0.5264
  348MOL0     C47924   4.644   1.916   5.870 -0.3374  0.5966 -1.1548
  348MOL0     C47925   4.617   1.932   5.715 -0.8725  0.5430 -0.4196
  348MOL0     C47926   4.727   1.846   5.649 -0.0319  0.0868 -1.6593
  348MOL0     C47927   4.861   1.915   5.607 -0.3838 -0.1355  1.0489
  348MOL0     C47928   4.965   1.810   5.553 -0.1182 -0.3334 -0.1165
  348MOL0     C47929   5.111   1.874   5.539 -0.1820  0.2435 -0.6051
  348MOL0     C47930   5.224   1.769   5.518 -0.2178  0.4479  0.1865
  348MOL0    Cl47931   5.201   1.684   5.365 -0.1276  0.2989  0.2452
  348MOL0     C47932   4.183   1.927   5.950 -0.2235 -0.0411 -0.6995
  348MOL0     C47933   4.067   1.974   6.009  0.3760  0.5585 -0.0657
  348MOL0     O47934   3.879   1.885   6.260 -0.1567  0.0180 -0.1797
  348MOL0     C47935   3.684   2.174   6.259  0.1345  0.1461 -0.4822
  348MOL0     C47936   3.556   2.224   6.294 -0.4015  0.4763 -0.2652
  348MOL0     N47937   2.903   1.685   6.425  0.2524 -0.3723 -0.1987
  348MOL0     N47938   2.825   1.640   6.330 -0.5890  0.4318  0.3732
  348MOL0     C47939   2.781   1.544   5.150 -0.2248  0.1276  0.6045
  348MOL0     C47940   2.822   1.577   5.019  0.1572 -0.0427  0.2928
  348MOL0     C47941   3.029   1.482   4.612  0.0260 -0.7558  0.4738
  348MOL0     C47942   2.973   1.406   4.510 -0.2120 -0.0836  0.7343
  348MOL0     C47943   3.026   1.404   4.376 -0.6244  0.6027  0.4371
  348MOL0     C47944   3.135   1.482   4.342  0.2725  0.1389 -0.6522
  348MOL0     O47945   3.204   1.462   4.227 -0.8652  0.0093  0.0445
  348MOL0     C47946   3.303   1.353   4.221  0.1736  0.3030 -0.2264
  348MOL0     C47947   3.435   1.386   4.293 -0.0866 -0.3382  1.4971
  348MOL0     C47948   3.501   1.503   4.207  0.4837  0.0879 -1.2471
  348MOL0     C47949   3.644   1.532   4.223 -0.2997  0.0903 -0.1315
  348MOL0     C47950   3.692   1.615   4.337  0.8878  0.1451 -0.5279
  348MOL0     C47951   3.739   1.681   4.431  0.1042  0.1419 -0.5572
  348MOL0     C47952   3.175   1.584   4.433 -0.6957  0.3166  0.2634
  348MOL0     C47953   3.138   1.569   4.569 -0.0174 -0.6119  0.0285
  348MOL0     C47954   3.194   1.672   4.657  0.0167  0.5326 -0.3184
  348MOL0     H47955   3.129   1.432   5.013  1.0382 -0.1786  3.4079
  348MOL0     H47956   3.069   1.373   5.236 -0.8380 -1.2806 -0.0814
  348MOL0     H47957   2.981   1.365   5.494  0.8952  1.9733 -2.0539
  348MOL0     H47958   2.923   1.252   5.366  0.3197 -1.4792  1.2281
  348MOL0     H47959   2.742   1.190   5.472 -0.0454 -0.7629  1.0234
  348MOL0     H47960   2.846   1.194   5.611  0.5816  1.7398  1.2677
  348MOL0     H47961   2.644   1.411   5.558  0.2144 -1.1204 -0.0807
  348MOL0     H47962   2.650   1.281   5.676 -2.2447 -0.5460 -2.4956
  348MOL0     H47963   2.899   1.402   5.717 -0.5479 -0.6840 -1.0095
  348MOL0     H47964   2.822   1.524   5.609 -0.0923  0.1535 -1.1152
  348MOL0     H47965   2.710   1.477   5.888  0.0675 -1.3250 -1.0027
  348MOL0     H47966   2.660   1.586   5.763  1.5244  1.6396  0.6265
  348MOL0     H47967   2.945   1.621   5.837  0.5527 -0.7002  2.0565
  348MOL0     H47968   2.813   1.734   5.788  0.8610 -0.3046 -1.4783
  348MOL0     H47969   2.738   1.742   6.008  0.1858  0.8418 -1.1479
  348MOL0     H47970   2.905   1.770   6.014  0.2607 -0.8701 -0.9108
  348MOL0     H47971   2.777   1.512   6.103  1.8858 -2.6794  0.6270
  348MOL0     H47972   2.943   1.510   6.056 -2.2186 -1.1431 -1.6459
  348MOL0     H47973   3.111   1.704   6.180 -1.0092  0.6698 -1.3098
  348MOL0     H47974   3.226   1.739   6.421  0.7574  1.5207  0.2274
  348MOL0     H47975   3.125   1.764   6.571 -1.2422  2.0611  0.4757
  348MOL0     H47976   3.152   1.965   6.357  0.8352 -0.2351  0.8267
  348MOL0     H47977   3.035   1.961   6.486 -0.8827 -1.9537 -0.5376
  348MOL0     H47978   3.209   2.020   6.636 -2.4212 -1.6494 -0.0821
  348MOL0     H47979   3.342   1.963   6.527 -1.2749 -0.8537 -0.6613
  348MOL0     H47980   3.168   2.201   6.462  0.9564  1.2546  0.0491
  348MOL0     H47981   3.331   2.207   6.538  3.4314 -2.2887 -1.2869
  348MOL0     H47982   3.387   1.932   6.313 -1.2914  1.4093  4.3555
  348MOL0     H47983   3.512   1.761   6.282  2.0179 -1.1083  2.9244
  348MOL0     H47984   3.691   1.744   6.290  0.4062  0.0510 -0.4376
  348MOL0     H47985   3.616   1.785   6.139  0.9186  1.2647 -0.3807
  348MOL0     H47986   4.158   2.085   6.299 -1.6044 -1.5740  1.4161
  348MOL0     H47987   4.400   2.018   6.198  0.8015 -3.7505  2.7171
  348MOL0     H47988   4.510   2.076   5.919  1.3955  1.0035 -0.7834
  348MOL0     H47989   4.565   1.977   6.059  1.4022 -1.7227 -0.8822
  348MOL0     H47990   4.734   1.974   5.895 -1.5749  1.3654  2.0083
  348MOL0     H47991   4.661   1.815   5.908  0.0336  1.3651  0.8548
  348MOL0     H47992   4.621   2.038   5.687 -0.3308  0.5852 -0.2036
  348MOL0     H47993   4.514   1.898   5.700 -0.9793 -0.8382  2.7977
  348MOL0     H47994   4.676   1.809   5.560 -0.9639  2.6110 -2.2698
  348MOL0     H47995   4.748   1.771   5.726 -1.4279  1.4132  0.1216
  348MOL0     H47996   4.827   1.992   5.537 -1.5297 -0.4659  1.2113
  348MOL0     H47997   4.908   1.969   5.689  2.2350 -1.9517  0.8655
  348MOL0     H47998   4.936   1.767   5.457  0.3854 -1.8248  0.3780
  348MOL0     H47999   4.965   1.722   5.617  1.3581 -0.5935 -0.4536
  348MOL0     H48000   5.137   1.919   5.636 -1.5884  0.3753 -0.2742
  348MOL0     H48001   5.123   1.945   5.457 -1.1908  2.3820  1.0132
  348MOL0     H48002   5.208   1.697   5.599  1.4482 -1.9065 -1.4620
  348MOL0     H48003   5.323   1.814   5.531  0.9799 -2.1345  0.5722
  348MOL0     H48004   4.176   1.892   5.848 -0.6646 -1.3579 -0.2362
  348MOL0     H48005   3.972   1.981   5.958  1.1658  0.2940 -1.6594
  348MOL0     H48006   3.764   2.235   6.218 -1.3635  1.8399 -0.9965
  348MOL0     H48007   3.549   2.330   6.317 -0.4168  0.2086  1.0400
  348MOL0     H48008   2.681   1.567   5.186  0.5172  0.0004  2.8663
  348MOL0     H48009   2.755   1.647   4.968  1.2362  1.4716  0.8772
  348MOL0     H48010   2.889   1.341   4.534 -0.9610 -0.2449 -2.0692
  348MOL0     H48011   2.993   1.327   4.306  1.3042  0.7693 -0.7299
  348MOL0     H48012   3.262   1.259   4.260  2.9648 -0.4563  1.1188
  348MOL0     H48013   3.327   1.336   4.116 -2.2936  0.6765 -0.9289
  348MOL0     H48014   3.504   1.302   4.283  1.0801  0.7589 -0.2614
  348MOL0     H48015   3.429   1.409   4.400 -2.4050  2.1044  0.9634
  348MOL0     H48016   3.477   1.493   4.100 -0.9033  0.5703 -1.0013
  348MOL0     H48017   3.445   1.592   4.237 -2.0369 -1.9304  0.5007
  348MOL0     H48018   3.667   1.581   4.128 -1.4103  2.1006  0.5684
  348MOL0     H48019   3.689   1.432   4.225  0.6457  0.5202  0.7577
  348MOL0     H48020   3.750   1.737   4.521  2.2946  0.2310 -0.8178
  348MOL0     H48021   3.246   1.659   4.401 -0.3003  0.4581  1.4445
  348MOL0     H48022   3.238   1.624   4.745  0.8464 -1.8231 -1.9198
  348MOL0     H48023   3.275   1.724   4.605  0.8309 -0.5100 -0.1210
  348MOL0     H48024   3.121   1.750   4.681  0.7974  0.6527  1.9269
  349MOL0     O48025   2.834   3.578   9.168  0.1370  0.2573  0.4893
  349MOL0     C48026   2.867   3.456   9.171  0.4146  0.1638  0.5753
  349MOL0     O48027   2.991   3.405   9.182  0.0211 -0.0187  0.0676
  349MOL0     C48028   3.090   3.493   9.201  0.3534 -0.6128 -0.1086
  349MOL0     C48029   3.147   3.498   9.326 -0.2091  0.3314  0.0431
  349MOL0     C48030   3.258   3.585   9.355  1.1034  0.8121  0.0287
  349MOL0     C48031   3.303   3.671   9.256  0.2316 -0.5748 -0.6564
  349MOL0     O48032   3.411   3.761   9.288  0.1100  0.3391 -0.4941
  349MOL0     C48033   3.478   3.830   9.186 -0.3218 -0.2391 -0.1924
  349MOL0     C48034   3.608   3.887   9.245  0.3045 -0.7097 -0.3934
  349MOL0     C48035   3.711   3.783   9.279  0.5895  0.1466 -0.0977
  349MOL0     C48036   3.846   3.837   9.324 -0.4866 -0.1650  0.5458
  349MOL0     C48037   3.941   3.720   9.368 -0.9467 -0.1048 -0.7765
  349MOL0     C48038   4.049   3.775   9.456 -0.6898  0.4634 -0.3546
  349MOL0     C48039   4.153   3.661   9.480 -0.8279 -0.8260  0.1550
  349MOL0     C48040   4.266   3.719   9.567 -0.3917 -0.0415 -0.0003
  349MOL0     N48041   4.380   3.636   9.613  0.9104  0.0852  0.1220
  349MOL0     C48042   4.392   3.576   9.732 -0.9002 -0.0518 -0.7204
  349MOL0     C48043   4.492   3.491   9.720 -0.4041 -0.1641 -0.6529
  349MOL0     C48044   4.529   3.405   9.836  0.3143  0.1578  1.5028
  349MOL0     C48045   4.616   3.288   9.773 -0.6410  0.0292 -0.3946
  349MOL0     C48046   4.646   3.188   9.883  0.7933  0.3587 -0.1809
  349MOL0     C48047   4.703   3.065   9.815 -0.3160 -0.0935 -0.2929
  349MOL0     O48048   4.662   2.935   9.876  0.5453 -0.3166 -0.3375
  349MOL0     C48049   4.731   2.896   9.987 -0.3463  1.0182 -0.1614
  349MOL0     C48050   4.716   2.763  10.031  0.0887 -0.5736  0.1656
  349MOL0     C48051   4.797   2.714  10.139  0.2544  0.1270 -0.5361
  349MOL0     C48052   4.764   2.576  10.190  0.6654  0.3047  0.0439
  349MOL0     C48053   4.881   2.809  10.207  0.5905  0.8697 -0.8178
  349MOL0     C48054   4.992   2.757  10.310  0.9023 -0.2601  0.1730
  349MOL0     O48055   5.027   2.840  10.407 -0.9798  0.5996 -0.2632
  349MOL0     C48056   5.099   2.791  10.516  0.4279 -0.5427 -0.0072
  349MOL0     C48057   5.077   2.668  10.577 -0.2882  0.3816  0.7273
  349MOL0     C48058   5.157   2.620  10.679  0.2803  0.1325  0.3171
  349MOL0     C48059   5.268   2.701  10.727  0.5428 -0.5888 -0.2148
  349MOL0     O48060   5.346   2.675  10.840  0.2414  0.8350 -0.0716
  349MOL0     C48061   5.344   2.545  10.902 -0.2777  0.6966  0.9398
  349MOL0     C48062   5.470   2.532  10.990  0.5818  0.1621 -0.2756
  349MOL0     C48063   5.600   2.571  10.926 -0.1082 -0.2872 -0.0946
  349MOL0     C48064   5.651   2.438  10.869 -0.3332  0.2925  0.2360
  349MOL0     C48065   5.805   2.435  10.860  0.3690 -0.3435 -0.4615
  349MOL0     C48066   5.874   2.424  10.998 -0.3031  0.6033  0.3184
  349MOL0     C48067   6.023   2.425  10.963  0.5481 -0.4697 -0.4815
  349MOL0     C48068   6.113   2.370  11.081  0.2054 -0.7444  0.3545
  349MOL0    Cl48069   6.098   2.485  11.214  0.5336 -0.3046  0.1179
  349MOL0     C48070   5.284   2.834  10.679 -0.6021 -0.0171  0.8961
  349MOL0     C48071   5.206   2.875  10.569 -0.4802  0.6520  0.3221
  349MOL0     O48072   5.030   2.647  10.288  0.0627 -1.0021 -0.0165
  349MOL0     C48073   4.886   2.941  10.178 -0.0084 -1.4857 -0.6683
  349MOL0     C48074   4.818   2.981  10.059  0.2091 -0.0438 -0.8763
  349MOL0     N48075   4.527   3.487   9.587  0.4485  0.0836  0.4729
  349MOL0     N48076   4.458   3.574   9.522  0.0840 -0.8515 -0.4888
  349MOL0     C48077   3.239   3.673   9.128 -0.4775  0.1796 -0.3585
  349MOL0     C48078   3.130   3.586   9.106  0.0339  0.4822 -0.0528
  349MOL0     C48079   2.753   3.362   9.193 -0.2708  0.1454 -0.1820
  349MOL0     C48080   2.761   3.234   9.133  0.6444  0.1546 -0.7037
  349MOL0     C48081   2.652   3.139   9.139 -0.2089  0.3750  0.0786
  349MOL0     C48082   2.541   3.156   9.215  0.4727 -0.5201  0.3481
  349MOL0     O48083   2.436   3.066   9.213 -0.8620 -0.3369 -1.0802
  349MOL0     C48084   2.316   3.081   9.296  0.2395 -0.1979 -0.2896
  349MOL0     C48085   2.200   3.029   9.216  0.6141 -0.2527  0.5610
  349MOL0     C48086   2.149   3.116   9.096  0.4243 -0.2596 -0.5758
  349MOL0     C48087   2.023   3.083   9.013  0.2460  0.0891 -0.0225
  349MOL0     C48088   2.049   2.978   8.910  0.5580 -0.7038 -0.9350
  349MOL0     C48089   2.092   2.906   8.825  0.5780  0.1685  0.5850
  349MOL0     C48090   2.541   3.283   9.295 -0.8122  0.1684 -0.2468
  349MOL0     C48091   2.644   3.382   9.283  0.0811 -0.8658  0.5231
  349MOL0     C48092   2.634   3.509   9.361  0.1800 -1.0841  0.5128
  349MOL0     H48093   3.124   3.426   9.403 -2.7535  2.7189  1.7177
  349MOL0     H48094   3.304   3.559   9.450  0.4612 -0.1086  0.1052
  349MOL0     H48095   3.421   3.916   9.151 -1.7227 -0.7463  0.7609
  349MOL0     H48096   3.505   3.761   9.105 -0.3317  1.3227 -1.5675
  349MOL0     H48097   3.655   3.951   9.169 -0.4681  0.9581  0.4833
  349MOL0     H48098   3.578   3.937   9.337  0.4949 -2.0927  0.4349
  349MOL0     H48099   3.675   3.709   9.351 -0.7939  0.6163 -0.2618
  349MOL0     H48100   3.733   3.732   9.185 -1.5149  0.5096 -0.8385
  349MOL0     H48101   3.894   3.893   9.243  0.7887 -2.1197 -0.1351
  349MOL0     H48102   3.827   3.894   9.415 -1.2085 -1.5723  1.3169
  349MOL0     H48103   3.987   3.673   9.280 -0.1909 -0.5129 -0.1857
  349MOL0     H48104   3.887   3.635   9.410  0.7448 -0.8967 -0.1259
  349MOL0     H48105   4.100   3.858   9.406 -1.3240  0.9263 -0.2454
  349MOL0     H48106   4.010   3.808   9.553 -2.9481 -0.6453 -0.8060
  349MOL0     H48107   4.192   3.631   9.382  1.7727  0.5572  0.6830
  349MOL0     H48108   4.109   3.570   9.523 -1.9308  0.4126  1.7701
  349MOL0     H48109   4.294   3.810   9.512 -4.2027 -1.2565 -4.5025
  349MOL0     H48110   4.207   3.752   9.653  1.3134  0.6162  0.9683
  349MOL0     H48111   4.332   3.588   9.821  1.1425  0.6353  0.6271
  349MOL0     H48112   4.437   3.376   9.887 -0.0467 -2.3556 -0.3845
  349MOL0     H48113   4.598   3.460   9.900 -2.3206  2.3976  2.6359
  349MOL0     H48114   4.555   3.238   9.698 -0.9414  1.6994 -1.3309
  349MOL0     H48115   4.712   3.334   9.750  0.2716 -0.9731  1.2083
  349MOL0     H48116   4.711   3.241   9.954  1.6879 -1.4485  0.4192
  349MOL0     H48117   4.551   3.159   9.929  0.8209 -2.0295 -1.4915
  349MOL0     H48118   4.685   3.053   9.708 -2.6500 -1.2668  0.1725
  349MOL0     H48119   4.812   3.070   9.819 -0.3391  1.3353 -0.7987
  349MOL0     H48120   4.645   2.705   9.974  3.0149 -2.4396 -1.9091
  349MOL0     H48121   4.808   2.504  10.121 -2.9671 -0.3087 -1.8703
  349MOL0     H48122   4.655   2.567  10.193  0.3251  1.1615 -4.0881
  349MOL0     H48123   4.793   2.557  10.294 -1.2447 -1.2482  0.3423
  349MOL0     H48124   4.990   2.609  10.549  1.0594 -1.2377 -0.2686
  349MOL0     H48125   5.131   2.524  10.722  1.1300 -1.9197 -3.2897
  349MOL0     H48126   5.251   2.528  10.957 -1.7447 -0.6373 -1.7549
  349MOL0     H48127   5.361   2.473  10.821 -0.1568 -0.4908  1.9939
  349MOL0     H48128   5.457   2.611  11.065  2.1144  0.4879 -0.3188
  349MOL0     H48129   5.486   2.435  11.037 -1.0024 -0.6394 -1.2935
  349MOL0     H48130   5.668   2.613  11.001  0.4084  0.7846 -1.1219
  349MOL0     H48131   5.586   2.635  10.838 -0.2967 -3.0484 -2.1950
  349MOL0     H48132   5.607   2.431  10.770 -1.0363 -0.6400  0.5912
  349MOL0     H48133   5.628   2.342  10.917 -1.8796  0.0311 -0.9562
  349MOL0     H48134   5.823   2.353  10.790  0.5184  1.8765 -3.2421
  349MOL0     H48135   5.835   2.523  10.801  0.6610 -1.0031 -1.3171
  349MOL0     H48136   5.841   2.332  11.046 -1.3480  1.2765  0.9065
  349MOL0     H48137   5.841   2.504  11.065  2.3093 -0.3151  2.9149
  349MOL0     H48138   6.059   2.528  10.957  1.4578 -0.6811  0.8673
  349MOL0     H48139   6.047   2.375  10.869  0.6277 -0.9541 -0.2114
  349MOL0     H48140   6.219   2.368  11.055  0.3864 -1.3322  1.1012
  349MOL0     H48141   6.078   2.271  11.111 -1.9011 -0.3090 -0.4897
  349MOL0     H48142   5.364   2.899  10.714 -0.6055  0.4974 -0.0019
  349MOL0     H48143   5.232   2.970  10.523  1.3694  0.5717  1.1347
  349MOL0     H48144   4.951   3.003  10.238 -1.3779 -1.0162  0.3865
  349MOL0     H48145   4.829   3.086  10.034 -4.6665  1.4933  2.1528
  349MOL0     H48146   3.254   3.754   9.057 -1.1103  0.4394 -0.1973
  349MOL0     H48147   3.077   3.598   9.012  0.0826  4.4255  0.2267
  349MOL0     H48148   2.847   3.195   9.079  1.6836  0.4649  0.6716
  349MOL0     H48149   2.658   3.046   9.084  2.1122  0.1781  0.5359
  349MOL0     H48150   2.329   3.032   9.392  0.8324  0.5432  0.0283
  349MOL0     H48151   2.291   3.187   9.305 -1.3417 -0.3662 -2.1422
  349MOL0     H48152   2.122   3.017   9.292  1.4668 -0.3538  1.4351
  349MOL0     H48153   2.217   2.934   9.163  1.1106  1.6083 -2.8524
  349MOL0     H48154   2.122   3.215   9.132 -1.0998 -1.5435  2.1448
  349MOL0     H48155   2.233   3.129   9.027 -0.2172  2.2259 -0.9687
  349MOL0     H48156   1.991   3.180   8.975  1.5122  1.5971  2.5223
  349MOL0     H48157   1.948   3.048   9.084 -0.4674 -0.3416 -0.9628
  349MOL0     H48158   2.145   2.867   8.739  0.9566  1.6466  0.1268
  349MOL0     H48159   2.465   3.315   9.365  1.1969  2.0576  1.2417
  349MOL0     H48160   2.600   3.583   9.287  2.8635 -0.1535  0.1012
  349MOL0     H48161   2.558   3.500   9.439 -1.9811 -0.8309 -1.4609
  349MOL0     H48162   2.730   3.547   9.396  0.5541  1.2475 -2.5703
  350MOL0     O48163   2.593   1.243   8.274  0.7936  0.2508 -0.6461
  350MOL0     C48164   2.608   1.137   8.338 -1.1415  0.5551  0.7766
  350MOL0     O48165   2.547   1.100   8.456 -1.2543  0.4016 -0.0402
  350MOL0     C48166   2.425   1.154   8.495 -0.5302 -1.1344  0.0378
  350MOL0     C48167   2.393   1.104   8.617  0.3520  0.9398 -0.2421
  350MOL0     C48168   2.273   1.145   8.681 -0.4372  0.3980  0.0332
  350MOL0     C48169   2.198   1.253   8.630  1.4270 -0.1033 -0.4079
  350MOL0     O48170   2.080   1.278   8.706  0.5382  0.2436 -0.0197
  350MOL0     C48171   1.993   1.376   8.652  0.0219 -0.6330  0.2025
  350MOL0     C48172   1.903   1.416   8.772  0.0263  0.2004 -1.2804
  350MOL0     C48173   1.825   1.290   8.824 -0.3497 -1.3229  0.3766
  350MOL0     C48174   1.694   1.330   8.889  0.1278  0.1910 -0.1033
  350MOL0     C48175   1.716   1.415   9.014 -0.6037  0.0844 -0.4327
  350MOL0     C48176   1.578   1.455   9.063 -0.3178  0.5247 -0.2049
  350MOL0     C48177   1.581   1.515   9.213  0.6323 -0.1154  0.2145
  350MOL0     C48178   1.596   1.397   9.312 -0.7284 -0.4120  1.1315
  350MOL0     N48179   1.607   1.454   9.442  0.7205 -0.1489  0.5905
  350MOL0     C48180   1.722   1.521   9.474 -0.1687 -0.1509  0.4095
  350MOL0     C48181   1.703   1.554   9.600  1.0381  0.3647 -0.3477
  350MOL0     C48182   1.794   1.616   9.702 -0.7036  0.9340 -0.5728
  350MOL0     C48183   1.814   1.511   9.813 -0.7129  0.7769  0.6904
  350MOL0     C48184   1.871   1.590   9.931 -0.8402  0.3558  0.3377
  350MOL0     C48185   1.873   1.498  10.059  1.5159 -1.3332  0.7152
  350MOL0     O48186   1.919   1.365  10.031 -0.2077 -0.3104  0.3657
  350MOL0     C48187   2.047   1.327  10.027 -0.0271  0.2926  0.0473
  350MOL0     C48188   2.155   1.401  10.069 -1.1124 -1.0604 -0.1293
  350MOL0     C48189   2.286   1.341  10.075  0.5759 -0.0619  1.2273
  350MOL0     C48190   2.402   1.429  10.115 -0.0230  0.5685  0.0815
  350MOL0     C48191   2.301   1.199  10.043 -0.5996 -0.4595 -0.0320
  350MOL0     C48192   2.430   1.125  10.049 -0.6962 -0.2908 -0.1175
  350MOL0     O48193   2.434   1.001  10.013  0.3433  0.1819  0.0908
  350MOL0     C48194   2.534   0.922  10.033  0.0442 -0.2691 -0.7999
  350MOL0     C48195   2.611   0.908  10.151  0.0630 -0.3169 -0.2855
  350MOL0     C48196   2.716   0.818  10.162 -0.2041 -0.1347  0.0958
  350MOL0     C48197   2.742   0.737  10.052 -0.1290 -0.0990 -0.8962
  350MOL0     O48198   2.844   0.642  10.063  0.5699 -0.8580  0.3973
  350MOL0     C48199   2.931   0.626  10.181 -0.0707 -0.0821 -0.0636
  350MOL0     C48200   3.023   0.506  10.170 -0.1708  0.5085 -0.3135
  350MOL0     C48201   3.121   0.494  10.287 -0.2080  0.2797 -0.0957
  350MOL0     C48202   3.180   0.345  10.282 -0.2500 -0.8367  0.3865
  350MOL0     C48203   3.312   0.337  10.353  0.1378 -0.0495 -1.0378
  350MOL0     C48204   3.305   0.423  10.495 -0.1757 -0.1208  0.0304
  350MOL0     C48205   3.446   0.412  10.557  0.3726 -0.3023  0.6314
  350MOL0     C48206   3.473   0.523  10.662 -0.1841  0.8237  0.0425
  350MOL0    Cl48207   3.470   0.683  10.586 -0.0641 -0.0256 -0.4867
  350MOL0     C48208   2.671   0.745   9.928  0.0492 -0.5339 -2.3459
  350MOL0     C48209   2.567   0.840   9.925 -0.0599  0.3343  0.4893
  350MOL0     O48210   2.526   1.171  10.110 -0.6404 -0.6369 -0.4161
  350MOL0     C48211   2.182   1.131  10.005 -0.7052 -0.7069  0.8637
  350MOL0     C48212   2.061   1.200   9.994 -1.0451  0.3504 -0.7629
  350MOL0     N48213   1.573   1.513   9.632  0.0110 -0.4928 -0.3471
  350MOL0     N48214   1.511   1.457   9.535  1.0945 -0.1541 -0.6061
  350MOL0     C48215   2.236   1.304   8.510 -0.1700  0.4129  0.2903
  350MOL0     C48216   2.346   1.258   8.435 -0.2091  0.6060 -0.6696
  350MOL0     C48217   2.720   1.052   8.292  0.3861  0.5076 -0.1602
  350MOL0     C48218   2.805   0.991   8.386 -0.6386 -0.5549 -0.0174
  350MOL0     C48219   2.911   0.901   8.348 -0.4334  0.5279 -0.7895
  350MOL0     C48220   2.927   0.871   8.212 -0.6233  0.1494 -0.3969
  350MOL0     O48221   3.016   0.786   8.155 -0.3682  0.4001 -0.2867
  350MOL0     C48222   3.125   0.733   8.236 -0.2559 -0.3593  0.5182
  350MOL0     C48223   3.248   0.729   8.150 -0.5616 -0.5280  0.2609
  350MOL0     C48224   3.358   0.642   8.194 -0.6343 -0.7085 -0.3391
  350MOL0     C48225   3.486   0.680   8.128  0.8897 -0.4066 -0.6774
  350MOL0     C48226   3.585   0.570   8.125  0.0035  0.7345 -0.6765
  350MOL0     C48227   3.659   0.474   8.132  0.7093  0.4441  0.4445
  350MOL0     C48228   2.849   0.936   8.120 -0.5749  0.6279  0.8430
  350MOL0     C48229   2.747   1.023   8.161  0.1123  0.0954 -1.0002
  350MOL0     C48230   2.657   1.067   8.048 -0.1500 -0.1607 -0.2438
  350MOL0     H48231   2.452   1.021   8.653  1.0907  0.1494 -2.9862
  350MOL0     H48232   2.232   1.101   8.771  0.8744 -3.5922 -1.1129
  350MOL0     H48233   1.928   1.345   8.569 -1.9513  1.2298  0.9879
  350MOL0     H48234   2.038   1.466   8.608 -1.1652 -0.7745 -1.3857
  350MOL0     H48235   1.953   1.471   8.852 -1.5069  0.8291 -0.7325
  350MOL0     H48236   1.830   1.483   8.726 -0.4427 -0.9742 -2.3140
  350MOL0     H48237   1.813   1.234   8.731  0.2881  0.1161 -0.6148
  350MOL0     H48238   1.892   1.236   8.891  0.1532 -1.3989 -0.1845
  350MOL0     H48239   1.623   1.377   8.820 -1.3080  0.3558  1.4104
  350MOL0     H48240   1.650   1.237   8.927  0.7079  0.3298  0.9339
  350MOL0     H48241   1.783   1.497   8.985 -1.1698  0.3600 -1.0145
  350MOL0     H48242   1.768   1.355   9.088 -3.0772  0.5701  1.8330
  350MOL0     H48243   1.535   1.534   9.000  0.1534 -0.0534 -1.2835
  350MOL0     H48244   1.506   1.373   9.055 -0.9600  1.1671 -1.2684
  350MOL0     H48245   1.491   1.566   9.247  0.2217  0.2621 -1.3641
  350MOL0     H48246   1.669   1.578   9.222 -1.2034  2.3387  2.6303
  350MOL0     H48247   1.511   1.329   9.296 -2.0763  1.2059  1.1095
  350MOL0     H48248   1.684   1.340   9.281 -1.4790  0.0495 -2.2421
  350MOL0     H48249   1.813   1.542   9.418 -0.5789 -2.9823 -1.5953
  350MOL0     H48250   1.744   1.701   9.750 -2.6183 -2.0648  3.3037
  350MOL0     H48251   1.893   1.650   9.669 -0.1694  0.6232  0.6242
  350MOL0     H48252   1.716   1.469   9.839 -0.4911  0.5196  1.1141
  350MOL0     H48253   1.889   1.439   9.777 -1.8781  0.5102 -1.3505
  350MOL0     H48254   1.973   1.623   9.909 -0.2239 -0.8840  1.2092
  350MOL0     H48255   1.805   1.675   9.951 -0.2308  0.8130  0.4211
  350MOL0     H48256   1.934   1.550  10.133  0.2650 -1.4468  1.8710
  350MOL0     H48257   1.768   1.495  10.091  1.0593  0.5457 -0.4438
  350MOL0     H48258   2.142   1.504  10.098 -1.2507 -0.7861 -1.1491
  350MOL0     H48259   2.477   1.396  10.188 -0.3414 -2.2672 -0.7679
  350MOL0     H48260   2.361   1.525  10.148 -1.2980  1.6686 -4.1310
  350MOL0     H48261   2.459   1.456  10.025  1.2074 -1.5632  0.1495
  350MOL0     H48262   2.581   0.961  10.240  3.2007  2.2991 -0.6218
  350MOL0     H48263   2.769   0.805  10.256 -0.8005 -0.3066  0.4086
  350MOL0     H48264   2.978   0.722  10.201 -1.0169  0.2751  0.5024
  350MOL0     H48265   2.873   0.612  10.273 -1.4320 -1.0352 -1.0318
  350MOL0     H48266   2.951   0.424  10.173 -1.9873  2.0558  1.3615
  350MOL0     H48267   3.067   0.498  10.070 -3.2439  2.6439 -2.0283
  350MOL0     H48268   3.076   0.517  10.384 -3.1326 -1.4905 -0.9188
  350MOL0     H48269   3.197   0.570  10.264  0.8059 -1.3118 -2.3095
  350MOL0     H48270   3.206   0.319  10.179 -2.2009 -0.0584 -0.3644
  350MOL0     H48271   3.114   0.270  10.328  0.4227 -1.8029 -0.1901
  350MOL0     H48272   3.341   0.234  10.377  3.5650  0.8548 -0.7331
  350MOL0     H48273   3.395   0.382  10.298  0.2553 -0.4764 -1.2168
  350MOL0     H48274   3.229   0.379  10.560 -2.9692  0.5241 -2.5615
  350MOL0     H48275   3.289   0.527  10.464  2.0518  0.0609 -0.7304
  350MOL0     H48276   3.519   0.429  10.478  0.5647  1.3769  1.1304
  350MOL0     H48277   3.465   0.314  10.602  3.3425  0.0569  0.3411
  350MOL0     H48278   3.576   0.511  10.697 -0.5133 -0.1323  0.7316
  350MOL0     H48279   3.398   0.513  10.741 -1.6351 -1.5767 -1.5041
  350MOL0     H48280   2.700   0.679   9.847 -0.6774  0.3415 -3.3399
  350MOL0     H48281   2.513   0.859   9.832  1.1565 -1.7900 -0.7324
  350MOL0     H48282   2.186   1.028   9.973 -1.2034 -0.5500  0.2951
  350MOL0     H48283   1.978   1.135   9.971  0.5553 -3.3059  2.5669
  350MOL0     H48284   2.177   1.379   8.458 -0.2569 -1.8468 -3.2182
  350MOL0     H48285   2.368   1.290   8.334  1.4980 -2.7299 -1.5056
  350MOL0     H48286   2.785   1.013   8.490 -0.4661 -4.8623  1.1159
  350MOL0     H48287   2.968   0.875   8.437 -2.2265  3.7927  1.5172
  350MOL0     H48288   3.143   0.801   8.320  1.8398 -2.6420  2.0668
  350MOL0     H48289   3.100   0.639   8.286 -1.9579 -0.0105  0.3754
  350MOL0     H48290   3.295   0.828   8.147 -2.6989  0.6201  1.8237
  350MOL0     H48291   3.221   0.711   8.045  0.6197  3.4905 -0.9198
  350MOL0     H48292   3.376   0.671   8.298  1.2992  1.8503 -1.2655
  350MOL0     H48293   3.334   0.535   8.191  0.5524 -1.1623  2.8572
  350MOL0     H48294   3.536   0.771   8.162 -2.9649  1.9478 -0.6628
  350MOL0     H48295   3.461   0.693   8.022 -0.2335 -1.2398 -0.5352
  350MOL0     H48296   3.725   0.393   8.153  0.3656  0.0259 -0.0697
  350MOL0     H48297   2.865   0.918   8.014  0.0904  0.9017  0.8896
  350MOL0     H48298   2.690   1.170   8.031  0.3821  0.1748  2.4306
  350MOL0     H48299   2.667   1.003   7.960  0.7364  0.0991 -0.3421
  350MOL0     H48300   2.550   1.080   8.068  0.1295 -1.0942  2.1656
  351MOL0     O48301   6.644   1.506   2.245 -0.0899  0.1874 -0.4803
  351MOL0     C48302   6.542   1.564   2.262 -0.3394  0.0464 -0.2533
  351MOL0     O48303   6.535   1.701   2.288 -0.8283 -0.2837  0.0723
  351MOL0     C48304   6.649   1.777   2.277 -0.5416 -0.2830  0.0880
  351MOL0     C48305   6.720   1.800   2.153 -1.0043  0.3213  0.2746
  351MOL0     C48306   6.827   1.881   2.149  0.3935  0.3069 -0.6150
  351MOL0     C48307   6.883   1.919   2.271 -1.2482 -0.6312 -0.3864
  351MOL0     O48308   7.007   1.976   2.250 -0.1766 -0.6280  0.4537
  351MOL0     C48309   7.062   2.069   2.340 -0.4424 -1.1965 -1.1753
  351MOL0     C48310   7.182   2.144   2.274 -1.0777  0.4586  0.7256
  351MOL0     C48311   7.279   2.204   2.380  0.2727  0.5987 -0.7594
  351MOL0     C48312   7.417   2.213   2.320 -0.0074 -0.6569  1.1132
  351MOL0     C48313   7.520   2.238   2.432 -0.0837  0.3099  0.0996
  351MOL0     C48314   7.668   2.260   2.389 -0.4165  0.2431 -0.3177
  351MOL0     C48315   7.727   2.123   2.326  1.1131  0.8966 -1.4077
  351MOL0     C48316   7.870   2.142   2.264 -0.2119  0.3063  0.2195
  351MOL0     N48317   7.927   2.025   2.205 -0.2764  0.6966 -0.4252
  351MOL0     C48318   8.055   1.983   2.221 -0.4361  0.0134  0.5347
  351MOL0     C48319   8.066   1.874   2.128 -0.4392 -1.2804 -0.6581
  351MOL0     C48320   8.184   1.779   2.089 -0.4264 -0.1192  0.1352
  351MOL0     C48321   8.174   1.730   1.946 -0.1319 -0.0803  0.5233
  351MOL0     C48322   8.303   1.645   1.918  0.0570 -0.3515  0.0938
  351MOL0     C48323   8.321   1.604   1.769 -0.2180 -0.3983 -0.3105
  351MOL0     O48324   8.402   1.493   1.741 -0.2261 -0.1212 -0.7714
  351MOL0     C48325   8.396   1.430   1.623 -0.1798 -0.3455  0.5048
  351MOL0     C48326   8.310   1.466   1.520  0.2491 -0.1481 -0.0282
  351MOL0     C48327   8.316   1.412   1.395 -0.2670  0.0029  0.1945
  351MOL0     C48328   8.234   1.473   1.278 -0.3194 -0.3747 -0.1588
  351MOL0     C48329   8.395   1.295   1.380 -0.2812  0.2548 -1.1581
  351MOL0     C48330   8.415   1.213   1.255  0.2708 -0.5664 -0.4208
  351MOL0     O48331   8.301   1.167   1.204  0.3403 -0.1798  0.3977
  351MOL0     C48332   8.305   1.094   1.084  0.2984 -0.9506 -0.1054
  351MOL0     C48333   8.357   0.962   1.074  0.6123  0.7073  0.4291
  351MOL0     C48334   8.366   0.899   0.954 -0.3203 -0.4203 -0.2346
  351MOL0     C48335   8.319   0.967   0.833  0.2648 -0.6833 -0.6860
  351MOL0     O48336   8.317   0.916   0.704  0.2126 -0.5112 -0.2334
  351MOL0     C48337   8.397   0.790   0.675  0.3852  0.4742  0.0225
  351MOL0     C48338   8.311   0.671   0.669  0.5481 -0.3116 -0.1981
  351MOL0     C48339   8.371   0.548   0.608 -0.4997 -0.3278  0.4072
  351MOL0     C48340   8.480   0.479   0.688  1.2717  0.1974 -0.2256
  351MOL0     C48341   8.524   0.347   0.612  0.3364  0.3758  0.0609
  351MOL0     C48342   8.451   0.223   0.676  0.6174  0.7916  0.1266
  351MOL0     C48343   8.485   0.079   0.622  0.1526  0.0466  0.0004
  351MOL0     C48344   8.641   0.055   0.622 -0.2735  0.4589 -0.7815
  351MOL0    Cl48345   8.698   0.016   0.794  0.2154 -0.0320  0.1050
  351MOL0     C48346   8.266   1.096   0.845  0.4763 -0.2543 -0.1038
  351MOL0     C48347   8.259   1.156   0.968  0.1144 -0.3206  0.4550
  351MOL0     O48348   8.527   1.178   1.226 -0.5021  0.2006 -0.4298
  351MOL0     C48349   8.478   1.254   1.487 -0.3042 -0.1528  0.0555
  351MOL0     C48350   8.483   1.326   1.596 -0.3940 -0.3919 -0.1590
  351MOL0     N48351   7.947   1.868   2.058 -0.2918 -0.3879 -0.4599
  351MOL0     N48352   7.862   1.957   2.105 -0.1386 -0.0523  0.1189
  351MOL0     C48353   6.807   1.921   2.384  0.0217  0.2802  0.1119
  351MOL0     C48354   6.687   1.861   2.393  1.2003  0.2246  0.3620
  351MOL0     C48355   6.413   1.489   2.247 -1.3292  0.1112 -0.8375
  351MOL0     C48356   6.396   1.401   2.349  0.2101 -0.0998 -0.1763
  351MOL0     C48357   6.295   1.304   2.341 -0.6807 -0.4679  0.5860
  351MOL0     C48358   6.215   1.293   2.231  0.8118  0.0523  0.0598
  351MOL0     O48359   6.131   1.193   2.231 -0.1412  0.1239 -0.1923
  351MOL0     C48360   6.000   1.232   2.200 -0.0602 -0.1051  1.2217
  351MOL0     C48361   5.900   1.130   2.256  0.3787  0.4257 -0.0091
  351MOL0     C48362   5.897   1.125   2.412  0.4341 -0.4261 -0.0719
  351MOL0     C48363   5.857   1.262   2.469  0.8885  0.9800 -0.1367
  351MOL0     C48364   5.720   1.315   2.455  0.4889 -0.6245 -0.1730
  351MOL0     C48365   5.613   1.373   2.460 -0.1869  0.0477  0.3902
  351MOL0     C48366   6.235   1.383   2.123 -1.0664  0.6187  0.5699
  351MOL0     C48367   6.331   1.488   2.133  0.3510  0.7168 -0.4497
  351MOL0     C48368   6.355   1.582   2.018  0.2578  0.0057  0.3712
  351MOL0     H48369   6.688   1.735   2.072  0.8511  0.9898 -1.0706
  351MOL0     H48370   6.889   1.893   2.061 -0.0231  1.0053 -0.8208
  351MOL0     H48371   7.092   2.005   2.423 -0.7414 -0.7569 -0.7286
  351MOL0     H48372   6.976   2.132   2.367  2.2119  2.3640 -0.3438
  351MOL0     H48373   7.232   2.060   2.226 -2.8714 -1.6986  2.4359
  351MOL0     H48374   7.145   2.214   2.198  1.6412 -0.7712 -1.9152
  351MOL0     H48375   7.247   2.300   2.420  1.2542  1.0877 -1.1221
  351MOL0     H48376   7.280   2.134   2.464  0.5995 -1.5933 -2.4613
  351MOL0     H48377   7.435   2.124   2.259  0.0998  1.2621 -1.8537
  351MOL0     H48378   7.417   2.300   2.254  1.3354  0.4394  2.5050
  351MOL0     H48379   7.512   2.158   2.506  0.6678  1.5387  1.5673
  351MOL0     H48380   7.492   2.334   2.477  1.7470 -0.2120  2.4957
  351MOL0     H48381   7.677   2.327   2.302  0.2710 -1.1626 -1.3827
  351MOL0     H48382   7.733   2.290   2.471 -0.6967  0.5138 -0.1911
  351MOL0     H48383   7.659   2.085   2.250 -0.1661  3.1397 -1.4434
  351MOL0     H48384   7.737   2.049   2.406 -1.2229  0.0910 -1.7956
  351MOL0     H48385   7.865   2.217   2.185 -1.5865  1.2922  1.1862
  351MOL0     H48386   7.932   2.172   2.349  0.3430 -2.7089  1.0020
  351MOL0     H48387   8.143   2.011   2.276 -0.5163 -1.2528  1.3595
  351MOL0     H48388   8.193   1.693   2.156  3.7303 -0.3520 -0.4600
  351MOL0     H48389   8.278   1.829   2.114  0.6930 -1.4610 -1.2303
  351MOL0     H48390   8.079   1.676   1.939 -1.7700  2.7212 -0.9852
  351MOL0     H48391   8.170   1.812   1.874 -2.6180 -0.8010 -0.2669
  351MOL0     H48392   8.387   1.707   1.949 -2.2632  2.6064  1.0220
  351MOL0     H48393   8.293   1.558   1.983 -3.6384  1.0639  1.7469
  351MOL0     H48394   8.218   1.602   1.730 -0.6675 -0.6853  0.8522
  351MOL0     H48395   8.371   1.677   1.705  1.5413  1.3212  2.7597
  351MOL0     H48396   8.247   1.554   1.529  1.1318  0.6577 -1.4543
  351MOL0     H48397   8.267   1.577   1.281 -1.7177  0.0919  0.1516
  351MOL0     H48398   8.131   1.463   1.315 -0.1083  0.2453  0.6181
  351MOL0     H48399   8.251   1.433   1.177 -0.9213  0.2033 -0.4928
  351MOL0     H48400   8.398   0.923   1.167  0.4420 -2.0835 -0.5579
  351MOL0     H48401   8.416   0.803   0.941  0.8775  0.2354 -0.6412
  351MOL0     H48402   8.454   0.804   0.583 -2.2302  3.0214 -1.3782
  351MOL0     H48403   8.476   0.774   0.749 -0.0114  0.7935  0.5268
  351MOL0     H48404   8.269   0.650   0.768  1.3601 -0.5422  0.1021
  351MOL0     H48405   8.228   0.695   0.601  1.2185  1.2160 -0.5323
  351MOL0     H48406   8.407   0.569   0.506 -0.3052 -0.6579  0.4073
  351MOL0     H48407   8.294   0.474   0.585  0.5766 -1.2354 -0.3892
  351MOL0     H48408   8.465   0.469   0.796  2.5469  3.1539  0.3363
  351MOL0     H48409   8.573   0.537   0.689  0.9799  0.6536  0.7953
  351MOL0     H48410   8.499   0.355   0.506  0.7055 -4.0699 -0.5713
  351MOL0     H48411   8.633   0.339   0.625  0.4426  0.3698 -0.8080
  351MOL0     H48412   8.343   0.242   0.672 -0.3517 -3.3532  0.8502
  351MOL0     H48413   8.478   0.222   0.782  1.0183 -0.2732  0.0306
  351MOL0     H48414   8.454   0.088   0.518  0.2830  3.3399  0.1298
  351MOL0     H48415   8.429  -0.002   0.668 -3.2265  2.0683 -0.2549
  351MOL0     H48416   8.707   0.133   0.584 -0.1454  0.1580 -1.1845
  351MOL0     H48417   8.670  -0.035   0.568 -3.5505 -1.9437  1.0759
  351MOL0     H48418   8.224   1.136   0.753  3.7832  3.0847 -0.3839
  351MOL0     H48419   8.219   1.257   0.972  2.1411  0.6202 -1.1884
  351MOL0     H48420   8.548   1.172   1.485 -1.1417 -0.9053  0.7667
  351MOL0     H48421   8.549   1.301   1.679  1.3294  2.1459 -0.6490
  351MOL0     H48422   6.853   1.982   2.461 -0.0675  1.0711 -0.4551
  351MOL0     H48423   6.625   1.880   2.480  0.3004 -0.2470 -0.1637
  351MOL0     H48424   6.463   1.408   2.434  0.1976  2.8980 -0.3316
  351MOL0     H48425   6.286   1.222   2.412 -1.3729  0.9060  2.1532
  351MOL0     H48426   5.981   1.335   2.230 -1.3105  0.5528 -1.4934
  351MOL0     H48427   5.982   1.217   2.093 -1.5855 -1.2208  1.6029
  351MOL0     H48428   5.919   1.029   2.220 -2.1154 -0.1885  0.2119
  351MOL0     H48429   5.798   1.158   2.226 -0.1368  2.1535  2.8576
  351MOL0     H48430   5.835   1.049   2.461  0.4942 -0.9184 -0.7391
  351MOL0     H48431   6.001   1.108   2.442  1.5594  1.8021 -2.2724
  351MOL0     H48432   5.926   1.339   2.433 -2.6786  3.9224 -1.4049
  351MOL0     H48433   5.875   1.254   2.576  2.8084 -0.1386 -0.5137
  351MOL0     H48434   5.526   1.434   2.473  1.1003  1.8471  0.9713
  351MOL0     H48435   6.176   1.368   2.033  0.2840 -6.0991  0.3236
  351MOL0     H48436   6.385   1.681   2.051  1.3856 -0.7698  1.7519
  351MOL0     H48437   6.437   1.550   1.953  0.0721  1.1888 -0.4688
  351MOL0     H48438   6.269   1.571   1.951 -0.0032 -4.2925  1.1341
  352MOL0     O48439   6.883   3.434   4.167  0.2722 -0.2400  0.5310
  352MOL0     C48440   6.835   3.542   4.136  0.2925  0.1923  0.6391
  352MOL0     O48441   6.896   3.665   4.154 -0.5992 -0.2971 -0.7251
  352MOL0     C48442   7.022   3.685   4.220  0.6217  0.4464 -0.1449
  352MOL0     C48443   7.125   3.588   4.236 -0.3906  0.4980 -0.8780
  352MOL0     C48444   7.230   3.603   4.329  1.0163  0.1337  0.6515
  352MOL0     C48445   7.239   3.726   4.399  0.1001 -0.0029 -1.0362
  352MOL0     O48446   7.328   3.752   4.507  0.9558  0.1532 -0.6276
  352MOL0     C48447   7.412   3.641   4.532  1.1942  0.2720  0.9077
  352MOL0     C48448   7.494   3.668   4.645  0.4517 -0.8601  0.4492
  352MOL0     C48449   7.564   3.535   4.688 -0.4760  0.1018 -0.0956
  352MOL0     C48450   7.690   3.569   4.762  0.1252 -1.2787 -0.3091
  352MOL0     C48451   7.775   3.454   4.804 -0.3845 -0.0129 -0.8215
  352MOL0     C48452   7.874   3.483   4.909 -0.0882  0.6584  0.3423
  352MOL0     C48453   7.966   3.369   4.934 -1.3122 -0.0289  0.0526
  352MOL0     C48454   8.066   3.353   4.824 -0.7563  0.4791 -0.4851
  352MOL0     N48455   8.159   3.242   4.858 -0.3278 -0.1074  0.3936
  352MOL0     C48456   8.212   3.220   4.982 -0.0334  0.7259  0.0038
  352MOL0     C48457   8.280   3.100   4.976  0.2777 -0.5239  0.1765
  352MOL0     C48458   8.333   3.039   5.093 -0.4023  0.5044 -0.0420
  352MOL0     C48459   8.480   2.982   5.082 -0.3164 -0.3214 -0.1829
  352MOL0     C48460   8.522   2.883   5.199  1.3328  0.0960 -0.1323
  352MOL0     C48461   8.666   2.841   5.189 -1.2727 -0.8406 -0.5564
  352MOL0     O48462   8.734   2.959   5.226  0.1671  0.0575  0.0217
  352MOL0     C48463   8.868   2.976   5.216  0.3360  0.8687 -0.6116
  352MOL0     C48464   8.955   2.888   5.133  0.3448  0.8257  0.1793
  352MOL0     C48465   9.081   2.926   5.113 -0.3624  0.1923 -0.0961
  352MOL0     C48466   9.174   2.817   5.060 -0.0739  0.1827  0.4604
  352MOL0     C48467   9.131   3.048   5.167  0.0520  0.5000  0.4565
  352MOL0     C48468   9.279   3.084   5.147 -0.3879 -0.2020 -0.4627
  352MOL0     O48469   9.312   3.211   5.116  0.2934 -0.0625 -0.3568
  352MOL0     C48470   9.446   3.241   5.117 -0.3028  0.1628 -0.1424
  352MOL0     C48471   9.509   3.269   5.239 -0.3355 -0.1279 -0.2255
  352MOL0     C48472   9.643   3.315   5.241  0.0993  0.7462  0.1504
  352MOL0     C48473   9.717   3.323   5.120 -0.0672 -0.5463  0.8266
  352MOL0     O48474   9.840   3.380   5.120  0.5471  0.4277 -0.3045
  352MOL0     C48475   9.892   3.459   5.230  0.7920  0.1325  0.1274
  352MOL0     C48476   9.849   3.612   5.238  0.2880  0.2837 -0.3247
  352MOL0     C48477   9.881   3.695   5.100 -0.7358  0.7000 -0.3027
  352MOL0     C48478  10.005   3.782   5.118 -0.0681 -0.5839 -0.2061
  352MOL0     C48479  10.134   3.702   5.127  0.0597  0.5573 -0.2521
  352MOL0     C48480  10.249   3.784   5.173 -1.3899 -0.8506 -0.2061
  352MOL0     C48481  10.403   3.734   5.156 -0.1560  1.0959  0.5798
  352MOL0     C48482  10.447   3.621   5.234  0.2728 -0.1796 -0.9396
  352MOL0    Cl48483  10.455   3.651   5.406  0.0416  0.1478  0.0213
  352MOL0     C48484   9.657   3.274   5.005  0.8769  0.1349 -0.0331
  352MOL0     C48485   9.522   3.242   4.996 -0.4331 -0.0450 -0.4461
  352MOL0     O48486   9.366   2.993   5.162  0.1838  0.5011 -0.1996
  352MOL0     C48487   9.046   3.135   5.238 -1.0822  0.6853  0.1691
  352MOL0     C48488   8.916   3.095   5.263  0.7320 -0.4626  0.5723
  352MOL0     N48489   8.257   3.047   4.844  1.0023  0.0855 -0.1644
  352MOL0     N48490   8.187   3.136   4.776  0.2884  0.8271  0.0724
  352MOL0     C48491   7.144   3.823   4.379 -0.3594  0.1766 -0.2631
  352MOL0     C48492   7.045   3.805   4.285  0.0569 -0.1124  0.0707
  352MOL0     C48493   6.700   3.538   4.072  0.1197  0.0198  0.3974
  352MOL0     C48494   6.638   3.657   4.039  0.1614 -0.1060 -0.3896
  352MOL0     C48495   6.515   3.655   3.964  0.2548 -0.1779 -0.1504
  352MOL0     C48496   6.449   3.543   3.927 -0.5748 -0.9556  0.0509
  352MOL0     O48497   6.344   3.538   3.834 -0.4666  0.6419 -0.8860
  352MOL0     C48498   6.318   3.640   3.735 -0.5512 -0.2256 -0.3004
  352MOL0     C48499   6.435   3.643   3.633  0.5273  0.2347 -0.5484
  352MOL0     C48500   6.416   3.756   3.530 -0.3335 -0.3180  0.1125
  352MOL0     C48501   6.486   3.729   3.396  0.6047  0.2638  0.1180
  352MOL0     C48502   6.445   3.602   3.327  0.6580 -0.5723 -0.7713
  352MOL0     C48503   6.410   3.499   3.273 -0.2297  0.0995 -0.2802
  352MOL0     C48504   6.505   3.423   3.982 -0.1635  0.4704  0.5095
  352MOL0     C48505   6.625   3.418   4.056 -0.4367 -0.3899  0.5560
  352MOL0     C48506   6.654   3.274   4.114  0.3909 -1.0599 -0.1823
  352MOL0     H48507   7.133   3.497   4.178  1.2207  1.1263 -1.7095
  352MOL0     H48508   7.312   3.532   4.324  2.0960  1.3941 -0.1875
  352MOL0     H48509   7.474   3.614   4.447 -2.5454 -3.0482 -1.0782
  352MOL0     H48510   7.345   3.555   4.546  0.1978  0.6882 -1.0147
  352MOL0     H48511   7.567   3.748   4.627  0.7602 -1.2559 -0.0619
  352MOL0     H48512   7.424   3.693   4.726 -0.7235 -1.1733 -0.4441
  352MOL0     H48513   7.505   3.467   4.750 -0.4780  0.7310  0.5988
  352MOL0     H48514   7.595   3.479   4.599  0.1181 -2.5504  1.6669
  352MOL0     H48515   7.745   3.636   4.695 -0.0530 -0.6845  0.1228
  352MOL0     H48516   7.660   3.632   4.847 -1.9515 -1.0449 -1.1522
  352MOL0     H48517   7.819   3.411   4.714 -0.8442 -2.7433  0.1586
  352MOL0     H48518   7.713   3.369   4.836  1.0295 -1.2392 -1.2329
  352MOL0     H48519   7.939   3.563   4.872  1.0782 -1.5672 -2.9377
  352MOL0     H48520   7.823   3.514   5.000  1.0989 -0.9319  1.6132
  352MOL0     H48521   7.906   3.279   4.948 -1.5867 -0.3786 -2.8174
  352MOL0     H48522   8.010   3.389   5.032  0.6746  0.6228 -0.9073
  352MOL0     H48523   8.027   3.328   4.725  0.0672 -0.4073 -0.6000
  352MOL0     H48524   8.120   3.448   4.815  1.3011 -0.7641 -2.5918
  352MOL0     H48525   8.214   3.290   5.065  0.0893  2.0936 -1.1046
  352MOL0     H48526   8.278   2.947   5.113 -1.2752  0.6608 -1.5742
  352MOL0     H48527   8.321   3.098   5.185 -1.1602  0.6218 -0.2099
  352MOL0     H48528   8.489   2.937   4.982 -1.7888  1.0379 -0.9673
  352MOL0     H48529   8.557   3.058   5.081  1.5781 -2.1479 -1.0223
  352MOL0     H48530   8.506   2.927   5.298 -4.5482 -1.0436 -0.2174
  352MOL0     H48531   8.467   2.789   5.197  1.0741  0.0572  3.1892
  352MOL0     H48532   8.684   2.767   5.268 -2.5594  0.2743  0.8561
  352MOL0     H48533   8.701   2.808   5.091  2.4503  0.0591  0.2984
  352MOL0     H48534   8.914   2.790   5.110 -1.8133  1.4790  0.9719
  352MOL0     H48535   9.255   2.858   4.999 -0.2131  1.4868  1.1233
  352MOL0     H48536   9.118   2.747   4.998  2.1326  1.2394 -3.0097
  352MOL0     H48537   9.213   2.770   5.151 -1.1254  1.2046  1.4800
  352MOL0     H48538   9.449   3.267   5.329 -0.4016 -2.3376 -0.2439
  352MOL0     H48539   9.674   3.357   5.336 -0.1259  3.4785 -0.9076
  352MOL0     H48540   9.881   3.402   5.323  0.9817 -1.4727 -0.7917
  352MOL0     H48541  10.000   3.448   5.217  0.4822 -0.5836 -2.4272
  352MOL0     H48542   9.742   3.617   5.260  0.3795 -0.3748  0.3035
  352MOL0     H48543   9.889   3.665   5.325 -4.0221  0.4164  1.8237
  352MOL0     H48544   9.799   3.756   5.062 -0.5344  1.5932  0.6420
  352MOL0     H48545   9.902   3.636   5.011  1.5017  1.4974 -0.3655
  352MOL0     H48546   9.994   3.849   5.204  0.8582  3.2787 -2.8171
  352MOL0     H48547  10.017   3.845   5.029 -0.0085 -0.3526 -0.0336
  352MOL0     H48548  10.125   3.620   5.200 -2.0159 -0.4294 -1.5017
  352MOL0     H48549  10.155   3.657   5.030  2.3162 -0.2971  0.5812
  352MOL0     H48550  10.241   3.806   5.280 -1.5196  2.3009 -0.7770
  352MOL0     H48551  10.245   3.880   5.120  1.8879 -0.5159 -0.0365
  352MOL0     H48552  10.476   3.811   5.179  0.4811  1.1222 -1.3202
  352MOL0     H48553  10.402   3.708   5.049 -2.5925  1.0583  0.5353
  352MOL0     H48554  10.547   3.580   5.215  1.5470 -0.4744  4.5785
  352MOL0     H48555  10.371   3.543   5.216  0.5831 -0.7668  0.1623
  352MOL0     H48556   9.717   3.252   4.917  0.5821 -5.3320  0.8038
  352MOL0     H48557   9.476   3.228   4.899 -1.6759  0.1866  0.0863
  352MOL0     H48558   9.076   3.235   5.266 -0.0198  1.3798 -3.0474
  352MOL0     H48559   8.853   3.168   5.313  2.5027  0.9044  0.9130
  352MOL0     H48560   7.164   3.925   4.412  1.7768  0.8672 -3.3112
  352MOL0     H48561   6.981   3.891   4.266  0.2007 -0.0086  0.0493
  352MOL0     H48562   6.685   3.753   4.055 -1.9762  1.0321 -0.7230
  352MOL0     H48563   6.484   3.747   3.915 -0.2942 -0.9042 -1.1898
  352MOL0     H48564   6.226   3.615   3.682 -2.4565  4.2486  0.3994
  352MOL0     H48565   6.308   3.734   3.791 -0.9471  1.4102 -2.9562
  352MOL0     H48566   6.422   3.544   3.588  0.0228  0.3381 -0.6345
  352MOL0     H48567   6.532   3.642   3.684  0.6418 -0.6515 -0.7624
  352MOL0     H48568   6.312   3.784   3.514 -0.1229 -0.4748 -1.7844
  352MOL0     H48569   6.475   3.841   3.567 -0.8339 -1.1981  3.2252
  352MOL0     H48570   6.594   3.736   3.409  0.6456  0.1283 -0.1446
  352MOL0     H48571   6.454   3.810   3.329 -1.0814 -3.0758 -3.5294
  352MOL0     H48572   6.367   3.413   3.225 -0.6236  0.6953 -1.0136
  352MOL0     H48573   6.455   3.328   3.963  2.2507 -1.1862  1.9276
  352MOL0     H48574   6.654   3.276   4.223  1.6516  0.2784 -0.1751
  352MOL0     H48575   6.598   3.194   4.064  2.5855 -1.3127 -2.4443
  352MOL0     H48576   6.756   3.242   4.090  0.1920 -1.3546 -0.6572
  353MOL0     O48577   7.050  11.221  11.334 -0.4973 -0.3184  0.2224
  353MOL0     C48578   7.144  11.225  11.251  0.8632 -0.1490 -0.5275
  353MOL0     O48579   7.279  11.202  11.281  0.1523 -0.0148  0.7072
  353MOL0     C48580   7.325  11.224  11.411  0.9517 -0.7525  0.7256
  353MOL0     C48581   7.288  11.340  11.485 -0.8999 -0.0735  0.0700
  353MOL0     C48582   7.332  11.350  11.620 -0.1781 -0.5661 -0.1097
  353MOL0     C48583   7.416  11.244  11.673  0.2520 -0.5175  0.2466
  353MOL0     O48584   7.462  11.256  11.804 -0.3786 -0.7040 -0.2502
  353MOL0     C48585   7.491  11.130  11.871 -0.1152 -0.2188 -0.2009
  353MOL0     C48586   7.488  11.168  12.010 -0.4226  0.6312  1.2682
  353MOL0     C48587   7.610  11.234  12.081  0.0641  0.7372  0.2038
  353MOL0     C48588   7.578  11.221  12.224  1.0408  0.1021 -0.2810
  353MOL0     C48589   7.682  11.298  12.308 -0.7637 -0.0139  0.2173
  353MOL0     C48590   7.815  11.214  12.326  0.3947 -0.5825  0.7737
  353MOL0     C48591   7.915  11.297  12.414  0.6345 -0.0729  0.0158
  353MOL0     C48592   8.037  11.220  12.467  0.8839 -0.8046  0.4277
  353MOL0     N48593   8.139  11.314  12.526 -0.8881 -0.0424 -0.0316
  353MOL0     C48594   8.266  11.333  12.471 -0.6510 -0.1551  0.7503
  353MOL0     C48595   8.314  11.430  12.552  0.0134  0.0104 -0.3936
  353MOL0     C48596   8.446  11.497  12.521  0.4920 -0.2843 -0.1467
  353MOL0     C48597   8.504  11.570  12.646  0.2600  0.0941 -1.0698
  353MOL0     C48598   8.637  11.622  12.600 -0.4902  0.3030  0.2230
  353MOL0     C48599   8.736  11.687  12.697  0.0844 -0.8616  0.0040
  353MOL0     O48600   8.786  11.580  12.774  0.0115 -0.7534  0.5336
  353MOL0     C48601   8.895  11.587  12.856 -0.3032  0.1007  0.5437
  353MOL0     C48602   8.966  11.700  12.888  0.4264 -0.1648 -0.6541
  353MOL0     C48603   9.078  11.708  12.971 -0.0070  0.1512  0.3236
  353MOL0     C48604   9.153  11.833  12.984 -0.0095  0.1765 -0.3882
  353MOL0     C48605   9.129  11.578  13.021 -0.4665 -0.0976 -0.1107
  353MOL0     C48606   9.247  11.560  13.111 -0.4600  0.1583  0.0357
  353MOL0     O48607   9.297  11.436  13.135 -0.1351  0.2574  0.1745
  353MOL0     C48608   9.413  11.419  13.208  1.0073 -0.1310  0.0653
  353MOL0     C48609   9.528  11.377  13.139 -0.1351  0.1611 -1.3719
  353MOL0     C48610   9.654  11.355  13.207 -0.2395 -0.8664  1.0457
  353MOL0     C48611   9.659  11.392  13.342  0.2405  0.2060  0.0384
  353MOL0     O48612   9.786  11.387  13.389  0.4286 -0.6134 -0.6419
  353MOL0     C48613   9.813  11.421  13.531 -0.1238 -0.8775  0.0179
  353MOL0     C48614   9.945  11.362  13.573 -0.2454  0.1813  0.3281
  353MOL0     C48615  10.062  11.399  13.475  0.1099 -0.2403 -0.3022
  353MOL0     C48616  10.178  11.306  13.482  0.4095 -0.4016 -0.1868
  353MOL0     C48617  10.282  11.343  13.374 -0.4297 -0.1124 -0.2155
  353MOL0     C48618  10.407  11.259  13.398 -0.2778 -0.1048  0.1905
  353MOL0     C48619  10.519  11.326  13.483 -0.0756  0.8548  0.0543
  353MOL0     C48620  10.653  11.257  13.465  0.3270  0.3699  0.5218
  353MOL0    Cl48621  10.727  11.317  13.316  0.1008 -0.0541  0.2661
  353MOL0     C48622   9.541  11.431  13.415 -0.2144  0.6583  1.0425
  353MOL0     C48623   9.420  11.435  13.344 -0.6459 -0.2446 -0.4899
  353MOL0     O48624   9.291  11.661  13.169  0.5568  0.2432  1.1398
  353MOL0     C48625   9.054  11.462  12.990 -0.0525  0.0554 -0.5633
  353MOL0     C48626   8.944  11.469  12.898  0.3469 -1.0744 -0.4697
  353MOL0     N48627   8.229  11.462  12.650 -0.0720  0.3395 -0.5158
  353MOL0     N48628   8.125  11.391  12.636 -0.0307 -0.2076 -0.4733
  353MOL0     C48629   7.456  11.134  11.597  0.0876  0.6968  0.3806
  353MOL0     C48630   7.403  11.127  11.468 -0.3039  0.6041 -0.4010
  353MOL0     C48631   7.117  11.250  11.106 -0.4811  0.2811 -0.0249
  353MOL0     C48632   7.214  11.202  11.009  0.4365 -0.1691  0.5026
  353MOL0     C48633   7.188  11.224  10.868  0.4509  0.2531  0.6167
  353MOL0     C48634   7.068  11.273  10.818  0.1739  0.2820  0.0186
  353MOL0     O48635   7.034  11.282  10.688  0.0558 -0.6976  0.7344
  353MOL0     C48636   7.110  11.218  10.582  0.4893  0.2023  0.4175
  353MOL0     C48637   7.048  11.251  10.448 -0.4234  0.3828  0.8847
  353MOL0     C48638   7.042  11.404  10.404 -0.5673 -0.6184  0.2706
  353MOL0     C48639   7.052  11.411  10.255 -0.1389  0.0575  0.4016
  353MOL0     C48640   6.934  11.359  10.189 -0.0946 -0.2249  0.3826
  353MOL0     C48641   6.836  11.312  10.141  0.4059  0.1072 -0.2197
  353MOL0     C48642   6.978  11.325  10.914  0.2726 -0.4870 -1.0892
  353MOL0     C48643   7.003  11.318  11.053 -0.0112  0.0847  0.1381
  353MOL0     C48644   6.896  11.379  11.142  0.4743  0.7888 -0.5678
  353MOL0     H48645   7.221  11.414  11.443  1.7498  2.8573  0.5633
  353MOL0     H48646   7.303  11.432  11.684  2.6488  1.7182 -1.5147
  353MOL0     H48647   7.589  11.092  11.837  0.5286  0.4026  0.9218
  353MOL0     H48648   7.420  11.054  11.836  0.9455  0.1019 -3.4587
  353MOL0     H48649   7.397  11.220  12.042 -1.1585 -1.4256  2.8093
  353MOL0     H48650   7.484  11.068  12.055  2.2013 -1.1184 -1.9740
  353MOL0     H48651   7.698  11.172  12.062  0.6190  0.6106  2.8035
  353MOL0     H48652   7.633  11.337  12.053  2.0573  0.7422  1.6202
  353MOL0     H48653   7.481  11.266  12.245  1.2067 -0.2007  1.2591
  353MOL0     H48654   7.570  11.114  12.246 -1.5062 -0.1683 -2.1749
  353MOL0     H48655   7.640  11.312  12.408  0.7822  1.8910  0.6497
  353MOL0     H48656   7.700  11.395  12.262  0.2454 -1.2106 -2.1156
  353MOL0     H48657   7.787  11.122  12.378  1.5097 -1.2375  0.2477
  353MOL0     H48658   7.866  11.192  12.232  2.0602  3.9272  0.3608
  353MOL0     H48659   7.857  11.331  12.501  0.6896 -0.5013  0.2281
  353MOL0     H48660   7.952  11.378  12.352  2.9688  0.6296  2.1676
  353MOL0     H48661   7.996  11.149  12.539 -2.6230  1.3892  0.7946
  353MOL0     H48662   8.083  11.165  12.384 -3.9752 -3.0409 -1.1242
  353MOL0     H48663   8.309  11.297  12.378  0.1531 -2.3991  1.9145
  353MOL0     H48664   8.440  11.555  12.428  0.3873 -0.3217 -0.1630
  353MOL0     H48665   8.515  11.419  12.487  1.1862  0.0983  0.3442
  353MOL0     H48666   8.444  11.647  12.695  3.5949  2.6296 -0.5905
  353MOL0     H48667   8.517  11.497  12.727 -0.2916  1.8448  0.6574
  353MOL0     H48668   8.694  11.541  12.555 -4.2873 -1.1456 -2.5138
  353MOL0     H48669   8.611  11.680  12.511  3.1752 -1.6847 -2.3953
  353MOL0     H48670   8.815  11.735  12.640  0.6893 -1.1828  0.5657
  353MOL0     H48671   8.679  11.752  12.764 -1.6214 -4.7923  2.7861
  353MOL0     H48672   8.934  11.793  12.842 -1.3462 -0.7696 -0.7264
  353MOL0     H48673   9.184  11.850  13.087 -3.4437  0.0157  0.7989
  353MOL0     H48674   9.101  11.926  12.961  1.1177  1.5304  2.1338
  353MOL0     H48675   9.238  11.843  12.915  1.9248  0.7337  1.9511
  353MOL0     H48676   9.520  11.335  13.039  4.3336  0.2207 -1.9771
  353MOL0     H48677   9.743  11.318  13.158  2.5706  3.5943  2.2681
  353MOL0     H48678   9.805  11.530  13.543  1.7099 -0.9611  2.9112
  353MOL0     H48679   9.738  11.400  13.607 -0.5362  3.0117  0.9063
  353MOL0     H48680   9.972  11.406  13.669 -0.0446 -0.0760  0.3887
  353MOL0     H48681   9.946  11.253  13.567  2.7744 -0.0717  2.8954
  353MOL0     H48682  10.099  11.501  13.493  0.4242 -0.3274 -0.4438
  353MOL0     H48683  10.029  11.392  13.371  0.9007 -2.7971 -0.4294
  353MOL0     H48684  10.152  11.201  13.466  1.9425 -0.6315 -1.4076
  353MOL0     H48685  10.210  11.324  13.585 -2.2477  0.7395  0.5283
  353MOL0     H48686  10.231  11.309  13.284 -1.6952 -1.8315  1.0839
  353MOL0     H48687  10.304  11.449  13.364  0.3469 -0.5158 -5.1201
  353MOL0     H48688  10.446  11.236  13.298 -3.4137 -2.9454 -0.5792
  353MOL0     H48689  10.378  11.160  13.436  1.7821 -1.0442 -0.5308
  353MOL0     H48690  10.492  11.305  13.587  1.2811  0.9244  0.4302
  353MOL0     H48691  10.523  11.435  13.474 -2.5377  1.0309  0.3235
  353MOL0     H48692  10.636  11.149  13.473 -1.1000  0.2352 -2.6954
  353MOL0     H48693  10.710  11.298  13.549  1.3487 -1.7544  0.9350
  353MOL0     H48694   9.543  11.447  13.523  1.6052 -1.2498  1.3740
  353MOL0     H48695   9.340  11.436  13.417  1.7014 -1.1500  2.3189
  353MOL0     H48696   9.080  11.361  13.019 -1.3114 -0.8619 -2.3872
  353MOL0     H48697   8.898  11.378  12.860  0.0377 -1.1717  0.1266
  353MOL0     H48698   7.522  11.058  11.637 -1.3752 -1.1540 -0.5772
  353MOL0     H48699   7.420  11.043  11.401 -1.3958  0.2158 -0.2081
  353MOL0     H48700   7.305  11.149  11.033 -1.3547 -4.5891 -1.5051
  353MOL0     H48701   7.259  11.185  10.795  0.0030  0.7522 -0.1059
  353MOL0     H48702   7.211  11.261  10.583  1.8125 -2.4746  3.4802
  353MOL0     H48703   7.130  11.113  10.606  3.3675  0.1854 -1.4824
  353MOL0     H48704   6.944  11.224  10.461 -0.7101  1.2195  0.4473
  353MOL0     H48705   7.093  11.186  10.372 -0.0255  0.0607  1.3877
  353MOL0     H48706   6.950  11.457  10.432  1.5594  2.6033  1.7654
  353MOL0     H48707   7.118  11.468  10.450 -1.2860  1.4150 -1.2579
  353MOL0     H48708   7.130  11.342  10.219 -1.0275 -0.7023 -0.1133
  353MOL0     H48709   7.057  11.516  10.224  1.9295 -0.6045 -1.8629
  353MOL0     H48710   6.752  11.257  10.105 -0.8031  0.0809  2.3959
  353MOL0     H48711   6.900  11.385  10.869 -0.7137  0.9254  2.2304
  353MOL0     H48712   6.931  11.453  11.214  0.8749 -0.3917  0.4823
  353MOL0     H48713   6.816  11.417  11.077  0.4872  1.9420  0.0585
  353MOL0     H48714   6.845  11.305  11.204  1.4880  0.9704  0.5136
  354MOL0     O48715   0.193   3.247  10.703  0.6647 -0.9266  0.8838
  354MOL0     C48716   0.216   3.149  10.764 -0.2354  0.0737 -0.5760
  354MOL0     O48717   0.328   3.130  10.844  0.2125 -0.1492 -0.4065
  354MOL0     C48718   0.436   3.210  10.848  1.3981  0.6337 -0.3021
  354MOL0     C48719   0.475   3.257  10.968 -0.9994 -0.4055 -0.3117
  354MOL0     C48720   0.579   3.356  10.966 -0.0376 -0.4617  0.0339
  354MOL0     C48721   0.652   3.385  10.850 -0.2494 -0.5712  0.7703
  354MOL0     O48722   0.740   3.490  10.866 -0.2113  0.3692  0.0493
  354MOL0     C48723   0.852   3.495  10.775  0.0122  0.8034  0.2425
  354MOL0     C48724   0.933   3.612  10.812 -0.3665 -0.2366  0.4484
  354MOL0     C48725   1.057   3.630  10.711 -0.6057  0.4569 -0.0246
  354MOL0     C48726   1.164   3.711  10.790 -0.0875 -0.3114  0.4112
  354MOL0     C48727   1.283   3.745  10.700  0.1859  0.4081  0.2472
  354MOL0     C48728   1.369   3.619  10.683 -0.4772 -0.1249 -0.4672
  354MOL0     C48729   1.508   3.656  10.631  0.5754  1.2534 -0.1727
  354MOL0     C48730   1.499   3.703  10.486  0.1151  0.7857  0.0053
  354MOL0     N48731   1.640   3.725  10.450 -0.2165  0.9484 -0.4993
  354MOL0     C48732   1.744   3.632  10.449 -0.0096 -0.5088 -0.0402
  354MOL0     C48733   1.858   3.698  10.430  0.0939  0.4680  0.2984
  354MOL0     C48734   1.996   3.644  10.432 -0.0779  0.0684 -0.1048
  354MOL0     C48735   2.011   3.533  10.326  0.3621 -0.7922 -0.3589
  354MOL0     C48736   2.000   3.585  10.181 -1.1541  1.1361 -0.0596
  354MOL0     C48737   2.047   3.476  10.085  0.1397  0.7551  0.4419
  354MOL0     O48738   2.185   3.440  10.090 -0.4100  0.0335  0.5592
  354MOL0     C48739   2.269   3.526  10.032  0.5229 -0.4950  0.7320
  354MOL0     C48740   2.240   3.649   9.966  0.0671  0.1635  0.0746
  354MOL0     C48741   2.343   3.739   9.924 -0.2896  0.7827 -0.1570
  354MOL0     C48742   2.287   3.872   9.891  0.9729 -1.2307  0.9046
  354MOL0     C48743   2.476   3.711   9.940 -0.3453  0.6435  0.1736
  354MOL0     C48744   2.591   3.792   9.889 -0.4121 -0.3842 -0.4048
  354MOL0     O48745   2.693   3.720   9.831 -0.2144 -0.0388 -0.0609
  354MOL0     C48746   2.809   3.778   9.782  0.0448  0.5846 -0.6508
  354MOL0     C48747   2.872   3.883   9.850 -0.3875 -0.3515 -0.0132
  354MOL0     C48748   2.996   3.925   9.816 -0.0422  0.3733  0.2349
  354MOL0     C48749   3.060   3.868   9.709  0.2623  0.2775 -0.2155
  354MOL0     O48750   3.185   3.915   9.684 -1.0824 -0.1507 -0.3071
  354MOL0     C48751   3.274   3.817   9.619 -0.0380  0.0531 -0.6273
  354MOL0     C48752   3.415   3.843   9.670  0.6593 -0.1722 -0.9982
  354MOL0     C48753   3.488   3.980   9.626  0.8155  0.1572  0.0253
  354MOL0     C48754   3.637   3.986   9.650  1.0971  1.5665  0.5843
  354MOL0     C48755   3.688   4.106   9.572  1.0095  0.4542 -0.2183
  354MOL0     C48756   3.839   4.114   9.597  0.1428 -0.0087  0.4925
  354MOL0     C48757   3.903   4.217   9.513  0.8792 -0.2570  0.0960
  354MOL0     C48758   3.916   4.176   9.368  1.7559  0.1779  0.0439
  354MOL0    Cl48759   3.963   4.341   9.291  0.3214  0.3728 -0.7999
  354MOL0     C48760   2.991   3.781   9.623 -0.1053  0.2496  0.0932
  354MOL0     C48761   2.864   3.735   9.667  0.1675  0.2245  0.2224
  354MOL0     O48762   2.581   3.915   9.897  0.1890 -0.3799  0.0380
  354MOL0     C48763   2.505   3.583   9.983 -0.7410  0.2092  0.1062
  354MOL0     C48764   2.402   3.497  10.036  0.9308  0.7262 -0.8339
  354MOL0     N48765   1.821   3.836  10.411 -1.3801 -0.9260  0.9443
  354MOL0     N48766   1.697   3.848  10.421 -0.0368 -0.1313  0.4280
  354MOL0     C48767   0.613   3.331  10.727  0.1183  0.1099  0.3813
  354MOL0     C48768   0.499   3.247  10.727  0.5016 -0.0501 -0.3626
  354MOL0     C48769   0.105   3.055  10.764 -0.8115  0.4258  0.1717
  354MOL0     C48770  -0.018   3.105  10.720 -0.4752  0.6339  0.2150
  354MOL0     C48771  -0.119   3.016  10.719  1.0047  0.2511  0.0472
  354MOL0     C48772  -0.108   2.881  10.751  0.4073  0.8382 -0.5016
  354MOL0     O48773  -0.209   2.787  10.726 -0.7305  0.2927 -0.3414
  354MOL0     C48774  -0.339   2.827  10.774 -0.4159  0.3436 -0.6389
  354MOL0     C48775  -0.423   2.692  10.794 -0.9384  0.4668  0.1254
  354MOL0     C48776  -0.351   2.595  10.885  0.9198  0.4936 -0.2619
  354MOL0     C48777  -0.434   2.477  10.910  0.3733  0.5424 -0.1618
  354MOL0     C48778  -0.553   2.499  10.995 -0.4553 -0.0505 -0.3935
  354MOL0     C48779  -0.651   2.510  11.060 -0.0771  0.1113  0.8250
  354MOL0     C48780   0.015   2.837  10.795  0.1464 -0.1891  0.5142
  354MOL0     C48781   0.123   2.924  10.801  0.4986  0.7115 -0.2037
  354MOL0     C48782   0.259   2.860  10.834  0.2224 -0.1538 -0.3643
  354MOL0     H48783   0.432   3.226  11.062  1.1331  0.0489  0.8850
  354MOL0     H48784   0.616   3.400  11.058  1.5891 -2.4556  0.4182
  354MOL0     H48785   0.819   3.520  10.674  3.7805  0.7770 -1.1325
  354MOL0     H48786   0.901   3.398  10.771  2.2036  1.8272  0.7407
  354MOL0     H48787   0.873   3.703  10.820 -0.6843 -0.3871 -0.1457
  354MOL0     H48788   0.971   3.589  10.912 -1.5831 -1.5530  0.6323
  354MOL0     H48789   1.088   3.528  10.686 -3.0904 -0.0688 -1.1408
  354MOL0     H48790   1.034   3.685  10.620  4.2089  0.4548 -1.5550
  354MOL0     H48791   1.108   3.800  10.821 -1.6088 -0.8419 -0.6645
  354MOL0     H48792   1.196   3.655  10.879  1.9547  1.7045  1.0396
  354MOL0     H48793   1.340   3.822  10.753  0.5713  0.2444  0.0726
  354MOL0     H48794   1.252   3.785  10.602 -2.3893 -1.3324  0.2469
  354MOL0     H48795   1.387   3.575  10.782  4.2989 -1.3394 -1.6007
  354MOL0     H48796   1.334   3.545  10.611 -2.7595 -0.3964  0.8256
  354MOL0     H48797   1.569   3.565  10.637  0.3253  1.1172  0.3554
  354MOL0     H48798   1.547   3.720  10.711 -2.6786  1.1402  1.6625
  354MOL0     H48799   1.467   3.624  10.417  0.6273  1.6270 -1.2325
  354MOL0     H48800   1.438   3.790  10.462 -1.3148  0.2043  1.3740
  354MOL0     H48801   1.734   3.525  10.464 -0.0454 -0.3435  1.2908
  354MOL0     H48802   2.013   3.598  10.529 -2.6878  1.7868  1.3021
  354MOL0     H48803   2.065   3.728  10.421  1.1403 -0.7937  0.7324
  354MOL0     H48804   2.114   3.496  10.329 -0.1506 -2.3479 -0.9635
  354MOL0     H48805   1.939   3.457  10.356 -0.3062  0.7285  2.2132
  354MOL0     H48806   1.895   3.607  10.160 -0.8372 -0.1855 -3.7377
  354MOL0     H48807   2.063   3.674  10.172  2.2554 -0.8938  1.3867
  354MOL0     H48808   1.997   3.383  10.111  1.8631  0.0800  1.5547
  354MOL0     H48809   2.017   3.513   9.987  2.9024  0.4149 -0.6311
  354MOL0     H48810   2.138   3.677   9.940 -0.0223 -1.3687 -1.4545
  354MOL0     H48811   2.181   3.881   9.918  0.6034  2.8954 -1.1133
  354MOL0     H48812   2.289   3.895   9.784  0.9488 -0.2008  1.1118
  354MOL0     H48813   2.329   3.963   9.933 -0.7337  0.7070 -1.2890
  354MOL0     H48814   2.834   3.925   9.942 -2.0374 -1.1047 -0.3111
  354MOL0     H48815   3.043   4.003   9.875 -1.2106 -0.1440  1.9222
  354MOL0     H48816   3.249   3.714   9.646 -0.5526  0.1439 -0.7444
  354MOL0     H48817   3.270   3.826   9.510 -3.9757 -4.0995 -1.1195
  354MOL0     H48818   3.422   3.815   9.776 -1.1786  3.5743  0.2837
  354MOL0     H48819   3.468   3.757   9.629  1.2947 -1.0717  1.5011
  354MOL0     H48820   3.443   4.060   9.685  0.6563 -3.4608  5.5801
  354MOL0     H48821   3.471   3.995   9.519  1.4608  2.1178  0.1725
  354MOL0     H48822   3.670   3.893   9.602 -2.9201 -1.0320  2.2752
  354MOL0     H48823   3.671   3.981   9.753 -2.7072 -0.7908  1.9529
  354MOL0     H48824   3.668   4.090   9.465 -3.0022  1.3897  0.2471
  354MOL0     H48825   3.641   4.197   9.609  0.0932  1.0199 -2.6198
  354MOL0     H48826   3.889   4.018   9.581  2.1010  1.1281 -0.5643
  354MOL0     H48827   3.846   4.138   9.704 -4.2039  0.5526  0.8377
  354MOL0     H48828   4.009   4.230   9.541  0.5910  0.1881  1.0354
  354MOL0     H48829   3.857   4.316   9.510  3.8947  1.3554 -4.4907
  354MOL0     H48830   3.822   4.158   9.314  2.3581 -1.2405 -0.5875
  354MOL0     H48831   3.993   4.105   9.337  1.8842  1.0506 -1.7544
  354MOL0     H48832   3.040   3.738   9.536  2.2390  2.7714  0.0077
  354MOL0     H48833   2.822   3.652   9.611 -0.1680  2.3164 -2.8299
  354MOL0     H48834   2.605   3.541   9.987 -0.2280  0.9899 -2.7524
  354MOL0     H48835   2.423   3.395  10.066 -0.7757  0.5814  0.0082
  354MOL0     H48836   0.666   3.370  10.641  1.4033  0.7875  1.4524
  354MOL0     H48837   0.450   3.211  10.637  2.1270  0.0820 -1.3520
  354MOL0     H48838  -0.035   3.207  10.687  1.9837  0.8369 -0.6891
  354MOL0     H48839  -0.213   3.059  10.688  1.1249 -0.0479 -0.7444
  354MOL0     H48840  -0.329   2.882  10.868  3.0202  0.0040 -0.6874
  354MOL0     H48841  -0.392   2.887  10.700 -0.1591 -0.5996 -1.6130
  354MOL0     H48842  -0.427   2.650  10.693 -2.0916  1.5950 -0.3129
  354MOL0     H48843  -0.526   2.711  10.826 -1.2071  0.3803 -0.6684
  354MOL0     H48844  -0.262   2.547  10.842 -0.3543 -2.5600  0.2488
  354MOL0     H48845  -0.318   2.640  10.979  2.4535 -2.6811  0.9129
  354MOL0     H48846  -0.384   2.394  10.959 -3.1864 -1.8059 -0.1303
  354MOL0     H48847  -0.476   2.437  10.817  2.1876 -1.3585 -0.2194
  354MOL0     H48848  -0.744   2.527  11.108 -2.2510  1.0958 -3.2332
  354MOL0     H48849   0.044   2.735  10.820 -0.8485 -0.0185  2.4644
  354MOL0     H48850   0.268   2.868  10.943 -1.0405  0.8737 -0.3169
  354MOL0     H48851   0.265   2.758  10.795 -1.2653 -0.3278 -0.1990
  354MOL0     H48852   0.345   2.911  10.789  0.2175  0.2763  0.1057
  355MOL0     O48853  10.838   6.803  10.614  0.2524 -0.2839 -0.5813
  355MOL0     C48854  10.736   6.866  10.583  0.0082 -1.6859 -0.6292
  355MOL0     O48855  10.738   6.977  10.508  0.0637 -0.0370 -0.0878
  355MOL0     C48856  10.850   7.019  10.449  0.2228  0.0765 -0.6136
  355MOL0     C48857  10.951   7.050  10.537 -0.8127 -0.3156  0.1919
  355MOL0     C48858  11.074   7.080  10.479 -0.1611 -0.5037  0.5855
  355MOL0     C48859  11.099   7.078  10.337 -0.2366 -0.0069 -0.4684
  355MOL0     O48860  11.227   7.087  10.281  0.0165  0.8893 -0.8885
  355MOL0     C48861  11.325   7.158  10.354  0.6644 -0.0891 -0.0682
  355MOL0     C48862  11.444   7.182  10.258  0.5731  0.6167  0.1857
  355MOL0     C48863  11.568   7.210  10.340 -0.0909 -0.0058 -1.1920
  355MOL0     C48864  11.663   7.309  10.260  0.4543  0.2791  0.4786
  355MOL0     C48865  11.790   7.331  10.326 -0.4637 -1.2270  0.3565
  355MOL0     C48866  11.779   7.453  10.427 -0.6704  1.5738  0.2053
  355MOL0     C48867  11.897   7.548  10.403  0.3604 -0.2490 -0.2851
  355MOL0     C48868  11.887   7.672  10.485  0.3931  0.9026 -0.6847
  355MOL0     N48869  12.014   7.749  10.478  0.2071  0.0578  0.3612
  355MOL0     C48870  12.113   7.751  10.572  0.5228  0.3695  0.4550
  355MOL0     C48871  12.194   7.850  10.525 -1.2403  0.6966 -0.5625
  355MOL0     C48872  12.308   7.898  10.608 -0.9026  0.1582 -0.2074
  355MOL0     C48873  12.259   7.991  10.731 -1.0768 -0.2379  0.1401
  355MOL0     C48874  12.347   7.986  10.861 -1.0972 -0.1307  0.4824
  355MOL0     C48875  12.473   8.070  10.856 -0.4979  0.1651 -0.8829
  355MOL0     O48876  12.517   8.121  10.986  0.2428  0.4168  0.6820
  355MOL0     C48877  12.627   8.213  10.981 -0.7690  1.2287 -0.1500
  355MOL0     C48878  12.695   8.247  10.867 -0.3589  0.1564  0.0693
  355MOL0     C48879  12.808   8.335  10.878  0.2866  0.2549  0.3940
  355MOL0     C48880  12.896   8.357  10.750 -0.2848  0.2189 -0.5744
  355MOL0     C48881  12.843   8.394  11.001  1.1552  0.3248 -0.3803
  355MOL0     C48882  12.972   8.478  11.034  1.2057  1.1492  0.1739
  355MOL0     O48883  13.047   8.497  10.930  0.3140  0.7445  0.2298
  355MOL0     C48884  13.118   8.611  10.912  0.1522 -0.6988 -0.1251
  355MOL0     C48885  13.224   8.598  10.819  0.3971 -0.1037  0.0448
  355MOL0     C48886  13.306   8.709  10.802 -0.1014 -0.1029  0.0909
  355MOL0     C48887  13.285   8.835  10.855  0.8398 -0.9850  0.7666
  355MOL0     O48888  13.366   8.949  10.823 -0.3886  0.5288 -0.0777
  355MOL0     C48889  13.481   8.932  10.731  0.5841  0.3617 -0.0840
  355MOL0     C48890  13.535   9.071  10.702  0.4458 -0.6848  0.2442
  355MOL0     C48891  13.552   9.177  10.808  0.7259 -0.3100  0.5400
  355MOL0     C48892  13.638   9.303  10.765 -0.3905  1.1687 -0.1744
  355MOL0     C48893  13.666   9.394  10.880 -0.2550 -0.5866  1.2869
  355MOL0     C48894  13.546   9.458  10.959 -0.0658  0.0344  0.2124
  355MOL0     C48895  13.456   9.533  10.864 -0.6181 -0.4556  0.0659
  355MOL0     C48896  13.527   9.638  10.773  0.1227  0.7268  0.2275
  355MOL0    Cl48897  13.608   9.763  10.871 -0.1337  0.1886 -0.1702
  355MOL0     C48898  13.164   8.850  10.933 -0.4854 -0.0698 -0.3288
  355MOL0     C48899  13.090   8.737  10.969  0.1751 -0.1129 -0.7264
  355MOL0     O48900  12.984   8.535  11.145 -0.0420 -0.2022  0.2270
  355MOL0     C48901  12.758   8.368  11.116  0.5392  0.3460 -0.4229
  355MOL0     C48902  12.655   8.276  11.108  0.7328 -0.2224  0.6900
  355MOL0     N48903  12.144   7.913  10.418  0.1639  0.4659  0.4709
  355MOL0     N48904  12.039   7.852  10.389  1.0585 -0.5501  0.8886
  355MOL0     C48905  10.992   7.058  10.249  0.2579  0.5928  0.1239
  355MOL0     C48906  10.866   7.027  10.306 -0.2529 -0.5330 -0.7287
  355MOL0     C48907  10.601   6.813  10.622 -0.3022 -0.3070  0.7306
  355MOL0     C48908  10.491   6.891  10.578 -0.3862  0.0051  0.4843
  355MOL0     C48909  10.361   6.859  10.607  0.1035  0.2917  0.0370
  355MOL0     C48910  10.327   6.746  10.681 -0.4283 -0.7280  0.1229
  355MOL0     O48911  10.200   6.689  10.692 -0.7500 -0.1255 -0.1411
  355MOL0     C48912  10.113   6.762  10.783  0.5930 -0.3876  0.7176
  355MOL0     C48913  10.018   6.838  10.692  0.3542 -0.1488  0.3832
  355MOL0     C48914   9.953   6.734  10.588  0.4445  0.2139 -0.9416
  355MOL0     C48915   9.859   6.630  10.668 -0.4928 -0.4697  0.0702
  355MOL0     C48916   9.755   6.572  10.583 -0.1799  0.4683 -0.3858
  355MOL0     C48917   9.664   6.530  10.521 -0.4816 -1.0488  0.0624
  355MOL0     C48918  10.442   6.675  10.735  0.2414 -0.1472 -0.6371
  355MOL0     C48919  10.577   6.703  10.709  0.1215  0.3117 -0.0818
  355MOL0     C48920  10.680   6.617  10.779  0.2955 -0.1513  0.4542
  355MOL0     H48921  10.940   7.052  10.645  0.0336  2.7678  0.2940
  355MOL0     H48922  11.164   7.090  10.539  1.6507 -0.1726 -2.0300
  355MOL0     H48923  11.359   7.112  10.448 -2.9902 -1.5910  0.6926
  355MOL0     H48924  11.279   7.248  10.395  1.0654 -0.0597  0.3320
  355MOL0     H48925  11.456   7.094  10.195  2.0864  0.2678  0.9386
  355MOL0     H48926  11.437   7.272  10.195 -0.4220  0.0138 -0.5864
  355MOL0     H48927  11.547   7.263  10.434  3.6890 -0.6329  0.1959
  355MOL0     H48928  11.622   7.119  10.367 -0.3032  0.4734  1.1198
  355MOL0     H48929  11.683   7.261  10.163  4.4230  1.2278  0.6752
  355MOL0     H48930  11.620   7.405  10.230  2.0521  0.9459  0.2105
  355MOL0     H48931  11.870   7.360  10.257 -1.7024  1.2616 -0.1151
  355MOL0     H48932  11.829   7.239  10.372  1.0628 -1.3808 -1.1342
  355MOL0     H48933  11.690   7.513  10.411 -1.8127 -0.0513  0.1879
  355MOL0     H48934  11.775   7.420  10.532  0.6380  0.2906 -0.1162
  355MOL0     H48935  11.902   7.585  10.300  1.5124 -1.3929 -0.6522
  355MOL0     H48936  11.992   7.502  10.430  2.4566  3.0942 -1.2904
  355MOL0     H48937  11.804   7.737  10.456 -1.8925 -0.5112  2.1306
  355MOL0     H48938  11.866   7.644  10.589 -2.2499  0.5497 -1.2569
  355MOL0     H48939  12.150   7.684  10.649  1.3728  0.4586  0.1282
  355MOL0     H48940  12.373   7.968  10.554  1.0474  2.5431  4.5800
  355MOL0     H48941  12.370   7.813  10.636 -2.0031 -1.0240 -1.2321
  355MOL0     H48942  12.265   8.091  10.688 -1.1801 -0.5983 -0.7318
  355MOL0     H48943  12.157   7.969  10.765 -1.3033 -2.0469 -1.5135
  355MOL0     H48944  12.284   8.012  10.947 -2.1373 -0.8724 -0.0279
  355MOL0     H48945  12.372   7.884  10.893  1.1714 -0.0626 -0.8817
  355MOL0     H48946  12.543   8.008  10.800 -0.3671  1.2724 -1.9973
  355MOL0     H48947  12.459   8.152  10.784 -1.1194 -0.5306 -1.5751
  355MOL0     H48948  12.666   8.209  10.770  2.2428 -1.3258 -0.2341
  355MOL0     H48949  12.860   8.297  10.667 -0.1384 -0.9169  0.1618
  355MOL0     H48950  13.002   8.335  10.768 -0.1837  1.9212  1.3048
  355MOL0     H48951  12.891   8.462  10.719  0.0803  0.4075 -0.0092
  355MOL0     H48952  13.252   8.501  10.778 -1.8298 -0.8442  0.0972
  355MOL0     H48953  13.397   8.697  10.745 -0.5782  2.7159 -1.4884
  355MOL0     H48954  13.549   8.862  10.781 -3.1229 -2.1014  1.9462
  355MOL0     H48955  13.451   8.887  10.637  1.3313 -1.1579  0.3682
  355MOL0     H48956  13.630   9.049  10.652  0.0027 -0.7780 -0.5738
  355MOL0     H48957  13.486   9.127  10.622  0.4708  2.8256  2.4796
  355MOL0     H48958  13.598   9.136  10.898 -0.2755 -0.3433  1.0564
  355MOL0     H48959  13.451   9.215  10.829  0.1894 -0.5037 -1.4468
  355MOL0     H48960  13.576   9.344  10.684 -1.0051 -1.8508 -1.3666
  355MOL0     H48961  13.734   9.272  10.723  0.6506 -0.3301  2.9739
  355MOL0     H48962  13.728   9.333  10.946  0.8710  0.4465  1.2142
  355MOL0     H48963  13.727   9.473  10.834  0.6517 -2.3696 -0.7922
  355MOL0     H48964  13.582   9.526  11.037 -1.0653  0.6306  0.1752
  355MOL0     H48965  13.488   9.374  10.998 -1.8422  1.2685  0.3654
  355MOL0     H48966  13.389   9.590  10.929 -0.2256 -1.3647  1.3219
  355MOL0     H48967  13.402   9.460  10.802 -3.1050 -0.0428  1.6120
  355MOL0     H48968  13.451   9.687  10.712  1.5072  1.6513 -0.8024
  355MOL0     H48969  13.606   9.604  10.706  1.3874  0.9854  1.5349
  355MOL0     H48970  13.159   8.949  10.978  3.1772 -0.1979  0.7194
  355MOL0     H48971  13.019   8.760  11.048  1.4661 -1.2518  0.8248
  355MOL0     H48972  12.788   8.420  11.206  1.6535  0.0609 -0.6153
  355MOL0     H48973  12.594   8.246  11.193  1.2312 -1.3144  0.6768
  355MOL0     H48974  11.003   7.065  10.141 -0.6830 -0.7831 -0.0804
  355MOL0     H48975  10.790   7.006  10.231 -0.2544 -2.0069 -0.3462
  355MOL0     H48976  10.511   6.984  10.526 -2.6816  0.4492  0.2723
  355MOL0     H48977  10.279   6.921  10.572  0.0201 -1.0571 -2.3815
  355MOL0     H48978  10.054   6.699  10.851 -1.3414 -0.0208 -0.5462
  355MOL0     H48979  10.168   6.836  10.842  1.9146 -0.2020 -0.6528
  355MOL0     H48980  10.065   6.919  10.636  0.0186 -0.4354 -0.3215
  355MOL0     H48981   9.950   6.897  10.754  0.7988 -0.0316  0.7613
  355MOL0     H48982   9.895   6.797  10.521 -0.3136  1.9474  1.2141
  355MOL0     H48983  10.029   6.680  10.531 -0.3816 -0.4513 -1.4371
  355MOL0     H48984   9.812   6.681  10.752  0.6477  1.3092 -0.3026
  355MOL0     H48985   9.914   6.543  10.705 -0.5672 -0.7931 -0.5535
  355MOL0     H48986   9.584   6.494  10.460 -0.0498  0.2183 -1.3033
  355MOL0     H48987  10.428   6.602  10.814 -1.2513  2.9079  2.1355
  355MOL0     H48988  10.765   6.677  10.812 -0.4974  1.0298  0.4170
  355MOL0     H48989  10.648   6.575  10.875  1.5767  0.1912  1.0504
  355MOL0     H48990  10.701   6.526  10.722 -2.3305 -0.5630 -0.0160
  356MOL0     O48991   5.616   9.812   7.201  0.3120  0.0256  0.0539
  356MOL0     C48992   5.526   9.870   7.267  0.6460  0.6229  0.6049
  356MOL0     O48993   5.539   9.998   7.309  0.2436 -0.5039  0.9888
  356MOL0     C48994   5.658  10.068   7.325 -0.2579 -0.5429  0.2100
  356MOL0     C48995   5.703  10.098   7.452 -0.0317 -0.4506  0.6011
  356MOL0     C48996   5.831  10.147   7.474 -0.4712 -0.1202 -0.0358
  356MOL0     C48997   5.911  10.171   7.365 -0.5921  0.5671  0.0079
  356MOL0     O48998   6.039  10.223   7.367  0.1271 -0.6544  0.1042
  356MOL0     C48999   6.107  10.202   7.487 -0.1317 -0.3551 -0.5431
  356MOL0     C49000   6.253  10.228   7.485  0.6502 -0.1090  0.4289
  356MOL0     C49001   6.330  10.128   7.379 -0.1915  0.2518  0.9293
  356MOL0     C49002   6.478  10.163   7.380 -0.2016 -0.5125 -0.2372
  356MOL0     C49003   6.540  10.061   7.280  0.0590  0.9261 -0.5958
  356MOL0     C49004   6.688  10.090   7.246  0.0128 -0.2965 -0.1544
  356MOL0     C49005   6.769  10.142   7.363  0.0245  0.5052  0.5161
  356MOL0     C49006   6.922  10.115   7.345  0.4161 -0.1905 -0.2139
  356MOL0     N49007   6.970  10.215   7.252 -0.8083  0.6797 -0.3695
  356MOL0     C49008   6.999  10.193   7.124 -0.0132 -0.2603 -0.2966
  356MOL0     C49009   7.067  10.299   7.077  0.2606 -0.2981  0.5637
  356MOL0     C49010   7.136  10.313   6.942  0.2043  0.2604  0.3617
  356MOL0     C49011   7.266  10.246   6.926  0.0583 -0.3456  0.2226
  356MOL0     C49012   7.357  10.257   7.055 -0.1236  0.3553  0.2030
  356MOL0     C49013   7.505  10.217   7.047 -0.2541 -0.3762  0.6376
  356MOL0     O49014   7.571  10.294   6.949 -0.4441  0.0727  0.3525
  356MOL0     C49015   7.710  10.278   6.944  0.0894  0.0014  0.4139
  356MOL0     C49016   7.790  10.203   7.033 -0.0612  0.3093  0.6656
  356MOL0     C49017   7.929  10.178   7.019  0.1131  0.1890 -0.0075
  356MOL0     C49018   7.986  10.078   7.111 -0.3377  0.2422 -0.2113
  356MOL0     C49019   7.992  10.246   6.920 -0.3548  0.7795 -0.1935
  356MOL0     C49020   8.138  10.242   6.911 -0.2662  0.3700 -0.0385
  356MOL0     O49021   8.177  10.229   6.776 -0.1351 -0.1355 -0.3478
  356MOL0     C49022   8.311  10.268   6.752  0.5875 -0.1526 -0.7290
  356MOL0     C49023   8.402  10.183   6.683 -0.4070 -0.2828 -0.2737
  356MOL0     C49024   8.530  10.227   6.646  0.3386 -0.5574  0.2162
  356MOL0     C49025   8.560  10.365   6.663 -0.4099 -0.1177  0.9160
  356MOL0     O49026   8.677  10.427   6.627 -0.1054  0.3291 -0.4930
  356MOL0     C49027   8.794  10.344   6.634  0.1267 -0.3031  0.3391
  356MOL0     C49028   8.844  10.287   6.766  0.5040  0.0341 -0.0135
  356MOL0     C49029   8.992  10.233   6.767 -1.4802 -0.0499  0.1449
  356MOL0     C49030   9.091  10.353   6.756 -0.6629 -0.0687  0.3816
  356MOL0     C49031   9.226  10.332   6.712 -1.7895 -0.3233 -0.1171
  356MOL0     C49032   9.317  10.445   6.753 -0.6010 -0.2961 -0.0333
  356MOL0     C49033   9.469  10.414   6.745 -0.1414 -0.5190  1.1038
  356MOL0     C49034   9.544  10.547   6.720  0.1254  0.8645 -0.7538
  356MOL0    Cl49035   9.517  10.661   6.858 -0.1864 -0.7691  0.1329
  356MOL0     C49036   8.466  10.451   6.725 -0.0831  0.5130  0.0570
  356MOL0     C49037   8.345  10.400   6.770 -0.4253 -0.0028 -0.4000
  356MOL0     O49038   8.217  10.254   7.013  0.6286  0.3244  0.6403
  356MOL0     C49039   7.921  10.327   6.828 -0.7396  0.2043  0.2871
  356MOL0     C49040   7.779  10.336   6.833 -0.3505 -0.0247 -0.3328
  356MOL0     N49041   7.064  10.392   7.181 -0.1937 -0.2331  0.6195
  356MOL0     N49042   7.004  10.342   7.286 -0.1423 -0.5269  0.6762
  356MOL0     C49043   5.870  10.150   7.236  0.0432  0.0147  0.6164
  356MOL0     C49044   5.739  10.109   7.212  0.0788 -0.0768 -0.1618
  356MOL0     C49045   5.397   9.799   7.308 -0.3481  0.0668  0.1964
  356MOL0     C49046   5.306   9.862   7.393  0.2576  0.0248 -0.0777
  356MOL0     C49047   5.183   9.813   7.427  0.6283  0.7487  0.6882
  356MOL0     C49048   5.141   9.687   7.392  0.9658  0.9209  0.9271
  356MOL0     O49049   5.019   9.634   7.430 -0.1534  0.0170 -0.8846
  356MOL0     C49050   4.963   9.510   7.378 -0.7714  0.3810 -0.1868
  356MOL0     C49051   4.828   9.466   7.430  0.5940 -0.0697 -0.4966
  356MOL0     C49052   4.716   9.567   7.414  0.0533  0.5617  0.2228
  356MOL0     C49053   4.695   9.598   7.261 -0.0765 -0.0627  0.4417
  356MOL0     C49054   4.630   9.495   7.185  0.7797  0.5948 -0.0169
  356MOL0     C49055   4.571   9.397   7.139  0.7436  0.2737  0.3389
  356MOL0     C49056   5.231   9.617   7.305  0.2745 -0.1384 -0.4395
  356MOL0     C49057   5.361   9.665   7.267  0.6063 -0.1536 -0.3124
  356MOL0     C49058   5.444   9.577   7.162  0.2728 -0.6149  0.2154
  356MOL0     H49059   5.645  10.073   7.540 -0.7361 -1.9543 -0.2367
  356MOL0     H49060   5.856  10.179   7.575  3.4984 -1.5498 -0.3883
  356MOL0     H49061   6.096  10.098   7.520 -2.0586 -0.1707 -0.4629
  356MOL0     H49062   6.070  10.280   7.554  0.0340 -0.2386 -0.5878
  356MOL0     H49063   6.258  10.334   7.458  2.8012  0.0636  1.2341
  356MOL0     H49064   6.293  10.218   7.587 -3.3583  0.2348  2.1939
  356MOL0     H49065   6.297  10.026   7.400 -0.7722  0.0699 -0.7140
  356MOL0     H49066   6.282  10.156   7.284  0.8512 -1.4151 -0.1412
  356MOL0     H49067   6.493  10.267   7.350  0.1689 -0.6671 -0.5929
  356MOL0     H49068   6.511  10.148   7.483  1.3502 -1.0033 -0.7890
  356MOL0     H49069   6.482  10.057   7.187  0.9670  2.6008 -1.2795
  356MOL0     H49070   6.535   9.958   7.316 -2.3808  1.4701  0.9253
  356MOL0     H49071   6.730  10.002   7.196  0.8515 -0.6806  1.1714
  356MOL0     H49072   6.679  10.170   7.172 -0.4373  0.7087  0.9486
  356MOL0     H49073   6.744  10.087   7.455  1.8136 -1.8575 -0.3064
  356MOL0     H49074   6.754  10.244   7.398 -1.6573  0.1670  0.8845
  356MOL0     H49075   6.975  10.121   7.441  0.5696 -1.5195 -0.1946
  356MOL0     H49076   6.936  10.013   7.307  0.1493 -0.8543  1.3720
  356MOL0     H49077   6.973  10.093   7.090  0.5248 -1.7925  3.3361
  356MOL0     H49078   7.134  10.421   6.921  1.3727  0.4874  1.3333
  356MOL0     H49079   7.067  10.284   6.861  1.7788 -1.3649 -0.4616
  356MOL0     H49080   7.233  10.142   6.914 -0.7388 -0.1129  0.3355
  356MOL0     H49081   7.304  10.282   6.830 -0.9004 -1.1751 -0.4949
  356MOL0     H49082   7.345  10.362   7.082 -5.2346  0.8014 -2.5241
  356MOL0     H49083   7.315  10.199   7.138  0.9109 -1.9540 -0.7714
  356MOL0     H49084   7.549  10.235   7.145 -1.3577 -0.2594  1.1175
  356MOL0     H49085   7.518  10.110   7.025 -1.8322 -0.2783 -1.1143
  356MOL0     H49086   7.743  10.154   7.118 -1.3054 -0.0896 -0.2199
  356MOL0     H49087   7.997   9.983   7.058 -4.1640 -0.1846 -0.5628
  356MOL0     H49088   7.920  10.052   7.195 -1.2376 -1.7789 -1.4711
  356MOL0     H49089   8.084  10.113   7.145 -0.7337  0.3775  0.8472
  356MOL0     H49090   8.381  10.080   6.657  0.9076 -0.3344 -1.2577
  356MOL0     H49091   8.603  10.162   6.600  1.5869 -1.9382  3.7605
  356MOL0     H49092   8.785  10.263   6.560  0.5397 -1.1525  1.1899
  356MOL0     H49093   8.868  10.410   6.590 -0.6815  0.0708 -0.4958
  356MOL0     H49094   8.835  10.372   6.835 -0.8144 -1.0308  1.1985
  356MOL0     H49095   8.779  10.203   6.796  0.1725 -0.1401 -1.1797
  356MOL0     H49096   9.017  10.174   6.678  0.4743 -0.6537  1.0289
  356MOL0     H49097   9.016  10.168   6.852 -1.2149  2.1770  1.8695
  356MOL0     H49098   9.098  10.393   6.857  3.7705  0.5607  0.0315
  356MOL0     H49099   9.046  10.437   6.703  0.0383  0.1068  0.0582
  356MOL0     H49100   9.262  10.235   6.749 -3.8276 -1.1342 -0.0855
  356MOL0     H49101   9.231  10.325   6.602  2.8810 -1.0493 -0.0352
  356MOL0     H49102   9.294  10.475   6.856 -1.0568  2.9552 -0.9649
  356MOL0     H49103   9.289  10.531   6.690 -0.0931  0.5720  0.8979
  356MOL0     H49104   9.488  10.342   6.665 -0.8468 -0.9150  1.2934
  356MOL0     H49105   9.510  10.357   6.828 -1.4873 -0.0991  2.0860
  356MOL0     H49106   9.507  10.587   6.625 -3.3629 -1.8875 -0.7784
  356MOL0     H49107   9.652  10.534   6.712  0.0413 -1.8151  1.2138
  356MOL0     H49108   8.491  10.556   6.725 -2.3271  1.1077 -1.2183
  356MOL0     H49109   8.277  10.475   6.807  2.7324  3.1248 -0.3448
  356MOL0     H49110   7.968  10.387   6.750 -0.6746  1.1848  1.0631
  356MOL0     H49111   7.730  10.401   6.761  0.6261  0.4315 -0.6056
  356MOL0     H49112   5.933  10.169   7.150  0.1084  2.4156  1.1141
  356MOL0     H49113   5.690  10.090   7.117 -1.4998 -1.8794  0.9548
  356MOL0     H49114   5.313   9.965   7.428 -1.5249  0.6517 -1.3703
  356MOL0     H49115   5.110   9.865   7.488 -0.9907  0.4003 -0.8736
  356MOL0     H49116   4.951   9.512   7.269 -1.1153 -2.2179 -0.2488
  356MOL0     H49117   5.045   9.440   7.396 -0.4336  0.0050 -2.8107
  356MOL0     H49118   4.842   9.443   7.536  0.7287 -1.2776 -0.7634
  356MOL0     H49119   4.797   9.373   7.381  0.9430 -0.2473 -0.3802
  356MOL0     H49120   4.622   9.530   7.457 -2.1488  1.8730 -3.0722
  356MOL0     H49121   4.746   9.657   7.468  0.3931 -0.4942  1.8572
  356MOL0     H49122   4.789   9.626   7.213  0.2694  2.2444  2.2517
  356MOL0     H49123   4.633   9.687   7.245  1.3274  1.2111  1.7843
  356MOL0     H49124   4.519   9.312   7.100  0.4733 -0.5183  2.3214
  356MOL0     H49125   5.212   9.514   7.277 -4.0353 -0.2001  1.7678
  356MOL0     H49126   5.400   9.478   7.150  1.9971 -1.6636  1.9905
  356MOL0     H49127   5.426   9.624   7.065  0.9243 -0.1827  0.2921
  356MOL0     H49128   5.552   9.565   7.179  1.0393  0.9477 -2.8018
  357MOL0     O49129   3.633   4.726   4.320 -0.9623 -0.5964 -0.4212
  357MOL0     C49130   3.529   4.768   4.276  0.1781 -0.1997  1.0994
  357MOL0     O49131   3.405   4.774   4.335  0.6329 -0.3542  0.5241
  357MOL0     C49132   3.406   4.745   4.474 -0.4545  0.7079 -0.8180
  357MOL0     C49133   3.411   4.838   4.580 -0.4734  0.5766 -0.0722
  357MOL0     C49134   3.409   4.796   4.708 -1.4309  0.2300 -0.5640
  357MOL0     C49135   3.409   4.661   4.749  0.2035  0.8881  0.0604
  357MOL0     O49136   3.388   4.628   4.873  0.1348  1.0080  0.2136
  357MOL0     C49137   3.349   4.721   4.971  0.1296 -0.1673  0.0640
  357MOL0     C49138   3.299   4.662   5.106  0.1080 -0.1652  0.3764
  357MOL0     C49139   3.428   4.598   5.179  0.7261 -0.3816  0.0506
  357MOL0     C49140   3.512   4.706   5.249  0.2432  0.2578 -0.5548
  357MOL0     C49141   3.646   4.669   5.311 -0.2411  0.1345  0.0469
  357MOL0     C49142   3.705   4.795   5.376  0.2340  0.0037  0.3091
  357MOL0     C49143   3.819   4.766   5.487 -0.1926  0.0841  0.6850
  357MOL0     C49144   3.885   4.892   5.523  0.4102  0.6359 -0.4388
  357MOL0     N49145   3.997   4.929   5.436 -0.5629 -0.7242 -0.1197
  357MOL0     C49146   4.115   4.857   5.437  0.1421 -0.8112 -0.4411
  357MOL0     C49147   4.172   4.897   5.321 -0.2556 -0.5358  0.3136
  357MOL0     C49148   4.311   4.858   5.264  0.9917 -0.5024  0.3617
  357MOL0     C49149   4.403   4.980   5.235 -0.7007  0.3288 -0.6696
  357MOL0     C49150   4.469   5.043   5.357  0.2873 -0.1244 -0.7557
  357MOL0     C49151   4.576   5.138   5.329 -0.2917  0.1260  0.4067
  357MOL0     O49152   4.656   5.176   5.443  0.3452  0.6945 -0.3957
  357MOL0     C49153   4.742   5.278   5.423 -0.8819  0.6501  0.3822
  357MOL0     C49154   4.776   5.336   5.304 -0.1098 -0.9483 -0.2383
  357MOL0     C49155   4.862   5.446   5.297  0.1096  0.8430  1.0138
  357MOL0     C49156   4.902   5.500   5.158 -0.0209  1.3069  0.3616
  357MOL0     C49157   4.914   5.492   5.415 -0.6278  0.4227  0.0422
  357MOL0     C49158   5.020   5.591   5.427 -0.8186  0.1523  0.0003
  357MOL0     O49159   5.071   5.602   5.551  0.5557  0.2110 -0.6071
  357MOL0     C49160   5.195   5.665   5.561  0.1579 -0.4285 -0.4760
  357MOL0     C49161   5.203   5.797   5.603  0.0635  0.4163 -0.2918
  357MOL0     C49162   5.331   5.857   5.621 -0.7439  0.6355  0.5560
  357MOL0     C49163   5.447   5.786   5.591 -0.2741 -0.1367 -0.1852
  357MOL0     O49164   5.567   5.845   5.610  0.6093 -0.3070 -0.9553
  357MOL0     C49165   5.598   5.955   5.538  0.8113 -0.2389 -0.3428
  357MOL0     C49166   5.731   6.004   5.582 -0.1882  0.6695 -0.2715
  357MOL0     C49167   5.830   6.044   5.472  0.0069 -0.3553  0.6427
  357MOL0     C49168   5.961   6.093   5.539 -0.0793  0.1508 -0.2900
  357MOL0     C49169   6.066   6.079   5.427  0.1823  0.9931 -0.0106
  357MOL0     C49170   6.189   6.165   5.464 -0.4740 -0.4624 -0.2062
  357MOL0     C49171   6.282   6.103   5.573  0.8396 -0.4532  0.0569
  357MOL0     C49172   6.430   6.149   5.556 -1.1128  0.1219  0.7032
  357MOL0    Cl49173   6.496   6.060   5.421 -0.0107  0.2851  0.0792
  357MOL0     C49174   5.432   5.654   5.548 -0.9143 -0.0240  0.4746
  357MOL0     C49175   5.312   5.593   5.533  0.8577 -0.6597 -0.1139
  357MOL0     O49176   5.043   5.674   5.338  0.0074  0.1286  0.2016
  357MOL0     C49177   4.872   5.437   5.540 -0.0994  0.6041 -0.5534
  357MOL0     C49178   4.782   5.331   5.538  0.0325  0.3748  0.4844
  357MOL0     N49179   4.082   4.988   5.255 -0.1236  0.6130  0.9122
  357MOL0     N49180   3.976   5.004   5.322  0.3521  0.2523  0.7970
  357MOL0     C49181   3.410   4.565   4.643 -0.1550  0.1525 -0.4613
  357MOL0     C49182   3.405   4.612   4.508  0.0108  0.3360 -0.1456
  357MOL0     C49183   3.527   4.843   4.138  0.3483 -0.1208 -0.7859
  357MOL0     C49184   3.407   4.882   4.074 -0.4887 -0.1064 -0.0631
  357MOL0     C49185   3.413   4.938   3.951  0.1605 -0.3757 -0.0500
  357MOL0     C49186   3.531   4.977   3.883 -0.2477 -0.2435 -0.0147
  357MOL0     O49187   3.518   5.038   3.760  0.1714 -0.0999 -0.1614
  357MOL0     C49188   3.634   5.095   3.697 -0.4575 -0.1088 -0.1943
  357MOL0     C49189   3.607   5.189   3.575  0.6225 -0.4711 -0.6984
  357MOL0     C49190   3.504   5.307   3.611  0.2259 -0.4794 -0.2089
  357MOL0     C49191   3.554   5.414   3.699 -0.2154 -0.7552 -0.1257
  357MOL0     C49192   3.646   5.506   3.628  0.2613  0.8772  0.0644
  357MOL0     C49193   3.723   5.584   3.581 -0.1476  0.1492  0.1127
  357MOL0     C49194   3.648   4.956   3.950 -0.0159  0.6154 -0.5434
  357MOL0     C49195   3.650   4.874   4.072 -0.1650 -0.2555  0.8471
  357MOL0     C49196   3.789   4.840   4.129 -0.2939  0.4688 -0.1846
  357MOL0     H49197   3.435   4.941   4.555  1.8989  0.5944  1.9161
  357MOL0     H49198   3.431   4.865   4.788 -3.1200 -0.8166  0.8715
  357MOL0     H49199   3.268   4.774   4.921 -0.0132 -0.7651 -0.3498
  357MOL0     H49200   3.424   4.800   4.979 -0.3254  0.1606  1.3233
  357MOL0     H49201   3.245   4.741   5.159 -0.0292 -1.6851  2.6242
  357MOL0     H49202   3.231   4.577   5.090 -2.0835  1.8458 -2.0093
  357MOL0     H49203   3.397   4.522   5.251 -0.4092  0.7783  0.8334
  357MOL0     H49204   3.486   4.539   5.107  0.4830  0.9378 -1.2824
  357MOL0     H49205   3.530   4.790   5.182  2.4544  0.7376  0.5498
  357MOL0     H49206   3.446   4.750   5.325 -1.2251  0.3014 -1.8138
  357MOL0     H49207   3.721   4.628   5.243 -1.9748 -1.4374 -1.0214
  357MOL0     H49208   3.626   4.593   5.387 -0.9106  0.1384 -0.1169
  357MOL0     H49209   3.759   4.854   5.301  0.1227 -0.7018 -0.3341
  357MOL0     H49210   3.625   4.864   5.406  1.7988  3.3769 -2.5607
  357MOL0     H49211   3.880   4.686   5.443 -0.0881  1.9916 -3.0029
  357MOL0     H49212   3.786   4.726   5.583  0.6674 -2.8055 -0.1104
  357MOL0     H49213   3.810   4.970   5.531 -2.1526 -1.5360 -1.8136
  357MOL0     H49214   3.922   4.867   5.624  0.1936  0.2300 -0.4582
  357MOL0     H49215   4.159   4.794   5.514  2.5218  1.6126  0.3311
  357MOL0     H49216   4.298   4.807   5.168  1.1481 -1.5138  0.8643
  357MOL0     H49217   4.368   4.791   5.329  1.3453  1.5829  2.3519
  357MOL0     H49218   4.482   4.932   5.176  0.4496  1.6580 -0.2775
  357MOL0     H49219   4.344   5.056   5.185 -2.2975  0.0581  0.7196
  357MOL0     H49220   4.385   5.090   5.410 -0.0987  1.0319 -2.3100
  357MOL0     H49221   4.499   4.969   5.432 -1.4679 -0.7014 -0.5706
  357MOL0     H49222   4.643   5.090   5.256 -0.5974  0.7243 -0.2798
  357MOL0     H49223   4.524   5.227   5.293 -1.4260 -0.1897  1.2467
  357MOL0     H49224   4.737   5.299   5.210 -0.5172 -0.6409 -0.1937
  357MOL0     H49225   5.002   5.464   5.133 -0.5277 -1.4704  1.9189
  357MOL0     H49226   4.900   5.610   5.155  1.2877  1.4251  2.0936
  357MOL0     H49227   4.833   5.459   5.084  2.6224  2.3081 -2.9034
  357MOL0     H49228   5.122   5.858   5.642 -0.3585 -0.5229  0.3351
  357MOL0     H49229   5.332   5.962   5.650  1.5336  0.1607  2.4398
  357MOL0     H49230   5.592   5.943   5.430 -1.6053 -0.1169 -0.2789
  357MOL0     H49231   5.517   6.027   5.559  1.6606  0.4676  0.6362
  357MOL0     H49232   5.722   6.094   5.644  0.9879  0.7912 -0.2650
  357MOL0     H49233   5.767   5.918   5.639  0.3714  1.9889  1.4424
  357MOL0     H49234   5.787   6.122   5.410  0.3999 -0.5881  0.0698
  357MOL0     H49235   5.843   5.957   5.407  2.5411 -0.0952  0.6836
  357MOL0     H49236   5.983   6.031   5.627 -1.5544 -1.5876 -1.0957
  357MOL0     H49237   5.946   6.196   5.574 -5.1540 -0.3120 -0.3151
  357MOL0     H49238   6.090   5.972   5.423 -3.3571 -0.0990  2.7872
  357MOL0     H49239   6.019   6.112   5.334 -0.9441  1.6135  0.7524
  357MOL0     H49240   6.171   6.272   5.479 -1.0133 -0.0414 -3.3163
  357MOL0     H49241   6.245   6.164   5.370  1.1219  5.5759  0.2606
  357MOL0     H49242   6.276   5.994   5.578 -1.5172 -0.3112  2.0202
  357MOL0     H49243   6.238   6.137   5.667 -0.9313  0.1851 -0.9563
  357MOL0     H49244   6.485   6.119   5.645  0.1482  1.3290  0.3628
  357MOL0     H49245   6.444   6.257   5.547 -0.2730 -0.0130  0.3117
  357MOL0     H49246   5.521   5.594   5.530 -0.4501  0.8497 -0.2107
  357MOL0     H49247   5.296   5.494   5.491  1.7502 -0.0345 -2.0503
  357MOL0     H49248   4.922   5.457   5.634  0.3243  0.6065 -0.7773
  357MOL0     H49249   4.747   5.288   5.631 -3.4892  2.5909  0.3451
  357MOL0     H49250   3.409   4.457   4.651  2.6382  0.0896 -0.0263
  357MOL0     H49251   3.380   4.547   4.424 -2.3215  2.3757 -1.1572
  357MOL0     H49252   3.310   4.856   4.113  0.0677 -1.1798  0.6656
  357MOL0     H49253   3.314   4.962   3.913  0.3692  1.5618  0.5228
  357MOL0     H49254   3.703   5.139   3.769 -2.7512  0.6820  1.6392
  357MOL0     H49255   3.692   5.010   3.659  0.1205  0.9175 -1.6909
  357MOL0     H49256   3.569   5.130   3.491  1.3666  0.1715 -1.4932
  357MOL0     H49257   3.701   5.239   3.551 -0.4334  1.5940 -0.7339
  357MOL0     H49258   3.470   5.360   3.522 -2.4872 -0.3506  0.8091
  357MOL0     H49259   3.420   5.261   3.664 -0.1399 -0.1686 -0.5171
  357MOL0     H49260   3.601   5.369   3.786  0.3904  0.2009  0.0532
  357MOL0     H49261   3.475   5.481   3.735 -0.6899 -0.9659 -0.7466
  357MOL0     H49262   3.784   5.660   3.537 -0.7303  1.5297  1.5794
  357MOL0     H49263   3.740   4.985   3.899 -0.4553 -0.7293 -2.1990
  357MOL0     H49264   3.871   4.859   4.060  0.0362  2.2615  0.6408
  357MOL0     H49265   3.808   4.894   4.222  1.8132  0.1978 -0.4131
  357MOL0     H49266   3.793   4.732   4.144 -0.1579  0.4340 -0.4711
  358MOL0     O49267   4.697   5.162   6.203  0.4249  0.0464  0.3252
  358MOL0     C49268   4.724   5.266   6.143  0.3714 -0.9098  0.7381
  358MOL0     O49269   4.640   5.368   6.121  0.2208 -0.3702 -0.0647
  358MOL0     C49270   4.510   5.352   6.140 -0.6045 -0.4884  0.7590
  358MOL0     C49271   4.447   5.335   6.265 -1.1375 -0.2904 -1.0229
  358MOL0     C49272   4.315   5.300   6.269  0.2901 -0.1778  0.0708
  358MOL0     C49273   4.236   5.301   6.155  0.0692  0.1008  0.5729
  358MOL0     O49274   4.102   5.275   6.169  0.0710 -0.0197  0.6838
  358MOL0     C49275   4.019   5.286   6.049  0.0117 -0.4718 -0.0966
  358MOL0     C49276   3.875   5.275   6.095  0.4380  0.5310 -1.2411
  358MOL0     C49277   3.855   5.160   6.193 -0.1770 -0.4221 -0.6236
  358MOL0     C49278   3.860   5.012   6.143 -0.1236  0.6716  0.7421
  358MOL0     C49279   3.819   4.911   6.251  0.4960  0.0465 -0.4345
  358MOL0     C49280   3.804   4.777   6.191 -0.9608  0.7680  0.6102
  358MOL0     C49281   3.765   4.671   6.295  0.8591 -0.1125 -1.0159
  358MOL0     C49282   3.775   4.533   6.232  0.8405 -0.6181  0.4023
  358MOL0     N49283   3.775   4.415   6.322 -0.6133  0.1794 -0.8355
  358MOL0     C49284   3.864   4.304   6.319 -0.0964 -0.4715  0.1111
  358MOL0     C49285   3.806   4.205   6.397 -0.7200  0.2458 -0.1167
  358MOL0     C49286   3.861   4.075   6.444 -1.2547 -0.1382 -1.1443
  358MOL0     C49287   3.912   4.074   6.594  0.6770  0.2427 -0.9132
  358MOL0     C49288   4.017   3.958   6.592 -0.4370  0.8045 -0.8212
  358MOL0     C49289   4.047   3.898   6.739  0.4060 -0.1710  0.9230
  358MOL0     O49290   4.105   4.013   6.805 -0.3191  0.2042  0.7935
  358MOL0     C49291   4.186   3.977   6.914  0.0166 -0.2003 -0.5715
  358MOL0     C49292   4.307   4.042   6.938 -0.2172  0.2880 -0.0730
  358MOL0     C49293   4.400   4.012   7.030 -0.2418  0.3098 -0.2004
  358MOL0     C49294   4.517   4.094   7.045  0.2329 -0.2365 -0.4792
  358MOL0     C49295   4.374   3.901   7.106  0.2170  0.8981 -0.4560
  358MOL0     C49296   4.471   3.843   7.206 -0.1690  0.9765  0.0925
  358MOL0     O49297   4.544   3.934   7.288 -0.4487  0.0672 -0.4872
  358MOL0     C49298   4.607   3.890   7.402 -0.4693  0.0573  0.0073
  358MOL0     C49299   4.723   3.817   7.390 -0.6252  0.1033 -0.2066
  358MOL0     C49300   4.808   3.799   7.500  0.6383 -0.0914 -0.0273
  358MOL0     C49301   4.776   3.840   7.628  0.3131 -0.2601  1.0675
  358MOL0     O49302   4.872   3.821   7.727  0.1359  0.1836  0.1750
  358MOL0     C49303   4.839   3.866   7.855  0.5547 -0.8604  0.3124
  358MOL0     C49304   4.945   3.842   7.959  0.2758  0.5876 -0.1906
  358MOL0     C49305   5.063   3.951   7.962 -0.6579  0.5796  0.5784
  358MOL0     C49306   5.153   3.894   8.079  0.4344  0.5350  0.0035
  358MOL0     C49307   5.256   3.997   8.125 -0.1092  0.5225  0.8032
  358MOL0     C49308   5.326   3.949   8.245 -0.2906  0.5703  0.4616
  358MOL0     C49309   5.479   3.956   8.233  0.2740  0.1787 -0.7815
  358MOL0     C49310   5.526   4.093   8.280 -0.4296  0.3360  0.1655
  358MOL0    Cl49311   5.520   4.100   8.462  0.0584  0.5738  0.6215
  358MOL0     C49312   4.644   3.890   7.640  0.4053  0.5338  0.8974
  358MOL0     C49313   4.567   3.924   7.528 -0.0470 -0.4894  0.8116
  358MOL0     O49314   4.480   3.720   7.218 -1.0468 -0.2552  0.5325
  358MOL0     C49315   4.252   3.832   7.096 -0.6756  0.0420  0.8582
  358MOL0     C49316   4.161   3.872   7.003  0.1441 -0.1672  0.5477
  358MOL0     N49317   3.692   4.266   6.449 -0.0428  0.4020  0.2697
  358MOL0     N49318   3.680   4.385   6.411  0.1631  0.8234  0.1478
  358MOL0     C49319   4.303   5.322   6.032  0.2461 -0.4403  0.2871
  358MOL0     C49320   4.442   5.330   6.025  0.6159  0.0445 -0.2222
  358MOL0     C49321   4.863   5.291   6.099 -0.0327  1.5497 -0.2838
  358MOL0     C49322   4.949   5.179   6.080 -0.3892  0.3688 -0.0254
  358MOL0     C49323   5.067   5.197   5.996 -0.1914 -0.2529  0.3984
  358MOL0     C49324   5.115   5.324   5.957 -0.4342  1.1713 -0.3540
  358MOL0     O49325   5.238   5.323   5.896 -1.0527 -0.2421  0.1607
  358MOL0     C49326   5.290   5.434   5.815 -0.2288 -0.2129  0.6461
  358MOL0     C49327   5.385   5.523   5.893 -0.0504  0.1894  0.0609
  358MOL0     C49328   5.510   5.438   5.940 -0.1993  0.0269  0.1477
  358MOL0     C49329   5.612   5.386   5.838  0.4873  0.5435  0.2822
  358MOL0     C49330   5.683   5.495   5.775 -0.7630  0.0537  0.2968
  358MOL0     C49331   5.754   5.571   5.710  0.1829  0.3498 -0.2755
  358MOL0     C49332   5.039   5.433   6.006  0.3364 -0.5331  0.2543
  358MOL0     C49333   4.911   5.422   6.069 -0.2950  0.2357  0.4682
  358MOL0     C49334   4.848   5.552   6.111  0.7583  0.4834  0.2169
  358MOL0     H49335   4.518   5.344   6.346 -1.4780  1.1793 -0.8589
  358MOL0     H49336   4.264   5.268   6.360  1.6103 -0.8156  0.6080
  358MOL0     H49337   4.050   5.210   5.977  0.6668  0.1724 -0.5074
  358MOL0     H49338   4.027   5.392   6.022  0.5621 -0.0693  1.4801
  358MOL0     H49339   3.858   5.365   6.154  1.7869 -0.3130  0.5269
  358MOL0     H49340   3.806   5.263   6.010  0.4653  1.2664 -1.3682
  358MOL0     H49341   3.924   5.167   6.277  0.2893  0.5076 -1.0755
  358MOL0     H49342   3.755   5.166   6.239  0.9135  1.6116  1.6933
  358MOL0     H49343   3.786   5.006   6.063  1.6926 -1.2858 -0.9057
  358MOL0     H49344   3.962   4.986   6.110  0.1894  3.2290 -0.5649
  358MOL0     H49345   3.725   4.940   6.299  2.2492 -0.0506  3.3996
  358MOL0     H49346   3.897   4.899   6.327  1.0214 -3.6756 -1.3528
  358MOL0     H49347   3.736   4.780   6.105  2.6141  1.1119 -2.4424
  358MOL0     H49348   3.903   4.751   6.152  0.4848  1.5293  3.4657
  358MOL0     H49349   3.666   4.691   6.336  0.7436  1.5341 -2.0295
  358MOL0     H49350   3.831   4.660   6.381 -1.1655  0.1451  0.6517
  358MOL0     H49351   3.700   4.515   6.154  1.4381  2.7401 -1.1165
  358MOL0     H49352   3.865   4.510   6.174 -0.5684 -0.0265 -2.1969
  358MOL0     H49353   3.961   4.298   6.269  0.7906  0.3595  1.6703
  358MOL0     H49354   3.934   4.039   6.371 -0.7866  0.9819 -1.2577
  358MOL0     H49355   3.788   3.994   6.446 -0.8064 -0.6091 -2.7369
  358MOL0     H49356   3.974   4.161   6.615  1.5867 -0.4963 -0.4706
  358MOL0     H49357   3.827   4.061   6.662  0.1717 -0.0208 -1.5782
  358MOL0     H49358   3.978   3.877   6.529 -0.8053  1.3008 -1.2325
  358MOL0     H49359   4.115   3.984   6.551  1.4404 -1.4370  1.7997
  358MOL0     H49360   3.953   3.863   6.784 -0.7304 -1.2641 -2.0104
  358MOL0     H49361   4.119   3.816   6.729  1.3666  0.6548  0.9764
  358MOL0     H49362   4.330   4.126   6.872  0.3063 -0.3413 -0.7115
  358MOL0     H49363   4.607   4.046   7.084 -1.3538 -2.4986  0.6333
  358MOL0     H49364   4.494   4.179   7.111  0.8547 -1.0380  0.8247
  358MOL0     H49365   4.535   4.134   6.945  0.8128  3.3238  0.9098
  358MOL0     H49366   4.739   3.776   7.290  0.7838  0.1816 -0.0308
  358MOL0     H49367   4.898   3.740   7.498 -0.2174 -1.4103 -0.8604
  358MOL0     H49368   4.799   3.967   7.863  0.4561 -0.9816  1.4872
  358MOL0     H49369   4.758   3.800   7.889 -2.7785  1.5739 -2.1849
  358MOL0     H49370   4.904   3.847   8.060 -1.1574 -1.5397 -0.5949
  358MOL0     H49371   4.988   3.743   7.939 -2.9081 -0.9230 -0.1563
  358MOL0     H49372   5.019   4.048   7.987 -1.2851  0.2509  0.7700
  358MOL0     H49373   5.117   3.948   7.866  0.7865  1.9101  1.3080
  358MOL0     H49374   5.204   3.802   8.048 -0.1168  0.6295 -1.2859
  358MOL0     H49375   5.083   3.886   8.162  1.2728 -0.2400  0.6556
  358MOL0     H49376   5.326   4.006   8.041 -2.5911 -1.3332 -1.6217
  358MOL0     H49377   5.200   4.090   8.139  1.4539  1.9857 -1.7983
  358MOL0     H49378   5.299   3.843   8.255 -0.2389  0.4678 -0.3924
  358MOL0     H49379   5.286   3.996   8.335 -0.2182 -1.4314  1.5884
  358MOL0     H49380   5.513   3.934   8.131 -0.7204 -1.1246 -0.8530
  358MOL0     H49381   5.516   3.881   8.303 -2.3635 -1.0034 -0.5651
  358MOL0     H49382   5.448   4.160   8.243  1.5300  1.6054 -1.9415
  358MOL0     H49383   5.627   4.109   8.242  0.7911 -0.1204  2.9980
  358MOL0     H49384   4.617   3.935   7.735 -1.8256  0.7489  0.2265
  358MOL0     H49385   4.475   3.974   7.556  0.2227 -1.7908  4.6472
  358MOL0     H49386   4.227   3.737   7.142  1.7699 -1.9315 -1.5551
  358MOL0     H49387   4.080   3.802   6.985  1.6794 -1.4849 -1.7588
  358MOL0     H49388   4.247   5.321   5.939  0.1427  1.7847  0.2929
  358MOL0     H49389   4.484   5.337   5.925 -0.9698  0.4157 -0.8838
  358MOL0     H49390   4.919   5.079   6.111  1.2421  0.2043  1.1482
  358MOL0     H49391   5.126   5.114   5.957 -0.6818  0.0425 -1.0144
  358MOL0     H49392   5.336   5.402   5.721 -2.1102  2.3132 -1.2972
  358MOL0     H49393   5.204   5.494   5.783 -0.0133 -1.5291 -2.8331
  358MOL0     H49394   5.327   5.555   5.980  0.5713 -1.0346  0.9501
  358MOL0     H49395   5.414   5.610   5.833 -1.4635  2.2304  2.1656
  358MOL0     H49396   5.558   5.499   6.016  2.2091  1.1321 -2.1048
  358MOL0     H49397   5.471   5.341   5.973 -1.4567 -0.0031 -1.2940
  358MOL0     H49398   5.564   5.327   5.759 -3.3584 -0.9573  3.4222
  358MOL0     H49399   5.678   5.313   5.885  0.7736  1.4952  1.3807
  358MOL0     H49400   5.810   5.642   5.653 -1.4561  0.6025 -1.6844
  358MOL0     H49401   5.080   5.530   5.978  0.6050 -1.0333 -1.2132
  358MOL0     H49402   4.935   5.615   6.132  0.8267  0.4428  0.0605
  358MOL0     H49403   4.799   5.597   6.024  1.5828  4.0303  1.3891
  358MOL0     H49404   4.786   5.544   6.200 -1.5806 -1.0329 -1.4498
  359MOL0     O49405  11.040   4.066   9.653 -0.2031  0.1098  0.2076
  359MOL0     C49406  10.938   4.027   9.597 -0.9305  0.1721 -0.7022
  359MOL0     O49407  10.868   4.090   9.501 -0.1723 -0.3238 -0.0502
  359MOL0     C49408  10.928   4.188   9.423 -0.4104  0.2465  0.1442
  359MOL0     C49409  10.865   4.315   9.412  0.2423 -0.3044 -0.5452
  359MOL0     C49410  10.933   4.419   9.355 -0.9955  0.8372  0.3236
  359MOL0     C49411  11.064   4.401   9.299 -0.0836  0.3010 -0.1828
  359MOL0     O49412  11.150   4.497   9.245  0.2849 -0.2577 -0.3251
  359MOL0     C49413  11.104   4.633   9.236  0.3995 -0.0130 -0.8094
  359MOL0     C49414  11.186   4.707   9.139  0.4690  0.3342  0.1455
  359MOL0     C49415  11.337   4.721   9.191  0.3843  0.5880  0.8543
  359MOL0     C49416  11.411   4.835   9.126  0.7982 -0.3802 -0.2078
  359MOL0     C49417  11.557   4.847   9.151  0.4330  0.1593 -0.8324
  359MOL0     C49418  11.644   4.733   9.105  0.4393 -0.4743 -0.4002
  359MOL0     C49419  11.789   4.769   9.126  0.2313 -0.0417  0.7575
  359MOL0     C49420  11.888   4.674   9.052  0.5710 -0.4536 -0.3633
  359MOL0     N49421  11.881   4.534   9.089 -0.2375  0.1304  0.4776
  359MOL0     C49422  11.986   4.454   9.116  0.1996 -0.1665  0.1404
  359MOL0     C49423  11.935   4.335   9.152  0.5116 -0.2113 -0.1517
  359MOL0     C49424  12.017   4.213   9.195 -0.7757  0.6685  0.0717
  359MOL0     C49425  11.998   4.097   9.099 -0.1418 -0.1809  0.2135
  359MOL0     C49426  12.073   4.111   8.970 -0.3205  0.6554  0.3329
  359MOL0     C49427  12.033   3.995   8.868  0.1273  0.5391 -0.0467
  359MOL0     O49428  11.892   3.998   8.856 -0.9696  0.9286 -0.1054
  359MOL0     C49429  11.843   4.099   8.771 -0.0812 -0.5075 -0.9602
  359MOL0     C49430  11.859   4.090   8.635  0.6789 -0.4676 -0.3047
  359MOL0     C49431  11.819   4.198   8.550 -0.1622  0.7659  0.4624
  359MOL0     C49432  11.823   4.174   8.399  0.2336  0.6003 -0.4814
  359MOL0     C49433  11.769   4.319   8.603 -0.4827  0.2894 -0.6745
  359MOL0     C49434  11.722   4.436   8.526  0.0531  0.7234 -0.7814
  359MOL0     O49435  11.624   4.516   8.581 -0.3127 -0.0319 -0.5191
  359MOL0     C49436  11.575   4.630   8.522 -0.3173 -0.2532 -0.1576
  359MOL0     C49437  11.555   4.643   8.383 -0.2661 -0.3175 -0.3275
  359MOL0     C49438  11.486   4.757   8.327 -0.5997  0.4746  0.2456
  359MOL0     C49439  11.450   4.860   8.411 -0.8056 -0.0643 -0.8830
  359MOL0     O49440  11.382   4.975   8.373  0.0654  0.4493  0.3967
  359MOL0     C49441  11.423   5.036   8.247  0.1917  0.0661  0.4427
  359MOL0     C49442  11.377   5.183   8.264 -0.0815 -0.3355  0.1876
  359MOL0     C49443  11.230   5.196   8.283 -0.4153  0.1411 -0.7233
  359MOL0     C49444  11.170   5.345   8.282 -0.3270  0.3218 -0.2715
  359MOL0     C49445  11.032   5.337   8.347 -0.1087  0.7013 -0.2719
  359MOL0     C49446  10.933   5.269   8.263 -0.3515  0.7149 -0.0237
  359MOL0     C49447  10.807   5.253   8.345  0.1412 -0.0711  0.1561
  359MOL0     C49448  10.695   5.183   8.262  0.1639  0.4480 -0.1300
  359MOL0    Cl49449  10.634   5.296   8.139 -0.2745 -0.1287 -0.3428
  359MOL0     C49450  11.486   4.852   8.550 -0.0859 -0.0993 -0.0413
  359MOL0     C49451  11.544   4.740   8.603  0.3708  0.8580 -1.1598
  359MOL0     O49452  11.785   4.463   8.428 -0.2436 -0.4554  0.2815
  359MOL0     C49453  11.760   4.332   8.751  0.1870 -0.3680 -0.6171
  359MOL0     C49454  11.790   4.225   8.827  0.2547  0.0977 -0.0488
  359MOL0     N49455  11.801   4.343   9.145  0.2599  0.8677 -0.0626
  359MOL0     N49456  11.769   4.457   9.099  0.7348  0.2926  0.1587
  359MOL0     C49457  11.122   4.275   9.305 -0.4963 -0.4473  0.0483
  359MOL0     C49458  11.054   4.172   9.369 -0.1667  0.6593 -0.1828
  359MOL0     C49459  10.886   3.908   9.662 -0.3910  0.0766 -0.1732
  359MOL0     C49460  10.966   3.804   9.713 -0.3012  0.7683  0.8929
  359MOL0     C49461  10.909   3.683   9.759 -1.0359 -0.2928  0.1826
  359MOL0     C49462  10.768   3.671   9.779  0.2805  0.3775 -0.6055
  359MOL0     O49463  10.719   3.550   9.819 -0.1678 -0.8935 -0.6300
  359MOL0     C49464  10.596   3.504   9.771  0.9001 -0.1064  0.0156
  359MOL0     C49465  10.592   3.354   9.797 -1.1136 -0.5095 -0.3080
  359MOL0     C49466  10.627   3.304   9.942 -0.2767  0.0150 -0.0457
  359MOL0     C49467  10.569   3.163   9.957 -0.1462 -0.5789  0.4749
  359MOL0     C49468  10.655   3.086  10.048 -0.7153 -0.9973 -0.6533
  359MOL0     C49469  10.739   3.016  10.105 -0.2241 -0.6060  0.0912
  359MOL0     C49470  10.686   3.780   9.745  0.3943  0.4024 -0.1423
  359MOL0     C49471  10.747   3.893   9.692  0.0337  0.0864  0.5030
  359MOL0     C49472  10.660   4.012   9.663 -0.1451 -0.4621  0.6082
  359MOL0     H49473  10.775   4.325   9.473  1.4240 -2.0734  1.6695
  359MOL0     H49474  10.891   4.520   9.353 -3.1780 -0.0242 -0.6938
  359MOL0     H49475  11.116   4.667   9.340  0.7911 -1.6028 -0.3109
  359MOL0     H49476  10.998   4.655   9.220  0.3197  1.9259  1.6341
  359MOL0     H49477  11.188   4.652   9.044  3.0268  2.0442 -0.9228
  359MOL0     H49478  11.147   4.807   9.118 -0.3843  0.1890  0.9603
  359MOL0     H49479  11.338   4.741   9.299 -0.8709 -3.3247  1.7573
  359MOL0     H49480  11.379   4.622   9.171 -0.8140 -0.0635  1.4516
  359MOL0     H49481  11.382   4.830   9.020 -1.5624 -1.7940  0.4155
  359MOL0     H49482  11.364   4.924   9.167 -4.0998 -2.4731 -0.4860
  359MOL0     H49483  11.584   4.845   9.257  0.7074 -4.1372 -0.7935
  359MOL0     H49484  11.601   4.937   9.109  0.5903  2.0579  3.0431
  359MOL0     H49485  11.609   4.643   9.156  0.3401 -0.0757  0.2446
  359MOL0     H49486  11.625   4.740   8.997 -0.4056  5.0312 -0.2041
  359MOL0     H49487  11.824   4.766   9.230 -0.9565 -2.6042  1.1608
  359MOL0     H49488  11.809   4.869   9.085  0.9565 -0.5261 -0.1017
  359MOL0     H49489  11.888   4.691   8.944  3.9448  2.2671 -0.1092
  359MOL0     H49490  11.991   4.706   9.069  0.7602 -1.1937 -0.0511
  359MOL0     H49491  12.092   4.480   9.114  1.1152 -3.0807  3.0063
  359MOL0     H49492  11.994   4.192   9.300 -1.9544 -0.1747 -0.3346
  359MOL0     H49493  12.125   4.230   9.203 -0.2529 -2.1774  0.2945
  359MOL0     H49494  12.031   4.002   9.143  0.0793 -2.2528 -3.9031
  359MOL0     H49495  11.890   4.084   9.088 -0.4870  1.9663  0.6653
  359MOL0     H49496  12.036   4.202   8.920 -3.3197 -0.5989  0.0536
  359MOL0     H49497  12.179   4.101   8.993  0.5229 -1.6051 -3.6064
  359MOL0     H49498  12.089   4.008   8.775  1.0610  2.1487  0.6707
  359MOL0     H49499  12.065   3.903   8.919 -1.7652 -0.0823  0.0642
  359MOL0     H49500  11.889   3.996   8.590 -1.8405 -1.4619 -0.0861
  359MOL0     H49501  11.796   4.068   8.385  0.2421  0.2546  1.6780
  359MOL0     H49502  11.924   4.191   8.362  0.7831 -1.8753 -0.3278
  359MOL0     H49503  11.756   4.230   8.334 -0.6144 -0.3503 -0.4622
  359MOL0     H49504  11.600   4.576   8.309 -0.0842 -2.0491  1.2803
  359MOL0     H49505  11.449   4.770   8.225 -0.0492 -2.1386 -0.3517
  359MOL0     H49506  11.531   5.041   8.229  0.6755  3.3438  3.2141
  359MOL0     H49507  11.376   4.995   8.158  0.4886  0.6116  0.0245
  359MOL0     H49508  11.423   5.235   8.348 -0.6819  0.4021  0.0745
  359MOL0     H49509  11.395   5.226   8.165 -1.1648 -1.0314 -0.3220
  359MOL0     H49510  11.200   5.155   8.380  1.6954 -1.1154 -0.5341
  359MOL0     H49511  11.183   5.134   8.208 -2.6119  1.5394 -0.5837
  359MOL0     H49512  11.159   5.385   8.181  0.1332 -1.3187 -0.9943
  359MOL0     H49513  11.237   5.408   8.341 -1.8778  2.4588 -0.6617
  359MOL0     H49514  11.038   5.283   8.442 -0.5562  3.0729  1.1893
  359MOL0     H49515  10.993   5.438   8.364 -0.3068  0.5906 -0.0529
  359MOL0     H49516  10.964   5.168   8.235  0.1857 -0.7015  4.8135
  359MOL0     H49517  10.917   5.321   8.168 -2.4888 -1.4168 -0.9146
  359MOL0     H49518  10.767   5.353   8.360 -1.6032 -0.9070  1.5357
  359MOL0     H49519  10.823   5.214   8.446  1.6885 -1.2141 -0.4773
  359MOL0     H49520  10.609   5.163   8.326  0.0137 -0.6018 -0.6471
  359MOL0     H49521  10.743   5.093   8.224  2.1550  1.5909 -0.4877
  359MOL0     H49522  11.454   4.930   8.619  1.4121  1.3018 -0.8445
  359MOL0     H49523  11.557   4.718   8.709  0.6598  3.2887 -0.6332
  359MOL0     H49524  11.729   4.425   8.798 -0.4027 -0.9924  0.2486
  359MOL0     H49525  11.774   4.219   8.935  0.7656  0.3769  0.0468
  359MOL0     H49526  11.220   4.256   9.261 -0.2710 -2.1155  1.1500
  359MOL0     H49527  11.093   4.073   9.393 -1.3000  0.1369 -0.4080
  359MOL0     H49528  11.074   3.817   9.714  0.0667 -0.7341  5.3065
  359MOL0     H49529  10.979   3.602   9.781  0.2690  1.1232  1.5093
  359MOL0     H49530  10.506   3.542   9.820  0.9117  0.6012 -0.4893
  359MOL0     H49531  10.569   3.529   9.668 -0.1506 -1.5697 -0.0921
  359MOL0     H49532  10.664   3.305   9.731 -0.0468  0.2488  0.2608
  359MOL0     H49533  10.495   3.312   9.770 -0.3911 -2.9335  0.5517
  359MOL0     H49534  10.736   3.302   9.948 -0.1704  0.1165 -1.5449
  359MOL0     H49535  10.589   3.379  10.012 -1.5858  0.8948 -1.6498
  359MOL0     H49536  10.562   3.112   9.861  0.9884 -1.6879  0.9452
  359MOL0     H49537  10.468   3.184   9.994  0.1043  1.1095  0.2669
  359MOL0     H49538  10.820   2.960  10.148 -0.6839 -2.6249 -1.5093
  359MOL0     H49539  10.582   3.780   9.774 -0.8357 -3.0557 -3.6154
  359MOL0     H49540  10.712   4.106   9.681 -4.6375  1.7519  4.6103
  359MOL0     H49541  10.633   4.000   9.558 -0.1340 -2.9937  0.8198
  359MOL0     H49542  10.566   4.012   9.720  0.2504 -0.0288  1.2822
  360MOL0     O49543   8.130  10.351  11.414 -0.0881 -0.5118 -0.1583
  360MOL0     C49544   8.011  10.312  11.415  0.1834 -0.3708 -0.4803
  360MOL0     O49545   7.936  10.298  11.531  0.0643 -0.2442 -0.5005
  360MOL0     C49546   7.979  10.351  11.648  0.1066  0.1529 -0.4415
  360MOL0     C49547   7.971  10.273  11.763  0.9840  0.6150  0.7447
  360MOL0     C49548   8.018  10.318  11.885  0.2006 -0.3864  0.5310
  360MOL0     C49549   8.065  10.450  11.895  0.6542  0.2915 -0.4023
  360MOL0     O49550   8.099  10.507  12.011  0.1227 -0.5364  0.0217
  360MOL0     C49551   8.125  10.421  12.127  0.9892 -0.5901  0.0216
  360MOL0     C49552   8.251  10.333  12.105 -0.7870  0.0287 -0.1188
  360MOL0     C49553   8.286  10.245  12.229  0.6450  0.8759 -0.1503
  360MOL0     C49554   8.412  10.163  12.213 -0.3029  0.1924 -1.0259
  360MOL0     C49555   8.450  10.108  12.350 -0.1484  0.1684 -0.3421
  360MOL0     C49556   8.571  10.017  12.353 -0.0570  0.9860 -0.2719
  360MOL0     C49557   8.544   9.886  12.281  0.8430 -0.3532 -0.0265
  360MOL0     C49558   8.634   9.771  12.337 -0.3809  0.3077 -0.4667
  360MOL0     N49559   8.775   9.813  12.362 -0.6364 -0.3067  0.7559
  360MOL0     C49560   8.849   9.879  12.268  0.0911 -0.5128  0.3958
  360MOL0     C49561   8.966   9.909  12.333  0.0744  1.2904 -0.5272
  360MOL0     C49562   9.078   9.977  12.266  0.5362  0.5046 -0.1256
  360MOL0     C49563   9.147  10.075  12.367 -0.0050  1.1936 -0.6010
  360MOL0     C49564   9.287  10.127  12.325  0.2345  0.2876  0.6735
  360MOL0     C49565   9.376  10.000  12.334  0.2402  0.1963  0.3406
  360MOL0     O49566   9.504  10.052  12.329 -0.0608 -0.2252 -0.7716
  360MOL0     C49567   9.604   9.955  12.320 -1.4270  0.4238 -0.8801
  360MOL0     C49568   9.580   9.812  12.334 -0.1398  0.5341  0.0566
  360MOL0     C49569   9.692   9.725  12.310 -0.8592  0.3031 -0.3736
  360MOL0     C49570   9.642   9.582  12.309  0.0278  0.6375 -0.1301
  360MOL0     C49571   9.828   9.774  12.324 -0.1057 -0.4406  0.4049
  360MOL0     C49572   9.945   9.686  12.351  0.1932 -0.1922 -0.1468
  360MOL0     O49573  10.068   9.758  12.354  0.1569  0.2561  0.3862
  360MOL0     C49574  10.186   9.671  12.374  0.2674 -0.8060 -0.5515
  360MOL0     C49575  10.225   9.644  12.505  0.3588  0.3122  0.7329
  360MOL0     C49576  10.331   9.552  12.530 -0.9670 -0.6893 -0.9799
  360MOL0     C49577  10.417   9.511  12.428  0.1249 -0.3170  0.4352
  360MOL0     O49578  10.521   9.414  12.445  0.6524 -0.6340 -0.5237
  360MOL0     C49579  10.570   9.386  12.577 -0.3733  0.2518 -0.4593
  360MOL0     C49580  10.711   9.321  12.567  0.4301  0.4971  0.1936
  360MOL0     C49581  10.811   9.428  12.525  0.1045 -0.3017 -0.0744
  360MOL0     C49582  10.946   9.370  12.464  0.1462  0.3820 -0.9195
  360MOL0     C49583  11.049   9.473  12.427  0.4706  0.3228 -0.6073
  360MOL0     C49584  11.159   9.417  12.337 -0.2590  0.1199 -0.0012
  360MOL0     C49585  11.260   9.523  12.285 -0.2081 -1.5323 -0.0742
  360MOL0     C49586  11.373   9.465  12.217  0.1652 -0.5220  0.1733
  360MOL0    Cl49587  11.457   9.364  12.331 -0.0778 -0.2381  0.0224
  360MOL0     C49588  10.386   9.555  12.299  0.0028 -0.3114  0.2080
  360MOL0     C49589  10.273   9.628  12.266 -0.0703  0.0991 -1.1752
  360MOL0     O49590   9.933   9.565  12.378 -0.0186  0.0678  0.7155
  360MOL0     C49591   9.847   9.913  12.301 -0.1613 -0.6055 -0.1385
  360MOL0     C49592   9.737   9.999  12.299  0.1962 -0.1297  0.2384
  360MOL0     N49593   8.955   9.868  12.461 -0.6511  0.1081  0.3187
  360MOL0     N49594   8.836   9.810  12.482  0.0783  0.2370 -0.7058
  360MOL0     C49595   8.069  10.532  11.777  0.8828  0.4340 -0.7225
  360MOL0     C49596   8.022  10.482  11.658  0.6092  0.1131 -0.3211
  360MOL0     C49597   7.981  10.232  11.300 -0.8669  0.4157  0.1442
  360MOL0     C49598   8.047  10.250  11.174  0.3751 -0.3771 -0.3665
  360MOL0     C49599   8.027  10.177  11.065 -0.6496 -0.7106  1.2810
  360MOL0     C49600   7.940  10.071  11.057 -0.0376 -0.0925  0.7207
  360MOL0     O49601   7.899  10.006  10.943  0.3603 -0.3760  0.7135
  360MOL0     C49602   7.962  10.047  10.818  0.0979  0.2285  0.7666
  360MOL0     C49603   7.919   9.952  10.694 -1.0835  0.7138  0.0685
  360MOL0     C49604   7.813  10.017  10.609 -0.0809 -0.0642 -0.0233
  360MOL0     C49605   7.741   9.915  10.515  0.7331 -0.1788 -0.4113
  360MOL0     C49606   7.653   9.987  10.422  0.4086 -0.2599  1.0370
  360MOL0     C49607   7.590  10.057  10.346 -0.0710 -0.6788 -0.3744
  360MOL0     C49608   7.859  10.058  11.166 -0.5240 -0.1634  0.2838
  360MOL0     C49609   7.885  10.123  11.293 -0.0787 -0.2342 -0.0374
  360MOL0     C49610   7.799  10.078  11.404  0.6445  0.2700 -0.9177
  360MOL0     H49611   7.953  10.166  11.756  0.1177  0.8406 -3.0705
  360MOL0     H49612   8.016  10.245  11.966  1.6680  1.0865  1.9799
  360MOL0     H49613   8.030  10.372  12.151 -1.0446  3.5459  1.1906
  360MOL0     H49614   8.132  10.489  12.212 -0.9939  1.5769 -1.4209
  360MOL0     H49615   8.236  10.276  12.012  0.8466 -1.0946  0.2730
  360MOL0     H49616   8.335  10.400  12.089  0.7610 -2.1745 -2.0057
  360MOL0     H49617   8.298  10.314  12.313 -1.3466  1.6378 -0.4348
  360MOL0     H49618   8.195  10.189  12.252  0.6782  0.7303 -0.3687
  360MOL0     H49619   8.401  10.074  12.152 -3.1076  0.9464 -1.7296
  360MOL0     H49620   8.493  10.228  12.178 -0.0237 -1.0224 -2.7290
  360MOL0     H49621   8.361  10.059  12.390 -1.1416  1.5150 -0.8200
  360MOL0     H49622   8.468  10.198  12.410 -1.4171 -0.9045  1.7331
  360MOL0     H49623   8.648  10.071  12.298 -0.2051  0.2238 -1.2796
  360MOL0     H49624   8.606  10.001  12.455  1.9389  1.1752 -0.8778
  360MOL0     H49625   8.563   9.908  12.176  0.6956  0.3195  0.0885
  360MOL0     H49626   8.442   9.849  12.294  1.6417 -1.8466  3.2504
  360MOL0     H49627   8.586   9.725  12.424  3.3172 -2.1809  0.5340
  360MOL0     H49628   8.633   9.698  12.256 -0.4074 -1.4892  1.0850
  360MOL0     H49629   8.826   9.888  12.163  0.9525 -2.0504  0.0318
  360MOL0     H49630   9.047  10.036  12.179  1.6596  1.2283 -0.0547
  360MOL0     H49631   9.131   9.888  12.231 -0.2554  0.1723 -0.5145
  360MOL0     H49632   9.088  10.167  12.374  1.1207  1.8561  0.5255
  360MOL0     H49633   9.161  10.031  12.466 -0.0737  3.9782  0.7216
  360MOL0     H49634   9.285  10.167  12.223  2.0813 -0.6065  0.2430
  360MOL0     H49635   9.330  10.202  12.392  1.0460  1.3213 -0.9369
  360MOL0     H49636   9.371   9.952  12.432  1.6619 -0.4095  0.1500
  360MOL0     H49637   9.351   9.925  12.258 -1.9916 -0.3498  1.5350
  360MOL0     H49638   9.479   9.776  12.345 -0.1418  0.8601  1.1506
  360MOL0     H49639   9.675   9.530  12.399 -0.0676  0.2927 -0.2916
  360MOL0     H49640   9.681   9.539  12.216  0.9583  1.5207 -0.1634
  360MOL0     H49641   9.534   9.574  12.295  0.2198  2.2331 -3.8502
  360MOL0     H49642  10.160   9.674  12.586 -2.6623 -1.5307 -0.8023
  360MOL0     H49643  10.339   9.504  12.627 -2.6077 -1.6009 -1.2414
  360MOL0     H49644  10.584   9.479  12.632 -1.9940 -0.6353  1.5878
  360MOL0     H49645  10.501   9.328  12.639  0.6407  0.2976  0.7711
  360MOL0     H49646  10.749   9.288  12.664  2.1905  1.6324 -0.0661
  360MOL0     H49647  10.709   9.235  12.499 -0.2897 -2.2950  3.4952
  360MOL0     H49648  10.834   9.491  12.611  1.7857  0.7947 -1.2629
  360MOL0     H49649  10.765   9.501  12.458 -2.0757  0.3534  1.9909
  360MOL0     H49650  10.934   9.311  12.373  0.3287  1.4672 -1.6578
  360MOL0     H49651  10.988   9.303  12.540  1.1582  1.9939 -0.0069
  360MOL0     H49652  10.996   9.549  12.367 -3.6034 -1.7447  0.0131
  360MOL0     H49653  11.096   9.512  12.517  1.6189 -0.7302 -0.7270
  360MOL0     H49654  11.119   9.369  12.247  0.0886  1.6724 -1.0218
  360MOL0     H49655  11.204   9.341  12.401 -0.2141  1.7873  2.0518
  360MOL0     H49656  11.294   9.582  12.371 -1.6970 -0.5321 -0.1185
  360MOL0     H49657  11.204   9.594  12.223 -1.0183  1.7726  3.9372
  360MOL0     H49658  11.432   9.552  12.186 -0.5822  0.6747  1.9877
  360MOL0     H49659  11.349   9.412  12.124  0.2302 -0.8063  0.3202
  360MOL0     H49660  10.432   9.500  12.217 -3.2741 -0.5920 -1.6269
  360MOL0     H49661  10.252   9.646  12.161  2.1219  1.0283 -1.5133
  360MOL0     H49662   9.944   9.961  12.290 -1.5444  2.0126 -2.3431
  360MOL0     H49663   9.750  10.104  12.273 -0.3248 -0.2959 -0.7285
  360MOL0     H49664   8.093  10.638  11.787  0.8288  0.2689  2.0237
  360MOL0     H49665   8.021  10.546  11.571 -1.9577 -0.4569 -0.7802
  360MOL0     H49666   8.127  10.324  11.174  0.1521 -0.1062  0.8717
  360MOL0     H49667   8.096  10.195  10.983 -0.2440  0.0904  1.7897
  360MOL0     H49668   7.937  10.152  10.800 -2.3914 -0.2803  0.9032
  360MOL0     H49669   8.066  10.016  10.824 -0.1034 -0.9270 -0.9783
  360MOL0     H49670   7.888   9.852  10.724 -1.0932  0.7484  0.1763
  360MOL0     H49671   8.012   9.945  10.637 -0.1219 -2.7204  1.7948
  360MOL0     H49672   7.740  10.044  10.685 -0.5739 -2.2285  0.3088
  360MOL0     H49673   7.855  10.104  10.556 -0.8619  0.2160 -0.1935
  360MOL0     H49674   7.689   9.849  10.585 -0.1594 -0.0338 -0.9236
  360MOL0     H49675   7.811   9.856  10.455  0.9511  0.1396 -0.4756
  360MOL0     H49676   7.528  10.107  10.274 -0.1287  0.4176  0.4163
  360MOL0     H49677   7.780   9.983  11.164  0.4442 -1.2075 -2.0991
  360MOL0     H49678   7.743  10.165  11.439  0.3811  0.2020 -1.1673
  360MOL0     H49679   7.729   9.999  11.377 -0.7625  0.0201  2.8958
  360MOL0     H49680   7.867  10.047  11.485 -0.6441  2.4781  1.1258
  361MOL0     O49681   1.996   3.652   8.844  0.3906  0.5196  0.3882
  361MOL0     C49682   2.039   3.549   8.788  0.0525  0.2804 -0.0775
  361MOL0     O49683   2.171   3.520   8.742 -0.3588 -0.5186 -0.0150
  361MOL0     C49684   2.272   3.588   8.798 -0.4118  0.4323  0.2208
  361MOL0     C49685   2.278   3.724   8.769  0.3327  0.3376  0.1758
  361MOL0     C49686   2.343   3.805   8.856 -0.0890 -0.4211  0.2959
  361MOL0     C49687   2.435   3.753   8.949 -0.3113 -0.5833 -0.1359
  361MOL0     O49688   2.500   3.852   9.027  0.0413  0.5976 -0.7188
  361MOL0     C49689   2.612   3.811   9.107 -0.1254 -0.7579  0.0520
  361MOL0     C49690   2.697   3.948   9.119 -0.2996  0.0084  0.5012
  361MOL0     C49691   2.822   3.916   9.198 -0.8504  0.4947  0.2367
  361MOL0     C49692   2.914   4.039   9.199 -0.2432  0.2385 -0.2382
  361MOL0     C49693   3.033   4.012   9.299 -0.6835  0.1000  1.1839
  361MOL0     C49694   3.135   4.119   9.285  0.1743  0.9038  0.6308
  361MOL0     C49695   3.250   4.102   9.376  0.1858 -0.1079 -0.2777
  361MOL0     C49696   3.323   4.241   9.382 -0.2457  1.1178  0.0680
  361MOL0     N49697   3.408   4.268   9.264  0.0924 -0.4098  0.2516
  361MOL0     C49698   3.411   4.380   9.183 -0.6123  1.0862  0.0527
  361MOL0     C49699   3.533   4.380   9.120  0.2474  0.0967  0.4174
  361MOL0     C49700   3.584   4.467   9.005 -0.2979 -0.5935 -0.1726
  361MOL0     C49701   3.617   4.604   9.057  1.3137  0.1247  1.1498
  361MOL0     C49702   3.733   4.599   9.160  0.5412  1.4867 -0.4329
  361MOL0     C49703   3.871   4.575   9.090  0.4485 -0.6074  0.2304
  361MOL0     O49704   3.874   4.675   8.991  0.0946  0.9180  0.6528
  361MOL0     C49705   3.984   4.684   8.910 -0.5858  0.0083 -0.0567
  361MOL0     C49706   3.980   4.793   8.829 -0.4830  0.7894 -0.0714
  361MOL0     C49707   4.063   4.804   8.719  0.2702  0.6459  0.1464
  361MOL0     C49708   4.039   4.918   8.628 -0.3305  0.0666  0.1581
  361MOL0     C49709   4.161   4.705   8.699  0.4763 -0.4678  0.5766
  361MOL0     C49710   4.267   4.712   8.605 -0.1987 -0.3829 -0.0098
  361MOL0     O49711   4.320   4.596   8.558 -0.8008  0.5522 -0.3485
  361MOL0     C49712   4.436   4.606   8.479 -0.5292  0.8580 -0.0505
  361MOL0     C49713   4.447   4.700   8.378 -0.2879 -0.4438 -0.9245
  361MOL0     C49714   4.568   4.691   8.298  0.6466  0.1007  0.0846
  361MOL0     C49715   4.682   4.615   8.329  0.4647 -1.0861  0.1589
  361MOL0     O49716   4.814   4.641   8.292 -0.2276 -0.2938  0.5746
  361MOL0     C49717   4.835   4.745   8.194 -0.2662  0.8832 -0.4486
  361MOL0     C49718   4.992   4.754   8.169 -0.2888  0.2064 -0.5356
  361MOL0     C49719   5.066   4.740   8.303  0.1840 -0.1719  0.0321
  361MOL0     C49720   5.204   4.811   8.296 -0.0519  0.4412  0.3796
  361MOL0     C49721   5.280   4.771   8.174  0.8636 -0.0738 -0.4132
  361MOL0     C49722   5.306   4.615   8.158  0.3824 -0.0315 -0.2385
  361MOL0     C49723   5.394   4.589   8.034 -0.5929 -0.5396  0.5638
  361MOL0     C49724   5.450   4.452   8.003 -0.4517  0.1579 -0.4689
  361MOL0    Cl49725   5.333   4.321   8.025  0.1802  0.7360  0.0655
  361MOL0     C49726   4.665   4.525   8.435 -0.5790  0.0941  0.1470
  361MOL0     C49727   4.550   4.530   8.514 -0.2744  0.6247  0.0240
  361MOL0     O49728   4.317   4.822   8.585  0.0832  0.2775 -0.1037
  361MOL0     C49729   4.171   4.600   8.788  0.1455  0.1847 -1.1282
  361MOL0     C49730   4.083   4.588   8.900 -0.2319  0.5691 -0.5439
  361MOL0     N49731   3.602   4.271   9.167  0.3657  0.1979 -0.3273
  361MOL0     N49732   3.532   4.209   9.252 -0.5499  0.2272 -0.0468
  361MOL0     C49733   2.456   3.612   8.960 -0.4764  0.6530  0.1067
  361MOL0     C49734   2.371   3.532   8.883 -0.7138  0.1520  0.1819
  361MOL0     C49735   1.934   3.450   8.747 -0.4708 -0.1606 -0.3310
  361MOL0     C49736   2.000   3.332   8.690 -0.4070  0.1920  1.3102
  361MOL0     C49737   1.924   3.237   8.641 -0.3624 -0.0299  0.0700
  361MOL0     C49738   1.785   3.235   8.651  0.4256 -0.9697  0.4127
  361MOL0     O49739   1.722   3.121   8.616 -0.1292 -0.0232  0.1312
  361MOL0     C49740   1.732   3.060   8.481 -0.5386 -0.5038  0.5141
  361MOL0     C49741   1.841   2.953   8.477 -0.2004  0.1393  0.4743
  361MOL0     C49742   1.785   2.811   8.439 -0.4853 -0.3620  0.5765
  361MOL0     C49743   1.703   2.749   8.546 -0.5015 -0.2401  0.3997
  361MOL0     C49744   1.656   2.619   8.523  1.1371  0.8243 -0.1400
  361MOL0     C49745   1.621   2.515   8.480 -0.0574 -0.1275 -0.0576
  361MOL0     C49746   1.718   3.349   8.702  0.4264 -0.2292  0.1212
  361MOL0     C49747   1.792   3.457   8.761 -0.0749  0.0667  0.9510
  361MOL0     C49748   1.712   3.577   8.811  0.0326  0.9082  0.1041
  361MOL0     H49749   2.211   3.758   8.691 -0.0327 -1.7245 -0.4741
  361MOL0     H49750   2.352   3.911   8.834 -0.2319 -0.6108 -0.7345
  361MOL0     H49751   2.681   3.741   9.058  2.8801  1.2499  1.1303
  361MOL0     H49752   2.592   3.786   9.212  5.2011 -0.5989  1.4023
  361MOL0     H49753   2.719   3.975   9.016 -2.6606 -1.7185 -0.5395
  361MOL0     H49754   2.650   4.022   9.185  0.8351 -1.2066  2.8077
  361MOL0     H49755   2.785   3.893   9.298 -0.0774  1.9724  0.9022
  361MOL0     H49756   2.880   3.834   9.156 -1.8379  0.3282 -0.8656
  361MOL0     H49757   2.940   4.060   9.094 -0.6794  2.7334  0.0858
  361MOL0     H49758   2.850   4.115   9.244 -1.8221 -2.1415  1.8335
  361MOL0     H49759   3.081   3.918   9.274 -1.4267  0.2937 -1.3350
  361MOL0     H49760   2.996   4.007   9.402 -1.6551  0.3904  0.8670
  361MOL0     H49761   3.169   4.123   9.181  1.0350 -3.9951  0.5058
  361MOL0     H49762   3.081   4.213   9.304 -3.7350 -0.6562 -1.6117
  361MOL0     H49763   3.320   4.025   9.342  0.6456  1.5623 -3.5129
  361MOL0     H49764   3.225   4.078   9.479  4.1018 -0.6890  0.6960
  361MOL0     H49765   3.248   4.319   9.396 -0.7495  0.2847  2.5113
  361MOL0     H49766   3.389   4.237   9.469 -0.4891  2.0413  0.3004
  361MOL0     H49767   3.333   4.454   9.168  1.1621  3.0666  0.2325
  361MOL0     H49768   3.504   4.473   8.930 -0.7236 -1.9863  0.1472
  361MOL0     H49769   3.676   4.421   8.967  0.7223  1.6662 -0.5830
  361MOL0     H49770   3.649   4.678   8.984  2.4076 -1.7661 -0.3880
  361MOL0     H49771   3.528   4.633   9.113 -0.4364 -3.4385  0.5004
  361MOL0     H49772   3.724   4.688   9.222 -2.0922  2.4309 -2.0041
  361MOL0     H49773   3.707   4.520   9.231 -2.3404  0.2305 -2.6832
  361MOL0     H49774   3.945   4.590   9.170  0.1282 -2.2573  0.8867
  361MOL0     H49775   3.887   4.474   9.051 -1.7474 -0.2969 -1.6828
  361MOL0     H49776   3.897   4.864   8.830 -0.5760  0.6996  1.2608
  361MOL0     H49777   3.947   4.971   8.653 -0.2849 -0.1141  0.7305
  361MOL0     H49778   4.032   4.873   8.529 -1.1466 -0.6050  0.5068
  361MOL0     H49779   4.122   4.990   8.629  0.7588 -1.1481  0.8470
  361MOL0     H49780   4.362   4.763   8.351  0.0608 -0.6063 -2.5354
  361MOL0     H49781   4.571   4.772   8.226  0.8657  0.8158  0.8868
  361MOL0     H49782   4.791   4.708   8.100  0.0713  1.2462 -0.7551
  361MOL0     H49783   4.792   4.838   8.230 -3.4195 -1.2350  1.7898
  361MOL0     H49784   5.027   4.674   8.103  1.6506 -0.3141  1.0027
  361MOL0     H49785   5.018   4.852   8.127 -3.8982  1.5321  0.0310
  361MOL0     H49786   5.083   4.637   8.336  1.6573  0.5445  1.6728
  361MOL0     H49787   5.010   4.781   8.388  2.2503  0.5357  1.1249
  361MOL0     H49788   5.267   4.788   8.382 -0.1162 -0.5089  0.1741
  361MOL0     H49789   5.191   4.920   8.303 -0.7203  0.2513  4.2992
  361MOL0     H49790   5.233   4.808   8.083  1.2544  2.2126  0.2642
  361MOL0     H49791   5.376   4.823   8.167  0.1251  1.2060 -1.4516
  361MOL0     H49792   5.207   4.570   8.159  0.2979  0.1470 -0.4863
  361MOL0     H49793   5.355   4.583   8.250 -1.1360 -1.7621  0.0239
  361MOL0     H49794   5.471   4.666   8.042 -2.4661  1.3829  1.1486
  361MOL0     H49795   5.324   4.612   7.953  0.1425  0.1614  0.1121
  361MOL0     H49796   5.530   4.416   8.069 -1.7030 -3.1096 -0.5615
  361MOL0     H49797   5.494   4.459   7.903 -1.2300  2.2602 -0.7044
  361MOL0     H49798   4.749   4.463   8.463 -2.2652 -1.0778  3.0768
  361MOL0     H49799   4.541   4.475   8.607  1.0312  1.9881  1.0013
  361MOL0     H49800   4.246   4.524   8.774  1.5946  1.5346 -0.9861
  361MOL0     H49801   4.080   4.501   8.965 -0.8285 -0.6926 -2.2008
  361MOL0     H49802   2.533   3.578   9.030 -1.8185  0.1377  1.3871
  361MOL0     H49803   2.374   3.426   8.905  1.3389  0.4255  1.5249
  361MOL0     H49804   2.105   3.318   8.666 -0.1332 -1.7069  3.2812
  361MOL0     H49805   1.975   3.152   8.597 -1.0826  0.4776 -1.8203
  361MOL0     H49806   1.638   3.031   8.435  0.4092  1.6600 -3.2293
  361MOL0     H49807   1.771   3.136   8.412 -0.7154 -1.8346 -1.1193
  361MOL0     H49808   1.896   2.951   8.572  0.7200  1.6119 -0.0020
  361MOL0     H49809   1.915   2.984   8.403  1.6062 -2.4397  1.0408
  361MOL0     H49810   1.718   2.820   8.352 -0.7491 -0.4501  0.7689
  361MOL0     H49811   1.867   2.745   8.408 -1.2659 -1.7532  1.3852
  361MOL0     H49812   1.619   2.815   8.571  0.7143  1.1602  0.9566
  361MOL0     H49813   1.765   2.753   8.636 -3.1089 -2.5286  2.4790
  361MOL0     H49814   1.576   2.427   8.439 -0.9624  0.4474 -0.3302
  361MOL0     H49815   1.612   3.341   8.726  0.7315 -0.1289  1.5410
  361MOL0     H49816   1.608   3.546   8.823  1.1843 -2.8141  2.5761
  361MOL0     H49817   1.759   3.605   8.906  0.4875 -1.0162  0.4956
  361MOL0     H49818   1.729   3.657   8.738  3.9929  1.3367  1.2685
  362MOL0     O49819   9.881   3.635  11.302  0.5805 -0.0649  0.5650
  362MOL0     C49820   9.760   3.604  11.294 -1.1415 -0.2781  0.1626
  362MOL0     O49821   9.683   3.590  11.403  0.1166  0.6437  0.9177
  362MOL0     C49822   9.740   3.588  11.528 -0.0921  0.0733 -0.0661
  362MOL0     C49823   9.694   3.666  11.632 -0.3330 -0.0775 -0.5836
  362MOL0     C49824   9.745   3.646  11.766  0.2115  0.9234  0.2106
  362MOL0     C49825   9.834   3.542  11.792  0.1621 -0.0007  1.3266
  362MOL0     O49826   9.865   3.503  11.910 -0.1354  0.4818  0.1437
  362MOL0     C49827   9.789   3.562  12.018  0.1538  0.6699 -0.1731
  362MOL0     C49828   9.834   3.492  12.147 -0.3562  0.8337 -0.0542
  362MOL0     C49829   9.818   3.334  12.161 -0.8419  0.0692 -0.1839
  362MOL0     C49830   9.912   3.283  12.273  0.2871 -0.1450  0.2842
  362MOL0     C49831  10.049   3.248  12.214  0.2722 -0.5536  0.0026
  362MOL0     C49832  10.147   3.212  12.320  0.0156 -0.4489 -0.0199
  362MOL0     C49833  10.289   3.169  12.265  0.1722  0.0981  0.2656
  362MOL0     C49834  10.307   3.015  12.221 -0.1228 -0.2468  0.4188
  362MOL0     N49835  10.276   2.919  12.336  0.2888  0.4716 -0.1280
  362MOL0     C49836  10.374   2.871  12.419 -0.7443  0.1099 -0.3552
  362MOL0     C49837  10.311   2.791  12.506 -0.7367  0.4817  1.1076
  362MOL0     C49838  10.406   2.704  12.596 -0.2588 -0.0840 -1.5769
  362MOL0     C49839  10.415   2.553  12.563 -1.8563  0.0018 -0.4142
  362MOL0     C49840  10.429   2.534  12.413  0.8502  0.3707  0.1291
  362MOL0     C49841  10.453   2.397  12.361  1.3871 -0.4089 -0.0340
  362MOL0     O49842  10.576   2.344  12.407  0.0771 -0.0418 -0.7502
  362MOL0     C49843  10.623   2.239  12.351  1.3591  0.0244 -0.4668
  362MOL0     C49844  10.552   2.168  12.251  0.3934  0.0476 -1.0470
  362MOL0     C49845  10.607   2.055  12.187  0.3525  0.2013 -0.0295
  362MOL0     C49846  10.505   1.964  12.102 -0.1209  0.3445 -0.0609
  362MOL0     C49847  10.743   2.024  12.207  0.4078  1.4359  0.4044
  362MOL0     C49848  10.807   1.909  12.146  0.2890  0.1932  0.0456
  362MOL0     O49849  10.948   1.911  12.159  0.2702 -0.6242 -0.0236
  362MOL0     C49850  11.015   1.795  12.126  0.1755 -0.0247  0.7304
  362MOL0     C49851  11.078   1.730  12.223  0.1348  0.7220  0.4481
  362MOL0     C49852  11.149   1.612  12.193  0.6078 -0.1555 -0.7920
  362MOL0     C49853  11.153   1.559  12.062  0.2454  0.1883 -0.6361
  362MOL0     O49854  11.229   1.453  12.019  0.2618 -0.3445 -0.2631
  362MOL0     C49855  11.159   1.332  12.015 -1.3923  0.3058  0.1442
  362MOL0     C49856  11.269   1.221  11.999 -0.1974 -0.1382 -0.1663
  362MOL0     C49857  11.392   1.246  11.899 -0.7147 -0.0776  0.0553
  362MOL0     C49858  11.342   1.299  11.765  0.8757 -0.1924  0.4156
  362MOL0     C49859  11.460   1.337  11.672  0.2590  0.4924  0.3348
  362MOL0     C49860  11.424   1.424  11.546  0.7255  0.3389  0.7857
  362MOL0     C49861  11.567   1.477  11.495 -0.2922  0.0773 -0.2380
  362MOL0     C49862  11.557   1.603  11.410 -0.5923  0.3464  0.2936
  362MOL0    Cl49863  11.513   1.746  11.507 -0.5063 -0.7275  0.0503
  362MOL0     C49864  11.103   1.637  11.961 -0.4625  0.2613 -0.7519
  362MOL0     C49865  11.034   1.753  11.987 -0.2043  0.2996 -0.1544
  362MOL0     O49866  10.746   1.825  12.081 -0.0567 -0.3636 -0.3890
  362MOL0     C49867  10.815   2.097  12.304 -0.6242 -0.0557  0.0575
  362MOL0     C49868  10.756   2.207  12.366 -0.0800 -0.0525  0.0853
  362MOL0     N49869  10.174   2.781  12.476  0.0942 -0.1148  0.1455
  362MOL0     N49870  10.152   2.872  12.384 -0.4870  0.2062 -0.1499
  362MOL0     C49871   9.882   3.467  11.685  0.1826  0.5241 -0.2515
  362MOL0     C49872   9.841   3.490  11.559  0.6035  0.5818 -0.4349
  362MOL0     C49873   9.704   3.615  11.158 -0.1037  0.3663  0.6529
  362MOL0     C49874   9.774   3.687  11.051  0.5294 -0.3925 -0.0119
  362MOL0     C49875   9.719   3.688  10.918  0.2419 -0.0144  0.9862
  362MOL0     C49876   9.606   3.606  10.886  0.0002 -0.0888  0.5146
  362MOL0     O49877   9.556   3.593  10.757 -0.5389 -0.6813 -0.2966
  362MOL0     C49878   9.656   3.563  10.657 -0.0924 -0.1012  0.1624
  362MOL0     C49879   9.622   3.440  10.569 -0.0087  0.4429  0.1073
  362MOL0     C49880   9.504   3.476  10.474  0.4168 -0.4534 -0.1665
  362MOL0     C49881   9.542   3.582  10.365  0.1009 -0.0029  1.0848
  362MOL0     C49882   9.652   3.526  10.276 -0.2723 -1.1949 -0.1246
  362MOL0     C49883   9.739   3.496  10.194  0.3354  0.4709  0.4806
  362MOL0     C49884   9.543   3.534  10.986 -0.1084  0.5195  0.0818
  362MOL0     C49885   9.590   3.539  11.124  0.1676  0.2766  0.5360
  362MOL0     C49886   9.513   3.440  11.208  0.4111  0.2736 -0.6215
  362MOL0     H49887   9.619   3.742  11.612  1.2126  1.7701  0.2799
  362MOL0     H49888   9.715   3.706  11.851  0.9644 -0.0369  1.1916
  362MOL0     H49889   9.683   3.538  12.008  0.2445 -1.8087  3.0253
  362MOL0     H49890   9.797   3.670  12.030  1.4514  0.5056  0.6969
  362MOL0     H49891   9.941   3.516  12.152 -0.2351  0.1730  0.7003
  362MOL0     H49892   9.794   3.532  12.240  1.2860 -0.7083  1.3854
  362MOL0     H49893   9.716   3.302  12.185 -0.4237 -1.5426 -0.4514
  362MOL0     H49894   9.841   3.284  12.067 -0.9768 -0.0653 -0.1454
  362MOL0     H49895   9.902   3.353  12.357  0.8742  0.1623  0.1032
  362MOL0     H49896   9.883   3.184  12.311  0.9451 -0.4444  0.0158
  362MOL0     H49897  10.091   3.325  12.149  0.5865  1.1239  2.0997
  362MOL0     H49898  10.043   3.160  12.148  1.6611 -1.6164  1.2199
  362MOL0     H49899  10.161   3.299  12.385 -0.0925  1.1345 -2.0214
  362MOL0     H49900  10.104   3.137  12.387  0.7540 -2.0840 -1.3010
  362MOL0     H49901  10.359   3.185  12.348  0.2418 -2.3021  0.7463
  362MOL0     H49902  10.328   3.227  12.181  2.1964  2.3989  2.5973
  362MOL0     H49903  10.266   2.990  12.122  0.8656  1.5262 -0.4725
  362MOL0     H49904  10.414   3.004  12.204  0.5444  1.0969  3.1644
  362MOL0     H49905  10.477   2.906  12.416 -1.5853  2.9122  0.2977
  362MOL0     H49906  10.364   2.719  12.696  1.0973  0.0198 -1.0056
  362MOL0     H49907  10.507   2.746  12.591 -0.6867  1.1378 -0.6229
  362MOL0     H49908  10.505   2.519  12.616 -2.8030 -0.5204  0.9078
  362MOL0     H49909  10.323   2.506  12.598 -1.5509  1.2601  2.4136
  362MOL0     H49910  10.334   2.564  12.369 -1.2464 -2.1625  2.5156
  362MOL0     H49911  10.512   2.596  12.377 -0.9680  3.8478  1.5353
  362MOL0     H49912  10.380   2.333  12.412  1.5724 -1.0633 -0.5762
  362MOL0     H49913  10.438   2.393  12.252  1.3715  2.5214 -0.2017
  362MOL0     H49914  10.447   2.179  12.226  0.1199 -0.9392 -0.4002
  362MOL0     H49915  10.402   1.994  12.124  0.7723  4.5038 -0.6521
  362MOL0     H49916  10.508   1.856  12.118  0.4088  0.2955 -0.4650
  362MOL0     H49917  10.517   1.979  11.994 -2.2055  0.0829 -0.3624
  362MOL0     H49918  11.073   1.774  12.322 -0.8466 -0.6917  1.0626
  362MOL0     H49919  11.197   1.569  12.280 -2.6109  1.5101  1.9979
  362MOL0     H49920  11.106   1.316  12.109 -2.2958 -4.1351 -0.8755
  362MOL0     H49921  11.080   1.329  11.940 -2.5759  0.8922  1.3383
  362MOL0     H49922  11.313   1.207  12.097 -1.8019 -0.5220  0.5359
  362MOL0     H49923  11.217   1.133  11.961  1.8762 -0.1356 -3.4804
  362MOL0     H49924  11.445   1.153  11.880  0.9378  0.7540  0.4312
  362MOL0     H49925  11.453   1.322  11.949 -4.2334  0.2956  4.4348
  362MOL0     H49926  11.285   1.392  11.775  0.8886  0.1636 -2.1430
  362MOL0     H49927  11.284   1.230  11.703  0.3109  0.4806  0.1872
  362MOL0     H49928  11.539   1.389  11.726  0.3427  2.1728 -1.3015
  362MOL0     H49929  11.494   1.241  11.631 -3.6050 -2.0786  2.5437
  362MOL0     H49930  11.385   1.518  11.585  2.8968  0.7463  2.1389
  362MOL0     H49931  11.370   1.373  11.466  0.4936  2.2451 -0.3434
  362MOL0     H49932  11.610   1.396  11.435  1.2357  1.7662 -1.5332
  362MOL0     H49933  11.645   1.501  11.567  0.3419  0.5275 -1.0444
  362MOL0     H49934  11.478   1.580  11.338 -0.8192  0.4438  0.5093
  362MOL0     H49935  11.645   1.622  11.348  1.4073 -1.8993  2.2674
  362MOL0     H49936  11.125   1.613  11.857 -1.5171 -0.6093 -0.7893
  362MOL0     H49937  10.998   1.812  11.903  0.7859  1.8850  0.4987
  362MOL0     H49938  10.922   2.088  12.320 -0.5914  3.4509  3.6238
  362MOL0     H49939  10.811   2.280  12.424  1.7130  1.5662 -3.3293
  362MOL0     H49940   9.950   3.384  11.702  1.4441  1.3946 -0.8405
  362MOL0     H49941   9.885   3.421  11.487 -2.5034 -1.7095 -0.3785
  362MOL0     H49942   9.857   3.753  11.075 -0.7254  1.7259 -1.1796
  362MOL0     H49943   9.772   3.745  10.842  3.3597  0.3137  3.1609
  362MOL0     H49944   9.660   3.659  10.603 -0.7014 -0.6317 -0.8605
  362MOL0     H49945   9.754   3.535  10.695 -0.1777 -0.1707  0.3335
  362MOL0     H49946   9.604   3.349  10.625 -3.2814 -0.9068 -2.7978
  362MOL0     H49947   9.715   3.413  10.517  0.7458  1.2516  0.9877
  362MOL0     H49948   9.462   3.387  10.424 -0.8897  0.9362 -1.6762
  362MOL0     H49949   9.425   3.517  10.537 -1.0064 -1.5176 -1.1728
  362MOL0     H49950   9.579   3.680  10.395 -0.0949  1.1469 -2.1072
  362MOL0     H49951   9.449   3.588  10.309  0.5870 -2.5648 -0.1751
  362MOL0     H49952   9.824   3.470  10.135  0.0222  0.4497  0.0323
  362MOL0     H49953   9.464   3.468  10.952 -0.2343  1.6310 -1.9620
  362MOL0     H49954   9.585   3.387  11.270 -1.1229 -2.8734 -1.2992
  362MOL0     H49955   9.437   3.484  11.274 -1.7473 -0.2571 -2.6010
  362MOL0     H49956   9.474   3.357  11.148  4.7035 -2.2531 -0.2830
  363MOL0     O49957   1.239   0.327   4.504 -0.1693 -0.5938 -0.3507
  363MOL0     C49958   1.213   0.215   4.537 -0.8535  0.6702  0.2131
  363MOL0     O49959   1.301   0.124   4.580  0.6278  0.1397 -0.2904
  363MOL0     C49960   1.432   0.119   4.539  0.7236 -0.8394  0.1134
  363MOL0     C49961   1.492   0.202   4.444 -0.0153 -0.5450 -0.1407
  363MOL0     C49962   1.626   0.181   4.427 -0.9881 -0.7442 -0.2091
  363MOL0     C49963   1.703   0.084   4.486  0.3598 -0.8008  0.2260
  363MOL0     O49964   1.824   0.048   4.449 -0.6864 -0.5238 -0.2434
  363MOL0     C49965   1.878   0.092   4.326 -0.3086 -0.3349  0.1004
  363MOL0     C49966   2.009   0.016   4.309 -0.2198 -0.3162 -0.6597
  363MOL0     C49967   2.106   0.008   4.435 -0.0639  0.3920  0.5172
  363MOL0     C49968   2.163   0.151   4.462 -0.2895  0.1663 -0.3760
  363MOL0     C49969   2.243   0.182   4.590 -0.3071 -0.6939  0.2260
  363MOL0     C49970   2.297   0.326   4.582 -0.0583  0.1144  0.3076
  363MOL0     C49971   2.364   0.377   4.705 -0.2620  0.4815  0.3779
  363MOL0     C49972   2.481   0.296   4.737 -0.0988 -0.0156  0.6605
  363MOL0     N49973   2.548   0.342   4.854 -0.5760 -0.0756  0.0313
  363MOL0     C49974   2.510   0.312   4.982 -0.7423  0.0433 -0.8128
  363MOL0     C49975   2.616   0.347   5.062 -0.1267  0.3419 -0.8564
  363MOL0     C49976   2.619   0.342   5.213  0.3928 -0.5245  0.1134
  363MOL0     C49977   2.765   0.362   5.268 -0.2013 -0.6385 -0.3093
  363MOL0     C49978   2.768   0.316   5.418 -0.2243 -0.0660 -0.1579
  363MOL0     C49979   2.892   0.349   5.495  0.6491  0.8051 -0.0293
  363MOL0     O49980   2.996   0.269   5.442  0.0743 -0.5787  0.1473
  363MOL0     C49981   3.114   0.285   5.492 -0.3093  0.9040  0.3451
  363MOL0     C49982   3.197   0.180   5.448  0.1211 -0.2153 -0.8709
  363MOL0     C49983   3.339   0.184   5.476  0.4101  0.4703  0.3231
  363MOL0     C49984   3.419   0.074   5.413 -0.5272  0.3264 -0.6005
  363MOL0     C49985   3.396   0.307   5.540  0.5423  0.4711  0.2398
  363MOL0     C49986   3.540   0.333   5.548  0.7941 -0.2550 -0.0369
  363MOL0     O49987   3.571   0.453   5.597 -0.1336  0.0540 -1.1472
  363MOL0     C49988   3.700   0.492   5.586 -0.1032 -0.5415  0.2749
  363MOL0     C49989   3.716   0.585   5.484 -0.1359  0.1013  0.0155
  363MOL0     C49990   3.830   0.663   5.479 -0.6106 -0.2830 -0.5887
  363MOL0     C49991   3.944   0.630   5.562  0.4890 -0.0262  0.2983
  363MOL0     O49992   4.065   0.681   5.566  0.2397  0.2309  0.0355
  363MOL0     C49993   4.080   0.809   5.490 -0.4811  0.2314 -0.2567
  363MOL0     C49994   4.219   0.870   5.486  0.0185  0.3314 -0.2512
  363MOL0     C49995   4.264   0.909   5.629  0.1773 -0.3916 -0.7688
  363MOL0     C49996   4.418   0.904   5.640  0.2656 -0.4015  0.1940
  363MOL0     C49997   4.468   1.013   5.743 -0.1495  0.3489  0.1127
  363MOL0     C49998   4.616   1.001   5.761  0.6199  0.5172  0.3767
  363MOL0     C49999   4.669   0.873   5.832  0.3116 -0.1530  0.1240
  363MOL0     C50000   4.813   0.878   5.876 -0.7306  0.2908  0.2435
  363MOL0    Cl50001   4.853   0.708   5.917 -0.0559  0.6102  0.2662
  363MOL0     C50002   3.929   0.517   5.651 -0.3519  0.2936  0.1649
  363MOL0     C50003   3.806   0.457   5.674  0.0072 -0.2248  0.5154
  363MOL0     O50004   3.620   0.246   5.523  0.6011  0.2856  0.3634
  363MOL0     C50005   3.301   0.409   5.584  0.5178 -0.1580  0.1937
  363MOL0     C50006   3.166   0.398   5.563  0.2569  0.5747 -0.2227
  363MOL0     N50007   2.718   0.392   4.981  0.7647 -1.0133  0.5266
  363MOL0     N50008   2.672   0.387   4.857  0.2791 -1.0355  0.0683
  363MOL0     C50009   1.639  -0.006   4.574 -0.8506  0.8098  0.0911
  363MOL0     C50010   1.503   0.016   4.604  0.3670 -0.6763 -0.3626
  363MOL0     C50011   1.076   0.182   4.573 -0.1720  0.1180  0.6820
  363MOL0     C50012   1.055   0.059   4.634 -0.1106  1.1905  0.1374
  363MOL0     C50013   0.920   0.023   4.668  0.8509  0.4329  0.3258
  363MOL0     C50014   0.805   0.105   4.636 -0.6658 -0.0781 -0.0043
  363MOL0     O50015   0.674   0.079   4.656 -1.1056  0.3407 -0.1070
  363MOL0     C50016   0.636  -0.038   4.722  0.7342  0.8869  0.9485
  363MOL0     C50017   0.490  -0.031   4.773  0.3678 -0.8059 -0.5131
  363MOL0     C50018   0.441  -0.167   4.814 -0.2026 -0.2949  0.3654
  363MOL0     C50019   0.298  -0.160   4.865  0.3760  0.4459 -0.5986
  363MOL0     C50020   0.221  -0.149   4.746  1.5337  0.1330  0.4539
  363MOL0     C50021   0.133  -0.136   4.658 -0.5454 -1.1985 -0.0392
  363MOL0     C50022   0.834   0.225   4.582  0.4562  0.2471  0.3201
  363MOL0     C50023   0.963   0.271   4.556 -0.5388  0.6745  0.0325
  363MOL0     C50024   0.977   0.408   4.494  0.1566 -0.1655  0.3007
  363MOL0     H50025   1.453   0.294   4.400  1.0665  0.2620  0.5494
  363MOL0     H50026   1.674   0.254   4.363  1.2113 -0.0368  2.0987
  363MOL0     H50027   1.897   0.200   4.324 -0.1241 -0.3394  1.2871
  363MOL0     H50028   1.805   0.071   4.247  1.0301  1.1251 -1.6077
  363MOL0     H50029   1.980  -0.087   4.286 -0.0932 -0.9545  1.7907
  363MOL0     H50030   2.067   0.043   4.219  0.3022  0.2841 -0.1536
  363MOL0     H50031   2.062  -0.031   4.527 -3.5310 -0.6581 -1.4214
  363MOL0     H50032   2.178  -0.066   4.398 -0.4248  0.2697  0.0492
  363MOL0     H50033   2.222   0.174   4.373 -0.3937  0.0489 -0.4750
  363MOL0     H50034   2.090   0.232   4.456  0.0589  0.4188 -1.3153
  363MOL0     H50035   2.318   0.102   4.598 -1.7594 -1.9417  2.7434
  363MOL0     H50036   2.174   0.174   4.675 -0.9036 -0.7814 -0.2620
  363MOL0     H50037   2.358   0.334   4.492 -2.2725  2.3942 -1.1328
  363MOL0     H50038   2.219   0.401   4.567  0.6368  0.9687  0.8603
  363MOL0     H50039   2.289   0.371   4.784  0.4671  0.1672  1.0596
  363MOL0     H50040   2.397   0.480   4.690  0.9518  0.2589  1.3834
  363MOL0     H50041   2.449   0.193   4.753 -0.9868  0.2852  0.8588
  363MOL0     H50042   2.553   0.297   4.655 -0.2726 -1.8794  0.4374
  363MOL0     H50043   2.421   0.263   5.021  0.0015 -2.2571 -1.8194
  363MOL0     H50044   2.567   0.255   5.252 -0.6128 -0.8702 -1.8416
  363MOL0     H50045   2.555   0.426   5.240  0.9371  1.0172 -2.8909
  363MOL0     H50046   2.838   0.304   5.211  1.6210  0.7883  0.4672
  363MOL0     H50047   2.807   0.463   5.259  4.0579 -2.1613  0.2110
  363MOL0     H50048   2.674   0.347   5.465 -0.9171  0.0216 -1.5464
  363MOL0     H50049   2.751   0.208   5.410 -2.0626  0.2333 -0.7273
  363MOL0     H50050   2.912   0.453   5.465  1.0518  0.0694 -2.6228
  363MOL0     H50051   2.873   0.346   5.602 -0.8290 -0.7635 -0.2923
  363MOL0     H50052   3.151   0.090   5.408 -1.8677 -0.6588  2.0675
  363MOL0     H50053   3.356  -0.007   5.376 -2.4680  2.8494 -3.4389
  363MOL0     H50054   3.493   0.031   5.480 -1.6723 -1.1005 -0.2031
  363MOL0     H50055   3.472   0.116   5.327 -0.8222 -0.3039 -1.0943
  363MOL0     H50056   3.634   0.606   5.416 -1.5491  1.1191  1.9271
  363MOL0     H50057   3.842   0.745   5.408 -0.5328 -0.3326 -0.6316
  363MOL0     H50058   4.059   0.787   5.385  0.6587 -0.6389 -0.3185
  363MOL0     H50059   4.011   0.888   5.520 -1.2590  0.5212 -2.5602
  363MOL0     H50060   4.279   0.794   5.434 -2.1629 -1.8247  0.2100
  363MOL0     H50061   4.204   0.958   5.423 -2.1046  0.2048  0.0038
  363MOL0     H50062   4.228   0.839   5.704  0.7449 -1.9121 -1.8642
  363MOL0     H50063   4.222   1.006   5.659  1.1928 -0.3090  0.4130
  363MOL0     H50064   4.472   0.930   5.548  1.0100  0.7002  0.9102
  363MOL0     H50065   4.449   0.801   5.657  4.5274  0.2265 -2.2984
  363MOL0     H50066   4.442   1.112   5.707  0.1063  0.1836 -0.5417
  363MOL0     H50067   4.428   0.997   5.844  1.6530 -3.5174  0.4104
  363MOL0     H50068   4.649   1.084   5.823 -0.7082  2.5919 -1.5305
  363MOL0     H50069   4.661   1.019   5.662 -0.9307  0.6991 -0.3169
  363MOL0     H50070   4.659   0.789   5.764  2.8335 -0.1803 -0.3044
  363MOL0     H50071   4.611   0.854   5.923 -0.5923 -1.8420 -0.7617
  363MOL0     H50072   4.820   0.941   5.965  0.7995  1.3980 -0.5948
  363MOL0     H50073   4.878   0.920   5.799  1.9997  1.0814  2.7998
  363MOL0     H50074   4.012   0.476   5.708 -1.3847 -3.9723 -1.0231
  363MOL0     H50075   3.787   0.379   5.747 -0.4618  0.8594  1.5959
  363MOL0     H50076   3.331   0.504   5.625 -0.4975  0.3214 -0.1558
  363MOL0     H50077   3.103   0.473   5.610  0.0796 -1.1970  2.6323
  363MOL0     H50078   1.692  -0.081   4.632  1.2851  2.9021  0.9998
  363MOL0     H50079   1.446  -0.055   4.663 -2.4535  0.6033 -1.3933
  363MOL0     H50080   1.138  -0.005   4.661 -1.6094 -0.2181  1.7315
  363MOL0     H50081   0.905  -0.073   4.718  1.3469 -0.8719 -1.8996
  363MOL0     H50082   0.645  -0.121   4.650  0.4048  0.6714  1.1521
  363MOL0     H50083   0.706  -0.063   4.801  0.9666 -0.2174  0.4274
  363MOL0     H50084   0.427   0.017   4.698  2.0782  2.5495 -0.0340
  363MOL0     H50085   0.491   0.030   4.865  0.6207 -0.3849 -0.7886
  363MOL0     H50086   0.435  -0.237   4.730 -4.7345 -0.0572  0.2388
  363MOL0     H50087   0.511  -0.194   4.894 -1.2709  2.5083  2.4008
  363MOL0     H50088   0.293  -0.073   4.932 -1.4124  1.1705 -1.6103
  363MOL0     H50089   0.287  -0.253   4.921  1.9385  0.1709 -0.7213
  363MOL0     H50090   0.084  -0.121   4.563 -1.9455  0.0611  0.8218
  363MOL0     H50091   0.747   0.288   4.563  1.2097  0.4931 -2.8269
  363MOL0     H50092   0.878   0.450   4.476 -0.1772 -0.8876  0.4195
  363MOL0     H50093   1.039   0.471   4.559  2.9659 -1.0660 -1.2902
  363MOL0     H50094   1.021   0.400   4.394 -2.9163 -0.0270 -1.1579
  364MOL0     O50095  11.027   3.986   7.901  0.4620 -0.0266  0.6960
  364MOL0     C50096  11.004   3.875   7.956  1.0151 -0.2989 -0.1028
  364MOL0     O50097  10.880   3.811   7.956 -0.0901  0.6936  0.3036
  364MOL0     C50098  10.768   3.880   7.985 -0.2344 -0.4216 -0.4731
  364MOL0     C50099  10.643   3.846   7.931  0.4782 -0.4750 -0.5178
  364MOL0     C50100  10.527   3.919   7.970 -0.2608 -0.2061  1.1029
  364MOL0     C50101  10.531   4.036   8.043  0.3365  0.2982  0.6835
  364MOL0     O50102  10.411   4.096   8.079 -0.1214  0.2778  0.1644
  364MOL0     C50103  10.298   4.083   7.989 -0.6694  0.0377 -0.4158
  364MOL0     C50104  10.199   4.186   8.036  0.0169  0.2441  0.8740
  364MOL0     C50105  10.071   4.194   7.948  0.7175  0.4482 -0.2405
  364MOL0     C50106  10.090   4.306   7.845  0.0758  0.6142  0.8264
  364MOL0     C50107   9.963   4.320   7.767 -0.2380  0.1767  0.0640
  364MOL0     C50108   9.978   4.435   7.661 -0.2554  0.6589 -0.3644
  364MOL0     C50109   9.848   4.489   7.603 -0.0349 -0.0645 -0.8403
  364MOL0     C50110   9.878   4.612   7.501  0.0429  0.4992 -0.6172
  364MOL0     N50111   9.947   4.561   7.386  0.0797  0.8307 -0.1200
  364MOL0     C50112  10.066   4.604   7.338 -0.0723 -0.1939 -0.6768
  364MOL0     C50113  10.066   4.550   7.214  0.0523 -0.0464 -0.2326
  364MOL0     C50114  10.182   4.567   7.110 -0.1524  0.1492 -1.0995
  364MOL0     C50115  10.228   4.427   7.063  1.1037 -0.0443 -0.0158
  364MOL0     C50116  10.343   4.441   6.955  0.4520 -0.2724 -0.1684
  364MOL0     C50117  10.466   4.526   7.009  0.4955  0.1513 -0.0688
  364MOL0     O50118  10.569   4.511   6.918  0.4027 -0.3449  0.3020
  364MOL0     C50119  10.675   4.438   6.967  0.1703 -0.2511 -0.8709
  364MOL0     C50120  10.666   4.303   7.022  0.0909 -0.9400  0.0720
  364MOL0     C50121  10.777   4.250   7.084  0.4334 -0.3646 -1.4744
  364MOL0     C50122  10.747   4.111   7.163 -0.3011 -0.2167  0.1927
  364MOL0     C50123  10.907   4.321   7.105  1.4415 -0.1284 -0.1135
  364MOL0     C50124  11.022   4.275   7.180 -0.0664  0.9155  0.4423
  364MOL0     O50125  11.130   4.360   7.193  0.1311 -0.2651  0.3339
  364MOL0     C50126  11.238   4.344   7.275  0.5393 -0.1920 -0.3009
  364MOL0     C50127  11.243   4.269   7.399 -0.1172  0.4303 -0.0719
  364MOL0     C50128  11.366   4.243   7.460 -0.0781  0.4112 -0.7223
  364MOL0     C50129  11.481   4.293   7.401  0.2679  0.9124 -0.2972
  364MOL0     O50130  11.604   4.247   7.436 -0.3304 -0.6223 -0.6349
  364MOL0     C50131  11.630   4.156   7.550  0.4449 -0.1379 -0.7849
  364MOL0     C50132  11.772   4.106   7.553  0.1012  0.7526 -0.1907
  364MOL0     C50133  11.881   4.203   7.608 -0.8617 -0.9366 -0.0625
  364MOL0     C50134  12.018   4.167   7.545  0.3267 -0.0953  0.7931
  364MOL0     C50135  12.132   4.232   7.613  0.2648 -0.5664  0.6186
  364MOL0     C50136  12.173   4.163   7.737  1.1181 -0.6298 -0.1606
  364MOL0     C50137  12.277   4.257   7.816 -0.1973 -0.4088 -0.9191
  364MOL0     C50138  12.300   4.196   7.955 -0.3022  0.4227 -0.6631
  364MOL0    Cl50139  12.382   4.031   7.933  0.0411 -0.1029  0.4132
  364MOL0     C50140  11.475   4.373   7.287  0.0283  0.6462 -0.9135
  364MOL0     C50141  11.352   4.395   7.228  0.2575 -0.3258  0.0213
  364MOL0     O50142  11.017   4.169   7.234 -0.6137  0.7687 -0.2178
  364MOL0     C50143  10.910   4.452   7.051 -0.3181  0.2720 -0.3667
  364MOL0     C50144  10.800   4.504   6.986 -0.0512  0.0011  0.6296
  364MOL0     N50145   9.949   4.482   7.188 -0.5769 -0.4309 -0.4466
  364MOL0     N50146   9.874   4.490   7.288 -0.0773 -0.4981 -0.1783
  364MOL0     C50147  10.653   4.067   8.101  0.0207  0.2423  0.4399
  364MOL0     C50148  10.765   3.993   8.078 -0.2276 -0.6417  0.1156
  364MOL0     C50149  11.125   3.806   8.009 -0.0067 -0.6299  0.4194
  364MOL0     C50150  11.133   3.674   7.984  0.2629  0.5275  0.7649
  364MOL0     C50151  11.253   3.597   7.993  1.3614 -0.2252  0.7880
  364MOL0     C50152  11.368   3.659   8.035  1.3555  0.3810 -0.0823
  364MOL0     O50153  11.474   3.580   8.046 -0.2712 -0.0493  0.0477
  364MOL0     C50154  11.604   3.637   8.070 -0.6937 -0.3625 -0.4863
  364MOL0     C50155  11.634   3.663   8.220 -0.3871 -0.8270 -0.4028
  364MOL0     C50156  11.771   3.708   8.247  0.4892  0.4217 -0.1757
  364MOL0     C50157  11.810   3.655   8.383 -1.0235  0.0293 -0.2627
  364MOL0     C50158  11.943   3.713   8.417 -0.1528 -1.3847  0.2480
  364MOL0     C50159  12.058   3.743   8.436 -0.5692 -0.4782  0.2092
  364MOL0     C50160  11.364   3.795   8.066  0.2937 -0.3620  0.0532
  364MOL0     C50161  11.248   3.871   8.049 -0.2764 -0.0015  0.2621
  364MOL0     C50162  11.255   4.022   8.084 -0.3742 -0.0645  0.5728
  364MOL0     H50163  10.651   3.760   7.865  0.3871 -1.1766  0.3774
  364MOL0     H50164  10.438   3.893   7.913 -0.9117 -0.0403  2.0175
  364MOL0     H50165  10.247   3.986   7.997 -0.5848 -0.3418 -3.2903
  364MOL0     H50166  10.316   4.090   7.881 -3.2064  0.7191 -0.8685
  364MOL0     H50167  10.168   4.174   8.140 -0.9066  0.7580  0.6685
  364MOL0     H50168  10.239   4.288   8.038 -1.3193  0.7877  0.6964
  364MOL0     H50169  10.057   4.097   7.901 -1.2696 -0.4533  2.0153
  364MOL0     H50170   9.982   4.230   8.000  0.6324  3.0563 -1.9895
  364MOL0     H50171  10.107   4.405   7.887 -0.2022 -0.0123  2.5186
  364MOL0     H50172  10.177   4.282   7.783 -0.6913 -1.5792  0.4832
  364MOL0     H50173   9.876   4.350   7.827  0.5014  2.8545 -0.0991
  364MOL0     H50174   9.935   4.226   7.718  2.5303 -0.3137 -0.7449
  364MOL0     H50175  10.028   4.518   7.712 -0.5182  1.9517 -2.1101
  364MOL0     H50176  10.047   4.402   7.583  3.2310  3.4569  1.2423
  364MOL0     H50177   9.790   4.535   7.683  0.9417 -1.4978  0.7525
  364MOL0     H50178   9.796   4.412   7.546  1.7486 -0.3748 -2.1597
  364MOL0     H50179   9.784   4.666   7.489 -0.1891  1.1422  2.8782
  364MOL0     H50180   9.944   4.685   7.549 -2.8669  2.7178  0.3729
  364MOL0     H50181  10.129   4.680   7.384  0.7823 -0.7792 -0.8664
  364MOL0     H50182  10.259   4.620   7.167 -1.0243  0.8270 -0.5080
  364MOL0     H50183  10.139   4.629   7.031 -0.0964  1.4065 -0.1761
  364MOL0     H50184  10.263   4.364   7.145 -0.6683 -0.7695  0.2146
  364MOL0     H50185  10.140   4.376   7.024  0.0961  3.3189 -2.6823
  364MOL0     H50186  10.385   4.341   6.939 -0.0027 -1.1395  3.2297
  364MOL0     H50187  10.317   4.498   6.865 -2.0193  1.1362  1.3098
  364MOL0     H50188  10.440   4.631   7.023  2.5177  0.6879 -0.0059
  364MOL0     H50189  10.494   4.495   7.110  1.8571 -1.7516 -0.9647
  364MOL0     H50190  10.577   4.244   7.003  1.1437 -2.0253 -1.8222
  364MOL0     H50191  10.660   4.068   7.114  1.5559 -1.3269 -2.3568
  364MOL0     H50192  10.708   4.120   7.265 -2.5691 -2.9886 -0.2951
  364MOL0     H50193  10.830   4.040   7.158  0.1931  0.3330  0.3473
  364MOL0     H50194  11.153   4.229   7.446  0.6005 -3.0113 -1.3573
  364MOL0     H50195  11.356   4.180   7.548  0.4338 -1.3167 -1.8548
  364MOL0     H50196  11.611   4.198   7.649  2.5849 -0.2592 -0.2578
  364MOL0     H50197  11.572   4.064   7.543  2.0664 -1.3719  0.8610
  364MOL0     H50198  11.766   4.011   7.607 -2.1328  1.2979  0.6557
  364MOL0     H50199  11.798   4.077   7.451 -0.6702  2.0410 -0.7873
  364MOL0     H50200  11.875   4.185   7.716 -2.2573 -1.6259 -0.2340
  364MOL0     H50201  11.844   4.302   7.581 -3.7904 -2.1511 -0.9097
  364MOL0     H50202  12.011   4.213   7.446 -1.6004 -2.5072 -0.3211
  364MOL0     H50203  12.039   4.060   7.541 -0.9575 -0.3468  0.0105
  364MOL0     H50204  12.221   4.232   7.548  0.8348 -1.1890  1.3857
  364MOL0     H50205  12.107   4.337   7.629  1.4107 -0.1303 -0.2796
  364MOL0     H50206  12.228   4.071   7.716  2.3310 -0.0175  0.2903
  364MOL0     H50207  12.079   4.143   7.790 -1.6108  0.5051 -4.0534
  364MOL0     H50208  12.241   4.361   7.818 -0.4933 -0.4941 -1.7099
  364MOL0     H50209  12.373   4.261   7.764  0.7901 -0.2019  0.8433
  364MOL0     H50210  12.202   4.190   8.002 -0.3763  2.0645 -0.5523
  364MOL0     H50211  12.373   4.252   8.014  0.0469 -1.1784  0.4864
  364MOL0     H50212  11.567   4.406   7.241 -0.0575  1.3037 -0.6241
  364MOL0     H50213  11.345   4.445   7.131 -2.8841 -0.7148 -0.0523
  364MOL0     H50214  11.005   4.505   7.055  0.1944 -0.6839  0.9673
  364MOL0     H50215  10.813   4.601   6.937  2.6003 -0.7875 -0.4356
  364MOL0     H50216  10.659   4.149   8.173  2.4085  0.2356  0.3335
  364MOL0     H50217  10.860   4.013   8.125 -1.0507  0.0802  1.5260
  364MOL0     H50218  11.039   3.630   7.951  1.5040  0.0206 -2.4282
  364MOL0     H50219  11.260   3.492   7.965 -0.5702  0.3599 -2.4081
  364MOL0     H50220  11.670   3.556   8.038  1.1257  0.9798 -0.2921
  364MOL0     H50221  11.626   3.721   8.003  1.4604 -0.6611 -0.2312
  364MOL0     H50222  11.608   3.568   8.269 -1.3305 -0.4341 -0.1050
  364MOL0     H50223  11.566   3.741   8.256 -0.7799 -0.4194 -1.9790
  364MOL0     H50224  11.840   3.665   8.174 -0.5394 -4.3112  1.2302
  364MOL0     H50225  11.770   3.816   8.259  0.6915  0.4209 -0.1671
  364MOL0     H50226  11.819   3.546   8.381 -0.0033  0.0210  1.7242
  364MOL0     H50227  11.734   3.689   8.454 -3.3920  2.3120 -3.6220
  364MOL0     H50228  12.159   3.777   8.448 -0.1079 -2.1516  1.4736
  364MOL0     H50229  11.450   3.850   8.104  1.0247 -0.7632 -0.9621
  364MOL0     H50230  11.342   4.054   8.142 -0.9807  1.4432  0.6940
  364MOL0     H50231  11.250   4.074   7.988 -0.5967 -0.5042  0.3438
  364MOL0     H50232  11.164   4.055   8.135 -0.4003  0.6512  0.0779
  365MOL0     O50233   9.703   8.808  10.272  0.0125 -0.0361  0.1582
  365MOL0     C50234   9.820   8.783  10.258  0.5258  0.1927  0.0307
  365MOL0     O50235   9.923   8.864  10.313 -0.7638  0.5293 -0.1193
  365MOL0     C50236  10.053   8.850  10.268 -0.3651 -0.3967 -0.1158
  365MOL0     C50237  10.151   8.844  10.369  0.1577 -1.2448  0.1770
  365MOL0     C50238  10.287   8.857  10.340 -0.8355 -0.9738 -0.1315
  365MOL0     C50239  10.330   8.859  10.205 -0.4239 -0.2714  0.4667
  365MOL0     O50240  10.459   8.863  10.175  0.1414  0.0393  0.7346
  365MOL0     C50241  10.516   8.731  10.158  0.1399 -0.8073 -0.3921
  365MOL0     C50242  10.664   8.733  10.200 -0.8887 -0.6589  0.5134
  365MOL0     C50243  10.752   8.836  10.113 -0.0955  0.2632 -0.0663
  365MOL0     C50244  10.905   8.783  10.116  0.6871  0.0598  0.0942
  365MOL0     C50245  10.990   8.872  10.027  0.3638 -0.5990 -0.4464
  365MOL0     C50246  11.033   9.004  10.086 -0.3100  0.8459 -0.0202
  365MOL0     C50247  11.141   9.071   9.999 -0.2151 -0.2100 -0.1011
  365MOL0     C50248  11.176   9.217  10.019 -0.3795  0.6707  0.2761
  365MOL0     N50249  11.262   9.236  10.127 -0.0997  0.0948 -0.2676
  365MOL0     C50250  11.381   9.172  10.154 -0.6230  0.4107  0.3438
  365MOL0     C50251  11.430   9.228  10.263 -0.3266 -0.2994  0.5913
  365MOL0     C50252  11.576   9.194  10.302 -0.1709  0.0119 -0.3555
  365MOL0     C50253  11.673   9.275  10.227 -0.0113 -0.6806 -0.3132
  365MOL0     C50254  11.683   9.418  10.279  0.4751 -0.2491 -0.0560
  365MOL0     C50255  11.757   9.513  10.185  0.4583  0.4286  0.4876
  365MOL0     O50256  11.896   9.484  10.192 -0.8882 -0.0386 -0.3373
  365MOL0     C50257  11.993   9.581  10.182 -0.2001 -0.6648 -0.3212
  365MOL0     C50258  11.973   9.707  10.130 -0.4148 -0.2200 -0.1638
  365MOL0     C50259  12.083   9.802  10.123  0.4832 -0.3874 -0.4456
  365MOL0     C50260  12.045   9.937  10.072  0.8048  0.5637  0.0005
  365MOL0     C50261  12.214   9.758  10.150  0.9516 -0.6061  0.6028
  365MOL0     C50262  12.325   9.855  10.166  0.0263  0.3558 -0.1326
  365MOL0     O50263  12.446   9.789  10.176 -0.3286 -0.7601 -0.5002
  365MOL0     C50264  12.558   9.863  10.174  0.3142  0.8209 -0.1290
  365MOL0     C50265  12.652   9.837  10.073  0.0072 -0.0023 -0.2147
  365MOL0     C50266  12.772   9.916  10.061  0.1421  0.0861 -0.6583
  365MOL0     C50267  12.806  10.006  10.162 -0.3004  0.3257  0.6537
  365MOL0     O50268  12.934  10.060  10.157 -0.1056 -0.4062  0.5413
  365MOL0     C50269  12.993  10.122  10.272  0.3833 -0.5250  0.4946
  365MOL0     C50270  13.016  10.020  10.378  0.0658 -0.1042  0.0349
  365MOL0     C50271  13.125  10.056  10.482  0.8906 -0.9193  0.3416
  365MOL0     C50272  13.177   9.931  10.564 -0.4927 -0.5401  0.6004
  365MOL0     C50273  13.326   9.958  10.605  0.6142  0.4033 -0.3072
  365MOL0     C50274  13.328  10.083  10.694  0.5046 -0.5175  0.2932
  365MOL0     C50275  13.471  10.105  10.750 -0.5272 -0.0945 -0.2167
  365MOL0     C50276  13.490  10.229  10.835 -0.6754 -0.1565 -0.1988
  365MOL0    Cl50277  13.398  10.226  10.984 -0.2710 -0.3331 -0.0208
  365MOL0     C50278  12.717  10.021  10.264  0.1643  0.6260  0.1635
  365MOL0     C50279  12.595   9.949  10.275  0.0828 -0.3233  0.1654
  365MOL0     O50280  12.310   9.980  10.145 -0.0135  0.1069  0.1294
  365MOL0     C50281  12.227   9.627  10.202 -1.2666 -0.2269 -0.2177
  365MOL0     C50282  12.120   9.543  10.223  0.1540 -0.3279  0.1507
  365MOL0     N50283  11.345   9.336  10.300  0.0747 -0.2590  0.4181
  365MOL0     N50284  11.247   9.332  10.217  0.1889 -0.1687  0.0226
  365MOL0     C50285  10.238   8.847  10.110 -0.2591 -0.0771  0.0989
  365MOL0     C50286  10.096   8.850  10.134 -0.2335  0.1428 -0.2808
  365MOL0     C50287   9.845   8.651  10.211  0.2429  0.2919 -0.4262
  365MOL0     C50288   9.943   8.571  10.279  0.0198 -0.0659 -0.0500
  365MOL0     C50289   9.969   8.442  10.230  0.1910  0.2855  0.0510
  365MOL0     C50290   9.904   8.399  10.115 -0.3493 -0.3080  0.4164
  365MOL0     O50291   9.946   8.276  10.072  0.1311  0.4861 -0.4513
  365MOL0     C50292   9.909   8.237   9.937 -0.5643  0.1261 -0.4400
  365MOL0     C50293  10.017   8.159   9.873  0.5918 -0.0395  1.0372
  365MOL0     C50294  10.010   8.009   9.872  0.7156  0.6181  0.0977
  365MOL0     C50295  10.096   7.939   9.766  0.0813  0.6788  0.9331
  365MOL0     C50296  10.240   7.963   9.787 -1.4223  0.1746  1.0590
  365MOL0     C50297  10.363   7.965   9.796  1.2735  0.2098  0.3038
  365MOL0     C50298   9.815   8.480  10.042 -0.0259 -0.8314  0.3793
  365MOL0     C50299   9.792   8.614  10.089  0.3294 -0.1818  1.0832
  365MOL0     C50300   9.716   8.699   9.984  0.3078  0.2479 -0.2013
  365MOL0     H50301  10.103   8.866  10.464 -0.3905  2.5756 -0.7885
  365MOL0     H50302  10.361   8.871  10.418  0.1259 -1.1941 -0.9646
  365MOL0     H50303  10.510   8.698  10.054  0.9435  1.4509 -1.2260
  365MOL0     H50304  10.470   8.657  10.223 -0.2063  0.7937  1.2935
  365MOL0     H50305  10.662   8.750  10.308  0.8443 -0.3290  0.5084
  365MOL0     H50306  10.710   8.635  10.186  0.7775 -0.1083  1.8506
  365MOL0     H50307  10.710   8.838  10.012  0.4417 -2.4602 -0.4147
  365MOL0     H50308  10.738   8.940  10.145  0.4853  0.4062 -0.2621
  365MOL0     H50309  10.944   8.788  10.218 -0.2630 -1.5196  0.5696
  365MOL0     H50310  10.904   8.675  10.099 -2.1847  0.0161  0.1677
  365MOL0     H50311  10.937   8.898   9.934 -3.4111 -1.7518  1.2228
  365MOL0     H50312  11.076   8.809  10.002 -0.4735 -1.8242 -0.2900
  365MOL0     H50313  10.952   9.072  10.115 -0.3707  0.1913  1.4389
  365MOL0     H50314  11.080   8.978  10.181 -1.6868  0.8981  0.7033
  365MOL0     H50315  11.112   9.066   9.894  1.1051 -1.0229 -0.4411
  365MOL0     H50316  11.230   9.010  10.017 -0.3746  0.2156  2.7225
  365MOL0     H50317  11.227   9.260   9.932 -2.1501  0.4653 -0.9194
  365MOL0     H50318  11.090   9.282  10.040  0.8198  1.4157  3.5012
  365MOL0     H50319  11.423   9.095  10.089  0.3538  1.2203 -0.0118
  365MOL0     H50320  11.598   9.088  10.286  1.5023  0.1849  0.5412
  365MOL0     H50321  11.580   9.227  10.407 -2.4268  0.3563 -0.3437
  365MOL0     H50322  11.774   9.235  10.222  0.8996  1.5353 -1.3295
  365MOL0     H50323  11.647   9.276  10.120  4.6158 -0.1917 -1.6360
  365MOL0     H50324  11.584   9.464  10.284  2.2816  4.7817 -3.2542
  365MOL0     H50325  11.724   9.428  10.380 -0.4559 -1.0588  0.4078
  365MOL0     H50326  11.721   9.489  10.085 -0.4668  1.3370  0.5800
  365MOL0     H50327  11.738   9.618  10.210 -1.8222  0.0349  0.6201
  365MOL0     H50328  11.876   9.749  10.106 -0.1818 -0.3528 -1.4177
  365MOL0     H50329  11.938   9.940  10.048  0.2017 -0.2836  2.2213
  365MOL0     H50330  12.101   9.970   9.985 -1.2735  2.4548 -0.7074
  365MOL0     H50331  12.052  10.012  10.151  1.5277  1.2935 -0.7441
  365MOL0     H50332  12.643   9.758   9.999 -0.2655  0.7561 -1.0081
  365MOL0     H50333  12.838   9.881   9.981 -1.2353 -0.7690 -1.4515
  365MOL0     H50334  13.094  10.145  10.238  0.5040 -3.4442 -1.5253
  365MOL0     H50335  12.930  10.206  10.304 -1.3650 -2.0798  1.3227
  365MOL0     H50336  12.918   9.994  10.420 -0.2937 -1.2920 -1.4730
  365MOL0     H50337  13.047   9.926  10.332 -0.9540 -0.4320 -0.0246
  365MOL0     H50338  13.091  10.132  10.553  0.9178 -1.6350  1.1371
  365MOL0     H50339  13.207  10.107  10.430 -1.4192  0.1287 -2.5459
  365MOL0     H50340  13.176   9.843  10.499 -0.8887  0.0478 -0.2106
  365MOL0     H50341  13.108   9.908  10.646 -0.9641 -3.6721 -0.5661
  365MOL0     H50342  13.370   9.868  10.649  3.1444  1.3957 -0.6268
  365MOL0     H50343  13.387   9.985  10.518 -0.1865 -1.1509 -1.3845
  365MOL0     H50344  13.267  10.089  10.785  0.7196 -1.9900  0.5555
  365MOL0     H50345  13.311  10.173  10.634 -0.6580  0.2770  1.7447
  365MOL0     H50346  13.540  10.113  10.665  1.0598  2.1499  1.1781
  365MOL0     H50347  13.491  10.013  10.806  1.0041 -0.7332 -1.6970
  365MOL0     H50348  13.466  10.319  10.777  1.5292 -0.3462 -1.5241
  365MOL0     H50349  13.595  10.235  10.862 -0.1322 -5.6645  0.0108
  365MOL0     H50350  12.745  10.089  10.344  0.1730  0.1996  0.5202
  365MOL0     H50351  12.522   9.961  10.355 -0.9721 -1.6852 -0.5524
  365MOL0     H50352  12.326   9.595  10.230 -1.1475  0.9502  0.7742
  365MOL0     H50353  12.127   9.443  10.265  3.3865 -0.5127 -0.5564
  365MOL0     H50354  10.278   8.846  10.009  0.2138 -0.2978  0.2869
  365MOL0     H50355  10.028   8.855  10.050  1.9330  0.3858 -2.1397
  365MOL0     H50356   9.990   8.593  10.374  1.1439 -0.8118 -0.4062
  365MOL0     H50357  10.023   8.366  10.285  1.9648 -0.3087 -2.3594
  365MOL0     H50358   9.816   8.180   9.933 -0.0386 -0.7793 -0.0983
  365MOL0     H50359   9.887   8.316   9.865  1.4064 -1.2181 -2.6664
  365MOL0     H50360  10.111   8.191   9.919 -0.8448  2.3004  2.5610
  365MOL0     H50361  10.018   8.191   9.768 -0.5660 -0.0718  1.0091
  365MOL0     H50362  10.054   7.972   9.965  2.4652 -4.5831 -2.4236
  365MOL0     H50363   9.908   7.971   9.862  1.7627 -2.2366 -0.5433
  365MOL0     H50364  10.066   7.976   9.667  1.4378  2.6019  1.1705
  365MOL0     H50365  10.078   7.832   9.776  2.3483  0.0348 -0.9364
  365MOL0     H50366  10.468   7.947   9.807  0.9791 -2.1569 -0.1576
  365MOL0     H50367   9.770   8.453   9.947  0.0507 -1.3458  0.4874
  365MOL0     H50368   9.706   8.645   9.889  2.2559 -2.0019  0.7755
  365MOL0     H50369   9.619   8.733  10.023  1.1093  0.1754  1.9894
  365MOL0     H50370   9.760   8.796   9.962 -1.5822  1.1261 -0.3197
  366MOL0     O50371   6.037   9.037   1.154  0.5578  0.3617 -0.4170
  366MOL0     C50372   6.033   9.143   1.090 -0.6017  0.4354 -1.0684
  366MOL0     O50373   6.148   9.205   1.056  0.1840 -0.4428  0.2227
  366MOL0     C50374   6.260   9.131   1.052  0.0964  0.3408 -0.4846
  366MOL0     C50375   6.364   9.159   1.149  0.3919  0.0382  0.2260
  366MOL0     C50376   6.483   9.079   1.157  0.9265  0.1055  0.1349
  366MOL0     C50377   6.512   8.979   1.058  0.3889 -0.9434  0.7624
  366MOL0     O50378   6.631   8.912   1.066  0.1572  0.0026 -0.3299
  366MOL0     C50379   6.670   8.829   0.957  1.3495 -0.9930 -0.5843
  366MOL0     C50380   6.805   8.764   0.970  0.2116 -0.0791  0.5043
  366MOL0     C50381   6.800   8.615   1.002 -0.3539  0.5069 -0.8532
  366MOL0     C50382   6.944   8.575   1.026  0.1197 -0.5589 -0.8807
  366MOL0     C50383   6.976   8.604   1.176  0.4326  0.0109  0.4601
  366MOL0     C50384   6.916   8.514   1.281  0.4321  0.3284 -0.3776
  366MOL0     C50385   6.976   8.521   1.422  0.7736 -0.9597 -0.2525
  366MOL0     C50386   7.064   8.404   1.450 -0.1877 -0.2823  0.3753
  366MOL0     N50387   7.184   8.398   1.366 -0.2616  0.0977  0.4967
  366MOL0     C50388   7.194   8.346   1.240 -0.2336 -0.1645  0.1141
  366MOL0     C50389   7.317   8.374   1.201  0.0693  0.7695 -1.4781
  366MOL0     C50390   7.370   8.349   1.066 -0.2493  0.1446 -0.3028
  366MOL0     C50391   7.367   8.482   0.988  0.0248 -0.3794 -0.4083
  366MOL0     C50392   7.430   8.477   0.845 -0.4245  0.6747  0.6066
  366MOL0     C50393   7.437   8.618   0.784 -0.4240 -0.4417 -0.1983
  366MOL0     O50394   7.304   8.686   0.795  0.7701 -0.2777 -0.3009
  366MOL0     C50395   7.213   8.673   0.700 -0.0743  0.8495  0.0460
  366MOL0     C50396   7.233   8.595   0.588  0.5091  0.0775 -0.0121
  366MOL0     C50397   7.141   8.590   0.477 -0.3464  0.8025  0.3093
  366MOL0     C50398   7.185   8.511   0.352  0.5284 -0.5225  0.2329
  366MOL0     C50399   7.021   8.673   0.482  0.1238  0.1002 -0.8679
  366MOL0     C50400   6.920   8.688   0.380  0.0020 -0.4018  0.2940
  366MOL0     O50401   6.828   8.796   0.390 -0.4293  0.9723 -0.3399
  366MOL0     C50402   6.744   8.803   0.282  0.1813 -0.5349 -0.0728
  366MOL0     C50403   6.622   8.741   0.292  0.6086  0.2775 -0.6262
  366MOL0     C50404   6.520   8.757   0.207  0.2367 -0.6395 -0.1102
  366MOL0     C50405   6.542   8.839   0.091  0.4067 -0.1732  0.0387
  366MOL0     O50406   6.461   8.866  -0.013  0.5389 -0.2840 -0.6687
  366MOL0     C50407   6.352   8.774  -0.028 -0.3247 -0.2992 -0.3718
  366MOL0     C50408   6.305   8.769  -0.174  0.3796 -0.2862  0.2513
  366MOL0     C50409   6.428   8.756  -0.271  0.4637 -0.4480 -0.1417
  366MOL0     C50410   6.400   8.798  -0.419 -0.4024  0.5088  0.5424
  366MOL0     C50411   6.526   8.781  -0.508 -0.0479 -0.0113  0.2560
  366MOL0     C50412   6.493   8.797  -0.655  0.1037  0.1190 -0.3185
  366MOL0     C50413   6.607   8.762  -0.750 -0.0124  0.4262  0.4446
  366MOL0     C50414   6.563   8.784  -0.897  0.1588 -0.5038  0.8084
  366MOL0    Cl50415   6.688   8.710  -1.007  0.0582 -0.1913 -0.0474
  366MOL0     C50416   6.662   8.904   0.083 -0.1491  0.2599  0.1969
  366MOL0     C50417   6.766   8.889   0.177 -1.0522 -0.5978 -0.4399
  366MOL0     O50418   6.931   8.618   0.279 -0.4488 -0.3588  0.2532
  366MOL0     C50419   7.002   8.743   0.611  0.7981  0.1343 -0.1254
  366MOL0     C50420   7.098   8.746   0.713  0.0912  1.2262  0.2460
  366MOL0     N50421   7.389   8.446   1.296 -0.2525  0.4575 -0.6956
  366MOL0     N50422   7.309   8.454   1.396 -0.2896 -0.2717  0.2624
  366MOL0     C50423   6.414   8.965   0.954  0.2603 -0.2595  0.3326
  366MOL0     C50424   6.285   9.038   0.959  0.5373 -0.0942 -0.0687
  366MOL0     C50425   5.912   9.218   1.068  0.8118 -0.3991  0.3191
  366MOL0     C50426   5.915   9.341   0.998 -1.1137  0.1285 -0.1635
  366MOL0     C50427   5.801   9.417   0.979 -0.4170  0.8572  0.3406
  366MOL0     C50428   5.676   9.365   1.017 -0.2114  0.4977  0.8736
  366MOL0     O50429   5.565   9.430   0.978  0.0104 -0.6911 -0.3649
  366MOL0     C50430   5.567   9.523   0.879  0.2251 -0.3138 -0.6272
  366MOL0     C50431   5.422   9.521   0.823  1.6802 -0.1077 -0.3108
  366MOL0     C50432   5.319   9.583   0.919  0.3498  0.1461  0.0863
  366MOL0     C50433   5.344   9.728   0.947  0.2587 -0.1868 -0.0213
  366MOL0     C50434   5.338   9.753   1.088 -1.0379 -0.6109 -0.1721
  366MOL0     C50435   5.324   9.759   1.206  0.1293 -0.5276 -0.4144
  366MOL0     C50436   5.669   9.251   1.098 -0.5887 -1.2213 -0.1849
  366MOL0     C50437   5.788   9.184   1.131 -0.0324  0.0421 -0.0032
  366MOL0     C50438   5.776   9.069   1.227 -1.0213 -0.8467 -0.2935
  366MOL0     H50439   6.351   9.247   1.211 -0.6891  1.3372 -1.7365
  366MOL0     H50440   6.535   9.076   1.252 -2.0845  0.9057  1.9553
  366MOL0     H50441   6.664   8.883   0.862  2.4669  0.4419  0.1274
  366MOL0     H50442   6.601   8.747   0.935  1.3105 -1.8874  2.5070
  366MOL0     H50443   6.856   8.788   0.877  1.7704 -0.5242  1.2019
  366MOL0     H50444   6.867   8.818   1.043 -0.3600  2.3072 -0.6919
  366MOL0     H50445   6.741   8.597   1.093  3.2869 -0.6978  1.4658
  366MOL0     H50446   6.748   8.572   0.916 -1.2242 -1.0266  0.3771
  366MOL0     H50447   6.952   8.467   1.008  1.6089 -0.8169  0.9935
  366MOL0     H50448   7.007   8.637   0.962 -1.8564  0.3547 -2.0325
  366MOL0     H50449   6.944   8.705   1.201 -0.1812 -0.0543 -0.0346
  366MOL0     H50450   7.085   8.598   1.183  0.5497  1.4790  0.2244
  366MOL0     H50451   6.810   8.540   1.294 -0.2609 -3.0295  2.4067
  366MOL0     H50452   6.917   8.410   1.247 -0.0264  0.9336 -2.4065
  366MOL0     H50453   6.895   8.512   1.496  1.1833 -1.8153  0.1008
  366MOL0     H50454   7.032   8.615   1.432  0.7270 -1.0033  0.4916
  366MOL0     H50455   7.087   8.392   1.556  1.5348 -2.4258 -0.1903
  366MOL0     H50456   7.004   8.314   1.439 -1.9714  0.8144  0.6760
  366MOL0     H50457   7.121   8.313   1.166 -0.1293  1.6852 -0.8674
  366MOL0     H50458   7.307   8.273   1.019  0.9198 -1.1946  0.2197
  366MOL0     H50459   7.472   8.308   1.069 -0.0508  0.6231 -0.4258
  366MOL0     H50460   7.264   8.519   0.986  0.9083  2.5375  1.5893
  366MOL0     H50461   7.420   8.557   1.046 -2.3919 -1.3928  3.4986
  366MOL0     H50462   7.533   8.443   0.864 -1.3573 -2.1806  0.9639
  366MOL0     H50463   7.367   8.411   0.786  0.4091 -0.9178  1.4294
  366MOL0     H50464   7.515   8.681   0.826 -0.0177  2.8187 -5.0313
  366MOL0     H50465   7.468   8.625   0.680  1.1593  2.1886  0.3464
  366MOL0     H50466   7.318   8.532   0.566  0.2965  0.8124 -3.5460
  366MOL0     H50467   7.103   8.447   0.318  0.2433 -0.2614  0.4230
  366MOL0     H50468   7.268   8.450   0.386 -1.1926 -2.2655  1.5022
  366MOL0     H50469   7.214   8.589   0.280 -0.6192 -0.3591 -0.0726
  366MOL0     H50470   6.603   8.682   0.381  0.0541  0.6697 -0.4784
  366MOL0     H50471   6.433   8.692   0.213  0.8136 -1.5879 -1.4128
  366MOL0     H50472   6.377   8.668  -0.016  0.5123 -0.3430 -2.1499
  366MOL0     H50473   6.272   8.791   0.045  0.7389 -2.8805  1.5626
  366MOL0     H50474   6.233   8.687  -0.183 -0.4467  0.3966  0.4180
  366MOL0     H50475   6.265   8.869  -0.193  3.8341  1.4349  1.2684
  366MOL0     H50476   6.449   8.649  -0.276  1.1766 -0.2430 -2.4642
  366MOL0     H50477   6.514   8.816  -0.239  1.0078 -0.0924 -2.1724
  366MOL0     H50478   6.372   8.901  -0.443  1.3809  0.2567 -3.6805
  366MOL0     H50479   6.316   8.743  -0.462 -1.0582  0.5031  1.7933
  366MOL0     H50480   6.595   8.864  -0.490 -0.1367  0.2570 -0.6024
  366MOL0     H50481   6.577   8.684  -0.501  0.3490  0.1343 -0.4608
  366MOL0     H50482   6.456   8.897  -0.678  0.9081  0.7546  1.0270
  366MOL0     H50483   6.415   8.721  -0.668  1.1132 -1.1024  0.4446
  366MOL0     H50484   6.631   8.658  -0.728 -2.2949 -0.2528  0.0400
  366MOL0     H50485   6.690   8.827  -0.722  0.4169  0.7044 -1.3666
  366MOL0     H50486   6.568   8.893  -0.909  1.2879 -0.6421 -0.2547
  366MOL0     H50487   6.466   8.739  -0.920  0.8684 -0.4749 -2.9129
  366MOL0     H50488   6.676   8.965  -0.006  4.1617  0.1221  0.5679
  366MOL0     H50489   6.862   8.939   0.166 -1.2041 -0.1691  0.1427
  366MOL0     H50490   6.926   8.821   0.609  0.4210 -0.2276 -2.4277
  366MOL0     H50491   7.079   8.808   0.801  3.4938  0.2488  1.8321
  366MOL0     H50492   6.412   8.891   0.875 -1.7841 -0.0891  0.1563
  366MOL0     H50493   6.201   9.017   0.893 -1.5348 -0.0365  2.4297
  366MOL0     H50494   6.007   9.377   0.952  0.4977 -1.6541  1.5136
  366MOL0     H50495   5.823   9.509   0.925  1.9462  0.5929  0.7575
  366MOL0     H50496   5.602   9.621   0.913 -1.6270  0.4855 -0.9167
  366MOL0     H50497   5.627   9.485   0.795  0.7538  0.8405 -0.7887
  366MOL0     H50498   5.386   9.422   0.797 -1.4774  0.4069  1.6428
  366MOL0     H50499   5.430   9.578   0.730 -0.4337 -0.9130 -1.0222
  366MOL0     H50500   5.225   9.575   0.862 -0.5041  3.3811  0.8392
  366MOL0     H50501   5.311   9.512   1.002  2.2602 -0.7686 -0.4627
  366MOL0     H50502   5.272   9.789   0.891  1.1284  1.8139  0.9329
  366MOL0     H50503   5.442   9.761   0.909  1.0035 -1.8694  0.3582
  366MOL0     H50504   5.318   9.757   1.313 -0.1025 -0.2526 -0.4222
  366MOL0     H50505   5.573   9.217   1.136 -2.3101  0.1395 -2.9917
  366MOL0     H50506   5.671   9.064   1.255 -1.1670 -0.1382 -0.6897
  366MOL0     H50507   5.802   8.975   1.178 -1.9332 -2.4729  2.1309
  366MOL0     H50508   5.840   9.082   1.315 -1.6630 -0.5888  0.1397
  367MOL0     O50509   3.768   3.440   9.704  0.5374  0.8563  0.0509
  367MOL0     C50510   3.847   3.349   9.690  0.0454  0.2076 -0.7884
  367MOL0     O50511   3.888   3.263   9.798 -0.3756  0.2763  0.5347
  367MOL0     C50512   3.820   3.281   9.914 -1.0083  0.0199 -0.4376
  367MOL0     C50513   3.898   3.305  10.033  0.0914  0.5216  0.2565
  367MOL0     C50514   3.844   3.317  10.154  1.1468  0.5359 -0.2787
  367MOL0     C50515   3.709   3.291  10.170  0.2831 -0.3997  0.5697
  367MOL0     O50516   3.671   3.277  10.304 -0.0603 -0.1564 -0.3593
  367MOL0     C50517   3.527   3.278  10.332  1.0103 -0.0710 -0.1207
  367MOL0     C50518   3.448   3.405  10.300 -0.3390 -0.8754  0.0769
  367MOL0     C50519   3.319   3.401  10.381 -0.4872  0.6099  0.2818
  367MOL0     C50520   3.260   3.545  10.409 -0.1320  0.3836  0.3197
  367MOL0     C50521   3.130   3.535  10.471  0.1867  0.6919  0.5484
  367MOL0     C50522   3.009   3.472  10.391  0.1152  0.3995 -0.3671
  367MOL0     C50523   2.993   3.515  10.248  0.5212 -0.5941  0.0503
  367MOL0     C50524   2.875   3.460  10.173 -0.0942 -0.3932  0.4060
  367MOL0     N50525   2.754   3.487  10.245 -0.1521  0.0975 -0.5313
  367MOL0     C50526   2.713   3.618  10.286 -0.3932  0.0560  0.5461
  367MOL0     C50527   2.610   3.591  10.366 -0.1751  0.2300  0.0580
  367MOL0     C50528   2.543   3.706  10.444  0.5770  0.4111 -0.6908
  367MOL0     C50529   2.518   3.669  10.593  1.0419  0.7858 -0.4439
  367MOL0     C50530   2.622   3.730  10.694  0.6931  0.0100 -0.7317
  367MOL0     C50531   2.770   3.690  10.681 -0.3078 -0.7235  0.0614
  367MOL0     O50532   2.849   3.757  10.776  0.4448  0.0940 -0.0674
  367MOL0     C50533   2.985   3.745  10.755 -0.0763 -0.0792 -0.0181
  367MOL0     C50534   3.052   3.847  10.692  0.2413  0.4496  0.5195
  367MOL0     C50535   3.193   3.852  10.675 -0.6909  0.7046 -0.4825
  367MOL0     C50536   3.243   3.959  10.584  0.4026 -0.0448  0.5101
  367MOL0     C50537   3.269   3.747  10.729  0.6168 -1.2582  0.4927
  367MOL0     C50538   3.412   3.719  10.706  0.6154  0.1341 -0.2712
  367MOL0     O50539   3.472   3.614  10.769  0.6000  0.0789 -0.6254
  367MOL0     C50540   3.602   3.593  10.738  0.8266  0.5876 -0.1918
  367MOL0     C50541   3.629   3.532  10.613  0.5943 -0.2054  0.1400
  367MOL0     C50542   3.758   3.489  10.591  0.6434  0.7912 -0.0712
  367MOL0     C50543   3.861   3.544  10.671 -0.2660 -0.0611  0.2246
  367MOL0     O50544   3.995   3.536  10.631 -0.6705  0.3095 -0.7421
  367MOL0     C50545   4.104   3.520  10.724  0.1251 -0.0022  1.2951
  367MOL0     C50546   4.092   3.410  10.832 -1.0249  0.4388  0.3631
  367MOL0     C50547   4.216   3.390  10.921  1.1347 -0.1274 -0.6138
  367MOL0     C50548   4.348   3.350  10.847 -0.3093 -0.4321 -1.1835
  367MOL0     C50549   4.449   3.313  10.960 -1.1444  0.1845 -1.0383
  367MOL0     C50550   4.589   3.307  10.894  0.4873 -0.1382 -0.2929
  367MOL0     C50551   4.689   3.281  10.997  0.1329 -0.2543  0.4835
  367MOL0     C50552   4.837   3.269  10.948  1.0278 -0.0723 -0.2121
  367MOL0    Cl50553   4.931   3.223  11.088  0.2322 -0.0549  0.0426
  367MOL0     C50554   3.836   3.621  10.792 -0.6018  0.5229  0.2119
  367MOL0     C50555   3.704   3.635  10.823  0.2629 -0.7659  0.1152
  367MOL0     O50556   3.474   3.805  10.646  0.2727  0.7273 -0.0384
  367MOL0     C50557   3.204   3.646  10.804  0.4624 -0.0823 -0.3559
  367MOL0     C50558   3.061   3.641  10.805 -0.5797  0.6581  1.0891
  367MOL0     N50559   2.598   3.445  10.379 -0.0105  0.0638  0.2179
  367MOL0     N50560   2.688   3.390  10.301 -0.6264 -0.8996  0.2661
  367MOL0     C50561   3.626   3.275  10.051 -0.4919 -0.5541 -0.4189
  367MOL0     C50562   3.678   3.277   9.924 -0.5995 -1.0882 -0.3552
  367MOL0     C50563   3.935   3.327   9.577 -0.9065  0.1898  0.2920
  367MOL0     C50564   4.064   3.279   9.593 -0.5530  0.7173  0.0632
  367MOL0     C50565   4.150   3.254   9.484 -0.3205 -0.5635  0.3581
  367MOL0     C50566   4.098   3.259   9.355  0.5538  0.1287 -0.1743
  367MOL0     O50567   4.176   3.231   9.240  0.4372  0.2374  0.3970
  367MOL0     C50568   4.299   3.295   9.228 -0.7573  0.6114 -0.1257
  367MOL0     C50569   4.412   3.188   9.219 -0.3145  0.2974 -0.2334
  367MOL0     C50570   4.428   3.094   9.338 -0.2672 -0.9693 -0.5084
  367MOL0     C50571   4.549   2.999   9.316  0.3174  0.7112 -0.6525
  367MOL0     C50572   4.580   2.922   9.442 -0.3237 -0.7740 -0.0064
  367MOL0     C50573   4.604   2.874   9.552  0.1216 -0.8242  0.6313
  367MOL0     C50574   3.968   3.311   9.332  0.1845  0.0839 -0.5698
  367MOL0     C50575   3.885   3.341   9.439  1.0031  1.0124 -0.6604
  367MOL0     C50576   3.737   3.381   9.415 -0.4357  0.1957  0.1641
  367MOL0     H50577   4.006   3.311  10.024  0.2567 -0.8768  0.9335
  367MOL0     H50578   3.904   3.333  10.243  2.0453 -0.0678 -0.7579
  367MOL0     H50579   3.510   3.259  10.439 -1.0235  1.9715 -0.0139
  367MOL0     H50580   3.470   3.197  10.287  0.7727 -0.0736  0.1784
  367MOL0     H50581   3.506   3.497  10.311  1.7233 -1.5983 -3.2553
  367MOL0     H50582   3.408   3.403  10.198 -3.4946 -0.6094  1.1922
  367MOL0     H50583   3.250   3.339  10.325 -1.8296  1.9878  0.3628
  367MOL0     H50584   3.347   3.356  10.477  0.9438 -2.5094 -1.4684
  367MOL0     H50585   3.326   3.612  10.465 -0.0344 -0.6087  1.4275
  367MOL0     H50586   3.244   3.587  10.309  0.7890 -2.1662 -0.9961
  367MOL0     H50587   3.102   3.639  10.486  3.7976  2.1000 -1.1949
  367MOL0     H50588   3.139   3.482  10.566  0.7356 -1.0025 -0.3921
  367MOL0     H50589   3.034   3.366  10.376  0.9014  0.5818 -0.3917
  367MOL0     H50590   2.922   3.475  10.457  0.0630 -0.7022 -0.3717
  367MOL0     H50591   3.077   3.471  10.194  2.1838 -0.3098  2.2273
  367MOL0     H50592   2.994   3.624  10.247  2.6127 -0.5222  1.6146
  367MOL0     H50593   2.864   3.516  10.080 -0.4202 -1.3157 -0.1269
  367MOL0     H50594   2.880   3.354  10.145 -0.3254  0.3543 -2.8632
  367MOL0     H50595   2.763   3.711  10.263  2.4371 -1.2050  1.1742
  367MOL0     H50596   2.448   3.735  10.397  0.8601  2.0353 -0.3301
  367MOL0     H50597   2.602   3.799  10.440  0.9488  0.1365 -1.9453
  367MOL0     H50598   2.421   3.706  10.629  0.8888  2.2344 -2.2053
  367MOL0     H50599   2.510   3.562  10.613 -1.6881  1.1231  0.7906
  367MOL0     H50600   2.620   3.840  10.695  1.0908  0.0418  1.1683
  367MOL0     H50601   2.581   3.702  10.791  2.5243  0.4854  0.2402
  367MOL0     H50602   2.776   3.580  10.678 -1.3201 -0.7843 -0.0588
  367MOL0     H50603   2.804   3.730  10.585 -2.3443  2.2643  0.4510
  367MOL0     H50604   2.986   3.908  10.632  0.8965  0.7101  0.0461
  367MOL0     H50605   3.163   4.033  10.578  0.3809  0.0034  1.3440
  367MOL0     H50606   3.249   3.924  10.480 -0.6851 -0.5834  0.6108
  367MOL0     H50607   3.329   4.013  10.623 -1.0023  1.9074  1.0831
  367MOL0     H50608   3.545   3.493  10.556 -1.0180 -0.9416  2.8168
  367MOL0     H50609   3.793   3.441  10.501  0.5288 -0.9487  0.7770
  367MOL0     H50610   4.192   3.497  10.663 -1.3789 -3.5475  0.1837
  367MOL0     H50611   4.123   3.615  10.775 -0.0315  0.0096  1.3328
  367MOL0     H50612   4.005   3.435  10.894 -0.8197  2.8403 -0.2278
  367MOL0     H50613   4.070   3.314  10.785 -1.0093  0.8903 -0.5784
  367MOL0     H50614   4.184   3.309  10.988  0.1045  1.8218  1.3607
  367MOL0     H50615   4.227   3.472  10.992 -1.6011 -0.7731  0.6871
  367MOL0     H50616   4.391   3.433  10.791  0.8144 -0.8935 -1.0151
  367MOL0     H50617   4.332   3.261  10.786 -0.8362 -1.7756  0.8109
  367MOL0     H50618   4.459   3.399  11.026  3.5380 -0.9846  0.1759
  367MOL0     H50619   4.432   3.220  11.015  1.4530  0.1313 -0.2098
  367MOL0     H50620   4.606   3.402  10.842  0.0065 -0.6193 -1.3500
  367MOL0     H50621   4.592   3.222  10.825  1.9350 -0.2568 -0.1202
  367MOL0     H50622   4.663   3.185  11.043 -1.0610 -0.0470  0.2515
  367MOL0     H50623   4.689   3.358  11.074 -1.0332 -0.2977  0.5367
  367MOL0     H50624   4.882   3.359  10.905  0.4617  1.1223  1.5670
  367MOL0     H50625   4.831   3.190  10.872  1.2683  0.8662 -1.2322
  367MOL0     H50626   3.900   3.665  10.868  0.4271  2.6068 -1.7186
  367MOL0     H50627   3.672   3.696  10.906  1.6684  0.7171 -0.3779
  367MOL0     H50628   3.252   3.565  10.858 -0.0895 -0.7257 -0.8193
  367MOL0     H50629   3.020   3.567  10.874 -2.4938  2.1038  1.5764
  367MOL0     H50630   3.518   3.267  10.056 -0.5002 -1.1610 -1.3694
  367MOL0     H50631   3.609   3.264   9.842 -0.9626  1.5201 -0.5432
  367MOL0     H50632   4.109   3.245   9.686  1.3606 -0.8802 -1.3509
  367MOL0     H50633   4.254   3.223   9.491  0.5286  1.6362 -1.2170
  367MOL0     H50634   4.296   3.353   9.136 -1.2833 -1.5667 -1.5532
  367MOL0     H50635   4.327   3.358   9.313  0.8707 -2.5571  1.9037
  367MOL0     H50636   4.501   3.241   9.183 -1.6506  1.7115 -1.5563
  367MOL0     H50637   4.380   3.120   9.140  1.9869 -1.7923  0.4789
  367MOL0     H50638   4.447   3.162   9.421 -2.1205  0.3896 -1.1281
  367MOL0     H50639   4.340   3.033   9.360 -0.4286 -1.2958 -1.9642
  367MOL0     H50640   4.635   3.052   9.275  1.9638  0.1285  1.7990
  367MOL0     H50641   4.520   2.924   9.242 -0.6055 -0.7844  1.1089
  367MOL0     H50642   4.638   2.834   9.645  1.3986  1.8163  1.4246
  367MOL0     H50643   3.937   3.300   9.228 -2.0423 -4.8321  0.3079
  367MOL0     H50644   3.725   3.398   9.307  1.4256  0.5260 -0.0126
  367MOL0     H50645   3.667   3.308   9.457 -0.9044  1.1677  1.0958
  367MOL0     H50646   3.719   3.480   9.457  2.4082  1.0516 -0.4257
  368MOL0     O50647   1.302   1.300   9.980 -1.2466 -0.6418  0.1060
  368MOL0     C50648   1.323   1.205   9.903 -0.6662  0.2324 -0.4635
  368MOL0     O50649   1.237   1.178   9.798  0.3160 -0.1157 -0.6978
  368MOL0     C50650   1.151   1.272   9.769 -1.0253  0.1561  0.2405
  368MOL0     C50651   1.030   1.270   9.840  0.0451 -1.0168 -1.3792
  368MOL0     C50652   0.931   1.360   9.808  0.1070 -0.1283  0.2477
  368MOL0     C50653   0.961   1.460   9.712 -0.3502 -0.0067  1.0429
  368MOL0     O50654   0.856   1.546   9.693 -0.2705  0.7779  0.0607
  368MOL0     C50655   0.868   1.647   9.586  0.0071 -0.3175  0.1862
  368MOL0     C50656   0.953   1.761   9.632  0.5377 -0.0299 -0.8590
  368MOL0     C50657   0.911   1.809   9.775 -0.1750  0.7787  0.3098
  368MOL0     C50658   0.950   1.958   9.781  0.1007 -0.5795 -0.4500
  368MOL0     C50659   0.910   2.027   9.915  0.0995 -0.2698 -0.3548
  368MOL0     C50660   1.017   2.119   9.969  1.0009 -0.6986 -0.5913
  368MOL0     C50661   0.958   2.197  10.085  0.3043  0.4423 -0.6908
  368MOL0     C50662   1.069   2.263  10.163 -0.1096 -0.8246 -0.0038
  368MOL0     N50663   1.154   2.171  10.237 -0.4300  0.1633  0.2079
  368MOL0     C50664   1.285   2.198  10.261 -0.3007  0.2184 -0.6714
  368MOL0     C50665   1.332   2.103  10.348  0.9517 -0.5029  0.4904
  368MOL0     C50666   1.473   2.101  10.401 -0.4462 -0.7394  0.0496
  368MOL0     C50667   1.499   2.002  10.506  0.6128  0.5003 -0.3652
  368MOL0     C50668   1.530   1.857  10.446  0.8320 -0.1635 -0.0488
  368MOL0     C50669   1.676   1.838  10.395  0.0425 -0.1242 -0.6824
  368MOL0     O50670   1.754   1.799  10.512 -0.5160  0.2102  0.3038
  368MOL0     C50671   1.887   1.771  10.492  0.0073  0.1305 -0.3994
  368MOL0     C50672   1.954   1.767  10.365  0.0086 -0.0876  0.3558
  368MOL0     C50673   2.095   1.763  10.359  0.1957  0.2357  0.5880
  368MOL0     C50674   2.152   1.778  10.221 -0.1695 -0.4600  0.5657
  368MOL0     C50675   2.169   1.743  10.472  0.2443  0.1801  0.3674
  368MOL0     C50676   2.314   1.727  10.488  0.2563  1.2289 -0.4135
  368MOL0     O50677   2.365   1.748  10.610  0.6513 -0.1259 -0.3645
  368MOL0     C50678   2.475   1.675  10.647  0.5143 -0.5834 -0.1753
  368MOL0     C50679   2.566   1.732  10.739 -0.1232 -1.2617  0.0730
  368MOL0     C50680   2.675   1.662  10.788  0.6899  0.1528  0.9928
  368MOL0     C50681   2.702   1.534  10.741 -0.1522  0.1670 -1.4560
  368MOL0     O50682   2.824   1.481  10.783  0.7822 -0.1593 -0.3616
  368MOL0     C50683   2.883   1.383  10.692  0.2637  0.2979 -0.3384
  368MOL0     C50684   2.924   1.438  10.552  0.2488 -0.4611 -1.0949
  368MOL0     C50685   2.994   1.334  10.461 -0.1770 -0.0759 -0.6477
  368MOL0     C50686   2.891   1.226  10.425  0.3338 -1.1472  0.2500
  368MOL0     C50687   2.878   1.179  10.278 -0.3785 -0.1111 -0.1302
  368MOL0     C50688   3.018   1.124  10.234  0.0323  0.0448 -0.6153
  368MOL0     C50689   3.026   1.076  10.092  0.2503 -0.1580  0.0620
  368MOL0     C50690   3.142   0.983  10.067 -0.1123 -0.4083  0.8402
  368MOL0    Cl50691   3.297   1.069  10.101 -0.2156  0.4603 -0.0378
  368MOL0     C50692   2.606   1.466  10.663 -0.0177  0.1296 -0.8795
  368MOL0     C50693   2.499   1.533  10.611 -0.8192 -0.9217  0.4977
  368MOL0     O50694   2.378   1.697  10.387  0.0202  0.4161  0.8741
  368MOL0     C50695   2.100   1.737  10.591  0.1170  0.7618 -0.9041
  368MOL0     C50696   1.962   1.743  10.594 -0.4637 -0.8640  0.3658
  368MOL0     N50697   1.225   2.025  10.378  0.7309 -0.3229 -0.2110
  368MOL0     N50698   1.117   2.065  10.315  0.4305 -0.1974 -0.0239
  368MOL0     C50699   1.078   1.459   9.639  0.5422 -0.7130  0.7959
  368MOL0     C50700   1.178   1.368   9.669  0.8561  0.7075  1.5705
  368MOL0     C50701   1.422   1.098   9.932 -1.3650 -0.6107 -0.5213
  368MOL0     C50702   1.412   0.975   9.860 -0.3885 -0.3867 -0.6125
  368MOL0     C50703   1.506   0.872   9.876  0.6657  0.6785 -0.1726
  368MOL0     C50704   1.612   0.884   9.964  0.1456  0.2448 -0.9058
  368MOL0     O50705   1.707   0.789  10.005  0.2968 -0.5288 -0.1338
  368MOL0     C50706   1.742   0.691   9.912 -0.3366 -0.6979 -0.3223
  368MOL0     C50707   1.810   0.739   9.786  0.1925 -0.4441  0.7947
  368MOL0     C50708   1.936   0.812   9.805 -0.7887  0.0889 -0.4903
  368MOL0     C50709   1.963   0.907   9.689 -0.1976 -0.0739 -0.0425
  368MOL0     C50710   1.868   1.017   9.678  0.0404  0.4909  0.2363
  368MOL0     C50711   1.781   1.103   9.667  0.5196 -0.1720 -0.3248
  368MOL0     C50712   1.626   1.003  10.028 -0.2138 -0.1742 -0.2528
  368MOL0     C50713   1.537   1.110  10.013  0.3913 -0.1255  0.4036
  368MOL0     C50714   1.569   1.245  10.091 -0.2114 -0.1146 -0.5519
  368MOL0     H50715   1.009   1.194   9.915  1.2468  0.2527  0.3603
  368MOL0     H50716   0.844   1.357   9.873  1.7611 -3.2187  2.6273
  368MOL0     H50717   0.769   1.686   9.563 -0.9608 -2.8052 -0.2168
  368MOL0     H50718   0.895   1.609   9.487 -1.8415  1.9165 -1.2781
  368MOL0     H50719   1.057   1.727   9.637  0.4878  0.0057  1.1386
  368MOL0     H50720   0.948   1.842   9.558  0.5778  1.2372  0.4878
  368MOL0     H50721   0.803   1.809   9.786 -0.2417 -1.8337  0.1932
  368MOL0     H50722   0.966   1.742   9.842  0.7109  0.7733 -0.4050
  368MOL0     H50723   1.055   1.976   9.760  0.5420 -3.3416 -1.0764
  368MOL0     H50724   0.900   2.012   9.700  0.1710  1.4704  0.8092
  368MOL0     H50725   0.893   1.945   9.985  1.0643  0.0818  0.3191
  368MOL0     H50726   0.821   2.091   9.907  0.7282  0.4611 -2.2644
  368MOL0     H50727   1.103   2.064  10.008 -0.6703 -1.7293  1.8407
  368MOL0     H50728   1.049   2.193   9.894  0.3709 -1.2621 -1.4369
  368MOL0     H50729   0.894   2.137  10.150  0.4292  0.3313 -0.6710
  368MOL0     H50730   0.893   2.274  10.040  0.7361  0.3132 -1.5548
  368MOL0     H50731   1.127   2.327  10.095 -0.1182  0.5724  1.2685
  368MOL0     H50732   1.024   2.324  10.241 -0.9584 -1.4169 -0.0194
  368MOL0     H50733   1.341   2.281  10.218  1.0650  1.5335  3.1500
  368MOL0     H50734   1.512   2.196  10.438 -2.0810 -0.9071  2.5038
  368MOL0     H50735   1.529   2.074  10.312  1.3828 -2.0432  1.5067
  368MOL0     H50736   1.579   2.019  10.579  0.7054 -1.2835  0.0130
  368MOL0     H50737   1.406   1.995  10.562  0.0845 -0.4332 -1.3342
  368MOL0     H50738   1.508   1.773  10.512  1.6389  0.8113  1.5134
  368MOL0     H50739   1.468   1.839  10.358  0.2215 -2.7340  0.8078
  368MOL0     H50740   1.680   1.750  10.331 -1.1889 -0.4965 -0.2802
  368MOL0     H50741   1.717   1.923  10.341  0.6244 -1.3977 -2.3148
  368MOL0     H50742   1.894   1.796  10.279 -1.0932  0.4112  1.2693
  368MOL0     H50743   2.204   1.687  10.190  2.7987  0.6469  1.9847
  368MOL0     H50744   2.219   1.863  10.207 -2.1449  0.6995 -3.7665
  368MOL0     H50745   2.072   1.794  10.148  1.3331  0.6733 -0.9012
  368MOL0     H50746   2.546   1.833  10.771  1.3184 -0.8348 -0.3049
  368MOL0     H50747   2.746   1.719  10.848  1.4621  1.9006 -1.4145
  368MOL0     H50748   2.976   1.366  10.747  0.9229 -1.0399 -1.7969
  368MOL0     H50749   2.828   1.289  10.689 -0.2442  0.5927 -0.6105
  368MOL0     H50750   2.830   1.472  10.508 -1.3772 -1.1769  1.6030
  368MOL0     H50751   2.998   1.517  10.564  0.2074 -0.5023 -0.5171
  368MOL0     H50752   3.084   1.285  10.500  0.1638  0.3927 -0.8279
  368MOL0     H50753   3.023   1.383  10.367  0.9579 -2.5014 -1.6650
  368MOL0     H50754   2.791   1.257  10.455 -0.5872 -1.4065 -2.3332
  368MOL0     H50755   2.910   1.137  10.485 -1.3045 -0.5605  1.7106
  368MOL0     H50756   2.802   1.101  10.267  0.9387 -1.8152  2.1071
  368MOL0     H50757   2.855   1.262  10.211 -0.4522  0.5363  0.6955
  368MOL0     H50758   3.044   1.050  10.310 -1.0174 -0.3196 -0.6059
  368MOL0     H50759   3.098   1.196  10.254  2.1988 -1.8374 -2.0236
  368MOL0     H50760   3.011   1.162  10.027 -0.4800  0.3020  0.8136
  368MOL0     H50761   2.936   1.018  10.068 -0.5754  0.4938  1.4488
  368MOL0     H50762   3.142   0.942   9.965  1.4822 -1.3098  1.1788
  368MOL0     H50763   3.143   0.893  10.129 -0.0700 -0.0751  1.3243
  368MOL0     H50764   2.626   1.363  10.636  2.0389  0.2485  0.0036
  368MOL0     H50765   2.418   1.495  10.550  0.5762 -0.9275 -1.4207
  368MOL0     H50766   2.155   1.723  10.684  1.7255 -1.3051 -2.0744
  368MOL0     H50767   1.921   1.740  10.694 -0.4949 -0.3897  0.3720
  368MOL0     H50768   1.101   1.539   9.569  0.8342 -2.9620 -1.8531
  368MOL0     H50769   1.272   1.362   9.615 -1.8398  0.3931 -3.8262
  368MOL0     H50770   1.328   0.963   9.792 -1.1825  1.1152  0.0650
  368MOL0     H50771   1.486   0.784   9.815 -3.6878  0.4104  1.2543
  368MOL0     H50772   1.810   0.624   9.966  1.4949 -0.3946 -2.1035
  368MOL0     H50773   1.651   0.643   9.876 -0.3263 -1.1048  0.1742
  368MOL0     H50774   1.752   0.793   9.711  1.2539 -1.2792 -0.6785
  368MOL0     H50775   1.847   0.644   9.745  0.6701  0.1395 -0.1728
  368MOL0     H50776   1.943   0.874   9.895  0.1184 -1.3776  0.5017
  368MOL0     H50777   2.024   0.748   9.801 -0.6813  0.0330  1.4984
  368MOL0     H50778   1.966   0.850   9.596  0.1835 -0.9509  0.4980
  368MOL0     H50779   2.057   0.956   9.716 -0.5573 -0.8088  2.9419
  368MOL0     H50780   1.709   1.182   9.669  1.1222  0.6813 -4.3663
  368MOL0     H50781   1.720   1.002  10.082 -0.7308  0.1019  0.6803
  368MOL0     H50782   1.501   1.257  10.176  1.4783 -3.4989  1.5475
  368MOL0     H50783   1.669   1.245  10.135 -2.1519 -2.2449  4.7359
  368MOL0     H50784   1.561   1.322  10.014  0.7762  0.4930 -0.0612
  369MOL0     O50785   6.869   7.349   6.749  1.6000  0.1533 -0.0146
  369MOL0     C50786   6.806   7.310   6.848 -0.6428  0.0914  0.0541
  369MOL0     O50787   6.852   7.323   6.978  0.0734  0.0953  0.1181
  369MOL0     C50788   6.967   7.408   6.997  0.9314 -0.1034 -0.1705
  369MOL0     C50789   7.091   7.345   7.020  0.4083  0.2557  0.1129
  369MOL0     C50790   7.201   7.413   7.047  1.0088 -0.2821  0.5046
  369MOL0     C50791   7.203   7.551   7.065  0.1708  0.5242  0.2040
  369MOL0     O50792   7.325   7.604   7.076 -0.5334 -0.4059 -0.0341
  369MOL0     C50793   7.336   7.750   7.074 -0.2406  0.5806  0.7306
  369MOL0     C50794   7.481   7.784   7.113  0.2775  0.5719 -0.1163
  369MOL0     C50795   7.502   7.929   7.111 -0.4026 -0.4547  0.9347
  369MOL0     C50796   7.635   7.970   7.161 -0.2394  0.4759  0.2862
  369MOL0     C50797   7.633   8.122   7.198 -0.0870 -0.1511  0.2405
  369MOL0     C50798   7.624   8.215   7.070  0.4319 -0.6816 -0.4749
  369MOL0     C50799   7.578   8.364   7.094  0.2495 -0.8039 -0.5926
  369MOL0     C50800   7.654   8.440   7.192 -0.4209  0.2809  0.2193
  369MOL0     N50801   7.641   8.589   7.191 -0.4986  0.3059 -0.1430
  369MOL0     C50802   7.722   8.669   7.112  0.2206  0.4758  0.1341
  369MOL0     C50803   7.681   8.795   7.124 -0.7560 -0.1585 -0.0203
  369MOL0     C50804   7.740   8.909   7.031 -0.0571 -0.1268 -0.0158
  369MOL0     C50805   7.887   8.949   7.055 -0.7936  0.1074 -0.0335
  369MOL0     C50806   7.979   8.856   6.976 -0.9510 -0.2846 -0.2907
  369MOL0     C50807   8.121   8.901   6.992 -0.4887 -0.2173  0.1975
  369MOL0     O50808   8.164   8.879   7.131  0.2600  0.2013  0.6438
  369MOL0     C50809   8.293   8.886   7.175 -0.5546  0.3501  0.3783
  369MOL0     C50810   8.320   8.870   7.314 -0.2661 -0.6946  0.5951
  369MOL0     C50811   8.449   8.878   7.372 -0.1422  1.0610  1.0489
  369MOL0     C50812   8.470   8.869   7.521  0.0592  0.1346 -0.4215
  369MOL0     C50813   8.562   8.898   7.279 -0.5401  0.7381 -0.1446
  369MOL0     C50814   8.701   8.915   7.314 -0.2856  0.9371  0.5951
  369MOL0     O50815   8.744   8.855   7.429 -0.7075  0.7180  0.5118
  369MOL0     C50816   8.873   8.820   7.454 -0.8205  0.2179  0.5275
  369MOL0     C50817   8.886   8.714   7.532  0.1509  0.5190 -0.8093
  369MOL0     C50818   9.019   8.659   7.568  1.3101 -0.3386  0.2407
  369MOL0     C50819   9.134   8.719   7.511  0.1742 -0.5753  0.1575
  369MOL0     O50820   9.269   8.689   7.528 -0.0474  0.3652  0.1544
  369MOL0     C50821   9.302   8.573   7.599 -0.1358  0.6139  1.1120
  369MOL0     C50822   9.440   8.525   7.565  0.7325 -0.0696  0.4846
  369MOL0     C50823   9.539   8.632   7.595  0.5189  0.0480 -1.1505
  369MOL0     C50824   9.682   8.577   7.586  0.0329 -0.5362  0.0791
  369MOL0     C50825   9.776   8.698   7.608  0.6483  0.6843  0.1201
  369MOL0     C50826   9.921   8.645   7.607  1.4120  0.5833  0.1536
  369MOL0     C50827  10.015   8.769   7.569 -0.0536 -0.0602  0.0730
  369MOL0     C50828  10.158   8.710   7.552 -0.2010 -0.1644 -0.1452
  369MOL0    Cl50829  10.210   8.651   7.708  0.0987  0.1590  0.0753
  369MOL0     C50830   9.118   8.827   7.427  0.4646 -0.0735 -0.0404
  369MOL0     C50831   8.991   8.879   7.399  0.8507 -1.3247 -0.2768
  369MOL0     O50832   8.775   8.973   7.233  0.7127 -0.6049 -0.0145
  369MOL0     C50833   8.528   8.902   7.142  0.6645  0.3787  0.2792
  369MOL0     C50834   8.400   8.891   7.085  0.3893  0.5864  0.8136
  369MOL0     N50835   7.586   8.795   7.225  0.7248  0.6039 -0.6735
  369MOL0     N50836   7.570   8.675   7.262  0.2665 -0.6080 -0.2615
  369MOL0     C50837   7.074   7.613   7.048  0.5920 -0.2854 -0.1183
  369MOL0     C50838   6.958   7.543   7.004  0.7672 -0.0493 -0.2516
  369MOL0     C50839   6.679   7.226   6.832 -0.2640 -0.3554 -1.2526
  369MOL0     C50840   6.586   7.240   6.936 -1.8401 -0.0482  0.2861
  369MOL0     C50841   6.461   7.189   6.923 -0.0914 -0.7331 -2.0302
  369MOL0     C50842   6.420   7.114   6.815  0.4273  0.3488 -0.1303
  369MOL0     O50843   6.295   7.060   6.796  0.2500  0.4419  0.4182
  369MOL0     C50844   6.213   7.050   6.914 -1.0507 -0.5977  0.2617
  369MOL0     C50845   6.074   7.018   6.860 -0.0693 -0.0769  0.1823
  369MOL0     C50846   5.956   6.978   6.959 -0.2411  0.1108 -1.0383
  369MOL0     C50847   5.818   6.972   6.881 -0.5430  0.8876 -0.3060
  369MOL0     C50848   5.764   7.100   6.849  0.2044 -0.3624 -0.2410
  369MOL0     C50849   5.725   7.212   6.813 -0.9026  1.0025 -0.5291
  369MOL0     C50850   6.511   7.103   6.714 -0.6169  0.5248  0.2223
  369MOL0     C50851   6.647   7.151   6.716  0.0326  0.5361 -0.1479
  369MOL0     C50852   6.751   7.132   6.605 -0.2426 -0.4110 -0.1887
  369MOL0     H50853   7.117   7.240   7.030  1.3870  0.5687  1.0866
  369MOL0     H50854   7.288   7.351   7.030 -1.1981 -2.8529 -2.5998
  369MOL0     H50855   7.265   7.799   7.141  0.9272  1.4626  1.3356
  369MOL0     H50856   7.313   7.786   6.973  1.2182 -1.2648 -0.3403
  369MOL0     H50857   7.512   7.754   7.213  1.4123  0.2465 -0.5451
  369MOL0     H50858   7.560   7.744   7.048  0.0940 -0.6146  0.3669
  369MOL0     H50859   7.491   7.969   7.010 -1.5056  0.1277  1.2615
  369MOL0     H50860   7.429   7.972   7.181  1.1219  0.0697  2.2673
  369MOL0     H50861   7.649   7.924   7.259 -0.4280  0.1205  0.1482
  369MOL0     H50862   7.708   7.935   7.087 -0.7435  0.5805 -0.2732
  369MOL0     H50863   7.716   8.158   7.259 -0.6858 -0.1470  1.0698
  369MOL0     H50864   7.543   8.144   7.256 -1.4092 -2.5055 -0.7894
  369MOL0     H50865   7.721   8.207   7.020  0.1471  0.7247 -1.3144
  369MOL0     H50866   7.550   8.169   7.004  0.4319 -1.1059 -0.1856
  369MOL0     H50867   7.472   8.374   7.120  0.5442  5.0625 -0.3961
  369MOL0     H50868   7.579   8.418   6.999 -0.1488  0.5633  0.1504
  369MOL0     H50869   7.626   8.413   7.294  0.6411  2.2132  1.0767
  369MOL0     H50870   7.761   8.424   7.181 -0.1884  0.4640  2.0229
  369MOL0     H50871   7.796   8.623   7.047 -1.1895 -1.8799  0.0874
  369MOL0     H50872   7.680   8.994   7.066  0.3687  0.8212 -1.4490
  369MOL0     H50873   7.707   8.896   6.927 -1.5870  0.3129  0.3914
  369MOL0     H50874   7.893   9.048   7.008 -2.8302  0.6272  0.6772
  369MOL0     H50875   7.910   8.967   7.161  1.3083 -1.0585 -0.2413
  369MOL0     H50876   7.972   8.752   7.009 -1.7346  0.7730  3.3088
  369MOL0     H50877   7.950   8.868   6.871 -1.2838  0.1775 -0.1488
  369MOL0     H50878   8.189   8.847   6.925 -0.1966 -1.2785  1.2910
  369MOL0     H50879   8.128   9.008   6.974  1.5547 -0.1839  0.8408
  369MOL0     H50880   8.235   8.865   7.381 -1.6936 -1.0503 -1.1507
  369MOL0     H50881   8.538   8.790   7.553 -1.5275 -1.3553 -0.6062
  369MOL0     H50882   8.376   8.854   7.575 -0.5680 -1.0429 -1.7677
  369MOL0     H50883   8.506   8.968   7.549 -0.0224  0.3650 -1.0999
  369MOL0     H50884   8.802   8.652   7.562 -0.2076  1.9704  1.3772
  369MOL0     H50885   9.028   8.583   7.645 -2.4942 -0.0479  1.2001
  369MOL0     H50886   9.297   8.582   7.708  1.9415 -1.1113  1.4293
  369MOL0     H50887   9.233   8.490   7.581  0.4673  0.6135 -1.5037
  369MOL0     H50888   9.465   8.433   7.618  1.0541 -1.7526 -2.4289
  369MOL0     H50889   9.437   8.497   7.459  0.7566  1.0130  0.1861
  369MOL0     H50890   9.519   8.648   7.701  0.3648  0.4069 -1.2324
  369MOL0     H50891   9.526   8.719   7.530  1.0386  1.5833  0.6887
  369MOL0     H50892   9.698   8.528   7.490  1.0123 -1.6287  0.7846
  369MOL0     H50893   9.685   8.494   7.657 -0.1462 -1.3660 -0.8618
  369MOL0     H50894   9.761   8.781   7.538 -3.2312 -0.2098 -0.3466
  369MOL0     H50895   9.751   8.726   7.711  3.2526 -2.4266  1.7866
  369MOL0     H50896   9.929   8.561   7.537  0.4294  1.1308 -0.6420
  369MOL0     H50897   9.947   8.612   7.708 -2.0957 -0.2454  0.9238
  369MOL0     H50898  10.019   8.846   7.646 -0.7466  1.3844 -1.2904
  369MOL0     H50899   9.990   8.823   7.477 -0.5989  0.9447  0.8053
  369MOL0     H50900  10.235   8.786   7.532 -0.0144 -0.0494  0.9666
  369MOL0     H50901  10.170   8.624   7.485 -1.4925  0.3715 -1.1004
  369MOL0     H50902   9.213   8.872   7.401  1.5927 -2.8459 -1.1131
  369MOL0     H50903   8.985   8.967   7.336  0.8996 -1.8163 -0.9749
  369MOL0     H50904   8.601   8.920   7.064  3.3900  0.5011  2.6779
  369MOL0     H50905   8.386   8.899   6.978  1.3287 -4.3857  0.0921
  369MOL0     H50906   7.075   7.721   7.058 -1.6566 -0.3107  1.0210
  369MOL0     H50907   6.870   7.594   6.965  0.2187 -0.0012  1.0052
  369MOL0     H50908   6.603   7.293   7.029 -0.3677  0.0345 -0.0037
  369MOL0     H50909   6.399   7.210   7.010  2.7212 -2.3722  0.5705
  369MOL0     H50910   6.239   6.965   6.978  1.3370 -0.4792 -0.4375
  369MOL0     H50911   6.216   7.141   6.974 -1.7468  0.4194 -1.1718
  369MOL0     H50912   6.069   6.937   6.788 -2.4491  1.2967 -1.3202
  369MOL0     H50913   6.047   7.109   6.806  0.8490  0.4885  0.6390
  369MOL0     H50914   5.976   6.879   7.002 -1.0550  0.5062  0.2878
  369MOL0     H50915   5.947   7.044   7.045 -2.0365 -2.2248  0.6880
  369MOL0     H50916   5.751   6.926   6.954  1.6832 -0.2848  1.1148
  369MOL0     H50917   5.833   6.909   6.792  0.6101  1.8520 -0.8139
  369MOL0     H50918   5.672   7.300   6.781 -0.3784  1.6281  0.2770
  369MOL0     H50919   6.472   7.062   6.621 -1.7409  3.8841 -0.9380
  369MOL0     H50920   6.844   7.105   6.656 -1.5279  0.9767  3.2011
  369MOL0     H50921   6.720   7.049   6.541 -3.5451  1.4758 -1.2945
  369MOL0     H50922   6.780   7.217   6.544 -0.1695  0.2666  0.7671
  370MOL0     O50923   4.856   7.335   1.466  0.5176 -0.0203 -0.0248
  370MOL0     C50924   4.867   7.434   1.535  0.2911  0.5653 -0.5304
  370MOL0     O50925   4.970   7.514   1.541 -0.5950  0.3809  0.7958
  370MOL0     C50926   5.072   7.511   1.441 -0.7500 -0.0454 -0.3683
  370MOL0     C50927   5.059   7.500   1.303  0.2422 -0.6385 -0.3641
  370MOL0     C50928   5.173   7.491   1.225 -0.0279 -0.0672 -0.1584
  370MOL0     C50929   5.303   7.523   1.276  0.9296  0.0006  0.6710
  370MOL0     O50930   5.416   7.509   1.197  0.6709  0.2964  1.0089
  370MOL0     C50931   5.422   7.427   1.074  0.0639  0.4741 -0.5157
  370MOL0     C50932   5.542   7.341   1.097 -0.3765  0.4404 -0.1996
  370MOL0     C50933   5.673   7.435   1.110 -0.4238  0.0274  0.1784
  370MOL0     C50934   5.791   7.354   1.149 -0.3972  0.3848 -0.3002
  370MOL0     C50935   5.915   7.434   1.174  0.4849 -0.1327  0.1273
  370MOL0     C50936   6.029   7.335   1.172 -1.0137 -0.5799  0.0704
  370MOL0     C50937   6.162   7.406   1.148  0.1886 -0.2448  0.3706
  370MOL0     C50938   6.277   7.313   1.125 -1.0714 -0.1008  0.3234
  370MOL0     N50939   6.311   7.310   0.987 -0.8766 -0.7315 -0.2414
  370MOL0     C50940   6.351   7.415   0.902 -0.1820 -0.1171 -1.4690
  370MOL0     C50941   6.355   7.362   0.782 -0.1405 -0.6319  0.3769
  370MOL0     C50942   6.364   7.442   0.649 -0.6145 -0.2251  0.7414
  370MOL0     C50943   6.498   7.420   0.578 -0.3459  0.1388  0.3467
  370MOL0     C50944   6.610   7.500   0.643 -0.1255  0.3653 -0.2342
  370MOL0     C50945   6.727   7.509   0.545 -0.0605 -0.4375 -1.1078
  370MOL0     O50946   6.729   7.401   0.455 -1.2854  0.8273 -0.1074
  370MOL0     C50947   6.813   7.426   0.353 -0.0560 -0.9275  0.6447
  370MOL0     C50948   6.774   7.504   0.245 -0.3360 -0.0352  0.3994
  370MOL0     C50949   6.864   7.562   0.149 -0.9822 -0.3366 -0.2220
  370MOL0     C50950   6.803   7.654   0.044  0.7222 -0.4281 -0.5136
  370MOL0     C50951   7.007   7.540   0.169  0.5967  0.0897 -0.3280
  370MOL0     C50952   7.115   7.596   0.080  0.1363  0.6998  0.1803
  370MOL0     O50953   7.237   7.547   0.115 -0.4180  0.1339 -1.0519
  370MOL0     C50954   7.355   7.551   0.037  0.0798 -0.2645 -0.1709
  370MOL0     C50955   7.466   7.494   0.097  0.0870  1.0075  0.0719
  370MOL0     C50956   7.584   7.464   0.019  0.3059  0.4290  0.1859
  370MOL0     C50957   7.595   7.494  -0.118 -0.3034  0.1812 -0.4986
  370MOL0     O50958   7.713   7.480  -0.188 -0.2209  0.0560  0.1870
  370MOL0     C50959   7.815   7.397  -0.130 -0.0172  0.1239  0.0400
  370MOL0     C50960   7.915   7.360  -0.243  0.1134  0.4435 -0.1176
  370MOL0     C50961   8.040   7.273  -0.204  0.2407 -0.2056  0.5158
  370MOL0     C50962   8.100   7.193  -0.320 -0.6961 -0.3999  0.1748
  370MOL0     C50963   8.177   7.282  -0.416 -0.1102  0.5050  0.6864
  370MOL0     C50964   8.252   7.206  -0.521 -0.2584  0.3219  0.5856
  370MOL0     C50965   8.355   7.302  -0.587 -0.0607  0.0177 -0.2198
  370MOL0     C50966   8.447   7.210  -0.677 -0.2624 -0.1318 -0.0769
  370MOL0    Cl50967   8.359   7.138  -0.815 -0.1701  0.1631 -0.2816
  370MOL0     C50968   7.482   7.556  -0.167  0.8115 -0.8646 -0.4867
  370MOL0     C50969   7.365   7.579  -0.099  0.2683 -0.2479  1.3536
  370MOL0     O50970   7.094   7.675  -0.010 -0.7654 -0.2183  0.1552
  370MOL0     C50971   7.047   7.466   0.291 -0.4362 -1.0130  0.2604
  370MOL0     C50972   6.951   7.412   0.369 -0.2540 -1.0687 -0.4099
  370MOL0     N50973   6.324   7.232   0.801  0.3509 -0.2414  0.8155
  370MOL0     N50974   6.295   7.202   0.915 -0.1456 -0.2785 -0.3924
  370MOL0     C50975   5.320   7.549   1.410  0.1360  0.3991 -0.0380
  370MOL0     C50976   5.203   7.520   1.494  0.9147 -0.1974  1.2264
  370MOL0     C50977   4.756   7.465   1.619  1.5103  0.2356 -0.9638
  370MOL0     C50978   4.770   7.500   1.755 -0.8327 -0.3697  0.2564
  370MOL0     C50979   4.660   7.506   1.834  0.4453  0.7104 -0.7978
  370MOL0     C50980   4.530   7.507   1.789 -0.6427  0.0314  0.5187
  370MOL0     O50981   4.441   7.521   1.887 -0.4393  0.5465  0.7734
  370MOL0     C50982   4.305   7.531   1.856 -0.3404 -1.0144 -0.0144
  370MOL0     C50983   4.227   7.397   1.827 -0.1222 -0.3405  0.0416
  370MOL0     C50984   4.069   7.415   1.824 -0.5612 -0.5894  0.2952
  370MOL0     C50985   4.004   7.283   1.780 -0.3771 -1.2509 -0.2081
  370MOL0     C50986   3.874   7.299   1.713 -1.0985  0.7317  0.8969
  370MOL0     C50987   3.766   7.327   1.667 -0.2726 -0.1859 -0.7690
  370MOL0     C50988   4.508   7.500   1.649  0.5357 -0.3196  1.4124
  370MOL0     C50989   4.618   7.461   1.568  0.8893  0.2290  0.0177
  370MOL0     C50990   4.589   7.446   1.418  1.1848  0.1601 -0.5871
  370MOL0     H50991   4.960   7.487   1.260  0.8145 -1.2076 -1.5577
  370MOL0     H50992   5.154   7.487   1.118  0.5195  2.8604 -0.4490
  370MOL0     H50993   5.436   7.494   0.989 -2.5850 -0.7088 -1.9975
  370MOL0     H50994   5.335   7.366   1.047 -0.3774  1.0136 -0.3306
  370MOL0     H50995   5.510   7.284   1.185 -3.1506  2.0475 -0.0582
  370MOL0     H50996   5.567   7.268   1.020  2.6274 -1.9926  2.7456
  370MOL0     H50997   5.693   7.478   1.011  0.6131  1.0738  0.8268
  370MOL0     H50998   5.665   7.510   1.189  2.5639  2.1080 -1.2984
  370MOL0     H50999   5.768   7.299   1.241 -0.4132  0.0958 -0.4745
  370MOL0     H51000   5.805   7.277   1.072 -2.0797  0.7597 -1.0315
  370MOL0     H51001   5.903   7.486   1.270  2.6174 -0.3336  0.5412
  370MOL0     H51002   5.920   7.508   1.093 -1.9525  1.6050  1.4082
  370MOL0     H51003   6.053   7.280   1.264  3.9037  0.0662 -0.5713
  370MOL0     H51004   6.009   7.257   1.098 -0.3818  0.3884 -1.1620
  370MOL0     H51005   6.180   7.479   1.227 -3.2931  0.4663  0.6597
  370MOL0     H51006   6.149   7.467   1.058  2.0389 -0.4510 -0.0720
  370MOL0     H51007   6.369   7.322   1.183  0.3466 -0.3022 -1.7998
  370MOL0     H51008   6.250   7.212   1.157  0.8329  0.3900  3.9914
  370MOL0     H51009   6.354   7.523   0.913  3.1274 -0.3693  3.0234
  370MOL0     H51010   6.345   7.544   0.683 -0.1229 -0.4311  1.6797
  370MOL0     H51011   6.283   7.423   0.578 -1.3295  5.5830 -0.4820
  370MOL0     H51012   6.521   7.313   0.568 -1.1654 -0.4541  3.5106
  370MOL0     H51013   6.485   7.470   0.482 -0.4388  1.8814  1.2266
  370MOL0     H51014   6.584   7.593   0.693 -2.2832 -1.1791  1.7565
  370MOL0     H51015   6.650   7.449   0.732 -0.0653  0.9158  0.0589
  370MOL0     H51016   6.711   7.600   0.487 -2.3464 -0.6155 -0.8406
  370MOL0     H51017   6.818   7.526   0.603 -0.4688 -0.2066 -0.5240
  370MOL0     H51018   6.670   7.526   0.223  0.4157  1.8681 -1.7221
  370MOL0     H51019   6.872   7.735   0.016  1.3801 -1.1009 -0.8901
  370MOL0     H51020   6.706   7.696   0.071 -1.1384 -1.5078 -4.7305
  370MOL0     H51021   6.788   7.596  -0.047  1.9579  0.5655 -1.3994
  370MOL0     H51022   7.453   7.456   0.198  0.7658 -4.9283 -1.6935
  370MOL0     H51023   7.659   7.421   0.084 -1.2553 -0.8035  1.2727
  370MOL0     H51024   7.873   7.451  -0.054  0.8576 -1.5732  0.6401
  370MOL0     H51025   7.767   7.313  -0.079 -2.9674 -0.5519 -3.4276
  370MOL0     H51026   7.867   7.306  -0.325  0.5824  2.7491 -2.0362
  370MOL0     H51027   7.954   7.454  -0.283  0.8012 -0.6679 -2.2329
  370MOL0     H51028   8.007   7.197  -0.132  1.3765 -1.8679 -0.6545
  370MOL0     H51029   8.121   7.333  -0.162 -0.5457  0.1713  1.5491
  370MOL0     H51030   8.021   7.138  -0.371 -0.4187 -1.2643  0.6499
  370MOL0     H51031   8.166   7.117  -0.278  0.1272 -1.5980 -2.9525
  370MOL0     H51032   8.112   7.349  -0.474  0.1789  0.7015  0.5882
  370MOL0     H51033   8.240   7.351  -0.359  0.3348  0.3760  0.3588
  370MOL0     H51034   8.183   7.161  -0.594 -0.9451  0.5063  1.1045
  370MOL0     H51035   8.314   7.125  -0.482 -1.0499 -0.3071  0.5678
  370MOL0     H51036   8.409   7.344  -0.502 -1.9436  0.6195  0.7510
  370MOL0     H51037   8.312   7.385  -0.644  1.5391  1.6437  0.8395
  370MOL0     H51038   8.508   7.141  -0.618  0.0914  1.7892  1.9855
  370MOL0     H51039   8.531   7.265  -0.722  0.5032 -0.5506  0.7897
  370MOL0     H51040   7.486   7.582  -0.273 -4.2312  0.5220 -0.5806
  370MOL0     H51041   7.284   7.614  -0.161  1.4018  0.6140  0.2911
  370MOL0     H51042   7.147   7.454   0.329  0.9545  0.1216 -2.7125
  370MOL0     H51043   6.980   7.382   0.469 -3.3733 -0.5229  0.7748
  370MOL0     H51044   5.420   7.571   1.445 -0.5155  0.8037  1.6362
  370MOL0     H51045   5.214   7.502   1.600  0.1949 -1.5381  1.0970
  370MOL0     H51046   4.864   7.517   1.807 -0.2252  1.9916 -1.4346
  370MOL0     H51047   4.663   7.523   1.941 -2.4362 -0.4802 -0.4359
  370MOL0     H51048   4.255   7.569   1.946 -0.7478 -0.8204 -0.3167
  370MOL0     H51049   4.293   7.609   1.780 -0.0429 -0.8858  0.0676
  370MOL0     H51050   4.246   7.323   1.906  0.1591 -1.4022 -0.9908
  370MOL0     H51051   4.259   7.367   1.727 -1.9667 -2.2579 -0.0528
  370MOL0     H51052   4.028   7.437   1.923  0.1025 -0.3207  0.5134
  370MOL0     H51053   4.054   7.501   1.758 -0.7003 -1.1687 -0.4531
  370MOL0     H51054   3.979   7.233   1.874  0.0816  0.9758  1.1577
  370MOL0     H51055   4.074   7.224   1.719 -0.8097 -2.5027  0.4777
  370MOL0     H51056   3.680   7.345   1.607 -0.6605  3.5105  0.6826
  370MOL0     H51057   4.408   7.507   1.606 -0.0034 -2.2602  2.2339
  370MOL0     H51058   4.508   7.511   1.382  1.3920 -0.4601 -2.2711
  370MOL0     H51059   4.671   7.487   1.358  0.2597 -0.6598 -2.4930
  370MOL0     H51060   4.567   7.340   1.398 -2.0847  0.7193 -0.4934
  371MOL0     O51061   4.052   3.947   3.287  0.3962  0.1804 -0.1432
  371MOL0     C51062   4.023   3.897   3.177  0.4730 -0.4251  0.2347
  371MOL0     O51063   4.115   3.852   3.086 -0.3544  0.0028 -0.9031
  371MOL0     C51064   4.242   3.873   3.121  0.6034 -0.5342 -0.7616
  371MOL0     C51065   4.314   3.774   3.186 -0.2283  0.9558  0.2208
  371MOL0     C51066   4.452   3.802   3.227 -0.4192  0.0149  0.5890
  371MOL0     C51067   4.510   3.922   3.191  0.6212 -0.4964  0.0694
  371MOL0     O51068   4.639   3.951   3.210  0.2714  0.1662  0.0947
  371MOL0     C51069   4.733   3.846   3.246 -0.0922 -1.1194 -0.3936
  371MOL0     C51070   4.863   3.912   3.211  0.4554 -0.7421 -0.0397
  371MOL0     C51071   4.989   3.832   3.244  0.1411  0.4133  0.5368
  371MOL0     C51072   5.115   3.868   3.163  0.4638 -0.4789 -0.0161
  371MOL0     C51073   5.239   3.790   3.204 -0.9307 -0.3285 -1.1533
  371MOL0     C51074   5.363   3.800   3.115 -0.0475  0.8398 -0.2929
  371MOL0     C51075   5.469   3.686   3.150  0.4930  0.6103 -0.7241
  371MOL0     C51076   5.537   3.711   3.290 -0.1210 -0.2569 -0.2316
  371MOL0     N51077   5.644   3.815   3.289 -0.2597  0.6944  0.6466
  371MOL0     C51078   5.781   3.796   3.280  0.4178 -0.5447 -0.0414
  371MOL0     C51079   5.839   3.918   3.296  0.4564  1.0187  0.2837
  371MOL0     C51080   5.984   3.937   3.302  0.0322 -0.3836 -0.0813
  371MOL0     C51081   6.045   3.978   3.173  0.1055 -0.3833  0.1885
  371MOL0     C51082   6.192   3.987   3.191  0.7061  0.2215  0.1205
  371MOL0     C51083   6.272   4.024   3.072 -0.7494  0.0932  0.4083
  371MOL0     O51084   6.406   4.016   3.101 -0.6881  0.6562 -0.0218
  371MOL0     C51085   6.493   3.917   3.076 -0.1572 -0.0498 -0.5530
  371MOL0     C51086   6.624   3.960   3.063  0.6440 -0.6789 -0.2402
  371MOL0     C51087   6.720   3.863   3.031  0.3842  0.0646  0.6868
  371MOL0     C51088   6.863   3.922   3.038 -0.3884  0.1653 -0.9827
  371MOL0     C51089   6.689   3.728   3.001  0.4933  0.3090  0.5542
  371MOL0     C51090   6.782   3.629   2.950  0.3681 -0.6624  0.2195
  371MOL0     O51091   6.783   3.505   3.009 -0.5963  0.2694 -0.5927
  371MOL0     C51092   6.887   3.422   2.981 -0.3063 -0.5845  0.4097
  371MOL0     C51093   6.973   3.390   3.082 -0.5912  0.4392 -0.1833
  371MOL0     C51094   7.073   3.294   3.072 -0.3997  0.4500 -0.3990
  371MOL0     C51095   7.092   3.225   2.954 -0.2404 -0.2728 -0.3178
  371MOL0     O51096   7.206   3.150   2.945  0.1319 -0.0434 -0.6363
  371MOL0     C51097   7.264   3.140   2.816 -0.1990  0.5524  0.5941
  371MOL0     C51098   7.404   3.072   2.817  0.6705 -0.0353  0.0409
  371MOL0     C51099   7.503   3.134   2.920 -0.2453  0.4729  0.2440
  371MOL0     C51100   7.571   3.261   2.862  0.5692 -0.0915  0.7045
  371MOL0     C51101   7.636   3.351   2.962  0.1941 -0.9183 -0.3639
  371MOL0     C51102   7.539   3.437   3.047 -0.9148  0.0716  1.0078
  371MOL0     C51103   7.608   3.535   3.135  0.3326  0.6822 -0.3612
  371MOL0     C51104   7.644   3.482   3.274 -0.5781 -0.7047  0.4529
  371MOL0    Cl51105   7.806   3.509   3.320 -0.1830  0.2713 -0.1790
  371MOL0     C51106   7.014   3.269   2.836  0.1071 -0.8098 -0.0416
  371MOL0     C51107   6.913   3.363   2.851  0.1905  0.2460 -0.6453
  371MOL0     O51108   6.870   3.664   2.865  0.4297 -0.3507  0.3538
  371MOL0     C51109   6.553   3.688   3.013  0.4624  0.0817  0.5561
  371MOL0     C51110   6.456   3.777   3.057  0.1135 -0.2678 -0.1831
  371MOL0     N51111   5.747   4.015   3.290 -0.1819 -0.3832  0.0648
  371MOL0     N51112   5.626   3.953   3.287  0.6215  0.0347 -0.1621
  371MOL0     C51113   4.436   4.025   3.120  0.2407 -0.3537 -0.2125
  371MOL0     C51114   4.302   4.003   3.086  0.5322 -0.0344 -0.2233
  371MOL0     C51115   3.876   3.883   3.138 -0.1420  0.8650 -1.8471
  371MOL0     C51116   3.845   3.918   3.013 -0.1209  0.3377  0.0210
  371MOL0     C51117   3.718   3.909   2.957  0.2129  0.0251  0.6046
  371MOL0     C51118   3.611   3.870   3.038  0.2918 -0.1696  0.4066
  371MOL0     O51119   3.491   3.844   2.982  0.5237  0.4606 -0.4659
  371MOL0     C51120   3.392   3.941   3.022  0.0881 -0.5525  0.0984
  371MOL0     C51121   3.275   3.937   2.925 -0.3364 -0.3086  0.3538
  371MOL0     C51122   3.150   3.989   2.998  0.0235 -0.9245 -0.3914
  371MOL0     C51123   3.028   3.989   2.905  0.0359  0.1158  0.7874
  371MOL0     C51124   3.026   4.104   2.822 -0.5531 -0.5123 -0.5401
  371MOL0     C51125   3.019   4.181   2.730  0.6663 -0.2147  0.4389
  371MOL0     C51126   3.640   3.829   3.171 -0.5863  0.2769 -0.0204
  371MOL0     C51127   3.774   3.836   3.220  0.3463 -0.6402 -1.3556
  371MOL0     C51128   3.796   3.786   3.358 -0.2649 -0.1641  0.3171
  371MOL0     H51129   4.261   3.683   3.210  0.1517  0.8387  0.6297
  371MOL0     H51130   4.509   3.724   3.277  4.1103  1.7132 -1.3295
  371MOL0     H51131   4.734   3.753   3.188  0.8446 -0.1693 -1.9960
  371MOL0     H51132   4.738   3.807   3.348  0.6630 -0.5264 -0.1957
  371MOL0     H51133   4.849   3.925   3.103 -3.0193  1.7369  0.5333
  371MOL0     H51134   4.873   4.010   3.257  0.3597 -0.4327 -0.6729
  371MOL0     H51135   5.003   3.834   3.353  0.6601 -0.4382  0.4951
  371MOL0     H51136   4.966   3.727   3.223 -1.5812  0.7287  0.7020
  371MOL0     H51137   5.096   3.850   3.057 -1.5660  1.5825 -0.0994
  371MOL0     H51138   5.129   3.976   3.172 -1.5774 -0.1628 -0.0426
  371MOL0     H51139   5.208   3.686   3.220  0.4541 -0.9431 -2.2809
  371MOL0     H51140   5.261   3.831   3.303  1.7030  0.0571 -1.8340
  371MOL0     H51141   5.330   3.796   3.011 -1.0613  2.0187 -0.0442
  371MOL0     H51142   5.407   3.900   3.125 -2.9027  2.1136  0.6556
  371MOL0     H51143   5.546   3.671   3.073  0.8653 -1.9681  0.0440
  371MOL0     H51144   5.418   3.589   3.155  0.0997  0.7926 -1.1153
  371MOL0     H51145   5.461   3.745   3.362 -0.1177  2.3151 -1.3324
  371MOL0     H51146   5.579   3.618   3.328 -0.6913 -0.3244  0.2685
  371MOL0     H51147   5.834   3.701   3.276 -0.1759 -0.9166  0.6709
  371MOL0     H51148   6.035   3.843   3.325 -0.1571 -0.7446 -1.0779
  371MOL0     H51149   6.014   3.998   3.388  2.0102 -1.9336  0.4122
  371MOL0     H51150   6.030   3.908   3.091  1.1389  1.1760 -1.3942
  371MOL0     H51151   6.000   4.075   3.149 -2.3644 -0.5245  3.4791
  371MOL0     H51152   6.214   4.061   3.268 -0.1360  1.2401 -0.5982
  371MOL0     H51153   6.223   3.884   3.212  0.1829 -0.2329 -1.1802
  371MOL0     H51154   6.257   3.959   2.985  1.9547  2.5636 -2.1186
  371MOL0     H51155   6.259   4.129   3.044 -2.3153  0.0982  1.0272
  371MOL0     H51156   6.648   4.064   3.082 -1.7688  0.0101 -0.5796
  371MOL0     H51157   6.921   3.867   3.112 -0.1244  0.8674 -0.6550
  371MOL0     H51158   6.868   4.025   3.076 -0.6765  0.2288 -1.1122
  371MOL0     H51159   6.909   3.929   2.939 -1.5491  0.2459 -1.5310
  371MOL0     H51160   6.957   3.427   3.182  0.1153 -1.9370  0.8850
  371MOL0     H51161   7.139   3.276   3.156 -0.7675 -3.0733 -0.7153
  371MOL0     H51162   7.208   3.077   2.747  1.9820  0.3346 -1.0730
  371MOL0     H51163   7.265   3.240   2.773  0.6435  0.2570 -0.0979
  371MOL0     H51164   7.381   2.969   2.847 -0.1679  0.3571  0.7766
  371MOL0     H51165   7.455   3.079   2.720  0.1737  0.6726 -0.1757
  371MOL0     H51166   7.568   3.052   2.954 -2.8603 -2.0471 -0.4634
  371MOL0     H51167   7.444   3.158   3.008 -0.0315  1.0250  0.2420
  371MOL0     H51168   7.492   3.307   2.801 -0.4493 -4.0914 -1.3319
  371MOL0     H51169   7.649   3.228   2.793 -0.5464 -2.0188  0.3043
  371MOL0     H51170   7.697   3.295   3.033  0.0254 -0.7722 -0.0996
  371MOL0     H51171   7.705   3.421   2.913 -1.5195 -0.5984 -2.4951
  371MOL0     H51172   7.465   3.381   3.105 -1.1124 -1.5114 -0.6973
  371MOL0     H51173   7.472   3.488   2.977  0.7011 -1.3065 -1.7035
  371MOL0     H51174   7.558   3.632   3.142  2.6093  1.9004  0.3301
  371MOL0     H51175   7.706   3.555   3.091  0.6787 -0.3746 -0.0958
  371MOL0     H51176   7.642   3.373   3.271 -1.0719 -0.7168  1.0134
  371MOL0     H51177   7.580   3.523   3.353  1.1178  2.4049  0.4025
  371MOL0     H51178   7.029   3.231   2.736  0.4242 -1.4879  0.2541
  371MOL0     H51179   6.853   3.396   2.766 -1.8500 -1.5232  0.0288
  371MOL0     H51180   6.525   3.585   2.995  0.9099 -0.0674  0.7024
  371MOL0     H51181   6.354   3.743   3.076  0.3190  0.6473  3.1993
  371MOL0     H51182   4.488   4.115   3.092 -0.2729 -0.5637 -1.9746
  371MOL0     H51183   4.241   4.074   3.031  0.7123 -0.2326 -0.6836
  371MOL0     H51184   3.919   3.966   2.950 -0.0257 -0.6836 -0.6690
  371MOL0     H51185   3.714   3.930   2.850 -0.3389 -0.8312  0.4514
  371MOL0     H51186   3.356   3.915   3.122 -0.2617 -1.1433 -0.1734
  371MOL0     H51187   3.433   4.042   3.026  0.9420 -0.7582 -1.9899
  371MOL0     H51188   3.259   3.835   2.888 -0.4050  0.0438 -0.6164
  371MOL0     H51189   3.291   4.005   2.841  0.0298 -0.1140  0.5767
  371MOL0     H51190   3.120   3.925   3.082  0.1338 -1.9671 -1.1232
  371MOL0     H51191   3.161   4.090   3.038 -2.1092 -1.1575  0.9596
  371MOL0     H51192   2.939   3.997   2.967  1.3795  3.6154  2.5195
  371MOL0     H51193   3.032   3.903   2.837  0.0367  0.5048  0.2865
  371MOL0     H51194   3.013   4.258   2.657  0.4207 -1.0048 -0.4007
  371MOL0     H51195   3.568   3.800   3.248 -0.1528  0.9030  0.6412
  371MOL0     H51196   3.855   3.694   3.348  0.6505  0.5048 -0.6774
  371MOL0     H51197   3.853   3.863   3.411  2.4024 -1.6028 -0.3064
  371MOL0     H51198   3.702   3.763   3.409 -1.8288  0.2160 -2.1780
  372MOL0     O51199   9.005  10.694   2.571 -0.0419 -0.3856  0.1282
  372MOL0     C51200   8.899  10.673   2.506 -0.7479 -0.3717 -0.5546
  372MOL0     O51201   8.890  10.678   2.371 -0.8009 -0.1241 -0.4477
  372MOL0     C51202   9.011  10.685   2.303  0.3980  0.1911  0.5491
  372MOL0     C51203   9.022  10.771   2.195  0.0604 -0.5195  0.3838
  372MOL0     C51204   9.133  10.773   2.117 -0.0814  0.0314  0.1743
  372MOL0     C51205   9.242  10.688   2.140 -0.5399 -0.4372  0.2117
  372MOL0     O51206   9.352  10.704   2.065 -0.3122 -0.1688  0.1396
  372MOL0     C51207   9.423  10.585   2.029  0.3430 -1.0328 -0.3305
  372MOL0     C51208   9.333  10.502   1.932  0.8349  0.3409  0.3256
  372MOL0     C51209   9.332  10.574   1.796  0.2130  0.1172 -0.0330
  372MOL0     C51210   9.416  10.519   1.681  0.1123 -0.5749 -0.1831
  372MOL0     C51211   9.564  10.521   1.712 -0.3105  0.0911  0.2693
  372MOL0     C51212   9.643  10.481   1.583 -0.1853 -0.0907 -0.2949
  372MOL0     C51213   9.794  10.462   1.609 -0.3388 -0.1842  0.4759
  372MOL0     C51214   9.828  10.324   1.682 -0.9560 -0.7544 -0.0424
  372MOL0     N51215   9.810  10.208   1.599  0.6594  0.6315 -0.2531
  372MOL0     C51216   9.907  10.131   1.549  0.1988 -0.1769  0.2879
  372MOL0     C51217   9.840  10.028   1.490  0.4426 -0.3207  0.2444
  372MOL0     C51218   9.915   9.911   1.417 -0.9489  0.1963 -0.6517
  372MOL0     C51219   9.924   9.929   1.262  0.1068 -0.9266 -0.6710
  372MOL0     C51220  10.028  10.029   1.201  0.1185 -0.1466  0.4419
  372MOL0     C51221  10.172  10.018   1.248  0.2511 -0.2741  0.5273
  372MOL0     O51222  10.215   9.878   1.276 -0.3465 -0.1029  0.1185
  372MOL0     C51223  10.342   9.884   1.321 -0.2911  0.3254  0.3700
  372MOL0     C51224  10.370   9.877   1.457 -0.2993 -0.1671  0.2294
  372MOL0     C51225  10.499   9.854   1.503 -0.1819 -0.6661  0.4681
  372MOL0     C51226  10.519   9.858   1.647  0.3666 -0.4170 -0.2163
  372MOL0     C51227  10.612   9.829   1.411  0.3890  0.1483  0.2097
  372MOL0     C51228  10.752   9.796   1.455  0.1215  1.1151 -0.0220
  372MOL0     O51229  10.850   9.809   1.360 -0.7885 -0.5529  0.6474
  372MOL0     C51230  10.983   9.806   1.385 -0.9996  0.1032 -0.0040
  372MOL0     C51231  11.062   9.767   1.271  0.2238  0.4475  0.1328
  372MOL0     C51232  11.198   9.765   1.285 -1.1859  0.0461 -0.6447
  372MOL0     C51233  11.255   9.797   1.405 -0.7736  0.2552 -0.0023
  372MOL0     O51234  11.383   9.782   1.442 -0.7367 -0.7042 -0.1054
  372MOL0     C51235  11.485   9.724   1.355  0.1205 -0.5729 -0.1244
  372MOL0     C51236  11.607   9.674   1.446 -0.1433 -0.4604  0.1755
  372MOL0     C51237  11.698   9.789   1.502  0.6787  0.1728 -0.7137
  372MOL0     C51238  11.768   9.873   1.385  0.4000 -0.0450 -0.2400
  372MOL0     C51239  11.872   9.968   1.437 -0.7958  0.0140  0.0749
  372MOL0     C51240  11.922  10.064   1.330  0.1532 -0.9335 -0.5772
  372MOL0     C51241  11.994  10.184   1.401  0.2874  0.9670 -0.2471
  372MOL0     C51242  12.132  10.142   1.449  0.6399  0.2970 -1.2028
  372MOL0    Cl51243  12.250  10.154   1.312 -0.3314  0.8923 -0.2348
  372MOL0     C51244  11.179   9.837   1.514 -0.7702 -0.3541  0.6481
  372MOL0     C51245  11.042   9.842   1.508  0.2322  0.3482 -0.1783
  372MOL0     O51246  10.771   9.754   1.569  0.3952 -0.6644  0.0277
  372MOL0     C51247  10.585   9.863   1.274  0.2074  0.5430 -0.6824
  372MOL0     C51248  10.447   9.872   1.236  0.2549  0.4337  1.1079
  372MOL0     N51249   9.709  10.046   1.515  0.7700 -0.4966 -0.0505
  372MOL0     N51250   9.688  10.146   1.591 -0.8283 -0.0714  0.7073
  372MOL0     C51251   9.234  10.595   2.249 -0.1839  0.2104  0.4179
  372MOL0     C51252   9.121  10.599   2.327 -0.0437  0.3226  0.0601
  372MOL0     C51253   8.774  10.666   2.582  0.0732 -0.4415 -0.0907
  372MOL0     C51254   8.657  10.621   2.515  0.3141  0.5923 -0.2581
  372MOL0     C51255   8.532  10.641   2.564 -0.1027 -0.5776  1.2939
  372MOL0     C51256   8.508  10.711   2.672  0.0931 -0.6673 -0.3794
  372MOL0     O51257   8.382  10.754   2.708 -0.2963 -0.1734  0.3429
  372MOL0     C51258   8.319  10.855   2.631 -0.6893  0.0820 -0.4989
  372MOL0     C51259   8.176  10.855   2.675  0.0014  1.2716  0.4556
  372MOL0     C51260   8.166  10.897   2.820 -0.0915 -0.2485  1.2337
  372MOL0     C51261   8.019  10.913   2.859  0.7333 -0.1277 -0.3258
  372MOL0     C51262   7.994  10.919   3.003  0.7451  0.3073 -0.3292
  372MOL0     C51263   7.988  10.918   3.125 -0.0003  0.2010  0.3888
  372MOL0     C51264   8.614  10.750   2.755  0.2197  0.4823 -0.3086
  372MOL0     C51265   8.752  10.725   2.718 -1.0728 -0.3130  0.3593
  372MOL0     C51266   8.863  10.775   2.808 -0.3380 -0.4133 -0.4389
  372MOL0     H51267   8.933  10.829   2.175  1.6592  2.4046  1.1742
  372MOL0     H51268   9.138  10.835   2.028 -0.2434 -0.8486 -0.4615
  372MOL0     H51269   9.471  10.533   2.113  2.7163  4.3968  2.1981
  372MOL0     H51270   9.515  10.605   1.974  0.0259  0.0717 -0.4876
  372MOL0     H51271   9.375  10.402   1.915  0.0088  0.1934 -1.0066
  372MOL0     H51272   9.234  10.503   1.977  0.6330  2.2162 -0.0562
  372MOL0     H51273   9.225  10.576   1.776 -0.1649  2.7897  1.7139
  372MOL0     H51274   9.374  10.674   1.811  2.3710 -0.9816  1.9227
  372MOL0     H51275   9.379  10.419   1.655 -3.2275  0.2460  0.9951
  372MOL0     H51276   9.388  10.579   1.595  1.4200 -1.9856 -1.6743
  372MOL0     H51277   9.596  10.451   1.789 -3.1085 -0.9948  0.5439
  372MOL0     H51278   9.588  10.621   1.751  1.0927 -0.1393  0.0540
  372MOL0     H51279   9.604  10.388   1.540  1.1586  0.0044 -1.8242
  372MOL0     H51280   9.637  10.561   1.509  1.9577  0.5308  0.1312
  372MOL0     H51281   9.831  10.555   1.654 -0.5417  0.3124 -0.3613
  372MOL0     H51282   9.851  10.456   1.515 -2.3414  2.7209 -1.0934
  372MOL0     H51283   9.931  10.321   1.719 -1.0104  1.4264  0.4257
  372MOL0     H51284   9.768  10.312   1.772 -0.4301  0.6944  0.5265
  372MOL0     H51285  10.015  10.141   1.548  0.0137  3.6075 -1.1656
  372MOL0     H51286   9.851   9.823   1.428 -0.5247 -0.2807 -1.8766
  372MOL0     H51287  10.014   9.900   1.462 -0.9652 -0.5717 -0.7910
  372MOL0     H51288   9.949   9.831   1.220  1.3873 -1.9317  2.1736
  372MOL0     H51289   9.825   9.966   1.231  0.1018  1.5645  1.9186
  372MOL0     H51290  10.016  10.018   1.092  1.0293 -1.5558  0.4661
  372MOL0     H51291   9.999  10.131   1.227  0.0501  0.3857 -1.5457
  372MOL0     H51292  10.229  10.066   1.168 -0.9660  1.1664  0.4933
  372MOL0     H51293  10.188  10.076   1.339  0.6406 -1.4108  1.2130
  372MOL0     H51294  10.285   9.883   1.523  2.3376  1.7553  3.7673
  372MOL0     H51295  10.562   9.767   1.691 -1.5470 -2.0238 -1.5005
  372MOL0     H51296  10.423   9.879   1.696  0.8279 -2.2082  1.6268
  372MOL0     H51297  10.583   9.944   1.669  0.4563 -0.2401 -1.1402
  372MOL0     H51298  11.011   9.751   1.176  1.8869  2.5754 -1.2076
  372MOL0     H51299  11.268   9.745   1.205  1.2738 -1.1672  1.6533
  372MOL0     H51300  11.440   9.637   1.307  0.3427 -2.2475  2.5124
  372MOL0     H51301  11.521   9.792   1.276 -1.5264 -1.8830 -2.1103
  372MOL0     H51302  11.562   9.612   1.523 -0.4803  1.6413  1.7418
  372MOL0     H51303  11.665   9.605   1.384 -1.1660  0.3317 -1.7555
  372MOL0     H51304  11.771   9.747   1.572  0.2071 -1.4881 -1.1908
  372MOL0     H51305  11.623   9.860   1.539  1.9889  0.7900  0.8864
  372MOL0     H51306  11.687   9.926   1.336  1.5140  0.3823 -1.6857
  372MOL0     H51307  11.800   9.807   1.304 -0.1765  0.8491 -1.1996
  372MOL0     H51308  11.816  10.024   1.513  0.3589 -1.4142  2.0761
  372MOL0     H51309  11.959   9.921   1.484  1.2764  0.3329 -3.1346
  372MOL0     H51310  11.836  10.099   1.272 -0.1530 -1.6499 -0.5775
  372MOL0     H51311  11.993  10.024   1.256  1.2883  1.8609 -1.1212
  372MOL0     H51312  11.936  10.210   1.490 -1.0675  2.2393 -1.4239
  372MOL0     H51313  11.992  10.269   1.331 -0.3524  1.3701  0.2503
  372MOL0     H51314  12.115  10.043   1.491 -2.0546  1.1047 -0.1637
  372MOL0     H51315  12.154  10.219   1.523 -3.5804  0.3979  0.2340
  372MOL0     H51316  11.220   9.848   1.614 -1.0359 -1.7511  0.9351
  372MOL0     H51317  10.995   9.873   1.600 -1.5276 -1.9858 -0.1896
  372MOL0     H51318  10.666   9.855   1.202  3.2091  0.1922  2.4712
  372MOL0     H51319  10.424   9.871   1.130  2.8829 -1.2637  0.4731
  372MOL0     H51320   9.310  10.524   2.278  1.7039  0.8803 -2.4329
  372MOL0     H51321   9.130  10.536   2.415 -0.5578 -0.9825 -0.7837
  372MOL0     H51322   8.676  10.572   2.420 -0.3006 -0.5157  0.1672
  372MOL0     H51323   8.461  10.604   2.491 -3.9314 -0.1972  4.4899
  372MOL0     H51324   8.360  10.955   2.643  0.3557 -0.5426  1.7254
  372MOL0     H51325   8.323  10.830   2.525 -1.2524  2.0849 -1.0286
  372MOL0     H51326   8.134  10.754   2.665 -2.0605  2.0889  0.4983
  372MOL0     H51327   8.113  10.915   2.609  0.7293  0.9544 -0.5526
  372MOL0     H51328   8.215  10.828   2.889 -0.4024 -0.3182  1.3833
  372MOL0     H51329   8.213  10.996   2.828  1.0953 -0.2763 -2.9017
  372MOL0     H51330   7.959  10.831   2.819  3.2767 -3.7203  2.5071
  372MOL0     H51331   7.987  11.008   2.814 -1.3414 -1.6572 -2.3281
  372MOL0     H51332   7.974  10.923   3.231  5.5299 -4.5806  1.8603
  372MOL0     H51333   8.596  10.820   2.837 -0.1842  0.1821 -0.1381
  372MOL0     H51334   8.819  10.851   2.874  0.1275  0.0913 -0.7021
  372MOL0     H51335   8.892  10.688   2.868 -1.3541 -0.0522  0.6268
  372MOL0     H51336   8.951  10.817   2.757 -0.1032 -0.8991 -0.4342
  373MOL0     O51337   7.687   2.586   0.427  0.0212  0.0481  0.0052
  373MOL0     C51338   7.729   2.492   0.494  1.2914  0.5984  0.4177
  373MOL0     O51339   7.792   2.496   0.612  0.3240 -0.1324 -0.1800
  373MOL0     C51340   7.841   2.613   0.655 -0.7948 -0.5751  0.0035
  373MOL0     C51341   7.979   2.633   0.637 -0.3919  0.4044  0.6256
  373MOL0     C51342   8.051   2.739   0.692 -0.2452 -0.2529 -0.5662
  373MOL0     C51343   7.975   2.831   0.769 -0.4129 -0.1269  0.1964
  373MOL0     O51344   8.051   2.935   0.820 -0.3288  0.6144 -0.1809
  373MOL0     C51345   7.990   3.051   0.888 -1.3260  0.3183 -0.1707
  373MOL0     C51346   8.030   3.185   0.811 -1.4531  0.0067  0.1793
  373MOL0     C51347   8.177   3.219   0.837 -0.0005 -0.4496 -0.0925
  373MOL0     C51348   8.196   3.274   0.980 -0.5540  0.2116  0.2083
  373MOL0     C51349   8.344   3.269   1.016 -0.4303 -0.3040 -0.1011
  373MOL0     C51350   8.364   3.345   1.147 -0.1774  0.2647 -0.8789
  373MOL0     C51351   8.515   3.346   1.196 -0.1704 -1.0026  0.2995
  373MOL0     C51352   8.592   3.212   1.216  0.6413  0.0609 -0.5311
  373MOL0     N51353   8.727   3.232   1.258 -0.1037  1.2782 -0.5609
  373MOL0     C51354   8.768   3.260   1.384  0.7500  0.1798 -0.0793
  373MOL0     C51355   8.896   3.258   1.386 -0.8355 -0.5497  0.6359
  373MOL0     C51356   8.988   3.259   1.510 -0.5735 -0.4877 -0.0502
  373MOL0     C51357   9.046   3.108   1.515  0.2906 -0.6426  0.0584
  373MOL0     C51358   9.141   3.097   1.639 -0.6634  0.1701  0.1138
  373MOL0     C51359   9.193   2.957   1.653  1.3943  0.3453 -0.5265
  373MOL0     O51360   9.276   2.926   1.545 -0.1933  0.3226  0.4496
  373MOL0     C51361   9.324   2.797   1.543 -0.5096  0.7124  0.1944
  373MOL0     C51362   9.248   2.679   1.558  0.1238 -0.5595  0.1132
  373MOL0     C51363   9.293   2.556   1.513  0.8225  0.5330 -0.4807
  373MOL0     C51364   9.186   2.447   1.540 -0.7681 -0.2612  0.3600
  373MOL0     C51365   9.413   2.542   1.443  0.7984  0.4339 -0.3937
  373MOL0     C51366   9.467   2.410   1.394  0.2995 -0.3118 -0.0760
  373MOL0     O51367   9.590   2.414   1.330 -0.1267  0.0500  0.0657
  373MOL0     C51368   9.661   2.296   1.302  0.5722 -0.4596 -0.1127
  373MOL0     C51369   9.742   2.278   1.194 -0.2961  0.6372  0.2146
  373MOL0     C51370   9.811   2.156   1.161  0.9174  0.2566  0.1993
  373MOL0     C51371   9.823   2.054   1.259 -0.2582  0.0702  0.4967
  373MOL0     O51372   9.905   1.946   1.246 -0.1935  0.2084  0.2952
  373MOL0     C51373   9.947   1.881   1.368  0.0960 -0.2396  0.3505
  373MOL0     C51374  10.068   1.791   1.343 -0.3457 -0.2449  1.0052
  373MOL0     C51375  10.096   1.699   1.465 -0.5506 -0.3519  0.1518
  373MOL0     C51376  10.204   1.601   1.434 -0.3077  0.4400  0.3197
  373MOL0     C51377  10.254   1.524   1.556  0.5131  0.3175 -0.0273
  373MOL0     C51378  10.345   1.411   1.503 -0.8810 -0.3002  0.0833
  373MOL0     C51379  10.421   1.331   1.614 -0.1554 -1.2077  1.2706
  373MOL0     C51380  10.530   1.240   1.562 -0.0770  0.0955  0.6360
  373MOL0    Cl51381  10.634   1.180   1.685  0.3406 -0.1660 -0.4999
  373MOL0     C51382   9.756   2.079   1.377  0.0451  0.0558 -0.8932
  373MOL0     C51383   9.662   2.187   1.391 -0.5499  0.5725 -0.8037
  373MOL0     O51384   9.399   2.307   1.417 -0.8645 -0.1733 -0.4610
  373MOL0     C51385   9.494   2.657   1.437 -0.6852 -0.6227  0.4573
  373MOL0     C51386   9.456   2.783   1.492  0.5387  0.5278 -0.1371
  373MOL0     N51387   8.943   3.230   1.259  0.0695  0.0388  0.4139
  373MOL0     N51388   8.836   3.217   1.177  0.0757  0.0319 -0.6621
  373MOL0     C51389   7.832   2.819   0.781 -0.0898 -0.4932 -0.3442
  373MOL0     C51390   7.770   2.712   0.721  0.2001 -0.7532 -0.7336
  373MOL0     C51391   7.693   2.356   0.441  0.1043  1.1313 -0.3839
  373MOL0     C51392   7.572   2.332   0.375 -0.6378  0.2526 -0.2570
  373MOL0     C51393   7.543   2.211   0.320 -0.5357  1.2363 -0.1712
  373MOL0     C51394   7.640   2.111   0.321 -0.7501 -0.4782  0.1062
  373MOL0     O51395   7.629   1.981   0.265  0.8035 -0.2919 -0.5457
  373MOL0     C51396   7.498   1.939   0.211  0.7064  0.3158 -0.3624
  373MOL0     C51397   7.513   1.785   0.218  0.5483  0.2406  0.8405
  373MOL0     C51398   7.629   1.717   0.143 -1.3728  1.2128 -0.9563
  373MOL0     C51399   7.620   1.565   0.119  0.0435  0.0396  0.3721
  373MOL0     C51400   7.733   1.527   0.028  0.5845  0.4981 -0.6737
  373MOL0     C51401   7.825   1.513  -0.043  0.0684 -0.8686  1.5166
  373MOL0     C51402   7.765   2.133   0.377  0.2673 -0.4073  0.9253
  373MOL0     C51403   7.792   2.254   0.431 -0.5524  0.4454 -0.1482
  373MOL0     C51404   7.941   2.266   0.473 -0.0669  0.1612  0.3265
  373MOL0     H51405   8.036   2.566   0.573 -1.3650 -0.9315  1.1226
  373MOL0     H51406   8.156   2.749   0.663 -0.5650  2.7303 -0.9321
  373MOL0     H51407   8.022   3.068   0.991 -0.8993  1.9093 -0.5278
  373MOL0     H51408   7.881   3.056   0.893 -1.2304  2.2139  1.2377
  373MOL0     H51409   8.019   3.176   0.703  0.2749  1.4995 -0.1747
  373MOL0     H51410   7.974   3.272   0.847 -0.8030 -0.4029  2.3546
  373MOL0     H51411   8.247   3.137   0.817  2.8918  1.9991 -0.9026
  373MOL0     H51412   8.205   3.301   0.768  1.1935  2.0765  3.1226
  373MOL0     H51413   8.158   3.376   0.988 -0.5604  0.1610  0.9175
  373MOL0     H51414   8.152   3.203   1.052  0.5407  1.4612  2.2123
  373MOL0     H51415   8.395   3.327   0.939 -2.7323 -0.3757 -1.8170
  373MOL0     H51416   8.388   3.169   1.016  3.2290  1.1701 -1.1351
  373MOL0     H51417   8.336   3.448   1.121  0.0085  0.7129  0.5987
  373MOL0     H51418   8.299   3.312   1.227  1.1810  1.7769  0.9410
  373MOL0     H51419   8.510   3.379   1.301  0.0580 -3.5798  1.1997
  373MOL0     H51420   8.574   3.421   1.143  0.6453 -0.4417  1.9140
  373MOL0     H51421   8.542   3.153   1.293  1.1252  1.1495  0.6601
  373MOL0     H51422   8.597   3.148   1.127  2.6618 -2.6735  1.3608
  373MOL0     H51423   8.705   3.283   1.470  0.1366 -1.8052  0.0440
  373MOL0     H51424   8.935   3.281   1.604 -2.3091  2.5499 -1.5803
  373MOL0     H51425   9.067   3.334   1.498 -0.9262 -0.4718 -2.7123
  373MOL0     H51426   8.963   3.036   1.520 -0.1781 -0.0590  1.2509
  373MOL0     H51427   9.093   3.081   1.420 -1.5498  2.3344 -1.8483
  373MOL0     H51428   9.218   3.174   1.630 -1.5444  1.0596  0.0449
  373MOL0     H51429   9.081   3.109   1.730 -2.8125 -0.0186 -1.2388
  373MOL0     H51430   9.252   2.945   1.744  1.6651  0.6671 -0.6572
  373MOL0     H51431   9.109   2.887   1.657  0.7551  1.1170  4.1954
  373MOL0     H51432   9.150   2.696   1.602  0.3061 -2.6004  1.4456
  373MOL0     H51433   9.147   2.415   1.443  3.8362 -0.1525 -1.7832
  373MOL0     H51434   9.103   2.478   1.603 -0.8837 -0.0642  0.1170
  373MOL0     H51435   9.227   2.355   1.583  0.1511  0.2117  0.5280
  373MOL0     H51436   9.750   2.362   1.125  1.2724  1.1753  1.0119
  373MOL0     H51437   9.862   2.135   1.068 -0.9891 -4.0059 -0.1482
  373MOL0     H51438   9.973   1.955   1.444  2.5927  0.9612 -1.5092
  373MOL0     H51439   9.869   1.815   1.405  2.2262 -1.6544  2.6993
  373MOL0     H51440  10.042   1.735   1.252 -0.1420 -0.0558  0.8285
  373MOL0     H51441  10.155   1.849   1.311 -1.5992  1.6573  0.9112
  373MOL0     H51442  10.000   1.655   1.497 -1.5824  2.0603  0.5709
  373MOL0     H51443  10.131   1.769   1.541 -0.4451 -0.4992  0.2404
  373MOL0     H51444  10.294   1.649   1.394  0.7211 -0.3896  1.5523
  373MOL0     H51445  10.164   1.530   1.360 -3.6813  0.9628  1.4772
  373MOL0     H51446  10.308   1.599   1.615  1.3050  0.0552 -0.4071
  373MOL0     H51447  10.174   1.471   1.609 -0.6576 -0.4397 -2.4313
  373MOL0     H51448  10.414   1.451   1.428  1.4106 -2.6554  0.7967
  373MOL0     H51449  10.275   1.341   1.457 -2.2854  1.0874  0.0242
  373MOL0     H51450  10.348   1.281   1.679 -0.7108 -1.8914  0.1501
  373MOL0     H51451  10.458   1.408   1.682  2.3733 -1.3661  0.1936
  373MOL0     H51452  10.583   1.297   1.485 -1.0084  3.2835  2.2168
  373MOL0     H51453  10.482   1.153   1.516 -1.1957  1.8804 -1.7855
  373MOL0     H51454   9.757   2.007   1.459  1.0772  0.2248 -0.7360
  373MOL0     H51455   9.613   2.194   1.488  1.4579  0.0335  0.3195
  373MOL0     H51456   9.598   2.650   1.405 -0.5300 -0.4076  0.9118
  373MOL0     H51457   9.521   2.870   1.503 -1.0504  1.6900  0.5895
  373MOL0     H51458   7.767   2.884   0.840  0.1544  0.6189 -1.2630
  373MOL0     H51459   7.662   2.708   0.730  0.3145 -1.2057  0.7612
  373MOL0     H51460   7.516   2.423   0.358 -1.8261 -0.0799  1.5222
  373MOL0     H51461   7.446   2.206   0.272 -1.4770  0.2499  1.7244
  373MOL0     H51462   7.411   1.976   0.266  2.1725  4.2027 -0.3661
  373MOL0     H51463   7.487   1.981   0.110 -0.1312  3.9653  1.0786
  373MOL0     H51464   7.421   1.741   0.178  0.4161  1.2502 -0.0143
  373MOL0     H51465   7.513   1.754   0.323 -1.1475 -0.8831  0.5581
  373MOL0     H51466   7.622   1.763   0.043 -0.9438 -0.4646 -1.7909
  373MOL0     H51467   7.721   1.750   0.193 -2.8443 -0.2194  3.0823
  373MOL0     H51468   7.519   1.538   0.086 -1.9472  1.0701  4.8810
  373MOL0     H51469   7.632   1.509   0.212  1.3373  0.0149  0.1953
  373MOL0     H51470   7.901   1.513  -0.119 -2.1606  1.3021 -0.9206
  373MOL0     H51471   7.836   2.052   0.373  1.6970  0.8476 -1.5039
  373MOL0     H51472   7.938   2.265   0.582  0.2284  0.0481  0.3339
  373MOL0     H51473   7.987   2.178   0.427 -2.2006  0.6812 -3.2052
  373MOL0     H51474   7.976   2.364   0.441 -1.5130 -0.1028 -2.3670
  374MOL0     O51475   2.277   4.248   2.193  0.1037 -0.0119 -0.1990
  374MOL0     C51476   2.261   4.253   2.072  0.5167 -0.6700 -0.9542
  374MOL0     O51477   2.362   4.270   1.986  0.2387  0.4628  0.4342
  374MOL0     C51478   2.488   4.283   2.030  0.5938 -0.5343 -0.5468
  374MOL0     C51479   2.531   4.377   2.124 -0.7411  0.1496 -0.5759
  374MOL0     C51480   2.666   4.376   2.173 -0.3119  0.2210 -0.3187
  374MOL0     C51481   2.752   4.280   2.118 -0.5476  0.4501 -0.3537
  374MOL0     O51482   2.878   4.264   2.158  0.0847  0.0945 -0.1365
  374MOL0     C51483   2.948   4.385   2.182 -0.0522 -0.5496  0.3113
  374MOL0     C51484   3.096   4.368   2.186  0.7084 -0.0627 -0.9218
  374MOL0     C51485   3.135   4.279   2.062 -0.2127  0.1273  0.2908
  374MOL0     C51486   3.292   4.249   2.072 -0.2491 -0.3097  0.5601
  374MOL0     C51487   3.366   4.374   2.003 -0.0286  1.4901 -0.1190
  374MOL0     C51488   3.496   4.345   1.927  0.2250 -0.6695 -0.3233
  374MOL0     C51489   3.603   4.270   2.002  0.7471  0.7902  1.2469
  374MOL0     C51490   3.668   4.360   2.111  0.2499  0.6144  0.4113
  374MOL0     N51491   3.773   4.278   2.170 -0.2204  0.2784 -0.3423
  374MOL0     C51492   3.907   4.242   2.125  0.1190 -0.2577  0.3886
  374MOL0     C51493   3.952   4.153   2.223  0.4321 -0.0769  0.2060
  374MOL0     C51494   4.095   4.091   2.223 -0.2642  0.0133  0.2030
  374MOL0     C51495   4.088   3.946   2.184 -0.5949 -1.2867 -0.9665
  374MOL0     C51496   4.212   3.881   2.238 -0.5345 -0.0324 -0.7296
  374MOL0     C51497   4.221   3.730   2.208  0.3416  0.1192 -0.6526
  374MOL0     O51498   4.316   3.661   2.289  0.4721  0.3028  1.0594
  374MOL0     C51499   4.448   3.696   2.268 -0.2799 -0.6653 -0.2706
  374MOL0     C51500   4.535   3.729   2.375  0.8318 -0.3086 -0.6754
  374MOL0     C51501   4.672   3.763   2.359  0.1865  1.0020 -0.5010
  374MOL0     C51502   4.760   3.782   2.485  0.0500  0.0495 -0.4823
  374MOL0     C51503   4.720   3.788   2.228 -0.2190 -0.1990  0.0088
  374MOL0     C51504   4.842   3.870   2.198  0.9948  0.6828  0.0810
  374MOL0     O51505   4.904   3.943   2.297 -0.2198  0.1938  0.2462
  374MOL0     C51506   5.038   3.984   2.273 -0.2630 -0.3915  0.3199
  374MOL0     C51507   5.066   4.085   2.183  0.1835  0.9254  1.0591
  374MOL0     C51508   5.196   4.108   2.148  0.5690  0.3785 -0.4447
  374MOL0     C51509   5.307   4.039   2.203 -1.0789 -0.0303 -0.0462
  374MOL0     O51510   5.443   4.079   2.167 -0.4812  0.1064 -0.3671
  374MOL0     C51511   5.557   4.021   2.230  0.4551  0.3660 -0.0197
  374MOL0     C51512   5.678   4.079   2.160 -0.4378  0.0136  0.3459
  374MOL0     C51513   5.810   4.020   2.213 -0.1556 -0.5881  0.1211
  374MOL0     C51514   5.846   4.064   2.356  0.6114 -0.6847  0.3501
  374MOL0     C51515   5.994   4.069   2.375  0.9052 -0.4111  0.6340
  374MOL0     C51516   6.026   4.070   2.519  0.0388  0.1907  0.9440
  374MOL0     C51517   5.973   4.180   2.607 -1.2211 -0.2646 -0.4577
  374MOL0     C51518   6.017   4.323   2.574  0.5944 -0.0407  0.9846
  374MOL0    Cl51519   6.195   4.357   2.575 -0.1452  0.4080 -0.7314
  374MOL0     C51520   5.274   3.946   2.306 -0.5860  0.6503 -0.0468
  374MOL0     C51521   5.145   3.917   2.334 -0.1000 -0.3776  0.3865
  374MOL0     O51522   4.875   3.875   2.080 -0.2530 -0.0150  0.2223
  374MOL0     C51523   4.629   3.753   2.119 -0.4132 -0.0132  0.4306
  374MOL0     C51524   4.496   3.718   2.133  0.1813 -0.1643  0.2911
  374MOL0     N51525   3.849   4.141   2.316  0.1386 -0.0215  0.6862
  374MOL0     N51526   3.751   4.213   2.292  0.4081  0.4487 -0.2597
  374MOL0     C51527   2.711   4.184   2.033  0.7938  0.0267  1.0238
  374MOL0     C51528   2.581   4.193   1.977 -0.5840  0.6200  0.2524
  374MOL0     C51529   2.133   4.214   2.012  0.0513 -0.4225 -1.0648
  374MOL0     C51530   2.134   4.179   1.879 -0.4175  0.2557 -1.4476
  374MOL0     C51531   2.017   4.154   1.809  0.5519 -0.5188 -0.7845
  374MOL0     C51532   1.890   4.143   1.871 -0.7096 -0.4434  0.2302
  374MOL0     O51533   1.784   4.112   1.798 -0.5215  0.2639 -0.3713
  374MOL0     C51534   1.653   4.142   1.840 -0.3190  0.2071 -0.1142
  374MOL0     C51535   1.556   4.124   1.721  0.0595  0.6776  0.1855
  374MOL0     C51536   1.408   4.118   1.766 -0.0283 -0.6163 -0.2409
  374MOL0     C51537   1.318   4.077   1.645 -0.7247  0.4497 -0.0929
  374MOL0     C51538   1.174   4.097   1.675 -0.1908  0.6160 -0.3368
  374MOL0     C51539   1.060   4.129   1.702  0.0973  1.0098  0.6686
  374MOL0     C51540   1.891   4.172   2.008  0.5999 -0.0207  0.5997
  374MOL0     C51541   2.007   4.219   2.076  0.1264 -0.4585  0.3192
  374MOL0     C51542   1.983   4.269   2.219  0.4079  0.0419  0.0354
  374MOL0     H51543   2.468   4.459   2.156  1.0866  0.8937  1.2657
  374MOL0     H51544   2.706   4.460   2.230  2.2029  0.7540 -2.6063
  374MOL0     H51545   2.928   4.428   2.280 -1.4113  1.6835 -0.8648
  374MOL0     H51546   2.919   4.456   2.104 -2.0796 -0.2248  1.3008
  374MOL0     H51547   3.134   4.471   2.188 -1.5492  0.8358 -1.3925
  374MOL0     H51548   3.121   4.308   2.273  1.1542  1.2021 -0.1476
  374MOL0     H51549   3.076   4.187   2.054 -2.5108  1.4945  0.5568
  374MOL0     H51550   3.111   4.349   1.982  1.1079  0.0943 -0.1524
  374MOL0     H51551   3.327   4.240   2.175  0.2514  2.0264  0.6424
  374MOL0     H51552   3.323   4.157   2.022  1.3399  1.3918 -1.7765
  374MOL0     H51553   3.378   4.458   2.072  2.4118  1.1456 -0.0204
  374MOL0     H51554   3.293   4.418   1.935  0.4442  1.5011 -0.6263
  374MOL0     H51555   3.479   4.280   1.841 -3.2953  0.2728 -0.4840
  374MOL0     H51556   3.542   4.438   1.895 -0.5109  0.3837  1.4838
  374MOL0     H51557   3.673   4.226   1.930 -2.7262  0.0260 -1.9735
  374MOL0     H51558   3.545   4.194   2.055 -1.9452 -1.1019 -3.7945
  374MOL0     H51559   3.707   4.457   2.078 -1.6733  2.0641  2.1181
  374MOL0     H51560   3.593   4.386   2.187  0.2717  2.1361 -0.0489
  374MOL0     H51561   3.966   4.273   2.040  1.6852 -3.9285 -0.0906
  374MOL0     H51562   4.121   4.106   2.328  1.2951 -2.1875  0.2072
  374MOL0     H51563   4.153   4.157   2.158  1.0098 -0.6053  0.6678
  374MOL0     H51564   4.007   3.901   2.243  0.6458 -1.7608  0.4261
  374MOL0     H51565   4.074   3.927   2.077 -0.8199 -0.2279 -1.1339
  374MOL0     H51566   4.292   3.939   2.191 -1.6090  3.2540  1.1562
  374MOL0     H51567   4.223   3.895   2.346 -1.5163 -1.4152 -0.4156
  374MOL0     H51568   4.125   3.682   2.230  0.2988  0.0875 -0.9083
  374MOL0     H51569   4.237   3.719   2.100  1.3921 -1.4542 -0.3582
  374MOL0     H51570   4.501   3.718   2.477  1.2757 -0.1570 -0.5091
  374MOL0     H51571   4.759   3.701   2.559  0.4945  2.3722  2.2390
  374MOL0     H51572   4.735   3.872   2.542 -1.2450 -1.8073  2.1365
  374MOL0     H51573   4.864   3.774   2.454 -0.3150 -2.8984 -1.2314
  374MOL0     H51574   4.996   4.147   2.129 -3.4820 -2.5561  1.3600
  374MOL0     H51575   5.208   4.190   2.079 -1.5240  0.5553 -0.6814
  374MOL0     H51576   5.555   4.051   2.335  2.3585  1.5540 -0.2800
  374MOL0     H51577   5.565   3.912   2.228  2.0963  0.4682 -2.1329
  374MOL0     H51578   5.663   4.050   2.055 -2.3062 -1.8855  1.0698
  374MOL0     H51579   5.692   4.187   2.166 -0.1114 -0.1123  4.2259
  374MOL0     H51580   5.888   4.060   2.148  0.9592 -3.3269 -0.3434
  374MOL0     H51581   5.812   3.911   2.203  0.3150 -0.4120 -2.7456
  374MOL0     H51582   5.806   3.995   2.431  2.2245 -0.1280  1.7531
  374MOL0     H51583   5.794   4.160   2.362  0.6819 -0.6853  0.9281
  374MOL0     H51584   6.034   3.982   2.322 -1.0803 -3.4554  3.7075
  374MOL0     H51585   6.027   4.161   2.325  0.2426 -1.3306 -1.6249
  374MOL0     H51586   6.136   4.077   2.519  0.3366 -2.9460  1.1490
  374MOL0     H51587   5.997   3.972   2.558 -0.8781 -0.6649 -1.6671
  374MOL0     H51588   6.007   4.157   2.708 -2.9029  1.3812  0.5495
  374MOL0     H51589   5.864   4.178   2.601 -1.2581  1.7945 -1.5473
  374MOL0     H51590   5.966   4.388   2.646  2.8572  0.5789  2.1069
  374MOL0     H51591   5.986   4.347   2.473  0.7415 -1.9545  0.4327
  374MOL0     H51592   5.350   3.894   2.363 -1.1960  0.2757  0.4347
  374MOL0     H51593   5.117   3.844   2.409 -1.3816  0.2066  0.5101
  374MOL0     H51594   4.658   3.767   2.016  1.8509 -1.0394  0.8503
  374MOL0     H51595   4.444   3.695   2.041  2.2806 -0.2529 -0.9298
  374MOL0     H51596   2.778   4.102   2.010  4.2538  2.8925 -0.2838
  374MOL0     H51597   2.555   4.108   1.914 -3.4858  1.0941  0.6389
  374MOL0     H51598   2.217   4.162   1.811 -0.9072 -3.8179 -1.3006
  374MOL0     H51599   2.009   4.144   1.701  0.2005  0.6301 -0.8865
  374MOL0     H51600   1.637   4.077   1.927 -0.1381  0.8940  0.4379
  374MOL0     H51601   1.643   4.247   1.868  0.6545  1.1223 -2.8280
  374MOL0     H51602   1.576   4.026   1.677 -1.6228  0.3160  0.1323
  374MOL0     H51603   1.556   4.198   1.640 -1.0883  0.4171 -0.0687
  374MOL0     H51604   1.396   4.040   1.843 -1.3146 -1.2722 -1.0703
  374MOL0     H51605   1.387   4.214   1.812  0.5413  0.4518 -2.1251
  374MOL0     H51606   1.339   3.976   1.608  1.7489 -0.7269  3.8656
  374MOL0     H51607   1.343   4.148   1.566  1.6249  2.2482  2.0751
  374MOL0     H51608   0.962   4.169   1.717  0.9528  3.6684 -0.3135
  374MOL0     H51609   1.798   4.165   2.063  1.7958 -1.9567  2.5726
  374MOL0     H51610   1.881   4.253   2.254  0.0404 -2.0121 -1.7878
  374MOL0     H51611   2.042   4.216   2.294  1.1381 -1.5024 -1.5744
  374MOL0     H51612   2.011   4.375   2.224 -0.3634  0.3580 -1.6787
  375MOL0     O51613   7.626   7.284  10.576 -0.5929 -0.5131 -0.5571
  375MOL0     C51614   7.635   7.278  10.696 -0.0957  0.2312 -0.0879
  375MOL0     O51615   7.752   7.309  10.760 -0.3601 -0.6830 -0.1966
  375MOL0     C51616   7.854   7.345  10.676  0.5653  0.1450 -0.0951
  375MOL0     C51617   7.927   7.249  10.602 -0.4358  0.4137  0.5980
  375MOL0     C51618   8.032   7.301  10.515  0.2235 -0.6750  0.3509
  375MOL0     C51619   8.067   7.433  10.513 -0.6357 -0.6797  1.0447
  375MOL0     O51620   8.148   7.478  10.407 -0.0625  0.0921  0.1466
  375MOL0     C51621   8.286   7.432  10.432 -0.7580 -0.5189 -0.1458
  375MOL0     C51622   8.383   7.518  10.345 -0.5227 -1.0681 -0.4382
  375MOL0     C51623   8.422   7.469  10.202 -0.3617 -0.4405 -0.3621
  375MOL0     C51624   8.518   7.559  10.116  0.0991 -0.5762  0.2875
  375MOL0     C51625   8.593   7.492   9.997 -0.3115 -0.0961  0.0490
  375MOL0     C51626   8.499   7.408   9.908  0.1124 -0.0701  0.3496
  375MOL0     C51627   8.589   7.334   9.805 -0.2591 -0.8839  0.2099
  375MOL0     C51628   8.655   7.203   9.852 -0.0893  0.1258 -0.3608
  375MOL0     N51629   8.784   7.224   9.915 -0.4573 -0.2194 -0.5211
  375MOL0     C51630   8.905   7.269   9.860  0.6091  0.0750 -0.1268
  375MOL0     C51631   8.996   7.232   9.952 -0.9953  0.1441  0.0893
  375MOL0     C51632   9.139   7.245   9.923  0.5286  0.6161  0.2532
  375MOL0     C51633   9.179   7.128   9.833 -0.0618  0.8028  0.0428
  375MOL0     C51634   9.333   7.110   9.811 -0.1799  0.7448 -0.2976
  375MOL0     C51635   9.361   7.013   9.695  0.9678 -0.5222  0.3398
  375MOL0     O51636   9.329   6.881   9.718 -0.0992  0.4813 -0.7059
  375MOL0     C51637   9.426   6.813   9.788  0.0037 -0.2666  1.0969
  375MOL0     C51638   9.402   6.786   9.923 -1.4109 -0.1208  0.1862
  375MOL0     C51639   9.501   6.724   9.999 -0.1515  0.3954 -0.8100
  375MOL0     C51640   9.446   6.687  10.138  0.3308  0.8498 -0.3507
  375MOL0     C51641   9.631   6.701   9.938  0.0204  0.3325 -0.5310
  375MOL0     C51642   9.740   6.622  10.002  1.1973 -0.7251 -0.6084
  375MOL0     O51643   9.724   6.607  10.133 -0.6530 -0.3615  0.1013
  375MOL0     C51644   9.814   6.526  10.197  0.2364  0.2679  0.1102
  375MOL0     C51645   9.789   6.391  10.230 -0.3832  0.1061 -0.2588
  375MOL0     C51646   9.881   6.318  10.303  0.9959  0.2410  0.3376
  375MOL0     C51647  10.005   6.362  10.350  0.1505 -0.6994  0.4265
  375MOL0     O51648  10.097   6.286  10.415  0.5911  0.2335 -0.3805
  375MOL0     C51649  10.184   6.348  10.509 -0.5749 -0.4613  0.1602
  375MOL0     C51650  10.260   6.249  10.583 -0.2417  0.3941  0.1999
  375MOL0     C51651  10.371   6.319  10.671 -0.2591  0.2636 -0.1196
  375MOL0     C51652  10.439   6.209  10.759  0.2054 -0.1309  0.0992
  375MOL0     C51653  10.549   6.285  10.824  0.0415 -0.5532 -1.1610
  375MOL0     C51654  10.625   6.193  10.925  0.0146  0.6972  0.4407
  375MOL0     C51655  10.751   6.266  10.979  0.1590 -0.4450  0.0940
  375MOL0     C51656  10.882   6.227  10.904 -0.0519 -0.8796 -0.1623
  375MOL0    Cl51657  10.908   6.048  10.927 -0.3694 -0.1048 -0.1681
  375MOL0     C51658  10.036   6.502  10.315 -0.0981 -0.3086  0.0765
  375MOL0     C51659   9.940   6.574  10.241  0.5720  0.3871  0.7807
  375MOL0     O51660   9.831   6.580   9.934 -0.0226  0.3925 -1.0307
  375MOL0     C51661   9.651   6.741   9.808  0.4910  0.1486  0.5329
  375MOL0     C51662   9.553   6.795   9.727  0.4826  1.1646  0.2718
  375MOL0     N51663   8.935   7.164  10.060  0.5318  0.3739 -0.2268
  375MOL0     N51664   8.805   7.157  10.035 -0.4197  0.5169 -0.4171
  375MOL0     C51665   7.992   7.521  10.581  0.5815  0.8528  1.1415
  375MOL0     C51666   7.881   7.478  10.659 -0.0501 -0.1673  0.4703
  375MOL0     C51667   7.516   7.255  10.782  0.1176 -0.4886 -0.0959
  375MOL0     C51668   7.528   7.287  10.918  0.1520  0.2079 -0.2011
  375MOL0     C51669   7.418   7.271  11.004  0.7377 -0.1098  0.6948
  375MOL0     C51670   7.289   7.234  10.950 -0.0975  0.0568 -0.4939
  375MOL0     O51671   7.173   7.226  11.028 -0.0280 -0.0561 -0.8579
  375MOL0     C51672   7.172   7.285  11.157 -0.5181 -0.6909 -0.5974
  375MOL0     C51673   7.149   7.428  11.137  0.0904  0.4198 -0.2767
  375MOL0     C51674   7.016   7.455  11.069  0.6462  0.0590  0.4388
  375MOL0     C51675   6.966   7.607  11.083  0.3104 -0.0879 -0.6779
  375MOL0     C51676   7.056   7.700  11.010  0.1500 -0.2142  0.5690
  375MOL0     C51677   7.111   7.778  10.939 -0.3908  0.2192 -0.0135
  375MOL0     C51678   7.280   7.196  10.815 -0.9572  0.8480  0.7476
  375MOL0     C51679   7.389   7.212  10.728  0.1649 -0.0800 -0.0631
  375MOL0     C51680   7.357   7.173  10.587 -0.5943  0.0275  0.5603
  375MOL0     H51681   7.908   7.142  10.610 -0.3375  0.3742  0.3365
  375MOL0     H51682   8.069   7.225  10.448  0.9230 -2.0094  2.1533
  375MOL0     H51683   8.306   7.327  10.408 -0.2775  0.2269 -3.4854
  375MOL0     H51684   8.308   7.446  10.539  1.8395 -0.4114 -0.6355
  375MOL0     H51685   8.345   7.620  10.337  0.6666 -0.3242  2.3475
  375MOL0     H51686   8.478   7.518  10.399 -0.3672  0.3282 -0.6686
  375MOL0     H51687   8.481   7.378  10.213 -0.4100 -0.7159 -2.0647
  375MOL0     H51688   8.330   7.446  10.146  0.3897  1.5140 -2.5948
  375MOL0     H51689   8.465   7.648  10.079  5.3888  3.7734  1.9907
  375MOL0     H51690   8.587   7.596  10.191 -0.2525 -0.6104  0.6305
  375MOL0     H51691   8.670   7.431  10.045 -0.2998  1.4377  2.1224
  375MOL0     H51692   8.664   7.554   9.941  0.7142  1.2554  2.7019
  375MOL0     H51693   8.435   7.339   9.964 -1.6714  1.1448 -0.1237
  375MOL0     H51694   8.431   7.476   9.855  0.7156  1.0390  0.9684
  375MOL0     H51695   8.671   7.396   9.766 -0.9751  0.1728  0.3562
  375MOL0     H51696   8.535   7.314   9.712  1.5966  2.7078 -1.8871
  375MOL0     H51697   8.592   7.161   9.930 -1.4863  0.8982 -1.0395
  375MOL0     H51698   8.651   7.139   9.763 -0.6098  0.3385 -0.4941
  375MOL0     H51699   8.924   7.337   9.777 -2.0618 -0.7725 -1.5426
  375MOL0     H51700   9.202   7.240  10.012  1.5673  1.6733 -0.3955
  375MOL0     H51701   9.170   7.342   9.884  1.7299  0.2245  0.2055
  375MOL0     H51702   9.145   7.035   9.879  1.9195 -0.3716 -0.7584
  375MOL0     H51703   9.119   7.130   9.741 -2.0346  0.4170  1.2628
  375MOL0     H51704   9.371   7.207   9.777  1.8265 -0.0181 -0.3584
  375MOL0     H51705   9.379   7.077   9.905 -2.4091 -0.4145  0.4514
  375MOL0     H51706   9.312   7.042   9.602  1.3211  2.0714  0.8786
  375MOL0     H51707   9.469   7.028   9.682  0.8924 -0.4859 -0.2958
  375MOL0     H51708   9.302   6.814   9.956 -1.5265 -0.0808 -0.1832
  375MOL0     H51709   9.517   6.722  10.214 -1.4559 -0.9490  2.3206
  375MOL0     H51710   9.434   6.579  10.148  2.1125  0.8225  2.5815
  375MOL0     H51711   9.347   6.730  10.155  0.0123  1.0569 -2.4732
  375MOL0     H51712   9.699   6.348  10.186  1.9861 -2.6891 -2.8590
  375MOL0     H51713   9.841   6.219  10.320  2.4795 -0.3116  0.8321
  375MOL0     H51714  10.249   6.409  10.445 -0.1471  0.5367  1.4960
  375MOL0     H51715  10.137   6.420  10.576 -0.4135  1.5644 -1.7859
  375MOL0     H51716  10.193   6.216  10.662  2.6298 -1.1816  2.1712
  375MOL0     H51717  10.293   6.162  10.525  0.6794  1.0155 -0.2368
  375MOL0     H51718  10.324   6.398  10.731  0.1518  0.1398  0.3697
  375MOL0     H51719  10.444   6.359  10.600  3.8642 -2.8568  1.9181
  375MOL0     H51720  10.480   6.125  10.702  0.2032  0.7537 -1.2452
  375MOL0     H51721  10.373   6.176  10.840  1.2333 -0.4968  0.8101
  375MOL0     H51722  10.611   6.322  10.742  0.1787  1.2610 -0.2827
  375MOL0     H51723  10.516   6.370  10.884  0.6952 -1.6677  0.9108
  375MOL0     H51724  10.652   6.098  10.877  1.9130  0.6601  1.4861
  375MOL0     H51725  10.553   6.167  11.003 -0.5086 -1.3860 -0.6667
  375MOL0     H51726  10.754   6.245  11.086 -0.6604 -0.4549  0.1260
  375MOL0     H51727  10.731   6.373  10.965  0.0446 -0.7011 -1.9942
  375MOL0     H51728  10.964   6.285  10.949  0.1068 -0.7589 -0.6065
  375MOL0     H51729  10.869   6.245  10.797  0.4886 -2.6408 -0.5584
  375MOL0     H51730  10.133   6.547  10.337  1.5834 -2.7353 -1.8338
  375MOL0     H51731   9.964   6.675  10.208 -0.3034  0.4769  0.4106
  375MOL0     H51732   9.753   6.728   9.774  0.8675 -0.6540  1.8953
  375MOL0     H51733   9.585   6.812   9.625 -0.7617 -4.0489 -1.3097
  375MOL0     H51734   8.022   7.626  10.580  0.2403  1.0671 -2.9996
  375MOL0     H51735   7.839   7.548  10.730  3.5176  0.1756  2.4606
  375MOL0     H51736   7.628   7.319  10.946  0.9873 -0.8901 -1.8229
  375MOL0     H51737   7.431   7.303  11.107  2.6131  1.0925  0.1486
  375MOL0     H51738   7.081   7.250  11.206 -0.9019  2.7490  1.5204
  375MOL0     H51739   7.255   7.263  11.224 -0.8886  2.3964  1.0784
  375MOL0     H51740   7.230   7.477  11.084  1.1402  0.7405  1.5351
  375MOL0     H51741   7.140   7.480  11.233  0.1448 -0.3089  0.1317
  375MOL0     H51742   7.016   7.432  10.962 -2.6901  2.7307 -0.3154
  375MOL0     H51743   6.942   7.384  11.108 -0.8546 -0.1487 -2.4866
  375MOL0     H51744   6.965   7.633  11.189 -1.3652  2.5618 -1.2466
  375MOL0     H51745   6.863   7.614  11.048 -0.2486 -1.5992  0.5438
  375MOL0     H51746   7.169   7.837  10.870 -0.2729 -1.1414 -1.1247
  375MOL0     H51747   7.179   7.167  10.792 -1.3286  1.8205  1.1046
  375MOL0     H51748   7.251   7.151  10.568 -0.7663  1.7108 -0.6752
  375MOL0     H51749   7.378   7.257  10.519  0.8405  1.2501  2.4150
  375MOL0     H51750   7.419   7.087  10.560  0.1769  0.7676 -0.1152
  376MOL0     O51751   1.911   1.099  11.204  0.4587  0.3592 -0.4360
  376MOL0     C51752   1.869   1.087  11.317  0.1978 -0.2811 -0.5083
  376MOL0     O51753   1.946   1.074  11.430  0.1820 -0.6509 -0.1061
  376MOL0     C51754   2.070   1.023  11.409  0.6837  0.5568  0.2064
  376MOL0     C51755   2.181   1.089  11.456  0.2856 -0.1161  0.2303
  376MOL0     C51756   2.316   1.052  11.419  0.2383 -0.1131 -1.2553
  376MOL0     C51757   2.325   0.944  11.331 -0.5128 -0.3726  0.1474
  376MOL0     O51758   2.445   0.897  11.282  1.1789 -0.2939  0.3512
  376MOL0     C51759   2.571   0.964  11.301  0.6406 -0.0869 -0.3860
  376MOL0     C51760   2.668   0.909  11.202  0.1896 -0.8673  0.1662
  376MOL0     C51761   2.808   0.980  11.224  0.7419  0.0469  0.0105
  376MOL0     C51762   2.878   0.982  11.091  0.2658 -0.9306 -0.8608
  376MOL0     C51763   2.870   0.847  11.029  0.1772  0.0888 -0.4301
  376MOL0     C51764   2.981   0.839  10.923 -0.3377  0.6295  0.4241
  376MOL0     C51765   2.971   0.707  10.842 -0.6701 -1.6458  0.8348
  376MOL0     C51766   3.108   0.670  10.784 -0.3252 -0.2379  0.3083
  376MOL0     N51767   3.138   0.763  10.676  0.6695 -0.0323  0.4324
  376MOL0     C51768   3.209   0.880  10.692 -0.9405  0.3780 -0.1773
  376MOL0     C51769   3.245   0.924  10.572  0.1367  0.2092  0.3532
  376MOL0     C51770   3.341   1.034  10.527  0.2041  0.6146 -0.2875
  376MOL0     C51771   3.481   0.986  10.478  0.6630 -0.3097  0.4507
  376MOL0     C51772   3.561   1.101  10.418  0.0833  0.5648 -0.0244
  376MOL0     C51773   3.595   1.224  10.513 -0.0505  0.0055 -0.1100
  376MOL0     O51774   3.491   1.283  10.587  0.5258  0.1270 -0.3009
  376MOL0     C51775   3.415   1.383  10.529 -0.1846  0.0384 -0.0323
  376MOL0     C51776   3.379   1.392  10.391 -0.9797  0.1020  0.4441
  376MOL0     C51777   3.292   1.490  10.336 -0.1311  0.6520 -0.3971
  376MOL0     C51778   3.254   1.480  10.192  0.1406  0.2509 -0.2846
  376MOL0     C51779   3.242   1.591  10.423  0.5231  0.2886  0.1456
  376MOL0     C51780   3.150   1.698  10.378  0.8169  0.7478  0.0944
  376MOL0     O51781   3.118   1.796  10.472 -1.0745 -0.2614 -0.0842
  376MOL0     C51782   3.006   1.868  10.445 -0.8648  0.8256 -0.5076
  376MOL0     C51783   3.015   2.001  10.395  0.0918  0.5084  0.2008
  376MOL0     C51784   2.906   2.079  10.381  0.3054 -0.8558 -0.2923
  376MOL0     C51785   2.783   2.031  10.420  1.5077 -0.0656 -0.2767
  376MOL0     O51786   2.664   2.108  10.405 -0.3390 -0.6696 -0.3319
  376MOL0     C51787   2.539   2.041  10.380 -0.1230 -0.0578 -0.1132
  376MOL0     C51788   2.451   2.154  10.319 -0.2305 -0.5852  0.2372
  376MOL0     C51789   2.391   2.240  10.431  0.6254 -0.2539  0.0259
  376MOL0     C51790   2.345   2.384  10.377  0.2498 -0.0685 -0.3522
  376MOL0     C51791   2.307   2.481  10.482  1.0933 -0.3977 -0.1019
  376MOL0     C51792   2.275   2.626  10.430  0.5155 -0.1393 -0.0212
  376MOL0     C51793   2.169   2.625  10.320  0.5248  0.0424 -0.0350
  376MOL0     C51794   2.044   2.563  10.360  0.9941 -0.9319  0.2334
  376MOL0    Cl51795   1.926   2.582  10.224 -0.0962  0.1113 -0.0648
  376MOL0     C51796   2.769   1.896  10.458 -0.3529  0.5463 -0.5369
  376MOL0     C51797   2.883   1.817  10.477  0.7257  0.3479 -0.0571
  376MOL0     O51798   3.115   1.703  10.262 -0.2263 -0.8578  0.4249
  376MOL0     C51799   3.289   1.588  10.558 -0.4435 -0.0512  0.3420
  376MOL0     C51800   3.357   1.477  10.616  0.0335 -0.0336  0.2987
  376MOL0     N51801   3.180   0.844  10.477 -0.3212 -0.6275  1.0431
  376MOL0     N51802   3.109   0.758  10.543  0.0194 -0.2073  0.6432
  376MOL0     C51803   2.216   0.873  11.290 -0.0735 -0.7287 -0.1211
  376MOL0     C51804   2.094   0.910  11.336  0.4257  1.1303 -0.0689
  376MOL0     C51805   1.719   1.074  11.343 -0.5903 -0.5864  0.6025
  376MOL0     C51806   1.672   1.137  11.456  0.3696  0.4830  0.5119
  376MOL0     C51807   1.539   1.125  11.489  0.2986 -0.5271  0.6875
  376MOL0     C51808   1.444   1.058  11.405  0.8470 -0.1027 -0.4968
  376MOL0     O51809   1.308   1.043  11.442 -0.0969  0.5916  0.8546
  376MOL0     C51810   1.243   1.105  11.549 -0.9455 -0.4371  0.0177
  376MOL0     C51811   1.090   1.125  11.514 -0.9619  0.6081  0.7226
  376MOL0     C51812   1.018   1.179  11.638 -0.5216 -0.7870  0.0914
  376MOL0     C51813   0.869   1.185  11.624  0.2548 -0.5439  0.5660
  376MOL0     C51814   0.806   1.177  11.763  0.0062 -0.2619  0.4715
  376MOL0     C51815   0.756   1.171  11.870  0.2915 -0.6826 -0.1531
  376MOL0     C51816   1.491   1.002  11.286 -0.2973  0.9273 -0.4628
  376MOL0     C51817   1.630   1.009  11.252 -0.2712  0.5285 -0.0084
  376MOL0     C51818   1.673   0.945  11.126 -0.0754 -0.9267  0.9003
  376MOL0     H51819   2.152   1.163  11.530  1.1676 -0.4876  0.9713
  376MOL0     H51820   2.406   1.095  11.462  1.7167 -0.4813 -3.7750
  376MOL0     H51821   2.601   0.937  11.403 -2.3370  1.5830  1.0683
  376MOL0     H51822   2.569   1.074  11.301 -0.0437 -0.0938 -0.4067
  376MOL0     H51823   2.672   0.802  11.223 -1.2665 -0.6537  1.7218
  376MOL0     H51824   2.621   0.937  11.108 -0.8759  1.0963  1.2267
  376MOL0     H51825   2.793   1.085  11.251  0.1482  0.4327 -1.6624
  376MOL0     H51826   2.851   0.934  11.314 -2.9863  2.9580  3.6986
  376MOL0     H51827   2.836   1.055  11.022  0.4106 -0.5189 -0.5153
  376MOL0     H51828   2.983   1.005  11.112  0.1289 -0.8573 -0.2336
  376MOL0     H51829   2.771   0.825  10.988 -1.1308  0.6064  2.2516
  376MOL0     H51830   2.883   0.768  11.103 -1.2662 -0.5115 -0.7803
  376MOL0     H51831   2.975   0.929  10.861  0.4657 -0.4546 -1.3035
  376MOL0     H51832   3.072   0.842  10.984 -0.1846 -2.6182  0.5293
  376MOL0     H51833   2.895   0.723  10.765 -2.0859  2.0545  2.7387
  376MOL0     H51834   2.938   0.621  10.902  1.0669 -3.2331 -0.3557
  376MOL0     H51835   3.184   0.660  10.861 -0.0214 -2.9818 -0.2439
  376MOL0     H51836   3.108   0.569  10.742  1.6053  0.6660 -2.0628
  376MOL0     H51837   3.247   0.923  10.785 -0.1516  0.1380 -0.3776
  376MOL0     H51838   3.368   1.100  10.610  1.8153  2.2737 -2.0414
  376MOL0     H51839   3.285   1.085  10.448 -0.1916 -0.3131 -0.6240
  376MOL0     H51840   3.540   0.938  10.557 -0.7320 -1.8069  0.6330
  376MOL0     H51841   3.468   0.906  10.405 -0.9265  0.6251 -0.3345
  376MOL0     H51842   3.654   1.056  10.382 -0.3751 -0.6354  0.2552
  376MOL0     H51843   3.504   1.134  10.330  1.6496  5.2079  0.4034
  376MOL0     H51844   3.667   1.192  10.589  0.3804 -1.7692 -1.2140
  376MOL0     H51845   3.640   1.300  10.449  1.1897  0.0669  0.7902
  376MOL0     H51846   3.415   1.313  10.326  0.2853  1.8047 -1.0423
  376MOL0     H51847   3.147   1.462  10.180  0.7368 -3.0730 -1.6501
  376MOL0     H51848   3.297   1.399  10.133  1.3365  0.4280  0.3232
  376MOL0     H51849   3.283   1.572  10.141  2.5280 -1.5556 -2.4091
  376MOL0     H51850   3.117   2.029  10.371  0.8505 -2.4700 -0.4184
  376MOL0     H51851   2.929   2.178  10.342  1.2173 -2.1483 -3.4142
  376MOL0     H51852   2.545   1.956  10.311  2.2284 -0.8693  0.9756
  376MOL0     H51853   2.500   1.999  10.473 -2.2962  1.7831 -0.1235
  376MOL0     H51854   2.513   2.211  10.250 -0.8467 -1.9102 -1.4820
  376MOL0     H51855   2.369   2.114  10.260 -0.6855 -0.9115  1.0668
  376MOL0     H51856   2.469   2.244  10.508 -2.4198 -1.0707  3.4466
  376MOL0     H51857   2.300   2.203  10.480  0.9354  0.3755  1.1004
  376MOL0     H51858   2.253   2.368  10.319 -0.2729  0.8610  0.1964
  376MOL0     H51859   2.426   2.420  10.313  0.3361  1.0264  0.3573
  376MOL0     H51860   2.235   2.430  10.547  1.0104 -0.1996 -0.0363
  376MOL0     H51861   2.401   2.493  10.537  2.0670  1.9758 -2.1131
  376MOL0     H51862   2.370   2.674  10.407 -0.1273  1.7907  1.1807
  376MOL0     H51863   2.227   2.684  10.510  0.6035 -0.9670  0.6421
  376MOL0     H51864   2.221   2.573  10.238  1.2294 -1.0934  1.0930
  376MOL0     H51865   2.135   2.726  10.295 -0.7652 -0.6121 -1.0428
  376MOL0     H51866   1.993   2.614  10.442 -0.7611 -2.1537 -0.0282
  376MOL0     H51867   2.061   2.457  10.383 -2.0930 -1.3367  1.1820
  376MOL0     H51868   2.671   1.856  10.482 -0.2744  0.8996  0.4201
  376MOL0     H51869   2.871   1.711  10.496  3.1309 -0.0450 -0.4226
  376MOL0     H51870   3.252   1.662  10.627  3.7232 -0.1810  3.0482
  376MOL0     H51871   3.371   1.466  10.723 -3.5850 -0.2785  0.8838
  376MOL0     H51872   2.224   0.790  11.220  1.9149 -1.0742  0.4418
  376MOL0     H51873   2.006   0.856  11.304 -0.5729  2.2087  0.7602
  376MOL0     H51874   1.741   1.188  11.523  1.5450  0.2037 -0.4325
  376MOL0     H51875   1.530   1.165  11.589  2.2026 -3.6276  2.2855
  376MOL0     H51876   1.250   1.049  11.643  1.9927  1.6292  1.2021
  376MOL0     H51877   1.289   1.202  11.569  0.3033 -0.8142 -0.9407
  376MOL0     H51878   1.045   1.030  11.483  1.0002 -0.5188  1.1507
  376MOL0     H51879   1.066   1.201  11.439  0.0427 -1.0692 -1.3900
  376MOL0     H51880   1.045   1.121  11.727 -0.2353 -0.1539  0.4229
  376MOL0     H51881   1.040   1.280  11.673  0.7035 -1.6524  1.9660
  376MOL0     H51882   0.833   1.103  11.562 -0.6513  0.0810  0.2290
  376MOL0     H51883   0.842   1.276  11.569 -0.9366 -2.6928 -2.6880
  376MOL0     H51884   0.702   1.161  11.962 -1.5743 -0.4692 -1.1530
  376MOL0     H51885   1.411   0.964  11.223  0.6730  0.2706 -1.3277
  376MOL0     H51886   1.676   1.025  11.051  1.4769 -1.7807  0.0199
  376MOL0     H51887   1.769   0.893  11.129  1.0194  0.8925 -0.5990
  376MOL0     H51888   1.600   0.872  11.090  1.3204 -0.4856 -3.3522
  377MOL0     O51889   6.883   5.646   9.857  0.1082 -0.1666  1.0257
  377MOL0     C51890   6.801   5.690   9.934 -0.0683 -0.3739 -1.4275
  377MOL0     O51891   6.826   5.788  10.026  0.8056 -1.2869 -0.1775
  377MOL0     C51892   6.954   5.819  10.066 -0.0787 -0.8473 -0.2472
  377MOL0     C51893   6.979   5.949  10.121  0.8323  0.3296 -0.1644
  377MOL0     C51894   7.101   5.996  10.169  0.0364 -0.2096 -0.2944
  377MOL0     C51895   7.208   5.910  10.163  0.2593 -0.3294  0.1210
  377MOL0     O51896   7.332   5.933  10.212  0.7585  0.2717 -0.6165
  377MOL0     C51897   7.345   6.016  10.327 -0.5044 -0.1256 -0.4526
  377MOL0     C51898   7.487   5.975  10.387 -0.5886  0.3413 -0.8097
  377MOL0     C51899   7.615   6.039  10.335 -0.4918 -0.5604  0.2059
  377MOL0     C51900   7.644   5.976  10.195  1.5025  0.4692 -0.4558
  377MOL0     C51901   7.781   6.025  10.143 -0.0315  0.4419  0.6325
  377MOL0     C51902   7.904   5.972  10.207  0.3016  0.2233 -0.3548
  377MOL0     C51903   8.035   6.045  10.161  0.8144  0.4086  0.4878
  377MOL0     C51904   8.060   6.035  10.020 -0.1579 -0.2204  0.0676
  377MOL0     N51905   8.207   6.037   9.995  0.8602 -0.1868 -0.3711
  377MOL0     C51906   8.285   5.926   9.965  0.5221 -0.5879  0.1196
  377MOL0     C51907   8.407   5.972   9.959 -0.5372 -0.6537 -0.6075
  377MOL0     C51908   8.534   5.895   9.932  0.3764  0.3481 -0.7256
  377MOL0     C51909   8.574   5.876   9.789  0.1526 -0.8196 -0.0074
  377MOL0     C51910   8.492   5.776   9.713 -0.9383 -0.7393  0.6183
  377MOL0     C51911   8.548   5.742   9.580  0.0683 -0.4612  0.2850
  377MOL0     O51912   8.693   5.740   9.573 -0.3598 -0.6485  0.2256
  377MOL0     C51913   8.750   5.707   9.453 -0.0481  0.4822 -0.0004
  377MOL0     C51914   8.888   5.705   9.458 -0.5564 -0.0406  1.0994
  377MOL0     C51915   8.960   5.670   9.344 -0.3771 -0.1459  0.3192
  377MOL0     C51916   9.100   5.643   9.376 -0.0493  0.7265  0.4335
  377MOL0     C51917   8.894   5.663   9.217 -0.3556 -0.0760  0.2784
  377MOL0     C51918   8.964   5.668   9.080 -0.5285 -0.7558  1.2081
  377MOL0     O51919   8.891   5.676   8.967  0.2812 -0.3029  0.7146
  377MOL0     C51920   8.948   5.664   8.842  0.4467 -0.8120  0.6243
  377MOL0     C51921   8.891   5.586   8.748  0.5261  0.8438 -0.2433
  377MOL0     C51922   8.934   5.591   8.612  0.3649 -0.3228 -0.4370
  377MOL0     C51923   9.028   5.695   8.573 -0.4254  0.2964  0.2068
  377MOL0     O51924   9.062   5.703   8.443 -0.1300  0.5622 -0.0816
  377MOL0     C51925   9.148   5.810   8.398 -0.9451  0.0944  0.7962
  377MOL0     C51926   9.166   5.784   8.246 -0.2755  0.3139 -0.7516
  377MOL0     C51927   9.199   5.901   8.160 -0.4480 -0.1480  0.6229
  377MOL0     C51928   9.345   5.929   8.181 -0.1642 -0.8939 -0.1006
  377MOL0     C51929   9.397   6.057   8.108 -0.1861 -0.0509 -0.0564
  377MOL0     C51930   9.539   6.052   8.085 -0.4981 -0.0068  0.2192
  377MOL0     C51931   9.590   6.173   8.013 -0.3748  0.0049  0.7358
  377MOL0     C51932   9.661   6.128   7.885  0.1453  0.5349 -0.2564
  377MOL0    Cl51933   9.799   6.021   7.908  0.4285 -0.4731 -0.2046
  377MOL0     C51934   9.093   5.771   8.677  0.3070 -0.0032  0.1687
  377MOL0     C51935   9.048   5.758   8.807  0.6252 -0.5160 -0.2948
  377MOL0     O51936   9.088   5.672   9.079  0.2579  0.7996  0.4421
  377MOL0     C51937   8.749   5.692   9.214  0.4099  0.2056  0.8907
  377MOL0     C51938   8.679   5.700   9.332  1.1390  0.1266  0.4400
  377MOL0     N51939   8.409   6.105   9.987  0.6784  0.0527  0.0176
  377MOL0     N51940   8.290   6.146  10.022  0.2321 -0.1372 -0.4994
  377MOL0     C51941   7.196   5.783  10.104 -0.4119  0.1233 -0.8702
  377MOL0     C51942   7.072   5.734  10.060 -0.8429  0.2624  0.4187
  377MOL0     C51943   6.663   5.638   9.941 -0.7804  0.6818 -0.5874
  377MOL0     C51944   6.561   5.718  10.000 -0.8029 -0.4002 -0.0024
  377MOL0     C51945   6.427   5.683   9.993 -0.1451  0.1014  0.8088
  377MOL0     C51946   6.384   5.559   9.934  0.4714  1.0396  0.3308
  377MOL0     O51947   6.261   5.499   9.923 -0.3673  0.2658  0.3295
  377MOL0     C51948   6.144   5.561   9.973 -0.3354  0.4010  0.0826
  377MOL0     C51949   6.151   5.566  10.129 -0.5131 -0.4946  0.7031
  377MOL0     C51950   6.005   5.572  10.183 -0.4853 -0.2048  0.6598
  377MOL0     C51951   5.994   5.517  10.325  1.2423 -1.0256  0.6627
  377MOL0     C51952   5.853   5.529  10.368  0.5721  0.6113 -0.2468
  377MOL0     C51953   5.738   5.550  10.405 -0.7281  0.0540  0.7460
  377MOL0     C51954   6.485   5.477   9.888  0.1732 -0.7142 -0.7901
  377MOL0     C51955   6.624   5.513   9.897  0.6575 -0.1765  0.8258
  377MOL0     C51956   6.723   5.407   9.853 -0.0924  0.3051 -0.4811
  377MOL0     H51957   6.898   6.021  10.128  1.0795  0.4614  4.0142
  377MOL0     H51958   7.125   6.093  10.210  4.7499 -1.9750  1.8679
  377MOL0     H51959   7.272   5.987  10.404  0.8818  0.3828  1.1133
  377MOL0     H51960   7.334   6.124  10.314 -0.4011 -0.1350 -0.6223
  377MOL0     H51961   7.473   6.012  10.489  1.5271 -0.3743 -0.2118
  377MOL0     H51962   7.505   5.867  10.388  2.5747  0.7677 -0.0108
  377MOL0     H51963   7.621   6.147  10.322 -0.4140 -0.3340  1.9424
  377MOL0     H51964   7.698   6.024  10.406  0.8167  3.8192 -0.1354
  377MOL0     H51965   7.625   5.868  10.198  0.2761  0.7014  0.4606
  377MOL0     H51966   7.571   6.005  10.119  0.0408  0.8666  1.0653
  377MOL0     H51967   7.774   6.133  10.150 -0.7141  0.7231 -2.6189
  377MOL0     H51968   7.782   5.999  10.037  1.5947 -1.7847  1.1092
  377MOL0     H51969   7.894   5.971  10.316  0.1973 -4.0228 -0.2285
  377MOL0     H51970   7.914   5.866  10.180 -0.8382 -0.3559  1.3238
  377MOL0     H51971   8.113   5.999  10.222 -0.4054 -2.8167 -0.2227
  377MOL0     H51972   8.024   6.153  10.177 -3.5814  0.1882  0.2079
  377MOL0     H51973   8.027   5.936   9.987  1.7285 -1.1227  0.7651
  377MOL0     H51974   8.003   6.109   9.963 -0.4707  0.3232  1.0594
  377MOL0     H51975   8.257   5.824   9.939 -0.3308  0.4995 -3.9058
  377MOL0     H51976   8.537   5.797   9.980  2.0310  1.9447  2.8498
  377MOL0     H51977   8.618   5.950   9.975  0.6015  0.5393 -1.4082
  377MOL0     H51978   8.563   5.972   9.737  3.2859  0.2073  0.9805
  377MOL0     H51979   8.680   5.850   9.776 -0.5587 -3.2020 -1.5350
  377MOL0     H51980   8.480   5.691   9.781  0.4276 -0.0415  1.8066
  377MOL0     H51981   8.389   5.805   9.692  0.0255  2.0752 -0.7480
  377MOL0     H51982   8.526   5.638   9.553  4.0050 -1.4518  0.2857
  377MOL0     H51983   8.511   5.813   9.506 -0.3398 -1.1625 -0.1918
  377MOL0     H51984   8.948   5.720   9.548 -1.4622 -1.7623  2.0319
  377MOL0     H51985   9.098   5.546   9.424 -3.7346 -1.4945 -3.5128
  377MOL0     H51986   9.144   5.721   9.440  1.7516 -0.3073  0.5295
  377MOL0     H51987   9.165   5.609   9.295  0.1628 -1.4476  1.4621
  377MOL0     H51988   8.803   5.526   8.765  0.6904  0.6740  0.0194
  377MOL0     H51989   8.883   5.532   8.536 -0.6803  1.0679 -0.8520
  377MOL0     H51990   9.105   5.910   8.407  1.9652  1.3212  2.2414
  377MOL0     H51991   9.249   5.817   8.440 -0.0069  1.8251 -1.5006
  377MOL0     H51992   9.243   5.708   8.227 -0.4105  0.1600 -0.6948
  377MOL0     H51993   9.075   5.731   8.216  0.9936 -3.1549  0.8688
  377MOL0     H51994   9.138   5.988   8.187 -2.3221  0.2500 -3.9968
  377MOL0     H51995   9.184   5.878   8.054  0.1901 -1.4512  0.7998
  377MOL0     H51996   9.397   5.840   8.144 -0.4856 -1.5829  1.0452
  377MOL0     H51997   9.369   5.939   8.287 -0.6033 -0.9234  0.0049
  377MOL0     H51998   9.346   6.076   8.013 -0.3089  1.9548  0.3706
  377MOL0     H51999   9.380   6.152   8.160  3.5917 -1.1016  3.6450
  377MOL0     H52000   9.559   5.967   8.019 -2.3275 -0.3664  0.0720
  377MOL0     H52001   9.596   6.042   8.177 -1.4914  0.2206  0.8768
  377MOL0     H52002   9.658   6.222   8.083 -1.3516 -0.7252  2.2562
  377MOL0     H52003   9.510   6.243   7.987 -0.1283  0.1829  0.4474
  377MOL0     H52004   9.687   6.217   7.827 -2.6977  1.6805  0.0977
  377MOL0     H52005   9.591   6.074   7.820  0.3752 -0.8114  0.5787
  377MOL0     H52006   9.151   5.857   8.647 -0.7956  0.7211  0.0872
  377MOL0     H52007   9.075   5.832   8.882 -1.9771  0.5060 -0.2605
  377MOL0     H52008   8.696   5.701   9.120  1.6754  1.4802  0.2452
  377MOL0     H52009   8.572   5.718   9.331  0.7335 -2.0801 -0.1754
  377MOL0     H52010   7.278   5.711  10.104 -0.7779 -0.5135  3.4508
  377MOL0     H52011   7.074   5.632  10.025  1.5998 -0.2308  1.7824
  377MOL0     H52012   6.585   5.816  10.040  3.9331 -0.5224 -1.8874
  377MOL0     H52013   6.357   5.757  10.030  1.6867  1.6758  1.2522
  377MOL0     H52014   6.126   5.665   9.943 -0.0909  0.1940 -0.8337
  377MOL0     H52015   6.064   5.497   9.935  1.0333 -1.2740 -0.1011
  377MOL0     H52016   6.215   5.647  10.165 -1.0939  0.1514  0.3068
  377MOL0     H52017   6.195   5.473  10.166  1.6738  0.2880  0.2071
  377MOL0     H52018   5.977   5.677  10.173 -1.1826 -0.0104  3.6201
  377MOL0     H52019   5.941   5.514  10.117  1.5561 -3.7307  1.5275
  377MOL0     H52020   6.066   5.565  10.393  2.4089 -2.5677  0.5743
  377MOL0     H52021   6.023   5.412  10.328  0.0764 -1.3468  0.9116
  377MOL0     H52022   5.637   5.573  10.434 -0.2947  2.4423  0.5739
  377MOL0     H52023   6.468   5.375   9.854  0.3957  0.0175 -3.3175
  377MOL0     H52024   6.683   5.306   9.861 -1.1244  0.4683 -2.8295
  377MOL0     H52025   6.759   5.427   9.752  1.1647 -0.9964 -0.3127
  377MOL0     H52026   6.805   5.420   9.925 -2.2023 -0.8663  2.3456
  378MOL0     O52027   6.310   8.398   3.372  0.2156  0.4882 -0.3337
  378MOL0     C52028   6.296   8.377   3.488  0.0897  0.1164 -0.5669
  378MOL0     O52029   6.384   8.310   3.562  1.0066  0.0332  0.5186
  378MOL0     C52030   6.474   8.232   3.495  0.0774  0.6823 -0.4772
  378MOL0     C52031   6.438   8.109   3.444  0.5129 -1.0252 -0.4400
  378MOL0     C52032   6.522   8.018   3.377  0.1634  0.0986  0.4227
  378MOL0     C52033   6.658   8.050   3.365 -0.0224  0.8645 -0.3060
  378MOL0     O52034   6.734   7.954   3.298  0.1890  0.1544  1.0548
  378MOL0     C52035   6.874   7.973   3.273 -0.0212 -0.7389  0.2008
  378MOL0     C52036   6.944   7.879   3.166  0.8182  0.0214 -0.1937
  378MOL0     C52037   6.892   7.735   3.188 -0.5393 -0.3241 -0.0605
  378MOL0     C52038   6.954   7.682   3.319  0.2349 -0.1130 -0.3622
  378MOL0     C52039   6.921   7.528   3.347  0.5624  0.0980  0.1520
  378MOL0     C52040   6.768   7.498   3.367 -0.6087  0.4133  0.1150
  378MOL0     C52041   6.702   7.591   3.466 -0.3384  0.1853 -0.6869
  378MOL0     C52042   6.758   7.573   3.603  0.8943  0.8221  0.7735
  378MOL0     N52043   6.848   7.671   3.649  0.2131 -0.0501  0.2509
  378MOL0     C52044   6.972   7.652   3.689 -0.0809  1.1323  0.4702
  378MOL0     C52045   7.021   7.768   3.736 -0.1359 -0.5162 -0.7559
  378MOL0     C52046   7.165   7.793   3.783  0.8295  0.2023  0.5769
  378MOL0     C52047   7.252   7.876   3.679  0.4409  1.0040  0.9478
  378MOL0     C52048   7.289   7.790   3.558 -0.1779 -0.5814 -0.3735
  378MOL0     C52049   7.437   7.757   3.556 -0.5658  0.1743 -0.1503
  378MOL0     O52050   7.451   7.667   3.673 -0.0896 -0.0052  0.6255
  378MOL0     C52051   7.574   7.618   3.697 -0.7431 -0.6789  0.8448
  378MOL0     C52052   7.583   7.533   3.808 -0.8646 -0.5875  0.5047
  378MOL0     C52053   7.701   7.458   3.837  0.4386  0.0056  0.6657
  378MOL0     C52054   7.687   7.347   3.938 -0.6462  0.2944 -0.3536
  378MOL0     C52055   7.818   7.491   3.765 -0.0617  0.3631  0.9604
  378MOL0     C52056   7.953   7.449   3.803 -0.4918 -0.1875  0.1542
  378MOL0     O52057   8.056   7.504   3.723 -0.3795  0.1753  0.5037
  378MOL0     C52058   8.175   7.444   3.740  0.5984  0.6084  0.0085
  378MOL0     C52059   8.256   7.470   3.846 -0.3348  0.2046  0.2208
  378MOL0     C52060   8.382   7.409   3.854  0.2663  0.6388  0.8027
  378MOL0     C52061   8.430   7.322   3.761  0.0399  0.0392  1.2658
  378MOL0     O52062   8.553   7.264   3.783 -0.4536 -0.1431 -0.2619
  378MOL0     C52063   8.632   7.234   3.668 -0.8754  0.0246  1.0009
  378MOL0     C52064   8.763   7.178   3.725 -0.5361 -0.2555 -0.2016
  378MOL0     C52065   8.864   7.134   3.616  0.4026  0.3292  0.0235
  378MOL0     C52066   8.873   7.238   3.506 -0.6931  0.8290  0.3614
  378MOL0     C52067   8.990   7.201   3.408  1.1565  0.2510  0.7166
  378MOL0     C52068   9.013   7.310   3.303  1.4436  0.4879 -0.4032
  378MOL0     C52069   9.134   7.269   3.214 -0.4950 -0.7486  0.2418
  378MOL0     C52070   9.180   7.401   3.160  0.6039  0.5967 -0.1323
  378MOL0    Cl52071   9.322   7.368   3.066  0.2434 -0.3245 -0.5772
  378MOL0     C52072   8.345   7.296   3.654 -0.0734 -0.1913 -0.5640
  378MOL0     C52073   8.216   7.346   3.650  0.0410  1.0147  0.0843
  378MOL0     O52074   7.962   7.356   3.882  0.7880  0.1235 -0.5390
  378MOL0     C52075   7.810   7.597   3.663  0.3065  0.3685  0.2994
  378MOL0     C52076   7.695   7.664   3.634  0.9757 -0.5355 -0.5144
  378MOL0     N52077   6.920   7.864   3.731 -0.4771 -0.2730  0.2120
  378MOL0     N52078   6.813   7.800   3.682  0.3361 -0.2967  0.1395
  378MOL0     C52079   6.701   8.179   3.416 -0.0680  0.6687  0.5458
  378MOL0     C52080   6.610   8.264   3.485 -0.7309  0.5889  0.3675
  378MOL0     C52081   6.184   8.435   3.562 -0.8780  0.0533  0.2409
  378MOL0     C52082   6.123   8.558   3.530 -0.1075  0.4002  0.4117
  378MOL0     C52083   6.003   8.603   3.577  0.4033 -0.0427 -0.0429
  378MOL0     C52084   5.933   8.516   3.664 -0.6104  0.7624 -0.4321
  378MOL0     O52085   5.802   8.549   3.711  0.2867  0.2855 -0.4281
  378MOL0     C52086   5.746   8.675   3.682 -0.1415 -0.5959 -0.7842
  378MOL0     C52087   5.613   8.668   3.753  0.3099  0.1106 -0.5558
  378MOL0     C52088   5.519   8.570   3.691  0.0845  0.1809 -0.4849
  378MOL0     C52089   5.376   8.598   3.747  0.4570 -0.1853  0.8854
  378MOL0     C52090   5.363   8.553   3.880  0.3715  0.7920 -0.7593
  378MOL0     C52091   5.353   8.528   3.997 -0.3117  0.2966 -0.1853
  378MOL0     C52092   5.990   8.397   3.703 -0.4706 -0.2242  0.5036
  378MOL0     C52093   6.114   8.353   3.651 -0.0208  0.6962  0.1261
  378MOL0     C52094   6.153   8.224   3.708 -0.3116 -0.3252 -0.2359
  378MOL0     H52095   6.337   8.074   3.462  0.2662 -0.0908  0.0346
  378MOL0     H52096   6.488   7.928   3.328 -1.8064  1.7292 -1.3854
  378MOL0     H52097   6.931   7.973   3.367  1.5357  1.8977 -0.6455
  378MOL0     H52098   6.902   8.071   3.235 -1.8258 -0.6887 -1.1506
  378MOL0     H52099   6.927   7.906   3.061 -1.1258  0.0728  0.0878
  378MOL0     H52100   7.051   7.894   3.180  0.7801  0.8298 -0.6918
  378MOL0     H52101   6.783   7.725   3.180 -0.3638 -1.2702 -1.5394
  378MOL0     H52102   6.920   7.666   3.108 -0.2423  1.3331 -1.4285
  378MOL0     H52103   7.062   7.700   3.319  0.1916  0.8633 -3.7698
  378MOL0     H52104   6.917   7.741   3.403  0.8463 -0.3521  0.0830
  378MOL0     H52105   6.977   7.499   3.436  2.2379 -0.2476 -0.9750
  378MOL0     H52106   6.967   7.466   3.269 -0.1272 -1.2578  0.7748
  378MOL0     H52107   6.707   7.509   3.277 -0.8264  1.8926  0.4150
  378MOL0     H52108   6.743   7.396   3.396  2.3975 -1.0554 -1.9577
  378MOL0     H52109   6.600   7.553   3.466 -0.3199  0.1328 -1.1455
  378MOL0     H52110   6.701   7.700   3.456  0.0952  0.1936 -0.6593
  378MOL0     H52111   6.673   7.563   3.670 -0.7248  0.1141 -1.2996
  378MOL0     H52112   6.821   7.485   3.618 -0.9478 -0.3939  1.6990
  378MOL0     H52113   7.036   7.563   3.693 -1.4805  0.1136  0.9056
  378MOL0     H52114   7.215   7.697   3.795  2.1494  0.8919  0.8073
  378MOL0     H52115   7.157   7.844   3.880 -0.9960 -3.3422  2.4711
  378MOL0     H52116   7.197   7.966   3.652 -0.1540  0.6107  0.8281
  378MOL0     H52117   7.342   7.907   3.732  1.1007 -1.2589  1.2701
  378MOL0     H52118   7.227   7.701   3.550  0.7721 -1.1289 -2.2720
  378MOL0     H52119   7.269   7.857   3.473 -0.0711  1.3566  1.0505
  378MOL0     H52120   7.462   7.696   3.468  2.0255 -0.0294  0.6659
  378MOL0     H52121   7.498   7.846   3.570 -1.3707  0.7048  0.0540
  378MOL0     H52122   7.496   7.514   3.868 -0.5143 -0.9384  0.9090
  378MOL0     H52123   7.580   7.325   3.946 -0.2966 -1.3612  0.0889
  378MOL0     H52124   7.733   7.378   4.032  0.5757 -3.2658  0.3651
  378MOL0     H52125   7.742   7.259   3.903  0.6173  1.3361 -1.0925
  378MOL0     H52126   8.220   7.546   3.915 -2.5848  0.5432 -1.2305
  378MOL0     H52127   8.438   7.441   3.942 -2.5176  0.4889  2.7499
  378MOL0     H52128   8.580   7.152   3.618 -2.2420  1.1720  0.4734
  378MOL0     H52129   8.644   7.313   3.594 -1.7653  1.6208  2.4796
  378MOL0     H52130   8.807   7.247   3.798 -0.0659  0.7751 -1.4062
  378MOL0     H52131   8.744   7.087   3.782 -3.4947  0.2903 -0.1397
  378MOL0     H52132   8.825   7.043   3.571  1.9901 -1.7596  2.6070
  378MOL0     H52133   8.968   7.119   3.645  0.2023 -2.4021 -0.4563
  378MOL0     H52134   8.890   7.336   3.552 -1.2125  1.6014 -1.0125
  378MOL0     H52135   8.785   7.246   3.442  0.6132  2.4228 -1.3510
  378MOL0     H52136   9.086   7.194   3.461  1.7972  2.6727  0.0160
  378MOL0     H52137   8.960   7.114   3.349  1.2941  1.4888 -1.2489
  378MOL0     H52138   9.048   7.390   3.369  4.1109 -1.2305  0.4392
  378MOL0     H52139   8.924   7.332   3.243  0.6766 -0.2674  0.4352
  378MOL0     H52140   9.115   7.202   3.130  1.6235  0.1365 -1.0130
  378MOL0     H52141   9.211   7.229   3.281 -3.4520 -3.8876  2.0941
  378MOL0     H52142   9.191   7.485   3.230 -4.1896  2.7550 -1.5542
  378MOL0     H52143   9.105   7.435   3.089  0.0805 -0.8432 -0.2959
  378MOL0     H52144   8.384   7.220   3.588  1.0689 -0.8266  0.7967
  378MOL0     H52145   8.165   7.322   3.558  0.5973  2.1969 -0.5588
  378MOL0     H52146   7.894   7.607   3.595  1.1586 -1.2424  1.0568
  378MOL0     H52147   7.698   7.745   3.563 -0.4153  3.6909  3.6850
  378MOL0     H52148   6.804   8.210   3.421  0.3966 -0.5769 -0.7439
  378MOL0     H52149   6.652   8.355   3.527 -1.0540  0.3520  1.2278
  378MOL0     H52150   6.176   8.614   3.454 -2.2400  1.4180 -0.4168
  378MOL0     H52151   5.970   8.701   3.544  1.1187 -0.2997 -1.6170
  378MOL0     H52152   5.816   8.749   3.723  0.4519 -1.8295  0.5407
  378MOL0     H52153   5.732   8.693   3.575 -1.6757 -0.4258 -0.5821
  378MOL0     H52154   5.568   8.768   3.748 -3.7800 -1.4189  1.2885
  378MOL0     H52155   5.628   8.645   3.859  1.7885 -1.6068 -1.0823
  378MOL0     H52156   5.512   8.580   3.582 -1.4821 -1.2122 -0.5523
  378MOL0     H52157   5.555   8.469   3.714  1.0661  0.2144 -1.7438
  378MOL0     H52158   5.313   8.544   3.676  3.5701  0.2867 -2.5549
  378MOL0     H52159   5.355   8.705   3.739  0.8628 -0.0919  1.0727
  378MOL0     H52160   5.351   8.485   4.095  1.9073 -1.4861 -0.8391
  378MOL0     H52161   5.931   8.333   3.769  0.6144 -1.4021  0.3627
  378MOL0     H52162   6.169   8.147   3.632  0.5120 -2.1190  1.6599
  378MOL0     H52163   6.253   8.239   3.751  1.2667 -3.0720 -2.5789
  378MOL0     H52164   6.083   8.181   3.780 -2.1747  0.7132 -1.3438
  379MOL0     O52165  10.109   9.046   5.650 -0.3728 -0.1766  0.3732
  379MOL0     C52166  10.115   8.953   5.729  0.6197  0.4077  0.3291
  379MOL0     O52167  10.224   8.865   5.741 -0.3761 -0.4556 -0.3117
  379MOL0     C52168  10.322   8.882   5.647  0.1669 -0.3536 -0.1759
  379MOL0     C52169  10.341   8.793   5.541  0.9172  0.2429 -0.8410
  379MOL0     C52170  10.443   8.801   5.452 -0.0244  0.0916  0.7808
  379MOL0     C52171  10.541   8.905   5.468  0.5279 -0.0973  0.2134
  379MOL0     O52172  10.654   8.901   5.388 -0.1249 -0.9744  0.0256
  379MOL0     C52173  10.776   8.960   5.441 -0.0970 -0.0647  0.4100
  379MOL0     C52174  10.890   8.891   5.385  0.0567 -0.1942  0.5451
  379MOL0     C52175  10.894   8.885   5.232 -0.1698 -0.3536  0.2212
  379MOL0     C52176  10.893   9.023   5.169 -0.8434 -0.9321 -0.7359
  379MOL0     C52177  10.962   9.014   5.031 -0.5923 -0.4778  0.0488
  379MOL0     C52178  10.868   8.959   4.928  0.1560  0.4811 -0.3538
  379MOL0     C52179  10.900   8.995   4.785 -0.7370  0.5236  0.2943
  379MOL0     C52180  10.782   8.972   4.691 -0.1020 -0.0287 -0.1949
  379MOL0     N52181  10.813   9.028   4.557  0.4226  0.1690  0.5030
  379MOL0     C52182  10.871   8.964   4.447 -0.3945 -0.6031  0.0233
  379MOL0     C52183  10.883   9.066   4.354  0.2461 -0.5939  0.5247
  379MOL0     C52184  10.939   9.036   4.219  0.1447 -0.7619  0.5539
  379MOL0     C52185  10.831   9.000   4.120  0.8282  0.7624  0.6834
  379MOL0     C52186  10.888   8.986   3.980  0.4673 -0.0078  0.3022
  379MOL0     C52187  10.953   9.113   3.928 -0.2266  0.7868  0.2209
  379MOL0     O52188  10.883   9.221   3.970  0.1688 -0.2308  0.1596
  379MOL0     C52189  10.948   9.343   3.957  0.2960  0.4632  0.2921
  379MOL0     C52190  10.934   9.425   4.067 -1.1087 -0.2548  0.3297
  379MOL0     C52191  11.001   9.549   4.064 -0.5448  1.4260  0.2002
  379MOL0     C52192  11.009   9.618   4.199 -0.1976 -0.3365  0.5423
  379MOL0     C52193  11.069   9.594   3.952  1.1167  0.6841  0.3576
  379MOL0     C52194  11.136   9.730   3.939 -0.4440  0.3598  0.1749
  379MOL0     O52195  11.204   9.760   3.821 -0.4298 -0.5668 -0.0816
  379MOL0     C52196  11.294   9.862   3.823 -0.5548 -0.4397 -0.2702
  379MOL0     C52197  11.307   9.923   3.700 -0.3031  0.0541 -0.6275
  379MOL0     C52198  11.402  10.025   3.685 -0.0371  0.7492  0.2004
  379MOL0     C52199  11.501  10.041   3.783  0.3122  0.0583  0.1361
  379MOL0     O52200  11.606  10.125   3.750  0.5203  0.5536  0.0174
  379MOL0     C52201  11.655  10.210   3.855 -0.1528  0.0646  0.3940
  379MOL0     C52202  11.803  10.184   3.887 -0.5604 -0.2993  0.6403
  379MOL0     C52203  11.873  10.298   3.959 -1.2087  0.5915 -0.2941
  379MOL0     C52204  12.020  10.284   3.979  0.4279  0.0594 -0.4565
  379MOL0     C52205  12.054  10.383   4.088  0.0274  0.3248  0.7975
  379MOL0     C52206  12.204  10.426   4.074  0.9427  0.6792  0.6444
  379MOL0     C52207  12.244  10.521   4.184  0.5114 -1.0028  0.4347
  379MOL0     C52208  12.372  10.598   4.147 -0.5501 -0.0927  0.5759
  379MOL0    Cl52209  12.513  10.485   4.148  0.0324  0.4869  0.0883
  379MOL0     C52210  11.488   9.972   3.900  0.2402  0.0847 -0.0558
  379MOL0     C52211  11.380   9.894   3.931  0.5089 -0.3054 -0.3948
  379MOL0     O52212  11.111   9.810   4.027  0.0875 -0.2443 -0.1453
  379MOL0     C52213  11.087   9.501   3.846  0.1444 -0.5125  0.2546
  379MOL0     C52214  11.020   9.383   3.844 -0.1363  0.8331 -0.2949
  379MOL0     N52215  10.846   9.184   4.407 -0.6222 -0.3494 -0.0203
  379MOL0     N52216  10.804   9.159   4.526  0.1582 -0.8150  0.3439
  379MOL0     C52217  10.522   8.997   5.578 -0.5056 -0.7822  0.3070
  379MOL0     C52218  10.413   8.983   5.661  0.3803 -0.6378 -0.1218
  379MOL0     C52219   9.998   8.936   5.813 -0.8271  0.1653 -0.1400
  379MOL0     C52220   9.895   9.035   5.814  0.0095  0.2973 -0.1300
  379MOL0     C52221   9.781   9.026   5.892 -0.2199  0.2046  0.0275
  379MOL0     C52222   9.757   8.915   5.977 -0.4825 -0.4968  0.5484
  379MOL0     O52223   9.635   8.914   6.056 -0.9742  0.3458 -0.3943
  379MOL0     C52224   9.650   9.017   6.155 -1.3684 -0.0889  0.6171
  379MOL0     C52225   9.560   8.969   6.268 -0.3529  0.0497  0.8942
  379MOL0     C52226   9.411   8.944   6.249 -1.6748 -0.5727 -0.0035
  379MOL0     C52227   9.330   9.060   6.178 -1.2401 -0.5266 -0.6557
  379MOL0     C52228   9.191   9.015   6.160 -0.1699  0.3204  0.0057
  379MOL0     C52229   9.069   8.983   6.154 -0.3643 -0.5693 -0.7910
  379MOL0     C52230   9.850   8.807   5.970 -0.3885  0.3943  0.0175
  379MOL0     C52231   9.973   8.820   5.894  0.5919 -0.3309  0.1977
  379MOL0     C52232  10.064   8.699   5.899 -0.5405 -0.6833 -1.0717
  379MOL0     H52233  10.271   8.712   5.531  0.1944  0.8352 -0.6715
  379MOL0     H52234  10.469   8.726   5.378 -0.4621  1.1889 -0.5345
  379MOL0     H52235  10.779   8.949   5.550  0.5618 -0.6985  0.3387
  379MOL0     H52236  10.783   9.066   5.412 -0.9282 -0.1782 -0.2182
  379MOL0     H52237  10.974   8.944   5.430  0.8986 -1.9813  1.1579
  379MOL0     H52238  10.889   8.787   5.418  0.8866 -1.3388 -2.6348
  379MOL0     H52239  10.986   8.838   5.196  1.5208  4.4306 -2.7385
  379MOL0     H52240  10.809   8.833   5.188  1.1061 -0.9027 -1.7219
  379MOL0     H52241  10.787   9.049   5.162 -0.7897 -0.8725 -1.3993
  379MOL0     H52242  10.953   9.096   5.224 -1.5689 -0.7632 -0.1442
  379MOL0     H52243  11.060   8.965   5.032 -0.5361 -0.3983 -0.9704
  379MOL0     H52244  10.980   9.120   5.011  0.2665 -0.1946  2.0174
  379MOL0     H52245  10.865   8.851   4.946  2.5245  0.9092  4.0824
  379MOL0     H52246  10.777   9.015   4.945  1.4726  2.1578  1.5817
  379MOL0     H52247  10.982   8.933   4.749 -0.6638  0.6126  0.3109
  379MOL0     H52248  10.927   9.101   4.777  0.7952  0.0487 -1.3982
  379MOL0     H52249  10.760   8.866   4.679 -2.4061  0.7226 -5.4420
  379MOL0     H52250  10.690   9.024   4.721  1.7498  3.3340  0.1299
  379MOL0     H52251  10.891   8.857   4.440  0.3586 -0.6464  2.0647
  379MOL0     H52252  11.002   8.947   4.229 -0.1113 -1.1521 -1.0789
  379MOL0     H52253  10.996   9.117   4.172 -0.9478 -0.0765  0.3899
  379MOL0     H52254  10.782   8.907   4.149 -2.1525  2.6152  2.1515
  379MOL0     H52255  10.751   9.075   4.120  0.1016  0.0217 -0.7900
  379MOL0     H52256  10.952   8.897   3.979  2.9763  1.6097  2.8448
  379MOL0     H52257  10.805   8.963   3.913 -1.0846 -0.2489  2.2425
  379MOL0     H52258  11.052   9.114   3.974  0.1886  0.9011 -0.6544
  379MOL0     H52259  10.963   9.117   3.819 -1.4478 -0.6982  0.0093
  379MOL0     H52260  10.889   9.396   4.162  1.6501  1.8465  2.4369
  379MOL0     H52261  11.116   9.626   4.219 -0.3962 -0.4010  1.6977
  379MOL0     H52262  10.958   9.557   4.274  2.9585 -3.8492  0.1189
  379MOL0     H52263  10.967   9.718   4.183 -0.9318 -0.3870  2.0385
  379MOL0     H52264  11.238   9.898   3.620 -0.7145 -0.4469 -0.1193
  379MOL0     H52265  11.401  10.078   3.591  1.6001 -1.6780 -1.3014
  379MOL0     H52266  11.647  10.317   3.833  0.3874 -0.1635 -1.0903
  379MOL0     H52267  11.595  10.204   3.946  0.1645  0.8431  0.6625
  379MOL0     H52268  11.814  10.098   3.954  1.4892 -1.9193 -1.5599
  379MOL0     H52269  11.860  10.161   3.796 -1.3228 -0.1514  0.1222
  379MOL0     H52270  11.827  10.324   4.054  0.5801 -0.1821  0.8522
  379MOL0     H52271  11.867  10.388   3.898  1.3798 -0.3831 -2.1999
  379MOL0     H52272  12.067  10.299   3.881 -1.2056 -0.4294 -1.3532
  379MOL0     H52273  12.047  10.183   4.012 -1.0138 -0.4828 -0.8681
  379MOL0     H52274  11.996  10.475   4.080 -1.1135 -0.4890 -0.7687
  379MOL0     H52275  12.033  10.342   4.188 -2.0663  0.2005  0.3403
  379MOL0     H52276  12.224  10.468   3.975 -1.4976 -1.9770 -1.1232
  379MOL0     H52277  12.266  10.336   4.074  0.2841  0.1680 -1.5879
  379MOL0     H52278  12.267  10.467   4.276 -0.0042 -0.8152  0.6794
  379MOL0     H52279  12.164  10.593   4.203  2.1116  0.4250  2.0315
  379MOL0     H52280  12.399  10.681   4.214 -1.3147 -1.2986  2.4819
  379MOL0     H52281  12.355  10.637   4.047 -1.6204 -0.1859  0.7137
  379MOL0     H52282  11.560   9.979   3.981  1.2750 -1.3468 -0.8054
  379MOL0     H52283  11.374   9.854   4.031  0.5819 -2.8964 -1.3360
  379MOL0     H52284  11.142   9.525   3.755 -0.4147 -0.7612 -0.1581
  379MOL0     H52285  11.027   9.326   3.751 -0.0808 -0.1126  0.2765
  379MOL0     H52286  10.590   9.071   5.619 -0.2299 -1.1411  0.5057
  379MOL0     H52287  10.394   9.045   5.748  1.8313 -1.2311  0.6580
  379MOL0     H52288   9.908   9.114   5.741  2.0946 -1.1040 -1.3756
  379MOL0     H52289   9.711   9.108   5.886 -0.1532  0.1189 -3.3449
  379MOL0     H52290   9.752   9.024   6.194 -0.7279 -1.6905 -0.6381
  379MOL0     H52291   9.615   9.115   6.122 -1.9870 -1.2568 -2.5898
  379MOL0     H52292   9.583   9.033   6.354  1.8344  1.2943 -0.5011
  379MOL0     H52293   9.612   8.876   6.295  1.1431 -1.1763 -4.8318
  379MOL0     H52294   9.391   8.850   6.197  1.1669 -0.0100 -2.3933
  379MOL0     H52295   9.376   8.918   6.349 -1.0960 -0.5736  0.2053
  379MOL0     H52296   9.375   9.058   6.079  0.3929 -3.3437  0.0430
  379MOL0     H52297   9.338   9.152   6.237  1.2017 -2.4896  2.4148
  379MOL0     H52298   8.968   8.946   6.149 -1.0256  0.6834  1.5106
  379MOL0     H52299   9.822   8.712   6.016 -3.6390 -1.6286 -5.1945
  379MOL0     H52300  10.004   8.619   5.944 -1.0856  1.1316  1.6910
  379MOL0     H52301  10.095   8.673   5.797 -1.0377 -3.3724 -0.6170
  379MOL0     H52302  10.151   8.724   5.961  0.0035 -1.2891 -1.5772
  380MOL0     O52303   6.632   5.729   6.219  0.4270 -0.1126 -0.5801
  380MOL0     C52304   6.670   5.617   6.208 -0.6615 -0.9938 -0.1838
  380MOL0     O52305   6.791   5.575   6.160  0.0112 -0.8834 -0.4574
  380MOL0     C52306   6.884   5.668   6.125  0.9558  0.1549 -0.7681
  380MOL0     C52307   6.998   5.683   6.198 -1.0686 -0.0845  0.5857
  380MOL0     C52308   7.098   5.777   6.164 -0.0088  0.5279 -0.4423
  380MOL0     C52309   7.075   5.865   6.059  0.4477  0.6929 -0.2150
  380MOL0     O52310   7.170   5.951   6.000  0.3246  0.7052  0.5295
  380MOL0     C52311   7.227   6.050   6.095 -0.7028  0.7311  0.2123
  380MOL0     C52312   7.200   6.187   6.033  0.4468 -0.2017  0.3665
  380MOL0     C52313   7.266   6.289   6.134  1.1843  0.9838  0.3192
  380MOL0     C52314   7.249   6.431   6.078 -0.2372  0.3977  0.3334
  380MOL0     C52315   7.289   6.527   6.188 -0.1972  0.0856 -1.2419
  380MOL0     C52316   7.325   6.665   6.133 -0.0043 -0.2816 -0.0348
  380MOL0     C52317   7.202   6.735   6.064 -0.5669 -0.3362 -0.7217
  380MOL0     C52318   7.234   6.879   6.033  0.1870  0.0052 -0.3075
  380MOL0     N52319   7.248   6.964   6.158 -0.0003 -0.0794  0.5233
  380MOL0     C52320   7.146   7.005   6.245  0.3202  0.6293 -0.9941
  380MOL0     C52321   7.206   7.083   6.336  0.2141  0.3264 -0.7362
  380MOL0     C52322   7.147   7.142   6.457 -0.8062 -0.2001 -0.3661
  380MOL0     C52323   7.107   7.289   6.446 -0.0883  0.7110  0.4709
  380MOL0     C52324   7.003   7.315   6.333  0.0848  0.0787  0.2188
  380MOL0     C52325   6.966   7.466   6.301  1.0237  0.1203 -0.9062
  380MOL0     O52326   6.871   7.470   6.192  0.0345 -0.1702 -0.7558
  380MOL0     C52327   6.738   7.445   6.225  0.0300  0.9457  0.4951
  380MOL0     C52328   6.650   7.475   6.125  0.0535 -0.0990 -0.0132
  380MOL0     C52329   6.510   7.465   6.143  0.0010  1.1766 -0.0717
  380MOL0     C52330   6.418   7.514   6.033  0.4933  0.7239 -0.0325
  380MOL0     C52331   6.458   7.418   6.268  0.6467  0.4482  0.1036
  380MOL0     C52332   6.315   7.387   6.296  0.2139 -0.9324 -0.1654
  380MOL0     O52333   6.275   7.387   6.425 -0.4289  0.0262 -0.8598
  380MOL0     C52334   6.145   7.403   6.461  0.2600 -0.2094 -0.0107
  380MOL0     C52335   6.057   7.291   6.484  0.1893  0.0652 -0.8859
  380MOL0     C52336   5.928   7.305   6.523  0.1356 -0.1926 -0.2015
  380MOL0     C52337   5.873   7.425   6.548 -0.0123 -0.2791  0.0911
  380MOL0     O52338   5.741   7.435   6.568  0.1920 -0.3223  0.1765
  380MOL0     C52339   5.671   7.558   6.545 -0.1596 -0.0568 -0.5124
  380MOL0     C52340   5.519   7.558   6.585 -0.9585 -0.2241  0.3295
  380MOL0     C52341   5.485   7.487   6.717 -0.0694 -0.0271  0.4371
  380MOL0     C52342   5.337   7.508   6.762 -0.3924 -0.1561 -0.4916
  380MOL0     C52343   5.226   7.437   6.682 -0.3572 -0.1463  0.4936
  380MOL0     C52344   5.171   7.521   6.572  0.1197  0.2622 -0.5632
  380MOL0     C52345   5.046   7.457   6.527 -0.1660 -0.0078  0.8859
  380MOL0     C52346   4.981   7.545   6.415  0.3933 -0.7271 -0.6074
  380MOL0    Cl52347   4.843   7.463   6.327 -0.0243 -0.0794 -0.2709
  380MOL0     C52348   5.959   7.544   6.535 -0.0886  0.7225 -1.2895
  380MOL0     C52349   6.092   7.531   6.501 -0.1450  0.7313  0.6900
  380MOL0     O52350   6.237   7.373   6.199  0.7053 -0.1387 -0.3970
  380MOL0     C52351   6.547   7.389   6.366  0.4435  0.1200 -0.7584
  380MOL0     C52352   6.682   7.401   6.351 -0.0309 -0.5179  0.6576
  380MOL0     N52353   7.333   7.103   6.288  0.6590 -0.4282 -0.1518
  380MOL0     N52354   7.363   7.027   6.192 -0.5952  0.0923 -0.4605
  380MOL0     C52355   6.965   5.842   5.978 -0.2578 -0.2853 -0.0013
  380MOL0     C52356   6.867   5.750   6.015  0.0660  0.0011 -0.2742
  380MOL0     C52357   6.580   5.504   6.227 -0.0485 -0.2704 -0.7216
  380MOL0     C52358   6.612   5.406   6.329 -0.5922  0.4581 -0.3276
  380MOL0     C52359   6.523   5.310   6.374 -0.4148  0.0422 -0.1036
  380MOL0     C52360   6.397   5.313   6.313  0.5443 -0.0755  0.1104
  380MOL0     O52361   6.289   5.233   6.355  0.0554 -0.2155  0.0741
  380MOL0     C52362   6.310   5.122   6.440  0.1867  0.1415 -0.2627
  380MOL0     C52363   6.172   5.057   6.478  0.1388  0.1950 -0.3919
  380MOL0     C52364   6.071   5.137   6.564 -0.7001 -0.2200 -0.6580
  380MOL0     C52365   5.970   5.047   6.633 -0.5234 -0.2812  0.5218
  380MOL0     C52366   5.887   4.990   6.520  0.9849  0.8165 -0.6355
  380MOL0     C52367   5.820   4.939   6.428  0.3816 -0.3402 -1.1246
  380MOL0     C52368   6.364   5.402   6.202  0.5548 -1.3560 -0.0426
  380MOL0     C52369   6.465   5.492   6.153 -0.1957 -0.0446  0.1460
  380MOL0     C52370   6.420   5.580   6.038 -0.1938 -0.3829  0.2707
  380MOL0     H52371   7.017   5.616   6.281  0.1987 -0.4128  0.0468
  380MOL0     H52372   7.187   5.805   6.219 -0.1876 -0.2625  0.2602
  380MOL0     H52373   7.335   6.037   6.104 -0.9926 -1.4748  1.3417
  380MOL0     H52374   7.188   6.045   6.197 -1.5409  3.1226  0.0679
  380MOL0     H52375   7.256   6.205   5.941 -0.7798 -2.1240 -0.8229
  380MOL0     H52376   7.091   6.197   6.024  0.5075  1.4439  1.1143
  380MOL0     H52377   7.209   6.286   6.227 -0.3227 -0.4164 -0.5892
  380MOL0     H52378   7.368   6.258   6.156  0.6641 -1.1146 -0.0048
  380MOL0     H52379   7.314   6.455   5.994 -0.1416  0.4144  0.4116
  380MOL0     H52380   7.143   6.444   6.053 -0.6070 -3.2720 -0.6629
  380MOL0     H52381   7.382   6.488   6.232 -1.5122 -0.9349  0.7578
  380MOL0     H52382   7.214   6.542   6.266  1.3765 -0.6724  0.4913
  380MOL0     H52383   7.359   6.728   6.216  0.1627 -1.9327  1.2070
  380MOL0     H52384   7.407   6.659   6.061  0.1197  1.2552 -0.0408
  380MOL0     H52385   7.106   6.718   6.113 -0.6648  1.8996 -0.0349
  380MOL0     H52386   7.199   6.690   5.964 -1.3083 -0.5449 -0.6070
  380MOL0     H52387   7.333   6.875   5.987  0.6311 -0.7552  0.6699
  380MOL0     H52388   7.160   6.918   5.962  0.8519 -0.7340 -1.4444
  380MOL0     H52389   7.043   6.978   6.264  0.0139  1.7980 -0.8930
  380MOL0     H52390   7.227   7.135   6.531 -0.4132 -2.6176 -0.9392
  380MOL0     H52391   7.058   7.092   6.496 -0.3574 -0.8998 -0.2183
  380MOL0     H52392   7.073   7.320   6.546  1.1578 -1.4210  1.6254
  380MOL0     H52393   7.205   7.333   6.424  0.7487  0.5706  3.4556
  380MOL0     H52394   7.029   7.259   6.243  2.3489 -3.3518  2.7687
  380MOL0     H52395   6.916   7.258   6.366 -0.1602  1.7521  2.7683
  380MOL0     H52396   6.931   7.520   6.389 -2.1233  0.9487 -2.5275
  380MOL0     H52397   7.061   7.519   6.289  0.3046  1.8659  0.6294
  380MOL0     H52398   6.680   7.516   6.029 -1.4711 -0.8622 -0.8544
  380MOL0     H52399   6.354   7.591   6.079  1.6530  0.5417  2.0093
  380MOL0     H52400   6.364   7.426   5.998  0.7816  0.7261 -0.4784
  380MOL0     H52401   6.474   7.557   5.950 -1.1810 -0.0497 -1.6291
  380MOL0     H52402   6.083   7.191   6.449 -0.9885 -0.4090 -0.4461
  380MOL0     H52403   5.854   7.228   6.501 -1.5325  1.2893  0.0364
  380MOL0     H52404   5.719   7.642   6.596 -2.1165 -0.0097  1.4099
  380MOL0     H52405   5.674   7.582   6.438  2.5557  2.4320 -0.0009
  380MOL0     H52406   5.486   7.658   6.614 -1.6815 -0.4242  0.2053
  380MOL0     H52407   5.469   7.515   6.498  2.7436 -0.8080 -1.7183
  380MOL0     H52408   5.555   7.520   6.794  1.2860 -0.4934 -0.5410
  380MOL0     H52409   5.486   7.377   6.712 -0.3017 -0.0161  0.0711
  380MOL0     H52410   5.307   7.613   6.770 -0.0458 -0.1013  0.1395
  380MOL0     H52411   5.334   7.477   6.867 -0.3998  4.5091  1.1298
  380MOL0     H52412   5.249   7.341   6.636  2.3347 -0.3118  2.0176
  380MOL0     H52413   5.146   7.415   6.753 -0.1167  1.0571  1.1734
  380MOL0     H52414   5.253   7.541   6.502  0.3055  1.3622 -0.0655
  380MOL0     H52415   5.144   7.616   6.620 -2.1885 -0.6509  0.0798
  380MOL0     H52416   4.976   7.421   6.603 -1.3257  0.2454 -0.0340
  380MOL0     H52417   5.074   7.374   6.462  1.3160  2.2501 -1.5456
  380MOL0     H52418   5.049   7.585   6.339  0.9869  2.1473  1.2764
  380MOL0     H52419   4.948   7.638   6.462  1.8234 -1.3845  1.9288
  380MOL0     H52420   5.930   7.642   6.573  0.3921  1.0465 -1.7297
  380MOL0     H52421   6.150   7.622   6.487  0.2854  0.1283 -2.0220
  380MOL0     H52422   6.521   7.355   6.465  1.0951  2.2412  0.1959
  380MOL0     H52423   6.751   7.386   6.434 -0.0769  1.0934  1.0248
  380MOL0     H52424   6.936   5.912   5.900  0.0004 -0.7989 -0.5649
  380MOL0     H52425   6.771   5.759   5.967 -0.8088  1.8028  1.6407
  380MOL0     H52426   6.710   5.416   6.375 -1.5830  1.0794  1.7325
  380MOL0     H52427   6.544   5.258   6.467 -1.0036 -0.4513 -0.2433
  380MOL0     H52428   6.375   5.042   6.404  0.5955 -1.7236  3.9378
  380MOL0     H52429   6.359   5.162   6.529  0.3509  0.0501 -0.3120
  380MOL0     H52430   6.192   4.971   6.542 -2.4318 -1.7126 -1.9148
  380MOL0     H52431   6.126   5.010   6.390 -0.2079  1.1869 -0.7521
  380MOL0     H52432   6.128   5.192   6.639  0.8168 -2.5581  0.0142
  380MOL0     H52433   6.031   5.215   6.498  1.6403  3.1197  1.5373
  380MOL0     H52434   5.918   5.098   6.715 -0.0715  0.6424  0.2593
  380MOL0     H52435   6.028   4.968   6.681  2.0153  0.7496 -0.6259
  380MOL0     H52436   5.754   4.890   6.359 -1.7554  1.8688 -0.7823
  380MOL0     H52437   6.264   5.400   6.158  0.0011  0.4448  1.0212
  380MOL0     H52438   6.322   5.562   5.994 -0.0573 -2.7650  0.8026
  380MOL0     H52439   6.429   5.679   6.083  1.3385 -0.6380  0.6078
  380MOL0     H52440   6.487   5.581   5.951 -2.5736  1.6335 -1.6954
  381MOL0     O52441   4.693  11.221   4.799 -0.4652 -0.3199  0.1408
  381MOL0     C52442   4.666  11.154   4.898  0.1237  0.1127 -1.9907
  381MOL0     O52443   4.766  11.088   4.979  0.8827  0.2379  0.9447
  381MOL0     C52444   4.897  11.088   4.946  0.2989  0.2469  0.7505
  381MOL0     C52445   4.973  10.978   4.979 -0.5380  0.0875  0.0880
  381MOL0     C52446   5.108  10.971   4.942  1.0172 -0.0304 -0.3014
  381MOL0     C52447   5.175  11.079   4.880  0.1959  0.2950 -1.0727
  381MOL0     O52448   5.301  11.089   4.856 -0.1580 -0.1648  0.0130
  381MOL0     C52449   5.391  10.986   4.905 -0.3855  0.6374  0.2986
  381MOL0     C52450   5.537  11.029   4.857 -0.1794  0.1406  0.2788
  381MOL0     C52451   5.640  10.944   4.933  0.0862  0.3323 -0.4109
  381MOL0     C52452   5.646  10.962   5.086  0.2431 -0.3023  0.4569
  381MOL0     C52453   5.775  10.902   5.137 -0.4940 -0.1683 -0.2097
  381MOL0     C52454   5.798  10.954   5.284  0.2725 -0.3054  0.2019
  381MOL0     C52455   5.917  10.881   5.346  0.3552  0.2969  0.1658
  381MOL0     C52456   5.963  10.944   5.483 -0.1406 -0.4823 -0.3997
  381MOL0     N52457   6.072  10.872   5.551 -0.1422  0.1003  0.1191
  381MOL0     C52458   6.170  10.929   5.626  0.5514 -0.3708  0.4984
  381MOL0     C52459   6.223  10.832   5.706  0.0994  0.3078 -0.6938
  381MOL0     C52460   6.312  10.842   5.827 -0.7705  0.0387 -0.1492
  381MOL0     C52461   6.390  10.967   5.830 -0.4162  0.3289 -0.3850
  381MOL0     C52462   6.511  10.943   5.928 -1.2178  0.4000 -0.0812
  381MOL0     C52463   6.612  11.062   5.918 -0.6861  0.0996  0.1889
  381MOL0     O52464   6.742  11.028   5.966  0.0880 -0.2529  0.1195
  381MOL0     C52465   6.834  11.126   5.976 -0.0585  0.6593 -0.0186
  381MOL0     C52466   6.834  11.248   5.899 -0.3948 -1.0559 -0.0887
  381MOL0     C52467   6.951  11.328   5.898  0.3574 -1.1423  0.6771
  381MOL0     C52468   6.945  11.469   5.849  0.5872 -0.2328  0.8435
  381MOL0     C52469   7.064  11.287   5.972  0.1383 -0.1600  0.3094
  381MOL0     C52470   7.186  11.368   5.996 -1.5388  0.0334  0.4374
  381MOL0     O52471   7.243  11.364   6.118  0.5077  0.1258  0.3275
  381MOL0     C52472   7.368  11.410   6.139 -0.3458 -0.0042  0.3359
  381MOL0     C52473   7.470  11.365   6.050 -0.1774 -0.2613  1.6047
  381MOL0     C52474   7.603  11.410   6.068  0.0134 -0.8770  0.0301
  381MOL0     C52475   7.633  11.507   6.161 -0.7139  0.1603  0.1090
  381MOL0     O52476   7.767  11.535   6.157 -0.3645 -0.4274 -0.0825
  381MOL0     C52477   7.830  11.628   6.244 -0.1866  0.7561 -0.2555
  381MOL0     C52478   7.895  11.566   6.363 -1.3041  0.4383 -1.0503
  381MOL0     C52479   7.993  11.446   6.344  0.0284  0.4847 -0.8551
  381MOL0     C52480   8.126  11.490   6.271 -0.2898 -0.0335 -0.2949
  381MOL0     C52481   8.246  11.406   6.309  0.1711  0.1324  0.2251
  381MOL0     C52482   8.254  11.274   6.238 -0.2711  1.2276 -0.3144
  381MOL0     C52483   8.358  11.179   6.295 -0.7434  0.4150 -0.2292
  381MOL0     C52484   8.504  11.198   6.244 -0.8946 -0.2807  0.2866
  381MOL0    Cl52485   8.572  11.359   6.300  0.4442  0.2058  0.4993
  381MOL0     C52486   7.537  11.547   6.254  0.1086 -0.4706  0.0817
  381MOL0     C52487   7.405  11.499   6.245 -0.2262  0.7402 -0.9231
  381MOL0     O52488   7.228  11.440   5.904  0.5910 -0.0895 -0.3486
  381MOL0     C52489   7.050  11.181   6.065  0.2888  0.4413  0.2646
  381MOL0     C52490   6.937  11.101   6.061 -0.2481  0.9371  0.6780
  381MOL0     N52491   6.156  10.722   5.670 -0.1335 -0.6083 -0.1566
  381MOL0     N52492   6.071  10.735   5.573  0.2422  0.6049  0.5094
  381MOL0     C52493   5.092  11.188   4.836  0.5570  0.7631  0.6948
  381MOL0     C52494   4.956  11.190   4.870 -0.7684 -0.6360 -0.3576
  381MOL0     C52495   4.527  11.158   4.944 -0.0344 -0.3088  0.2058
  381MOL0     C52496   4.499  11.129   5.076 -0.9469 -0.5432  0.3163
  381MOL0     C52497   4.369  11.137   5.137 -0.3343  0.5554  1.5138
  381MOL0     C52498   4.262  11.162   5.048  0.6566  0.0157  0.1215
  381MOL0     O52499   4.135  11.146   5.092  0.5698  0.6081 -0.0350
  381MOL0     C52500   4.061  11.267   5.065  0.5697  0.1154 -0.2721
  381MOL0     C52501   3.990  11.298   5.196  0.8194 -0.4488  1.1630
  381MOL0     C52502   3.883  11.401   5.161 -0.0223  0.4908 -0.7824
  381MOL0     C52503   3.795  11.432   5.286  0.4866  0.2408 -0.3028
  381MOL0     C52504   3.708  11.322   5.339  0.7466 -0.5533  1.0900
  381MOL0     C52505   3.631  11.244   5.383  0.4970 -0.0189 -0.0550
  381MOL0     C52506   4.288  11.174   4.909  0.5708  0.5462 -0.4555
  381MOL0     C52507   4.417  11.180   4.856 -0.8747 -0.1724  0.2218
  381MOL0     C52508   4.431  11.206   4.710 -0.9139  0.2269  0.1137
  381MOL0     H52509   4.941  10.902   5.050  0.9513  1.4984  2.4178
  381MOL0     H52510   5.157  10.878   4.968 -1.3227 -0.9942  0.9100
  381MOL0     H52511   5.365  10.885   4.873  1.1980 -0.9326  3.4914
  381MOL0     H52512   5.389  10.981   5.015  1.6011  2.3886  0.4760
  381MOL0     H52513   5.551  11.017   4.749 -0.8525  0.1919  0.1812
  381MOL0     H52514   5.555  11.136   4.867  0.4716  0.4111 -2.8318
  381MOL0     H52515   5.617  10.839   4.912  0.1802 -0.1786  1.7832
  381MOL0     H52516   5.734  10.971   4.885 -0.7810 -0.4204 -2.6366
  381MOL0     H52517   5.641  11.070   5.105 -0.9467 -0.2874  0.1326
  381MOL0     H52518   5.567  10.914   5.145 -0.6995 -2.6969 -2.4863
  381MOL0     H52519   5.861  10.923   5.073  0.2451 -0.6881  0.5882
  381MOL0     H52520   5.756  10.794   5.140 -0.4516 -0.2357  4.3272
  381MOL0     H52521   5.817  11.062   5.278  0.8099 -0.4602 -1.0659
  381MOL0     H52522   5.704  10.944   5.339  0.0153 -0.2298 -0.2243
  381MOL0     H52523   6.007  10.883   5.283  1.0741  0.6770  1.1852
  381MOL0     H52524   5.884  10.778   5.362  2.3990 -0.1653  1.8366
  381MOL0     H52525   5.999  11.047   5.477  1.7969 -1.1134 -0.4606
  381MOL0     H52526   5.882  10.946   5.556 -0.8909 -1.9876 -1.1630
  381MOL0     H52527   6.189  11.034   5.644 -0.2549 -0.2976  0.9851
  381MOL0     H52528   6.375  10.752   5.819  0.7559  1.0733 -0.0568
  381MOL0     H52529   6.252  10.840   5.918 -0.9393  1.9901 -0.1808
  381MOL0     H52530   6.439  10.985   5.733 -0.0617  0.3806 -0.2011
  381MOL0     H52531   6.334  11.054   5.866 -1.4066 -0.2954 -0.3975
  381MOL0     H52532   6.480  10.932   6.033 -0.4227 -0.3002  0.0909
  381MOL0     H52533   6.564  10.858   5.885 -1.0050  1.0376 -1.1163
  381MOL0     H52534   6.617  11.094   5.814  0.1218 -1.3860 -0.2712
  381MOL0     H52535   6.578  11.147   5.978 -0.2930  0.9534 -0.7788
  381MOL0     H52536   6.754  11.283   5.835  2.5732  4.4759 -1.4434
  381MOL0     H52537   6.975  11.531   5.934 -0.4793  3.2755 -1.1112
  381MOL0     H52538   6.844  11.501   5.823  1.2205  0.4286 -1.0133
  381MOL0     H52539   7.015  11.492   5.768 -0.7627  2.3774  0.2784
  381MOL0     H52540   7.449  11.311   5.958 -1.9470  2.2072  0.4159
  381MOL0     H52541   7.678  11.363   6.005 -1.9217 -1.2754 -2.1126
  381MOL0     H52542   7.911  11.681   6.195 -0.5166  0.3130 -1.3127
  381MOL0     H52543   7.762  11.710   6.268  1.5571  1.8326  1.2627
  381MOL0     H52544   7.956  11.637   6.420  1.4042 -2.5660  0.0764
  381MOL0     H52545   7.819  11.540   6.437 -1.0956 -0.8571 -1.2631
  381MOL0     H52546   7.950  11.362   6.290 -0.4419 -0.2489  0.5982
  381MOL0     H52547   8.018  11.390   6.435  0.1066 -0.4624 -1.4488
  381MOL0     H52548   8.145  11.596   6.290 -3.4503  0.7983 -1.1838
  381MOL0     H52549   8.095  11.485   6.166  0.2560 -1.0764 -0.4170
  381MOL0     H52550   8.327  11.474   6.281  0.0886 -0.1006 -0.5973
  381MOL0     H52551   8.238  11.386   6.416  0.4826 -0.5786  0.1247
  381MOL0     H52552   8.277  11.315   6.139 -1.1146  4.7912  0.8125
  381MOL0     H52553   8.159  11.219   6.238  0.6028 -0.3657  0.3247
  381MOL0     H52554   8.335  11.076   6.267 -1.2027 -0.0159  1.5959
  381MOL0     H52555   8.360  11.183   6.404 -3.0218 -0.3090 -0.1240
  381MOL0     H52556   8.512  11.196   6.135  3.2207 -1.2465  0.4556
  381MOL0     H52557   8.564  11.115   6.280 -0.3763 -0.1305 -0.2207
  381MOL0     H52558   7.555  11.603   6.345 -0.4657 -0.3488  0.1225
  381MOL0     H52559   7.325  11.515   6.318 -2.1612 -2.4441 -2.1503
  381MOL0     H52560   7.125  11.149   6.137 -1.6133 -0.7117  1.8402
  381MOL0     H52561   6.930  11.015   6.128 -2.7225  0.3836 -0.1704
  381MOL0     H52562   5.140  11.270   4.784  0.3730 -0.8957 -2.3122
  381MOL0     H52563   4.911  11.283   4.839  1.0750 -1.1380 -5.4614
  381MOL0     H52564   4.584  11.114   5.141  0.0312 -1.2104 -1.0541
  381MOL0     H52565   4.354  11.125   5.244 -1.1732 -2.0211  1.1702
  381MOL0     H52566   4.116  11.355   5.029  1.0671 -0.8915 -2.0862
  381MOL0     H52567   3.981  11.247   4.993  1.1075 -3.3682 -0.0434
  381MOL0     H52568   4.065  11.342   5.263  0.9646  2.3769 -0.6899
  381MOL0     H52569   3.953  11.204   5.237  2.0772 -1.9844 -1.0699
  381MOL0     H52570   3.919  11.497   5.124 -0.3367  1.2075  0.6786
  381MOL0     H52571   3.814  11.361   5.086  1.2687  0.1571 -1.8295
  381MOL0     H52572   3.731  11.517   5.262  1.5609  1.5911  1.3563
  381MOL0     H52573   3.860  11.474   5.364 -0.8612  0.3797  0.7860
  381MOL0     H52574   3.554  11.173   5.405  0.1143 -0.3013 -2.1021
  381MOL0     H52575   4.198  11.198   4.853  0.9197  0.8432 -0.8880
  381MOL0     H52576   4.468  11.306   4.685 -0.4030 -0.9002 -4.7394
  381MOL0     H52577   4.512  11.141   4.675  2.1097  3.6208  0.2955
  381MOL0     H52578   4.349  11.170   4.647 -2.4957  1.5989  1.3090
  382MOL0     O52579   3.102   6.075   1.133 -0.5846 -0.1898 -0.2406
  382MOL0     C52580   3.168   5.988   1.197  0.4578 -0.3700  0.0803
  382MOL0     O52581   3.117   5.869   1.257  0.2786 -0.9101  0.9226
  382MOL0     C52582   2.981   5.856   1.291 -0.0047 -0.1750  0.3677
  382MOL0     C52583   2.915   5.741   1.269  0.4696 -0.3739 -0.4298
  382MOL0     C52584   2.774   5.726   1.278  0.3008  0.5625  0.0613
  382MOL0     C52585   2.697   5.833   1.321  0.4568 -1.0382  0.5523
  382MOL0     O52586   2.559   5.813   1.325  0.0557 -0.1472  0.1487
  382MOL0     C52587   2.478   5.914   1.398  0.5768 -0.0095 -0.3097
  382MOL0     C52588   2.335   5.880   1.415  0.1108 -0.0542  1.1265
  382MOL0     C52589   2.314   5.748   1.485  0.6591  1.2528 -0.2589
  382MOL0     C52590   2.177   5.745   1.554 -0.6989 -0.0436 -0.3042
  382MOL0     C52591   2.147   5.609   1.614  0.1412  0.3031 -0.1806
  382MOL0     C52592   2.222   5.587   1.745  0.4142 -0.2520 -0.4255
  382MOL0     C52593   2.191   5.441   1.787  0.8655  0.6658  0.2306
  382MOL0     C52594   2.225   5.413   1.935  0.0367 -1.3586 -0.4052
  382MOL0     N52595   2.378   5.409   1.956  0.4147  0.1053 -0.6207
  382MOL0     C52596   2.466   5.511   1.990  0.8033 -0.0103  0.5492
  382MOL0     C52597   2.580   5.444   2.030  0.3532  0.5846  0.8754
  382MOL0     C52598   2.700   5.522   2.101 -0.2159  0.1545 -0.5753
  382MOL0     C52599   2.767   5.427   2.202 -0.1109 -0.3627  0.5025
  382MOL0     C52600   2.872   5.495   2.288  0.3964 -0.1345 -0.0636
  382MOL0     C52601   3.005   5.438   2.273 -0.1333  0.1873 -1.1454
  382MOL0     O52602   3.056   5.479   2.146 -0.3817 -0.2335  0.1842
  382MOL0     C52603   3.194   5.502   2.164 -0.5432 -0.3491 -0.5064
  382MOL0     C52604   3.230   5.633   2.139 -0.7604  0.1773 -0.1062
  382MOL0     C52605   3.360   5.690   2.147 -0.7001  0.6189 -0.6638
  382MOL0     C52606   3.377   5.836   2.116  0.4662  0.4387 -0.8597
  382MOL0     C52607   3.466   5.598   2.177 -0.0677 -0.0599 -0.0305
  382MOL0     C52608   3.608   5.635   2.201 -0.1834  0.3621  0.1368
  382MOL0     O52609   3.643   5.757   2.156  0.0353 -0.4670 -0.1030
  382MOL0     C52610   3.777   5.778   2.141  0.1176 -0.7527  0.0835
  382MOL0     C52611   3.884   5.686   2.137 -0.4387 -0.9961  0.8533
  382MOL0     C52612   4.020   5.724   2.128 -0.3745 -0.4738 -0.4339
  382MOL0     C52613   4.044   5.862   2.116  0.1073  0.3145  0.1798
  382MOL0     O52614   4.179   5.896   2.085  0.0260 -0.1448  0.1270
  382MOL0     C52615   4.229   6.024   2.080 -0.5775 -0.2783 -0.1833
  382MOL0     C52616   4.387   6.020   2.076  0.2230  0.4682 -0.0891
  382MOL0     C52617   4.463   6.156   2.067  0.4170 -0.8200 -0.0667
  382MOL0     C52618   4.607   6.127   2.075 -0.1291  0.1735 -0.3983
  382MOL0     C52619   4.689   6.255   2.067  0.2601 -0.7354  0.4925
  382MOL0     C52620   4.828   6.244   2.007 -0.7838  0.2717  0.3286
  382MOL0     C52621   4.902   6.376   2.023 -0.3700 -0.0494  0.2189
  382MOL0     C52622   5.040   6.360   1.967 -0.0262 -0.9363 -0.1191
  382MOL0    Cl52623   5.155   6.478   2.042  0.4674  0.0029  0.4821
  382MOL0     C52624   3.942   5.952   2.117  0.8612  0.1453  0.1687
  382MOL0     C52625   3.805   5.916   2.123  0.0077  0.2093  0.4297
  382MOL0     O52626   3.667   5.561   2.280  0.3529  0.0555  1.0308
  382MOL0     C52627   3.430   5.460   2.197 -0.0315 -0.1673  0.0864
  382MOL0     C52628   3.296   5.409   2.202  0.3730  0.2882 -0.2985
  382MOL0     N52629   2.566   5.312   2.013  0.2275 -0.1099  1.0647
  382MOL0     N52630   2.449   5.296   1.964 -0.2172  1.1155 -0.4806
  382MOL0     C52631   2.761   5.952   1.352 -0.4613 -0.7833  1.4066
  382MOL0     C52632   2.900   5.964   1.338  0.7701  0.0012  0.1805
  382MOL0     C52633   3.315   5.994   1.196 -0.5779  0.7114  0.0648
  382MOL0     C52634   3.381   5.932   1.302 -0.0146  0.4264 -1.6069
  382MOL0     C52635   3.513   5.931   1.312 -0.3951 -0.0259  1.1323
  382MOL0     C52636   3.597   5.984   1.216  1.2746 -0.1555 -0.5455
  382MOL0     O52637   3.734   5.960   1.221  0.2777 -0.1952 -0.4055
  382MOL0     C52638   3.806   5.960   1.102 -0.1734  0.7932  0.1872
  382MOL0     C52639   3.952   5.916   1.142  0.3308 -0.3901 -0.2961
  382MOL0     C52640   4.012   6.035   1.216  0.8998 -0.8847 -0.4838
  382MOL0     C52641   4.153   6.019   1.258 -0.8320  0.2220 -0.5132
  382MOL0     C52642   4.172   6.113   1.365 -0.3494  0.0606 -0.5642
  382MOL0     C52643   4.178   6.198   1.447  0.4118  0.3318 -0.4659
  382MOL0     C52644   3.531   6.051   1.108 -0.8024  0.3875 -0.9472
  382MOL0     C52645   3.392   6.055   1.099  0.1831 -0.1961  0.4909
  382MOL0     C52646   3.337   6.127   0.980  0.0923  0.6628 -0.4961
  382MOL0     H52647   2.967   5.659   1.221 -0.8866  0.5539 -3.7948
  382MOL0     H52648   2.717   5.639   1.247  1.6850  0.5448 -2.7033
  382MOL0     H52649   2.480   6.004   1.335 -2.4080  1.5138  1.5421
  382MOL0     H52650   2.525   5.938   1.495  0.8392  0.5260 -0.5647
  382MOL0     H52651   2.284   5.962   1.468  1.2451  1.2876  0.2071
  382MOL0     H52652   2.291   5.882   1.315  1.3344  2.4567  0.5662
  382MOL0     H52653   2.324   5.666   1.413  1.0917  1.5988 -0.5990
  382MOL0     H52654   2.397   5.736   1.555  0.8781 -2.6345 -1.0083
  382MOL0     H52655   2.172   5.814   1.640  0.1541 -0.5170  0.1356
  382MOL0     H52656   2.098   5.771   1.483 -1.4938  1.3236  0.9966
  382MOL0     H52657   2.185   5.524   1.556  0.5810 -0.1716  0.7783
  382MOL0     H52658   2.039   5.594   1.628 -0.0609  0.7958 -1.1262
  382MOL0     H52659   2.329   5.610   1.737  0.1463  1.7217  0.9123
  382MOL0     H52660   2.193   5.654   1.827  1.9782 -0.6269  0.4799
  382MOL0     H52661   2.230   5.360   1.726 -1.0072  0.6086 -0.9504
  382MOL0     H52662   2.082   5.439   1.773  0.9776 -1.5435 -0.5604
  382MOL0     H52663   2.181   5.494   1.994  0.3901  0.5161 -2.5819
  382MOL0     H52664   2.194   5.315   1.971 -1.2883 -1.3013 -1.3068
  382MOL0     H52665   2.438   5.616   1.994 -2.3403 -0.7832  3.9054
  382MOL0     H52666   2.663   5.609   2.155  0.1531  1.0467 -1.7252
  382MOL0     H52667   2.776   5.566   2.036  1.7204 -1.0732  0.7257
  382MOL0     H52668   2.699   5.372   2.268 -1.3084 -0.1819 -0.5537
  382MOL0     H52669   2.805   5.343   2.144 -0.6132  1.3507 -2.5069
  382MOL0     H52670   2.884   5.603   2.272  1.4081  0.0991  1.9422
  382MOL0     H52671   2.866   5.472   2.395  0.9188  0.4315  0.1001
  382MOL0     H52672   3.064   5.475   2.357  0.0763 -1.7996 -0.3619
  382MOL0     H52673   3.010   5.328   2.272  0.6891  0.1973 -0.1603
  382MOL0     H52674   3.152   5.706   2.116 -0.3538 -0.0054 -2.2870
  382MOL0     H52675   3.417   5.848   2.014  1.4670 -1.0626 -0.6797
  382MOL0     H52676   3.438   5.886   2.192  0.5742 -0.3600 -0.4131
  382MOL0     H52677   3.284   5.893   2.106  1.2750  2.0419  0.3152
  382MOL0     H52678   3.857   5.582   2.141 -1.4837 -0.8170 -0.7030
  382MOL0     H52679   4.110   5.664   2.116  0.4889  1.0631 -2.1936
  382MOL0     H52680   4.177   6.077   2.000 -2.1066 -0.8412  0.3999
  382MOL0     H52681   4.202   6.074   2.174 -1.9042 -1.8881  0.3342
  382MOL0     H52682   4.418   5.968   2.167  1.4924 -1.2102 -1.4125
  382MOL0     H52683   4.419   5.955   1.994  2.8655 -2.0640  2.6781
  382MOL0     H52684   4.430   6.230   2.141  4.0336  1.2563 -0.3203
  382MOL0     H52685   4.439   6.195   1.968  2.8512 -1.4386 -0.9700
  382MOL0     H52686   4.611   6.075   1.979  0.0016 -0.2774 -0.1529
  382MOL0     H52687   4.634   6.063   2.160 -0.4322  1.9761  1.1212
  382MOL0     H52688   4.641   6.325   1.999  0.5219 -0.3928  0.6562
  382MOL0     H52689   4.689   6.307   2.163  2.2787  0.0965  0.1035
  382MOL0     H52690   4.821   6.224   1.900 -0.7089  4.7578 -0.7149
  382MOL0     H52691   4.885   6.160   2.047  0.1371  0.6678 -0.1214
  382MOL0     H52692   4.914   6.402   2.129  0.2529 -0.2035  0.1862
  382MOL0     H52693   4.847   6.451   1.965  1.1043 -0.7856 -2.2909
  382MOL0     H52694   5.031   6.366   1.858  0.5888 -1.9190 -0.2374
  382MOL0     H52695   5.088   6.265   1.993  0.3420 -0.9331 -0.7535
  382MOL0     H52696   3.956   6.060   2.109  2.1252 -0.1274 -2.2193
  382MOL0     H52697   3.736   5.999   2.105 -1.2505 -1.2255 -1.9263
  382MOL0     H52698   3.504   5.391   2.237 -0.5751 -0.3833  0.7436
  382MOL0     H52699   3.286   5.301   2.201 -0.3414  0.3361  0.5792
  382MOL0     H52700   2.699   6.032   1.391 -0.2849 -1.2790  2.7626
  382MOL0     H52701   2.951   6.056   1.364 -0.3369  0.7067 -0.0505
  382MOL0     H52702   3.329   5.887   1.386  2.0116  1.7087  0.4606
  382MOL0     H52703   3.562   5.875   1.391  0.8793 -0.4739  0.0528
  382MOL0     H52704   3.752   5.886   1.041  0.4634  0.0974  0.4498
  382MOL0     H52705   3.812   6.060   1.060  1.5482  0.0096 -1.5374
  382MOL0     H52706   3.999   5.895   1.046  1.2504  0.3902 -0.0246
  382MOL0     H52707   3.959   5.822   1.198  1.0962 -0.7924 -1.0587
  382MOL0     H52708   4.009   6.120   1.147  4.8224  1.3587  1.7509
  382MOL0     H52709   3.947   6.054   1.301  2.1695  1.5722  0.0375
  382MOL0     H52710   4.226   6.052   1.184  1.6440  2.4757  2.6752
  382MOL0     H52711   4.175   5.915   1.283 -0.9808 -0.1756 -1.8990
  382MOL0     H52712   4.183   6.279   1.517 -1.7768 -0.3364  0.5766
  382MOL0     H52713   3.590   6.100   1.031  0.0960  1.6440  0.5100
  382MOL0     H52714   3.411   6.184   0.923 -2.7238  2.1491 -2.9758
  382MOL0     H52715   3.299   6.058   0.904  2.3327 -0.5458 -0.5938
  382MOL0     H52716   3.268   6.201   1.021 -3.1868 -2.5154  0.2412
  383MOL0     O52717   6.001   5.111   8.969 -0.5432  0.1591 -0.2826
  383MOL0     C52718   5.907   5.133   8.899 -0.1200 -0.1137 -0.3937
  383MOL0     O52719   5.896   5.108   8.772  0.0185 -0.4041 -1.1026
  383MOL0     C52720   5.921   4.973   8.733  0.0053 -0.3811  0.7972
  383MOL0     C52721   5.999   4.945   8.622 -0.1289  0.4103 -0.0744
  383MOL0     C52722   6.032   4.815   8.586  0.5562 -0.1491 -0.2883
  383MOL0     C52723   5.976   4.704   8.652  0.3653 -0.1144 -0.4493
  383MOL0     O52724   6.009   4.578   8.612  0.0173  0.8610 -0.3787
  383MOL0     C52725   6.021   4.544   8.467 -0.2112  0.5839  0.0828
  383MOL0     C52726   6.097   4.407   8.461  1.3735 -0.3381 -0.2846
  383MOL0     C52727   6.138   4.354   8.327 -0.3204 -0.0052  0.5377
  383MOL0     C52728   6.039   4.387   8.210 -0.5573 -0.2850 -0.1036
  383MOL0     C52729   6.068   4.300   8.091  0.6439  0.6532 -1.2044
  383MOL0     C52730   5.971   4.333   7.979  0.1583  1.2228 -0.0662
  383MOL0     C52731   6.023   4.285   7.844 -0.4476 -0.1134 -0.0761
  383MOL0     C52732   6.046   4.123   7.849 -0.0838 -0.2123  0.0638
  383MOL0     N52733   5.923   4.057   7.857 -0.4689 -0.5071  0.4597
  383MOL0     C52734   5.826   4.050   7.757 -0.2452 -0.0482 -0.3022
  383MOL0     C52735   5.718   3.999   7.810  0.0344 -0.1314 -0.2963
  383MOL0     C52736   5.571   3.970   7.762 -0.4112  0.3353 -0.8835
  383MOL0     C52737   5.487   4.101   7.734 -0.5239  0.1504  0.4687
  383MOL0     C52738   5.348   4.074   7.729  0.9117 -1.2655  0.7389
  383MOL0     C52739   5.268   4.178   7.655 -0.7664  0.3375  0.1006
  383MOL0     O52740   5.138   4.140   7.640  0.1744  1.0314  0.2782
  383MOL0     C52741   5.036   4.202   7.700 -0.7051  0.2943 -0.2575
  383MOL0     C52742   5.055   4.277   7.817 -0.2755  0.0430 -0.5841
  383MOL0     C52743   4.948   4.323   7.901  0.6132  0.5449 -0.0612
  383MOL0     C52744   4.968   4.429   8.007 -0.0209  0.7171  0.5844
  383MOL0     C52745   4.815   4.289   7.861  0.4071 -0.3431 -1.2176
  383MOL0     C52746   4.692   4.327   7.942  0.3484 -0.5421 -0.7795
  383MOL0     O52747   4.575   4.337   7.871  0.1174 -0.1543 -0.2709
  383MOL0     C52748   4.454   4.363   7.936  0.9286 -0.0978 -0.4119
  383MOL0     C52749   4.347   4.285   7.910  0.0427  0.2893 -0.3410
  383MOL0     C52750   4.220   4.300   7.983 -0.4197  0.0247  0.0578
  383MOL0     C52751   4.213   4.407   8.077  0.5817  0.4069 -0.1210
  383MOL0     O52752   4.103   4.431   8.149  0.2777  0.1442  0.0887
  383MOL0     C52753   4.107   4.427   8.294 -1.0959 -0.1019 -0.2489
  383MOL0     C52754   3.960   4.441   8.338 -0.0037  0.1021  0.9130
  383MOL0     C52755   3.943   4.420   8.487 -0.0085 -0.4008  0.3183
  383MOL0     C52756   3.795   4.412   8.534 -1.0814  0.7691  0.1010
  383MOL0     C52757   3.727   4.545   8.508  0.0626 -0.6097 -0.2271
  383MOL0     C52758   3.596   4.538   8.585  0.2796  0.0620 -0.3069
  383MOL0     C52759   3.495   4.452   8.504 -0.1987  0.5060 -1.0212
  383MOL0     C52760   3.388   4.399   8.605  1.1800 -1.1949 -0.6691
  383MOL0    Cl52761   3.232   4.500   8.624  0.0027 -0.5744 -0.1185
  383MOL0     C52762   4.318   4.482   8.101 -0.0322 -1.3042 -0.2726
  383MOL0     C52763   4.438   4.461   8.033 -0.1836 -0.5146 -0.6852
  383MOL0     O52764   4.699   4.332   8.066  0.0082 -0.8288  0.3857
  383MOL0     C52765   4.799   4.212   7.749  0.0113  0.3570 -0.1782
  383MOL0     C52766   4.902   4.169   7.673 -0.3253  0.3274  0.3676
  383MOL0     N52767   5.749   3.965   7.938  0.3737  0.5079 -1.2499
  383MOL0     N52768   5.871   3.989   7.970 -0.0232 -0.7576 -0.2504
  383MOL0     C52769   5.895   4.725   8.755  0.4949 -0.7226 -0.5159
  383MOL0     C52770   5.874   4.859   8.803 -0.8821  0.6768  0.3213
  383MOL0     C52771   5.789   5.185   8.982  1.2919 -0.0458  0.7840
  383MOL0     C52772   5.659   5.157   8.926 -0.5707 -0.2853 -0.1521
  383MOL0     C52773   5.544   5.215   8.980  0.0701 -0.4367  0.0791
  383MOL0     C52774   5.554   5.301   9.089  1.3669  0.5435  0.0299
  383MOL0     O52775   5.441   5.341   9.156  0.4596 -1.0459  0.4969
  383MOL0     C52776   5.398   5.469   9.122  0.5839 -0.5907 -0.7442
  383MOL0     C52777   5.248   5.480   9.139  0.3322  0.0546  0.0498
  383MOL0     C52778   5.167   5.352   9.092 -0.0459 -0.0700 -0.1829
  383MOL0     C52779   5.021   5.393   9.078 -0.2114 -0.6478 -0.1680
  383MOL0     C52780   4.946   5.316   8.983 -0.4676 -0.2376  0.1609
  383MOL0     C52781   4.888   5.260   8.890 -0.3750 -0.2174  0.4003
  383MOL0     C52782   5.679   5.330   9.141  1.3455 -0.0143  0.4366
  383MOL0     C52783   5.796   5.277   9.090 -0.5918  0.1546  0.9764
  383MOL0     C52784   5.928   5.322   9.147 -0.4993 -0.4937  0.7710
  383MOL0     H52785   6.049   5.031   8.579  1.9504  0.4467  2.2153
  383MOL0     H52786   6.100   4.798   8.503  1.7921  1.5729  0.3177
  383MOL0     H52787   6.074   4.622   8.411  0.6788 -0.4139 -0.5009
  383MOL0     H52788   5.921   4.539   8.423  0.4559  1.0460 -1.5613
  383MOL0     H52789   6.181   4.420   8.529  0.6366 -0.8014  0.7362
  383MOL0     H52790   6.038   4.324   8.500  0.2053 -1.1742 -3.5432
  383MOL0     H52791   6.241   4.388   8.314 -0.0956 -1.8027 -3.8676
  383MOL0     H52792   6.140   4.245   8.336 -0.3953 -0.0338  0.2176
  383MOL0     H52793   5.934   4.372   8.236 -0.6985  1.0546  0.1908
  383MOL0     H52794   6.054   4.493   8.189  2.1488 -1.0503 -2.6498
  383MOL0     H52795   6.070   4.195   8.121  1.6802  1.2505  0.9508
  383MOL0     H52796   6.167   4.326   8.053  0.5517  3.0595  0.0316
  383MOL0     H52797   5.871   4.298   8.007  0.0759  0.8085 -0.8301
  383MOL0     H52798   5.962   4.442   7.973  0.1085  1.2386  0.2741
  383MOL0     H52799   6.110   4.340   7.806 -1.2851 -0.5005 -2.7563
  383MOL0     H52800   5.949   4.306   7.766  0.3734  1.7492 -0.4098
  383MOL0     H52801   6.094   4.102   7.753 -2.5145 -1.4258 -0.9737
  383MOL0     H52802   6.117   4.086   7.923  3.3908  0.5143 -2.6256
  383MOL0     H52803   5.822   4.083   7.654 -0.8938 -1.9396 -0.9193
  383MOL0     H52804   5.528   3.910   7.843  1.5612 -1.5995 -1.1856
  383MOL0     H52805   5.569   3.897   7.680  1.3986  0.4535 -1.0581
  383MOL0     H52806   5.512   4.178   7.807  1.8536 -0.2550  0.1608
  383MOL0     H52807   5.517   4.137   7.635  1.1978  0.9515  1.2354
  383MOL0     H52808   5.328   3.980   7.679  1.3750 -1.0871  0.2106
  383MOL0     H52809   5.298   4.070   7.826 -2.5923 -1.0496 -0.9337
  383MOL0     H52810   5.290   4.276   7.697  1.2688 -0.3080  0.6384
  383MOL0     H52811   5.308   4.192   7.554  1.1282  0.4113  0.8301
  383MOL0     H52812   5.148   4.304   7.865  0.0891 -1.4014 -0.4193
  383MOL0     H52813   4.900   4.512   7.987  0.9797  1.3643 -0.2953
  383MOL0     H52814   5.068   4.469   8.026  0.1082  1.1731 -0.8817
  383MOL0     H52815   4.928   4.385   8.099 -1.7438 -1.2450 -0.9851
  383MOL0     H52816   4.348   4.219   7.824 -1.3798  0.8971 -0.8504
  383MOL0     H52817   4.132   4.252   7.942 -2.1194  0.8442  2.5022
  383MOL0     H52818   4.165   4.340   8.324 -1.7125 -0.2117  0.6726
  383MOL0     H52819   4.150   4.521   8.330 -0.2561  0.0204 -1.5071
  383MOL0     H52820   3.920   4.535   8.298 -2.0046 -0.4334  1.5458
  383MOL0     H52821   3.903   4.362   8.288 -1.8458  2.2146 -0.5363
  383MOL0     H52822   4.004   4.495   8.539 -0.3090 -1.2314  1.9329
  383MOL0     H52823   3.982   4.319   8.503 -2.7274 -1.7715 -0.9691
  383MOL0     H52824   3.804   4.380   8.638  1.7887 -1.3845 -0.6741
  383MOL0     H52825   3.751   4.330   8.476  2.5237 -2.1901  1.1846
  383MOL0     H52826   3.785   4.630   8.545  0.2207 -1.8798  2.7964
  383MOL0     H52827   3.723   4.568   8.401  3.6220  1.2705 -0.1265
  383MOL0     H52828   3.550   4.635   8.608  2.2167  0.1128  4.5119
  383MOL0     H52829   3.606   4.489   8.682  1.2119 -0.1540 -0.5011
  383MOL0     H52830   3.539   4.358   8.467 -1.2913  0.3208 -1.9084
  383MOL0     H52831   3.456   4.506   8.417  0.2345  0.9110 -0.9674
  383MOL0     H52832   3.412   4.370   8.708 -1.5108 -3.5847 -0.5792
  383MOL0     H52833   3.359   4.299   8.573 -0.5098 -1.1996  0.7096
  383MOL0     H52834   4.318   4.569   8.166  1.0972  0.6677 -2.6946
  383MOL0     H52835   4.529   4.504   8.073  0.3750 -0.4901 -1.9587
  383MOL0     H52836   4.699   4.188   7.714 -0.3481  1.4934  0.0259
  383MOL0     H52837   4.883   4.118   7.579  1.6114  3.9220 -2.2146
  383MOL0     H52838   5.861   4.648   8.823 -2.7834  2.3945  1.8006
  383MOL0     H52839   5.804   4.875   8.885 -1.1600 -0.9300  0.4362
  383MOL0     H52840   5.648   5.078   8.853 -0.1966  0.9005 -1.5287
  383MOL0     H52841   5.443   5.201   8.944 -0.2777  0.6342  0.5927
  383MOL0     H52842   5.427   5.551   9.189  0.4856  1.6230 -3.2574
  383MOL0     H52843   5.424   5.500   9.020 -0.0142 -1.0511 -1.0382
  383MOL0     H52844   5.211   5.573   9.094  1.1687  0.4706  0.1973
  383MOL0     H52845   5.247   5.484   9.248  3.9791 -1.4375  0.2853
  383MOL0     H52846   5.205   5.312   8.998  0.9066 -3.3799  1.4384
  383MOL0     H52847   5.177   5.267   9.161 -0.1209  1.2196  1.4955
  383MOL0     H52848   5.015   5.500   9.055 -0.4213 -0.3738  1.1250
  383MOL0     H52849   4.971   5.382   9.174 -0.0942 -1.3147 -0.1746
  383MOL0     H52850   4.831   5.227   8.806 -1.7341 -0.2325  1.2916
  383MOL0     H52851   5.686   5.388   9.233  1.8761  0.0938  0.3305
  383MOL0     H52852   5.994   5.378   9.081  0.0328  0.1215  1.7859
  383MOL0     H52853   5.903   5.403   9.217 -2.6573  2.1121 -2.6927
  383MOL0     H52854   5.988   5.244   9.196 -2.3405 -0.6824  2.9151
  384MOL0     O52855   5.532   1.653   3.149  0.1044 -0.3586  0.1612
  384MOL0     C52856   5.530   1.775   3.181 -0.1553 -0.2469  0.2193
  384MOL0     O52857   5.633   1.840   3.248  0.6820 -0.1820 -0.4546
  384MOL0     C52858   5.739   1.765   3.286 -0.1951  0.5572 -0.2460
  384MOL0     C52859   5.721   1.644   3.363  0.4910  0.5572  0.2137
  384MOL0     C52860   5.831   1.563   3.399 -0.7850  0.0961  0.4459
  384MOL0     C52861   5.954   1.610   3.365 -0.1682  0.2853  0.5441
  384MOL0     O52862   6.058   1.539   3.421  0.8345 -0.1703  0.4361
  384MOL0     C52863   6.193   1.584   3.411  0.1721 -0.2819 -0.1497
  384MOL0     C52864   6.285   1.459   3.441 -0.3875 -0.1363  0.0731
  384MOL0     C52865   6.436   1.503   3.471  0.8243 -0.4193 -0.2037
  384MOL0     C52866   6.541   1.402   3.460 -0.7630 -0.8575 -0.0856
  384MOL0     C52867   6.658   1.461   3.370 -0.3815 -0.6704  1.0749
  384MOL0     C52868   6.769   1.347   3.379  0.5046 -0.4548 -0.4084
  384MOL0     C52869   6.901   1.392   3.314  0.5171  0.1810  0.2043
  384MOL0     C52870   6.901   1.378   3.160 -0.0861  0.3879  0.5144
  384MOL0     N52871   6.859   1.247   3.108 -0.8865 -0.2770 -0.2094
  384MOL0     C52872   6.929   1.131   3.120 -0.2480  0.3830 -0.8190
  384MOL0     C52873   6.855   1.050   3.042  0.1726 -0.2517  0.5507
  384MOL0     C52874   6.884   0.905   3.014  0.1599 -0.5994  0.1378
  384MOL0     C52875   7.027   0.886   2.969 -0.3737 -0.5730  0.5875
  384MOL0     C52876   7.058   0.745   2.919  0.1439 -0.0745  0.1765
  384MOL0     C52877   7.200   0.709   2.883 -0.7940 -0.5161  0.0607
  384MOL0     O52878   7.283   0.723   3.004 -1.0168  0.1569 -0.2760
  384MOL0     C52879   7.408   0.677   2.981 -0.8035  0.0517 -0.0123
  384MOL0     C52880   7.493   0.755   2.906 -0.3698 -0.0055  0.5630
  384MOL0     C52881   7.620   0.706   2.893 -0.4754  0.5437  0.9423
  384MOL0     C52882   7.719   0.794   2.816  0.2216 -0.3984 -0.1391
  384MOL0     C52883   7.663   0.585   2.954  0.1129  0.1910 -0.4881
  384MOL0     C52884   7.792   0.527   2.944 -0.4162 -1.0920 -0.2440
  384MOL0     O52885   7.832   0.456   3.049 -0.4410  0.9260 -0.7149
  384MOL0     C52886   7.963   0.413   3.066 -0.0386  0.4626  0.0138
  384MOL0     C52887   8.079   0.461   3.007 -0.1749  0.4723  0.5403
  384MOL0     C52888   8.207   0.419   3.058  0.3369  0.7539  0.6919
  384MOL0     C52889   8.223   0.324   3.156 -0.5194  0.2569  0.3061
  384MOL0     O52890   8.348   0.289   3.203 -0.1226  0.0419  0.6029
  384MOL0     C52891   8.369   0.155   3.259 -1.6575  0.3054 -0.1478
  384MOL0     C52892   8.525   0.109   3.241  0.7128  0.0451 -0.1070
  384MOL0     C52893   8.623   0.157   3.342  0.0900  0.6329 -1.3146
  384MOL0     C52894   8.758   0.080   3.337 -0.5131  0.1431  0.1391
  384MOL0     C52895   8.851   0.131   3.439  1.4646  0.7746 -0.3634
  384MOL0     C52896   8.970   0.030   3.459 -0.3685 -0.6912 -0.3390
  384MOL0     C52897   9.080   0.073   3.561 -0.2306  0.1223  0.4672
  384MOL0     C52898   9.159   0.176   3.491 -0.1676 -0.3201  1.1467
  384MOL0    Cl52899   9.273   0.223   3.617  0.2865  0.2019  0.0640
  384MOL0     C52900   8.109   0.271   3.201 -0.5990 -0.0458 -0.2639
  384MOL0     C52901   7.979   0.315   3.167 -0.1602 -0.1378  0.3231
  384MOL0     O52902   7.852   0.536   2.834 -0.6513 -0.9997 -0.1571
  384MOL0     C52903   7.566   0.506   3.030  0.2077 -0.3656 -0.0986
  384MOL0     C52904   7.434   0.553   3.036  0.1663 -0.4130 -0.6444
  384MOL0     N52905   6.746   1.115   2.989  0.3313  0.4900  0.6646
  384MOL0     N52906   6.752   1.233   3.028  0.1280 -0.2994 -0.4671
  384MOL0     C52907   5.969   1.732   3.295 -0.0874  0.5581  0.8220
  384MOL0     C52908   5.863   1.807   3.242 -0.0826  0.6603 -0.5961
  384MOL0     C52909   5.407   1.850   3.147  0.5425  0.1803  0.7968
  384MOL0     C52910   5.288   1.781   3.124  0.2128  0.3248  0.5880
  384MOL0     C52911   5.170   1.852   3.093  0.2945 -0.2495 -0.4588
  384MOL0     C52912   5.162   1.992   3.093 -0.1606  0.4896 -0.1894
  384MOL0     O52913   5.045   2.043   3.066  0.4680 -1.1065 -0.1290
  384MOL0     C52914   5.034   2.173   3.004 -0.1400 -0.2165  0.0370
  384MOL0     C52915   4.883   2.191   2.979 -0.2487  0.4836 -0.0695
  384MOL0     C52916   4.844   2.307   2.882  0.1851  0.5199  0.6218
  384MOL0     C52917   4.707   2.280   2.831  0.0761 -0.0747  0.2391
  384MOL0     C52918   4.605   2.309   2.936  0.5514 -0.6346  0.1517
  384MOL0     C52919   4.544   2.334   3.036 -0.2098 -1.0237  0.5372
  384MOL0     C52920   5.289   2.061   3.100  0.1844  0.6926  0.0310
  384MOL0     C52921   5.406   1.989   3.124  0.5446 -0.5304  0.6202
  384MOL0     C52922   5.539   2.065   3.106  0.4759 -0.7732 -1.1346
  384MOL0     H52923   5.624   1.614   3.401  1.1562 -0.0218  1.5175
  384MOL0     H52924   5.817   1.472   3.457 -3.2656 -0.1007 -0.3504
  384MOL0     H52925   6.212   1.665   3.482 -1.2261 -0.0244 -0.0267
  384MOL0     H52926   6.221   1.636   3.319 -1.1734  1.5948  0.4454
  384MOL0     H52927   6.239   1.401   3.521 -0.6743 -1.5711 -1.0733
  384MOL0     H52928   6.286   1.396   3.351  0.7250 -0.1693  0.0989
  384MOL0     H52929   6.466   1.588   3.410 -1.2374  0.0269 -0.6710
  384MOL0     H52930   6.446   1.529   3.577 -2.1195  0.9957 -0.1789
  384MOL0     H52931   6.569   1.382   3.564 -2.8164  1.1031  0.9192
  384MOL0     H52932   6.504   1.310   3.413  1.1050  0.2180 -4.0953
  384MOL0     H52933   6.693   1.555   3.414 -0.9269 -1.4894  3.4108
  384MOL0     H52934   6.617   1.466   3.269 -1.5870 -0.4064  1.5609
  384MOL0     H52935   6.785   1.333   3.486 -2.4803 -0.7272  0.0873
  384MOL0     H52936   6.731   1.252   3.338 -1.1208  0.9286 -2.3008
  384MOL0     H52937   6.996   1.344   3.340  2.1462  3.1203  0.1065
  384MOL0     H52938   6.902   1.498   3.341 -0.9827  0.4263 -0.6465
  384MOL0     H52939   6.854   1.464   3.112  3.0669  0.3202 -3.2251
  384MOL0     H52940   7.006   1.383   3.128 -0.6176 -0.4189 -1.5343
  384MOL0     H52941   7.015   1.102   3.180  0.9914 -2.9592 -3.8548
  384MOL0     H52942   6.824   0.865   2.932 -1.6650  0.5623  0.8544
  384MOL0     H52943   6.859   0.851   3.106 -3.7408 -2.7676 -1.9337
  384MOL0     H52944   7.055   0.956   2.890  0.9006  0.0162  1.5247
  384MOL0     H52945   7.096   0.914   3.049 -1.0898  1.6674  0.5024
  384MOL0     H52946   7.028   0.686   3.006 -0.0723  2.4095  1.8783
  384MOL0     H52947   6.995   0.714   2.835  1.1646 -1.9304  0.0393
  384MOL0     H52948   7.219   0.613   2.835  1.6711  0.4250 -1.0505
  384MOL0     H52949   7.228   0.780   2.804  0.8776  0.7019  1.6566
  384MOL0     H52950   7.472   0.855   2.871  1.8560  0.1674 -0.5053
  384MOL0     H52951   7.815   0.797   2.870  0.7537  1.7714 -1.0930
  384MOL0     H52952   7.690   0.899   2.817  0.1855 -0.3242  3.4832
  384MOL0     H52953   7.732   0.762   2.712  0.3757  1.2909 -0.6653
  384MOL0     H52954   8.079   0.537   2.929 -0.7685  1.1416  1.1695
  384MOL0     H52955   8.294   0.469   3.017  0.8237  0.4011  1.3048
  384MOL0     H52956   8.348   0.157   3.366 -1.6134  0.3161 -0.1394
  384MOL0     H52957   8.299   0.081   3.217 -1.8368  1.5129 -2.1076
  384MOL0     H52958   8.530   0.000   3.251  1.6239 -0.2124 -2.6491
  384MOL0     H52959   8.555   0.156   3.147 -1.9290  0.9618 -0.5724
  384MOL0     H52960   8.585   0.132   3.441  0.9999 -0.1133 -1.1409
  384MOL0     H52961   8.636   0.266   3.344 -1.7555  0.8894 -1.1427
  384MOL0     H52962   8.795   0.091   3.235 -0.4274 -2.4122 -0.1859
  384MOL0     H52963   8.737  -0.024   3.365 -0.8876  0.4549  1.0679
  384MOL0     H52964   8.884   0.231   3.412  1.2096  1.1444  0.6513
  384MOL0     H52965   8.794   0.135   3.532 -0.1862 -0.7145 -1.2273
  384MOL0     H52966   9.015   0.000   3.364  2.8599  2.1980  0.0987
  384MOL0     H52967   8.933  -0.062   3.505  0.0883 -0.9545 -0.4992
  384MOL0     H52968   9.142  -0.013   3.585 -1.4084 -1.5850 -2.1419
  384MOL0     H52969   9.042   0.107   3.658 -0.7311 -3.0071  1.4976
  384MOL0     H52970   9.090   0.256   3.461 -1.4505 -1.6046  0.5543
  384MOL0     H52971   9.221   0.133   3.412 -0.3988 -0.5707  1.1019
  384MOL0     H52972   8.119   0.199   3.281 -0.7882 -0.1872 -0.3660
  384MOL0     H52973   7.889   0.276   3.214 -0.5796 -0.1858 -0.5091
  384MOL0     H52974   7.582   0.413   3.083 -3.3044 -0.7175  0.5509
  384MOL0     H52975   7.364   0.506   3.105  2.3182 -1.1854  1.1489
  384MOL0     H52976   6.070   1.771   3.279  0.7093 -1.8084 -0.3331
  384MOL0     H52977   5.887   1.898   3.187  1.7950  0.8092  0.4161
  384MOL0     H52978   5.283   1.676   3.149 -2.3479  0.5806  1.3870
  384MOL0     H52979   5.073   1.806   3.079  0.3754  0.2899 -3.2345
  384MOL0     H52980   5.080   2.251   3.065  1.1271 -1.4300  0.6811
  384MOL0     H52981   5.089   2.160   2.910 -1.7962  0.7208 -1.1175
  384MOL0     H52982   4.838   2.208   3.078  2.1665 -2.1086  1.6528
  384MOL0     H52983   4.849   2.097   2.935  1.2630 -0.2392  0.2528
  384MOL0     H52984   4.858   2.397   2.943  1.4673  0.7555  0.0229
  384MOL0     H52985   4.920   2.311   2.804 -3.0757 -1.5331 -3.0136
  384MOL0     H52986   4.709   2.174   2.805 -2.2158 -0.3044  0.8025
  384MOL0     H52987   4.680   2.338   2.742 -2.2955  1.6941  1.9812
  384MOL0     H52988   4.488   2.352   3.125 -1.2937  2.2169 -0.6622
  384MOL0     H52989   5.294   2.169   3.089  2.2296  0.5883 -0.4143
  384MOL0     H52990   5.577   2.072   3.209 -1.0906  0.3766 -0.5973
  384MOL0     H52991   5.610   2.013   3.042 -0.9071 -0.2866 -3.1317
  384MOL0     H52992   5.527   2.165   3.064  0.4507 -0.2007  0.1746
  385MOL0     O52993   6.932   1.284   9.238  0.2843  0.2928 -0.3882
  385MOL0     C52994   6.969   1.195   9.159  0.7505 -0.2067 -1.0432
  385MOL0     O52995   6.904   1.078   9.144  0.1879  0.9019  0.1959
  385MOL0     C52996   6.785   1.060   9.210  0.2786  0.5055  0.5462
  385MOL0     C52997   6.772   1.046   9.350 -0.0707  0.0301  0.5451
  385MOL0     C52998   6.638   1.041   9.407 -0.4127 -0.2540 -0.0896
  385MOL0     C52999   6.527   1.062   9.340  0.7399 -0.1382 -0.1252
  385MOL0     O53000   6.410   1.069   9.419  0.0424 -0.3152 -0.3153
  385MOL0     C53001   6.291   1.025   9.348 -0.5404 -0.8608  0.1963
  385MOL0     C53002   6.191   0.961   9.447  0.1193  0.3087 -0.2597
  385MOL0     C53003   6.125   1.065   9.536 -0.4538 -0.3970  0.1584
  385MOL0     C53004   6.029   1.158   9.469  0.0066  0.7731  0.3043
  385MOL0     C53005   6.011   1.280   9.553  0.3581 -0.5482  0.3677
  385MOL0     C53006   6.135   1.371   9.551 -0.1438 -0.0823 -0.4872
  385MOL0     C53007   6.142   1.469   9.667 -0.4911 -0.0605 -0.2421
  385MOL0     C53008   6.176   1.416   9.805 -0.3356  0.8586  0.2863
  385MOL0     N53009   6.131   1.504   9.907  0.4296  0.4150 -0.1911
  385MOL0     C53010   6.198   1.620   9.936  0.5093  0.7936  0.5332
  385MOL0     C53011   6.118   1.698  10.010  0.1346 -0.2362 -0.1097
  385MOL0     C53012   6.143   1.832  10.076  0.4984 -0.3271  0.2702
  385MOL0     C53013   6.052   1.933  10.014 -0.0913 -0.9229  0.0640
  385MOL0     C53014   6.114   2.073  10.029  0.1222 -0.0409 -0.5434
  385MOL0     C53015   6.015   2.182  10.011 -0.0591 -0.0944  0.2287
  385MOL0     O53016   5.926   2.163  10.123 -0.5050 -0.0948 -0.3176
  385MOL0     C53017   5.797   2.153  10.082  0.2128  0.1559 -0.3982
  385MOL0     C53018   5.724   2.034  10.094  0.1501 -0.2065  0.3797
  385MOL0     C53019   5.588   2.028  10.055 -0.5365 -0.0232  0.0408
  385MOL0     C53020   5.512   1.903  10.072 -0.3976 -0.3097  0.2871
  385MOL0     C53021   5.521   2.152  10.027 -0.0699 -0.4541  0.1006
  385MOL0     C53022   5.378   2.171  10.006  0.2856 -0.1494 -0.4985
  385MOL0     O53023   5.337   2.302  10.019 -0.1828 -0.3111  0.1155
  385MOL0     C53024   5.232   2.353   9.943 -0.3927 -0.4019 -0.0023
  385MOL0     C53025   5.220   2.329   9.806 -0.0785  0.3532  0.1226
  385MOL0     C53026   5.108   2.374   9.741  0.4094  1.0823 -0.5323
  385MOL0     C53027   5.015   2.456   9.808 -0.1296 -0.0752  0.2268
  385MOL0     O53028   4.918   2.522   9.731 -0.1217 -0.1557  0.2094
  385MOL0     C53029   4.826   2.450   9.644  0.3012 -1.0828 -0.1147
  385MOL0     C53030   4.704   2.543   9.638  0.4392 -0.0035  0.2697
  385MOL0     C53031   4.599   2.491   9.739  0.0293 -0.0986 -0.0802
  385MOL0     C53032   4.488   2.598   9.759 -0.3292 -0.4062  0.6640
  385MOL0     C53033   4.374   2.544   9.841 -0.6556 -0.7832 -0.6822
  385MOL0     C53034   4.409   2.541   9.996  0.4661  0.1100  0.5461
  385MOL0     C53035   4.288   2.495  10.078  0.7496 -1.0076  0.5171
  385MOL0     C53036   4.324   2.483  10.229 -0.4512 -0.6092  0.2786
  385MOL0    Cl53037   4.189   2.484  10.335  0.1987  0.2145 -0.5702
  385MOL0     C53038   5.036   2.493   9.938 -0.1469 -0.2592 -0.0307
  385MOL0     C53039   5.138   2.434  10.009 -0.7007  0.2195  0.1996
  385MOL0     O53040   5.307   2.074   9.980  0.0367 -0.6137  0.6951
  385MOL0     C53041   5.596   2.271  10.004  0.3788  0.1805 -0.2584
  385MOL0     C53042   5.737   2.265  10.027  0.1294  0.2735 -0.6400
  385MOL0     N53043   6.009   1.625  10.032 -0.3365  0.4864 -0.4024
  385MOL0     N53044   6.014   1.510   9.973 -0.2927 -0.1397 -0.8231
  385MOL0     C53045   6.539   1.071   9.200 -0.2200  0.5179 -0.3192
  385MOL0     C53046   6.664   1.070   9.134 -0.7467  0.3770  0.3794
  385MOL0     C53047   7.075   1.247   9.070 -0.4179 -0.1989 -0.6577
  385MOL0     C53048   7.073   1.194   8.939  0.4692  0.1182 -0.7202
  385MOL0     C53049   7.169   1.232   8.847 -0.3882 -0.2475  0.3119
  385MOL0     C53050   7.283   1.313   8.887  0.6145  0.1264  0.1637
  385MOL0     O53051   7.384   1.356   8.812 -0.6605 -0.0054  0.0278
  385MOL0     C53052   7.393   1.284   8.690 -0.4087  0.0734 -0.2266
  385MOL0     C53053   7.515   1.322   8.618  0.1339 -0.6063  1.3099
  385MOL0     C53054   7.513   1.266   8.474  0.5783  0.1630  0.3300
  385MOL0     C53055   7.652   1.239   8.419  1.2194 -0.2847 -0.7070
  385MOL0     C53056   7.705   1.106   8.479 -0.2757 -0.4774  1.4612
  385MOL0     C53057   7.759   1.001   8.509  1.0109  0.4864  0.4113
  385MOL0     C53058   7.288   1.354   9.018  0.0048  0.2546  0.0194
  385MOL0     C53059   7.185   1.321   9.111 -0.2391 -0.4423 -0.5991
  385MOL0     C53060   7.208   1.375   9.253 -0.0014 -0.2293  0.0741
  385MOL0     H53061   6.847   1.030   9.427 -0.1520 -1.4325  0.3394
  385MOL0     H53062   6.635   1.028   9.514  0.4767  1.9453  0.2521
  385MOL0     H53063   6.312   0.953   9.268 -0.5489  0.7407 -1.3150
  385MOL0     H53064   6.250   1.111   9.294  0.1404  0.2104  1.3392
  385MOL0     H53065   6.117   0.907   9.387  0.9601 -0.3067 -0.7605
  385MOL0     H53066   6.241   0.889   9.512 -0.4612  1.8334  1.9823
  385MOL0     H53067   6.072   1.002   9.607 -0.8530 -1.8403 -1.3345
  385MOL0     H53068   6.207   1.120   9.582  2.1503 -2.4886 -1.6350
  385MOL0     H53069   6.064   1.198   9.373 -1.2092 -1.3234 -1.1169
  385MOL0     H53070   5.931   1.110   9.456  0.7254 -0.6787  0.0917
  385MOL0     H53071   5.984   1.261   9.657 -1.3862  1.8293  0.4429
  385MOL0     H53072   5.935   1.345   9.509  0.6676 -0.8397 -0.6319
  385MOL0     H53073   6.232   1.322   9.562  0.4926  0.9383 -1.3145
  385MOL0     H53074   6.146   1.414   9.451  1.8036  2.0776  0.5671
  385MOL0     H53075   6.047   1.521   9.681  0.0884  0.4974  2.1475
  385MOL0     H53076   6.218   1.546   9.651 -2.1441  2.5211  2.9749
  385MOL0     H53077   6.118   1.325   9.823  1.5171 -0.3368  0.5726
  385MOL0     H53078   6.282   1.390   9.814  0.0901  1.1617 -2.7726
  385MOL0     H53079   6.293   1.649   9.891 -0.0298  1.5644 -0.1483
  385MOL0     H53080   6.244   1.860  10.045 -0.0723 -0.5744 -1.9795
  385MOL0     H53081   6.132   1.829  10.185 -0.1419  1.8948  0.3303
  385MOL0     H53082   6.036   1.911   9.908 -1.2248 -1.7516  0.3896
  385MOL0     H53083   5.967   1.933  10.083  1.1087  0.0711  1.5959
  385MOL0     H53084   6.153   2.086  10.131  2.0382  5.0946 -1.6365
  385MOL0     H53085   6.201   2.089   9.964  1.9617 -1.5700  1.3993
  385MOL0     H53086   6.054   2.284  10.019  1.1415 -0.3811 -1.5141
  385MOL0     H53087   5.971   2.177   9.911  0.2286 -2.4279  0.1585
  385MOL0     H53088   5.766   1.939  10.124  1.0363 -1.0583 -3.0560
  385MOL0     H53089   5.573   1.831  10.127  3.8829  2.3097 -0.5551
  385MOL0     H53090   5.495   1.860   9.973  0.2779 -0.2069  0.1168
  385MOL0     H53091   5.420   1.922  10.128 -0.2337 -1.1662  0.8695
  385MOL0     H53092   5.295   2.279   9.745 -0.7246  1.3180 -1.5004
  385MOL0     H53093   5.108   2.370   9.632 -2.5929  2.4634 -0.6870
  385MOL0     H53094   4.861   2.443   9.541  0.9416  3.1579 -0.3964
  385MOL0     H53095   4.794   2.352   9.680 -0.4335 -1.5971 -2.0251
  385MOL0     H53096   4.741   2.643   9.663  0.3757 -0.0715  0.6358
  385MOL0     H53097   4.655   2.539   9.540 -0.1207  0.2342  0.5299
  385MOL0     H53098   4.645   2.463   9.834 -1.9773 -1.6104  0.5097
  385MOL0     H53099   4.552   2.398   9.706 -0.1238 -1.3902  3.3748
  385MOL0     H53100   4.452   2.614   9.657  0.8430 -1.2457  0.1064
  385MOL0     H53101   4.526   2.693   9.797 -0.6281  0.1272 -0.3273
  385MOL0     H53102   4.289   2.611   9.825 -0.4761 -0.6132 -0.9390
  385MOL0     H53103   4.354   2.444   9.802 -1.0526 -0.9519 -0.0680
  385MOL0     H53104   4.461   2.627  10.037 -0.2341 -0.1527  2.0634
  385MOL0     H53105   4.484   2.461  10.005  1.4226  1.1110  1.7058
  385MOL0     H53106   4.254   2.399  10.039  1.5756 -0.9692 -0.3394
  385MOL0     H53107   4.205   2.564  10.063  0.1588 -1.8472 -0.1709
  385MOL0     H53108   4.398   2.554  10.268 -0.3826  0.7580 -2.1615
  385MOL0     H53109   4.364   2.382  10.244  0.3411 -0.1047  1.7564
  385MOL0     H53110   4.959   2.551   9.988 -1.7376 -1.0997 -1.3915
  385MOL0     H53111   5.144   2.475  10.109 -1.3321 -1.6456  1.0418
  385MOL0     H53112   5.543   2.359   9.969  2.3587  1.2518 -0.7530
  385MOL0     H53113   5.798   2.355  10.028  1.6140 -0.6936  0.4430
  385MOL0     H53114   6.448   1.102   9.149  1.2241  4.3270 -0.8776
  385MOL0     H53115   6.679   1.071   9.027  0.7318 -0.8005  0.5460
  385MOL0     H53116   6.990   1.126   8.925 -0.0940  0.7731 -0.5789
  385MOL0     H53117   7.173   1.188   8.748 -0.3618  0.9021 -0.2066
  385MOL0     H53118   7.402   1.178   8.718 -0.3868 -0.6398 -2.7203
  385MOL0     H53119   7.307   1.313   8.631  0.8415  3.4261 -0.5994
  385MOL0     H53120   7.595   1.281   8.681 -0.8201 -1.8242  1.7735
  385MOL0     H53121   7.520   1.431   8.619  1.8970 -0.4600 -3.1301
  385MOL0     H53122   7.449   1.177   8.473 -0.8295  1.0501  2.6215
  385MOL0     H53123   7.482   1.346   8.405  0.7153  0.9148  1.1286
  385MOL0     H53124   7.721   1.317   8.453 -1.2581  0.7960  2.2648
  385MOL0     H53125   7.653   1.227   8.311  1.9867 -3.4030 -0.4566
  385MOL0     H53126   7.813   0.910   8.528  0.9763 -0.2311 -2.4442
  385MOL0     H53127   7.362   1.415   9.069 -1.3194  0.8966  1.2571
  385MOL0     H53128   7.188   1.482   9.264 -0.6496  0.1224 -3.3529
  385MOL0     H53129   7.142   1.333   9.329 -0.8802  0.3947 -0.3211
  385MOL0     H53130   7.312   1.363   9.284 -1.1635  1.4802  5.7919
  386MOL0     O53131   9.414   7.076   5.935 -0.0385  0.2622  0.4610
  386MOL0     C53132   9.305   7.044   5.980 -0.3596  0.4257  0.3645
  386MOL0     O53133   9.288   6.959   6.094  0.1540 -0.2580 -0.0943
  386MOL0     C53134   9.405   6.916   6.153 -0.2127  0.5672 -0.5078
  386MOL0     C53135   9.426   6.952   6.292  0.0296 -0.4908  0.0342
  386MOL0     C53136   9.552   6.928   6.352  0.4787  0.7041  0.8392
  386MOL0     C53137   9.651   6.855   6.279 -0.3714 -0.5820 -0.1804
  386MOL0     O53138   9.772   6.825   6.339 -0.1857 -0.1217 -0.1010
  386MOL0     C53139   9.832   6.891   6.443  0.0025 -0.0940 -0.8499
  386MOL0     C53140   9.822   6.815   6.570 -0.3958  0.3761 -0.0046
  386MOL0     C53141   9.921   6.696   6.577 -0.6281  0.2542  0.1793
  386MOL0     C53142   9.920   6.610   6.702 -0.8812  0.3491 -0.7143
  386MOL0     C53143   9.995   6.474   6.690 -0.0138  0.0640 -0.5950
  386MOL0     C53144  10.006   6.394   6.819 -0.0684 -0.0108  0.2854
  386MOL0     C53145   9.864   6.344   6.865 -0.3160 -0.4033 -0.0065
  386MOL0     C53146   9.866   6.236   6.976  0.1930  0.3377 -0.2810
  386MOL0     N53147   9.832   6.104   6.929  0.6800 -0.2926 -0.1975
  386MOL0     C53148   9.910   6.023   6.855  0.1691 -0.3020  0.4620
  386MOL0     C53149   9.842   5.909   6.821 -0.9613  0.1184  0.0122
  386MOL0     C53150   9.911   5.808   6.735  1.1798  0.0797 -0.1806
  386MOL0     C53151   9.888   5.662   6.776 -0.4613 -0.7949 -0.9891
  386MOL0     C53152   9.739   5.615   6.763 -0.3020  0.4612  0.4391
  386MOL0     C53153   9.688   5.596   6.623  0.2608 -0.1797 -0.1933
  386MOL0     O53154   9.540   5.588   6.626 -0.0356 -0.6451  0.4018
  386MOL0     C53155   9.465   5.537   6.511  0.4160 -0.3294 -0.5895
  386MOL0     C53156   9.522   5.513   6.390  0.9874  0.5970  0.6017
  386MOL0     C53157   9.446   5.473   6.274  0.2777  0.1156 -0.5145
  386MOL0     C53158   9.527   5.475   6.146 -0.6916 -0.3374  0.1169
  386MOL0     C53159   9.306   5.462   6.286  0.3052 -0.5984  0.4067
  386MOL0     C53160   9.211   5.444   6.171 -0.3777 -0.5583  0.0048
  386MOL0     O53161   9.106   5.355   6.176 -0.1927  0.8658  0.3715
  386MOL0     C53162   9.003   5.354   6.080  0.6637 -0.1031 -1.3922
  386MOL0     C53163   8.961   5.467   5.997 -0.2379 -0.0257  0.0302
  386MOL0     C53164   8.871   5.450   5.900  0.1116 -0.4773  0.0522
  386MOL0     C53165   8.801   5.328   5.876  0.7829 -0.1449 -0.0017
  386MOL0     O53166   8.705   5.321   5.780  0.6137  0.0765  0.1301
  386MOL0     C53167   8.586   5.236   5.808 -0.0119  0.1005  0.7819
  386MOL0     C53168   8.473   5.276   5.714  0.9788 -0.1279  0.2745
  386MOL0     C53169   8.376   5.162   5.698  0.5564  0.8458  0.1805
  386MOL0     C53170   8.305   5.118   5.829 -0.2995  0.1214 -0.4661
  386MOL0     C53171   8.205   5.000   5.804  0.6545  0.3626  0.3847
  386MOL0     C53172   8.276   4.880   5.726 -0.0382 -0.1755  0.4462
  386MOL0     C53173   8.389   4.827   5.813 -0.3512 -0.0194  0.6088
  386MOL0     C53174   8.433   4.681   5.750 -0.6358 -0.5446  0.4188
  386MOL0    Cl53175   8.479   4.697   5.569  0.2731  0.3608 -0.4304
  386MOL0     C53176   8.826   5.227   5.967 -0.0552  0.4467 -0.1705
  386MOL0     C53177   8.922   5.241   6.070  0.5570  0.0587  0.3630
  386MOL0     O53178   9.226   5.532   6.084 -0.3377  0.1023  0.7691
  386MOL0     C53179   9.245   5.492   6.409  0.0949  0.5376  0.0880
  386MOL0     C53180   9.329   5.523   6.518 -0.7689  0.3113  0.5347
  386MOL0     N53181   9.713   5.926   6.887 -0.5398 -0.7076  0.1336
  386MOL0     N53182   9.705   6.046   6.946  0.1122  0.5124  0.4510
  386MOL0     C53183   9.626   6.808   6.148  0.1632 -0.2770 -1.3619
  386MOL0     C53184   9.503   6.846   6.086  0.0203 -0.2619  0.5356
  386MOL0     C53185   9.175   7.095   5.910  0.9957  0.0762  1.0333
  386MOL0     C53186   9.054   7.021   5.938  0.5440 -0.7452 -1.2848
  386MOL0     C53187   8.932   7.063   5.878  0.3109 -0.0320 -0.5725
  386MOL0     C53188   8.927   7.164   5.786  0.2477 -0.0445 -0.1925
  386MOL0     O53189   8.811   7.221   5.736  0.0104  1.3344  0.9210
  386MOL0     C53190   8.683   7.154   5.757 -0.2487 -0.6382  0.3389
  386MOL0     C53191   8.606   7.231   5.864 -0.8397 -0.7958 -0.3075
  386MOL0     C53192   8.543   7.364   5.808 -0.5911  0.5667  0.1717
  386MOL0     C53193   8.472   7.445   5.907  0.9424  0.5221 -0.5203
  386MOL0     C53194   8.341   7.399   5.924  0.4302 -0.0304 -0.5084
  386MOL0     C53195   8.225   7.365   5.944 -0.5655 -0.1717 -0.1335
  386MOL0     C53196   9.043   7.238   5.752 -0.1410 -0.2522 -0.3502
  386MOL0     C53197   9.171   7.200   5.810 -0.3457  0.4722 -0.0181
  386MOL0     C53198   9.297   7.286   5.780  1.0254 -0.4848 -0.2540
  386MOL0     H53199   9.348   7.009   6.342 -2.6784 -2.6710 -1.4263
  386MOL0     H53200   9.577   6.969   6.450  0.7040  2.5520  0.0519
  386MOL0     H53201   9.796   6.991   6.466 -2.3339 -1.0425 -0.0911
  386MOL0     H53202   9.938   6.901   6.420  0.1553 -0.6581 -0.4250
  386MOL0     H53203   9.856   6.884   6.648  2.0867  0.8115 -1.3831
  386MOL0     H53204   9.718   6.781   6.576  0.4184 -3.2675 -3.0819
  386MOL0     H53205   9.888   6.629   6.497  1.3838 -0.9069  0.2463
  386MOL0     H53206  10.024   6.729   6.559 -0.3083 -0.8843 -0.1775
  386MOL0     H53207   9.962   6.676   6.779 -1.0158 -0.5778  0.1795
  386MOL0     H53208   9.819   6.590   6.739 -0.6645 -1.2834 -0.8997
  386MOL0     H53209  10.099   6.492   6.662  1.0485 -0.0164  2.8161
  386MOL0     H53210   9.944   6.422   6.608 -1.0972 -1.4392  0.9456
  386MOL0     H53211  10.060   6.301   6.798  2.0784  1.2634 -0.1966
  386MOL0     H53212  10.053   6.451   6.900 -1.3114  1.8191 -0.2187
  386MOL0     H53213   9.805   6.307   6.781 -0.5995 -1.0329  0.4639
  386MOL0     H53214   9.812   6.428   6.911  0.4825  0.5908 -0.8796
  386MOL0     H53215   9.959   6.234   7.033  1.6417 -2.1067 -2.5126
  386MOL0     H53216   9.791   6.275   7.046 -0.8085  0.2850 -1.2884
  386MOL0     H53217  10.007   6.053   6.815 -0.3219  1.0523  0.2393
  386MOL0     H53218  10.014   5.840   6.724  1.8541 -1.8403  0.1065
  386MOL0     H53219   9.867   5.819   6.635  1.0074  1.6926  0.0513
  386MOL0     H53220   9.966   5.600   6.731  2.3300  0.5129  1.6705
  386MOL0     H53221   9.919   5.676   6.880 -2.1710  3.5194 -0.8451
  386MOL0     H53222   9.717   5.517   6.807 -1.0489 -0.1073 -1.1332
  386MOL0     H53223   9.676   5.688   6.816 -0.2200 -0.3963  1.7816
  386MOL0     H53224   9.716   5.681   6.559 -1.0004 -1.1637 -2.1594
  386MOL0     H53225   9.727   5.501   6.586  2.2663  0.5680 -0.1173
  386MOL0     H53226   9.631   5.518   6.389  0.9877  2.4725  2.2475
  386MOL0     H53227   9.519   5.573   6.098  1.9050  0.1354  0.4861
  386MOL0     H53228   9.490   5.394   6.082 -0.3300  0.1751 -0.7609
  386MOL0     H53229   9.626   5.432   6.162 -1.3614 -1.8579  0.3803
  386MOL0     H53230   9.009   5.565   6.000 -1.2276  0.4454  2.0226
  386MOL0     H53231   8.845   5.531   5.833 -0.7293  1.4966  2.6022
  386MOL0     H53232   8.615   5.132   5.789 -1.3931 -0.2654  0.5753
  386MOL0     H53233   8.561   5.255   5.913  1.7917 -1.1133  1.4885
  386MOL0     H53234   8.421   5.365   5.750  0.5744 -1.6483  3.9026
  386MOL0     H53235   8.514   5.282   5.613  2.3180 -4.6134  0.3386
  386MOL0     H53236   8.444   5.086   5.660  1.6566  1.0110  1.7589
  386MOL0     H53237   8.307   5.183   5.616  0.4212 -1.1837 -0.2889
  386MOL0     H53238   8.255   5.207   5.869 -0.9601 -0.4336 -0.0227
  386MOL0     H53239   8.389   5.082   5.890  0.6510 -2.3256 -2.9608
  386MOL0     H53240   8.156   4.974   5.898 -0.5217  0.8925 -0.0559
  386MOL0     H53241   8.123   5.034   5.739  1.3389 -2.7138 -2.4198
  386MOL0     H53242   8.316   4.916   5.631  0.3844  0.6978  0.9462
  386MOL0     H53243   8.210   4.793   5.718  1.7848 -1.6960  1.3044
  386MOL0     H53244   8.365   4.811   5.918 -2.3641 -0.0399  0.1905
  386MOL0     H53245   8.468   4.902   5.805  0.2031 -0.7785 -2.1711
  386MOL0     H53246   8.358   4.602   5.754 -2.0862  0.7764  0.5940
  386MOL0     H53247   8.521   4.647   5.805  1.0265  0.6024 -1.3791
  386MOL0     H53248   8.769   5.136   5.951  1.3162 -0.0480 -2.7648
  386MOL0     H53249   8.949   5.152   6.127  1.7117  0.7519  0.9430
  386MOL0     H53250   9.140   5.475   6.430  0.5903 -0.6047  1.9349
  386MOL0     H53251   9.287   5.538   6.617  0.2206  0.2464  0.9725
  386MOL0     H53252   9.701   6.757   6.089  0.2363  0.0818 -1.5844
  386MOL0     H53253   9.489   6.834   5.979  0.3020  1.0503  0.3361
  386MOL0     H53254   9.046   6.953   6.023  0.0220  1.1490  0.2421
  386MOL0     H53255   8.838   7.017   5.904 -0.9583  0.8469 -3.2733
  386MOL0     H53256   8.639   7.157   5.656  1.6381  2.2277 -0.5349
  386MOL0     H53257   8.693   7.052   5.794 -0.1224 -0.6852  0.1807
  386MOL0     H53258   8.666   7.240   5.954 -2.1843 -1.2356  0.6572
  386MOL0     H53259   8.523   7.166   5.894 -0.3700 -1.2378  0.0417
  386MOL0     H53260   8.622   7.416   5.752  0.3154 -2.2461 -1.3930
  386MOL0     H53261   8.474   7.338   5.728  1.0323 -3.3156 -0.2395
  386MOL0     H53262   8.473   7.546   5.865  0.4610 -0.4848 -3.1449
  386MOL0     H53263   8.529   7.436   6.000  1.7591  0.2439 -1.0334
  386MOL0     H53264   8.128   7.328   5.971 -2.0554  1.7129 -2.4942
  386MOL0     H53265   9.040   7.308   5.670 -1.9725 -0.9376 -0.9070
  386MOL0     H53266   9.269   7.390   5.761 -2.9080 -1.8369 -3.0120
  386MOL0     H53267   9.365   7.290   5.866  1.1984  0.6505 -0.4225
  386MOL0     H53268   9.353   7.253   5.693  3.9077 -0.8953  1.6231
  387MOL0     O53269   3.346   7.979   6.492 -0.3030 -0.0522  0.2108
  387MOL0     C53270   3.393   8.061   6.576 -0.1113  0.4405  0.4239
  387MOL0     O53271   3.512   8.125   6.563 -0.4129 -1.2532  0.0717
  387MOL0     C53272   3.578   8.106   6.448  0.1148 -1.2527 -0.8607
  387MOL0     C53273   3.698   8.041   6.445 -0.2770 -0.6376 -0.2089
  387MOL0     C53274   3.765   8.036   6.318 -0.5082 -0.4512 -0.1457
  387MOL0     C53275   3.712   8.088   6.195  0.4960  0.1613 -0.2982
  387MOL0     O53276   3.770   8.069   6.074  0.4726  0.2948  0.1987
  387MOL0     C53277   3.765   8.171   5.975 -0.7913  0.5917 -0.2318
  387MOL0     C53278   3.869   8.137   5.869 -0.3406 -0.0470 -0.2723
  387MOL0     C53279   4.015   8.165   5.926 -1.1225 -0.1018  0.7184
  387MOL0     C53280   4.108   8.126   5.806 -0.9914 -0.3896 -1.1096
  387MOL0     C53281   4.254   8.163   5.820  0.2830 -0.1412  0.0419
  387MOL0     C53282   4.325   8.177   5.691  1.1304 -0.0968 -0.0779
  387MOL0     C53283   4.452   8.260   5.707  1.0508 -0.0775  0.0945
  387MOL0     C53284   4.427   8.406   5.756  0.1862  0.3757  0.0486
  387MOL0     N53285   4.521   8.511   5.725  0.4498  0.0886  0.4750
  387MOL0     C53286   4.637   8.504   5.645  0.1146  0.4294 -0.2852
  387MOL0     C53287   4.691   8.632   5.657  1.0711 -0.5549  0.2958
  387MOL0     C53288   4.808   8.679   5.571  0.3194 -0.6972 -0.1951
  387MOL0     C53289   4.939   8.684   5.658 -0.1592 -0.3436 -1.0494
  387MOL0     C53290   5.065   8.703   5.571 -0.7904  0.2366 -0.9715
  387MOL0     C53291   5.185   8.752   5.659 -0.5284  0.2473 -0.1595
  387MOL0     O53292   5.289   8.779   5.564 -0.2514 -0.2664  0.2832
  387MOL0     C53293   5.406   8.826   5.616  0.6123 -0.3231  0.8982
  387MOL0     C53294   5.520   8.827   5.530 -1.2795  0.0983 -1.4642
  387MOL0     C53295   5.645   8.874   5.570  0.1221  0.8995  0.4316
  387MOL0     C53296   5.746   8.893   5.456 -0.1173  1.3418  0.4462
  387MOL0     C53297   5.668   8.906   5.701  0.6730  0.5178 -0.0578
  387MOL0     C53298   5.805   8.959   5.747  0.3657  0.2219  0.3773
  387MOL0     O53299   5.804   9.040   5.861 -0.4595 -0.6798  0.3227
  387MOL0     C53300   5.919   9.056   5.931  0.8158 -0.7365 -0.1157
  387MOL0     C53301   5.968   9.190   5.953  0.1897  0.4358  1.4280
  387MOL0     C53302   6.086   9.218   6.018 -0.6222  0.0425 -0.0439
  387MOL0     C53303   6.160   9.117   6.076  0.7584  0.2300 -0.1583
  387MOL0     O53304   6.279   9.151   6.138 -0.5610  0.6990 -0.1929
  387MOL0     C53305   6.387   9.058   6.117  0.4755 -0.0477  0.9403
  387MOL0     C53306   6.509   9.100   6.188 -0.2387 -0.0276 -0.9927
  387MOL0     C53307   6.571   9.220   6.123 -0.3406 -0.7489  0.4369
  387MOL0     C53308   6.688   9.276   6.211 -0.1465 -0.0038 -0.5537
  387MOL0     C53309   6.830   9.214   6.181 -0.5499  0.5796 -0.3829
  387MOL0     C53310   6.944   9.256   6.271  0.4888 -0.7728  0.0601
  387MOL0     C53311   7.072   9.184   6.238 -0.4717  0.3264  0.0644
  387MOL0     C53312   7.057   9.045   6.303  0.1282 -0.0699  1.2037
  387MOL0    Cl53313   7.219   8.964   6.273  0.0265 -0.3450  0.4299
  387MOL0     C53314   6.108   8.989   6.057  1.4667  0.1232  0.1703
  387MOL0     C53315   5.994   8.955   5.989 -0.0136 -0.3087 -0.3156
  387MOL0     O53316   5.907   8.920   5.697  0.8009 -0.6345  0.2500
  387MOL0     C53317   5.555   8.895   5.794 -0.4136 -0.3666  0.2812
  387MOL0     C53318   5.429   8.871   5.742  0.5924  0.2938  0.6603
  387MOL0     N53319   4.626   8.700   5.749 -0.6974 -0.1463 -0.4968
  387MOL0     N53320   4.523   8.637   5.779 -0.4543 -0.7231 -0.3320
  387MOL0     C53321   3.581   8.145   6.214 -0.2709  0.8165  0.7018
  387MOL0     C53322   3.514   8.156   6.331 -0.2618 -0.2802  0.6391
  387MOL0     C53323   3.314   8.107   6.694 -0.5088  0.9156  0.0403
  387MOL0     C53324   3.302   8.241   6.735  0.3360 -0.3218  0.7612
  387MOL0     C53325   3.248   8.280   6.855 -0.0132  0.5312 -0.4370
  387MOL0     C53326   3.172   8.186   6.927  0.4599  0.1663 -0.2941
  387MOL0     O53327   3.115   8.236   7.046  0.0388  0.3224 -0.0979
  387MOL0     C53328   3.110   8.154   7.164  0.5997 -0.2218 -0.2655
  387MOL0     C53329   3.111   8.249   7.280 -0.5415  0.4505 -0.2360
  387MOL0     C53330   3.082   8.186   7.415 -0.1889  0.5560  0.6320
  387MOL0     C53331   3.111   8.289   7.524 -0.5438 -0.1595 -0.7055
  387MOL0     C53332   3.008   8.400   7.528 -0.6269  0.4197  0.5280
  387MOL0     C53333   2.919   8.487   7.539 -0.3125 -0.4400 -0.8238
  387MOL0     C53334   3.167   8.053   6.885 -0.6032 -0.3070  0.6622
  387MOL0     C53335   3.235   8.008   6.765  1.0226 -0.1069  0.4896
  387MOL0     C53336   3.211   7.873   6.710 -0.1807 -0.1993 -0.3256
  387MOL0     H53337   3.742   8.006   6.538  1.2331  0.5902 -0.4236
  387MOL0     H53338   3.861   7.985   6.316 -0.5128 -0.4773  0.1988
  387MOL0     H53339   3.793   8.262   6.030 -0.4745  0.9439 -0.9642
  387MOL0     H53340   3.662   8.181   5.939 -2.8594 -0.4319  4.5548
  387MOL0     H53341   3.857   8.032   5.843  2.9575 -0.9337  1.2469
  387MOL0     H53342   3.854   8.197   5.779  0.3057  0.0327 -0.3277
  387MOL0     H53343   4.030   8.271   5.947 -0.0703  0.1741 -1.1730
  387MOL0     H53344   4.031   8.116   6.023 -0.1228  0.0521  0.6442
  387MOL0     H53345   4.108   8.017   5.793  0.3929 -0.1356 -4.3367
  387MOL0     H53346   4.071   8.178   5.717  1.4246 -0.2424 -2.1143
  387MOL0     H53347   4.298   8.082   5.879 -1.5421 -1.7844 -0.7298
  387MOL0     H53348   4.264   8.250   5.886  1.3783  1.2785 -1.8946
  387MOL0     H53349   4.349   8.077   5.655 -1.8911 -0.5077 -1.2979
  387MOL0     H53350   4.264   8.231   5.617  1.8824  3.4923  1.6931
  387MOL0     H53351   4.489   8.268   5.604 -0.4754  1.0395 -0.4133
  387MOL0     H53352   4.526   8.208   5.768 -0.7443  0.0720  2.5191
  387MOL0     H53353   4.338   8.444   5.704 -0.4113 -1.1073 -0.0501
  387MOL0     H53354   4.412   8.406   5.864 -1.9957  1.0145 -0.2118
  387MOL0     H53355   4.666   8.424   5.578  1.1156  0.1237  0.4862
  387MOL0     H53356   4.789   8.783   5.543 -2.4142 -1.5741 -2.0617
  387MOL0     H53357   4.818   8.616   5.483  0.0927 -0.3539 -0.4702
  387MOL0     H53358   4.921   8.766   5.728 -2.0495  0.2139 -2.1218
  387MOL0     H53359   4.946   8.590   5.714  2.5732 -0.8838 -2.1387
  387MOL0     H53360   5.092   8.604   5.533 -2.3864 -1.1284  1.1999
  387MOL0     H53361   5.066   8.765   5.481  2.3304  0.2317 -1.0687
  387MOL0     H53362   5.146   8.838   5.714 -2.9462  0.5071 -2.0716
  387MOL0     H53363   5.220   8.673   5.726 -0.8881 -0.1140 -0.3885
  387MOL0     H53364   5.516   8.813   5.423  2.5214  3.5157 -2.3132
  387MOL0     H53365   5.804   8.986   5.459  2.1019  0.0704 -0.4239
  387MOL0     H53366   5.707   8.892   5.354  3.3103 -0.0198 -1.0153
  387MOL0     H53367   5.824   8.816   5.459  0.4172  1.7481 -1.4053
  387MOL0     H53368   5.914   9.279   5.922  1.2639  1.6974  3.0004
  387MOL0     H53369   6.119   9.321   6.027  0.2904 -0.4174  2.7687
  387MOL0     H53370   6.352   8.959   6.147 -0.3106 -0.5811 -1.5697
  387MOL0     H53371   6.397   9.045   6.009 -1.2006 -1.0788  0.8783
  387MOL0     H53372   6.478   9.126   6.290 -1.2974  1.2143 -1.6086
  387MOL0     H53373   6.578   9.015   6.191  1.2586  1.1752  0.6234
  387MOL0     H53374   6.494   9.297   6.122  0.6993  0.3116  0.1369
  387MOL0     H53375   6.603   9.199   6.021  1.4219 -0.4939  0.9072
  387MOL0     H53376   6.653   9.268   6.314 -2.3495 -0.6065 -1.2807
  387MOL0     H53377   6.694   9.383   6.187 -0.6081  0.6097  1.8524
  387MOL0     H53378   6.817   9.106   6.194  2.7729  0.2080  0.5890
  387MOL0     H53379   6.867   9.242   6.082 -0.3878  0.9996 -0.2062
  387MOL0     H53380   6.908   9.250   6.374 -3.4715 -1.1613 -1.1909
  387MOL0     H53381   6.952   9.365   6.265 -3.1609 -0.2345  2.1134
  387MOL0     H53382   7.154   9.230   6.294 -0.5332  2.6265 -1.5830
  387MOL0     H53383   7.094   9.176   6.131  3.0518  3.7942  0.2872
  387MOL0     H53384   6.983   8.989   6.246  1.2346  0.9196 -1.3382
  387MOL0     H53385   7.033   9.043   6.410  0.4561 -1.8373  1.2782
  387MOL0     H53386   6.149   8.897   6.099 -2.4956 -1.4119  1.0688
  387MOL0     H53387   5.961   8.855   5.964 -1.0203  0.7007 -3.5308
  387MOL0     H53388   5.553   8.929   5.897 -1.1967  1.7547 -0.3710
  387MOL0     H53389   5.344   8.885   5.809  0.2920 -1.6847  0.7608
  387MOL0     H53390   3.542   8.182   6.120  1.3490 -2.9011 -1.6303
  387MOL0     H53391   3.421   8.211   6.340 -1.1867 -1.1888 -2.2547
  387MOL0     H53392   3.350   8.322   6.680  1.3147 -0.7191  1.0127
  387MOL0     H53393   3.254   8.381   6.892  3.4136 -0.3329  1.7876
  387MOL0     H53394   3.016   8.101   7.148 -0.1263  1.6258 -2.6292
  387MOL0     H53395   3.193   8.084   7.177  0.3972 -0.2868  0.8411
  387MOL0     H53396   3.024   8.313   7.262 -0.0117  1.5257  0.9326
  387MOL0     H53397   3.204   8.305   7.283  0.4792 -1.2227  1.4274
  387MOL0     H53398   2.976   8.159   7.416  0.3725 -1.8287  0.2611
  387MOL0     H53399   3.135   8.093   7.436  0.7170  0.7018 -0.9180
  387MOL0     H53400   3.206   8.336   7.498 -0.4480  0.1707  0.2146
  387MOL0     H53401   3.108   8.252   7.627  3.1646  2.7902  0.6623
  387MOL0     H53402   2.834   8.551   7.544 -0.4473 -0.6160 -0.8528
  387MOL0     H53403   3.118   7.975   6.942  1.5582 -0.4267  2.5050
  387MOL0     H53404   3.135   7.826   6.774 -1.0371 -0.2056 -1.3188
  387MOL0     H53405   3.157   7.888   6.616  1.3353  2.2446 -0.8975
  387MOL0     H53406   3.305   7.820   6.695  2.0982  2.9001  1.5906
  388MOL0     O53407   3.379   6.130   3.674 -0.2708 -0.3530 -0.4660
  388MOL0     C53408   3.287   6.213   3.678 -0.2284  0.0592 -1.2344
  388MOL0     O53409   3.305   6.345   3.635  0.7546  0.5000  0.3743
  388MOL0     C53410   3.420   6.371   3.568 -0.0465  0.8527  0.5077
  388MOL0     C53411   3.534   6.401   3.637  0.2610 -0.8867  0.7727
  388MOL0     C53412   3.652   6.431   3.564 -0.1669  0.4394  0.8603
  388MOL0     C53413   3.663   6.404   3.429  0.7175 -0.8100  0.4268
  388MOL0     O53414   3.794   6.406   3.379 -0.5436 -0.4202 -0.4243
  388MOL0     C53415   3.874   6.293   3.419  0.0030  0.5641  0.0397
  388MOL0     C53416   3.996   6.291   3.326 -0.2492  1.0088  0.3944
  388MOL0     C53417   3.958   6.279   3.177  0.1273 -0.5889  0.4671
  388MOL0     C53418   4.072   6.285   3.076 -0.1630  0.7639 -0.4595
  388MOL0     C53419   4.179   6.178   3.107  0.5929  0.4829  0.4055
  388MOL0     C53420   4.290   6.183   2.996 -1.4136  0.1850 -0.0193
  388MOL0     C53421   4.407   6.088   3.029  0.2898 -0.7007 -0.0745
  388MOL0     C53422   4.505   6.085   2.911 -0.5000  0.3561 -0.0971
  388MOL0     N53423   4.644   6.051   2.944  0.3536 -0.0298  0.2462
  388MOL0     C53424   4.713   6.135   3.021  0.0727 -0.7404 -0.0991
  388MOL0     C53425   4.834   6.072   3.043 -0.6608 -0.3236  0.4730
  388MOL0     C53426   4.954   6.118   3.121  0.2025  0.3648 -0.3063
  388MOL0     C53427   5.001   6.258   3.082  0.9853 -0.1524  0.5089
  388MOL0     C53428   5.122   6.303   3.165 -0.1073  0.4067 -0.3913
  388MOL0     C53429   5.084   6.360   3.297 -0.3106  0.4368  0.4681
  388MOL0     O53430   5.037   6.496   3.293 -0.6893 -0.0043 -0.1573
  388MOL0     C53431   5.139   6.599   3.304 -0.6553 -0.3909  0.5429
  388MOL0     C53432   5.082   6.728   3.323  0.1756  0.2949 -0.2867
  388MOL0     C53433   5.157   6.842   3.342 -0.2441 -0.8803 -0.4588
  388MOL0     C53434   5.068   6.962   3.366  0.4330  0.4122  0.2920
  388MOL0     C53435   5.300   6.825   3.342  0.0669 -0.1732 -0.0948
  388MOL0     C53436   5.391   6.939   3.365  0.8464  0.0955  0.1985
  388MOL0     O53437   5.525   6.916   3.344  0.4888 -0.7899  0.2795
  388MOL0     C53438   5.595   7.034   3.339 -0.7054 -0.4618  0.2268
  388MOL0     C53439   5.649   7.079   3.456  0.3570 -0.6628  0.8101
  388MOL0     C53440   5.737   7.193   3.460 -0.1266  0.0720  1.0261
  388MOL0     C53441   5.772   7.255   3.344 -0.0902  0.4056 -0.0070
  388MOL0     O53442   5.865   7.353   3.356  0.3537  0.2770  0.0619
  388MOL0     C53443   5.971   7.366   3.254 -0.1073  0.3447  0.5898
  388MOL0     C53444   6.098   7.440   3.308 -0.1674 -0.4923  0.6669
  388MOL0     C53445   6.143   7.374   3.431 -0.4531  1.0904  0.4409
  388MOL0     C53446   6.254   7.445   3.501  0.3517 -0.3474 -0.6194
  388MOL0     C53447   6.302   7.346   3.597 -0.5367  0.0506  0.4076
  388MOL0     C53448   6.403   7.424   3.686 -0.1869 -0.3880 -0.7331
  388MOL0     C53449   6.320   7.481   3.806  1.3075  0.2223 -0.4420
  388MOL0     C53450   6.416   7.553   3.894 -0.2242  0.6783 -1.1693
  388MOL0    Cl53451   6.508   7.428   3.998  0.2584 -0.8415  0.3035
  388MOL0     C53452   5.724   7.209   3.221 -1.1170 -0.5083 -0.4574
  388MOL0     C53453   5.646   7.091   3.223 -0.1708  0.1634  0.3758
  388MOL0     O53454   5.343   7.046   3.395 -0.2517 -0.5267  0.2036
  388MOL0     C53455   5.356   6.699   3.315  0.3002  0.6695 -0.0281
  388MOL0     C53456   5.280   6.590   3.302 -0.0721  0.3964  0.1366
  388MOL0     N53457   4.826   5.954   2.977 -1.1489  0.0565  0.8152
  388MOL0     N53458   4.706   5.929   2.936  0.3408 -0.1724 -0.4865
  388MOL0     C53459   3.546   6.363   3.361 -0.5132 -0.3526 -0.2152
  388MOL0     C53460   3.427   6.345   3.431  0.1383  0.1134  0.1800
  388MOL0     C53461   3.150   6.180   3.731 -0.3785 -0.4533  0.7765
  388MOL0     C53462   3.041   6.270   3.723 -0.1713  0.4986 -0.3601
  388MOL0     C53463   2.913   6.242   3.772  0.1510  0.7011 -1.1949
  388MOL0     C53464   2.892   6.129   3.854 -0.3584 -0.3914 -0.3284
  388MOL0     O53465   2.765   6.101   3.909  0.2175 -0.5523  0.8322
  388MOL0     C53466   2.740   5.964   3.929  0.0642 -0.0173 -0.7571
  388MOL0     C53467   2.589   5.935   3.959  0.0552 -0.0969 -0.6923
  388MOL0     C53468   2.529   6.008   4.080 -0.6505 -0.1418 -0.4636
  388MOL0     C53469   2.598   5.994   4.216  1.0705  0.0455  1.0533
  388MOL0     C53470   2.609   5.848   4.246 -0.0795 -0.2008  0.3754
  388MOL0     C53471   2.637   5.737   4.283 -0.4932  0.7432 -0.5529
  388MOL0     C53472   3.002   6.043   3.876 -0.3004 -0.0671  0.0680
  388MOL0     C53473   3.131   6.063   3.818  0.4691 -1.1187  0.4285
  388MOL0     C53474   3.248   5.964   3.843  0.2427 -0.1185  0.3180
  388MOL0     H53475   3.537   6.419   3.744  1.6938  0.4316  0.5434
  388MOL0     H53476   3.735   6.456   3.629  0.9705 -2.0289  0.4763
  388MOL0     H53477   3.815   6.201   3.413  1.4713 -0.2903 -3.4003
  388MOL0     H53478   3.909   6.296   3.523 -0.1810 -1.1044  0.1732
  388MOL0     H53479   4.054   6.379   3.354 -0.7741  1.3839  0.3131
  388MOL0     H53480   4.063   6.209   3.353 -1.7076 -0.2878  0.2412
  388MOL0     H53481   3.908   6.182   3.172  0.0037 -0.4797 -0.6113
  388MOL0     H53482   3.879   6.352   3.158  1.1299  0.1056 -1.2612
  388MOL0     H53483   4.033   6.252   2.980  0.3971 -3.6314  0.6052
  388MOL0     H53484   4.121   6.383   3.069  0.8276  0.3720  0.6136
  388MOL0     H53485   4.128   6.082   3.095  0.7562  0.5841 -1.2821
  388MOL0     H53486   4.219   6.198   3.207  0.3136 -0.3189  0.6886
  388MOL0     H53487   4.248   6.154   2.900  1.5207  1.7414 -1.9458
  388MOL0     H53488   4.326   6.286   2.982 -1.8016 -0.0405 -3.3111
  388MOL0     H53489   4.367   5.987   3.037 -1.3325 -0.1222 -0.4563
  388MOL0     H53490   4.459   6.110   3.123  0.8073  0.8996 -0.7059
  388MOL0     H53491   4.464   6.018   2.834 -2.8416  0.3910  1.0392
  388MOL0     H53492   4.511   6.186   2.869  1.8401  0.4727  0.3482
  388MOL0     H53493   4.693   6.235   3.059 -0.2917 -1.2560  1.1265
  388MOL0     H53494   5.038   6.047   3.119  0.1236  0.0851  2.3690
  388MOL0     H53495   4.918   6.132   3.223 -1.1791  1.1472 -0.8763
  388MOL0     H53496   5.013   6.271   2.974  2.8908 -3.2543  0.2075
  388MOL0     H53497   4.922   6.331   3.102 -0.5463 -1.5385 -0.2802
  388MOL0     H53498   5.192   6.219   3.173  0.4015  0.7848 -0.8864
  388MOL0     H53499   5.182   6.375   3.110  0.0298 -0.6219 -1.6296
  388MOL0     H53500   5.000   6.306   3.341  0.5232 -0.0106  1.5514
  388MOL0     H53501   5.174   6.349   3.358  0.8895 -1.9488 -1.5456
  388MOL0     H53502   4.974   6.739   3.323  0.0373 -0.8237  0.9298
  388MOL0     H53503   5.080   7.008   3.465 -0.3841  3.2410 -0.8048
  388MOL0     H53504   4.962   6.944   3.345  1.0278 -2.4861 -0.7291
  388MOL0     H53505   5.096   7.039   3.294  1.1977  0.6287  0.8057
  388MOL0     H53506   5.624   7.032   3.551  2.9533  0.5854  2.2196
  388MOL0     H53507   5.785   7.230   3.550  2.6133 -0.2534 -0.2080
  388MOL0     H53508   6.014   7.268   3.233  2.2272  1.4661 -0.1788
  388MOL0     H53509   5.933   7.410   3.162  1.5648 -1.0799 -0.8601
  388MOL0     H53510   6.175   7.448   3.231  0.3088  1.4353  1.3021
  388MOL0     H53511   6.076   7.545   3.327  1.3297 -0.0250 -0.0327
  388MOL0     H53512   6.172   7.272   3.401  0.7494  1.6258 -0.3019
  388MOL0     H53513   6.057   7.367   3.498 -1.9551  0.6450 -1.4772
  388MOL0     H53514   6.230   7.540   3.551  2.5426 -0.9200  1.7354
  388MOL0     H53515   6.340   7.464   3.437 -0.7811  0.7846 -1.8668
  388MOL0     H53516   6.219   7.315   3.662 -0.7549  0.1308  0.1691
  388MOL0     H53517   6.344   7.265   3.537 -2.7895 -0.3116 -0.8078
  388MOL0     H53518   6.446   7.514   3.642 -0.0353 -0.2027 -0.2157
  388MOL0     H53519   6.491   7.373   3.726  0.2494  1.2122  0.4540
  388MOL0     H53520   6.257   7.413   3.863 -0.0001  0.6244 -1.3654
  388MOL0     H53521   6.264   7.568   3.769  3.3776  1.0417 -1.9199
  388MOL0     H53522   6.352   7.618   3.953 -3.8431  0.4822 -4.4761
  388MOL0     H53523   6.485   7.624   3.847 -2.2627  3.8143  0.3132
  388MOL0     H53524   5.767   7.252   3.131 -0.4815 -1.8497 -0.8176
  388MOL0     H53525   5.605   7.051   3.131 -1.5675 -0.3242  1.1894
  388MOL0     H53526   5.462   6.677   3.323  0.0421 -0.0465  2.1943
  388MOL0     H53527   5.329   6.497   3.276 -1.3240  0.1216 -1.4119
  388MOL0     H53528   3.536   6.354   3.253 -0.3029  0.8747 -0.3461
  388MOL0     H53529   3.336   6.310   3.382  1.8668 -1.9323 -1.7978
  388MOL0     H53530   3.060   6.365   3.675  2.0009  0.7967  0.9606
  388MOL0     H53531   2.833   6.312   3.749  0.0748  0.8352 -0.5456
  388MOL0     H53532   2.776   5.905   3.844 -1.5295 -0.8448 -0.8922
  388MOL0     H53533   2.782   5.929   4.024 -0.6805  0.0209 -0.4140
  388MOL0     H53534   2.571   5.828   3.967  2.5532 -0.7226 -2.2403
  388MOL0     H53535   2.533   5.974   3.873 -0.9776 -0.5744 -0.2459
  388MOL0     H53536   2.523   6.114   4.053  2.5206  0.2963  0.1805
  388MOL0     H53537   2.429   5.966   4.093 -0.1285 -0.6268  2.8503
  388MOL0     H53538   2.525   6.026   4.291 -1.1943 -2.4979  0.0911
  388MOL0     H53539   2.694   6.046   4.229 -0.1276  1.9773  3.0766
  388MOL0     H53540   2.645   5.633   4.306  0.0521  0.4266 -2.0715
  388MOL0     H53541   2.991   5.952   3.935  1.1279  0.6164  1.4597
  388MOL0     H53542   3.323   6.023   3.896  3.2678 -2.4107 -1.1053
  388MOL0     H53543   3.208   5.875   3.894 -2.8830  2.2331  2.3319
  388MOL0     H53544   3.280   5.926   3.746 -4.2542  0.8739 -1.8201
  389MOL0     O53545   9.327   2.442   4.049 -0.1935 -0.0034  0.2817
  389MOL0     C53546   9.273   2.509   4.135  0.0911  0.7499 -0.1531
  389MOL0     O53547   9.326   2.521   4.259 -0.0114 -0.2261  0.5653
  389MOL0     C53548   9.457   2.486   4.283 -0.8898 -0.1868  0.2159
  389MOL0     C53549   9.562   2.541   4.207  0.6530  0.5070 -0.4589
  389MOL0     C53550   9.696   2.524   4.235 -0.4828  0.2175 -0.5504
  389MOL0     C53551   9.734   2.451   4.346  0.0732 -0.1478 -0.2592
  389MOL0     O53552   9.868   2.430   4.370  0.3719 -1.0061  0.1499
  389MOL0     C53553   9.903   2.409   4.515  0.6346 -0.5105  0.5899
  389MOL0     C53554  10.007   2.516   4.566 -0.3515 -0.4240 -0.1150
  389MOL0     C53555  10.143   2.509   4.486  0.4229 -0.1792  0.2484
  389MOL0     C53556  10.221   2.643   4.485 -0.8897  1.1104 -0.2586
  389MOL0     C53557  10.348   2.618   4.397  0.5964  0.1485 -0.3303
  389MOL0     C53558  10.420   2.755   4.366  0.2176  0.1023 -0.4729
  389MOL0     C53559  10.500   2.785   4.501 -0.0033 -0.3013  0.4806
  389MOL0     C53560  10.613   2.890   4.500  0.0657  0.5217  0.5386
  389MOL0     N53561  10.733   2.828   4.439 -0.2111 -0.0475  0.0386
  389MOL0     C53562  10.839   2.773   4.514 -0.3500  0.1579  0.3745
  389MOL0     C53563  10.924   2.742   4.411 -0.2468 -1.0934 -0.2273
  389MOL0     C53564  11.053   2.673   4.426  0.2563 -0.2437 -0.3057
  389MOL0     C53565  11.164   2.748   4.369  0.5419 -0.6252 -0.3391
  389MOL0     C53566  11.185   2.887   4.449 -0.1843 -0.3515 -0.3453
  389MOL0     C53567  11.282   2.971   4.367  0.6180 -0.1819 -0.2620
  389MOL0     O53568  11.309   3.092   4.447  0.2714  0.3735 -0.0674
  389MOL0     C53569  11.428   3.153   4.407 -0.1195  0.0139 -0.0170
  389MOL0     C53570  11.468   3.265   4.486  0.0401  0.4065 -0.9210
  389MOL0     C53571  11.597   3.328   4.463 -0.2112 -0.7640  0.1573
  389MOL0     C53572  11.645   3.442   4.559 -0.2618 -0.9904  0.5291
  389MOL0     C53573  11.682   3.283   4.356  0.0431  0.9079 -1.3346
  389MOL0     C53574  11.807   3.351   4.330  0.5353  0.6683  0.2479
  389MOL0     O53575  11.903   3.338   4.428 -0.2483 -0.2086  0.8091
  389MOL0     C53576  12.024   3.317   4.374 -0.4427  0.8862 -0.6091
  389MOL0     C53577  12.066   3.188   4.331  0.3696 -0.5960 -0.1036
  389MOL0     C53578  12.190   3.169   4.270  0.2166  0.1115 -0.8274
  389MOL0     C53579  12.276   3.280   4.246  0.3424  0.4090 -0.1349
  389MOL0     O53580  12.401   3.271   4.193 -0.6797  0.5259  0.5616
  389MOL0     C53581  12.484   3.149   4.221  0.3606 -0.2932  0.1742
  389MOL0     C53582  12.630   3.193   4.211 -0.3354 -0.4277 -0.0736
  389MOL0     C53583  12.732   3.078   4.225  0.0901 -1.1519 -0.9432
  389MOL0     C53584  12.739   3.015   4.362 -0.8195  0.7230 -0.1809
  389MOL0     C53585  12.862   2.923   4.369 -0.5140 -0.7983  0.1401
  389MOL0     C53586  12.858   2.857   4.510 -0.5042 -0.2744  0.6789
  389MOL0     C53587  12.973   2.775   4.537  0.6955  0.7994  0.5386
  389MOL0     C53588  13.011   2.658   4.430 -0.3848 -0.8686 -0.4585
  389MOL0    Cl53589  12.870   2.542   4.403  0.0202 -0.1078  0.1659
  389MOL0     C53590  12.217   3.407   4.280 -0.5587  0.1086  0.5743
  389MOL0     C53591  12.098   3.426   4.345 -1.1750 -0.9258  1.0384
  389MOL0     O53592  11.807   3.419   4.229  0.1700  0.6966  0.0122
  389MOL0     C53593  11.632   3.183   4.278  0.0125  0.9279  0.0290
  389MOL0     C53594  11.514   3.110   4.298  0.0142 -0.2220 -0.2222
  389MOL0     N53595  10.869   2.778   4.292 -0.7382 -1.2308 -0.4471
  389MOL0     N53596  10.756   2.832   4.309  0.1830 -0.2092 -0.4995
  389MOL0     C53597   9.627   2.403   4.430  0.8982 -0.4029 -0.5888
  389MOL0     C53598   9.496   2.417   4.395 -0.5573  0.3422 -0.0825
  389MOL0     C53599   9.149   2.581   4.098 -0.5383  0.2498  0.6380
  389MOL0     C53600   9.111   2.563   3.962 -0.0072 -0.4980  0.1190
  389MOL0     C53601   9.004   2.643   3.921 -0.1660 -0.7046  0.5768
  389MOL0     C53602   8.941   2.735   4.003  0.1092  0.4170  0.2884
  389MOL0     O53603   8.833   2.802   3.952 -0.3494 -0.4562  0.2983
  389MOL0     C53604   8.804   2.818   3.810  0.2233  0.5293 -0.5355
  389MOL0     C53605   8.680   2.724   3.773 -0.1438  0.8792 -0.3375
  389MOL0     C53606   8.671   2.686   3.633 -0.0759 -0.1525 -0.4124
  389MOL0     C53607   8.547   2.596   3.640 -0.2232  0.4413  0.6503
  389MOL0     C53608   8.508   2.580   3.499 -0.5261  0.3187  0.5413
  389MOL0     C53609   8.471   2.570   3.380  0.9670  0.1844  0.2120
  389MOL0     C53610   8.976   2.748   4.133 -0.1992 -0.5167  0.5929
  389MOL0     C53611   9.086   2.672   4.176 -0.4563 -1.0901 -1.2329
  389MOL0     C53612   9.126   2.709   4.322 -0.4072  0.4649 -0.3491
  389MOL0     H53613   9.533   2.590   4.114  0.9420 -1.1204 -1.4323
  389MOL0     H53614   9.778   2.570   4.182  0.7106 -2.2154 -0.9339
  389MOL0     H53615   9.956   2.314   4.530  1.7429  0.2266  1.6145
  389MOL0     H53616   9.809   2.409   4.572 -1.0503  3.3206 -1.7581
  389MOL0     H53617   9.965   2.617   4.567 -0.3242 -0.3404  3.0119
  389MOL0     H53618  10.028   2.492   4.671  0.5912 -1.1273 -0.4479
  389MOL0     H53619  10.215   2.439   4.532  0.9046  0.3550  0.3195
  389MOL0     H53620  10.128   2.476   4.383 -1.6208  3.4239 -0.7466
  389MOL0     H53621  10.155   2.720   4.444 -3.6051 -0.3397  1.1729
  389MOL0     H53622  10.232   2.671   4.590  0.4938  2.4991 -0.7228
  389MOL0     H53623  10.319   2.569   4.304  1.6414 -1.7977  0.3131
  389MOL0     H53624  10.413   2.547   4.450 -1.7441 -2.2802 -0.4937
  389MOL0     H53625  10.490   2.747   4.282  2.2643 -2.4544  1.3209
  389MOL0     H53626  10.354   2.838   4.339  0.2224 -1.0272 -4.7927
  389MOL0     H53627  10.541   2.688   4.531 -2.2040 -1.7870 -0.9439
  389MOL0     H53628  10.428   2.817   4.576  1.2841  2.8725  0.5071
  389MOL0     H53629  10.594   2.976   4.435  3.4503 -1.5994 -3.7853
  389MOL0     H53630  10.636   2.918   4.603  1.7468 -0.5557  0.4868
  389MOL0     H53631  10.847   2.766   4.622  0.8535 -0.0605  0.2777
  389MOL0     H53632  11.054   2.574   4.379 -0.3071 -1.0795  1.3418
  389MOL0     H53633  11.068   2.668   4.535 -2.0739  0.2069  0.0719
  389MOL0     H53634  11.254   2.688   4.383  1.0288  0.2895  0.6501
  389MOL0     H53635  11.144   2.756   4.262 -2.0022  0.8058  0.1567
  389MOL0     H53636  11.088   2.939   4.443  1.7094  3.5077 -1.1844
  389MOL0     H53637  11.215   2.872   4.553 -2.1518  0.5105  0.4029
  389MOL0     H53638  11.372   2.911   4.352  1.6553  0.8137  1.5496
  389MOL0     H53639  11.234   2.999   4.272 -3.7645 -0.6793  1.5470
  389MOL0     H53640  11.412   3.300   4.573  0.0456  2.9991 -1.8997
  389MOL0     H53641  11.699   3.525   4.511  1.5081 -1.9025  0.8615
  389MOL0     H53642  11.709   3.414   4.643  1.2920  2.1836  0.5669
  389MOL0     H53643  11.560   3.488   4.610 -1.8295 -0.5084 -2.3104
  389MOL0     H53644  12.007   3.098   4.343 -0.4478 -0.0344  0.1819
  389MOL0     H53645  12.218   3.067   4.247 -0.2091 -0.7799  2.1835
  389MOL0     H53646  12.451   3.107   4.316 -3.9282 -2.3344 -1.9050
  389MOL0     H53647  12.465   3.082   4.136  0.4331  4.7328 -4.3392
  389MOL0     H53648  12.634   3.246   4.116 -3.4714  2.8394  1.3912
  389MOL0     H53649  12.645   3.267   4.290 -0.4144 -0.1085 -0.3575
  389MOL0     H53650  12.827   3.123   4.195 -0.4234  0.3093 -0.4891
  389MOL0     H53651  12.712   2.999   4.153 -0.7547 -0.7202 -1.1982
  389MOL0     H53652  12.651   2.951   4.374 -0.2762  0.0887  0.5465
  389MOL0     H53653  12.738   3.083   4.448  0.6668 -0.0816  0.5250
  389MOL0     H53654  12.853   2.842   4.295 -0.9516 -1.8318  1.2834
  389MOL0     H53655  12.955   2.977   4.351  1.1585 -2.5402  2.7738
  389MOL0     H53656  12.761   2.807   4.518 -1.1104  0.4553 -1.4656
  389MOL0     H53657  12.858   2.941   4.581  1.4074  1.2774 -1.0427
  389MOL0     H53658  12.947   2.732   4.634  1.7269  1.9350  1.3588
  389MOL0     H53659  13.063   2.836   4.553  0.8831  0.6874 -0.0770
  389MOL0     H53660  13.096   2.599   4.466  1.4711 -0.0652 -3.2894
  389MOL0     H53661  13.043   2.693   4.332  0.0061  0.7282  0.2067
  389MOL0     H53662  12.278   3.494   4.259  2.4218 -1.8193  0.5959
  389MOL0     H53663  12.055   3.525   4.359  3.2431  1.2038  1.2765
  389MOL0     H53664  11.677   3.148   4.186  0.0325 -1.2141  0.8007
  389MOL0     H53665  11.491   3.037   4.222  0.8751 -2.2878  1.3873
  389MOL0     H53666   9.637   2.327   4.506 -0.1647 -0.8464 -0.8715
  389MOL0     H53667   9.423   2.365   4.456  0.7836 -0.8860  0.5339
  389MOL0     H53668   9.164   2.495   3.896  0.0862 -1.1052  0.7998
  389MOL0     H53669   8.977   2.624   3.818  0.8149  0.9833 -0.0261
  389MOL0     H53670   8.762   2.917   3.792 -0.8320 -0.0369 -1.3171
  389MOL0     H53671   8.895   2.820   3.750  1.5644  0.9343  1.4314
  389MOL0     H53672   8.590   2.782   3.796  0.8137  2.3689 -0.1940
  389MOL0     H53673   8.672   2.635   3.836 -0.5774 -0.2015 -1.8836
  389MOL0     H53674   8.665   2.769   3.563 -0.9222  0.0149 -0.1466
  389MOL0     H53675   8.759   2.631   3.599 -0.8144 -0.7759 -1.3569
  389MOL0     H53676   8.468   2.647   3.695 -1.5645 -1.7052  0.8328
  389MOL0     H53677   8.570   2.496   3.678  2.5538  0.9357  0.4769
  389MOL0     H53678   8.433   2.559   3.281 -3.6329 -0.5042  1.8109
  389MOL0     H53679   8.921   2.816   4.197 -4.7454 -2.8554 -0.4698
  389MOL0     H53680   9.227   2.749   4.337 -0.7316  1.6369 -1.0951
  389MOL0     H53681   9.046   2.768   4.368 -1.4009 -0.8874 -0.2865
  389MOL0     H53682   9.128   2.616   4.379  0.7998  1.8543  2.0635
  390MOL0     O53683   1.299   6.270   8.783  0.9663  0.1043 -0.2908
  390MOL0     C53684   1.281   6.371   8.847 -0.0017 -0.3527 -1.0102
  390MOL0     O53685   1.375   6.474   8.867 -0.7454  0.0411  0.9165
  390MOL0     C53686   1.506   6.448   8.826 -0.3728 -0.6573 -0.1909
  390MOL0     C53687   1.550   6.406   8.698  0.2215  0.7493  0.5097
  390MOL0     C53688   1.684   6.379   8.664  0.7958 -0.0612 -0.0261
  390MOL0     C53689   1.776   6.388   8.769 -0.3089  0.4542  0.4334
  390MOL0     O53690   1.913   6.351   8.748 -0.2420  0.4058  0.2208
  390MOL0     C53691   2.006   6.424   8.834 -1.7160  0.6143 -0.1613
  390MOL0     C53692   2.150   6.399   8.785  0.4546  0.2602  0.3328
  390MOL0     C53693   2.190   6.471   8.653  0.6363  0.6439 -0.2630
  390MOL0     C53694   2.228   6.617   8.675  1.0186 -0.3837 -0.0066
  390MOL0     C53695   2.236   6.693   8.539  0.0660 -0.0314 -0.7884
  390MOL0     C53696   2.111   6.709   8.458 -0.8817 -0.7136  0.3919
  390MOL0     C53697   1.996   6.759   8.542  0.5828  0.4587  1.0763
  390MOL0     C53698   1.868   6.732   8.469 -0.5669  0.7970 -0.3807
  390MOL0     N53699   1.746   6.784   8.539  0.1859  0.1255 -0.1603
  390MOL0     C53700   1.698   6.748   8.661  0.2585 -0.5720  0.2611
  390MOL0     C53701   1.579   6.813   8.681 -0.2573 -0.0185  0.4930
  390MOL0     C53702   1.495   6.810   8.810 -0.7837  0.7467 -0.2166
  390MOL0     C53703   1.350   6.798   8.800 -0.2291  0.3280  0.3062
  390MOL0     C53704   1.274   6.815   8.930  0.4783 -0.2472 -0.0101
  390MOL0     C53705   1.128   6.825   8.925 -0.5752 -0.6945  0.3265
  390MOL0     O53706   1.067   6.715   8.851  0.3457 -0.7947  0.1517
  390MOL0     C53707   0.928   6.717   8.843 -0.5461 -0.0042  0.2221
  390MOL0     C53708   0.866   6.630   8.748  1.0896  0.0963 -0.4506
  390MOL0     C53709   0.725   6.638   8.718 -1.1257  0.0064  0.5282
  390MOL0     C53710   0.676   6.539   8.626 -0.6976  0.3363  0.1807
  390MOL0     C53711   0.648   6.740   8.777 -0.1807 -0.8291 -0.0767
  390MOL0     C53712   0.506   6.771   8.748  0.2557  0.1596 -0.5353
  390MOL0     O53713   0.456   6.884   8.804  0.6419  0.5405  0.3268
  390MOL0     C53714   0.327   6.922   8.816 -0.3099  0.0037 -0.9266
  390MOL0     C53715   0.298   7.059   8.846  0.1528 -0.0270 -0.5401
  390MOL0     C53716   0.161   7.096   8.866  0.4275  0.4970 -0.0339
  390MOL0     C53717   0.060   7.003   8.867  0.3433 -0.1532 -0.7270
  390MOL0     O53718  -0.066   7.029   8.913 -0.3718  0.9570  0.1539
  390MOL0     C53719  -0.089   7.147   8.990 -0.7187 -0.6163  0.2408
  390MOL0     C53720  -0.025   7.143   9.132  0.3469 -0.4340 -0.5547
  390MOL0     C53721  -0.050   7.016   9.213 -0.3158  0.0092  0.3535
  390MOL0     C53722  -0.191   7.011   9.266  0.3525 -0.6217  0.6365
  390MOL0     C53723  -0.201   6.890   9.353 -0.4199  0.1161 -0.2913
  390MOL0     C53724  -0.258   6.767   9.285  0.0899 -1.0918  0.4771
  390MOL0     C53725  -0.417   6.759   9.296  0.1217 -0.1542  0.0986
  390MOL0     C53726  -0.480   6.653   9.210  0.3932  0.0710 -0.3114
  390MOL0    Cl53727  -0.418   6.478   9.235 -0.1089 -0.0106  0.2292
  390MOL0     C53728   0.093   6.869   8.836  0.2021 -0.4930 -0.0663
  390MOL0     C53729   0.220   6.829   8.802  0.5648 -0.3488 -0.7280
  390MOL0     O53730   0.451   6.694   8.663 -0.3319  0.7018 -0.5615
  390MOL0     C53731   0.709   6.819   8.878  0.3183 -0.3363  0.1002
  390MOL0     C53732   0.846   6.801   8.915  0.6798  0.6811 -0.2457
  390MOL0     N53733   1.549   6.892   8.572 -0.3745  0.6902  1.1464
  390MOL0     N53734   1.652   6.865   8.482 -0.4738 -0.0133 -0.4984
  390MOL0     C53735   1.736   6.426   8.896 -0.0907 -0.3869 -0.9399
  390MOL0     C53736   1.604   6.453   8.929 -0.0438 -0.0189 -0.0074
  390MOL0     C53737   1.156   6.387   8.905  0.2753  0.6281  0.0164
  390MOL0     C53738   1.048   6.347   8.826  0.7192 -0.4687 -0.0596
  390MOL0     C53739   0.917   6.359   8.880  0.1006 -0.2644  0.2894
  390MOL0     C53740   0.888   6.425   9.002 -0.4023 -0.1339  0.7602
  390MOL0     O53741   0.772   6.456   9.064 -0.1862  0.1434  0.0439
  390MOL0     C53742   0.658   6.407   8.995  0.3284  0.0630  0.9886
  390MOL0     C53743   0.529   6.433   9.071 -0.6045 -0.7805  0.2378
  390MOL0     C53744   0.510   6.577   9.114  0.1592 -0.6811  0.3387
  390MOL0     C53745   0.362   6.592   9.159 -0.0340  0.1919 -0.0202
  390MOL0     C53746   0.360   6.713   9.245 -0.8375 -1.3129  0.9681
  390MOL0     C53747   0.350   6.802   9.329 -0.3593 -0.3620  0.4410
  390MOL0     C53748   0.998   6.463   9.074 -1.0332  0.3915 -0.2526
  390MOL0     C53749   1.130   6.450   9.028  0.2941  0.2730 -0.1788
  390MOL0     C53750   1.225   6.491   9.139  0.0857 -0.4077  0.3902
  390MOL0     H53751   1.475   6.391   8.621  1.2348  0.4606 -0.4510
  390MOL0     H53752   1.719   6.349   8.565 -1.9177 -2.5232 -0.3765
  390MOL0     H53753   2.002   6.392   8.939  0.7486 -0.3835 -0.2910
  390MOL0     H53754   1.984   6.530   8.848  1.6747  1.3668  0.3931
  390MOL0     H53755   2.222   6.421   8.864 -1.1734 -2.7653  2.8987
  390MOL0     H53756   2.171   6.292   8.769  0.4101  0.4825 -1.3883
  390MOL0     H53757   2.279   6.423   8.612  0.0502 -2.3510  1.6727
  390MOL0     H53758   2.108   6.462   8.582  1.2781 -1.9317 -0.7508
  390MOL0     H53759   2.158   6.671   8.740 -1.8439 -5.5073  1.7420
  390MOL0     H53760   2.324   6.619   8.727 -0.1209  0.0655  2.2153
  390MOL0     H53761   2.309   6.641   8.476 -0.8388 -1.8972 -0.3609
  390MOL0     H53762   2.257   6.795   8.574 -4.0334  0.3785  1.0365
  390MOL0     H53763   2.131   6.772   8.371 -0.3056 -2.2363 -0.6246
  390MOL0     H53764   2.095   6.612   8.411 -0.0941 -1.3250  1.3491
  390MOL0     H53765   2.007   6.866   8.564  4.6207  1.1647 -2.9599
  390MOL0     H53766   1.991   6.706   8.638 -0.3694 -0.7047  0.3969
  390MOL0     H53767   1.872   6.760   8.364  1.3260 -2.2944 -1.2557
  390MOL0     H53768   1.859   6.623   8.463 -0.4506  0.8323 -1.2850
  390MOL0     H53769   1.744   6.682   8.734  0.6132 -0.5689  0.0407
  390MOL0     H53770   1.521   6.902   8.863  4.7506  0.0707 -1.1734
  390MOL0     H53771   1.530   6.730   8.876  4.1118  0.5514 -2.6206
  390MOL0     H53772   1.324   6.871   8.722 -3.2429 -3.5837 -2.7276
  390MOL0     H53773   1.332   6.698   8.762  0.0609 -0.0849  1.2281
  390MOL0     H53774   1.293   6.718   8.978  1.7451  0.8730  1.8705
  390MOL0     H53775   1.323   6.894   8.987 -0.4876  0.1063  0.3528
  390MOL0     H53776   1.118   6.812   9.033 -1.5317  1.3376  0.5239
  390MOL0     H53777   1.099   6.929   8.904  0.8307  0.2874  2.8014
  390MOL0     H53778   0.935   6.564   8.697  1.7883 -0.8693  1.6329
  390MOL0     H53779   0.600   6.486   8.685 -1.2228 -0.7204 -1.3931
  390MOL0     H53780   0.756   6.467   8.607  0.6439  1.3600  1.6917
  390MOL0     H53781   0.641   6.590   8.536  0.5919  0.9577  0.0138
  390MOL0     H53782   0.379   7.131   8.853  0.2059  0.4993 -4.2355
  390MOL0     H53783   0.139   7.201   8.884  1.1394  1.0346 -1.9892
  390MOL0     H53784  -0.064   7.240   8.939  2.7216 -0.5250  1.8427
  390MOL0     H53785  -0.196   7.147   9.014 -0.3380  1.9295  2.3454
  390MOL0     H53786   0.083   7.141   9.115  0.4352 -2.0252  0.0174
  390MOL0     H53787  -0.063   7.231   9.186  0.5898 -2.4400  3.2318
  390MOL0     H53788   0.017   7.026   9.299 -0.5571  0.2641  0.5155
  390MOL0     H53789  -0.028   6.930   9.150 -0.0495  1.6268 -1.8811
  390MOL0     H53790  -0.276   7.016   9.198 -2.7071  3.9423  4.1671
  390MOL0     H53791  -0.210   7.106   9.318  1.7536  1.6364 -2.6021
  390MOL0     H53792  -0.110   6.866   9.409 -0.6380  0.0590  0.0414
  390MOL0     H53793  -0.276   6.910   9.430 -2.0690 -2.0962 -1.2233
  390MOL0     H53794  -0.226   6.677   9.338 -1.8613 -1.1488  1.6764
  390MOL0     H53795  -0.228   6.764   9.180  0.5182 -0.3983  0.5777
  390MOL0     H53796  -0.461   6.855   9.264  0.0765 -0.1573  0.1519
  390MOL0     H53797  -0.456   6.743   9.397 -0.3165  0.3534  0.0150
  390MOL0     H53798  -0.454   6.673   9.106  0.6369 -0.4994 -0.3627
  390MOL0     H53799  -0.588   6.656   9.224  0.1828 -2.6920 -0.8010
  390MOL0     H53800   0.014   6.795   8.842 -1.2678  0.9258 -1.2119
  390MOL0     H53801   0.242   6.725   8.779  0.3870 -0.3509 -0.8929
  390MOL0     H53802   0.652   6.903   8.916 -2.1563 -1.9610  0.1669
  390MOL0     H53803   0.893   6.862   8.991  1.6008 -2.0294  1.4963
  390MOL0     H53804   1.805   6.424   8.979  0.0421  1.5583 -0.9586
  390MOL0     H53805   1.568   6.472   9.029  0.0404  1.2927 -0.2193
  390MOL0     H53806   1.055   6.308   8.725 -2.7276 -1.2313 -0.1056
  390MOL0     H53807   0.825   6.334   8.829 -1.6542 -1.7576  3.8011
  390MOL0     H53808   0.659   6.457   8.898 -1.2091  0.5992  1.2180
  390MOL0     H53809   0.671   6.299   8.984 -1.5477 -0.0377 -1.0654
  390MOL0     H53810   0.541   6.380   9.166  0.2833 -0.2939  0.4000
  390MOL0     H53811   0.446   6.387   9.016 -0.4824 -1.4023  0.5618
  390MOL0     H53812   0.576   6.605   9.197  1.8014 -1.3086 -0.7044
  390MOL0     H53813   0.523   6.642   9.028  1.4982 -1.5556 -0.1621
  390MOL0     H53814   0.337   6.498   9.209  1.9953 -2.4075 -3.4120
  390MOL0     H53815   0.291   6.602   9.076 -2.8547 -3.2131  1.7029
  390MOL0     H53816   0.331   6.867   9.412  0.5445 -1.2814  1.3897
  390MOL0     H53817   0.995   6.516   9.168  3.2096 -1.5937  1.2737
  390MOL0     H53818   1.197   6.435   9.229  0.0460 -1.1671 -0.0884
  390MOL0     H53819   1.321   6.443   9.117  1.0136  1.5878 -0.1023
  390MOL0     H53820   1.232   6.600   9.147  2.1872 -0.4330 -0.3987
  391MOL0     O53821   5.505   4.340   1.157  0.0465 -0.4793 -1.0692
  391MOL0     C53822   5.470   4.288   1.055  1.1181 -0.9726 -0.1353
  391MOL0     O53823   5.541   4.289   0.941 -0.5115  0.0321  0.4459
  391MOL0     C53824   5.677   4.325   0.940  0.6335 -0.0788  0.5083
  391MOL0     C53825   5.717   4.369   0.814  0.8329  0.6050 -0.4179
  391MOL0     C53826   5.854   4.393   0.793  0.3090 -0.4739  1.0036
  391MOL0     C53827   5.951   4.394   0.894 -0.2603 -0.1990  0.3195
  391MOL0     O53828   6.083   4.433   0.888  0.2153 -0.4611  0.7080
  391MOL0     C53829   6.129   4.500   0.768 -0.5594 -0.0363  0.2395
  391MOL0     C53830   6.062   4.650   0.783  0.2066  1.0728  0.7480
  391MOL0     C53831   6.092   4.721   0.909  0.1178 -0.5804  0.4588
  391MOL0     C53832   6.251   4.725   0.931 -0.0336  0.2038  0.0367
  391MOL0     C53833   6.289   4.713   1.081 -0.0360 -0.1584 -0.4218
  391MOL0     C53834   6.435   4.756   1.102 -0.8913 -0.7777  0.1384
  391MOL0     C53835   6.485   4.725   1.238  0.2066  0.0248  0.1339
  391MOL0     C53836   6.637   4.751   1.238  0.4465 -0.1117  0.0719
  391MOL0     N53837   6.695   4.709   1.368 -0.4131 -0.1120 -0.7231
  391MOL0     C53838   6.740   4.579   1.392  0.3251  0.0916  0.2599
  391MOL0     C53839   6.819   4.592   1.501 -0.0197  0.2346  1.0737
  391MOL0     C53840   6.899   4.484   1.564 -0.0624 -0.0022  0.0904
  391MOL0     C53841   6.829   4.346   1.552 -0.0559 -1.0306  0.6001
  391MOL0     C53842   6.852   4.278   1.412 -0.1044 -0.8531  0.3362
  391MOL0     C53843   6.729   4.196   1.379  0.1088  0.4780  0.0189
  391MOL0     O53844   6.615   4.282   1.383  0.1664 -0.6222 -0.8048
  391MOL0     C53845   6.485   4.224   1.384 -0.3011  0.2431  0.0581
  391MOL0     C53846   6.381   4.319   1.385  0.1984 -0.0172  0.6686
  391MOL0     C53847   6.255   4.276   1.376  0.4721 -0.1807 -0.5025
  391MOL0     C53848   6.140   4.387   1.380  0.4059  0.0347 -0.5936
  391MOL0     C53849   6.227   4.141   1.364  0.2738 -0.2626  0.0073
  391MOL0     C53850   6.088   4.102   1.338 -0.0364 -0.0005  0.9066
  391MOL0     O53851   6.042   4.004   1.419  0.0629  0.0957  0.4139
  391MOL0     C53852   5.910   3.968   1.411 -0.0639  0.1583 -0.2680
  391MOL0     C53853   5.809   4.064   1.414  0.1186 -0.2078 -0.1969
  391MOL0     C53854   5.674   4.041   1.414  0.1257  1.0235 -0.7698
  391MOL0     C53855   5.636   3.906   1.416 -0.2823 -0.2618  0.2898
  391MOL0     O53856   5.504   3.882   1.402 -0.6850  0.0758  0.4256
  391MOL0     C53857   5.448   3.750   1.378  0.0719 -0.2546 -0.4566
  391MOL0     C53858   5.294   3.757   1.392  0.5953 -0.6373  0.1212
  391MOL0     C53859   5.227   3.789   1.261 -0.3004 -0.6721  0.0720
  391MOL0     C53860   5.079   3.768   1.277  0.5216 -0.3508  0.0221
  391MOL0     C53861   5.013   3.766   1.126 -0.6341 -0.5152  0.3285
  391MOL0     C53862   4.866   3.752   1.122  0.0014 -0.4141 -1.1926
  391MOL0     C53863   4.797   3.735   0.983  0.0102 -0.8321  0.8411
  391MOL0     C53864   4.651   3.745   0.987  0.4858 -0.2572  0.2225
  391MOL0    Cl53865   4.596   3.600   1.076  0.3510 -0.4822  0.2810
  391MOL0     C53866   5.733   3.800   1.413  0.1235  0.4384  0.0875
  391MOL0     C53867   5.872   3.831   1.418  0.4729 -0.8279 -0.1209
  391MOL0     O53868   6.029   4.141   1.237 -0.4390  0.3303  0.3082
  391MOL0     C53869   6.330   4.042   1.363  0.8565 -0.1323  0.7542
  391MOL0     C53870   6.462   4.090   1.374 -0.0585 -0.1418  1.3503
  391MOL0     N53871   6.810   4.724   1.545 -0.3964 -0.3819 -0.4618
  391MOL0     N53872   6.740   4.795   1.463  0.6449 -0.6993 -0.4002
  391MOL0     C53873   5.904   4.352   1.024 -0.1771 -0.6656  0.2566
  391MOL0     C53874   5.770   4.311   1.047  0.0361  0.5047 -0.3130
  391MOL0     C53875   5.328   4.232   1.043 -0.1449  0.4598  0.2018
  391MOL0     C53876   5.276   4.216   0.922  0.5168 -0.0813  0.1072
  391MOL0     C53877   5.147   4.176   0.903  0.1694  0.4364 -0.2873
  391MOL0     C53878   5.057   4.165   1.008 -0.1372 -0.9026  0.2098
  391MOL0     O53879   4.923   4.153   0.984 -0.1672  0.3262 -0.6920
  391MOL0     C53880   4.876   4.117   0.851  0.0667  0.7714 -0.5926
  391MOL0     C53881   4.720   4.133   0.861 -0.0981  0.1297  0.4466
  391MOL0     C53882   4.649   4.035   0.774  0.3708 -0.5390  1.1942
  391MOL0     C53883   4.498   4.067   0.752 -0.5481 -0.0426 -0.9184
  391MOL0     C53884   4.421   3.996   0.853  0.1467  0.4692  0.9449
  391MOL0     C53885   4.372   3.938   0.947  0.3441  0.0338  0.6679
  391MOL0     C53886   5.107   4.179   1.135  0.0739  0.2967  0.5392
  391MOL0     C53887   5.238   4.215   1.156  0.3381  1.0250 -0.0110
  391MOL0     C53888   5.275   4.235   1.294 -0.0099 -0.3536 -0.1454
  391MOL0     H53889   5.646   4.382   0.733  1.2709  1.2001 -0.7224
  391MOL0     H53890   5.882   4.411   0.690 -0.5954 -4.0111 -0.0061
  391MOL0     H53891   6.092   4.443   0.683 -0.6196  1.6347 -0.9082
  391MOL0     H53892   6.237   4.507   0.753 -0.4455 -2.0566 -0.1422
  391MOL0     H53893   6.099   4.709   0.699  1.0773  0.9703  1.0527
  391MOL0     H53894   5.957   4.637   0.755  0.6938  2.4455 -2.1286
  391MOL0     H53895   6.062   4.825   0.889 -1.2756 -1.0225  0.1548
  391MOL0     H53896   6.041   4.681   0.997 -0.3729  3.5513  2.2924
  391MOL0     H53897   6.306   4.646   0.879 -0.8358 -0.1911 -0.2247
  391MOL0     H53898   6.286   4.824   0.901  0.2591  1.2508  3.3652
  391MOL0     H53899   6.272   4.611   1.117 -0.8436  0.0532 -0.1705
  391MOL0     H53900   6.235   4.790   1.137  1.3037  0.1556  0.4918
  391MOL0     H53901   6.502   4.715   1.026 -0.3659  0.2435  0.0244
  391MOL0     H53902   6.427   4.865   1.088 -1.1236 -0.8245 -0.0966
  391MOL0     H53903   6.462   4.623   1.268 -0.7837  0.2383  0.1566
  391MOL0     H53904   6.437   4.793   1.310  0.1579  0.4673 -0.3092
  391MOL0     H53905   6.693   4.699   1.159 -0.8314  0.0683 -0.9803
  391MOL0     H53906   6.654   4.855   1.211 -3.4403  0.1866 -1.7610
  391MOL0     H53907   6.714   4.497   1.326  2.7696  1.8465 -3.2396
  391MOL0     H53908   6.909   4.509   1.670 -2.9628 -1.3735  0.7782
  391MOL0     H53909   7.001   4.486   1.524  0.3979  0.5325  1.2687
  391MOL0     H53910   6.872   4.279   1.627 -0.4635 -2.4251 -0.3804
  391MOL0     H53911   6.726   4.349   1.588  0.1138 -1.8260  1.1782
  391MOL0     H53912   6.878   4.355   1.340 -1.7103 -0.3039  0.3060
  391MOL0     H53913   6.939   4.212   1.418  1.4016  0.5162 -3.3899
  391MOL0     H53914   6.745   4.158   1.277  0.4540 -1.2519  0.6793
  391MOL0     H53915   6.719   4.117   1.454 -0.7337  0.8610  0.3187
  391MOL0     H53916   6.404   4.424   1.373 -1.2440  0.2669  0.0778
  391MOL0     H53917   6.089   4.400   1.284 -0.2172 -1.0076 -0.4291
  391MOL0     H53918   6.183   4.483   1.407  0.9079  0.1950 -1.9102
  391MOL0     H53919   6.062   4.365   1.454  0.3225 -2.5809 -1.3359
  391MOL0     H53920   5.829   4.170   1.425 -0.3175 -0.3823  5.0732
  391MOL0     H53921   5.606   4.123   1.432 -0.5810  0.1058  0.9195
  391MOL0     H53922   5.476   3.724   1.276  0.4243  0.0277 -0.4350
  391MOL0     H53923   5.482   3.673   1.447 -3.1179 -1.5214 -0.1202
  391MOL0     H53924   5.268   3.660   1.433  0.1643  0.0734  1.6057
  391MOL0     H53925   5.263   3.835   1.462  1.7027  0.3184 -0.4229
  391MOL0     H53926   5.264   3.727   1.179 -1.2194 -1.6736  0.3951
  391MOL0     H53927   5.258   3.889   1.228 -1.5764 -0.1932  0.2953
  391MOL0     H53928   5.048   3.851   1.341  0.5777 -2.0763  2.4037
  391MOL0     H53929   5.068   3.677   1.336  0.3261  1.2825  2.6471
  391MOL0     H53930   5.034   3.860   1.074 -1.0817 -1.8485 -2.4308
  391MOL0     H53931   5.061   3.686   1.069  2.4976  2.5136 -1.7020
  391MOL0     H53932   4.821   3.835   1.177 -0.5170 -0.6854 -1.1950
  391MOL0     H53933   4.846   3.657   1.174  0.8412 -0.9716 -1.8652
  391MOL0     H53934   4.836   3.647   0.932 -0.3786 -1.2321  1.2144
  391MOL0     H53935   4.845   3.820   0.933  1.3819 -0.8975  2.0136
  391MOL0     H53936   4.603   3.744   0.889  2.2785 -1.6648 -0.6878
  391MOL0     H53937   4.616   3.842   1.025 -0.3916 -0.6593  0.4856
  391MOL0     H53938   5.706   3.695   1.420  1.0434  0.0493 -1.5269
  391MOL0     H53939   5.945   3.751   1.406  0.7981 -0.4913 -0.3869
  391MOL0     H53940   6.317   3.937   1.340  0.7042 -0.1256  0.8094
  391MOL0     H53941   6.540   4.015   1.378 -0.5254 -1.2772 -3.8359
  391MOL0     H53942   5.970   4.361   1.110  1.0927 -1.0350 -0.6496
  391MOL0     H53943   5.740   4.272   1.143 -1.1759  1.0916 -0.4455
  391MOL0     H53944   5.339   4.229   0.834  2.0498  0.2188  1.1981
  391MOL0     H53945   5.124   4.164   0.797  2.6460 -1.4257 -0.6961
  391MOL0     H53946   4.903   4.196   0.780 -1.7772  0.8172 -1.2979
  391MOL0     H53947   4.915   4.021   0.815  2.4974  1.8194 -0.9108
  391MOL0     H53948   4.693   4.239   0.855 -0.0589  0.2280  1.7388
  391MOL0     H53949   4.690   4.101   0.962  0.8179 -1.1036  0.3488
  391MOL0     H53950   4.695   4.041   0.675  0.0664  0.4009  1.0931
  391MOL0     H53951   4.658   3.929   0.797 -0.3484 -1.0195 -0.5893
  391MOL0     H53952   4.467   4.037   0.652  1.1188  3.8826 -2.8539
  391MOL0     H53953   4.489   4.176   0.760  0.2083  0.0786 -1.6767
  391MOL0     H53954   4.329   3.893   1.034 -2.2171  0.0233 -0.5273
  391MOL0     H53955   5.030   4.167   1.209 -0.0942  0.8506  0.4588
  391MOL0     H53956   5.196   4.215   1.367  0.2945 -0.1070  0.2598
  391MOL0     H53957   5.355   4.164   1.321  1.2709  0.4961 -1.5551
  391MOL0     H53958   5.311   4.337   1.307 -1.9446  1.0617 -4.3834
  392MOL0     O53959   5.343   0.855   7.288  0.4558 -0.2098 -0.2459
  392MOL0     C53960   5.314   0.762   7.212  0.0284  0.5289  0.2926
  392MOL0     O53961   5.384   0.723   7.094 -0.4354  0.2833  0.1934
  392MOL0     C53962   5.510   0.784   7.071  0.3582 -0.1346  0.7247
  392MOL0     C53963   5.602   0.817   7.166  0.3183 -0.4690 -0.0610
  392MOL0     C53964   5.724   0.885   7.133  0.1048 -0.0723 -0.1922
  392MOL0     C53965   5.757   0.914   6.996 -0.2100  0.7686  0.5044
  392MOL0     O53966   5.882   0.944   6.950 -0.0999  1.1481 -0.1603
  392MOL0     C53967   5.999   0.923   7.035  0.1166  0.3424  0.4310
  392MOL0     C53968   6.130   0.927   6.946 -0.2002 -0.6521  1.1513
  392MOL0     C53969   6.256   0.933   7.031  0.0147  0.6613 -0.3421
  392MOL0     C53970   6.367   0.878   6.944 -0.1989  0.3411 -1.0919
  392MOL0     C53971   6.498   0.903   7.021  0.6543  0.0748  0.6440
  392MOL0     C53972   6.625   0.840   6.950 -0.2325  0.3715 -0.7714
  392MOL0     C53973   6.743   0.816   7.050  0.4752  0.2676  0.0397
  392MOL0     C53974   6.803   0.939   7.107 -0.2210  0.1100 -0.6619
  392MOL0     N53975   6.900   0.895   7.211  0.8058 -0.0359  0.0891
  392MOL0     C53976   7.006   0.973   7.264 -0.5930 -0.1547 -0.1997
  392MOL0     C53977   7.077   0.886   7.336  0.7451 -0.5912 -1.4058
  392MOL0     C53978   7.182   0.932   7.444 -0.2677  0.3686  0.1071
  392MOL0     C53979   7.301   0.834   7.436 -0.1665 -0.2438 -1.0938
  392MOL0     C53980   7.420   0.912   7.490 -0.0523 -0.3603  0.0736
  392MOL0     C53981   7.551   0.838   7.508 -0.6785  0.7180  0.4333
  392MOL0     O53982   7.585   0.773   7.388  0.0054 -0.2616  0.0869
  392MOL0     C53983   7.729   0.757   7.373 -0.1477  0.0700 -0.6560
  392MOL0     C53984   7.793   0.789   7.251  0.4743  0.7418  0.5906
  392MOL0     C53985   7.932   0.780   7.239  0.1075  0.3286  0.1187
  392MOL0     C53986   7.988   0.799   7.100 -0.2140  0.7284  0.4769
  392MOL0     C53987   8.010   0.749   7.348  0.0669  0.3266 -0.7361
  392MOL0     C53988   8.163   0.752   7.354 -0.2650  1.0279 -0.4028
  392MOL0     O53989   8.222   0.707   7.478 -0.3608 -1.1253  0.1073
  392MOL0     C53990   8.356   0.707   7.490  0.4264 -0.1684 -0.4243
  392MOL0     C53991   8.420   0.590   7.529 -0.3315  0.4303 -0.3519
  392MOL0     C53992   8.561   0.594   7.556  0.7262  0.2666 -0.8466
  392MOL0     C53993   8.631   0.716   7.537 -0.2316 -0.1546 -0.0904
  392MOL0     O53994   8.764   0.725   7.565  0.5381 -0.1068  0.2017
  392MOL0     C53995   8.833   0.604   7.585 -0.6543  0.0664  0.1379
  392MOL0     C53996   8.987   0.636   7.588 -0.3419 -1.1166  0.6024
  392MOL0     C53997   9.033   0.715   7.458  0.3734 -0.3437 -0.4239
  392MOL0     C53998   9.024   0.648   7.324 -0.7292  0.1959  0.5222
  392MOL0     C53999   9.106   0.728   7.217  0.6367 -0.2404 -0.8422
  392MOL0     C54000   9.095   0.674   7.075 -0.8367 -0.1219 -0.1207
  392MOL0     C54001   9.185   0.554   7.032  0.4098  0.1009 -0.3101
  392MOL0     C54002   9.331   0.597   7.011  0.0906  0.4543 -0.4866
  392MOL0    Cl54003   9.361   0.721   6.890  0.0829  0.0219 -0.2337
  392MOL0     C54004   8.567   0.827   7.497 -0.8010 -0.5113  0.5725
  392MOL0     C54005   8.436   0.820   7.464  0.7483  0.1342 -0.2050
  392MOL0     O54006   8.220   0.808   7.259 -0.3320  0.0214 -0.0705
  392MOL0     C54007   7.943   0.713   7.465  0.1694 -0.3910 -0.5501
  392MOL0     C54008   7.807   0.712   7.480 -0.3810  0.1847 -0.1917
  392MOL0     N54009   7.022   0.751   7.322 -0.3639  0.0424  0.3874
  392MOL0     N54010   6.914   0.772   7.260 -0.3003  0.6734  0.3575
  392MOL0     C54011   5.659   0.882   6.899 -0.5241  0.0330 -0.2758
  392MOL0     C54012   5.543   0.818   6.934  0.1582 -0.1167 -0.1989
  392MOL0     C54013   5.182   0.696   7.234  0.5895  0.3490 -0.1858
  392MOL0     C54014   5.109   0.643   7.127 -0.3525  0.5681 -0.9813
  392MOL0     C54015   4.985   0.571   7.136  0.0208  0.0489  0.0781
  392MOL0     C54016   4.936   0.540   7.261 -0.4792  0.0532  0.2145
  392MOL0     O54017   4.810   0.482   7.260  0.3490 -0.4379  0.6833
  392MOL0     C54018   4.695   0.573   7.267 -0.2073  1.6569  0.1971
  392MOL0     C54019   4.563   0.490   7.271 -0.2200 -0.0181  0.1950
  392MOL0     C54020   4.544   0.409   7.399  0.0665  1.2248 -0.0548
  392MOL0     C54021   4.399   0.394   7.420  0.4520  0.2666  0.5497
  392MOL0     C54022   4.381   0.284   7.522 -0.5079  0.0371 -0.6775
  392MOL0     C54023   4.382   0.197   7.614 -0.3208 -0.0759  0.8376
  392MOL0     C54024   5.013   0.571   7.372  0.4200  1.3495 -0.2075
  392MOL0     C54025   5.134   0.645   7.360  0.2262  0.5961 -0.0546
  392MOL0     C54026   5.215   0.668   7.485  1.0765 -0.2106 -0.4396
  392MOL0     H54027   5.589   0.778   7.266  0.7475  0.3322  0.3142
  392MOL0     H54028   5.799   0.923   7.202  0.6434  2.2929 -1.9729
  392MOL0     H54029   5.986   0.828   7.088  0.2897  1.4872  2.6229
  392MOL0     H54030   6.015   1.008   7.102 -0.4975  0.9950 -0.2273
  392MOL0     H54031   6.130   0.841   6.877 -1.5296 -1.0327  1.5884
  392MOL0     H54032   6.126   1.015   6.882  4.6865  2.7253  4.7794
  392MOL0     H54033   6.276   1.037   7.057 -0.5736  0.7230 -0.1181
  392MOL0     H54034   6.236   0.872   7.119  1.9083 -1.7264 -1.4320
  392MOL0     H54035   6.348   0.770   6.937 -0.1254  0.0725  1.6487
  392MOL0     H54036   6.361   0.915   6.842 -2.2658 -0.4576 -1.3225
  392MOL0     H54037   6.491   0.864   7.123 -0.4545  1.1852  1.0248
  392MOL0     H54038   6.514   1.010   7.033 -3.4293  0.7782  1.4903
  392MOL0     H54039   6.596   0.746   6.902  0.3132  0.3668 -1.0995
  392MOL0     H54040   6.667   0.908   6.876  4.1631 -0.4052  0.6752
  392MOL0     H54041   6.815   0.755   6.995  0.7729 -0.1533  0.8779
  392MOL0     H54042   6.707   0.747   7.127  1.0428 -1.4127 -1.1478
  392MOL0     H54043   6.860   0.987   7.027 -0.7061 -0.1295 -1.1511
  392MOL0     H54044   6.734   1.015   7.145  1.8234  1.0267  1.5080
  392MOL0     H54045   7.002   1.081   7.254 -0.3900 -0.3249 -2.7811
  392MOL0     H54046   7.134   0.932   7.542  0.1895 -0.5057  0.3368
  392MOL0     H54047   7.200   1.037   7.419 -0.9882  0.8106  1.3424
  392MOL0     H54048   7.290   0.739   7.489  2.0486  0.4628  0.7970
  392MOL0     H54049   7.321   0.810   7.331 -2.7005 -2.8440 -1.1069
  392MOL0     H54050   7.439   1.001   7.429 -2.9734  0.1814 -0.1858
  392MOL0     H54051   7.384   0.936   7.590 -1.3355  1.0973 -0.6873
  392MOL0     H54052   7.626   0.912   7.538  0.7403 -0.8009  0.8011
  392MOL0     H54053   7.535   0.763   7.586 -0.8450  1.2261  0.8935
  392MOL0     H54054   7.740   0.811   7.159  1.4177  0.7517  0.0380
  392MOL0     H54055   8.028   0.706   7.057 -0.3190 -0.3470  2.5675
  392MOL0     H54056   8.063   0.877   7.107 -0.7148  1.3193 -0.4297
  392MOL0     H54057   7.910   0.831   7.030 -1.4896 -2.3741  0.3077
  392MOL0     H54058   8.377   0.491   7.533  0.4306 -0.0205 -2.2807
  392MOL0     H54059   8.604   0.502   7.593  0.3567 -0.7975 -2.9435
  392MOL0     H54060   8.801   0.560   7.680 -2.9983 -0.3026 -0.7535
  392MOL0     H54061   8.816   0.535   7.501  0.9251  1.0366 -1.0516
  392MOL0     H54062   9.020   0.704   7.668 -0.6623  0.1828 -0.3378
  392MOL0     H54063   9.038   0.541   7.601  1.2262 -0.6941 -1.8817
  392MOL0     H54064   9.138   0.741   7.475 -0.4685  1.0344  3.7856
  392MOL0     H54065   8.984   0.812   7.455  3.0492  1.2139  1.7370
  392MOL0     H54066   8.919   0.646   7.292 -0.3157 -1.3509 -0.8673
  392MOL0     H54067   9.064   0.547   7.341  0.9110  0.5529 -0.9908
  392MOL0     H54068   9.066   0.829   7.220 -2.0460 -1.2480  2.1560
  392MOL0     H54069   9.211   0.740   7.246  0.0452  1.6623  0.6997
  392MOL0     H54070   9.116   0.750   6.999  2.3877 -1.3316 -0.6023
  392MOL0     H54071   8.990   0.644   7.068 -1.0342  0.6512 -0.6419
  392MOL0     H54072   9.158   0.517   6.933  0.4336  0.7778 -0.5722
  392MOL0     H54073   9.163   0.470   7.098 -1.9657  1.7050  1.0711
  392MOL0     H54074   9.386   0.504   6.992  1.1297  1.4469 -2.6342
  392MOL0     H54075   9.354   0.619   7.115 -1.1735 -1.4691  0.2669
  392MOL0     H54076   8.623   0.919   7.477 -1.9585 -0.2873 -1.8891
  392MOL0     H54077   8.389   0.905   7.416 -1.0083 -1.3354 -1.2011
  392MOL0     H54078   7.996   0.686   7.555 -3.0308 -2.2143  0.9881
  392MOL0     H54079   7.768   0.694   7.580  1.0825  0.5839  0.4664
  392MOL0     H54080   5.698   0.888   6.798 -1.0518  0.1308 -0.4777
  392MOL0     H54081   5.474   0.785   6.857 -0.8506  0.6259  0.3667
  392MOL0     H54082   5.142   0.654   7.024 -0.3098  0.3372 -0.9920
  392MOL0     H54083   4.932   0.539   7.047 -1.6011 -0.0957  1.0502
  392MOL0     H54084   4.700   0.635   7.357 -0.9404  1.8604  0.1058
  392MOL0     H54085   4.691   0.639   7.180  0.1104 -0.6689 -1.6978
  392MOL0     H54086   4.572   0.421   7.186 -0.1430 -1.5936  1.4283
  392MOL0     H54087   4.483   0.564   7.259  0.0044  0.5578  2.0047
  392MOL0     H54088   4.598   0.314   7.399 -0.1138  1.0975 -1.7544
  392MOL0     H54089   4.576   0.468   7.486  0.8252 -1.2967  1.4907
  392MOL0     H54090   4.351   0.358   7.329 -0.3022 -0.0244  1.0522
  392MOL0     H54091   4.354   0.485   7.460  2.0933  0.4570  2.1303
  392MOL0     H54092   4.392   0.129   7.696 -3.8594  0.0337  1.5361
  392MOL0     H54093   4.968   0.542   7.467  1.2391  0.5895 -0.0463
  392MOL0     H54094   5.315   0.625   7.471  2.7146  2.7831  1.1959
  392MOL0     H54095   5.222   0.772   7.518 -3.9176 -1.0369  4.7919
  392MOL0     H54096   5.178   0.605   7.566  0.8447 -0.8123 -0.9990
  393MOL0     O54097   9.350   8.348   5.244  0.1425 -0.4697 -0.0540
  393MOL0     C54098   9.262   8.433   5.238  0.1727 -0.1837 -0.2702
  393MOL0     O54099   9.251   8.528   5.141 -0.2979 -0.3765  0.1430
  393MOL0     C54100   9.344   8.532   5.039 -0.4082  0.1872  0.4693
  393MOL0     C54101   9.293   8.520   4.908 -0.4603  0.8417 -0.1917
  393MOL0     C54102   9.371   8.553   4.802 -0.4277  0.1935 -0.9976
  393MOL0     C54103   9.513   8.578   4.815 -0.1425  0.1309  0.4456
  393MOL0     O54104   9.586   8.588   4.701  0.2877  0.0877 -0.4081
  393MOL0     C54105   9.726   8.587   4.702 -0.1457 -0.5098  0.7139
  393MOL0     C54106   9.790   8.733   4.703  0.3960  0.6146 -0.0652
  393MOL0     C54107   9.914   8.746   4.621 -0.2569  0.2431  0.1742
  393MOL0     C54108  10.033   8.654   4.674  0.0080  0.1992 -0.6210
  393MOL0     C54109  10.147   8.666   4.570  0.9883 -0.3208  0.0069
  393MOL0     C54110  10.240   8.554   4.592  0.4196  0.2183 -0.7412
  393MOL0     C54111  10.332   8.540   4.477 -0.2797  0.8114 -0.2833
  393MOL0     C54112  10.442   8.443   4.501 -0.9769  0.1420  0.1139
  393MOL0     N54113  10.556   8.462   4.414 -0.3875 -0.5695 -0.4832
  393MOL0     C54114  10.590   8.403   4.296 -0.4278  1.1635  0.1130
  393MOL0     C54115  10.703   8.469   4.247 -0.1055 -0.1953  0.0828
  393MOL0     C54116  10.762   8.462   4.105 -0.2618  0.0248  0.1314
  393MOL0     C54117  10.874   8.566   4.078  0.5832  0.3234  0.4568
  393MOL0     C54118  10.956   8.539   3.952  0.1922  0.5315 -0.6479
  393MOL0     C54119  11.060   8.437   3.957 -0.1733 -0.5050  0.0913
  393MOL0     O54120  11.143   8.448   3.841 -1.0591  0.1381  0.2647
  393MOL0     C54121  11.240   8.355   3.805  1.4965 -0.8791  0.1481
  393MOL0     C54122  11.320   8.377   3.697 -0.0887 -0.3962  0.3943
  393MOL0     C54123  11.406   8.278   3.644 -0.3045 -0.0955 -0.2047
  393MOL0     C54124  11.479   8.316   3.516 -0.4294  0.4162 -0.5841
  393MOL0     C54125  11.443   8.167   3.725 -0.2092  0.1895  0.2102
  393MOL0     C54126  11.555   8.068   3.696 -0.0254 -0.7629 -0.8664
  393MOL0     O54127  11.635   8.096   3.595  0.2079 -0.0865 -0.3233
  393MOL0     C54128  11.710   7.988   3.545 -0.2671 -1.4585  0.0012
  393MOL0     C54129  11.648   7.890   3.475  0.4340  1.0469 -0.1688
  393MOL0     C54130  11.725   7.778   3.425  0.4292 -0.3248 -0.3891
  393MOL0     C54131  11.863   7.767   3.441  0.1494  0.0645 -0.3408
  393MOL0     O54132  11.952   7.671   3.402  0.2588 -0.1415  0.0137
  393MOL0     C54133  11.922   7.605   3.280  0.1779 -0.2084  0.2953
  393MOL0     C54134  11.943   7.708   3.163  0.2658 -0.3859 -0.7971
  393MOL0     C54135  12.022   7.643   3.050  0.0341  1.0265 -0.2451
  393MOL0     C54136  12.022   7.725   2.919  0.4369 -0.6999 -0.8947
  393MOL0     C54137  12.090   7.656   2.803 -0.3194  0.1541 -0.0095
  393MOL0     C54138  12.228   7.596   2.821  0.4678  0.0287 -0.0119
  393MOL0     C54139  12.337   7.700   2.838  0.0900  0.7617 -0.2669
  393MOL0     C54140  12.469   7.663   2.906  0.4144  0.7616  0.2804
  393MOL0    Cl54141  12.445   7.596   3.064 -0.1989 -0.3471 -0.4553
  393MOL0     C54142  11.919   7.880   3.505  0.2592  0.2584  0.5500
  393MOL0     C54143  11.847   7.988   3.560  0.5473  1.4289 -0.1422
  393MOL0     O54144  11.565   7.975   3.776  0.3397 -0.0959  0.0210
  393MOL0     C54145  11.373   8.152   3.851 -0.3722 -0.1609  0.3680
  393MOL0     C54146  11.268   8.243   3.888  0.0070 -0.2332 -0.5177
  393MOL0     N54147  10.732   8.568   4.346 -0.9128 -0.7760  0.6458
  393MOL0     N54148  10.652   8.561   4.440 -0.5971 -0.3073  0.1826
  393MOL0     C54149   9.564   8.607   4.941 -0.1706  0.7194 -0.3699
  393MOL0     C54150   9.478   8.584   5.050  0.1688  0.0644 -0.2425
  393MOL0     C54151   9.168   8.418   5.352 -0.0505  0.7674 -0.0667
  393MOL0     C54152   9.143   8.288   5.396 -0.0603 -0.1951  0.8154
  393MOL0     C54153   9.047   8.267   5.494 -0.1523  0.1930 -0.2649
  393MOL0     C54154   8.987   8.368   5.564 -1.2449  0.2940 -0.1834
  393MOL0     O54155   8.894   8.342   5.658  0.6224  0.3303 -0.1313
  393MOL0     C54156   8.843   8.428   5.753  0.0347  0.7429 -0.4942
  393MOL0     C54157   8.809   8.352   5.885  0.4539 -0.2534  0.0993
  393MOL0     C54158   8.671   8.277   5.878  0.7741 -0.3404 -0.8409
  393MOL0     C54159   8.632   8.217   6.012  0.0119  0.3582  0.2000
  393MOL0     C54160   8.562   8.093   5.988  0.7547 -0.1859  0.3855
  393MOL0     C54161   8.495   7.991   5.993  0.7292 -0.1907  0.1128
  393MOL0     C54162   9.030   8.500   5.536  0.4302  0.8412  0.7453
  393MOL0     C54163   9.120   8.528   5.427 -0.0729  0.5784 -0.0762
  393MOL0     C54164   9.169   8.670   5.411 -0.4898 -0.5161 -0.4136
  393MOL0     H54165   9.194   8.483   4.879  1.0111 -3.6318 -0.3378
  393MOL0     H54166   9.341   8.532   4.700  2.4616 -1.0012 -1.6951
  393MOL0     H54167   9.762   8.544   4.608 -2.3827  0.4378 -0.6461
  393MOL0     H54168   9.768   8.537   4.789  0.3823 -1.3733 -0.0200
  393MOL0     H54169   9.708   8.788   4.655  2.5145  0.1654 -4.7633
  393MOL0     H54170   9.813   8.773   4.802  1.9267  3.0248 -1.2977
  393MOL0     H54171   9.893   8.717   4.518  1.2264 -0.4189  0.0340
  393MOL0     H54172   9.940   8.853   4.621 -0.9067  0.4102 -0.2908
  393MOL0     H54173  10.055   8.693   4.774 -2.1045  1.1855 -0.4825
  393MOL0     H54174  10.003   8.549   4.689  0.2744  0.3104  0.8879
  393MOL0     H54175  10.193   8.763   4.585  2.5560 -1.2682  1.7060
  393MOL0     H54176  10.110   8.662   4.467  0.9009 -0.7223  0.0497
  393MOL0     H54177  10.298   8.580   4.681 -0.5826  1.3453 -0.3985
  393MOL0     H54178  10.180   8.463   4.603 -0.2076  0.6793 -0.2554
  393MOL0     H54179  10.386   8.634   4.458  2.8443 -0.9318 -0.7163
  393MOL0     H54180  10.288   8.502   4.385  4.5278 -1.9625 -1.7703
  393MOL0     H54181  10.494   8.452   4.596 -0.6201 -2.1279  0.1814
  393MOL0     H54182  10.397   8.344   4.486 -1.3641  0.1821  0.9410
  393MOL0     H54183  10.523   8.337   4.241  0.7817  1.4079 -1.7576
  393MOL0     H54184  10.679   8.460   4.035 -0.2565 -2.6735  0.0948
  393MOL0     H54185  10.810   8.364   4.096  1.2810  0.5638  1.7458
  393MOL0     H54186  10.829   8.665   4.070  0.5036  0.1934 -0.9470
  393MOL0     H54187  10.937   8.567   4.167  1.6102 -0.9376 -0.2138
  393MOL0     H54188  10.884   8.515   3.873 -0.2096  0.5149 -0.2854
  393MOL0     H54189  11.013   8.627   3.923  2.5497 -0.1498  1.5256
  393MOL0     H54190  11.128   8.455   4.042 -0.2171 -2.3356  0.5614
  393MOL0     H54191  11.010   8.340   3.957 -0.8180 -0.2457  2.5147
  393MOL0     H54192  11.294   8.463   3.636 -2.5826  0.9230  3.0069
  393MOL0     H54193  11.423   8.389   3.457 -0.9699  0.3532 -0.1521
  393MOL0     H54194  11.509   8.232   3.453 -1.2850  0.1387 -0.6342
  393MOL0     H54195  11.567   8.373   3.546 -0.5318  0.4844 -0.4150
  393MOL0     H54196  11.544   7.895   3.446  0.6782 -0.0201 -1.2869
  393MOL0     H54197  11.681   7.718   3.346 -3.1390  0.6926  0.6167
  393MOL0     H54198  11.983   7.518   3.253 -1.1642 -0.9992 -0.2906
  393MOL0     H54199  11.819   7.568   3.279 -0.7283  2.1350  1.4311
  393MOL0     H54200  11.846   7.743   3.128  0.2027  0.3779  0.0921
  393MOL0     H54201  11.996   7.797   3.198  0.3847 -0.4887 -0.7149
  393MOL0     H54202  11.988   7.542   3.029 -1.8908  1.2998  1.2845
  393MOL0     H54203  12.125   7.636   3.088 -0.7106  1.6375  2.0548
  393MOL0     H54204  12.072   7.817   2.948  0.3026 -1.1910  1.0279
  393MOL0     H54205  11.922   7.759   2.890  0.6717 -1.4682 -2.7543
  393MOL0     H54206  12.023   7.576   2.771  0.6836  0.5058 -3.4739
  393MOL0     H54207  12.092   7.720   2.714  1.3684 -1.2269 -1.0577
  393MOL0     H54208  12.260   7.547   2.729  1.6720  0.9186 -0.0905
  393MOL0     H54209  12.218   7.514   2.893  1.0105  1.0127  1.2262
  393MOL0     H54210  12.287   7.781   2.892  1.3188 -0.8505  3.7141
  393MOL0     H54211  12.356   7.738   2.737 -0.9330 -0.6158 -1.0145
  393MOL0     H54212  12.523   7.758   2.908 -1.8749  2.1368  0.8981
  393MOL0     H54213  12.519   7.590   2.841  3.1576  2.2087  0.6380
  393MOL0     H54214  12.027   7.877   3.510  0.3503  0.4952 -0.8865
  393MOL0     H54215  11.908   8.071   3.596  3.0662  0.9095 -2.8224
  393MOL0     H54216  11.401   8.069   3.915  1.5522 -0.9698 -1.4174
  393MOL0     H54217  11.207   8.219   3.975 -1.4376 -1.0117 -1.6845
  393MOL0     H54218   9.668   8.634   4.960 -0.2331 -0.3248  1.8487
  393MOL0     H54219   9.511   8.609   5.150  0.1641 -1.6162  0.1955
  393MOL0     H54220   9.192   8.203   5.352  0.8726  0.6839  0.1001
  393MOL0     H54221   9.004   8.172   5.524  1.6581 -1.4562 -2.5261
  393MOL0     H54222   8.918   8.502   5.782  1.5605 -1.2844  1.1221
  393MOL0     H54223   8.748   8.465   5.714 -0.4956 -1.3580 -1.3193
  393MOL0     H54224   8.824   8.432   5.958  0.2966  1.5420 -1.7265
  393MOL0     H54225   8.877   8.268   5.900  0.4956 -0.1796  0.3304
  393MOL0     H54226   8.586   8.344   5.859 -0.4784 -0.9178  2.1225
  393MOL0     H54227   8.672   8.196   5.805  0.9096 -0.7010 -0.4441
  393MOL0     H54228   8.567   8.290   6.060 -1.6447  0.3763 -1.9561
  393MOL0     H54229   8.718   8.184   6.073  0.1273 -1.2297 -0.7713
  393MOL0     H54230   8.434   7.904   5.975 -0.9570  0.6569  1.4051
  393MOL0     H54231   8.984   8.583   5.590 -0.9410  0.4660  0.1941
  393MOL0     H54232   9.090   8.738   5.442  1.4844  0.8717  1.8800
  393MOL0     H54233   9.245   8.687   5.487  0.3006 -0.7798 -1.1217
  393MOL0     H54234   9.221   8.692   5.317 -1.1315 -1.2390 -0.9557
  394MOL0     O54235   1.694   0.247   4.031  0.3292  0.2346 -0.1944
  394MOL0     C54236   1.622   0.344   4.015  0.0604 -1.1627 -0.0079
  394MOL0     O54237   1.664   0.467   3.971  0.8848 -0.2681 -0.1483
  394MOL0     C54238   1.793   0.487   3.924 -0.7072  0.7779 -0.0535
  394MOL0     C54239   1.826   0.537   3.794  0.0774  0.1197 -0.4360
  394MOL0     C54240   1.955   0.549   3.748 -0.3242 -0.1275  0.2504
  394MOL0     C54241   2.062   0.525   3.821 -0.8824 -0.0842  0.3197
  394MOL0     O54242   2.179   0.546   3.757 -0.3298  1.0351 -1.0917
  394MOL0     C54243   2.292   0.578   3.849 -0.4530  0.3288 -0.2833
  394MOL0     C54244   2.351   0.698   3.785 -0.4665 -0.7463  0.0591
  394MOL0     C54245   2.474   0.742   3.868  0.1061 -0.6538 -0.0732
  394MOL0     C54246   2.573   0.815   3.788 -0.3780 -0.2520 -0.2266
  394MOL0     C54247   2.698   0.863   3.869  0.5560 -0.0679  0.1018
  394MOL0     C54248   2.781   0.972   3.796 -0.6142  0.1649  0.2435
  394MOL0     C54249   2.857   0.920   3.670  0.1729  0.3466 -0.6441
  394MOL0     C54250   2.916   1.039   3.593  0.2485 -0.2984  0.9752
  394MOL0     N54251   3.023   1.115   3.659  0.7687  0.3928 -0.6150
  394MOL0     C54252   3.040   1.255   3.665 -0.0402 -0.2890 -0.5327
  394MOL0     C54253   3.157   1.272   3.730 -0.1080 -0.2668 -0.1458
  394MOL0     C54254   3.208   1.411   3.773  0.6025  0.2112  0.2111
  394MOL0     C54255   3.349   1.445   3.717 -0.1301  0.0765 -0.7566
  394MOL0     C54256   3.458   1.374   3.793  1.3571 -0.6118 -0.1442
  394MOL0     C54257   3.594   1.430   3.758 -0.5533 -0.3747  0.3843
  394MOL0     O54258   3.685   1.355   3.835  0.4325  0.0754 -0.7165
  394MOL0     C54259   3.808   1.403   3.859 -0.0926  0.6309  0.3352
  394MOL0     C54260   3.881   1.355   3.968  0.3937 -0.1700  0.5886
  394MOL0     C54261   4.015   1.395   3.987  0.2644 -0.0472 -0.5291
  394MOL0     C54262   4.093   1.333   4.098  1.0117  0.5464 -0.2307
  394MOL0     C54263   4.073   1.487   3.901  0.8774 -0.6896  0.1032
  394MOL0     C54264   4.220   1.531   3.913  0.6762  0.5304  0.0281
  394MOL0     O54265   4.284   1.507   4.030  0.7446 -0.9359 -0.2438
  394MOL0     C54266   4.417   1.510   4.048 -1.1900  0.1837  1.1678
  394MOL0     C54267   4.507   1.481   3.944  0.2489 -0.0675 -0.3908
  394MOL0     C54268   4.648   1.497   3.962  0.0767 -0.6042  0.1429
  394MOL0     C54269   4.694   1.536   4.088 -0.4296 -0.1275 -0.6287
  394MOL0     O54270   4.831   1.551   4.128 -0.0933 -0.3552  0.6897
  394MOL0     C54271   4.930   1.517   4.021  0.1976  0.1999  0.2594
  394MOL0     C54272   5.075   1.527   4.082 -0.1971 -0.0612  0.8264
  394MOL0     C54273   5.172   1.464   3.976 -0.4329  0.1323  0.1576
  394MOL0     C54274   5.322   1.478   4.041  0.0658  0.3088  0.5073
  394MOL0     C54275   5.402   1.376   3.961  0.2191 -0.2446 -0.9941
  394MOL0     C54276   5.542   1.373   4.023 -0.0163  0.6161 -0.2041
  394MOL0     C54277   5.632   1.291   3.926  0.9573 -0.0063  0.0523
  394MOL0     C54278   5.711   1.185   3.999 -0.4435  0.4886 -0.3727
  394MOL0    Cl54279   5.846   1.251   4.097 -0.2638 -0.3729  0.1417
  394MOL0     C54280   4.605   1.565   4.184  0.8767 -0.6075  0.5703
  394MOL0     C54281   4.464   1.555   4.171 -0.2792  1.0686  0.9305
  394MOL0     O54282   4.272   1.582   3.813  0.1468 -0.3990  0.4259
  394MOL0     C54283   4.001   1.529   3.788 -0.1967 -0.0457 -0.3530
  394MOL0     C54284   3.875   1.481   3.766  0.3366 -0.3904 -0.5278
  394MOL0     N54285   3.205   1.147   3.769  0.4451 -0.1755  0.6323
  394MOL0     N54286   3.136   1.058   3.718  0.6509  0.1822 -0.1555
  394MOL0     C54287   2.044   0.465   3.947 -0.3699  0.0561 -0.4039
  394MOL0     C54288   1.911   0.447   3.998 -0.2656  0.7293 -0.0687
  394MOL0     C54289   1.479   0.330   4.060 -0.0860  0.8254  1.4776
  394MOL0     C54290   1.412   0.439   4.115 -0.0447  0.7035  0.9999
  394MOL0     C54291   1.275   0.436   4.126 -0.1120 -0.4179 -0.1203
  394MOL0     C54292   1.199   0.316   4.125  0.4289 -0.2340 -0.3269
  394MOL0     O54293   1.060   0.312   4.133  0.5912 -1.1089 -0.0716
  394MOL0     C54294   0.996   0.423   4.066  0.4306  0.9065 -0.6065
  394MOL0     C54295   0.847   0.390   4.044  0.0938  0.1491  0.0098
  394MOL0     C54296   0.768   0.397   4.169  0.4358 -0.4243  0.4761
  394MOL0     C54297   0.621   0.358   4.146 -0.1614  0.6225 -0.0116
  394MOL0     C54298   0.550   0.353   4.275 -0.1507  0.4277  1.2081
  394MOL0     C54299   0.488   0.359   4.383 -0.5800  0.5278 -0.3700
  394MOL0     C54300   1.267   0.203   4.100 -1.5807  0.3581  0.1130
  394MOL0     C54301   1.413   0.202   4.067  0.6982  0.3510  0.1798
  394MOL0     C54302   1.456   0.059   4.031 -0.1686 -0.0804 -0.2060
  394MOL0     H54303   1.742   0.566   3.731 -0.0085 -0.5276 -0.6199
  394MOL0     H54304   1.969   0.588   3.648 -0.2787 -1.2873 -0.2167
  394MOL0     H54305   2.362   0.495   3.842  0.8523  1.4299 -0.7806
  394MOL0     H54306   2.259   0.600   3.951 -1.4886 -1.1302 -0.2751
  394MOL0     H54307   2.382   0.679   3.681  0.3594 -1.2757  0.3908
  394MOL0     H54308   2.293   0.788   3.763  1.0258  0.6894  1.6982
  394MOL0     H54309   2.436   0.795   3.956  1.4971 -2.9355  2.0085
  394MOL0     H54310   2.525   0.656   3.911 -1.3537 -1.3771  0.2569
  394MOL0     H54311   2.615   0.748   3.712  2.6151  0.0523  1.0579
  394MOL0     H54312   2.521   0.900   3.743  0.7886  0.7363  0.2375
  394MOL0     H54313   2.758   0.775   3.892  3.4864  0.9006 -2.9417
  394MOL0     H54314   2.658   0.908   3.961  0.7360  0.0241  0.1375
  394MOL0     H54315   2.726   1.054   3.749  0.5481 -0.1143 -1.7194
  394MOL0     H54316   2.844   1.023   3.870 -0.9197  3.1865 -1.4162
  394MOL0     H54317   2.792   0.861   3.604 -0.1544  0.6108 -0.5580
  394MOL0     H54318   2.940   0.852   3.693 -0.3543 -0.9816 -2.4166
  394MOL0     H54319   2.961   1.002   3.500  0.2146  1.1716  0.3462
  394MOL0     H54320   2.843   1.111   3.557  2.4657  0.6873 -1.9953
  394MOL0     H54321   2.976   1.326   3.614  0.0162  0.6443  0.6380
  394MOL0     H54322   3.203   1.409   3.882 -1.6843  3.0594  0.2916
  394MOL0     H54323   3.149   1.499   3.745 -1.8700 -1.4500 -0.1728
  394MOL0     H54324   3.360   1.421   3.611  0.0526  2.1364 -1.2518
  394MOL0     H54325   3.363   1.554   3.721 -2.0305  0.3329  0.6956
  394MOL0     H54326   3.436   1.404   3.896  4.6415 -1.9714  1.1028
  394MOL0     H54327   3.455   1.265   3.787  1.5914 -0.5259 -2.9373
  394MOL0     H54328   3.630   1.427   3.654  1.1372  1.4990  0.8643
  394MOL0     H54329   3.600   1.534   3.790 -0.7982  0.5008 -2.1635
  394MOL0     H54330   3.840   1.288   4.043  2.3404 -1.9658  0.1689
  394MOL0     H54331   4.180   1.276   4.064 -0.1492 -2.1576  1.0333
  394MOL0     H54332   4.037   1.256   4.152 -2.3084  3.1048  0.3195
  394MOL0     H54333   4.117   1.410   4.172  0.1870  0.4446  0.1495
  394MOL0     H54334   4.470   1.462   3.844  1.4432 -1.2791 -0.6355
  394MOL0     H54335   4.726   1.491   3.887  2.5097  1.5093  2.2662
  394MOL0     H54336   4.921   1.412   3.992  2.4935  0.2361 -0.8151
  394MOL0     H54337   4.913   1.592   3.944 -2.3105  0.3796  0.9023
  394MOL0     H54338   5.101   1.629   4.110 -3.2386  1.9515 -2.7287
  394MOL0     H54339   5.074   1.461   4.170  1.5540  0.8479  1.5615
  394MOL0     H54340   5.161   1.504   3.875 -0.7438 -2.6137 -0.9736
  394MOL0     H54341   5.143   1.359   3.970 -0.5423  0.1597  0.2049
  394MOL0     H54342   5.314   1.452   4.147  0.3228  0.2548  0.5140
  394MOL0     H54343   5.359   1.581   4.034 -0.4199  0.6088  2.0281
  394MOL0     H54344   5.365   1.275   3.978 -0.5920 -0.2058 -2.3500
  394MOL0     H54345   5.395   1.393   3.853  1.3471  0.2436 -1.0056
  394MOL0     H54346   5.531   1.323   4.120 -0.9007 -2.0295 -1.5942
  394MOL0     H54347   5.586   1.471   4.044  0.3234  0.3028  0.5839
  394MOL0     H54348   5.712   1.353   3.884  0.7367 -1.2214 -2.3378
  394MOL0     H54349   5.575   1.243   3.846 -1.0400  3.0758 -0.5297
  394MOL0     H54350   5.760   1.120   3.925  0.6414 -0.1387  0.8611
  394MOL0     H54351   5.649   1.127   4.068 -0.4106  1.6808  0.6809
  394MOL0     H54352   4.636   1.598   4.283 -2.6091  1.7785  1.0345
  394MOL0     H54353   4.386   1.573   4.244 -3.2916  0.6022 -1.8876
  394MOL0     H54354   4.033   1.593   3.706  2.2513 -0.7704 -0.0392
  394MOL0     H54355   3.828   1.516   3.675 -1.1098 -2.3334 -0.5951
  394MOL0     H54356   2.120   0.424   4.012 -0.8348  1.2321  0.9248
  394MOL0     H54357   1.894   0.397   4.092 -0.3285  0.1516 -0.3857
  394MOL0     H54358   1.467   0.533   4.115  1.0376  0.1063  0.2308
  394MOL0     H54359   1.223   0.523   4.165 -1.5288 -1.0710 -0.4659
  394MOL0     H54360   1.011   0.511   4.130  1.3713  0.9017 -0.8118
  394MOL0     H54361   1.042   0.442   3.969  4.7213 -3.3854  0.2180
  394MOL0     H54362   0.829   0.293   3.996 -1.9872  0.3435  0.2757
  394MOL0     H54363   0.805   0.465   3.977  1.2245  0.3077 -0.5242
  394MOL0     H54364   0.806   0.333   4.249 -2.8998  0.1895  2.7705
  394MOL0     H54365   0.782   0.497   4.210  0.4761 -0.0705 -0.3849
  394MOL0     H54366   0.614   0.270   4.081  1.1078 -1.0999  2.0336
  394MOL0     H54367   0.559   0.438   4.105 -0.2580  0.6195  0.1260
  394MOL0     H54368   0.441   0.352   4.480  2.1220 -1.4361  0.9324
  394MOL0     H54369   1.223   0.106   4.081  0.9557 -1.4089  2.4302
  394MOL0     H54370   1.475   0.051   3.924 -1.4384 -3.3592 -0.2921
  394MOL0     H54371   1.545   0.033   4.089 -1.7818  0.4560  2.6802
  394MOL0     H54372   1.384  -0.020   4.052 -1.4132  0.3298 -2.6274
  395MOL0     O54373   0.084   2.065  10.863 -0.4015 -0.2726  0.2312
  395MOL0     C54374   0.192   2.127  10.877  0.6097 -0.4148 -0.1254
  395MOL0     O54375   0.314   2.098  10.822 -0.3593 -0.0460 -0.3794
  395MOL0     C54376   0.327   2.018  10.712 -0.1844 -0.3193  0.3858
  395MOL0     C54377   0.446   2.045  10.648  0.3488 -0.4190  0.5574
  395MOL0     C54378   0.483   1.981  10.529  0.1848  0.2300  0.1714
  395MOL0     C54379   0.401   1.884  10.482 -0.7209  0.5649  0.1771
  395MOL0     O54380   0.449   1.823  10.377  0.3543 -0.1969 -0.1022
  395MOL0     C54381   0.458   1.681  10.387 -0.1752 -0.2040  0.4439
  395MOL0     C54382   0.557   1.629  10.285  0.0719  0.5796 -0.5785
  395MOL0     C54383   0.698   1.693  10.316 -0.2438 -0.4704 -0.0258
  395MOL0     C54384   0.812   1.614  10.253  0.3586  0.0844 -1.3705
  395MOL0     C54385   0.934   1.701  10.232  0.1377  1.2112 -0.2522
  395MOL0     C54386   1.036   1.628  10.141  0.0161  0.3500 -0.0525
  395MOL0     C54387   1.161   1.709  10.129 -0.6943 -0.7403  0.6239
  395MOL0     C54388   1.266   1.646  10.021  0.6231 -1.2447  0.0705
  395MOL0     N54389   1.387   1.742  10.007  0.1950  0.4155  0.4919
  395MOL0     C54390   1.379   1.866   9.964 -0.3484  0.0081 -0.3901
  395MOL0     C54391   1.507   1.915   9.966 -0.0112  0.2159 -0.3099
  395MOL0     C54392   1.526   2.056   9.930  0.1085  0.3607  0.4043
  395MOL0     C54393   1.636   2.084   9.830  0.0552  0.6106  0.1187
  395MOL0     C54394   1.645   2.237   9.794  0.4393 -0.0776  0.2340
  395MOL0     C54395   1.757   2.244   9.695  0.4471  0.4447 -0.1226
  395MOL0     O54396   1.706   2.200   9.573 -0.2591  0.0094  0.7507
  395MOL0     C54397   1.762   2.098   9.498  0.5920  0.5140 -0.0669
  395MOL0     C54398   1.684   2.055   9.393 -0.0489 -0.1096 -0.6174
  395MOL0     C54399   1.724   1.945   9.315 -0.0291  0.1353  0.5380
  395MOL0     C54400   1.634   1.901   9.204  0.0981  0.0413 -0.4630
  395MOL0     C54401   1.851   1.892   9.335  0.1744  0.2524  0.2334
  395MOL0     C54402   1.919   1.791   9.245  0.2517  0.6657  0.8230
  395MOL0     O54403   2.020   1.730   9.305  0.0234  0.3545  0.5326
  395MOL0     C54404   2.090   1.627   9.246  0.1188 -0.3927  0.5320
  395MOL0     C54405   2.221   1.613   9.301 -0.0678 -0.1545  0.4385
  395MOL0     C54406   2.307   1.519   9.252  0.2492  0.3229 -1.3250
  395MOL0     C54407   2.265   1.418   9.161  0.0062  0.3709 -0.0657
  395MOL0     O54408   2.357   1.322   9.139 -0.5214  1.5276 -0.3290
  395MOL0     C54409   2.367   1.234   9.026 -0.8541  0.2910  0.6387
  395MOL0     C54410   2.427   1.098   9.058 -0.2518 -0.3653 -0.3912
  395MOL0     C54411   2.586   1.108   9.075 -0.1160 -0.1551 -0.1365
  395MOL0     C54412   2.654   1.093   8.944 -0.5061 -0.5528 -0.0953
  395MOL0     C54413   2.808   1.072   8.948 -0.2758  0.2593 -0.0176
  395MOL0     C54414   2.835   0.927   8.969  0.6338 -0.6377  0.5832
  395MOL0     C54415   2.988   0.909   8.970  0.1028  0.4790 -0.4617
  395MOL0     C54416   3.050   0.937   8.836  0.5374  0.7441  0.6191
  395MOL0    Cl54417   2.962   0.858   8.707 -0.3422  0.3615  0.1499
  395MOL0     C54418   2.136   1.424   9.100 -0.3464 -0.1876 -0.7663
  395MOL0     C54419   2.054   1.536   9.134 -0.3835 -0.1654 -0.8284
  395MOL0     O54420   1.875   1.764   9.127  0.6985  0.4506 -0.0832
  395MOL0     C54421   1.936   1.940   9.440  0.1213 -0.8302  0.2680
  395MOL0     C54422   1.886   2.039   9.519  0.1436  0.0834  0.3280
  395MOL0     N54423   1.590   1.824  10.025 -0.1903 -0.8715  0.3889
  395MOL0     N54424   1.520   1.719  10.046  0.1372 -0.3541 -0.0587
  395MOL0     C54425   0.279   1.847  10.542 -0.2474 -0.6372 -0.2999
  395MOL0     C54426   0.243   1.923  10.656  0.4203 -0.3433  0.2609
  395MOL0     C54427   0.185   2.232  10.975 -0.0517 -1.1016 -1.2558
  395MOL0     C54428   0.122   2.354  10.944  0.6724 -0.3593  0.3551
  395MOL0     C54429   0.120   2.457  11.038  0.0942 -0.1993  0.0104
  395MOL0     C54430   0.189   2.441  11.162 -0.0488 -0.8327  0.4537
  395MOL0     O54431   0.183   2.534  11.269 -0.1255  0.5897  0.1287
  395MOL0     C54432   0.088   2.643  11.260  0.0303  0.4089 -0.3490
  395MOL0     C54433   0.155   2.779  11.254 -0.2353  0.3940  0.6217
  395MOL0     C54434   0.251   2.816  11.363 -0.7596  0.4852 -0.2350
  395MOL0     C54435   0.177   2.859  11.487 -0.2605 -1.0885  0.2860
  395MOL0     C54436   0.124   2.757  11.582  0.7416  0.4300  0.2769
  395MOL0     C54437   0.077   2.678  11.660 -0.2061  1.1094 -0.2298
  395MOL0     C54438   0.258   2.325  11.183 -0.5595 -0.6425 -0.1667
  395MOL0     C54439   0.254   2.214  11.098  0.2933 -1.0547  0.8750
  395MOL0     C54440   0.308   2.081  11.137 -0.5253 -1.0020  0.5460
  395MOL0     H54441   0.525   2.115  10.673  0.3009 -0.7799  1.7854
  395MOL0     H54442   0.578   1.993  10.478  0.0272 -2.6451 -0.9705
  395MOL0     H54443   0.355   1.651  10.365 -0.6245  2.7252 -2.1625
  395MOL0     H54444   0.482   1.645  10.487 -1.1941 -0.1035  0.7326
  395MOL0     H54445   0.576   1.522  10.299  0.1673  0.6969  0.2522
  395MOL0     H54446   0.510   1.646  10.187 -0.9289 -0.7618 -0.3608
  395MOL0     H54447   0.698   1.797  10.282  0.5592 -0.3367  0.3600
  395MOL0     H54448   0.712   1.705  10.424 -2.0224 -0.7581  0.2650
  395MOL0     H54449   0.826   1.540  10.332 -0.6956  0.6526 -0.6329
  395MOL0     H54450   0.784   1.557  10.163  1.8241 -2.8427 -0.1105
  395MOL0     H54451   0.983   1.730  10.326  2.0023 -3.9128  0.7108
  395MOL0     H54452   0.885   1.781  10.177  0.0708  1.1042 -0.3495
  395MOL0     H54453   1.047   1.524  10.176  1.9205 -0.4236 -2.6890
  395MOL0     H54454   0.976   1.617  10.050 -0.7379 -1.0004  0.5694
  395MOL0     H54455   1.213   1.709  10.225 -2.4710 -1.9714  1.6418
  395MOL0     H54456   1.131   1.808  10.096  2.8276 -0.2775 -1.7783
  395MOL0     H54457   1.306   1.551  10.057  1.9168 -0.2753  1.3034
  395MOL0     H54458   1.214   1.640   9.925 -1.0178 -2.2725  0.9975
  395MOL0     H54459   1.291   1.910   9.918 -0.3285 -0.9419 -1.3809
  395MOL0     H54460   1.556   2.117  10.016 -0.5924  0.4474  0.5942
  395MOL0     H54461   1.444   2.110   9.883  0.8228  1.2388  0.1384
  395MOL0     H54462   1.725   2.029   9.862 -1.7104 -3.3075 -1.0495
  395MOL0     H54463   1.603   2.039   9.735 -0.6402 -0.8533  1.0226
  395MOL0     H54464   1.555   2.277   9.745 -0.5746  0.3829  2.3575
  395MOL0     H54465   1.661   2.299   9.883 -1.6703  2.3767 -0.9487
  395MOL0     H54466   1.791   2.348   9.689 -1.5400  1.1571  0.3892
  395MOL0     H54467   1.842   2.180   9.721 -2.6698 -2.9720  2.7057
  395MOL0     H54468   1.592   2.106   9.366 -1.4561 -1.6323  1.0285
  395MOL0     H54469   1.629   1.796   9.172 -3.4585  0.0566 -0.3393
  395MOL0     H54470   1.661   1.961   9.117 -1.3080 -2.2856 -2.6579
  395MOL0     H54471   1.533   1.937   9.225  1.3457  3.7450 -0.0803
  395MOL0     H54472   2.251   1.683   9.379  0.7783  1.3476 -1.1621
  395MOL0     H54473   2.406   1.497   9.290 -0.4313 -2.3118 -0.8693
  395MOL0     H54474   2.270   1.235   8.975 -0.7294 -3.6010 -0.0033
  395MOL0     H54475   2.427   1.277   8.945 -2.1205  0.1430 -0.4128
  395MOL0     H54476   2.380   1.063   9.151  0.7539 -1.3194 -0.2286
  395MOL0     H54477   2.395   1.028   8.981  1.4201 -2.0581  0.3700
  395MOL0     H54478   2.624   1.036   9.148 -1.1199 -1.3909 -0.7957
  395MOL0     H54479   2.607   1.203   9.125 -0.4163  0.4846 -1.1948
  395MOL0     H54480   2.628   1.174   8.876 -1.7706 -0.8185  0.0557
  395MOL0     H54481   2.616   1.004   8.894 -0.0926 -1.0249  0.4071
  395MOL0     H54482   2.839   1.107   8.849 -1.8024  4.7685  0.8352
  395MOL0     H54483   2.854   1.133   9.027 -3.5392  0.9575  1.5545
  395MOL0     H54484   2.801   0.862   8.889  1.4136 -1.6275  1.0385
  395MOL0     H54485   2.790   0.898   9.064  2.3608  0.1600  1.7036
  395MOL0     H54486   3.005   0.804   8.994 -0.1369  0.4209 -0.5459
  395MOL0     H54487   3.032   0.977   9.044 -0.9866 -0.3139  0.9740
  395MOL0     H54488   3.155   0.910   8.825  0.5760  1.1966 -0.1651
  395MOL0     H54489   3.039   1.043   8.811  2.9838  0.5739 -1.4977
  395MOL0     H54490   2.102   1.361   9.018 -1.3974  1.3979 -1.5975
  395MOL0     H54491   1.963   1.540   9.076 -1.7633 -0.5926  1.1801
  395MOL0     H54492   2.032   1.897   9.468  0.7304  1.1697  1.5646
  395MOL0     H54493   1.944   2.076   9.602  3.0879 -0.9671 -1.1359
  395MOL0     H54494   0.211   1.775  10.500 -0.4636 -2.6932  3.1920
  395MOL0     H54495   0.151   1.906  10.711  1.7153  0.6228  2.9282
  395MOL0     H54496   0.080   2.358  10.844  1.0562 -4.0406 -0.1099
  395MOL0     H54497   0.066   2.544  11.002  0.0758 -0.9639 -1.9730
  395MOL0     H54498   0.019   2.630  11.176 -0.3323  1.2269 -0.1826
  395MOL0     H54499   0.034   2.642  11.355  3.4849 -3.1567  1.8757
  395MOL0     H54500   0.078   2.856  11.242  0.6727  1.3552  0.7763
  395MOL0     H54501   0.223   2.768  11.170  1.6006 -1.7175  2.2556
  395MOL0     H54502   0.310   2.727  11.389 -2.7759 -0.8483  0.0115
  395MOL0     H54503   0.311   2.903  11.337  1.2609 -0.2176  1.7279
  395MOL0     H54504   0.103   2.939  11.474  1.8703  0.9927  0.1282
  395MOL0     H54505   0.254   2.905  11.551 -2.2365 -0.3481  2.2505
  395MOL0     H54506   0.044   2.617  11.741 -0.2209  2.1322  0.5536
  395MOL0     H54507   0.314   2.320  11.276  1.8609  2.6180 -1.2607
  395MOL0     H54508   0.401   2.094  11.193  0.2558 -0.5444 -0.7985
  395MOL0     H54509   0.231   2.030  11.195 -0.1013 -0.6403  1.4459
  395MOL0     H54510   0.325   2.008  11.057  4.4325 -1.4225  1.6558
  396MOL0     O54511  10.892   6.642   0.950  0.1918 -0.6971  0.0590
  396MOL0     C54512  11.005   6.598   0.960 -0.2767  0.9188 -0.0009
  396MOL0     O54513  11.058   6.545   1.075 -0.2729  0.0458  0.2677
  396MOL0     C54514  11.004   6.592   1.194  0.3737  0.4277  0.0661
  396MOL0     C54515  10.875   6.553   1.230  0.8792 -0.0336 -0.5796
  396MOL0     C54516  10.834   6.570   1.367  0.7891 -0.5206 -0.0108
  396MOL0     C54517  10.916   6.624   1.467 -0.6327  0.2007 -0.4856
  396MOL0     O54518  10.884   6.654   1.599  0.8585  0.2913 -0.0030
  396MOL0     C54519  10.751   6.709   1.617 -0.3044 -0.4637  0.0536
  396MOL0     C54520  10.749   6.776   1.759 -0.0036 -0.2156 -1.4961
  396MOL0     C54521  10.832   6.902   1.780 -0.5382 -0.0031 -0.4749
  396MOL0     C54522  10.878   6.917   1.928 -0.3537 -0.4479  0.0740
  396MOL0     C54523  10.934   7.060   1.953  0.0911 -0.4090  0.2118
  396MOL0     C54524  11.002   7.067   2.098  0.5960 -1.2109  0.1300
  396MOL0     C54525  11.080   7.196   2.129  0.2158  0.5240  0.5436
  396MOL0     C54526  11.151   7.182   2.263 -0.6896  0.2505 -0.1700
  396MOL0     N54527  11.292   7.159   2.236 -0.0338  0.3524 -0.4431
  396MOL0     C54528  11.377   7.246   2.177  0.2763  0.2645  0.2304
  396MOL0     C54529  11.487   7.172   2.159 -0.5660  0.0563  0.3103
  396MOL0     C54530  11.614   7.208   2.090  0.8952 -1.2234  0.0075
  396MOL0     C54531  11.729   7.248   2.177  0.9135 -0.3311 -0.4342
  396MOL0     C54532  11.717   7.398   2.217 -1.1891  0.1133 -0.4677
  396MOL0     C54533  11.851   7.455   2.265 -0.2395 -0.2547 -0.3538
  396MOL0     O54534  11.834   7.590   2.314 -0.0904  0.8211  0.2809
  396MOL0     C54535  11.948   7.657   2.342 -0.3621 -0.3446  0.9459
  396MOL0     C54536  12.068   7.596   2.373  0.5135  0.5241 -1.1001
  396MOL0     C54537  12.188   7.669   2.394  0.9784 -1.1154  0.3842
  396MOL0     C54538  12.304   7.594   2.457 -0.0811  0.9835  0.4903
  396MOL0     C54539  12.188   7.808   2.380  1.0274 -0.1249  0.4017
  396MOL0     C54540  12.305   7.902   2.374  0.4504  0.1628 -0.3968
  396MOL0     O54541  12.271   8.033   2.349  0.1178 -0.2091  0.1063
  396MOL0     C54542  12.362   8.129   2.361  0.2241 -0.2952  0.6949
  396MOL0     C54543  12.330   8.240   2.431 -0.2855 -0.1196 -0.3524
  396MOL0     C54544  12.419   8.355   2.434 -0.0454  0.1944 -0.5653
  396MOL0     C54545  12.535   8.347   2.365 -1.7797  0.5597 -0.4185
  396MOL0     O54546  12.621   8.454   2.347  0.0927  0.1438  0.3149
  396MOL0     C54547  12.625   8.567   2.435  0.6738  0.4567  0.4866
  396MOL0     C54548  12.746   8.651   2.413  0.5819  0.1289 -0.5037
  396MOL0     C54549  12.880   8.580   2.440 -0.5760 -0.5275  0.2553
  396MOL0     C54550  12.999   8.686   2.429  0.3527 -0.1997 -0.0670
  396MOL0     C54551  13.125   8.611   2.445  0.6743  1.0397 -0.5642
  396MOL0     C54552  13.251   8.697   2.421  0.0236  0.2094  0.6316
  396MOL0     C54553  13.382   8.647   2.497  0.1834  0.0200  1.0442
  396MOL0     C54554  13.431   8.513   2.425  1.2390 -0.0303 -0.3409
  396MOL0    Cl54555  13.581   8.461   2.459 -0.2482 -0.0610 -0.3146
  396MOL0     C54556  12.561   8.239   2.283  0.0859 -0.2863 -0.3242
  396MOL0     C54557  12.480   8.121   2.279 -0.6969 -0.1466 -0.2494
  396MOL0     O54558  12.419   7.857   2.397  0.1358 -0.2711  0.7076
  396MOL0     C54559  12.063   7.870   2.338  0.7310  0.0896 -0.2152
  396MOL0     C54560  11.938   7.798   2.323 -0.5448 -0.7145  0.5728
  396MOL0     N54561  11.475   7.049   2.224  0.0412 -0.4910  0.0582
  396MOL0     N54562  11.362   7.048   2.280  0.4893 -0.1569 -0.8862
  396MOL0     C54563  11.041   6.666   1.422 -0.0887  0.7478 -0.6304
  396MOL0     C54564  11.077   6.650   1.291 -1.0457 -0.5221  0.3941
  396MOL0     C54565  11.099   6.618   0.842  0.8748  0.0320 -0.0529
  396MOL0     C54566  11.234   6.644   0.868 -0.2812  0.1734  0.3779
  396MOL0     C54567  11.326   6.676   0.763  0.0618  0.7714 -0.1071
  396MOL0     C54568  11.291   6.663   0.625 -0.1310 -1.2676  0.3960
  396MOL0     O54569  11.371   6.697   0.512  0.6548  0.2252 -0.4316
  396MOL0     C54570  11.510   6.702   0.523  0.7912  0.2533 -0.2462
  396MOL0     C54571  11.582   6.661   0.394  0.0033 -0.8611  0.3081
  396MOL0     C54572  11.733   6.641   0.421  0.3304  0.2776 -0.4863
  396MOL0     C54573  11.806   6.770   0.459  0.4355  0.2068 -0.1888
  396MOL0     C54574  11.947   6.740   0.427 -0.5876 -0.2006 -0.3423
  396MOL0     C54575  12.071   6.741   0.412 -0.4326 -0.5883  0.5064
  396MOL0     C54576  11.151   6.642   0.599 -0.7792  0.0702 -0.6041
  396MOL0     C54577  11.058   6.623   0.706  0.3905  0.0175  0.4420
  396MOL0     C54578  10.916   6.611   0.660  0.4738  0.9002 -0.5550
  396MOL0     H54579  10.809   6.510   1.156  1.4625 -3.3220  0.6384
  396MOL0     H54580  10.729   6.546   1.386 -0.2533  2.7372 -0.9862
  396MOL0     H54581  10.675   6.630   1.612 -1.6544  0.5295  2.6883
  396MOL0     H54582  10.721   6.789   1.548  0.3892  1.1639  1.5865
  396MOL0     H54583  10.644   6.791   1.788  0.8968  1.0766  1.5825
  396MOL0     H54584  10.778   6.702   1.834 -1.3273  1.1089  0.4319
  396MOL0     H54585  10.919   6.897   1.715  1.1269  2.4833  1.3402
  396MOL0     H54586  10.773   6.989   1.749 -1.0985 -0.2195 -0.0233
  396MOL0     H54587  10.803   6.884   2.000  3.0286  0.6052  4.5264
  396MOL0     H54588  10.960   6.849   1.953  2.0901  1.7326 -1.5122
  396MOL0     H54589  10.859   7.139   1.946  0.5948  0.2101  1.3169
  396MOL0     H54590  11.003   7.073   1.870  0.1574 -1.3162  0.1154
  396MOL0     H54591  10.943   7.038   2.185 -1.5484  3.0510  0.4009
  396MOL0     H54592  11.080   6.991   2.101 -0.5200 -2.4410 -0.7810
  396MOL0     H54593  11.017   7.285   2.142  1.1889  0.9059  3.2708
  396MOL0     H54594  11.148   7.215   2.045  2.7537  1.1561  2.6047
  396MOL0     H54595  11.151   7.274   2.322 -0.5539 -0.5141  1.0603
  396MOL0     H54596  11.108   7.098   2.319 -0.1328 -1.2910 -1.9326
  396MOL0     H54597  11.369   7.350   2.148  2.2681  0.5374  0.5825
  396MOL0     H54598  11.586   7.288   2.021  1.2354  0.9706  2.2593
  396MOL0     H54599  11.643   7.124   2.026 -0.2830 -0.4034 -1.6852
  396MOL0     H54600  11.734   7.196   2.273  2.8970  1.7194  0.6795
  396MOL0     H54601  11.825   7.232   2.128  1.0861 -1.2477  0.1721
  396MOL0     H54602  11.679   7.455   2.132 -1.9419  0.9455  0.4034
  396MOL0     H54603  11.651   7.411   2.303  3.7303  0.2125  3.7517
  396MOL0     H54604  11.898   7.395   2.343 -0.0787  2.3703  1.7133
  396MOL0     H54605  11.920   7.460   2.180 -1.1309  3.0483 -1.0480
  396MOL0     H54606  12.064   7.489   2.387 -0.8116  0.5834 -0.9512
  396MOL0     H54607  12.273   7.502   2.508 -0.3701  1.0779  0.4857
  396MOL0     H54608  12.355   7.654   2.532  1.5982  2.5934 -1.8183
  396MOL0     H54609  12.372   7.561   2.378 -1.6729 -1.6285  0.0677
  396MOL0     H54610  12.246   8.255   2.499 -2.4044  1.8528 -3.1280
  396MOL0     H54611  12.389   8.441   2.494 -1.2264 -0.5926  0.0041
  396MOL0     H54612  12.533   8.625   2.420 -1.1083 -2.3241 -0.0060
  396MOL0     H54613  12.623   8.521   2.534 -0.3866 -1.8340 -0.5153
  396MOL0     H54614  12.732   8.692   2.313 -0.7410  0.1808 -0.3217
  396MOL0     H54615  12.740   8.740   2.478  0.9196 -2.1434  2.9020
  396MOL0     H54616  12.899   8.503   2.365  2.3120 -0.5270  0.8514
  396MOL0     H54617  12.874   8.528   2.537 -1.0858 -0.6272  0.1701
  396MOL0     H54618  12.993   8.768   2.501  0.0989 -0.4093  0.1486
  396MOL0     H54619  12.994   8.719   2.325  2.0342 -0.4033 -0.2489
  396MOL0     H54620  13.125   8.576   2.549 -0.9346 -2.8375 -1.6828
  396MOL0     H54621  13.125   8.523   2.380 -0.5177 -0.2363  1.0536
  396MOL0     H54622  13.239   8.804   2.439  1.5592  0.4216  0.5142
  396MOL0     H54623  13.276   8.687   2.315  2.8160  0.8546  1.1452
  396MOL0     H54624  13.375   8.657   2.606  1.3561  5.8015  0.9368
  396MOL0     H54625  13.454   8.727   2.478 -0.0823  1.1143  4.0730
  396MOL0     H54626  13.422   8.536   2.319  0.3992 -0.1044 -0.2926
  396MOL0     H54627  13.364   8.430   2.450  2.3951 -1.4730 -1.8131
  396MOL0     H54628  12.647   8.248   2.217  0.4916  0.5215  0.2934
  396MOL0     H54629  12.523   8.044   2.216  1.8227  2.3180 -1.7766
  396MOL0     H54630  12.039   7.976   2.336 -1.8310 -0.4230  0.2140
  396MOL0     H54631  11.849   7.851   2.292  2.3139  3.8610 -0.7582
  396MOL0     H54632  11.119   6.690   1.493  2.7895 -2.2028 -2.5084
  396MOL0     H54633  11.169   6.700   1.262 -2.6670  2.9108  0.6176
  396MOL0     H54634  11.265   6.639   0.971  4.2225 -2.2820 -0.8162
  396MOL0     H54635  11.427   6.701   0.794 -0.4050  2.5732  0.0600
  396MOL0     H54636  11.549   6.794   0.568  1.5175 -1.2526  2.4764
  396MOL0     H54637  11.532   6.630   0.603  0.3119  1.5623  1.1180
  396MOL0     H54638  11.568   6.738   0.317  1.8449 -0.6686  0.1013
  396MOL0     H54639  11.545   6.562   0.367  1.1248 -0.4802 -3.1960
  396MOL0     H54640  11.743   6.561   0.495 -1.7110 -0.9297 -1.4084
  396MOL0     H54641  11.773   6.594   0.330 -0.1840 -3.7321  1.1478
  396MOL0     H54642  11.795   6.783   0.567  0.6422 -2.6527  0.2617
  396MOL0     H54643  11.758   6.858   0.415 -2.9784 -0.4683  1.8164
  396MOL0     H54644  12.174   6.766   0.398 -0.4172 -1.9840 -2.5639
  396MOL0     H54645  11.101   6.651   0.503 -3.5019  1.5426  0.8375
  396MOL0     H54646  10.834   6.676   0.691 -1.7399 -1.5231 -0.9951
  396MOL0     H54647  10.909   6.626   0.552  2.2866  1.3522 -0.6496
  396MOL0     H54648  10.869   6.514   0.679  0.8622  0.7476 -0.3589
  397MOL0     O54649   4.806   6.083   6.933 -0.5715  0.1214  0.8099
  397MOL0     C54650   4.724   6.168   6.917 -0.3132  0.1402 -0.6244
  397MOL0     O54651   4.744   6.285   6.843  0.2098  0.1654 -0.7141
  397MOL0     C54652   4.866   6.303   6.790  0.5367  0.6652 -0.0368
  397MOL0     C54653   4.954   6.402   6.835  0.3392 -0.1180  0.0710
  397MOL0     C54654   5.090   6.411   6.789  0.1480 -0.0454 -0.6980
  397MOL0     C54655   5.129   6.327   6.692  0.7002  0.1730  0.2824
  397MOL0     O54656   5.259   6.335   6.654  0.4711  0.0726  0.1771
  397MOL0     C54657   5.269   6.326   6.508  0.2411  0.2088  0.7764
  397MOL0     C54658   5.404   6.397   6.469  0.1380  0.4660 -0.0890
  397MOL0     C54659   5.380   6.451   6.325  0.2118  0.5683 -0.6795
  397MOL0     C54660   5.366   6.345   6.205 -0.1402 -0.1008 -0.2549
  397MOL0     C54661   5.268   6.408   6.108  0.1208 -0.3850  0.1656
  397MOL0     C54662   5.248   6.316   5.990  0.4378 -0.0977 -0.5748
  397MOL0     C54663   5.140   6.356   5.892 -0.0434  0.3606 -0.4378
  397MOL0     C54664   4.998   6.333   5.947  0.3333 -0.6387  0.0479
  397MOL0     N54665   4.976   6.186   5.946 -0.2765  0.5888  0.5858
  397MOL0     C54666   4.951   6.120   5.829  0.2042  0.6799  0.0138
  397MOL0     C54667   4.907   5.996   5.869  0.0208 -0.2599  0.0433
  397MOL0     C54668   4.881   5.882   5.772 -0.3144 -0.0415 -0.2567
  397MOL0     C54669   4.740   5.827   5.796 -0.6698  0.0681  0.2032
  397MOL0     C54670   4.715   5.694   5.727 -0.5588 -0.7353 -0.1073
  397MOL0     C54671   4.584   5.648   5.772 -0.2254 -0.1312 -0.5631
  397MOL0     O54672   4.532   5.544   5.685 -0.2964  0.3887 -0.5156
  397MOL0     C54673   4.397   5.502   5.701 -0.9719 -0.1549  0.1658
  397MOL0     C54674   4.349   5.396   5.621  0.3703 -0.8562  0.2637
  397MOL0     C54675   4.215   5.357   5.612  0.9906  0.1548  0.7156
  397MOL0     C54676   4.171   5.261   5.501 -0.4004 -0.5075 -0.4420
  397MOL0     C54677   4.119   5.403   5.711 -0.0304  0.2820  0.2053
  397MOL0     C54678   3.975   5.357   5.710 -0.8079  0.2569 -0.5795
  397MOL0     O54679   3.945   5.233   5.663 -0.1211  0.8923  0.1548
  397MOL0     C54680   3.818   5.188   5.687 -1.3802 -0.2693 -0.2027
  397MOL0     C54681   3.715   5.242   5.618  0.6994  1.2364  1.2372
  397MOL0     C54682   3.584   5.184   5.612 -0.8075  0.0392  0.8889
  397MOL0     C54683   3.553   5.076   5.696  0.7619  0.5110 -0.0021
  397MOL0     O54684   3.423   5.026   5.718 -0.1747  0.7190 -0.1764
  397MOL0     C54685   3.334   5.044   5.603 -0.4505  0.6139 -0.2062
  397MOL0     C54686   3.221   4.942   5.617 -0.2255  0.3902  0.2209
  397MOL0     C54687   3.153   4.899   5.478  0.5182 -0.4827 -0.8452
  397MOL0     C54688   3.080   5.015   5.416  0.3913  0.5958 -0.6077
  397MOL0     C54689   3.042   5.004   5.264 -0.2450  0.1968 -0.0440
  397MOL0     C54690   2.944   4.896   5.234 -0.2910 -0.4735 -0.4105
  397MOL0     C54691   2.795   4.925   5.287 -0.7565 -1.2154 -0.1463
  397MOL0     C54692   2.730   5.056   5.233 -1.2040 -0.1625  0.3439
  397MOL0    Cl54693   2.680   5.044   5.056 -0.4584 -0.2308 -0.3590
  397MOL0     C54694   3.656   5.029   5.776 -0.7030  0.1773  0.1180
  397MOL0     C54695   3.788   5.068   5.765  0.4029  0.0491 -0.3715
  397MOL0     O54696   3.890   5.437   5.752  0.5228  0.1448  0.3722
  397MOL0     C54697   4.169   5.499   5.805 -0.4527 -0.3875 -0.0639
  397MOL0     C54698   4.302   5.559   5.786  0.2094 -0.2353  0.0435
  397MOL0     N54699   4.915   5.988   6.003  0.2887 -0.7432  0.2397
  397MOL0     N54700   4.949   6.105   6.050 -0.9398 -0.4434 -0.0632
  397MOL0     C54701   5.046   6.231   6.635  0.4747 -0.2570  0.2938
  397MOL0     C54702   4.919   6.218   6.687  0.2222 -0.2999 -0.4179
  397MOL0     C54703   4.586   6.140   6.960 -0.1302 -0.5751  1.1792
  397MOL0     C54704   4.484   6.207   6.893 -0.2930 -1.1790 -0.0053
  397MOL0     C54705   4.351   6.207   6.948 -0.6183  0.2715 -0.0137
  397MOL0     C54706   4.313   6.129   7.055  0.2768  0.1684 -0.1681
  397MOL0     O54707   4.178   6.130   7.092  0.4336 -0.1616 -0.1454
  397MOL0     C54708   4.127   6.034   7.188 -0.0254  0.3671 -0.9908
  397MOL0     C54709   3.972   6.064   7.199  0.0467 -0.1800 -0.5558
  397MOL0     C54710   3.892   5.996   7.081  0.2158 -0.2111 -1.0544
  397MOL0     C54711   3.745   6.010   7.100 -0.1691 -0.2635  0.4740
  397MOL0     C54712   3.673   5.938   6.991 -0.1194 -0.1481 -0.9366
  397MOL0     C54713   3.610   5.883   6.896 -0.2278 -0.3687  0.2779
  397MOL0     C54714   4.417   6.054   7.109 -0.3484 -0.3229  0.0650
  397MOL0     C54715   4.552   6.055   7.065 -0.2801  0.0501  1.0112
  397MOL0     C54716   4.653   5.985   7.151  0.3385 -0.7118 -0.1603
  397MOL0     H54717   4.920   6.467   6.915 -2.2039 -2.0974  0.7195
  397MOL0     H54718   5.164   6.484   6.821 -1.1963  0.0967  2.4831
  397MOL0     H54719   5.192   6.387   6.460  2.8028  2.0462 -1.2624
  397MOL0     H54720   5.282   6.224   6.473 -0.9919 -0.3442  1.8603
  397MOL0     H54721   5.424   6.469   6.549 -0.1924 -0.5125  0.9106
  397MOL0     H54722   5.481   6.319   6.468  1.8566  1.9579 -3.9774
  397MOL0     H54723   5.296   6.520   6.320 -0.2877  0.0607  0.3311
  397MOL0     H54724   5.468   6.512   6.303 -0.5783  1.0137 -2.8257
  397MOL0     H54725   5.462   6.336   6.153  1.0841  0.5810  1.7580
  397MOL0     H54726   5.347   6.245   6.246  1.7697 -0.3710  0.1002
  397MOL0     H54727   5.302   6.508   6.079 -2.0951  1.4788  3.2628
  397MOL0     H54728   5.168   6.426   6.151 -0.2880  1.2461 -1.3403
  397MOL0     H54729   5.338   6.312   5.929  0.2303 -3.7267 -0.8513
  397MOL0     H54730   5.222   6.215   6.021 -1.9210  1.0002  1.4236
  397MOL0     H54731   5.166   6.295   5.805  1.8333 -1.1147  1.0665
  397MOL0     H54732   5.158   6.463   5.872  1.3641  0.5450  1.5650
  397MOL0     H54733   4.991   6.375   6.048 -1.7621 -0.2713 -0.2190
  397MOL0     H54734   4.928   6.390   5.886 -0.3509 -0.5041  0.9340
  397MOL0     H54735   4.940   6.156   5.727 -0.0383  0.8396  0.0970
  397MOL0     H54736   4.949   5.798   5.789 -1.9254 -1.6984 -1.6182
  397MOL0     H54737   4.906   5.917   5.671 -0.5034 -0.5743 -0.4899
  397MOL0     H54738   4.743   5.815   5.904  0.1770  3.1263  0.6263
  397MOL0     H54739   4.663   5.899   5.765 -1.1487 -0.7640 -0.5760
  397MOL0     H54740   4.726   5.698   5.618 -0.4810  1.6451 -0.0682
  397MOL0     H54741   4.792   5.625   5.762  1.5124  1.3396 -0.3233
  397MOL0     H54742   4.599   5.608   5.873  3.7875 -1.7265 -1.5742
  397MOL0     H54743   4.516   5.734   5.774 -2.3490 -1.7173 -1.0778
  397MOL0     H54744   4.416   5.343   5.553  0.5256 -0.4227  0.0767
  397MOL0     H54745   4.245   5.264   5.420 -0.1444  2.1772 -0.1768
  397MOL0     H54746   4.077   5.299   5.460 -1.2055 -3.0675 -1.2009
  397MOL0     H54747   4.147   5.158   5.531 -2.2606 -0.3552 -1.2757
  397MOL0     H54748   3.734   5.328   5.555  2.0402  0.4078  0.4569
  397MOL0     H54749   3.507   5.233   5.553 -0.6858  0.4221  1.0408
  397MOL0     H54750   3.296   5.147   5.607  0.1612  0.8097  0.9357
  397MOL0     H54751   3.388   5.029   5.509 -0.3387 -0.0912 -0.0312
  397MOL0     H54752   3.264   4.865   5.681  2.6247  0.8976 -0.9284
  397MOL0     H54753   3.144   4.976   5.687  1.1047  3.4977  0.3510
  397MOL0     H54754   3.082   4.818   5.497  3.0183 -1.9647  3.5858
  397MOL0     H54755   3.223   4.858   5.405  1.0992  2.9108 -2.4259
  397MOL0     H54756   3.150   5.099   5.421 -0.5127  1.8741 -5.3430
  397MOL0     H54757   2.997   5.036   5.484  2.2547 -1.2735  2.5502
  397MOL0     H54758   3.005   5.104   5.238 -1.3374  0.1903  1.3923
  397MOL0     H54759   3.127   4.995   5.195 -1.1909  1.9115 -1.5362
  397MOL0     H54760   2.985   4.797   5.256  1.6596 -0.1489 -2.3282
  397MOL0     H54761   2.931   4.885   5.126 -0.9051 -1.6788 -0.2423
  397MOL0     H54762   2.801   4.937   5.395 -2.6036  0.4482 -0.1872
  397MOL0     H54763   2.734   4.835   5.271  0.4068 -1.8934 -0.9280
  397MOL0     H54764   2.791   5.146   5.247 -1.6894  0.1747  0.3109
  397MOL0     H54765   2.637   5.082   5.284 -1.8439  4.2713 -2.5359
  397MOL0     H54766   3.632   4.952   5.848 -1.2191 -0.9170 -1.1782
  397MOL0     H54767   3.861   5.019   5.829 -0.4718 -0.1639  0.4906
  397MOL0     H54768   4.095   5.536   5.875  2.2950  1.5985  2.0429
  397MOL0     H54769   4.306   5.645   5.853  1.2867  0.4893 -0.9197
  397MOL0     H54770   5.084   6.165   6.557  2.1316 -1.3577  1.9471
  397MOL0     H54771   4.856   6.139   6.647 -1.1390 -0.6018  2.0621
  397MOL0     H54772   4.491   6.262   6.800  1.5764 -2.4279 -0.6605
  397MOL0     H54773   4.270   6.267   6.909 -0.5987  1.3594  1.5318
  397MOL0     H54774   4.143   5.929   7.160  1.6892 -0.1847  1.6559
  397MOL0     H54775   4.183   6.037   7.281 -1.0573 -2.4613 -0.1630
  397MOL0     H54776   3.958   6.172   7.193 -0.3050 -0.1667  0.3410
  397MOL0     H54777   3.939   6.023   7.295  0.0934 -1.0097 -0.8831
  397MOL0     H54778   3.905   6.035   6.979  1.8887 -0.3838 -0.9356
  397MOL0     H54779   3.914   5.889   7.070 -2.1354 -1.0378  1.2995
  397MOL0     H54780   3.721   6.117   7.093  0.2277 -0.0728  1.8371
  397MOL0     H54781   3.722   5.974   7.200 -0.9477 -2.4406 -0.4324
  397MOL0     H54782   3.562   5.851   6.805 -0.0739 -1.5436  0.5833
  397MOL0     H54783   4.393   5.994   7.196  3.7330 -1.6926  0.4627
  397MOL0     H54784   4.751   6.031   7.168 -0.8198  2.2434 -0.8455
  397MOL0     H54785   4.621   5.958   7.252 -2.4298  0.5029 -0.6331
  397MOL0     H54786   4.672   5.888   7.103 -0.6809 -1.3988  0.7753
  398MOL0     O54787   0.790   2.092   0.630 -0.1135 -0.5049  0.5788
  398MOL0     C54788   0.685   2.048   0.577  0.2980  0.1189 -1.1444
  398MOL0     O54789   0.678   1.983   0.452 -0.4387 -0.5071 -0.0577
  398MOL0     C54790   0.803   1.992   0.391 -0.0515  0.5786 -0.0209
  398MOL0     C54791   0.908   1.908   0.427 -0.0363  0.1214  0.1041
  398MOL0     C54792   1.041   1.917   0.373  0.2277 -0.3020 -0.2922
  398MOL0     C54793   1.056   2.008   0.275 -0.3152  0.1812  0.3712
  398MOL0     O54794   1.184   2.018   0.217 -0.0592 -0.0514 -0.5459
  398MOL0     C54795   1.219   2.136   0.142  0.1591  0.6019 -0.2161
  398MOL0     C54796   1.232   2.263   0.221 -0.3926 -0.4625 -0.3630
  398MOL0     C54797   1.338   2.240   0.327 -0.5018 -0.0883 -0.2364
  398MOL0     C54798   1.387   2.364   0.415  0.9167  0.2682  0.1447
  398MOL0     C54799   1.281   2.392   0.527 -0.0309 -0.6396  0.0612
  398MOL0     C54800   1.262   2.280   0.634  1.1286  0.9980  0.2852
  398MOL0     C54801   1.387   2.284   0.735  0.0424 -0.9867  0.8630
  398MOL0     C54802   1.362   2.193   0.861  0.6940  0.0535  0.7628
  398MOL0     N54803   1.485   2.198   0.934 -0.0378  0.2489 -0.0780
  398MOL0     C54804   1.612   2.160   0.890  0.6493  0.7481  0.3393
  398MOL0     C54805   1.692   2.161   0.999  0.7896  0.2075 -0.4512
  398MOL0     C54806   1.836   2.114   1.002 -0.2471  0.4745 -0.0018
  398MOL0     C54807   1.845   1.966   0.998  0.4406 -0.5506  0.4104
  398MOL0     C54808   1.993   1.928   1.003 -0.4281 -0.7540 -0.4968
  398MOL0     C54809   1.986   1.774   1.002 -0.4204 -0.4386 -0.0398
  398MOL0     O54810   2.122   1.723   1.030 -0.3074 -0.1451  0.4398
  398MOL0     C54811   2.236   1.746   0.948 -0.1721  0.4130  0.4796
  398MOL0     C54812   2.224   1.790   0.816 -0.2695 -0.2535 -0.6193
  398MOL0     C54813   2.337   1.807   0.732 -0.3865  0.8727 -0.3878
  398MOL0     C54814   2.317   1.854   0.592 -0.0457 -0.3241 -0.6234
  398MOL0     C54815   2.461   1.773   0.786  0.1892 -0.1114  0.2948
  398MOL0     C54816   2.583   1.789   0.706  0.9091 -0.6194  0.5990
  398MOL0     O54817   2.705   1.780   0.774 -0.2847  0.1523  0.6433
  398MOL0     C54818   2.813   1.783   0.688  0.0412 -0.2253 -0.4247
  398MOL0     C54819   2.892   1.671   0.678 -0.5850 -0.1183  0.1428
  398MOL0     C54820   3.008   1.670   0.603 -0.3192  0.2851  0.2681
  398MOL0     C54821   3.044   1.789   0.537 -1.1498 -0.5614  0.7009
  398MOL0     O54822   3.159   1.803   0.463  0.8411 -1.1497  0.4917
  398MOL0     C54823   3.279   1.732   0.493 -0.1196 -0.4361 -0.4377
  398MOL0     C54824   3.292   1.602   0.406 -0.2020  0.4446  0.5676
  398MOL0     C54825   3.416   1.511   0.444 -0.1295 -0.5912 -0.1185
  398MOL0     C54826   3.509   1.484   0.317  0.4428 -0.2008 -0.0271
  398MOL0     C54827   3.657   1.505   0.362  0.2823  0.3069 -0.0796
  398MOL0     C54828   3.781   1.431   0.298 -0.9236  0.2342 -0.2742
  398MOL0     C54829   3.883   1.412   0.418  0.3451  0.0513  0.7761
  398MOL0     C54830   3.875   1.277   0.492  0.2529  0.0203 -0.8891
  398MOL0    Cl54831   3.916   1.132   0.391 -0.0911 -0.5965 -0.6709
  398MOL0     C54832   2.971   1.899   0.537 -0.0620 -0.5618 -0.1353
  398MOL0     C54833   2.851   1.896   0.607  0.3803  0.4662 -0.0496
  398MOL0     O54834   2.567   1.774   0.586 -0.0248  0.6573  0.0522
  398MOL0     C54835   2.471   1.717   0.914 -0.4773 -0.0038 -0.3661
  398MOL0     C54836   2.364   1.703   0.998  1.1755 -0.3451 -0.2686
  398MOL0     N54837   1.614   2.201   1.103  0.3681 -0.4970 -0.3935
  398MOL0     N54838   1.487   2.219   1.063  0.4522 -0.4254 -0.1127
  398MOL0     C54839   0.950   2.075   0.221  0.8257 -0.1756 -0.4217
  398MOL0     C54840   0.820   2.073   0.277  0.1941  0.8868 -0.2983
  398MOL0     C54841   0.561   2.054   0.663  0.3151  0.0972 -0.0773
  398MOL0     C54842   0.458   2.144   0.638  0.4642  0.0825 -0.5732
  398MOL0     C54843   0.334   2.136   0.712  0.1652 -0.4439  0.0521
  398MOL0     C54844   0.320   2.039   0.814  0.5970 -0.1281  0.6382
  398MOL0     O54845   0.187   2.034   0.871 -0.3424 -0.2843  0.8515
  398MOL0     C54846   0.152   1.923   0.947 -0.9916 -0.4969  0.3724
  398MOL0     C54847   0.004   1.931   0.971  0.7611  0.8021  1.0727
  398MOL0     C54848  -0.064   2.073   0.977 -0.3166  0.3131  0.6302
  398MOL0     C54849  -0.208   2.063   1.031  0.8180 -0.4661 -0.7934
  398MOL0     C54850  -0.275   2.198   1.040  1.4830 -0.6163 -0.4436
  398MOL0     C54851  -0.315   2.314   1.035  1.0302  0.2666  1.1125
  398MOL0     C54852   0.416   1.945   0.830 -0.3825 -0.6743 -0.2101
  398MOL0     C54853   0.542   1.949   0.754  0.4724 -0.5398 -0.1841
  398MOL0     C54854   0.652   1.844   0.762  0.0902 -0.0242  0.3403
  398MOL0     H54855   0.907   1.836   0.509  2.7150  1.1507  1.1789
  398MOL0     H54856   1.118   1.844   0.395 -1.1303 -2.2016 -1.5407
  398MOL0     H54857   1.146   2.145   0.061 -1.5609  4.4200  1.5371
  398MOL0     H54858   1.311   2.108   0.091 -0.8566  0.0870 -1.8304
  398MOL0     H54859   1.276   2.339   0.156  3.1229 -0.6287  1.6101
  398MOL0     H54860   1.137   2.296   0.263  1.1002  2.5528  0.9398
  398MOL0     H54861   1.299   2.167   0.398  0.5414  0.5562  1.0481
  398MOL0     H54862   1.423   2.191   0.278 -3.0133 -3.6313 -1.4202
  398MOL0     H54863   1.484   2.344   0.462  2.1631  0.5653 -2.1782
  398MOL0     H54864   1.385   2.450   0.347 -0.3936  0.2175  0.1038
  398MOL0     H54865   1.187   2.402   0.473 -0.5468  1.0697  1.1989
  398MOL0     H54866   1.303   2.490   0.569 -4.9064  1.3182 -1.3337
  398MOL0     H54867   1.172   2.312   0.688 -0.6907  0.2179 -2.0829
  398MOL0     H54868   1.244   2.180   0.593  0.4564  0.3492  2.0589
  398MOL0     H54869   1.397   2.386   0.773 -0.7406 -0.8153  0.6294
  398MOL0     H54870   1.478   2.251   0.685 -0.8722 -2.1674 -0.0860
  398MOL0     H54871   1.277   2.225   0.922  2.2274 -0.8155  3.5187
  398MOL0     H54872   1.346   2.092   0.820  0.2709  0.5014 -0.2013
  398MOL0     H54873   1.629   2.129   0.788 -1.1045 -0.0450  0.2440
  398MOL0     H54874   1.879   2.157   1.093  0.6148 -0.4276  0.0319
  398MOL0     H54875   1.890   2.153   0.915  0.0235 -0.3666 -0.2234
  398MOL0     H54876   1.789   1.923   1.081 -1.7646  1.6078  0.1441
  398MOL0     H54877   1.791   1.930   0.910  1.5174  2.4470 -1.6453
  398MOL0     H54878   2.034   1.986   0.919 -2.9114  0.8554 -0.7091
  398MOL0     H54879   2.034   1.971   1.095  1.9523  0.7568 -2.1277
  398MOL0     H54880   1.923   1.726   1.077  0.7156 -1.7573  0.1256
  398MOL0     H54881   1.948   1.743   0.904 -0.4712  1.0011 -0.4981
  398MOL0     H54882   2.129   1.830   0.784  0.5748  1.0318 -1.6530
  398MOL0     H54883   2.330   1.776   0.518 -2.9326 -2.5564  1.0044
  398MOL0     H54884   2.380   1.941   0.572 -0.3348 -0.0016 -0.1528
  398MOL0     H54885   2.209   1.872   0.584 -0.0331  0.1390  0.1129
  398MOL0     H54886   2.868   1.589   0.745 -0.9181 -1.4195 -1.4839
  398MOL0     H54887   3.061   1.576   0.598  0.9122  1.0211 -1.2016
  398MOL0     H54888   3.363   1.802   0.490  0.1935 -0.6817  1.3216
  398MOL0     H54889   3.271   1.704   0.598 -2.4094  0.0609 -0.4377
  398MOL0     H54890   3.196   1.550   0.416 -0.2792  0.8602  2.3022
  398MOL0     H54891   3.309   1.631   0.302  2.5795 -0.1581  0.7867
  398MOL0     H54892   3.369   1.422   0.487 -2.7190  0.1015 -1.2681
  398MOL0     H54893   3.472   1.561   0.523 -0.1775  2.0040 -1.5956
  398MOL0     H54894   3.478   1.550   0.236  2.1511 -1.0514 -1.4450
  398MOL0     H54895   3.504   1.380   0.283  1.2658 -0.3230  0.1888
  398MOL0     H54896   3.684   1.610   0.377 -1.4173  0.7669 -0.0015
  398MOL0     H54897   3.652   1.485   0.469 -2.6378  0.4765 -0.0947
  398MOL0     H54898   3.803   1.492   0.210 -1.0454 -0.4385 -0.7745
  398MOL0     H54899   3.764   1.332   0.256  1.1801  0.4521 -1.7814
  398MOL0     H54900   3.870   1.489   0.495  3.3380  1.5983 -0.1161
  398MOL0     H54901   3.983   1.427   0.379 -0.3405 -0.6567 -1.3865
  398MOL0     H54902   3.772   1.256   0.521  1.1711  0.5044  3.2812
  398MOL0     H54903   3.936   1.293   0.581 -0.0702  2.3754 -1.0382
  398MOL0     H54904   2.994   1.982   0.471  0.8269  0.7063  1.6813
  398MOL0     H54905   2.806   1.991   0.633 -1.0325 -0.6063  1.6752
  398MOL0     H54906   2.569   1.681   0.945  0.5980  1.0824 -2.2917
  398MOL0     H54907   2.365   1.663   1.099 -0.5048 -1.4484 -0.6499
  398MOL0     H54908   0.964   2.127   0.126 -0.6496  1.0077 -0.0234
  398MOL0     H54909   0.733   2.128   0.242 -1.4026 -1.7274 -0.7285
  398MOL0     H54910   0.475   2.215   0.558  2.0878  0.2469 -0.1012
  398MOL0     H54911   0.250   2.200   0.688 -0.4135 -1.4424 -0.6637
  398MOL0     H54912   0.187   1.832   0.898  1.2106 -0.9450  2.5859
  398MOL0     H54913   0.205   1.927   1.043 -0.4530  0.9142  0.0491
  398MOL0     H54914  -0.033   1.863   1.048 -1.1032 -0.0918 -0.5411
  398MOL0     H54915  -0.038   1.877   0.886  3.7706 -0.2874  0.1474
  398MOL0     H54916  -0.005   2.129   1.050 -1.2165  1.9881  0.1184
  398MOL0     H54917  -0.058   2.115   0.876 -0.3245 -0.3260  0.3559
  398MOL0     H54918  -0.206   2.014   1.129  0.1407 -1.4960 -1.2772
  398MOL0     H54919  -0.257   2.006   0.951  1.3518 -0.7153 -0.9485
  398MOL0     H54920  -0.339   2.416   1.013  2.2848 -0.1672 -3.2789
  398MOL0     H54921   0.388   1.859   0.890 -3.0314  0.0152 -0.3213
  398MOL0     H54922   0.710   1.827   0.671  0.2944 -2.9657  0.9114
  398MOL0     H54923   0.722   1.864   0.843 -0.4922 -0.8607  1.0766
  398MOL0     H54924   0.609   1.746   0.784  0.1051 -0.2253 -0.4767
  399MOL0     O54925   0.726   5.088   8.220  0.4471  0.1584 -0.5121
  399MOL0     C54926   0.669   5.181   8.167  0.4116  0.1913 -0.0224
  399MOL0     O54927   0.707   5.309   8.174  0.1670  0.5986 -0.6363
  399MOL0     C54928   0.823   5.334   8.234 -0.7525  0.1336 -0.0142
  399MOL0     C54929   0.931   5.381   8.160  0.0672  0.2104 -0.4525
  399MOL0     C54930   1.058   5.416   8.219  0.3487  1.0565  0.6465
  399MOL0     C54931   1.073   5.384   8.356  0.8738 -0.4055 -0.0601
  399MOL0     O54932   1.195   5.407   8.421  0.9393  0.1645  0.0181
  399MOL0     C54933   1.193   5.474   8.554  0.4950  0.2800  0.0213
  399MOL0     C54934   1.337   5.527   8.589 -0.0481  0.2137 -0.2872
  399MOL0     C54935   1.405   5.607   8.476 -0.1185  0.6296 -0.3870
  399MOL0     C54936   1.551   5.560   8.432  0.9207 -0.5457  0.3742
  399MOL0     C54937   1.632   5.662   8.346  0.1247  0.1319 -0.3266
  399MOL0     C54938   1.580   5.712   8.206  0.7480  0.3408 -0.6453
  399MOL0     C54939   1.687   5.722   8.109  0.4682  0.4416 -0.7000
  399MOL0     C54940   1.776   5.846   8.109  0.1330  0.7897 -0.7558
  399MOL0     N54941   1.912   5.838   8.165 -0.5776  0.5397 -0.0915
  399MOL0     C54942   2.025   5.856   8.090 -0.8537 -0.6443 -0.2285
  399MOL0     C54943   2.123   5.841   8.180 -0.4132 -0.6748  0.2015
  399MOL0     C54944   2.270   5.835   8.136 -0.1179  0.5060  0.5918
  399MOL0     C54945   2.363   5.907   8.240  0.1572  0.5218  0.3968
  399MOL0     C54946   2.504   5.925   8.170 -0.1001  0.1013  0.3565
  399MOL0     C54947   2.594   6.007   8.255 -1.2821  0.3326  1.0468
  399MOL0     O54948   2.711   6.020   8.173  0.2379  0.0742  1.0040
  399MOL0     C54949   2.811   6.118   8.198 -0.4690 -0.0403  0.1733
  399MOL0     C54950   2.811   6.208   8.304 -0.3107  0.4200  0.1203
  399MOL0     C54951   2.909   6.308   8.315  0.6283 -0.2903  0.0359
  399MOL0     C54952   2.895   6.397   8.430 -0.0922 -0.3216  0.6677
  399MOL0     C54953   3.022   6.321   8.226  0.8391 -0.5811 -0.0412
  399MOL0     C54954   3.136   6.417   8.233 -0.4281  0.4650  0.3862
  399MOL0     O54955   3.195   6.456   8.115 -0.8849 -0.0031 -0.2165
  399MOL0     C54956   3.310   6.528   8.129 -0.3250  0.0666 -0.6780
  399MOL0     C54957   3.321   6.669   8.151  0.5123  1.1080  1.3136
  399MOL0     C54958   3.447   6.733   8.162  0.1232  0.9732  0.0090
  399MOL0     C54959   3.565   6.664   8.162  0.0905  0.0491  0.1457
  399MOL0     O54960   3.683   6.729   8.177 -0.1909  0.0853  0.1211
  399MOL0     C54961   3.788   6.678   8.092  0.0030 -0.9141 -0.6510
  399MOL0     C54962   3.770   6.706   7.946  0.6606  0.4637 -0.3194
  399MOL0     C54963   3.778   6.853   7.912  0.1838 -0.0872 -0.5799
  399MOL0     C54964   3.646   6.924   7.938 -0.1764 -0.3513 -0.7278
  399MOL0     C54965   3.658   7.065   7.896  0.2850  0.4440  0.1007
  399MOL0     C54966   3.537   7.139   7.955 -0.4314 -0.8976  1.1774
  399MOL0     C54967   3.530   7.291   7.911  0.4386 -0.0586  0.1288
  399MOL0     C54968   3.424   7.361   8.010 -0.4527 -0.0753  0.7411
  399MOL0    Cl54969   3.265   7.283   8.009  0.0216  0.2254  0.1553
  399MOL0     C54970   3.548   6.519   8.145 -0.2529 -0.8656  0.0770
  399MOL0     C54971   3.430   6.454   8.130  0.0081 -0.3830 -0.2386
  399MOL0     O54972   3.167   6.463   8.334 -0.1895 -0.0737  0.3646
  399MOL0     C54973   3.021   6.227   8.116  0.7544 -0.3800  0.4156
  399MOL0     C54974   2.923   6.131   8.105  0.6680 -0.3325  0.5272
  399MOL0     N54975   2.074   5.810   8.302  0.1432 -0.6783  0.3643
  399MOL0     N54976   1.943   5.820   8.299 -0.2713 -0.3839  0.0304
  399MOL0     C54977   0.962   5.324   8.430  0.3246 -0.1310  0.6146
  399MOL0     C54978   0.837   5.305   8.372 -0.7266  0.3374  0.7754
  399MOL0     C54979   0.540   5.170   8.095  1.3605  1.2606 -0.4608
  399MOL0     C54980   0.489   5.275   8.021 -1.0734 -0.4290  1.3001
  399MOL0     C54981   0.362   5.287   7.974 -0.7196 -0.0549  0.4835
  399MOL0     C54982   0.274   5.179   7.987  0.1008 -0.7783 -0.7811
  399MOL0     O54983   0.144   5.177   7.941 -0.4340  0.1679 -0.1237
  399MOL0     C54984   0.100   5.262   7.839 -0.5203 -0.2997 -0.2806
  399MOL0     C54985  -0.053   5.287   7.859  0.3181  0.7080  1.1490
  399MOL0     C54986  -0.135   5.305   7.732  0.2716 -0.8445 -0.4709
  399MOL0     C54987  -0.265   5.386   7.766 -0.5583  0.2827  0.1639
  399MOL0     C54988  -0.359   5.317   7.853  0.4568  0.2090  0.4243
  399MOL0     C54989  -0.423   5.247   7.929  0.5688 -0.0242 -0.4983
  399MOL0     C54990   0.328   5.059   8.047  0.5583 -0.2349 -0.2421
  399MOL0     C54991   0.456   5.054   8.098  0.3295  0.6939  0.2146
  399MOL0     C54992   0.489   4.924   8.161 -0.8008  0.1974  0.1717
  399MOL0     H54993   0.917   5.377   8.052 -1.2755  0.2845 -0.2870
  399MOL0     H54994   1.131   5.457   8.150  0.2429 -2.7385 -2.0511
  399MOL0     H54995   1.155   5.405   8.630 -2.6957 -0.3868 -2.0272
  399MOL0     H54996   1.116   5.552   8.562  0.5824  0.2011  4.4393
  399MOL0     H54997   1.342   5.580   8.684  0.2122  0.6507 -0.5411
  399MOL0     H54998   1.385   5.430   8.603  2.1300  1.5338  2.0354
  399MOL0     H54999   1.350   5.596   8.382 -2.0605 -1.4062  0.8860
  399MOL0     H55000   1.408   5.710   8.512 -0.8138  0.2746  0.7555
  399MOL0     H55001   1.599   5.552   8.530  0.4692  1.7602  0.8489
  399MOL0     H55002   1.538   5.466   8.379  1.0392  0.1875 -0.9831
  399MOL0     H55003   1.734   5.630   8.323  0.8821  1.4023  1.0508
  399MOL0     H55004   1.638   5.756   8.402  1.8364 -0.9077  1.3772
  399MOL0     H55005   1.516   5.628   8.176 -1.2725  1.0190  1.4096
  399MOL0     H55006   1.518   5.802   8.220  0.2291  0.0082 -0.7650
  399MOL0     H55007   1.637   5.723   8.011  0.8670  0.3360 -0.9088
  399MOL0     H55008   1.750   5.633   8.115 -0.7132 -0.2892  2.5511
  399MOL0     H55009   1.763   5.883   8.007 -1.3700 -2.6252 -1.9736
  399MOL0     H55010   1.724   5.924   8.166  0.1896 -0.8751  1.7694
  399MOL0     H55011   2.027   5.878   7.984 -0.4866  1.8843  0.2483
  399MOL0     H55012   2.287   5.885   8.040 -0.4884 -0.2168  0.1398
  399MOL0     H55013   2.303   5.732   8.120  1.0656  0.9576 -0.1074
  399MOL0     H55014   2.316   6.005   8.256 -0.8824  0.0831  0.0947
  399MOL0     H55015   2.365   5.840   8.326 -0.8639 -0.0603 -0.0048
  399MOL0     H55016   2.548   5.825   8.162 -2.5823 -0.9951 -0.8253
  399MOL0     H55017   2.486   5.975   8.074 -0.9429  0.8619  0.8915
  399MOL0     H55018   2.555   6.106   8.279  1.8204  1.4425  1.9525
  399MOL0     H55019   2.620   5.944   8.340  2.5392 -3.3398 -2.4001
  399MOL0     H55020   2.738   6.194   8.383 -0.1971 -0.2265  0.1198
  399MOL0     H55021   2.916   6.502   8.405 -0.7718 -0.6374 -1.3594
  399MOL0     H55022   2.981   6.363   8.489 -0.5677 -1.5837  0.6528
  399MOL0     H55023   2.799   6.395   8.482  0.0442  0.9023  1.0140
  399MOL0     H55024   3.225   6.717   8.170 -1.1072 -2.6136  3.7226
  399MOL0     H55025   3.457   6.839   8.185 -0.9236  0.8494  1.1407
  399MOL0     H55026   3.878   6.734   8.119  0.6935 -1.8376 -1.0132
  399MOL0     H55027   3.798   6.569   8.095  1.8083 -0.8498 -2.3043
  399MOL0     H55028   3.845   6.647   7.893  0.4763  0.3930 -0.5063
  399MOL0     H55029   3.677   6.659   7.912  1.5772 -1.1524 -0.7026
  399MOL0     H55030   3.816   6.867   7.811  0.3289  0.2619 -0.4803
  399MOL0     H55031   3.849   6.909   7.974 -1.5249  0.0661  1.3369
  399MOL0     H55032   3.632   6.931   8.046  0.3308  1.5539 -0.7434
  399MOL0     H55033   3.558   6.876   7.893 -1.2444  0.8247  0.0606
  399MOL0     H55034   3.755   7.108   7.921  0.7643 -0.5230 -0.0418
  399MOL0     H55035   3.654   7.067   7.787 -0.3753  2.9109  0.0985
  399MOL0     H55036   3.539   7.135   8.064 -0.4699 -0.6866  1.1849
  399MOL0     H55037   3.448   7.085   7.921 -0.9666 -0.7163  2.2556
  399MOL0     H55038   3.506   7.298   7.805 -0.5172 -0.9778  0.2633
  399MOL0     H55039   3.630   7.331   7.931  1.4106 -1.5202 -1.4828
  399MOL0     H55040   3.416   7.466   7.981 -0.8928 -0.8130 -2.1345
  399MOL0     H55041   3.468   7.355   8.110 -0.5918 -2.1348  0.7197
  399MOL0     H55042   3.642   6.467   8.162  0.6006  0.3588 -0.7352
  399MOL0     H55043   3.430   6.347   8.111 -2.5668  0.0246 -3.5286
  399MOL0     H55044   3.100   6.224   8.041  0.3573 -1.5397  0.0233
  399MOL0     H55045   2.924   6.068   8.017 -0.1957 -0.5507  0.6653
  399MOL0     H55046   0.962   5.301   8.536  1.6428  3.2201  1.4775
  399MOL0     H55047   0.753   5.267   8.429 -1.5496  3.0869  1.5593
  399MOL0     H55048   0.547   5.367   8.015 -0.3542 -0.9157  0.5704
  399MOL0     H55049   0.321   5.380   7.937  1.9157  1.7946  1.8593
  399MOL0     H55050   0.152   5.358   7.841  0.9676 -1.0891 -0.0296
  399MOL0     H55051   0.113   5.218   7.740 -3.2466  0.1037 -0.8940
  399MOL0     H55052  -0.058   5.378   7.919  2.7638 -0.0295  2.6145
  399MOL0     H55053  -0.095   5.201   7.913  1.6217  0.5680  2.0021
  399MOL0     H55054  -0.078   5.359   7.656 -0.2755 -0.8451 -0.8885
  399MOL0     H55055  -0.148   5.204   7.692  1.7654 -1.6070  0.8636
  399MOL0     H55056  -0.304   5.398   7.664  1.2430  0.2894 -0.5649
  399MOL0     H55057  -0.232   5.481   7.809  3.3432  0.9375 -3.5902
  399MOL0     H55058  -0.466   5.166   7.985 -1.3913  1.6927  0.6340
  399MOL0     H55059   0.264   4.971   8.043 -1.0066  0.7713  1.2296
  399MOL0     H55060   0.409   4.854   8.137 -0.9499  1.2100 -2.6994
  399MOL0     H55061   0.581   4.881   8.120  0.9807  1.6399  2.3927
  399MOL0     H55062   0.498   4.939   8.269  0.7677 -0.7706  0.2104
  400MOL0     O55063   8.220   6.172   8.140 -0.4146  0.5053 -0.3841
  400MOL0     C55064   8.326   6.230   8.119  0.6886  0.7389 -0.1703
  400MOL0     O55065   8.418   6.194   8.023  0.4717 -0.4256  0.0734
  400MOL0     C55066   8.400   6.074   7.959  0.1253  0.0147  0.0581
  400MOL0     C55067   8.416   5.953   8.016  0.0994  0.4141 -0.0384
  400MOL0     C55068   8.401   5.833   7.950  0.5538 -0.0066 -0.3609
  400MOL0     C55069   8.339   5.840   7.828  0.2934  0.1596  0.4270
  400MOL0     O55070   8.297   5.729   7.753 -0.2712 -0.5062  0.0930
  400MOL0     C55071   8.243   5.623   7.830 -0.2617 -0.1852 -0.2395
  400MOL0     C55072   8.129   5.663   7.918  0.3893  0.4343 -0.9159
  400MOL0     C55073   8.019   5.724   7.822 -0.3373 -0.4425  0.8198
  400MOL0     C55074   7.919   5.787   7.904  0.6206 -0.4311 -0.8616
  400MOL0     C55075   7.797   5.842   7.832 -0.1084  0.3228  0.2824
  400MOL0     C55076   7.676   5.877   7.919 -0.1122 -1.0463 -0.5231
  400MOL0     C55077   7.562   5.936   7.834  0.5835  0.3368 -1.2438
  400MOL0     C55078   7.424   5.906   7.895 -0.0501  0.3034 -0.1646
  400MOL0     N55079   7.389   5.770   7.847 -0.7841 -0.4887 -0.5445
  400MOL0     C55080   7.346   5.730   7.720  0.7436 -0.6642  0.0273
  400MOL0     C55081   7.307   5.601   7.741  0.0367  0.1755  0.9217
  400MOL0     C55082   7.282   5.503   7.622  0.5592  0.7065 -0.3864
  400MOL0     C55083   7.397   5.400   7.605  0.4815 -0.0958 -1.2807
  400MOL0     C55084   7.516   5.461   7.543 -0.9262 -0.2876 -0.1399
  400MOL0     C55085   7.509   5.503   7.400 -0.1413  0.3311  0.0025
  400MOL0     O55086   7.473   5.641   7.388  0.0626  0.0806 -0.4036
  400MOL0     C55087   7.559   5.747   7.418  0.7655  0.9547 -0.0892
  400MOL0     C55088   7.498   5.872   7.417 -0.4575  0.0968  0.0027
  400MOL0     C55089   7.570   5.985   7.451 -0.2397  0.4837  0.7243
  400MOL0     C55090   7.504   6.120   7.433 -0.0890 -0.0956  0.6377
  400MOL0     C55091   7.712   5.980   7.497  0.9339 -0.4765 -0.5396
  400MOL0     C55092   7.804   6.097   7.511  0.0536 -0.0776  0.7590
  400MOL0     O55093   7.914   6.079   7.582  0.2282  0.1040 -0.6591
  400MOL0     C55094   7.969   6.195   7.638  0.1274  0.1640  1.2873
  400MOL0     C55095   7.972   6.212   7.776  0.4617  0.0928  0.0085
  400MOL0     C55096   8.035   6.325   7.835 -0.3365 -0.5861  0.5583
  400MOL0     C55097   8.119   6.410   7.759 -0.0264 -0.3123  0.6246
  400MOL0     O55098   8.167   6.525   7.817  0.3280  0.0571  0.2168
  400MOL0     C55099   8.289   6.568   7.765 -0.1708 -0.2501 -0.5568
  400MOL0     C55100   8.337   6.664   7.860  0.1478 -0.1235 -0.2062
  400MOL0     C55101   8.484   6.714   7.831  0.3881 -1.2347 -0.1908
  400MOL0     C55102   8.576   6.594   7.853 -0.2589  0.3983  0.5267
  400MOL0     C55103   8.731   6.635   7.843 -0.6910 -0.5054 -0.6241
  400MOL0     C55104   8.762   6.714   7.716 -0.5017  1.1041 -0.3292
  400MOL0     C55105   8.908   6.749   7.705  0.3922  0.2739 -0.3803
  400MOL0     C55106   8.943   6.825   7.577 -0.4023 -0.2745  0.5187
  400MOL0    Cl55107   9.120   6.839   7.561 -0.2606  0.0105 -0.2130
  400MOL0     C55108   8.119   6.389   7.627 -1.1226  0.3754  0.3491
  400MOL0     C55109   8.041   6.290   7.565 -0.2375 -1.1526  0.0847
  400MOL0     O55110   7.768   6.205   7.463 -0.5900  0.1492  0.3381
  400MOL0     C55111   7.766   5.847   7.508 -0.0673  0.9372  0.3068
  400MOL0     C55112   7.696   5.731   7.464 -0.0832 -0.0312 -0.8809
  400MOL0     N55113   7.312   5.570   7.872 -0.6116  0.2862  0.0478
  400MOL0     N55114   7.367   5.669   7.942  0.7660 -0.5846 -0.1138
  400MOL0     C55115   8.322   5.958   7.766  0.3713  0.2322 -0.4632
  400MOL0     C55116   8.357   6.083   7.830  0.3412 -0.4159  0.1521
  400MOL0     C55117   8.369   6.326   8.221  0.0892  0.1843 -0.0024
  400MOL0     C55118   8.491   6.292   8.275  0.4896 -0.3397 -0.3547
  400MOL0     C55119   8.549   6.375   8.366  0.0570 -0.3886 -0.5961
  400MOL0     C55120   8.479   6.497   8.412 -0.7905  0.5469 -0.1700
  400MOL0     O55121   8.542   6.584   8.503  0.7837  0.0399  0.8346
  400MOL0     C55122   8.469   6.703   8.546  0.5593  0.4125  0.1611
  400MOL0     C55123   8.541   6.772   8.671 -0.5604 -0.3446  0.4838
  400MOL0     C55124   8.696   6.792   8.639 -0.1082 -0.1973 -0.1964
  400MOL0     C55125   8.777   6.850   8.758 -0.5642  0.6889 -1.2716
  400MOL0     C55126   8.910   6.883   8.711 -0.2704  0.3194  0.0403
  400MOL0     C55127   9.029   6.903   8.691  0.4458  0.4559  0.4865
  400MOL0     C55128   8.360   6.520   8.350 -0.3923 -0.3992  0.1257
  400MOL0     C55129   8.299   6.437   8.257 -0.5435  0.2237 -0.0187
  400MOL0     C55130   8.163   6.482   8.201 -0.0272  0.4125 -0.0002
  400MOL0     H55131   8.453   5.937   8.117  1.5302  2.0524 -0.2666
  400MOL0     H55132   8.445   5.743   7.991  3.1254  1.0686 -0.5649
  400MOL0     H55133   8.310   5.560   7.889  1.4779  0.5425 -1.3751
  400MOL0     H55134   8.191   5.564   7.753 -2.4282  0.6673  0.4921
  400MOL0     H55135   8.093   5.586   7.986 -0.9670  3.2134  1.7146
  400MOL0     H55136   8.171   5.738   7.986 -1.3885  0.3482  0.3322
  400MOL0     H55137   8.062   5.795   7.751  1.9122 -3.4560 -1.0671
  400MOL0     H55138   7.981   5.644   7.758  3.5180 -0.7884 -1.3329
  400MOL0     H55139   7.869   5.706   7.959  1.1819 -2.3446 -2.9885
  400MOL0     H55140   7.955   5.859   7.977 -2.9572 -1.0428  1.7658
  400MOL0     H55141   7.769   5.773   7.752  1.2345 -0.4764  0.4705
  400MOL0     H55142   7.829   5.932   7.779 -1.2413  0.7814  0.3549
  400MOL0     H55143   7.644   5.783   7.967 -0.6980 -0.3145  0.5536
  400MOL0     H55144   7.701   5.957   7.989 -0.5874 -0.4584 -1.0161
  400MOL0     H55145   7.571   5.891   7.735  2.1215  2.5118 -2.1833
  400MOL0     H55146   7.580   6.044   7.842  2.6926 -0.1201  1.9390
  400MOL0     H55147   7.426   5.909   8.004 -1.8600  2.3352 -0.1160
  400MOL0     H55148   7.346   5.975   7.861 -2.2792 -1.4859  1.0473
  400MOL0     H55149   7.364   5.786   7.629  2.0454  3.0383  2.3506
  400MOL0     H55150   7.253   5.552   7.528 -0.0150 -0.4296 -0.8156
  400MOL0     H55151   7.189   5.452   7.649  0.9073 -1.4353 -2.8114
  400MOL0     H55152   7.426   5.351   7.698 -0.9647 -0.8777 -1.2163
  400MOL0     H55153   7.363   5.322   7.537  2.0350 -1.5554 -0.4555
  400MOL0     H55154   7.552   5.551   7.593 -1.4690 -0.3914  0.4465
  400MOL0     H55155   7.591   5.382   7.552  0.2616  0.5970 -1.6917
  400MOL0     H55156   7.604   5.497   7.347 -0.3547  1.0549 -0.4761
  400MOL0     H55157   7.439   5.437   7.349  1.7416 -2.0372  0.3203
  400MOL0     H55158   7.399   5.883   7.375 -0.9367 -1.9651  0.5066
  400MOL0     H55159   7.396   6.114   7.418  0.0755 -0.1061 -0.7497
  400MOL0     H55160   7.530   6.175   7.342 -2.3951 -2.6390 -1.7278
  400MOL0     H55161   7.524   6.180   7.522 -1.2553  1.0237  0.1770
  400MOL0     H55162   7.922   6.137   7.837  2.0344 -1.1011 -0.1029
  400MOL0     H55163   8.033   6.331   7.943 -0.8582 -2.4014  0.6995
  400MOL0     H55164   8.364   6.489   7.760 -0.4707 -0.7104  1.3694
  400MOL0     H55165   8.279   6.620   7.668  1.1042  1.5777  0.2239
  400MOL0     H55166   8.262   6.744   7.861 -2.2111 -2.1623 -1.2544
  400MOL0     H55167   8.333   6.628   7.963 -1.1811 -1.1483 -0.5860
  400MOL0     H55168   8.508   6.800   7.893  0.2469 -1.2234 -0.1504
  400MOL0     H55169   8.485   6.743   7.726  4.8692 -1.8306 -0.5053
  400MOL0     H55170   8.554   6.511   7.786 -2.5224  0.6325  0.8895
  400MOL0     H55171   8.571   6.560   7.957 -2.1890  0.4365  0.4926
  400MOL0     H55172   8.744   6.702   7.928 -1.2018 -0.1611 -0.8124
  400MOL0     H55173   8.793   6.546   7.860  0.9494  1.0087  1.9624
  400MOL0     H55174   8.707   6.809   7.718  0.1889  1.5207  1.5099
  400MOL0     H55175   8.734   6.652   7.631  0.1293  1.2107 -0.6158
  400MOL0     H55176   8.960   6.652   7.701 -0.2375 -0.1922  1.5073
  400MOL0     H55177   8.931   6.800   7.798  0.9192  1.7515 -1.2886
  400MOL0     H55178   8.892   6.921   7.583  1.0163  0.3997  3.0773
  400MOL0     H55179   8.901   6.777   7.488  3.1864  0.3317 -1.6805
  400MOL0     H55180   8.163   6.460   7.557 -1.9189  0.3446 -0.2042
  400MOL0     H55181   8.051   6.288   7.457  1.7371 -0.8613  0.2258
  400MOL0     H55182   7.868   5.831   7.541  0.3879  0.3661 -1.2771
  400MOL0     H55183   7.736   5.631   7.479 -0.4615  0.2344  2.6480
  400MOL0     H55184   8.290   5.970   7.663  0.6078  0.4599 -0.5140
  400MOL0     H55185   8.344   6.178   7.780  0.5762 -0.3586  0.1995
  400MOL0     H55186   8.538   6.199   8.245  0.5975 -0.0067 -1.2303
  400MOL0     H55187   8.646   6.346   8.405  0.9565  2.5602 -0.3654
  400MOL0     H55188   8.458   6.769   8.459  3.0464  2.1597  1.0902
  400MOL0     H55189   8.365   6.688   8.579  1.4916 -3.2553  1.9987
  400MOL0     H55190   8.546   6.697   8.750  0.4543  0.7286  1.4784
  400MOL0     H55191   8.494   6.857   8.721  2.7033  0.1498  3.0482
  400MOL0     H55192   8.753   6.709   8.597  1.3665  0.6502  0.0750
  400MOL0     H55193   8.714   6.870   8.565 -1.9533  0.3905 -0.0880
  400MOL0     H55194   8.783   6.772   8.835 -1.0430 -1.6579 -3.4826
  400MOL0     H55195   8.726   6.937   8.801 -0.8897 -0.4145  0.6999
  400MOL0     H55196   9.132   6.910   8.661  0.0800  2.0789 -0.5170
  400MOL0     H55197   8.313   6.616   8.368  0.7233  0.2632 -0.3527
  400MOL0     H55198   8.110   6.393   8.165 -1.4454  1.0681  0.3859
  400MOL0     H55199   8.111   6.529   8.285  1.3608 -1.1956  1.8515
  400MOL0     H55200   8.167   6.559   8.123 -2.4920  2.4711  1.7197
  401MOL0     O55201   9.630  10.904   1.110  0.1916  1.3767 -0.2127
  401MOL0     C55202   9.635  10.808   1.182  0.1177  0.6616  0.7132
  401MOL0     O55203   9.705  10.795   1.297 -0.0404  0.7957 -0.1774
  401MOL0     C55204   9.765  10.908   1.360 -0.6048 -0.1358 -0.0263
  401MOL0     C55205   9.858  10.978   1.281 -0.6727 -0.1995  0.0457
  401MOL0     C55206   9.907  11.107   1.326  0.3265 -0.0642  0.1684
  401MOL0     C55207   9.888  11.146   1.461 -0.3089 -0.1300  0.2782
  401MOL0     O55208   9.930  11.280   1.492 -0.0346  0.5485  0.3796
  401MOL0     C55209  10.065  11.315   1.453 -0.3131 -1.1213 -0.8939
  401MOL0     C55210  10.085  11.471   1.463  0.3343 -0.2871  0.9774
  401MOL0     C55211  10.210  11.500   1.393  0.4028  0.5072 -0.3153
  401MOL0     C55212  10.334  11.462   1.488 -0.7970 -0.3392  1.4489
  401MOL0     C55213  10.468  11.481   1.415  0.3272  0.3223 -1.2752
  401MOL0     C55214  10.588  11.496   1.517  0.1535 -0.0240 -0.5983
  401MOL0     C55215  10.721  11.519   1.447 -0.5990  0.0204 -0.7390
  401MOL0     C55216  10.726  11.607   1.321 -0.2632 -0.2375  0.2493
  401MOL0     N55217  10.869  11.630   1.291  0.6273 -0.8683  0.3612
  401MOL0     C55218  10.937  11.733   1.223  0.3220 -0.3211  0.1815
  401MOL0     C55219  11.069  11.694   1.205 -0.0585 -0.2342 -0.3783
  401MOL0     C55220  11.176  11.777   1.143  0.3174  0.6555  0.5284
  401MOL0     C55221  11.311  11.745   1.203 -0.7880 -0.0425 -0.0337
  401MOL0     C55222  11.406  11.861   1.187  0.1128 -0.1544  0.5623
  401MOL0     C55223  11.551  11.806   1.206 -0.3633  0.3068 -0.3753
  401MOL0     O55224  11.635  11.930   1.223 -0.2393  0.4407  0.7668
  401MOL0     C55225  11.769  11.906   1.224 -0.1676  0.5003  0.4552
  401MOL0     C55226  11.836  11.779   1.229 -0.2392  0.7401  0.6865
  401MOL0     C55227  11.972  11.762   1.231 -1.3074 -0.4483  0.4236
  401MOL0     C55228  12.039  11.627   1.234  0.8025  0.4454 -0.2211
  401MOL0     C55229  12.055  11.874   1.214  0.1239 -0.0297  0.1693
  401MOL0     C55230  12.202  11.877   1.203 -1.3224  0.4372 -0.2395
  401MOL0     O55231  12.280  11.793   1.280  0.3237 -0.1681 -0.0254
  401MOL0     C55232  12.414  11.802   1.274 -0.3269  1.1830  0.8129
  401MOL0     C55233  12.477  11.676   1.290 -0.2016  0.3166  0.1782
  401MOL0     C55234  12.616  11.672   1.292 -0.7391 -0.2018 -0.4046
  401MOL0     C55235  12.698  11.778   1.266 -0.6566  0.1584  1.1839
  401MOL0     O55236  12.835  11.759   1.264  0.2301  1.1159 -0.8432
  401MOL0     C55237  12.913  11.873   1.245  0.0219 -0.6188 -0.2822
  401MOL0     C55238  13.069  11.853   1.281  0.3862 -0.0258  0.6995
  401MOL0     C55239  13.153  11.761   1.190  0.3621  0.1320 -0.2932
  401MOL0     C55240  13.304  11.762   1.217 -0.6799 -0.1985 -0.2817
  401MOL0     C55241  13.387  11.684   1.107  0.1552  0.1360  0.2704
  401MOL0     C55242  13.542  11.692   1.117  0.3455  0.5132  0.6446
  401MOL0     C55243  13.613  11.623   0.998 -0.1122  0.8206 -0.6471
  401MOL0     C55244  13.764  11.635   0.999  0.5655 -0.1989  0.4846
  401MOL0    Cl55245  13.853  11.574   0.851  0.0135  0.3268 -0.3250
  401MOL0     C55246  12.631  11.902   1.250  0.0936  0.0285  0.1981
  401MOL0     C55247  12.489  11.919   1.254  0.2431 -0.0588  0.2104
  401MOL0     O55248  12.247  11.952   1.116 -0.0011 -0.2928 -0.9374
  401MOL0     C55249  11.990  12.003   1.209  0.5964 -0.7233  0.8044
  401MOL0     C55250  11.850  12.013   1.206 -0.3392 -0.1168 -1.3190
  401MOL0     N55251  11.081  11.567   1.255  0.2864  0.6837 -0.2423
  401MOL0     N55252  10.966  11.537   1.310  0.5568  0.0874  0.1207
  401MOL0     C55253   9.803  11.062   1.550 -0.2163  0.3513  0.5231
  401MOL0     C55254   9.734  10.947   1.494  0.2571  0.2596 -0.1363
  401MOL0     C55255   9.533  10.701   1.160  0.3517 -0.8070 -0.0499
  401MOL0     C55256   9.525  10.628   1.033  0.2247  0.1533 -0.4903
  401MOL0     C55257   9.413  10.537   1.015  0.0310 -0.5602  0.3748
  401MOL0     C55258   9.319  10.514   1.119  0.6379 -0.6751  0.1263
  401MOL0     O55259   9.212  10.426   1.112 -0.3127  0.1258 -0.5069
  401MOL0     C55260   9.082  10.454   1.168 -0.3108 -0.6289  0.5746
  401MOL0     C55261   8.971  10.383   1.097  0.2375 -0.0802  0.4442
  401MOL0     C55262   8.833  10.447   1.107 -0.6139 -0.1999  0.7544
  401MOL0     C55263   8.740  10.374   1.008  0.6897 -0.2547 -0.4027
  401MOL0     C55264   8.754  10.422   0.866  0.4222  0.1284  0.0864
  401MOL0     C55265   8.774  10.453   0.751 -0.9866  0.1976 -0.0219
  401MOL0     C55266   9.336  10.591   1.239 -0.1621  0.3948  0.4179
  401MOL0     C55267   9.433  10.685   1.260  0.4198  0.5690  0.0253
  401MOL0     C55268   9.422  10.766   1.385 -0.6542  0.2779 -0.1891
  401MOL0     H55269   9.873  10.933   1.184  2.0149 -2.4612  1.3798
  401MOL0     H55270   9.948  11.178   1.255 -2.6392  1.6208 -0.0365
  401MOL0     H55271  10.093  11.282   1.352  1.8002 -2.6153  0.1212
  401MOL0     H55272  10.139  11.274   1.522  1.3627 -0.0707 -1.9866
  401MOL0     H55273   9.999  11.515   1.412 -0.6986 -2.4504  0.7243
  401MOL0     H55274  10.086  11.510   1.565  1.3705  0.9843  0.5115
  401MOL0     H55275  10.217  11.438   1.303 -1.7043 -1.6189  0.8630
  401MOL0     H55276  10.220  11.606   1.371  1.1180  0.5272  0.0862
  401MOL0     H55277  10.337  11.524   1.578  0.8308  2.3568 -0.3132
  401MOL0     H55278  10.329  11.355   1.511  0.5077 -1.7749 -3.7149
  401MOL0     H55279  10.462  11.575   1.360 -0.5515  1.0803  0.0715
  401MOL0     H55280  10.488  11.397   1.348  0.4359 -0.7380  0.0422
  401MOL0     H55281  10.557  11.576   1.585 -1.0065  0.3549 -1.5326
  401MOL0     H55282  10.600  11.403   1.574  2.4762 -0.2013 -1.2969
  401MOL0     H55283  10.763  11.422   1.419  1.0331 -0.1484  1.9744
  401MOL0     H55284  10.779  11.574   1.522 -1.6088 -0.9471  0.8037
  401MOL0     H55285  10.669  11.565   1.238 -1.8213  2.2291 -0.0226
  401MOL0     H55286  10.671  11.699   1.340 -0.7817 -0.2424 -1.1414
  401MOL0     H55287  10.896  11.832   1.208 -3.4380 -1.7411 -0.0098
  401MOL0     H55288  11.149  11.881   1.163  1.8403  1.3279 -0.7752
  401MOL0     H55289  11.184  11.760   1.035  0.4941 -1.0003  0.7694
  401MOL0     H55290  11.316  11.715   1.308  2.1023 -1.1931 -0.4141
  401MOL0     H55291  11.342  11.656   1.147  0.2082  0.9316 -1.0870
  401MOL0     H55292  11.411  11.903   1.086  0.7037  1.4097  1.2115
  401MOL0     H55293  11.375  11.935   1.262  2.5515  0.6055  0.9155
  401MOL0     H55294  11.549  11.739   1.292 -1.8833  2.3645  1.3033
  401MOL0     H55295  11.589  11.760   1.114  0.9388  0.9856 -0.1969
  401MOL0     H55296  11.777  11.689   1.240 -1.3427  1.2602 -0.6583
  401MOL0     H55297  11.975  11.548   1.193  0.5526  1.0207 -0.9670
  401MOL0     H55298  12.074  11.588   1.330 -1.3644 -2.0311 -0.3222
  401MOL0     H55299  12.125  11.616   1.168 -0.8561  1.9693 -2.7873
  401MOL0     H55300  12.422  11.584   1.310  1.2759 -0.3346  1.5207
  401MOL0     H55301  12.664  11.577   1.313  0.0137 -0.3048 -2.3074
  401MOL0     H55302  12.914  11.912   1.142  0.3925  0.1566  0.0098
  401MOL0     H55303  12.882  11.938   1.327 -0.7091 -0.4983 -0.6457
  401MOL0     H55304  13.109  11.954   1.271 -0.6700  0.3411 -0.0019
  401MOL0     H55305  13.089  11.820   1.383 -0.2398  2.3025  1.6452
  401MOL0     H55306  13.143  11.797   1.087  3.7202 -0.4465 -0.9159
  401MOL0     H55307  13.113  11.660   1.202 -1.0285  0.3405 -2.5466
  401MOL0     H55308  13.322  11.727   1.319  0.1142  0.5008 -0.1669
  401MOL0     H55309  13.342  11.864   1.228  1.7141 -1.2672  5.1094
  401MOL0     H55310  13.356  11.579   1.116 -3.6797  1.2635  2.5679
  401MOL0     H55311  13.351  11.735   1.017 -1.0084 -0.5491  0.3191
  401MOL0     H55312  13.575  11.636   1.205 -0.6981 -1.9928 -0.4676
  401MOL0     H55313  13.571  11.797   1.116  1.2071  0.2872 -0.7207
  401MOL0     H55314  13.580  11.690   0.918  0.6588  0.3389 -1.3820
  401MOL0     H55315  13.572  11.526   0.968 -0.9222  0.9611 -0.0414
  401MOL0     H55316  13.803  11.577   1.084  3.1072 -2.2986 -1.9133
  401MOL0     H55317  13.790  11.739   1.019 -0.3061  0.0686  0.2674
  401MOL0     H55318  12.679  11.992   1.212  0.8196 -1.3296 -2.3766
  401MOL0     H55319  12.454  12.021   1.252  0.9531  0.1801 -0.2807
  401MOL0     H55320  12.044  12.093   1.183  0.1562 -0.2815  1.3804
  401MOL0     H55321  11.800  12.109   1.196 -1.4997 -0.6028 -0.4225
  401MOL0     H55322   9.784  11.089   1.653 -0.4460 -0.0497  0.5856
  401MOL0     H55323   9.674  10.888   1.562  0.9202  0.1497  0.3674
  401MOL0     H55324   9.596  10.642   0.952  0.0104 -1.4812 -0.9908
  401MOL0     H55325   9.401  10.475   0.927 -1.0383 -0.7065  0.6027
  401MOL0     H55326   9.079  10.425   1.274  0.4630 -0.7152  0.5769
  401MOL0     H55327   9.059  10.560   1.152 -1.5271 -1.0688 -0.7672
  401MOL0     H55328   8.974  10.278   1.127 -0.9045  0.3003  2.0469
  401MOL0     H55329   8.996  10.380   0.990  0.9551 -3.0127  0.6151
  401MOL0     H55330   8.796  10.434   1.209 -1.8417  0.2179  0.3819
  401MOL0     H55331   8.835  10.553   1.081 -0.1960 -0.1505  0.9870
  401MOL0     H55332   8.642  10.397   1.050  1.5190 -0.2791  1.6469
  401MOL0     H55333   8.741  10.265   0.995 -1.4021 -0.0687 -2.9808
  401MOL0     H55334   8.811  10.460   0.651 -1.2999 -2.2480 -0.3669
  401MOL0     H55335   9.263  10.567   1.316 -0.6705 -2.5643 -0.8578
  401MOL0     H55336   9.487  10.726   1.464 -0.2297 -0.2625 -0.7993
  401MOL0     H55337   9.449  10.871   1.371 -0.5971  0.5068  1.3926
  401MOL0     H55338   9.328  10.765   1.441 -0.0198 -1.7737  0.9564
  402MOL0     O55339   1.684   3.827   3.027  0.0044 -0.2247  0.2288
  402MOL0     C55340   1.687   3.940   2.980  0.1627  0.1537  0.2651
  402MOL0     O55341   1.793   4.029   2.978  0.4559  0.0708  0.6399
  402MOL0     C55342   1.917   3.971   2.975  0.4268  0.6817 -0.5754
  402MOL0     C55343   2.025   4.032   3.035 -0.0112  0.0812  0.4127
  402MOL0     C55344   2.152   3.986   3.039  0.0484 -0.9319  0.2617
  402MOL0     C55345   2.176   3.867   2.985 -1.1130  0.3551 -0.3718
  402MOL0     O55346   2.296   3.818   2.982  0.0909  0.4159  0.6361
  402MOL0     C55347   2.330   3.771   3.108  0.9083  0.1795 -0.0675
  402MOL0     C55348   2.449   3.674   3.085 -0.4529 -0.3015 -0.6776
  402MOL0     C55349   2.413   3.546   3.016 -1.4145  0.6131 -0.5504
  402MOL0     C55350   2.504   3.428   3.048  0.5109  0.0989  0.9869
  402MOL0     C55351   2.646   3.452   3.020 -1.0623  0.4265  0.8344
  402MOL0     C55352   2.736   3.325   3.033  0.0720  0.0604 -0.2643
  402MOL0     C55353   2.749   3.266   3.177 -0.1354 -0.2367  0.0738
  402MOL0     C55354   2.825   3.378   3.261 -0.1649  0.0333 -0.4064
  402MOL0     N55355   2.881   3.343   3.390 -0.5097 -0.8041  0.4597
  402MOL0     C55356   2.903   3.217   3.432  0.2137  0.5308 -0.3965
  402MOL0     C55357   2.986   3.233   3.540 -0.7882 -0.2470 -0.0473
  402MOL0     C55358   3.053   3.120   3.610  0.2081 -0.1229  0.6954
  402MOL0     C55359   3.193   3.153   3.657 -0.6286 -0.6782  0.1231
  402MOL0     C55360   3.301   3.042   3.636 -0.4420 -1.1099  0.2099
  402MOL0     C55361   3.439   3.097   3.669  0.0250  0.3220  0.1105
  402MOL0     O55362   3.541   2.995   3.640 -1.1460 -0.1007  0.0726
  402MOL0     C55363   3.671   3.015   3.681 -0.0238  0.1309 -0.2663
  402MOL0     C55364   3.759   2.905   3.677 -0.3738  0.3602  0.2553
  402MOL0     C55365   3.893   2.917   3.710 -0.3746  0.9687  0.6227
  402MOL0     C55366   3.977   2.786   3.721 -0.3232  0.4333  0.2772
  402MOL0     C55367   3.940   3.045   3.757 -0.0374  0.0390  0.9816
  402MOL0     C55368   4.087   3.066   3.794  0.0606 -0.0748 -1.4990
  402MOL0     O55369   4.114   3.179   3.863  0.0106 -0.3390 -0.1216
  402MOL0     C55370   4.249   3.212   3.864  0.4425  0.3346  0.6860
  402MOL0     C55371   4.330   3.193   3.974  0.0544  0.9501 -0.0923
  402MOL0     C55372   4.465   3.234   3.969  0.1607 -0.3984  0.5117
  402MOL0     C55373   4.513   3.316   3.869 -0.3334 -0.1612  0.5974
  402MOL0     O55374   4.641   3.365   3.888  0.1493 -0.6257  0.1750
  402MOL0     C55375   4.726   3.371   3.770  0.6687  0.1684  0.8962
  402MOL0     C55376   4.865   3.417   3.818 -0.1098 -0.1673 -0.4632
  402MOL0     C55377   4.881   3.563   3.863  0.6601 -1.1202 -0.3324
  402MOL0     C55378   5.016   3.584   3.935  0.0348 -0.1143  0.4988
  402MOL0     C55379   5.043   3.734   3.951  0.2968  0.2823  0.4474
  402MOL0     C55380   5.186   3.774   3.974 -0.5236 -0.1435 -0.2508
  402MOL0     C55381   5.199   3.919   4.012 -0.0415 -0.5468  0.4595
  402MOL0     C55382   5.342   3.966   4.024 -0.1550  0.5070  0.0340
  402MOL0    Cl55383   5.348   4.137   4.070  0.5202 -0.5776  0.0666
  402MOL0     C55384   4.433   3.336   3.754 -0.6779  0.3324 -1.2408
  402MOL0     C55385   4.300   3.277   3.758  0.7056  0.3438  0.2828
  402MOL0     O55386   4.172   2.985   3.758  0.1427  0.3889 -0.4362
  402MOL0     C55387   3.856   3.146   3.759  0.9251 -0.6106 -0.3193
  402MOL0     C55388   3.723   3.143   3.731  0.5021  0.2220  0.2774
  402MOL0     N55389   3.022   3.368   3.549  0.9202  1.1698  1.0353
  402MOL0     N55390   2.952   3.429   3.461  0.0118  0.0543  0.5013
  402MOL0     C55391   2.084   3.797   2.909 -0.4175 -0.4562 -0.2716
  402MOL0     C55392   1.952   3.853   2.911 -0.6171  0.4379 -0.1867
  402MOL0     C55393   1.550   3.991   2.922  0.3643 -0.5735  0.1834
  402MOL0     C55394   1.556   4.096   2.833 -0.7693  0.0947  0.4861
  402MOL0     C55395   1.446   4.144   2.767 -0.2812 -0.3831  0.4038
  402MOL0     C55396   1.323   4.086   2.785 -0.2621 -0.0720 -0.5618
  402MOL0     O55397   1.211   4.135   2.718 -0.6833  0.2492 -0.2972
  402MOL0     C55398   1.098   4.053   2.707  0.5183  0.0827  0.0900
  402MOL0     C55399   0.984   4.116   2.610 -0.4992 -0.4789  1.1713
  402MOL0     C55400   1.038   4.142   2.460  0.1018  0.9666  0.1867
  402MOL0     C55401   1.058   4.007   2.377 -0.3221 -0.0720 -0.0531
  402MOL0     C55402   0.931   3.951   2.334 -1.1679  0.1765 -0.3364
  402MOL0     C55403   0.829   3.897   2.301  0.4214 -0.2319 -0.3114
  402MOL0     C55404   1.317   3.981   2.878  0.0590  0.2956 -0.0065
  402MOL0     C55405   1.425   3.934   2.950  0.0388  0.4479  0.1981
  402MOL0     C55406   1.394   3.822   3.052  0.6184  0.1859  0.7205
  402MOL0     H55407   2.015   4.123   3.093 -0.7491  0.5215 -0.3804
  402MOL0     H55408   2.236   4.038   3.084  1.2621 -1.2693 -1.4814
  402MOL0     H55409   2.252   3.716   3.160 -0.5781  0.2302 -2.1374
  402MOL0     H55410   2.367   3.851   3.174 -0.4980  0.6573  0.1822
  402MOL0     H55411   2.517   3.733   3.023 -2.4482  2.9304 -0.0476
  402MOL0     H55412   2.488   3.662   3.187 -3.8232 -0.0252  0.7769
  402MOL0     H55413   2.319   3.507   3.056 -2.1660  1.3167 -1.5795
  402MOL0     H55414   2.403   3.569   2.910  1.4912 -4.2809 -2.2266
  402MOL0     H55415   2.500   3.412   3.156  1.6882  0.6805  1.1329
  402MOL0     H55416   2.466   3.339   2.997 -0.1362  1.0708 -0.2736
  402MOL0     H55417   2.691   3.542   3.064  2.7182  0.7468 -2.9673
  402MOL0     H55418   2.651   3.462   2.911  0.9003 -4.1410  0.2908
  402MOL0     H55419   2.693   3.252   2.965 -0.2453  2.4040 -2.7283
  402MOL0     H55420   2.830   3.344   2.980  2.0655  1.8452  3.5103
  402MOL0     H55421   2.811   3.176   3.177  0.7256  0.3317  1.3733
  402MOL0     H55422   2.647   3.238   3.207  0.2445  1.6783  3.7575
  402MOL0     H55423   2.910   3.418   3.205 -0.7921  0.2702 -1.2185
  402MOL0     H55424   2.762   3.466   3.275  0.1322  0.2068 -0.1634
  402MOL0     H55425   2.879   3.125   3.381  2.1642  0.0693 -0.5452
  402MOL0     H55426   3.053   3.022   3.561  1.0607  0.0739  0.2808
  402MOL0     H55427   2.987   3.106   3.697  0.5336 -5.5744  0.4253
  402MOL0     H55428   3.236   3.245   3.615 -0.7080 -1.2376 -1.2424
  402MOL0     H55429   3.190   3.165   3.765  2.3689 -0.7127  0.2871
  402MOL0     H55430   3.284   2.959   3.706 -0.4095  1.4986  3.6022
  402MOL0     H55431   3.307   3.009   3.532  1.3804 -2.2848  0.6343
  402MOL0     H55432   3.457   3.189   3.613 -0.0683  1.4887  1.9159
  402MOL0     H55433   3.440   3.117   3.777  2.2727  2.2156 -0.1780
  402MOL0     H55434   3.723   2.811   3.634 -0.2912  0.8084 -0.8426
  402MOL0     H55435   4.026   2.777   3.819  1.0175  1.3019 -0.2783
  402MOL0     H55436   4.052   2.788   3.642 -1.0008 -0.5065 -0.4009
  402MOL0     H55437   3.907   2.703   3.711  0.9062 -0.5671 -0.1245
  402MOL0     H55438   4.290   3.163   4.070 -3.6517  2.0656 -1.1346
  402MOL0     H55439   4.531   3.221   4.054 -0.3956  0.0036  1.0115
  402MOL0     H55440   4.733   3.275   3.718 -1.9580  0.1601  0.3840
  402MOL0     H55441   4.670   3.433   3.699 -2.4454 -0.6886  2.4184
  402MOL0     H55442   4.889   3.352   3.903 -2.1589  0.4561  0.6681
  402MOL0     H55443   4.941   3.393   3.743  2.5707  0.6881  1.8062
  402MOL0     H55444   4.803   3.583   3.937  0.0665  3.1042 -1.8264
  402MOL0     H55445   4.874   3.641   3.787  1.4245  0.8136  1.4735
  402MOL0     H55446   5.099   3.539   3.880  0.3286  1.3903 -0.3492
  402MOL0     H55447   5.010   3.547   4.037  1.3817  2.3618  1.5750
  402MOL0     H55448   5.014   3.793   3.864  1.7193 -0.7235 -0.7664
  402MOL0     H55449   4.980   3.765   4.035 -2.5025 -4.1528  0.3317
  402MOL0     H55450   5.245   3.757   3.884  1.3909 -0.8865  1.0797
  402MOL0     H55451   5.227   3.712   4.055  0.8012 -0.9217 -1.4583
  402MOL0     H55452   5.139   3.928   4.104  0.6472  0.0487  0.8673
  402MOL0     H55453   5.143   3.977   3.938  2.0932 -1.0776 -1.6905
  402MOL0     H55454   5.385   3.979   3.925 -3.4527  0.5590 -1.5316
  402MOL0     H55455   5.402   3.905   4.092 -0.8039 -1.4021 -1.0261
  402MOL0     H55456   4.447   3.402   3.668 -1.1469  0.8958 -0.8957
  402MOL0     H55457   4.234   3.311   3.679 -0.9339 -0.0064  1.4529
  402MOL0     H55458   3.890   3.231   3.818 -1.8252 -1.1744  2.3537
  402MOL0     H55459   3.666   3.235   3.735  1.7218  0.9949  0.3867
  402MOL0     H55460   2.116   3.706   2.858  1.5236  0.0047  0.0380
  402MOL0     H55461   1.878   3.805   2.847 -2.0747  1.8950  0.3258
  402MOL0     H55462   1.656   4.132   2.810 -0.3061 -1.1985  0.3646
  402MOL0     H55463   1.449   4.233   2.704 -1.8265 -0.1643  0.6149
  402MOL0     H55464   1.127   3.953   2.673  0.1173  0.8091 -2.6456
  402MOL0     H55465   1.054   4.046   2.807 -1.3427 -0.8854 -0.7390
  402MOL0     H55466   0.965   4.211   2.660  1.0333  0.3713  0.2407
  402MOL0     H55467   0.892   4.057   2.609 -2.3342  2.1951  2.5498
  402MOL0     H55468   0.967   4.199   2.398 -0.9721 -2.0006 -1.5242
  402MOL0     H55469   1.127   4.204   2.467  0.3317  0.7544 -0.7196
  402MOL0     H55470   1.115   3.928   2.428 -1.6915 -2.9954 -2.6877
  402MOL0     H55471   1.121   4.042   2.294  2.1873  1.2501  2.2466
  402MOL0     H55472   0.735   3.849   2.283  1.1502 -2.6991  1.9324
  402MOL0     H55473   1.221   3.932   2.888 -0.6908  1.7637  0.2237
  402MOL0     H55474   1.291   3.794   3.075  1.7731 -3.1812  2.5829
  402MOL0     H55475   1.446   3.729   3.024  1.5711 -0.7825  5.0206
  402MOL0     H55476   1.434   3.845   3.151  0.3646 -0.3406  0.9475
  403MOL0     O55477   8.935   4.582  10.786 -0.0678 -0.2262  0.3931
  403MOL0     C55478   8.825   4.615  10.754 -0.5125  1.1177  0.1862
  403MOL0     O55479   8.801   4.712  10.660  0.1044  0.4000  0.6189
  403MOL0     C55480   8.873   4.744  10.551 -0.7063  0.8867 -0.2787
  403MOL0     C55481   8.860   4.866  10.486  0.2080  0.1955  0.3551
  403MOL0     C55482   8.942   4.900  10.381 -0.5293  0.5442  0.4626
  403MOL0     C55483   9.018   4.807  10.320  1.2732 -0.1463  0.0305
  403MOL0     O55484   9.089   4.829  10.208  0.5564 -0.0274  0.4755
  403MOL0     C55485   9.201   4.924  10.225  0.0295  0.0403  0.6170
  403MOL0     C55486   9.325   4.842  10.276 -0.6482 -0.0687 -0.1912
  403MOL0     C55487   9.455   4.922  10.314  0.4374  0.0393  0.5547
  403MOL0     C55488   9.571   4.829  10.352 -0.5736  0.1755  0.1224
  403MOL0     C55489   9.683   4.911  10.416 -0.8852  0.5474  0.5093
  403MOL0     C55490   9.801   4.827  10.479 -0.0521 -1.2018  0.4918
  403MOL0     C55491   9.908   4.908  10.566 -0.4768 -0.4319 -0.7863
  403MOL0     C55492  10.032   4.934  10.477 -0.0304 -0.0114 -0.3276
  403MOL0     N55493  10.135   4.831  10.478 -0.2298 -0.6444  0.0391
  403MOL0     C55494  10.204   4.789  10.374 -0.2282  0.0258 -0.6908
  403MOL0     C55495  10.291   4.692  10.421  0.5645 -0.1207 -0.0420
  403MOL0     C55496  10.377   4.606  10.330 -0.4423 -0.7987 -0.9211
  403MOL0     C55497  10.519   4.674  10.308 -0.7441 -0.0822  0.5693
  403MOL0     C55498  10.608   4.600  10.227  0.7710  0.1618  0.6224
  403MOL0     C55499  10.751   4.630  10.265  0.1351  0.2037 -0.3326
  403MOL0     O55500  10.764   4.775  10.259  0.3675 -0.1043 -0.2361
  403MOL0     C55501  10.886   4.836  10.229  0.5546 -0.0219 -0.8345
  403MOL0     C55502  10.870   4.973  10.200 -0.5741 -0.9572 -0.5524
  403MOL0     C55503  10.981   5.048  10.168  0.0713 -0.3950  0.2030
  403MOL0     C55504  10.946   5.191  10.129 -0.2790  0.1800  0.5052
  403MOL0     C55505  11.110   4.984  10.148  0.0775  1.2001  0.1623
  403MOL0     C55506  11.221   5.051  10.090 -0.6431  0.2094  0.7462
  403MOL0     O55507  11.230   5.190  10.116 -0.3898 -1.2649 -0.5048
  403MOL0     C55508  11.354   5.249  10.094  0.2667  0.4741 -0.1321
  403MOL0     C55509  11.400   5.269   9.957  0.5156  0.4688  0.2013
  403MOL0     C55510  11.529   5.316   9.929 -0.7426  0.4409  0.7454
  403MOL0     C55511  11.609   5.344  10.036 -1.0378  0.0344  0.2541
  403MOL0     O55512  11.740   5.391  10.027 -0.0719 -0.8903 -0.4598
  403MOL0     C55513  11.793   5.417   9.898 -0.6054  1.0637  0.5733
  403MOL0     C55514  11.927   5.489   9.916  0.6801  1.7463 -0.4419
  403MOL0     C55515  11.988   5.519   9.779 -0.3625 -0.1656  0.1809
  403MOL0     C55516  12.140   5.500   9.774 -0.1918 -0.1097  0.5489
  403MOL0     C55517  12.215   5.587   9.872 -0.4825  0.3257 -0.3760
  403MOL0     C55518  12.188   5.737   9.867 -0.3972  0.2907 -0.2778
  403MOL0     C55519  12.280   5.822   9.940  0.3733  0.0108  0.8196
  403MOL0     C55520  12.310   5.786  10.083 -0.0359  0.2222  0.4355
  403MOL0    Cl55521  12.168   5.834  10.176 -0.2181  0.1520  0.0129
  403MOL0     C55522  11.574   5.311  10.168 -0.0559  0.3368  0.0067
  403MOL0     C55523  11.445   5.278  10.195  0.3900  0.6089 -0.5395
  403MOL0     O55524  11.299   4.980  10.021 -0.3878 -0.7204 -0.4918
  403MOL0     C55525  11.129   4.845  10.178  0.0186 -0.1024 -0.0717
  403MOL0     C55526  11.015   4.778  10.226  0.9025  0.7418 -0.0638
  403MOL0     N55527  10.274   4.684  10.556  0.0902 -0.1273 -0.1871
  403MOL0     N55528  10.187   4.773  10.588 -0.3124 -1.0444  0.6676
  403MOL0     C55529   9.034   4.685  10.381 -0.0374 -0.2082 -0.5331
  403MOL0     C55530   8.959   4.650  10.486  0.9496  0.1237 -0.1387
  403MOL0     C55531   8.713   4.570  10.836  0.7611 -0.7044 -0.6109
  403MOL0     C55532   8.737   4.485  10.949 -0.0043 -0.8882  0.5101
  403MOL0     C55533   8.639   4.400  10.992 -0.0863 -0.5960 -1.1333
  403MOL0     C55534   8.515   4.406  10.942  0.3776  0.1056  0.3511
  403MOL0     O55535   8.425   4.313  10.982 -0.0593 -0.1999 -0.8632
  403MOL0     C55536   8.350   4.357  11.098 -0.5010  0.8806  0.6537
  403MOL0     C55537   8.409   4.319  11.235  0.0636  0.5399 -0.1981
  403MOL0     C55538   8.406   4.422  11.351  0.2410 -0.6638 -0.3452
  403MOL0     C55539   8.393   4.364  11.498  0.2612 -0.0627 -0.4193
  403MOL0     C55540   8.504   4.275  11.533 -0.1618  1.1230  0.5509
  403MOL0     C55541   8.601   4.212  11.558  0.9298  0.4648 -0.4944
  403MOL0     C55542   8.480   4.495  10.847 -0.2268 -0.9063  0.2242
  403MOL0     C55543   8.582   4.575  10.793 -0.4624 -0.7725  0.5423
  403MOL0     C55544   8.538   4.659  10.674 -0.5631  0.9892  0.2893
  403MOL0     H55545   8.799   4.945  10.527 -2.2842 -2.1676  1.5265
  403MOL0     H55546   8.954   4.997  10.334  0.9364  0.7655  1.2236
  403MOL0     H55547   9.179   5.004  10.297  0.5535  1.9263 -1.2393
  403MOL0     H55548   9.233   4.956  10.126 -2.4730 -0.3642 -0.3894
  403MOL0     H55549   9.296   4.784  10.364  1.3922  1.9710  1.9762
  403MOL0     H55550   9.357   4.777  10.194  5.7588  1.6756  0.3593
  403MOL0     H55551   9.486   4.977  10.226 -1.6285 -0.0842 -0.2986
  403MOL0     H55552   9.439   4.995  10.394  1.2430  2.2744 -1.2449
  403MOL0     H55553   9.537   4.740  10.406 -2.0468  0.4185 -0.3656
  403MOL0     H55554   9.616   4.787  10.262 -1.4743  0.6943 -0.5837
  403MOL0     H55555   9.643   4.975  10.495  0.5834  3.2185 -0.7661
  403MOL0     H55556   9.727   4.982  10.345  0.8213  1.0157  1.9632
  403MOL0     H55557   9.741   4.768  10.550 -1.2861  1.5294  1.8898
  403MOL0     H55558   9.857   4.770  10.404 -0.6274  0.4566 -1.2666
  403MOL0     H55559   9.936   4.852  10.655 -4.3263  0.6653  1.3540
  403MOL0     H55560   9.858   5.004  10.585  1.8137  1.2624 -2.6812
  403MOL0     H55561   9.997   4.954  10.376 -0.7616  0.5829  0.0308
  403MOL0     H55562  10.075   5.026  10.518 -0.4591 -0.2619  0.7398
  403MOL0     H55563  10.193   4.829  10.274  0.1580  2.7439  0.2569
  403MOL0     H55564  10.329   4.602  10.232 -0.5171  0.9093 -0.9960
  403MOL0     H55565  10.382   4.514  10.388 -1.1684 -0.3887 -0.1816
  403MOL0     H55566  10.511   4.777  10.270 -0.0352  0.9853  3.1145
  403MOL0     H55567  10.567   4.691  10.405  3.2231  0.6929 -1.3084
  403MOL0     H55568  10.587   4.493  10.240  0.5469  0.3635  2.0394
  403MOL0     H55569  10.579   4.629  10.126 -2.8122 -1.5907  1.0157
  403MOL0     H55570  10.783   4.596  10.364  0.5948 -1.8906 -1.1369
  403MOL0     H55571  10.821   4.584  10.194 -1.4707  0.0643 -1.8906
  403MOL0     H55572  10.773   5.021  10.211 -1.0272 -1.6775 -1.3325
  403MOL0     H55573  10.841   5.215  10.143 -0.1089  2.8598 -1.9247
  403MOL0     H55574  10.983   5.205  10.027  2.4425 -1.8864  1.0900
  403MOL0     H55575  11.007   5.260  10.188 -1.4350 -1.7179  4.2293
  403MOL0     H55576  11.323   5.253   9.882  0.2560  0.1096  0.5413
  403MOL0     H55577  11.568   5.322   9.828  1.1736 -2.9303  1.1428
  403MOL0     H55578  11.811   5.319   9.852 -5.4913  0.2599 -0.0980
  403MOL0     H55579  11.727   5.470   9.828  1.5401  0.6024 -1.9849
  403MOL0     H55580  11.899   5.574   9.979 -2.1909 -0.2417  1.2136
  403MOL0     H55581  11.993   5.424   9.975 -0.5166  0.1005 -0.8395
  403MOL0     H55582  11.954   5.616   9.744 -0.3876 -0.7473 -1.4729
  403MOL0     H55583  11.937   5.462   9.701 -0.6286 -0.8666  0.8474
  403MOL0     H55584  12.170   5.530   9.673  0.3071 -0.9299  0.4450
  403MOL0     H55585  12.166   5.394   9.780  0.1133 -0.1242 -0.6744
  403MOL0     H55586  12.184   5.545   9.969  2.5234 -2.7720 -0.5896
  403MOL0     H55587  12.322   5.582   9.854 -0.1782  3.0190  0.2986
  403MOL0     H55588  12.094   5.752   9.922 -0.5252 -2.1688  0.2883
  403MOL0     H55589  12.185   5.769   9.763 -2.0107 -2.6132 -1.2242
  403MOL0     H55590  12.230   5.919   9.949  2.1008  0.9006  1.2994
  403MOL0     H55591  12.372   5.835   9.883 -2.5809 -1.0683 -4.9083
  403MOL0     H55592  12.401   5.832  10.122 -0.1534 -0.4130  1.4925
  403MOL0     H55593  12.327   5.679  10.096 -2.6558 -0.0292  2.9844
  403MOL0     H55594  11.644   5.320  10.250  1.6489 -1.4402 -1.1401
  403MOL0     H55595  11.415   5.243  10.293 -2.4457  1.1049 -1.1649
  403MOL0     H55596  11.227   4.800  10.170 -0.4104 -0.9251 -0.8353
  403MOL0     H55597  11.034   4.677  10.261  0.3498  0.1589 -1.4029
  403MOL0     H55598   9.106   4.611  10.347  0.2665 -0.6083  0.9390
  403MOL0     H55599   8.977   4.550  10.525 -2.9921 -0.3963  0.7840
  403MOL0     H55600   8.841   4.472  10.977 -0.0309 -0.7500  0.6743
  403MOL0     H55601   8.658   4.312  11.053 -0.4624  0.4957  0.5973
  403MOL0     H55602   8.351   4.466  11.089 -1.3559  0.8431 -0.1177
  403MOL0     H55603   8.243   4.334  11.094 -0.6447  1.5721  0.2830
  403MOL0     H55604   8.516   4.304  11.221  0.9398  4.0783  1.4855
  403MOL0     H55605   8.370   4.227  11.280  0.7645  0.6324  0.6368
  403MOL0     H55606   8.497   4.483  11.362 -0.5246  0.1376  2.2686
  403MOL0     H55607   8.329   4.493  11.320 -0.8149 -1.2497  0.8444
  403MOL0     H55608   8.299   4.310  11.509 -0.2289  0.5355 -1.4702
  403MOL0     H55609   8.396   4.447  11.569 -0.4768 -0.7529  0.4431
  403MOL0     H55610   8.679   4.144  11.583 -0.4494 -0.4266  1.6738
  403MOL0     H55611   8.374   4.499  10.823 -0.4510  1.0871  1.3090
  403MOL0     H55612   8.576   4.762  10.677  1.8132  0.1993 -0.4576
  403MOL0     H55613   8.588   4.613  10.589  0.0357 -0.2055  1.2579
  403MOL0     H55614   8.429   4.662  10.665 -0.6401 -1.1221  0.0616
  404MOL0     O55615   3.879   2.167   2.545 -0.0800 -0.9800  0.1712
  404MOL0     C55616   3.805   2.073   2.571  0.1830  0.5064  0.0228
  404MOL0     O55617   3.851   1.947   2.588  0.5735 -0.3447 -0.3098
  404MOL0     C55618   3.973   1.907   2.567  0.2881  0.3478  0.5390
  404MOL0     C55619   4.056   1.942   2.460  0.0439 -0.0510  0.2330
  404MOL0     C55620   4.182   1.885   2.441 -0.4256 -0.0807 -0.3721
  404MOL0     C55621   4.228   1.788   2.534 -0.0480 -0.0682  0.1141
  404MOL0     O55622   4.338   1.705   2.533 -0.7507 -0.3996  0.1664
  404MOL0     C55623   4.442   1.742   2.437 -0.1243  0.8157  0.0096
  404MOL0     C55624   4.538   1.625   2.420 -0.2980  0.6548 -1.1811
  404MOL0     C55625   4.677   1.657   2.459 -0.2436  0.5224  0.0682
  404MOL0     C55626   4.747   1.726   2.347  0.4382  0.6178 -0.1954
  404MOL0     C55627   4.900   1.747   2.392  0.2551 -0.7290  0.0021
  404MOL0     C55628   4.979   1.800   2.279  0.4406  0.3409 -0.1424
  404MOL0     C55629   5.121   1.836   2.315 -0.2017 -0.6625 -0.7299
  404MOL0     C55630   5.212   1.805   2.197 -0.3797  0.1436 -0.2645
  404MOL0     N55631   5.334   1.879   2.208  0.1623 -0.4124  0.4124
  404MOL0     C55632   5.354   2.005   2.261  0.5885 -0.7547  1.2919
  404MOL0     C55633   5.481   2.017   2.275  0.2801 -0.2015 -0.0361
  404MOL0     C55634   5.547   2.134   2.335  0.7516 -0.5445  0.7749
  404MOL0     C55635   5.612   2.076   2.467 -0.3881  0.2304  0.3221
  404MOL0     C55636   5.673   2.178   2.565  0.2266 -0.5220  0.1252
  404MOL0     C55637   5.726   2.110   2.694 -0.0330 -0.8761  0.3280
  404MOL0     O55638   5.828   2.017   2.672  0.1223 -0.0343 -0.6416
  404MOL0     C55639   5.927   2.014   2.775  0.3364  0.5129 -0.2369
  404MOL0     C55640   5.926   2.090   2.898  0.8738  0.0620  1.1652
  404MOL0     C55641   6.033   2.076   2.985  0.0664 -0.9582 -0.3617
  404MOL0     C55642   6.026   2.171   3.108 -0.2574 -0.1452  0.1161
  404MOL0     C55643   6.153   2.002   2.956 -0.6208  0.3292  0.2281
  404MOL0     C55644   6.253   1.985   3.056 -0.1365 -0.2281 -1.7923
  404MOL0     O55645   6.286   1.859   3.084 -0.3513 -0.5317  0.3399
  404MOL0     C55646   6.423   1.841   3.107 -0.8126 -0.8899 -0.3326
  404MOL0     C55647   6.469   1.865   3.237  0.3844 -1.0288 -0.3778
  404MOL0     C55648   6.606   1.853   3.264  0.4234  0.1788 -0.8484
  404MOL0     C55649   6.698   1.823   3.158 -0.0753  0.9054 -0.9773
  404MOL0     O55650   6.829   1.816   3.203  0.0289  0.2183  0.0771
  404MOL0     C55651   6.934   1.818   3.100 -0.2501 -0.0734  0.6229
  404MOL0     C55652   7.066   1.837   3.165 -0.1469  0.0803  0.5526
  404MOL0     C55653   7.094   1.755   3.293  0.1035 -0.7728 -0.7315
  404MOL0     C55654   7.136   1.834   3.411 -0.0542 -0.0593 -0.7966
  404MOL0     C55655   7.278   1.901   3.405 -0.1031 -0.8626  0.3465
  404MOL0     C55656   7.284   2.034   3.490  0.9312 -0.5347  1.0488
  404MOL0     C55657   7.414   2.113   3.472 -0.8896  0.0338 -0.3401
  404MOL0     C55658   7.398   2.254   3.516  0.3177 -0.2060  0.1681
  404MOL0    Cl55659   7.524   2.359   3.454 -0.0895 -0.1112  0.2822
  404MOL0     C55660   6.647   1.784   3.037 -1.4585  0.4345  0.3006
  404MOL0     C55661   6.510   1.794   3.011  0.0754 -0.7601  0.8040
  404MOL0     O55662   6.304   2.082   3.115 -0.2371 -0.2509 -0.9168
  404MOL0     C55663   6.150   1.923   2.835  0.4568  0.1710 -0.7962
  404MOL0     C55664   6.032   1.927   2.755  0.9725  0.1457  0.2241
  404MOL0     N55665   5.548   1.907   2.226  0.2927 -0.3610 -0.1324
  404MOL0     N55666   5.456   1.825   2.193 -1.5024  0.9416 -0.4060
  404MOL0     C55667   4.145   1.762   2.637  0.7102  0.6760 -0.7652
  404MOL0     C55668   4.022   1.816   2.658  0.5373 -0.4996 -0.5858
  404MOL0     C55669   3.656   2.091   2.591 -0.6880 -0.8586  0.2512
  404MOL0     C55670   3.563   1.979   2.616 -0.5959 -0.7209  0.8382
  404MOL0     C55671   3.425   2.002   2.625 -0.1896  0.0380 -0.0403
  404MOL0     C55672   3.371   2.127   2.611 -0.3365  0.0798  0.4500
  404MOL0     O55673   3.239   2.152   2.617 -0.8309  0.2512  0.5250
  404MOL0     C55674   3.150   2.053   2.667  0.9209 -0.3212 -0.3692
  404MOL0     C55675   3.173   2.039   2.830  0.2151  1.0258  0.2757
  404MOL0     C55676   3.074   1.935   2.875  0.1928 -0.4954  0.0839
  404MOL0     C55677   3.095   1.894   3.020  0.0652 -0.3715  0.8939
  404MOL0     C55678   2.967   1.852   3.080 -0.0672 -0.2320 -0.1082
  404MOL0     C55679   2.855   1.820   3.115 -0.0403  0.3790  0.0347
  404MOL0     C55680   3.457   2.231   2.600 -0.1830  0.2057 -0.6415
  404MOL0     C55681   3.599   2.214   2.595  0.5022  0.0783 -0.5216
  404MOL0     C55682   3.673   2.348   2.571  0.2729  0.0125 -0.7909
  404MOL0     H55683   4.010   2.012   2.392  2.9670  1.9937  0.1330
  404MOL0     H55684   4.246   1.900   2.355 -1.2980  2.4266 -0.6852
  404MOL0     H55685   4.501   1.831   2.459  0.8384 -0.2502  2.0511
  404MOL0     H55686   4.398   1.763   2.339  1.0248 -0.6507 -0.8592
  404MOL0     H55687   4.505   1.539   2.480  1.1765 -0.9715 -2.5727
  404MOL0     H55688   4.533   1.600   2.314  4.6207  2.1080 -1.9829
  404MOL0     H55689   4.669   1.728   2.543  0.2776  1.5653 -0.7381
  404MOL0     H55690   4.739   1.571   2.486  0.7471  1.4984  1.0435
  404MOL0     H55691   4.748   1.672   2.252  1.0948 -0.5015  0.4280
  404MOL0     H55692   4.691   1.818   2.327 -0.2377 -0.1727 -2.3130
  404MOL0     H55693   4.936   1.655   2.440  1.0076 -1.6026 -2.1065
  404MOL0     H55694   4.889   1.821   2.472 -1.6431 -1.6382  0.6421
  404MOL0     H55695   4.978   1.725   2.198 -3.8819  1.9391 -1.8310
  404MOL0     H55696   4.926   1.886   2.239  2.5910  0.5725 -2.8026
  404MOL0     H55697   5.147   1.787   2.409 -0.0554  1.1576  0.2415
  404MOL0     H55698   5.121   1.944   2.333  3.7941 -0.0904 -3.1060
  404MOL0     H55699   5.230   1.698   2.188 -3.2947 -0.6726  2.0836
  404MOL0     H55700   5.165   1.843   2.105  1.5697  0.7924 -1.0517
  404MOL0     H55701   5.287   2.086   2.289  4.1132  2.9971  0.0308
  404MOL0     H55702   5.474   2.215   2.343  0.0284 -1.1214  0.2097
  404MOL0     H55703   5.624   2.177   2.269  3.9822 -1.3587  3.7501
  404MOL0     H55704   5.527   2.018   2.504  1.5980 -1.3821  2.6309
  404MOL0     H55705   5.681   1.995   2.442 -1.0176 -0.1209 -0.3502
  404MOL0     H55706   5.740   2.245   2.511  0.4953 -0.1418  0.9091
  404MOL0     H55707   5.581   2.234   2.587 -0.7572 -1.7281 -0.7376
  404MOL0     H55708   5.758   2.193   2.757 -2.2707  0.3505 -0.0316
  404MOL0     H55709   5.648   2.052   2.744  1.0499 -2.1212  0.6396
  404MOL0     H55710   5.840   2.146   2.936 -0.4306  0.0671 -1.5555
  404MOL0     H55711   6.053   2.108   3.193  1.3254 -4.1278 -3.0448
  404MOL0     H55712   5.929   2.212   3.140  0.2622  1.9702 -0.8587
  404MOL0     H55713   6.104   2.246   3.096  1.1464 -0.9392  3.1384
  404MOL0     H55714   6.393   1.891   3.310  1.3628 -3.1878  1.5535
  404MOL0     H55715   6.635   1.866   3.368 -2.5854 -0.2998  0.1387
  404MOL0     H55716   6.925   1.722   3.048  0.8356  0.1381  0.0176
  404MOL0     H55717   6.912   1.904   3.037  0.5592 -0.3999 -0.1228
  404MOL0     H55718   7.141   1.812   3.089 -0.6790  1.8384 -0.6208
  404MOL0     H55719   7.064   1.944   3.190  0.0571  0.0776  0.5831
  404MOL0     H55720   7.180   1.690   3.276  2.9459  1.2673  3.7691
  404MOL0     H55721   7.006   1.703   3.331 -1.2431  1.1032 -1.1154
  404MOL0     H55722   7.155   1.764   3.493  2.6017 -1.4343 -2.4561
  404MOL0     H55723   7.065   1.913   3.438  0.7260  1.8376 -3.9190
  404MOL0     H55724   7.358   1.832   3.431  0.2413 -0.8459 -0.6330
  404MOL0     H55725   7.285   1.935   3.301 -0.1024  1.9994  1.1752
  404MOL0     H55726   7.281   1.997   3.593  2.0550 -1.9732  0.6147
  404MOL0     H55727   7.201   2.103   3.474  2.4331  1.4863  1.6093
  404MOL0     H55728   7.453   2.099   3.371 -1.2194 -2.5291 -0.1853
  404MOL0     H55729   7.489   2.072   3.541  0.2758  0.2676 -1.4527
  404MOL0     H55730   7.389   2.264   3.625  0.9171  1.0327  0.1113
  404MOL0     H55731   7.305   2.290   3.472 -0.8833  0.6675  3.1400
  404MOL0     H55732   6.704   1.755   2.949 -3.2376 -0.0259 -0.7505
  404MOL0     H55733   6.468   1.775   2.913  0.8969  1.1532  0.0308
  404MOL0     H55734   6.231   1.859   2.803 -0.8101 -0.3716 -3.1482
  404MOL0     H55735   6.031   1.861   2.669  2.4719 -0.6691  0.7954
  404MOL0     H55736   4.168   1.675   2.698 -2.7553 -0.2337 -0.5880
  404MOL0     H55737   3.961   1.780   2.740 -0.1700  1.3104 -0.2515
  404MOL0     H55738   3.597   1.876   2.624 -0.5195 -0.6721  1.1649
  404MOL0     H55739   3.360   1.917   2.643  0.5167 -0.1587  1.7691
  404MOL0     H55740   3.051   2.091   2.643  1.0765  2.9239  3.1750
  404MOL0     H55741   3.161   1.949   2.634 -1.8478 -1.8958  3.0731
  404MOL0     H55742   3.161   2.129   2.892  0.3763  0.2265  1.4885
  404MOL0     H55743   3.272   1.997   2.846  0.3731  1.2076 -0.2131
  404MOL0     H55744   2.980   1.992   2.873 -0.0172 -0.7655  1.3370
  404MOL0     H55745   3.076   1.847   2.810  1.4804  0.1228 -0.7532
  404MOL0     H55746   3.151   1.973   3.071 -0.2563 -0.4039  1.3010
  404MOL0     H55747   3.163   1.808   3.022 -0.2986 -0.6511  1.3592
  404MOL0     H55748   2.754   1.794   3.141 -0.3100  0.1998 -1.1343
  404MOL0     H55749   3.406   2.326   2.607 -1.6550 -0.6395  1.0901
  404MOL0     H55750   3.610   2.436   2.588 -1.9970 -1.1408 -2.6691
  404MOL0     H55751   3.762   2.370   2.630  0.0753  0.4420 -0.6537
  404MOL0     H55752   3.697   2.340   2.464  0.3994  4.1176 -1.2202
  405MOL0     O55753   2.880   9.134  10.368  0.5413  0.5265  0.1590
  405MOL0     C55754   2.786   9.060  10.402  0.5387  0.9681  0.0132
  405MOL0     O55755   2.784   8.952  10.494 -0.4763 -0.5394  0.5290
  405MOL0     C55756   2.901   8.912  10.548 -0.3741 -0.0853 -1.1222
  405MOL0     C55757   2.953   8.784  10.517  0.2890 -0.2235 -0.8356
  405MOL0     C55758   3.072   8.743  10.580 -1.0970  0.1790  0.2648
  405MOL0     C55759   3.139   8.826  10.672  0.6592 -0.1148 -0.1408
  405MOL0     O55760   3.263   8.795  10.732 -0.1344  0.3454 -0.1038
  405MOL0     C55761   3.255   8.669  10.799  0.2217  0.0040 -0.4387
  405MOL0     C55762   3.394   8.621  10.834  0.1042  0.1343  0.4425
  405MOL0     C55763   3.476   8.575  10.702 -1.0713 -0.3593 -0.0299
  405MOL0     C55764   3.581   8.467  10.736 -0.3642  0.3938 -0.2336
  405MOL0     C55765   3.684   8.527  10.823 -0.3954 -0.1413  0.7220
  405MOL0     C55766   3.816   8.449  10.804  0.1913  0.5472 -0.3831
  405MOL0     C55767   3.800   8.301  10.820  0.9538  0.2864  0.6864
  405MOL0     C55768   3.931   8.224  10.854  0.2015 -0.3207 -0.7332
  405MOL0     N55769   4.027   8.248  10.753  0.0820  0.0831 -0.2201
  405MOL0     C55770   4.129   8.339  10.761  0.5263 -0.3811  0.2372
  405MOL0     C55771   4.197   8.317  10.645 -0.8671  0.1508 -0.2367
  405MOL0     C55772   4.314   8.401  10.585 -0.5917 -0.3086 -0.2986
  405MOL0     C55773   4.428   8.306  10.544  0.6348  0.3588  0.1048
  405MOL0     C55774   4.527   8.370  10.453  0.2634 -0.0225 -0.5098
  405MOL0     C55775   4.595   8.503  10.500  0.1058  0.4050 -0.1756
  405MOL0     O55776   4.688   8.496  10.609  0.0126  0.0153  0.4670
  405MOL0     C55777   4.812   8.442  10.581  0.0671 -0.2510  0.1989
  405MOL0     C55778   4.888   8.413  10.699  0.2105 -0.0089 -0.1230
  405MOL0     C55779   5.017   8.357  10.691 -0.1380 -0.7891  0.2817
  405MOL0     C55780   5.102   8.339  10.810  0.1048  0.1424 -0.3517
  405MOL0     C55781   5.063   8.329  10.560  0.1091 -0.7091  0.5395
  405MOL0     C55782   5.199   8.283  10.534 -0.1194 -0.7577  0.0016
  405MOL0     O55783   5.231   8.306  10.404 -0.1639 -0.0013  0.1407
  405MOL0     C55784   5.315   8.225  10.341 -1.1879 -0.2929 -0.0241
  405MOL0     C55785   5.452   8.227  10.380 -0.0301 -0.0100  0.1053
  405MOL0     C55786   5.540   8.134  10.321  0.0709 -0.3306 -0.0843
  405MOL0     C55787   5.488   8.042  10.225 -0.2279 -0.7654  0.2637
  405MOL0     O55788   5.561   7.956  10.162  0.3071 -0.4801 -0.1213
  405MOL0     C55789   5.687   7.908  10.226  0.5580 -0.2760 -0.1506
  405MOL0     C55790   5.704   7.760  10.186  0.4550 -0.4311  0.1096
  405MOL0     C55791   5.841   7.710  10.214 -1.7073  0.2980 -0.1445
  405MOL0     C55792   5.878   7.576  10.147 -0.4063  0.8994  0.4296
  405MOL0     C55793   5.959   7.590  10.021  0.8680 -0.3381 -0.0504
  405MOL0     C55794   5.995   7.455   9.975  0.1608  0.9187  0.3493
  405MOL0     C55795   6.123   7.404  10.049 -0.4693  0.6030  0.1129
  405MOL0     C55796   6.213   7.300   9.980 -0.5094  0.5543 -0.1144
  405MOL0    Cl55797   6.156   7.132   9.964  0.0131  0.1909 -0.0197
  405MOL0     C55798   5.353   8.044  10.189 -0.7087  0.1903  0.5080
  405MOL0     C55799   5.268   8.142  10.241  0.8749  0.3165  0.6413
  405MOL0     O55800   5.276   8.237  10.617 -1.1637 -0.3841  0.9307
  405MOL0     C55801   4.991   8.357  10.445  0.2801  0.1576  0.1529
  405MOL0     C55802   4.862   8.413  10.460  0.6271  0.2120  0.1989
  405MOL0     N55803   4.139   8.212  10.578  0.0958  0.4019  0.1849
  405MOL0     N55804   4.044   8.163  10.647 -0.4102 -0.8956 -0.3965
  405MOL0     C55805   3.085   8.949  10.699  0.1680 -0.5710  0.4544
  405MOL0     C55806   2.969   9.001  10.637 -0.3843  0.5075 -0.2778
  405MOL0     C55807   2.642   9.099  10.352  0.9197 -0.1809 -0.5929
  405MOL0     C55808   2.534   9.013  10.394  0.6579 -0.0249 -0.2558
  405MOL0     C55809   2.397   9.039  10.351 -0.1770 -0.0370  0.4710
  405MOL0     C55810   2.366   9.148  10.270 -0.0548  0.3313  0.1057
  405MOL0     O55811   2.232   9.148  10.230 -0.4968 -0.2559  0.3211
  405MOL0     C55812   2.206   9.208  10.107  0.0304 -0.4600  0.5409
  405MOL0     C55813   2.272   9.140   9.988 -0.2596  0.9538 -0.4865
  405MOL0     C55814   2.253   8.985   9.999  0.0619 -0.3544 -0.3397
  405MOL0     C55815   2.111   8.938   9.989 -1.0646  0.1885  0.1521
  405MOL0     C55816   2.082   8.898   9.846 -0.4941 -0.4539  0.2557
  405MOL0     C55817   2.038   8.875   9.737 -0.6453 -0.4393 -0.5267
  405MOL0     C55818   2.476   9.230  10.231  0.4071  0.2772  0.7554
  405MOL0     C55819   2.609   9.212  10.278 -0.1843 -0.4385 -0.0279
  405MOL0     C55820   2.717   9.312  10.232 -0.0339 -0.1374  1.0928
  405MOL0     H55821   2.911   8.713  10.447 -1.7439 -1.0475  1.1071
  405MOL0     H55822   3.109   8.645  10.550  0.3913 -0.1760  2.9165
  405MOL0     H55823   3.202   8.587  10.750 -0.0121 -1.7733  2.5567
  405MOL0     H55824   3.208   8.684  10.897 -1.1491 -0.1051 -1.0689
  405MOL0     H55825   3.452   8.695  10.890  3.4203 -2.0281  0.1556
  405MOL0     H55826   3.383   8.535  10.901  0.7302 -1.3907 -1.3492
  405MOL0     H55827   3.412   8.537  10.623 -0.3250  1.0060 -1.3485
  405MOL0     H55828   3.532   8.658  10.656  0.6562 -1.7284 -0.5328
  405MOL0     H55829   3.553   8.371  10.779 -0.8541  1.3052  1.5901
  405MOL0     H55830   3.626   8.457  10.637 -0.0197  1.7031 -0.2331
  405MOL0     H55831   3.648   8.519  10.926 -2.5907 -0.3677 -0.0071
  405MOL0     H55832   3.703   8.632  10.800 -1.3488  0.5447  2.7756
  405MOL0     H55833   3.880   8.462  10.717  1.9674  0.3484  0.8196
  405MOL0     H55834   3.875   8.491  10.886 -0.9192  2.1109 -0.3442
  405MOL0     H55835   3.763   8.264  10.724  1.3009  2.6194 -0.4075
  405MOL0     H55836   3.741   8.283  10.911 -1.1462  0.2216 -0.6427
  405MOL0     H55837   3.958   8.261  10.953  2.0143  2.3528 -2.0968
  405MOL0     H55838   3.911   8.117  10.868  0.1798 -0.3896 -1.2493
  405MOL0     H55839   4.145   8.417  10.835 -1.0193  0.2389 -0.0395
  405MOL0     H55840   4.360   8.473  10.654  0.3485 -3.8897  3.1864
  405MOL0     H55841   4.274   8.456  10.499 -0.1663 -0.8600 -0.8534
  405MOL0     H55842   4.479   8.266  10.632  3.8773  2.3603 -0.6757
  405MOL0     H55843   4.391   8.217  10.492 -1.2535  0.0252  1.8898
  405MOL0     H55844   4.602   8.296  10.424 -1.8682 -2.8478  0.7034
  405MOL0     H55845   4.471   8.396  10.363  0.7457  0.5123 -0.6676
  405MOL0     H55846   4.640   8.557  10.416 -1.1698  1.0665 -0.4717
  405MOL0     H55847   4.511   8.566  10.532 -1.1340 -1.0604 -0.4355
  405MOL0     H55848   4.839   8.426  10.795  0.7664  1.0526  0.0273
  405MOL0     H55849   5.049   8.393  10.889 -2.7494 -2.3614 -0.3868
  405MOL0     H55850   5.199   8.389  10.809  1.2213 -1.8006  1.3174
  405MOL0     H55851   5.123   8.234  10.836 -1.2463  0.6519  3.4219
  405MOL0     H55852   5.496   8.282  10.462 -0.8266  2.1861 -0.8798
  405MOL0     H55853   5.638   8.123  10.366 -0.3814 -0.4906  0.8954
  405MOL0     H55854   5.767   7.973  10.190  0.6542  0.8441  1.9169
  405MOL0     H55855   5.691   7.913  10.336  2.6467  1.0090 -0.2417
  405MOL0     H55856   5.631   7.702  10.243 -0.6055  1.3006  0.5948
  405MOL0     H55857   5.675   7.737  10.083  1.1133 -3.8020  0.5615
  405MOL0     H55858   5.842   7.695  10.322 -2.5522 -1.1613 -0.3135
  405MOL0     H55859   5.915   7.783  10.182 -1.8660 -0.0437 -1.3508
  405MOL0     H55860   5.789   7.529  10.104 -1.3243  4.6664 -2.3559
  405MOL0     H55861   5.937   7.515  10.215  1.5806 -0.4356 -2.3135
  405MOL0     H55862   5.908   7.641   9.938  1.7451  0.7245  0.0448
  405MOL0     H55863   6.045   7.654  10.040  0.7760  0.0040 -0.7507
  405MOL0     H55864   6.042   7.449   9.877  0.4129 -0.1375  0.5168
  405MOL0     H55865   5.916   7.380   9.990 -0.8967  1.2505 -2.8047
  405MOL0     H55866   6.083   7.358  10.140 -1.9862  0.7670 -0.4493
  405MOL0     H55867   6.186   7.486  10.086  1.4786 -0.8367  0.1866
  405MOL0     H55868   6.305   7.300  10.038 -0.6917 -1.6080  0.2641
  405MOL0     H55869   6.245   7.323   9.878 -2.1328 -0.3537 -0.8844
  405MOL0     H55870   5.310   7.980  10.113  0.7297  1.0087 -1.0778
  405MOL0     H55871   5.163   8.150  10.216  0.7226  0.0079  1.1500
  405MOL0     H55872   5.009   8.307  10.350 -1.6869  0.2254 -0.2993
  405MOL0     H55873   4.812   8.431  10.365  1.7069 -1.0457 -0.6421
  405MOL0     H55874   3.141   9.013  10.767  0.0404  0.4842 -0.4023
  405MOL0     H55875   2.947   9.107  10.633  1.3195  0.8492 -1.4178
  405MOL0     H55876   2.558   8.920  10.443  1.2432  0.5822  0.6372
  405MOL0     H55877   2.323   8.962  10.368  0.6654 -1.0126 -0.1895
  405MOL0     H55878   2.099   9.223  10.089 -0.3172 -1.8077  1.3264
  405MOL0     H55879   2.239   9.313  10.108  0.1124 -0.4588  2.5726
  405MOL0     H55880   2.379   9.158   9.970  0.1612 -2.2524 -1.8381
  405MOL0     H55881   2.221   9.168   9.895 -1.4414 -3.6004 -1.4277
  405MOL0     H55882   2.317   8.936   9.926 -0.9694 -1.8887 -0.2762
  405MOL0     H55883   2.295   8.958  10.097 -0.0944  1.3999  0.2391
  405MOL0     H55884   2.045   9.015  10.030  1.4044  1.3404  2.2788
  405MOL0     H55885   2.093   8.846  10.046 -0.3659 -0.8388 -1.2433
  405MOL0     H55886   2.011   8.854   9.636  0.5062 -1.3332 -0.6732
  405MOL0     H55887   2.456   9.311  10.162 -2.4095  1.4686  2.7849
  405MOL0     H55888   2.802   9.264  10.182  1.4707  1.3038  2.1469
  405MOL0     H55889   2.664   9.373  10.159  0.1452 -0.7237  0.4704
  405MOL0     H55890   2.747   9.365  10.323  2.7136 -0.5733  0.5478
  406MOL0     O55891   4.330   0.046   2.180 -0.0285  0.7921  0.4164
  406MOL0     C55892   4.300   0.021   2.066 -0.3624  0.3818  0.4534
  406MOL0     O55893   4.389  -0.028   1.978  0.6020 -0.4000 -0.3094
  406MOL0     C55894   4.519  -0.046   2.026  0.5397 -0.1586 -0.4071
  406MOL0     C55895   4.630   0.028   1.984  0.5055 -0.5318  0.2091
  406MOL0     C55896   4.750   0.002   2.027  0.0439 -0.7422  0.0030
  406MOL0     C55897   4.785  -0.107   2.107  0.0333 -0.0808  0.1042
  406MOL0     O55898   4.921  -0.128   2.138  0.2282 -0.8052 -0.5395
  406MOL0     C55899   4.939  -0.151   2.277  0.2071  0.5239 -0.4266
  406MOL0     C55900   5.074  -0.223   2.278  0.9608  0.0081  0.3729
  406MOL0     C55901   5.115  -0.276   2.410 -0.1073  0.1002 -0.6469
  406MOL0     C55902   5.218  -0.389   2.397 -0.4871 -0.1520 -0.0315
  406MOL0     C55903   5.279  -0.424   2.528 -0.7121  0.6003 -0.6674
  406MOL0     C55904   5.334  -0.564   2.529  0.2741  0.0484  0.0848
  406MOL0     C55905   5.436  -0.575   2.630 -0.2570  0.2605  0.3001
  406MOL0     C55906   5.407  -0.552   2.779  0.0801  0.5681  0.6410
  406MOL0     N55907   5.525  -0.564   2.862 -0.3283  0.8181 -0.4854
  406MOL0     C55908   5.566  -0.680   2.925  0.3378  0.3751  1.3445
  406MOL0     C55909   5.673  -0.639   2.996 -0.0214  0.3897 -0.3506
  406MOL0     C55910   5.772  -0.728   3.061  0.4349  0.5401  0.7663
  406MOL0     C55911   5.872  -0.811   2.979  0.1647  0.5033  0.1227
  406MOL0     C55912   5.979  -0.705   2.921  1.0354 -0.0148 -0.3042
  406MOL0     C55913   6.081  -0.773   2.831  0.3433 -1.0197  0.6976
  406MOL0     O55914   6.176  -0.860   2.899  0.1456 -0.3944 -0.0224
  406MOL0     C55915   6.303  -0.815   2.906 -0.6683 -0.0338 -0.2051
  406MOL0     C55916   6.374  -0.743   2.805  0.0746  0.4012  1.1936
  406MOL0     C55917   6.503  -0.706   2.814  0.3882 -1.1193 -0.3556
  406MOL0     C55918   6.555  -0.624   2.699  0.3147  0.2995 -0.0176
  406MOL0     C55919   6.573  -0.715   2.940  0.1746 -0.1080  0.2750
  406MOL0     C55920   6.712  -0.666   2.968  0.4884  0.5114  0.1944
  406MOL0     O55921   6.756  -0.690   3.092 -0.3690 -0.2232 -0.1886
  406MOL0     C55922   6.886  -0.650   3.118 -0.7929  0.7493 -0.6931
  406MOL0     C55923   6.985  -0.746   3.120  0.1792  0.7459  0.4509
  406MOL0     C55924   7.119  -0.714   3.165  1.0129 -0.8459 -0.8231
  406MOL0     C55925   7.146  -0.577   3.188  0.3394 -0.2077  0.4460
  406MOL0     O55926   7.274  -0.543   3.207 -0.3171 -1.1030  0.5504
  406MOL0     C55927   7.314  -0.404   3.206  0.0223 -0.0246  0.7219
  406MOL0     C55928   7.468  -0.406   3.181  0.1839 -0.2980  1.0635
  406MOL0     C55929   7.505  -0.402   3.029 -0.3744 -0.1306 -0.4608
  406MOL0     C55930   7.485  -0.539   2.961  0.0041  0.7891  0.1297
  406MOL0     C55931   7.589  -0.637   3.019  1.2039  0.1356  0.2387
  406MOL0     C55932   7.583  -0.789   2.985  0.3768  0.0040 -0.3542
  406MOL0     C55933   7.444  -0.852   3.023 -0.6952  0.1365  0.2067
  406MOL0     C55934   7.452  -1.004   3.056 -0.4386  0.7413  0.3466
  406MOL0    Cl55935   7.463  -1.101   2.901 -0.6787 -0.0681  0.1568
  406MOL0     C55936   7.045  -0.479   3.169 -0.6229 -0.2968  0.8989
  406MOL0     C55937   6.910  -0.519   3.141 -0.0036 -0.0431 -0.5408
  406MOL0     O55938   6.775  -0.615   2.875 -0.1422 -0.5823  0.1773
  406MOL0     C55939   6.512  -0.793   3.040  0.3575  0.5406 -0.6277
  406MOL0     C55940   6.375  -0.846   3.023  0.1146  0.0817  0.1582
  406MOL0     N55941   5.690  -0.503   2.983  0.4391 -0.5987  0.6464
  406MOL0     N55942   5.599  -0.458   2.901 -0.2221  0.0147  0.9072
  406MOL0     C55943   4.680  -0.193   2.142 -0.4009 -0.3059 -0.5777
  406MOL0     C55944   4.548  -0.160   2.110 -1.0040 -0.2867  1.2029
  406MOL0     C55945   4.157   0.027   2.021  0.0687 -0.7318  0.3152
  406MOL0     C55946   4.130  -0.034   1.891 -0.2341  0.0928 -0.3130
  406MOL0     C55947   4.001  -0.035   1.839  0.5304 -0.3679 -0.2024
  406MOL0     C55948   3.910   0.053   1.905 -0.3669  0.8379 -0.6110
  406MOL0     O55949   3.795   0.078   1.843  0.3873  0.4010 -0.0726
  406MOL0     C55950   3.793   0.199   1.777  0.1234 -0.9039  0.0527
  406MOL0     C55951   3.771   0.170   1.630  0.7862 -0.1488  0.2949
  406MOL0     C55952   3.625   0.161   1.582 -0.6455 -0.3837  0.3023
  406MOL0     C55953   3.531   0.069   1.665 -0.3805  0.3881  0.1904
  406MOL0     C55954   3.397   0.093   1.633 -0.8279  0.5738 -1.3797
  406MOL0     C55955   3.281   0.101   1.613  0.1280 -0.0990 -0.9363
  406MOL0     C55956   3.933   0.122   2.027  0.4443  0.1288 -0.5881
  406MOL0     C55957   4.052   0.098   2.086 -0.0070 -0.2167 -0.2335
  406MOL0     C55958   4.069   0.163   2.217  0.5497  0.5669  0.2227
  406MOL0     H55959   4.619   0.109   1.913 -0.0432 -1.2182 -0.5193
  406MOL0     H55960   4.834   0.061   1.990 -1.9555  3.0072  0.9808
  406MOL0     H55961   4.864  -0.222   2.312  1.4821 -0.0702  1.2032
  406MOL0     H55962   4.919  -0.056   2.327 -4.7342 -0.1284 -0.6785
  406MOL0     H55963   5.069  -0.306   2.207 -0.9535  1.5961 -1.4559
  406MOL0     H55964   5.156  -0.160   2.240  0.8825  1.1180  1.9278
  406MOL0     H55965   5.153  -0.195   2.474  0.4095 -1.6542  1.4083
  406MOL0     H55966   5.038  -0.324   2.470  1.3289 -0.2571  1.0112
  406MOL0     H55967   5.159  -0.475   2.365 -1.6647  1.2512 -1.8362
  406MOL0     H55968   5.293  -0.370   2.320  0.2940 -5.4051 -0.9303
  406MOL0     H55969   5.216  -0.419   2.617  1.1140 -0.4413  0.7732
  406MOL0     H55970   5.361  -0.352   2.538  0.0067 -0.2105 -0.5341
  406MOL0     H55971   5.253  -0.636   2.545  1.5468 -1.6325 -0.7334
  406MOL0     H55972   5.380  -0.580   2.431  1.3782  2.1311  0.2239
  406MOL0     H55973   5.515  -0.503   2.608  0.3288 -0.7474 -1.0725
  406MOL0     H55974   5.475  -0.677   2.620 -0.1003  0.3672 -0.2217
  406MOL0     H55975   5.363  -0.452   2.788 -0.7418  0.2726 -0.0322
  406MOL0     H55976   5.326  -0.620   2.806  0.1054  0.5615  0.7000
  406MOL0     H55977   5.527  -0.781   2.918  3.7168 -1.0081 -4.0005
  406MOL0     H55978   5.713  -0.809   3.106 -0.0244 -0.2059 -1.1049
  406MOL0     H55979   5.816  -0.666   3.140  0.5415  2.4106 -0.7077
  406MOL0     H55980   5.926  -0.880   3.045 -0.4867  0.5880  0.7653
  406MOL0     H55981   5.812  -0.870   2.909 -0.9463 -1.6113  2.6720
  406MOL0     H55982   5.920  -0.631   2.866 -0.6805 -0.9638  0.1568
  406MOL0     H55983   6.043  -0.656   2.996  2.0086 -0.7662 -0.6253
  406MOL0     H55984   6.042  -0.834   2.749  0.6918  0.3385 -0.5150
  406MOL0     H55985   6.140  -0.695   2.781  1.9094 -3.2428 -1.1667
  406MOL0     H55986   6.325  -0.725   2.710  1.3984 -0.7172  0.2599
  406MOL0     H55987   6.490  -0.633   2.612 -0.9907  1.9576  0.7271
  406MOL0     H55988   6.658  -0.645   2.667 -0.7128  1.3555 -4.7968
  406MOL0     H55989   6.560  -0.525   2.744 -2.2108 -1.3485  4.5259
  406MOL0     H55990   6.947  -0.844   3.093 -0.6864  0.9961  0.6996
  406MOL0     H55991   7.194  -0.793   3.171 -0.2653 -2.1536 -1.4972
  406MOL0     H55992   7.278  -0.360   3.112 -1.0568 -3.1084 -0.4283
  406MOL0     H55993   7.264  -0.348   3.285 -0.5235  2.3201 -1.1555
  406MOL0     H55994   7.489  -0.305   3.216  0.9903  0.1359 -0.5808
  406MOL0     H55995   7.532  -0.478   3.233  3.8084 -0.5678 -3.2136
  406MOL0     H55996   7.612  -0.380   3.023 -0.3302  1.4860  3.3434
  406MOL0     H55997   7.453  -0.324   2.971 -3.9091  0.5671  3.1345
  406MOL0     H55998   7.501  -0.531   2.853 -3.1797  2.0189 -0.3640
  406MOL0     H55999   7.383  -0.573   2.980 -0.0431 -0.9393 -2.5757
  406MOL0     H56000   7.694  -0.616   2.996  0.8149  0.1067 -1.7195
  406MOL0     H56001   7.568  -0.639   3.127 -2.3552  1.0078 -0.2909
  406MOL0     H56002   7.662  -0.825   3.052  0.8558  2.8974  0.7815
  406MOL0     H56003   7.604  -0.808   2.879  2.6164  1.1575 -0.1826
  406MOL0     H56004   7.377  -0.821   2.943 -1.6781 -0.3500  0.8235
  406MOL0     H56005   7.403  -0.808   3.114  1.0734 -1.0661  1.6532
  406MOL0     H56006   7.365  -1.030   3.117  0.1949  1.2585  1.5013
  406MOL0     H56007   7.540  -1.028   3.117 -0.3383 -1.2506 -0.4826
  406MOL0     H56008   7.060  -0.372   3.181  2.0919 -0.8228  3.3871
  406MOL0     H56009   6.828  -0.448   3.142 -2.5143 -2.7546 -0.1469
  406MOL0     H56010   6.560  -0.813   3.135  0.2336 -1.1146 -0.8819
  406MOL0     H56011   6.332  -0.901   3.107  0.0239  0.0938  0.1202
  406MOL0     H56012   4.698  -0.276   2.210  0.8289  0.3035 -0.1281
  406MOL0     H56013   4.464  -0.222   2.141  0.1104 -1.8808  1.1197
  406MOL0     H56014   4.201  -0.107   1.854 -0.3666 -0.7485  1.0331
  406MOL0     H56015   3.973  -0.096   1.753  0.0561 -0.3897 -0.0366
  406MOL0     H56016   3.718   0.263   1.826 -0.3037 -1.2011 -0.2108
  406MOL0     H56017   3.887   0.255   1.790 -0.5376 -0.3368  3.6495
  406MOL0     H56018   3.807   0.073   1.595 -0.7600 -0.1388 -1.4727
  406MOL0     H56019   3.807   0.255   1.573 -3.1242  2.2440  0.9860
  406MOL0     H56020   3.591   0.265   1.581 -3.6088 -1.2557 -0.6353
  406MOL0     H56021   3.626   0.129   1.478 -1.3982  1.3053 -0.2674
  406MOL0     H56022   3.566   0.081   1.768 -0.3555 -0.2672  0.2587
  406MOL0     H56023   3.557  -0.034   1.640 -0.2282  0.1181  1.3853
  406MOL0     H56024   3.176   0.116   1.597 -0.6379 -3.2697  0.3869
  406MOL0     H56025   3.853   0.175   2.077 -0.6910 -1.5378 -0.5393
  406MOL0     H56026   4.140   0.245   2.206  0.0373  0.9596 -0.2307
  406MOL0     H56027   3.972   0.190   2.261 -0.4615 -0.0536 -1.5229
  406MOL0     H56028   4.113   0.088   2.283  2.3664  1.5783  0.2272
  407MOL0     O56029   4.874  10.580   0.266  0.1297 -0.3222 -0.7633
  407MOL0     C56030   4.749  10.606   0.258  0.3440 -0.7283 -0.2387
  407MOL0     O56031   4.662  10.621   0.366  0.0279  0.0280  0.0029
  407MOL0     C56032   4.723  10.598   0.486 -0.1090 -0.4567 -0.1623
  407MOL0     C56033   4.741  10.468   0.536 -0.7112  0.5572 -0.4945
  407MOL0     C56034   4.798  10.459   0.666 -0.6416  0.9801 -0.4373
  407MOL0     C56035   4.831  10.570   0.739 -0.2925  0.2547 -0.6193
  407MOL0     O56036   4.906  10.552   0.849  0.0137 -0.3890 -0.4059
  407MOL0     C56037   5.048  10.572   0.836  0.4722 -0.9587 -0.6227
  407MOL0     C56038   5.108  10.562   0.972 -0.1456 -0.0958 -0.7299
  407MOL0     C56039   5.252  10.611   0.970 -0.6801  0.0276 -0.4450
  407MOL0     C56040   5.351  10.530   1.063 -0.2200  0.8294  0.2079
  407MOL0     C56041   5.490  10.584   1.032 -0.1901 -1.2408 -0.1624
  407MOL0     C56042   5.601  10.519   1.118 -0.9044  0.5404 -0.8946
  407MOL0     C56043   5.672  10.409   1.050  0.2947 -0.0354  0.6650
  407MOL0     C56044   5.801  10.362   1.120  0.6595 -0.2007  0.2873
  407MOL0     N56045   5.903  10.468   1.126  0.3432  0.0574  0.2438
  407MOL0     C56046   5.996  10.478   1.023  0.1877 -0.2450 -0.1107
  407MOL0     C56047   6.071  10.583   1.061  0.1449 -0.3237  0.1456
  407MOL0     C56048   6.199  10.623   1.000  1.4533  0.3090 -0.2669
  407MOL0     C56049   6.302  10.525   1.060 -0.0482 -0.3655 -0.2332
  407MOL0     C56050   6.447  10.546   1.003  0.3802 -0.7087  0.8821
  407MOL0     C56051   6.526  10.426   1.054  0.4055  0.5044 -0.2194
  407MOL0     O56052   6.669  10.467   1.063  0.5008 -0.4485  0.0622
  407MOL0     C56053   6.765  10.378   1.104  0.4715 -0.1429  0.0865
  407MOL0     C56054   6.776  10.267   1.040 -1.2254  1.2858 -0.2982
  407MOL0     C56055   6.875  10.162   1.070  0.1769 -0.0270  0.4224
  407MOL0     C56056   6.870  10.029   0.991  0.6669  0.4261 -0.6148
  407MOL0     C56057   6.980  10.196   1.163  0.4165  1.3218 -0.4992
  407MOL0     C56058   7.105  10.111   1.197  0.2550  0.8410 -0.3113
  407MOL0     O56059   7.163  10.030   1.095 -0.0961 -0.3761  0.4228
  407MOL0     C56060   7.284   9.968   1.113  1.5075  0.2259  0.5606
  407MOL0     C56061   7.390  10.008   1.194 -0.0866  0.0010  0.4495
  407MOL0     C56062   7.507   9.938   1.218 -0.0950  1.1204  0.3796
  407MOL0     C56063   7.518   9.812   1.153 -0.2392 -0.6321  0.1633
  407MOL0     O56064   7.613   9.711   1.189  0.1820 -0.1587 -0.5788
  407MOL0     C56065   7.681   9.723   1.315  0.5479 -0.3083  0.2666
  407MOL0     C56066   7.581   9.699   1.433  0.1193  0.1246 -0.7790
  407MOL0     C56067   7.513   9.560   1.433  0.5225 -0.0711 -1.1205
  407MOL0     C56068   7.411   9.537   1.556  0.3488  0.3529 -0.6648
  407MOL0     C56069   7.298   9.644   1.561  0.3813  0.0140  0.3645
  407MOL0     C56070   7.195   9.631   1.440 -0.1813  0.1626  0.7825
  407MOL0     C56071   7.079   9.737   1.450 -0.0616  0.2904  0.2115
  407MOL0     C56072   7.052   9.814   1.325  0.5824 -0.2627 -0.7099
  407MOL0    Cl56073   6.972   9.701   1.200  0.0786 -0.3620 -0.4713
  407MOL0     C56074   7.411   9.760   1.079  0.5078  0.8626  0.0321
  407MOL0     C56075   7.298   9.837   1.057 -0.0746  0.3672 -0.0538
  407MOL0     O56076   7.143  10.120   1.311  0.4381  0.2020 -0.5915
  407MOL0     C56077   6.963  10.314   1.233  0.4062 -0.3270 -0.6043
  407MOL0     C56078   6.862  10.408   1.202  0.6320 -0.4136  0.2257
  407MOL0     N56079   6.023  10.623   1.187 -0.2102  0.1125  0.5959
  407MOL0     N56080   5.931  10.547   1.231  0.0627  0.4902 -0.9083
  407MOL0     C56081   4.806  10.698   0.691 -0.3808  0.6628  1.2368
  407MOL0     C56082   4.748  10.714   0.564 -0.4509 -1.1532 -0.0042
  407MOL0     C56083   4.676  10.618   0.126 -0.7194  0.1933 -0.4346
  407MOL0     C56084   4.534  10.607   0.131 -0.8136  0.0284 -0.1131
  407MOL0     C56085   4.456  10.639   0.020  0.1519  0.4872 -0.2830
  407MOL0     C56086   4.518  10.675  -0.103  0.1377  0.2891 -1.4244
  407MOL0     O56087   4.451  10.709  -0.212  0.3231  0.0553 -0.2178
  407MOL0     C56088   4.308  10.715  -0.196  0.3744 -0.4727  1.3015
  407MOL0     C56089   4.266  10.782  -0.320 -0.5684 -0.8560  0.5389
  407MOL0     C56090   4.121  10.818  -0.344  0.1017  0.2210 -0.1197
  407MOL0     C56091   4.032  10.689  -0.359  0.1548  0.3705  0.0750
  407MOL0     C56092   3.894  10.727  -0.337  1.5476 -0.3535  0.0498
  407MOL0     C56093   3.780  10.764  -0.316 -0.1340  0.4119  0.0369
  407MOL0     C56094   4.660  10.672  -0.119 -0.1486  0.1893 -0.5019
  407MOL0     C56095   4.739  10.650  -0.001 -0.6409  0.7126  0.6611
  407MOL0     C56096   4.886  10.632  -0.033 -0.0641  0.4537 -0.3513
  407MOL0     H56097   4.718  10.381   0.475  3.9680 -0.2509 -1.5254
  407MOL0     H56098   4.837  10.366   0.707  2.8271  2.1837 -0.7306
  407MOL0     H56099   5.061  10.673   0.796 -0.1898  0.2091  1.8569
  407MOL0     H56100   5.101  10.497   0.777  2.7355  0.8680 -1.0818
  407MOL0     H56101   5.051  10.622   1.044  1.2625  3.7055 -2.4955
  407MOL0     H56102   5.117  10.465   1.020  1.4283 -0.8159 -2.3596
  407MOL0     H56103   5.279  10.601   0.864 -3.7365 -0.2408 -1.3082
  407MOL0     H56104   5.264  10.718   0.993  0.2240 -0.2597  0.4647
  407MOL0     H56105   5.321  10.540   1.168  0.8655 -3.3667  1.0659
  407MOL0     H56106   5.349  10.424   1.038 -1.1958  1.0156 -0.5674
  407MOL0     H56107   5.496  10.693   1.042 -0.7105 -0.8034 -3.5539
  407MOL0     H56108   5.509  10.574   0.925  1.6015  1.2517 -0.1829
  407MOL0     H56109   5.668  10.603   1.134 -1.7216  1.0879 -0.2433
  407MOL0     H56110   5.563  10.482   1.214 -1.1203  1.5866 -0.5694
  407MOL0     H56111   5.695  10.440   0.948 -2.2592  0.5627  0.2101
  407MOL0     H56112   5.601  10.326   1.053 -2.5662  1.9714 -3.1060
  407MOL0     H56113   5.770  10.333   1.221 -0.7461  0.1416 -0.0215
  407MOL0     H56114   5.845  10.277   1.068  1.4930  0.8666 -0.7880
  407MOL0     H56115   6.012  10.408   0.942  0.8294 -2.3695  1.7525
  407MOL0     H56116   6.225  10.727   1.025  0.5859  0.4572  0.0307
  407MOL0     H56117   6.198  10.612   0.891  2.1627 -1.9995 -0.0879
  407MOL0     H56118   6.301  10.525   1.170  2.1227 -0.0864 -0.1562
  407MOL0     H56119   6.266  10.425   1.037 -1.0326 -0.6983  2.4104
  407MOL0     H56120   6.444  10.539   0.894  0.6077 -3.2632  0.9755
  407MOL0     H56121   6.483  10.646   1.029  0.1844 -0.0320 -1.2688
  407MOL0     H56122   6.493  10.408   1.156  0.7189  2.9024  0.3633
  407MOL0     H56123   6.512  10.331   1.001 -0.6858 -0.3698  1.5600
  407MOL0     H56124   6.705  10.234   0.965 -0.5421 -2.2878  0.4560
  407MOL0     H56125   6.914  10.035   0.891 -1.2342 -0.9759 -1.6060
  407MOL0     H56126   6.766  10.003   0.972  1.1093 -1.1284 -1.1376
  407MOL0     H56127   6.904   9.948   1.056 -4.2871 -0.1481  1.7211
  407MOL0     H56128   7.369  10.106   1.235 -0.7572 -0.0694  0.2726
  407MOL0     H56129   7.585   9.975   1.285  0.3223 -0.4310  0.7747
  407MOL0     H56130   7.762   9.650   1.315 -0.6228 -1.6833 -1.3296
  407MOL0     H56131   7.729   9.821   1.319 -0.2174  0.3221 -2.9298
  407MOL0     H56132   7.624   9.713   1.533 -0.9623 -0.3225 -0.2343
  407MOL0     H56133   7.499   9.772   1.426 -1.1968 -1.3832 -1.6855
  407MOL0     H56134   7.588   9.481   1.424  0.2644 -0.2479 -1.7854
  407MOL0     H56135   7.463   9.551   1.336 -0.0298  0.1536 -0.8635
  407MOL0     H56136   7.467   9.543   1.649 -0.9151 -1.7271  0.2905
  407MOL0     H56137   7.367   9.437   1.547 -2.1337  1.4410 -1.8191
  407MOL0     H56138   7.248   9.617   1.655 -1.0976  3.0263  0.5716
  407MOL0     H56139   7.341   9.745   1.556 -1.5591  0.8235 -1.0072
  407MOL0     H56140   7.170   9.527   1.422  0.3169 -0.4619  3.2491
  407MOL0     H56141   7.256   9.660   1.354 -2.0006  2.6598  0.2144
  407MOL0     H56142   7.102   9.809   1.528 -0.5956  1.0167 -0.2858
  407MOL0     H56143   6.982   9.691   1.470  0.1122  0.4752  1.5406
  407MOL0     H56144   7.146   9.855   1.286  0.7907  0.4321  0.4855
  407MOL0     H56145   6.991   9.899   1.359  1.4734  0.6287 -1.2870
  407MOL0     H56146   7.415   9.655   1.049  0.2374  1.0826 -0.8125
  407MOL0     H56147   7.215   9.788   1.008  0.2946 -2.5657  1.9466
  407MOL0     H56148   7.010  10.334   1.329  1.0526 -2.6517 -0.3708
  407MOL0     H56149   6.860  10.511   1.237  1.3244 -0.2053 -0.3132
  407MOL0     H56150   4.826  10.786   0.751 -1.7837  1.8008  0.1121
  407MOL0     H56151   4.714  10.811   0.528 -1.1705 -1.6239 -0.6048
  407MOL0     H56152   4.478  10.589   0.222  1.3035 -3.5933  0.6613
  407MOL0     H56153   4.350  10.619   0.033  0.4994 -0.5132  1.2090
  407MOL0     H56154   4.271  10.613  -0.192  2.5909 -1.2997  2.3289
  407MOL0     H56155   4.263  10.776  -0.117 -1.4256  2.3904 -1.6844
  407MOL0     H56156   4.296  10.724  -0.408 -4.2211  1.4211 -2.5528
  407MOL0     H56157   4.329  10.871  -0.323 -1.6585  0.0140  1.9158
  407MOL0     H56158   4.079  10.882  -0.265 -0.9806  0.5431 -0.9284
  407MOL0     H56159   4.093  10.877  -0.431 -3.5521  1.1642  1.4544
  407MOL0     H56160   4.054  10.611  -0.285 -3.1716 -1.2379 -0.4301
  407MOL0     H56161   4.050  10.643  -0.457  0.7875  0.6808  0.0398
  407MOL0     H56162   3.680  10.791  -0.285  0.1459  0.6485  0.7510
  407MOL0     H56163   4.692  10.682  -0.222  0.2747  1.9377 -0.2414
  407MOL0     H56164   4.937  10.694   0.041 -2.3974  2.8875 -0.6169
  407MOL0     H56165   4.920  10.529  -0.023  2.5326  1.0643 -2.0259
  407MOL0     H56166   4.915  10.661  -0.134 -3.5046  0.4292 -1.4684
  408MOL0     O56167  10.897   7.598   5.030  1.0970  0.0462 -0.4419
  408MOL0     C56168  10.861   7.568   5.141  0.4713  1.0552  0.1318
  408MOL0     O56169  10.774   7.457   5.174 -0.2152  0.1748 -0.4691
  408MOL0     C56170  10.736   7.370   5.075 -0.3978 -0.4930 -0.2112
  408MOL0     C56171  10.606   7.325   5.063 -0.3279  0.0459 -0.0488
  408MOL0     C56172  10.576   7.227   4.973  0.7988  0.5800 -0.2262
  408MOL0     C56173  10.663   7.172   4.886 -0.8423 -0.8969 -0.0906
  408MOL0     O56174  10.632   7.083   4.787 -0.5343  1.0766  0.4940
  408MOL0     C56175  10.519   7.112   4.706 -0.6784  0.4043  0.6388
  408MOL0     C56176  10.550   7.098   4.553 -0.3186 -0.0689  0.5595
  408MOL0     C56177  10.435   7.157   4.459 -0.7025 -0.7322  0.0431
  408MOL0     C56178  10.299   7.104   4.484 -0.5840  0.2833  0.3570
  408MOL0     C56179  10.188   7.156   4.388  0.0378 -0.8007  0.2468
  408MOL0     C56180  10.064   7.057   4.379  0.1513  0.8218 -0.3165
  408MOL0     C56181   9.961   7.052   4.493 -0.0478  0.1386 -0.1674
  408MOL0     C56182   9.832   6.975   4.467 -0.3009  0.2675  0.4327
  408MOL0     N56183   9.763   7.035   4.347 -0.1879  0.5250 -0.2281
  408MOL0     C56184   9.660   7.134   4.353 -0.5081 -0.1158 -0.5904
  408MOL0     C56185   9.593   7.121   4.242  0.2472  1.7867 -1.3415
  408MOL0     C56186   9.465   7.191   4.212  0.7142 -0.5534 -1.4402
  408MOL0     C56187   9.361   7.097   4.282 -0.0508  0.0086 -0.4064
  408MOL0     C56188   9.224   7.113   4.228  1.3245  0.1307 -0.2743
  408MOL0     C56189   9.129   6.988   4.270  0.6784 -0.5263 -0.4465
  408MOL0     O56190   9.107   6.984   4.412  0.2790 -0.1862  0.2138
  408MOL0     C56191   9.030   6.877   4.462 -0.0329 -0.0626  0.5677
  408MOL0     C56192   9.085   6.783   4.550  0.7602  0.1004  0.3814
  408MOL0     C56193   9.002   6.691   4.620  0.4771 -0.3644  0.2754
  408MOL0     C56194   9.058   6.593   4.721  0.1732  0.5199  0.4203
  408MOL0     C56195   8.865   6.675   4.579  0.1184  0.1412  0.1209
  408MOL0     C56196   8.774   6.562   4.629 -0.3218  0.4151  0.2169
  408MOL0     O56197   8.639   6.598   4.627  0.1721 -0.5043  0.1399
  408MOL0     C56198   8.555   6.538   4.711  0.4185  0.3438  1.0413
  408MOL0     C56199   8.421   6.515   4.668 -0.2040 -1.2077  0.4938
  408MOL0     C56200   8.329   6.446   4.744 -0.2553 -0.6379  0.0712
  408MOL0     C56201   8.360   6.393   4.873 -0.0668  0.3657 -0.2284
  408MOL0     O56202   8.282   6.317   4.944  0.3317  0.0658 -0.1038
  408MOL0     C56203   8.146   6.354   4.967 -0.2659  0.4367 -1.4561
  408MOL0     C56204   8.106   6.246   5.067  0.0079  0.4034 -0.0772
  408MOL0     C56205   7.955   6.222   5.077 -0.4784  0.0511  0.0491
  408MOL0     C56206   7.932   6.101   5.164 -0.7716  0.3655 -0.8524
  408MOL0     C56207   7.804   6.034   5.138  0.2895 -0.4822  0.2523
  408MOL0     C56208   7.679   6.111   5.176  0.3943 -0.0073  0.5226
  408MOL0     C56209   7.555   6.026   5.158 -0.3879  0.7179  0.0429
  408MOL0     C56210   7.428   6.112   5.186 -0.1167  0.1858 -0.4762
  408MOL0    Cl56211   7.374   6.131   5.352 -0.4782  0.0996  0.1448
  408MOL0     C56212   8.489   6.422   4.918  0.3146 -0.4219 -0.1653
  408MOL0     C56213   8.575   6.496   4.841 -0.0742 -0.2149  0.3056
  408MOL0     O56214   8.820   6.456   4.676 -1.0340 -0.5585 -0.6593
  408MOL0     C56215   8.816   6.767   4.485 -0.6529  0.0371  0.0064
  408MOL0     C56216   8.895   6.868   4.425  0.5316  0.3994  0.7624
  408MOL0     N56217   9.655   7.023   4.157  0.2252 -0.7673  0.0661
  408MOL0     N56218   9.753   6.970   4.230  0.0236  0.1385 -0.7759
  408MOL0     C56219  10.793   7.221   4.887  0.0488 -0.1895  0.3608
  408MOL0     C56220  10.835   7.312   4.995  0.3425 -0.1643  0.2087
  408MOL0     C56221  10.910   7.652   5.258 -0.5586 -0.6704 -0.1051
  408MOL0     C56222  10.818   7.658   5.367 -0.5520 -0.4857  0.2832
  408MOL0     C56223  10.849   7.746   5.468  0.8111  0.2400 -0.3463
  408MOL0     C56224  10.956   7.823   5.469 -0.3687  0.3610  0.7762
  408MOL0     O56225  10.999   7.924   5.556  0.3915  0.0384 -0.4771
  408MOL0     C56226  10.918   8.029   5.595 -0.2854 -0.0319 -0.0760
  408MOL0     C56227  10.940   8.054   5.741  0.2341 -0.2748  0.3983
  408MOL0     C56228  10.875   8.184   5.778 -0.3052 -0.4623  0.6210
  408MOL0     C56229  10.882   8.219   5.924 -0.1367 -0.9031  0.0741
  408MOL0     C56230  10.795   8.338   5.953 -1.3762 -0.0582 -0.0922
  408MOL0     C56231  10.715   8.429   5.984 -0.0588  0.1616 -0.3454
  408MOL0     C56232  11.044   7.819   5.361  0.2039 -0.0442 -0.9172
  408MOL0     C56233  11.033   7.719   5.268 -0.1418  0.0488  0.1174
  408MOL0     C56234  11.149   7.694   5.166 -0.0204  0.2744 -0.6896
  408MOL0     H56235  10.538   7.358   5.141  0.8294 -2.6168  2.2083
  408MOL0     H56236  10.474   7.191   4.978  0.9593  0.2608  1.4475
  408MOL0     H56237  10.461   7.202   4.730 -3.9012 -0.8571 -1.6786
  408MOL0     H56238  10.444   7.036   4.730 -1.7833  0.4930 -2.1436
  408MOL0     H56239  10.645   7.148   4.533  0.4420 -1.2048  1.2920
  408MOL0     H56240  10.564   6.994   4.523  0.3414  0.1752  0.0056
  408MOL0     H56241  10.424   7.264   4.483 -0.6520 -0.7774  0.2746
  408MOL0     H56242  10.466   7.140   4.356 -0.0863  1.8366 -0.2819
  408MOL0     H56243  10.302   6.996   4.463 -1.0114  0.6037 -1.6182
  408MOL0     H56244  10.270   7.120   4.588  3.4457  2.4024  1.3634
  408MOL0     H56245  10.227   7.159   4.286 -1.1785 -1.1699 -0.2443
  408MOL0     H56246  10.163   7.259   4.413  0.9009 -0.5017 -0.1053
  408MOL0     H56247  10.010   7.098   4.293 -0.6115 -1.1897 -0.8667
  408MOL0     H56248  10.101   6.957   4.351  0.2105  1.3039 -2.0695
  408MOL0     H56249   9.935   7.155   4.519 -1.2804 -0.2812  0.3303
  408MOL0     H56250  10.001   7.005   4.583  0.0104  0.4263 -0.0406
  408MOL0     H56251   9.855   6.870   4.451  0.5432  0.0100  2.8892
  408MOL0     H56252   9.768   6.971   4.556 -0.6662  1.6993  0.2592
  408MOL0     H56253   9.636   7.195   4.439 -0.7194  0.8075 -1.2919
  408MOL0     H56254   9.442   7.198   4.105 -0.4391  1.8752 -1.0803
  408MOL0     H56255   9.471   7.290   4.257 -0.4065 -0.3909 -1.6351
  408MOL0     H56256   9.402   7.000   4.251  4.7444  1.8249 -0.6814
  408MOL0     H56257   9.358   7.116   4.389  1.4705 -0.5082 -0.2465
  408MOL0     H56258   9.169   7.202   4.260 -4.4893 -2.1164 -2.5366
  408MOL0     H56259   9.228   7.119   4.119  0.1653  0.6957 -0.3053
  408MOL0     H56260   9.034   7.011   4.223  1.0663 -0.3411 -1.1457
  408MOL0     H56261   9.167   6.890   4.237  1.1336 -1.5437  2.7486
  408MOL0     H56262   9.192   6.792   4.565  1.0235  1.5887 -1.8577
  408MOL0     H56263   9.163   6.608   4.747 -0.4186  1.7980  2.2144
  408MOL0     H56264   9.045   6.489   4.687  1.4882  0.2096  0.8072
  408MOL0     H56265   9.002   6.605   4.814  1.2312 -1.3778  1.3689
  408MOL0     H56266   8.399   6.543   4.566  0.3466 -2.6047 -0.0407
  408MOL0     H56267   8.235   6.424   4.694 -1.9209  1.3853  2.1058
  408MOL0     H56268   8.147   6.459   4.997  1.2287  0.2181 -0.6756
  408MOL0     H56269   8.075   6.334   4.885  0.7656  0.5090 -2.3870
  408MOL0     H56270   8.169   6.161   5.040  1.7827  1.8829 -0.8952
  408MOL0     H56271   8.144   6.278   5.164  1.0112  1.5356 -0.8049
  408MOL0     H56272   7.918   6.190   4.979  1.3232  1.4324 -1.1441
  408MOL0     H56273   7.910   6.316   5.109  3.2207  2.6863 -1.7084
  408MOL0     H56274   7.958   6.129   5.266 -0.3421 -0.7358 -0.6427
  408MOL0     H56275   8.004   6.022   5.141 -2.6111 -1.1631 -1.5848
  408MOL0     H56276   7.799   5.999   5.035  2.3730  1.3322 -0.5425
  408MOL0     H56277   7.807   5.945   5.202  1.0359  1.2012  2.7282
  408MOL0     H56278   7.669   6.198   5.111 -0.7658 -1.0127 -0.7014
  408MOL0     H56279   7.692   6.133   5.283 -0.7833 -0.8896  0.8674
  408MOL0     H56280   7.568   5.933   5.215  0.9371  0.8906  0.0526
  408MOL0     H56281   7.541   5.994   5.054  0.2091  0.0578  0.1549
  408MOL0     H56282   7.348   6.074   5.121  0.6138 -2.1780 -0.1194
  408MOL0     H56283   7.443   6.214   5.152  1.6968  0.2671  0.4235
  408MOL0     H56284   8.523   6.394   5.017 -2.4246  1.4727  1.4530
  408MOL0     H56285   8.673   6.526   4.876  0.4528  1.7294 -2.4565
  408MOL0     H56286   8.711   6.749   4.464 -0.7742 -1.6580  1.8426
  408MOL0     H56287   8.858   6.926   4.341 -0.6397  2.2537  2.4566
  408MOL0     H56288  10.868   7.173   4.824 -0.2937 -0.2750  0.0150
  408MOL0     H56289  10.939   7.342   4.998  1.3663 -3.3685  2.0857
  408MOL0     H56290  10.723   7.604   5.368  0.1553 -1.8843 -1.9459
  408MOL0     H56291  10.790   7.756   5.558  0.6011  1.0316 -0.5609
  408MOL0     H56292  10.947   8.105   5.522  2.6477 -1.9516 -1.0693
  408MOL0     H56293  10.812   8.000   5.588 -1.3093  3.5591 -1.5509
  408MOL0     H56294  11.046   8.065   5.766  0.4461 -2.0232  0.4127
  408MOL0     H56295  10.896   7.971   5.798 -1.1093 -0.5051 -0.9167
  408MOL0     H56296  10.918   8.266   5.719 -0.6426 -0.0069  0.9990
  408MOL0     H56297  10.769   8.183   5.751  0.1276 -3.0532 -1.4265
  408MOL0     H56298  10.982   8.247   5.959 -1.5128  3.0449  1.4772
  408MOL0     H56299  10.849   8.130   5.977 -1.3796 -0.1666  0.6006
  408MOL0     H56300  10.656   8.514   6.013 -1.5748 -0.6930 -0.8451
  408MOL0     H56301  11.138   7.869   5.379  0.1542 -0.9423  2.4699
  408MOL0     H56302  11.248   7.728   5.195  0.7765 -2.1118 -0.4038
  408MOL0     H56303  11.163   7.588   5.144  3.7196  0.6388 -0.5571
  408MOL0     H56304  11.127   7.742   5.070 -0.8001  0.7512 -0.2913
  409MOL0     O56305  10.464  10.353   8.210 -0.4810  0.0670  0.6128
  409MOL0     C56306  10.445  10.421   8.313  0.2424  0.1132  0.3009
  409MOL0     O56307  10.495  10.547   8.341  0.1280 -0.9276  0.0779
  409MOL0     C56308  10.575  10.607   8.248 -0.9128 -0.1725 -0.3648
  409MOL0     C56309  10.544  10.744   8.221  0.1387  0.5881 -0.5564
  409MOL0     C56310  10.632  10.816   8.137  0.4272  0.5746  0.1200
  409MOL0     C56311  10.729  10.749   8.066 -0.0646 -0.3745 -0.2255
  409MOL0     O56312  10.806  10.817   7.975 -0.0327 -0.3280 -0.1766
  409MOL0     C56313  10.869  10.943   8.005 -0.3217 -0.3569 -0.2558
  409MOL0     C56314  10.844  11.041   7.887  0.0112  0.4577  0.3434
  409MOL0     C56315  10.938  11.024   7.771 -0.4779 -0.7424  0.4521
  409MOL0     C56316  10.918  11.126   7.669 -0.5601  0.2999  1.0932
  409MOL0     C56317  11.026  11.126   7.566  0.9193 -0.0019 -0.5008
  409MOL0     C56318  11.005  11.222   7.449 -0.6312  0.3564  0.3678
  409MOL0     C56319  11.131  11.225   7.349 -0.7324  0.4717  0.0144
  409MOL0     C56320  11.091  11.309   7.235  0.4111  0.7198  0.0537
  409MOL0     N56321  11.203  11.338   7.149  0.1590 -0.7603  0.6847
  409MOL0     C56322  11.303  11.427   7.170 -0.8459  0.6555  0.4457
  409MOL0     C56323  11.385  11.414   7.059  0.8017 -0.0110 -0.2682
  409MOL0     C56324  11.500  11.508   7.026  0.6217  0.1685  0.1270
  409MOL0     C56325  11.636  11.448   7.028 -0.0867  0.1484 -0.6297
  409MOL0     C56326  11.736  11.532   6.947 -0.7787  0.6812  0.1466
  409MOL0     C56327  11.868  11.557   7.015 -0.3680  0.0555 -0.9163
  409MOL0     O56328  11.943  11.651   6.942  0.7395  0.0959 -0.2040
  409MOL0     C56329  12.063  11.613   6.892  0.4520 -0.7240  0.2332
  409MOL0     C56330  12.153  11.527   6.953  0.7762 -0.7167 -0.5492
  409MOL0     C56331  12.272  11.483   6.892  1.1153  1.0617  0.1721
  409MOL0     C56332  12.354  11.379   6.961  0.2455  0.5442 -1.2427
  409MOL0     C56333  12.308  11.546   6.773 -0.7611  0.2775  0.3977
  409MOL0     C56334  12.449  11.522   6.714 -0.1198 -0.1815  0.1948
  409MOL0     O56335  12.496  11.622   6.634  0.4140  0.0221 -0.2172
  409MOL0     C56336  12.604  11.594   6.559 -0.1571 -1.2653  0.1815
  409MOL0     C56337  12.582  11.651   6.432  0.2335 -0.5309  1.6252
  409MOL0     C56338  12.677  11.643   6.332 -0.4145  0.1007  0.3304
  409MOL0     C56339  12.799  11.573   6.357  0.0701  0.1432 -0.7406
  409MOL0     O56340  12.895  11.576   6.254  0.3766 -0.2079  0.1638
  409MOL0     C56341  13.010  11.492   6.263  0.4558 -0.3834  0.1719
  409MOL0     C56342  13.090  11.489   6.132  0.4110  0.1357  0.2304
  409MOL0     C56343  13.029  11.391   6.025  0.7403 -0.3394  0.4835
  409MOL0     C56344  13.099  11.434   5.898 -0.3777  0.2534  0.5487
  409MOL0     C56345  13.079  11.336   5.783  0.6664  0.8811 -0.4421
  409MOL0     C56346  13.198  11.337   5.688  0.9276 -0.5728 -0.4309
  409MOL0     C56347  13.287  11.214   5.714 -0.2789  0.4060  0.1009
  409MOL0     C56348  13.373  11.168   5.598 -0.2668 -0.2787  0.1967
  409MOL0    Cl56349  13.517  11.261   5.565 -0.3094  0.0419  0.1150
  409MOL0     C56350  12.812  11.516   6.481  0.7756 -0.8002 -0.3397
  409MOL0     C56351  12.720  11.520   6.584  0.1558  0.1167 -0.3542
  409MOL0     O56352  12.511  11.412   6.726  0.9239  0.7319  0.1458
  409MOL0     C56353  12.225  11.649   6.723 -1.0953 -0.5739 -0.6430
  409MOL0     C56354  12.111  11.684   6.788  0.6910  0.0200  0.5519
  409MOL0     N56355  11.329  11.325   6.975 -1.2789 -0.1397  0.6558
  409MOL0     N56356  11.221  11.275   7.033 -0.1914  0.2288 -1.0048
  409MOL0     C56357  10.757  10.612   8.086  0.1305 -0.1744 -0.6605
  409MOL0     C56358  10.680  10.542   8.177  0.2827 -0.1747 -0.4292
  409MOL0     C56359  10.356  10.361   8.421 -0.3031 -0.2047 -0.2424
  409MOL0     C56360  10.363  10.410   8.551  1.2148  0.0045 -0.3595
  409MOL0     C56361  10.318  10.331   8.653 -0.1977 -0.3126 -0.1428
  409MOL0     C56362  10.254  10.208   8.641  0.8324 -0.2027 -0.4486
  409MOL0     O56363  10.213  10.142   8.757 -0.5611 -0.0468 -0.1392
  409MOL0     C56364  10.108  10.046   8.755 -1.2173  0.2506 -0.0782
  409MOL0     C56365  10.030  10.021   8.889  0.5257  0.6903  0.5228
  409MOL0     C56366   9.960  10.148   8.932  0.3378  0.3726 -0.8456
  409MOL0     C56367   9.887  10.122   9.076  0.6230  0.5316 -0.9741
  409MOL0     C56368   9.750  10.065   9.052  0.1013 -0.4084 -0.1732
  409MOL0     C56369   9.639  10.024   9.029  1.1506 -0.5735 -0.5708
  409MOL0     C56370  10.211  10.178   8.509 -0.0878 -0.5008 -0.9085
  409MOL0     C56371  10.270  10.245   8.398 -0.2297 -0.1280 -0.5728
  409MOL0     C56372  10.241  10.202   8.259  0.2222  1.0222  0.2524
  409MOL0     H56373  10.480  10.797   8.291  2.7509 -0.1374  2.6354
  409MOL0     H56374  10.613  10.923   8.137  1.1425  0.7522  2.2147
  409MOL0     H56375  10.973  10.915   8.020 -1.2498 -3.3800  1.4599
  409MOL0     H56376  10.841  10.988   8.101 -1.3440 -0.2040 -0.6142
  409MOL0     H56377  10.738  11.044   7.861 -0.6099 -2.4157  2.1084
  409MOL0     H56378  10.885  11.128   7.938  1.7714 -1.6079  2.7227
  409MOL0     H56379  11.039  11.015   7.812 -1.0032  0.0893  2.0454
  409MOL0     H56380  10.924  10.929   7.720 -2.1534 -1.1243  1.5412
  409MOL0     H56381  10.827  11.104   7.612  1.0615 -1.3422 -1.0241
  409MOL0     H56382  10.916  11.224   7.717 -2.6332  0.2873  1.1398
  409MOL0     H56383  11.040  11.026   7.523  2.8527 -0.4336  0.9753
  409MOL0     H56384  11.111  11.157   7.628 -0.5876 -0.4494  1.9204
  409MOL0     H56385  10.907  11.202   7.405 -1.5655  3.3228  0.8633
  409MOL0     H56386  10.996  11.325   7.484 -1.9173  0.7972 -1.1633
  409MOL0     H56387  11.146  11.120   7.322 -1.5801  0.4819 -0.5260
  409MOL0     H56388  11.220  11.260   7.402  0.0128 -0.2695 -0.7151
  409MOL0     H56389  11.011  11.258   7.181  2.1660 -0.3096 -1.6809
  409MOL0     H56390  11.044  11.403   7.269 -0.8562  0.2736 -0.4124
  409MOL0     H56391  11.320  11.496   7.252  2.2109  2.5654 -1.5858
  409MOL0     H56392  11.496  11.584   7.105 -0.2977  3.5642 -2.8916
  409MOL0     H56393  11.475  11.555   6.931 -1.1344 -0.5100  0.2237
  409MOL0     H56394  11.666  11.447   7.133 -2.0291  0.4030 -0.0279
  409MOL0     H56395  11.642  11.345   6.990 -1.1332  0.1480 -0.8497
  409MOL0     H56396  11.741  11.501   6.842  1.3527  0.4772  0.2671
  409MOL0     H56397  11.695  11.633   6.939  0.7470  1.3410  0.3598
  409MOL0     H56398  11.858  11.596   7.117  1.4610 -0.1881 -0.6083
  409MOL0     H56399  11.921  11.462   7.022 -0.7116 -0.5366 -4.6252
  409MOL0     H56400  12.133  11.490   7.054  0.6937  2.0658  0.5512
  409MOL0     H56401  12.361  11.287   6.901  1.1765  0.1136 -0.4985
  409MOL0     H56402  12.315  11.352   7.059  1.1804  1.4286 -0.6189
  409MOL0     H56403  12.458  11.412   6.972  0.9440 -1.0356 -2.6006
  409MOL0     H56404  12.486  11.700   6.417  2.1348  3.1293 -0.0125
  409MOL0     H56405  12.652  11.697   6.241 -1.0301  1.9948  1.5652
  409MOL0     H56406  13.076  11.535   6.339  0.5382  1.7294 -1.0339
  409MOL0     H56407  12.988  11.389   6.291  1.1371 -1.5345 -3.0850
  409MOL0     H56408  13.080  11.594   6.105 -0.1368  0.0027 -0.0914
  409MOL0     H56409  13.196  11.465   6.148  0.2900 -0.5153  0.1004
  409MOL0     H56410  12.920  11.402   6.017  0.7458 -0.0926  0.7118
  409MOL0     H56411  13.045  11.288   6.060 -4.1929 -0.5181  3.1397
  409MOL0     H56412  13.207  11.437   5.912  0.0863  0.9148 -2.3838
  409MOL0     H56413  13.070  11.533   5.863 -2.7884 -0.9210 -1.0616
  409MOL0     H56414  13.067  11.237   5.826  0.0930  1.2942  0.3859
  409MOL0     H56415  12.988  11.371   5.733  0.5556 -1.7101 -2.1963
  409MOL0     H56416  13.255  11.430   5.697 -2.2644  1.6873 -1.7141
  409MOL0     H56417  13.163  11.329   5.585 -0.5366 -2.5085  0.1635
  409MOL0     H56418  13.225  11.130   5.747  0.6913  0.3372  1.8754
  409MOL0     H56419  13.352  11.243   5.797  0.4758 -4.9158  1.7764
  409MOL0     H56420  13.312  11.176   5.508  0.8772  1.2354 -0.5097
  409MOL0     H56421  13.398  11.062   5.609  3.3366  0.2707 -1.2138
  409MOL0     H56422  12.908  11.482   6.518  0.0289  1.3109  4.1738
  409MOL0     H56423  12.753  11.477   6.678  1.7736 -0.6043 -1.2071
  409MOL0     H56424  12.268  11.708   6.643  2.5209 -2.2248 -0.1269
  409MOL0     H56425  12.057  11.763   6.734 -1.4555 -1.5299  0.3001
  409MOL0     H56426  10.838  10.572   8.026  0.4008 -0.5072 -0.0810
  409MOL0     H56427  10.706  10.443   8.212  1.1873  0.3063  0.3163
  409MOL0     H56428  10.406  10.506   8.575  0.2224  1.3056 -3.3153
  409MOL0     H56429  10.322  10.364   8.757 -3.0213 -2.2944  0.7062
  409MOL0     H56430  10.045  10.086   8.675  0.8452  2.1380 -0.8597
  409MOL0     H56431  10.152   9.953   8.717  0.2159  0.5576  0.7524
  409MOL0     H56432  10.088   9.985   8.974  1.6531  0.7808 -0.1791
  409MOL0     H56433   9.951   9.948   8.874  3.1834 -2.0141 -1.4992
  409MOL0     H56434  10.039  10.224   8.942  2.1461 -1.5483  0.5269
  409MOL0     H56435   9.882  10.188   8.868  0.6407  0.1799 -1.3443
  409MOL0     H56436   9.875  10.215   9.132  0.5514  0.9725 -1.7050
  409MOL0     H56437   9.936  10.049   9.140  1.5779  1.2704 -0.8254
  409MOL0     H56438   9.548   9.969   9.024 -0.2935  0.8770  4.3352
  409MOL0     H56439  10.159  10.083   8.494 -1.5287 -0.1761  1.4518
  409MOL0     H56440  10.143  10.154   8.265 -0.3652  2.3256  1.7307
  409MOL0     H56441  10.243  10.283   8.185 -0.3968  3.6380  2.8905
  409MOL0     H56442  10.314  10.128   8.226 -0.6286 -0.2463  1.1214
  410MOL0     O56443   2.320   2.290   4.403  0.2623 -0.2341 -0.2600
  410MOL0     C56444   2.285   2.381   4.326 -0.2993  0.3645  0.6683
  410MOL0     O56445   2.345   2.506   4.322  0.0107 -0.1052  0.0449
  410MOL0     C56446   2.471   2.527   4.387 -0.2561  0.4332 -0.3223
  410MOL0     C56447   2.494   2.661   4.417 -0.2658  0.4975  0.2341
  410MOL0     C56448   2.616   2.701   4.475 -0.1260 -0.5860  0.2305
  410MOL0     C56449   2.720   2.609   4.499  0.3662  0.4549 -0.1646
  410MOL0     O56450   2.840   2.661   4.556 -0.4668  0.0293  1.0541
  410MOL0     C56451   2.950   2.567   4.573 -0.3214 -0.0793  0.1237
  410MOL0     C56452   3.066   2.631   4.648  0.8111 -0.2456  0.6577
  410MOL0     C56453   3.118   2.763   4.588 -0.3015 -0.0093 -1.1013
  410MOL0     C56454   3.224   2.836   4.680  0.3253  0.0155 -0.3031
  410MOL0     C56455   3.351   2.759   4.665 -0.1924 -1.1706 -0.0928
  410MOL0     C56456   3.481   2.837   4.694  0.5599 -0.0080 -0.5438
  410MOL0     C56457   3.612   2.759   4.689  0.6588  0.5015  0.6540
  410MOL0     C56458   3.738   2.852   4.699 -0.4738  0.1549 -0.3013
  410MOL0     N56459   3.753   2.902   4.839 -0.0554  1.1743 -0.5022
  410MOL0     C56460   3.820   2.834   4.940  0.4662  0.1865 -0.0494
  410MOL0     C56461   3.831   2.929   5.039 -0.0927  0.7626  0.2315
  410MOL0     C56462   3.881   2.897   5.178  0.9607 -0.3717 -0.3053
  410MOL0     C56463   3.992   2.997   5.212 -0.1392 -0.0333 -0.2472
  410MOL0     C56464   4.126   2.980   5.125 -0.5578 -0.0371 -0.1702
  410MOL0     C56465   4.238   3.042   5.215  0.8767 -0.1712 -0.0223
  410MOL0     O56466   4.359   3.004   5.158 -0.2785  0.1402  0.5520
  410MOL0     C56467   4.479   3.035   5.217 -0.0568 -0.9866 -0.4651
  410MOL0     C56468   4.486   3.120   5.333 -0.1493 -0.4975  0.1055
  410MOL0     C56469   4.608   3.140   5.410  0.9266  0.6127 -0.0807
  410MOL0     C56470   4.607   3.195   5.549 -0.8515 -0.3898 -0.9801
  410MOL0     C56471   4.726   3.098   5.352 -0.1236 -0.0065 -0.2202
  410MOL0     C56472   4.851   3.131   5.406 -0.2139 -0.3175  0.3652
  410MOL0     O56473   4.910   3.037   5.467  0.0179 -0.3923 -0.5673
  410MOL0     C56474   5.040   3.037   5.510  0.8855 -0.1402 -0.9045
  410MOL0     C56475   5.086   2.929   5.593  0.2542 -1.2436  0.1128
  410MOL0     C56476   5.221   2.919   5.639 -0.1047  0.2211 -0.2665
  410MOL0     C56477   5.309   3.010   5.593 -0.5817 -0.3803  0.7541
  410MOL0     O56478   5.439   3.028   5.620  0.2667 -0.2424  0.1319
  410MOL0     C56479   5.506   2.919   5.686  0.0330 -0.5525 -0.8036
  410MOL0     C56480   5.647   2.985   5.715  0.3638  0.5277 -1.2425
  410MOL0     C56481   5.738   2.893   5.798  0.6154 -0.2352  0.2590
  410MOL0     C56482   5.862   2.971   5.836  0.0561 -0.0605 -0.2548
  410MOL0     C56483   5.950   2.889   5.930  0.4621 -1.1167 -0.0874
  410MOL0     C56484   6.069   2.976   5.974  0.0659 -0.1831  1.0030
  410MOL0     C56485   6.180   2.884   6.022  0.0361  0.1429 -0.0928
  410MOL0     C56486   6.299   2.965   6.053 -0.5710  0.0964 -0.9915
  410MOL0    Cl56487   6.443   2.858   6.061  0.6542 -0.1302  0.0742
  410MOL0     C56488   5.268   3.119   5.508  0.2187 -0.2848  0.3543
  410MOL0     C56489   5.138   3.124   5.462  0.6350  0.0286 -0.1015
  410MOL0     O56490   4.880   3.243   5.414  0.2048 -0.6641  0.2546
  410MOL0     C56491   4.720   3.025   5.232 -0.7471  0.6465  0.3209
  410MOL0     C56492   4.600   2.994   5.169 -0.3643  0.8410 -1.7574
  410MOL0     N56493   3.795   3.049   4.981 -0.1345 -0.0566  0.4824
  410MOL0     N56494   3.743   3.032   4.864  0.8191 -1.3249  0.1208
  410MOL0     C56495   2.698   2.476   4.467  0.2904 -0.0254 -0.2079
  410MOL0     C56496   2.578   2.437   4.402 -0.5637 -0.6466  0.4466
  410MOL0     C56497   2.165   2.366   4.244  0.8920 -0.7310 -0.8100
  410MOL0     C56498   2.114   2.486   4.180  0.1617  0.1558 -0.1562
  410MOL0     C56499   1.994   2.484   4.123  0.7519 -1.0851  0.7054
  410MOL0     C56500   1.920   2.369   4.111  0.2100  0.7925  1.3305
  410MOL0     O56501   1.798   2.377   4.048 -0.1515 -0.2130 -0.7777
  410MOL0     C56502   1.707   2.265   4.045 -0.0001 -0.0644 -0.8706
  410MOL0     C56503   1.572   2.335   4.030  0.6835  0.8191  0.2445
  410MOL0     C56504   1.467   2.226   4.026 -0.1627  0.1712 -0.4053
  410MOL0     C56505   1.323   2.278   4.023 -0.2590 -0.0271 -0.5256
  410MOL0     C56506   1.231   2.166   4.000  0.8444  0.5297 -0.3223
  410MOL0     C56507   1.132   2.093   3.982 -0.3716  0.3168  0.1026
  410MOL0     C56508   1.965   2.240   4.162  0.0303 -0.2152  0.1733
  410MOL0     C56509   2.095   2.238   4.222 -0.0232  0.9468  0.1457
  410MOL0     C56510   2.145   2.100   4.265  0.6381 -0.1700  0.0508
  410MOL0     H56511   2.425   2.738   4.381 -0.6718 -0.0019 -0.0746
  410MOL0     H56512   2.630   2.807   4.492  0.1449 -0.7443  1.0608
  410MOL0     H56513   2.985   2.525   4.478 -0.4080 -3.6316  1.5103
  410MOL0     H56514   2.918   2.475   4.621 -1.4207  0.0528 -0.3234
  410MOL0     H56515   3.024   2.648   4.747 -2.0749  0.1480 -0.5393
  410MOL0     H56516   3.148   2.558   4.658  1.3583  0.2276 -0.2527
  410MOL0     H56517   3.168   2.736   4.494  0.7654 -1.3862 -0.1895
  410MOL0     H56518   3.036   2.834   4.582  0.2620  1.0012  1.6143
  410MOL0     H56519   3.235   2.935   4.635  0.2531  0.5552  0.8295
  410MOL0     H56520   3.200   2.854   4.785 -1.3210 -2.0219 -0.2783
  410MOL0     H56521   3.361   2.734   4.558  0.7455 -1.7490  0.1138
  410MOL0     H56522   3.350   2.667   4.724 -4.2821 -0.9236  0.4786
  410MOL0     H56523   3.487   2.926   4.630  1.1551  1.3419  1.2885
  410MOL0     H56524   3.469   2.878   4.795 -0.1758  0.7484 -0.9271
  410MOL0     H56525   3.616   2.716   4.589 -0.4391 -0.6362  1.0766
  410MOL0     H56526   3.620   2.676   4.759  2.2676 -0.0488 -0.1327
  410MOL0     H56527   3.831   2.806   4.662  0.3590 -0.0911  1.9492
  410MOL0     H56528   3.724   2.942   4.638  1.2725  1.0506  0.5527
  410MOL0     H56529   3.833   2.727   4.956 -1.2213 -0.2753 -1.4048
  410MOL0     H56530   3.919   2.794   5.182  2.0786 -0.1783 -3.2700
  410MOL0     H56531   3.796   2.898   5.246  0.2820  0.8396 -1.1397
  410MOL0     H56532   3.953   3.099   5.201 -0.2021  0.0754  0.8644
  410MOL0     H56533   4.005   2.985   5.320 -0.1688 -0.4182 -0.2874
  410MOL0     H56534   4.142   2.872   5.112 -0.1120 -0.3799  2.4705
  410MOL0     H56535   4.117   3.023   5.026  1.2540 -1.1057 -0.8485
  410MOL0     H56536   4.232   3.152   5.215  3.5564  0.0395  0.5580
  410MOL0     H56537   4.235   3.014   5.321  1.9889  2.6990  0.8839
  410MOL0     H56538   4.394   3.154   5.379  1.5722  1.1943  2.5748
  410MOL0     H56539   4.513   3.241   5.580  1.3282  2.9725  1.2713
  410MOL0     H56540   4.674   3.281   5.553 -0.7177 -0.5157 -0.3963
  410MOL0     H56541   4.632   3.121   5.626 -1.8965  0.9073  0.6885
  410MOL0     H56542   5.005   2.868   5.632 -0.7881  0.4002  0.6256
  410MOL0     H56543   5.243   2.838   5.708 -1.1753  1.5160  1.6792
  410MOL0     H56544   5.449   2.892   5.776 -0.9352  0.4370 -1.0943
  410MOL0     H56545   5.510   2.829   5.625 -1.1244  0.6642 -2.7979
  410MOL0     H56546   5.706   3.014   5.628  0.7596 -0.0226 -1.1626
  410MOL0     H56547   5.629   3.070   5.782 -0.3219 -0.2013 -0.4743
  410MOL0     H56548   5.762   2.809   5.731 -2.9929 -2.0251  0.9869
  410MOL0     H56549   5.685   2.843   5.879  0.0846  1.4782  1.0094
  410MOL0     H56550   5.836   3.059   5.895  2.0222  0.6683 -0.3807
  410MOL0     H56551   5.920   2.996   5.747  0.8293 -1.1637 -0.0943
  410MOL0     H56552   5.908   2.851   6.023 -2.0150  1.3684 -0.0741
  410MOL0     H56553   5.987   2.801   5.875  2.7008 -1.0521  1.1760
  410MOL0     H56554   6.046   3.059   6.041  0.8892  1.5204 -0.7181
  410MOL0     H56555   6.103   3.026   5.882 -0.1782  0.9176  1.4916
  410MOL0     H56556   6.198   2.803   5.951 -1.8315 -1.4198  1.1146
  410MOL0     H56557   6.142   2.833   6.111  2.6707  1.8555  2.1966
  410MOL0     H56558   6.306   3.010   6.153 -0.4746 -0.3800 -0.7790
  410MOL0     H56559   6.310   3.050   5.985  1.9019 -0.3917 -1.2936
  410MOL0     H56560   5.344   3.190   5.479  1.1220 -2.0845 -1.9965
  410MOL0     H56561   5.127   3.209   5.395  1.2977  3.2334  3.5179
  410MOL0     H56562   4.816   2.988   5.196 -1.0130  2.6989 -2.8613
  410MOL0     H56563   4.603   2.919   5.091  1.4540  0.0408 -0.9862
  410MOL0     H56564   2.781   2.409   4.485 -0.7714 -0.5913  3.4252
  410MOL0     H56565   2.562   2.334   4.369 -2.1887  0.3014 -1.9532
  410MOL0     H56566   2.161   2.582   4.201 -0.8885  1.1503 -2.0184
  410MOL0     H56567   1.952   2.580   4.092  0.4941 -0.7302  2.0602
  410MOL0     H56568   1.729   2.214   3.951 -0.5666  0.7910 -1.4843
  410MOL0     H56569   1.701   2.201   4.133 -1.8125 -0.7822 -1.4883
  410MOL0     H56570   1.557   2.373   3.929 -0.1918 -0.6751 -0.2222
  410MOL0     H56571   1.541   2.399   4.113  2.9777  0.0913  1.7580
  410MOL0     H56572   1.487   2.152   3.948  3.1652  0.6344 -0.1353
  410MOL0     H56573   1.477   2.167   4.117  2.3341  0.1110 -0.6673
  410MOL0     H56574   1.311   2.358   3.951  0.4611 -0.8410 -1.5844
  410MOL0     H56575   1.302   2.321   4.121  1.0641  3.0076 -1.4652
  410MOL0     H56576   1.054   2.020   3.979 -1.9700  1.8149  2.3781
  410MOL0     H56577   1.914   2.145   4.144  2.6801 -1.5363 -0.7835
  410MOL0     H56578   2.077   2.026   4.222 -1.5255  1.4122  0.5816
  410MOL0     H56579   2.246   2.077   4.230 -0.1678  0.1928 -2.7960
  410MOL0     H56580   2.141   2.080   4.372 -0.6270  4.5334  1.1063
  411MOL0     O56581   8.981   5.284   1.113 -0.1262 -0.2175  0.3174
  411MOL0     C56582   8.910   5.381   1.141 -0.7448 -0.5934 -0.1421
  411MOL0     O56583   8.935   5.468   1.242 -0.2819 -0.2616  0.1022
  411MOL0     C56584   9.051   5.458   1.325  0.4561 -0.2138  1.0510
  411MOL0     C56585   9.117   5.576   1.344 -0.1672 -0.1532  0.0391
  411MOL0     C56586   9.242   5.585   1.412  0.1668 -0.5260 -0.6218
  411MOL0     C56587   9.301   5.468   1.457 -0.8054 -0.3724 -0.2268
  411MOL0     O56588   9.421   5.475   1.523 -0.0838  0.5932 -0.0819
  411MOL0     C56589   9.527   5.535   1.453  0.9387  0.2909 -0.5753
  411MOL0     C56590   9.574   5.432   1.344  0.1644 -1.2082  0.1547
  411MOL0     C56591   9.618   5.301   1.394 -0.3668  0.0606 -0.1267
  411MOL0     C56592   9.718   5.243   1.295 -0.1970 -0.0516  0.3350
  411MOL0     C56593   9.737   5.091   1.304 -0.2318 -1.2112 -0.1152
  411MOL0     C56594   9.866   5.039   1.226  0.0438  0.0459  0.8112
  411MOL0     C56595   9.832   5.037   1.070  0.1389 -0.7583 -0.4237
  411MOL0     C56596   9.963   5.010   0.991  0.7195  0.7748  0.4596
  411MOL0     N56597  10.068   5.113   0.974 -0.2791 -0.9828  0.1092
  411MOL0     C56598  10.162   5.142   1.074 -0.3037  0.0540  0.5751
  411MOL0     C56599  10.257   5.221   1.017 -0.3077  1.3196  0.3453
  411MOL0     C56600  10.383   5.267   1.085  0.5593 -0.5670  0.3326
  411MOL0     C56601  10.465   5.152   1.146 -0.5043  0.4045  0.3942
  411MOL0     C56602  10.521   5.055   1.030 -0.0860 -0.7748 -0.4401
  411MOL0     C56603  10.560   5.120   0.894 -0.0205  0.4192 -0.1948
  411MOL0     O56604  10.658   5.217   0.895 -0.3121 -0.3675 -0.0783
  411MOL0     C56605  10.792   5.185   0.874  0.0028  0.9776  0.3780
  411MOL0     C56606  10.832   5.130   0.746  0.1378  0.8030  0.2769
  411MOL0     C56607  10.962   5.088   0.729 -0.0522  0.7100  0.4821
  411MOL0     C56608  11.018   5.046   0.585 -0.2767  0.0804  0.1506
  411MOL0     C56609  11.056   5.110   0.837  0.3520 -0.3302 -0.0191
  411MOL0     C56610  11.203   5.080   0.814 -1.1749  0.3227 -0.0661
  411MOL0     O56611  11.246   4.977   0.735  0.8027 -0.9173 -0.3220
  411MOL0     C56612  11.377   4.942   0.727 -0.5910  1.0460 -0.4504
  411MOL0     C56613  11.484   5.024   0.700 -0.6210 -0.6737  0.6796
  411MOL0     C56614  11.616   4.977   0.688  0.1803 -0.0320  0.8454
  411MOL0     C56615  11.650   4.842   0.696  0.6680 -0.7300 -0.1033
  411MOL0     O56616  11.770   4.797   0.668 -0.2995 -0.6094 -0.6832
  411MOL0     C56617  11.875   4.838   0.769  0.6877 -0.3542  0.1904
  411MOL0     C56618  12.011   4.812   0.692 -0.1742  0.2273  0.1154
  411MOL0     C56619  12.136   4.819   0.784  0.2307 -0.3404  0.1012
  411MOL0     C56620  12.241   4.714   0.764 -0.3673  0.7111 -0.1730
  411MOL0     C56621  12.370   4.755   0.829 -0.2031  0.0454 -0.8728
  411MOL0     C56622  12.441   4.862   0.737 -0.4665  0.1530  0.2170
  411MOL0     C56623  12.529   4.963   0.818  0.0724  0.4388  0.4867
  411MOL0     C56624  12.654   4.892   0.879  0.6527  0.6112  0.4835
  411MOL0    Cl56625  12.719   5.010   0.983  0.1253  0.2870 -0.0095
  411MOL0     C56626  11.542   4.759   0.733 -0.2713 -0.2911 -0.0273
  411MOL0     C56627  11.405   4.803   0.747 -0.1250 -1.0950 -0.6230
  411MOL0     O56628  11.276   5.145   0.887  0.5936  0.0003 -0.6249
  411MOL0     C56629  11.008   5.172   0.955 -0.7023  0.5926 -0.1042
  411MOL0     C56630  10.878   5.208   0.972  0.7855  1.4253  0.5279
  411MOL0     N56631  10.214   5.247   0.891  0.8471 -0.4529 -0.3084
  411MOL0     N56632  10.104   5.185   0.867  1.0283  0.2500 -0.1009
  411MOL0     C56633   9.246   5.343   1.424  0.1005 -0.7721  0.6814
  411MOL0     C56634   9.113   5.340   1.374 -0.4889  0.2441 -0.0947
  411MOL0     C56635   8.777   5.394   1.077 -0.4900 -0.3837 -0.8164
  411MOL0     C56636   8.684   5.481   1.135 -0.0031  0.2313  1.2879
  411MOL0     C56637   8.548   5.484   1.089  0.5232 -0.1467  0.9933
  411MOL0     C56638   8.512   5.403   0.974  0.1945 -0.9401 -0.8768
  411MOL0     O56639   8.379   5.389   0.933 -0.5562 -0.3688 -0.2908
  411MOL0     C56640   8.323   5.259   0.915 -1.2953 -0.1433 -0.5833
  411MOL0     C56641   8.185   5.256   0.858 -0.1627  0.4218 -0.8456
  411MOL0     C56642   8.099   5.155   0.929  0.5034 -1.1773 -0.2494
  411MOL0     C56643   7.956   5.162   0.886 -0.6307  0.5966  0.3076
  411MOL0     C56644   7.868   5.053   0.924 -1.1362  0.7314  0.3116
  411MOL0     C56645   7.797   4.961   0.951 -0.4905  0.4449 -0.4707
  411MOL0     C56646   8.607   5.326   0.914 -0.0135 -0.3321 -0.8244
  411MOL0     C56647   8.742   5.325   0.960 -0.7260  0.4568  0.0089
  411MOL0     C56648   8.849   5.263   0.867  0.6594 -0.5752 -0.3763
  411MOL0     H56649   9.069   5.667   1.311  0.5180 -0.0081 -0.5834
  411MOL0     H56650   9.289   5.682   1.425  0.7025 -1.0312  1.5990
  411MOL0     H56651   9.611   5.547   1.522 -1.2880  1.2327  2.1779
  411MOL0     H56652   9.501   5.634   1.415  2.0614  0.9569  0.3417
  411MOL0     H56653   9.494   5.409   1.273 -2.2067  2.0043  1.5457
  411MOL0     H56654   9.654   5.483   1.290 -1.4018  1.4905  0.2267
  411MOL0     H56655   9.673   5.311   1.488 -1.8964 -1.4990  0.9791
  411MOL0     H56656   9.538   5.228   1.405  0.3340 -1.1100 -2.1830
  411MOL0     H56657   9.672   5.263   1.198 -2.6642 -2.0027  1.0062
  411MOL0     H56658   9.818   5.289   1.298 -0.5676  1.0286 -1.8882
  411MOL0     H56659   9.644   5.042   1.273  0.6296 -1.1057 -3.2357
  411MOL0     H56660   9.744   5.057   1.407  2.9719 -0.0789  0.1580
  411MOL0     H56661   9.945   5.109   1.252 -2.3148  3.1226  0.2420
  411MOL0     H56662   9.895   4.936   1.251  1.5808  0.3586  0.4554
  411MOL0     H56663   9.772   5.124   1.041  2.1595  1.1557  0.7813
  411MOL0     H56664   9.757   4.961   1.045 -0.5512 -0.5658  0.9590
  411MOL0     H56665  10.014   4.925   1.037  3.1070  0.5264 -2.3939
  411MOL0     H56666   9.937   4.981   0.889  0.9284  0.6324  0.4467
  411MOL0     H56667  10.152   5.107   1.176 -0.7324  1.3083  0.9776
  411MOL0     H56668  10.347   5.323   1.173 -3.4014 -1.2257 -0.6853
  411MOL0     H56669  10.447   5.336   1.029  2.0319 -2.2713 -0.1820
  411MOL0     H56670  10.553   5.185   1.201 -0.3263  1.9242 -0.7276
  411MOL0     H56671  10.391   5.106   1.213 -2.1080  0.3409 -1.3290
  411MOL0     H56672  10.614   5.002   1.051 -1.1231 -2.7376 -0.5585
  411MOL0     H56673  10.447   4.977   1.012  0.3236 -0.9399 -1.4346
  411MOL0     H56674  10.596   5.047   0.821 -2.4601  0.7674 -1.8714
  411MOL0     H56675  10.477   5.178   0.851  0.7929  0.9913 -1.0342
  411MOL0     H56676  10.766   5.102   0.664  2.4514  0.6212 -1.6424
  411MOL0     H56677  11.117   5.090   0.571 -0.0417 -0.8515 -1.3573
  411MOL0     H56678  10.959   5.089   0.503  1.1528 -0.7764 -1.3758
  411MOL0     H56679  11.021   4.942   0.552  2.7052  0.7022 -1.9195
  411MOL0     H56680  11.471   5.131   0.687  4.2046  0.1008  0.3657
  411MOL0     H56681  11.691   5.053   0.667 -0.0726 -0.3391 -1.4871
  411MOL0     H56682  11.868   4.943   0.798 -0.3985 -0.4345  0.2581
  411MOL0     H56683  11.874   4.778   0.860 -0.8128  0.2864  0.6233
  411MOL0     H56684  11.995   4.711   0.652 -1.6067 -0.7448  2.8730
  411MOL0     H56685  12.025   4.890   0.617  0.0161 -1.3032 -1.5007
  411MOL0     H56686  12.100   4.823   0.887 -1.2063 -1.6033 -0.3029
  411MOL0     H56687  12.184   4.914   0.757 -0.4484  0.7975  2.5848
  411MOL0     H56688  12.257   4.676   0.663  0.6083 -0.1566  0.2930
  411MOL0     H56689  12.205   4.631   0.824  0.8426  0.9068  0.8572
  411MOL0     H56690  12.340   4.796   0.926  0.8375 -1.4575  0.1365
  411MOL0     H56691  12.435   4.670   0.850 -2.2934 -1.1229  1.5607
  411MOL0     H56692  12.365   4.913   0.677 -4.4203 -3.4154  1.6971
  411MOL0     H56693  12.507   4.814   0.664  2.5803  2.7047  1.0368
  411MOL0     H56694  12.475   5.029   0.886 -1.3929 -0.1259 -0.0889
  411MOL0     H56695  12.565   5.032   0.741 -0.3610 -0.0098 -0.1363
  411MOL0     H56696  12.723   4.853   0.803 -0.7484 -3.3484  0.9959
  411MOL0     H56697  12.626   4.805   0.939 -0.4583  0.8338  0.2993
  411MOL0     H56698  11.545   4.651   0.725 -0.5761 -0.1595 -2.8570
  411MOL0     H56699  11.327   4.732   0.771 -0.3407 -0.0110  2.3542
  411MOL0     H56700  11.078   5.194   1.035 -0.5737  1.6555 -0.4833
  411MOL0     H56701  10.842   5.248   1.067  2.3106 -0.0222  1.7881
  411MOL0     H56702   9.289   5.251   1.462 -1.4688 -1.9925 -0.4065
  411MOL0     H56703   9.057   5.248   1.360 -2.5242  1.2555  1.0163
  411MOL0     H56704   8.709   5.545   1.219 -1.4805 -0.8037  2.5735
  411MOL0     H56705   8.465   5.532   1.140  0.0376  1.2309 -0.9487
  411MOL0     H56706   8.388   5.206   0.845  0.0148  1.6012 -0.7579
  411MOL0     H56707   8.322   5.196   1.005 -0.6457  1.3108  0.4848
  411MOL0     H56708   8.188   5.233   0.751 -2.0845  0.2893 -0.8932
  411MOL0     H56709   8.138   5.355   0.865 -0.3061  0.2443  1.6193
  411MOL0     H56710   8.131   5.054   0.900  2.7192 -0.6152  0.0703
  411MOL0     H56711   8.095   5.159   1.038 -1.5540 -2.0593 -0.2341
  411MOL0     H56712   7.966   5.158   0.777  1.0860 -2.1116  0.4647
  411MOL0     H56713   7.911   5.259   0.910 -0.1697  0.7190  0.6951
  411MOL0     H56714   7.734   4.876   0.972  0.0594 -0.3795 -2.0469
  411MOL0     H56715   8.592   5.267   0.825 -0.2634  1.8888 -2.3363
  411MOL0     H56716   8.902   5.179   0.913  2.3403  1.0453  0.7687
  411MOL0     H56717   8.819   5.247   0.762 -2.3725 -0.5965  0.3900
  411MOL0     H56718   8.924   5.341   0.857  0.4901 -0.5553 -1.6393
  412MOL0     O56719   8.385   2.453   8.470 -0.2755  0.6359  0.8320
  412MOL0     C56720   8.318   2.395   8.550 -0.0482 -0.8229  0.2680
  412MOL0     O56721   8.363   2.331   8.661 -0.0534  0.5384  0.2317
  412MOL0     C56722   8.502   2.317   8.692  0.0304 -0.0363 -0.0575
  412MOL0     C56723   8.618   2.376   8.634  0.3786 -0.4066 -0.1400
  412MOL0     C56724   8.746   2.364   8.689 -0.7668 -0.4902 -0.0712
  412MOL0     C56725   8.763   2.281   8.805  0.2239 -0.1545  0.9065
  412MOL0     O56726   8.888   2.282   8.853 -0.0776  1.1533  0.1119
  412MOL0     C56727   8.915   2.230   8.985  0.2398 -0.5885  0.5575
  412MOL0     C56728   9.049   2.265   9.045 -0.0276 -0.8288 -0.2890
  412MOL0     C56729   9.151   2.172   8.991 -0.8334  0.3143  0.1457
  412MOL0     C56730   9.297   2.224   9.015  0.2844  0.1297 -0.4127
  412MOL0     C56731   9.392   2.120   8.944  0.6546 -0.6870 -0.4000
  412MOL0     C56732   9.531   2.141   8.998  1.0183  0.4059 -0.6958
  412MOL0     C56733   9.599   2.270   8.954  0.0448 -0.9345  0.5797
  412MOL0     C56734   9.747   2.275   8.937 -1.2735 -0.6006  0.2111
  412MOL0     N56735   9.807   2.267   9.070  0.0240 -0.2716  0.1693
  412MOL0     C56736   9.822   2.157   9.148 -0.3662  0.8416  0.2713
  412MOL0     C56737   9.896   2.184   9.255  0.0881  0.0607  0.5141
  412MOL0     C56738   9.933   2.087   9.360 -0.3175 -0.7208 -0.4490
  412MOL0     C56739  10.024   1.966   9.330 -0.4139 -0.1849  0.3190
  412MOL0     C56740  10.083   1.881   9.453  0.0828 -0.3889  0.7852
  412MOL0     C56741  10.170   1.948   9.559  0.0451  0.2878  0.4788
  412MOL0     O56742  10.214   1.856   9.665  0.3490  0.1934 -0.3093
  412MOL0     C56743  10.316   1.896   9.749 -0.2889 -0.2645  0.5167
  412MOL0     C56744  10.365   2.032   9.758 -0.0914  0.0369 -0.7245
  412MOL0     C56745  10.451   2.067   9.861  0.3257  0.3615  0.3933
  412MOL0     C56746  10.509   2.205   9.857 -0.4920  0.1657  0.0069
  412MOL0     C56747  10.498   1.972   9.948  0.4420  0.3939  0.3662
  412MOL0     C56748  10.606   1.999  10.042  0.3962 -0.4765  0.4734
  412MOL0     O56749  10.706   1.910  10.032 -0.1070  0.7070  0.4946
  412MOL0     C56750  10.817   1.924  10.104  0.5432  1.4389  0.5090
  412MOL0     C56751  10.909   2.031  10.084  0.2385 -0.6768  0.2380
  412MOL0     C56752  11.030   2.027  10.150 -0.3828  0.1133 -0.8092
  412MOL0     C56753  11.064   1.911  10.226 -0.5214 -0.2227 -0.0374
  412MOL0     O56754  11.179   1.894  10.298  0.3521 -0.1965  0.1039
  412MOL0     C56755  11.283   1.979  10.260 -0.1791 -0.5479  0.4206
  412MOL0     C56756  11.419   1.943  10.326  0.3469 -0.4668  0.4074
  412MOL0     C56757  11.540   2.013  10.270  1.0045 -1.3059  0.0691
  412MOL0     C56758  11.633   1.943  10.179 -0.0458 -0.0837 -0.1931
  412MOL0     C56759  11.745   2.040  10.125  0.3004  0.9302 -0.9105
  412MOL0     C56760  11.692   2.150  10.031  0.2290 -0.2199  0.2380
  412MOL0     C56761  11.807   2.190   9.933  0.5249  0.1385 -0.1243
  412MOL0     C56762  11.940   2.228  10.003  0.2362 -0.0663 -0.0847
  412MOL0    Cl56763  12.050   2.265   9.877 -0.3943  0.3114  0.1623
  412MOL0     C56764  10.971   1.810  10.239 -0.5553  0.7843  0.0623
  412MOL0     C56765  10.845   1.814  10.177 -0.6942  0.8447 -1.0311
  412MOL0     O56766  10.607   2.097  10.120  0.0944  0.2229  0.6893
  412MOL0     C56767  10.448   1.835   9.944 -0.7631  0.1793  0.0844
  412MOL0     C56768  10.367   1.805   9.846  1.0635 -0.3512 -0.3641
  412MOL0     N56769   9.922   2.318   9.240 -0.1814 -0.3265  0.2294
  412MOL0     N56770   9.876   2.371   9.130 -0.4610 -0.2564 -0.0017
  412MOL0     C56771   8.657   2.218   8.856 -0.3791 -0.9702  0.1458
  412MOL0     C56772   8.531   2.247   8.802  0.0059  0.3545 -0.4550
  412MOL0     C56773   8.168   2.388   8.515 -0.8097  0.8332  0.0538
  412MOL0     C56774   8.126   2.463   8.410 -0.1352  0.0436  0.4480
  412MOL0     C56775   7.997   2.454   8.377 -0.7615 -0.3486  0.7753
  412MOL0     C56776   7.901   2.388   8.461 -0.4956 -0.2092 -0.9873
  412MOL0     O56777   7.772   2.394   8.429  0.6513 -0.1523  0.8876
  412MOL0     C56778   7.667   2.384   8.518 -0.9028  0.0812 -0.7113
  412MOL0     C56779   7.577   2.501   8.517  1.1366  0.0987 -0.4703
  412MOL0     C56780   7.481   2.500   8.399 -0.0994 -0.4637 -0.5046
  412MOL0     C56781   7.442   2.648   8.367  0.4206  0.2097  0.0126
  412MOL0     C56782   7.336   2.686   8.465 -0.1183 -0.1005 -0.1140
  412MOL0     C56783   7.245   2.712   8.536 -0.5177  0.0189 -0.2270
  412MOL0     C56784   7.951   2.326   8.579 -1.4537 -0.4162 -0.3080
  412MOL0     C56785   8.086   2.309   8.599 -0.3563 -0.4166 -0.0433
  412MOL0     C56786   8.116   2.213   8.715 -0.5180 -0.3374 -0.5477
  412MOL0     H56787   8.612   2.442   8.547  2.2489 -0.1220 -0.0799
  412MOL0     H56788   8.826   2.420   8.643  0.7197 -0.4412  2.4084
  412MOL0     H56789   8.892   2.124   8.995 -0.0081 -0.9335 -2.6248
  412MOL0     H56790   8.851   2.291   9.051  0.6078  1.1495 -0.6337
  412MOL0     H56791   9.076   2.371   9.040 -2.7318 -0.0467  0.0181
  412MOL0     H56792   9.039   2.257   9.153 -0.6774 -1.3730 -0.3788
  412MOL0     H56793   9.137   2.067   9.019  0.3016 -0.0325 -0.5364
  412MOL0     H56794   9.138   2.182   8.883 -1.4852  0.4502  0.2319
  412MOL0     H56795   9.297   2.328   8.982 -1.2027 -0.2846 -1.8246
  412MOL0     H56796   9.317   2.214   9.122 -2.3234  0.4542  0.1683
  412MOL0     H56797   9.389   2.141   8.837  0.5484 -2.0156 -0.6792
  412MOL0     H56798   9.362   2.017   8.965 -1.8081 -0.1200 -0.8980
  412MOL0     H56799   9.523   2.141   9.107 -2.7895 -0.9398 -0.8221
  412MOL0     H56800   9.598   2.057   8.977  0.2855 -0.0692 -1.1693
  412MOL0     H56801   9.570   2.345   9.028 -0.2453 -2.4116  2.0083
  412MOL0     H56802   9.549   2.295   8.860 -3.1340 -0.0135  2.3649
  412MOL0     H56803   9.776   2.190   8.875 -2.5301  0.8208 -2.5055
  412MOL0     H56804   9.775   2.362   8.877 -0.9763 -2.5049 -2.6158
  412MOL0     H56805   9.789   2.055   9.130  1.6403  0.4841 -1.6582
  412MOL0     H56806   9.844   2.050   9.411 -0.0559 -1.0214 -0.2087
  412MOL0     H56807   9.977   2.154   9.435  2.8575 -0.6404 -2.2202
  412MOL0     H56808   9.967   1.907   9.257 -1.1592  2.7551 -1.6625
  412MOL0     H56809  10.108   2.012   9.278 -1.9238  1.2208 -1.0209
  412MOL0     H56810   9.995   1.835   9.498 -0.5081 -4.0316 -3.4714
  412MOL0     H56811  10.140   1.794   9.419  0.9946  0.6467 -0.4428
  412MOL0     H56812  10.257   1.990   9.506  1.0714 -2.1996  0.0393
  412MOL0     H56813  10.109   2.026   9.605  0.7218 -0.0780  2.0811
  412MOL0     H56814  10.336   2.114   9.693 -1.4747  1.1468  1.1679
  412MOL0     H56815  10.464   2.261   9.940  1.0256  0.5500  0.5937
  412MOL0     H56816  10.503   2.266   9.766  2.3335  1.9178  0.8783
  412MOL0     H56817  10.617   2.198   9.873 -0.2580  2.7176  0.0025
  412MOL0     H56818  10.880   2.115  10.022 -3.0584 -1.4390  0.5783
  412MOL0     H56819  11.093   2.115  10.146 -0.8327  0.3977 -2.5882
  412MOL0     H56820  11.311   1.975  10.154  2.6809  1.2470  1.0030
  412MOL0     H56821  11.268   2.085  10.282  0.5798 -0.7042  1.7701
  412MOL0     H56822  11.410   1.970  10.432 -0.6240 -0.7261  0.4029
  412MOL0     H56823  11.441   1.837  10.312 -1.4345 -0.7268 -0.7741
  412MOL0     H56824  11.611   2.046  10.347  1.2072  0.2920 -0.7535
  412MOL0     H56825  11.500   2.106  10.229  0.3609 -1.2965  0.7049
  412MOL0     H56826  11.593   1.887  10.094 -0.3099 -0.1978  0.0071
  412MOL0     H56827  11.673   1.859  10.237  2.0773  0.7095 -0.3931
  412MOL0     H56828  11.803   2.084  10.206 -0.7061 -1.7982  1.4528
  412MOL0     H56829  11.813   1.974  10.070 -3.1087 -2.0494 -1.9657
  412MOL0     H56830  11.650   2.235  10.086  1.0999 -1.0426  2.2539
  412MOL0     H56831  11.622   2.114   9.956 -1.0530  2.8625 -0.1831
  412MOL0     H56832  11.773   2.281   9.883  1.9780  1.7395  1.6244
  412MOL0     H56833  11.830   2.117   9.855 -1.4409 -2.4633  1.6008
  412MOL0     H56834  11.977   2.151  10.071 -0.6682  2.5188  3.6343
  412MOL0     H56835  11.917   2.312  10.070  0.8368  0.0095  0.0328
  412MOL0     H56836  11.020   1.726  10.287 -0.2031  2.0261  1.9833
  412MOL0     H56837  10.788   1.722  10.167  3.2337 -1.8418 -0.7704
  412MOL0     H56838  10.487   1.762  10.014  0.6596  2.6120  2.0282
  412MOL0     H56839  10.348   1.699   9.836 -0.3391  0.0066 -1.9871
  412MOL0     H56840   8.669   2.156   8.944  2.2606  1.1481  1.4074
  412MOL0     H56841   8.443   2.210   8.854  0.8742  0.4471  1.1285
  412MOL0     H56842   8.196   2.529   8.359 -0.8905  0.8237  0.4044
  412MOL0     H56843   7.962   2.500   8.285  1.2092 -2.0266 -0.9190
  412MOL0     H56844   7.621   2.292   8.481 -2.6156  0.2402  0.8950
  412MOL0     H56845   7.708   2.371   8.618 -0.6819  0.1771 -0.7885
  412MOL0     H56846   7.632   2.593   8.536  2.9614 -1.4967  2.9105
  412MOL0     H56847   7.514   2.495   8.606  2.2867 -0.1909  0.3529
  412MOL0     H56848   7.528   2.464   8.307 -0.7591 -0.4770 -0.8426
  412MOL0     H56849   7.394   2.435   8.414  0.1647 -0.7756 -0.3256
  412MOL0     H56850   7.396   2.658   8.268  0.7098  0.3462 -0.1110
  412MOL0     H56851   7.530   2.712   8.373  1.6824 -1.5173  0.6867
  412MOL0     H56852   7.172   2.735   8.611  0.0630  2.6008 -0.3637
  412MOL0     H56853   7.881   2.267   8.637  0.3130 -3.4589 -1.0396
  412MOL0     H56854   8.180   2.132   8.678 -1.8931 -0.9514 -1.6688
  412MOL0     H56855   8.179   2.268   8.786  1.3394 -0.2118 -2.2142
  412MOL0     H56856   8.028   2.167   8.762  0.8466 -0.5978  1.9145
  413MOL0     O56857   0.074   5.206   5.178  0.1379 -0.5902 -0.0360
  413MOL0     C56858   0.026   5.240   5.286  0.4064 -0.3130 -0.4169
  413MOL0     O56859   0.086   5.219   5.406 -1.1102  0.2825  0.2789
  413MOL0     C56860   0.200   5.150   5.421 -0.6159 -0.1260  0.6946
  413MOL0     C56861   0.242   5.041   5.341  0.2791  0.7346 -0.8181
  413MOL0     C56862   0.366   4.983   5.357  0.3433  0.7912 -0.6212
  413MOL0     C56863   0.457   5.023   5.457 -0.1037  0.2541  0.0629
  413MOL0     O56864   0.566   4.959   5.475 -0.8455  0.8866 -0.2816
  413MOL0     C56865   0.623   4.968   5.601  0.0027 -0.2052  0.5815
  413MOL0     C56866   0.739   4.860   5.620  1.0885 -0.2440  0.1734
  413MOL0     C56867   0.829   4.858   5.744  0.3882 -0.2991 -0.0231
  413MOL0     C56868   0.925   4.979   5.741 -0.3507 -0.2134 -0.1218
  413MOL0     C56869   0.991   5.011   5.873  0.4963 -1.2660  0.0587
  413MOL0     C56870   1.074   4.896   5.918 -0.2869  0.5513 -0.8681
  413MOL0     C56871   1.169   4.934   6.029 -0.3459  0.0317 -0.1152
  413MOL0     C56872   1.103   4.978   6.148 -0.0349  0.3517  0.1685
  413MOL0     N56873   1.192   5.021   6.257 -0.4447  0.3779  0.6818
  413MOL0     C56874   1.283   5.127   6.270 -0.0824 -0.3508  1.0037
  413MOL0     C56875   1.370   5.102   6.363 -0.4079 -0.0612 -1.0200
  413MOL0     C56876   1.477   5.187   6.416 -0.0695 -0.0743  0.3948
  413MOL0     C56877   1.616   5.144   6.408 -0.6638 -0.3341 -0.1717
  413MOL0     C56878   1.645   5.006   6.470 -0.8514  0.3417 -0.6262
  413MOL0     C56879   1.791   4.973   6.448 -0.1652 -0.9668  0.4898
  413MOL0     O56880   1.814   4.853   6.517  0.0817  0.3296 -1.0844
  413MOL0     C56881   1.929   4.782   6.470  0.3858 -0.6956 -0.3418
  413MOL0     C56882   1.958   4.665   6.549 -0.0207 -0.1467  0.1458
  413MOL0     C56883   2.073   4.597   6.531  0.1120  0.4297  0.0135
  413MOL0     C56884   2.082   4.470   6.618  0.1043 -0.1721 -0.2407
  413MOL0     C56885   2.170   4.644   6.432  0.7843 -0.3694 -0.4803
  413MOL0     C56886   2.295   4.570   6.391  0.6057 -0.8898 -0.6021
  413MOL0     O56887   2.282   4.435   6.391 -0.4426 -0.1392 -0.2918
  413MOL0     C56888   2.401   4.365   6.377  0.1430 -0.5374 -0.1964
  413MOL0     C56889   2.456   4.322   6.503 -0.1138 -0.2598  0.5824
  413MOL0     C56890   2.574   4.253   6.499 -0.4128  0.8075  0.0905
  413MOL0     C56891   2.624   4.197   6.378  0.0274 -0.3201  0.5443
  413MOL0     O56892   2.721   4.103   6.384 -0.3506  0.1931 -0.4813
  413MOL0     C56893   2.809   4.078   6.273 -0.5560  0.0561  0.0412
  413MOL0     C56894   2.920   3.981   6.309 -0.0411  0.4571 -0.6579
  413MOL0     C56895   3.016   4.021   6.437 -0.6223  0.5792  0.0985
  413MOL0     C56896   3.108   3.899   6.458  0.1128  0.0924 -0.0009
  413MOL0     C56897   3.243   3.905   6.382  0.6729  0.6471  0.2835
  413MOL0     C56898   3.347   3.808   6.436 -0.3149  0.9473  0.5167
  413MOL0     C56899   3.289   3.672   6.479 -0.4508  0.6626 -0.2215
  413MOL0     C56900   3.386   3.584   6.557 -0.4389 -0.3722  0.1572
  413MOL0    Cl56901   3.531   3.531   6.468 -0.1489 -0.2503 -0.7335
  413MOL0     C56902   2.556   4.226   6.254  0.2900  0.4521 -0.8935
  413MOL0     C56903   2.450   4.321   6.255  0.3894  0.6086 -0.5289
  413MOL0     O56904   2.394   4.638   6.369 -0.2498 -0.2144 -0.1028
  413MOL0     C56905   2.146   4.771   6.368  0.3414 -0.2278  0.5792
  413MOL0     C56906   2.025   4.834   6.382 -0.1138 -0.5007 -0.8087
  413MOL0     N56907   1.326   4.987   6.432 -0.1838  0.2462  0.7430
  413MOL0     N56908   1.228   4.942   6.366  0.2179 -0.0874  0.4646
  413MOL0     C56909   0.417   5.134   5.531 -0.0375  0.0387 -0.6700
  413MOL0     C56910   0.295   5.194   5.511  0.2478  0.0301  0.1038
  413MOL0     C56911  -0.105   5.290   5.289 -0.2509 -0.8460 -0.3927
  413MOL0     C56912  -0.181   5.273   5.177 -0.8532 -1.2523 -0.2087
  413MOL0     C56913  -0.306   5.331   5.177  0.1481  0.3596  0.0772
  413MOL0     C56914  -0.372   5.381   5.286 -0.2600  0.5031 -0.0365
  413MOL0     O56915  -0.498   5.413   5.274  0.0030  0.1008  0.7091
  413MOL0     C56916  -0.570   5.443   5.393 -0.3213 -0.0698 -0.2480
  413MOL0     C56917  -0.711   5.486   5.380  0.3334 -0.5877  0.5176
  413MOL0     C56918  -0.728   5.618   5.292  0.4983  0.6507 -0.3232
  413MOL0     C56919  -0.729   5.597   5.140  0.6994  0.1766 -0.1988
  413MOL0     C56920  -0.745   5.727   5.075 -0.7091 -0.5068  0.5896
  413MOL0     C56921  -0.746   5.841   5.032 -0.3984 -0.2006 -0.5652
  413MOL0     C56922  -0.296   5.387   5.406  0.6912 -0.3217  0.0807
  413MOL0     C56923  -0.158   5.365   5.405  0.6247  0.5254 -1.0567
  413MOL0     C56924  -0.083   5.394   5.532 -0.8179  0.5118  0.0633
  413MOL0     H56925   0.168   5.003   5.272  0.9655  1.8929 -2.2473
  413MOL0     H56926   0.380   4.895   5.294 -1.4967 -1.3602  1.7868
  413MOL0     H56927   0.552   4.966   5.684 -0.8615 -1.1842 -0.1451
  413MOL0     H56928   0.677   5.061   5.616 -1.5654  0.8626 -0.1245
  413MOL0     H56929   0.693   4.761   5.617 -4.3573  1.9362  0.1715
  413MOL0     H56930   0.807   4.882   5.537  1.0957  0.5324  0.3778
  413MOL0     H56931   0.755   4.859   5.824 -3.2183 -4.2136 -2.8572
  413MOL0     H56932   0.884   4.764   5.755  0.6277 -0.0572  0.9189
  413MOL0     H56933   0.990   4.957   5.655 -1.3091 -0.8330 -0.7143
  413MOL0     H56934   0.857   5.061   5.716 -2.1171 -1.1549  1.3996
  413MOL0     H56935   0.911   5.031   5.946  0.2223 -0.6350 -0.4106
  413MOL0     H56936   1.050   5.100   5.851 -1.3467 -0.2762 -1.1025
  413MOL0     H56937   1.003   4.817   5.943  1.8494 -1.4339 -0.6674
  413MOL0     H56938   1.129   4.856   5.832 -2.2610 -0.4065 -1.7408
  413MOL0     H56939   1.238   5.013   5.997  0.1415 -0.3180  0.0667
  413MOL0     H56940   1.225   4.843   6.050  0.2451 -0.0575 -1.8896
  413MOL0     H56941   1.028   5.057   6.135 -2.4771 -1.6451  1.3618
  413MOL0     H56942   1.057   4.888   6.191  0.7860  0.6474  1.7036
  413MOL0     H56943   1.289   5.218   6.212  2.0081 -0.6140  0.7407
  413MOL0     H56944   1.454   5.209   6.520 -0.8192  0.1566  0.1826
  413MOL0     H56945   1.463   5.286   6.371 -1.7305  1.3032  3.6033
  413MOL0     H56946   1.638   5.135   6.301  2.3154 -2.0971  0.4984
  413MOL0     H56947   1.679   5.223   6.451  0.1170 -1.8855  1.6734
  413MOL0     H56948   1.619   5.020   6.575  0.1801 -0.3555 -0.2602
  413MOL0     H56949   1.584   4.921   6.437  0.7360 -1.8502  1.7143
  413MOL0     H56950   1.807   4.952   6.342  0.3885 -2.0914  0.7798
  413MOL0     H56951   1.859   5.055   6.472 -0.2883 -1.3107  2.1939
  413MOL0     H56952   1.894   4.634   6.631  0.6765  1.6817  1.4529
  413MOL0     H56953   2.182   4.426   6.620  0.1931 -0.0703  2.6890
  413MOL0     H56954   2.017   4.394   6.575 -0.4453  0.8507 -1.2676
  413MOL0     H56955   2.059   4.491   6.723  0.7675 -0.0203 -0.1249
  413MOL0     H56956   2.403   4.349   6.594 -0.7054 -3.5622  1.3433
  413MOL0     H56957   2.630   4.220   6.587  0.4894  2.7924  0.3335
  413MOL0     H56958   2.747   4.028   6.198  0.0660 -3.0662  1.4210
  413MOL0     H56959   2.861   4.168   6.242  2.8080 -1.0037  2.1007
  413MOL0     H56960   2.871   3.886   6.335  1.0150 -0.4390 -1.8546
  413MOL0     H56961   2.984   3.975   6.221 -0.3697  0.3913 -0.8938
  413MOL0     H56962   2.952   4.038   6.524 -0.0809 -0.0804  0.6378
  413MOL0     H56963   3.070   4.114   6.420  1.0307 -0.1712  0.9668
  413MOL0     H56964   3.055   3.806   6.434  2.3865 -1.1399 -0.4598
  413MOL0     H56965   3.126   3.890   6.566 -1.1780 -0.3719  0.1963
  413MOL0     H56966   3.224   3.880   6.277  0.3981  0.3523  0.4038
  413MOL0     H56967   3.277   4.009   6.385  0.0349  0.8851 -0.4259
  413MOL0     H56968   3.383   3.853   6.529 -0.4236 -0.3958  1.2199
  413MOL0     H56969   3.427   3.795   6.362 -0.4212 -2.5848  0.8637
  413MOL0     H56970   3.247   3.621   6.391 -2.4474  1.9932 -0.0954
  413MOL0     H56971   3.210   3.695   6.550 -1.6572  4.0304 -2.4095
  413MOL0     H56972   3.326   3.501   6.596 -2.1319 -0.1235 -1.7872
  413MOL0     H56973   3.401   3.645   6.647 -0.7677 -0.2272  0.1164
  413MOL0     H56974   2.584   4.175   6.162 -1.8198 -3.4832  0.4529
  413MOL0     H56975   2.406   4.350   6.160 -1.1772  0.1913  0.0387
  413MOL0     H56976   2.222   4.812   6.301 -0.1644 -1.1311 -0.5957
  413MOL0     H56977   2.002   4.928   6.333  0.8794 -0.3391 -0.9807
  413MOL0     H56978   0.483   5.195   5.592  0.3325 -2.0815  1.1294
  413MOL0     H56979   0.288   5.293   5.556 -0.0108  1.0624 -2.0610
  413MOL0     H56980  -0.147   5.241   5.080  0.0126 -1.7929  0.2600
  413MOL0     H56981  -0.361   5.314   5.085 -0.7885  2.9873  0.0607
  413MOL0     H56982  -0.560   5.359   5.462  1.1157  0.5794  0.3796
  413MOL0     H56983  -0.518   5.533   5.427 -1.9507  0.9177 -0.2587
  413MOL0     H56984  -0.753   5.500   5.480 -3.9195 -0.3179 -1.1147
  413MOL0     H56985  -0.777   5.412   5.336 -1.0230  1.0579 -0.3409
  413MOL0     H56986  -0.814   5.667   5.338 -0.0943 -1.3295  0.7940
  413MOL0     H56987  -0.642   5.679   5.323 -1.9720  3.0949  2.3044
  413MOL0     H56988  -0.798   5.515   5.119 -0.4138  1.1342 -0.3300
  413MOL0     H56989  -0.628   5.564   5.113  1.1727  1.2023  0.2581
  413MOL0     H56990  -0.739   5.937   4.986  1.0711 -0.6246 -1.2901
  413MOL0     H56991  -0.337   5.417   5.502 -1.5826  0.1520 -0.9679
  413MOL0     H56992   0.007   5.452   5.509 -0.7512  0.1852 -0.5299
  413MOL0     H56993  -0.149   5.459   5.590 -3.4951 -1.4513 -0.5989
  413MOL0     H56994  -0.052   5.301   5.580 -1.2579 -0.7535 -1.9785
  414MOL0     O56995   0.303  10.596  10.310 -0.1560  0.3719  0.7512
  414MOL0     C56996   0.228  10.658  10.230  0.6172  0.7004 -0.2826
  414MOL0     O56997   0.270  10.731  10.121  0.4450  0.0137  0.5255
  414MOL0     C56998   0.396  10.714  10.073  0.2933 -0.0851 -0.7046
  414MOL0     C56999   0.444  10.584  10.030  0.2150 -0.3239 -0.1047
  414MOL0     C57000   0.574  10.573   9.983 -0.0161  0.2576 -0.3933
  414MOL0     C57001   0.655  10.687   9.977 -0.4412 -0.1272 -0.1873
  414MOL0     O57002   0.792  10.678   9.934  0.2990  0.6937 -0.5466
  414MOL0     C57003   0.820  10.569   9.847  0.1605  1.1244 -0.8244
  414MOL0     C57004   0.951  10.617   9.778 -0.3876  0.6087 -0.2240
  414MOL0     C57005   1.065  10.634   9.882 -0.3020 -0.6080  0.1012
  414MOL0     C57006   1.206  10.629   9.812  0.1879 -0.0603 -0.0464
  414MOL0     C57007   1.314  10.689   9.906  0.3624  0.4576 -0.0219
  414MOL0     C57008   1.348  10.585  10.016  0.5328  0.3095  0.1131
  414MOL0     C57009   1.475  10.639  10.090  0.1344  0.0229 -0.1996
  414MOL0     C57010   1.553  10.529  10.170 -0.4377 -0.4319  0.7888
  414MOL0     N57011   1.636  10.463  10.070  0.0334  0.7066 -0.0977
  414MOL0     C57012   1.765  10.422  10.106  0.5157 -0.7833  0.0187
  414MOL0     C57013   1.809  10.357   9.997 -0.8104  0.7318 -0.2099
  414MOL0     C57014   1.951  10.321   9.962  1.3777 -0.5597  0.1598
  414MOL0     C57015   2.060  10.375  10.049 -0.4814  0.2243  0.2899
  414MOL0     C57016   2.197  10.316   9.996  0.1509 -0.2551 -1.0454
  414MOL0     C57017   2.315  10.349  10.104  0.2098  0.5824  0.2521
  414MOL0     O57018   2.395  10.229  10.106  0.2572 -0.9559  0.1651
  414MOL0     C57019   2.498  10.194  10.023  0.3597 -0.1907 -0.3925
  414MOL0     C57020   2.510  10.248   9.895  0.1785 -1.1508  0.9020
  414MOL0     C57021   2.622  10.218   9.825  0.0891 -0.0645  0.0622
  414MOL0     C57022   2.637  10.309   9.703 -0.2721  0.3960  0.7043
  414MOL0     C57023   2.728  10.138   9.875 -0.1995  0.2738 -0.0338
  414MOL0     C57024   2.852  10.110   9.800 -0.3099  0.8656 -0.0901
  414MOL0     O57025   2.946  10.027   9.869 -0.8298  0.8756 -0.2223
  414MOL0     C57026   3.026   9.946   9.789 -0.7543  0.1628 -0.3341
  414MOL0     C57027   3.165   9.960   9.792 -0.5417 -0.5213 -0.1225
  414MOL0     C57028   3.247   9.889   9.699 -0.6659 -0.1669  0.0379
  414MOL0     C57029   3.184   9.825   9.594 -0.9986 -0.4136  0.4771
  414MOL0     O57030   3.263   9.785   9.487  0.8473  0.4129  0.4909
  414MOL0     C57031   3.274   9.882   9.386 -0.4094 -0.1925  0.3222
  414MOL0     C57032   3.352   9.826   9.265  0.3006  0.3733  0.3337
  414MOL0     C57033   3.389   9.935   9.161 -0.0872  0.9594 -0.5253
  414MOL0     C57034   3.521  10.000   9.186  0.2900 -0.4149 -0.4326
  414MOL0     C57035   3.562  10.100   9.082 -0.7406 -0.6564  0.2101
  414MOL0     C57036   3.594  10.044   8.943 -1.1525  0.4170  0.2984
  414MOL0     C57037   3.734   9.979   8.927  0.3907 -0.3923 -0.7056
  414MOL0     C57038   3.788   9.950   8.785  0.4153 -0.2562 -0.0566
  414MOL0    Cl57039   3.680   9.825   8.714 -0.0122  0.6461 -0.0297
  414MOL0     C57040   3.048   9.795   9.603 -0.5574  0.3613  0.4963
  414MOL0     C57041   2.969   9.844   9.709  0.2757 -0.4421 -0.5401
  414MOL0     O57042   2.860  10.144   9.680 -0.2034 -0.3089 -0.4936
  414MOL0     C57043   2.708  10.082   9.999  0.5025 -0.1771 -0.4469
  414MOL0     C57044   2.591  10.098  10.079  0.2858 -0.6728  1.0406
  414MOL0     N57045   1.711  10.347   9.899  0.2301  0.0526 -1.5834
  414MOL0     N57046   1.610  10.416   9.942  0.8889 -0.3159 -0.6002
  414MOL0     C57047   0.611  10.808  10.019  0.2792  0.1778 -0.6793
  414MOL0     C57048   0.490  10.821  10.076  0.0973 -0.0747 -0.5396
  414MOL0     C57049   0.086  10.683  10.281 -0.1131 -0.6148  0.8500
  414MOL0     C57050   0.012  10.803  10.249 -0.0449  0.4557  0.2646
  414MOL0     C57051  -0.124  10.810  10.281 -0.6403 -0.0041  0.6961
  414MOL0     C57052  -0.189  10.713  10.352 -0.3250  0.0070 -0.5240
  414MOL0     O57053  -0.320  10.737  10.367 -0.3038 -0.8355  0.0075
  414MOL0     C57054  -0.398  10.638  10.436  0.6682 -0.0962 -0.8056
  414MOL0     C57055  -0.521  10.709  10.494  0.3575 -0.8598 -1.1539
  414MOL0     C57056  -0.483  10.830  10.583 -0.4429 -0.1019 -0.4713
  414MOL0     C57057  -0.592  10.864  10.678  0.6897 -0.1810 -0.5317
  414MOL0     C57058  -0.607  10.758  10.782  0.1420 -0.4121  0.5734
  414MOL0     C57059  -0.624  10.686  10.879 -0.0740 -0.1219 -0.0880
  414MOL0     C57060  -0.111  10.599  10.393 -0.5511 -0.5051 -0.6528
  414MOL0     C57061   0.022  10.593  10.369 -0.2251 -0.6170 -0.1886
  414MOL0     C57062   0.093  10.467  10.427 -0.2548  0.9879  0.2100
  414MOL0     H57063   0.369  10.509  10.012 -0.3832  0.1436  0.4023
  414MOL0     H57064   0.613  10.476   9.956 -1.5088 -0.4417 -0.1188
  414MOL0     H57065   0.742  10.535   9.777 -0.3364 -3.2793  1.4958
  414MOL0     H57066   0.843  10.478   9.903  1.0865  1.4131 -0.7291
  414MOL0     H57067   0.975  10.537   9.707  0.6806  0.1156  0.6685
  414MOL0     H57068   0.921  10.710   9.730  1.0160  2.1555  1.7467
  414MOL0     H57069   1.048  10.729   9.933 -1.2410 -2.4903  3.6403
  414MOL0     H57070   1.065  10.552   9.955  1.9782 -1.5169 -0.8230
  414MOL0     H57071   1.237  10.529   9.781  2.0499  1.1004 -2.2443
  414MOL0     H57072   1.207  10.694   9.724  0.4006  0.3217  0.2321
  414MOL0     H57073   1.279  10.787   9.940 -0.4021  0.1963 -0.0430
  414MOL0     H57074   1.402  10.698   9.841  0.3133 -2.0228 -0.5322
  414MOL0     H57075   1.275  10.568  10.095  1.5610 -1.6527  0.7115
  414MOL0     H57076   1.359  10.485   9.973 -3.2236 -0.9647  1.6476
  414MOL0     H57077   1.428  10.700  10.168 -2.0674  1.3130 -2.3934
  414MOL0     H57078   1.539  10.700  10.026  0.0270  2.4411  1.8214
  414MOL0     H57079   1.597  10.592  10.248 -0.1990 -0.5033  0.7121
  414MOL0     H57080   1.483  10.462  10.220  3.2465 -3.6917  2.1190
  414MOL0     H57081   1.816  10.464  10.192 -1.5488  1.4068  0.2613
  414MOL0     H57082   1.972  10.339   9.856  0.2429  1.4952  0.2176
  414MOL0     H57083   1.966  10.215   9.981  4.5402 -0.2571 -0.1257
  414MOL0     H57084   2.065  10.484  10.042  0.5839  0.2920  1.5377
  414MOL0     H57085   2.040  10.345  10.153 -0.2570 -0.6677  0.0857
  414MOL0     H57086   2.173  10.210   9.988 -2.9022  0.0491  1.8173
  414MOL0     H57087   2.218  10.363   9.900  0.4990 -0.6835 -1.1831
  414MOL0     H57088   2.372  10.441  10.085  1.3729 -0.2359 -0.4192
  414MOL0     H57089   2.260  10.358  10.198 -2.0842 -1.8395 -0.7397
  414MOL0     H57090   2.427  10.307   9.858  1.6326 -0.7168 -1.9558
  414MOL0     H57091   2.741  10.322   9.671 -0.2856  0.1187  0.5435
  414MOL0     H57092   2.616  10.408   9.743  2.1855 -0.6194  5.2406
  414MOL0     H57093   2.568  10.275   9.625  0.3114 -1.1382  0.8261
  414MOL0     H57094   3.213  10.030   9.861 -2.5943  2.8088 -1.8000
  414MOL0     H57095   3.352   9.913   9.687 -1.0655  0.7762 -1.9705
  414MOL0     H57096   3.177   9.916   9.347  0.6525  2.6632 -0.1272
  414MOL0     H57097   3.332   9.970   9.416 -1.6102  1.5437 -2.0459
  414MOL0     H57098   3.444   9.775   9.296 -0.2688  1.3478  4.1095
  414MOL0     H57099   3.294   9.740   9.229  1.7194 -1.5397  2.3345
  414MOL0     H57100   3.305  10.003   9.144  1.1262  3.5714  2.6782
  414MOL0     H57101   3.400   9.876   9.070 -0.7645  0.8977 -0.5676
  414MOL0     H57102   3.601   9.925   9.188  2.2874  1.6509  0.4319
  414MOL0     H57103   3.515  10.053   9.282 -0.2682 -0.8945 -0.1962
  414MOL0     H57104   3.483  10.176   9.072 -1.1516 -0.9228  1.2896
  414MOL0     H57105   3.649  10.150   9.125 -2.4988 -0.9562  4.6211
  414MOL0     H57106   3.602  10.135   8.883  3.0377  1.5200  2.1810
  414MOL0     H57107   3.526   9.965   8.910 -0.9091 -1.1611  3.2240
  414MOL0     H57108   3.731   9.887   8.987 -1.7880  2.0460  3.4118
  414MOL0     H57109   3.808  10.047   8.971 -0.6024  3.0251 -3.8196
  414MOL0     H57110   3.889   9.913   8.802 -0.0101 -0.5486  2.0711
  414MOL0     H57111   3.781  10.038   8.720  1.9831  0.0592  0.1659
  414MOL0     H57112   2.990   9.739   9.531  1.3168 -0.1546 -0.6495
  414MOL0     H57113   2.870   9.806   9.733  0.0237  0.4708 -0.1037
  414MOL0     H57114   2.787  10.020  10.041 -2.2513 -2.2575  2.1520
  414MOL0     H57115   2.589  10.069  10.184  2.1719  1.9823  1.9182
  414MOL0     H57116   0.678  10.893  10.028 -1.6191  1.5890  1.0828
  414MOL0     H57117   0.471  10.913  10.130  3.2042 -0.9364  2.4127
  414MOL0     H57118   0.066  10.875  10.189  0.3680 -0.3919 -0.3948
  414MOL0     H57119  -0.173  10.902  10.250 -0.3072 -0.7691 -2.4903
  414MOL0     H57120  -0.425  10.562  10.361 -0.9595  0.1621 -0.5275
  414MOL0     H57121  -0.345  10.584  10.515 -0.0438 -0.3185 -0.4653
  414MOL0     H57122  -0.590  10.643  10.549  0.6914  0.1074  0.4784
  414MOL0     H57123  -0.590  10.742  10.416 -0.8872 -1.3802 -0.3188
  414MOL0     H57124  -0.392  10.804  10.637 -0.4572 -0.1876 -0.4891
  414MOL0     H57125  -0.457  10.921  10.528  0.0735 -0.0408 -0.1277
  414MOL0     H57126  -0.683  10.877  10.618 -0.4909 -3.5830  0.2536
  414MOL0     H57127  -0.561  10.960  10.719  1.5448 -1.1257  1.1401
  414MOL0     H57128  -0.642  10.609  10.951  1.7283 -1.0955 -0.6228
  414MOL0     H57129  -0.152  10.515  10.448  1.5541 -0.8352  0.5195
  414MOL0     H57130   0.163  10.418  10.359  1.1684  2.4174  0.5965
  414MOL0     H57131   0.141  10.505  10.518 -1.1690  0.2967  1.0156
  414MOL0     H57132   0.014  10.395  10.450 -2.2638  3.6351  2.3506
  415MOL0     O57133   5.847   6.431   0.981 -0.0620  0.3745 -0.7447
  415MOL0     C57134   5.790   6.384   0.884  0.0094 -0.1510 -0.7212
  415MOL0     O57135   5.828   6.408   0.751  0.2899  0.5611 -0.4121
  415MOL0     C57136   5.939   6.483   0.743 -0.6840 -0.2732 -0.0489
  415MOL0     C57137   5.924   6.626   0.758  0.5006  0.0941 -0.5097
  415MOL0     C57138   6.031   6.713   0.727  0.1464 -0.5179  0.1126
  415MOL0     C57139   6.156   6.651   0.699  0.3387  0.0505 -0.0853
  415MOL0     O57140   6.272   6.721   0.692 -0.0321 -0.3337  0.0625
  415MOL0     C57141   6.272   6.862   0.651  0.7302  0.3814 -0.0056
  415MOL0     C57142   6.401   6.878   0.562 -0.6695 -0.8842 -0.6153
  415MOL0     C57143   6.407   6.781   0.443  0.5557  0.5522  0.4729
  415MOL0     C57144   6.494   6.835   0.333  0.8359  0.2139  0.0162
  415MOL0     C57145   6.637   6.860   0.370  0.0945 -0.1048  0.1279
  415MOL0     C57146   6.719   6.729   0.392  0.0718 -0.3964 -0.2021
  415MOL0     C57147   6.845   6.762   0.473  0.1051  0.3119  0.7927
  415MOL0     C57148   6.930   6.642   0.512 -0.7799 -0.4679 -0.5535
  415MOL0     N57149   7.021   6.590   0.403 -0.3334  0.2006 -0.1218
  415MOL0     C57150   6.990   6.489   0.313  0.0796  0.3738 -0.0373
  415MOL0     C57151   7.093   6.480   0.226 -0.4315  0.0951 -0.4739
  415MOL0     C57152   7.102   6.397   0.101  0.6785  0.6032 -0.4595
  415MOL0     C57153   7.242   6.338   0.086  0.8613  0.1575 -0.5288
  415MOL0     C57154   7.269   6.247  -0.032  0.0442  0.0058 -0.3335
  415MOL0     C57155   7.414   6.238  -0.068  0.1350  0.6161  0.4639
  415MOL0     O57156   7.488   6.165   0.029 -0.3875 -0.3282  0.0180
  415MOL0     C57157   7.606   6.120  -0.015  0.3292  0.5852  0.3508
  415MOL0     C57158   7.643   6.003   0.047  0.5628 -1.2251  1.0184
  415MOL0     C57159   7.768   5.944   0.030 -0.3437 -0.5948 -0.1651
  415MOL0     C57160   7.800   5.837   0.137 -0.8159 -0.3861 -0.2805
  415MOL0     C57161   7.872   6.022  -0.032 -0.3311  0.2640  0.3282
  415MOL0     C57162   8.018   5.984  -0.033  0.4236 -0.5877  0.3415
  415MOL0     O57163   8.108   6.086  -0.056  0.3878  0.0916 -0.2548
  415MOL0     C57164   8.238   6.076  -0.014 -0.0906  0.3864  0.0994
  415MOL0     C57165   8.253   6.108   0.119  1.0140  0.1577  0.5822
  415MOL0     C57166   8.385   6.129   0.170  0.2452  0.4718 -0.9402
  415MOL0     C57167   8.500   6.108   0.091  0.3008 -0.7869 -0.2878
  415MOL0     O57168   8.624   6.132   0.149 -0.5065  0.4758 -0.0846
  415MOL0     C57169   8.752   6.125   0.082  0.0926  0.6192  0.3271
  415MOL0     C57170   8.839   6.083   0.206 -0.2945 -0.5070  0.8626
  415MOL0     C57171   8.982   6.065   0.164  0.5898 -0.3388 -0.5386
  415MOL0     C57172   9.070   6.066   0.290 -0.3330 -0.3029  0.8619
  415MOL0     C57173   9.220   6.064   0.265  0.2234  0.2222 -0.3741
  415MOL0     C57174   9.299   5.998   0.383  0.0554 -0.7294  0.7620
  415MOL0     C57175   9.451   5.968   0.356  0.5390  0.0043  0.9772
  415MOL0     C57176   9.537   5.958   0.486 -0.4774  0.2932 -0.1894
  415MOL0    Cl57177   9.608   6.114   0.533 -0.5237  0.1048  0.1144
  415MOL0     C57178   8.487   6.075  -0.043  0.8280  1.1815  0.1776
  415MOL0     C57179   8.354   6.063  -0.096  0.1655 -0.0597  0.6403
  415MOL0     O57180   8.054   5.867  -0.034 -0.2683 -0.0322 -0.9085
  415MOL0     C57181   7.837   6.145  -0.095 -1.1921  0.2116  1.0042
  415MOL0     C57182   7.702   6.185  -0.087  0.0121 -0.8385 -0.6629
  415MOL0     N57183   7.184   6.567   0.273 -0.1019 -0.0565  0.3637
  415MOL0     N57184   7.148   6.632   0.377 -0.3658  0.5021  0.3239
  415MOL0     C57185   6.166   6.514   0.691  0.1475 -0.1000  0.0937
  415MOL0     C57186   6.054   6.430   0.700  0.2721 -0.3968 -0.3231
  415MOL0     C57187   5.673   6.296   0.916 -0.6505  0.5566 -0.7013
  415MOL0     C57188   5.573   6.333   1.004 -0.1226  0.3333 -1.2521
  415MOL0     C57189   5.463   6.247   1.021  0.9331  0.9607  0.5920
  415MOL0     C57190   5.439   6.128   0.950 -0.0069  0.3226  0.5644
  415MOL0     O57191   5.327   6.050   0.975  0.0783 -0.6865 -0.3764
  415MOL0     C57192   5.325   5.964   1.093  0.4157 -0.0265  0.6415
  415MOL0     C57193   5.437   5.864   1.081  0.4935 -0.5658 -0.0991
  415MOL0     C57194   5.414   5.747   1.173 -0.8499  0.0962  0.0670
  415MOL0     C57195   5.557   5.684   1.175 -0.4217  0.3755 -0.4114
  415MOL0     C57196   5.563   5.549   1.235  0.1627  0.2248  0.1850
  415MOL0     C57197   5.558   5.449   1.306  1.1864  0.3856 -0.0602
  415MOL0     C57198   5.544   6.093   0.865  0.3238 -0.2162  0.0770
  415MOL0     C57199   5.664   6.167   0.851  0.6446  1.1517 -0.5326
  415MOL0     C57200   5.773   6.113   0.762 -0.2037  0.1169  0.5397
  415MOL0     H57201   5.827   6.665   0.788  0.9285  0.8620 -0.0806
  415MOL0     H57202   6.010   6.820   0.729  2.0685  0.0470 -2.9775
  415MOL0     H57203   6.276   6.927   0.740  3.2586  1.0812 -0.5511
  415MOL0     H57204   6.192   6.888   0.582 -0.8760  0.1132  1.6765
  415MOL0     H57205   6.404   6.980   0.523  2.8844 -1.2283 -1.5582
  415MOL0     H57206   6.490   6.864   0.624 -0.5287  2.4205  0.0855
  415MOL0     H57207   6.454   6.689   0.478  0.5273 -0.6718 -2.4268
  415MOL0     H57208   6.306   6.751   0.412  1.5603 -1.2994 -1.2026
  415MOL0     H57209   6.482   6.764   0.251 -3.5178  0.3275  0.3226
  415MOL0     H57210   6.445   6.927   0.299 -0.8821 -0.8764 -0.5914
  415MOL0     H57211   6.641   6.929   0.455  1.7271 -1.1553  0.9611
  415MOL0     H57212   6.677   6.914   0.284  0.0079 -0.8937 -0.4124
  415MOL0     H57213   6.668   6.646   0.441  2.9771 -0.8154  2.4612
  415MOL0     H57214   6.752   6.696   0.293  1.2620  0.2620 -0.0468
  415MOL0     H57215   6.809   6.824   0.556 -0.7690  0.4997  0.2892
  415MOL0     H57216   6.903   6.828   0.409 -1.2101  0.2013 -0.5740
  415MOL0     H57217   6.999   6.675   0.590 -0.6831 -1.5114 -0.1770
  415MOL0     H57218   6.859   6.573   0.558 -0.3338  0.2111  1.2149
  415MOL0     H57219   6.901   6.428   0.311  1.6131 -1.9643 -1.4942
  415MOL0     H57220   7.082   6.451   0.008 -2.1570 -0.1575 -0.3926
  415MOL0     H57221   7.028   6.318   0.119 -0.4328  1.8125  0.5175
  415MOL0     H57222   7.305   6.427   0.073  0.5536  0.3645 -0.6056
  415MOL0     H57223   7.276   6.288   0.177  1.6902  0.2821 -0.7585
  415MOL0     H57224   7.248   6.141  -0.016 -0.3874  0.1843  0.3142
  415MOL0     H57225   7.212   6.266  -0.124 -0.0360 -3.3715 -1.0870
  415MOL0     H57226   7.427   6.183  -0.163  0.6175  1.8769 -0.2194
  415MOL0     H57227   7.461   6.333  -0.093 -2.3490  1.3386 -1.9574
  415MOL0     H57228   7.571   5.961   0.117  0.9623 -2.1082  0.8996
  415MOL0     H57229   7.789   5.735   0.101  4.0762 -1.7079  1.1711
  415MOL0     H57230   7.732   5.859   0.220 -0.0570 -0.0157  0.2563
  415MOL0     H57231   7.907   5.848   0.160 -0.7443 -1.8514  0.1657
  415MOL0     H57232   8.165   6.117   0.182  0.7860 -2.3096  0.6949
  415MOL0     H57233   8.398   6.162   0.273  1.6380  1.6298 -1.4423
  415MOL0     H57234   8.748   6.066  -0.009 -1.8204  0.5548  0.4108
  415MOL0     H57235   8.786   6.224   0.050  1.8485 -0.3494 -0.9715
  415MOL0     H57236   8.828   6.148   0.293  0.8075 -1.9442  2.1216
  415MOL0     H57237   8.795   5.990   0.244  0.5839 -1.7015 -0.8463
  415MOL0     H57238   9.010   6.156   0.111  3.8442  0.5075  2.3127
  415MOL0     H57239   9.006   5.981   0.099  1.2015 -0.5464 -0.0471
  415MOL0     H57240   9.037   5.985   0.356  1.9820 -1.6719  0.4530
  415MOL0     H57241   9.053   6.161   0.342 -0.6590 -0.6034  1.3115
  415MOL0     H57242   9.239   5.995   0.182  2.0652  0.8058 -0.4844
  415MOL0     H57243   9.247   6.167   0.240  0.8628  0.5086  1.3334
  415MOL0     H57244   9.238   5.911   0.411 -0.4387  0.3867  3.5553
  415MOL0     H57245   9.289   6.067   0.467 -0.7456  1.3485 -0.9564
  415MOL0     H57246   9.491   6.054   0.301 -0.7800 -1.2200 -2.1028
  415MOL0     H57247   9.468   5.877   0.298 -0.0546 -0.3371  1.3311
  415MOL0     H57248   9.629   5.898   0.476  0.5879  1.6999  0.7901
  415MOL0     H57249   9.487   5.913   0.572 -0.0908  2.5662  1.3093
  415MOL0     H57250   8.563   6.076  -0.120  1.6262 -0.0656  0.9087
  415MOL0     H57251   8.333   6.045  -0.201  4.4671 -0.3596 -0.3559
  415MOL0     H57252   7.911   6.207  -0.145 -0.7375 -0.3197  1.0078
  415MOL0     H57253   7.672   6.282  -0.126 -0.2418 -0.4446  0.4767
  415MOL0     H57254   6.257   6.460   0.664  0.0548  0.1611 -0.7955
  415MOL0     H57255   6.056   6.326   0.666 -2.0179 -0.6449  0.1037
  415MOL0     H57256   5.577   6.420   1.069  0.4042 -0.5102 -0.1284
  415MOL0     H57257   5.386   6.259   1.097  0.9326 -0.6356  0.8774
  415MOL0     H57258   5.330   6.024   1.184 -0.1906  0.0030  0.6615
  415MOL0     H57259   5.230   5.909   1.091  0.9769 -1.1742 -3.1914
  415MOL0     H57260   5.527   5.925   1.094 -0.1378  0.4038 -0.1349
  415MOL0     H57261   5.435   5.815   0.983  1.7275 -0.3106 -0.2679
  415MOL0     H57262   5.394   5.772   1.278 -0.2510 -2.3443  0.8289
  415MOL0     H57263   5.339   5.682   1.128 -0.2523 -0.4365 -0.1757
  415MOL0     H57264   5.623   5.740   1.241  0.0605 -0.9498  0.2727
  415MOL0     H57265   5.593   5.690   1.072 -0.4852 -2.2817 -0.6522
  415MOL0     H57266   5.562   5.366   1.373  1.1011 -0.9279 -1.6102
  415MOL0     H57267   5.529   6.006   0.801  0.2791  0.6656 -1.1472
  415MOL0     H57268   5.864   6.173   0.753  1.2562 -2.2350 -2.0503
  415MOL0     H57269   5.805   6.017   0.804  1.1679  0.2583 -0.1028
  415MOL0     H57270   5.727   6.079   0.669 -1.1859  0.6897  0.8066
  416MOL0     O57271  10.326   6.796   7.767 -0.2658  0.5524  0.3526
  416MOL0     C57272  10.294   6.714   7.681  0.7277 -0.4975  0.1177
  416MOL0     O57273  10.365   6.625   7.610 -0.1808 -0.7383  0.2763
  416MOL0     C57274  10.497   6.636   7.603  0.3637  0.1167 -0.1104
  416MOL0     C57275  10.550   6.648   7.472  0.3774 -0.5890 -1.1304
  416MOL0     C57276  10.687   6.631   7.459  1.0290  0.6754  0.4382
  416MOL0     C57277  10.773   6.614   7.566 -0.7164 -0.6364  0.0533
  416MOL0     O57278  10.905   6.598   7.536 -0.0205  0.3463  0.6764
  416MOL0     C57279  10.946   6.464   7.563 -0.2818 -0.0215  0.2727
  416MOL0     C57280  11.085   6.451   7.630  0.8834  0.0415  0.4144
  416MOL0     C57281  11.100   6.308   7.682  0.5892 -0.7584 -0.2587
  416MOL0     C57282  11.243   6.265   7.720 -0.3962  0.2803 -0.2094
  416MOL0     C57283  11.236   6.123   7.766 -0.4068 -0.4590 -0.2675
  416MOL0     C57284  11.349   6.075   7.870 -0.7492  0.3126 -0.5805
  416MOL0     C57285  11.490   6.133   7.836 -0.0751 -0.2689  0.2253
  416MOL0     C57286  11.600   6.066   7.918  0.3602 -0.1882 -0.4147
  416MOL0     N57287  11.647   5.936   7.859 -0.2947 -0.0279  0.3684
  416MOL0     C57288  11.724   5.923   7.746  0.2787 -0.6872 -0.6107
  416MOL0     C57289  11.738   5.790   7.738 -0.4811  0.7265 -0.4349
  416MOL0     C57290  11.810   5.706   7.634 -0.3471 -1.4547 -0.7509
  416MOL0     C57291  11.711   5.594   7.585  0.8375 -0.0144  0.1182
  416MOL0     C57292  11.597   5.653   7.501 -0.0452 -0.1663  0.1614
  416MOL0     C57293  11.464   5.669   7.586 -0.6795 -0.2914 -0.0787
  416MOL0     O57294  11.355   5.687   7.493 -0.0568 -0.0875  0.0633
  416MOL0     C57295  11.236   5.746   7.527  0.2550  0.3083  0.9552
  416MOL0     C57296  11.160   5.795   7.418  0.1157 -0.1395  0.1466
  416MOL0     C57297  11.036   5.868   7.445 -0.3214 -0.5509 -0.1284
  416MOL0     C57298  10.969   5.939   7.331  0.4461  0.3076 -0.3471
  416MOL0     C57299  10.996   5.875   7.580  0.9393 -0.1045 -0.3471
  416MOL0     C57300  10.878   5.955   7.622  0.0926 -1.2928  0.6955
  416MOL0     O57301  10.882   6.041   7.727 -0.1932  0.4906  0.1165
  416MOL0     C57302  10.765   6.097   7.769  0.2485  0.4361  0.8273
  416MOL0     C57303  10.727   6.091   7.905  0.0028  0.4741 -0.3962
  416MOL0     C57304  10.627   6.171   7.961 -0.0863  1.2550  0.2056
  416MOL0     C57305  10.556   6.246   7.871 -0.2722  0.9368  0.7200
  416MOL0     O57306  10.452   6.329   7.913  0.3751  0.3342  0.3897
  416MOL0     C57307  10.346   6.245   7.953  0.4700  0.0224  0.1529
  416MOL0     C57308  10.246   6.319   8.032 -0.0162  0.1413  0.1140
  416MOL0     C57309  10.146   6.390   7.941 -0.6979 -0.0989  0.2405
  416MOL0     C57310  10.079   6.503   8.028 -0.2923  0.7917 -0.1369
  416MOL0     C57311   9.935   6.519   7.972  0.7694 -0.0227 -0.1338
  416MOL0     C57312   9.851   6.621   8.054 -0.3940 -0.6461 -0.4707
  416MOL0     C57313   9.799   6.585   8.192  0.0059 -0.0932  0.4037
  416MOL0     C57314   9.745   6.703   8.276 -1.5500 -0.0939  0.1540
  416MOL0    Cl57315   9.599   6.758   8.204  0.0744 -0.0040 -0.0849
  416MOL0     C57316  10.572   6.237   7.733  0.2251 -0.8153 -0.3958
  416MOL0     C57317  10.678   6.167   7.684 -0.3668 -0.0901 -0.2654
  416MOL0     O57318  10.781   5.933   7.546 -0.3344  0.6810  0.1653
  416MOL0     C57319  11.069   5.816   7.681 -0.2295  0.4215 -0.3932
  416MOL0     C57320  11.196   5.749   7.653  0.1022 -0.7676  0.0933
  416MOL0     N57321  11.662   5.733   7.844 -0.4670 -0.0200 -0.2734
  416MOL0     N57322  11.615   5.820   7.919  0.5082 -0.3400 -0.7543
  416MOL0     C57323  10.721   6.622   7.695 -0.3648  1.0144 -0.4571
  416MOL0     C57324  10.581   6.623   7.712 -0.3199 -0.2652 -0.7121
  416MOL0     C57325  10.152   6.736   7.648  0.2214  0.5833  0.4641
  416MOL0     C57326  10.083   6.853   7.685  0.1285 -0.4373  0.2349
  416MOL0     C57327   9.953   6.877   7.646  0.1593 -0.0807 -0.2700
  416MOL0     C57328   9.883   6.777   7.573  0.5417 -0.0299  0.0863
  416MOL0     O57329   9.750   6.785   7.539  0.4520 -0.5633  0.2268
  416MOL0     C57330   9.665   6.878   7.620  0.1604  0.6755  0.5546
  416MOL0     C57331   9.522   6.858   7.587  0.5410 -0.1461  0.2633
  416MOL0     C57332   9.467   6.924   7.454 -0.1628  0.5827 -0.3292
  416MOL0     C57333   9.512   6.856   7.320 -0.0754 -0.1987 -0.4067
  416MOL0     C57334   9.446   6.732   7.300 -0.1260  0.2163  0.7694
  416MOL0     C57335   9.376   6.634   7.302  0.5111  0.4825  0.6881
  416MOL0     C57336   9.954   6.663   7.534 -0.0737  0.6870  1.0482
  416MOL0     C57337  10.088   6.634   7.572  1.3321 -0.0844 -0.5750
  416MOL0     C57338  10.136   6.494   7.539 -0.4468  0.4480 -0.8792
  416MOL0     H57339  10.487   6.657   7.384  0.1105  0.3419 -0.8591
  416MOL0     H57340  10.723   6.638   7.357 -1.8054 -0.6158 -0.7225
  416MOL0     H57341  10.942   6.406   7.470 -0.0801 -2.1047  1.4806
  416MOL0     H57342  10.878   6.396   7.617 -0.7790  0.8998  0.8300
  416MOL0     H57343  11.163   6.480   7.559 -0.0044  0.1378 -0.5318
  416MOL0     H57344  11.085   6.522   7.713 -2.3422 -0.7042  1.1840
  416MOL0     H57345  11.031   6.306   7.767  0.8511 -1.5146 -0.0561
  416MOL0     H57346  11.059   6.234   7.612 -0.4108  0.6706 -1.2584
  416MOL0     H57347  11.309   6.272   7.633 -1.5563 -0.8279 -1.2076
  416MOL0     H57348  11.288   6.340   7.786 -0.8889  1.9125 -1.6265
  416MOL0     H57349  11.253   6.067   7.673  1.5233 -2.0366  0.9477
  416MOL0     H57350  11.143   6.103   7.821  0.3813 -0.7587  0.9874
  416MOL0     H57351  11.327   6.105   7.973  1.2400 -1.3574  0.4103
  416MOL0     H57352  11.351   5.965   7.870 -1.4733  0.2915 -0.1782
  416MOL0     H57353  11.483   6.242   7.844  1.3543 -0.2202  1.2164
  416MOL0     H57354  11.505   6.106   7.731  1.3956 -1.4340  0.6981
  416MOL0     H57355  11.692   6.126   7.921  0.8346 -0.9286  1.9624
  416MOL0     H57356  11.563   6.054   8.020  0.8880  1.7122  0.0501
  416MOL0     H57357  11.771   6.000   7.687 -3.2086  3.1774  1.1892
  416MOL0     H57358  11.902   5.667   7.678  0.2095  1.2261  0.6263
  416MOL0     H57359  11.841   5.770   7.551  1.4440 -0.7090  0.4488
  416MOL0     H57360  11.774   5.534   7.518 -0.0194 -1.4241  0.5144
  416MOL0     H57361  11.664   5.534   7.663 -1.6012 -0.4624 -1.5907
  416MOL0     H57362  11.632   5.745   7.455  2.4746  0.8466  3.6440
  416MOL0     H57363  11.589   5.586   7.415 -0.8969  0.2287 -0.0702
  416MOL0     H57364  11.443   5.574   7.637  0.2841 -1.3462 -1.5521
  416MOL0     H57365  11.476   5.747   7.660  1.0270 -1.3892  0.8618
  416MOL0     H57366  11.199   5.780   7.318 -0.0856 -2.6522  0.3805
  416MOL0     H57367  10.969   6.048   7.339 -2.8094  0.3229  1.2861
  416MOL0     H57368  10.864   5.908   7.332 -0.8467  4.1115 -0.4745
  416MOL0     H57369  11.018   5.918   7.235 -1.6908  0.1727 -1.4777
  416MOL0     H57370  10.792   6.038   7.975  0.6918  3.6925  1.5870
  416MOL0     H57371  10.610   6.169   8.068  3.0399 -4.5311  0.9518
  416MOL0     H57372  10.297   6.202   7.865 -0.4285 -2.5144  1.7694
  416MOL0     H57373  10.381   6.159   8.012  0.5075 -0.0850 -0.0250
  416MOL0     H57374  10.186   6.257   8.099 -0.8838  2.1778  1.3254
  416MOL0     H57375  10.295   6.377   8.112  1.1810  0.1737 -0.6078
  416MOL0     H57376  10.073   6.319   7.901 -1.0924  0.1947  0.4319
  416MOL0     H57377  10.207   6.427   7.857  1.1335 -0.5529  1.3075
  416MOL0     H57378  10.135   6.597   8.021  1.0335  0.3002  2.6502
  416MOL0     H57379  10.069   6.479   8.134  0.0121 -3.0563 -0.8492
  416MOL0     H57380   9.946   6.547   7.867 -1.6827  0.5731 -0.2992
  416MOL0     H57381   9.884   6.422   7.979  1.2706 -0.2543  0.3896
  416MOL0     H57382   9.765   6.639   7.989  1.8323  1.8775 -2.9381
  416MOL0     H57383   9.909   6.714   8.056 -0.6600 -0.4767 -0.5364
  416MOL0     H57384   9.878   6.540   8.254  1.9964  4.0135  1.1923
  416MOL0     H57385   9.718   6.512   8.183  0.0560 -0.4113  2.1117
  416MOL0     H57386   9.821   6.780   8.292 -1.7038  0.0118  0.3849
  416MOL0     H57387   9.717   6.658   8.372  1.5687 -1.0904  0.7014
  416MOL0     H57388  10.511   6.302   7.670 -0.9979  2.6684  3.8891
  416MOL0     H57389  10.705   6.172   7.579 -0.1103 -0.4721 -0.2179
  416MOL0     H57390  11.034   5.830   7.783  0.1953 -0.0195 -0.1865
  416MOL0     H57391  11.266   5.714   7.728  2.0081 -0.3132 -1.3951
  416MOL0     H57392  10.778   6.621   7.788  1.1427 -0.4713 -1.3436
  416MOL0     H57393  10.532   6.621   7.809  0.2358  0.1219 -0.4216
  416MOL0     H57394  10.135   6.923   7.750  1.8815 -2.3222  1.0002
  416MOL0     H57395   9.912   6.970   7.683  2.3233  0.5903  0.6289
  416MOL0     H57396   9.684   6.864   7.727 -0.3520 -0.8467  0.4753
  416MOL0     H57397   9.688   6.983   7.604 -1.9254  1.0090 -0.6416
  416MOL0     H57398   9.476   6.922   7.664 -1.8330 -0.1032 -1.0728
  416MOL0     H57399   9.493   6.752   7.588  2.8325 -0.8178 -0.4763
  416MOL0     H57400   9.358   6.926   7.453 -0.1612  0.6840 -0.8193
  416MOL0     H57401   9.490   7.031   7.450  0.0705  0.5010 -2.8378
  416MOL0     H57402   9.620   6.845   7.318  0.1166  1.3792 -3.0418
  416MOL0     H57403   9.483   6.921   7.237  1.1805 -0.3179 -0.9578
  416MOL0     H57404   9.329   6.538   7.295  2.3717 -0.5904  2.1727
  416MOL0     H57405   9.894   6.587   7.484  1.4978  1.1226 -1.7011
  416MOL0     H57406  10.062   6.431   7.489 -0.7555  0.5962 -0.6146
  416MOL0     H57407  10.217   6.510   7.467 -0.0812 -1.2277 -0.8935
  416MOL0     H57408  10.178   6.447   7.629  0.2289  2.0798 -0.3022
  417MOL0     O57409   7.499   2.809   2.255  0.2956  1.1323  0.2491
  417MOL0     C57410   7.404   2.871   2.214  1.0660  0.8345  0.3606
  417MOL0     O57411   7.383   3.005   2.244  0.7629  0.5343 -0.2040
  417MOL0     C57412   7.458   3.079   2.334  0.4667 -0.3511  0.7364
  417MOL0     C57413   7.444   3.224   2.323  0.0288  0.6308 -0.5361
  417MOL0     C57414   7.512   3.309   2.411 -0.0503 -0.1056  1.2394
  417MOL0     C57415   7.606   3.268   2.495 -0.0984 -0.7317  0.3551
  417MOL0     O57416   7.700   3.351   2.554 -0.5819  0.4021 -0.6938
  417MOL0     C57417   7.686   3.500   2.534 -0.3717 -0.2572 -0.1498
  417MOL0     C57418   7.788   3.576   2.624  0.2133  0.4666 -0.1781
  417MOL0     C57419   7.937   3.530   2.635  0.3390 -0.1780  0.9811
  417MOL0     C57420   8.021   3.586   2.757  0.2805 -0.4698  0.0585
  417MOL0     C57421   7.975   3.535   2.899  0.1163  0.5632  0.5394
  417MOL0     C57422   8.041   3.603   3.026 -0.6881  0.5788  0.2046
  417MOL0     C57423   8.145   3.714   3.000 -0.7612 -0.0623  1.0208
  417MOL0     C57424   8.215   3.750   3.132  0.6235 -0.1784 -0.7482
  417MOL0     N57425   8.342   3.825   3.114  0.1420 -0.4651 -0.2692
  417MOL0     C57426   8.359   3.962   3.141  1.0299 -0.0968  0.7647
  417MOL0     C57427   8.492   3.978   3.122 -0.1207  0.0410 -0.1197
  417MOL0     C57428   8.563   4.112   3.129 -0.2112 -0.1981 -0.6165
  417MOL0     C57429   8.610   4.152   2.995 -0.7443 -0.1878 -0.5601
  417MOL0     C57430   8.715   4.267   3.013 -0.1246 -0.0623  0.3546
  417MOL0     C57431   8.859   4.228   2.983 -0.6214  0.7190  0.5058
  417MOL0     O57432   8.941   4.337   2.948 -0.1738  0.1999 -0.8965
  417MOL0     C57433   9.075   4.309   2.937 -0.8820  0.1401  0.1158
  417MOL0     C57434   9.162   4.305   3.049  0.6424 -0.4811  0.0362
  417MOL0     C57435   9.295   4.264   3.039 -0.3608 -0.9424  0.1266
  417MOL0     C57436   9.367   4.238   3.169  0.3590 -0.7721  0.2709
  417MOL0     C57437   9.355   4.236   2.919  0.1047 -0.6524  0.5334
  417MOL0     C57438   9.492   4.188   2.898 -0.1022  0.7921  0.6099
  417MOL0     O57439   9.523   4.166   2.770  0.0638  0.6243  0.2681
  417MOL0     C57440   9.644   4.114   2.718 -0.5689  0.1004  0.3973
  417MOL0     C57441   9.645   4.027   2.605 -0.9973  0.2221 -0.3538
  417MOL0     C57442   9.760   3.964   2.562  0.4483  0.0493  1.2251
  417MOL0     C57443   9.882   3.979   2.640 -0.3478 -0.6563  0.1873
  417MOL0     O57444   9.994   3.915   2.606 -0.4155 -0.2159  0.4238
  417MOL0     C57445   9.991   3.825   2.491  0.6015  0.4914 -0.5793
  417MOL0     C57446  10.123   3.788   2.436 -0.4901 -0.0913  0.8631
  417MOL0     C57447  10.099   3.673   2.341 -0.5134  0.2073 -0.2438
  417MOL0     C57448  10.226   3.586   2.319 -0.0751  0.5317  0.1681
  417MOL0     C57449  10.349   3.661   2.259  0.0218 -0.8975 -0.7300
  417MOL0     C57450  10.460   3.578   2.193 -0.4537  0.0914 -0.6166
  417MOL0     C57451  10.579   3.660   2.141 -0.6964 -0.2435  0.3698
  417MOL0     C57452  10.636   3.610   2.005 -0.1000  0.2182  0.8973
  417MOL0    Cl57453  10.777   3.705   1.962 -0.4061  0.4655 -0.1838
  417MOL0     C57454   9.885   4.055   2.755  0.2288  0.3630 -0.0249
  417MOL0     C57455   9.767   4.126   2.789 -0.2240  1.3505 -0.6615
  417MOL0     O57456   9.561   4.165   2.996 -0.0888 -0.4021 -0.2458
  417MOL0     C57457   9.274   4.255   2.806 -0.3451 -0.1940  0.8480
  417MOL0     C57458   9.136   4.290   2.814 -0.0940  0.4542 -0.0660
  417MOL0     N57459   8.554   3.858   3.100  0.0473 -0.3770  0.3466
  417MOL0     N57460   8.466   3.763   3.098 -0.4785 -0.1122 -0.6348
  417MOL0     C57461   7.618   3.130   2.511 -1.1953  0.5837 -0.1935
  417MOL0     C57462   7.548   3.032   2.433  0.3461  0.0137  0.5284
  417MOL0     C57463   7.301   2.800   2.137  0.6752 -0.8786  0.2412
  417MOL0     C57464   7.178   2.869   2.125  0.4479  0.1986  0.0005
  417MOL0     C57465   7.075   2.811   2.046 -0.4814  0.4672 -0.5531
  417MOL0     C57466   7.087   2.695   1.975 -0.2505 -0.0899 -0.5758
  417MOL0     O57467   6.998   2.637   1.878  0.1782 -0.3459  0.7260
  417MOL0     C57468   6.905   2.731   1.813  1.1107  0.5145 -1.0244
  417MOL0     C57469   6.932   2.757   1.667  0.2580  0.7104 -1.1367
  417MOL0     C57470   6.867   2.893   1.628  0.4804  0.6696 -0.5311
  417MOL0     C57471   6.817   2.893   1.489 -0.1690  0.1210 -0.7821
  417MOL0     C57472   6.691   2.815   1.472 -0.3725 -0.1733 -0.5425
  417MOL0     C57473   6.587   2.757   1.446  0.0854 -0.0423  0.3309
  417MOL0     C57474   7.200   2.620   2.005  0.2731 -0.0759  1.0527
  417MOL0     C57475   7.306   2.671   2.090 -0.6698  0.3704  0.0837
  417MOL0     C57476   7.425   2.578   2.113 -0.2785 -0.0767 -0.2089
  417MOL0     H57477   7.371   3.270   2.257  0.6912  1.9738 -0.3632
  417MOL0     H57478   7.498   3.415   2.397  1.3400 -0.2038 -1.5567
  417MOL0     H57479   7.583   3.528   2.557 -0.4780 -1.5639  1.0703
  417MOL0     H57480   7.696   3.506   2.425 -1.2020 -1.0977 -0.2860
  417MOL0     H57481   7.780   3.681   2.595  0.4996  0.8833  1.1797
  417MOL0     H57482   7.756   3.573   2.728  0.4220 -1.1830 -0.1225
  417MOL0     H57483   7.933   3.421   2.646 -1.0915 -0.1704  0.6579
  417MOL0     H57484   7.995   3.558   2.547 -0.4917  3.6859  1.4934
  417MOL0     H57485   8.127   3.572   2.733  0.0232  0.3702 -1.7777
  417MOL0     H57486   8.004   3.694   2.760 -0.1109 -0.5550  1.4010
  417MOL0     H57487   7.982   3.426   2.899  2.0458  0.6486 -0.7202
  417MOL0     H57488   7.869   3.559   2.911 -0.6502 -0.5000 -3.1188
  417MOL0     H57489   7.960   3.643   3.087 -4.4304 -3.3016 -1.6904
  417MOL0     H57490   8.086   3.519   3.080  0.2526 -0.3842 -1.9607
  417MOL0     H57491   8.106   3.803   2.949  2.1588 -1.2482 -3.8734
  417MOL0     H57492   8.223   3.683   2.930  1.8707  3.3893  2.0902
  417MOL0     H57493   8.139   3.812   3.180 -1.0267 -0.6621 -2.6077
  417MOL0     H57494   8.235   3.662   3.193 -2.3609  0.3436  1.2006
  417MOL0     H57495   8.279   4.030   3.170 -0.8397 -0.3286 -3.2264
  417MOL0     H57496   8.651   4.107   3.194  0.3263  0.1499 -1.2995
  417MOL0     H57497   8.495   4.186   3.173  0.1406  1.2932 -2.4504
  417MOL0     H57498   8.666   4.064   2.962  0.7630  0.5204  0.0081
  417MOL0     H57499   8.521   4.179   2.937 -1.1581  1.0217  0.5671
  417MOL0     H57500   8.688   4.342   2.939  0.3328  0.4334  0.6861
  417MOL0     H57501   8.707   4.309   3.113 -1.2258 -1.4774  0.9048
  417MOL0     H57502   8.897   4.177   3.071 -0.8648 -0.7040 -0.1845
  417MOL0     H57503   8.853   4.148   2.908  1.4819  0.0947  0.9527
  417MOL0     H57504   9.129   4.321   3.151 -0.9609  0.3967 -0.5900
  417MOL0     H57505   9.388   4.131   3.178  1.3361 -0.7372 -1.1739
  417MOL0     H57506   9.325   4.270   3.265 -0.0273 -0.4578 -0.0007
  417MOL0     H57507   9.464   4.284   3.149  0.6602 -1.7748 -0.6999
  417MOL0     H57508   9.549   4.015   2.556  0.1212 -0.8470 -2.3962
  417MOL0     H57509   9.757   3.906   2.471  0.7674  0.3107  1.0485
  417MOL0     H57510   9.938   3.736   2.529  1.7555 -0.1093 -0.3457
  417MOL0     H57511   9.939   3.870   2.407  0.2067 -1.2562 -1.3280
  417MOL0     H57512  10.166   3.876   2.388 -3.9864  1.6392  0.5788
  417MOL0     H57513  10.185   3.751   2.519  0.3898 -2.0477 -0.5917
  417MOL0     H57514  10.084   3.711   2.239 -0.8766  0.9547  0.0839
  417MOL0     H57515  10.022   3.609   2.386  1.1711 -0.3651  1.9888
  417MOL0     H57516  10.209   3.507   2.244 -0.2109 -0.4492  1.1999
  417MOL0     H57517  10.255   3.537   2.412  0.5842 -0.7883 -0.6872
  417MOL0     H57518  10.322   3.737   2.184  0.5367 -0.2065 -0.2299
  417MOL0     H57519  10.386   3.718   2.344 -1.6856  0.1894 -0.6623
  417MOL0     H57520  10.405   3.530   2.112  1.3474 -0.9402 -1.2730
  417MOL0     H57521  10.498   3.500   2.260 -0.3692  0.4463 -0.2511
  417MOL0     H57522  10.667   3.675   2.205  0.9707 -1.0586 -1.6102
  417MOL0     H57523  10.542   3.762   2.128 -1.2588 -0.3845  0.8314
  417MOL0     H57524  10.560   3.629   1.929  1.2369 -1.8500 -1.0807
  417MOL0     H57525  10.657   3.502   2.003 -1.8795 -0.2306  2.9193
  417MOL0     H57526   9.975   4.057   2.815 -0.4870  2.0576  1.0697
  417MOL0     H57527   9.777   4.181   2.882 -0.9178  0.5295 -0.0847
  417MOL0     H57528   9.309   4.248   2.704 -2.5632  0.7462 -0.0410
  417MOL0     H57529   9.082   4.302   2.721  1.2035  2.3755 -0.6462
  417MOL0     H57530   7.696   3.095   2.577 -1.6508  1.2179  0.7061
  417MOL0     H57531   7.562   2.929   2.462 -1.4101 -0.3204  0.3267
  417MOL0     H57532   7.169   2.971   2.159  0.7429 -0.3466  1.8210
  417MOL0     H57533   6.989   2.873   2.021  0.3968  1.4630 -1.1856
  417MOL0     H57534   6.809   2.681   1.827 -0.7288  3.9272 -0.4573
  417MOL0     H57535   6.886   2.825   1.865  0.9644 -0.3124  0.4877
  417MOL0     H57536   6.892   2.677   1.604  2.2125 -0.6945 -0.6978
  417MOL0     H57537   7.038   2.763   1.640 -0.0176 -2.3548 -3.4860
  417MOL0     H57538   6.784   2.929   1.690 -1.8828  0.7890 -3.5536
  417MOL0     H57539   6.947   2.967   1.641  0.0138  1.2044 -0.6688
  417MOL0     H57540   6.888   2.848   1.420 -2.0037 -1.2958 -1.8409
  417MOL0     H57541   6.805   2.999   1.465 -3.2777  0.1174  0.2498
  417MOL0     H57542   6.506   2.693   1.417  0.9217 -1.5261  1.1846
  417MOL0     H57543   7.196   2.531   1.944 -1.0493  1.0380 -0.5974
  417MOL0     H57544   7.394   2.479   2.078 -0.8999  1.2421 -3.8206
  417MOL0     H57545   7.514   2.597   2.052 -0.8208  1.2475 -0.6298
  417MOL0     H57546   7.457   2.580   2.218  2.2857  1.5763 -0.9485
  418MOL0     O57547   1.490   2.090   5.660 -0.5689 -0.0206  0.1501
  418MOL0     C57548   1.442   1.984   5.701  0.0894  0.0285 -0.1566
  418MOL0     O57549   1.520   1.888   5.759 -0.9714 -0.8639  0.0464
  418MOL0     C57550   1.655   1.884   5.756  0.4895 -0.3493  0.0263
  418MOL0     C57551   1.712   1.759   5.746  0.5110  0.2452  0.2427
  418MOL0     C57552   1.852   1.740   5.748 -0.6065  0.5516  0.3707
  418MOL0     C57553   1.938   1.846   5.772  0.2275  0.2253 -0.2714
  418MOL0     O57554   2.079   1.844   5.785 -0.3464  0.2775 -0.5407
  418MOL0     C57555   2.137   1.759   5.681 -0.1498  0.6711 -0.1498
  418MOL0     C57556   2.217   1.632   5.732 -0.0324  0.5659 -1.1441
  418MOL0     C57557   2.282   1.661   5.865 -0.0957 -0.2282  0.2792
  418MOL0     C57558   2.328   1.529   5.928 -1.2220 -0.8902  0.3196
  418MOL0     C57559   2.426   1.571   6.045  0.6426  0.3104  0.9589
  418MOL0     C57560   2.467   1.456   6.140  0.4834 -0.1261 -0.2183
  418MOL0     C57561   2.504   1.538   6.262  0.0958  0.4532  0.2379
  418MOL0     C57562   2.582   1.449   6.365  0.0512  0.1362 -0.2525
  418MOL0     N57563   2.509   1.331   6.407  0.0620 -0.0455 -0.7114
  418MOL0     C57564   2.378   1.328   6.448 -0.1990  0.3898 -0.2924
  418MOL0     C57565   2.347   1.195   6.475  1.2118 -0.2439  0.4089
  418MOL0     C57566   2.206   1.171   6.513  0.0494  0.2213  0.1717
  418MOL0     C57567   2.180   1.019   6.532 -0.2468  0.1079 -0.0715
  418MOL0     C57568   2.179   0.949   6.396  0.7301  0.2029  0.8747
  418MOL0     C57569   2.163   0.795   6.417  0.7746  0.5073  0.5787
  418MOL0     O57570   2.174   0.732   6.290  0.3026 -0.2754 -0.1548
  418MOL0     C57571   2.299   0.681   6.259  0.0601 -0.1238  0.2575
  418MOL0     C57572   2.286   0.547   6.215 -0.5883 -0.1457  0.2727
  418MOL0     C57573   2.399   0.479   6.159  0.1918  0.4037 -0.3310
  418MOL0     C57574   2.374   0.336   6.132 -0.4951  0.5038  1.1424
  418MOL0     C57575   2.519   0.549   6.136 -0.4371  0.1571 -0.1863
  418MOL0     C57576   2.639   0.493   6.071 -0.2334  0.6899 -0.4781
  418MOL0     O57577   2.747   0.580   6.051 -1.5522  0.5196 -0.1320
  418MOL0     C57578   2.874   0.530   6.032 -0.2651  0.0962 -0.0152
  418MOL0     C57579   2.967   0.604   5.960 -0.5347  1.0148 -0.2952
  418MOL0     C57580   3.094   0.564   5.946 -0.5586  0.3368 -0.1893
  418MOL0     C57581   3.143   0.452   6.002 -0.5280 -0.1320  0.3603
  418MOL0     O57582   3.277   0.425   5.970  0.4184  0.5453 -0.1861
  418MOL0     C57583   3.318   0.284   5.971 -0.5343 -1.1654  0.2222
  418MOL0     C57584   3.433   0.261   6.069  0.3708 -0.4977  0.1183
  418MOL0     C57585   3.553   0.356   6.040 -0.1219 -0.0453  0.4303
  418MOL0     C57586   3.673   0.322   6.133 -0.1793 -0.6358  0.3234
  418MOL0     C57587   3.810   0.372   6.082  0.9412 -0.3025 -0.4819
  418MOL0     C57588   3.910   0.340   6.197  0.6282 -0.3852 -0.6465
  418MOL0     C57589   4.048   0.355   6.159  0.4419 -0.8191 -0.1920
  418MOL0     C57590   4.106   0.485   6.214 -0.3421 -0.4048 -0.4827
  418MOL0    Cl57591   4.026   0.623   6.133 -0.1371 -0.5083  0.1180
  418MOL0     C57592   3.059   0.381   6.092 -1.0109  0.4182  0.2750
  418MOL0     C57593   2.927   0.424   6.103  0.6487  0.3687  0.5873
  418MOL0     O57594   2.642   0.374   6.048 -0.1427  0.1995  0.4152
  418MOL0     C57595   2.524   0.682   6.174  0.1057  0.1764 -0.3064
  418MOL0     C57596   2.413   0.750   6.237 -0.0169  0.5545 -0.2001
  418MOL0     N57597   2.451   1.120   6.436 -0.5955 -0.2781  0.1495
  418MOL0     N57598   2.552   1.203   6.404 -0.5427  0.1579 -0.1861
  418MOL0     C57599   1.876   1.976   5.789 -0.0605  0.4748  0.6496
  418MOL0     C57600   1.738   1.990   5.780  0.9676 -0.0106 -0.3418
  418MOL0     C57601   1.298   1.955   5.676 -0.1787 -0.6857 -0.8029
  418MOL0     C57602   1.208   2.061   5.696 -0.7493  0.8845 -0.4916
  418MOL0     C57603   1.073   2.047   5.686  1.0703  0.2984 -0.9296
  418MOL0     C57604   1.020   1.924   5.664  0.1710 -0.2647  0.3490
  418MOL0     O57605   0.885   1.904   5.685  0.5115  0.3478 -0.4567
  418MOL0     C57606   0.817   1.790   5.638 -0.4343  0.1584  0.6157
  418MOL0     C57607   0.670   1.807   5.683 -0.4795  0.4400  0.6786
  418MOL0     C57608   0.597   1.684   5.645 -0.8560 -0.0880  0.1232
  418MOL0     C57609   0.451   1.695   5.683 -0.1497  0.3952 -0.1301
  418MOL0     C57610   0.363   1.751   5.576 -0.8285 -1.4061 -0.5916
  418MOL0     C57611   0.273   1.792   5.501 -0.7332  0.3239 -0.2648
  418MOL0     C57612   1.107   1.815   5.638  0.0545 -0.0560  0.1143
  418MOL0     C57613   1.249   1.825   5.639 -0.3711  0.5562 -0.8067
  418MOL0     C57614   1.337   1.701   5.611 -0.0125 -0.5945  0.4783
  418MOL0     H57615   1.646   1.675   5.724  0.5880  0.4751 -0.9328
  418MOL0     H57616   1.889   1.640   5.728  1.6452  1.6999 -1.7551
  418MOL0     H57617   2.204   1.826   5.626 -0.4983 -0.8165 -2.5597
  418MOL0     H57618   2.058   1.726   5.612 -1.2761 -1.2784  1.9349
  418MOL0     H57619   2.156   1.541   5.732 -0.5814  0.8944  0.3654
  418MOL0     H57620   2.288   1.602   5.655  1.6610  0.5403  0.3517
  418MOL0     H57621   2.367   1.729   5.855 -1.5244  1.2592 -3.6333
  418MOL0     H57622   2.209   1.703   5.934 -1.0767  0.6884 -1.2585
  418MOL0     H57623   2.250   1.470   5.977 -0.8570 -1.6030  0.0641
  418MOL0     H57624   2.381   1.467   5.855 -0.6169  2.1025 -1.9430
  418MOL0     H57625   2.371   1.648   6.099  0.5956  0.4898  0.6569
  418MOL0     H57626   2.516   1.619   6.005 -0.3578  1.0085 -0.5275
  418MOL0     H57627   2.382   1.392   6.167  0.2162  0.2795 -0.0812
  418MOL0     H57628   2.551   1.401   6.098  0.0356 -1.8867  1.0722
  418MOL0     H57629   2.423   1.585   6.318 -0.3910 -2.5000  2.2750
  418MOL0     H57630   2.573   1.620   6.238 -0.0395  0.7893  0.9722
  418MOL0     H57631   2.686   1.418   6.350 -0.1849 -1.0382  0.4027
  418MOL0     H57632   2.579   1.508   6.457 -1.6726  1.5262 -1.1610
  418MOL0     H57633   2.301   1.404   6.458 -1.0076 -0.5663  1.1829
  418MOL0     H57634   2.132   1.208   6.441 -0.4497 -2.6704 -0.9145
  418MOL0     H57635   2.183   1.225   6.605 -0.2733 -1.9368  1.4208
  418MOL0     H57636   2.246   0.983   6.611 -2.0676 -0.6696  1.1672
  418MOL0     H57637   2.077   1.007   6.567  0.3507 -1.4487  1.2375
  418MOL0     H57638   2.100   0.978   6.326 -1.3056 -0.3577  2.7980
  418MOL0     H57639   2.270   0.979   6.343  0.9017 -0.8695  0.5296
  418MOL0     H57640   2.237   0.777   6.495 -0.0652  1.0910  1.5467
  418MOL0     H57641   2.069   0.759   6.462  1.4216  0.3472  1.8656
  418MOL0     H57642   2.197   0.487   6.231 -0.7980  0.6873  2.4589
  418MOL0     H57643   2.368   0.322   6.023  0.1519  1.1029  1.0220
  418MOL0     H57644   2.284   0.290   6.173 -1.2652  2.1541  1.3448
  418MOL0     H57645   2.451   0.273   6.178  1.2157  2.5002  1.1257
  418MOL0     H57646   2.947   0.698   5.910 -0.4650  1.4343  0.4562
  418MOL0     H57647   3.156   0.615   5.874 -0.1552 -2.8826 -2.3120
  418MOL0     H57648   3.238   0.215   6.000  0.7330 -3.2404 -0.9744
  418MOL0     H57649   3.358   0.247   5.876 -0.6622 -1.8152  0.4124
  418MOL0     H57650   3.384   0.268   6.167 -1.0876 -2.9162 -0.3745
  418MOL0     H57651   3.473   0.160   6.061 -1.2309 -1.1658  0.1911
  418MOL0     H57652   3.527   0.462   6.051  1.7562  0.3062  2.0434
  418MOL0     H57653   3.590   0.344   5.937  0.8077 -1.7583  0.9307
  418MOL0     H57654   3.676   0.213   6.136 -1.1088 -0.7242 -1.1554
  418MOL0     H57655   3.652   0.342   6.239 -3.3119  1.2394 -0.5178
  418MOL0     H57656   3.821   0.318   5.987 -4.4263 -0.2342 -1.4511
  418MOL0     H57657   3.818   0.479   6.058  0.7027 -0.0887  0.3609
  418MOL0     H57658   3.907   0.233   6.220  1.9489 -0.2941  0.0975
  418MOL0     H57659   3.880   0.392   6.289 -0.9611 -1.1931 -0.6685
  418MOL0     H57660   4.051   0.358   6.050 -2.5688 -2.3140 -0.4066
  418MOL0     H57661   4.115   0.273   6.189  1.4535  0.1862  0.4070
  418MOL0     H57662   4.215   0.483   6.200 -0.1815 -0.9322  0.7053
  418MOL0     H57663   4.096   0.488   6.323  1.3055 -0.3772 -0.2991
  418MOL0     H57664   3.092   0.291   6.141 -1.5502  0.0166 -0.0797
  418MOL0     H57665   2.863   0.364   6.167  2.8600 -1.4926  1.1591
  418MOL0     H57666   2.603   0.741   6.128  0.7302 -0.2890  0.1490
  418MOL0     H57667   2.424   0.858   6.242 -1.9277  0.8936 -1.9695
  418MOL0     H57668   1.931   2.070   5.791  2.3751 -0.8794  1.2916
  418MOL0     H57669   1.693   2.088   5.797  0.3347 -0.6798  2.4420
  418MOL0     H57670   1.255   2.156   5.721 -0.2325  0.0968  1.8143
  418MOL0     H57671   1.021   2.143   5.692  0.7076  0.2636 -2.9393
  418MOL0     H57672   0.835   1.776   5.531 -2.8349 -1.5484  0.3431
  418MOL0     H57673   0.863   1.700   5.681  1.4634  1.1997  0.8840
  418MOL0     H57674   0.627   1.903   5.653 -1.1227  0.5370  1.8259
  418MOL0     H57675   0.681   1.811   5.792 -1.9461 -1.7757  0.9859
  418MOL0     H57676   0.618   1.656   5.541  0.7460  2.0996 -0.2161
  418MOL0     H57677   0.640   1.609   5.712 -0.4867  1.5625  1.8156
  418MOL0     H57678   0.438   1.739   5.782  1.8837  0.8237  0.0032
  418MOL0     H57679   0.403   1.597   5.695  2.9561 -1.0938  1.3324
  418MOL0     H57680   0.203   1.817   5.425  0.2829 -0.3015 -1.4550
  418MOL0     H57681   1.056   1.720   5.623  1.3784 -0.5532 -1.6068
  418MOL0     H57682   1.399   1.666   5.694  1.8133 -0.9239 -0.9523
  418MOL0     H57683   1.291   1.607   5.582  4.3239 -2.8593  0.1060
  418MOL0     H57684   1.407   1.735   5.534  0.4904 -0.3728  1.0209
  419MOL0     O57685  10.925  10.730   7.519 -0.0081 -0.4060  0.4746
  419MOL0     C57686  10.917  10.620   7.477 -1.2412  1.1342  0.1585
  419MOL0     O57687  10.907  10.577   7.347 -0.2198  0.1582  0.7886
  419MOL0     C57688  10.960  10.648   7.245 -0.4518 -0.3104 -0.7492
  419MOL0     C57689  11.075  10.729   7.260  0.9130 -0.2073  0.6686
  419MOL0     C57690  11.146  10.782   7.151  0.3060 -0.4548  1.2226
  419MOL0     C57691  11.098  10.770   7.022  0.4348  0.0334  0.0973
  419MOL0     O57692  11.157  10.821   6.909  0.0932  0.2916 -0.2917
  419MOL0     C57693  11.232  10.940   6.926  0.1505 -0.4911 -0.5510
  419MOL0     C57694  11.251  10.999   6.780  1.1996 -0.1265  0.3671
  419MOL0     C57695  11.358  10.928   6.695 -0.4817  0.3769 -0.0232
  419MOL0     C57696  11.496  10.965   6.737  0.0431  0.3728 -0.5445
  419MOL0     C57697  11.602  10.930   6.637 -1.4531  0.0648 -0.7724
  419MOL0     C57698  11.606  10.786   6.612 -0.2395  0.2773  0.2646
  419MOL0     C57699  11.652  10.752   6.469 -0.0555  1.4718  0.6361
  419MOL0     C57700  11.668  10.599   6.430 -0.5959 -0.4982 -0.3465
  419MOL0     N57701  11.772  10.583   6.325 -0.0283 -0.2069  0.2689
  419MOL0     C57702  11.910  10.612   6.349  0.5443  0.3387 -0.2082
  419MOL0     C57703  11.968  10.569   6.233 -0.9059 -0.0365  0.6033
  419MOL0     C57704  12.113  10.596   6.204  0.1172 -0.7659 -0.4837
  419MOL0     C57705  12.180  10.521   6.081 -0.2859 -0.1341 -0.0030
  419MOL0     C57706  12.334  10.549   6.049  0.7691  0.0904  0.5349
  419MOL0     C57707  12.368  10.694   6.058 -0.8859 -0.3484 -0.2671
  419MOL0     O57708  12.509  10.705   6.043 -0.0817  0.4432 -0.5711
  419MOL0     C57709  12.580  10.692   6.168 -0.2968 -0.5957  1.3883
  419MOL0     C57710  12.525  10.651   6.293  0.8446 -0.5427 -0.0454
  419MOL0     C57711  12.603  10.619   6.403 -0.4616  0.0260 -0.4238
  419MOL0     C57712  12.535  10.570   6.534  1.1218 -0.8359 -0.2230
  419MOL0     C57713  12.741  10.639   6.394 -0.4047  0.2926  0.0707
  419MOL0     C57714  12.833  10.607   6.501  0.1909 -0.0013  0.4823
  419MOL0     O57715  12.939  10.531   6.466 -0.7707 -0.2941 -0.4840
  419MOL0     C57716  13.049  10.524   6.552 -1.1399 -0.7634 -0.5749
  419MOL0     C57717  13.120  10.642   6.593 -0.5099 -0.4785  0.1690
  419MOL0     C57718  13.220  10.634   6.693  0.0781  0.4320  0.6253
  419MOL0     C57719  13.246  10.509   6.747  0.5804 -0.1653 -0.5990
  419MOL0     O57720  13.347  10.510   6.844  0.6074 -0.6336 -0.3487
  419MOL0     C57721  13.361  10.389   6.922  0.3354 -0.4845 -0.5873
  419MOL0     C57722  13.488  10.397   6.998 -0.1273  0.2724  1.2267
  419MOL0     C57723  13.513  10.267   7.070  0.4551  0.2381 -0.5767
  419MOL0     C57724  13.617  10.277   7.185 -0.4662 -0.6218 -0.1177
  419MOL0     C57725  13.634  10.148   7.254 -0.3991 -0.3030 -0.0930
  419MOL0     C57726  13.739  10.152   7.365 -0.4068 -0.0294 -0.2228
  419MOL0     C57727  13.765  10.013   7.421  0.2640 -0.5116 -0.4551
  419MOL0     C57728  13.881  10.026   7.512 -0.7267 -0.6424 -0.5400
  419MOL0    Cl57729  13.919   9.860   7.569  0.4364 -0.0055  0.1463
  419MOL0     C57730  13.187  10.392   6.696 -0.4266 -0.1055  0.5376
  419MOL0     C57731  13.089  10.404   6.605  0.2446 -0.4144  0.3331
  419MOL0     O57732  12.804  10.633   6.612  0.3959 -0.2216 -0.7574
  419MOL0     C57733  12.802  10.687   6.269  0.1324  0.2116  0.3755
  419MOL0     C57734  12.717  10.700   6.156  0.0135 -0.7670  0.2104
  419MOL0     N57735  11.871  10.541   6.141 -0.5618 -1.2172 -0.5310
  419MOL0     N57736  11.757  10.539   6.198 -0.0903 -0.3240 -0.7292
  419MOL0     C57737  10.977  10.697   7.006 -0.5690 -0.1791  0.3018
  419MOL0     C57738  10.918  10.634   7.117  0.5792 -0.2714  0.3744
  419MOL0     C57739  10.940  10.511   7.565  0.6549 -0.1818 -0.2872
  419MOL0     C57740  11.040  10.418   7.527 -0.5592  0.0299  0.2890
  419MOL0     C57741  11.071  10.317   7.612  0.0640  0.5818 -0.1134
  419MOL0     C57742  10.998  10.301   7.728  0.5587  0.0077 -0.5330
  419MOL0     O57743  11.008  10.196   7.816  0.1660 -0.7207  1.1059
  419MOL0     C57744  11.141  10.134   7.819  0.0907  1.0745  0.0125
  419MOL0     C57745  11.164  10.042   7.943 -0.0908  0.3107  0.4874
  419MOL0     C57746  11.285   9.953   7.920 -0.4654  0.4426  0.4701
  419MOL0     C57747  11.303   9.837   8.009 -0.4125 -0.2757 -0.4213
  419MOL0     C57748  11.347   9.883   8.142  0.0016  0.1733  0.2196
  419MOL0     C57749  11.362   9.931   8.256 -0.8661  0.8090  0.1868
  419MOL0     C57750  10.895  10.391   7.760  0.3922  0.1353 -0.5589
  419MOL0     C57751  10.864  10.497   7.679 -0.4561 -0.2313  0.1273
  419MOL0     C57752  10.744  10.583   7.711 -0.7115  0.1454 -0.4009
  419MOL0     H57753  11.116  10.753   7.358  2.7426 -1.2022  0.1889
  419MOL0     H57754  11.236  10.837   7.177 -0.1113  0.3964  0.9128
  419MOL0     H57755  11.326  10.936   6.982  0.1908 -0.8160 -0.6428
  419MOL0     H57756  11.169  11.014   6.976  1.1987  0.7935 -1.0621
  419MOL0     H57757  11.159  11.009   6.722  2.3290 -1.6011 -1.8193
  419MOL0     H57758  11.276  11.105   6.787  0.6486  0.0688 -0.4769
  419MOL0     H57759  11.333  10.822   6.698 -2.1087  0.7572  0.8890
  419MOL0     H57760  11.351  10.952   6.588  1.4025 -1.6024 -0.6534
  419MOL0     H57761  11.512  11.071   6.757 -0.0257  0.3693 -0.4744
  419MOL0     H57762  11.523  10.913   6.830  0.4370  0.5690 -0.5467
  419MOL0     H57763  11.697  10.960   6.683 -0.7120 -2.7598 -0.2756
  419MOL0     H57764  11.581  10.985   6.545 -0.1149  0.8231 -0.6482
  419MOL0     H57765  11.675  10.738   6.682  1.5784 -0.8293 -2.1651
  419MOL0     H57766  11.501  10.753   6.611 -1.0075  2.5925 -0.9373
  419MOL0     H57767  11.747  10.806   6.464 -0.5320  2.2498 -0.1105
  419MOL0     H57768  11.601  10.807   6.390 -0.4674 -1.3462 -1.2320
  419MOL0     H57769  11.710  10.556   6.521  0.4788  2.7730  0.8549
  419MOL0     H57770  11.577  10.546   6.400 -0.3606 -1.3555  0.4175
  419MOL0     H57771  11.950  10.646   6.444 -1.7972  0.2839  0.8867
  419MOL0     H57772  12.167  10.578   6.298 -1.1210 -3.7255 -0.2470
  419MOL0     H57773  12.129  10.703   6.189  1.5535 -0.7613  0.7972
  419MOL0     H57774  12.169  10.413   6.093  1.9262 -1.1332 -4.6915
  419MOL0     H57775  12.132  10.558   5.990 -0.6317  3.0394  1.3189
  419MOL0     H57776  12.394  10.485   6.113 -1.4514 -2.3408  0.3475
  419MOL0     H57777  12.349  10.513   5.946 -3.2328  2.0394 -0.9528
  419MOL0     H57778  12.321  10.756   5.980 -0.3763 -1.3258 -1.3897
  419MOL0     H57779  12.344  10.750   6.148  2.1121  1.7306 -0.6298
  419MOL0     H57780  12.419  10.625   6.297  1.0613 -1.4599  0.1651
  419MOL0     H57781  12.583  10.483   6.579  0.4740 -0.3663  1.4283
  419MOL0     H57782  12.435  10.538   6.505  0.2980  1.0932  0.3177
  419MOL0     H57783  12.538  10.650   6.608 -0.6410 -0.4246 -0.5530
  419MOL0     H57784  13.110  10.736   6.538  0.9516 -0.8835 -0.8448
  419MOL0     H57785  13.271  10.727   6.713 -0.0125  0.8423 -0.9463
  419MOL0     H57786  13.275  10.369   6.986  0.5892 -3.7020 -1.0758
  419MOL0     H57787  13.376  10.295   6.868  2.5713 -1.0827  0.9256
  419MOL0     H57788  13.576  10.411   6.934 -1.3093  0.1495 -0.4943
  419MOL0     H57789  13.494  10.485   7.062 -4.2203  1.6411  0.0482
  419MOL0     H57790  13.540  10.189   6.998 -0.6687 -1.4910  0.7678
  419MOL0     H57791  13.418  10.230   7.111  0.8443 -1.1250 -0.8360
  419MOL0     H57792  13.578  10.347   7.259 -0.1324  0.7356 -1.1785
  419MOL0     H57793  13.712  10.325   7.158 -0.2623  0.0858  1.7408
  419MOL0     H57794  13.542  10.127   7.309 -2.8129  3.4075 -2.2101
  419MOL0     H57795  13.660  10.070   7.182  2.2732 -0.3841  0.8404
  419MOL0     H57796  13.688  10.206   7.446 -3.5925 -0.4868 -1.7621
  419MOL0     H57797  13.826  10.204   7.325 -1.3558 -0.2244 -2.6890
  419MOL0     H57798  13.785   9.953   7.331  3.1099  2.1310 -1.7735
  419MOL0     H57799  13.677   9.975   7.473  1.1566  0.1296  1.6199
  419MOL0     H57800  13.852  10.097   7.589  0.3105 -1.7092  0.8927
  419MOL0     H57801  13.969  10.064   7.460  1.1029 -1.5711  1.7299
  419MOL0     H57802  13.218  10.291   6.721  0.2327 -0.2890 -0.8673
  419MOL0     H57803  13.036  10.317   6.567 -1.6173  1.2285 -1.0522
  419MOL0     H57804  12.909  10.702   6.254 -0.0352 -0.5569 -2.0221
  419MOL0     H57805  12.745  10.728   6.055 -4.1058 -0.6340 -1.0459
  419MOL0     H57806  10.941  10.678   6.905 -1.1058 -0.6413  0.5767
  419MOL0     H57807  10.836  10.567   7.093 -0.1978  1.3834 -1.9728
  419MOL0     H57808  11.084  10.417   7.428 -2.4363 -4.7875 -0.7792
  419MOL0     H57809  11.157  10.253   7.594  0.5582  1.4182 -0.8073
  419MOL0     H57810  11.139  10.073   7.728  0.2502 -2.9484  2.4638
  419MOL0     H57811  11.212  10.218   7.817 -0.7264  1.8432 -3.2559
  419MOL0     H57812  11.080   9.972   7.948 -1.4628  1.8954  0.5836
  419MOL0     H57813  11.176  10.091   8.040 -3.1567  0.9836  0.6382
  419MOL0     H57814  11.288   9.918   7.817  0.5462  1.2758  0.1972
  419MOL0     H57815  11.377  10.013   7.926 -1.7027  2.5036 -0.0071
  419MOL0     H57816  11.384   9.775   7.971  1.1100  1.9426 -0.9906
  419MOL0     H57817  11.213   9.776   8.025 -0.4048 -0.0980  0.3368
  419MOL0     H57818  11.385   9.967   8.354  3.1296  0.0575 -0.3307
  419MOL0     H57819  10.835  10.369   7.848 -0.3737  0.1696 -1.0679
  419MOL0     H57820  10.713  10.577   7.816  0.7741 -1.0913  0.0034
  419MOL0     H57821  10.764  10.690   7.699 -0.2376  0.1442  0.3284
  419MOL0     H57822  10.655  10.563   7.650 -0.1069 -0.0283 -1.2430
  420MOL0     O57823   5.511  10.864   0.751 -0.2272 -0.4374  0.5189
  420MOL0     C57824   5.615  10.812   0.727  0.2342  0.5249 -1.0993
  420MOL0     O57825   5.627  10.693   0.660 -0.0542  0.0070 -0.2302
  420MOL0     C57826   5.517  10.627   0.615  0.7333 -0.0421  0.7790
  420MOL0     C57827   5.497  10.500   0.669  0.1477 -0.3824  0.9445
  420MOL0     C57828   5.391  10.429   0.617  0.3927 -0.3056 -0.7273
  420MOL0     C57829   5.297  10.485   0.528  0.4401  0.1329  0.1695
  420MOL0     O57830   5.192  10.419   0.476  0.1167 -0.4503 -0.1770
  420MOL0     C57831   5.144  10.297   0.526  0.6734  0.3348  0.1033
  420MOL0     C57832   5.025  10.256   0.437  0.2020  0.2811 -0.1483
  420MOL0     C57833   5.073  10.215   0.302 -0.7457  0.4339  0.3974
  420MOL0     C57834   4.955  10.209   0.207  0.3734  0.0273 -0.7796
  420MOL0     C57835   5.006  10.211   0.060 -1.1010 -0.3839 -0.1367
  420MOL0     C57836   4.892  10.169  -0.029  0.1464 -0.0625 -0.9345
  420MOL0     C57837   4.907  10.220  -0.171 -0.2798 -0.1362 -0.1010
  420MOL0     C57838   4.812  10.138  -0.267  0.1144  0.3421 -0.0680
  420MOL0     N57839   4.888  10.016  -0.291 -0.0080 -0.1263 -0.2142
  420MOL0     C57840   4.961   9.984  -0.409  0.6586 -0.1004 -0.0036
  420MOL0     C57841   5.033   9.875  -0.378  0.1654  0.2132 -0.4551
  420MOL0     C57842   5.143   9.789  -0.445  0.5575  0.3337  0.3694
  420MOL0     C57843   5.284   9.830  -0.423  0.5881  0.4489  0.1465
  420MOL0     C57844   5.333   9.819  -0.276 -0.1665 -0.1220  0.1043
  420MOL0     C57845   5.352   9.669  -0.227 -0.2347  0.2850 -0.3192
  420MOL0     O57846   5.454   9.599  -0.298  0.6537  0.2205 -0.2801
  420MOL0     C57847   5.479   9.472  -0.245  0.0496 -0.2111  0.4822
  420MOL0     C57848   5.379   9.377  -0.212  0.2106 -0.4050  0.3986
  420MOL0     C57849   5.416   9.243  -0.177 -0.9982 -0.4668  0.1739
  420MOL0     C57850   5.308   9.149  -0.148 -0.4171  0.2895 -0.4530
  420MOL0     C57851   5.547   9.203  -0.157  0.6237  0.0362  0.0578
  420MOL0     C57852   5.595   9.062  -0.137 -0.5872  0.0809 -0.0982
  420MOL0     O57853   5.733   9.056  -0.138  0.3108  0.1118  1.3366
  420MOL0     C57854   5.784   8.932  -0.159  0.3803  0.5827 -1.0284
  420MOL0     C57855   5.829   8.862  -0.050  1.0566 -0.0243 -0.3389
  420MOL0     C57856   5.904   8.748  -0.073 -0.4712 -0.0978  0.7264
  420MOL0     C57857   5.917   8.684  -0.199 -0.6232  0.2976 -0.3161
  420MOL0     O57858   5.996   8.577  -0.221  0.3249  0.2676  0.3880
  420MOL0     C57859   5.955   8.481  -0.324  0.0592 -0.7229 -0.5310
  420MOL0     C57860   6.016   8.347  -0.307 -0.8030  0.4415  0.1718
  420MOL0     C57861   6.170   8.364  -0.335  0.4438  0.1056 -0.4580
  420MOL0     C57862   6.238   8.234  -0.291 -1.1124  0.3386  0.1791
  420MOL0     C57863   6.380   8.230  -0.352 -0.2301 -0.2742  0.0485
  420MOL0     C57864   6.452   8.095  -0.333 -0.2924 -0.6168 -0.1360
  420MOL0     C57865   6.599   8.110  -0.388 -0.1988  0.0050 -0.3039
  420MOL0     C57866   6.652   7.972  -0.414  0.3182  0.5171 -0.2813
  420MOL0    Cl57867   6.641   7.882  -0.263 -0.2101 -0.1114  0.1770
  420MOL0     C57868   5.859   8.751  -0.310  0.0771  1.2847  0.2435
  420MOL0     C57869   5.788   8.870  -0.287 -0.5022  0.1300 -0.7140
  420MOL0     O57870   5.519   8.962  -0.120 -0.6130 -0.2480  0.6032
  420MOL0     C57871   5.645   9.298  -0.183  0.3968 -0.4970 -0.1973
  420MOL0     C57872   5.610   9.433  -0.224 -0.3603  0.3703  0.8845
  420MOL0     N57873   4.997   9.833  -0.250  0.9948  0.2073 -0.5964
  420MOL0     N57874   4.910   9.917  -0.195  0.6386 -0.0674 -0.1546
  420MOL0     C57875   5.318  10.620   0.479 -0.3770 -0.4176  0.0723
  420MOL0     C57876   5.434  10.683   0.516 -0.5411 -0.4307  0.4259
  420MOL0     C57877   5.729  10.896   0.767  0.2769 -0.1063 -0.4191
  420MOL0     C57878   5.797  10.876   0.886  0.1033 -0.4857 -0.3366
  420MOL0     C57879   5.911  10.941   0.923  0.3956 -0.6293  0.2863
  420MOL0     C57880   5.954  11.040   0.832  0.4523 -0.1409 -0.5192
  420MOL0     O57881   6.061  11.102   0.874 -0.7235  0.1919  0.1252
  420MOL0     C57882   6.099  11.226   0.816  0.7008 -0.2696  0.1220
  420MOL0     C57883   6.173  11.310   0.924  0.6161 -0.4197 -0.2983
  420MOL0     C57884   6.221  11.448   0.864 -0.2162  0.4481 -0.3747
  420MOL0     C57885   6.328  11.525   0.944  0.2469 -0.5332 -0.2416
  420MOL0     C57886   6.330  11.665   0.903  0.6589 -0.5215 -0.5673
  420MOL0     C57887   6.337  11.784   0.878  1.1344 -0.3593 -0.4147
  420MOL0     C57888   5.888  11.059   0.705  0.4143  0.0284 -0.3419
  420MOL0     C57889   5.770  10.990   0.674 -0.1862 -0.9767  0.3578
  420MOL0     C57890   5.726  10.993   0.535 -0.9460 -0.7986  0.0704
  420MOL0     H57891   5.560  10.459   0.748  0.4000  3.0590  2.7127
  420MOL0     H57892   5.380  10.328   0.655  0.3939  0.1470  0.5274
  420MOL0     H57893   5.121  10.293   0.632  1.8342 -0.3474  0.3617
  420MOL0     H57894   5.236  10.237   0.523  0.7766  0.3184  2.2781
  420MOL0     H57895   4.986  10.163   0.480 -1.3463 -0.5824 -3.1237
  420MOL0     H57896   4.938  10.323   0.440 -0.3989 -0.5061  0.5083
  420MOL0     H57897   5.136  10.295   0.262 -0.0193 -1.0032 -1.4944
  420MOL0     H57898   5.125  10.120   0.315 -2.6419 -0.6933  0.0224
  420MOL0     H57899   4.900  10.116   0.226  0.2462  0.3531  0.4905
  420MOL0     H57900   4.877  10.281   0.232  1.0226 -0.7739  4.8095
  420MOL0     H57901   5.084  10.138   0.036 -2.5607 -1.5366 -1.5490
  420MOL0     H57902   5.045  10.309   0.030 -0.6318 -0.2018  1.0093
  420MOL0     H57903   4.883  10.062  -0.009  0.1669 -0.2970 -2.1068
  420MOL0     H57904   4.811  10.231   0.012  1.8152 -1.0254  4.6495
  420MOL0     H57905   5.014  10.226  -0.193 -0.8717  0.1084 -3.5228
  420MOL0     H57906   4.870  10.323  -0.179 -1.5483 -0.4392  1.2160
  420MOL0     H57907   4.714  10.119  -0.223  0.2940 -3.7047 -1.0382
  420MOL0     H57908   4.808  10.187  -0.365 -1.5448  0.4332  0.0092
  420MOL0     H57909   4.968  10.030  -0.507  0.1008 -0.9815 -0.4708
  420MOL0     H57910   5.126   9.794  -0.553 -1.4880  1.5166  0.7031
  420MOL0     H57911   5.145   9.684  -0.418  2.3164  0.0004 -0.8598
  420MOL0     H57912   5.354   9.773  -0.485  0.1832  0.4369 -0.3027
  420MOL0     H57913   5.282   9.938  -0.443  0.3036  0.8820  2.2846
  420MOL0     H57914   5.432   9.865  -0.277 -0.2745  0.1128  0.0801
  420MOL0     H57915   5.274   9.861  -0.195  2.0270 -1.6395  2.6633
  420MOL0     H57916   5.386   9.660  -0.124 -1.8357 -1.1738  0.1225
  420MOL0     H57917   5.257   9.615  -0.235 -2.0542  3.1542  0.0856
  420MOL0     H57918   5.272   9.394  -0.213  0.0532 -1.3873 -0.3057
  420MOL0     H57919   5.305   9.069  -0.222  1.4728  1.2380 -1.6543
  420MOL0     H57920   5.215   9.206  -0.157 -0.7569  0.2567  2.0177
  420MOL0     H57921   5.314   9.114  -0.044  0.7816  1.2904 -0.1453
  420MOL0     H57922   5.818   8.917   0.043  0.0236 -1.8050  0.6599
  420MOL0     H57923   5.940   8.697   0.016  0.0940  0.1989  0.6652
  420MOL0     H57924   5.846   8.474  -0.324 -0.0583  0.5541  0.7092
  420MOL0     H57925   5.969   8.515  -0.427 -3.7153 -1.8642 -1.5858
  420MOL0     H57926   5.993   8.317  -0.204  2.0717 -0.8054  0.5484
  420MOL0     H57927   5.963   8.276  -0.370 -1.3859  1.3536 -0.3870
  420MOL0     H57928   6.211   8.447  -0.277 -0.8019  0.0074  0.6147
  420MOL0     H57929   6.191   8.383  -0.440  2.1694  2.2774  0.2106
  420MOL0     H57930   6.179   8.148  -0.323  2.3831 -2.5160  0.7340
  420MOL0     H57931   6.255   8.232  -0.183  1.3781  4.1219  0.0449
  420MOL0     H57932   6.374   8.248  -0.460  1.8641 -0.7706 -0.1997
  420MOL0     H57933   6.434   8.310  -0.301  0.4960 -0.2424 -0.7462
  420MOL0     H57934   6.397   8.021  -0.392 -2.3540  1.7130 -1.3033
  420MOL0     H57935   6.457   8.075  -0.226 -0.4887  2.5404  0.5600
  420MOL0     H57936   6.667   8.166  -0.322 -0.9333 -1.0123  1.3595
  420MOL0     H57937   6.593   8.165  -0.483 -1.1037 -1.6499 -1.2403
  420MOL0     H57938   6.750   7.967  -0.463  0.7435  0.5568  0.5490
  420MOL0     H57939   6.587   7.922  -0.486  1.8115 -2.4543  0.2872
  420MOL0     H57940   5.868   8.720  -0.414  2.0998 -0.3349  0.8465
  420MOL0     H57941   5.738   8.923  -0.367  4.4456  1.5513 -3.2706
  420MOL0     H57942   5.752   9.284  -0.172  0.9386  3.2988  0.7622
  420MOL0     H57943   5.687   9.504  -0.251 -1.4280  1.9485  1.7896
  420MOL0     H57944   5.236  10.655   0.418 -3.3294 -0.6331  3.6332
  420MOL0     H57945   5.461  10.779   0.473  0.0505 -1.2982 -1.2457
  420MOL0     H57946   5.758  10.807   0.960  0.2637  0.0068  0.2125
  420MOL0     H57947   5.954  10.932   1.022 -0.9058 -1.8061  0.7756
  420MOL0     H57948   6.155  11.232   0.723 -1.4965  1.1798 -1.1882
  420MOL0     H57949   6.010  11.286   0.794 -0.0585 -0.7115  1.8366
  420MOL0     H57950   6.266  11.256   0.947  0.0302 -0.3686  2.5595
  420MOL0     H57951   6.111  11.305   1.013  3.5174 -0.7733  1.8571
  420MOL0     H57952   6.275  11.434   0.769 -0.0282  1.2322 -0.3831
  420MOL0     H57953   6.135  11.513   0.845 -0.1434  0.7292  0.2480
  420MOL0     H57954   6.423  11.472   0.943 -0.2458 -1.6046  1.8912
  420MOL0     H57955   6.291  11.522   1.047  0.8443 -1.2992 -0.0394
  420MOL0     H57956   6.360  11.881   0.839 -2.7596  0.5677 -0.7230
  420MOL0     H57957   5.920  11.133   0.633  1.8518  2.8346  2.9514
  420MOL0     H57958   5.637  10.934   0.514  0.1277 -2.5262  0.1624
  420MOL0     H57959   5.700  11.098   0.518 -0.5263 -0.5634  0.8177
  420MOL0     H57960   5.803  10.952   0.469  1.6470 -0.4209  2.6387
  421MOL0     O57961  10.795   3.067   5.200 -0.4380  0.5744  0.2976
  421MOL0     C57962  10.748   3.178   5.216 -0.0122 -0.2170 -0.2631
  421MOL0     O57963  10.812   3.290   5.279 -0.0301 -0.1630  0.0761
  421MOL0     C57964  10.932   3.270   5.335  0.2019 -0.5826  0.2006
  421MOL0     C57965  10.964   3.187   5.444 -0.8652  0.1451 -0.1865
  421MOL0     C57966  11.093   3.182   5.500 -0.1916 -0.6388 -0.2167
  421MOL0     C57967  11.191   3.273   5.453  0.0836 -0.2857  0.1984
  421MOL0     O57968  11.312   3.298   5.515 -0.3071  0.5605  0.6760
  421MOL0     C57969  11.321   3.288   5.659 -0.2730 -0.3390  0.0470
  421MOL0     C57970  11.377   3.429   5.711  0.8326 -0.0392  0.0505
  421MOL0     C57971  11.289   3.547   5.681  0.9192 -0.6621 -0.2237
  421MOL0     C57972  11.190   3.577   5.798 -1.5714  0.6677 -0.2772
  421MOL0     C57973  11.153   3.731   5.800  0.6749 -0.9923 -0.6424
  421MOL0     C57974  11.227   3.824   5.900  0.6572  0.1243 -1.3636
  421MOL0     C57975  11.197   3.800   6.053  0.6694  1.0018 -0.0813
  421MOL0     C57976  11.253   3.910   6.138  0.0995  0.3918 -0.4093
  421MOL0     N57977  11.400   3.920   6.121  0.4138  0.0510 -0.2233
  421MOL0     C57978  11.489   3.855   6.196 -0.2323 -0.6696 -0.1961
  421MOL0     C57979  11.608   3.897   6.158  0.5683  0.5801 -0.8248
  421MOL0     C57980  11.728   3.846   6.220  0.0706  0.0952  0.2707
  421MOL0     C57981  11.779   3.719   6.145 -0.0795 -0.4312  0.1383
  421MOL0     C57982  11.919   3.670   6.205 -0.0196  0.0838 -0.1894
  421MOL0     C57983  11.969   3.534   6.143  0.1577 -0.0928  0.5027
  421MOL0     O57984  12.088   3.489   6.202  0.4667  0.4005  0.4350
  421MOL0     C57985  12.212   3.516   6.136 -0.7208 -0.4154 -0.2421
  421MOL0     C57986  12.316   3.522   6.228 -0.1316 -0.2805  0.3997
  421MOL0     C57987  12.448   3.541   6.194 -0.2319 -0.3757 -0.4034
  421MOL0     C57988  12.546   3.529   6.312  0.5463 -0.5182 -0.3294
  421MOL0     C57989  12.486   3.553   6.059  1.0233 -0.2979  0.4714
  421MOL0     C57990  12.630   3.561   6.013 -0.3536  0.1189 -0.1065
  421MOL0     O57991  12.724   3.616   6.097 -0.1602  0.0772 -0.0504
  421MOL0     C57992  12.855   3.619   6.070 -0.4983 -0.1092 -0.6835
  421MOL0     C57993  12.929   3.730   6.106 -0.3118  0.1881 -0.5172
  421MOL0     C57994  13.067   3.728   6.087  0.4518 -0.0366  0.3952
  421MOL0     C57995  13.132   3.611   6.038 -0.4914 -0.2120  0.3190
  421MOL0     O57996  13.269   3.617   6.023  0.0127 -0.0478 -0.0555
  421MOL0     C57997  13.341   3.514   6.088 -0.1096 -0.2557  0.1885
  421MOL0     C57998  13.435   3.443   5.980  0.4387  0.0638 -0.2026
  421MOL0     C57999  13.511   3.323   6.035 -0.3353 -0.3299 -0.5879
  421MOL0     C58000  13.587   3.270   5.928  0.8354  0.7782 -0.0935
  421MOL0     C58001  13.680   3.163   5.976  0.1112  0.1712  0.5094
  421MOL0     C58002  13.761   3.068   5.872  0.4263 -0.5630  0.4135
  421MOL0     C58003  13.814   3.163   5.759 -1.0605  0.2592 -0.1858
  421MOL0     C58004  13.960   3.121   5.719  0.2895  0.1744 -0.0819
  421MOL0    Cl58005  14.071   3.182   5.848  0.3411 -0.0183  0.0066
  421MOL0     C58006  13.062   3.498   6.002  0.1299 -0.1020 -0.2833
  421MOL0     C58007  12.923   3.507   6.022  0.2520 -0.0000  0.5125
  421MOL0     O58008  12.656   3.515   5.908  0.0704 -0.6898  0.0421
  421MOL0     C58009  12.385   3.539   5.958  0.0270 -0.3237  0.4806
  421MOL0     C58010  12.246   3.525   5.997 -0.2176  0.0904 -0.6688
  421MOL0     N58011  11.588   3.979   6.049  0.1787 -0.5486  1.3123
  421MOL0     N58012  11.461   3.992   6.023  0.2621 -0.7946  0.0584
  421MOL0     C58013  11.156   3.363   5.345  0.3192 -0.1957  0.5406
  421MOL0     C58014  11.022   3.365   5.296 -0.2676  0.3185 -0.4977
  421MOL0     C58015  10.624   3.227   5.145 -0.0160  0.5875 -0.6676
  421MOL0     C58016  10.625   3.348   5.075  0.3048  0.8392  0.3462
  421MOL0     C58017  10.512   3.404   5.021 -0.1651  0.2378  0.2329
  421MOL0     C58018  10.393   3.346   5.041  0.2248 -0.8170 -0.8534
  421MOL0     O58019  10.286   3.417   5.000 -0.5138 -0.2878 -0.5916
  421MOL0     C58020  10.152   3.369   4.993  0.0757 -0.5015  0.5427
  421MOL0     C58021  10.136   3.286   4.868  0.5030 -0.2695  0.1976
  421MOL0     C58022   9.982   3.273   4.833  0.5394  0.0175  0.1007
  421MOL0     C58023   9.955   3.179   4.714  1.3873  0.1908  0.4167
  421MOL0     C58024   9.827   3.215   4.643  0.1425  0.1857  0.6172
  421MOL0     C58025   9.723   3.242   4.594 -0.1270  0.5176  0.3450
  421MOL0     C58026  10.383   3.222   5.098  0.1541  0.6058 -0.0175
  421MOL0     C58027  10.502   3.160   5.151 -0.7200  0.3618 -0.2113
  421MOL0     C58028  10.487   3.029   5.216  0.2193  0.2056  0.2752
  421MOL0     H58029  10.893   3.110   5.471  2.0926 -2.5201  0.5429
  421MOL0     H58030  11.120   3.110   5.576 -1.7980  0.7258  1.7695
  421MOL0     H58031  11.389   3.206   5.685 -0.1870  0.2429  1.8057
  421MOL0     H58032  11.224   3.264   5.704 -0.2312 -1.0657 -0.2349
  421MOL0     H58033  11.413   3.408   5.813  2.0397 -0.2335 -0.3984
  421MOL0     H58034  11.468   3.451   5.654  1.7646 -2.0841  0.6329
  421MOL0     H58035  11.340   3.638   5.648 -0.1174 -0.1758 -0.5276
  421MOL0     H58036  11.234   3.518   5.591 -1.8307 -1.3426  1.5383
  421MOL0     H58037  11.105   3.514   5.772 -2.1490  0.8890  0.9686
  421MOL0     H58038  11.224   3.537   5.894 -0.8424 -0.5168 -1.0115
  421MOL0     H58039  11.050   3.725   5.835  1.2437 -2.1686  1.0054
  421MOL0     H58040  11.139   3.758   5.695 -2.1452 -1.5607 -0.4883
  421MOL0     H58041  11.335   3.820   5.881  0.6000 -1.0298 -1.5582
  421MOL0     H58042  11.197   3.927   5.882  1.2920  0.6629  0.4506
  421MOL0     H58043  11.239   3.703   6.083  0.5326  1.2440  0.9462
  421MOL0     H58044  11.089   3.793   6.074  0.7801  1.5004  0.7071
  421MOL0     H58045  11.199   3.998   6.102 -0.1575  0.2330 -0.4127
  421MOL0     H58046  11.219   3.893   6.241  0.9104  1.5045  0.0570
  421MOL0     H58047  11.471   3.792   6.282  4.1715 -0.1904  1.3048
  421MOL0     H58048  11.718   3.819   6.325 -0.5821 -1.3750 -0.1355
  421MOL0     H58049  11.801   3.927   6.219  0.5318 -0.3162  0.1218
  421MOL0     H58050  11.712   3.638   6.175 -0.0724 -0.9893 -1.2920
  421MOL0     H58051  11.783   3.721   6.036  1.2146 -0.6724  0.1701
  421MOL0     H58052  11.999   3.743   6.199  2.5541 -2.3779  1.3416
  421MOL0     H58053  11.913   3.645   6.312 -2.5809 -1.2492 -0.5458
  421MOL0     H58054  11.888   3.460   6.133  0.9408 -1.6129  3.9212
  421MOL0     H58055  11.998   3.548   6.038 -3.9837  1.7477 -0.6101
  421MOL0     H58056  12.290   3.537   6.332 -2.6710  0.8270 -0.2970
  421MOL0     H58057  12.617   3.447   6.296  1.6170  0.7661 -2.7234
  421MOL0     H58058  12.502   3.507   6.410  2.1127  2.8604  1.2840
  421MOL0     H58059  12.596   3.620   6.344 -1.9610 -0.3800  3.9789
  421MOL0     H58060  12.875   3.812   6.150  2.7190  2.7881 -1.2557
  421MOL0     H58061  13.129   3.814   6.113  0.3851  1.0528 -2.5760
  421MOL0     H58062  13.401   3.562   6.166  2.6802 -3.1307 -0.0154
  421MOL0     H58063  13.268   3.456   6.145 -2.5212  2.5430  0.2199
  421MOL0     H58064  13.382   3.397   5.897  2.5132 -3.4526  0.2065
  421MOL0     H58065  13.504   3.522   5.950 -1.6450  2.0964  0.0290
  421MOL0     H58066  13.443   3.251   6.082 -1.4710  1.6200  0.9039
  421MOL0     H58067  13.583   3.356   6.110 -0.0590 -0.2850 -0.8713
  421MOL0     H58068  13.650   3.347   5.882  0.2137 -0.1622 -2.6896
  421MOL0     H58069  13.523   3.226   5.851  2.1103  0.0091 -0.7510
  421MOL0     H58070  13.753   3.214   6.040 -0.0996  0.5899  0.4202
  421MOL0     H58071  13.619   3.094   6.035 -3.5773  1.8466 -0.9704
  421MOL0     H58072  13.691   2.996   5.829  0.2503  0.1110 -0.4279
  421MOL0     H58073  13.849   3.019   5.915  3.0705  0.7750 -2.9915
  421MOL0     H58074  13.820   3.265   5.799 -0.3067  0.3414 -0.4849
  421MOL0     H58075  13.740   3.157   5.679 -2.1804 -2.0462  0.9174
  421MOL0     H58076  13.990   3.157   5.621 -0.0099 -1.7036 -0.9047
  421MOL0     H58077  13.963   3.011   5.714  0.5759  0.1695  0.1745
  421MOL0     H58078  13.111   3.410   5.961  3.1421  1.8728 -1.2944
  421MOL0     H58079  12.869   3.417   5.992  1.4006 -0.6576  0.3548
  421MOL0     H58080  12.409   3.554   5.854  0.2480 -0.7535  0.4659
  421MOL0     H58081  12.185   3.509   5.908  0.6353 -1.3332 -1.0286
  421MOL0     H58082  11.235   3.433   5.321  5.8599 -5.5839  0.6958
  421MOL0     H58083  10.986   3.441   5.227 -0.6909 -1.6799 -2.6041
  421MOL0     H58084  10.720   3.401   5.076  1.8544 -1.7622  2.3093
  421MOL0     H58085  10.510   3.490   4.955 -2.1580  0.0533 -0.0045
  421MOL0     H58086  10.125   3.312   5.083 -1.2101  1.6052  1.5642
  421MOL0     H58087  10.086   3.456   4.999  0.7646 -0.0015  0.9045
  421MOL0     H58088  10.183   3.187   4.870  1.9550  0.3377 -1.4276
  421MOL0     H58089  10.180   3.355   4.796  0.4021  3.2822  3.2472
  421MOL0     H58090   9.935   3.222   4.918 -1.0056 -2.6318 -2.1885
  421MOL0     H58091   9.941   3.374   4.827 -2.4751 -1.1067  0.1745
  421MOL0     H58092   9.950   3.074   4.746  0.5510 -0.0791 -0.5313
  421MOL0     H58093  10.037   3.175   4.642  1.1765 -1.5757  0.2121
  421MOL0     H58094   9.622   3.243   4.557 -0.0592 -2.6954 -0.1511
  421MOL0     H58095  10.294   3.164   5.120  0.3093  0.7677  1.0817
  421MOL0     H58096  10.383   2.996   5.224  0.2762  0.3450  1.7091
  421MOL0     H58097  10.547   2.957   5.160  1.0583  1.3933 -0.3934
  421MOL0     H58098  10.533   3.026   5.315 -2.2110  1.0555  1.5080
  422MOL0     O58099   3.786   3.109   3.221 -0.5122 -0.0679  0.0800
  422MOL0     C58100   3.753   2.991   3.205  0.2678 -0.0850 -0.1422
  422MOL0     O58101   3.819   2.881   3.255 -0.1006 -0.9652  0.1515
  422MOL0     C58102   3.956   2.903   3.280  0.6088 -0.3189  0.5895
  422MOL0     C58103   4.012   2.973   3.390  0.2090 -0.0381  0.6159
  422MOL0     C58104   4.144   2.977   3.407  0.0218  0.4864  0.1798
  422MOL0     C58105   4.236   2.900   3.327  0.5377  0.5053 -0.4752
  422MOL0     O58106   4.375   2.898   3.352  0.1223 -0.0936  0.5286
  422MOL0     C58107   4.410   2.942   3.479 -0.0012 -0.5056 -1.0767
  422MOL0     C58108   4.553   2.905   3.499 -0.3679 -0.2835  0.1413
  422MOL0     C58109   4.652   3.008   3.438  0.5205  0.1779  0.5042
  422MOL0     C58110   4.806   2.967   3.456 -0.7512 -0.3502  1.0137
  422MOL0     C58111   4.899   3.091   3.427  0.0266  0.5431 -0.1519
  422MOL0     C58112   5.046   3.075   3.471  0.4623 -0.1243  0.2456
  422MOL0     C58113   5.067   3.090   3.622  0.6113  0.5667 -0.5921
  422MOL0     C58114   5.205   3.141   3.656  0.0287  0.6554  0.1072
  422MOL0     N58115   5.214   3.157   3.801  0.2056 -0.2645  0.0360
  422MOL0     C58116   5.225   3.071   3.904  0.4175  0.4308 -0.3031
  422MOL0     C58117   5.234   3.152   4.011  1.0783 -0.1171  0.9924
  422MOL0     C58118   5.241   3.119   4.154 -0.4602 -0.1333  0.5687
  422MOL0     C58119   5.383   3.093   4.192  0.0704  0.3348 -1.3758
  422MOL0     C58120   5.401   3.071   4.341  0.2071 -0.2999 -0.5597
  422MOL0     C58121   5.547   3.042   4.388  0.1439 -0.1149 -0.2867
  422MOL0     O58122   5.631   3.160   4.361 -0.7805  0.1401 -0.0167
  422MOL0     C58123   5.764   3.136   4.346 -0.0641  0.5586 -0.2113
  422MOL0     C58124   5.836   3.244   4.299 -0.2001 -0.1710  0.0640
  422MOL0     C58125   5.970   3.226   4.271  0.4305 -0.0158 -0.1544
  422MOL0     C58126   6.036   3.350   4.220  0.3805  0.0123 -0.3566
  422MOL0     C58127   6.035   3.098   4.292 -0.1657  0.1353 -0.3717
  422MOL0     C58128   6.180   3.076   4.271 -0.0951  0.5361 -0.6064
  422MOL0     O58129   6.234   2.970   4.337  0.1639 -1.1515  0.4523
  422MOL0     C58130   6.357   2.979   4.384 -0.2932  0.2400  0.6015
  422MOL0     C58131   6.448   2.871   4.389 -0.4367 -0.1020  0.6831
  422MOL0     C58132   6.578   2.886   4.432 -0.8495  0.4702  0.7588
  422MOL0     C58133   6.621   3.010   4.487  0.1448  0.1763  0.0563
  422MOL0     O58134   6.746   3.012   4.527 -0.8284  0.0328  0.1218
  422MOL0     C58135   6.792   3.132   4.596  0.0595 -0.3370  0.5257
  422MOL0     C58136   6.860   3.247   4.512  0.3677  0.0358 -0.1497
  422MOL0     C58137   6.969   3.203   4.419 -0.0300 -0.0147 -0.0912
  422MOL0     C58138   7.093   3.149   4.501  0.1894 -0.7867  0.4239
  422MOL0     C58139   7.189   3.083   4.399  0.1332 -0.1375  0.9537
  422MOL0     C58140   7.256   3.178   4.302 -0.3700  0.1868  0.1031
  422MOL0     C58141   7.358   3.129   4.197 -1.0266 -0.1820  0.7381
  422MOL0     C58142   7.415   3.241   4.116 -0.3361  0.6793  0.0510
  422MOL0    Cl58143   7.284   3.306   4.011 -0.1018 -0.0742 -0.2532
  422MOL0     C58144   6.529   3.127   4.493 -0.3162  0.7941  0.1056
  422MOL0     C58145   6.399   3.102   4.446  0.2006 -0.2069  0.9358
  422MOL0     O58146   6.234   3.141   4.180  0.0251  0.0261 -0.1228
  422MOL0     C58147   5.964   3.004   4.362  0.8950 -0.0341 -0.0585
  422MOL0     C58148   5.824   3.013   4.372  0.0850 -0.2250  0.8781
  422MOL0     N58149   5.252   3.280   3.972  0.5311 -0.7564 -0.6622
  422MOL0     N58150   5.234   3.284   3.847 -0.4848  0.5067 -0.2058
  422MOL0     C58151   4.185   2.832   3.220  0.6093  0.5891  0.0688
  422MOL0     C58152   4.046   2.840   3.196 -0.0144  0.5656 -0.5486
  422MOL0     C58153   3.628   2.964   3.124  0.3460  0.6815 -1.2114
  422MOL0     C58154   3.650   2.904   3.000 -0.4347 -0.4369  0.0146
  422MOL0     C58155   3.543   2.883   2.914  0.5425  0.0558  0.1507
  422MOL0     C58156   3.415   2.927   2.953 -0.1550  0.6867  0.5922
  422MOL0     O58157   3.297   2.917   2.870 -0.0896 -0.7392  0.0059
  422MOL0     C58158   3.310   2.901   2.724  0.2740  0.2355  0.9472
  422MOL0     C58159   3.301   2.754   2.676  0.1541  0.7361  0.5539
  422MOL0     C58160   3.165   2.696   2.707  0.0616  0.8955  0.8826
  422MOL0     C58161   3.167   2.545   2.680 -0.5225 -0.1411  0.4002
  422MOL0     C58162   3.191   2.516   2.541 -0.2064  0.3226 -0.1832
  422MOL0     C58163   3.207   2.499   2.425 -1.2251  0.6198 -0.0069
  422MOL0     C58164   3.397   2.982   3.083  0.9275 -0.7775  0.0223
  422MOL0     C58165   3.504   3.011   3.167 -0.0892 -1.2135 -0.4106
  422MOL0     C58166   3.474   3.099   3.288 -0.7304  0.3594 -0.2236
  422MOL0     H58167   3.940   3.007   3.464 -1.9837 -1.7363 -0.5850
  422MOL0     H58168   4.171   3.024   3.502  0.2293  1.2217 -0.2322
  422MOL0     H58169   4.347   2.900   3.558  0.8493  2.1625  1.2006
  422MOL0     H58170   4.403   3.051   3.486  1.9253 -0.4444  0.7560
  422MOL0     H58171   4.574   2.902   3.606  1.0177 -1.8512 -0.1227
  422MOL0     H58172   4.576   2.806   3.458  0.5338 -0.6883  1.5315
  422MOL0     H58173   4.620   3.029   3.336  1.7704 -0.2235  0.0222
  422MOL0     H58174   4.645   3.108   3.482  1.6446 -0.3014  1.8249
  422MOL0     H58175   4.823   2.924   3.555  1.4087 -5.4618 -1.1980
  422MOL0     H58176   4.841   2.886   3.391 -0.4524  1.3029 -1.0082
  422MOL0     H58177   4.851   3.175   3.479 -0.6724  0.7314 -1.0808
  422MOL0     H58178   4.892   3.113   3.321 -1.0821  2.0474  0.1932
  422MOL0     H58179   5.102   2.991   3.428 -0.1314 -0.0129 -0.8072
  422MOL0     H58180   5.107   3.154   3.427  0.9814 -2.1239 -2.9683
  422MOL0     H58181   5.041   2.998   3.675  0.6517 -0.1721 -1.8122
  422MOL0     H58182   5.000   3.172   3.651  0.3197  0.4914 -1.0367
  422MOL0     H58183   5.273   3.059   3.629 -0.2461  0.9269 -1.5203
  422MOL0     H58184   5.221   3.235   3.602  1.0601 -0.9588 -2.6147
  422MOL0     H58185   5.211   2.964   3.908  1.2663  0.2368 -1.8557
  422MOL0     H58186   5.186   3.032   4.191  1.8994 -2.4233 -1.0535
  422MOL0     H58187   5.209   3.208   4.210  0.4071  0.9469 -0.5951
  422MOL0     H58188   5.408   2.991   4.161 -1.7548 -1.2332  1.7959
  422MOL0     H58189   5.453   3.171   4.158  0.8125  1.4842  2.3595
  422MOL0     H58190   5.355   3.149   4.402  1.5005 -0.0390  0.1289
  422MOL0     H58191   5.338   2.989   4.376  0.9116 -0.2844  0.8368
  422MOL0     H58192   5.561   3.029   4.496  1.9480  1.0965 -0.3303
  422MOL0     H58193   5.582   2.951   4.339 -0.1300 -0.4057  0.0574
  422MOL0     H58194   5.796   3.344   4.288  0.1290  0.3304  2.6995
  422MOL0     H58195   5.996   3.441   4.267 -1.3289 -1.2352  0.7265
  422MOL0     H58196   6.011   3.358   4.113 -1.6917 -0.8239  0.0157
  422MOL0     H58197   6.145   3.352   4.227  0.3464 -0.5904  0.4353
  422MOL0     H58198   6.432   2.775   4.341  1.9116  1.2123 -3.2222
  422MOL0     H58199   6.646   2.802   4.428 -2.6417 -1.1436  2.2331
  422MOL0     H58200   6.711   3.164   4.662 -1.8282  0.8154 -2.1665
  422MOL0     H58201   6.872   3.101   4.663  1.7596  0.1463 -1.1926
  422MOL0     H58202   6.781   3.290   4.450 -0.0947 -2.0967 -1.1159
  422MOL0     H58203   6.893   3.327   4.580 -2.0666  2.3428 -1.4713
  422MOL0     H58204   6.994   3.294   4.363 -0.8497  1.0853  1.2797
  422MOL0     H58205   6.940   3.131   4.341  0.5193 -0.8867  0.4845
  422MOL0     H58206   7.053   3.070   4.564  0.3428 -0.7744  0.5350
  422MOL0     H58207   7.149   3.216   4.567  1.6781 -2.0514  0.5060
  422MOL0     H58208   7.266   3.039   4.463 -0.7572 -0.9835  1.4737
  422MOL0     H58209   7.140   3.002   4.344 -1.2921  1.6439 -0.5374
  422MOL0     H58210   7.312   3.249   4.364  0.7129  0.0083 -0.6469
  422MOL0     H58211   7.179   3.230   4.244 -0.5874 -1.6106 -1.2922
  422MOL0     H58212   7.318   3.049   4.134  1.3654  0.0449 -1.2183
  422MOL0     H58213   7.446   3.087   4.246 -0.0905 -0.1435 -0.8221
  422MOL0     H58214   7.487   3.200   4.045 -0.8123  0.7962 -0.5113
  422MOL0     H58215   7.469   3.314   4.176 -0.5913 -0.8499  2.2566
  422MOL0     H58216   6.558   3.228   4.521 -3.3382  1.4778  1.0950
  422MOL0     H58217   6.327   3.182   4.455 -1.5359 -1.7082  0.9622
  422MOL0     H58218   6.015   2.929   4.422  0.0695  0.0624  0.7868
  422MOL0     H58219   5.771   2.928   4.414 -0.3287 -0.4592 -0.0870
  422MOL0     H58220   4.256   2.791   3.149  0.8392 -1.3063  1.3243
  422MOL0     H58221   4.000   2.784   3.116  0.7586 -0.4836 -0.2916
  422MOL0     H58222   3.751   2.870   2.978 -0.8306 -1.4484 -0.3099
  422MOL0     H58223   3.554   2.831   2.819  1.0163  2.9540 -1.5039
  422MOL0     H58224   3.228   2.957   2.678  2.4358  1.8626 -1.1555
  422MOL0     H58225   3.395   2.948   2.675 -0.0041  0.2017  0.4274
  422MOL0     H58226   3.374   2.692   2.729 -1.2884 -2.3723 -0.8301
  422MOL0     H58227   3.318   2.757   2.568 -0.2189  0.8788  0.4963
  422MOL0     H58228   3.148   2.720   2.812 -0.6765  0.8206  0.7802
  422MOL0     H58229   3.088   2.750   2.651  0.1761  1.4514  1.2500
  422MOL0     H58230   3.075   2.494   2.712 -0.8853 -0.3687 -0.9122
  422MOL0     H58231   3.243   2.498   2.742  0.9397 -1.0039 -1.9205
  422MOL0     H58232   3.223   2.481   2.320 -0.7798  4.0855 -0.6505
  422MOL0     H58233   3.295   3.007   3.111 -0.1392 -3.0151 -1.5552
  422MOL0     H58234   3.480   3.205   3.264  2.0951 -0.0754 -1.8453
  422MOL0     H58235   3.377   3.067   3.329 -0.2083  1.9342  2.5104
  422MOL0     H58236   3.551   3.081   3.364 -0.7328 -0.3759 -0.3862
  423MOL0     O58237  10.575  10.516   6.920  0.2682 -0.3257  0.8573
  423MOL0     C58238  10.466  10.571   6.889 -0.1083  1.0368 -0.6848
  423MOL0     O58239  10.441  10.633   6.767  0.6977 -0.6593 -0.6190
  423MOL0     C58240  10.558  10.654   6.697  0.7680  0.3909 -0.5673
  423MOL0     C58241  10.570  10.612   6.567  0.2133  0.1170  0.7606
  423MOL0     C58242  10.689  10.627   6.495  0.7871 -0.2771 -0.0747
  423MOL0     C58243  10.792  10.693   6.552 -0.9585  0.5904  0.9231
  423MOL0     O58244  10.904  10.688   6.478 -0.0317  0.1677  0.2495
  423MOL0     C58245  11.015  10.773   6.512  0.6720  0.8295 -0.5017
  423MOL0     C58246  11.120  10.763   6.402  0.6657 -0.8580 -0.3303
  423MOL0     C58247  11.078  10.854   6.281  0.0602 -1.7256  0.0318
  423MOL0     C58248  11.168  10.851   6.158 -0.3877 -0.2357 -0.1924
  423MOL0     C58249  11.324  10.868   6.179  0.2996  0.5870  1.2397
  423MOL0     C58250  11.412  10.857   6.052 -0.1141 -0.1734  0.3243
  423MOL0     C58251  11.421  10.722   5.994  0.0862 -0.1511  0.4306
  423MOL0     C58252  11.491  10.705   5.854  1.0533 -0.1989  0.6701
  423MOL0     N58253  11.624  10.766   5.851  0.4487  0.0900  0.0410
  423MOL0     C58254  11.731  10.757   5.938 -1.1234  0.4747 -0.5821
  423MOL0     C58255  11.821  10.849   5.885 -0.7342 -0.0284  0.7687
  423MOL0     C58256  11.958  10.875   5.934 -0.2221 -0.5758 -0.3291
  423MOL0     C58257  11.965  11.009   6.013 -0.9383 -0.3695 -0.7360
  423MOL0     C58258  11.882  11.012   6.142 -0.5010  0.0870  0.5467
  423MOL0     C58259  11.880  11.157   6.191 -0.2009  0.2127  0.0338
  423MOL0     O58260  11.776  11.162   6.292  0.1028 -0.0852 -0.0851
  423MOL0     C58261  11.736  11.275   6.361  0.6408  0.3107  0.0453
  423MOL0     C58262  11.629  11.257   6.455  0.3528  0.4709  1.0308
  423MOL0     C58263  11.584  11.358   6.543 -0.2531 -0.4712 -1.1138
  423MOL0     C58264  11.469  11.328   6.644 -0.1669  0.2970 -0.0671
  423MOL0     C58265  11.663  11.477   6.544  0.1333 -0.7382 -0.9979
  423MOL0     C58266  11.636  11.591   6.637  0.0090 -0.0618  0.3749
  423MOL0     O58267  11.742  11.678   6.650  0.4376 -0.3889 -0.4496
  423MOL0     C58268  11.702  11.815   6.670  1.6190  0.0468  1.0177
  423MOL0     C58269  11.790  11.901   6.746 -0.5816 -0.0674 -0.2953
  423MOL0     C58270  11.767  12.037   6.742  0.2102 -0.2621  0.5756
  423MOL0     C58271  11.654  12.092   6.682 -0.5795  0.4676 -0.6987
  423MOL0     O58272  11.649  12.230   6.682  0.0950  0.4143  0.2001
  423MOL0     C58273  11.521  12.296   6.697  0.5454 -0.7110  0.2555
  423MOL0     C58274  11.448  12.271   6.827  0.2612 -0.1849 -0.2795
  423MOL0     C58275  11.302  12.303   6.810 -0.1463  0.3712  0.1648
  423MOL0     C58276  11.239  12.309   6.951 -0.7421  0.0366 -0.2705
  423MOL0     C58277  11.085  12.287   6.944 -0.5153 -0.8705  0.3111
  423MOL0     C58278  11.051  12.138   6.909 -0.1520 -0.9850 -0.3817
  423MOL0     C58279  10.905  12.109   6.929 -0.4184  0.5937 -0.4602
  423MOL0     C58280  10.847  12.129   7.075 -0.9011  0.1507  1.0318
  423MOL0    Cl58281  10.719  12.012   7.120 -0.0513  0.7211  0.6761
  423MOL0     C58282  11.564  12.015   6.619  1.5470 -0.0697  0.0242
  423MOL0     C58283  11.589  11.873   6.604  0.1379 -0.1187  0.4091
  423MOL0     O58284  11.531  11.591   6.703  0.1374 -0.0830  0.0375
  423MOL0     C58285  11.774  11.494   6.453 -0.3838 -0.0835 -0.0157
  423MOL0     C58286  11.805  11.396   6.358  0.1726  0.2082  0.0840
  423MOL0     N58287  11.782  10.908   5.765 -0.7782 -0.2801 -0.1168
  423MOL0     N58288  11.656  10.856   5.752 -0.3097 -0.9983  0.1782
  423MOL0     C58289  10.777  10.756   6.678  0.9042 -0.3413  0.3088
  423MOL0     C58290  10.660  10.733   6.749  0.2330  0.0418 -0.4832
  423MOL0     C58291  10.358  10.578   6.990  0.6437  0.2659 -0.2854
  423MOL0     C58292  10.244  10.657   6.967  0.1927  0.3237  1.2251
  423MOL0     C58293  10.146  10.679   7.056 -0.9363  0.3543 -0.1113
  423MOL0     C58294  10.157  10.605   7.179  0.6143 -0.1650  0.4151
  423MOL0     O58295  10.054  10.610   7.265 -0.4994  0.2134  0.2465
  423MOL0     C58296  10.061  10.598   7.410  0.3263  0.1887 -0.5790
  423MOL0     C58297  10.104  10.735   7.473 -0.2601 -0.2779  0.1518
  423MOL0     C58298  10.014  10.850   7.428 -0.0313 -0.1920 -0.0035
  423MOL0     C58299  10.080  10.985   7.461  0.1707  0.3453  0.1463
  423MOL0     C58300  10.210  10.997   7.386  0.6464 -0.6606 -0.6419
  423MOL0     C58301  10.306  11.021   7.320 -0.4363  0.9473 -0.1793
  423MOL0     C58302  10.267  10.528   7.210  0.5735 -0.3957  0.9049
  423MOL0     C58303  10.370  10.511   7.117 -0.1854  0.4505 -0.5305
  423MOL0     C58304  10.498  10.428   7.161 -0.2944 -0.1871 -0.5857
  423MOL0     H58305  10.478  10.575   6.524  0.2877 -0.3075  0.9643
  423MOL0     H58306  10.705  10.592   6.393 -2.0226  1.3887 -1.2104
  423MOL0     H58307  11.052  10.723   6.602  1.4685  1.8323 -0.2583
  423MOL0     H58308  10.984  10.878   6.515  0.8911  0.8835 -0.0141
  423MOL0     H58309  11.219  10.787   6.441  0.1551  1.2502 -0.2071
  423MOL0     H58310  11.134  10.658   6.372  3.1291 -1.0099  1.0705
  423MOL0     H58311  10.977  10.838   6.241  0.7220 -0.2324 -2.4438
  423MOL0     H58312  11.083  10.954   6.325  0.4532 -0.7417 -2.0726
  423MOL0     H58313  11.158  10.748   6.122  3.2937 -0.3182 -1.4114
  423MOL0     H58314  11.142  10.934   6.092  3.0718  0.4198 -0.9049
  423MOL0     H58315  11.359  10.792   6.250  0.0952 -0.2352  0.4885
  423MOL0     H58316  11.328  10.963   6.233 -2.6654  1.9559 -0.6598
  423MOL0     H58317  11.370  10.928   5.980  0.2954 -2.5502 -2.4705
  423MOL0     H58318  11.512  10.903   6.059 -1.1686  3.3526 -3.6359
  423MOL0     H58319  11.316  10.692   5.992 -0.2249  0.8711  0.5170
  423MOL0     H58320  11.474  10.661   6.068  2.3457 -2.5166 -2.8624
  423MOL0     H58321  11.510  10.600   5.828  1.3142  0.0427 -0.1158
  423MOL0     H58322  11.435  10.746   5.770  1.3250 -2.1618 -0.5395
  423MOL0     H58323  11.746  10.695   6.026 -0.3516 -0.5102 -1.3850
  423MOL0     H58324  12.029  10.880   5.850  1.3322  4.0370  0.9560
  423MOL0     H58325  11.990  10.795   6.000 -3.0654 -1.1746  0.4556
  423MOL0     H58326  12.070  11.028   6.036 -1.2737  2.8474 -1.3713
  423MOL0     H58327  11.934  11.095   5.953 -2.5937  0.4591  1.2054
  423MOL0     H58328  11.783  10.968   6.131 -0.8638  1.3708 -1.7143
  423MOL0     H58329  11.931  10.954   6.221 -1.5775  1.2301  2.0985
  423MOL0     H58330  11.974  11.184   6.240  0.2659 -0.1626 -0.6436
  423MOL0     H58331  11.853  11.220   6.106  2.6423 -0.3218 -1.4024
  423MOL0     H58332  11.574  11.164   6.446 -1.4312  1.6525 -1.4959
  423MOL0     H58333  11.511  11.323   6.745  0.8348  4.1224 -0.1457
  423MOL0     H58334  11.418  11.233   6.624 -0.8845  0.9470 -1.5184
  423MOL0     H58335  11.389  11.403   6.646 -0.7315 -0.2984  0.6612
  423MOL0     H58336  11.874  11.867   6.805 -1.1572 -1.3781 -0.1865
  423MOL0     H58337  11.832  12.105   6.796 -2.2578  1.8728  1.0404
  423MOL0     H58338  11.544  12.403   6.689  3.2127 -1.1289  1.3679
  423MOL0     H58339  11.453  12.271   6.615  1.9505 -0.4765 -1.0239
  423MOL0     H58340  11.453  12.166   6.860 -2.3132 -0.2045  0.2985
  423MOL0     H58341  11.491  12.327   6.911  0.1837  0.2717 -0.5439
  423MOL0     H58342  11.267  12.217   6.753  4.5012 -0.9706 -1.0717
  423MOL0     H58343  11.283  12.391   6.747  2.8208 -1.0102 -2.9702
  423MOL0     H58344  11.253  12.408   6.997 -4.4249  0.8677 -0.6091
  423MOL0     H58345  11.284  12.231   7.013  1.1414 -2.2985 -4.1792
  423MOL0     H58346  11.041  12.309   7.041  1.2700 -0.1974  1.0072
  423MOL0     H58347  11.051  12.357   6.866 -0.3409 -1.8914 -0.7039
  423MOL0     H58348  11.119  12.078   6.970  1.7172  0.5886 -0.7952
  423MOL0     H58349  11.071  12.131   6.802 -5.2256 -2.5533 -1.4839
  423MOL0     H58350  10.902  12.004   6.900  0.4884  0.6145 -0.6554
  423MOL0     H58351  10.839  12.160   6.859  1.0618  0.2297 -2.1789
  423MOL0     H58352  10.813  12.233   7.074 -0.1057  0.4216  1.2661
  423MOL0     H58353  10.933  12.137   7.142  2.3769  0.3221 -2.7701
  423MOL0     H58354  11.484  12.063   6.563  1.0760  0.4833  1.1429
  423MOL0     H58355  11.521  11.813   6.544  1.6504 -1.0886 -0.4212
  423MOL0     H58356  11.834  11.585   6.449 -1.1311  0.3776 -1.0267
  423MOL0     H58357  11.892  11.417   6.296  0.2719  1.4963  0.6325
  423MOL0     H58358  10.858  10.819   6.715 -1.2670  1.8108  1.6895
  423MOL0     H58359  10.657  10.767   6.853 -0.2658 -0.0761 -0.4540
  423MOL0     H58360  10.236  10.703   6.869  1.3615 -1.2549  0.3421
  423MOL0     H58361  10.057  10.736   7.033 -1.8481 -0.5377  1.0745
  423MOL0     H58362   9.965  10.561   7.447 -1.0761  3.8039 -0.1838
  423MOL0     H58363  10.133  10.520   7.438  0.5482  1.3726  2.6027
  423MOL0     H58364  10.204  10.748   7.430 -0.0751 -1.3471  0.2306
  423MOL0     H58365  10.107  10.740   7.582  0.3031  0.9452  0.0947
  423MOL0     H58366   9.986  10.846   7.322 -2.8605  2.8571  0.4432
  423MOL0     H58367   9.925  10.839   7.491  1.2272  3.8445  2.8369
  423MOL0     H58368  10.106  11.006   7.565  2.1816  2.8609 -0.7450
  423MOL0     H58369  10.019  11.069   7.426  1.1759  0.6584 -0.9312
  423MOL0     H58370  10.397  11.042   7.268  0.8102 -0.1698  1.4329
  423MOL0     H58371  10.268  10.460   7.295 -1.0303 -1.4188  0.1590
  423MOL0     H58372  10.479  10.389   7.261 -0.5610  2.8810  0.6951
  423MOL0     H58373  10.506  10.349   7.087  0.1047  1.3858 -2.2840
  423MOL0     H58374  10.586  10.493   7.168 -1.7587  1.9113 -0.4620
  424MOL0     O58375   8.686   7.012   3.079  0.3431 -0.2471  0.4651
  424MOL0     C58376   8.600   6.987   2.992 -0.3579 -0.3332 -0.7297
  424MOL0     O58377   8.623   6.933   2.867 -0.3719 -0.2658 -0.0678
  424MOL0     C58378   8.757   6.927   2.829 -0.0884  0.3428  0.9310
  424MOL0     C58379   8.809   6.795   2.791 -0.0049 -0.3407 -0.5549
  424MOL0     C58380   8.934   6.790   2.725  0.1047  0.4860 -0.4733
  424MOL0     C58381   9.012   6.907   2.719 -0.2475  0.2055  0.9718
  424MOL0     O58382   9.143   6.902   2.670  0.4457 -0.1236 -0.5594
  424MOL0     C58383   9.188   6.808   2.568  0.7849 -0.2507 -0.5022
  424MOL0     C58384   9.109   6.819   2.437 -0.3862  0.7913 -0.8348
  424MOL0     C58385   9.165   6.941   2.355  1.0159  0.5351  0.1987
  424MOL0     C58386   9.048   6.989   2.257 -0.6498  0.5064  0.3426
  424MOL0     C58387   8.954   6.889   2.190 -0.1076  0.4782  0.1920
  424MOL0     C58388   8.882   6.961   2.072 -0.2613  0.9904  0.0702
  424MOL0     C58389   8.820   6.853   1.988 -0.1454 -0.3882  1.0199
  424MOL0     C58390   8.672   6.889   1.949 -0.2479  0.0142  1.1211
  424MOL0     N58391   8.683   6.975   1.829 -0.7869 -0.4334  0.7288
  424MOL0     C58392   8.654   7.113   1.828  0.2828 -0.1939 -0.1992
  424MOL0     C58393   8.628   7.138   1.696 -0.0882 -0.0156  0.2648
  424MOL0     C58394   8.581   7.275   1.641  0.4266  0.7881  0.9826
  424MOL0     C58395   8.699   7.370   1.655  0.3786 -0.2347  0.1948
  424MOL0     C58396   8.672   7.496   1.580  0.2070  0.1810 -0.0003
  424MOL0     C58397   8.789   7.592   1.594  0.1941  0.3943 -0.3673
  424MOL0     O58398   8.880   7.544   1.493 -0.2692  0.2953 -0.1547
  424MOL0     C58399   9.013   7.574   1.510  1.1405  0.3994 -0.5224
  424MOL0     C58400   9.110   7.496   1.451  0.5221 -0.0636  0.1620
  424MOL0     C58401   9.247   7.520   1.453 -0.3887 -0.4521 -0.2201
  424MOL0     C58402   9.331   7.417   1.393  0.4782 -0.4939  0.6789
  424MOL0     C58403   9.298   7.639   1.525  0.3861  1.0229 -0.7719
  424MOL0     C58404   9.440   7.681   1.538 -0.2231 -0.5102 -0.1143
  424MOL0     O58405   9.455   7.820   1.542  0.8695  0.1087  0.5686
  424MOL0     C58406   9.578   7.863   1.565  0.0468  0.3679  0.3550
  424MOL0     C58407   9.601   7.928   1.679 -0.8443 -0.5111 -0.6451
  424MOL0     C58408   9.724   7.998   1.691  0.1711 -0.7978  0.8540
  424MOL0     C58409   9.820   7.996   1.591  0.5902  1.0120  0.5514
  424MOL0     O58410   9.934   8.061   1.608  0.1317 -0.6547 -0.1398
  424MOL0     C58411  10.066   7.996   1.599 -0.4038  0.3102 -0.1250
  424MOL0     C58412  10.150   8.084   1.509 -0.8757  0.0408 -0.8216
  424MOL0     C58413  10.190   8.228   1.562 -0.2312  0.1676  1.0873
  424MOL0     C58414  10.237   8.316   1.447  0.2780 -0.7744  0.3629
  424MOL0     C58415  10.318   8.436   1.516 -0.2050 -0.2465  0.0023
  424MOL0     C58416  10.353   8.535   1.395  0.0032  0.2332 -0.0419
  424MOL0     C58417  10.461   8.636   1.420  0.0193 -0.4162 -0.8199
  424MOL0     C58418  10.455   8.715   1.556  0.9325 -0.2922  0.7769
  424MOL0    Cl58419  10.610   8.777   1.608 -0.1909 -0.1145 -0.0422
  424MOL0     C58420   9.793   7.920   1.477 -0.1758  0.6326 -0.4498
  424MOL0     C58421   9.672   7.851   1.470 -0.3507  1.2528  0.1640
  424MOL0     O58422   9.531   7.600   1.542 -0.7068  0.6349  0.4196
  424MOL0     C58423   9.195   7.723   1.585  0.6350  0.0465 -0.4334
  424MOL0     C58424   9.057   7.691   1.568  0.5946 -0.2656 -0.1749
  424MOL0     N58425   8.646   7.025   1.620  0.1104 -0.2212 -0.2998
  424MOL0     N58426   8.670   6.927   1.703 -0.4758 -0.6646  1.2465
  424MOL0     C58427   8.959   7.024   2.770 -0.4826 -0.0950 -1.0963
  424MOL0     C58428   8.833   7.041   2.818 -0.0626 -0.2358  0.0369
  424MOL0     C58429   8.458   6.997   3.038  0.4415 -0.5506  0.0686
  424MOL0     C58430   8.364   6.938   2.962 -0.6763  0.3991 -0.7604
  424MOL0     C58431   8.229   6.962   2.965  0.2452 -0.0767 -0.7019
  424MOL0     C58432   8.182   7.035   3.067  0.6187 -0.1518 -0.2879
  424MOL0     O58433   8.048   7.046   3.097  0.4045 -0.4731 -0.0473
  424MOL0     C58434   7.992   6.926   3.148 -0.5618  1.1461 -0.1085
  424MOL0     C58435   7.844   6.943   3.170  0.1134  0.2308  0.0536
  424MOL0     C58436   7.779   6.964   3.032  0.3757  0.1114  0.0387
  424MOL0     C58437   7.621   6.933   3.016 -0.4587  0.1758  0.0113
  424MOL0     C58438   7.586   6.944   2.871  0.1957  0.2047  0.5124
  424MOL0     C58439   7.566   6.961   2.753 -0.8631 -0.4624  0.4424
  424MOL0     C58440   8.269   7.109   3.148 -0.5033 -0.0725 -0.6944
  424MOL0     C58441   8.409   7.089   3.137 -0.0726  0.2286  0.2448
  424MOL0     C58442   8.491   7.183   3.214 -0.2804  0.7960  0.2979
  424MOL0     H58443   8.745   6.708   2.802  0.4259 -0.5526  0.3633
  424MOL0     H58444   8.960   6.695   2.679 -1.7373  0.3907 -1.4202
  424MOL0     H58445   9.161   6.711   2.610 -2.6524  0.5749 -0.4987
  424MOL0     H58446   9.296   6.825   2.557  1.2343 -1.3782  1.6210
  424MOL0     H58447   9.129   6.728   2.381  3.3384  0.2684  1.0507
  424MOL0     H58448   9.004   6.839   2.460  0.5083  1.5842  3.5652
  424MOL0     H58449   9.191   7.023   2.422  1.3256  0.4236  0.2165
  424MOL0     H58450   9.256   6.916   2.299  1.4843  1.6289  0.4507
  424MOL0     H58451   8.977   7.057   2.306  0.0623  0.8625  0.9036
  424MOL0     H58452   9.097   7.054   2.184 -0.7396  2.5314  1.9884
  424MOL0     H58453   8.886   6.833   2.254  0.8822 -0.9746  0.0216
  424MOL0     H58454   9.018   6.818   2.136 -4.4435 -2.6543 -1.3711
  424MOL0     H58455   8.809   7.035   2.108  1.7652  2.7798  0.7047
  424MOL0     H58456   8.953   7.015   2.008 -0.2210 -0.3485 -1.0422
  424MOL0     H58457   8.808   6.757   2.039  0.7772 -0.5576  0.9392
  424MOL0     H58458   8.880   6.827   1.900  0.7832 -1.8340  2.0309
  424MOL0     H58459   8.638   6.788   1.923 -2.2659  0.6089  1.2243
  424MOL0     H58460   8.603   6.940   2.017 -1.4174  0.4379 -0.3293
  424MOL0     H58461   8.644   7.181   1.912  0.7678  1.3936 -1.3820
  424MOL0     H58462   8.509   7.320   1.710  0.6412 -1.7578  3.0329
  424MOL0     H58463   8.549   7.268   1.537  2.8818  0.9018  0.1433
  424MOL0     H58464   8.716   7.389   1.762  1.8268 -1.2346  0.1764
  424MOL0     H58465   8.782   7.326   1.599  0.5777 -1.1805  1.1872
  424MOL0     H58466   8.652   7.484   1.473  2.8844  1.3937 -0.7202
  424MOL0     H58467   8.584   7.545   1.623 -0.6476 -0.5766 -0.8262
  424MOL0     H58468   8.753   7.693   1.570 -4.5658 -0.7847  0.7073
  424MOL0     H58469   8.823   7.582   1.697  2.1716 -0.2846 -1.0519
  424MOL0     H58470   9.071   7.421   1.383 -1.5014  2.9149 -2.2313
  424MOL0     H58471   9.424   7.463   1.361 -0.2201 -0.6702 -1.8661
  424MOL0     H58472   9.294   7.389   1.293  1.9208  4.5893 -1.6072
  424MOL0     H58473   9.346   7.331   1.459 -0.9089 -0.8208  0.6172
  424MOL0     H58474   9.520   7.942   1.750 -0.5519 -1.3865 -0.1327
  424MOL0     H58475   9.735   8.063   1.777 -1.2276  2.2513 -1.1085
  424MOL0     H58476  10.097   7.958   1.696 -0.8114 -1.6026 -0.6894
  424MOL0     H58477  10.049   7.906   1.539  0.7089 -0.3217  0.4828
  424MOL0     H58478  10.231   8.028   1.461 -1.9436 -0.7079 -1.8500
  424MOL0     H58479  10.089   8.098   1.419  2.2747 -2.5828 -3.6375
  424MOL0     H58480  10.277   8.209   1.624  1.1760 -1.1696 -1.1412
  424MOL0     H58481  10.113   8.280   1.619  0.1130 -0.9268  2.6222
  424MOL0     H58482  10.156   8.345   1.379  0.5397  0.5708  0.5879
  424MOL0     H58483  10.310   8.258   1.389  0.1087 -1.5384  0.9005
  424MOL0     H58484  10.261   8.485   1.596  0.2203 -1.5817  1.1742
  424MOL0     H58485  10.413   8.398   1.556  1.3758 -0.1463 -3.3280
  424MOL0     H58486  10.255   8.578   1.369  0.2610  0.7189 -0.2298
  424MOL0     H58487  10.386   8.481   1.306  0.5463  0.8570 -0.2305
  424MOL0     H58488  10.460   8.718   1.347 -0.0369  1.3839  1.1208
  424MOL0     H58489  10.553   8.578   1.426 -0.0517 -0.4247  0.4741
  424MOL0     H58490  10.423   8.649   1.638 -2.2374  1.8246  1.4016
  424MOL0     H58491  10.380   8.795   1.549  1.2865 -0.0821 -1.1980
  424MOL0     H58492   9.867   7.900   1.399 -1.0763 -3.1672 -0.5245
  424MOL0     H58493   9.669   7.782   1.386  2.0439 -0.7063  1.5726
  424MOL0     H58494   9.220   7.818   1.630  1.4876 -0.0358 -0.7039
  424MOL0     H58495   8.978   7.750   1.611 -1.2404 -3.1358  0.6718
  424MOL0     H58496   9.010   7.119   2.776 -1.6565  0.4493  2.2003
  424MOL0     H58497   8.783   7.133   2.848  0.1268 -0.3302  0.6526
  424MOL0     H58498   8.400   6.873   2.882  2.6332 -1.9135  2.2740
  424MOL0     H58499   8.167   6.899   2.902 -0.0171 -0.9641  0.4015
  424MOL0     H58500   7.999   6.837   3.085 -1.7268  0.7424  0.3115
  424MOL0     H58501   8.040   6.897   3.243 -4.1231 -1.1981  1.1841
  424MOL0     H58502   7.822   7.033   3.228 -0.1222  1.9418 -2.5635
  424MOL0     H58503   7.804   6.855   3.223 -0.9474  1.3491  1.1930
  424MOL0     H58504   7.790   7.067   2.996 -1.9804  0.8572  1.2624
  424MOL0     H58505   7.837   6.910   2.957  0.0177 -2.9058  1.7686
  424MOL0     H58506   7.565   7.008   3.074  0.2467  2.5461 -2.1692
  424MOL0     H58507   7.586   6.834   3.046  0.0781  0.9840  3.7634
  424MOL0     H58508   7.552   6.974   2.648 -2.7136  1.9842  0.8959
  424MOL0     H58509   8.236   7.169   3.232  0.2187 -2.3154  1.3197
  424MOL0     H58510   8.576   7.131   3.259 -1.1831  0.3010  1.4778
  424MOL0     H58511   8.539   7.258   3.150  1.1688 -0.9000 -0.7116
  424MOL0     H58512   8.446   7.224   3.305  1.4854  0.7086  1.2620
  425MOL0     O58513   1.309   0.219   0.225 -0.0105 -0.1427  0.3845
  425MOL0     C58514   1.242   0.306   0.282 -0.2876  0.4633 -0.2820
  425MOL0     O58515   1.281   0.373   0.388 -0.7402 -0.5835 -0.1705
  425MOL0     C58516   1.413   0.369   0.433  0.3257  1.0410 -0.4117
  425MOL0     C58517   1.508   0.450   0.377 -1.4973 -1.0638 -0.4496
  425MOL0     C58518   1.646   0.430   0.400  0.8725 -1.1063 -0.1652
  425MOL0     C58519   1.686   0.318   0.473 -0.1556 -0.5011  0.6148
  425MOL0     O58520   1.823   0.301   0.505  0.2468 -0.6173  0.4952
  425MOL0     C58521   1.869   0.168   0.539  0.8045 -0.6162 -0.2115
  425MOL0     C58522   1.867   0.160   0.696 -0.4579  0.4871 -0.7845
  425MOL0     C58523   1.886   0.006   0.740  0.4027 -0.6463 -0.4430
  425MOL0     C58524   2.017  -0.056   0.706 -1.1517  0.0211 -0.3286
  425MOL0     C58525   2.044  -0.180   0.792 -0.9218  0.2263 -0.5152
  425MOL0     C58526   2.183  -0.230   0.757  0.5185 -0.1148  1.1024
  425MOL0     C58527   2.191  -0.324   0.631 -0.9493 -0.0182  0.2598
  425MOL0     C58528   2.334  -0.375   0.596 -0.2875 -0.1027 -0.6572
  425MOL0     N58529   2.368  -0.398   0.455 -0.3593 -0.7697 -0.5793
  425MOL0     C58530   2.372  -0.303   0.353 -0.9080  0.2119 -0.8344
  425MOL0     C58531   2.379  -0.375   0.237 -0.1812 -0.7979 -0.2751
  425MOL0     C58532   2.349  -0.310   0.102  0.9386  0.9276 -0.1994
  425MOL0     C58533   2.463  -0.230   0.048  0.1997  0.4661 -0.5909
  425MOL0     C58534   2.582  -0.324   0.019  0.5016  0.1080  0.1852
  425MOL0     C58535   2.697  -0.267  -0.063 -0.2519 -0.0960  0.2376
  425MOL0     O58536   2.649  -0.221  -0.189 -0.1919  0.1658  0.2400
  425MOL0     C58537   2.652  -0.083  -0.210  0.6679 -0.5923 -0.1939
  425MOL0     C58538   2.723   0.021  -0.148  0.0024  0.3895 -1.0027
  425MOL0     C58539   2.711   0.153  -0.186  0.1136  0.1100 -0.2458
  425MOL0     C58540   2.785   0.248  -0.090  0.0588 -0.2684 -0.4511
  425MOL0     C58541   2.616   0.191  -0.292 -0.9199  0.3237  1.0487
  425MOL0     C58542   2.605   0.328  -0.344 -0.0485 -0.0603 -0.3949
  425MOL0     O58543   2.510   0.348  -0.438  0.9991 -0.0711 -0.0891
  425MOL0     C58544   2.499   0.464  -0.515  1.2275  0.0421 -0.2585
  425MOL0     C58545   2.552   0.588  -0.489 -0.1522  0.1759 -0.3483
  425MOL0     C58546   2.523   0.697  -0.575 -0.4888  0.4165 -0.4390
  425MOL0     C58547   2.427   0.686  -0.678 -0.5456  0.1585 -1.0804
  425MOL0     O58548   2.394   0.802  -0.744  0.0813  0.1103 -0.3460
  425MOL0     C58549   2.509   0.876  -0.792  0.6736  0.5915 -0.5872
  425MOL0     C58550   2.474   0.975  -0.908 -0.7600  0.5487 -0.3370
  425MOL0     C58551   2.398   1.101  -0.868 -0.8009  0.1255  0.0013
  425MOL0     C58552   2.375   1.188  -0.997 -0.0784  0.2153 -0.9095
  425MOL0     C58553   2.245   1.270  -0.994 -0.1707  1.3097 -0.0404
  425MOL0     C58554   2.125   1.180  -1.010  0.0104 -1.0482  0.6653
  425MOL0     C58555   1.979   1.243  -1.027  0.5275  1.3409 -0.2515
  425MOL0     C58556   1.980   1.383  -0.975 -0.2115  0.5298 -0.1435
  425MOL0    Cl58557   1.813   1.446  -0.993 -0.0580  0.2278  0.2649
  425MOL0     C58558   2.357   0.568  -0.695 -0.7452 -0.6162  0.2528
  425MOL0     C58559   2.394   0.454  -0.613  0.9219 -0.2334  0.3834
  425MOL0     O58560   2.706   0.397  -0.320 -0.3423  0.8766 -0.1320
  425MOL0     C58561   2.538   0.086  -0.349 -0.0183  0.4862  0.4266
  425MOL0     C58562   2.554  -0.048  -0.297 -0.6804 -0.3956 -0.8072
  425MOL0     N58563   2.374  -0.510   0.271  0.2205 -0.0109 -0.0213
  425MOL0     N58564   2.381  -0.519   0.394  0.3357 -0.1071 -0.0911
  425MOL0     C58565   1.592   0.237   0.529 -0.2930  0.0454 -0.0258
  425MOL0     C58566   1.454   0.251   0.496 -0.8080 -0.2411  0.7783
  425MOL0     C58567   1.096   0.324   0.255  0.5365  0.2881 -0.7080
  425MOL0     C58568   1.029   0.393   0.359  1.0985  0.4704 -0.0372
  425MOL0     C58569   0.889   0.423   0.344  0.5063  0.4355 -0.9777
  425MOL0     C58570   0.816   0.353   0.248  0.1790  0.6927 -0.1398
  425MOL0     O58571   0.684   0.359   0.239  0.3499  0.1811 -0.8390
  425MOL0     C58572   0.596   0.421   0.334  0.6493 -0.9295  0.2101
  425MOL0     C58573   0.551   0.322   0.441 -0.4726 -1.0857  0.2240
  425MOL0     C58574   0.451   0.221   0.380  0.1390 -0.9044  0.7474
  425MOL0     C58575   0.413   0.123   0.489 -0.6542  0.5335 -0.3679
  425MOL0     C58576   0.278   0.071   0.474 -0.3091 -0.2136  0.0755
  425MOL0     C58577   0.161   0.037   0.462 -0.1361 -0.0480 -0.9916
  425MOL0     C58578   0.884   0.279   0.149  0.0283 -0.7356 -0.1257
  425MOL0     C58579   1.021   0.261   0.151 -0.3144  0.1450  0.2037
  425MOL0     C58580   1.090   0.184   0.034  0.0299  0.1756 -1.0373
  425MOL0     H58581   1.473   0.531   0.313 -1.6554 -1.2599 -0.6113
  425MOL0     H58582   1.722   0.494   0.358  1.8755 -1.0534  1.6504
  425MOL0     H58583   1.971   0.152   0.502 -0.2601 -0.0751 -3.7718
  425MOL0     H58584   1.813   0.086   0.493  1.2733 -0.3221 -1.3347
  425MOL0     H58585   1.948   0.224   0.733  0.8526  0.3368 -3.1898
  425MOL0     H58586   1.771   0.187   0.741 -0.7541 -1.5996 -0.0088
  425MOL0     H58587   1.870  -0.003   0.848  0.1981 -0.0393 -0.4192
  425MOL0     H58588   1.807  -0.051   0.689 -0.3389 -1.9397  2.0175
  425MOL0     H58589   2.030  -0.087   0.601 -0.6651  0.5990 -0.4451
  425MOL0     H58590   2.094   0.020   0.721 -0.2829 -0.7633 -0.6473
  425MOL0     H58591   1.971  -0.257   0.766 -1.2233  0.6945 -1.0871
  425MOL0     H58592   2.047  -0.161   0.899 -1.7257 -3.2247  0.2288
  425MOL0     H58593   2.254  -0.147   0.761 -0.9616  1.3337 -1.0014
  425MOL0     H58594   2.216  -0.292   0.842 -1.8348 -2.3946  0.4754
  425MOL0     H58595   2.155  -0.273   0.540 -1.2890  0.7949  0.8372
  425MOL0     H58596   2.126  -0.411   0.647 -2.4059  0.4931 -2.2189
  425MOL0     H58597   2.402  -0.297   0.629  1.4768 -1.7884 -0.1069
  425MOL0     H58598   2.363  -0.464   0.654  0.9972  0.1809 -0.8386
  425MOL0     H58599   2.350  -0.198   0.370  0.5753  0.3012  0.7815
  425MOL0     H58600   2.266  -0.239   0.103  1.6287  1.7520  0.3398
  425MOL0     H58601   2.324  -0.391   0.032 -2.9054 -1.1348  3.1420
  425MOL0     H58602   2.438  -0.183  -0.047  2.4593  0.2836 -1.3162
  425MOL0     H58603   2.501  -0.149   0.111 -0.6956  0.4700 -0.0333
  425MOL0     H58604   2.620  -0.375   0.108 -2.0013 -1.4937  0.4476
  425MOL0     H58605   2.553  -0.403  -0.051  3.8718  1.9994 -3.7212
  425MOL0     H58606   2.743  -0.188  -0.004 -0.8030  1.9904 -1.9393
  425MOL0     H58607   2.770  -0.347  -0.078 -2.5917 -1.7333 -5.3495
  425MOL0     H58608   2.798  -0.007  -0.075 -1.3930  0.7304  0.6252
  425MOL0     H58609   2.772   0.355  -0.105  3.8564  0.2166 -1.1125
  425MOL0     H58610   2.891   0.240  -0.113 -0.1135 -0.6425 -1.1595
  425MOL0     H58611   2.776   0.225   0.016 -0.9904  0.8017 -0.2869
  425MOL0     H58612   2.613   0.601  -0.400  2.6272 -2.5859 -1.6307
  425MOL0     H58613   2.562   0.797  -0.562  3.3113 -0.8346 -1.1845
  425MOL0     H58614   2.547   0.941  -0.713  1.5150  0.2100 -0.6712
  425MOL0     H58615   2.596   0.822  -0.831  2.1535  2.2644  0.2158
  425MOL0     H58616   2.563   1.015  -0.956 -1.5786  0.5876 -1.9103
  425MOL0     H58617   2.417   0.921  -0.985  1.6531  0.4615 -2.1827
  425MOL0     H58618   2.462   1.150  -0.794  1.6678 -3.0414  0.2234
  425MOL0     H58619   2.305   1.074  -0.817 -2.8642  0.9465 -3.1010
  425MOL0     H58620   2.361   1.119  -1.081 -0.0597  0.8875 -1.4685
  425MOL0     H58621   2.463   1.249  -1.019 -0.3233  1.4868  1.3500
  425MOL0     H58622   2.236   1.326  -0.900  2.3345  1.0794  0.4018
  425MOL0     H58623   2.248   1.338  -1.079 -0.5411 -2.4500 -3.3549
  425MOL0     H58624   2.121   1.109  -0.927  1.9671 -2.5456 -0.4448
  425MOL0     H58625   2.138   1.124  -1.103  4.4513 -0.7742  0.9111
  425MOL0     H58626   1.917   1.189  -0.956  2.3153  2.5059  2.3408
  425MOL0     H58627   1.934   1.226  -1.126 -1.9513  2.9096  0.5303
  425MOL0     H58628   2.039   1.449  -1.040  1.1528  0.8506  1.3531
  425MOL0     H58629   2.023   1.381  -0.875  0.9695  2.4571 -0.5585
  425MOL0     H58630   2.282   0.576  -0.773 -3.1321 -0.9380  2.3813
  425MOL0     H58631   2.361   0.351  -0.625  0.2060 -0.3795  3.0048
  425MOL0     H58632   2.464   0.116  -0.422 -0.0008 -1.5679 -0.5109
  425MOL0     H58633   2.495  -0.127  -0.342 -0.3983 -0.8589 -0.3837
  425MOL0     H58634   1.632   0.159   0.593  1.3402  1.7392  1.1215
  425MOL0     H58635   1.376   0.183   0.528 -1.0108  0.6676  2.3080
  425MOL0     H58636   1.075   0.433   0.449  2.3858  1.8403 -1.2481
  425MOL0     H58637   0.837   0.480   0.421  4.9827  1.4736  1.6148
  425MOL0     H58638   0.636   0.510   0.384  2.4701 -0.7759 -1.3964
  425MOL0     H58639   0.509   0.456   0.279  0.2650 -2.8029 -0.4562
  425MOL0     H58640   0.505   0.387   0.517 -5.7147 -0.3804 -3.0667
  425MOL0     H58641   0.639   0.270   0.480  2.0463  2.1774 -0.6217
  425MOL0     H58642   0.365   0.276   0.341 -0.6253 -4.1041 -2.6558
  425MOL0     H58643   0.490   0.169   0.292 -0.1330  0.0475  0.0456
  425MOL0     H58644   0.415   0.171   0.587  0.2754 -1.0327  0.4242
  425MOL0     H58645   0.482   0.038   0.483 -1.2558 -0.1376  1.5383
  425MOL0     H58646   0.056   0.016   0.465  0.0012 -0.6089  0.6695
  425MOL0     H58647   0.827   0.237   0.067  0.5458  0.2637 -1.0271
  425MOL0     H58648   1.192   0.220   0.018 -0.0858  2.7278  2.7047
  425MOL0     H58649   1.090   0.082   0.075 -0.3828  0.7373  0.4107
  425MOL0     H58650   1.026   0.187  -0.054 -0.1367  1.6197 -0.8769
  426MOL0     O58651  10.224   7.540   5.964 -0.4171 -0.6629 -0.5017
  426MOL0     C58652  10.159   7.504   5.867  0.0391 -0.8169 -0.4318
  426MOL0     O58653  10.208   7.431   5.767 -0.3575 -0.2291 -0.4094
  426MOL0     C58654  10.340   7.440   5.731 -0.5485  0.2595 -0.2202
  426MOL0     C58655  10.442   7.406   5.816 -0.5509 -0.4477 -0.4097
  426MOL0     C58656  10.578   7.395   5.778 -0.2219  0.0597  0.1936
  426MOL0     C58657  10.619   7.443   5.647  0.4747  0.0303  0.1188
  426MOL0     O58658  10.736   7.424   5.584 -0.9349  0.5799 -0.0186
  426MOL0     C58659  10.847   7.361   5.658  0.4035 -0.4205  0.7147
  426MOL0     C58660  10.976   7.402   5.597 -0.8888 -0.8093  0.5863
  426MOL0     C58661  10.998   7.340   5.446 -0.2609 -0.2567 -0.2569
  426MOL0     C58662  11.106   7.224   5.453 -1.1905  0.6910 -1.0409
  426MOL0     C58663  11.106   7.151   5.319 -0.2596 -0.9788  0.3475
  426MOL0     C58664  11.162   7.232   5.193 -1.7305 -1.5278 -0.0857
  426MOL0     C58665  11.212   7.143   5.073 -0.4938  0.3284 -0.9322
  426MOL0     C58666  11.232   7.215   4.936  0.6196  0.3548 -0.2648
  426MOL0     N58667  11.338   7.318   4.936 -0.4643 -0.9140 -0.2868
  426MOL0     C58668  11.463   7.315   4.866 -0.2778 -0.3965  0.5604
  426MOL0     C58669  11.522   7.434   4.908  0.0504 -0.1725 -0.6562
  426MOL0     C58670  11.662   7.478   4.869  0.8294 -0.4555 -0.0666
  426MOL0     C58671  11.674   7.548   4.732  0.9044  0.4874  0.7433
  426MOL0     C58672  11.790   7.502   4.650  0.4315 -0.2569 -0.3552
  426MOL0     C58673  11.922   7.567   4.700 -0.3078 -0.5640  0.3945
  426MOL0     O58674  12.014   7.515   4.605 -0.3244  0.0427 -0.1654
  426MOL0     C58675  12.135   7.580   4.593 -1.1523 -0.8212  0.5481
  426MOL0     C58676  12.176   7.697   4.654 -0.0445  0.5072  0.0071
  426MOL0     C58677  12.305   7.752   4.626 -0.2815 -0.2862  0.6187
  426MOL0     C58678  12.350   7.872   4.701  0.1464  0.1057  0.0212
  426MOL0     C58679  12.384   7.704   4.513  0.0595  0.6521 -0.2622
  426MOL0     C58680  12.512   7.755   4.469  0.1811 -0.1241 -0.2279
  426MOL0     O58681  12.604   7.668   4.414  0.4532  0.3168  0.1037
  426MOL0     C58682  12.726   7.714   4.369 -0.2226 -0.6290  0.5799
  426MOL0     C58683  12.834   7.725   4.453 -0.8569  0.6086 -0.2157
  426MOL0     C58684  12.952   7.783   4.406 -0.4882 -0.1806 -0.5149
  426MOL0     C58685  12.970   7.804   4.272 -0.1035 -0.3504  0.1710
  426MOL0     O58686  13.093   7.853   4.232 -0.2123 -0.8789 -0.1837
  426MOL0     C58687  13.132   7.863   4.092 -0.3225 -0.0397 -0.9685
  426MOL0     C58688  13.280   7.855   4.069  0.7820  0.2662  0.1141
  426MOL0     C58689  13.354   7.971   4.130  1.0438 -0.6953  0.0556
  426MOL0     C58690  13.499   7.947   4.149 -0.0862 -0.1759  0.9835
  426MOL0     C58691  13.554   8.067   4.231  0.5296 -0.1257 -0.9238
  426MOL0     C58692  13.686   8.022   4.298  0.3818 -0.1905  0.6750
  426MOL0     C58693  13.769   8.146   4.338  0.8136 -0.3047 -0.3838
  426MOL0     C58694  13.897   8.111   4.414  0.3972  0.6085 -0.5874
  426MOL0    Cl58695  14.027   8.240   4.448  0.0050 -0.2662 -0.7044
  426MOL0     C58696  12.864   7.778   4.184 -0.4548  0.1413 -0.7742
  426MOL0     C58697  12.740   7.741   4.235  0.0455  0.7761  0.0139
  426MOL0     O58698  12.518   7.874   4.449  0.0304  0.0165  0.0580
  426MOL0     C58699  12.345   7.581   4.461 -0.1749 -0.1145  0.2254
  426MOL0     C58700  12.222   7.526   4.499 -0.1321 -0.4384  0.7789
  426MOL0     N58701  11.429   7.509   4.984 -0.2669  0.6310  0.4953
  426MOL0     N58702  11.323   7.436   5.009 -0.9170 -0.2780  0.2894
  426MOL0     C58703  10.515   7.491   5.560 -0.2820 -0.2348 -0.6568
  426MOL0     C58704  10.380   7.471   5.602 -0.2183  0.0669 -0.3669
  426MOL0     C58705  10.021   7.546   5.873  1.0957 -1.1282 -0.9677
  426MOL0     C58706   9.967   7.606   5.998  0.6338  0.4654  0.5775
  426MOL0     C58707   9.829   7.613   6.015  0.2473 -0.0587 -1.5885
  426MOL0     C58708   9.743   7.572   5.911 -0.7130 -0.1568  0.1272
  426MOL0     O58709   9.604   7.590   5.915  0.1771  0.3657  0.3123
  426MOL0     C58710   9.558   7.712   5.976  0.3041 -1.0237 -0.1882
  426MOL0     C58711   9.417   7.737   5.925 -0.0122  0.2356 -0.0380
  426MOL0     C58712   9.323   7.630   5.963 -0.1814 -0.1931  0.0246
  426MOL0     C58713   9.188   7.670   5.903  0.3623 -0.6657 -0.4540
  426MOL0     C58714   9.091   7.571   5.941 -1.1451 -0.6871 -0.1768
  426MOL0     C58715   9.015   7.482   5.962  0.3939  0.3570  0.5709
  426MOL0     C58716   9.794   7.532   5.788  0.4647  0.4380 -0.9616
  426MOL0     C58717   9.930   7.519   5.764 -0.1489  0.0129 -0.1481
  426MOL0     C58718   9.966   7.453   5.629  0.1410  0.2128  0.0886
  426MOL0     H58719  10.409   7.375   5.915 -0.0747 -0.1865 -0.1674
  426MOL0     H58720  10.646   7.347   5.847  1.0530  1.2814 -0.1524
  426MOL0     H58721  10.822   7.254   5.657 -1.4441 -0.0343  1.8656
  426MOL0     H58722  10.841   7.392   5.763  0.9676 -3.2613  1.6853
  426MOL0     H58723  10.983   7.511   5.595 -2.6411 -0.6484  1.5139
  426MOL0     H58724  11.058   7.366   5.660  0.5832 -1.0514 -1.3774
  426MOL0     H58725  10.905   7.298   5.405 -1.3919 -2.2678  3.7825
  426MOL0     H58726  11.041   7.414   5.379  2.2646 -0.8245  0.6468
  426MOL0     H58727  11.208   7.257   5.473 -2.0327  2.9333 -0.1144
  426MOL0     H58728  11.077   7.161   5.537 -1.2973  3.0495  0.7945
  426MOL0     H58729  11.010   7.108   5.291  0.1446 -2.1112  0.6309
  426MOL0     H58730  11.166   7.060   5.311 -2.2789 -2.3916  0.8683
  426MOL0     H58731  11.099   7.315   5.158  0.4803 -0.0622 -0.7667
  426MOL0     H58732  11.257   7.275   5.225 -0.5104 -3.3431 -1.0863
  426MOL0     H58733  11.135   7.071   5.043  0.4323  0.2566 -3.3877
  426MOL0     H58734  11.308   7.102   5.102 -2.3757 -3.0807  1.1401
  426MOL0     H58735  11.245   7.131   4.867  2.6750 -0.4430  1.0041
  426MOL0     H58736  11.140   7.266   4.905  0.3784 -0.3010 -0.6604
  426MOL0     H58737  11.509   7.242   4.801  1.9488  0.3785  1.1594
  426MOL0     H58738  11.726   7.390   4.869 -0.0490 -1.1165  1.0444
  426MOL0     H58739  11.697   7.548   4.946 -2.0536  2.6667 -1.3255
  426MOL0     H58740  11.592   7.511   4.670  2.0535 -0.7198 -0.1061
  426MOL0     H58741  11.662   7.657   4.728 -0.3392  0.3277 -0.6058
  426MOL0     H58742  11.794   7.393   4.650 -1.6600 -0.3662  0.0923
  426MOL0     H58743  11.784   7.526   4.544  0.7369 -1.4635 -0.6604
  426MOL0     H58744  11.901   7.673   4.681  1.0926 -0.4454 -0.6560
  426MOL0     H58745  11.942   7.540   4.804  1.4837 -1.1132 -0.0661
  426MOL0     H58746  12.122   7.755   4.728  2.7011  1.8349  1.1129
  426MOL0     H58747  12.346   7.957   4.632 -1.4786  0.2616  0.2488
  426MOL0     H58748  12.453   7.855   4.733 -0.3188  0.1994  1.6276
  426MOL0     H58749  12.295   7.882   4.795 -1.3284 -2.7526 -0.4128
  426MOL0     H58750  12.819   7.685   4.553 -2.4803 -2.4317 -1.5276
  426MOL0     H58751  13.035   7.800   4.473 -0.8154  0.6778 -0.3177
  426MOL0     H58752  13.084   7.787   4.031 -2.2423  0.5375 -0.2327
  426MOL0     H58753  13.099   7.957   4.047 -2.4650  0.2367  1.0271
  426MOL0     H58754  13.307   7.758   4.112  1.1375 -0.0889 -0.8649
  426MOL0     H58755  13.289   7.858   3.960  0.4426  1.3738  0.1037
  426MOL0     H58756  13.314   7.985   4.231  1.2701  0.8216 -0.0378
  426MOL0     H58757  13.335   8.067   4.079 -3.8524  0.5812  3.5655
  426MOL0     H58758  13.543   7.961   4.049 -0.3893 -0.2405  0.8393
  426MOL0     H58759  13.521   7.856   4.205  0.0272 -0.5806  0.3010
  426MOL0     H58760  13.574   8.158   4.173  1.2823  1.5020  1.6885
  426MOL0     H58761  13.480   8.095   4.306  0.9012 -0.6614 -0.3488
  426MOL0     H58762  13.746   7.971   4.223 -0.6167 -0.5415  0.0958
  426MOL0     H58763  13.658   7.960   4.383 -2.2952 -0.5674 -0.3925
  426MOL0     H58764  13.713   8.211   4.406 -0.4599 -1.9980  0.2797
  426MOL0     H58765  13.788   8.190   4.240  0.1708  0.1655 -0.3022
  426MOL0     H58766  13.946   8.032   4.356 -3.0920  0.0141 -3.0843
  426MOL0     H58767  13.862   8.085   4.514 -1.3961 -2.8416 -1.9110
  426MOL0     H58768  12.884   7.794   4.078 -0.3084 -1.8326 -1.0903
  426MOL0     H58769  12.658   7.745   4.164  0.8641 -0.1876 -1.0167
  426MOL0     H58770  12.395   7.523   4.385 -0.2282  1.8184 -1.3607
  426MOL0     H58771  12.174   7.437   4.459 -2.5174  0.5886  1.1984
  426MOL0     H58772  10.540   7.538   5.466  1.3558 -1.4596 -0.8776
  426MOL0     H58773  10.296   7.481   5.534  0.4838 -0.8709 -1.4098
  426MOL0     H58774  10.033   7.629   6.081 -0.7631 -0.2114  1.9347
  426MOL0     H58775   9.781   7.649   6.105  0.5066 -0.8899 -1.1075
  426MOL0     H58776   9.555   7.709   6.086  1.1848 -1.8485 -0.1710
  426MOL0     H58777   9.615   7.799   5.944 -1.4528  0.8080  1.4027
  426MOL0     H58778   9.430   7.752   5.818 -0.3914  1.0433  0.0200
  426MOL0     H58779   9.388   7.828   5.978 -0.5219 -1.6926  3.2787
  426MOL0     H58780   9.355   7.536   5.917 -1.1131  0.7072 -2.6640
  426MOL0     H58781   9.322   7.611   6.071 -1.0634 -1.0519 -0.1269
  426MOL0     H58782   9.193   7.678   5.794 -2.3903 -0.8529 -0.6519
  426MOL0     H58783   9.158   7.767   5.944  0.4764 -0.6115 -0.4974
  426MOL0     H58784   8.958   7.395   5.988 -0.7191  1.4687  2.0113
  426MOL0     H58785   9.719   7.507   5.713 -1.3180 -2.7645  1.6070
  426MOL0     H58786  10.001   7.349   5.635  1.7374  0.6578 -0.9109
  426MOL0     H58787   9.880   7.455   5.562  0.5049  0.0984 -0.3872
  426MOL0     H58788  10.050   7.508   5.586  0.2700 -0.9844 -1.2656
  427MOL0     O58789   6.150   8.085   9.061 -0.7110  0.0777 -0.0202
  427MOL0     C58790   6.096   8.099   9.171 -0.0928  0.1866  0.7573
  427MOL0     O58791   6.149   8.059   9.291 -0.5401  0.5453 -0.3007
  427MOL0     C58792   6.280   8.061   9.305 -0.4849  0.3560  0.7333
  427MOL0     C58793   6.362   8.171   9.282 -0.0941  0.4606  0.8158
  427MOL0     C58794   6.503   8.154   9.303 -0.6539  0.4320 -0.5024
  427MOL0     C58795   6.555   8.036   9.362 -0.2685  0.2042  0.0021
  427MOL0     O58796   6.691   8.015   9.372 -0.2227  0.4193  0.0158
  427MOL0     C58797   6.725   7.870   9.361  0.6871 -0.4096  0.7341
  427MOL0     C58798   6.873   7.865   9.358 -0.0357  0.3236  0.0597
  427MOL0     C58799   6.920   7.724   9.307 -0.7373  0.2284  0.8331
  427MOL0     C58800   7.065   7.727   9.254 -0.0288 -0.8316 -1.0620
  427MOL0     C58801   7.118   7.583   9.242 -0.4286  0.6183  0.1576
  427MOL0     C58802   7.267   7.579   9.198 -1.6499  0.5120  0.2908
  427MOL0     C58803   7.335   7.450   9.251 -1.1417  0.2724 -0.9976
  427MOL0     C58804   7.456   7.407   9.177 -0.0173 -0.0014 -0.1062
  427MOL0     N58805   7.579   7.493   9.209  0.2324 -0.2182  0.5022
  427MOL0     C58806   7.660   7.547   9.109 -0.8059  0.4389 -1.4695
  427MOL0     C58807   7.746   7.631   9.177 -0.2109  0.2813 -0.3911
  427MOL0     C58808   7.853   7.722   9.118 -0.7243  0.5768 -0.3832
  427MOL0     C58809   7.979   7.645   9.098 -0.1225  0.2401 -0.1746
  427MOL0     C58810   7.976   7.579   8.957 -0.6865 -0.2092  0.5753
  427MOL0     C58811   8.068   7.458   8.940  0.2335 -0.3021 -0.3155
  427MOL0     O58812   8.198   7.491   9.000  0.0370 -0.2906  0.0315
  427MOL0     C58813   8.286   7.380   9.016 -0.1285 -0.6812 -0.2327
  427MOL0     C58814   8.250   7.242   9.023 -0.1057 -0.0910 -0.7843
  427MOL0     C58815   8.347   7.141   9.047 -1.0303  0.5576 -0.8399
  427MOL0     C58816   8.296   6.998   9.057  0.3870 -0.2487  0.1800
  427MOL0     C58817   8.488   7.171   9.081 -0.1470 -0.8805  0.2385
  427MOL0     C58818   8.591   7.077   9.120  0.5084  0.3717  0.2791
  427MOL0     O58819   8.713   7.131   9.129 -0.4806 -0.6528 -0.1084
  427MOL0     C58820   8.820   7.057   9.152 -0.9847  0.5043 -0.5699
  427MOL0     C58821   8.858   7.004   9.281 -0.4336 -0.1887  0.4721
  427MOL0     C58822   8.976   6.932   9.296 -0.6594  1.0035 -0.0510
  427MOL0     C58823   9.051   6.901   9.178 -0.7322 -0.8037  0.6098
  427MOL0     O58824   9.172   6.827   9.166 -0.7288 -0.7818 -0.8346
  427MOL0     C58825   9.244   6.811   9.282 -1.1076  0.0822 -0.2309
  427MOL0     C58826   9.373   6.726   9.252 -0.5729 -0.0218 -0.2142
  427MOL0     C58827   9.445   6.679   9.381 -0.1802 -0.4047 -0.1727
  427MOL0     C58828   9.588   6.638   9.335  0.0635  0.1891 -0.2841
  427MOL0     C58829   9.652   6.570   9.461  0.0305 -0.0509  0.3191
  427MOL0     C58830   9.804   6.537   9.436  0.0988  0.5109 -0.4840
  427MOL0     C58831   9.883   6.463   9.543  0.3579 -0.5590  0.0803
  427MOL0     C58832   9.830   6.316   9.545  0.0365  0.0389  0.0618
  427MOL0    Cl58833   9.899   6.227   9.395  0.4955 -0.3055 -0.4599
  427MOL0     C58834   9.004   6.939   9.059 -0.5142 -0.2828 -0.5203
  427MOL0     C58835   8.897   7.016   9.039  0.1462 -0.0557 -0.2546
  427MOL0     O58836   8.569   6.958   9.136 -0.2380  0.2902 -0.7169
  427MOL0     C58837   8.515   7.310   9.068  0.3085  1.0064 -0.2928
  427MOL0     C58838   8.421   7.408   9.037 -0.0291  0.2838 -0.1998
  427MOL0     N58839   7.705   7.626   9.316  0.2037  0.4142 -0.7070
  427MOL0     N58840   7.607   7.545   9.331 -0.2063  0.3103  0.9529
  427MOL0     C58841   6.461   7.938   9.408  0.6804  0.1860 -0.6938
  427MOL0     C58842   6.330   7.947   9.370  1.2334  0.2682 -0.9015
  427MOL0     C58843   5.959   8.145   9.170  0.3423  0.9830  0.3448
  427MOL0     C58844   5.866   8.103   9.074  0.5263  0.1263  1.1764
  427MOL0     C58845   5.732   8.132   9.082 -0.1242 -0.2795  1.3604
  427MOL0     C58846   5.676   8.206   9.189  0.3077  0.1810 -0.1865
  427MOL0     O58847   5.551   8.211   9.226  0.6141  0.1612 -0.7331
  427MOL0     C58848   5.464   8.247   9.122 -1.2837  0.4745 -0.2554
  427MOL0     C58849   5.342   8.311   9.187 -0.3100  0.1034 -0.2450
  427MOL0     C58850   5.228   8.321   9.095 -0.0651  0.3223  0.9939
  427MOL0     C58851   5.202   8.200   9.013 -0.3526  0.1785  0.2146
  427MOL0     C58852   5.073   8.218   8.957 -0.9917 -0.6276  0.0238
  427MOL0     C58853   4.960   8.243   8.923 -0.2735 -0.0709  0.7537
  427MOL0     C58854   5.770   8.254   9.282  0.0784  0.4700 -0.2458
  427MOL0     C58855   5.910   8.229   9.269  0.0481  0.5973  0.8810
  427MOL0     C58856   5.996   8.294   9.375  0.4072  0.8448 -0.6958
  427MOL0     H58857   6.320   8.263   9.243 -2.8341 -1.1001 -0.1991
  427MOL0     H58858   6.561   8.243   9.281 -0.6762  0.5135 -0.2429
  427MOL0     H58859   6.681   7.823   9.273  0.6605 -3.1030  2.1006
  427MOL0     H58860   6.688   7.820   9.451  1.1967 -2.0267  0.0794
  427MOL0     H58861   6.903   7.929   9.274 -0.8297 -2.4186 -2.5248
  427MOL0     H58862   6.920   7.910   9.446  0.6191  0.1284 -0.1839
  427MOL0     H58863   6.918   7.656   9.393 -1.7963  0.5942  1.1148
  427MOL0     H58864   6.844   7.684   9.239 -0.6090 -0.3651  1.0270
  427MOL0     H58865   7.061   7.779   9.157  0.1220 -0.5318 -0.9061
  427MOL0     H58866   7.125   7.795   9.314 -1.4769  0.1950 -0.7453
  427MOL0     H58867   7.053   7.541   9.166 -2.0959 -1.8345  2.7436
  427MOL0     H58868   7.101   7.532   9.337 -1.9720 -1.4532 -1.1630
  427MOL0     H58869   7.274   7.597   9.091 -1.8793  4.3709  0.7743
  427MOL0     H58870   7.337   7.651   9.241  0.9497  0.1998 -3.0112
  427MOL0     H58871   7.264   7.366   9.253  0.4144 -1.1837  3.1420
  427MOL0     H58872   7.359   7.479   9.354 -2.2647  3.1338 -1.4638
  427MOL0     H58873   7.479   7.303   9.203  0.3815  0.2823  0.7332
  427MOL0     H58874   7.434   7.408   9.070 -0.3597 -0.6735 -0.0496
  427MOL0     H58875   7.666   7.522   9.004  1.8713 -1.2350 -1.0076
  427MOL0     H58876   7.860   7.810   9.183 -2.8392 -0.8934  2.0820
  427MOL0     H58877   7.811   7.760   9.025 -0.3172  1.9677 -0.0132
  427MOL0     H58878   8.054   7.724   9.104 -0.0697  0.4202 -2.3356
  427MOL0     H58879   7.990   7.567   9.173  0.3525  0.8606  0.4125
  427MOL0     H58880   7.876   7.555   8.919  0.0783  1.5049 -2.9199
  427MOL0     H58881   8.019   7.651   8.886 -0.7976  0.5034  1.2142
  427MOL0     H58882   8.036   7.371   8.998  2.4779  0.0172  1.5893
  427MOL0     H58883   8.074   7.423   8.837 -0.1335 -3.1736  0.5402
  427MOL0     H58884   8.147   7.205   9.020 -0.8499  1.2633  2.9364
  427MOL0     H58885   8.326   6.949   9.150  1.1059  2.5579  1.5553
  427MOL0     H58886   8.336   6.945   8.971 -2.8735 -0.9927 -1.0027
  427MOL0     H58887   8.188   6.992   9.044  0.3059 -1.5965  1.2237
  427MOL0     H58888   8.794   7.041   9.360 -1.4571 -1.8226  0.4485
  427MOL0     H58889   9.005   6.894   9.394 -0.8353 -1.7159 -0.9511
  427MOL0     H58890   9.270   6.909   9.322  0.0598 -0.8289  1.3901
  427MOL0     H58891   9.195   6.754   9.361 -1.5280 -1.5624 -1.5999
  427MOL0     H58892   9.344   6.636   9.198  1.4369 -2.0223  1.8256
  427MOL0     H58893   9.445   6.784   9.194 -0.3892 -0.1598 -0.1194
  427MOL0     H58894   9.391   6.601   9.437  1.9150 -2.0628 -0.3404
  427MOL0     H58895   9.449   6.768   9.445 -0.2530  0.6436 -1.5966
  427MOL0     H58896   9.636   6.732   9.309 -0.5500  0.9423  1.1958
  427MOL0     H58897   9.588   6.572   9.247  0.7343  0.1240 -0.2441
  427MOL0     H58898   9.646   6.633   9.550 -0.6665 -0.1136  0.3270
  427MOL0     H58899   9.600   6.476   9.480  0.6273 -0.1437  1.5626
  427MOL0     H58900   9.839   6.638   9.416  0.4740  0.2908 -0.9664
  427MOL0     H58901   9.805   6.478   9.344 -1.6471 -0.6676  0.1917
  427MOL0     H58902   9.873   6.520   9.636 -0.6288  0.8562 -0.8661
  427MOL0     H58903   9.990   6.467   9.519  0.8514 -0.9098  2.0507
  427MOL0     H58904   9.722   6.306   9.556 -0.2306  1.4744 -1.0435
  427MOL0     H58905   9.890   6.268   9.623  1.9122  1.2695 -0.5606
  427MOL0     H58906   9.054   6.893   8.974 -1.6808 -0.3843 -1.1658
  427MOL0     H58907   8.867   7.045   8.939  0.2895  0.0733 -0.2612
  427MOL0     H58908   8.614   7.348   9.093 -0.8454  2.3587  2.5957
  427MOL0     H58909   8.458   7.510   9.033  4.5475 -0.9653  2.6038
  427MOL0     H58910   6.476   7.849   9.468 -3.9155 -0.0125  0.5326
  427MOL0     H58911   6.263   7.871   9.409  1.2820  0.2119 -0.9278
  427MOL0     H58912   5.902   8.030   9.001 -0.9361  0.0234  0.5324
  427MOL0     H58913   5.664   8.085   9.011  0.1487 -0.2417  1.0750
  427MOL0     H58914   5.500   8.323   9.053 -0.4433  1.0811  0.8222
  427MOL0     H58915   5.445   8.157   9.062  1.7713 -0.8054  0.4942
  427MOL0     H58916   5.364   8.413   9.219  0.9501 -0.7457  1.7465
  427MOL0     H58917   5.311   8.256   9.276 -0.6212 -0.0139 -0.4235
  427MOL0     H58918   5.142   8.333   9.163 -0.7668 -0.4691  0.2663
  427MOL0     H58919   5.249   8.399   9.021  1.2651  0.0186  1.0238
  427MOL0     H58920   5.207   8.109   9.074 -1.3023  1.7982  2.9170
  427MOL0     H58921   5.266   8.197   8.925 -2.8945 -2.4281 -1.7625
  427MOL0     H58922   4.857   8.260   8.899  0.3453 -0.2167 -2.4976
  427MOL0     H58923   5.746   8.318   9.367  1.8955 -0.8628  1.3586
  427MOL0     H58924   6.025   8.226   9.456  1.1710  2.9011  0.8569
  427MOL0     H58925   6.093   8.334   9.342  2.4255 -2.1819  0.9766
  427MOL0     H58926   5.940   8.376   9.420  0.9951  1.9002 -1.8437
  428MOL0     O58927   8.122   3.946   4.027 -0.1340 -0.1399 -0.0011
  428MOL0     C58928   8.133   3.844   3.957  0.0489  0.2237 -1.0033
  428MOL0     O58929   8.256   3.790   3.926 -0.0500 -0.1572 -0.7141
  428MOL0     C58930   8.388   3.836   3.954  0.4494 -0.0738  0.1752
  428MOL0     C58931   8.422   3.966   4.002  1.0249 -0.3259  0.0413
  428MOL0     C58932   8.554   4.003   4.018 -0.2757 -0.9938 -0.8161
  428MOL0     C58933   8.663   3.907   4.005  0.2379  0.0283  0.0100
  428MOL0     O58934   8.799   3.946   4.004 -0.0081  0.5585  0.0806
  428MOL0     C58935   8.835   4.077   4.031 -0.0605 -0.7268 -0.3316
  428MOL0     C58936   8.971   4.088   4.090  0.9834  0.3113  0.7537
  428MOL0     C58937   9.070   4.042   3.983 -1.0553  0.8163  0.4350
  428MOL0     C58938   9.213   4.001   4.041  0.0716 -0.1397  0.4400
  428MOL0     C58939   9.314   4.002   3.918 -0.3449 -0.5534 -0.0899
  428MOL0     C58940   9.437   3.911   3.944  0.0887  0.7170  0.1122
  428MOL0     C58941   9.515   3.903   3.808 -0.5367 -0.1197 -0.1174
  428MOL0     C58942   9.643   3.831   3.837 -0.2389  0.0277  0.5791
  428MOL0     N58943   9.757   3.926   3.827 -0.5585 -0.4491 -0.1792
  428MOL0     C58944   9.783   4.036   3.904 -0.2538  0.5729  0.6419
  428MOL0     C58945   9.885   4.101   3.837  0.9258  0.9700 -0.9962
  428MOL0     C58946   9.944   4.229   3.889  0.0037  0.2268  0.4798
  428MOL0     C58947  10.069   4.255   3.814 -0.4410 -0.9914  0.5444
  428MOL0     C58948  10.159   4.357   3.892  1.4506  0.2811  0.4308
  428MOL0     C58949  10.280   4.391   3.808  0.0315  0.7160 -0.0991
  428MOL0     O58950  10.365   4.489   3.880  0.0728 -0.1755 -0.0325
  428MOL0     C58951  10.463   4.553   3.802  0.8968 -0.3216  0.2228
  428MOL0     C58952  10.527   4.668   3.856  0.3190 -0.1100 -0.9234
  428MOL0     C58953  10.624   4.743   3.792  0.6927  0.5816 -0.8971
  428MOL0     C58954  10.672   4.853   3.874 -0.7808 -0.9022 -0.1936
  428MOL0     C58955  10.667   4.690   3.662  0.7058 -0.4937 -0.1108
  428MOL0     C58956  10.769   4.756   3.580 -0.6522  0.1672 -0.0003
  428MOL0     O58957  10.858   4.831   3.639  0.0135  0.2939 -0.0057
  428MOL0     C58958  10.975   4.851   3.581 -0.2503 -0.6834 -0.1117
  428MOL0     C58959  11.015   4.980   3.622  0.1607 -0.0228 -0.3822
  428MOL0     C58960  11.144   5.020   3.599 -0.2378  0.4563  0.1428
  428MOL0     C58961  11.233   4.953   3.511  0.7982 -0.1586 -0.8814
  428MOL0     O58962  11.351   5.023   3.493  0.0304 -0.2914  0.8957
  428MOL0     C58963  11.470   4.951   3.458 -0.4726 -0.2326 -0.0864
  428MOL0     C58964  11.502   4.960   3.309  0.6341 -0.1878 -0.2434
  428MOL0     C58965  11.657   4.981   3.294 -0.0007  0.4503 -0.3449
  428MOL0     C58966  11.675   5.056   3.160 -0.3235  0.0944 -0.3329
  428MOL0     C58967  11.820   5.081   3.119 -0.4422  0.3000  0.5385
  428MOL0     C58968  11.822   5.126   2.971  0.0615  0.2553 -0.2580
  428MOL0     C58969  11.960   5.152   2.917 -0.9118  0.3955  0.3848
  428MOL0     C58970  11.957   5.187   2.768  0.3931 -0.2741 -0.4133
  428MOL0    Cl58971  12.126   5.180   2.693  0.1826  0.3856 -0.2511
  428MOL0     C58972  11.188   4.825   3.467 -1.3898  0.2291  0.1519
  428MOL0     C58973  11.061   4.772   3.507 -0.7683  0.4428  0.7068
  428MOL0     O58974  10.761   4.734   3.456  0.0875 -0.2157 -0.0704
  428MOL0     C58975  10.606   4.574   3.606  0.5704 -0.5620 -0.7979
  428MOL0     C58976  10.507   4.505   3.672  0.7621  0.0535 -0.5637
  428MOL0     N58977   9.908   4.037   3.720 -0.4756 -0.1920 -0.2294
  428MOL0     N58978   9.820   3.943   3.712 -0.5527  0.8114 -1.0788
  428MOL0     C58979   8.628   3.780   3.959  0.9566 -0.9187 -0.4154
  428MOL0     C58980   8.491   3.749   3.936  0.5008 -0.0595  1.0777
  428MOL0     C58981   8.010   3.775   3.923  0.7555 -0.8588 -0.3031
  428MOL0     C58982   8.019   3.635   3.898  0.1901 -0.6970 -0.1119
  428MOL0     C58983   7.907   3.564   3.857  0.0153 -0.4954  0.9138
  428MOL0     C58984   7.781   3.625   3.855  0.0022  0.7754 -0.8508
  428MOL0     O58985   7.656   3.563   3.837 -0.6054  0.3801 -0.3149
  428MOL0     C58986   7.652   3.415   3.802 -0.2182 -0.6749 -0.2555
  428MOL0     C58987   7.516   3.368   3.750 -0.5177  0.2686 -0.5618
  428MOL0     C58988   7.488   3.393   3.605 -0.2666 -0.2612  0.2393
  428MOL0     C58989   7.354   3.349   3.559 -0.5176  0.0499 -0.7218
  428MOL0     C58990   7.315   3.398   3.423 -0.8669  0.1421 -0.6408
  428MOL0     C58991   7.273   3.435   3.319  0.3797 -0.6681  0.6211
  428MOL0     C58992   7.774   3.763   3.873 -0.8399  0.2422  0.5691
  428MOL0     C58993   7.890   3.841   3.907  0.2978 -0.0496 -1.5041
  428MOL0     C58994   7.858   3.987   3.919  0.3515  0.1039 -0.7985
  428MOL0     H58995   8.355   4.041   4.042  0.5917 -1.0385  0.6773
  428MOL0     H58996   8.557   4.108   4.047  0.7538 -1.0358 -0.7431
  428MOL0     H58997   8.774   4.123   4.110  1.5976 -2.2754  2.0010
  428MOL0     H58998   8.829   4.140   3.942  0.1842 -1.7453 -1.0856
  428MOL0     H58999   8.991   4.192   4.117 -1.8771  0.6141  2.0523
  428MOL0     H59000   8.979   4.037   4.186  0.8478  2.1070  1.7689
  428MOL0     H59001   9.030   3.955   3.930 -0.6479  2.3167 -2.5577
  428MOL0     H59002   9.084   4.120   3.908 -2.8579  2.2683  1.5135
  428MOL0     H59003   9.239   4.075   4.118  0.5051  1.7018 -1.3655
  428MOL0     H59004   9.209   3.899   4.078 -2.1461 -1.0007 -1.8907
  428MOL0     H59005   9.352   4.104   3.905 -0.9367 -0.0692  1.7064
  428MOL0     H59006   9.260   3.970   3.829  1.1001 -0.2488 -1.1151
  428MOL0     H59007   9.490   3.965   4.023 -1.1799  1.6073  0.3900
  428MOL0     H59008   9.406   3.811   3.974 -1.5886  0.6539 -1.6220
  428MOL0     H59009   9.523   4.005   3.770 -1.0444 -0.1360 -0.2881
  428MOL0     H59010   9.464   3.847   3.729  1.3564 -1.1087 -0.6803
  428MOL0     H59011   9.647   3.780   3.934 -0.4505  0.5916  0.8859
  428MOL0     H59012   9.663   3.762   3.754  0.4087  2.4507 -1.3780
  428MOL0     H59013   9.732   4.066   3.995  0.4241  2.0840  0.5597
  428MOL0     H59014   9.953   4.218   3.997 -2.1164 -0.0384  0.6698
  428MOL0     H59015   9.869   4.303   3.863 -3.4513 -3.5527 -1.5772
  428MOL0     H59016  10.126   4.162   3.820  1.1654  0.0578  2.3748
  428MOL0     H59017  10.061   4.286   3.709  1.8394 -4.0142 -0.6882
  428MOL0     H59018  10.097   4.443   3.919  1.2777 -0.2495  1.7927
  428MOL0     H59019  10.193   4.315   3.987  2.5505 -1.9415 -0.8726
  428MOL0     H59020  10.336   4.299   3.790 -2.3056 -0.5891 -1.1426
  428MOL0     H59021  10.249   4.439   3.715  0.6862  2.1163  0.3724
  428MOL0     H59022  10.505   4.686   3.961  2.5804  3.0274 -0.8366
  428MOL0     H59023  10.778   4.837   3.893 -1.2918 -0.6295  3.5392
  428MOL0     H59024  10.630   4.863   3.974  2.1958 -1.0487  1.1735
  428MOL0     H59025  10.653   4.949   3.826  0.9823  0.7873  2.2449
  428MOL0     H59026  10.947   5.040   3.682  1.9673  0.6937  1.0228
  428MOL0     H59027  11.171   5.117   3.639  1.6129 -0.3722  1.0667
  428MOL0     H59028  11.548   4.996   3.520  1.3886  0.8123 -2.9872
  428MOL0     H59029  11.465   4.846   3.487  1.1217  0.1193  1.5922
  428MOL0     H59030  11.481   4.862   3.265  1.9787 -1.1735  1.1892
  428MOL0     H59031  11.433   5.031   3.263 -0.3257  2.3100  4.3703
  428MOL0     H59032  11.709   4.885   3.287 -1.2756 -0.3941  1.0065
  428MOL0     H59033  11.697   5.048   3.371  1.8895 -1.3431  0.3144
  428MOL0     H59034  11.629   5.156   3.165  1.3717  0.9036 -0.2919
  428MOL0     H59035  11.631   5.000   3.077  1.4779 -0.2918 -1.0592
  428MOL0     H59036  11.874   5.150   3.184 -0.5969  0.8794  0.0634
  428MOL0     H59037  11.877   4.988   3.127  0.2621  0.3313 -2.5904
  428MOL0     H59038  11.749   5.208   2.970 -1.0727 -0.4521  4.2084
  428MOL0     H59039  11.789   5.041   2.911  0.6523 -0.3448  0.2616
  428MOL0     H59040  12.018   5.060   2.928  1.2738  1.7538  0.9552
  428MOL0     H59041  12.015   5.232   2.969 -1.4970  0.1291  1.4345
  428MOL0     H59042  11.904   5.283   2.760 -0.4857 -0.6821  0.4061
  428MOL0     H59043  11.898   5.116   2.709  0.8745 -0.0066 -1.2407
  428MOL0     H59044  11.247   4.761   3.403 -1.4567  0.9606 -0.6479
  428MOL0     H59045  11.031   4.674   3.470 -1.5355  0.4966  1.1614
  428MOL0     H59046  10.633   4.530   3.510  0.9326  1.3608 -1.6206
  428MOL0     H59047  10.474   4.413   3.624 -0.0974  0.7058 -1.2595
  428MOL0     H59048   8.713   3.716   3.936  1.5671 -0.4067  0.3602
  428MOL0     H59049   8.477   3.644   3.914  2.5907  0.1373 -1.7556
  428MOL0     H59050   8.112   3.580   3.890  0.0794 -0.7304 -1.4285
  428MOL0     H59051   7.914   3.459   3.831  2.8181 -0.3148  0.6509
  428MOL0     H59052   7.730   3.390   3.730  0.3512  1.4946 -0.4569
  428MOL0     H59053   7.669   3.357   3.893  0.0696 -1.1688 -0.6201
  428MOL0     H59054   7.438   3.408   3.815 -0.1646 -0.7637  0.5256
  428MOL0     H59055   7.497   3.263   3.773  1.4565 -0.3445 -1.4757
  428MOL0     H59056   7.498   3.502   3.593  1.1263 -0.1457  2.1455
  428MOL0     H59057   7.562   3.335   3.549  1.0112  0.4639  1.1338
  428MOL0     H59058   7.278   3.373   3.633  1.2087  2.4318  0.4094
  428MOL0     H59059   7.352   3.240   3.548 -0.5155 -0.0286  0.0476
  428MOL0     H59060   7.242   3.482   3.228 -1.4384 -0.2271  1.4088
  428MOL0     H59061   7.678   3.812   3.876 -1.9243 -1.4992 -2.3616
  428MOL0     H59062   7.750   4.008   3.923  0.1182 -0.8794 -1.6148
  428MOL0     H59063   7.891   4.032   4.013 -1.3400  0.4727 -0.3473
  428MOL0     H59064   7.898   4.030   3.826 -0.3524  1.5026 -0.4867
  429MOL0     O59065   4.020   6.577   0.348  0.1672  0.5576 -0.3829
  429MOL0     C59066   3.971   6.685   0.364  0.3435 -0.0669 -0.1118
  429MOL0     O59067   4.032   6.796   0.353  0.1595 -0.0213 -0.1821
  429MOL0     C59068   4.168   6.806   0.333  1.0485 -0.0047  0.7109
  429MOL0     C59069   4.236   6.782   0.210  0.0998  0.2613 -0.5614
  429MOL0     C59070   4.371   6.799   0.187 -0.1823 -0.4525  0.4878
  429MOL0     C59071   4.437   6.838   0.299 -0.4634 -0.0618  0.0863
  429MOL0     O59072   4.572   6.858   0.282  0.7024 -0.3875  0.1139
  429MOL0     C59073   4.613   6.948   0.177  0.4596 -0.9795 -0.0015
  429MOL0     C59074   4.765   6.967   0.194  0.7214  0.3719  0.2631
  429MOL0     C59075   4.839   7.019   0.073 -0.6664 -0.0494 -0.2154
  429MOL0     C59076   4.896   6.907  -0.027 -0.5428 -0.4720 -1.1107
  429MOL0     C59077   5.032   6.955  -0.092  0.7563 -0.2361  0.0221
  429MOL0     C59078   5.096   6.836  -0.164  0.1185  0.0643  0.5848
  429MOL0     C59079   5.028   6.807  -0.298 -0.2087  0.8307  0.2290
  429MOL0     C59080   5.099   6.699  -0.381 -0.8257  0.0614 -0.8275
  429MOL0     N59081   5.040   6.670  -0.507  0.0540  1.5458  0.1447
  429MOL0     C59082   4.934   6.582  -0.533 -0.7395 -0.5338 -0.4287
  429MOL0     C59083   4.928   6.583  -0.664  0.8457 -1.4117 -0.0949
  429MOL0     C59084   4.821   6.510  -0.743 -0.1876  0.4804 -0.7108
  429MOL0     C59085   4.878   6.368  -0.793  0.3661  0.0187  0.1048
  429MOL0     C59086   4.966   6.368  -0.917 -0.1974  0.7640  0.0142
  429MOL0     C59087   5.120   6.372  -0.891  0.4317 -0.0720  0.1425
  429MOL0     O59088   5.173   6.365  -1.026 -0.3564 -0.2637 -0.0617
  429MOL0     C59089   5.258   6.259  -1.040 -0.0757  0.4640 -0.2329
  429MOL0     C59090   5.245   6.129  -1.000  0.7102  0.9090 -0.3693
  429MOL0     C59091   5.343   6.031  -1.016  0.1117 -0.8393  1.3143
  429MOL0     C59092   5.338   5.911  -0.927  0.2765  0.5738  0.2467
  429MOL0     C59093   5.468   6.074  -1.083  0.7621 -0.0071 -0.5513
  429MOL0     C59094   5.594   5.993  -1.087 -0.3711  0.3170  0.6091
  429MOL0     O59095   5.707   6.057  -1.112 -0.2798 -0.4307 -0.0028
  429MOL0     C59096   5.838   6.006  -1.090 -0.0413  0.9297  0.1391
  429MOL0     C59097   5.872   5.885  -1.030 -0.3360 -1.0176  0.1591
  429MOL0     C59098   6.003   5.850  -0.991  0.5149  0.0762  1.2475
  429MOL0     C59099   6.108   5.929  -1.025  0.3857 -1.1292  0.5568
  429MOL0     O59100   6.234   5.893  -0.987  0.1361  0.8267 -0.1257
  429MOL0     C59101   6.339   5.973  -1.031 -0.2718 -0.0286 -0.2260
  429MOL0     C59102   6.467   5.910  -0.985  0.0048  0.7074 -0.2290
  429MOL0     C59103   6.594   6.003  -0.980 -0.8198  1.1944  0.4714
  429MOL0     C59104   6.677   6.023  -1.104 -1.1777  0.6087 -0.3492
  429MOL0     C59105   6.620   6.112  -1.211 -0.2855  0.5577  0.1305
  429MOL0     C59106   6.660   6.257  -1.190  0.1215 -0.7658  0.4529
  429MOL0     C59107   6.646   6.344  -1.323  0.8134 -0.2189  0.2522
  429MOL0     C59108   6.732   6.297  -1.440  0.3328 -0.0621  0.1281
  429MOL0    Cl59109   6.894   6.378  -1.426  0.5091  0.1506 -0.3218
  429MOL0     C59110   6.082   6.044  -1.101 -0.7506 -0.3179  0.4919
  429MOL0     C59111   5.950   6.086  -1.119  0.5791 -0.2392 -0.3769
  429MOL0     O59112   5.591   5.874  -1.070 -0.4066 -0.2558  0.5289
  429MOL0     C59113   5.471   6.200  -1.135  0.8003 -0.6263 -0.0666
  429MOL0     C59114   5.372   6.291  -1.110  0.1555  0.5435 -0.4472
  429MOL0     N59115   5.020   6.670  -0.724  0.5529  0.0243  0.4100
  429MOL0     N59116   5.096   6.713  -0.627 -0.2357  0.4490 -0.7563
  429MOL0     C59117   4.382   6.852   0.426  0.1523  0.1942 -0.4085
  429MOL0     C59118   4.243   6.822   0.448  0.0300 -0.1014  0.5187
  429MOL0     C59119   3.826   6.685   0.387 -1.1821  0.5081 -0.4201
  429MOL0     C59120   3.771   6.811   0.406  0.6830 -0.6079  0.5763
  429MOL0     C59121   3.631   6.827   0.387 -0.4860 -0.8635 -0.2040
  429MOL0     C59122   3.550   6.727   0.366  0.6893 -0.3533 -0.1173
  429MOL0     O59123   3.413   6.759   0.361 -0.0617 -0.2139 -0.3075
  429MOL0     C59124   3.318   6.650   0.353 -0.2509  0.1320 -0.5624
  429MOL0     C59125   3.282   6.596   0.212  0.7008  0.4459 -0.3135
  429MOL0     C59126   3.183   6.484   0.211  0.5100 -0.4858  0.3099
  429MOL0     C59127   3.231   6.345   0.177  0.3903 -0.2574 -0.4603
  429MOL0     C59128   3.344   6.303   0.267 -0.0304  0.3532 -0.3817
  429MOL0     C59129   3.417   6.271   0.355 -0.0684  0.6862  0.4400
  429MOL0     C59130   3.600   6.597   0.373  0.4413 -0.3386 -0.7423
  429MOL0     C59131   3.737   6.569   0.385 -0.0407 -0.5205 -0.8528
  429MOL0     C59132   3.782   6.420   0.394 -0.0170 -0.0107 -0.4164
  429MOL0     H59133   4.182   6.743   0.124  0.1291 -1.5564  0.1994
  429MOL0     H59134   4.420   6.791   0.090 -1.8617  0.9364 -0.5215
  429MOL0     H59135   4.563   7.045   0.184  0.1861 -1.2587  2.7307
  429MOL0     H59136   4.598   6.906   0.077  2.7123 -0.9713 -0.3832
  429MOL0     H59137   4.784   7.040   0.273  1.8810  0.1414  0.2166
  429MOL0     H59138   4.808   6.873   0.230  0.1481  0.6325  1.6937
  429MOL0     H59139   4.783   7.095   0.018  1.5534  1.7772 -0.1017
  429MOL0     H59140   4.924   7.072   0.118 -0.8111  2.4015 -2.5850
  429MOL0     H59141   4.904   6.818   0.036 -2.5180 -0.5561 -0.9032
  429MOL0     H59142   4.819   6.891  -0.103 -0.3605  1.7181 -1.8045
  429MOL0     H59143   5.104   7.006  -0.027  0.6452  0.0676 -0.0950
  429MOL0     H59144   5.008   7.027  -0.171 -0.4228  0.0018  0.5780
  429MOL0     H59145   5.205   6.846  -0.167  0.7163 -3.6608  3.2836
  429MOL0     H59146   5.078   6.747  -0.102  2.9549 -0.9774  0.0416
  429MOL0     H59147   5.026   6.898  -0.359 -0.4303  0.2424 -0.6663
  429MOL0     H59148   4.928   6.761  -0.298  0.2969 -0.2887 -0.5931
  429MOL0     H59149   5.200   6.740  -0.388 -0.5690 -0.4478 -0.2415
  429MOL0     H59150   5.110   6.606  -0.325  1.4194  0.8003  0.0906
  429MOL0     H59151   4.876   6.533  -0.456 -2.1952  0.4404 -0.8596
  429MOL0     H59152   4.793   6.574  -0.827 -0.5030  0.4053 -0.6629
  429MOL0     H59153   4.733   6.504  -0.679  0.7635 -0.7923  0.5281
  429MOL0     H59154   4.922   6.311  -0.710 -0.5878 -1.6969 -0.5170
  429MOL0     H59155   4.787   6.314  -0.820 -0.1351  0.6260  0.5337
  429MOL0     H59156   4.947   6.268  -0.957  0.4012  1.2562 -1.5613
  429MOL0     H59157   4.935   6.433  -0.998  2.1211 -0.0192 -1.6179
  429MOL0     H59158   5.137   6.467  -0.840 -3.2657 -0.1038  1.7412
  429MOL0     H59159   5.145   6.288  -0.825 -2.2846 -1.0640  0.0383
  429MOL0     H59160   5.157   6.095  -0.947  0.0986 -0.6471 -2.2427
  429MOL0     H59161   5.331   5.817  -0.982 -2.2893 -1.0667  3.0348
  429MOL0     H59162   5.248   5.926  -0.867 -0.6311 -3.3726  0.1230
  429MOL0     H59163   5.422   5.920  -0.858 -0.0170  0.1413  0.6704
  429MOL0     H59164   5.798   5.813  -0.997  1.8463 -2.2260  2.8661
  429MOL0     H59165   6.024   5.760  -0.934 -4.9348 -0.7897  2.4733
  429MOL0     H59166   6.340   5.985  -1.140 -2.9927  1.2459 -0.1796
  429MOL0     H59167   6.339   6.070  -0.982  2.0726 -0.6761  1.2203
  429MOL0     H59168   6.459   5.867  -0.884  0.8908  2.4401  0.6242
  429MOL0     H59169   6.483   5.823  -1.049 -0.9936  0.4232 -0.1170
  429MOL0     H59170   6.663   5.973  -0.900 -0.1628 -0.5794 -0.7210
  429MOL0     H59171   6.569   6.099  -0.933 -0.5195  1.0770  0.8862
  429MOL0     H59172   6.697   5.932  -1.162  0.8846  0.8972 -0.1894
  429MOL0     H59173   6.769   6.073  -1.072 -0.7175 -1.2824  1.4906
  429MOL0     H59174   6.653   6.079  -1.310  0.4076  2.3888 -0.2804
  429MOL0     H59175   6.511   6.108  -1.219 -0.5473  1.3553  2.4895
  429MOL0     H59176   6.767   6.259  -1.170  0.4420  0.1449 -1.1435
  429MOL0     H59177   6.602   6.294  -1.105  0.0102  1.0154 -0.3442
  429MOL0     H59178   6.680   6.445  -1.302  1.6368 -0.3408 -0.4186
  429MOL0     H59179   6.540   6.357  -1.348  1.4070  2.9344 -0.9636
  429MOL0     H59180   6.676   6.321  -1.531  0.8162  1.8279  0.3049
  429MOL0     H59181   6.756   6.190  -1.438 -0.9062 -0.3589 -0.1423
  429MOL0     H59182   6.155   6.109  -1.147 -1.4313 -0.4136 -0.7541
  429MOL0     H59183   5.920   6.176  -1.173 -2.8175 -2.9215 -3.5410
  429MOL0     H59184   5.554   6.232  -1.198  0.2410  1.3540  0.1231
  429MOL0     H59185   5.396   6.386  -1.158 -0.8548  1.4261  0.7394
  429MOL0     H59186   4.442   6.890   0.508  3.0539  2.0430 -3.1690
  429MOL0     H59187   4.214   6.824   0.552  0.3627 -2.3003  0.7015
  429MOL0     H59188   3.819   6.908   0.399 -0.7582  0.0210 -2.4287
  429MOL0     H59189   3.582   6.924   0.391  2.2169  0.5705  0.3750
  429MOL0     H59190   3.355   6.571   0.420  2.7665  1.7741 -0.1132
  429MOL0     H59191   3.220   6.679   0.391  1.1182  2.0712  1.7693
  429MOL0     H59192   3.372   6.561   0.161 -0.0981 -1.8532 -0.2442
  429MOL0     H59193   3.229   6.677   0.160 -0.2206 -0.4197 -0.7581
  429MOL0     H59194   3.128   6.491   0.305 -1.0616 -3.6292 -0.2430
  429MOL0     H59195   3.109   6.496   0.132 -0.3103 -0.6825  1.0417
  429MOL0     H59196   3.274   6.348   0.076  3.6196  0.3926  0.7827
  429MOL0     H59197   3.160   6.263   0.188  0.5647 -0.5032 -1.1207
  429MOL0     H59198   3.491   6.256   0.431 -0.2011  0.2185  0.4774
  429MOL0     H59199   3.530   6.515   0.361 -0.4619  0.1362  0.9219
  429MOL0     H59200   3.864   6.388   0.459 -1.1154 -1.3037  0.3943
  429MOL0     H59201   3.698   6.353   0.414 -0.3311  1.3221  3.7585
  429MOL0     H59202   3.814   6.398   0.292  0.8920 -0.2747 -0.0857
  430MOL0     O59203  10.314   7.409   4.070  0.3905  0.1935 -0.4661
  430MOL0     C59204  10.227   7.321   4.052 -0.4572  0.0773  0.6009
  430MOL0     O59205  10.242   7.205   3.985 -0.1076 -0.4620 -0.5298
  430MOL0     C59206  10.364   7.181   3.925 -0.2786  0.0627  0.1887
  430MOL0     C59207  10.367   7.163   3.789  0.0777  0.3193  0.5540
  430MOL0     C59208  10.489   7.148   3.714  0.5035 -0.9518  0.4153
  430MOL0     C59209  10.612   7.148   3.781  0.0666  0.3186  0.2918
  430MOL0     O59210  10.726   7.147   3.705 -0.0702  0.0605  0.6014
  430MOL0     C59211  10.850   7.204   3.750  0.6552  0.5793 -0.3152
  430MOL0     C59212  10.960   7.210   3.630 -0.9246 -0.0108 -0.0246
  430MOL0     C59213  11.091   7.260   3.697  0.0398  0.1356 -0.3421
  430MOL0     C59214  11.205   7.276   3.603  0.3428 -0.2656 -0.7185
  430MOL0     C59215  11.337   7.329   3.667  0.5919 -0.1955  1.3653
  430MOL0     C59216  11.427   7.360   3.550  0.5026 -0.1318  0.0875
  430MOL0     C59217  11.567   7.396   3.606 -0.6624 -0.3280  0.3078
  430MOL0     C59218  11.568   7.505   3.709 -0.0194  0.8304 -0.7449
  430MOL0     N59219  11.702   7.553   3.744 -0.1458  0.1218 -0.0897
  430MOL0     C59220  11.746   7.677   3.763  1.2388 -0.7335  0.4350
  430MOL0     C59221  11.875   7.675   3.801 -1.0077  0.0706  0.1980
  430MOL0     C59222  11.950   7.798   3.845 -0.1701  0.4226 -0.4494
  430MOL0     C59223  12.089   7.753   3.911  0.2569 -0.5785 -0.0706
  430MOL0     C59224  12.067   7.670   4.034  1.1864 -1.1687  0.2027
  430MOL0     C59225  12.199   7.595   4.062 -0.3499 -0.6241 -0.8055
  430MOL0     O59226  12.297   7.675   4.136  0.2298  0.4352  0.4304
  430MOL0     C59227  12.400   7.720   4.058 -0.1715  0.1527  0.0328
  430MOL0     C59228  12.472   7.632   3.980  0.8580  0.3008  1.4441
  430MOL0     C59229  12.577   7.677   3.895 -0.1993  0.4073 -0.4459
  430MOL0     C59230  12.648   7.577   3.815 -0.4676 -0.3297 -0.3784
  430MOL0     C59231  12.608   7.819   3.886 -0.6674 -0.3916  0.0346
  430MOL0     C59232  12.723   7.874   3.811  0.0842  0.1425  0.3109
  430MOL0     O59233  12.847   7.820   3.822  0.4572  0.7334 -0.0548
  430MOL0     C59234  12.961   7.854   3.764 -0.3963  0.1524 -0.3377
  430MOL0     C59235  13.066   7.763   3.763 -0.3435  0.1987 -0.1256
  430MOL0     C59236  13.177   7.785   3.679 -0.3894  0.0434  0.0490
  430MOL0     C59237  13.195   7.912   3.619  1.0867  0.3968 -0.7796
  430MOL0     O59238  13.307   7.926   3.548 -0.4021  0.3394 -0.7018
  430MOL0     C59239  13.327   8.021   3.446  0.3219 -0.9451  0.0052
  430MOL0     C59240  13.470   8.026   3.390 -0.4254  0.0669  0.0464
  430MOL0     C59241  13.568   8.091   3.484 -0.5610  0.0499 -1.0791
  430MOL0     C59242  13.710   8.114   3.434  0.7076 -0.1612  1.2095
  430MOL0     C59243  13.785   7.985   3.391  0.7866  0.5442 -0.2019
  430MOL0     C59244  13.928   8.017   3.398 -0.1491 -0.1334 -1.1236
  430MOL0     C59245  13.970   8.135   3.311 -0.2602 -0.1443  0.7341
  430MOL0     C59246  14.122   8.138   3.310 -0.8055 -0.2714 -0.1259
  430MOL0    Cl59247  14.180   8.254   3.195 -0.0749 -0.3193 -0.6056
  430MOL0     C59248  13.102   8.012   3.634 -0.0588 -0.4134 -0.5453
  430MOL0     C59249  12.985   7.978   3.695 -0.7354 -0.1738  0.6949
  430MOL0     O59250  12.686   7.959   3.727 -0.3601 -0.2550 -0.2361
  430MOL0     C59251  12.539   7.904   3.973 -0.3003 -0.3316  0.5258
  430MOL0     C59252  12.436   7.852   4.055 -0.2252  0.4396 -0.8658
  430MOL0     N59253  11.919   7.537   3.791  0.7079  0.0870  0.6824
  430MOL0     N59254  11.813   7.472   3.746 -0.0094 -0.0615 -0.0526
  430MOL0     C59255  10.611   7.159   3.923  0.2798  0.4345  0.2093
  430MOL0     C59256  10.487   7.179   3.996 -0.0167  0.3634  0.1489
  430MOL0     C59257  10.093   7.358   4.100 -0.9097 -0.4859 -0.2129
  430MOL0     C59258  10.093   7.444   4.217  0.1285  0.3843  0.4347
  430MOL0     C59259   9.971   7.486   4.267  0.1281 -0.3653 -0.4102
  430MOL0     C59260   9.851   7.421   4.224 -0.0700  0.3823  0.4622
  430MOL0     O59261   9.726   7.437   4.283 -0.6889  0.0460 -0.2357
  430MOL0     C59262   9.705   7.559   4.348 -0.2857 -0.1985 -0.1893
  430MOL0     C59263   9.591   7.529   4.449 -0.6511 -0.0885 -0.3481
  430MOL0     C59264   9.540   7.655   4.514  0.1708  0.0707 -0.2744
  430MOL0     C59265   9.420   7.624   4.599 -0.7369 -0.2908  0.7402
  430MOL0     C59266   9.305   7.577   4.528 -0.8879  0.2709 -0.3220
  430MOL0     C59267   9.199   7.552   4.474  0.5222  0.1850 -0.1116
  430MOL0     C59268   9.852   7.339   4.118 -0.1440  0.1878  0.0799
  430MOL0     C59269   9.969   7.310   4.059  0.1094  0.7053  0.3158
  430MOL0     C59270   9.945   7.210   3.949 -0.0860  0.3271  0.9990
  430MOL0     H59271  10.276   7.147   3.732 -0.7254 -1.1596  2.1452
  430MOL0     H59272  10.479   7.138   3.606  1.3570  0.1615  0.2188
  430MOL0     H59273  10.892   7.136   3.825 -0.8297 -1.7384 -1.4733
  430MOL0     H59274  10.827   7.298   3.801 -1.8198 -0.5982  0.9316
  430MOL0     H59275  10.983   7.108   3.599 -0.8675 -0.1068  0.3384
  430MOL0     H59276  10.934   7.282   3.552  1.5500  2.0595  0.9068
  430MOL0     H59277  11.080   7.360   3.741  1.9333 -0.0638  0.6841
  430MOL0     H59278  11.099   7.198   3.787 -0.8555  1.3968  0.6555
  430MOL0     H59279  11.223   7.180   3.554  1.1010  0.3592 -1.7084
  430MOL0     H59280  11.177   7.340   3.519 -3.1990 -1.2643 -0.4475
  430MOL0     H59281  11.390   7.244   3.710  0.2251  0.0508  2.3245
  430MOL0     H59282  11.317   7.420   3.724 -0.1797 -0.4920  1.5748
  430MOL0     H59283  11.444   7.276   3.482 -2.5430 -1.2791  0.5725
  430MOL0     H59284  11.396   7.449   3.494  0.6952  1.2319  2.0370
  430MOL0     H59285  11.637   7.431   3.530 -0.4881  0.2009  0.7126
  430MOL0     H59286  11.599   7.299   3.647 -4.0538 -1.9843 -0.5653
  430MOL0     H59287  11.512   7.592   3.675 -0.4474 -0.2564 -2.9914
  430MOL0     H59288  11.515   7.459   3.793 -1.3050  0.4150 -1.7505
  430MOL0     H59289  11.676   7.759   3.778 -3.5607 -4.2422 -0.3678
  430MOL0     H59290  11.887   7.852   3.917  0.1908  0.1770  0.0600
  430MOL0     H59291  11.981   7.874   3.773  3.6206 -0.0338  0.4749
  430MOL0     H59292  12.140   7.689   3.838  0.0949  2.3251 -2.9537
  430MOL0     H59293  12.158   7.833   3.940  1.2249 -2.0320  1.9309
  430MOL0     H59294  12.040   7.733   4.119  1.1605  1.7862 -1.8193
  430MOL0     H59295  11.985   7.599   4.021  1.1495 -0.6313 -4.4675
  430MOL0     H59296  12.168   7.504   4.113  0.6228  0.3875  1.7785
  430MOL0     H59297  12.237   7.554   3.968  0.5246  2.3737 -1.8943
  430MOL0     H59298  12.458   7.524   3.982  0.9631  0.2096 -0.5264
  430MOL0     H59299  12.738   7.547   3.868  0.0448  1.6932 -0.0199
  430MOL0     H59300  12.659   7.629   3.720 -6.2011  1.6680 -0.3284
  430MOL0     H59301  12.588   7.487   3.796  0.5369 -1.3519  1.1109
  430MOL0     H59302  13.062   7.663   3.805  2.7800 -0.4663 -1.1236
  430MOL0     H59303  13.254   7.710   3.661  0.2000  0.7752 -0.5319
  430MOL0     H59304  13.256   8.006   3.364 -0.4752 -1.5500  0.7694
  430MOL0     H59305  13.305   8.114   3.499  0.8857 -1.1697  0.6373
  430MOL0     H59306  13.514   7.931   3.359 -0.4775 -0.3575  1.2001
  430MOL0     H59307  13.460   8.094   3.305  2.2458  2.1918  1.2636
  430MOL0     H59308  13.579   8.039   3.580 -2.4053  2.4025  0.5222
  430MOL0     H59309  13.523   8.188   3.505 -1.9648 -0.3708 -2.0072
  430MOL0     H59310  13.760   8.171   3.513  3.7354  0.5302 -1.0031
  430MOL0     H59311  13.693   8.176   3.344  2.0466 -2.2183 -0.5562
  430MOL0     H59312  13.774   7.904   3.464  0.8613  0.2814 -0.4767
  430MOL0     H59313  13.760   7.954   3.289 -2.7954 -1.1010  1.0262
  430MOL0     H59314  13.997   7.935   3.377  1.8699  0.2467  3.0160
  430MOL0     H59315  13.954   8.038   3.502 -1.6643  0.0491 -0.7644
  430MOL0     H59316  13.947   8.231   3.357  2.0783  1.9660 -2.1438
  430MOL0     H59317  13.917   8.132   3.215 -2.5710 -3.7959  1.9076
  430MOL0     H59318  14.157   8.039   3.281 -1.8416 -1.1661  1.5610
  430MOL0     H59319  14.157   8.154   3.412 -0.5127 -0.6747 -0.1623
  430MOL0     H59320  13.109   8.116   3.604  0.8285 -0.4347 -0.4286
  430MOL0     H59321  12.897   8.043   3.692 -1.2714 -0.9086 -1.6346
  430MOL0     H59322  12.564   8.009   3.977 -0.0847 -0.1852 -2.6150
  430MOL0     H59323  12.371   7.923   4.106 -2.2869 -0.2482 -2.3853
  430MOL0     H59324  10.693   7.138   3.991  0.4285 -3.2510 -0.8703
  430MOL0     H59325  10.482   7.177   4.104  0.6245 -0.1311  0.1747
  430MOL0     H59326  10.186   7.477   4.262  0.0898  2.1073 -0.6473
  430MOL0     H59327   9.968   7.549   4.355 -3.1953  2.3111 -2.1871
  430MOL0     H59328   9.787   7.606   4.403 -3.3267  4.7372  0.7629
  430MOL0     H59329   9.676   7.627   4.268 -0.1620  0.1307  0.0423
  430MOL0     H59330   9.635   7.466   4.527  3.2794  2.3801 -0.2630
  430MOL0     H59331   9.509   7.486   4.391  0.0511 -1.7377 -0.1873
  430MOL0     H59332   9.622   7.693   4.575  2.0384 -3.0411 -0.6593
  430MOL0     H59333   9.517   7.734   4.442  0.0119 -1.0416 -1.4662
  430MOL0     H59334   9.410   7.721   4.648 -1.3432  0.0134  0.0407
  430MOL0     H59335   9.441   7.550   4.677 -0.9855 -1.0368  0.1068
  430MOL0     H59336   9.112   7.554   4.411  0.4792 -2.5146 -0.2186
  430MOL0     H59337   9.761   7.297   4.074 -0.3888  0.7603  0.0293
  430MOL0     H59338   9.900   7.115   3.980 -3.9591  1.5371 -0.2857
  430MOL0     H59339   9.877   7.244   3.870  0.0003  0.9670  1.1945
  430MOL0     H59340  10.038   7.177   3.903  0.7389  0.9013  2.1978
  431MOL0     O59341   3.283  10.335   0.457 -0.1093 -0.4842  0.5183
  431MOL0     C59342   3.220  10.429   0.525 -0.5430  0.0462 -0.1909
  431MOL0     O59343   3.231  10.563   0.503 -0.3364  0.6640 -0.1259
  431MOL0     C59344   3.314  10.610   0.408 -0.2001 -0.0637  1.0724
  431MOL0     C59345   3.280  10.740   0.358 -0.1137 -0.0803 -0.2945
  431MOL0     C59346   3.358  10.805   0.260  0.5558 -0.2700  0.2235
  431MOL0     C59347   3.462  10.739   0.200 -0.4436 -0.5022  0.9171
  431MOL0     O59348   3.536  10.793   0.100 -1.0621 -0.0304 -0.1401
  431MOL0     C59349   3.555  10.939   0.099  1.3322  0.3256 -0.1454
  431MOL0     C59350   3.630  10.957  -0.030 -0.1123 -1.2061 -0.1609
  431MOL0     C59351   3.632  11.107  -0.072 -0.3381 -0.1385  0.2826
  431MOL0     C59352   3.754  11.133  -0.161 -0.4444  0.6717  0.6762
  431MOL0     C59353   3.776  11.277  -0.154  0.1987  0.4602  0.1750
  431MOL0     C59354   3.661  11.379  -0.193  0.2631  0.4079  1.0551
  431MOL0     C59355   3.597  11.345  -0.335 -0.1998  0.7481  0.1885
  431MOL0     C59356   3.692  11.376  -0.453  0.2593 -0.8599 -0.5413
  431MOL0     N59357   3.696  11.525  -0.491  0.6459  0.5397 -0.3686
  431MOL0     C59358   3.755  11.634  -0.433 -0.2768  0.7188  0.0764
  431MOL0     C59359   3.735  11.726  -0.525 -0.0327  0.2110  0.1269
  431MOL0     C59360   3.794  11.867  -0.518 -0.3776 -0.0075 -0.1885
  431MOL0     C59361   3.921  11.885  -0.433 -0.6716 -0.1926  0.1483
  431MOL0     C59362   4.037  11.803  -0.494  0.1991 -0.5563 -0.6028
  431MOL0     C59363   4.145  11.798  -0.395  0.5903  0.2682 -0.1368
  431MOL0     O59364   4.117  11.689  -0.299 -0.0287 -0.1747  0.2989
  431MOL0     C59365   4.145  11.690  -0.166  0.4906 -0.3829  1.1588
  431MOL0     C59366   4.206  11.809  -0.107 -0.9565  0.1951  0.2491
  431MOL0     C59367   4.267  11.798   0.018 -0.1416  0.3034  0.2702
  431MOL0     C59368   4.340  11.917   0.064  0.3122 -0.6064 -0.2444
  431MOL0     C59369   4.246  11.671   0.093 -0.3497 -0.9056  0.6759
  431MOL0     C59370   4.281  11.665   0.236 -0.5097  0.0713  0.0502
  431MOL0     O59371   4.310  11.539   0.285 -0.0030  0.7023 -0.4837
  431MOL0     C59372   4.314  11.515   0.424  0.2794 -0.8057 -0.4278
  431MOL0     C59373   4.434  11.461   0.471 -1.0672  0.2440 -0.5651
  431MOL0     C59374   4.444  11.428   0.605  0.1867 -0.4332  0.6342
  431MOL0     C59375   4.345  11.458   0.698 -0.5650 -0.3341 -0.4016
  431MOL0     O59376   4.366  11.465   0.834 -0.8900 -0.3599 -0.4244
  431MOL0     C59377   4.489  11.474   0.892 -0.8598 -0.1808 -0.9009
  431MOL0     C59378   4.453  11.493   1.036  0.2668 -0.6228 -0.6373
  431MOL0     C59379   4.381  11.373   1.094  0.5005 -1.0509  0.4192
  431MOL0     C59380   4.478  11.291   1.175  0.0703  0.0043  0.4057
  431MOL0     C59381   4.429  11.157   1.232 -1.2225  0.3752  0.4466
  431MOL0     C59382   4.350  11.066   1.139 -0.7420 -0.0367  0.9021
  431MOL0     C59383   4.202  11.077   1.154  0.1623  0.5378 -0.3745
  431MOL0     C59384   4.133  11.032   1.026 -0.4452  0.4813 -0.3685
  431MOL0    Cl59385   4.155  11.149   0.889  0.1696 -0.0387  0.1393
  431MOL0     C59386   4.224  11.492   0.651 -0.1372  0.4182 -0.4874
  431MOL0     C59387   4.206  11.523   0.518 -0.2127 -0.0698  0.2165
  431MOL0     O59388   4.259  11.767   0.303 -0.2975  0.6949  0.3009
  431MOL0     C59389   4.194  11.561   0.026  0.0093 -0.2444  0.6842
  431MOL0     C59390   4.139  11.572  -0.104  0.2320 -0.0472 -0.5245
  431MOL0     N59391   3.677  11.678  -0.639 -0.0315 -0.4099  0.2492
  431MOL0     N59392   3.660  11.552  -0.621 -0.4999 -0.2021 -0.1957
  431MOL0     C59393   3.501  10.618   0.244  0.6671 -0.0189 -0.1162
  431MOL0     C59394   3.429  10.555   0.347  0.9166  0.7014 -0.4974
  431MOL0     C59395   3.130  10.387   0.634  0.4147 -0.1270 -0.0836
  431MOL0     C59396   3.087  10.247   0.637 -0.4788 -0.1057  0.6698
  431MOL0     C59397   3.017  10.198   0.744 -0.3288 -1.2572 -0.6221
  431MOL0     C59398   2.962  10.287   0.840 -0.3938  0.9698  0.2647
  431MOL0     O59399   2.881  10.233   0.938  0.0627  0.9119 -0.2720
  431MOL0     C59400   2.922  10.242   1.076 -0.4527 -0.2344 -0.1573
  431MOL0     C59401   3.054  10.167   1.096  0.7997  0.1826  0.1758
  431MOL0     C59402   3.028  10.017   1.140  0.3507  0.1681 -0.6724
  431MOL0     C59403   3.129   9.913   1.082  0.2120  0.2581 -1.2889
  431MOL0     C59404   3.086   9.857   0.949 -0.6222 -0.4052  0.3258
  431MOL0     C59405   3.072   9.814   0.836  0.2359  1.4345  0.2195
  431MOL0     C59406   2.993  10.417   0.832 -0.4253 -0.1900 -0.9250
  431MOL0     C59407   3.086  10.470   0.745 -0.4541  0.0469  0.8753
  431MOL0     C59408   3.123  10.613   0.762  0.8083  0.0701  0.0392
  431MOL0     H59409   3.184  10.780   0.390  0.1271 -0.4502  0.9484
  431MOL0     H59410   3.321  10.902   0.227 -0.5691 -0.9745 -0.6882
  431MOL0     H59411   3.614  10.979   0.182  0.1736 -1.3172  1.5549
  431MOL0     H59412   3.460  10.994   0.101  1.8958  1.3200  1.3202
  431MOL0     H59413   3.730  10.919  -0.007 -0.7944 -3.5840 -0.8490
  431MOL0     H59414   3.570  10.908  -0.106 -3.4087  2.2482 -0.0899
  431MOL0     H59415   3.535  11.132  -0.117 -0.4996  0.5959  1.0367
  431MOL0     H59416   3.632  11.162   0.022 -2.4819 -2.2366  1.6322
  431MOL0     H59417   3.843  11.086  -0.118 -1.5406  1.9053  4.7269
  431MOL0     H59418   3.747  11.098  -0.265 -2.3178  1.8715  0.3537
  431MOL0     H59419   3.862  11.290  -0.220  3.2791 -3.7024  2.8855
  431MOL0     H59420   3.814  11.314  -0.058  1.5870 -1.5496  0.4446
  431MOL0     H59421   3.586  11.380  -0.114 -1.5472  1.1522 -0.6077
  431MOL0     H59422   3.695  11.480  -0.218 -1.0000  0.3003 -1.4018
  431MOL0     H59423   3.502  11.395  -0.356 -0.4707  0.1421 -0.0436
  431MOL0     H59424   3.571  11.239  -0.345 -0.5570  0.8294  0.2366
  431MOL0     H59425   3.793  11.355  -0.418  1.6403  1.3737 -2.8329
  431MOL0     H59426   3.693  11.303  -0.535 -0.8629  0.6397 -1.9809
  431MOL0     H59427   3.809  11.635  -0.339 -2.0671 -0.4634  1.1639
  431MOL0     H59428   3.710  11.932  -0.493 -2.4830 -2.2303 -1.0470
  431MOL0     H59429   3.815  11.893  -0.622 -0.6595 -0.3427 -0.3326
  431MOL0     H59430   3.945  11.992  -0.431  0.9581 -0.4871 -1.6578
  431MOL0     H59431   3.899  11.845  -0.333 -0.2301  0.6136  0.5843
  431MOL0     H59432   4.009  11.699  -0.515 -3.0754  0.2720 -0.9925
  431MOL0     H59433   4.073  11.853  -0.584  0.6607 -2.2911 -1.4263
  431MOL0     H59434   4.238  11.778  -0.448  0.8645  3.5008 -1.0388
  431MOL0     H59435   4.159  11.896  -0.350  0.0485 -0.6337  2.1465
  431MOL0     H59436   4.216  11.900  -0.165 -0.9761 -0.9274 -1.5898
  431MOL0     H59437   4.449  11.911   0.056  0.1611 -1.0615 -2.6215
  431MOL0     H59438   4.326  11.941   0.170 -0.4335  0.6265 -0.6001
  431MOL0     H59439   4.314  12.007   0.008 -0.3634 -0.1778  0.7383
  431MOL0     H59440   4.516  11.450   0.400  0.7712 -0.9057  1.6141
  431MOL0     H59441   4.539  11.391   0.642 -0.0617  0.1710  1.9266
  431MOL0     H59442   4.549  11.384   0.878  2.0095  1.7649 -1.8569
  431MOL0     H59443   4.544  11.564   0.863 -0.5801  0.6780  1.9132
  431MOL0     H59444   4.542  11.506   1.099  0.7671 -0.7334 -1.3140
  431MOL0     H59445   4.407  11.592   1.037  2.7952  0.9503 -5.7728
  431MOL0     H59446   4.338  11.320   1.010  0.9273 -1.0827  0.2173
  431MOL0     H59447   4.303  11.404   1.164  1.5186 -2.5602  2.3406
  431MOL0     H59448   4.508  11.350   1.262 -3.7304 -0.4266  2.2084
  431MOL0     H59449   4.567  11.277   1.113  0.3678 -2.3429  1.2715
  431MOL0     H59450   4.512  11.095   1.269  0.6477  2.7760  0.4895
  431MOL0     H59451   4.366  11.179   1.319  0.0963  0.2481  1.4686
  431MOL0     H59452   4.365  10.959   1.153  1.1844 -0.1163 -1.2237
  431MOL0     H59453   4.383  11.082   1.036  0.6927 -0.9124  1.1919
  431MOL0     H59454   4.177  11.181   1.179  1.5794  1.4647 -2.4941
  431MOL0     H59455   4.167  11.010   1.233  3.0915 -0.9766 -0.2220
  431MOL0     H59456   4.027  11.030   1.051 -0.4082  2.2654  0.0471
  431MOL0     H59457   4.174  10.935   0.994 -1.5953 -0.1038 -0.1231
  431MOL0     H59458   4.149  11.528   0.721 -0.6518 -0.0943 -0.7662
  431MOL0     H59459   4.115  11.576   0.490  1.0691  0.9060 -2.4559
  431MOL0     H59460   4.198  11.466   0.079  0.4148 -0.6227 -0.0062
  431MOL0     H59461   4.109  11.489  -0.167  3.2612 -2.4285  0.9025
  431MOL0     H59462   3.601  10.587   0.215  2.1105  2.9818  1.1438
  431MOL0     H59463   3.465  10.459   0.383 -2.3659 -0.8490 -1.0561
  431MOL0     H59464   3.123  10.183   0.557 -0.5781 -0.1816  0.6851
  431MOL0     H59465   2.994  10.092   0.753  0.5251 -1.4939 -1.1654
  431MOL0     H59466   2.937  10.346   1.107 -2.1525 -0.0539  0.1573
  431MOL0     H59467   2.836  10.203   1.132  0.1347 -0.6233  0.4735
  431MOL0     H59468   3.112  10.218   1.174  0.2868 -0.3525  0.9206
  431MOL0     H59469   3.125  10.178   1.013  0.4240  4.1544  0.1691
  431MOL0     H59470   3.030  10.008   1.249  1.4204 -0.1158 -0.6994
  431MOL0     H59471   2.929   9.977   1.114 -0.4923 -0.6966  3.2579
  431MOL0     H59472   3.130   9.831   1.154  0.0971  2.3899  1.2640
  431MOL0     H59473   3.228   9.960   1.076 -0.0151  0.8086 -0.7761
  431MOL0     H59474   3.074   9.780   0.735 -0.2418  1.1174  0.3142
  431MOL0     H59475   2.949  10.481   0.908 -0.8073 -2.7045  1.0943
  431MOL0     H59476   3.043  10.674   0.719  1.0407  0.1867 -0.2270
  431MOL0     H59477   3.129  10.638   0.869 -0.3522 -1.9458  0.6397
  431MOL0     H59478   3.224  10.631   0.727  0.5898 -0.8172 -1.1074
  432MOL0     O59479   9.367   0.202   2.595  0.6082  0.2249 -0.4917
  432MOL0     C59480   9.271   0.260   2.646 -0.3012  0.6257  1.2695
  432MOL0     O59481   9.253   0.389   2.652  0.2448 -0.0700  0.5172
  432MOL0     C59482   9.337   0.470   2.573  0.2039  0.1878  0.2040
  432MOL0     C59483   9.266   0.544   2.478  0.0898  0.1245 -0.5101
  432MOL0     C59484   9.335   0.639   2.395  0.2433 -0.4552 -0.5148
  432MOL0     C59485   9.466   0.647   2.405 -0.4766 -0.8623  0.4019
  432MOL0     O59486   9.525   0.737   2.321  1.0637 -0.0193  0.1113
  432MOL0     C59487   9.665   0.782   2.332 -0.1615  0.2150 -0.0969
  432MOL0     C59488   9.688   0.872   2.209 -0.4646  0.8665 -0.6194
  432MOL0     C59489   9.679   0.789   2.076 -0.4051  0.6210  0.1431
  432MOL0     C59490   9.679   0.885   1.956  0.2303  0.4657  0.0720
  432MOL0     C59491   9.537   0.938   1.918 -0.4575 -0.5923  0.0676
  432MOL0     C59492   9.549   1.017   1.791 -0.0665  0.4330 -0.5554
  432MOL0     C59493   9.422   1.052   1.715 -0.7419  0.0332 -0.2154
  432MOL0     C59494   9.308   1.101   1.811 -0.8207 -0.6873 -1.2133
  432MOL0     N59495   9.199   1.170   1.745  0.3759  0.3197  0.3851
  432MOL0     C59496   9.121   1.107   1.646 -0.0623 -0.3816 -0.6474
  432MOL0     C59497   9.016   1.195   1.629 -0.2777 -0.3881  0.6888
  432MOL0     C59498   8.891   1.166   1.554 -0.1592 -0.2875  0.0486
  432MOL0     C59499   8.925   1.146   1.409 -0.3391 -0.8784  0.5536
  432MOL0     C59500   9.000   1.260   1.341 -0.0109 -0.2184  0.2708
  432MOL0     C59501   9.045   1.229   1.195 -0.7658  0.1967 -0.1822
  432MOL0     O59502   9.142   1.122   1.201 -0.0980  0.2531  0.4771
  432MOL0     C59503   9.223   1.092   1.092  0.7368  0.4249 -0.0580
  432MOL0     C59504   9.245   1.177   0.990 -1.6770 -0.8621  0.3593
  432MOL0     C59505   9.328   1.147   0.878  0.4770 -0.0446  0.0552
  432MOL0     C59506   9.356   1.253   0.773 -0.3101 -0.2988 -0.6793
  432MOL0     C59507   9.394   1.023   0.872  0.6189  0.5384 -0.4363
  432MOL0     C59508   9.474   0.968   0.764 -0.3761  0.1114  1.5871
  432MOL0     O59509   9.577   0.891   0.796  0.2241  0.1166  0.1993
  432MOL0     C59510   9.666   0.859   0.695 -0.2283 -0.2559 -0.6985
  432MOL0     C59511   9.772   0.947   0.663 -0.1529  0.2952 -0.0652
  432MOL0     C59512   9.858   0.913   0.553  0.3433 -0.3725 -0.0944
  432MOL0     C59513   9.842   0.786   0.482  0.1294 -0.9901 -1.4637
  432MOL0     O59514   9.930   0.749   0.385 -0.4170 -0.0841  0.3858
  432MOL0     C59515   9.867   0.740   0.258 -0.1310  0.6087 -0.2173
  432MOL0     C59516   9.959   0.720   0.135  0.7903  0.5151 -0.1541
  432MOL0     C59517  10.042   0.598   0.151 -0.6925  0.1949 -0.9175
  432MOL0     C59518  10.079   0.541   0.015 -0.4068  0.0557 -0.0003
  432MOL0     C59519  10.157   0.408   0.028  0.5999  0.5254 -0.8102
  432MOL0     C59520  10.179   0.327  -0.096 -0.1322  0.6538  0.3129
  432MOL0     C59521  10.315   0.249  -0.094 -0.9045  0.0630  0.2191
  432MOL0     C59522  10.317   0.134   0.004  0.5058  0.6324 -0.0287
  432MOL0    Cl59523  10.481   0.073  -0.001 -0.4801 -0.0428  0.1182
  432MOL0     C59524   9.739   0.704   0.520  0.0866  0.2205 -0.1654
  432MOL0     C59525   9.652   0.739   0.627 -0.3222 -0.9015  0.0549
  432MOL0     O59526   9.433   0.999   0.655  0.4213  0.5245  0.4102
  432MOL0     C59527   9.374   0.935   0.986 -0.6974 -1.2132  0.4451
  432MOL0     C59528   9.288   0.974   1.090 -0.1838  0.3242 -0.8036
  432MOL0     N59529   9.050   1.312   1.701 -0.0549  0.2602  0.1947
  432MOL0     N59530   9.158   1.297   1.769  0.5256  0.4211 -0.4903
  432MOL0     C59531   9.535   0.569   2.502 -0.1442 -0.4250  0.6372
  432MOL0     C59532   9.470   0.491   2.593  0.1056  0.3811  0.0519
  432MOL0     C59533   9.153   0.178   2.692 -0.3149 -0.3977 -0.8860
  432MOL0     C59534   9.022   0.226   2.658 -0.3043 -0.5695 -0.5405
  432MOL0     C59535   8.908   0.152   2.687  0.2338  0.1050 -0.8179
  432MOL0     C59536   8.927   0.017   2.729  0.0451 -0.6547 -0.2655
  432MOL0     O59537   8.812  -0.055   2.744  0.5043  0.0873 -0.6011
  432MOL0     C59538   8.813  -0.179   2.821  0.4405  1.1373  1.1692
  432MOL0     C59539   8.677  -0.211   2.876  0.2788  0.4741 -0.2135
  432MOL0     C59540   8.686  -0.327   2.992  0.0231  0.8265 -0.0940
  432MOL0     C59541   8.542  -0.368   3.009 -0.0080 -0.0787 -0.2370
  432MOL0     C59542   8.526  -0.481   3.108 -0.1955 -0.7721 -0.1569
  432MOL0     C59543   8.515  -0.579   3.179  0.3616 -0.6029 -0.1074
  432MOL0     C59544   9.059  -0.032   2.763 -0.9179 -0.7731  1.0510
  432MOL0     C59545   9.171   0.044   2.749 -0.2982 -0.5253  0.2601
  432MOL0     C59546   9.297  -0.012   2.786 -0.1531  0.6136 -0.4188
  432MOL0     H59547   9.161   0.532   2.454  0.1713 -4.6701  0.7042
  432MOL0     H59548   9.280   0.687   2.314 -0.2540 -0.5340 -0.2301
  432MOL0     H59549   9.728   0.692   2.332 -0.3458 -0.1037  4.0923
  432MOL0     H59550   9.681   0.830   2.429 -1.4805  0.5297 -0.0154
  432MOL0     H59551   9.614   0.951   2.203 -2.7721 -0.9662  1.4134
  432MOL0     H59552   9.789   0.913   2.217  0.8295 -1.9643 -1.0200
  432MOL0     H59553   9.763   0.721   2.062 -1.3308 -0.2899 -1.1571
  432MOL0     H59554   9.589   0.727   2.069  0.3480 -0.2689 -3.0731
  432MOL0     H59555   9.743   0.971   1.978  0.4153  0.3320  0.0596
  432MOL0     H59556   9.724   0.827   1.875 -0.7629 -0.7861  0.3872
  432MOL0     H59557   9.496   1.005   1.994 -0.5197  1.9316 -2.0391
  432MOL0     H59558   9.472   0.852   1.901 -2.1721  0.2784  1.8122
  432MOL0     H59559   9.591   1.113   1.821 -0.7222  0.8677 -0.9877
  432MOL0     H59560   9.616   0.961   1.725 -1.0556  0.4704 -1.6301
  432MOL0     H59561   9.377   0.962   1.672 -0.3089  0.4540 -1.5838
  432MOL0     H59562   9.442   1.125   1.636  0.2736  0.6163  0.5473
  432MOL0     H59563   9.264   1.027   1.878 -1.6352  0.1315 -0.8082
  432MOL0     H59564   9.357   1.174   1.876 -2.8060 -0.1670 -0.2404
  432MOL0     H59565   9.143   1.012   1.597 -0.0645 -1.0991  0.6866
  432MOL0     H59566   8.822   1.249   1.568  1.8964  1.8104 -1.6472
  432MOL0     H59567   8.844   1.072   1.585 -1.1085 -0.3262 -1.3967
  432MOL0     H59568   8.996   1.064   1.393 -1.9231 -1.8115 -2.4249
  432MOL0     H59569   8.832   1.124   1.357  0.4453 -2.6985 -0.1586
  432MOL0     H59570   8.949   1.357   1.340  0.1112 -0.1538 -1.2615
  432MOL0     H59571   9.089   1.284   1.400  0.3049 -0.8811  0.0654
  432MOL0     H59572   8.961   1.199   1.133 -0.6811 -0.2006 -0.1064
  432MOL0     H59573   9.103   1.319   1.170 -0.3722  0.1488  0.5269
  432MOL0     H59574   9.203   1.277   0.985  1.6695  0.6137 -1.3913
  432MOL0     H59575   9.266   1.283   0.719  0.3004 -0.6626 -1.9324
  432MOL0     H59576   9.429   1.209   0.704  1.0035 -6.3998  3.6907
  432MOL0     H59577   9.408   1.344   0.803  0.0070 -0.5115 -0.5629
  432MOL0     H59578   9.801   1.042   0.707 -0.1727  0.1043  0.3644
  432MOL0     H59579   9.935   0.985   0.528 -0.0657  0.7290  1.6127
  432MOL0     H59580   9.798   0.656   0.249 -0.0797  0.7588 -3.4901
  432MOL0     H59581   9.815   0.831   0.227 -2.1052 -1.7655 -5.0095
  432MOL0     H59582   9.888   0.705   0.053  0.1339  2.4240  0.0334
  432MOL0     H59583  10.032   0.799   0.118  0.7174  0.8313  0.9124
  432MOL0     H59584   9.994   0.523   0.214  2.2723 -1.4193 -0.3887
  432MOL0     H59585  10.134   0.626   0.202 -1.8955  0.8998  0.9642
  432MOL0     H59586  10.141   0.611  -0.042 -1.5269  0.9044 -0.2049
  432MOL0     H59587   9.989   0.516  -0.041 -0.0219 -1.9225  0.1898
  432MOL0     H59588  10.253   0.429   0.076  0.7783 -1.6403 -0.0716
  432MOL0     H59589  10.110   0.332   0.092 -0.0072 -0.9088 -2.8617
  432MOL0     H59590  10.194   0.399  -0.177  2.7995 -1.2004 -0.9445
  432MOL0     H59591  10.088   0.269  -0.112  1.6272 -1.7084 -2.0198
  432MOL0     H59592  10.390   0.323  -0.065 -0.8846 -0.3118  1.1666
  432MOL0     H59593  10.330   0.220  -0.198 -0.7116  0.1708  0.2166
  432MOL0     H59594  10.249   0.052  -0.022  1.7126 -1.0983  1.9064
  432MOL0     H59595  10.297   0.178   0.102 -1.5776  1.8188 -0.9268
  432MOL0     H59596   9.734   0.608   0.471 -0.7204 -0.6905  1.5963
  432MOL0     H59597   9.575   0.665   0.648  1.2405 -3.0777 -1.4952
  432MOL0     H59598   9.417   0.836   0.994  2.6844  0.0104 -0.7687
  432MOL0     H59599   9.259   0.906   1.170 -0.3161 -0.5242 -1.5588
  432MOL0     H59600   9.636   0.597   2.527  0.0444 -1.4437  1.0648
  432MOL0     H59601   9.532   0.449   2.673 -0.1454 -0.6284 -0.2652
  432MOL0     H59602   9.020   0.327   2.618  1.0884  0.3890  1.6169
  432MOL0     H59603   8.807   0.187   2.666  0.4828  1.4878  0.1391
  432MOL0     H59604   8.862  -0.255   2.760 -0.4575  0.9258  0.6809
  432MOL0     H59605   8.883  -0.173   2.904 -0.4017  0.3440  1.9746
  432MOL0     H59606   8.612  -0.244   2.794  1.2996 -0.3349 -0.7198
  432MOL0     H59607   8.637  -0.118   2.917 -0.1720  0.2010 -0.0134
  432MOL0     H59608   8.737  -0.412   2.947 -1.9199  0.1910 -1.2213
  432MOL0     H59609   8.732  -0.289   3.083 -0.7402 -1.4411  1.3124
  432MOL0     H59610   8.498  -0.414   2.921  0.7198 -0.5499 -0.3677
  432MOL0     H59611   8.486  -0.281   3.045 -1.4352 -0.1242 -2.2287
  432MOL0     H59612   8.496  -0.672   3.228 -1.1868 -0.3319 -0.1232
  432MOL0     H59613   9.068  -0.136   2.793  1.5419 -0.6674  0.8941
  432MOL0     H59614   9.357  -0.015   2.695 -1.1269  3.4295 -1.2680
  432MOL0     H59615   9.338   0.062   2.855  0.9452 -1.3367  1.1268
  432MOL0     H59616   9.287  -0.113   2.826  0.9006  0.1125 -1.3782
  433MOL0     O59617   2.616   3.356   0.665  0.3219 -1.0973 -0.1515
  433MOL0     C59618   2.534   3.416   0.590 -1.0174  0.2312  0.1963
  433MOL0     O59619   2.554   3.543   0.547 -0.4440  0.3035  0.7898
  433MOL0     C59620   2.666   3.621   0.558 -0.4337  0.2289 -0.3018
  433MOL0     C59621   2.660   3.750   0.500  0.6299  0.0252  0.0717
  433MOL0     C59622   2.764   3.835   0.503  0.4683 -0.4233 -0.7778
  433MOL0     C59623   2.889   3.791   0.567  0.2142  0.2823  0.6136
  433MOL0     O59624   2.984   3.879   0.610 -0.3801 -0.1773 -0.1490
  433MOL0     C59625   2.993   4.015   0.552 -0.3063  0.3724  0.1359
  433MOL0     C59626   3.129   4.075   0.593  1.3592 -0.7182  0.4820
  433MOL0     C59627   3.261   3.998   0.581  0.4642  0.3501  0.8039
  433MOL0     C59628   3.319   4.011   0.431 -0.0899  0.4148 -0.6150
  433MOL0     C59629   3.462   3.957   0.419  0.2424 -0.2589  0.8080
  433MOL0     C59630   3.454   3.801   0.435 -0.0875  1.0570 -0.0657
  433MOL0     C59631   3.587   3.732   0.469 -0.7901  0.2841  0.2464
  433MOL0     C59632   3.563   3.591   0.524  1.1518 -1.0682  0.2345
  433MOL0     N59633   3.675   3.499   0.506  0.1108 -1.1411  1.0561
  433MOL0     C59634   3.799   3.523   0.564  0.2598  0.4444  0.0305
  433MOL0     C59635   3.874   3.412   0.522 -0.7500  0.0915 -0.6295
  433MOL0     C59636   4.009   3.381   0.579 -0.1237  0.4473  0.0136
  433MOL0     C59637   4.114   3.406   0.469 -0.3918  0.9550 -0.1961
  433MOL0     C59638   4.195   3.274   0.429 -0.0500  0.2291  0.3636
  433MOL0     C59639   4.280   3.295   0.305 -0.8407  0.2002  0.4316
  433MOL0     O59640   4.362   3.176   0.266  0.2456 -0.1328 -0.0344
  433MOL0     C59641   4.487   3.173   0.322  0.0996 -0.0312 -0.4302
  433MOL0     C59642   4.526   3.064   0.397 -0.0279  0.9874  0.0890
  433MOL0     C59643   4.646   3.058   0.474 -0.3301  0.8455 -0.3586
  433MOL0     C59644   4.658   2.935   0.569 -0.5149  0.1310  0.1564
  433MOL0     C59645   4.744   3.171   0.465  0.1179  0.5744  0.9194
  433MOL0     C59646   4.874   3.167   0.529 -1.6167 -1.2458 -1.0238
  433MOL0     O59647   4.916   3.286   0.583  0.3303 -0.8647 -0.1099
  433MOL0     C59648   5.032   3.298   0.652 -0.3690  0.0914  0.1917
  433MOL0     C59649   5.023   3.356   0.778 -0.2309 -0.5397 -0.2562
  433MOL0     C59650   5.142   3.386   0.849 -0.9858 -0.1848 -0.2627
  433MOL0     C59651   5.265   3.348   0.807  0.1990  1.5180  0.1186
  433MOL0     O59652   5.367   3.364   0.887 -0.1828 -0.3243  0.4758
  433MOL0     C59653   5.491   3.284   0.869 -0.1768 -0.0478 -1.1503
  433MOL0     C59654   5.577   3.294   1.003 -0.2319  0.2561  0.3509
  433MOL0     C59655   5.662   3.422   1.005 -0.4920 -0.0899  0.3370
  433MOL0     C59656   5.764   3.422   1.121 -0.5005 -0.3410  0.6181
  433MOL0     C59657   5.707   3.408   1.268  0.4203 -0.2358 -0.1807
  433MOL0     C59658   5.821   3.356   1.355 -0.4235 -0.2539  0.2610
  433MOL0     C59659   5.774   3.332   1.497  0.2280 -0.5149  0.0035
  433MOL0     C59660   5.888   3.274   1.583  0.5043  0.2067 -0.4883
  433MOL0    Cl59661   5.963   3.124   1.516 -0.3805 -0.1714 -0.1681
  433MOL0     C59662   5.270   3.279   0.679  0.8194  0.4885  0.2145
  433MOL0     C59663   5.160   3.260   0.598  0.4397 -1.1392 -0.5127
  433MOL0     O59664   4.950   3.069   0.529  0.6758  0.2144  0.8901
  433MOL0     C59665   4.699   3.283   0.387  0.6074 -0.5984 -0.1716
  433MOL0     C59666   4.566   3.280   0.329 -1.1640 -0.6878  0.7340
  433MOL0     N59667   3.793   3.331   0.442 -0.2702  0.2302  0.3995
  433MOL0     N59668   3.676   3.393   0.424 -0.5930 -0.2897  0.1283
  433MOL0     C59669   2.904   3.663   0.611 -0.2743  0.2829 -1.1185
  433MOL0     C59670   2.791   3.579   0.611  0.8011  0.8426  0.3671
  433MOL0     C59671   2.408   3.344   0.545  0.4179 -0.4245  0.0292
  433MOL0     C59672   2.312   3.404   0.464 -0.2966 -0.4001  0.5149
  433MOL0     C59673   2.178   3.361   0.440 -0.2114 -0.0727  0.1945
  433MOL0     C59674   2.143   3.240   0.486  0.3564 -0.0298 -0.4476
  433MOL0     O59675   2.025   3.169   0.461 -0.5484 -0.3889 -0.3051
  433MOL0     C59676   1.931   3.218   0.366 -0.6009  0.4968 -0.2881
  433MOL0     C59677   1.797   3.162   0.363 -0.6660  0.1170  0.1520
  433MOL0     C59678   1.726   3.171   0.496  0.1530  0.1182 -0.3549
  433MOL0     C59679   1.573   3.134   0.497  0.2122 -0.2162  0.2374
  433MOL0     C59680   1.561   2.988   0.455  0.3469 -0.0597 -0.2638
  433MOL0     C59681   1.530   2.880   0.421 -0.1832  0.1595  0.3797
  433MOL0     C59682   2.222   3.184   0.584 -0.9602  0.3580 -0.1943
  433MOL0     C59683   2.354   3.224   0.616 -0.0284 -0.0079 -0.2372
  433MOL0     C59684   2.420   3.148   0.738  0.0944 -0.5967  0.1343
  433MOL0     H59685   2.565   3.779   0.456 -0.3116 -1.5780  0.9202
  433MOL0     H59686   2.749   3.935   0.463  0.5907  0.0762  0.3939
  433MOL0     H59687   2.920   4.074   0.606 -2.2079 -1.7658  0.0392
  433MOL0     H59688   2.972   4.011   0.445  0.2168  0.8064  0.0074
  433MOL0     H59689   3.140   4.171   0.541 -0.3020 -1.3775 -1.1991
  433MOL0     H59690   3.122   4.094   0.700  0.3887  0.5671  0.2098
  433MOL0     H59691   3.336   4.025   0.656 -0.5420 -0.0902  2.0031
  433MOL0     H59692   3.237   3.892   0.589  4.0196 -0.8028 -1.3304
  433MOL0     H59693   3.246   3.969   0.361 -1.4410  0.2968  0.8023
  433MOL0     H59694   3.318   4.115   0.397 -0.2289  0.5436 -0.2208
  433MOL0     H59695   3.523   4.005   0.496 -0.9942 -0.0595  1.6996
  433MOL0     H59696   3.509   3.985   0.325  1.4157  0.4397  1.5691
  433MOL0     H59697   3.384   3.780   0.515  0.7613  0.5398  0.5597
  433MOL0     H59698   3.416   3.760   0.340  1.6587  2.2758 -1.3657
  433MOL0     H59699   3.643   3.794   0.540 -1.3051 -1.8672  2.7024
  433MOL0     H59700   3.648   3.723   0.378  3.6669 -1.5284  3.0461
  433MOL0     H59701   3.532   3.595   0.629  0.1326  0.5284 -0.0904
  433MOL0     H59702   3.487   3.541   0.463  2.7193 -2.0229 -0.9969
  433MOL0     H59703   3.835   3.608   0.621  1.5397  3.2664 -4.4855
  433MOL0     H59704   4.005   3.280   0.621  2.5907 -0.9537 -2.6328
  433MOL0     H59705   4.020   3.449   0.664  0.7490 -0.7168  0.8599
  433MOL0     H59706   4.074   3.450   0.377 -0.0401  1.7405  0.0169
  433MOL0     H59707   4.178   3.486   0.507 -0.5110  0.1405  1.8415
  433MOL0     H59708   4.263   3.234   0.505 -0.9217 -2.6583 -0.2395
  433MOL0     H59709   4.115   3.200   0.417 -0.9888  1.2401  0.2179
  433MOL0     H59710   4.212   3.311   0.221  0.4596 -1.9627 -1.1409
  433MOL0     H59711   4.336   3.388   0.322  1.7435 -1.2530  0.3330
  433MOL0     H59712   4.459   2.978   0.403 -0.5941  1.5203  2.3134
  433MOL0     H59713   4.755   2.935   0.619 -1.4107  2.2810  2.0549
  433MOL0     H59714   4.637   2.850   0.503  1.2977  1.3755 -2.1950
  433MOL0     H59715   4.580   2.956   0.642 -2.6686 -0.5095 -1.8365
  433MOL0     H59716   4.923   3.380   0.813 -0.0311  2.5836 -1.5192
  433MOL0     H59717   5.137   3.435   0.946  0.8950 -0.2136 -0.1151
  433MOL0     H59718   5.462   3.179   0.857 -2.4308  0.3675  0.2021
  433MOL0     H59719   5.540   3.326   0.781 -0.3844  2.0252 -0.3195
  433MOL0     H59720   5.499   3.300   1.080 -0.9405  0.3595 -0.3650
  433MOL0     H59721   5.643   3.207   1.009  0.1957  0.5437 -0.1688
  433MOL0     H59722   5.601   3.512   1.001 -0.7953 -0.2828 -3.5511
  433MOL0     H59723   5.726   3.438   0.917 -0.1637  0.1563  0.6180
  433MOL0     H59724   5.824   3.513   1.123  1.1440 -1.1411 -3.1667
  433MOL0     H59725   5.834   3.340   1.098 -1.0707 -0.3686 -1.1594
  433MOL0     H59726   5.675   3.504   1.311  2.4873  0.5682 -0.2984
  433MOL0     H59727   5.628   3.334   1.256  0.6806 -1.1160  2.7823
  433MOL0     H59728   5.889   3.441   1.356  2.0807 -2.0918 -1.4401
  433MOL0     H59729   5.866   3.265   1.313 -1.7333 -0.3335 -1.0848
  433MOL0     H59730   5.690   3.261   1.500 -1.9010  1.8842  1.5917
  433MOL0     H59731   5.741   3.423   1.549 -2.4913 -0.6845 -1.2465
  433MOL0     H59732   5.837   3.249   1.676 -3.1083  1.8523 -1.8261
  433MOL0     H59733   5.958   3.352   1.613 -1.6405  1.7800  0.7139
  433MOL0     H59734   5.363   3.242   0.637  0.4249  1.7036 -1.8642
  433MOL0     H59735   5.180   3.223   0.498  0.8996 -1.5055 -0.2917
  433MOL0     H59736   4.763   3.370   0.374  0.0599 -0.0608  0.6327
  433MOL0     H59737   4.545   3.375   0.282  1.6546 -0.7523 -0.8576
  433MOL0     H59738   2.994   3.636   0.665 -0.9201  0.7616  0.2503
  433MOL0     H59739   2.809   3.478   0.646  1.6635  1.0455  0.5291
  433MOL0     H59740   2.342   3.498   0.420  0.5040 -0.3695  1.1193
  433MOL0     H59741   2.120   3.421   0.371  0.8661 -1.8685 -2.4509
  433MOL0     H59742   1.923   3.324   0.391  1.0783  0.5408  0.1322
  433MOL0     H59743   1.983   3.207   0.271  2.1316  2.1754  0.8996
  433MOL0     H59744   1.798   3.059   0.324  0.4312 -0.2932  1.2240
  433MOL0     H59745   1.744   3.238   0.304  1.2207  1.7038  0.3961
  433MOL0     H59746   1.781   3.105   0.563  0.0539 -0.6251 -0.9899
  433MOL0     H59747   1.740   3.274   0.529  2.9463  0.7131 -2.9664
  433MOL0     H59748   1.511   3.198   0.433 -0.0531 -0.3432  0.3673
  433MOL0     H59749   1.535   3.146   0.599  1.6820 -0.6375  0.8611
  433MOL0     H59750   1.499   2.784   0.384  3.0383  0.0918 -2.6570
  433MOL0     H59751   2.182   3.092   0.625 -1.5906  0.3315 -0.8536
  433MOL0     H59752   2.342   3.103   0.800 -0.0544 -0.2867  0.1768
  433MOL0     H59753   2.491   3.073   0.704  2.0330  0.6036  1.2919
  433MOL0     H59754   2.473   3.210   0.811  0.9482 -0.6777 -0.4060
  434MOL0     O59755   9.651   6.687   0.059  0.0512  0.0376  0.0754
  434MOL0     C59756   9.594   6.579   0.070 -0.4952 -0.7087  0.1010
  434MOL0     O59757   9.463   6.568   0.076 -0.1319  0.0653 -0.1034
  434MOL0     C59758   9.380   6.666   0.027 -1.1466  0.2907 -0.3141
  434MOL0     C59759   9.406   6.716  -0.102  0.8367  0.6744  0.6865
  434MOL0     C59760   9.318   6.807  -0.163  0.1331  0.3503  0.6411
  434MOL0     C59761   9.209   6.850  -0.082  0.1622  0.4898 -0.7538
  434MOL0     O59762   9.126   6.934  -0.146  0.6153 -0.3481  0.4505
  434MOL0     C59763   9.002   6.869  -0.171 -0.2011 -0.2554 -0.0449
  434MOL0     C59764   8.947   6.924  -0.307  0.3591 -0.3626 -0.3630
  434MOL0     C59765   8.898   7.064  -0.309  0.2092 -0.1152  0.6322
  434MOL0     C59766   8.874   7.126  -0.454 -1.1997  0.4925  0.0782
  434MOL0     C59767   8.831   7.274  -0.470 -0.1147  1.1276  0.5957
  434MOL0     C59768   8.910   7.365  -0.374  0.1666  1.0238 -0.1964
  434MOL0     C59769   8.886   7.504  -0.414 -0.0107 -0.6006 -1.1994
  434MOL0     C59770   8.934   7.595  -0.290  0.7409  0.3361  1.1590
  434MOL0     N59771   8.889   7.731  -0.324  0.0566  0.7036 -0.0615
  434MOL0     C59772   8.796   7.807  -0.262 -0.4663 -0.0218 -0.6783
  434MOL0     C59773   8.804   7.926  -0.311  0.9689  1.2865 -0.7305
  434MOL0     C59774   8.719   8.035  -0.270 -0.1872 -0.2895 -0.2883
  434MOL0     C59775   8.600   8.058  -0.353  0.1927  1.3158  0.2150
  434MOL0     C59776   8.527   8.185  -0.305  0.7152  1.3870 -0.4009
  434MOL0     C59777   8.387   8.200  -0.364  0.6844  0.2193  1.3137
  434MOL0     O59778   8.292   8.114  -0.312  0.1003  1.5272  0.3187
  434MOL0     C59779   8.255   8.128  -0.179  0.1830  0.4527 -0.5622
  434MOL0     C59780   8.305   8.039  -0.077 -0.4558 -0.5933  0.5521
  434MOL0     C59781   8.252   8.022   0.049  0.3400  1.1096  0.2490
  434MOL0     C59782   8.306   7.917   0.134 -0.2147 -0.4107 -0.5640
  434MOL0     C59783   8.127   8.088   0.078 -0.4045 -0.2120 -0.0583
  434MOL0     C59784   8.054   8.059   0.200 -0.2032  0.4800 -0.1502
  434MOL0     O59785   7.957   8.149   0.238  0.8012 -0.4263  0.0166
  434MOL0     C59786   7.893   8.127   0.361  0.2710  0.5838  0.4670
  434MOL0     C59787   7.957   8.112   0.488  0.6841 -0.6044 -0.3714
  434MOL0     C59788   7.874   8.095   0.596 -0.2746 -0.0885 -1.0989
  434MOL0     C59789   7.737   8.087   0.592  0.2495 -0.0593 -0.1458
  434MOL0     O59790   7.658   8.075   0.706 -0.3116  0.3938 -0.2626
  434MOL0     C59791   7.674   7.941   0.763 -0.6065  0.4664  0.6089
  434MOL0     C59792   7.552   7.902   0.851  0.3700  0.1408 -0.3295
  434MOL0     C59793   7.429   7.906   0.764 -0.7927  0.8495 -0.6493
  434MOL0     C59794   7.345   8.025   0.794  0.5506 -0.5157  0.6015
  434MOL0     C59795   7.218   8.034   0.724 -0.4727  0.2026  0.1777
  434MOL0     C59796   7.134   8.154   0.759 -0.3922  1.1065  0.6678
  434MOL0     C59797   7.043   8.183   0.638  1.2595  0.2338  1.1196
  434MOL0     C59798   6.945   8.308   0.645 -0.2287  0.2230  0.3496
  434MOL0    Cl59799   6.804   8.262   0.753  0.0431  0.3783 -0.0285
  434MOL0     C59800   7.676   8.087   0.464 -0.1455 -0.6516  0.2681
  434MOL0     C59801   7.754   8.117   0.351  0.0898  0.3136 -0.4154
  434MOL0     O59802   8.072   7.950   0.255  0.8874  0.2927  0.2876
  434MOL0     C59803   8.074   8.186  -0.016  0.2001  0.9792 -0.4060
  434MOL0     C59804   8.139   8.208  -0.136  0.1399  0.0409 -0.0175
  434MOL0     N59805   8.900   7.935  -0.405  0.0618  0.3544  0.4300
  434MOL0     N59806   8.954   7.818  -0.411 -0.5630 -0.4141  0.3454
  434MOL0     C59807   9.184   6.814   0.044 -0.7180  0.1203 -0.5528
  434MOL0     C59808   9.279   6.720   0.100 -0.0857 -0.2432  0.5196
  434MOL0     C59809   9.683   6.466   0.104  0.5966 -0.1916 -0.3164
  434MOL0     C59810   9.626   6.362   0.168 -0.5016 -0.1760  0.2280
  434MOL0     C59811   9.703   6.242   0.199  0.0920 -0.1434 -0.5028
  434MOL0     C59812   9.839   6.241   0.176  0.0537  0.3947  0.0334
  434MOL0     O59813   9.903   6.131   0.217  0.1056  0.0680 -0.1097
  434MOL0     C59814   9.933   6.128   0.349 -0.0945 -0.6646 -1.0494
  434MOL0     C59815  10.082   6.122   0.388 -0.4866 -0.0525 -1.0666
  434MOL0     C59816  10.097   6.089   0.540 -0.2605  0.0714  0.2732
  434MOL0     C59817  10.069   5.944   0.585  0.1949  0.4921 -1.1858
  434MOL0     C59818  10.022   5.932   0.725  0.0719  0.4538  0.4298
  434MOL0     C59819  10.000   5.924   0.841 -0.6004 -0.1942  0.1741
  434MOL0     C59820   9.901   6.342   0.096 -0.0090  0.0484 -0.6867
  434MOL0     C59821   9.822   6.451   0.058  0.4420 -0.7625  0.7819
  434MOL0     C59822   9.889   6.557  -0.023 -0.4003 -0.4693  0.1671
  434MOL0     H59823   9.484   6.690  -0.174 -2.4120 -1.7658 -2.2859
  434MOL0     H59824   9.343   6.841  -0.263 -0.5136 -0.1543  0.3071
  434MOL0     H59825   8.931   6.895  -0.092 -0.0567  0.4695 -0.1466
  434MOL0     H59826   9.017   6.761  -0.166  0.5243 -0.1507  0.2468
  434MOL0     H59827   9.029   6.914  -0.379  0.2219  0.4167 -0.6355
  434MOL0     H59828   8.860   6.869  -0.343 -0.8503  1.9772 -1.2003
  434MOL0     H59829   8.810   7.068  -0.244  0.3823  0.2359  0.8428
  434MOL0     H59830   8.973   7.128  -0.263 -0.4631  1.8907 -0.9100
  434MOL0     H59831   8.969   7.119  -0.507 -1.7063  1.5907 -1.0234
  434MOL0     H59832   8.800   7.060  -0.500  1.3799 -2.3046 -0.2980
  434MOL0     H59833   8.722   7.275  -0.458 -0.1693 -0.2066  0.3012
  434MOL0     H59834   8.850   7.288  -0.577  1.6813 -1.9187  0.4194
  434MOL0     H59835   8.876   7.339  -0.274 -0.6510 -2.6206 -1.2778
  434MOL0     H59836   9.016   7.341  -0.372  0.3190  1.7453  1.4212
  434MOL0     H59837   8.780   7.522  -0.434  0.6003  3.5588 -1.7479
  434MOL0     H59838   8.939   7.531  -0.507  0.0678  0.6122 -0.8190
  434MOL0     H59839   8.879   7.565  -0.201  1.0330 -1.7934  0.6804
  434MOL0     H59840   9.043   7.592  -0.281  0.6650 -0.5081  1.8492
  434MOL0     H59841   8.730   7.791  -0.177  0.8273  0.3349  0.4341
  434MOL0     H59842   8.784   8.123  -0.274 -0.5617  0.0655  1.0468
  434MOL0     H59843   8.689   8.025  -0.165 -0.1502  0.0797 -0.2434
  434MOL0     H59844   8.607   8.058  -0.462  0.5708  0.6993  0.2378
  434MOL0     H59845   8.539   7.970  -0.331  1.8213 -0.2042 -1.0992
  434MOL0     H59846   8.525   8.182  -0.196 -0.4940 -0.0890 -0.4278
  434MOL0     H59847   8.595   8.268  -0.324  3.5149 -0.7231 -0.2149
  434MOL0     H59848   8.354   8.303  -0.343  1.6070  0.6124  0.8850
  434MOL0     H59849   8.401   8.194  -0.472  0.8036 -1.6022  1.3979
  434MOL0     H59850   8.389   7.974  -0.100 -1.6667 -2.5919  1.5139
  434MOL0     H59851   8.339   7.946   0.234  2.9724 -1.3662 -1.2272
  434MOL0     H59852   8.392   7.870   0.086  1.5228 -0.6888  2.5479
  434MOL0     H59853   8.234   7.835   0.134  0.3888 -0.9991 -2.5643
  434MOL0     H59854   8.064   8.094   0.491  0.8724 -0.1784 -2.9029
  434MOL0     H59855   7.927   8.088   0.690  1.6943  1.2996 -2.0468
  434MOL0     H59856   7.690   7.868   0.683 -2.5200 -0.1957  0.7824
  434MOL0     H59857   7.764   7.940   0.826 -2.3603  2.4552  3.3703
  434MOL0     H59858   7.556   7.797   0.881  0.9390 -0.9867 -3.8293
  434MOL0     H59859   7.543   7.966   0.939 -0.8415 -0.7020  0.1883
  434MOL0     H59860   7.370   7.814   0.775  2.3349 -1.1558  1.0951
  434MOL0     H59861   7.462   7.891   0.661 -1.5680  1.6319 -1.0234
  434MOL0     H59862   7.406   8.115   0.791 -1.2134  0.7939  1.5859
  434MOL0     H59863   7.315   8.026   0.899 -0.5065 -0.2138  0.3115
  434MOL0     H59864   7.247   8.031   0.619  1.0485  2.0379  0.4954
  434MOL0     H59865   7.171   7.937   0.743  3.4417 -1.9109  0.1169
  434MOL0     H59866   7.198   8.239   0.783  2.4149 -0.5328 -0.4770
  434MOL0     H59867   7.065   8.132   0.841 -0.7969  1.2496  0.3740
  434MOL0     H59868   6.983   8.093   0.625  1.1885  0.1170  2.1663
  434MOL0     H59869   7.115   8.196   0.557  0.8580  2.5960  1.0643
  434MOL0     H59870   6.912   8.339   0.545  0.9571  0.3597 -0.0107
  434MOL0     H59871   6.999   8.393   0.685 -4.6452  3.3150  0.4874
  434MOL0     H59872   7.571   8.093   0.440 -0.1401  1.0933  0.5074
  434MOL0     H59873   7.705   8.131   0.256  0.2755  4.3942 -0.0933
  434MOL0     H59874   7.982   8.237   0.011  0.2992  0.4675  0.9708
  434MOL0     H59875   8.099   8.265  -0.220  0.2275 -2.3863 -1.8324
  434MOL0     H59876   9.096   6.856   0.090 -2.0504  0.1685 -2.9762
  434MOL0     H59877   9.249   6.692   0.200  0.2682  1.1671  1.0337
  434MOL0     H59878   9.522   6.379   0.197 -0.2460  2.2367 -0.1320
  434MOL0     H59879   9.659   6.153   0.243 -0.5602  0.1786 -0.4870
  434MOL0     H59880   9.900   6.218   0.401 -0.2891 -0.1929 -1.9688
  434MOL0     H59881   9.882   6.042   0.394  0.7617 -1.5375 -1.6983
  434MOL0     H59882  10.130   6.217   0.361  0.3895 -0.2325 -0.1931
  434MOL0     H59883  10.120   6.042   0.324  1.1084 -1.2314  1.2249
  434MOL0     H59884  10.203   6.108   0.560 -0.3680 -0.3281  1.2762
  434MOL0     H59885  10.037   6.153   0.606  0.9911  0.7400  0.8014
  434MOL0     H59886  10.166   5.894   0.580  0.0234 -0.1890  1.0824
  434MOL0     H59887   9.996   5.900   0.516 -0.7769 -0.0782  0.1585
  434MOL0     H59888   9.966   5.925   0.943 -0.4149 -0.0346  0.2339
  434MOL0     H59889  10.001   6.329   0.054 -1.5409  0.1255 -4.7768
  434MOL0     H59890   9.817   6.589  -0.098 -0.4702  0.0913  0.4692
  434MOL0     H59891   9.921   6.644   0.036 -1.4964  0.6058 -0.7766
  434MOL0     H59892   9.981   6.512  -0.061 -0.9756 -0.3786 -1.4129
  435MOL0     O59893   3.001   1.316   8.735  0.4362  0.5696 -0.0626
  435MOL0     C59894   2.994   1.424   8.795  0.7639  0.3666  0.2189
  435MOL0     O59895   3.096   1.510   8.818  0.3663 -0.2840 -0.2223
  435MOL0     C59896   3.215   1.472   8.757  0.8134  0.2465  0.2204
  435MOL0     C59897   3.220   1.506   8.625  0.0650 -0.8313  0.5424
  435MOL0     C59898   3.335   1.455   8.552  1.0145 -0.3383  0.6549
  435MOL0     C59899   3.422   1.364   8.605  0.4226  0.0106 -0.1141
  435MOL0     O59900   3.524   1.319   8.532  0.0670  0.8614 -0.3246
  435MOL0     C59901   3.634   1.268   8.603 -0.8010 -0.2029 -0.3322
  435MOL0     C59902   3.746   1.232   8.507  0.5564  0.0203 -0.3003
  435MOL0     C59903   3.864   1.169   8.585 -0.2273 -0.0562  0.2569
  435MOL0     C59904   3.953   1.099   8.481  0.5713 -0.0263  0.0675
  435MOL0     C59905   4.071   1.027   8.536 -0.3147 -0.1406 -0.7036
  435MOL0     C59906   4.205   1.041   8.461 -0.5020 -0.1067 -0.7179
  435MOL0     C59907   4.305   0.939   8.517  0.0204  0.2292 -0.0678
  435MOL0     C59908   4.457   0.988   8.496 -0.1260  0.2770  0.3742
  435MOL0     N59909   4.535   0.889   8.564 -0.2373 -0.1248 -0.5925
  435MOL0     C59910   4.619   0.794   8.503  0.3114 -0.3066  0.6499
  435MOL0     C59911   4.683   0.742   8.614 -1.0567  0.5638 -0.0354
  435MOL0     C59912   4.801   0.642   8.609  0.3083 -0.1076  0.6642
  435MOL0     C59913   4.859   0.605   8.747  0.1462  0.7127  0.3963
  435MOL0     C59914   4.958   0.489   8.712  0.0913 -0.0601 -1.0509
  435MOL0     C59915   4.970   0.384   8.822 -0.4126 -0.4883  0.1829
  435MOL0     O59916   5.069   0.292   8.788 -0.8071  0.1595 -0.4360
  435MOL0     C59917   5.083   0.181   8.868 -0.3691 -0.5591  0.0368
  435MOL0     C59918   4.987   0.102   8.917 -0.0864  0.4668 -0.4605
  435MOL0     C59919   5.008  -0.001   9.013 -0.1302  0.1210 -0.1914
  435MOL0     C59920   4.891  -0.087   9.043  1.1405  0.3794 -0.7719
  435MOL0     C59921   5.138  -0.025   9.060  0.0134  0.6692  0.4648
  435MOL0     C59922   5.176  -0.140   9.147  0.6761 -0.7463 -0.8838
  435MOL0     O59923   5.310  -0.164   9.143 -0.3933 -0.1665 -0.4323
  435MOL0     C59924   5.361  -0.241   9.246 -1.0347  1.0891 -0.0906
  435MOL0     C59925   5.475  -0.189   9.310 -0.1670  0.2569  0.1632
  435MOL0     C59926   5.529  -0.251   9.413  0.7306 -0.9788 -0.5530
  435MOL0     C59927   5.478  -0.376   9.464  0.8026 -0.3932  0.0932
  435MOL0     O59928   5.520  -0.441   9.579  0.3288  0.0890  0.6190
  435MOL0     C59929   5.620  -0.380   9.655  0.6698  0.3182 -0.4934
  435MOL0     C59930   5.760  -0.406   9.596  0.9201 -0.5118  0.2047
  435MOL0     C59931   5.799  -0.553   9.581  0.1250 -0.0837 -0.2161
  435MOL0     C59932   5.933  -0.578   9.531  0.1683 -0.5005 -0.0961
  435MOL0     C59933   6.044  -0.562   9.639  0.5871  0.0328  0.1869
  435MOL0     C59934   6.177  -0.531   9.579  0.2939  0.8195 -0.4794
  435MOL0     C59935   6.287  -0.542   9.687 -0.6743  0.2027 -0.4749
  435MOL0     C59936   6.412  -0.582   9.620  0.4577  0.1605 -0.3005
  435MOL0    Cl59937   6.405  -0.743   9.552  0.7310  0.1382  0.5649
  435MOL0     C59938   5.367  -0.433   9.401  0.7481  0.2007  0.0795
  435MOL0     C59939   5.311  -0.364   9.290  0.1874  0.4573  0.1093
  435MOL0     O59940   5.098  -0.182   9.226 -0.6429 -0.6018  0.1333
  435MOL0     C59941   5.233   0.063   9.011 -0.7773 -0.5689 -0.9119
  435MOL0     C59942   5.211   0.170   8.923 -0.2291  0.4561 -0.5921
  435MOL0     N59943   4.630   0.798   8.729 -0.8878  0.0064 -0.6048
  435MOL0     N59944   4.550   0.890   8.701 -0.1206 -0.3334  0.6284
  435MOL0     C59945   3.395   1.321   8.735  0.1882  0.4204  0.2207
  435MOL0     C59946   3.301   1.385   8.816  0.5253  0.4195  1.5537
  435MOL0     C59947   2.876   1.448   8.876  0.3257  0.2640  0.5064
  435MOL0     C59948   2.888   1.502   9.008  0.5417 -0.7769 -0.2362
  435MOL0     C59949   2.773   1.540   9.079  0.5987 -0.1904  0.1058
  435MOL0     C59950   2.643   1.542   9.019 -0.3478  0.1244  0.1002
  435MOL0     O59951   2.548   1.614   9.087  0.2718  0.1229  0.1210
  435MOL0     C59952   2.459   1.683   8.996  0.6280  0.9872  0.7791
  435MOL0     C59953   2.520   1.797   8.920  0.4038  0.2868  0.0574
  435MOL0     C59954   2.566   1.915   9.001  1.0838 -0.1414  0.1076
  435MOL0     C59955   2.718   1.912   9.019  0.2425 -0.0373  0.0546
  435MOL0     C59956   2.759   2.034   9.081  0.3345  0.0958 -0.9855
  435MOL0     C59957   2.801   2.141   9.122 -0.7323  0.6119 -0.0617
  435MOL0     C59958   2.628   1.478   8.891 -1.0844 -0.9678  0.1075
  435MOL0     C59959   2.746   1.436   8.820 -0.5431 -0.1411 -0.1226
  435MOL0     C59960   2.715   1.388   8.685  0.0868 -0.5722  0.9557
  435MOL0     H59961   3.159   1.581   8.576  4.1421  0.8923 -2.4393
  435MOL0     H59962   3.348   1.482   8.448 -1.4828 -5.7245 -1.4194
  435MOL0     H59963   3.607   1.179   8.660  2.2499 -0.9595  0.1025
  435MOL0     H59964   3.675   1.338   8.676 -2.6851  0.1577  0.4493
  435MOL0     H59965   3.703   1.157   8.440 -0.8044 -0.2670  0.8511
  435MOL0     H59966   3.789   1.310   8.443  0.5510 -1.7172 -2.5291
  435MOL0     H59967   3.920   1.253   8.627 -4.9453  2.9126  1.4241
  435MOL0     H59968   3.846   1.105   8.672 -1.4716 -1.0170 -0.6712
  435MOL0     H59969   3.898   1.026   8.420  0.8697 -1.1241  1.0746
  435MOL0     H59970   3.976   1.174   8.405  0.6668 -0.7305 -0.6066
  435MOL0     H59971   4.039   0.923   8.550 -2.0396  0.7403  3.0821
  435MOL0     H59972   4.105   1.064   8.633  1.1661 -0.8786 -0.9077
  435MOL0     H59973   4.203   1.034   8.352  2.0036 -2.1813 -0.7217
  435MOL0     H59974   4.241   1.142   8.483  1.3157 -0.7999 -0.3164
  435MOL0     H59975   4.292   0.843   8.466  0.3481  0.6773 -1.0044
  435MOL0     H59976   4.287   0.931   8.625  0.5248  0.4275  0.0327
  435MOL0     H59977   4.479   0.993   8.389 -0.9281 -0.2472  0.1844
  435MOL0     H59978   4.469   1.091   8.531 -1.1339  0.2931  0.6827
  435MOL0     H59979   4.643   0.773   8.399  2.0756 -1.1684  1.2057
  435MOL0     H59980   4.881   0.679   8.545  0.1477 -2.4447 -1.0168
  435MOL0     H59981   4.760   0.550   8.566  1.3278  1.1541 -3.3531
  435MOL0     H59982   4.895   0.699   8.789  1.0104  0.4787  0.2023
  435MOL0     H59983   4.786   0.569   8.820  0.4591 -0.3050  0.2216
  435MOL0     H59984   4.926   0.430   8.626 -1.6111 -3.3275  1.5617
  435MOL0     H59985   5.058   0.532   8.697 -0.1188  1.0103  0.3959
  435MOL0     H59986   4.994   0.442   8.911  0.4821  2.1821 -1.6547
  435MOL0     H59987   4.867   0.348   8.833 -1.2616  0.0259 -4.0365
  435MOL0     H59988   4.885   0.120   8.887 -0.3597  0.2210  0.2892
  435MOL0     H59989   4.900  -0.188   9.003 -4.2770 -1.9796  2.8719
  435MOL0     H59990   4.795  -0.053   9.003  0.5763 -0.5676 -0.2603
  435MOL0     H59991   4.873  -0.088   9.151 -3.0016  1.2345 -1.2777
  435MOL0     H59992   5.524  -0.098   9.278 -0.6862  1.6348  2.9705
  435MOL0     H59993   5.620  -0.211   9.458  1.0933 -0.1901 -1.9199
  435MOL0     H59994   5.600  -0.272   9.652  2.6616  0.7710  0.9491
  435MOL0     H59995   5.620  -0.407   9.761  1.2635  2.4780  0.1114
  435MOL0     H59996   5.760  -0.364   9.494 -0.9548  1.3581  0.8811
  435MOL0     H59997   5.826  -0.343   9.656  0.2521  0.7543 -0.3318
  435MOL0     H59998   5.736  -0.599   9.505  0.3570  0.5581 -0.8051
  435MOL0     H59999   5.797  -0.602   9.679 -0.5925  1.2093  0.4424
  435MOL0     H60000   5.943  -0.517   9.441  2.1589 -0.0613  0.3769
  435MOL0     H60001   5.931  -0.674   9.477 -2.4497  0.0975 -1.1998
  435MOL0     H60002   6.016  -0.480   9.706 -1.9024 -0.1703 -0.4972
  435MOL0     H60003   6.038  -0.651   9.703 -3.4880  0.7884  1.1229
  435MOL0     H60004   6.169  -0.428   9.544 -1.9292  0.4783 -1.1183
  435MOL0     H60005   6.189  -0.603   9.497  0.6225  0.1001  0.1814
  435MOL0     H60006   6.258  -0.615   9.763  1.1678 -0.8967 -0.7665
  435MOL0     H60007   6.298  -0.446   9.737  2.0532 -1.0430  1.6037
  435MOL0     H60008   6.502  -0.567   9.680 -0.6397 -0.3167  1.5269
  435MOL0     H60009   6.426  -0.517   9.533 -0.8195 -3.1535 -3.2234
  435MOL0     H60010   5.330  -0.529   9.437 -2.0403  0.7422 -1.0534
  435MOL0     H60011   5.223  -0.411   9.247  0.3947  0.6419 -0.5223
  435MOL0     H60012   5.337   0.048   9.038 -0.7491  0.6437 -0.2585
  435MOL0     H60013   5.289   0.234   8.885 -0.5783  0.0224 -2.0854
  435MOL0     H60014   3.458   1.245   8.779 -1.1651 -1.8518 -1.5390
  435MOL0     H60015   3.289   1.340   8.914  0.7987 -1.1061  0.9310
  435MOL0     H60016   2.983   1.507   9.060  0.0737  3.6342  0.5548
  435MOL0     H60017   2.779   1.587   9.177 -1.0200  1.7980 -0.6922
  435MOL0     H60018   2.415   1.611   8.925  0.2247  1.4835  0.5210
  435MOL0     H60019   2.374   1.718   9.055 -0.2228  1.1841 -0.5129
  435MOL0     H60020   2.449   1.819   8.840  0.6797  1.5198  0.1253
  435MOL0     H60021   2.610   1.758   8.871  0.9468  0.8852  0.5390
  435MOL0     H60022   2.552   2.011   8.949  0.8865  1.1043  2.3205
  435MOL0     H60023   2.517   1.932   9.097  3.8765  3.6458  1.1338
  435MOL0     H60024   2.766   1.906   8.921 -1.9564  0.2823 -1.1084
  435MOL0     H60025   2.743   1.825   9.081 -0.9829 -0.0334  0.5885
  435MOL0     H60026   2.823   2.243   9.148  3.8940 -0.1027 -0.2345
  435MOL0     H60027   2.536   1.478   8.835 -0.4540  2.6697 -1.2410
  435MOL0     H60028   2.621   1.331   8.690 -1.5470  1.6970 -1.3871
  435MOL0     H60029   2.703   1.475   8.620 -2.9086 -0.3123  1.7280
  435MOL0     H60030   2.792   1.325   8.639  0.6816  0.9889 -0.2688
  436MOL0     O60031   6.315   1.316   7.020 -0.2408 -0.5036  0.4927
  436MOL0     C60032   6.433   1.308   7.065  0.9602 -0.9176 -0.5653
  436MOL0     O60033   6.455   1.299   7.197  0.1515  0.1106 -0.4614
  436MOL0     C60034   6.344   1.297   7.281  0.8155 -0.2308  0.7165
  436MOL0     C60035   6.286   1.179   7.324  0.5787 -0.1384  1.2753
  436MOL0     C60036   6.189   1.180   7.417 -0.4295 -0.2381  0.2021
  436MOL0     C60037   6.132   1.294   7.465 -0.2142 -0.1410  0.7221
  436MOL0     O60038   6.037   1.289   7.563 -0.2503 -0.3283  0.2448
  436MOL0     C60039   5.938   1.393   7.582 -0.5526  0.4513 -0.1495
  436MOL0     C60040   5.804   1.338   7.629  0.2022 -0.3982 -0.6689
  436MOL0     C60041   5.811   1.268   7.766  0.5128 -0.2621  0.5261
  436MOL0     C60042   5.673   1.208   7.803  0.4477 -0.3938  0.0584
  436MOL0     C60043   5.700   1.122   7.929 -0.1132 -0.4041 -0.4238
  436MOL0     C60044   5.711   0.976   7.893  0.0962  0.4832 -0.6192
  436MOL0     C60045   5.739   0.905   8.028  0.0112 -0.0883 -0.3327
  436MOL0     C60046   5.888   0.897   8.067 -1.0650 -0.5108  0.1202
  436MOL0     N60047   5.976   0.823   7.969 -0.1165  0.3001  0.3617
  436MOL0     C60048   6.099   0.870   7.921 -0.7409  1.1326  0.2359
  436MOL0     C60049   6.127   0.770   7.832  0.0445 -0.2299  0.5560
  436MOL0     C60050   6.246   0.758   7.746 -0.1197 -0.0293  0.6149
  436MOL0     C60051   6.220   0.829   7.606  0.3486  0.1718 -0.4733
  436MOL0     C60052   6.348   0.805   7.520  0.6937 -0.0916  0.2999
  436MOL0     C60053   6.485   0.849   7.582 -0.3372 -0.5020 -0.2029
  436MOL0     O60054   6.493   0.994   7.595 -0.2773  0.3019 -0.2468
  436MOL0     C60055   6.618   1.052   7.592  0.4587 -0.4725 -0.5804
  436MOL0     C60056   6.626   1.187   7.549  0.1415  0.2210 -1.3783
  436MOL0     C60057   6.749   1.256   7.555 -0.6049  0.6511 -0.2288
  436MOL0     C60058   6.747   1.394   7.516 -0.5050 -0.0432  0.6628
  436MOL0     C60059   6.870   1.188   7.596  0.8307 -1.3215  0.3660
  436MOL0     C60060   7.001   1.247   7.608  0.9281 -0.1938 -0.0385
  436MOL0     O60061   7.075   1.202   7.710  0.0516  0.1188  0.8269
  436MOL0     C60062   7.210   1.195   7.706 -0.7164  0.2400  0.7404
  436MOL0     C60063   7.281   1.150   7.822 -0.1185 -0.4087  0.0587
  436MOL0     C60064   7.416   1.135   7.830 -0.9163 -0.4907  0.4165
  436MOL0     C60065   7.494   1.160   7.720 -0.6157 -0.1025  0.3870
  436MOL0     O60066   7.631   1.151   7.713 -0.3400 -0.7467 -0.2632
  436MOL0     C60067   7.702   1.138   7.830 -0.3247  0.1924 -0.0134
  436MOL0     C60068   7.846   1.131   7.796  0.4076  0.1128  0.6893
  436MOL0     C60069   7.891   0.989   7.765 -0.7259  0.0294  0.3149
  436MOL0     C60070   8.030   0.978   7.705  0.3159  0.1356 -0.5602
  436MOL0     C60071   8.134   1.045   7.798 -0.6784  0.4451 -0.1486
  436MOL0     C60072   8.278   1.021   7.738 -0.4826 -0.6071 -0.2923
  436MOL0     C60073   8.387   1.105   7.813  0.5811 -0.1218 -0.5908
  436MOL0     C60074   8.530   1.046   7.810 -0.3323  0.6121  0.3569
  436MOL0    Cl60075   8.675   1.147   7.838  0.1090  0.3519  0.1027
  436MOL0     C60076   7.436   1.205   7.607 -0.2343  0.9022  0.5683
  436MOL0     C60077   7.294   1.217   7.590 -0.1023 -0.0668 -1.0320
  436MOL0     O60078   7.038   1.327   7.523 -0.3240 -0.0744  0.5566
  436MOL0     C60079   6.857   1.051   7.636 -0.4554  0.1989  0.9562
  436MOL0     C60080   6.733   0.985   7.638 -0.1356 -1.0300 -0.0463
  436MOL0     N60081   6.032   0.674   7.819 -0.1697 -0.8010  0.0059
  436MOL0     N60082   5.931   0.713   7.890  0.4083 -0.8322  0.2648
  436MOL0     C60083   6.183   1.412   7.421  0.1364 -0.4068  0.6285
  436MOL0     C60084   6.294   1.418   7.336  0.3572 -0.0509  0.9420
  436MOL0     C60085   6.547   1.331   6.978 -1.0661 -0.3977 -0.0712
  436MOL0     C60086   6.667   1.383   7.027  0.3171  0.4316 -0.0769
  436MOL0     C60087   6.790   1.384   6.946  0.2593  0.9215  0.4595
  436MOL0     C60088   6.784   1.334   6.820 -0.1171  0.4581  0.5584
  436MOL0     O60089   6.900   1.348   6.747  0.1284  0.1318  0.6433
  436MOL0     C60090   6.890   1.387   6.606  0.0547 -0.4111  0.6848
  436MOL0     C60091   7.030   1.410   6.547  0.8050 -0.8684 -0.4768
  436MOL0     C60092   7.110   1.521   6.625  0.4553  1.0355 -0.3088
  436MOL0     C60093   7.254   1.481   6.660  0.3421 -0.0181  0.4726
  436MOL0     C60094   7.335   1.590   6.704  0.3023  0.5748  0.0644
  436MOL0     C60095   7.387   1.677   6.761 -0.3712  0.1296  0.7022
  436MOL0     C60096   6.670   1.298   6.763 -0.2322 -0.5732  0.0029
  436MOL0     C60097   6.555   1.292   6.838  0.8095  0.5039 -0.2161
  436MOL0     C60098   6.431   1.223   6.777  0.0458 -0.2794  0.6172
  436MOL0     H60099   6.321   1.080   7.294 -2.3094 -1.1326  0.8438
  436MOL0     H60100   6.147   1.088   7.456  1.8077 -0.3830  2.5985
  436MOL0     H60101   5.916   1.453   7.493 -0.5021 -2.0801 -1.9943
  436MOL0     H60102   5.965   1.466   7.658 -2.0689  2.4629 -1.4110
  436MOL0     H60103   5.743   1.426   7.650 -0.6356 -1.0761 -0.2058
  436MOL0     H60104   5.765   1.277   7.548 -0.1764 -0.8643 -0.1473
  436MOL0     H60105   5.890   1.193   7.775  0.2922 -0.2763  3.3611
  436MOL0     H60106   5.832   1.347   7.839  0.8888  1.9845 -1.8592
  436MOL0     H60107   5.605   1.290   7.824  0.2489 -0.4150 -0.4737
  436MOL0     H60108   5.633   1.144   7.723  0.5782  1.5228 -1.6168
  436MOL0     H60109   5.623   1.143   8.003  2.4158  0.2896  2.2199
  436MOL0     H60110   5.792   1.162   7.973  0.3508 -0.7787 -1.0343
  436MOL0     H60111   5.621   0.935   7.846 -1.0471 -0.4594  2.1785
  436MOL0     H60112   5.786   0.954   7.816 -0.6018 -0.0530 -1.1567
  436MOL0     H60113   5.703   0.802   8.037  0.5828 -0.1270  3.8591
  436MOL0     H60114   5.692   0.957   8.113  0.0628  1.3792 -1.1727
  436MOL0     H60115   5.934   0.994   8.087 -0.6410 -0.8373  0.7341
  436MOL0     H60116   5.899   0.841   8.160  0.5797 -0.0221  0.2521
  436MOL0     H60117   6.160   0.949   7.964  1.8822  0.8691 -2.6363
  436MOL0     H60118   6.282   0.658   7.722 -2.3672 -0.8181  0.3147
  436MOL0     H60119   6.324   0.812   7.801  0.3315 -0.7435  0.6902
  436MOL0     H60120   6.135   0.778   7.557 -0.6461  1.0388  0.3070
  436MOL0     H60121   6.196   0.934   7.625  0.4662  0.0204  0.5697
  436MOL0     H60122   6.348   0.698   7.495  0.2291  0.5025 -2.6036
  436MOL0     H60123   6.346   0.874   7.436  1.1961  4.3642  3.5571
  436MOL0     H60124   6.493   0.797   7.678 -1.3139 -0.1643  0.0712
  436MOL0     H60125   6.565   0.818   7.515 -1.4626 -1.3477 -1.2079
  436MOL0     H60126   6.551   1.249   7.500  1.8302  2.7726 -0.9436
  436MOL0     H60127   6.767   1.408   7.410 -1.5533 -0.3327  0.4271
  436MOL0     H60128   6.815   1.447   7.584 -1.9156  0.5196  1.6911
  436MOL0     H60129   6.646   1.430   7.538 -0.6761 -0.2064  0.1428
  436MOL0     H60130   7.216   1.121   7.904  0.7306 -0.1636  0.8241
  436MOL0     H60131   7.477   1.105   7.914  1.7343 -0.8077 -1.5017
  436MOL0     H60132   7.685   1.223   7.897 -0.4233  0.5764 -0.5157
  436MOL0     H60133   7.666   1.046   7.877 -2.1694  2.1247  2.7245
  436MOL0     H60134   7.875   1.207   7.722 -1.8457  0.0848 -0.2945
  436MOL0     H60135   7.884   1.166   7.892 -1.0176  3.8279  0.0787
  436MOL0     H60136   7.813   0.947   7.701 -2.2321  1.1341  1.3539
  436MOL0     H60137   7.893   0.931   7.858  0.3776 -1.1823 -0.4258
  436MOL0     H60138   8.030   1.017   7.603  0.0981 -1.5498 -1.2479
  436MOL0     H60139   8.057   0.872   7.701  0.9564  0.1107  2.2283
  436MOL0     H60140   8.120   1.153   7.783  0.0537  0.5023 -0.4653
  436MOL0     H60141   8.109   1.011   7.898  0.1048 -2.2458 -0.7855
  436MOL0     H60142   8.286   1.043   7.632 -2.1052  2.7459  0.1540
  436MOL0     H60143   8.294   0.913   7.751  3.4981 -0.0384  1.1185
  436MOL0     H60144   8.359   1.139   7.913 -1.9711 -1.4671 -0.7574
  436MOL0     H60145   8.404   1.192   7.749 -0.2983  1.0217  0.6649
  436MOL0     H60146   8.535   0.979   7.724  0.6418  0.3629  0.5949
  436MOL0     H60147   8.535   0.978   7.896 -0.8161 -1.6896 -1.3390
  436MOL0     H60148   7.499   1.216   7.519 -0.2703  1.3927  0.6046
  436MOL0     H60149   7.253   1.259   7.499 -0.6367  0.5804 -0.5027
  436MOL0     H60150   6.947   1.005   7.675  0.9167 -0.4266 -2.5755
  436MOL0     H60151   6.734   0.889   7.689  0.5259  0.0063  2.0171
  436MOL0     H60152   6.139   1.509   7.440 -0.1197  0.0470 -1.9270
  436MOL0     H60153   6.336   1.513   7.306 -1.0795  0.4601  0.4797
  436MOL0     H60154   6.678   1.419   7.128  0.9942 -0.7652  0.3017
  436MOL0     H60155   6.878   1.440   6.974  1.4767  0.5241 -2.2728
  436MOL0     H60156   6.857   1.304   6.543  0.7176  0.5320 -0.9435
  436MOL0     H60157   6.819   1.469   6.592 -0.1424 -0.8233 -0.8738
  436MOL0     H60158   7.002   1.439   6.445 -0.5031  1.6682  0.5184
  436MOL0     H60159   7.087   1.317   6.553 -0.2605 -1.5612 -0.9835
  436MOL0     H60160   7.105   1.613   6.566  5.2534  1.5563 -0.2952
  436MOL0     H60161   7.062   1.528   6.723  1.0460 -1.0230  0.1749
  436MOL0     H60162   7.298   1.441   6.568 -0.6611 -0.3441  0.1240
  436MOL0     H60163   7.261   1.408   6.742 -0.0610 -1.3032 -0.6053
  436MOL0     H60164   7.436   1.748   6.825  0.4406 -0.8991  1.2453
  436MOL0     H60165   6.673   1.259   6.662  1.4513 -0.9633  0.1726
  436MOL0     H60166   6.456   1.201   6.673  0.9995  0.5444  0.6579
  436MOL0     H60167   6.400   1.133   6.831 -0.1812  0.3733  1.6135
  436MOL0     H60168   6.340   1.283   6.780 -0.2390 -0.7338  2.5570
  437MOL0     O60169   5.388  10.552   1.534 -0.2732 -0.3389  0.3851
  437MOL0     C60170   5.346  10.661   1.494  0.0732 -0.5505 -0.0955
  437MOL0     O60171   5.421  10.777   1.489 -0.2044  0.5694 -0.5038
  437MOL0     C60172   5.551  10.772   1.531  0.2257 -0.0426  1.0648
  437MOL0     C60173   5.578  10.828   1.655 -0.1489 -0.1026  0.1392
  437MOL0     C60174   5.705  10.835   1.701 -0.0092  0.1685  0.4586
  437MOL0     C60175   5.814  10.782   1.636  0.6766 -0.9992  0.4974
  437MOL0     O60176   5.931  10.764   1.701  0.7462 -0.4849  0.3810
  437MOL0     C60177   6.047  10.734   1.627  0.0128 -0.1411 -0.1370
  437MOL0     C60178   6.168  10.743   1.721 -0.4086  0.7730 -0.3625
  437MOL0     C60179   6.304  10.787   1.663  0.1098 -0.6762 -0.2747
  437MOL0     C60180   6.350  10.671   1.570 -1.2421  0.5615  0.4656
  437MOL0     C60181   6.498  10.695   1.521 -0.6393  0.6077 -0.2372
  437MOL0     C60182   6.543  10.599   1.407  0.2193 -0.1051  0.0348
  437MOL0     C60183   6.514  10.449   1.441 -0.9857  0.5466 -0.8742
  437MOL0     C60184   6.549  10.378   1.573  1.0285 -0.0445 -0.5739
  437MOL0     N60185   6.693  10.349   1.597 -0.9520 -0.5379  0.6901
  437MOL0     C60186   6.806  10.430   1.585 -0.2552 -0.0278  0.3686
  437MOL0     C60187   6.906  10.352   1.625 -0.0937 -0.1060 -0.0576
  437MOL0     C60188   7.053  10.387   1.633 -0.7325 -0.0559 -0.1749
  437MOL0     C60189   7.137  10.323   1.743  0.8589 -0.2823  0.2110
  437MOL0     C60190   7.172  10.177   1.717  0.0309 -0.2391 -0.4479
  437MOL0     C60191   7.307  10.155   1.641 -0.9534  0.4902  0.3891
  437MOL0     O60192   7.367  10.032   1.671 -0.1981  0.6862  0.0871
  437MOL0     C60193   7.501  10.024   1.630 -0.3585 -0.3877  0.2829
  437MOL0     C60194   7.568  10.113   1.535  0.2690  0.6457  0.3921
  437MOL0     C60195   7.701  10.121   1.511  0.0034  0.5082  0.7899
  437MOL0     C60196   7.745  10.205   1.401 -0.1886  0.3715  1.1758
  437MOL0     C60197   7.786  10.033   1.589 -0.1149  0.2484  0.4612
  437MOL0     C60198   7.933  10.023   1.571 -0.4316 -0.6185 -0.9222
  437MOL0     O60199   8.011   9.983   1.680  0.6085  0.2795 -0.1233
  437MOL0     C60200   8.149   9.973   1.667 -0.0801 -0.7487  0.3629
  437MOL0     C60201   8.223   9.873   1.731 -1.1279  0.6642  0.0360
  437MOL0     C60202   8.362   9.872   1.740  0.7862 -1.0701  0.2661
  437MOL0     C60203   8.429   9.967   1.675 -0.0380 -0.4202  0.7819
  437MOL0     O60204   8.561   9.961   1.660  0.1431 -0.0281 -1.0373
  437MOL0     C60205   8.630  10.072   1.726  0.1616 -0.3358 -0.6135
  437MOL0     C60206   8.709   9.998   1.851  0.2248 -0.6791 -0.0924
  437MOL0     C60207   8.817   9.895   1.806  1.1260 -0.2657  0.1032
  437MOL0     C60208   8.955   9.904   1.873  0.4110  0.8522  0.3686
  437MOL0     C60209   9.041  10.017   1.808  0.1369 -0.1845  0.1046
  437MOL0     C60210   9.184  10.008   1.869  0.2538 -0.6124 -0.0848
  437MOL0     C60211   9.277  10.128   1.852  0.0686 -0.4450  0.9601
  437MOL0     C60212   9.417  10.095   1.901  0.3468 -0.7708 -0.1057
  437MOL0    Cl60213   9.463  10.184   2.051  0.0029 -0.1593  0.3316
  437MOL0     C60214   8.360  10.067   1.605 -0.3154  1.0941 -0.1832
  437MOL0     C60215   8.225  10.078   1.611  0.1845 -0.1611 -0.0698
  437MOL0     O60216   7.969  10.060   1.466  0.0295 -0.0459  0.2963
  437MOL0     C60217   7.725   9.946   1.682  0.5203  0.6135 -0.6444
  437MOL0     C60218   7.586   9.939   1.700 -0.7878 -0.0927 -0.4711
  437MOL0     N60219   6.856  10.231   1.673  0.2110 -0.3249 -0.5214
  437MOL0     N60220   6.726  10.238   1.659  0.5447  0.3864  0.1954
  437MOL0     C60221   5.787  10.718   1.513 -0.3996 -0.2959  0.4317
  437MOL0     C60222   5.657  10.711   1.460  1.0296  0.4311  0.2589
  437MOL0     C60223   5.198  10.683   1.448 -0.3998 -0.6612  0.0984
  437MOL0     C60224   5.176  10.761   1.336 -0.2491 -0.8780  0.3828
  437MOL0     C60225   5.051  10.795   1.288 -0.2633 -0.4018 -0.6869
  437MOL0     C60226   4.936  10.739   1.352 -1.1624 -0.0974 -0.3664
  437MOL0     O60227   4.813  10.756   1.306 -0.5689  0.4064  0.8279
  437MOL0     C60228   4.769  10.690   1.185 -0.0778 -0.2840 -0.5975
  437MOL0     C60229   4.790  10.792   1.066  0.5445 -0.4124  0.2241
  437MOL0     C60230   4.711  10.921   1.085 -0.0807  0.1965  0.2030
  437MOL0     C60231   4.777  11.042   1.016  0.4770 -0.4396 -0.3473
  437MOL0     C60232   4.724  11.077   0.882  0.4158  0.5322 -1.3172
  437MOL0     C60233   4.687  11.130   0.784 -0.6157  0.2770 -0.7198
  437MOL0     C60234   4.953  10.684   1.480  1.1459  0.4837  1.1088
  437MOL0     C60235   5.082  10.646   1.527 -0.3558 -0.3385 -0.4088
  437MOL0     C60236   5.096  10.567   1.654  0.5689 -0.0363  0.2417
  437MOL0     H60237   5.503  10.857   1.728 -0.3424  1.0951 -0.5099
  437MOL0     H60238   5.723  10.877   1.800  0.1543  0.5804  0.2569
  437MOL0     H60239   6.062  10.805   1.546 -0.8702  1.8279  1.3383
  437MOL0     H60240   6.040  10.633   1.585 -0.5232  0.4600 -1.5652
  437MOL0     H60241   6.140  10.823   1.789 -3.1939 -0.4148  0.0147
  437MOL0     H60242   6.188  10.646   1.768  0.9446  0.8536 -0.7268
  437MOL0     H60243   6.303  10.872   1.594  1.3838 -0.5271 -0.1306
  437MOL0     H60244   6.384  10.805   1.735 -0.4555 -1.7501  0.6642
  437MOL0     H60245   6.343  10.583   1.634  0.2557 -1.1193 -1.5591
  437MOL0     H60246   6.284  10.664   1.483 -0.0148  0.6225 -0.5068
  437MOL0     H60247   6.566  10.673   1.604  1.0771  0.3397 -1.6363
  437MOL0     H60248   6.509  10.801   1.493  0.7512  0.7101  0.5684
  437MOL0     H60249   6.497  10.633   1.315  0.1450  1.6112  0.6672
  437MOL0     H60250   6.649  10.624   1.395 -0.1935  1.4340 -0.6661
  437MOL0     H60251   6.557  10.380   1.367 -1.3270 -2.7511  1.7607
  437MOL0     H60252   6.406  10.432   1.434 -1.0843 -0.7985  2.2757
  437MOL0     H60253   6.518  10.446   1.654 -0.7157 -0.6032 -0.7261
  437MOL0     H60254   6.500  10.280   1.570 -0.5148  0.6413  0.8283
  437MOL0     H60255   6.808  10.532   1.547  0.1636 -0.9758 -2.3865
  437MOL0     H60256   7.043  10.496   1.646 -2.1939 -0.2085  0.1350
  437MOL0     H60257   7.106  10.361   1.541 -1.6598  0.1940 -0.7861
  437MOL0     H60258   7.221  10.389   1.766 -0.6701  1.9133 -0.1823
  437MOL0     H60259   7.073  10.330   1.832  1.6943 -1.0963  0.8889
  437MOL0     H60260   7.173  10.116   1.808 -0.1904  0.0581 -0.2451
  437MOL0     H60261   7.092  10.117   1.673 -0.3230 -1.9637  2.3532
  437MOL0     H60262   7.285  10.158   1.534  1.4386  0.4572 -0.1453
  437MOL0     H60263   7.366  10.240   1.675  0.3833  0.5600 -1.9701
  437MOL0     H60264   7.504  10.181   1.479 -1.8026  0.4753  2.3616
  437MOL0     H60265   7.838  10.257   1.429  0.0604  0.5078  0.1133
  437MOL0     H60266   7.668  10.281   1.386  0.0272  0.5438  0.9236
  437MOL0     H60267   7.778  10.149   1.314  4.6837  0.7430  2.4729
  437MOL0     H60268   8.173   9.801   1.795 -1.3279 -0.7371 -1.6143
  437MOL0     H60269   8.411   9.795   1.799  0.9367 -0.8165  0.4698
  437MOL0     H60270   8.708  10.107   1.658  0.3994 -1.6566 -1.0646
  437MOL0     H60271   8.555  10.145   1.754 -3.4260 -3.2083 -1.9118
  437MOL0     H60272   8.761  10.076   1.907  0.1655 -1.9741  1.8676
  437MOL0     H60273   8.637   9.947   1.915 -0.3492  0.8097  0.4804
  437MOL0     H60274   8.821   9.904   1.697 -0.9518 -5.4256 -0.7039
  437MOL0     H60275   8.772   9.797   1.825 -1.1920  0.8294  0.5279
  437MOL0     H60276   9.008   9.809   1.859 -1.4055  0.0885 -1.9597
  437MOL0     H60277   8.940   9.923   1.980  1.2213  2.2323  0.2595
  437MOL0     H60278   9.055   9.995   1.702  0.0141  3.0128 -0.6622
  437MOL0     H60279   9.002  10.114   1.839 -1.3166 -0.4258 -0.8526
  437MOL0     H60280   9.234   9.922   1.823  0.0501  0.9261 -3.5293
  437MOL0     H60281   9.173   9.992   1.976 -0.6278 -0.0872 -0.0855
  437MOL0     H60282   9.256  10.220   1.907  0.9940  0.3576  0.0308
  437MOL0     H60283   9.284  10.154   1.746  3.2417 -0.4214  1.0828
  437MOL0     H60284   9.484  10.144   1.829  4.3864  1.1220  4.4165
  437MOL0     H60285   9.435   9.988   1.917 -2.0616 -1.2689 -0.3208
  437MOL0     H60286   8.428  10.135   1.554 -0.1905 -0.0056 -1.5668
  437MOL0     H60287   8.169  10.157   1.562 -2.1580 -1.6134  0.1644
  437MOL0     H60288   7.787   9.863   1.716  0.7598 -0.3806 -3.2820
  437MOL0     H60289   7.551   9.874   1.780 -0.0753  2.1896  1.8502
  437MOL0     H60290   5.864  10.673   1.451 -1.5145 -3.3049  1.0686
  437MOL0     H60291   5.627  10.668   1.365 -1.2008  0.5218  0.8802
  437MOL0     H60292   5.259  10.792   1.274 -1.0823 -1.7201 -1.2211
  437MOL0     H60293   5.030  10.847   1.195 -0.3656 -2.2279 -1.7252
  437MOL0     H60294   4.800  10.586   1.170  0.2166 -0.6483  2.0186
  437MOL0     H60295   4.661  10.684   1.203  0.3796 -0.2723  2.8285
  437MOL0     H60296   4.747  10.740   0.980  1.3912 -3.7429  1.6480
  437MOL0     H60297   4.896  10.809   1.048  0.0210  1.5508 -1.3526
  437MOL0     H60298   4.612  10.900   1.044  0.4051 -1.2586 -0.2797
  437MOL0     H60299   4.709  10.937   1.193 -1.8051  0.1417  0.2125
  437MOL0     H60300   4.884  11.022   1.012  0.5899  0.2264 -1.0094
  437MOL0     H60301   4.766  11.137   1.069  0.1816  0.7987 -2.4870
  437MOL0     H60302   4.641  11.184   0.703 -2.3774  0.1372  0.1340
  437MOL0     H60303   4.866  10.663   1.542  0.4302 -0.6287 -0.2334
  437MOL0     H60304   5.121  10.626   1.743 -0.1518 -2.1503  1.9139
  437MOL0     H60305   4.997  10.525   1.672  0.4107  0.4633  0.5736
  437MOL0     H60306   5.155  10.478   1.633  1.4988  1.2319 -3.2443
  438MOL0     O60307   8.188   2.795   3.824 -0.8801  0.2764  0.9402
  438MOL0     C60308   8.171   2.726   3.727  1.2950  1.0821  0.5656
  438MOL0     O60309   8.209   2.752   3.593  0.0739 -0.2504 -0.7214
  438MOL0     C60310   8.227   2.879   3.560 -0.3988 -0.7766 -0.2701
  438MOL0     C60311   8.160   2.918   3.441 -0.0336  0.1421  0.3645
  438MOL0     C60312   8.186   3.041   3.380 -0.2724 -0.4351 -0.5619
  438MOL0     C60313   8.278   3.130   3.440 -0.0114 -0.1186 -0.1999
  438MOL0     O60314   8.328   3.245   3.383 -0.2376 -0.5590 -0.3517
  438MOL0     C60315   8.384   3.231   3.251 -0.3916  0.0018 -0.2778
  438MOL0     C60316   8.363   3.348   3.158  0.4673  0.1702 -0.6409
  438MOL0     C60317   8.459   3.345   3.043  0.6762  0.1081  0.5297
  438MOL0     C60318   8.600   3.380   3.090  0.3742 -0.0390  0.1509
  438MOL0     C60319   8.694   3.368   2.963 -0.0269 -1.0403  0.5618
  438MOL0     C60320   8.837   3.405   3.001  0.7172 -0.0898 -0.4014
  438MOL0     C60321   8.932   3.422   2.879  1.2993 -0.1393 -0.2287
  438MOL0     C60322   9.078   3.438   2.921  0.2471 -0.0041  0.9055
  438MOL0     N60323   9.174   3.397   2.825  0.0762  0.2066 -0.1468
  438MOL0     C60324   9.186   3.428   2.691 -0.3982  0.1364  0.2439
  438MOL0     C60325   9.275   3.327   2.648  0.0191  0.7243  0.5388
  438MOL0     C60326   9.325   3.310   2.498  0.6373 -0.7697 -1.4740
  438MOL0     C60327   9.426   3.196   2.480  0.2945  0.0737 -0.3625
  438MOL0     C60328   9.479   3.199   2.334  0.4147 -0.1557  0.3446
  438MOL0     C60329   9.561   3.080   2.304  0.0797  0.0500  1.1503
  438MOL0     O60330   9.631   3.084   2.179  0.2342  0.0401 -0.7664
  438MOL0     C60331   9.704   2.984   2.130  0.1562  0.1658 -0.4148
  438MOL0     C60332   9.728   2.858   2.190  0.4207  0.5218  0.6262
  438MOL0     C60333   9.807   2.759   2.138  0.4642 -0.5942  0.2466
  438MOL0     C60334   9.816   2.621   2.203  0.4834 -0.4846 -0.0888
  438MOL0     C60335   9.874   2.797   2.020  0.0549  0.5260  0.9935
  438MOL0     C60336   9.965   2.712   1.957  0.1336 -0.8548  0.2741
  438MOL0     O60337  10.091   2.764   1.918  0.1823 -0.9327  0.0073
  438MOL0     C60338  10.190   2.683   1.877  0.7787 -0.8005 -0.8228
  438MOL0     C60339  10.234   2.679   1.743  0.3106  0.7256 -0.2411
  438MOL0     C60340  10.330   2.578   1.708 -0.1545 -1.0214  0.9791
  438MOL0     C60341  10.374   2.491   1.805 -1.2995 -0.2987  0.2370
  438MOL0     O60342  10.470   2.407   1.769  0.7058  0.0914 -0.1995
  438MOL0     C60343  10.425   2.273   1.749  0.8333 -0.5719  0.9314
  438MOL0     C60344  10.533   2.218   1.654 -0.0258 -0.7129  0.0748
  438MOL0     C60345  10.661   2.199   1.727 -0.0532 -0.7250 -0.7537
  438MOL0     C60346  10.762   2.107   1.660  0.4760 -0.2175  1.3549
  438MOL0     C60347  10.902   2.125   1.737 -0.6797 -0.0112 -0.3536
  438MOL0     C60348  10.906   2.066   1.884  0.0231 -0.5797  0.6147
  438MOL0     C60349  11.057   2.077   1.926  0.8007  0.6351 -0.0642
  438MOL0     C60350  11.063   2.118   2.074 -0.6980 -0.2542  0.7197
  438MOL0    Cl60351  11.074   1.972   2.184  0.2093 -0.5557  0.2603
  438MOL0     C60352  10.322   2.493   1.930  0.6727  0.0297 -0.1755
  438MOL0     C60353  10.226   2.583   1.964  0.2582 -0.6797  0.1380
  438MOL0     O60354   9.920   2.602   1.921 -0.0422 -0.3893 -0.1914
  438MOL0     C60355   9.849   2.920   1.960 -0.5310 -0.7595 -0.4860
  438MOL0     C60356   9.765   3.011   2.015  0.0342 -0.8952  0.8030
  438MOL0     N60357   9.311   3.244   2.751 -0.2531  0.2303  1.3618
  438MOL0     N60358   9.250   3.287   2.855 -0.2130 -0.0728  0.4200
  438MOL0     C60359   8.344   3.090   3.558 -0.1239 -0.6075  0.2418
  438MOL0     C60360   8.322   2.968   3.615 -0.5231 -0.0709  0.3546
  438MOL0     C60361   8.139   2.581   3.752  0.3989  0.1398  1.1512
  438MOL0     C60362   8.175   2.483   3.654  0.1983 -0.1154  0.0479
  438MOL0     C60363   8.134   2.350   3.667 -0.3952 -0.1656 -1.2595
  438MOL0     C60364   8.062   2.304   3.780 -0.3896  0.9041 -0.8147
  438MOL0     O60365   8.040   2.173   3.790 -0.6134  0.6546  0.0221
  438MOL0     C60366   8.105   2.116   3.907  0.7153  0.7454  0.6011
  438MOL0     C60367   8.250   2.088   3.887 -0.6336 -0.1911 -1.1703
  438MOL0     C60368   8.280   1.964   3.980  0.3850 -0.4168 -0.1687
  438MOL0     C60369   8.426   1.922   3.988 -1.0058 -0.2536  0.6580
  438MOL0     C60370   8.469   1.855   3.867 -0.7934 -0.1997 -0.3032
  438MOL0     C60371   8.520   1.800   3.772 -0.7233 -0.1207  0.6985
  438MOL0     C60372   8.011   2.396   3.869 -0.0531  0.0502 -0.2162
  438MOL0     C60373   8.053   2.535   3.857 -0.7855  0.0401 -0.1384
  438MOL0     C60374   8.000   2.628   3.969 -0.0754  0.0087 -0.4148
  438MOL0     H60375   8.091   2.850   3.393  1.4555 -1.5434  0.5124
  438MOL0     H60376   8.139   3.074   3.288 -0.7602  2.3244  0.5728
  438MOL0     H60377   8.352   3.143   3.195  2.7701  0.0864 -2.5102
  438MOL0     H60378   8.491   3.205   3.253  0.0831  1.6711 -1.3755
  438MOL0     H60379   8.262   3.353   3.117 -0.0475  4.1597  0.5859
  438MOL0     H60380   8.375   3.433   3.227  0.7913 -0.8130  0.5509
  438MOL0     H60381   8.460   3.247   2.996 -1.2798 -1.0895  2.8085
  438MOL0     H60382   8.412   3.406   2.965  0.4677 -0.9449 -0.1873
  438MOL0     H60383   8.610   3.483   3.127  3.1103 -0.1884  0.0276
  438MOL0     H60384   8.640   3.316   3.169 -0.0324  0.6846  0.9512
  438MOL0     H60385   8.667   3.450   2.895 -0.1315  0.7484  2.6768
  438MOL0     H60386   8.700   3.274   2.907  1.4470  0.5844 -2.2397
  438MOL0     H60387   8.841   3.496   3.062  0.8549 -2.1141  2.8726
  438MOL0     H60388   8.874   3.324   3.065 -0.1452  1.8311  2.7948
  438MOL0     H60389   8.908   3.513   2.822 -1.9623  1.3924  3.1301
  438MOL0     H60390   8.916   3.333   2.817  2.1493  0.2968 -1.0880
  438MOL0     H60391   9.116   3.525   2.974  1.5810  2.1311 -3.0825
  438MOL0     H60392   9.082   3.362   3.000 -0.5197 -0.4198  0.5591
  438MOL0     H60393   9.129   3.495   2.628 -2.0075 -0.3091  1.1786
  438MOL0     H60394   9.371   3.405   2.467 -1.8778  1.0605  0.0853
  438MOL0     H60395   9.238   3.289   2.435  1.5041 -0.2367 -2.9233
  438MOL0     H60396   9.498   3.208   2.560 -1.6459 -0.5279  1.5900
  438MOL0     H60397   9.383   3.095   2.488  3.2460 -1.1679  1.1799
  438MOL0     H60398   9.397   3.211   2.263 -1.4816 -1.4131  2.2023
  438MOL0     H60399   9.544   3.287   2.333  1.4647 -0.9109 -1.2101
  438MOL0     H60400   9.643   3.058   2.373  2.1353 -2.0050 -1.6564
  438MOL0     H60401   9.496   2.992   2.306 -1.3025  0.9530 -0.6239
  438MOL0     H60402   9.676   2.829   2.281 -1.1358 -0.8774 -0.6539
  438MOL0     H60403   9.779   2.545   2.133 -0.7906  1.5858 -1.8046
  438MOL0     H60404   9.766   2.615   2.300 -1.1020 -1.7606 -0.9273
  438MOL0     H60405   9.922   2.601   2.221  1.4872  3.3945 -0.7305
  438MOL0     H60406  10.200   2.753   1.671 -1.3932  1.0363  0.8186
  438MOL0     H60407  10.384   2.596   1.616 -1.7234  2.0330  0.4999
  438MOL0     H60408  10.418   2.205   1.834  1.8797 -4.3380 -1.7698
  438MOL0     H60409  10.328   2.270   1.697  2.6076  0.6966 -2.8617
  438MOL0     H60410  10.495   2.126   1.608 -1.2951  0.6660 -1.8659
  438MOL0     H60411  10.539   2.297   1.577  1.0481  2.1108  2.8524
  438MOL0     H60412  10.629   2.173   1.829  2.0051  2.0494  0.7406
  438MOL0     H60413  10.701   2.300   1.737 -0.9828 -0.4766  0.7627
  438MOL0     H60414  10.768   2.132   1.554  1.9691  0.8241  1.6524
  438MOL0     H60415  10.739   2.001   1.672  1.0173 -0.7638 -1.6269
  438MOL0     H60416  10.960   2.060   1.671 -3.2676 -1.9958 -0.8292
  438MOL0     H60417  10.935   2.229   1.742 -1.6517  0.2579  1.5423
  438MOL0     H60418  10.864   1.964   1.885 -3.7176  0.8105  1.1911
  438MOL0     H60419  10.839   2.131   1.941 -2.4262  0.1903 -2.8132
  438MOL0     H60420  11.109   2.147   1.859  0.6192  2.6923  1.8098
  438MOL0     H60421  11.117   1.986   1.919 -0.3886 -0.6552  3.7530
  438MOL0     H60422  10.983   2.191   2.090  0.3327  2.0042 -3.0223
  438MOL0     H60423  11.143   2.192   2.081 -3.0044  2.6547 -0.9366
  438MOL0     H60424  10.360   2.422   2.003 -0.3955  0.0170  0.3930
  438MOL0     H60425  10.178   2.576   2.061 -2.7275  0.8867 -1.0881
  438MOL0     H60426   9.884   2.951   1.862 -0.7363  0.1151 -0.2891
  438MOL0     H60427   9.742   3.106   1.968  0.0103 -1.1623  0.2681
  438MOL0     H60428   8.418   3.163   3.589 -3.8188  4.0017 -0.5021
  438MOL0     H60429   8.382   2.948   3.703  0.7307  1.6931 -0.0497
  438MOL0     H60430   8.230   2.506   3.563  0.8399 -0.4609  0.3414
  438MOL0     H60431   8.168   2.273   3.599 -0.9200 -3.6547  2.0731
  438MOL0     H60432   8.093   2.186   3.990  0.2860  0.1646  1.0336
  438MOL0     H60433   8.048   2.029   3.941  1.5075  1.1707  3.1760
  438MOL0     H60434   8.298   2.180   3.922 -0.3399 -1.5275  2.3614
  438MOL0     H60435   8.268   2.064   3.782 -1.5834  2.3239 -1.9707
  438MOL0     H60436   8.259   1.983   4.086  0.9265 -0.6154 -0.0179
  438MOL0     H60437   8.213   1.880   3.957 -2.3019  1.8575 -1.1545
  438MOL0     H60438   8.422   1.839   4.060  0.3785 -0.5669  0.4127
  438MOL0     H60439   8.485   2.010   4.014 -0.8150 -0.1630 -0.0671
  438MOL0     H60440   8.558   1.727   3.703 -0.5983 -0.7312  1.4006
  438MOL0     H60441   7.940   2.360   3.943 -0.3601 -2.6895 -1.7313
  438MOL0     H60442   7.952   2.708   3.912  1.1882  0.1163 -1.3619
  438MOL0     H60443   7.925   2.575   4.029  0.3049 -2.3834 -1.9245
  438MOL0     H60444   8.088   2.657   4.026  0.4428 -1.3753 -0.4814
  439MOL0     O60445  10.490   8.476  10.434 -0.1846 -0.1229 -0.8089
  439MOL0     C60446  10.478   8.354  10.437  0.2175 -0.2366  0.5376
  439MOL0     O60447  10.576   8.267  10.394 -0.2227  0.8613  0.1389
  439MOL0     C60448  10.696   8.318  10.352  0.4956  0.0261  0.0031
  439MOL0     C60449  10.699   8.355  10.218 -1.5051 -1.1132 -0.1864
  439MOL0     C60450  10.812   8.405  10.160 -0.0089 -0.3662  0.3044
  439MOL0     C60451  10.923   8.440  10.233 -0.3669  1.2837  0.4950
  439MOL0     O60452  11.030   8.496  10.170 -0.1741 -0.3802  0.1998
  439MOL0     C60453  11.139   8.521  10.248  0.2184 -0.0313 -0.1679
  439MOL0     C60454  11.240   8.607  10.177  0.6639  0.1070 -0.1251
  439MOL0     C60455  11.359   8.640  10.272 -0.0791 -0.2324  0.1027
  439MOL0     C60456  11.461   8.729  10.197 -0.0345 -0.1095  0.0142
  439MOL0     C60457  11.590   8.767  10.271  0.0050  0.3973 -0.4157
  439MOL0     C60458  11.700   8.814  10.172 -0.4097 -0.5397 -0.2787
  439MOL0     C60459  11.823   8.891  10.233  0.5803  0.0389  0.8943
  439MOL0     C60460  11.902   8.787  10.318  1.0233  0.6018  0.8914
  439MOL0     N60461  12.042   8.827  10.348 -0.8079  0.2812 -0.4303
  439MOL0     C60462  12.099   8.939  10.410 -0.1442 -0.4239 -0.3165
  439MOL0     C60463  12.231   8.914  10.399  0.4610  0.3989 -0.1605
  439MOL0     C60464  12.351   8.992  10.454  0.1532 -0.1079 -0.6140
  439MOL0     C60465  12.442   9.037  10.344  0.7017  0.3720 -0.1375
  439MOL0     C60466  12.511   9.167  10.382 -0.3756 -1.3845  0.0391
  439MOL0     C60467  12.429   9.294  10.345  0.3437 -0.2822  0.0848
  439MOL0     O60468  12.505   9.412  10.369  0.4146 -0.7295 -0.0945
  439MOL0     C60469  12.607   9.446  10.284 -0.1132 -0.1732  0.5973
  439MOL0     C60470  12.709   9.540  10.332 -0.3571  0.8911  0.2780
  439MOL0     C60471  12.819   9.565  10.257  0.6693  1.1016  0.2242
  439MOL0     C60472  12.912   9.672  10.310 -0.3141  0.5948 -0.3857
  439MOL0     C60473  12.832   9.503  10.131 -0.9393  0.4294  0.1627
  439MOL0     C60474  12.955   9.537  10.052 -0.1121  0.3919 -0.0172
  439MOL0     O60475  13.077   9.518  10.109 -0.4110  0.2314 -0.0970
  439MOL0     C60476  13.190   9.524  10.034  0.1009  0.1184 -0.3139
  439MOL0     C60477  13.219   9.457   9.909  0.9612 -0.2016 -0.0928
  439MOL0     C60478  13.341   9.463   9.855  0.0084 -0.4464  0.2982
  439MOL0     C60479  13.446   9.523   9.914  0.2380 -0.6789 -1.0875
  439MOL0     O60480  13.566   9.512   9.849  0.5588  0.1828  0.3466
  439MOL0     C60481  13.690   9.559   9.908  1.0759  0.7821  0.3647
  439MOL0     C60482  13.819   9.508   9.839 -0.1062  0.3490 -0.9247
  439MOL0     C60483  13.828   9.569   9.697 -0.6244  0.4456  0.0325
  439MOL0     C60484  13.911   9.691   9.681 -0.9095 -0.4624  0.4916
  439MOL0     C60485  13.891   9.748   9.541 -0.5144  0.2696 -0.3534
  439MOL0     C60486  14.016   9.838   9.506 -0.2116 -0.3142  1.4918
  439MOL0     C60487  14.000   9.916   9.373  0.3103  0.2367 -0.1168
  439MOL0     C60488  14.119  10.002   9.331 -1.0895  1.1543 -0.4143
  439MOL0    Cl60489  14.098  10.032   9.158 -0.2726 -0.0273 -0.0460
  439MOL0     C60490  13.421   9.581  10.034 -0.9314 -0.0579 -0.0203
  439MOL0     C60491  13.304   9.577  10.096 -0.0002 -0.3268  0.2986
  439MOL0     O60492  12.929   9.570   9.936 -0.0628 -0.2560 -0.2740
  439MOL0     C60493  12.739   9.412  10.079  0.2190  0.0930 -0.2885
  439MOL0     C60494  12.620   9.389  10.153 -0.7569 -0.8600  0.4716
  439MOL0     N60495  12.249   8.808  10.317  0.4270  0.1029 -0.0357
  439MOL0     N60496  12.134   8.753  10.295  0.0969  0.4298 -0.0988
  439MOL0     C60497  10.914   8.417  10.374  0.1584 -0.0536  0.6292
  439MOL0     C60498  10.806   8.351  10.432 -0.1650  0.3776  0.3319
  439MOL0     C60499  10.355   8.292  10.493 -0.3236 -0.4384  0.6578
  439MOL0     C60500  10.343   8.156  10.507 -0.2990  0.8578 -0.6163
  439MOL0     C60501  10.231   8.087  10.557 -0.2807 -0.1009  0.2404
  439MOL0     C60502  10.122   8.164  10.602 -0.2196  0.1675  0.6414
  439MOL0     O60503  10.015   8.102  10.666  0.2429 -0.3290 -0.7162
  439MOL0     C60504   9.980   8.145  10.794 -0.2009  0.2592 -0.2498
  439MOL0     C60505   9.844   8.212  10.803 -0.4134 -0.0622  0.0955
  439MOL0     C60506   9.739   8.106  10.797  0.0029  0.1148 -0.3868
  439MOL0     C60507   9.596   8.141  10.790  1.1619 -0.0040 -0.3023
  439MOL0     C60508   9.569   8.225  10.672  0.4636 -0.5385 -0.1186
  439MOL0     C60509   9.535   8.299  10.575 -0.1185 -0.5241  0.0045
  439MOL0     C60510  10.120   8.303  10.581  0.1685 -0.1311  0.4089
  439MOL0     C60511  10.238   8.372  10.531  0.5057  0.5787  0.3583
  439MOL0     C60512  10.215   8.518  10.516  0.2631  0.3091  0.1691
  439MOL0     H60513  10.612   8.345  10.154 -1.9130 -0.6291  0.2812
  439MOL0     H60514  10.802   8.430  10.055 -0.0045 -0.8658  0.1804
  439MOL0     H60515  11.188   8.429  10.280  0.1625  0.3448  1.0648
  439MOL0     H60516  11.105   8.567  10.341 -0.9694  0.6105 -0.8922
  439MOL0     H60517  11.286   8.558  10.091  3.0222  0.4413  0.8772
  439MOL0     H60518  11.185   8.693  10.136 -2.6634 -2.1002 -0.6845
  439MOL0     H60519  11.317   8.686  10.362  2.3467  0.8860  0.7264
  439MOL0     H60520  11.419   8.557  10.312 -1.4371 -2.1807 -1.6960
  439MOL0     H60521  11.493   8.679  10.105 -0.0912 -0.8579  0.3904
  439MOL0     H60522  11.404   8.813  10.156 -0.6364  0.1748  1.3758
  439MOL0     H60523  11.634   8.681  10.323 -2.1284 -1.5338 -1.5896
  439MOL0     H60524  11.568   8.853  10.336 -1.8726 -1.3840  1.4810
  439MOL0     H60525  11.738   8.738  10.102 -0.0299  1.3382 -2.2406
  439MOL0     H60526  11.644   8.893  10.121  0.4473  1.1239  1.2383
  439MOL0     H60527  11.803   8.974  10.302 -0.7624 -1.2547  2.1012
  439MOL0     H60528  11.881   8.927  10.147 -0.0540  0.1549  0.5140
  439MOL0     H60529  11.853   8.760  10.412 -2.7129 -1.8279 -1.5511
  439MOL0     H60530  11.916   8.700  10.254  2.6027  1.0621  0.5415
  439MOL0     H60531  12.055   9.021  10.466  0.0720  0.4886 -1.4537
  439MOL0     H60532  12.419   8.940  10.523  0.7217  2.3914  0.8150
  439MOL0     H60533  12.316   9.078  10.511  2.1504  1.1354 -1.1655
  439MOL0     H60534  12.522   8.966  10.320  1.4400  1.2952 -0.4510
  439MOL0     H60535  12.375   9.061  10.261 -0.6262 -0.0669  0.7623
  439MOL0     H60536  12.545   9.172  10.486  1.7889 -1.5542 -0.6109
  439MOL0     H60537  12.603   9.162  10.323 -0.6065  0.2408 -0.5217
  439MOL0     H60538  12.388   9.285  10.245 -4.3160 -4.2294  1.9709
  439MOL0     H60539  12.338   9.293  10.406 -0.1316 -0.2536 -0.6198
  439MOL0     H60540  12.699   9.580  10.433  0.9818  2.3024 -0.1078
  439MOL0     H60541  13.017   9.644  10.322 -0.1122  1.5095  0.0285
  439MOL0     H60542  12.875   9.699  10.410 -0.4625 -1.6807  0.2374
  439MOL0     H60543  12.916   9.755  10.239 -1.4084  0.0910 -1.0720
  439MOL0     H60544  13.137   9.410   9.857  2.1712 -0.4734 -1.8597
  439MOL0     H60545  13.368   9.410   9.765  1.2498 -1.8662  1.4670
  439MOL0     H60546  13.683   9.667   9.925 -2.8614  0.4705  1.6745
  439MOL0     H60547  13.694   9.513  10.008 -0.1402 -2.2448 -0.8697
  439MOL0     H60548  13.898   9.542   9.907 -0.6935  2.6300 -1.2818
  439MOL0     H60549  13.821   9.399   9.840 -0.2716  0.3477 -0.1911
  439MOL0     H60550  13.726   9.576   9.657 -1.7421  0.2358  2.6378
  439MOL0     H60551  13.887   9.503   9.633  2.0790  3.6898 -1.1430
  439MOL0     H60552  14.012   9.659   9.707  0.4153  1.4193 -1.9549
  439MOL0     H60553  13.889   9.771   9.752 -2.5746  1.2782 -1.8334
  439MOL0     H60554  13.881   9.672   9.463 -3.5830  0.6958 -0.5007
  439MOL0     H60555  13.801   9.807   9.526 -3.4161 -3.3951  0.9946
  439MOL0     H60556  14.109   9.782   9.520  1.2265  2.1805  2.6421
  439MOL0     H60557  14.020   9.914   9.585  0.8116  1.0523  0.1646
  439MOL0     H60558  13.908   9.976   9.377  0.0020  0.0081 -2.3871
  439MOL0     H60559  13.992   9.842   9.292  0.2690  1.0418 -0.8673
  439MOL0     H60560  14.218   9.957   9.341  0.3078  3.7731 -1.5291
  439MOL0     H60561  14.128  10.095   9.387  2.4266  1.8530 -1.8406
  439MOL0     H60562  13.502   9.627  10.090 -0.5151 -0.4400 -0.3073
  439MOL0     H60563  13.296   9.626  10.193  1.9331 -0.6614  0.6690
  439MOL0     H60564  12.745   9.363   9.982  2.3136  0.2295 -0.2764
  439MOL0     H60565  12.548   9.325  10.104 -3.2015  1.8156  0.2876
  439MOL0     H60566  10.992   8.438  10.446 -0.9587  1.4609  1.4394
  439MOL0     H60567  10.797   8.328  10.538 -1.4336  4.0067  1.1799
  439MOL0     H60568  10.428   8.101  10.466 -0.5632  0.2248 -0.3320
  439MOL0     H60569  10.237   7.980  10.573  1.0589  0.1790  1.8899
  439MOL0     H60570   9.976   8.055  10.857  1.6687  0.2409 -0.0880
  439MOL0     H60571  10.050   8.218  10.836 -0.0195 -1.4313  2.6949
  439MOL0     H60572   9.841   8.283  10.720  0.0904  0.7724  0.7725
  439MOL0     H60573   9.842   8.272  10.895  1.6984  2.2959 -1.2603
  439MOL0     H60574   9.750   8.055  10.701 -1.6898 -2.9788  0.9277
  439MOL0     H60575   9.758   8.032  10.874 -0.1456 -0.1726 -0.6236
  439MOL0     H60576   9.557   8.189  10.880 -0.8522 -2.3652  0.1789
  439MOL0     H60577   9.539   8.049  10.772  1.1772 -0.2965  1.0106
  439MOL0     H60578   9.500   8.357  10.493  1.2882  4.4552  2.5405
  439MOL0     H60579  10.029   8.356  10.609  0.8712  0.9884  0.6251
  439MOL0     H60580  10.229   8.545  10.411  2.2271  2.1249  0.8476
  439MOL0     H60581  10.115   8.553  10.544 -0.5426 -0.1159 -1.9832
  439MOL0     H60582  10.287   8.576  10.573 -1.0828  1.9275  0.3114
  440MOL0     O60583   0.885   0.992   2.848 -0.5623 -0.0237  0.2883
  440MOL0     C60584   0.822   1.096   2.823 -0.4993  0.0178 -0.8230
  440MOL0     O60585   0.848   1.219   2.883 -0.2285 -0.3027 -0.3602
  440MOL0     C60586   0.962   1.226   2.954 -0.5472  0.7854  0.9274
  440MOL0     C60587   1.084   1.278   2.893 -0.5591 -0.2974  0.0600
  440MOL0     C60588   1.208   1.266   2.957  0.2808  0.0500 -0.3002
  440MOL0     C60589   1.211   1.206   3.082  0.9022  0.1268 -0.5812
  440MOL0     O60590   1.329   1.191   3.153 -0.3722  0.2465 -0.1812
  440MOL0     C60591   1.454   1.189   3.078  0.2360  0.6897 -0.3690
  440MOL0     C60592   1.553   1.166   3.187 -0.2874 -0.5977  0.3133
  440MOL0     C60593   1.701   1.182   3.125 -0.4232  0.8714  0.4163
  440MOL0     C60594   1.797   1.135   3.231 -0.4176  1.0676  0.8776
  440MOL0     C60595   1.937   1.189   3.201  0.0579  0.3090 -0.5648
  440MOL0     C60596   2.037   1.148   3.308 -0.2214 -0.2570 -0.0106
  440MOL0     C60597   2.166   1.231   3.297 -0.1062 -0.0776 -0.2790
  440MOL0     C60598   2.231   1.224   3.151  0.5512  0.1405  0.4031
  440MOL0     N60599   2.372   1.250   3.147  0.2672 -0.2748 -0.3013
  440MOL0     C60600   2.435   1.364   3.111  0.3449 -1.2737  0.5891
  440MOL0     C60601   2.567   1.341   3.116  0.8071 -0.4660  0.0585
  440MOL0     C60602   2.665   1.448   3.077 -0.2181 -0.0710  0.4421
  440MOL0     C60603   2.710   1.421   2.940  0.5816  0.3482  0.0029
  440MOL0     C60604   2.796   1.538   2.886 -0.6639  0.2886  0.5391
  440MOL0     C60605   2.802   1.539   2.729 -0.4801  0.4466 -0.2568
  440MOL0     O60606   2.892   1.440   2.666  0.2827 -0.7772 -0.0447
  440MOL0     C60607   3.005   1.406   2.728 -0.0314 -0.4684 -0.4529
  440MOL0     C60608   3.098   1.505   2.743  0.0730 -0.1356  0.0261
  440MOL0     C60609   3.224   1.472   2.792 -0.6998 -0.2459  0.6341
  440MOL0     C60610   3.318   1.587   2.782  0.5324 -0.4073  0.0605
  440MOL0     C60611   3.264   1.343   2.829 -0.5185  0.5312  0.6092
  440MOL0     C60612   3.402   1.312   2.872 -0.2049 -0.3392 -0.2496
  440MOL0     O60613   3.413   1.191   2.938 -0.0191  0.6243  0.1622
  440MOL0     C60614   3.525   1.157   3.008  0.3666 -0.6023  0.0048
  440MOL0     C60615   3.641   1.238   3.044 -0.2226 -0.9811  0.8918
  440MOL0     C60616   3.741   1.166   3.104 -0.6809  0.7143  0.5228
  440MOL0     C60617   3.736   1.027   3.123 -0.5320 -0.6742  0.2614
  440MOL0     O60618   3.846   0.970   3.179  0.0314  0.1681 -0.1558
  440MOL0     C60619   3.835   0.837   3.234 -0.0317 -0.3735  0.1038
  440MOL0     C60620   3.969   0.807   3.299 -0.6510 -0.5751  0.5085
  440MOL0     C60621   4.085   0.853   3.200 -0.2804 -0.0864 -0.5172
  440MOL0     C60622   4.219   0.867   3.264 -0.0272  0.3468  0.6941
  440MOL0     C60623   4.324   0.891   3.161 -0.0149 -1.2086  0.2198
  440MOL0     C60624   4.463   0.877   3.224  0.6343  0.4312  0.4175
  440MOL0     C60625   4.553   0.956   3.128  0.3831 -0.0149  0.3844
  440MOL0     C60626   4.686   0.998   3.202  0.0604  0.4158  0.0288
  440MOL0    Cl60627   4.783   1.099   3.095  0.4362  0.1602  0.0241
  440MOL0     C60628   3.614   0.963   3.094  0.2210  0.7309 -0.3175
  440MOL0     C60629   3.508   1.024   3.035 -0.0708  0.0889  0.0253
  440MOL0     O60630   3.502   1.384   2.846  0.1217  0.3861  0.2673
  440MOL0     C60631   3.159   1.247   2.828  0.1653  0.0872  0.1107
  440MOL0     C60632   3.029   1.277   2.778 -0.3462 -0.7836 -0.0975
  440MOL0     N60633   2.585   1.221   3.171 -0.0997  0.1104 -0.1317
  440MOL0     N60634   2.469   1.162   3.180 -0.4002 -0.0201 -0.3568
  440MOL0     C60635   1.090   1.172   3.148  0.1884  0.0112  0.0679
  440MOL0     C60636   0.966   1.177   3.082  0.5240  0.2207 -0.5582
  440MOL0     C60637   0.729   1.094   2.713  0.2939  0.7197 -0.3591
  440MOL0     C60638   0.699   1.219   2.658 -0.1844 -0.5487 -0.0616
  440MOL0     C60639   0.623   1.233   2.546 -0.0216  0.8594  0.1291
  440MOL0     C60640   0.557   1.121   2.492 -0.0092  0.3499  0.1816
  440MOL0     O60641   0.464   1.119   2.390  0.0448 -0.0362 -0.5303
  440MOL0     C60642   0.413   1.245   2.337  0.0277 -0.3000  0.1638
  440MOL0     C60643   0.261   1.257   2.337 -0.0173 -0.0616 -0.3731
  440MOL0     C60644   0.190   1.202   2.463 -0.3435  0.3085  0.1009
  440MOL0     C60645   0.123   1.317   2.537  0.1345 -0.1571 -1.5608
  440MOL0     C60646   0.045   1.278   2.653  0.4584  0.2177  1.0612
  440MOL0     C60647   0.000   1.270   2.763 -0.8276  0.0205 -0.3913
  440MOL0     C60648   0.567   0.993   2.558 -0.5855 -0.2901 -0.1145
  440MOL0     C60649   0.656   0.980   2.675 -0.8713  0.3428 -0.5157
  440MOL0     C60650   0.657   0.844   2.733 -0.3854 -0.5961  0.2262
  440MOL0     H60651   1.092   1.320   2.793  1.2372 -2.3896 -0.7656
  440MOL0     H60652   1.297   1.309   2.911  0.4125  0.5814  0.4289
  440MOL0     H60653   1.473   1.281   3.021 -1.6633  1.3888  0.0462
  440MOL0     H60654   1.452   1.100   3.015 -1.7025 -1.8410  2.9688
  440MOL0     H60655   1.540   1.248   3.258  0.3914  0.2738 -0.5414
  440MOL0     H60656   1.529   1.071   3.236 -1.6618  0.0795  0.9948
  440MOL0     H60657   1.713   1.127   3.031 -0.1817  0.3187  0.7702
  440MOL0     H60658   1.719   1.286   3.094 -1.6921  1.3286  1.1106
  440MOL0     H60659   1.749   1.151   3.327 -0.3949 -0.8460  1.2448
  440MOL0     H60660   1.803   1.025   3.230 -0.3925  1.0558  1.8204
  440MOL0     H60661   1.939   1.299   3.206 -0.4941  0.2547  2.2196
  440MOL0     H60662   1.962   1.159   3.099  2.0836  1.0489 -0.3312
  440MOL0     H60663   1.998   1.154   3.409  1.7993  0.1594  0.8012
  440MOL0     H60664   2.063   1.043   3.293  1.1513  0.2353 -1.3940
  440MOL0     H60665   2.239   1.190   3.368 -0.6004 -1.2684 -0.4358
  440MOL0     H60666   2.150   1.340   3.296 -0.7186 -0.1685 -1.3358
  440MOL0     H60667   2.219   1.124   3.108  0.9604  0.3880 -0.2969
  440MOL0     H60668   2.182   1.300   3.090  0.8206  0.2692  0.3505
  440MOL0     H60669   2.391   1.458   3.079  1.5542 -1.3133 -1.3599
  440MOL0     H60670   2.756   1.451   3.137  0.3111  1.6836 -0.3587
  440MOL0     H60671   2.609   1.540   3.095 -2.4576 -1.4491  0.8708
  440MOL0     H60672   2.784   1.340   2.945  1.7748  1.3446 -0.8399
  440MOL0     H60673   2.618   1.400   2.884  0.3652 -0.7988  0.7543
  440MOL0     H60674   2.752   1.631   2.920 -3.2229 -1.4488  2.3268
  440MOL0     H60675   2.898   1.534   2.927 -0.9983 -0.0479  1.3647
  440MOL0     H60676   2.698   1.533   2.697 -0.1319  1.2731 -1.5889
  440MOL0     H60677   2.836   1.637   2.694  2.3379  0.6174  2.4842
  440MOL0     H60678   3.063   1.605   2.720  0.1212 -0.0607  0.2753
  440MOL0     H60679   3.255   1.675   2.800  0.0212 -0.8112  0.2567
  440MOL0     H60680   3.361   1.591   2.681  3.5711 -0.7192  1.2217
  440MOL0     H60681   3.404   1.591   2.850 -0.4945  2.2831  1.3693
  440MOL0     H60682   3.662   1.344   3.039  2.1355 -1.3959  1.2141
  440MOL0     H60683   3.837   1.209   3.131  2.5185 -5.4829  0.8788
  440MOL0     H60684   3.756   0.828   3.309 -0.3025  0.5206 -0.0591
  440MOL0     H60685   3.830   0.769   3.149  2.4335  0.9564 -1.2090
  440MOL0     H60686   3.979   0.876   3.383 -0.2395 -0.6748  0.5411
  440MOL0     H60687   3.978   0.703   3.330  3.1549 -1.3917 -2.5777
  440MOL0     H60688   4.069   0.953   3.159  0.5284 -0.0620 -0.7826
  440MOL0     H60689   4.090   0.779   3.120  2.4056  0.8730 -1.3181
  440MOL0     H60690   4.245   0.770   3.307 -1.5263 -1.4093 -2.1232
  440MOL0     H60691   4.222   0.940   3.346  1.5090 -0.8739  1.8002
  440MOL0     H60692   4.314   0.821   3.078 -1.1612  0.4872 -1.1234
  440MOL0     H60693   4.303   0.990   3.120  0.4326 -0.9694  0.5473
  440MOL0     H60694   4.501   0.774   3.216 -0.0082  0.3232 -2.9797
  440MOL0     H60695   4.469   0.923   3.323  1.1364  2.2369 -0.4105
  440MOL0     H60696   4.501   1.044   3.091 -1.0661 -0.1603  1.9684
  440MOL0     H60697   4.560   0.895   3.038 -1.4770 -0.7537  0.6950
  440MOL0     H60698   4.742   0.907   3.226  1.5439  0.9926 -1.0871
  440MOL0     H60699   4.667   1.049   3.297  1.7344 -1.7761  1.6569
  440MOL0     H60700   3.595   0.859   3.117  0.1645  0.6270 -0.8124
  440MOL0     H60701   3.417   0.970   3.010 -1.3899  2.3216 -0.2848
  440MOL0     H60702   3.182   1.148   2.868  4.1206  0.6615 -0.3582
  440MOL0     H60703   2.954   1.201   2.758 -0.1190 -0.4262 -2.7328
  440MOL0     H60704   1.095   1.123   3.244  1.8736 -1.0006 -0.4869
  440MOL0     H60705   0.881   1.139   3.137 -1.9984  2.4689 -2.6163
  440MOL0     H60706   0.729   1.306   2.715 -0.4381  1.0962 -2.2954
  440MOL0     H60707   0.615   1.338   2.520 -2.8716  0.4467 -0.9908
  440MOL0     H60708   0.453   1.329   2.394 -2.1256 -1.9091  4.5135
  440MOL0     H60709   0.448   1.248   2.234  1.3776 -4.9781  0.2767
  440MOL0     H60710   0.220   1.198   2.254 -2.3306  0.4054  0.3474
  440MOL0     H60711   0.236   1.361   2.315 -1.5021 -0.8342 -2.7117
  440MOL0     H60712   0.116   1.125   2.438  0.3230 -0.6298  0.9138
  440MOL0     H60713   0.261   1.152   2.530 -0.7227 -2.3710 -1.3289
  440MOL0     H60714   0.052   1.364   2.469  0.0298  2.7729  0.3776
  440MOL0     H60715   0.194   1.395   2.565 -2.6076  1.7780  0.6195
  440MOL0     H60716  -0.034   1.252   2.863  1.7474 -1.3133  0.3306
  440MOL0     H60717   0.496   0.913   2.541 -2.0290  0.4760  1.8713
  440MOL0     H60718   0.692   0.852   2.836 -1.6459  1.1931  0.5759
  440MOL0     H60719   0.551   0.819   2.744 -0.3931 -0.0926  1.5318
  440MOL0     H60720   0.723   0.785   2.669  2.7797  2.2829  0.5559
  441MOL0     O60721   4.005   1.412   4.851  0.5557  0.5049 -0.2324
  441MOL0     C60722   3.972   1.377   4.737  0.5622  0.3267  0.8053
  441MOL0     O60723   4.054   1.371   4.638  0.7622  0.0595  0.1559
  441MOL0     C60724   4.179   1.418   4.645 -0.6714 -0.7845  0.3064
  441MOL0     C60725   4.218   1.536   4.710  0.0800  0.5436  0.5937
  441MOL0     C60726   4.358   1.555   4.717 -0.4154 -0.7286  0.1184
  441MOL0     C60727   4.457   1.478   4.657 -0.3327 -0.0426 -0.7171
  441MOL0     O60728   4.597   1.479   4.664 -0.3069  0.2314 -0.5772
  441MOL0     C60729   4.653   1.577   4.753  0.4926  0.2695 -0.1606
  441MOL0     C60730   4.800   1.550   4.772 -0.4798 -0.9970  0.4285
  441MOL0     C60731   4.881   1.636   4.671 -0.1132  0.0667  0.8144
  441MOL0     C60732   5.024   1.592   4.685 -0.4590 -0.4607 -0.1375
  441MOL0     C60733   5.121   1.686   4.612 -0.0100 -0.6019 -0.3400
  441MOL0     C60734   5.253   1.620   4.600  0.0775  0.3533  0.0911
  441MOL0     C60735   5.351   1.705   4.514 -0.1996 -0.1380 -0.2960
  441MOL0     C60736   5.426   1.630   4.402 -0.7357 -0.0106  0.5027
  441MOL0     N60737   5.541   1.710   4.351  0.2806 -0.1910  0.0449
  441MOL0     C60738   5.654   1.754   4.420  0.2879  0.4492 -0.2876
  441MOL0     C60739   5.715   1.845   4.343 -0.0416 -0.3304  0.2505
  441MOL0     C60740   5.841   1.928   4.375 -1.0615 -0.5092  0.1456
  441MOL0     C60741   5.963   1.871   4.298  0.3774 -0.0733  0.2559
  441MOL0     C60742   5.963   1.898   4.140 -0.0102  0.1971  0.2671
  441MOL0     C60743   6.098   1.857   4.090  0.5250 -0.3373  0.2288
  441MOL0     O60744   6.105   1.920   3.961 -0.5540 -0.3894 -0.1192
  441MOL0     C60745   6.229   1.961   3.911 -0.1931  0.4782  0.4267
  441MOL0     C60746   6.285   1.892   3.800  0.1587 -0.0981  0.1677
  441MOL0     C60747   6.405   1.940   3.744 -0.3378  0.6487  0.2716
  441MOL0     C60748   6.450   1.850   3.634 -0.1177  0.5702 -0.3899
  441MOL0     C60749   6.468   2.046   3.791 -0.2886 -1.0784 -0.2827
  441MOL0     C60750   6.592   2.098   3.748 -0.3492 -1.5972 -0.1427
  441MOL0     O60751   6.613   2.227   3.790 -1.0252 -0.9656 -0.4105
  441MOL0     C60752   6.725   2.295   3.767 -0.3465  0.1976 -0.2739
  441MOL0     C60753   6.857   2.240   3.761 -0.4950  0.2343 -0.6110
  441MOL0     C60754   6.972   2.319   3.763  1.0499  0.1408  0.0851
  441MOL0     C60755   6.956   2.457   3.777  1.0952 -0.1739  0.1774
  441MOL0     O60756   7.073   2.527   3.788  0.0991 -0.3298 -0.1627
  441MOL0     C60757   7.066   2.667   3.749  0.2957  0.2932  0.9656
  441MOL0     C60758   7.210   2.707   3.712 -0.1415  1.2212 -0.8934
  441MOL0     C60759   7.234   2.744   3.562 -0.2251  0.4592 -0.4607
  441MOL0     C60760   7.369   2.815   3.549  0.0891 -0.3760  0.1866
  441MOL0     C60761   7.403   2.859   3.405 -0.8509 -0.1989  0.1470
  441MOL0     C60762   7.510   2.975   3.417 -0.0941  0.3472 -0.0074
  441MOL0     C60763   7.604   2.992   3.304 -0.0044 -0.8573  0.0528
  441MOL0     C60764   7.698   2.872   3.292  0.4368  0.1205  0.0432
  441MOL0    Cl60765   7.799   2.882   3.145 -0.1664 -0.3073 -0.5121
  441MOL0     C60766   6.825   2.519   3.781  0.4265 -0.1787 -0.1416
  441MOL0     C60767   6.713   2.438   3.767 -0.4669  0.3080 -0.4012
  441MOL0     O60768   6.678   2.029   3.695  0.2797 -0.0772  0.0589
  441MOL0     C60769   6.406   2.116   3.899 -0.6376 -0.0583  0.3494
  441MOL0     C60770   6.294   2.066   3.964 -0.8799 -0.2345 -0.4574
  441MOL0     N60771   5.643   1.841   4.226 -1.1567 -0.0540 -0.1354
  441MOL0     N60772   5.542   1.765   4.230 -0.0428 -0.0510  0.1984
  441MOL0     C60773   4.413   1.371   4.590 -0.0850 -0.8961 -0.1066
  441MOL0     C60774   4.280   1.342   4.577  0.2980  0.3693  0.3527
  441MOL0     C60775   3.829   1.337   4.725 -0.4285  0.0610 -0.5067
  441MOL0     C60776   3.749   1.327   4.845  1.5219 -0.2519  0.4430
  441MOL0     C60777   3.611   1.300   4.840 -0.2328 -1.0185 -0.0366
  441MOL0     C60778   3.548   1.277   4.715 -0.7941  0.6331 -0.3499
  441MOL0     O60779   3.414   1.283   4.685  0.2733  0.3634 -0.5833
  441MOL0     C60780   3.315   1.288   4.788  0.0880 -0.0325  0.6736
  441MOL0     C60781   3.220   1.165   4.788  0.3219 -0.4057  0.2092
  441MOL0     C60782   3.281   1.049   4.859  0.7741  0.1929  1.0003
  441MOL0     C60783   3.290   1.050   5.006 -1.2237 -0.8664  0.2800
  441MOL0     C60784   3.166   1.069   5.074 -0.8233  0.2075  0.0530
  441MOL0     C60785   3.052   1.082   5.115  0.6405  0.0587  0.8519
  441MOL0     C60786   3.626   1.290   4.602 -0.7178 -0.3843 -0.1154
  441MOL0     C60787   3.771   1.310   4.599  0.3186 -0.0677 -0.5379
  441MOL0     C60788   3.836   1.315   4.462 -0.7177  0.2070 -0.1022
  441MOL0     H60789   4.150   1.603   4.762 -0.3803  0.7513 -0.2577
  441MOL0     H60790   4.391   1.640   4.776 -1.4784 -1.1058  1.2975
  441MOL0     H60791   4.612   1.564   4.854  2.1905 -0.2534  0.4864
  441MOL0     H60792   4.640   1.682   4.725  1.4497  0.9114  1.6701
  441MOL0     H60793   4.833   1.589   4.869 -0.8789  1.1746 -0.2566
  441MOL0     H60794   4.832   1.446   4.760 -0.5635 -1.0118  0.3315
  441MOL0     H60795   4.833   1.645   4.572  0.5905  0.8064  0.5305
  441MOL0     H60796   4.872   1.740   4.704  0.3656  0.0259  1.0824
  441MOL0     H60797   5.059   1.578   4.788 -2.6324  1.1993  0.9169
  441MOL0     H60798   5.034   1.495   4.636 -2.4206 -1.8087  1.9131
  441MOL0     H60799   5.134   1.788   4.652  2.1453  0.1351 -2.6506
  441MOL0     H60800   5.079   1.704   4.512  0.0132  3.5288  0.2192
  441MOL0     H60801   5.294   1.606   4.700 -1.1898  0.9850  0.7314
  441MOL0     H60802   5.248   1.518   4.562 -3.1117 -0.1060  1.3974
  441MOL0     H60803   5.427   1.736   4.586  0.3647 -0.1502 -0.8841
  441MOL0     H60804   5.299   1.794   4.478 -1.2519  0.1493  1.7695
  441MOL0     H60805   5.461   1.534   4.440  2.3221 -0.5920 -3.2058
  441MOL0     H60806   5.362   1.613   4.314  0.0097  0.7953 -0.2159
  441MOL0     H60807   5.693   1.722   4.516 -0.4352  1.1029  0.2329
  441MOL0     H60808   5.862   1.920   4.482 -1.0737  2.0638  0.4158
  441MOL0     H60809   5.820   2.033   4.350 -2.9204 -1.4458 -2.5963
  441MOL0     H60810   6.049   1.904   4.357 -0.0838  0.2225  0.7757
  441MOL0     H60811   5.964   1.762   4.305  1.7184 -0.0396  1.1195
  441MOL0     H60812   5.886   1.836   4.094  0.3533  1.0751 -1.5823
  441MOL0     H60813   5.962   2.005   4.117  2.2676 -0.3542 -3.2294
  441MOL0     H60814   6.183   1.895   4.149 -1.9512  2.5381  2.2252
  441MOL0     H60815   6.100   1.748   4.075 -0.2962 -0.6324  1.9847
  441MOL0     H60816   6.242   1.800   3.763 -1.1457  0.6555 -0.2474
  441MOL0     H60817   6.508   1.907   3.562  0.9110  0.1119  0.0484
  441MOL0     H60818   6.365   1.813   3.576 -0.1414  2.3440 -1.5477
  441MOL0     H60819   6.502   1.760   3.670 -1.1461 -0.9402 -2.4857
  441MOL0     H60820   6.868   2.134   3.747 -1.9980  0.4378 -4.2952
  441MOL0     H60821   7.069   2.273   3.779  0.9301  0.8376  3.8071
  441MOL0     H60822   7.007   2.689   3.660  1.3909  0.8137  0.3615
  441MOL0     H60823   7.018   2.734   3.821 -1.7159 -0.5891  0.5322
  441MOL0     H60824   7.251   2.784   3.779  0.5597  2.7004 -2.9133
  441MOL0     H60825   7.280   2.627   3.737 -0.5942  0.9779 -0.3793
  441MOL0     H60826   7.149   2.800   3.523 -2.6306 -0.4155  3.0295
  441MOL0     H60827   7.239   2.650   3.507  0.1962 -0.1789  0.6397
  441MOL0     H60828   7.442   2.748   3.596 -1.0197 -1.3951  0.5250
  441MOL0     H60829   7.362   2.906   3.608 -1.0333  1.1216 -2.1159
  441MOL0     H60830   7.428   2.777   3.338  1.8598  0.8120 -0.2117
  441MOL0     H60831   7.319   2.906   3.353 -0.9404 -0.3584  0.1484
  441MOL0     H60832   7.566   2.955   3.509 -2.0057  0.7146  1.3153
  441MOL0     H60833   7.450   3.066   3.423 -0.4305  0.0620  1.2920
  441MOL0     H60834   7.654   3.089   3.312 -0.6216 -0.5673  0.4507
  441MOL0     H60835   7.547   2.989   3.210  1.6779 -2.8565 -0.9903
  441MOL0     H60836   7.638   2.782   3.286 -0.9260  1.0595 -0.8320
  441MOL0     H60837   7.756   2.856   3.384 -0.8261 -0.1087  0.8114
  441MOL0     H60838   6.811   2.626   3.788 -0.5347 -0.4027  2.0431
  441MOL0     H60839   6.620   2.493   3.765  0.2675  1.7421  1.5486
  441MOL0     H60840   6.450   2.205   3.943  1.5387 -1.5120  1.3050
  441MOL0     H60841   6.270   2.111   4.060 -0.8053 -1.9747  0.4319
  441MOL0     H60842   4.490   1.318   4.534  0.0913 -0.2601 -0.4779
  441MOL0     H60843   4.239   1.253   4.529  1.8882 -0.4010  0.3447
  441MOL0     H60844   3.799   1.353   4.937  0.4747 -0.6713  1.1515
  441MOL0     H60845   3.549   1.300   4.929 -2.0571 -1.4348 -1.2546
  441MOL0     H60846   3.345   1.317   4.889 -2.4570  0.0665  1.4700
  441MOL0     H60847   3.254   1.375   4.762  1.1664  1.1621  1.9221
  441MOL0     H60848   3.217   1.143   4.681 -0.3822  0.3672  0.0587
  441MOL0     H60849   3.117   1.182   4.818 -0.3124 -1.5754 -1.1786
  441MOL0     H60850   3.229   0.958   4.830 -1.4389  0.4619  3.7024
  441MOL0     H60851   3.385   1.044   4.825  0.2263 -0.3737 -0.6858
  441MOL0     H60852   3.366   1.120   5.041 -0.9758 -1.8002  1.6993
  441MOL0     H60853   3.337   0.956   5.036  2.2618  0.1744 -1.3360
  441MOL0     H60854   2.948   1.107   5.128  0.4998 -0.4966  0.8140
  441MOL0     H60855   3.582   1.283   4.502  0.8295  0.1075 -0.8577
  441MOL0     H60856   3.871   1.417   4.448  1.0457  0.2005  3.1835
  441MOL0     H60857   3.917   1.243   4.450 -2.1624 -1.4710 -0.2235
  441MOL0     H60858   3.763   1.287   4.385  0.4763 -1.0267 -0.8329
  442MOL0     O60859   1.401   8.500   2.976  0.3763  0.1412  0.0014
  442MOL0     C60860   1.339   8.604   2.966 -0.0069  0.6861  0.2924
  442MOL0     O60861   1.389   8.721   2.942 -0.0806 -0.2775  0.2481
  442MOL0     C60862   1.512   8.737   2.992  0.2395  0.5657  0.6586
  442MOL0     C60863   1.597   8.814   2.911  0.0823 -0.4939  0.8605
  442MOL0     C60864   1.721   8.860   2.950  0.4529  0.5059 -0.4638
  442MOL0     C60865   1.769   8.822   3.072 -0.1666  1.0273 -0.6168
  442MOL0     O60866   1.890   8.878   3.109  0.2409  0.1095 -0.2052
  442MOL0     C60867   1.976   8.793   3.197 -0.0658 -0.5242 -0.2696
  442MOL0     C60868   2.037   8.676   3.128 -0.0637  0.2545  0.8617
  442MOL0     C60869   2.135   8.720   3.015 -0.8057  0.1475  0.5060
  442MOL0     C60870   2.266   8.756   3.079 -0.7127 -0.1381 -1.3729
  442MOL0     C60871   2.339   8.841   2.978  0.3831  0.1295 -1.3208
  442MOL0     C60872   2.471   8.893   3.016 -0.0788  0.0163  0.1388
  442MOL0     C60873   2.578   8.818   2.929  1.1984  0.2692 -0.7741
  442MOL0     C60874   2.708   8.865   2.993 -0.1154 -0.1553 -0.5251
  442MOL0     N60875   2.736   8.810   3.126  0.3107  0.2588  0.1252
  442MOL0     C60876   2.721   8.680   3.163 -0.8879 -0.3994  0.4899
  442MOL0     C60877   2.761   8.675   3.287  0.4905  0.1100  1.1857
  442MOL0     C60878   2.754   8.550   3.369 -0.1285  0.0120 -0.1980
  442MOL0     C60879   2.607   8.502   3.378 -0.0870  0.2734  0.0074
  442MOL0     C60880   2.521   8.618   3.420  0.0047  0.2772  0.1508
  442MOL0     C60881   2.371   8.581   3.447  0.3765  1.1522 -0.1201
  442MOL0     O60882   2.314   8.703   3.505  0.0192  0.1950  0.0156
  442MOL0     C60883   2.176   8.704   3.521 -0.8335 -0.4120  0.9816
  442MOL0     C60884   2.084   8.603   3.479  0.8752 -0.1662 -1.4101
  442MOL0     C60885   1.943   8.608   3.512  0.1883 -0.0761  0.6487
  442MOL0     C60886   1.865   8.484   3.477  0.3217  0.5479 -0.1129
  442MOL0     C60887   1.891   8.726   3.568  0.5015 -0.2986  0.1389
  442MOL0     C60888   1.748   8.747   3.589  0.0536 -0.2531  0.2988
  442MOL0     O60889   1.658   8.668   3.533 -0.2365  1.1136  0.0108
  442MOL0     C60890   1.524   8.705   3.531 -0.0926  0.4075 -0.5903
  442MOL0     C60891   1.467   8.830   3.511  0.3641  0.7956 -0.9327
  442MOL0     C60892   1.327   8.833   3.482 -0.0895 -0.1434 -0.5969
  442MOL0     C60893   1.240   8.723   3.481 -0.1427  0.5563  0.5044
  442MOL0     O60894   1.103   8.724   3.466  0.3448 -0.0274 -0.9924
  442MOL0     C60895   1.040   8.840   3.511  0.3191  0.1529 -0.4905
  442MOL0     C60896   0.894   8.841   3.481  0.3364 -0.1809 -0.4908
  442MOL0     C60897   0.810   8.784   3.599  0.6414  0.4613  0.4227
  442MOL0     C60898   0.668   8.734   3.550 -0.6001 -0.2228  0.3005
  442MOL0     C60899   0.593   8.860   3.488 -0.7516 -0.2495 -0.2696
  442MOL0     C60900   0.601   8.883   3.337 -0.3217  0.3370 -0.4003
  442MOL0     C60901   0.599   8.762   3.242 -0.2728  0.1482  0.8086
  442MOL0     C60902   0.605   8.810   3.098 -0.8422 -0.0711  0.9805
  442MOL0    Cl60903   0.454   8.886   3.065  0.0130  0.1105 -0.5634
  442MOL0     C60904   1.297   8.604   3.501  0.1192  0.5599 -0.2806
  442MOL0     C60905   1.439   8.598   3.525  0.2304  0.0804 -0.4530
  442MOL0     O60906   1.721   8.847   3.656 -0.1274  0.1030 -0.7674
  442MOL0     C60907   1.978   8.828   3.605  0.1476  0.2458  0.3403
  442MOL0     C60908   2.117   8.818   3.585 -0.2621  0.6136  0.6118
  442MOL0     N60909   2.802   8.798   3.324  0.1745  0.2079  0.5604
  442MOL0     N60910   2.781   8.877   3.233 -0.2803  0.0051  0.7573
  442MOL0     C60911   1.691   8.740   3.159 -0.2729 -0.0287  0.5277
  442MOL0     C60912   1.566   8.694   3.115 -0.9540 -0.1900  0.7001
  442MOL0     C60913   1.198   8.604   2.937 -0.5983 -0.3977  0.3132
  442MOL0     C60914   1.145   8.522   2.833  0.4099  0.2683  0.1613
  442MOL0     C60915   1.021   8.543   2.784  0.6522  0.3832 -0.1363
  442MOL0     C60916   0.933   8.636   2.842 -1.3021  0.2913 -0.3879
  442MOL0     O60917   0.801   8.660   2.813 -0.3663 -0.1233 -0.3448
  442MOL0     C60918   0.716   8.558   2.748 -0.2372  0.6427 -0.4724
  442MOL0     C60919   0.684   8.612   2.610  0.3031 -0.1370  0.5787
  442MOL0     C60920   0.569   8.534   2.536 -0.3892 -0.4833  0.2458
  442MOL0     C60921   0.536   8.383   2.571 -0.6145 -1.4951 -0.4428
  442MOL0     C60922   0.462   8.300   2.477  0.1783 -0.3299  0.7828
  442MOL0     C60923   0.399   8.233   2.403  0.4308 -0.5688 -0.2304
  442MOL0     C60924   0.979   8.704   2.954  0.6990 -0.0521  0.5171
  442MOL0     C60925   1.112   8.692   3.002  0.1342  1.1408 -0.3562
  442MOL0     C60926   1.145   8.754   3.131  0.0993  0.2791 -0.1645
  442MOL0     H60927   1.551   8.851   2.820 -0.3299  0.2751  1.3666
  442MOL0     H60928   1.774   8.933   2.889  0.8877  0.5919  0.0083
  442MOL0     H60929   1.910   8.758   3.277  0.1327 -1.2583 -0.4154
  442MOL0     H60930   2.051   8.855   3.247  0.9695 -0.1671 -2.1653
  442MOL0     H60931   2.089   8.616   3.204  2.6095  3.2179  1.6073
  442MOL0     H60932   1.956   8.620   3.081  0.7095  0.3496 -0.6582
  442MOL0     H60933   2.152   8.648   2.934  0.5937  3.6030 -2.5070
  442MOL0     H60934   2.096   8.802   2.954  0.9005  0.1888 -0.5948
  442MOL0     H60935   2.245   8.807   3.173 -1.2759  1.0367 -2.1160
  442MOL0     H60936   2.324   8.668   3.108 -0.4576  0.3277 -0.4360
  442MOL0     H60937   2.274   8.928   2.975  0.2363  0.4866  3.9873
  442MOL0     H60938   2.347   8.770   2.894  0.9446  0.2371 -1.3612
  442MOL0     H60939   2.463   9.000   2.995 -3.2729 -0.2784 -0.7500
  442MOL0     H60940   2.497   8.891   3.122 -0.2331  0.9492  0.2024
  442MOL0     H60941   2.568   8.848   2.824 -2.4677 -1.9428 -1.2419
  442MOL0     H60942   2.570   8.709   2.929 -0.2879  0.3617  0.1367
  442MOL0     H60943   2.787   8.830   2.926  0.9038  0.9059  0.0925
  442MOL0     H60944   2.714   8.974   2.997  1.4557 -0.2437  0.8665
  442MOL0     H60945   2.687   8.597   3.101  0.5378 -1.2171  0.7485
  442MOL0     H60946   2.787   8.578   3.470  0.1330 -0.0897 -0.2559
  442MOL0     H60947   2.824   8.484   3.319  1.7104  1.7558 -0.0675
  442MOL0     H60948   2.574   8.481   3.276 -1.7990  2.3098  0.0677
  442MOL0     H60949   2.602   8.412   3.440 -0.7263 -1.7591 -2.8200
  442MOL0     H60950   2.552   8.662   3.515 -0.7853 -1.8162  1.4335
  442MOL0     H60951   2.521   8.697   3.343 -0.5840  0.8998  0.7733
  442MOL0     H60952   2.313   8.555   3.358  0.3944 -0.3641  0.2790
  442MOL0     H60953   2.351   8.494   3.509 -1.3913  0.0830 -2.0443
  442MOL0     H60954   2.111   8.508   3.435 -2.5051 -3.3104  2.4934
  442MOL0     H60955   1.920   8.401   3.430  1.8848  0.5651  1.5529
  442MOL0     H60956   1.795   8.505   3.396  0.4361  2.7586  0.3133
  442MOL0     H60957   1.807   8.453   3.564 -4.3412  0.4249 -2.9499
  442MOL0     H60958   1.528   8.920   3.512  0.3363  0.8128 -0.5365
  442MOL0     H60959   1.283   8.930   3.458  1.0525  0.8774  1.2266
  442MOL0     H60960   1.053   8.869   3.616  1.9636  0.4230 -0.7398
  442MOL0     H60961   1.084   8.917   3.447  2.4677 -0.4302  0.2225
  442MOL0     H60962   0.872   8.947   3.467 -0.0683 -0.0661  0.8142
  442MOL0     H60963   0.874   8.788   3.388 -0.4355 -1.0207  0.1307
  442MOL0     H60964   0.783   8.857   3.677 -2.1008  1.9361 -1.7226
  442MOL0     H60965   0.870   8.700   3.635  0.9817  1.4305  2.2318
  442MOL0     H60966   0.607   8.684   3.626 -0.1269 -1.0242  0.1690
  442MOL0     H60967   0.667   8.653   3.476 -3.0753 -3.5247  3.5701
  442MOL0     H60968   0.487   8.850   3.510 -1.2391  2.4635 -1.0365
  442MOL0     H60969   0.611   8.955   3.539 -1.2935  0.7659 -1.8969
  442MOL0     H60970   0.686   8.949   3.316  0.9010 -1.4518 -1.3472
  442MOL0     H60971   0.521   8.949   3.303 -0.5209 -0.5798 -1.8286
  442MOL0     H60972   0.504   8.709   3.247 -0.6495  0.6461 -0.7249
  442MOL0     H60973   0.675   8.683   3.249 -1.4599 -1.1638 -0.4611
  442MOL0     H60974   0.634   8.729   3.030  1.3977  2.2008 -0.9859
  442MOL0     H60975   0.685   8.884   3.091  0.7809 -1.8134  0.0434
  442MOL0     H60976   1.229   8.519   3.509 -2.1968  2.3251 -0.2145
  442MOL0     H60977   1.474   8.499   3.551 -5.6647 -2.1346  0.6785
  442MOL0     H60978   1.955   8.926   3.645  0.8247  0.2652  0.6996
  442MOL0     H60979   2.183   8.897   3.620 -0.7814  0.8955  0.9753
  442MOL0     H60980   1.727   8.712   3.257  1.1899  1.8121  0.5736
  442MOL0     H60981   1.508   8.643   3.192  0.3157  1.4218  2.8709
  442MOL0     H60982   1.207   8.448   2.783  0.0921 -1.9150  2.7392
  442MOL0     H60983   0.990   8.478   2.703  0.9769  0.4976 -0.3550
  442MOL0     H60984   0.776   8.466   2.752  1.5253  1.6977 -1.1908
  442MOL0     H60985   0.630   8.553   2.815  0.2807  3.8956  0.6134
  442MOL0     H60986   0.774   8.605   2.549 -0.2874 -1.5605 -0.1729
  442MOL0     H60987   0.645   8.714   2.622 -1.5985 -0.8099  0.3747
  442MOL0     H60988   0.477   8.593   2.543  1.2402  2.4373 -0.9357
  442MOL0     H60989   0.596   8.539   2.430 -0.6314 -0.2167  0.1933
  442MOL0     H60990   0.468   8.387   2.657  0.3532 -0.7940  0.3102
  442MOL0     H60991   0.629   8.334   2.601 -0.4659  0.4412  2.6088
  442MOL0     H60992   0.321   8.179   2.352  0.4232  2.0481 -3.2549
  442MOL0     H60993   0.910   8.774   3.002 -1.5371 -1.3273 -0.6634
  442MOL0     H60994   1.201   8.847   3.122 -1.2883  1.4413  2.3145
  442MOL0     H60995   1.053   8.785   3.181  1.5546  1.5918  1.8112
  442MOL0     H60996   1.187   8.687   3.207  2.4561  1.2289 -0.5504
  443MOL0     O60997   5.127   0.606   9.846 -0.4754 -0.1030  0.0480
  443MOL0     C60998   5.070   0.497   9.866 -0.3999  0.6518 -0.9452
  443MOL0     O60999   5.055   0.442   9.986  0.1572 -0.0148  0.4986
  443MOL0     C61000   5.092   0.522  10.091  0.5611  0.2542  0.1664
  443MOL0     C61001   5.218   0.547  10.132  0.0001  0.2464  0.2967
  443MOL0     C61002   5.258   0.606  10.249 -0.1383 -0.4961 -0.0329
  443MOL0     C61003   5.162   0.642  10.345  0.6503  0.3004 -0.8252
  443MOL0     O61004   5.181   0.683  10.475  0.3748 -0.4948 -0.7622
  443MOL0     C61005   5.314   0.725  10.514  0.0252 -0.4344 -0.4878
  443MOL0     C61006   5.297   0.746  10.666 -0.5207  0.2414 -0.5714
  443MOL0     C61007   5.433   0.766  10.745 -0.1056 -0.1942  0.8046
  443MOL0     C61008   5.415   0.752  10.894  0.1156  0.4650  0.2142
  443MOL0     C61009   5.499   0.637  10.953 -0.0333  0.2410  0.4585
  443MOL0     C61010   5.476   0.618  11.101  0.1093 -0.1707 -0.2359
  443MOL0     C61011   5.551   0.494  11.145 -0.5150  0.0698 -0.2938
  443MOL0     C61012   5.538   0.461  11.298 -0.1029 -0.1302  0.5224
  443MOL0     N61013   5.661   0.384  11.328 -0.0897  0.3719 -0.5316
  443MOL0     C61014   5.666   0.266  11.392  0.8476  0.5050  0.2164
  443MOL0     C61015   5.788   0.261  11.455  1.0697  0.2237  1.3768
  443MOL0     C61016   5.847   0.155  11.545  0.2510  0.4641 -0.2121
  443MOL0     C61017   5.888   0.021  11.482  0.7314 -0.4861  0.5637
  443MOL0     C61018   5.971   0.039  11.352  0.3169 -0.7782 -0.5641
  443MOL0     C61019   6.010  -0.093  11.282  0.1026  0.0762  0.1851
  443MOL0     O61020   5.893  -0.176  11.260 -0.2381 -0.2764 -0.2871
  443MOL0     C61021   5.913  -0.310  11.236  0.4939  0.3063  0.3245
  443MOL0     C61022   5.804  -0.402  11.228  0.1753 -1.1648 -0.5959
  443MOL0     C61023   5.805  -0.535  11.203  0.0180  0.2375 -0.0397
  443MOL0     C61024   5.675  -0.618  11.194  0.0052 -0.7286  0.1926
  443MOL0     C61025   5.931  -0.602  11.204  0.4846  0.3960  0.1569
  443MOL0     C61026   5.964  -0.748  11.196  0.0531 -0.2183  0.9537
  443MOL0     O61027   6.082  -0.785  11.232 -0.1255  0.8134 -0.5073
  443MOL0     C61028   6.112  -0.924  11.233  0.5612  0.5023  0.1401
  443MOL0     C61029   6.233  -0.979  11.187  0.5191  0.3483  0.5614
  443MOL0     C61030   6.255  -1.118  11.192 -0.4972  0.7000 -0.5711
  443MOL0     C61031   6.168  -1.205  11.259 -0.5757 -0.5280 -0.5740
  443MOL0     O61032   6.180  -1.343  11.267 -0.2712  0.2569  0.4556
  443MOL0     C61033   6.308  -1.395  11.237  0.4968 -0.2588 -0.2504
  443MOL0     C61034   6.327  -1.450  11.091  0.0709 -0.4403 -0.0054
  443MOL0     C61035   6.430  -1.562  11.085 -0.6390 -0.0194  0.2094
  443MOL0     C61036   6.380  -1.696  11.044  0.8227  0.7719  0.6510
  443MOL0     C61037   6.486  -1.805  11.022 -0.6590  0.7211 -0.5303
  443MOL0     C61038   6.595  -1.753  10.937 -0.1259  0.3679 -1.0721
  443MOL0     C61039   6.683  -1.867  10.899 -0.6789  0.3120 -0.3180
  443MOL0     C61040   6.804  -1.811  10.829  0.2610 -0.7875  0.0346
  443MOL0    Cl61041   6.900  -1.947  10.753  0.2061  0.0163  0.2150
  443MOL0     C61042   6.057  -1.143  11.321  0.1496 -0.1896 -0.3702
  443MOL0     C61043   6.028  -1.011  11.303  0.2632 -0.1859 -0.7027
  443MOL0     O61044   5.893  -0.809  11.124 -0.2990  0.4293 -0.2060
  443MOL0     C61045   6.044  -0.516  11.202  0.5336 -0.3986 -0.7622
  443MOL0     C61046   6.037  -0.379  11.225 -0.0247 -0.6369  0.1601
  443MOL0     N61047   5.852   0.382  11.427 -0.5349 -0.2651  0.9424
  443MOL0     N61048   5.773   0.452  11.357 -0.4265  0.1713 -0.0381
  443MOL0     C61049   5.030   0.605  10.311  0.7728  0.1621  0.4967
  443MOL0     C61050   4.993   0.549  10.192 -0.1624  0.0333  0.1556
  443MOL0     C61051   5.006   0.451   9.744  0.2108 -0.2340  0.9991
  443MOL0     C61052   4.996   0.529   9.627 -0.4891  0.9486  0.5350
  443MOL0     C61053   4.942   0.497   9.503 -0.0655  0.2884 -0.0287
  443MOL0     C61054   4.884   0.365   9.491  0.8431  0.5598 -0.4457
  443MOL0     O61055   4.824   0.317   9.381  0.3908  0.3264 -0.6444
  443MOL0     C61056   4.793   0.401   9.271  0.0491 -0.5061  1.0530
  443MOL0     C61057   4.737   0.321   9.153  0.0314  0.2306  0.2187
  443MOL0     C61058   4.614   0.236   9.212 -0.0531 -0.6594  0.3898
  443MOL0     C61059   4.501   0.224   9.125 -0.7045 -0.7876  0.0717
  443MOL0     C61060   4.539   0.175   8.991  0.0652 -0.3075  0.0767
  443MOL0     C61061   4.582   0.136   8.883 -0.5512 -0.5225  0.2754
  443MOL0     C61062   4.881   0.280   9.609  0.4169 -0.4614  0.3732
  443MOL0     C61063   4.939   0.329   9.734 -0.6443  0.8373  0.9076
  443MOL0     C61064   4.919   0.231   9.846  0.1981  0.2225 -0.9122
  443MOL0     H61065   5.299   0.520  10.065  1.0221 -0.2646  1.6962
  443MOL0     H61066   5.365   0.621  10.258 -0.3997 -0.1906  4.2672
  443MOL0     H61067   5.343   0.818  10.465  1.5849  0.7563  2.4650
  443MOL0     H61068   5.390   0.651  10.487 -0.7752 -0.6015 -2.4651
  443MOL0     H61069   5.228   0.830  10.668 -2.3692 -1.2103 -1.0954
  443MOL0     H61070   5.241   0.664  10.711 -0.8553  0.3933 -0.7088
  443MOL0     H61071   5.507   0.693  10.710  0.7872  1.4929 -1.0187
  443MOL0     H61072   5.482   0.861  10.720 -2.9061  0.5972 -2.5413
  443MOL0     H61073   5.447   0.852  10.923  1.2045  1.2026 -3.1491
  443MOL0     H61074   5.308   0.738  10.914 -0.3647  1.5275 -1.4311
  443MOL0     H61075   5.603   0.657  10.925  0.4574 -1.8126  0.6080
  443MOL0     H61076   5.466   0.540  10.913 -3.2882  2.3575 -2.5489
  443MOL0     H61077   5.520   0.706  11.150 -1.0187  0.8709 -1.0339
  443MOL0     H61078   5.367   0.622  11.110  0.1027  1.0002 -0.6151
  443MOL0     H61079   5.657   0.517  11.131 -0.5408  1.7890  1.8169
  443MOL0     H61080   5.536   0.402  11.088  1.6644 -0.5434  0.0447
  443MOL0     H61081   5.538   0.552  11.357  0.1203 -1.0030  1.9086
  443MOL0     H61082   5.451   0.399  11.322  0.2053  0.0635  2.2507
  443MOL0     H61083   5.594   0.185  11.385  1.0859  0.1287  1.8536
  443MOL0     H61084   5.784   0.138  11.633  2.1613 -3.1931  0.6396
  443MOL0     H61085   5.939   0.195  11.589 -0.1870 -1.0058  2.2172
  443MOL0     H61086   5.941  -0.033  11.561 -1.9578  0.6303  3.3093
  443MOL0     H61087   5.801  -0.037  11.450  0.8101  0.7297 -2.0765
  443MOL0     H61088   5.917   0.096  11.275  1.3406  0.6519 -0.2645
  443MOL0     H61089   6.057   0.100  11.382  0.2816 -2.4890  3.5494
  443MOL0     H61090   6.046  -0.073  11.181  0.6891  0.7494  0.5174
  443MOL0     H61091   6.087  -0.137  11.346  0.6901 -1.8186 -1.6969
  443MOL0     H61092   5.709  -0.352  11.246  0.0674 -1.3694 -0.6007
  443MOL0     H61093   5.655  -0.635  11.088  1.3326 -0.0540 -0.2005
  443MOL0     H61094   5.595  -0.549  11.223 -0.4515 -0.9802 -0.4497
  443MOL0     H61095   5.662  -0.707  11.255  0.7640 -2.3837 -1.9462
  443MOL0     H61096   6.309  -0.912  11.148  1.0353 -0.6416 -0.1748
  443MOL0     H61097   6.355  -1.150  11.166 -1.5416  0.6538 -5.5347
  443MOL0     H61098   6.388  -1.325  11.262 -0.4546  1.6810 -2.3691
  443MOL0     H61099   6.317  -1.479  11.308 -1.7487 -0.0144  0.4008
  443MOL0     H61100   6.228  -1.475  11.051  0.4516 -1.6905 -0.2188
  443MOL0     H61101   6.364  -1.361  11.040 -1.3923 -0.5712 -1.3679
  443MOL0     H61102   6.486  -1.570  11.178 -0.7150  0.8349  0.3311
  443MOL0     H61103   6.500  -1.526  11.010 -1.6987  3.1190  0.5657
  443MOL0     H61104   6.318  -1.681  10.955  0.7680  0.0389  0.5541
  443MOL0     H61105   6.310  -1.735  11.119 -1.1054 -0.7995 -1.8118
  443MOL0     H61106   6.527  -1.826  11.121 -0.6899 -0.4618 -0.7541
  443MOL0     H61107   6.442  -1.889  10.968 -2.2771  0.5281  1.0165
  443MOL0     H61108   6.652  -1.696  11.011  0.5891 -0.9978 -0.5357
  443MOL0     H61109   6.559  -1.693  10.853  0.1668 -1.4712 -2.5807
  443MOL0     H61110   6.639  -1.934  10.824  0.2821 -3.0565  1.9157
  443MOL0     H61111   6.709  -1.925  10.987 -1.0779 -2.4209 -1.9012
  443MOL0     H61112   6.866  -1.762  10.904 -2.1973 -0.1637  1.8066
  443MOL0     H61113   6.765  -1.739  10.757  0.1498  0.8689  1.6599
  443MOL0     H61114   5.998  -1.207  11.387 -0.8720  2.5190  1.5274
  443MOL0     H61115   5.942  -0.964  11.352  0.8941  0.8271 -0.5384
  443MOL0     H61116   6.141  -0.562  11.183  1.1944  0.9638 -0.8073
  443MOL0     H61117   6.124  -0.316  11.237 -0.1710 -0.8748  3.9495
  443MOL0     H61118   4.951   0.628  10.382 -0.1388  1.9721 -0.9961
  443MOL0     H61119   4.893   0.508  10.181 -0.6563  0.8529  1.2884
  443MOL0     H61120   5.037   0.629   9.620  1.5161  0.0698 -2.9347
  443MOL0     H61121   4.953   0.566   9.420  1.5302 -2.2288 -2.0479
  443MOL0     H61122   4.731   0.487   9.301  1.5045  1.0615 -0.1894
  443MOL0     H61123   4.886   0.440   9.230  1.4959 -1.1891  3.5049
  443MOL0     H61124   4.824   0.266   9.115  0.6033 -0.3880  2.2791
  443MOL0     H61125   4.694   0.387   9.078  2.4673 -0.5707 -2.0620
  443MOL0     H61126   4.658   0.139   9.237 -0.5758 -0.8792  0.4655
  443MOL0     H61127   4.575   0.282   9.303  1.6185 -2.1446  1.9471
  443MOL0     H61128   4.461   0.324   9.106 -1.9596 -1.6503 -2.2526
  443MOL0     H61129   4.424   0.156   9.164  0.6580 -2.4735 -0.0818
  443MOL0     H61130   4.599   0.104   8.783 -0.3082  0.9599 -0.1839
  443MOL0     H61131   4.833   0.183   9.611  2.0175 -1.2771  0.4880
  443MOL0     H61132   4.906   0.129   9.807  0.3554 -0.1840  0.0639
  443MOL0     H61133   4.998   0.225   9.922  0.1775 -3.2324 -0.9808
  443MOL0     H61134   4.821   0.249   9.891  0.0471 -1.4374 -0.5166
  444MOL0     O61135   4.391  10.025   9.392 -0.4154 -0.0622  0.0781
  444MOL0     C61136   4.484  10.098   9.365 -0.3625  0.5477  0.0324
  444MOL0     O61137   4.601  10.058   9.303  0.1451 -0.8593 -0.0245
  444MOL0     C61138   4.625   9.934   9.259 -0.7603 -0.8995 -0.4077
  444MOL0     C61139   4.759   9.893   9.277  0.8339  0.3572  0.0500
  444MOL0     C61140   4.800   9.764   9.222  0.2328  0.3487  0.2301
  444MOL0     C61141   4.705   9.686   9.150 -0.0511 -0.0039  0.0861
  444MOL0     O61142   4.749   9.570   9.095  0.6134 -0.4208  0.6160
  444MOL0     C61143   4.736   9.460   9.184  0.5040  0.3641 -0.3614
  444MOL0     C61144   4.871   9.409   9.218  0.6009  0.8948 -0.3984
  444MOL0     C61145   4.871   9.284   9.308  0.4593 -0.6346 -0.4724
  444MOL0     C61146   5.011   9.219   9.303  0.1272  0.3221 -0.1198
  444MOL0     C61147   4.999   9.094   9.384 -0.4187  0.0900  0.9820
  444MOL0     C61148   5.136   9.023   9.356 -0.0340  0.7866 -1.1934
  444MOL0     C61149   5.143   8.877   9.416  0.2106 -0.4367  0.2387
  444MOL0     C61150   5.054   8.771   9.351  0.6225 -1.4086  0.9834
  444MOL0     N61151   5.083   8.642   9.405 -0.2669 -0.9892 -0.6719
  444MOL0     C61152   5.061   8.594   9.540  0.3535  0.1720 -0.5230
  444MOL0     C61153   5.115   8.466   9.537  0.0402  0.7428  0.2658
  444MOL0     C61154   5.110   8.371   9.658 -1.4908  0.0702  0.1029
  444MOL0     C61155   5.207   8.425   9.769  0.8762  0.4723  0.7860
  444MOL0     C61156   5.245   8.329   9.869  0.2427  0.7101  0.3764
  444MOL0     C61157   5.313   8.202   9.806  0.4030  0.0222 -0.5313
  444MOL0     O61158   5.432   8.234   9.740  0.3489 -0.7933  0.1461
  444MOL0     C61159   5.551   8.230   9.801  0.9107 -0.1965 -0.4253
  444MOL0     C61160   5.634   8.342   9.788 -0.7785 -0.8048 -0.1772
  444MOL0     C61161   5.762   8.328   9.845 -0.4374 -0.0414 -0.7248
  444MOL0     C61162   5.849   8.451   9.840  0.3885  0.6051 -0.1457
  444MOL0     C61163   5.807   8.199   9.875 -0.6616 -0.3189 -0.8583
  444MOL0     C61164   5.958   8.164   9.893  0.6508 -0.5243 -0.2384
  444MOL0     O61165   6.040   8.222   9.797 -0.6443 -0.2279  0.4996
  444MOL0     C61166   6.173   8.216   9.806  0.4199 -0.1021 -0.4556
  444MOL0     C61167   6.233   8.238   9.684 -0.0742  0.4730  0.1073
  444MOL0     C61168   6.370   8.228   9.665  0.0339  0.2916  0.3143
  444MOL0     C61169   6.445   8.201   9.782  0.2034 -0.2344  0.4613
  444MOL0     O61170   6.585   8.188   9.790  0.3035  0.1195  0.3654
  444MOL0     C61171   6.670   8.231   9.681  0.6251  0.7200 -0.4173
  444MOL0     C61172   6.811   8.216   9.731 -1.0278 -0.7195  0.3145
  444MOL0     C61173   6.842   8.074   9.779 -0.3989  1.3700 -0.3583
  444MOL0     C61174   6.991   8.064   9.813  0.2331  0.4195  0.0012
  444MOL0     C61175   7.027   8.154   9.935 -0.9673 -0.1449 -0.3264
  444MOL0     C61176   7.182   8.187   9.960 -0.6380 -0.0188  0.2019
  444MOL0     C61177   7.254   8.246   9.840  0.0793 -0.5870 -0.7468
  444MOL0     C61178   7.388   8.329   9.875  0.1603  0.4614 -0.1427
  444MOL0    Cl61179   7.492   8.219   9.984 -0.0658 -0.4505  0.0298
  444MOL0     C61180   6.379   8.191   9.908  0.2602 -0.5250 -0.7083
  444MOL0     C61181   6.251   8.198   9.922 -0.0837  0.5155 -0.2680
  444MOL0     O61182   5.993   8.079   9.976 -0.6434  0.4303 -1.1329
  444MOL0     C61183   5.721   8.088   9.879 -0.0187  0.1591 -0.3714
  444MOL0     C61184   5.592   8.109   9.856  0.4964  0.2470 -0.6951
  444MOL0     N61185   5.167   8.442   9.417  0.6569  0.1110  1.1105
  444MOL0     N61186   5.147   8.541   9.337  0.3605 -1.0435 -0.3765
  444MOL0     C61187   4.565   9.722   9.151 -0.5098 -0.5443 -0.7460
  444MOL0     C61188   4.530   9.844   9.208  1.3162  0.1925  0.0576
  444MOL0     C61189   4.456  10.245   9.367  0.7079  0.5487 -0.2883
  444MOL0     C61190   4.323  10.274   9.334  0.3779 -0.6274  0.4011
  444MOL0     C61191   4.304  10.409   9.294 -0.1169  0.4082  0.0563
  444MOL0     C61192   4.401  10.505   9.301  0.5720 -0.8206  0.0407
  444MOL0     O61193   4.364  10.634   9.260  0.2436  0.4875  0.3488
  444MOL0     C61194   4.446  10.692   9.157 -0.2878  0.5200  0.6257
  444MOL0     C61195   4.419  10.625   9.019 -0.1096  0.6241  0.4504
  444MOL0     C61196   4.507  10.679   8.907 -0.6255  0.5403  0.4212
  444MOL0     C61197   4.462  10.625   8.765 -1.4981  0.7737 -0.4217
  444MOL0     C61198   4.537  10.694   8.658  0.2302  0.5544  0.4886
  444MOL0     C61199   4.588  10.739   8.556  0.2949  0.9818  0.2323
  444MOL0     C61200   4.525  10.467   9.335  0.1838  0.1328 -0.2163
  444MOL0     C61201   4.557  10.340   9.372 -0.9107  0.6294  0.1259
  444MOL0     C61202   4.702  10.329   9.411 -0.7318  0.0741  0.0135
  444MOL0     H61203   4.831   9.959   9.324  1.0505 -0.9255  1.6020
  444MOL0     H61204   4.908   9.754   9.230  0.6968  1.6669 -2.7897
  444MOL0     H61205   4.684   9.378   9.134  2.2756  0.4777 -2.5044
  444MOL0     H61206   4.680   9.490   9.273  1.1657 -0.7275  0.4515
  444MOL0     H61207   4.915   9.381   9.122 -1.7497 -0.3542 -1.1936
  444MOL0     H61208   4.927   9.489   9.269  0.5186  1.2580 -0.8694
  444MOL0     H61209   4.847   9.316   9.410 -3.1680  3.6591 -2.3411
  444MOL0     H61210   4.789   9.219   9.276 -0.8767  0.4068  0.7120
  444MOL0     H61211   5.027   9.207   9.196 -4.3587  0.3516 -1.0092
  444MOL0     H61212   5.093   9.287   9.327  1.2947 -0.1718 -2.4168
  444MOL0     H61213   4.931   9.024   9.333  0.5052 -1.4008  1.7139
  444MOL0     H61214   4.968   9.104   9.489 -0.4694  0.8106  0.9019
  444MOL0     H61215   5.162   9.019   9.250  1.5944 -0.0352 -0.7982
  444MOL0     H61216   5.211   9.084   9.407 -0.6160 -0.6671  1.5911
  444MOL0     H61217   5.111   8.875   9.521 -0.6523 -2.3903 -0.0183
  444MOL0     H61218   5.248   8.850   9.402  0.1298  0.0165 -1.4176
  444MOL0     H61219   4.949   8.802   9.362  0.9648  0.7180 -1.0138
  444MOL0     H61220   5.078   8.771   9.244 -0.0776 -1.9150  0.8190
  444MOL0     H61221   5.040   8.648   9.632  2.7093  0.9284 -0.3609
  444MOL0     H61222   5.129   8.269   9.622 -1.0643 -0.1462  0.9246
  444MOL0     H61223   5.006   8.369   9.692 -2.1423 -0.3684 -1.7666
  444MOL0     H61224   5.296   8.450   9.710 -0.6638 -1.9141 -2.8968
  444MOL0     H61225   5.168   8.514   9.818  2.7365  2.8973 -1.7860
  444MOL0     H61226   5.325   8.373   9.929  0.9948  0.1290 -0.1895
  444MOL0     H61227   5.169   8.312   9.947  1.5406 -2.9486  1.0547
  444MOL0     H61228   5.335   8.135   9.889  0.9560  4.1236  2.9790
  444MOL0     H61229   5.255   8.148   9.731  1.0619 -0.6385 -0.5802
  444MOL0     H61230   5.598   8.432   9.739  1.0462 -0.2602 -0.5813
  444MOL0     H61231   5.915   8.447   9.927 -1.3265 -2.4210  1.1667
  444MOL0     H61232   5.784   8.539   9.836 -0.6962 -0.1869 -0.4507
  444MOL0     H61233   5.898   8.445   9.742 -1.2405 -1.6967 -0.8908
  444MOL0     H61234   6.172   8.268   9.600  1.2411  0.1483 -1.0013
  444MOL0     H61235   6.412   8.238   9.566  0.8230  2.4034  0.8198
  444MOL0     H61236   6.655   8.160   9.598 -0.9605  0.6720 -0.1194
  444MOL0     H61237   6.641   8.333   9.654  0.1412  0.9534  0.9246
  444MOL0     H61238   6.877   8.236   9.646 -0.3683  0.7558  1.1308
  444MOL0     H61239   6.836   8.296   9.802 -2.0476 -1.9169  2.1105
  444MOL0     H61240   6.809   7.997   9.708  2.7552  0.0089 -0.4891
  444MOL0     H61241   6.790   8.039   9.868 -0.5729 -3.1230 -1.9656
  444MOL0     H61242   7.047   8.095   9.724 -0.6346  0.1064 -0.6685
  444MOL0     H61243   7.013   7.962   9.846  1.9864  0.8277  0.1878
  444MOL0     H61244   6.970   8.247   9.936  1.2840  1.3940  3.2543
  444MOL0     H61245   6.995   8.105  10.027 -1.7205  3.0352  1.2270
  444MOL0     H61246   7.239   8.098   9.989 -0.2828 -0.6849 -2.2614
  444MOL0     H61247   7.190   8.264  10.036  3.2662 -2.2564  2.4021
  444MOL0     H61248   7.189   8.320   9.793  0.1036  0.1391  0.3384
  444MOL0     H61249   7.264   8.166   9.766 -1.2214 -0.3628 -1.1830
  444MOL0     H61250   7.365   8.423   9.926  3.2210  1.5271 -0.5348
  444MOL0     H61251   7.438   8.362   9.784 -2.3836  0.6179 -1.5873
  444MOL0     H61252   6.437   8.173   9.997 -0.2886 -0.2928 -0.2992
  444MOL0     H61253   6.200   8.172  10.014 -0.9155 -4.6366 -1.8173
  444MOL0     H61254   5.748   7.987   9.907 -1.5762 -0.6531 -1.6698
  444MOL0     H61255   5.522   8.027   9.870 -1.0205  0.4454 -5.3410
  444MOL0     H61256   4.490   9.655   9.109  0.4940 -1.5823 -0.9571
  444MOL0     H61257   4.428   9.881   9.201  1.2513 -0.0666 -0.4407
  444MOL0     H61258   4.245  10.200   9.324 -1.9888  1.6392  0.9459
  444MOL0     H61259   4.205  10.438   9.260 -0.5609 -1.0231  0.0621
  444MOL0     H61260   4.418  10.798   9.159  1.6522  1.0629  2.9706
  444MOL0     H61261   4.552  10.680   9.179  0.1259  0.8416 -1.0870
  444MOL0     H61262   4.312  10.644   9.000  0.4040  2.8045 -0.6783
  444MOL0     H61263   4.433  10.518   9.028 -0.2005  0.5531 -0.1870
  444MOL0     H61264   4.488  10.787   8.914 -0.6869  0.4187  2.5542
  444MOL0     H61265   4.614  10.664   8.920 -0.3203  2.4548  0.3776
  444MOL0     H61266   4.356  10.637   8.742 -1.1453  0.0486 -2.7181
  444MOL0     H61267   4.490  10.520   8.765 -2.0502  0.6217 -0.5044
  444MOL0     H61268   4.624  10.781   8.464 -2.6070  1.5219 -0.7726
  444MOL0     H61269   4.604  10.542   9.335  0.4213 -0.1092  0.6311
  444MOL0     H61270   4.699  10.309   9.518 -1.1471  0.8324  0.1463
  444MOL0     H61271   4.753  10.249   9.356 -0.3728 -0.6268  1.3272
  444MOL0     H61272   4.759  10.421   9.397 -3.7986  2.3046  1.0537
  445MOL0     O61273  10.370   4.451   1.898  0.0332  0.8145 -0.0328
  445MOL0     C61274  10.308   4.499   1.803 -0.3636  0.7737 -0.1743
  445MOL0     O61275  10.373   4.553   1.697  0.7962  0.4175  0.6786
  445MOL0     C61276  10.514   4.551   1.705  0.5189  0.4493 -0.1605
  445MOL0     C61277  10.565   4.676   1.734  0.4840  0.0357 -0.2866
  445MOL0     C61278  10.706   4.699   1.720  0.2686  0.3436 -0.1626
  445MOL0     C61279  10.787   4.587   1.708 -0.2573 -0.4573  0.5823
  445MOL0     O61280  10.917   4.611   1.719 -0.1438  0.4366  0.2674
  445MOL0     C61281  10.989   4.520   1.809  0.1544  0.1046 -0.0679
  445MOL0     C61282  11.112   4.586   1.860 -0.6701  0.2480  0.2424
  445MOL0     C61283  11.212   4.507   1.942  0.1016 -0.0758  0.8227
  445MOL0     C61284  11.283   4.389   1.868  0.9602  0.2279 -0.3378
  445MOL0     C61285  11.422   4.365   1.919 -0.1325 -0.4250 -0.5385
  445MOL0     C61286  11.487   4.247   1.849 -0.5352 -0.1922  0.6848
  445MOL0     C61287  11.627   4.216   1.903  0.0263  0.2300  0.0177
  445MOL0     C61288  11.722   4.329   1.857  0.0082 -0.2224 -0.0728
  445MOL0     N61289  11.862   4.306   1.902 -0.5188  0.0997  0.5129
  445MOL0     C61290  11.912   4.336   2.026 -0.0332 -0.2156 -0.1744
  445MOL0     C61291  12.041   4.280   2.030  0.1562  0.0212 -0.2002
  445MOL0     C61292  12.146   4.297   2.137  0.0405  0.0631  0.6195
  445MOL0     C61293  12.268   4.384   2.105  0.0936 -0.3139 -0.4369
  445MOL0     C61294  12.367   4.302   2.017 -0.4678  0.3802  0.9239
  445MOL0     C61295  12.458   4.400   1.938 -0.4559  0.2696 -0.2205
  445MOL0     O61296  12.549   4.472   2.026 -0.2256 -0.4709 -0.1491
  445MOL0     C61297  12.638   4.407   2.109 -0.2293 -0.3562 -0.3830
  445MOL0     C61298  12.659   4.467   2.235 -0.1736 -0.5287 -0.2580
  445MOL0     C61299  12.742   4.409   2.334 -0.2983  0.6479 -0.4301
  445MOL0     C61300  12.750   4.472   2.466 -0.1391 -0.7142 -0.0980
  445MOL0     C61301  12.815   4.291   2.300  0.6197  0.9382 -0.6824
  445MOL0     C61302  12.917   4.217   2.383  0.1620 -0.0793  0.2844
  445MOL0     O61303  12.962   4.089   2.341  0.3132  0.3667 -0.2766
  445MOL0     C61304  12.989   3.997   2.443 -0.0168 -1.0715  0.1896
  445MOL0     C61305  12.886   3.939   2.509 -0.5081  0.4223  0.4600
  445MOL0     C61306  12.922   3.838   2.609 -1.0385  0.3381  0.8814
  445MOL0     C61307  13.057   3.811   2.633  0.2881  0.2549 -0.4460
  445MOL0     O61308  13.108   3.714   2.716  0.0062 -0.0289  0.3461
  445MOL0     C61309  13.016   3.609   2.754 -1.0860  0.1601 -0.4463
  445MOL0     C61310  13.099   3.484   2.804  0.4948  0.0283 -0.0911
  445MOL0     C61311  13.017   3.362   2.829  0.3699 -0.2699 -0.4777
  445MOL0     C61312  12.939   3.308   2.708 -0.2294 -0.2982 -0.2245
  445MOL0     C61313  12.885   3.171   2.739  0.2677 -0.5849  0.0293
  445MOL0     C61314  12.804   3.099   2.624 -0.4610  0.2531 -0.2818
  445MOL0     C61315  12.687   3.182   2.569  0.0986  0.3543 -0.3506
  445MOL0     C61316  12.598   3.099   2.492  0.1815  0.2416  0.4146
  445MOL0    Cl61317  12.557   2.934   2.554 -0.1869 -0.1694 -0.0243
  445MOL0     C61318  13.158   3.896   2.575  1.0804 -0.2199 -0.5872
  445MOL0     C61319  13.126   3.993   2.481 -0.4307 -0.5025 -0.2112
  445MOL0     O61320  12.955   4.278   2.482 -0.1866  0.0406  0.0169
  445MOL0     C61321  12.774   4.230   2.185  0.3320  0.3233 -0.0421
  445MOL0     C61322  12.688   4.281   2.085 -0.3130 -0.2187 -0.6592
  445MOL0     N61323  12.049   4.199   1.923 -1.0776  0.1071 -0.8508
  445MOL0     N61324  11.944   4.219   1.849  0.0000  0.7682 -0.1242
  445MOL0     C61325  10.736   4.457   1.700 -0.3221 -0.1938  0.3442
  445MOL0     C61326  10.601   4.444   1.694 -0.6061  0.2543  1.2942
  445MOL0     C61327  10.154   4.491   1.790  0.5659 -1.0036  0.3291
  445MOL0     C61328  10.107   4.516   1.660 -0.5138  0.1747 -0.7582
  445MOL0     C61329   9.973   4.539   1.641  0.4432  0.1052 -0.3386
  445MOL0     C61330   9.882   4.526   1.741  0.2165  0.0758 -0.1255
  445MOL0     O61331   9.750   4.559   1.717 -0.1609  0.7287  0.0461
  445MOL0     C61332   9.708   4.685   1.778  0.1276 -0.9328  0.0846
  445MOL0     C61333   9.564   4.732   1.743  0.7316  0.6320 -0.0535
  445MOL0     C61334   9.571   4.879   1.710  0.4487 -0.3431  0.0255
  445MOL0     C61335   9.449   4.941   1.640  0.1080  0.2414  0.2072
  445MOL0     C61336   9.445   5.081   1.667  0.7515 -0.9534 -0.3582
  445MOL0     C61337   9.437   5.201   1.699  0.5604  0.4179 -0.2413
  445MOL0     C61338   9.928   4.487   1.867 -0.0898 -0.2378 -0.3419
  445MOL0     C61339  10.065   4.476   1.901  0.7102 -0.8450  0.6169
  445MOL0     C61340  10.110   4.466   2.042 -1.3296  0.3970  0.0696
  445MOL0     H61341  10.501   4.763   1.736 -0.4111 -0.5233 -2.0107
  445MOL0     H61342  10.745   4.800   1.727 -1.5319  0.9915  1.8758
  445MOL0     H61343  11.015   4.427   1.758 -0.8035 -1.0866  1.5256
  445MOL0     H61344  10.931   4.498   1.899 -0.0371  4.8937  1.2765
  445MOL0     H61345  11.177   4.622   1.779  2.4764  1.1231  2.9729
  445MOL0     H61346  11.074   4.674   1.912 -0.8525  0.3702 -0.0915
  445MOL0     H61347  11.294   4.576   1.963 -0.2742  1.2250 -1.6429
  445MOL0     H61348  11.159   4.466   2.029  0.8458 -2.6431  0.1675
  445MOL0     H61349  11.227   4.296   1.884  1.8256 -0.8717 -3.1065
  445MOL0     H61350  11.301   4.409   1.762  1.3982 -1.2611 -0.5646
  445MOL0     H61351  11.415   4.348   2.027 -2.8778  3.6645  0.1602
  445MOL0     H61352  11.483   4.455   1.903 -0.1598 -0.2205  0.4262
  445MOL0     H61353  11.430   4.160   1.881  1.3508 -1.9186 -0.3920
  445MOL0     H61354  11.478   4.263   1.741  0.7250  3.3533  0.9643
  445MOL0     H61355  11.652   4.113   1.878 -3.0207 -1.1876  2.0842
  445MOL0     H61356  11.626   4.222   2.012  2.9689  1.5293  0.0533
  445MOL0     H61357  11.716   4.352   1.750  2.0513  0.7085 -0.0212
  445MOL0     H61358  11.692   4.422   1.907 -2.6039 -2.3581  2.6847
  445MOL0     H61359  11.877   4.409   2.098  1.6937  1.7741 -1.2265
  445MOL0     H61360  12.172   4.198   2.177 -2.6663 -0.6810  0.7892
  445MOL0     H61361  12.105   4.358   2.218 -1.8757 -0.3563  0.0225
  445MOL0     H61362  12.235   4.473   2.051 -0.3469  0.8433  1.6050
  445MOL0     H61363  12.315   4.426   2.195  0.4560  0.0029 -0.7764
  445MOL0     H61364  12.424   4.239   2.086  1.1825  1.2524  0.4233
  445MOL0     H61365  12.309   4.247   1.943  0.9195  1.2616 -0.8870
  445MOL0     H61366  12.512   4.338   1.865 -0.3964 -3.6236  2.8218
  445MOL0     H61367  12.394   4.471   1.885 -2.4894 -0.9387  0.5374
  445MOL0     H61368  12.623   4.568   2.251  1.6318  0.9794 -4.4308
  445MOL0     H61369  12.846   4.524   2.476  0.0115 -1.1528  0.8802
  445MOL0     H61370  12.739   4.400   2.548  0.6505 -4.1768 -2.7704
  445MOL0     H61371  12.670   4.545   2.479  0.9124  0.0978  2.2593
  445MOL0     H61372  12.783   3.950   2.474 -1.6999 -2.9471  2.5100
  445MOL0     H61373  12.853   3.779   2.667 -2.9622  0.7908 -0.8385
  445MOL0     H61374  12.956   3.647   2.837 -0.5997  1.8873 -0.8504
  445MOL0     H61375  12.942   3.579   2.679 -0.2908 -0.9443 -0.8198
  445MOL0     H61376  13.164   3.449   2.724  2.3066 -0.8089  1.6614
  445MOL0     H61377  13.164   3.503   2.890 -1.7139 -0.2351  1.7447
  445MOL0     H61378  12.951   3.396   2.909 -0.5098  0.1599 -1.3638
  445MOL0     H61379  13.079   3.286   2.876 -1.0385 -0.6024  0.8968
  445MOL0     H61380  13.003   3.305   2.619  0.3635  0.3873  0.1668
  445MOL0     H61381  12.849   3.368   2.688  0.0649 -0.3749 -1.9179
  445MOL0     H61382  12.970   3.109   2.771  0.0817 -1.2089 -0.6622
  445MOL0     H61383  12.825   3.186   2.829  0.7037  3.0362 -0.1554
  445MOL0     H61384  12.763   3.005   2.664  0.1746 -1.0865 -2.5454
  445MOL0     H61385  12.874   3.071   2.544 -0.6962  0.4686 -0.5618
  445MOL0     H61386  12.703   3.269   2.505 -3.4609  0.6358 -1.0924
  445MOL0     H61387  12.631   3.214   2.658 -0.5648 -0.3404 -0.5050
  445MOL0     H61388  12.639   3.087   2.391 -0.8007 -0.4389  0.0832
  445MOL0     H61389  12.506   3.157   2.490  0.9696  1.5230 -0.6572
  445MOL0     H61390  13.259   3.867   2.599  0.9929 -3.5795 -3.5430
  445MOL0     H61391  13.199   4.065   2.445 -0.0809  0.0886  1.6027
  445MOL0     H61392  12.818   4.133   2.161  1.3467  0.6398  0.4723
  445MOL0     H61393  12.658   4.232   1.993 -1.1067 -1.3775  0.2006
  445MOL0     H61394  10.806   4.377   1.720  0.8315  0.7249  0.0709
  445MOL0     H61395  10.560   4.345   1.678 -0.7843 -0.0522  3.3887
  445MOL0     H61396  10.173   4.525   1.575  0.2922 -0.3187 -0.1969
  445MOL0     H61397   9.920   4.573   1.552  0.5656  0.6451 -0.2055
  445MOL0     H61398   9.714   4.689   1.887 -0.3959  2.2376  0.0973
  445MOL0     H61399   9.787   4.755   1.749  1.8998 -2.7699  0.2371
  445MOL0     H61400   9.496   4.728   1.829  3.3375 -0.5562  2.0829
  445MOL0     H61401   9.525   4.686   1.652  0.7025 -0.8724  0.6995
  445MOL0     H61402   9.598   4.937   1.799  0.4271  1.1271 -0.8936
  445MOL0     H61403   9.655   4.893   1.641  2.7230 -0.2063  2.6126
  445MOL0     H61404   9.364   4.888   1.684  1.8715 -0.8885  2.5140
  445MOL0     H61405   9.449   4.923   1.533 -1.4961  1.2665  0.0026
  445MOL0     H61406   9.452   5.303   1.727  3.2355  0.0802 -0.2534
  445MOL0     H61407   9.856   4.479   1.947 -2.1489 -1.4479 -2.1914
  445MOL0     H61408  10.037   4.399   2.089 -1.3886  0.6079  0.2774
  445MOL0     H61409  10.204   4.412   2.055 -0.1370  2.6291  1.3460
  445MOL0     H61410  10.107   4.559   2.100 -2.9026  0.1481  0.4368
  446MOL0     O61411   6.258   9.265   9.009  0.4353  0.0268  0.5617
  446MOL0     C61412   6.216   9.180   9.082  0.1044  0.9872  0.1507
  446MOL0     O61413   6.265   9.059   9.090  0.2246 -0.3625  0.3062
  446MOL0     C61414   6.390   9.017   9.048  0.0615 -0.1719 -0.2034
  446MOL0     C61415   6.501   9.112   9.028 -0.1201  0.4155 -0.1628
  446MOL0     C61416   6.629   9.061   8.997  0.1305  0.0303  0.6794
  446MOL0     C61417   6.644   8.925   8.988 -0.5086  1.0419 -0.1006
  446MOL0     O61418   6.764   8.870   8.948 -0.7386  0.4030  0.6696
  446MOL0     C61419   6.873   8.905   9.029  0.1215  0.8513  0.1074
  446MOL0     C61420   7.000   8.826   8.999  0.0559  0.1568  0.1955
  446MOL0     C61421   7.046   8.738   9.123  0.3716 -0.6515  0.1607
  446MOL0     C61422   7.163   8.644   9.092  0.0937  0.0736 -0.0462
  446MOL0     C61423   7.225   8.580   9.219 -0.5221 -0.0480  0.6025
  446MOL0     C61424   7.326   8.679   9.276 -0.6379  0.2773  0.7313
  446MOL0     C61425   7.326   8.702   9.423 -0.4728 -0.8201  0.5719
  446MOL0     C61426   7.209   8.795   9.474  0.5370  0.1014 -1.4053
  446MOL0     N61427   7.211   8.810   9.628 -0.7049 -0.2586  0.6612
  446MOL0     C61428   7.152   8.721   9.705  0.7333  1.2695  0.3552
  446MOL0     C61429   7.231   8.716   9.818 -0.6689  0.8401  0.1291
  446MOL0     C61430   7.179   8.642   9.938  0.3496  1.1935 -0.1220
  446MOL0     C61431   7.036   8.690   9.966 -0.0216 -0.6226 -0.0481
  446MOL0     C61432   6.986   8.628  10.093 -0.3993 -0.7337 -0.4753
  446MOL0     C61433   6.838   8.675  10.123  1.2006  0.2154 -0.2982
  446MOL0     O61434   6.757   8.615  10.025  0.8484  0.1505  0.0886
  446MOL0     C61435   6.625   8.665  10.018  0.6180 -0.4841  0.2192
  446MOL0     C61436   6.534   8.599   9.937  0.7222 -0.6439  1.0480
  446MOL0     C61437   6.400   8.637   9.911  0.2872  0.6474 -0.5644
  446MOL0     C61438   6.311   8.541   9.832  0.1694 -0.1952  0.1530
  446MOL0     C61439   6.349   8.746   9.980  0.4646 -0.5054 -0.5067
  446MOL0     C61440   6.215   8.793   9.955 -0.0945 -0.0874 -0.0241
  446MOL0     O61441   6.152   8.864  10.057 -0.3928  0.5433 -0.0696
  446MOL0     C61442   6.043   8.934  10.025  0.7300 -0.1566 -0.2186
  446MOL0     C61443   6.048   9.066  10.011  0.4606 -0.1816  0.4573
  446MOL0     C61444   5.935   9.140   9.987 -0.3302 -0.6913  0.4342
  446MOL0     C61445   5.804   9.087   9.991  0.3116 -1.4776 -0.1765
  446MOL0     O61446   5.703   9.183   9.966 -0.4042  0.0280  0.0367
  446MOL0     C61447   5.658   9.248  10.090  0.6731 -0.3554  0.6687
  446MOL0     C61448   5.602   9.148  10.195  0.5755 -0.0575 -0.0528
  446MOL0     C61449   5.707   9.123  10.301 -0.1383 -0.1413  0.1069
  446MOL0     C61450   5.638   9.065  10.425 -0.0716 -0.1672 -0.0562
  446MOL0     C61451   5.578   9.157  10.533  0.2615  0.1007  0.1199
  446MOL0     C61452   5.687   9.219  10.618 -0.5887 -0.4046  0.3751
  446MOL0     C61453   5.630   9.314  10.727  0.1638  0.6081 -0.2818
  446MOL0     C61454   5.557   9.244  10.843  0.2751 -0.6082  0.0921
  446MOL0    Cl61455   5.660   9.140  10.931  0.3648  0.1484  0.1589
  446MOL0     C61456   5.791   8.958   9.996  0.3699  0.8670 -0.0935
  446MOL0     C61457   5.911   8.876  10.020 -0.1450  0.0924 -0.1403
  446MOL0     O61458   6.190   8.802   9.840 -0.2667 -0.1065 -0.8453
  446MOL0     C61459   6.429   8.812  10.079 -0.4580 -0.6837 -0.6295
  446MOL0     C61460   6.563   8.772  10.094  0.0886  0.5707 -0.1347
  446MOL0     N61461   7.338   8.805   9.806  0.2917 -0.2857 -0.8070
  446MOL0     N61462   7.321   8.858   9.694  0.4671 -1.3845 -0.1443
  446MOL0     C61463   6.534   8.839   9.008 -0.8265 -0.2508  0.3126
  446MOL0     C61464   6.405   8.883   9.033  0.7389  0.7317  0.6236
  446MOL0     C61465   6.100   9.222   9.165  0.1177  0.0907  0.4479
  446MOL0     C61466   6.083   9.364   9.200 -0.5999 -0.4513 -0.9091
  446MOL0     C61467   5.986   9.405   9.297 -0.3527  0.2807  0.4683
  446MOL0     C61468   5.913   9.314   9.370 -1.0932 -0.1525 -1.0125
  446MOL0     O61469   5.827   9.356   9.476 -0.7711 -0.6180 -0.6780
  446MOL0     C61470   5.808   9.500   9.488  0.2522  1.1381  0.1321
  446MOL0     C61471   5.685   9.528   9.571 -0.2113 -0.4100  0.8277
  446MOL0     C61472   5.705   9.480   9.713 -1.0578  0.4650 -1.2161
  446MOL0     C61473   5.606   9.531   9.819  0.0432  0.2297  0.9889
  446MOL0     C61474   5.472   9.476   9.780 -0.3231  1.0183 -0.4191
  446MOL0     C61475   5.376   9.417   9.740 -0.1376  0.2217  0.0994
  446MOL0     C61476   5.922   9.176   9.338 -0.0636 -0.2474 -0.4465
  446MOL0     C61477   6.011   9.137   9.236 -0.7765  0.1837  0.0183
  446MOL0     C61478   6.003   8.984   9.208  0.9620  0.1232 -0.3403
  446MOL0     H61479   6.499   9.221   9.030  0.6390  0.4905 -2.1409
  446MOL0     H61480   6.712   9.131   8.992 -2.0416  3.1582  3.3731
  446MOL0     H61481   6.839   8.889   9.131 -1.8186  1.2572 -0.4414
  446MOL0     H61482   6.899   9.011   9.020  2.3016  0.3894  0.2548
  446MOL0     H61483   6.983   8.766   8.908 -0.8843 -1.7960  1.5940
  446MOL0     H61484   7.080   8.898   8.980 -1.5298  2.1554  0.7099
  446MOL0     H61485   7.074   8.797   9.211 -1.7051 -0.9762  1.0768
  446MOL0     H61486   6.960   8.685   9.162  0.6052 -0.8969  0.3474
  446MOL0     H61487   7.112   8.560   9.043 -0.3606 -0.9255  2.0411
  446MOL0     H61488   7.239   8.685   9.025  1.7503  1.6320  2.6255
  446MOL0     H61489   7.275   8.491   9.181 -2.3545  1.2305 -6.2487
  446MOL0     H61490   7.148   8.550   9.290 -0.9880 -0.7157 -0.1603
  446MOL0     H61491   7.427   8.642   9.256 -1.6613 -1.7422 -0.9856
  446MOL0     H61492   7.323   8.779   9.230  3.5352 -1.2103 -3.7691
  446MOL0     H61493   7.414   8.765   9.441 -0.2982 -0.0370 -2.4878
  446MOL0     H61494   7.327   8.608   9.479 -2.8050 -0.9301  0.5318
  446MOL0     H61495   7.227   8.897   9.439 -1.1667  1.3776  1.1679
  446MOL0     H61496   7.109   8.763   9.442 -1.4008  0.2784  3.6131
  446MOL0     H61497   7.057   8.671   9.690  1.7073 -0.2707 -1.0463
  446MOL0     H61498   7.242   8.658  10.026 -1.6400  0.1122  1.5765
  446MOL0     H61499   7.186   8.534   9.925  2.2551  1.3935 -1.1336
  446MOL0     H61500   7.028   8.799   9.968  0.7974 -0.5305 -1.2261
  446MOL0     H61501   6.976   8.649   9.885  1.2797 -1.0391 -0.8293
  446MOL0     H61502   6.998   8.520  10.089 -1.1143 -0.8689  0.6262
  446MOL0     H61503   7.052   8.662  10.173 -0.0431 -2.4687  0.0052
  446MOL0     H61504   6.804   8.635  10.218 -0.1588 -4.4689 -2.4756
  446MOL0     H61505   6.826   8.784  10.119 -6.0441 -0.0156  1.9978
  446MOL0     H61506   6.574   8.519   9.876  1.3440  1.4190 -1.4373
  446MOL0     H61507   6.304   8.571   9.727 -0.7102 -0.7024  0.0588
  446MOL0     H61508   6.210   8.522   9.868  0.1594 -2.7104 -1.0352
  446MOL0     H61509   6.353   8.440   9.827  1.4313  0.2238  1.4164
  446MOL0     H61510   6.135   9.123   9.981  0.3664  0.5362  1.5013
  446MOL0     H61511   5.937   9.248   9.981 -0.8823 -0.5749  1.8772
  446MOL0     H61512   5.743   9.304  10.132 -1.4326  3.0725  0.7398
  446MOL0     H61513   5.581   9.324  10.076  1.9870  1.1535  1.3469
  446MOL0     H61514   5.522   9.197  10.252 -0.7183 -4.0134  1.8596
  446MOL0     H61515   5.569   9.054  10.150 -3.6447  0.3634  1.6802
  446MOL0     H61516   5.760   9.214  10.330 -0.7460 -0.2099  1.5127
  446MOL0     H61517   5.775   9.047  10.260 -1.6848 -1.3652 -0.3025
  446MOL0     H61518   5.709   8.995  10.468 -0.5980 -0.6892 -0.0304
  446MOL0     H61519   5.559   8.998  10.390  1.3496 -1.4903 -0.8628
  446MOL0     H61520   5.509   9.230  10.490 -1.4254 -1.6538 -0.3155
  446MOL0     H61521   5.518   9.094  10.600  1.7770 -3.4189 -1.5786
  446MOL0     H61522   5.740   9.285  10.548 -5.0057  4.7116  1.2043
  446MOL0     H61523   5.753   9.143  10.661  0.7937 -0.4070 -1.6221
  446MOL0     H61524   5.561   9.384  10.678  1.7373  1.5893 -1.1524
  446MOL0     H61525   5.705   9.380  10.771 -2.8312  1.8957  3.5795
  446MOL0     H61526   5.477   9.179  10.806  1.6173 -2.1856 -0.1816
  446MOL0     H61527   5.505   9.322  10.900 -2.5335 -0.8655 -1.8601
  446MOL0     H61528   5.694   8.909   9.994  0.9925 -0.6142  2.2696
  446MOL0     H61529   5.906   8.767  10.025  0.8129  0.0579  0.2874
  446MOL0     H61530   6.386   8.883  10.148  2.9626  1.0244 -0.0314
  446MOL0     H61531   6.605   8.823  10.181 -0.7658 -0.2524  0.7833
  446MOL0     H61532   6.552   8.734   8.988  1.7536 -0.1002  1.4663
  446MOL0     H61533   6.327   8.809   9.044  2.6663 -1.7452 -1.2262
  446MOL0     H61534   6.132   9.445   9.148  0.7991  0.5328  1.7497
  446MOL0     H61535   6.002   9.508   9.326  2.0956  0.6924 -2.0002
  446MOL0     H61536   5.901   9.537   9.531  0.9835 -0.1492 -0.2642
  446MOL0     H61537   5.801   9.544   9.388  1.7155  1.9231  0.3518
  446MOL0     H61538   5.594   9.485   9.527 -0.2221  0.0934  0.3352
  446MOL0     H61539   5.676   9.637   9.562  0.6270 -0.3975 -0.0481
  446MOL0     H61540   5.718   9.371   9.717  1.1298  0.7214  0.8938
  446MOL0     H61541   5.803   9.510   9.751 -0.8426  0.1600 -1.5229
  446MOL0     H61542   5.602   9.640   9.826 -1.4173  0.2091  0.8337
  446MOL0     H61543   5.628   9.495   9.920 -0.1897 -2.8590  0.0290
  446MOL0     H61544   5.291   9.366   9.699  0.5880 -2.0208  1.1871
  446MOL0     H61545   5.863   9.096   9.381 -4.1433  0.4831 -3.9901
  446MOL0     H61546   5.986   8.969   9.101 -4.6616  0.3667  0.2463
  446MOL0     H61547   6.091   8.930   9.245  1.1161  0.3129 -0.4300
  446MOL0     H61548   5.914   8.937   9.250 -0.1195  2.1187 -0.2876
  447MOL0     O61549   5.244   3.558   8.168 -0.9124  0.2571  1.0743
  447MOL0     C61550   5.260   3.481   8.072 -0.3157  0.6610  0.0731
  447MOL0     O61551   5.387   3.431   8.030 -0.0842 -0.2395  0.0442
  447MOL0     C61552   5.493   3.473   8.101 -0.4380 -0.2699 -0.2965
  447MOL0     C61553   5.514   3.413   8.227 -0.2885 -0.7709  0.1548
  447MOL0     C61554   5.615   3.477   8.306  0.2285 -0.1168 -0.7520
  447MOL0     C61555   5.689   3.587   8.265 -0.1539  0.4035  1.1223
  447MOL0     O61556   5.789   3.635   8.347 -0.0575 -0.2165 -0.0499
  447MOL0     C61557   5.824   3.772   8.350 -0.4266 -0.2281 -0.6369
  447MOL0     C61558   5.913   3.780   8.471  0.4692  0.2418  0.0400
  447MOL0     C61559   6.002   3.901   8.443 -0.0526 -0.4427 -0.2172
  447MOL0     C61560   6.057   3.973   8.570  0.5474  0.6257 -0.6189
  447MOL0     C61561   6.199   4.009   8.564  0.7507  0.0829 -0.3164
  447MOL0     C61562   6.283   3.880   8.592  0.0286 -0.1729  0.7322
  447MOL0     C61563   6.427   3.906   8.613 -0.6557  0.0715  0.0614
  447MOL0     C61564   6.512   3.780   8.579  0.5055 -0.3292  0.3184
  447MOL0     N61565   6.653   3.801   8.610 -0.4539  0.5128  0.3127
  447MOL0     C61566   6.699   3.895   8.693 -0.6588  0.6044 -0.0724
  447MOL0     C61567   6.831   3.864   8.708  0.4411  0.3061  0.7723
  447MOL0     C61568   6.922   3.927   8.804 -0.6587 -0.6106  0.5290
  447MOL0     C61569   7.068   3.919   8.771 -0.0544  0.0748  0.4179
  447MOL0     C61570   7.152   3.983   8.882  0.6580 -0.5014  0.1333
  447MOL0     C61571   7.287   4.032   8.825  0.0964  0.3337  0.0697
  447MOL0     O61572   7.379   4.051   8.937 -0.2019 -0.5036 -0.6836
  447MOL0     C61573   7.515   4.038   8.917  0.0591 -0.8973  0.1486
  447MOL0     C61574   7.584   3.921   8.944 -0.0383  0.0168 -0.3650
  447MOL0     C61575   7.722   3.896   8.922 -0.0851 -0.2324  0.6584
  447MOL0     C61576   7.765   3.750   8.947  0.0836 -0.6693  0.4331
  447MOL0     C61577   7.803   4.003   8.878 -0.6099  0.7618 -0.7340
  447MOL0     C61578   7.949   3.990   8.849 -0.4693  0.3668 -0.7275
  447MOL0     O61579   8.018   4.109   8.833 -0.5850  0.6302  0.0028
  447MOL0     C61580   8.151   4.100   8.817  0.1612 -0.2193  0.7088
  447MOL0     C61581   8.229   4.118   8.924  0.1717  0.2368  0.1419
  447MOL0     C61582   8.370   4.089   8.937 -0.1504 -0.9727 -0.1728
  447MOL0     C61583   8.428   4.053   8.817 -0.3395 -0.1384  1.3568
  447MOL0     O61584   8.562   4.036   8.798 -0.0830 -0.1847 -1.0817
  447MOL0     C61585   8.643   4.135   8.870 -0.4247 -0.2311  0.4440
  447MOL0     C61586   8.776   4.146   8.793 -0.7281 -0.9235 -0.3191
  447MOL0     C61587   8.762   4.176   8.637 -0.4262  0.6487  0.5544
  447MOL0     C61588   8.694   4.308   8.599 -0.0702 -0.3446  0.0495
  447MOL0     C61589   8.581   4.297   8.493  0.0140 -0.3845 -0.2838
  447MOL0     C61590   8.527   4.433   8.448  0.8098 -1.1678 -0.3314
  447MOL0     C61591   8.382   4.420   8.395  0.1397  0.6983  0.5839
  447MOL0     C61592   8.351   4.525   8.293 -0.5450 -0.8427 -0.1611
  447MOL0    Cl61593   8.414   4.503   8.128 -0.3598  0.1137  0.2858
  447MOL0     C61594   8.345   4.043   8.698 -0.7195  0.3971 -0.3109
  447MOL0     C61595   8.207   4.054   8.694  0.0365  1.4241  0.1697
  447MOL0     O61596   7.992   3.876   8.844 -0.9757 -0.2169  0.8007
  447MOL0     C61597   7.748   4.133   8.862  0.4589  0.7082 -0.2029
  447MOL0     C61598   7.599   4.146   8.876 -0.4069  0.3505 -0.6191
  447MOL0     N61599   6.855   3.740   8.643  0.4871  0.1034 -0.0669
  447MOL0     N61600   6.755   3.705   8.580 -0.1287  0.1301 -0.4050
  447MOL0     C61601   5.660   3.637   8.139 -0.0940 -0.4089  0.6988
  447MOL0     C61602   5.560   3.582   8.054  0.5243 -0.4901 -0.6104
  447MOL0     C61603   5.143   3.452   7.985  0.3284  0.5358  0.0434
  447MOL0     C61604   5.184   3.415   7.858  0.2395  0.2581  0.0972
  447MOL0     C61605   5.081   3.408   7.766 -0.2265 -1.2559 -0.3631
  447MOL0     C61606   4.950   3.402   7.796 -0.5284 -0.1059 -0.4536
  447MOL0     O61607   4.864   3.366   7.695 -0.5355 -0.3962 -0.0347
  447MOL0     C61608   4.740   3.437   7.689 -0.0522  0.7482 -0.3331
  447MOL0     C61609   4.684   3.408   7.547  0.4766  0.3254 -0.0689
  447MOL0     C61610   4.529   3.429   7.559 -0.2091  0.2676  0.7560
  447MOL0     C61611   4.494   3.579   7.558  0.9594 -0.8964  0.2540
  447MOL0     C61612   4.341   3.592   7.569  0.9497 -0.1728  1.2520
  447MOL0     C61613   4.222   3.616   7.567  0.3848  0.5227  0.3981
  447MOL0     C61614   4.911   3.435   7.930  0.3061 -0.9851  0.2869
  447MOL0     C61615   5.009   3.471   8.026 -0.5353 -0.1553 -1.0724
  447MOL0     C61616   4.954   3.518   8.165  0.3752  0.4502  0.0644
  447MOL0     H61617   5.451   3.331   8.260 -1.3303  0.0824  0.3609
  447MOL0     H61618   5.634   3.442   8.407 -1.7961  0.8354  0.0225
  447MOL0     H61619   5.728   3.824   8.361 -1.2791 -1.7069 -0.8112
  447MOL0     H61620   5.875   3.805   8.260 -3.3446 -0.3151 -2.4489
  447MOL0     H61621   5.856   3.798   8.562 -0.8253  0.2652 -0.7478
  447MOL0     H61622   5.964   3.684   8.486 -2.3884 -1.4072 -0.0676
  447MOL0     H61623   6.087   3.869   8.382  2.1376  0.6937  2.0773
  447MOL0     H61624   5.936   3.977   8.400 -0.2715  0.1724  1.1438
  447MOL0     H61625   6.005   4.069   8.574 -0.0573  0.2886 -0.2231
  447MOL0     H61626   6.042   3.916   8.663  0.9904  1.7105  0.1329
  447MOL0     H61627   6.232   4.088   8.632 -0.7257  0.3962  0.0733
  447MOL0     H61628   6.223   4.039   8.461  3.9143 -1.1461 -0.0760
  447MOL0     H61629   6.241   3.825   8.676 -1.5714  1.0507  0.7834
  447MOL0     H61630   6.263   3.821   8.502 -1.2186 -0.4738  1.1949
  447MOL0     H61631   6.435   3.930   8.719 -0.0679  0.4111 -0.0621
  447MOL0     H61632   6.456   3.989   8.548 -0.9144 -0.1251 -0.3135
  447MOL0     H61633   6.483   3.692   8.636  2.7699  1.1424  4.1059
  447MOL0     H61634   6.504   3.760   8.471 -0.5118 -0.9002  0.4895
  447MOL0     H61635   6.641   3.979   8.732 -0.8923  0.6403 -0.4902
  447MOL0     H61636   6.909   3.874   8.899  1.6723 -1.2403  0.5597
  447MOL0     H61637   6.892   4.029   8.828 -1.3626 -0.3015 -1.4332
  447MOL0     H61638   7.092   3.813   8.783 -1.5261 -0.3610 -0.2548
  447MOL0     H61639   7.088   3.961   8.672  1.6075 -3.4956 -0.9055
  447MOL0     H61640   7.101   4.072   8.921  2.0448  1.5588 -2.3882
  447MOL0     H61641   7.177   3.911   8.960  4.4172 -0.3169 -0.7110
  447MOL0     H61642   7.322   3.947   8.765  2.0516  2.1128 -1.4726
  447MOL0     H61643   7.282   4.128   8.771  2.7606 -0.0527 -1.0458
  447MOL0     H61644   7.517   3.847   8.987 -0.5008 -0.9565 -2.6083
  447MOL0     H61645   7.820   3.750   9.042 -0.6742  3.5660  1.0847
  447MOL0     H61646   7.832   3.707   8.872 -0.7434  1.3143 -1.5631
  447MOL0     H61647   7.685   3.676   8.955  0.7345 -1.6855 -1.7293
  447MOL0     H61648   8.185   4.156   9.016  2.7166 -0.6501  1.8451
  447MOL0     H61649   8.419   4.102   9.032 -0.0648 -0.5615 -0.2740
  447MOL0     H61650   8.595   4.232   8.883 -0.0649 -0.0431  0.3990
  447MOL0     H61651   8.666   4.099   8.971  0.6586 -2.0584 -0.4024
  447MOL0     H61652   8.840   4.225   8.834  2.9777 -3.2470 -1.1450
  447MOL0     H61653   8.833   4.053   8.798  0.2745 -0.2918  0.4271
  447MOL0     H61654   8.713   4.093   8.586 -1.6873  0.6502  1.7393
  447MOL0     H61655   8.864   4.176   8.597  0.2338 -1.5787  2.0790
  447MOL0     H61656   8.777   4.366   8.557  1.4298 -2.7875 -0.5294
  447MOL0     H61657   8.658   4.371   8.682  0.9214 -0.9508  0.9598
  447MOL0     H61658   8.622   4.259   8.399 -0.9513  2.7727 -2.1055
  447MOL0     H61659   8.501   4.243   8.544  0.9232 -0.0037  1.6342
  447MOL0     H61660   8.590   4.453   8.361  1.2624 -2.2469 -0.2611
  447MOL0     H61661   8.529   4.508   8.528  2.4334  0.8151 -2.0935
  447MOL0     H61662   8.316   4.424   8.483  0.1689 -0.1470  0.6553
  447MOL0     H61663   8.370   4.321   8.349  0.2007 -0.1491  2.2656
  447MOL0     H61664   8.374   4.625   8.333 -1.8095 -0.9390  0.8803
  447MOL0     H61665   8.242   4.524   8.291 -0.5539 -2.2586  0.3806
  447MOL0     H61666   8.380   4.010   8.601  0.4170 -4.7733  1.5534
  447MOL0     H61667   8.153   4.033   8.602  0.7770  0.2718 -0.0228
  447MOL0     H61668   7.798   4.209   8.804 -2.5498  1.6336 -1.8079
  447MOL0     H61669   7.558   4.244   8.852  1.0049  0.9199 -0.8068
  447MOL0     H61670   5.722   3.720   8.106 -2.8912  0.9929 -1.3602
  447MOL0     H61671   5.544   3.628   7.957  0.1799  2.0844  0.5721
  447MOL0     H61672   5.285   3.391   7.827 -0.2126  0.9467 -2.0906
  447MOL0     H61673   5.107   3.392   7.662 -0.8089  2.7380 -1.2810
  447MOL0     H61674   4.676   3.391   7.765  2.9212 -2.7847  0.3240
  447MOL0     H61675   4.761   3.541   7.715  3.7136 -0.4883  2.5112
  447MOL0     H61676   4.709   3.309   7.506  3.0431  1.2667 -0.9626
  447MOL0     H61677   4.719   3.485   7.477 -1.5074  1.1920 -0.1607
  447MOL0     H61678   4.462   3.385   7.484 -0.7707  2.7047 -0.2600
  447MOL0     H61679   4.491   3.385   7.652  0.1882 -1.9552 -0.0543
  447MOL0     H61680   4.534   3.622   7.465 -0.0951  1.3832  0.7808
  447MOL0     H61681   4.549   3.636   7.632  0.8514  1.3916 -1.3184
  447MOL0     H61682   4.118   3.641   7.566  0.0652 -0.4010  2.8199
  447MOL0     H61683   4.804   3.431   7.946  0.0891  1.8398  0.1738
  447MOL0     H61684   5.014   3.481   8.249 -0.4067 -3.3375 -0.8418
  447MOL0     H61685   4.964   3.626   8.169 -2.1828  0.7727 -0.7589
  447MOL0     H61686   4.850   3.493   8.190  1.5603 -1.4048  3.9779
  448MOL0     O61687   2.169   6.748   3.610 -0.1694  0.4879 -0.5004
  448MOL0     C61688   2.078   6.797   3.545  0.0671 -0.1594 -0.4981
  448MOL0     O61689   2.100   6.904   3.461 -0.0716 -0.5453  0.1224
  448MOL0     C61690   2.233   6.928   3.429 -0.2802  0.5974  0.1570
  448MOL0     C61691   2.251   7.064   3.422  1.2085 -0.3419  0.1790
  448MOL0     C61692   2.369   7.124   3.378 -0.3459 -0.0555  0.0322
  448MOL0     C61693   2.483   7.037   3.369  0.5939  0.7032  0.2343
  448MOL0     O61694   2.610   7.075   3.333 -0.6241  0.0040 -0.2225
  448MOL0     C61695   2.623   7.199   3.255 -0.1173 -0.5111 -0.5255
  448MOL0     C61696   2.773   7.224   3.240 -0.8659  1.3620 -1.0272
  448MOL0     C61697   2.814   7.320   3.131  0.0785 -0.1645  0.1146
  448MOL0     C61698   2.951   7.293   3.081  0.0585 -0.2565  0.2791
  448MOL0     C61699   3.009   7.414   3.008  0.6770 -0.5710 -0.4883
  448MOL0     C61700   3.129   7.373   2.930 -0.5478  0.3787  0.1413
  448MOL0     C61701   3.215   7.479   2.872  0.0152 -0.0246  0.4893
  448MOL0     C61702   3.332   7.411   2.793 -0.4932  0.0555 -0.3607
  448MOL0     N61703   3.428   7.517   2.743  0.8993 -1.1944 -0.6997
  448MOL0     C61704   3.400   7.592   2.633 -0.5267  1.2338  0.2357
  448MOL0     C61705   3.521   7.647   2.600 -0.0403 -0.9791 -0.3170
  448MOL0     C61706   3.540   7.738   2.482  0.7017  0.1771  0.2758
  448MOL0     C61707   3.673   7.808   2.489  0.1907  0.4538  0.5146
  448MOL0     C61708   3.699   7.906   2.382  1.0061  1.1046 -0.0890
  448MOL0     C61709   3.817   7.993   2.422 -0.2891 -0.1768  0.7462
  448MOL0     O61710   3.943   7.928   2.373 -0.0874 -0.4653  0.1813
  448MOL0     C61711   4.060   7.999   2.345  0.6775 -0.2668  0.0264
  448MOL0     C61712   4.164   7.937   2.280  0.2667  0.0280 -0.1294
  448MOL0     C61713   4.292   7.997   2.283 -1.0407 -0.8879  0.5749
  448MOL0     C61714   4.407   7.920   2.217 -1.0118  1.1130 -0.9786
  448MOL0     C61715   4.307   8.131   2.330 -0.0601 -0.5565  0.4449
  448MOL0     C61716   4.434   8.209   2.330 -0.3108  0.0429 -0.0427
  448MOL0     O61717   4.420   8.341   2.371  0.1802  0.5571 -0.0414
  448MOL0     C61718   4.525   8.432   2.352 -0.2453  0.5438  0.0982
  448MOL0     C61719   4.595   8.448   2.226 -0.8490  0.3332  0.5555
  448MOL0     C61720   4.711   8.529   2.229 -0.3674 -0.6213  0.2023
  448MOL0     C61721   4.773   8.576   2.345 -0.0726 -0.2541  0.6424
  448MOL0     O61722   4.900   8.621   2.330  0.0134  0.6703 -0.1002
  448MOL0     C61723   4.975   8.676   2.440 -0.0835  0.0449 -0.0440
  448MOL0     C61724   5.111   8.739   2.409  0.2507  0.4534  0.1283
  448MOL0     C61725   5.221   8.628   2.413  0.1443  0.9379 -0.3766
  448MOL0     C61726   5.349   8.706   2.394 -0.3310 -0.0971 -0.2179
  448MOL0     C61727   5.466   8.612   2.375 -0.2252 -0.5539 -0.4860
  448MOL0     C61728   5.512   8.547   2.507 -0.9452  1.3366 -0.3712
  448MOL0     C61729   5.659   8.584   2.529 -0.8638 -0.5081  0.4397
  448MOL0     C61730   5.677   8.718   2.611 -0.1269 -0.4492 -0.4358
  448MOL0    Cl61731   5.662   8.865   2.514 -0.1655  0.5467  0.3248
  448MOL0     C61732   4.694   8.569   2.462 -0.1052  0.3742 -0.2778
  448MOL0     C61733   4.576   8.494   2.468  0.6450 -0.0766  0.2951
  448MOL0     O61734   4.533   8.168   2.280 -0.0559  0.9515  0.3060
  448MOL0     C61735   4.197   8.190   2.396  0.0205  0.3307 -0.8516
  448MOL0     C61736   4.073   8.125   2.407 -0.4246  0.7052 -0.2251
  448MOL0     N61737   3.615   7.607   2.704 -0.0197 -0.5936  0.4726
  448MOL0     N61738   3.555   7.518   2.776 -0.1232 -0.3370  0.5547
  448MOL0     C61739   2.458   6.901   3.380 -0.7484  0.3381 -0.5236
  448MOL0     C61740   2.337   6.836   3.410  1.0970  0.1002 -0.6529
  448MOL0     C61741   1.940   6.750   3.556 -0.0489  0.0759 -0.5789
  448MOL0     C61742   1.859   6.769   3.441  0.4290 -0.3818  0.2943
  448MOL0     C61743   1.723   6.735   3.437  0.8272  0.7894 -0.6909
  448MOL0     C61744   1.663   6.665   3.533 -0.0677  0.1392  1.2083
  448MOL0     O61745   1.534   6.621   3.515  0.3877  0.2378 -0.3270
  448MOL0     C61746   1.532   6.474   3.506  0.6402  0.6419  0.2496
  448MOL0     C61747   1.419   6.419   3.592  0.3242  0.0999  0.4706
  448MOL0     C61748   1.308   6.523   3.600 -0.2836  0.5797 -0.2936
  448MOL0     C61749   1.189   6.467   3.679 -0.4469 -0.0321  0.0382
  448MOL0     C61750   1.065   6.480   3.597  0.2146 -0.5809 -0.2808
  448MOL0     C61751   0.955   6.479   3.544 -0.5407 -0.4333 -0.2363
  448MOL0     C61752   1.742   6.635   3.640 -0.7462 -0.2779 -0.0838
  448MOL0     C61753   1.876   6.674   3.660 -0.7272 -0.1795  0.5755
  448MOL0     C61754   1.956   6.635   3.777  0.6796  0.4370 -0.1192
  448MOL0     H61755   2.167   7.130   3.441  1.4683 -0.2718  1.1469
  448MOL0     H61756   2.369   7.232   3.372  0.8286 -0.0365  0.1664
  448MOL0     H61757   2.579   7.285   3.307 -0.1150 -1.3679  0.9523
  448MOL0     H61758   2.577   7.190   3.157 -0.5666 -0.4920 -0.3168
  448MOL0     H61759   2.806   7.261   3.337  1.4048  0.8753 -1.5532
  448MOL0     H61760   2.828   7.131   3.220 -0.2654  1.5845 -0.4311
  448MOL0     H61761   2.741   7.321   3.050  0.5045  0.9794 -0.2877
  448MOL0     H61762   2.817   7.415   3.186  1.1147 -1.4602  2.4633
  448MOL0     H61763   3.017   7.270   3.165  2.1594  2.4788 -0.4980
  448MOL0     H61764   2.969   7.199   3.028  2.0491 -0.2289  0.8528
  448MOL0     H61765   3.039   7.482   3.089  0.6963 -0.3739 -0.6608
  448MOL0     H61766   2.937   7.465   2.944  1.5714  1.4042  0.0142
  448MOL0     H61767   3.190   7.327   3.008  0.4451 -1.4678 -1.6357
  448MOL0     H61768   3.101   7.303   2.850  0.5768  0.1578 -0.0664
  448MOL0     H61769   3.261   7.537   2.952  1.2370  1.3633 -1.1519
  448MOL0     H61770   3.157   7.541   2.804 -2.5231 -2.4172  0.2912
  448MOL0     H61771   3.383   7.332   2.848 -1.6623 -0.9148 -0.6216
  448MOL0     H61772   3.282   7.364   2.708 -1.3494  1.0509 -0.4190
  448MOL0     H61773   3.304   7.601   2.584  0.7205  2.0895 -2.2617
  448MOL0     H61774   3.455   7.807   2.478 -1.8617 -2.8164 -2.0620
  448MOL0     H61775   3.529   7.663   2.402 -2.5982 -0.6769  1.3786
  448MOL0     H61776   3.689   7.866   2.579  2.7371 -0.7517  0.9104
  448MOL0     H61777   3.758   7.740   2.482  2.3912  3.2161 -2.5876
  448MOL0     H61778   3.716   7.850   2.289 -1.0388  0.5204 -0.1620
  448MOL0     H61779   3.610   7.969   2.381  1.3969  1.6693 -0.5802
  448MOL0     H61780   3.818   8.084   2.361 -1.4168  0.6846  1.9389
  448MOL0     H61781   3.824   8.019   2.528  1.1498  3.5147 -0.1189
  448MOL0     H61782   4.147   7.842   2.231 -0.4099 -0.0989  0.3355
  448MOL0     H61783   4.483   7.903   2.293 -2.8988  1.2656  1.0270
  448MOL0     H61784   4.440   7.972   2.126 -1.2848 -0.6240 -2.1345
  448MOL0     H61785   4.378   7.820   2.183  0.7581  0.6625 -1.2788
  448MOL0     H61786   4.565   8.418   2.126  0.2738  0.2186  0.2351
  448MOL0     H61787   4.753   8.544   2.130 -4.4053  0.8862 -1.5425
  448MOL0     H61788   4.901   8.743   2.485 -0.7132 -0.3389 -0.4881
  448MOL0     H61789   4.996   8.595   2.510 -2.9058 -0.2645  0.5698
  448MOL0     H61790   5.094   8.762   2.304 -0.3174 -0.5540 -0.0147
  448MOL0     H61791   5.119   8.827   2.474 -0.7308  1.8769 -1.6029
  448MOL0     H61792   5.195   8.557   2.334 -0.6728  0.7418  0.0511
  448MOL0     H61793   5.224   8.570   2.506  0.8533 -1.6755 -1.9379
  448MOL0     H61794   5.354   8.775   2.479 -1.0711 -2.7598  2.1370
  448MOL0     H61795   5.332   8.773   2.309 -0.4709  0.2411  0.0732
  448MOL0     H61796   5.435   8.533   2.306 -0.5861 -0.9050  0.0689
  448MOL0     H61797   5.550   8.665   2.330  1.3232 -2.8482 -0.5041
  448MOL0     H61798   5.505   8.439   2.493 -4.3718  1.3960  0.0429
  448MOL0     H61799   5.453   8.571   2.596  1.3487  2.1019  1.0191
  448MOL0     H61800   5.715   8.590   2.435 -0.0490  0.2518  0.9670
  448MOL0     H61801   5.709   8.501   2.580 -1.3001  0.2003  2.0972
  448MOL0     H61802   5.773   8.723   2.663 -0.3568  2.4058 -0.1353
  448MOL0     H61803   5.601   8.711   2.690  0.5350 -0.8280  0.1910
  448MOL0     H61804   4.722   8.627   2.549  1.5960 -0.1980 -0.4138
  448MOL0     H61805   4.513   8.483   2.555  0.3428  3.6642  0.7330
  448MOL0     H61806   4.194   8.291   2.434  0.4259 -0.5494  1.6968
  448MOL0     H61807   3.986   8.163   2.460  0.1403 -1.4868  2.5067
  448MOL0     H61808   2.548   6.842   3.376 -0.2380  1.1844 -2.0499
  448MOL0     H61809   2.314   6.731   3.397 -0.3656  0.1898  0.9103
  448MOL0     H61810   1.894   6.810   3.347  1.1666  0.9580  1.1170
  448MOL0     H61811   1.662   6.761   3.351 -0.8056 -0.2733  0.0927
  448MOL0     H61812   1.502   6.441   3.406  1.5169  1.6595 -0.3759
  448MOL0     H61813   1.628   6.427   3.527  0.7825 -1.2429 -3.7680
  448MOL0     H61814   1.452   6.391   3.693 -0.5089 -0.4446  0.6049
  448MOL0     H61815   1.377   6.333   3.538 -1.4194  3.2024 -3.6534
  448MOL0     H61816   1.345   6.602   3.666 -0.5215 -0.2507  0.8730
  448MOL0     H61817   1.286   6.566   3.502 -0.9559 -0.9390 -0.8391
  448MOL0     H61818   1.184   6.534   3.766 -0.0331  3.4844 -2.4395
  448MOL0     H61819   1.203   6.367   3.719 -0.9757  1.1210  3.4601
  448MOL0     H61820   0.862   6.494   3.492 -0.6065  1.9909  0.4324
  448MOL0     H61821   1.690   6.574   3.714 -5.0597  2.0388 -0.8765
  448MOL0     H61822   1.909   6.563   3.845 -0.8104 -0.0294 -1.5696
  448MOL0     H61823   2.036   6.571   3.740  1.1203  0.5468  0.6311
  448MOL0     H61824   1.994   6.717   3.838 -3.0863  0.6200  2.3118
  449MOL0     O61825   6.973   4.217   4.398 -0.7257 -0.2096  0.0505
  449MOL0     C61826   6.964   4.242   4.518 -0.3479  0.6778 -0.0858
  449MOL0     O61827   7.062   4.299   4.596  0.2241 -0.0259 -0.4256
  449MOL0     C61828   7.174   4.339   4.531 -0.6821 -0.1618 -0.0594
  449MOL0     C61829   7.292   4.270   4.529  0.0248  0.2941  0.1563
  449MOL0     C61830   7.404   4.326   4.467 -0.0073 -0.3625  0.2354
  449MOL0     C61831   7.402   4.442   4.397 -0.2824 -0.2855 -0.1035
  449MOL0     O61832   7.508   4.499   4.333 -0.6448 -0.1716  0.7050
  449MOL0     C61833   7.624   4.431   4.327 -0.3183 -0.5107  0.6943
  449MOL0     C61834   7.718   4.475   4.216 -0.7229  0.2924  0.1048
  449MOL0     C61835   7.854   4.392   4.233 -0.2497  0.7761 -0.2927
  449MOL0     C61836   7.940   4.403   4.112 -0.5442  0.3614  0.7117
  449MOL0     C61837   8.075   4.318   4.101  0.8046 -0.4221  0.8309
  449MOL0     C61838   8.159   4.365   4.221  0.2741 -0.0696 -0.5804
  449MOL0     C61839   8.313   4.344   4.197 -0.2489 -0.0906 -0.5998
  449MOL0     C61840   8.388   4.436   4.104  0.5790  0.3665  0.2430
  449MOL0     N61841   8.532   4.437   4.107 -0.3306  0.1596 -0.3076
  449MOL0     C61842   8.607   4.507   4.194  0.0446 -0.7795 -0.4988
  449MOL0     C61843   8.741   4.483   4.163  1.0012  0.4277 -0.3576
  449MOL0     C61844   8.865   4.541   4.218 -0.9687  0.3703  0.0409
  449MOL0     C61845   8.886   4.494   4.359 -1.2339  0.6326  0.2034
  449MOL0     C61846   8.926   4.350   4.368  0.1476  0.4197 -0.3765
  449MOL0     C61847   8.986   4.307   4.506  0.0651 -0.6255  0.1302
  449MOL0     O61848   9.050   4.184   4.506  0.7243 -0.1080 -0.4948
  449MOL0     C61849   9.169   4.170   4.442  0.5295  0.1108 -0.3526
  449MOL0     C61850   9.207   4.036   4.436 -0.2780 -0.0942 -0.2311
  449MOL0     C61851   9.328   3.997   4.378 -0.7728  0.1986  0.2586
  449MOL0     C61852   9.371   3.856   4.389  0.6228 -0.3499 -0.1673
  449MOL0     C61853   9.419   4.105   4.332 -0.2521  0.5513 -0.4779
  449MOL0     C61854   9.553   4.088   4.273  0.4166 -0.3984 -1.1838
  449MOL0     O61855   9.633   3.988   4.332  0.2801  0.1420  0.2935
  449MOL0     C61856   9.761   3.978   4.277  0.1920  0.1034 -1.3312
  449MOL0     C61857   9.860   4.077   4.280 -0.0621 -0.2970  0.0473
  449MOL0     C61858   9.982   4.058   4.213  0.1901 -0.1323  0.0021
  449MOL0     C61859  10.002   3.940   4.145  0.1523  0.8110  0.8990
  449MOL0     O61860  10.130   3.926   4.089 -0.6726 -0.3308 -0.4985
  449MOL0     C61861  10.145   3.831   3.982  0.2369 -0.7015  0.1254
  449MOL0     C61862  10.286   3.844   3.918 -0.1034  0.4723  0.8456
  449MOL0     C61863  10.303   3.736   3.810 -0.2848 -0.7506  0.2155
  449MOL0     C61864  10.451   3.724   3.782 -0.1464 -0.4276  0.6336
  449MOL0     C61865  10.505   3.628   3.675  0.1376  0.2256 -0.0283
  449MOL0     C61866  10.654   3.582   3.704  0.6095  0.2221 -0.5300
  449MOL0     C61867  10.733   3.703   3.692 -0.2728 -0.4625 -0.3031
  449MOL0     C61868  10.881   3.659   3.690 -0.1161  0.3201  0.7010
  449MOL0    Cl61869  10.918   3.582   3.861 -0.2037 -0.3942  0.0511
  449MOL0     C61870   9.901   3.846   4.125 -0.2460  0.5178  0.2425
  449MOL0     C61871   9.779   3.866   4.196  0.4217  0.3671 -0.1224
  449MOL0     O61872   9.584   4.155   4.179  0.0685  0.4827  0.1836
  449MOL0     C61873   9.367   4.232   4.334  0.9662 -1.2723  0.7365
  449MOL0     C61874   9.239   4.275   4.381  0.0646  0.8133  0.8442
  449MOL0     N61875   8.732   4.393   4.060 -0.5676  0.1880 -0.3080
  449MOL0     N61876   8.612   4.361   4.026  0.1392  0.4585  0.3553
  449MOL0     C61877   7.279   4.509   4.388 -0.0430 -0.5920 -0.0683
  449MOL0     C61878   7.168   4.458   4.457 -0.0743 -0.0554  0.2409
  449MOL0     C61879   6.850   4.183   4.597  0.1597 -0.5362  0.8087
  449MOL0     C61880   6.852   4.200   4.736 -0.5121 -0.0853  0.0739
  449MOL0     C61881   6.760   4.144   4.814  0.1125 -0.0658  0.3349
  449MOL0     C61882   6.647   4.089   4.748  0.1242  0.3925  0.4830
  449MOL0     O61883   6.545   4.032   4.818 -0.3422  0.1346 -0.2358
  449MOL0     C61884   6.586   3.931   4.908 -0.3342  0.6517 -1.0692
  449MOL0     C61885   6.469   3.833   4.928  0.5861 -0.2545 -0.3601
  449MOL0     C61886   6.493   3.716   5.029  0.1731 -0.6609 -0.9518
  449MOL0     C61887   6.459   3.749   5.171 -0.4871  0.1810  0.5530
  449MOL0     C61888   6.495   3.639   5.259 -0.2982 -0.4609 -1.1488
  449MOL0     C61889   6.511   3.540   5.335  0.1063 -0.4772  0.8767
  449MOL0     C61890   6.633   4.081   4.611  0.0520 -1.3033 -0.2905
  449MOL0     C61891   6.734   4.129   4.533 -0.4314  0.0295 -0.1100
  449MOL0     C61892   6.708   4.123   4.382 -0.6000  0.1697  0.1307
  449MOL0     H61893   7.302   4.174   4.578  2.2071 -1.2542 -2.9797
  449MOL0     H61894   7.501   4.278   4.482  1.1166  1.6628 -0.1472
  449MOL0     H61895   7.592   4.329   4.304 -0.2335 -0.4608  0.3509
  449MOL0     H61896   7.684   4.430   4.419 -0.6191 -1.5493  0.8935
  449MOL0     H61897   7.667   4.469   4.119 -3.3236  2.0328  1.2577
  449MOL0     H61898   7.750   4.580   4.222  1.7369 -0.4342  0.9912
  449MOL0     H61899   7.905   4.429   4.322 -2.8208 -0.1066  1.6739
  449MOL0     H61900   7.838   4.284   4.242  2.4197  0.1674 -1.6649
  449MOL0     H61901   7.878   4.371   4.027  0.5332 -1.7379  0.6569
  449MOL0     H61902   7.961   4.508   4.089  0.3824 -0.2103 -1.2846
  449MOL0     H61903   8.123   4.342   4.005  0.7886  0.8774  1.1324
  449MOL0     H61904   8.044   4.213   4.099  0.5105 -0.3456 -0.9144
  449MOL0     H61905   8.144   4.471   4.247  1.3462 -0.2307  0.8421
  449MOL0     H61906   8.137   4.311   4.314  2.4571 -0.2091 -0.0893
  449MOL0     H61907   8.335   4.241   4.167 -0.1534  0.0260 -0.9361
  449MOL0     H61908   8.358   4.365   4.295 -0.8383  0.7446 -0.5004
  449MOL0     H61909   8.361   4.406   4.002 -0.2553 -0.0182  0.5665
  449MOL0     H61910   8.351   4.538   4.118 -0.8415 -0.0819 -0.1397
  449MOL0     H61911   8.579   4.585   4.263 -0.0503 -1.6957  0.5246
  449MOL0     H61912   8.869   4.650   4.218  1.3407  0.3494 -0.4886
  449MOL0     H61913   8.945   4.514   4.147 -0.2382  1.1411  0.5510
  449MOL0     H61914   8.968   4.554   4.400 -0.4062 -1.1627  1.2657
  449MOL0     H61915   8.793   4.516   4.412 -0.5429 -1.3011  2.3930
  449MOL0     H61916   8.837   4.290   4.346  0.2307  0.1672 -0.0404
  449MOL0     H61917   8.998   4.324   4.290  0.3711 -2.3927  0.6429
  449MOL0     H61918   9.059   4.379   4.543 -0.5654  0.7352 -1.1719
  449MOL0     H61919   8.906   4.317   4.579  0.6162  1.0645  0.5264
  449MOL0     H61920   9.145   3.954   4.471 -0.8719 -0.1621 -1.3855
  449MOL0     H61921   9.422   3.827   4.296  3.1041 -1.8286  1.5301
  449MOL0     H61922   9.283   3.794   4.408  0.4822  0.5093  2.3451
  449MOL0     H61923   9.442   3.841   4.470  0.1202  0.9149  0.5428
  449MOL0     H61924   9.841   4.160   4.348  0.6762 -1.5520  1.8676
  449MOL0     H61925  10.058   4.135   4.205 -0.7156  0.8029  0.1922
  449MOL0     H61926  10.144   3.728   4.019  2.7893 -1.0086 -0.4301
  449MOL0     H61927  10.069   3.837   3.904 -1.8701  0.7591  2.1865
  449MOL0     H61928  10.293   3.943   3.872  2.4802  0.3162  0.7331
  449MOL0     H61929  10.363   3.837   3.996  0.1611  0.4805  0.5894
  449MOL0     H61930  10.260   3.775   3.718  3.7867 -1.6989 -2.3277
  449MOL0     H61931  10.246   3.648   3.840 -0.4156 -0.3561  1.1784
  449MOL0     H61932  10.508   3.699   3.872  2.0938  1.6323 -0.1039
  449MOL0     H61933  10.485   3.826   3.761  0.1885 -0.7337 -0.3590
  449MOL0     H61934  10.439   3.541   3.680 -0.4176  0.2031 -4.2891
  449MOL0     H61935  10.498   3.674   3.576 -0.6834 -1.7291 -0.9321
  449MOL0     H61936  10.682   3.507   3.630  0.7349  0.3113 -0.5728
  449MOL0     H61937  10.666   3.531   3.800  1.4884 -1.7717 -1.6393
  449MOL0     H61938  10.716   3.767   3.779  1.5917 -0.4184  0.0714
  449MOL0     H61939  10.707   3.758   3.601  1.1240  1.7347  0.5421
  449MOL0     H61940  10.951   3.740   3.672 -0.8509  0.9710  0.7468
  449MOL0     H61941  10.908   3.588   3.611 -1.2487 -1.8062  2.0911
  449MOL0     H61942   9.912   3.751   4.075  1.4059 -0.1681  1.8378
  449MOL0     H61943   9.704   3.788   4.189 -2.9812  3.3806 -1.0763
  449MOL0     H61944   9.440   4.301   4.291  0.6734 -2.1344 -1.2303
  449MOL0     H61945   9.206   4.378   4.374 -2.1237  0.0727 -1.0000
  449MOL0     H61946   7.269   4.604   4.338  1.3838  0.2339  1.1014
  449MOL0     H61947   7.075   4.513   4.443  0.0935  0.1079 -0.2704
  449MOL0     H61948   6.943   4.246   4.773  1.7892 -1.8624 -2.9522
  449MOL0     H61949   6.767   4.156   4.922 -1.3512  0.3627  0.4020
  449MOL0     H61950   6.667   3.871   4.865 -0.5142 -0.0327 -0.4571
  449MOL0     H61951   6.634   3.974   4.996  1.3510 -0.2497 -1.5120
  449MOL0     H61952   6.441   3.797   4.829 -3.6278 -0.3992  0.6847
  449MOL0     H61953   6.379   3.886   4.960 -0.4725 -2.7315  1.1246
  449MOL0     H61954   6.424   3.639   4.993 -0.7148  0.2540 -1.2522
  449MOL0     H61955   6.595   3.677   5.023  0.6807  0.7247 -1.6668
  449MOL0     H61956   6.352   3.762   5.191 -0.7296 -0.3448 -0.3165
  449MOL0     H61957   6.523   3.834   5.194  2.9946 -2.1889  0.4856
  449MOL0     H61958   6.518   3.454   5.398 -2.5144 -0.5644  1.1725
  449MOL0     H61959   6.544   4.040   4.565  1.1947 -3.7886 -0.5031
  449MOL0     H61960   6.600   4.117   4.365 -1.4776  6.7444  0.6493
  449MOL0     H61961   6.736   4.213   4.327  3.0028 -0.7442  0.1772
  449MOL0     H61962   6.764   4.037   4.344 -1.0343 -0.8466  1.6862
  450MOL0     O61963  10.133   5.597   0.174  0.6637  0.6796 -0.4625
  450MOL0     C61964  10.054   5.500   0.166  0.2122  0.1283  0.0291
  450MOL0     O61965  10.086   5.381   0.111 -0.5665  0.3106  0.1797
  450MOL0     C61966  10.215   5.340   0.104 -0.1545  0.3890  0.1532
  450MOL0     C61967  10.269   5.252   0.195  0.5675  0.5713  0.3272
  450MOL0     C61968  10.396   5.200   0.176  0.1433  0.0888 -0.5475
  450MOL0     C61969  10.481   5.263   0.085 -0.1012 -0.2715 -0.0932
  450MOL0     O61970  10.620   5.226   0.057  0.3618 -0.1784 -0.9387
  450MOL0     C61971  10.691   5.128   0.137  0.3596 -0.0473 -0.3674
  450MOL0     C61972  10.832   5.110   0.090  0.2520 -0.6707 -0.6747
  450MOL0     C61973  10.843   5.072  -0.058  0.1598 -0.0732  0.6102
  450MOL0     C61974  10.988   5.064  -0.093 -0.1863  0.1025  0.5951
  450MOL0     C61975  10.996   5.050  -0.242 -1.1061  0.9012  0.2520
  450MOL0     C61976  11.147   5.082  -0.277  0.1686 -0.4428 -0.1637
  450MOL0     C61977  11.154   5.084  -0.430 -0.0125 -0.0649  0.0312
  450MOL0     C61978  11.263   4.990  -0.484 -0.5040 -0.7291  0.1483
  450MOL0     N61979  11.398   5.038  -0.476 -0.5577  0.2018  0.3608
  450MOL0     C61980  11.467   5.058  -0.358 -0.6889  0.8281  0.1046
  450MOL0     C61981  11.582   5.126  -0.394  0.9603  0.9899 -0.1109
  450MOL0     C61982  11.670   5.204  -0.298 -0.3741  0.2254 -0.0111
  450MOL0     C61983  11.805   5.241  -0.360  0.5116 -0.4790  0.0973
  450MOL0     C61984  11.883   5.120  -0.399  0.4106  0.4269 -0.2593
  450MOL0     C61985  12.008   5.156  -0.475 -0.1130  0.3180 -0.5952
  450MOL0     O61986  12.087   5.235  -0.386  0.2452  0.4483  0.4322
  450MOL0     C61987  12.215   5.261  -0.404 -0.4776  0.1904  0.0313
  450MOL0     C61988  12.284   5.240  -0.526 -0.2118  0.3780  0.1326
  450MOL0     C61989  12.422   5.256  -0.540 -0.4470 -0.1426  0.3444
  450MOL0     C61990  12.473   5.254  -0.675 -0.2290 -0.1267  1.1498
  450MOL0     C61991  12.503   5.273  -0.430  0.2433  0.2068 -0.8797
  450MOL0     C61992  12.656   5.289  -0.426  0.3342  0.0086 -0.3170
  450MOL0     O61993  12.718   5.295  -0.302  0.2804  0.1003 -0.2228
  450MOL0     C61994  12.854   5.326  -0.308 -0.3979  0.5707  0.4987
  450MOL0     C61995  12.943   5.259  -0.225  0.4749  0.0946  0.4913
  450MOL0     C61996  13.073   5.302  -0.226 -0.0144 -0.1899 -0.1936
  450MOL0     C61997  13.125   5.397  -0.311  0.4015 -0.1881 -0.0024
  450MOL0     O61998  13.263   5.426  -0.304  0.6845  0.2788  0.8421
  450MOL0     C61999  13.309   5.534  -0.389  0.3477  0.4965  0.9239
  450MOL0     C62000  13.459   5.547  -0.381  0.4620  0.2037  0.0722
  450MOL0     C62001  13.526   5.427  -0.444  0.2872  0.2615 -0.3500
  450MOL0     C62002  13.673   5.413  -0.404 -0.1836  0.5653 -0.1340
  450MOL0     C62003  13.727   5.275  -0.420 -0.2807 -0.0841  0.1360
  450MOL0     C62004  13.881   5.279  -0.388  0.0312  0.7566  1.1207
  450MOL0     C62005  13.949   5.147  -0.424 -0.4571 -0.2187 -0.1905
  450MOL0     C62006  14.069   5.174  -0.520  0.3853 -0.0307  0.6550
  450MOL0    Cl62007  14.186   5.283  -0.439 -0.0589 -0.2716 -0.0089
  450MOL0     C62008  13.038   5.463  -0.395 -0.6532  0.8008  0.5258
  450MOL0     C62009  12.897   5.435  -0.386 -0.1991  0.1939 -0.6428
  450MOL0     O62010  12.718   5.279  -0.530  0.3404 -0.0820 -0.5044
  450MOL0     C62011  12.440   5.291  -0.306  0.7550  0.2557 -0.5197
  450MOL0     C62012  12.295   5.299  -0.295 -0.1975 -0.6298  0.0055
  450MOL0     N62013  11.573   5.152  -0.535 -0.1443  0.1519  0.4850
  450MOL0     N62014  11.460   5.102  -0.577 -0.6447  0.3188  0.2442
  450MOL0     C62015  10.440   5.364   0.003  1.1737 -0.5325 -0.9589
  450MOL0     C62016  10.302   5.400   0.008  0.9445  0.6987  0.4814
  450MOL0     C62017   9.908   5.527   0.185 -0.4767  0.5531  0.0126
  450MOL0     C62018   9.823   5.418   0.193  0.4588 -0.3684  0.6886
  450MOL0     C62019   9.682   5.449   0.198 -0.2951 -0.0045 -0.3426
  450MOL0     C62020   9.631   5.575   0.206  1.1651 -0.1599  1.1268
  450MOL0     O62021   9.499   5.614   0.206  0.0436 -0.2012  0.3309
  450MOL0     C62022   9.416   5.554   0.099  0.4337 -0.7242 -0.5315
  450MOL0     C62023   9.296   5.639   0.069  0.5743  0.2518  0.0754
  450MOL0     C62024   9.191   5.650   0.176 -0.6091  1.1416 -0.1030
  450MOL0     C62025   9.128   5.523   0.217  0.4357  0.4232 -0.4465
  450MOL0     C62026   9.183   5.435   0.320  0.1316  0.2654 -0.5592
  450MOL0     C62027   9.210   5.345   0.394 -0.2693  0.0971  0.2862
  450MOL0     C62028   9.723   5.681   0.200 -0.8454  0.4054 -0.3452
  450MOL0     C62029   9.859   5.661   0.203 -0.2822  0.0839 -0.8670
  450MOL0     C62030   9.939   5.788   0.226 -0.4411 -0.1708  1.1347
  450MOL0     H62031  10.198   5.209   0.265  1.0778  0.5088  0.8127
  450MOL0     H62032  10.424   5.124   0.248  0.3367  0.1464 -0.5625
  450MOL0     H62033  10.643   5.031   0.123 -0.3501  0.1061  0.9207
  450MOL0     H62034  10.686   5.156   0.242  1.7322  0.0176 -0.2980
  450MOL0     H62035  10.893   5.200   0.099  2.0211 -1.5076 -3.3368
  450MOL0     H62036  10.882   5.038   0.156 -0.7617 -2.2313 -1.5569
  450MOL0     H62037  10.796   4.973  -0.063 -2.1518  0.8967  1.6103
  450MOL0     H62038  10.800   5.148  -0.124  3.4256  0.2641 -1.3880
  450MOL0     H62039  11.034   5.156  -0.056 -3.6189  2.0329  0.4054
  450MOL0     H62040  11.036   4.971  -0.061 -1.3968 -1.0566 -0.8211
  450MOL0     H62041  10.934   5.121  -0.296  0.2898  0.0114 -2.7022
  450MOL0     H62042  10.970   4.944  -0.254  2.0248 -0.1530  1.4646
  450MOL0     H62043  11.175   5.181  -0.240 -1.9852 -0.1233  0.7946
  450MOL0     H62044  11.213   5.005  -0.235 -3.0134 -3.6333 -0.5471
  450MOL0     H62045  11.165   5.189  -0.457 -1.5464  0.1006 -0.0232
  450MOL0     H62046  11.065   5.037  -0.472  1.6522 -1.7257 -1.8503
  450MOL0     H62047  11.245   4.894  -0.433  0.1713  0.6176  3.0873
  450MOL0     H62048  11.249   4.965  -0.590  1.1455 -2.9114  0.3740
  450MOL0     H62049  11.424   5.027  -0.263  1.2295  0.2674  0.8406
  450MOL0     H62050  11.690   5.139  -0.212  1.0331  0.0963 -0.4003
  450MOL0     H62051  11.619   5.298  -0.276 -1.0388  0.4621 -2.3023
  450MOL0     H62052  11.780   5.285  -0.457  0.9097 -0.4738 -0.0051
  450MOL0     H62053  11.870   5.298  -0.293  1.5496  0.9549 -2.0221
  450MOL0     H62054  11.926   5.062  -0.316 -1.2671  0.0314  0.3968
  450MOL0     H62055  11.822   5.055  -0.462  1.6983  0.9247 -2.0870
  450MOL0     H62056  12.070   5.069  -0.496  0.1437 -0.6539  3.4355
  450MOL0     H62057  11.980   5.206  -0.568  2.1445  0.0650 -1.4532
  450MOL0     H62058  12.223   5.216  -0.613 -0.7506 -0.6621  0.7700
  450MOL0     H62059  12.488   5.151  -0.708 -3.8583 -0.1949 -0.8900
  450MOL0     H62060  12.566   5.310  -0.689 -1.4404  1.4777 -1.4483
  450MOL0     H62061  12.411   5.314  -0.744  0.0706  0.7653  1.6422
  450MOL0     H62062  12.896   5.192  -0.154 -0.1620  1.3169  1.2701
  450MOL0     H62063  13.129   5.251  -0.148 -0.4030  0.4648  0.5278
  450MOL0     H62064  13.282   5.507  -0.492 -1.2084 -2.5544  2.0056
  450MOL0     H62065  13.268   5.634  -0.371  0.8358  1.2428 -1.6062
  450MOL0     H62066  13.491   5.633  -0.442 -3.0079  0.0455 -2.2152
  450MOL0     H62067  13.475   5.560  -0.274 -1.7228 -0.1176  0.4710
  450MOL0     H62068  13.521   5.436  -0.553 -3.2046  1.8513 -0.2292
  450MOL0     H62069  13.472   5.339  -0.409 -0.2763  0.2339 -1.2595
  450MOL0     H62070  13.695   5.455  -0.306  1.0729  0.6063 -0.4155
  450MOL0     H62071  13.724   5.488  -0.466 -2.0503  1.5550 -0.5574
  450MOL0     H62072  13.669   5.211  -0.353 -1.7096 -0.2223 -1.1896
  450MOL0     H62073  13.700   5.255  -0.524  0.8615  1.1828 -0.4354
  450MOL0     H62074  13.900   5.293  -0.282  0.5628 -0.9036  1.2624
  450MOL0     H62075  13.925   5.352  -0.457  2.5551  2.6629  4.4653
  450MOL0     H62076  13.888   5.078  -0.483  1.7115 -1.4591 -1.1471
  450MOL0     H62077  13.995   5.100  -0.336 -0.0900 -0.3382 -0.4401
  450MOL0     H62078  14.029   5.228  -0.606 -1.9664 -0.7450  1.2433
  450MOL0     H62079  14.111   5.081  -0.559 -2.9399 -1.0942 -0.6715
  450MOL0     H62080  13.073   5.531  -0.472  0.0064 -0.9350 -0.7742
  450MOL0     H62081  12.833   5.490  -0.453 -2.6270 -0.7901  0.7407
  450MOL0     H62082  12.498   5.321  -0.219  1.9310  1.3928 -1.6553
  450MOL0     H62083  12.249   5.316  -0.198  1.1697 -2.1796  0.9937
  450MOL0     H62084  10.507   5.416  -0.065 -1.6776 -0.3259 -3.8876
  450MOL0     H62085  10.264   5.483  -0.051  0.7360  2.1477  2.5283
  450MOL0     H62086   9.856   5.316   0.177 -3.1017 -1.3204 -1.6501
  450MOL0     H62087   9.614   5.365   0.206 -1.7602  1.1546 -0.1726
  450MOL0     H62088   9.474   5.553   0.006  1.2280 -1.6602 -0.0503
  450MOL0     H62089   9.382   5.452   0.119  1.5833 -1.3784 -1.7535
  450MOL0     H62090   9.234   5.589  -0.006  0.0584 -1.7682  1.7543
  450MOL0     H62091   9.333   5.732   0.025 -0.0807 -0.4071 -2.0035
  450MOL0     H62092   9.242   5.690   0.263 -0.2759  0.1626  0.1613
  450MOL0     H62093   9.108   5.715   0.147 -1.7394 -0.0230  0.3927
  450MOL0     H62094   9.115   5.465   0.125 -0.2915 -0.2578  0.0769
  450MOL0     H62095   9.029   5.557   0.248 -0.5904 -0.6841 -2.2959
  450MOL0     H62096   9.232   5.262   0.457  1.9803 -0.0772 -0.6491
  450MOL0     H62097   9.687   5.783   0.202  2.3527  1.6501 -0.7325
  450MOL0     H62098  10.011   5.782   0.308  1.4398 -0.4195 -0.4643
  450MOL0     H62099  10.004   5.808   0.140 -0.9462 -2.9868 -0.0116
  450MOL0     H62100   9.868   5.870   0.243 -1.6944 -0.5263 -1.7450
  451MOL0     O62101   4.008   2.591  11.064  0.0831  0.1576 -0.6710
  451MOL0     C62102   3.910   2.537  11.012  0.1219  0.1258 -0.9786
  451MOL0     O62103   3.905   2.432  10.930  0.5893 -0.1420 -0.1269
  451MOL0     C62104   4.020   2.355  10.917  0.2465 -0.5507  0.9268
  451MOL0     C62105   4.101   2.308  11.019  0.7878  0.8401  0.7496
  451MOL0     C62106   4.211   2.221  10.988 -0.2617  0.2061  0.5584
  451MOL0     C62107   4.245   2.181  10.860  0.1994 -0.4803 -0.2556
  451MOL0     O62108   4.353   2.110  10.820 -0.5956  0.0861 -0.3473
  451MOL0     C62109   4.462   2.104  10.913  1.3476 -0.1468  0.3894
  451MOL0     C62110   4.587   2.055  10.840  0.0228  0.6795  1.0940
  451MOL0     C62111   4.591   1.909  10.827  0.4608  0.4848  0.0676
  451MOL0     C62112   4.711   1.850  10.746 -0.0044 -0.3276  1.1041
  451MOL0     C62113   4.702   1.852  10.592 -0.6660 -0.5202  0.3534
  451MOL0     C62114   4.766   1.977  10.534  0.1326  0.3715  0.4000
  451MOL0     C62115   4.725   2.004  10.396  0.0227  0.7335 -0.0482
  451MOL0     C62116   4.598   2.096  10.393  0.3847 -0.7727 -0.6974
  451MOL0     N62117   4.474   2.023  10.386  0.3510 -0.1189 -0.4893
  451MOL0     C62118   4.381   2.001  10.483 -0.6289 -0.0628  0.4772
  451MOL0     C62119   4.284   1.931  10.422  0.2571 -0.5879 -0.4899
  451MOL0     C62120   4.149   1.894  10.495 -0.0589 -0.1489  0.0264
  451MOL0     C62121   4.182   1.802  10.611  0.4959  0.0205 -0.3565
  451MOL0     C62122   4.262   1.673  10.582 -0.5555  0.0660 -0.7231
  451MOL0     C62123   4.270   1.579  10.709 -0.0620 -1.1818  0.6530
  451MOL0     O62124   4.367   1.643  10.794  0.2451 -0.0791 -0.6254
  451MOL0     C62125   4.386   1.583  10.914 -0.2551  0.4225 -0.1379
  451MOL0     C62126   4.325   1.637  11.026  0.3082 -0.1820 -1.0778
  451MOL0     C62127   4.338   1.580  11.157  0.5564 -0.1461  0.2431
  451MOL0     C62128   4.274   1.650  11.273  0.4068 -0.6747 -0.2583
  451MOL0     C62129   4.403   1.464  11.163  0.1200  0.1911 -0.6101
  451MOL0     C62130   4.414   1.388  11.292  0.1650 -0.0039  0.6914
  451MOL0     O62131   4.399   1.451  11.414 -0.8634  0.0136  0.0553
  451MOL0     C62132   4.405   1.368  11.524  0.1920 -0.2091  0.3305
  451MOL0     C62133   4.283   1.331  11.587  1.0451  0.1930 -0.0922
  451MOL0     C62134   4.287   1.252  11.702 -0.6299  0.2158 -1.7556
  451MOL0     C62135   4.406   1.206  11.756  0.4653  0.3419  0.6249
  451MOL0     O62136   4.416   1.129  11.864  0.0250 -0.0554 -0.4104
  451MOL0     C62137   4.307   1.109  11.951  0.0971  0.5125 -0.1694
  451MOL0     C62138   4.342   1.010  12.058 -0.3634  0.3755 -0.5105
  451MOL0     C62139   4.236   0.980  12.148  0.5939  0.0533  0.3613
  451MOL0     C62140   4.109   0.916  12.092 -0.0516  0.8374 -1.1888
  451MOL0     C62141   4.003   0.882  12.200  0.6733 -0.6150  0.2559
  451MOL0     C62142   3.956   1.007  12.284 -0.2240 -0.6518  0.0689
  451MOL0     C62143   3.852   0.969  12.384  0.2994 -0.3826  1.0992
  451MOL0     C62144   3.723   0.957  12.316  0.2205 -0.3796 -0.5459
  451MOL0    Cl62145   3.674   1.131  12.304 -0.0438 -0.1817 -0.0315
  451MOL0     C62146   4.524   1.233  11.678  0.3409  1.0266  0.3741
  451MOL0     C62147   4.522   1.322  11.572 -0.1870 -0.3091 -0.0050
  451MOL0     O62148   4.444   1.273  11.277  0.0623 -0.0553 -0.1149
  451MOL0     C62149   4.471   1.407  11.049  0.8003 -0.3568 -0.3740
  451MOL0     C62150   4.458   1.457  10.927  0.3711  0.3987 -0.1995
  451MOL0     N62151   4.321   1.900  10.293  0.4657 -0.4616 -0.3406
  451MOL0     N62152   4.435   1.956  10.279  0.3871  0.0219  0.0577
  451MOL0     C62153   4.161   2.222  10.758  0.2738 -0.1846 -0.0977
  451MOL0     C62154   4.055   2.305  10.787  0.6648  0.7026  0.0311
  451MOL0     C62155   3.779   2.595  11.058  0.2626 -0.1105 -0.0794
  451MOL0     C62156   3.666   2.517  11.059 -0.2352 -0.2552 -0.0800
  451MOL0     C62157   3.535   2.570  11.075 -0.4794  0.4984 -0.0982
  451MOL0     C62158   3.519   2.706  11.090  0.2093 -0.1812  0.0837
  451MOL0     O62159   3.386   2.758  11.115  0.6798  0.2774 -0.7756
  451MOL0     C62160   3.362   2.903  11.105  0.4323 -0.5987  0.0432
  451MOL0     C62161   3.211   2.933  11.145 -0.3394  0.7509  0.5135
  451MOL0     C62162   3.182   3.079  11.134  0.2546  0.5136  0.1124
  451MOL0     C62163   3.196   3.141  11.268 -1.0681 -0.1210  0.0407
  451MOL0     C62164   3.091   3.085  11.369  0.2586 -0.6372  0.8146
  451MOL0     C62165   3.000   3.034  11.435  0.2643 -0.6215 -0.4217
  451MOL0     C62166   3.631   2.788  11.103  0.2412 -0.0346  0.0530
  451MOL0     C62167   3.758   2.739  11.086 -0.4303 -0.0630 -0.2997
  451MOL0     C62168   3.860   2.850  11.068  0.5050  0.6669  0.9167
  451MOL0     H62169   4.085   2.329  11.124  1.5912  1.1874  0.8087
  451MOL0     H62170   4.277   2.185  11.067 -0.0422  1.3380  0.9017
  451MOL0     H62171   4.443   2.034  10.995 -1.5596  0.1793  0.0670
  451MOL0     H62172   4.481   2.205  10.951  1.2992 -0.7316  2.0364
  451MOL0     H62173   4.586   2.091  10.737 -2.5080 -0.9781  0.4718
  451MOL0     H62174   4.674   2.096  10.892  0.4474  0.4605  0.5613
  451MOL0     H62175   4.593   1.864  10.926 -1.3883 -3.1200 -1.3378
  451MOL0     H62176   4.506   1.871  10.770  1.0901 -0.7733 -0.0616
  451MOL0     H62177   4.807   1.894  10.776 -1.3621  1.8975  2.4228
  451MOL0     H62178   4.709   1.741  10.751  0.2259 -0.7827 -3.6635
  451MOL0     H62179   4.600   1.855  10.553  0.7414  0.3869 -3.7331
  451MOL0     H62180   4.742   1.761  10.545 -2.3726 -1.7939  1.2542
  451MOL0     H62181   4.752   2.059  10.605 -0.8943  1.0998 -0.6037
  451MOL0     H62182   4.869   1.942  10.528 -0.8796 -2.6353 -1.7238
  451MOL0     H62183   4.700   1.911  10.345  2.0917 -0.7924  1.5391
  451MOL0     H62184   4.794   2.065  10.336 -2.6002  0.2616 -3.9314
  451MOL0     H62185   4.587   2.152  10.486 -0.3295  0.0132 -1.2361
  451MOL0     H62186   4.592   2.165  10.308 -3.5502 -0.5214 -0.3752
  451MOL0     H62187   4.382   2.052  10.580  0.9382  1.2948 -0.1926
  451MOL0     H62188   4.077   1.842  10.431 -0.1473 -1.7270  1.3351
  451MOL0     H62189   4.098   1.982  10.534 -2.2925 -2.0314  1.6185
  451MOL0     H62190   4.249   1.863  10.671  0.1507  0.5769 -0.5297
  451MOL0     H62191   4.086   1.779  10.660 -0.4212  2.6771 -0.7479
  451MOL0     H62192   4.216   1.623  10.496 -2.1545 -0.1308  0.2049
  451MOL0     H62193   4.361   1.716  10.566 -0.8055  1.6660  1.5194
  451MOL0     H62194   4.170   1.576  10.753 -0.1332 -2.8958  0.4706
  451MOL0     H62195   4.310   1.481  10.680  1.6378  0.1490 -1.8021
  451MOL0     H62196   4.272   1.730  11.008 -0.1813  0.9016  4.3929
  451MOL0     H62197   4.195   1.589  11.317  0.8697 -1.4393 -0.4718
  451MOL0     H62198   4.230   1.743  11.235  0.1835 -0.6243  0.1182
  451MOL0     H62199   4.342   1.672  11.356  0.9822 -4.3613  0.3888
  451MOL0     H62200   4.189   1.375  11.557  1.2196 -0.3795 -1.5279
  451MOL0     H62201   4.189   1.235  11.746  0.0878 -2.3618 -0.9810
  451MOL0     H62202   4.277   1.201  12.002  1.8739  1.7360 -1.2425
  451MOL0     H62203   4.223   1.074  11.891  1.2390 -0.3616 -1.3080
  451MOL0     H62204   4.362   0.917  12.005  0.3216 -0.5040  1.2315
  451MOL0     H62205   4.428   1.045  12.116  1.6157 -1.3128 -2.2408
  451MOL0     H62206   4.208   1.074  12.197  1.3661 -1.0810  3.1616
  451MOL0     H62207   4.271   0.913  12.226 -1.0558  1.2804  2.2798
  451MOL0     H62208   4.130   0.819  12.048 -1.7194  0.3971 -1.0809
  451MOL0     H62209   4.054   0.981  12.023 -1.5902 -0.0001 -0.7859
  451MOL0     H62210   3.921   0.833  12.147 -0.2224  0.7188  0.3744
  451MOL0     H62211   4.051   0.816  12.273  0.0474 -1.2097  0.1434
  451MOL0     H62212   3.921   1.086  12.216 -1.2436 -1.8200 -0.7909
  451MOL0     H62213   4.038   1.052  12.342 -1.2471  1.2769  0.1089
  451MOL0     H62214   3.838   1.051  12.455 -1.9009 -2.0897  2.7751
  451MOL0     H62215   3.872   0.871  12.429  0.4802 -1.9110 -2.0430
  451MOL0     H62216   3.655   0.893  12.374 -1.1270  0.5453 -1.0571
  451MOL0     H62217   3.723   0.896  12.225 -0.7419 -2.9818  1.0593
  451MOL0     H62218   4.621   1.203  11.716 -0.2335 -2.4743 -0.5933
  451MOL0     H62219   4.617   1.351  11.530 -0.3353  0.7392  0.3429
  451MOL0     H62220   4.519   1.310  11.056 -1.4145 -1.8377 -3.2299
  451MOL0     H62221   4.510   1.417  10.841  0.3024  0.2587 -0.1765
  451MOL0     H62222   4.183   2.196  10.655  1.3855  3.2738 -0.8689
  451MOL0     H62223   3.986   2.335  10.708 -1.3856  3.0345  2.4862
  451MOL0     H62224   3.685   2.411  11.046 -1.5223 -0.9741  2.9636
  451MOL0     H62225   3.446   2.508  11.081  1.2573 -2.0611  0.6394
  451MOL0     H62226   3.425   2.949  11.182 -0.3208  0.2121  0.1871
  451MOL0     H62227   3.389   2.953  11.012  0.1493  1.2897  0.9346
  451MOL0     H62228   3.205   2.892  11.246 -1.1972  2.3622  1.1485
  451MOL0     H62229   3.142   2.876  11.083  0.7813 -0.2557  0.1516
  451MOL0     H62230   3.234   3.136  11.056 -1.2072  3.2768  1.0315
  451MOL0     H62231   3.076   3.090  11.112 -0.9080 -2.1802  3.4189
  451MOL0     H62232   3.182   3.247  11.249  0.8709 -0.1276 -1.7647
  451MOL0     H62233   3.296   3.130  11.311 -2.0069  0.2786  2.4921
  451MOL0     H62234   2.923   2.993  11.498  0.0100 -1.1928 -1.0877
  451MOL0     H62235   3.632   2.892  11.135  0.8294 -0.3716  1.1933
  451MOL0     H62236   3.934   2.831  11.146 -0.1080  0.5557  1.4788
  451MOL0     H62237   3.900   2.849  10.966  0.4088 -1.4983  0.8389
  451MOL0     H62238   3.818   2.950  11.075 -2.1974 -0.2635 -0.4492
  452MOL0     O62239   5.462   4.075  11.326  0.4673  0.8950  0.8523
  452MOL0     C62240   5.502   4.024  11.215 -0.0499 -0.2987 -0.4328
  452MOL0     O62241   5.633   3.982  11.180 -0.5188 -0.0500  0.3786
  452MOL0     C62242   5.740   4.001  11.264  0.4176  0.2786 -0.2001
  452MOL0     C62243   5.763   4.134  11.299 -0.3511  0.5238 -0.1238
  452MOL0     C62244   5.865   4.166  11.391  0.3724 -0.6627  0.1888
  452MOL0     C62245   5.939   4.059  11.439 -0.4895 -0.2251  0.9824
  452MOL0     O62246   6.059   4.078  11.507  0.1862  0.1562  0.4082
  452MOL0     C62247   6.130   4.188  11.468 -0.2332 -0.9000  0.4455
  452MOL0     C62248   6.254   4.195  11.563  0.3514  0.1001  0.1102
  452MOL0     C62249   6.372   4.278  11.511  0.1919 -0.0930 -0.5902
  452MOL0     C62250   6.483   4.257  11.616 -0.2366 -0.2538 -0.4208
  452MOL0     C62251   6.470   4.340  11.744  0.3462 -0.3976  0.1057
  452MOL0     C62252   6.595   4.336  11.825 -0.7807  0.2768  0.4948
  452MOL0     C62253   6.592   4.421  11.949  0.1284 -0.4681  0.8953
  452MOL0     C62254   6.675   4.368  12.068 -0.2363 -0.0069  0.2570
  452MOL0     N62255   6.812   4.339  12.012  0.7180  0.3312 -0.6671
  452MOL0     C62256   6.910   4.434  11.990  0.0391 -1.1829 -1.0508
  452MOL0     C62257   7.020   4.361  11.959  0.4783 -0.0286  0.3178
  452MOL0     C62258   7.158   4.405  11.921  0.0328  0.2760 -0.0970
  452MOL0     C62259   7.240   4.462  12.044 -0.5463 -0.5435  0.1227
  452MOL0     C62260   7.349   4.546  11.984  0.0197  0.3601 -0.9192
  452MOL0     C62261   7.440   4.611  12.089  0.0076 -0.1732  0.3129
  452MOL0     O62262   7.516   4.703  12.011  0.0542  0.5923 -0.0417
  452MOL0     C62263   7.639   4.742  12.051 -0.2593  0.6163 -1.4250
  452MOL0     C62264   7.715   4.697  12.165  0.1010 -0.4189  0.6503
  452MOL0     C62265   7.848   4.728  12.181  0.2326 -0.2248 -0.4752
  452MOL0     C62266   7.915   4.679  12.304  0.2605  0.5442  0.1208
  452MOL0     C62267   7.913   4.814  12.087  0.6259 -0.0764  0.0544
  452MOL0     C62268   8.057   4.856  12.099  0.0472 -0.0640  1.0005
  452MOL0     O62269   8.089   4.967  12.026  0.3387  0.0099  0.0110
  452MOL0     C62270   8.215   5.032  12.018  0.4069  0.2130 -0.4551
  452MOL0     C62271   8.205   5.158  11.954 -0.1509 -0.2574  0.3193
  452MOL0     C62272   8.317   5.229  11.930 -0.5835  0.6807 -0.4566
  452MOL0     C62273   8.441   5.188  11.984 -0.4665  0.5084 -0.6643
  452MOL0     O62274   8.557   5.259  11.974  0.2396  0.1177  0.3754
  452MOL0     C62275   8.607   5.267  11.841 -0.6797 -0.9660 -0.3866
  452MOL0     C62276   8.686   5.141  11.810  0.5206  0.1617 -0.1648
  452MOL0     C62277   8.786   5.178  11.701  0.5539  0.5361  0.3579
  452MOL0     C62278   8.886   5.067  11.695 -0.4965 -0.1402  0.1760
  452MOL0     C62279   8.989   5.097  11.582  0.0414  0.4087 -0.1176
  452MOL0     C62280   9.121   5.031  11.585  0.5846  1.0513 -0.2017
  452MOL0     C62281   9.120   4.883  11.556 -0.2738  1.2594 -1.0562
  452MOL0     C62282   9.264   4.821  11.558  0.6432 -0.4329 -0.3463
  452MOL0    Cl62283   9.370   4.898  11.435  0.1700 -0.0750 -0.0663
  452MOL0     C62284   8.452   5.067  12.055  0.5739  0.2099 -0.1541
  452MOL0     C62285   8.338   4.985  12.067  0.0734  0.5406 -0.5033
  452MOL0     O62286   8.135   4.771  12.139  0.5140 -0.0516  0.7305
  452MOL0     C62287   7.834   4.865  11.986  0.6300  0.2758  0.2949
  452MOL0     C62288   7.704   4.832  11.964  0.7586 -0.0867  0.4633
  452MOL0     N62289   6.976   4.226  11.973  0.1617 -0.0586  0.1532
  452MOL0     N62290   6.859   4.215  12.007  0.3927 -0.3059  0.6117
  452MOL0     C62291   5.922   3.932  11.389  0.4709  0.2843 -0.7042
  452MOL0     C62292   5.820   3.900  11.311 -1.1893 -0.4124  0.1530
  452MOL0     C62293   5.407   3.982  11.110  0.3646 -0.1221  0.1471
  452MOL0     C62294   5.451   3.961  10.975 -0.8918 -0.0797  0.8061
  452MOL0     C62295   5.365   3.935  10.867 -0.4989  0.4863 -0.6446
  452MOL0     C62296   5.230   3.920  10.896  0.5610 -0.1734 -0.3831
  452MOL0     O62297   5.128   3.904  10.808  0.0115  0.1368 -0.6296
  452MOL0     C62298   5.154   3.910  10.672 -0.1872  0.3683  0.0035
  452MOL0     C62299   5.158   3.773  10.604  0.2935  0.1389  0.2997
  452MOL0     C62300   5.037   3.683  10.635  0.3069  0.7538 -0.2872
  452MOL0     C62301   4.916   3.721  10.543 -0.2800 -0.0767 -0.7775
  452MOL0     C62302   4.849   3.847  10.593  0.1311 -0.2386 -0.1931
  452MOL0     C62303   4.805   3.952  10.633  0.5905 -0.2352  0.3203
  452MOL0     C62304   5.188   3.932  11.030 -0.1332 -0.3483 -0.3403
  452MOL0     C62305   5.277   3.950  11.139 -0.0076 -0.1405  0.4338
  452MOL0     C62306   5.219   3.949  11.281  0.5299  0.1788 -0.1497
  452MOL0     H62307   5.708   4.206  11.239 -1.8088  0.3746  0.9822
  452MOL0     H62308   5.891   4.271  11.404  1.3922 -0.8362 -0.3136
  452MOL0     H62309   6.080   4.285  11.478  2.1987  0.3400  1.4097
  452MOL0     H62310   6.166   4.185  11.365 -1.2051 -1.4872  0.1169
  452MOL0     H62311   6.217   4.239  11.656  3.0167  0.8062  0.9051
  452MOL0     H62312   6.296   4.096  11.581  0.5572 -0.2240 -1.8896
  452MOL0     H62313   6.414   4.237  11.418  1.7094  3.5209 -1.6751
  452MOL0     H62314   6.328   4.378  11.502 -0.1228  0.1028  2.1852
  452MOL0     H62315   6.484   4.153  11.648 -0.0682 -0.6230 -1.6059
  452MOL0     H62316   6.577   4.272  11.562 -0.9996  0.4648 -1.5945
  452MOL0     H62317   6.387   4.302  11.804 -1.0396 -1.7090 -2.4823
  452MOL0     H62318   6.452   4.444  11.717 -0.0554 -0.3352  0.6055
  452MOL0     H62319   6.613   4.231  11.853  1.3679  1.3208  3.6554
  452MOL0     H62320   6.684   4.355  11.764  1.7608 -3.6891  2.5120
  452MOL0     H62321   6.490   4.428  11.988  0.2307 -0.3699  1.1437
  452MOL0     H62322   6.635   4.519  11.926  0.8410 -0.5882  1.6567
  452MOL0     H62323   6.673   4.446  12.145 -0.8030  1.4773 -1.2148
  452MOL0     H62324   6.636   4.276  12.113 -0.1422 -0.1763 -0.0053
  452MOL0     H62325   6.901   4.542  11.993 -0.4114 -1.2397  1.5219
  452MOL0     H62326   7.149   4.481  11.843  1.3471  0.5645  0.0152
  452MOL0     H62327   7.216   4.326  11.871 -2.4586 -0.8161 -1.4579
  452MOL0     H62328   7.176   4.532  12.099  0.9155  0.2618  0.8591
  452MOL0     H62329   7.287   4.379  12.098 -0.2666  0.2727  1.1853
  452MOL0     H62330   7.418   4.498  11.915  0.0953  0.5900 -1.0077
  452MOL0     H62331   7.306   4.616  11.912  3.2789  2.0974 -1.3891
  452MOL0     H62332   7.385   4.663  12.167  0.0771 -0.6894  0.7120
  452MOL0     H62333   7.497   4.529  12.133 -0.0384 -1.5369 -2.0174
  452MOL0     H62334   7.666   4.622  12.226 -5.1575  0.5123 -1.8572
  452MOL0     H62335   7.981   4.758  12.342 -1.5289  0.7121  3.2699
  452MOL0     H62336   7.977   4.590  12.292  1.3879  1.3648 -0.3145
  452MOL0     H62337   7.842   4.659  12.384 -1.1398  2.0713 -0.6996
  452MOL0     H62338   8.108   5.188  11.915 -0.4489 -1.4075  0.1425
  452MOL0     H62339   8.327   5.316  11.866  3.8978  0.0563 -0.9110
  452MOL0     H62340   8.528   5.276  11.765 -1.4694 -1.3002  0.3721
  452MOL0     H62341   8.662   5.361  11.829 -1.2135 -0.7384 -1.1728
  452MOL0     H62342   8.747   5.110  11.895  0.2931 -5.5879 -1.6860
  452MOL0     H62343   8.628   5.051  11.787  2.6313 -1.8175  1.7683
  452MOL0     H62344   8.836   5.275  11.713  0.9257  0.8110 -2.6251
  452MOL0     H62345   8.734   5.185  11.605 -0.2481  3.2318  0.9058
  452MOL0     H62346   8.826   4.981  11.664  0.2617 -1.3175  1.8159
  452MOL0     H62347   8.914   5.052  11.800 -0.6154  0.0447  0.2357
  452MOL0     H62348   8.935   5.071  11.491  0.0775 -0.4502  0.1027
  452MOL0     H62349   9.008   5.205  11.578 -0.4194  0.5515  1.2904
  452MOL0     H62350   9.164   5.036  11.685  0.0483  0.0354  0.0917
  452MOL0     H62351   9.182   5.085  11.511 -1.8345  3.7049 -0.3971
  452MOL0     H62352   9.091   4.869  11.452 -1.8651 -1.0273 -0.3807
  452MOL0     H62353   9.059   4.825  11.626 -1.8883  2.7812 -1.1415
  452MOL0     H62354   9.256   4.716  11.530 -1.1200 -0.2414 -0.6815
  452MOL0     H62355   9.312   4.831  11.656  1.5916  1.2022 -0.9354
  452MOL0     H62356   8.553   5.033  12.074  0.4580  0.6125  1.2976
  452MOL0     H62357   8.338   4.883  12.105 -2.4238  0.7023  0.1295
  452MOL0     H62358   7.878   4.935  11.916  2.1220 -0.6449  0.2592
  452MOL0     H62359   7.644   4.891  11.895  1.1715  1.6059  1.4857
  452MOL0     H62360   5.994   3.852  11.403  1.2310  1.3711  2.2474
  452MOL0     H62361   5.799   3.794  11.300  1.2469 -0.9807  0.5596
  452MOL0     H62362   5.550   3.995  10.945 -2.3865  2.5279 -1.7810
  452MOL0     H62363   5.404   3.914  10.768 -2.1863 -3.4291 -0.6371
  452MOL0     H62364   5.074   3.965  10.623 -1.8990 -1.3795  0.7055
  452MOL0     H62365   5.247   3.962  10.646  0.4253 -0.6083  0.1682
  452MOL0     H62366   5.246   3.718  10.639  1.3430  0.4224 -1.7222
  452MOL0     H62367   5.168   3.780  10.495 -0.9139  3.1997  0.2777
  452MOL0     H62368   5.063   3.583  10.602  1.0836  1.1461 -0.8823
  452MOL0     H62369   5.008   3.689  10.740 -3.1939  0.2854 -1.0891
  452MOL0     H62370   4.844   3.641  10.565 -2.3015  1.4828 -1.4465
  452MOL0     H62371   4.945   3.718  10.438  1.0838 -1.2874 -0.4014
  452MOL0     H62372   4.758   4.037  10.679  1.8131  1.0448 -0.7489
  452MOL0     H62373   5.084   3.914  11.057 -0.3123  0.7864 -0.2417
  452MOL0     H62374   5.280   3.895  11.354 -0.3561  0.5504  0.8874
  452MOL0     H62375   5.197   4.046  11.326 -2.3931 -0.1969 -0.5631
  452MOL0     H62376   5.128   3.888  11.276  2.0137 -2.0782 -2.8575
  453MOL0     O62377   0.165   9.577   8.637 -0.0023  0.1865 -0.3282
  453MOL0     C62378   0.162   9.597   8.510  0.2453 -0.0558 -0.8786
  453MOL0     O62379   0.273   9.612   8.435 -0.0483 -0.3636 -1.3025
  453MOL0     C62380   0.406   9.598   8.490 -0.0321  0.1740  0.3071
  453MOL0     C62381   0.447   9.599   8.625  1.1250 -1.0207  0.5874
  453MOL0     C62382   0.583   9.579   8.658 -0.2304 -0.3848 -0.5987
  453MOL0     C62383   0.678   9.540   8.564 -1.0965 -0.3016 -0.2540
  453MOL0     O62384   0.815   9.520   8.583 -0.0293  0.8861 -0.2016
  453MOL0     C62385   0.872   9.525   8.711  0.2240 -0.0763 -0.1802
  453MOL0     C62386   1.007   9.462   8.732  0.6646  0.8346 -0.8806
  453MOL0     C62387   1.117   9.507   8.641  0.1895  0.0414 -0.0078
  453MOL0     C62388   1.239   9.403   8.656  0.1809 -0.3917  0.7876
  453MOL0     C62389   1.370   9.487   8.637 -0.2287 -0.3045 -0.5359
  453MOL0     C62390   1.488   9.403   8.587  1.0441 -0.4637  0.2126
  453MOL0     C62391   1.616   9.485   8.603 -0.0575  0.8285 -0.3588
  453MOL0     C62392   1.739   9.394   8.597 -0.1971  0.8981 -0.6600
  453MOL0     N62393   1.768   9.329   8.467  0.3291  0.2391  0.3336
  453MOL0     C62394   1.739   9.381   8.339  0.2506 -0.0837  0.1656
  453MOL0     C62395   1.765   9.273   8.259 -0.0406 -0.7915  0.8346
  453MOL0     C62396   1.758   9.286   8.104  0.1071  0.6704  0.9609
  453MOL0     C62397   1.662   9.380   8.040  0.7107 -1.2262  0.3475
  453MOL0     C62398   1.524   9.313   8.056 -0.1695  0.2967 -0.4331
  453MOL0     C62399   1.406   9.406   8.009 -0.4543  1.0786  0.0525
  453MOL0     O62400   1.418   9.514   8.093 -0.5593  0.1097  0.2706
  453MOL0     C62401   1.313   9.593   8.129  0.0837 -0.1919 -0.7367
  453MOL0     C62402   1.200   9.598   8.054 -0.0268  0.0080 -0.4916
  453MOL0     C62403   1.087   9.673   8.093  0.0229  0.6068 -0.0294
  453MOL0     C62404   0.977   9.656   8.005 -0.0137  0.1547  0.1495
  453MOL0     C62405   1.083   9.740   8.215  0.9937  0.4302  0.3713
  453MOL0     C62406   0.958   9.809   8.260 -0.0952  0.2954 -0.6171
  453MOL0     O62407   0.956   9.828   8.391 -0.0624 -0.0667 -0.0517
  453MOL0     C62408   0.851   9.891   8.453  0.9535 -0.1861  0.1974
  453MOL0     C62409   0.875   9.946   8.574 -0.4308 -0.4374 -0.6221
  453MOL0     C62410   0.772   9.987   8.655  0.7093  0.1007 -0.4868
  453MOL0     C62411   0.638   9.978   8.617  0.2588  0.0156  0.4769
  453MOL0     O62412   0.541  10.014   8.708 -0.1113 -0.6240 -0.0158
  453MOL0     C62413   0.404  10.032   8.665 -0.0349  0.1736 -0.0935
  453MOL0     C62414   0.315  10.116   8.757 -1.1880 -0.2258  0.4764
  453MOL0     C62415   0.163  10.079   8.749 -1.7347 -0.6511  0.3725
  453MOL0     C62416   0.081  10.170   8.850 -0.5758 -0.1987  0.2233
  453MOL0     C62417  -0.061  10.116   8.860 -0.5632 -0.0862 -0.2865
  453MOL0     C62418  -0.091   9.979   8.917 -0.1922 -0.8013 -0.2700
  453MOL0     C62419  -0.239   9.928   8.905  0.1736 -0.5547 -0.6553
  453MOL0     C62420  -0.350  10.004   8.974  0.3666 -0.6045 -0.3068
  453MOL0    Cl62421  -0.494   9.912   8.958  0.0378 -0.4660 -0.2324
  453MOL0     C62422   0.612   9.936   8.489  0.1920 -0.8032 -0.0243
  453MOL0     C62423   0.713   9.891   8.409 -0.4774 -0.7320 -0.7544
  453MOL0     O62424   0.872   9.854   8.186  0.2488  0.1718 -0.2300
  453MOL0     C62425   1.199   9.739   8.297 -0.3791 -0.0555  0.3330
  453MOL0     C62426   1.318   9.677   8.242  0.3768  0.2233 -0.2672
  453MOL0     N62427   1.800   9.167   8.332  0.6439 -0.1289 -0.1669
  453MOL0     N62428   1.801   9.199   8.459  0.8113  0.3692  0.3782
  453MOL0     C62429   0.639   9.532   8.436  0.6935  0.0347  0.5935
  453MOL0     C62430   0.505   9.565   8.397  0.4421 -1.1202  0.7031
  453MOL0     C62431   0.033   9.587   8.450  0.2997 -0.5291 -0.4474
  453MOL0     C62432   0.033   9.550   8.309  0.0296  0.5939  1.3544
  453MOL0     C62433  -0.082   9.528   8.240  0.9421  0.5527 -0.4277
  453MOL0     C62434  -0.206   9.549   8.294 -0.4383  0.7578  0.3144
  453MOL0     O62435  -0.317   9.527   8.225  0.2099 -0.4930  0.0248
  453MOL0     C62436  -0.441   9.519   8.292  0.3487 -0.5309 -0.0212
  453MOL0     C62437  -0.509   9.659   8.312 -0.1933  0.8933  0.0142
  453MOL0     C62438  -0.559   9.731   8.177 -0.1168  0.6061  0.6989
  453MOL0     C62439  -0.632   9.859   8.225 -0.3780 -0.1024  0.8884
  453MOL0     C62440  -0.644   9.954   8.114  0.7688 -0.6181  0.3898
  453MOL0     C62441  -0.652  10.038   8.022  1.0751  0.2529 -0.7081
  453MOL0     C62442  -0.205   9.589   8.434  0.5396 -0.0068  1.5749
  453MOL0     C62443  -0.091   9.610   8.513 -0.6760 -0.0816 -0.0730
  453MOL0     C62444  -0.114   9.629   8.662  0.4470  0.8551 -0.7155
  453MOL0     H62445   0.374   9.617   8.703 -0.7128 -1.0522 -1.0603
  453MOL0     H62446   0.610   9.577   8.763 -3.1829  0.1628  0.2461
  453MOL0     H62447   0.813   9.468   8.783  0.7691  2.8052  2.7870
  453MOL0     H62448   0.880   9.633   8.728 -1.5779  0.5277 -2.6383
  453MOL0     H62449   1.041   9.484   8.833  0.8304 -0.2526 -0.6887
  453MOL0     H62450   0.997   9.353   8.719  2.5339  0.3295  1.3085
  453MOL0     H62451   1.075   9.505   8.539  0.1658 -0.6456  0.0109
  453MOL0     H62452   1.141   9.608   8.674  0.1667  0.7845 -2.1170
  453MOL0     H62453   1.232   9.365   8.759  1.8577  0.1853  1.1581
  453MOL0     H62454   1.239   9.318   8.587  2.5281  0.5987 -0.5558
  453MOL0     H62455   1.391   9.554   8.720  1.2169 -0.6819 -0.5765
  453MOL0     H62456   1.353   9.565   8.562 -1.3502 -0.9846 -1.0279
  453MOL0     H62457   1.491   9.307   8.640  0.7690  0.2034  1.4815
  453MOL0     H62458   1.457   9.365   8.489 -0.5238  3.2372 -0.9123
  453MOL0     H62459   1.609   9.544   8.695 -0.2112 -0.9171  0.7983
  453MOL0     H62460   1.618   9.556   8.519 -0.5180  2.0591  0.6307
  453MOL0     H62461   1.836   9.444   8.607 -1.0113  2.6255 -0.9748
  453MOL0     H62462   1.723   9.317   8.673  0.8407 -0.0480 -1.3712
  453MOL0     H62463   1.714   9.483   8.312 -0.4874 -0.5433 -0.9575
  453MOL0     H62464   1.745   9.189   8.056  1.5483  1.0225 -0.2164
  453MOL0     H62465   1.857   9.318   8.070 -0.8661  0.2694 -2.5769
  453MOL0     H62466   1.679   9.472   8.097 -1.1149 -0.1414 -0.7851
  453MOL0     H62467   1.689   9.386   7.934  2.1040 -4.1953  0.4104
  453MOL0     H62468   1.526   9.217   8.003  0.4451  0.2119 -0.2733
  453MOL0     H62469   1.500   9.288   8.159 -2.7154  0.4260 -0.9434
  453MOL0     H62470   1.413   9.433   7.904  0.2873  2.3886  0.4156
  453MOL0     H62471   1.306   9.362   8.014 -0.3347  0.7411 -0.4332
  453MOL0     H62472   1.191   9.532   7.968  0.8264 -1.8943  0.8274
  453MOL0     H62473   1.000   9.615   7.907  0.8738 -3.5917  1.7341
  453MOL0     H62474   0.936   9.756   7.988  1.8980  0.7067 -1.5906
  453MOL0     H62475   0.899   9.595   8.052  0.8299 -2.3023 -1.4736
  453MOL0     H62476   0.977   9.943   8.612 -0.7135 -0.2400  0.1640
  453MOL0     H62477   0.800  10.034   8.749  1.9869 -0.0957 -0.7406
  453MOL0     H62478   0.395  10.071   8.563  0.8420  0.3608 -0.1136
  453MOL0     H62479   0.362   9.932   8.662  3.6006 -1.4789 -2.0120
  453MOL0     H62480   0.352  10.116   8.860  2.3279  0.6775 -0.6617
  453MOL0     H62481   0.342  10.218   8.730  1.3165 -0.3960  2.0154
  453MOL0     H62482   0.161   9.976   8.785  2.4140 -1.7647 -1.9260
  453MOL0     H62483   0.136  10.086   8.643 -0.6917 -2.8701 -0.0877
  453MOL0     H62484   0.074  10.268   8.802 -1.2704 -0.7614 -0.8865
  453MOL0     H62485   0.130  10.185   8.946 -0.6595  1.2870  0.0540
  453MOL0     H62486  -0.117  10.191   8.915  0.6390 -0.6245  1.7945
  453MOL0     H62487  -0.081  10.104   8.753  2.2407 -3.0738 -0.6580
  453MOL0     H62488  -0.077   9.978   9.025  0.0016 -2.7701 -0.2808
  453MOL0     H62489  -0.022   9.904   8.877  1.6905  0.8463 -0.3006
  453MOL0     H62490  -0.244   9.826   8.945  1.5394 -0.3911  0.0117
  453MOL0     H62491  -0.265   9.928   8.799  0.4928  0.1135 -0.7358
  453MOL0     H62492  -0.363  10.098   8.921  0.2114  1.3313  2.8648
  453MOL0     H62493  -0.329  10.034   9.077 -2.9589  1.7039 -0.1575
  453MOL0     H62494   0.519   9.923   8.434  0.4873  1.9057 -1.3868
  453MOL0     H62495   0.688   9.855   8.310  2.0563  1.8858 -2.5497
  453MOL0     H62496   1.197   9.801   8.386 -1.5731 -3.0292  2.5464
  453MOL0     H62497   1.408   9.678   8.303 -0.7720 -0.6944  1.5049
  453MOL0     H62498   0.705   9.505   8.354  0.3944 -0.6940  0.5917
  453MOL0     H62499   0.479   9.550   8.293 -0.5724  1.8881  0.4068
  453MOL0     H62500   0.129   9.516   8.273 -0.9416 -0.4096 -0.4489
  453MOL0     H62501  -0.077   9.496   8.137 -1.3470  0.9249 -0.7052
  453MOL0     H62502  -0.509   9.455   8.234  4.0698 -5.5648  0.4449
  453MOL0     H62503  -0.435   9.464   8.387  0.4875 -3.5260 -1.6273
  453MOL0     H62504  -0.447   9.724   8.374 -1.8837  0.7642  1.9637
  453MOL0     H62505  -0.601   9.650   8.372 -0.3195  0.1553 -0.2789
  453MOL0     H62506  -0.466   9.754   8.125 -1.6949 -0.4581 -2.9427
  453MOL0     H62507  -0.615   9.666   8.110 -4.0503  3.1351  1.1616
  453MOL0     H62508  -0.575   9.911   8.303  0.0501  1.1806 -0.2424
  453MOL0     H62509  -0.724   9.827   8.275 -1.2441  1.3271  0.2946
  453MOL0     H62510  -0.656  10.110   7.943 -2.5558  0.1164 -0.8227
  453MOL0     H62511  -0.295   9.623   8.483  1.3609  0.8985  2.5116
  453MOL0     H62512  -0.106   9.534   8.715 -0.4046  0.9923 -0.3280
  453MOL0     H62513  -0.039   9.703   8.694  0.1983  0.1096  1.8034
  453MOL0     H62514  -0.213   9.673   8.677 -1.9523 -3.8507 -0.8511
  454MOL0     O62515   5.954   9.340  11.388 -0.1383 -0.7767  0.6689
  454MOL0     C62516   5.971   9.449  11.329 -0.0012 -0.3860 -0.1055
  454MOL0     O62517   6.027   9.464  11.201  0.6906  0.7975 -0.1976
  454MOL0     C62518   6.041   9.347  11.137  0.1996  0.0415 -0.1429
  454MOL0     C62519   5.943   9.309  11.042  0.7549  0.0696 -0.4679
  454MOL0     C62520   5.972   9.190  10.961  0.4400 -0.5702  0.0265
  454MOL0     C62521   6.082   9.112  10.990  0.3454 -0.3602 -0.5771
  454MOL0     O62522   6.112   9.000  10.932 -0.1467 -0.0663  0.1610
  454MOL0     C62523   6.032   8.947  10.825  0.3243  0.6333 -0.0000
  454MOL0     C62524   6.111   8.841  10.759 -0.6611 -0.1554 -0.6182
  454MOL0     C62525   6.060   8.778  10.626 -0.3676  0.8813  0.0973
  454MOL0     C62526   6.024   8.879  10.525 -0.1938 -0.3271  0.2972
  454MOL0     C62527   6.134   8.976  10.483 -0.2431 -0.9827 -0.6179
  454MOL0     C62528   6.153   9.018  10.338  0.9721 -0.6556  0.4945
  454MOL0     C62529   6.278   9.100  10.325  0.1838 -0.4423 -0.8174
  454MOL0     C62530   6.268   9.244  10.393  0.3718 -0.1029 -0.0754
  454MOL0     N62531   6.153   9.318  10.335  0.1114 -0.1388 -1.2801
  454MOL0     C62532   6.059   9.375  10.417 -0.6705  0.1696 -0.1593
  454MOL0     C62533   5.962   9.420  10.331 -0.0007 -0.3518  0.2662
  454MOL0     C62534   5.842   9.501  10.363  1.3157 -0.5770  0.6268
  454MOL0     C62535   5.830   9.632  10.290 -0.1805  0.6792 -0.9542
  454MOL0     C62536   5.770   9.752  10.365  0.5297  0.0811  0.7699
  454MOL0     C62537   5.628   9.716  10.424  0.8986 -0.4365  0.2211
  454MOL0     O62538   5.548   9.836  10.456  0.3226  0.0420  0.1586
  454MOL0     C62539   5.473   9.888  10.347 -0.3496  0.5360  0.5402
  454MOL0     C62540   5.452   9.826  10.224  0.1439 -0.4615  0.2840
  454MOL0     C62541   5.353   9.865  10.137  0.0065  0.7168 -0.2973
  454MOL0     C62542   5.314   9.766  10.025 -0.2733 -0.0664  0.3672
  454MOL0     C62543   5.279   9.985  10.158 -1.0223 -0.5411  0.3977
  454MOL0     C62544   5.165  10.048  10.078  0.5228  0.2025 -0.0490
  454MOL0     O62545   5.144  10.179  10.089 -0.3730  0.0711  0.1218
  454MOL0     C62546   5.052  10.239  10.008 -0.0484 -0.0821  0.0997
  454MOL0     C62547   4.923  10.175   9.979 -0.3702 -0.2021  0.0994
  454MOL0     C62548   4.830  10.248   9.906 -0.1667  0.2329 -0.2822
  454MOL0     C62549   4.864  10.376   9.863  0.4730 -0.0541 -0.5304
  454MOL0     O62550   4.769  10.436   9.775 -0.5541 -0.4605  0.5719
  454MOL0     C62551   4.759  10.578   9.778 -0.4363  0.3893  0.2137
  454MOL0     C62552   4.636  10.636   9.720  0.3024  0.0513 -0.0703
  454MOL0     C62553   4.520  10.541   9.684 -0.6171  0.5775 -0.5639
  454MOL0     C62554   4.464  10.461   9.804 -0.8813 -0.1096 -0.9409
  454MOL0     C62555   4.342  10.388   9.749  0.5470  0.1941 -0.3823
  454MOL0     C62556   4.271  10.319   9.872  0.1086 -0.2104 -0.0102
  454MOL0     C62557   4.150  10.244   9.816 -0.4929  0.2461 -0.0352
  454MOL0     C62558   4.050  10.173   9.917  0.1863  0.0136 -0.8347
  454MOL0    Cl62559   4.129  10.040  10.009  0.0443 -0.2860  0.2164
  454MOL0     C62560   4.980  10.441   9.901  0.1132 -0.3120 -0.6188
  454MOL0     C62561   5.073  10.374   9.980 -0.1899 -0.2754  0.5949
  454MOL0     O62562   5.111   9.976   9.994  0.4721  0.3538  0.2188
  454MOL0     C62563   5.312  10.053  10.278  0.2180 -0.7497  0.2206
  454MOL0     C62564   5.404  10.003  10.365 -0.2563 -0.3622 -0.0280
  454MOL0     N62565   6.003   9.382  10.204 -0.4414  0.1326  0.1453
  454MOL0     N62566   6.120   9.320  10.207  0.1866 -0.5827  0.7670
  454MOL0     C62567   6.165   9.147  11.096 -0.6105 -0.5654  0.5108
  454MOL0     C62568   6.148   9.267  11.167  0.1190  0.3956 -0.1340
  454MOL0     C62569   5.944   9.557  11.417 -0.1318 -0.7302  0.2290
  454MOL0     C62570   5.820   9.559  11.488 -0.1864  0.2246  0.1380
  454MOL0     C62571   5.786   9.661  11.580 -0.2675  0.6701  0.8638
  454MOL0     C62572   5.874   9.766  11.606  0.0132  0.1986  0.1850
  454MOL0     O62573   5.828   9.878  11.685  0.1191 -0.2712 -0.2605
  454MOL0     C62574   5.920   9.966  11.759 -0.4375  0.3562 -0.0361
  454MOL0     C62575   5.840  10.050  11.865 -0.0843  0.5339 -0.8295
  454MOL0     C62576   5.724  10.136  11.804 -0.0861 -0.3242  0.2671
  454MOL0     C62577   5.676  10.241  11.907  0.1970  0.1757 -0.0636
  454MOL0     C62578   5.787  10.332  11.951 -0.1196  0.1744 -0.3983
  454MOL0     C62579   5.870  10.416  11.982 -0.1943  0.8843  0.9201
  454MOL0     C62580   5.999   9.758  11.552 -0.2529  0.8407  0.8074
  454MOL0     C62581   6.040   9.661  11.462  0.8615  0.3247 -0.0864
  454MOL0     C62582   6.185   9.659  11.419 -0.4965 -0.4819 -0.2105
  454MOL0     H62583   5.857   9.375  11.034  1.7654  1.2296 -2.9987
  454MOL0     H62584   5.912   9.168  10.873  0.4922  2.2008 -0.7783
  454MOL0     H62585   6.016   9.026  10.751  0.1824  1.3724  0.7901
  454MOL0     H62586   5.936   8.903  10.854  0.6975 -1.9271 -2.2741
  454MOL0     H62587   6.216   8.871  10.755 -0.7701  2.6473  5.9061
  454MOL0     H62588   6.107   8.756  10.827 -3.2331  1.2493  1.1409
  454MOL0     H62589   6.126   8.701  10.584  0.0814  0.9685  0.6282
  454MOL0     H62590   5.972   8.718  10.654 -0.3684  0.9030  0.1424
  454MOL0     H62591   5.991   8.824  10.436 -0.3795  1.0570 -0.5345
  454MOL0     H62592   5.938   8.938  10.557 -0.2624 -0.7943  0.9769
  454MOL0     H62593   6.231   8.935  10.512  1.2489  1.8398 -1.1966
  454MOL0     H62594   6.120   9.068  10.540 -0.4512 -1.8203  0.7216
  454MOL0     H62595   6.157   8.925  10.279 -0.3322 -0.6846  0.4183
  454MOL0     H62596   6.070   9.078  10.298 -1.4192 -1.5044  3.7805
  454MOL0     H62597   6.307   9.099  10.219  1.7548 -1.5089 -0.4178
  454MOL0     H62598   6.353   9.046  10.383 -1.7480  0.3174  2.6522
  454MOL0     H62599   6.248   9.234  10.500 -0.1855  0.5961 -0.1064
  454MOL0     H62600   6.367   9.288  10.385  0.4168  0.1044  1.3567
  454MOL0     H62601   6.062   9.394  10.524  1.1499  0.5781 -0.2560
  454MOL0     H62602   5.844   9.517  10.471 -2.8529  0.7196  0.6715
  454MOL0     H62603   5.745   9.457  10.338  0.6152  0.4555  1.4352
  454MOL0     H62604   5.933   9.644  10.257  1.3342 -0.6634  2.7207
  454MOL0     H62605   5.777   9.620  10.195  2.6580  2.4627 -2.9210
  454MOL0     H62606   5.827   9.787  10.452 -1.6059 -1.7354  3.0144
  454MOL0     H62607   5.753   9.837  10.298  0.8768 -1.5787 -1.5584
  454MOL0     H62608   5.572   9.649  10.358 -0.5704 -0.9285  1.8576
  454MOL0     H62609   5.639   9.646  10.508  0.9988 -2.5390 -1.4464
  454MOL0     H62610   5.505   9.736  10.197  1.8093  0.6025 -0.1050
  454MOL0     H62611   5.304   9.822   9.931  0.4937 -1.3977 -0.5305
  454MOL0     H62612   5.216   9.720  10.039 -0.8778  0.7859 -0.8299
  454MOL0     H62613   5.383   9.684  10.005 -1.4972 -1.0090 -0.0845
  454MOL0     H62614   4.899  10.078  10.021  0.2757  0.5270  2.2681
  454MOL0     H62615   4.730  10.215   9.880 -2.0578  1.9219  3.8709
  454MOL0     H62616   4.757  10.611   9.882 -0.7817 -0.7055  0.5649
  454MOL0     H62617   4.851  10.612   9.729  1.2092 -0.2196  2.7052
  454MOL0     H62618   4.612  10.727   9.776  0.8635 -0.9772  1.8979
  454MOL0     H62619   4.668  10.685   9.627 -2.6804  2.3485 -0.0403
  454MOL0     H62620   4.569  10.468   9.619 -0.7592 -1.4375  1.4500
  454MOL0     H62621   4.436  10.589   9.634 -3.8009 -3.2466  0.6575
  454MOL0     H62622   4.441  10.536   9.881  1.9326  1.7687 -1.7540
  454MOL0     H62623   4.532  10.387   9.848  0.0062  2.3576  2.2339
  454MOL0     H62624   4.277  10.465   9.707 -0.8149 -1.0315 -0.5971
  454MOL0     H62625   4.373  10.328   9.662  0.0186  1.9270 -1.8293
  454MOL0     H62626   4.242  10.384   9.954  0.5014 -0.3629  0.2518
  454MOL0     H62627   4.332  10.240   9.918 -2.2151 -0.1619  3.4530
  454MOL0     H62628   4.187  10.160   9.757  0.2018 -0.6698  1.6375
  454MOL0     H62629   4.082  10.308   9.759 -0.7406 -2.0245 -2.5137
  454MOL0     H62630   3.964  10.132   9.863  0.7700 -1.5006 -0.6872
  454MOL0     H62631   4.010  10.243   9.990  0.3891 -1.5804  0.8847
  454MOL0     H62632   4.997  10.544   9.871  0.1398  1.2039  3.9667
  454MOL0     H62633   5.165  10.424  10.009 -0.0460  1.8681 -2.9573
  454MOL0     H62634   5.263  10.149  10.295  0.1389 -0.3727 -1.8636
  454MOL0     H62635   5.425  10.057  10.457 -0.9138  0.3582 -0.2878
  454MOL0     H62636   6.257   9.095  11.124  0.2852 -1.2919 -3.2327
  454MOL0     H62637   6.210   9.308  11.246 -0.5523 -0.3101  0.7865
  454MOL0     H62638   5.750   9.479  11.463 -0.3037  0.7555 -1.3077
  454MOL0     H62639   5.696   9.653  11.639 -2.1363  0.3776 -1.8572
  454MOL0     H62640   6.008   9.913  11.795  0.8286  0.2557 -2.9706
  454MOL0     H62641   5.948  10.033  11.676 -0.3124  0.5111  0.1298
  454MOL0     H62642   5.908  10.115  11.922 -0.0933  0.9694 -1.3086
  454MOL0     H62643   5.797   9.973  11.930  3.1995  0.4204  1.4405
  454MOL0     H62644   5.763  10.191  11.718 -2.4024  2.0077  0.5564
  454MOL0     H62645   5.634  10.088  11.764 -1.1033  1.8602 -0.2566
  454MOL0     H62646   5.621  10.203  11.994 -2.0185 -1.1624 -1.9437
  454MOL0     H62647   5.601  10.305  11.859  0.0483  0.9625  1.1750
  454MOL0     H62648   5.942  10.489  12.014 -0.0934  0.6989  1.1236
  454MOL0     H62649   6.069   9.841  11.559  0.5371  0.1108  2.1018
  454MOL0     H62650   6.194   9.694  11.315  0.0621 -0.6309 -0.2153
  454MOL0     H62651   6.245   9.722  11.485  0.4574 -0.2715 -1.2372
  454MOL0     H62652   6.231   9.561  11.434 -2.4018 -1.6088 -1.3037
  455MOL0     O62653   4.151   0.986   5.088 -0.7313  0.5874 -0.0330
  455MOL0     C62654   4.128   1.063   5.181  1.0785 -0.0362  0.1426
  455MOL0     O62655   4.220   1.157   5.236  1.1207  0.6107 -0.3961
  455MOL0     C62656   4.342   1.148   5.168  0.0905  0.1349  0.4512
  455MOL0     C62657   4.457   1.100   5.235 -0.3998  0.1193  0.3290
  455MOL0     C62658   4.586   1.105   5.160 -0.1302  0.5775 -0.6874
  455MOL0     C62659   4.577   1.144   5.027  0.1850 -0.1751  0.4246
  455MOL0     O62660   4.694   1.124   4.958 -0.1497  0.2008 -0.1671
  455MOL0     C62661   4.696   1.122   4.809  0.2174 -0.1027  0.7627
  455MOL0     C62662   4.841   1.118   4.757  0.1507  0.2807 -0.1488
  455MOL0     C62663   4.956   1.151   4.859  0.4505 -0.3836  0.5440
  455MOL0     C62664   5.091   1.111   4.795  0.8298 -0.1484 -0.2639
  455MOL0     C62665   5.218   1.158   4.873  0.1576 -0.3738  0.1006
  455MOL0     C62666   5.242   1.079   5.006 -0.2388  0.3812  0.1485
  455MOL0     C62667   5.370   1.142   5.076  0.8901 -0.6830 -0.1507
  455MOL0     C62668   5.504   1.112   5.003  0.5174 -0.7654  0.0243
  455MOL0     N62669   5.605   1.213   5.057 -0.0688 -0.0615 -0.3353
  455MOL0     C62670   5.689   1.180   5.161 -0.1629  0.4965  0.2508
  455MOL0     C62671   5.786   1.275   5.160  0.1141  0.5937 -0.5222
  455MOL0     C62672   5.915   1.284   5.229  0.6743 -0.7559 -1.0205
  455MOL0     C62673   5.955   1.434   5.241 -0.5596 -0.9212  0.0989
  455MOL0     C62674   6.073   1.439   5.341  0.3650  0.1823 -0.2584
  455MOL0     C62675   6.152   1.571   5.331 -0.0747  0.5505 -0.1707
  455MOL0     O62676   6.273   1.553   5.406  0.1448 -0.3144  0.5732
  455MOL0     C62677   6.378   1.634   5.386 -0.1580 -0.0335 -0.2332
  455MOL0     C62678   6.369   1.769   5.350 -0.0955 -0.8559 -0.4458
  455MOL0     C62679   6.481   1.853   5.327 -0.3370  0.5194  0.1379
  455MOL0     C62680   6.457   1.996   5.266  0.0641  0.2276  0.4758
  455MOL0     C62681   6.609   1.802   5.356  0.2651 -0.2669  0.0191
  455MOL0     C62682   6.742   1.877   5.342 -0.1064  0.3658 -0.2973
  455MOL0     O62683   6.861   1.802   5.352  0.0852 -0.7253  0.6861
  455MOL0     C62684   6.980   1.861   5.363  0.3320 -0.2524 -0.7087
  455MOL0     C62685   7.038   1.926   5.247 -0.4256 -0.2472 -0.6154
  455MOL0     C62686   7.167   1.990   5.263  0.3845 -0.0243  0.0879
  455MOL0     C62687   7.232   1.989   5.385  0.3592 -0.4177 -0.7467
  455MOL0     O62688   7.355   2.059   5.406  0.0932  0.1865  0.7557
  455MOL0     C62689   7.426   2.096   5.288  0.2397  0.3576 -0.5767
  455MOL0     C62690   7.571   2.132   5.327  0.4954 -0.4249  0.2840
  455MOL0     C62691   7.641   2.013   5.380 -0.1008  0.4532  0.0194
  455MOL0     C62692   7.771   2.069   5.444  0.5203  0.5926 -0.8405
  455MOL0     C62693   7.856   1.953   5.509 -0.4375 -0.5991  0.5126
  455MOL0     C62694   7.960   2.002   5.620  0.1717 -0.8520  0.4376
  455MOL0     C62695   8.034   1.869   5.677  0.6571 -0.2692  0.4620
  455MOL0     C62696   8.161   1.882   5.764 -0.0536 -0.6637  0.4455
  455MOL0    Cl62697   8.130   2.003   5.872  0.3649 -0.2161  0.2591
  455MOL0     C62698   7.171   1.930   5.494  0.2957  0.2120 -0.0173
  455MOL0     C62699   7.048   1.861   5.483  0.6255 -0.2526 -0.3292
  455MOL0     O62700   6.737   1.999   5.341 -0.3334 -0.6797 -0.6754
  455MOL0     C62701   6.619   1.671   5.391 -0.1652  0.5460  0.1365
  455MOL0     C62702   6.506   1.585   5.410 -0.2577 -0.1254  0.3265
  455MOL0     N62703   5.750   1.368   5.060  0.3944 -0.6841 -1.3570
  455MOL0     N62704   5.643   1.326   4.999 -0.2180 -0.5242 -0.6517
  455MOL0     C62705   4.452   1.184   4.965 -0.7688  0.0095 -0.2781
  455MOL0     C62706   4.342   1.199   5.041  0.4187 -0.1345  0.2155
  455MOL0     C62707   3.988   1.073   5.230  0.6488 -0.1454  0.5299
  455MOL0     C62708   3.965   1.182   5.314 -0.1349  0.2925 -1.0349
  455MOL0     C62709   3.837   1.207   5.366 -1.0439 -0.2368 -0.1504
  455MOL0     C62710   3.734   1.116   5.332  0.2740 -0.2093  0.0524
  455MOL0     O62711   3.618   1.156   5.380  0.2826  0.6207  0.6642
  455MOL0     C62712   3.490   1.096   5.337 -0.0487 -0.3516 -0.7293
  455MOL0     C62713   3.379   1.187   5.397 -0.7886  0.6985  0.0859
  455MOL0     C62714   3.402   1.330   5.348 -0.7210  1.3767 -0.2291
  455MOL0     C62715   3.458   1.424   5.453  0.2744 -0.1754  0.0321
  455MOL0     C62716   3.360   1.428   5.573 -0.1945  0.4140  1.0295
  455MOL0     C62717   3.277   1.429   5.660  0.5007 -0.3247 -0.4621
  455MOL0     C62718   3.759   1.001   5.255  0.4112  0.4513  0.4695
  455MOL0     C62719   3.883   0.987   5.189 -0.1487 -1.8229  0.1149
  455MOL0     C62720   3.896   0.871   5.084 -0.1325  0.0889 -1.1351
  455MOL0     H62721   4.454   1.071   5.339  0.5271 -0.9753  0.0719
  455MOL0     H62722   4.681   1.067   5.195 -0.5971  1.2059  1.4172
  455MOL0     H62723   4.662   1.216   4.764  1.6952  0.0819 -0.0500
  455MOL0     H62724   4.650   1.031   4.769  0.3131 -0.2655  1.0174
  455MOL0     H62725   4.865   1.020   4.715  3.6384  0.3320  1.3985
  455MOL0     H62726   4.844   1.201   4.686 -2.3030  0.7110  0.1470
  455MOL0     H62727   4.950   1.255   4.893 -3.7347 -1.0023  2.2714
  455MOL0     H62728   4.949   1.086   4.946  1.9073 -0.7330  0.4289
  455MOL0     H62729   5.097   1.001   4.795 -1.3525 -0.3184  0.9118
  455MOL0     H62730   5.089   1.144   4.691  0.5408  0.1630 -0.1602
  455MOL0     H62731   5.230   1.263   4.900 -1.7023 -0.1481  0.1481
  455MOL0     H62732   5.299   1.129   4.805  0.0525 -0.9371  0.2112
  455MOL0     H62733   5.149   1.100   5.060 -1.2696 -0.3141 -1.2990
  455MOL0     H62734   5.268   0.976   4.979  1.0996  0.9771 -0.9571
  455MOL0     H62735   5.368   1.113   5.181  1.6098 -0.8483 -0.1805
  455MOL0     H62736   5.352   1.249   5.062 -5.3228 -1.7065 -3.6695
  455MOL0     H62737   5.538   1.010   5.023 -0.3598 -1.3916 -1.5559
  455MOL0     H62738   5.516   1.129   4.896  1.9514  3.6489  0.6807
  455MOL0     H62739   5.684   1.102   5.236  1.6838  1.1713  1.1532
  455MOL0     H62740   5.994   1.232   5.173  0.6126 -0.2092 -1.6291
  455MOL0     H62741   5.897   1.242   5.328  1.9307 -0.0295 -0.4678
  455MOL0     H62742   5.989   1.486   5.151 -0.9231  2.6762  1.8417
  455MOL0     H62743   5.870   1.494   5.274 -0.2914  0.4678 -1.5714
  455MOL0     H62744   6.045   1.433   5.446 -0.0008  1.3521 -0.2679
  455MOL0     H62745   6.140   1.354   5.328 -2.3018 -2.1106  0.1965
  455MOL0     H62746   6.184   1.603   5.231  0.3786 -0.1180 -0.2513
  455MOL0     H62747   6.096   1.653   5.377 -1.4501 -1.4877  2.0061
  455MOL0     H62748   6.275   1.820   5.333  1.6252  1.7839 -3.0384
  455MOL0     H62749   6.353   2.005   5.234  0.1756 -1.9739 -0.7295
  455MOL0     H62750   6.512   2.000   5.172  0.5100  0.8414  0.7591
  455MOL0     H62751   6.491   2.075   5.334  0.5730  0.4429 -0.0292
  455MOL0     H62752   7.005   1.920   5.144 -4.3242  0.1180  0.4221
  455MOL0     H62753   7.205   2.048   5.180  0.7273  1.7083  1.3941
  455MOL0     H62754   7.423   2.021   5.208 -2.4746  0.2939 -0.5174
  455MOL0     H62755   7.368   2.185   5.263 -1.4412 -1.2709 -2.9834
  455MOL0     H62756   7.612   2.161   5.229  2.1522 -0.7456  0.8534
  455MOL0     H62757   7.582   2.213   5.399  2.5888  1.5147 -2.0314
  455MOL0     H62758   7.667   1.943   5.300  2.4756  2.0695 -0.6682
  455MOL0     H62759   7.584   1.964   5.459 -0.2184  1.7514  0.7691
  455MOL0     H62760   7.750   2.134   5.529 -1.1775  1.3485 -1.7793
  455MOL0     H62761   7.830   2.119   5.366  0.8014  1.4017 -0.1179
  455MOL0     H62762   7.800   1.872   5.556  2.1537 -3.2271 -0.6534
  455MOL0     H62763   7.921   1.908   5.433 -0.5156  0.9619 -0.5284
  455MOL0     H62764   7.901   2.049   5.699  0.6813 -2.8475  2.0931
  455MOL0     H62765   8.030   2.077   5.581  1.4988 -1.9731  0.5576
  455MOL0     H62766   8.063   1.798   5.599  2.3450 -2.4950  2.9416
  455MOL0     H62767   7.952   1.813   5.722 -1.3217  0.7877 -1.5975
  455MOL0     H62768   8.255   1.905   5.712 -1.6260 -1.3023 -2.9622
  455MOL0     H62769   8.172   1.787   5.816 -0.8357 -1.2064 -0.3511
  455MOL0     H62770   7.221   1.939   5.590  2.6708  3.2453 -1.3817
  455MOL0     H62771   7.010   1.812   5.572  0.1721  1.1027  0.2495
  455MOL0     H62772   6.715   1.623   5.411 -0.2596 -0.5196 -1.7423
  455MOL0     H62773   6.529   1.482   5.436  2.1008 -1.4811 -5.6444
  455MOL0     H62774   4.449   1.217   4.862 -2.2311 -0.0596 -0.2843
  455MOL0     H62775   4.244   1.235   5.011 -1.3058 -1.9977  3.1381
  455MOL0     H62776   4.044   1.245   5.353 -0.1721 -1.4855  2.3444
  455MOL0     H62777   3.826   1.294   5.430 -2.8219  0.9271 -1.9364
  455MOL0     H62778   3.490   1.095   5.228 -2.6709 -0.5739 -0.7974
  455MOL0     H62779   3.471   0.997   5.379 -0.3368 -0.6082 -1.4485
  455MOL0     H62780   3.374   1.183   5.506 -1.2299  6.1750  0.5639
  455MOL0     H62781   3.283   1.150   5.361 -1.1464  0.6917  1.0170
  455MOL0     H62782   3.460   1.319   5.255 -0.1548 -2.9132  0.4277
  455MOL0     H62783   3.302   1.367   5.323 -1.6746  1.0764  2.7945
  455MOL0     H62784   3.462   1.527   5.413 -2.4811 -0.2515 -0.6480
  455MOL0     H62785   3.554   1.387   5.491  0.2598  1.0062  1.2927
  455MOL0     H62786   3.198   1.434   5.731  1.2981 -1.1773  0.5241
  455MOL0     H62787   3.681   0.930   5.229 -0.1739  1.3734 -0.3628
  455MOL0     H62788   3.975   0.798   5.105 -0.5507  0.0485  0.4654
  455MOL0     H62789   3.805   0.811   5.099 -1.2882  2.0291 -0.0146
  455MOL0     H62790   3.897   0.915   4.984  1.3170  1.2217 -0.6632
  456MOL0     O62791  11.033   9.120   2.455 -0.0855  0.0824 -0.7958
  456MOL0     C62792  10.927   9.143   2.508 -1.4212 -0.0928 -0.4241
  456MOL0     O62793  10.910   9.220   2.623  0.3869 -0.1676  0.2175
  456MOL0     C62794  11.019   9.294   2.658 -0.2874 -0.4908 -0.4731
  456MOL0     C62795  11.029   9.429   2.611  0.0255  1.3427  0.7265
  456MOL0     C62796  11.142   9.504   2.649 -0.2438 -0.4864 -1.3684
  456MOL0     C62797  11.233   9.461   2.738 -0.3046 -0.8397 -0.7845
  456MOL0     O62798  11.339   9.546   2.761  0.7938  0.1222  0.4999
  456MOL0     C62799  11.427   9.530   2.863 -0.0331 -0.3971 -0.8541
  456MOL0     C62800  11.527   9.645   2.853 -0.3221  0.1987  0.1389
  456MOL0     C62801  11.646   9.631   2.952 -0.7613  0.1712 -0.8880
  456MOL0     C62802  11.754   9.741   2.925  0.4399 -1.0476 -0.0508
  456MOL0     C62803  11.714   9.874   2.973  0.7406  0.1831  0.4291
  456MOL0     C62804  11.813   9.987   2.931  0.2860  0.9998 -0.0558
  456MOL0     C62805  11.743  10.127   2.912  0.2262 -0.2686 -0.1135
  456MOL0     C62806  11.734  10.154   2.762  0.1577 -0.4894  0.1990
  456MOL0     N62807  11.865  10.167   2.707 -0.5345  0.6291 -0.6996
  456MOL0     C62808  11.950  10.265   2.735  0.3016 -0.8134  0.3618
  456MOL0     C62809  12.067  10.248   2.657  0.0568  0.5551 -0.7562
  456MOL0     C62810  12.192  10.329   2.682  0.6147  0.4718  0.4974
  456MOL0     C62811  12.330  10.263   2.691  0.1604  0.1631 -0.0850
  456MOL0     C62812  12.443  10.350   2.630  0.2403 -0.0301 -0.2246
  456MOL0     C62813  12.580  10.304   2.685  0.6191 -0.4578  0.1727
  456MOL0     O62814  12.668  10.397   2.624  0.2235  0.1545  0.3249
  456MOL0     C62815  12.793  10.422   2.674 -0.3334 -0.5944 -0.5241
  456MOL0     C62816  12.845  10.381   2.795 -0.4440  0.2990  0.2230
  456MOL0     C62817  12.976  10.416   2.846 -0.1821 -0.7082  0.7107
  456MOL0     C62818  13.018  10.391   2.989 -0.7681  0.2377 -0.0122
  456MOL0     C62819  13.059  10.482   2.747  0.5079  0.3481  0.6340
  456MOL0     C62820  13.201  10.524   2.775 -0.7283  0.7761 -0.1844
  456MOL0     O62821  13.277  10.545   2.662 -0.4454  1.1608  0.5625
  456MOL0     C62822  13.393  10.618   2.659  0.3395 -0.7645 -0.3414
  456MOL0     C62823  13.497  10.545   2.687 -0.8382  0.6127 -0.0838
  456MOL0     C62824  13.624  10.607   2.701  0.4377  0.3235 -0.4796
  456MOL0     C62825  13.639  10.743   2.680 -0.6967  0.8393  0.4686
  456MOL0     O62826  13.751  10.818   2.680  0.6949  0.7504 -0.4693
  456MOL0     C62827  13.859  10.775   2.762 -0.1040 -0.1728 -0.1182
  456MOL0     C62828  13.977  10.872   2.731 -0.0734  0.0095 -0.1598
  456MOL0     C62829  14.000  10.891   2.578  0.0480 -0.5141  0.4473
  456MOL0     C62830  14.137  10.935   2.548  0.3269 -0.3775 -0.1150
  456MOL0     C62831  14.162  10.951   2.392  0.3584 -0.0670  0.0342
  456MOL0     C62832  14.169  10.815   2.323 -0.1116 -0.5899  0.3389
  456MOL0     C62833  14.252  10.801   2.195  0.0582  0.4674  0.6879
  456MOL0     C62834  14.284  10.652   2.164  0.5537 -0.1450  0.2110
  456MOL0    Cl62835  14.119  10.565   2.125 -0.0038  0.4192 -0.0492
  456MOL0     C62836  13.523  10.816   2.655 -0.0658 -0.3974 -0.7479
  456MOL0     C62837  13.398  10.762   2.649 -0.1065  0.3956  0.3218
  456MOL0     O62838  13.230  10.564   2.891 -1.1525  0.4736 -0.1915
  456MOL0     C62839  13.014  10.504   2.619  0.3487  0.1015 -0.0546
  456MOL0     C62840  12.881  10.494   2.585  0.2113  0.4802 -0.6767
  456MOL0     N62841  12.046  10.135   2.586 -0.1300 -0.8501  0.7747
  456MOL0     N62842  11.924  10.094   2.611  0.5086 -0.5783  0.1163
  456MOL0     C62843  11.219   9.336   2.797 -0.4076  0.7768 -0.0779
  456MOL0     C62844  11.107   9.255   2.756 -0.1739  0.6829 -0.8290
  456MOL0     C62845  10.810   9.077   2.454  0.3100 -0.0898 -0.5760
  456MOL0     C62846  10.691   9.062   2.533  0.3432  0.1673 -0.7563
  456MOL0     C62847  10.568   9.009   2.492 -0.2900 -0.0800  0.1450
  456MOL0     C62848  10.562   8.952   2.365 -0.1189 -0.0817  0.5243
  456MOL0     O62849  10.446   8.889   2.317 -0.0454  0.5383 -0.0452
  456MOL0     C62850  10.323   8.917   2.386 -0.0138 -0.4467 -1.4256
  456MOL0     C62851  10.198   8.867   2.323  0.2888  0.5566  0.3032
  456MOL0     C62852  10.073   8.938   2.391 -0.3978  0.0790  0.5956
  456MOL0     C62853   9.965   8.842   2.391  0.6985 -0.1159  0.3273
  456MOL0     C62854   9.889   8.854   2.259 -0.9508 -0.1024  0.3274
  456MOL0     C62855   9.830   8.871   2.159  0.3321  0.3835  0.2581
  456MOL0     C62856  10.670   8.963   2.288  0.1087 -0.3625 -0.0437
  456MOL0     C62857  10.792   9.019   2.332  1.0934  1.0828  0.8911
  456MOL0     C62858  10.883   9.029   2.216 -0.0922  0.4428 -0.5526
  456MOL0     H62859  10.953   9.469   2.544 -0.4807 -3.0836 -1.7453
  456MOL0     H62860  11.150   9.605   2.610  0.9069 -0.6255 -1.5183
  456MOL0     H62861  11.474   9.431   2.853  0.0311 -0.3664 -0.8559
  456MOL0     H62862  11.375   9.523   2.959 -1.7370 -0.9669 -1.7653
  456MOL0     H62863  11.568   9.644   2.751  0.8513  0.6087  0.5937
  456MOL0     H62864  11.472   9.739   2.867  0.9581  0.8669  0.9638
  456MOL0     H62865  11.603   9.640   3.053 -1.2860 -1.7315 -0.9075
  456MOL0     H62866  11.683   9.529   2.937 -3.5076 -1.2088  0.7964
  456MOL0     H62867  11.839   9.717   2.989  0.3031  1.9111  1.3963
  456MOL0     H62868  11.786   9.746   2.821 -0.3607  1.9997 -0.2410
  456MOL0     H62869  11.717   9.874   3.082  2.0430 -1.6034  0.4361
  456MOL0     H62870  11.613   9.908   2.947  0.4189 -0.4863  0.7715
  456MOL0     H62871  11.884  10.000   3.013 -1.7058  0.8238  1.7963
  456MOL0     H62872  11.875   9.943   2.852 -0.5311  2.3240 -1.4700
  456MOL0     H62873  11.800  10.215   2.940 -2.5096  1.4504  0.4807
  456MOL0     H62874  11.647  10.136   2.964  1.1099 -1.5973  1.8785
  456MOL0     H62875  11.680  10.078   2.706 -2.7463  0.9094  0.9429
  456MOL0     H62876  11.680  10.248   2.748 -1.3847 -1.4580 -0.4870
  456MOL0     H62877  11.933  10.351   2.799  2.7659  1.2080 -1.4998
  456MOL0     H62878  12.164  10.397   2.763 -3.2915  1.3896 -1.3869
  456MOL0     H62879  12.198  10.389   2.591 -0.7890  1.2337  0.8881
  456MOL0     H62880  12.342  10.247   2.799 -0.8669  0.2958  0.0624
  456MOL0     H62881  12.316  10.166   2.644 -1.5078  0.8172 -1.0327
  456MOL0     H62882  12.421  10.347   2.523 -1.1050 -0.4406  0.0388
  456MOL0     H62883  12.437  10.455   2.661  0.4327  0.3898 -1.5586
  456MOL0     H62884  12.581  10.305   2.794 -0.2722 -0.7744  0.1929
  456MOL0     H62885  12.607  10.201   2.658 -0.3458 -1.0501  1.3735
  456MOL0     H62886  12.785  10.312   2.855  0.2852  1.4491  2.4088
  456MOL0     H62887  13.119  10.351   2.976  1.1134  4.4646  0.0884
  456MOL0     H62888  12.939  10.327   3.030 -0.1148 -1.8133 -1.7516
  456MOL0     H62889  13.027  10.483   3.047 -1.8072 -0.8271  1.9563
  456MOL0     H62890  13.500  10.436   2.690  3.6125  0.4754 -2.3254
  456MOL0     H62891  13.704  10.541   2.732 -1.6726 -1.0819  2.4412
  456MOL0     H62892  13.840  10.771   2.870 -0.3693  1.0842 -0.1107
  456MOL0     H62893  13.876  10.673   2.725 -1.6553  0.1769 -1.9631
  456MOL0     H62894  13.980  10.972   2.775  1.6059  0.5246 -1.3480
  456MOL0     H62895  14.067  10.821   2.768 -0.9127 -2.6001 -1.4631
  456MOL0     H62896  13.934  10.967   2.534  0.7321  0.4404  1.0390
  456MOL0     H62897  13.978  10.795   2.530 -3.5107  0.5873 -0.4405
  456MOL0     H62898  14.209  10.862   2.586  1.3014 -0.7873 -2.5403
  456MOL0     H62899  14.145  11.035   2.592  1.6702 -1.1939  1.6011
  456MOL0     H62900  14.093  11.025   2.352 -0.2190 -0.3875  0.4245
  456MOL0     H62901  14.254  11.010   2.387  0.1073  0.2594 -0.9001
  456MOL0     H62902  14.064  10.784   2.315 -0.9360  0.9216  3.5816
  456MOL0     H62903  14.219  10.744   2.390  0.4533 -2.2479 -1.7618
  456MOL0     H62904  14.344  10.860   2.196 -0.8610  2.1499 -1.9120
  456MOL0     H62905  14.190  10.846   2.116 -0.6641 -2.1617 -0.3355
  456MOL0     H62906  14.340  10.611   2.249  0.9719 -1.7174 -0.7930
  456MOL0     H62907  14.346  10.645   2.075  2.2863  0.5658  1.3114
  456MOL0     H62908  13.542  10.922   2.648 -1.0955 -0.1636 -0.1995
  456MOL0     H62909  13.305  10.818   2.638 -0.6392 -0.6595 -0.8262
  456MOL0     H62910  13.080  10.543   2.542  1.6619 -0.1440  0.8993
  456MOL0     H62911  12.848  10.517   2.484  0.5020  1.1658 -0.6214
  456MOL0     H62912  11.285   9.286   2.866  2.2596  2.7971 -0.9836
  456MOL0     H62913  11.081   9.158   2.798  0.7252  0.0801 -1.6195
  456MOL0     H62914  10.687   9.099   2.635 -0.8053  1.5587 -1.2685
  456MOL0     H62915  10.485   9.013   2.561 -0.7122  3.3493 -0.3608
  456MOL0     H62916  10.332   8.869   2.484  0.3156 -1.8700 -2.1199
  456MOL0     H62917  10.313   9.024   2.403 -0.3375 -0.7668  0.7386
  456MOL0     H62918  10.202   8.757   2.328  0.5997  0.5826  0.7923
  456MOL0     H62919  10.199   8.903   2.220 -0.7121  1.9700  0.7611
  456MOL0     H62920  10.077   8.959   2.498 -4.1665  0.3826  0.7927
  456MOL0     H62921  10.055   9.037   2.349  1.5847  0.2041 -0.0724
  456MOL0     H62922   9.890   8.871   2.465  0.4631 -1.6851  0.7344
  456MOL0     H62923  10.003   8.740   2.404  0.3742 -0.5601 -1.8050
  456MOL0     H62924   9.771   8.894   2.073 -0.7090 -3.4594 -0.2178
  456MOL0     H62925  10.664   8.928   2.186 -1.4922  1.5556 -0.6690
  456MOL0     H62926  10.987   9.001   2.238  0.2761  1.0433 -1.4639
  456MOL0     H62927  10.857   8.974   2.125 -0.0137 -0.2154 -0.1779
  456MOL0     H62928  10.888   9.135   2.187 -0.3493  0.2167 -1.4800
  457MOL0     O62929   6.891   0.381   5.182 -0.1253  0.2073  0.6429
  457MOL0     C62930   6.967   0.441   5.109  0.3384 -0.7560  0.5097
  457MOL0     O62931   7.102   0.424   5.104 -0.0235 -0.2931 -0.1065
  457MOL0     C62932   7.184   0.371   5.200  0.0928 -0.3883  0.6972
  457MOL0     C62933   7.322   0.403   5.194  0.2841  0.0236 -0.0492
  457MOL0     C62934   7.417   0.348   5.284 -0.3469 -0.8293 -0.5956
  457MOL0     C62935   7.374   0.271   5.389  0.6178  0.0478 -0.3501
  457MOL0     O62936   7.473   0.222   5.477  0.7537 -0.2844  0.5779
  457MOL0     C62937   7.431   0.125   5.578 -0.5938 -0.4709 -0.6662
  457MOL0     C62938   7.534   0.116   5.691  0.0296  0.7188  0.9267
  457MOL0     C62939   7.673   0.070   5.636 -0.1434  0.0720  0.2495
  457MOL0     C62940   7.787   0.106   5.740 -0.3493 -0.1174  0.6427
  457MOL0     C62941   7.908   0.049   5.691 -0.4700 -0.4885  0.6457
  457MOL0     C62942   7.977   0.134   5.587  0.4456  0.5131 -0.1349
  457MOL0     C62943   8.131   0.108   5.564 -0.2746  0.7668  0.3385
  457MOL0     C62944   8.168  -0.019   5.480 -0.3721  0.3652 -0.6939
  457MOL0     N62945   8.316  -0.026   5.460 -0.3741 -0.0990  0.0369
  457MOL0     C62946   8.414  -0.066   5.552  0.3882  0.1364  0.6907
  457MOL0     C62947   8.529  -0.040   5.486 -0.3980  0.4586 -0.3693
  457MOL0     C62948   8.664  -0.041   5.545  0.1311  0.1101  0.2276
  457MOL0     C62949   8.678   0.100   5.607 -0.1709 -0.2901  0.6733
  457MOL0     C62950   8.794   0.113   5.700 -0.4266  0.4041 -1.0361
  457MOL0     C62951   8.931   0.153   5.633 -0.5633  0.8558  1.3081
  457MOL0     O62952   9.004   0.048   5.563  0.0157  0.4156  0.2553
  457MOL0     C62953   9.094  -0.032   5.638 -0.8081 -0.1835 -0.0921
  457MOL0     C62954   9.117  -0.024   5.773 -1.0449  0.7081  0.5036
  457MOL0     C62955   9.215  -0.108   5.833 -0.8671 -1.1572  0.1802
  457MOL0     C62956   9.213  -0.111   5.990  0.2104  0.1250  0.5784
  457MOL0     C62957   9.290  -0.202   5.756  0.3476 -1.3915 -0.3393
  457MOL0     C62958   9.384  -0.296   5.811  0.3061 -0.2271 -0.3778
  457MOL0     O62959   9.395  -0.411   5.742  0.0157  0.0238  0.2276
  457MOL0     C62960   9.491  -0.500   5.781  0.7589  1.1116 -0.0689
  457MOL0     C62961   9.626  -0.486   5.752  0.5103 -0.5737 -0.0965
  457MOL0     C62962   9.718  -0.596   5.774 -0.2071  0.3242 -0.5446
  457MOL0     C62963   9.674  -0.711   5.837 -0.4647  0.2051 -0.6700
  457MOL0     O62964   9.752  -0.815   5.877 -0.2913  0.7224 -0.0807
  457MOL0     C62965   9.879  -0.814   5.831 -0.3527 -0.0093  0.0366
  457MOL0     C62966   9.955  -0.926   5.891  0.5070 -0.0531  0.3610
  457MOL0     C62967  10.091  -0.948   5.819 -0.4272  0.0251 -0.8435
  457MOL0     C62968  10.203  -0.852   5.863  0.0818 -0.9519 -0.4302
  457MOL0     C62969  10.343  -0.897   5.816 -0.6745  0.3361 -0.3237
  457MOL0     C62970  10.458  -0.793   5.833  0.0194  0.4879  0.5281
  457MOL0     C62971  10.598  -0.834   5.782  0.4309 -0.2238  0.8211
  457MOL0     C62972  10.661  -0.920   5.896 -1.2305  0.0745 -0.5365
  457MOL0    Cl62973  10.842  -0.971   5.870  0.3708  0.1313  0.2164
  457MOL0     C62974   9.544  -0.717   5.883  0.6231  0.1933  0.8641
  457MOL0     C62975   9.447  -0.622   5.848 -0.3131  0.3041  1.2275
  457MOL0     O62976   9.452  -0.256   5.906 -0.4185 -0.2258  0.4640
  457MOL0     C62977   9.259  -0.210   5.628 -0.0273  0.7848  0.4038
  457MOL0     C62978   9.166  -0.128   5.563  0.1890 -0.0402 -0.0142
  457MOL0     N62979   8.509  -0.002   5.355  0.6228 -0.1960  0.1632
  457MOL0     N62980   8.377   0.012   5.341  0.1849 -0.1427  0.0287
  457MOL0     C62981   7.236   0.240   5.388  0.0836  0.5824  0.2626
  457MOL0     C62982   7.148   0.279   5.291  0.3594  0.4072 -0.4723
  457MOL0     C62983   6.905   0.545   5.021 -0.7064  0.1358  0.3010
  457MOL0     C62984   6.995   0.631   4.951 -0.3394 -0.0896  0.2288
  457MOL0     C62985   6.956   0.721   4.850  0.6244  0.1604  0.3348
  457MOL0     C62986   6.822   0.741   4.827  0.5192  0.3643  0.0758
  457MOL0     O62987   6.792   0.837   4.725  0.2638  0.3934  0.1844
  457MOL0     C62988   6.661   0.851   4.673 -0.0622  0.2674 -0.1295
  457MOL0     C62989   6.584   0.959   4.754 -0.1179 -1.4475 -0.6931
  457MOL0     C62990   6.435   0.935   4.772  0.5147 -0.2405 -0.4102
  457MOL0     C62991   6.367   1.053   4.830  0.9060 -0.0812 -0.2000
  457MOL0     C62992   6.328   1.157   4.737  0.1138  0.1803  0.2343
  457MOL0     C62993   6.290   1.244   4.656 -0.0318 -0.5881  1.2044
  457MOL0     C62994   6.732   0.681   4.911  0.1041  0.2527  0.4714
  457MOL0     C62995   6.768   0.578   5.002  1.2438  0.4075 -0.7663
  457MOL0     C62996   6.654   0.504   5.071  0.1771 -0.2091  0.0931
  457MOL0     H62997   7.349   0.471   5.114 -1.4867  0.0882 -0.6530
  457MOL0     H62998   7.524   0.359   5.271 -0.3049 -0.1322  0.2311
  457MOL0     H62999   7.423   0.034   5.519 -0.1292 -1.8324  1.2609
  457MOL0     H63000   7.339   0.162   5.624  0.3673  1.0606  0.1005
  457MOL0     H63001   7.553   0.211   5.743  1.3254  0.5144  0.8652
  457MOL0     H63002   7.501   0.051   5.772  2.5593  0.4497  1.8239
  457MOL0     H63003   7.674  -0.039   5.639  1.4364  0.0863  2.5211
  457MOL0     H63004   7.698   0.118   5.541 -2.0976 -2.7416 -1.8430
  457MOL0     H63005   7.795   0.215   5.732 -0.0089 -0.2331 -0.9123
  457MOL0     H63006   7.756   0.062   5.835 -0.4648  1.0009  1.1404
  457MOL0     H63007   7.892  -0.050   5.647  0.0537 -1.6115  2.8599
  457MOL0     H63008   7.975   0.036   5.776  0.6325 -0.1586 -0.1458
  457MOL0     H63009   7.927   0.118   5.491 -0.4118  3.0663 -0.1797
  457MOL0     H63010   7.963   0.241   5.607 -1.2640  0.3487 -0.3386
  457MOL0     H63011   8.185   0.111   5.658  3.8365  2.7453 -1.8155
  457MOL0     H63012   8.175   0.189   5.505 -0.7650 -1.0231 -2.7238
  457MOL0     H63013   8.137  -0.113   5.527 -2.0368  1.0231 -0.3735
  457MOL0     H63014   8.117  -0.013   5.383 -1.0346  1.6968 -0.2893
  457MOL0     H63015   8.405  -0.097   5.656 -0.4824 -1.5094  0.1510
  457MOL0     H63016   8.737  -0.029   5.465 -0.1837  2.1391  0.2009
  457MOL0     H63017   8.680  -0.124   5.614 -0.8352 -1.5299 -1.4118
  457MOL0     H63018   8.692   0.177   5.531  1.7513  0.4970  1.7702
  457MOL0     H63019   8.588   0.134   5.660  0.0567  0.7740  0.3899
  457MOL0     H63020   8.773   0.183   5.781 -2.1523  0.3912 -1.4412
  457MOL0     H63021   8.813   0.018   5.751 -1.3231  0.4577 -0.5856
  457MOL0     H63022   8.912   0.236   5.564 -1.2794 -0.0431  0.3794
  457MOL0     H63023   9.005   0.184   5.708  3.4848 -1.2329 -1.4210
  457MOL0     H63024   9.059   0.039   5.840 -1.1672  1.4241 -0.2533
  457MOL0     H63025   9.130  -0.052   6.030  2.2648  1.6368  2.8982
  457MOL0     H63026   9.309  -0.068   6.021  0.4278 -0.9470  1.4433
  457MOL0     H63027   9.214  -0.214   6.025  3.4343 -0.3566 -0.6085
  457MOL0     H63028   9.661  -0.390   5.715 -1.3930 -1.1573 -3.9404
  457MOL0     H63029   9.824  -0.593   5.747 -0.1634 -1.1568 -0.6581
  457MOL0     H63030   9.884  -0.823   5.722 -2.5135  2.0492 -0.3232
  457MOL0     H63031   9.935  -0.724   5.859 -2.0434  1.7250 -1.9119
  457MOL0     H63032   9.969  -0.897   5.996  0.8183 -0.8593  0.5485
  457MOL0     H63033   9.914  -1.027   5.887  0.3504  0.0278 -0.1772
  457MOL0     H63034  10.079  -0.939   5.711 -1.5076 -0.5899 -0.7848
  457MOL0     H63035  10.140  -1.043   5.845  0.9308  0.9067 -0.0363
  457MOL0     H63036  10.200  -0.849   5.972 -3.0521  0.1104 -0.4499
  457MOL0     H63037  10.183  -0.755   5.816  3.1639 -0.0088  0.0389
  457MOL0     H63038  10.369  -0.987   5.873  1.9679  0.6619 -0.9127
  457MOL0     H63039  10.353  -0.928   5.712 -2.3387 -0.2982 -0.3316
  457MOL0     H63040  10.457  -0.750   5.933 -0.6219  1.4111  0.1467
  457MOL0     H63041  10.421  -0.714   5.766 -2.2120 -2.3836 -1.9514
  457MOL0     H63042  10.652  -0.744   5.751  1.2326 -1.2906 -0.9976
  457MOL0     H63043  10.583  -0.891   5.690 -0.8405  1.8066 -0.3138
  457MOL0     H63044  10.621  -1.021   5.905  2.5210 -1.4751  0.4255
  457MOL0     H63045  10.655  -0.871   5.994 -3.2660 -2.2696  0.6075
  457MOL0     H63046   9.514  -0.802   5.944  2.5827 -1.9579 -0.9868
  457MOL0     H63047   9.342  -0.633   5.874 -0.1404 -1.5150  1.2509
  457MOL0     H63048   9.307  -0.278   5.558 -0.4017  1.2724 -0.3466
  457MOL0     H63049   9.144  -0.143   5.458 -2.1116 -0.5305  0.4690
  457MOL0     H63050   7.199   0.177   5.469 -0.7337 -0.0173 -0.5661
  457MOL0     H63051   7.053   0.225   5.290  0.8628 -0.5218 -1.8717
  457MOL0     H63052   7.100   0.633   4.980 -0.4319 -2.4098  0.9370
  457MOL0     H63053   7.031   0.776   4.794  1.8833 -2.7093 -0.9803
  457MOL0     H63054   6.663   0.879   4.568 -0.3550  1.4897  0.1719
  457MOL0     H63055   6.603   0.759   4.680  2.2180 -1.1214  2.8614
  457MOL0     H63056   6.587   1.048   4.691  3.2246 -0.1856  0.9827
  457MOL0     H63057   6.639   0.981   4.846 -0.4269 -3.7851  0.1287
  457MOL0     H63058   6.392   0.916   4.674  2.3274 -2.8497 -0.8020
  457MOL0     H63059   6.423   0.851   4.841 -1.3400  0.7179  0.5103
  457MOL0     H63060   6.431   1.099   4.905  0.4640 -0.0959  0.1933
  457MOL0     H63061   6.272   1.017   4.871  1.6785 -0.6296  1.1598
  457MOL0     H63062   6.253   1.329   4.601  2.0040  0.5870  1.5485
  457MOL0     H63063   6.629   0.714   4.904  0.6005  1.9784  0.8133
  457MOL0     H63064   6.580   0.568   5.121 -1.5292 -1.7619 -0.3538
  457MOL0     H63065   6.599   0.453   4.992 -0.1658  1.7373 -0.9759
  457MOL0     H63066   6.687   0.447   5.158  0.8961  1.8758  1.2731
  458MOL0     O63067  10.139   0.828   6.466  0.1791 -0.2820 -0.1118
  458MOL0     C63068  10.017   0.813   6.471  0.8489 -0.9842  0.8762
  458MOL0     O63069   9.932   0.817   6.362  0.3708 -0.7547 -0.3800
  458MOL0     C63070   9.987   0.868   6.250 -0.3428  0.8647 -0.1655
  458MOL0     C63071   9.996   1.004   6.229  0.3442  0.1488  0.2358
  458MOL0     C63072  10.066   1.049   6.108 -0.0620 -0.5336 -0.1926
  458MOL0     C63073  10.136   0.962   6.024  0.1592  0.9627  0.5331
  458MOL0     O63074  10.205   1.016   5.921 -0.0123  0.1401  0.6001
  458MOL0     C63075  10.292   0.930   5.850 -0.5285 -1.4531  0.3148
  458MOL0     C63076  10.398   1.003   5.756 -0.0845 -0.0187  0.0263
  458MOL0     C63077  10.497   1.072   5.848 -0.0905  0.3001 -0.0704
  458MOL0     C63078  10.597   1.156   5.761  0.6006  0.9704 -0.5956
  458MOL0     C63079  10.726   1.194   5.830 -0.1875 -0.4208 -0.5192
  458MOL0     C63080  10.849   1.098   5.824  0.5972 -0.3062  1.0209
  458MOL0     C63081  10.956   1.115   5.930  0.0298 -0.1591 -0.4609
  458MOL0     C63082  10.907   1.070   6.072  0.1229  0.3301  0.4445
  458MOL0     N63083  11.014   1.095   6.168 -0.7040  0.2326  0.5138
  458MOL0     C63084  11.134   1.032   6.187  0.0869 -1.1687  0.5019
  458MOL0     C63085  11.207   1.108   6.274 -0.4137 -0.6707 -0.6603
  458MOL0     C63086  11.336   1.074   6.333 -0.3413  0.5678  0.7864
  458MOL0     C63087  11.456   1.146   6.266  0.4828 -0.3307  0.4736
  458MOL0     C63088  11.583   1.096   6.328  0.3020  0.3303 -0.3558
  458MOL0     C63089  11.711   1.122   6.252  0.1813  0.2795  0.4844
  458MOL0     O63090  11.693   1.086   6.111 -0.1846  0.0789 -0.6950
  458MOL0     C63091  11.809   1.081   6.037 -0.3432 -0.0617  0.1902
  458MOL0     C63092  11.791   1.010   5.915 -0.3513 -0.4254  0.5547
  458MOL0     C63093  11.908   0.995   5.830  0.1013  0.4575  0.5489
  458MOL0     C63094  11.890   0.924   5.693  0.4750 -0.3401  0.4100
  458MOL0     C63095  12.030   1.032   5.875 -0.2082 -0.7997  0.0266
  458MOL0     C63096  12.155   1.005   5.789 -0.9930 -0.4098 -0.0839
  458MOL0     O63097  12.180   0.885   5.729  0.1663  0.4053 -0.4404
  458MOL0     C63098  12.288   0.884   5.643  1.0064  0.2951 -0.4964
  458MOL0     C63099  12.279   0.926   5.510  1.2004 -0.0790 -0.1804
  458MOL0     C63100  12.388   0.939   5.426  1.7044 -0.0218 -0.1924
  458MOL0     C63101  12.518   0.900   5.469  0.1033 -0.2871  0.0422
  458MOL0     O63102  12.636   0.901   5.394 -0.2237  0.2163 -0.0556
  458MOL0     C63103  12.632   0.952   5.259 -0.0263 -0.6615  0.3156
  458MOL0     C63104  12.762   0.918   5.189 -0.9244 -0.4912  0.5123
  458MOL0     C63105  12.766   0.986   5.053 -1.0127  0.3354 -0.7862
  458MOL0     C63106  12.905   0.939   4.997  0.3069  0.0950 -0.1880
  458MOL0     C63107  12.930   1.011   4.863 -0.3754 -0.2774  0.4025
  458MOL0     C63108  13.068   0.967   4.807 -1.0075  0.4651  0.3758
  458MOL0     C63109  13.195   0.993   4.890  0.0105  0.0863 -0.0584
  458MOL0     C63110  13.321   0.918   4.832  0.2371 -0.0540  0.0198
  458MOL0    Cl63111  13.381   0.973   4.662 -0.0033  0.2713  0.0908
  458MOL0     C63112  12.522   0.855   5.603 -0.6670 -0.0000  0.3294
  458MOL0     C63113  12.408   0.844   5.692  0.1783 -0.0319 -0.0346
  458MOL0     O63114  12.233   1.099   5.788  0.3088 -0.8276  0.2542
  458MOL0     C63115  12.043   1.099   6.001  1.2396 -0.1667 -0.5282
  458MOL0     C63116  11.932   1.131   6.077  0.2768 -0.3970 -0.5244
  458MOL0     N63117  11.136   1.219   6.317 -0.0639  0.4663 -0.3206
  458MOL0     N63118  11.026   1.215   6.240 -0.0912  1.0283 -0.5888
  458MOL0     C63119  10.119   0.824   6.055 -0.6240 -0.6647  0.5386
  458MOL0     C63120  10.053   0.784   6.167 -0.6610  0.2734 -0.2779
  458MOL0     C63121   9.965   0.795   6.605 -0.9704 -1.6564 -0.1553
  458MOL0     C63122   9.833   0.736   6.615 -0.0344 -0.6691 -0.0404
  458MOL0     C63123   9.767   0.721   6.737  0.6129 -0.1131  0.0713
  458MOL0     C63124   9.826   0.763   6.853  0.0569  0.4095  0.0374
  458MOL0     O63125   9.742   0.735   6.967  0.0765  0.3380 -0.0009
  458MOL0     C63126   9.801   0.775   7.088 -0.0257  0.6224 -0.6825
  458MOL0     C63127   9.787   0.927   7.103 -0.9137  0.5588  0.5772
  458MOL0     C63128   9.640   0.979   7.099 -0.1826  0.0986 -0.8793
  458MOL0     C63129   9.567   0.983   7.236  0.0940  0.9424  0.2631
  458MOL0     C63130   9.612   1.089   7.325 -0.3454 -0.2208  0.1125
  458MOL0     C63131   9.658   1.181   7.396  0.5127  0.7252  0.3307
  458MOL0     C63132   9.961   0.815   6.851  0.3719 -0.4323  0.1565
  458MOL0     C63133  10.031   0.834   6.724 -0.1066  0.1801  0.3552
  458MOL0     C63134  10.169   0.902   6.735 -0.2573  0.0130 -0.3091
  458MOL0     H63135   9.941   1.074   6.292 -1.5363  0.7589 -1.9386
  458MOL0     H63136  10.074   1.156   6.089  3.3828 -0.9438 -1.8360
  458MOL0     H63137  10.223   0.873   5.788 -3.6258  2.6040 -0.3616
  458MOL0     H63138  10.346   0.869   5.923 -1.2280  0.8222  2.9089
  458MOL0     H63139  10.456   0.934   5.693 -1.6123 -2.3461  1.0227
  458MOL0     H63140  10.349   1.079   5.694  3.6698 -0.1748 -3.6195
  458MOL0     H63141  10.446   1.133   5.923  0.2447 -0.4241  0.7574
  458MOL0     H63142  10.558   0.992   5.892 -0.1061 -1.1617 -2.4872
  458MOL0     H63143  10.607   1.114   5.661 -2.0280  2.8086 -1.7603
  458MOL0     H63144  10.535   1.243   5.735  1.1489  0.9984 -1.8624
  458MOL0     H63145  10.696   1.207   5.934 -0.6551 -0.8406 -0.5960
  458MOL0     H63146  10.752   1.296   5.801 -2.2227 -0.3434 -2.4315
  458MOL0     H63147  10.802   0.999   5.821 -1.2569  0.5245  1.0425
  458MOL0     H63148  10.891   1.093   5.723  0.8030  2.6641  0.8731
  458MOL0     H63149  10.975   1.223   5.921  2.9652 -0.6917 -1.7619
  458MOL0     H63150  11.048   1.061   5.909  0.3281  0.3403 -0.4705
  458MOL0     H63151  10.821   1.130   6.103  0.4412 -0.8231  3.9345
  458MOL0     H63152  10.889   0.963   6.075 -2.6543  0.6752 -0.9450
  458MOL0     H63153  11.165   0.935   6.149 -1.0795 -1.0312 -0.8501
  458MOL0     H63154  11.353   0.967   6.322 -1.2264  0.5649 -0.9146
  458MOL0     H63155  11.332   1.097   6.440 -0.0142  0.7333  0.7630
  458MOL0     H63156  11.440   1.101   6.168 -2.8471 -2.2402  1.7133
  458MOL0     H63157  11.437   1.253   6.270 -0.1137 -0.2867 -1.9465
  458MOL0     H63158  11.597   1.147   6.424  0.3836  0.8999 -0.6643
  458MOL0     H63159  11.585   0.987   6.335  1.7456  0.3235 -0.6510
  458MOL0     H63160  11.728   1.230   6.251  2.5420 -0.0516 -0.4245
  458MOL0     H63161  11.795   1.065   6.292  0.7039 -0.3676 -1.4368
  458MOL0     H63162  11.690   0.978   5.891 -1.6276  3.2557  0.3208
  458MOL0     H63163  11.911   0.988   5.608 -2.4836  0.8701  0.4473
  458MOL0     H63164  11.789   0.881   5.686  0.8470 -0.9066 -3.4069
  458MOL0     H63165  11.948   0.831   5.688  0.5706 -0.2810  0.4239
  458MOL0     H63166  12.181   0.947   5.467 -0.1218 -3.0108  1.0948
  458MOL0     H63167  12.378   0.983   5.328 -0.1981  0.0895  0.0132
  458MOL0     H63168  12.548   0.900   5.213 -0.2974  1.0953 -1.2990
  458MOL0     H63169  12.593   1.053   5.273 -2.8986 -1.5395 -0.6332
  458MOL0     H63170  12.844   0.946   5.255 -0.1526 -3.1027  0.7827
  458MOL0     H63171  12.767   0.812   5.162  0.0332  0.3316 -3.0289
  458MOL0     H63172  12.767   1.096   5.061  3.8707  0.4234  1.2061
  458MOL0     H63173  12.687   0.947   4.989 -0.0529 -2.0525 -0.6023
  458MOL0     H63174  12.906   0.832   4.973  1.2612  0.5621 -2.5518
  458MOL0     H63175  12.981   0.956   5.073 -3.0164  2.6184  2.9331
  458MOL0     H63176  12.846   0.980   4.800  1.0527 -3.4502 -0.0844
  458MOL0     H63177  12.929   1.120   4.880  0.1937 -0.2288  0.1398
  458MOL0     H63178  13.083   1.032   4.720 -1.3893  3.8374  2.6104
  458MOL0     H63179  13.051   0.863   4.780  0.6055 -0.2916  2.0793
  458MOL0     H63180  13.190   0.965   4.995  0.7578 -0.4510 -0.1584
  458MOL0     H63181  13.209   1.102   4.886 -0.5667  0.2821  2.1093
  458MOL0     H63182  13.289   0.813   4.828 -0.5772  0.2372 -3.3291
  458MOL0     H63183  13.397   0.924   4.911 -0.0009  1.5467  0.1529
  458MOL0     H63184  12.624   0.840   5.635 -0.1183 -0.0685 -1.3515
  458MOL0     H63185  12.409   0.798   5.790  0.5802 -2.3997 -1.0856
  458MOL0     H63186  12.147   1.120   6.025  1.2546 -1.3499  0.5171
  458MOL0     H63187  11.954   1.171   6.176 -2.7812  0.1507  0.0248
  458MOL0     H63188  10.167   0.750   5.992  3.0788  1.0260  1.1083
  458MOL0     H63189  10.066   0.678   6.186 -0.4230  0.0765 -1.4271
  458MOL0     H63190   9.786   0.700   6.524 -1.9657  3.7844 -1.0475
  458MOL0     H63191   9.667   0.677   6.734  1.6048 -2.9131  2.6378
  458MOL0     H63192   9.753   0.733   7.176  2.7368  1.0952  1.1975
  458MOL0     H63193   9.905   0.744   7.103  0.5802  2.9716  0.6069
  458MOL0     H63194   9.841   0.986   7.029 -3.0591  0.7552 -0.9008
  458MOL0     H63195   9.827   0.958   7.200  1.0527  2.0466 -0.6453
  458MOL0     H63196   9.630   1.082   7.062 -3.5189 -0.0729 -0.8035
  458MOL0     H63197   9.570   0.923   7.036  0.9314 -0.3579 -1.7567
  458MOL0     H63198   9.575   0.886   7.285  1.6897  0.7606 -0.3057
  458MOL0     H63199   9.459   1.003   7.234 -0.2739 -0.5933  1.7367
  458MOL0     H63200   9.706   1.255   7.456  2.9997 -0.2823 -0.2680
  458MOL0     H63201  10.017   0.841   6.941  1.4003 -0.1021 -0.5538
  458MOL0     H63202  10.251   0.853   6.680  0.6066 -0.7763  1.5863
  458MOL0     H63203  10.161   1.007   6.708 -0.9418  0.8480  2.7676
  458MOL0     H63204  10.214   0.888   6.834 -0.8212 -2.1432 -0.3067
  459MOL0     O63205   2.646   6.678   1.174  0.6243  0.7676  0.6322
  459MOL0     C63206   2.578   6.763   1.235 -0.0912  0.3171  1.0411
  459MOL0     O63207   2.621   6.851   1.334 -0.1043 -0.6840 -0.4757
  459MOL0     C63208   2.744   6.833   1.383  0.4808 -0.7745  0.4804
  459MOL0     C63209   2.771   6.714   1.449  0.3821  0.0831 -0.6181
  459MOL0     C63210   2.899   6.686   1.506  0.1033 -0.0083 -0.7683
  459MOL0     C63211   2.995   6.790   1.525  1.3465 -0.6315  0.4295
  459MOL0     O63212   3.111   6.781   1.599  0.0236  0.2490  0.4840
  459MOL0     C63213   3.155   6.652   1.645 -0.7916  1.4890 -0.8128
  459MOL0     C63214   3.312   6.652   1.655 -0.5366  0.0175  0.6895
  459MOL0     C63215   3.377   6.762   1.748 -0.3134  0.2251 -0.6066
  459MOL0     C63216   3.527   6.765   1.722 -0.7462 -0.4597 -0.6138
  459MOL0     C63217   3.597   6.871   1.807 -1.0838 -0.5041  0.5906
  459MOL0     C63218   3.738   6.831   1.843 -0.2338  0.1886  0.6138
  459MOL0     C63219   3.797   6.929   1.944 -0.1485  0.0598 -0.0130
  459MOL0     C63220   3.951   6.908   1.976  0.0696 -0.1650  0.8100
  459MOL0     N63221   3.992   6.976   2.088 -0.1722 -0.8423 -0.5008
  459MOL0     C63222   3.936   6.980   2.221  0.0295 -0.2153 -0.4541
  459MOL0     C63223   4.006   7.081   2.282 -0.3473 -0.2959  0.4401
  459MOL0     C63224   3.982   7.111   2.428 -0.2346 -0.1346 -0.9293
  459MOL0     C63225   4.021   7.001   2.530  0.9880 -0.2007 -0.3082
  459MOL0     C63226   4.175   6.979   2.539 -0.2127  0.7445  0.6678
  459MOL0     C63227   4.260   7.092   2.597  0.1580 -0.7026  0.1395
  459MOL0     O63228   4.392   7.037   2.583  0.4286 -0.4570  0.1123
  459MOL0     C63229   4.451   7.066   2.462 -0.5136  0.0857 -0.5284
  459MOL0     C63230   4.405   7.143   2.349 -0.2105 -1.1894 -0.4037
  459MOL0     C63231   4.484   7.166   2.235  0.8690  0.2369 -0.1125
  459MOL0     C63232   4.419   7.251   2.128  0.0472 -0.0784 -0.4319
  459MOL0     C63233   4.609   7.097   2.220 -0.4262 -0.4780  0.0904
  459MOL0     C63234   4.713   7.123   2.108  1.1417 -0.4374  0.9164
  459MOL0     O63235   4.794   7.023   2.050  0.1274 -0.1618 -0.0893
  459MOL0     C63236   4.880   7.065   1.955 -1.5967 -0.0080  0.5667
  459MOL0     C63237   5.015   7.084   1.994  0.2104  0.0278 -0.1648
  459MOL0     C63238   5.112   7.136   1.903  0.0466 -0.7536 -0.1309
  459MOL0     C63239   5.080   7.156   1.767 -0.0439 -0.0534 -0.2036
  459MOL0     O63240   5.175   7.192   1.677  0.4460  0.0660 -0.1191
  459MOL0     C63241   5.206   7.105   1.567  0.5088 -0.8684 -0.6451
  459MOL0     C63242   5.340   7.159   1.516 -0.5718  0.4362  0.3378
  459MOL0     C63243   5.391   7.073   1.400  0.3592  0.3998 -0.7470
  459MOL0     C63244   5.548   7.054   1.395  0.1241 -1.0245  0.1613
  459MOL0     C63245   5.614   6.967   1.278 -0.5827  0.6049  0.3874
  459MOL0     C63246   5.601   6.814   1.287 -0.2788 -0.7859 -0.1822
  459MOL0     C63247   5.689   6.732   1.189  0.4148  0.2263  0.6754
  459MOL0     C63248   5.669   6.769   1.039  0.5828  0.6863 -0.2591
  459MOL0    Cl63249   5.766   6.903   0.984  0.4013 -0.0435  0.1686
  459MOL0     C63250   4.949   7.132   1.733 -0.3956  0.0362  0.0922
  459MOL0     C63251   4.849   7.086   1.820 -0.0539  0.5341 -0.8464
  459MOL0     O63252   4.726   7.243   2.077 -0.4741 -0.1785 -0.0714
  459MOL0     C63253   4.651   7.012   2.328  0.3738 -0.0500  0.2814
  459MOL0     C63254   4.573   7.006   2.444 -0.3977  0.6388 -0.3541
  459MOL0     N63255   4.088   7.137   2.189 -0.6348  0.0108 -0.1549
  459MOL0     N63256   4.079   7.079   2.080 -0.1846  0.0833  0.5214
  459MOL0     C63257   2.964   6.918   1.473  0.3703  0.1411  0.6837
  459MOL0     C63258   2.837   6.934   1.405  0.6069  0.4014  0.2024
  459MOL0     C63259   2.432   6.772   1.197  1.5520 -0.5246  0.6726
  459MOL0     C63260   2.351   6.858   1.270 -0.1457 -0.9827  0.7542
  459MOL0     C63261   2.214   6.875   1.256 -0.1706 -0.0441 -0.0272
  459MOL0     C63262   2.145   6.788   1.174  0.1035  0.8957 -0.3967
  459MOL0     O63263   2.008   6.781   1.162  0.1600  0.6192 -0.0271
  459MOL0     C63264   1.932   6.840   1.270  0.0337 -0.0386 -0.3239
  459MOL0     C63265   1.784   6.794   1.257 -0.5744  0.2491  0.1364
  459MOL0     C63266   1.769   6.654   1.302 -0.2728 -0.1464  0.4987
  459MOL0     C63267   1.617   6.612   1.276 -0.6367  0.4001  0.1988
  459MOL0     C63268   1.595   6.473   1.298  0.7244  0.5918  0.2221
  459MOL0     C63269   1.564   6.353   1.320  0.5755 -0.4470  0.5148
  459MOL0     C63270   2.223   6.705   1.082  0.3710  0.1078 -0.5740
  459MOL0     C63271   2.360   6.694   1.100  0.4122  0.1674  0.9274
  459MOL0     C63272   2.428   6.594   1.010 -0.7147  0.4255  0.7065
  459MOL0     H63273   2.682   6.653   1.455 -0.7412  1.4480 -2.5639
  459MOL0     H63274   2.914   6.589   1.551  0.6074 -0.7666 -2.4904
  459MOL0     H63275   3.127   6.575   1.571  0.3735 -1.0444  1.2307
  459MOL0     H63276   3.101   6.628   1.737 -0.5704  1.3712 -0.7124
  459MOL0     H63277   3.368   6.561   1.676  0.9662  0.2307 -1.9896
  459MOL0     H63278   3.338   6.675   1.551 -0.5942 -1.1733  0.3984
  459MOL0     H63279   3.317   6.852   1.733 -0.3732  0.7539  2.3773
  459MOL0     H63280   3.371   6.731   1.852  2.6132  1.2792 -0.0278
  459MOL0     H63281   3.581   6.673   1.746 -0.9139 -0.7821 -1.4386
  459MOL0     H63282   3.551   6.787   1.617 -0.0661 -2.1093 -0.8400
  459MOL0     H63283   3.535   6.900   1.892  1.0526  1.3386  1.5993
  459MOL0     H63284   3.598   6.965   1.751 -1.6101  1.6321  3.8893
  459MOL0     H63285   3.749   6.733   1.890  1.2683 -0.6347 -1.3304
  459MOL0     H63286   3.810   6.834   1.761 -0.6562  1.6723  0.2701
  459MOL0     H63287   3.738   6.925   2.037  2.3459 -0.5973  1.6526
  459MOL0     H63288   3.778   7.029   1.906  1.1243 -0.1314 -1.2232
  459MOL0     H63289   3.958   6.801   1.996 -0.4165 -0.1337  1.1531
  459MOL0     H63290   4.006   6.936   1.886 -1.0888 -1.1572 -0.2399
  459MOL0     H63291   3.862   6.916   2.269 -0.7402 -0.3335 -1.7493
  459MOL0     H63292   3.877   7.139   2.439 -0.0439  0.0386  0.6115
  459MOL0     H63293   4.048   7.198   2.439 -0.4744 -0.2217  1.8462
  459MOL0     H63294   4.007   7.035   2.633  1.2025 -0.4224 -0.2060
  459MOL0     H63295   3.975   6.903   2.513  0.3240 -0.0142  0.3755
  459MOL0     H63296   4.191   6.886   2.595 -0.2134  0.9140  0.9504
  459MOL0     H63297   4.223   6.965   2.441 -0.3997  2.1478  0.3559
  459MOL0     H63298   4.243   7.185   2.542  0.7008 -1.7143 -1.8460
  459MOL0     H63299   4.233   7.103   2.703  1.7466  2.6104  0.3236
  459MOL0     H63300   4.307   7.189   2.352  0.3595  0.1460 -0.9714
  459MOL0     H63301   4.436   7.213   2.027  1.7940  1.0587 -0.6238
  459MOL0     H63302   4.459   7.353   2.124 -1.0858  0.3556 -1.3849
  459MOL0     H63303   4.310   7.255   2.129 -0.0573 -1.9309 -1.0466
  459MOL0     H63304   5.039   7.072   2.099  0.2709 -0.0700 -0.1903
  459MOL0     H63305   5.216   7.153   1.927  0.2359 -1.1985 -0.6169
  459MOL0     H63306   5.214   6.999   1.593 -0.5897 -0.4285  1.7632
  459MOL0     H63307   5.130   7.122   1.490 -0.1877  2.8683  0.6511
  459MOL0     H63308   5.311   7.262   1.493 -1.1146  0.1216 -0.4527
  459MOL0     H63309   5.407   7.167   1.601 -0.5506  1.3752  0.2467
  459MOL0     H63310   5.351   7.121   1.310 -0.5391 -0.1091 -0.6361
  459MOL0     H63311   5.351   6.971   1.409 -1.1369  1.1688  3.3551
  459MOL0     H63312   5.584   7.019   1.492  1.1196  1.4697  0.7791
  459MOL0     H63313   5.594   7.154   1.393 -0.4979 -0.7369 -0.0540
  459MOL0     H63314   5.575   7.006   1.184  1.5018  0.5914 -0.5515
  459MOL0     H63315   5.723   6.979   1.286 -0.5245  0.5344 -0.2375
  459MOL0     H63316   5.495   6.792   1.270 -0.7449  2.3556 -2.1720
  459MOL0     H63317   5.620   6.783   1.390  0.1451 -2.1973 -0.6583
  459MOL0     H63318   5.675   6.625   1.204  0.4072  0.4796  2.8374
  459MOL0     H63319   5.794   6.747   1.216  0.8222 -1.8502  0.3771
  459MOL0     H63320   5.565   6.801   1.025  0.1418 -0.7437 -0.3541
  459MOL0     H63321   5.691   6.682   0.977  0.0481  0.0149  0.4704
  459MOL0     H63322   4.932   7.164   1.631 -0.8758  1.4845  0.6014
  459MOL0     H63323   4.744   7.072   1.800 -0.9987  3.1544  1.5053
  459MOL0     H63324   4.740   6.954   2.310 -0.0198  0.5657 -5.6814
  459MOL0     H63325   4.618   6.941   2.519  2.4462  2.1727 -0.5932
  459MOL0     H63326   3.037   6.997   1.488  2.1624 -1.3381  0.1547
  459MOL0     H63327   2.809   7.032   1.368 -0.0268  0.5644  1.0684
  459MOL0     H63328   2.394   6.934   1.335  1.6962 -0.3445 -1.1069
  459MOL0     H63329   2.180   6.960   1.315  3.7517  1.9949 -0.3934
  459MOL0     H63330   1.975   6.812   1.367 -0.7653 -3.0455 -0.7614
  459MOL0     H63331   1.935   6.950   1.272  0.4091 -0.0008  3.0424
  459MOL0     H63332   1.753   6.790   1.152  0.0349  0.4466 -0.0573
  459MOL0     H63333   1.721   6.863   1.314  0.9052  2.4038 -0.6649
  459MOL0     H63334   1.835   6.592   1.241  0.4591  1.5527 -0.5314
  459MOL0     H63335   1.786   6.644   1.410 -0.9036 -0.4491  0.5699
  459MOL0     H63336   1.579   6.641   1.177  1.1576  4.7012  0.5067
  459MOL0     H63337   1.549   6.671   1.339  2.2968  1.9823  2.1290
  459MOL0     H63338   1.511   6.260   1.329 -0.5413 -0.0763 -1.5753
  459MOL0     H63339   2.163   6.645   1.014  1.0955  0.0817 -1.1942
  459MOL0     H63340   2.504   6.640   0.946  1.7123 -3.2487  0.6295
  459MOL0     H63341   2.484   6.512   1.056 -1.3026 -0.5910 -0.3099
  459MOL0     H63342   2.359   6.554   0.935  1.3167  1.7655 -2.0734
  460MOL0     O63343   4.257   9.313   7.435  0.2018  0.2219  0.3990
  460MOL0     C63344   4.215   9.222   7.504 -0.4405  0.5060 -1.3241
  460MOL0     O63345   4.302   9.135   7.567  0.3508 -0.0204  0.4349
  460MOL0     C63346   4.434   9.139   7.539 -0.1170  0.3397 -0.5418
  460MOL0     C63347   4.490   9.061   7.441 -0.3906  0.4909 -0.2484
  460MOL0     C63348   4.628   9.046   7.424 -0.7500  0.2951 -0.0855
  460MOL0     C63349   4.720   9.116   7.505 -0.1171 -0.3275  0.9369
  460MOL0     O63350   4.858   9.108   7.489 -0.0759  0.5366 -0.2524
  460MOL0     C63351   4.911   8.970   7.476 -0.1772  0.4531  0.9029
  460MOL0     C63352   5.066   8.961   7.504  0.1513  0.3587  0.3281
  460MOL0     C63353   5.134   9.090   7.543  0.8700 -0.5939 -0.0012
  460MOL0     C63354   5.291   9.085   7.566  0.3102  0.5181 -0.8728
  460MOL0     C63355   5.349   9.220   7.623 -0.1581  0.7573 -0.2317
  460MOL0     C63356   5.374   9.319   7.505  0.1175  0.2977 -0.1640
  460MOL0     C63357   5.475   9.435   7.543 -0.2494 -0.0573 -0.2358
  460MOL0     C63358   5.609   9.386   7.486 -0.1163 -0.2061  0.4771
  460MOL0     N63359   5.718   9.476   7.515 -1.3095 -0.0630 -0.6719
  460MOL0     C63360   5.755   9.593   7.444 -0.3983  0.7167  0.0755
  460MOL0     C63361   5.845   9.663   7.509  0.3688  0.7834 -0.9561
  460MOL0     C63362   5.901   9.798   7.483 -0.3102  0.3079  0.0085
  460MOL0     C63363   6.033   9.795   7.403 -0.5628 -0.0186  0.6922
  460MOL0     C63364   6.142   9.695   7.458  0.4072  0.6010 -0.9211
  460MOL0     C63365   6.258   9.695   7.360 -0.3407 -0.1861  0.9523
  460MOL0     O63366   6.363   9.605   7.403 -0.5442  1.0048  0.0578
  460MOL0     C63367   6.470   9.654   7.483  0.4331 -0.2481  0.1479
  460MOL0     C63368   6.563   9.565   7.535 -0.4374  0.4167  0.5272
  460MOL0     C63369   6.675   9.605   7.606 -0.0529 -0.0878 -0.3797
  460MOL0     C63370   6.754   9.492   7.664 -0.0952 -0.5126 -0.4621
  460MOL0     C63371   6.700   9.740   7.627  0.7905 -0.2317  0.4130
  460MOL0     C63372   6.819   9.799   7.703 -0.9660  0.2694  0.4060
  460MOL0     O63373   6.828   9.931   7.723 -0.5574  0.3809 -0.1805
  460MOL0     C63374   6.920   9.980   7.812  0.2112  0.1377  0.1733
  460MOL0     C63375   6.895   9.992   7.947  0.4612 -0.0773  0.0728
  460MOL0     C63376   6.987  10.036   8.036 -0.6630  0.4097 -0.0253
  460MOL0     C63377   7.124  10.059   7.989 -0.1907  1.0615  0.9957
  460MOL0     O63378   7.216  10.084   8.087  0.6874 -0.0635  0.9072
  460MOL0     C63379   7.344  10.132   8.042  0.4832 -0.0199  0.8365
  460MOL0     C63380   7.425  10.174   8.165 -0.5099 -0.6161 -0.2160
  460MOL0     C63381   7.551  10.236   8.125  1.0624  0.3841 -0.3966
  460MOL0     C63382   7.625  10.288   8.248  0.3179 -0.1531 -0.3113
  460MOL0     C63383   7.759  10.333   8.212 -0.6007 -0.1790 -0.6314
  460MOL0     C63384   7.849  10.328   8.338 -0.7186 -0.1373 -0.3294
  460MOL0     C63385   7.971  10.432   8.330 -0.2569 -0.9362 -0.7803
  460MOL0     C63386   8.077  10.406   8.442 -0.5555  0.3441  0.4634
  460MOL0    Cl63387   8.245  10.371   8.372 -0.3588  0.7837  0.0040
  460MOL0     C63388   7.151  10.048   7.844  1.5460 -0.0059 -0.1562
  460MOL0     C63389   7.048  10.003   7.761  0.2457  0.0091  0.2774
  460MOL0     O63390   6.899   9.714   7.747  0.3078 -0.2404 -1.1556
  460MOL0     C63391   6.609   9.835   7.571  0.0346  1.1110  0.6040
  460MOL0     C63392   6.489   9.791   7.508 -0.5893 -0.1638  0.4333
  460MOL0     N63393   5.865   9.591   7.629 -0.0051  0.0683 -0.1795
  460MOL0     N63394   5.798   9.482   7.621  0.9725  0.3957 -1.0023
  460MOL0     C63395   4.660   9.194   7.602 -0.2960 -0.3010 -0.8473
  460MOL0     C63396   4.525   9.202   7.628  1.2735  0.0366 -0.0117
  460MOL0     C63397   4.070   9.204   7.520 -0.0224 -0.6081 -0.0998
  460MOL0     C63398   3.990   9.312   7.479 -0.0880 -0.4861  0.3769
  460MOL0     C63399   3.850   9.321   7.510  0.5456 -0.2141  0.3292
  460MOL0     C63400   3.790   9.220   7.580  0.6257  0.0949  0.5226
  460MOL0     O63401   3.655   9.206   7.606  0.3664 -0.1233  0.8707
  460MOL0     C63402   3.569   9.322   7.605  0.1380 -0.4534 -1.0678
  460MOL0     C63403   3.431   9.271   7.620 -0.2904 -0.4009  0.9581
  460MOL0     C63404   3.323   9.372   7.681  0.2184 -0.3512  0.9127
  460MOL0     C63405   3.336   9.394   7.832 -0.2278  0.2784 -1.3443
  460MOL0     C63406   3.230   9.488   7.871  0.6397  0.3576 -0.1903
  460MOL0     C63407   3.129   9.559   7.885  0.1359  0.2501 -0.3600
  460MOL0     C63408   3.864   9.108   7.600 -0.9840  0.8898  0.0956
  460MOL0     C63409   4.006   9.099   7.583  0.6537  0.6899  0.2750
  460MOL0     C63410   4.057   8.968   7.620  0.6122  0.2960  0.0570
  460MOL0     H63411   4.428   9.006   7.371 -0.8845  0.9771 -0.2058
  460MOL0     H63412   4.659   8.988   7.337 -2.1622  0.1089 -0.5032
  460MOL0     H63413   4.889   8.934   7.375 -0.0612 -0.1482  1.0904
  460MOL0     H63414   4.860   8.893   7.535 -2.4055  0.0837 -1.3034
  460MOL0     H63415   5.083   8.885   7.581 -0.4469  1.9598  2.1039
  460MOL0     H63416   5.122   8.930   7.415 -0.2779  1.6221 -0.4081
  460MOL0     H63417   5.108   9.163   7.465 -0.6078 -1.7474 -0.6297
  460MOL0     H63418   5.087   9.131   7.633  0.1506 -1.1871 -0.0965
  460MOL0     H63419   5.314   9.004   7.636  0.6016  0.3016 -1.2165
  460MOL0     H63420   5.334   9.056   7.470 -2.2728  0.4223 -2.0984
  460MOL0     H63421   5.444   9.185   7.664 -2.1073 -4.6344  0.4455
  460MOL0     H63422   5.286   9.261   7.703 -0.7750 -0.6616  0.0222
  460MOL0     H63423   5.412   9.276   7.412  1.3616  2.7679 -0.8903
  460MOL0     H63424   5.277   9.364   7.483 -0.9399  0.6468  4.3501
  460MOL0     H63425   5.489   9.459   7.649 -2.3955  1.1397 -0.1601
  460MOL0     H63426   5.443   9.535   7.514 -1.4483  0.7965  3.5039
  460MOL0     H63427   5.626   9.293   7.540  0.9887  0.4652  1.3153
  460MOL0     H63428   5.601   9.378   7.377 -0.4927  1.1527  0.3841
  460MOL0     H63429   5.716   9.623   7.347 -0.9600  0.4607  0.2203
  460MOL0     H63430   5.926   9.851   7.575 -0.0156 -1.8771  1.2286
  460MOL0     H63431   5.830   9.857   7.423 -1.2938 -0.4753  0.3770
  460MOL0     H63432   6.008   9.771   7.299 -0.6498  1.5415  0.3416
  460MOL0     H63433   6.081   9.893   7.402  1.4969 -0.9509 -0.8105
  460MOL0     H63434   6.190   9.737   7.547  0.4372 -0.3540 -0.4693
  460MOL0     H63435   6.099   9.595   7.472 -1.5099  1.7317  2.3606
  460MOL0     H63436   6.214   9.649   7.271  2.5820  1.5601 -1.6046
  460MOL0     H63437   6.292   9.793   7.327 -0.7279 -1.0825 -2.5567
  460MOL0     H63438   6.542   9.460   7.518  0.7608 -0.3748  3.2878
  460MOL0     H63439   6.860   9.501   7.641 -0.2678 -1.8574 -1.9294
  460MOL0     H63440   6.714   9.400   7.622 -3.2121 -0.6059  2.2586
  460MOL0     H63441   6.748   9.475   7.772  4.2441 -0.1111  0.0193
  460MOL0     H63442   6.795   9.958   7.972 -0.2516 -0.1227 -2.5616
  460MOL0     H63443   6.968  10.048   8.142 -2.2141  1.4965 -0.3928
  460MOL0     H63444   7.393  10.054   7.982 -1.9092 -0.5172 -0.6200
  460MOL0     H63445   7.341  10.216   7.973  2.7561 -0.2278  0.4140
  460MOL0     H63446   7.368  10.238   8.233  0.0800  1.6641 -1.7401
  460MOL0     H63447   7.449  10.082   8.220  0.5031 -0.5778 -0.5741
  460MOL0     H63448   7.529  10.332   8.078  0.7940  1.4880  1.8237
  460MOL0     H63449   7.616  10.178   8.059  3.7152  2.1849  0.4467
  460MOL0     H63450   7.629  10.209   8.323 -1.7449  0.4466  0.5184
  460MOL0     H63451   7.575  10.371   8.300  1.7825 -0.7178  2.1702
  460MOL0     H63452   7.814  10.271   8.140  1.1242  1.5399 -0.8601
  460MOL0     H63453   7.764  10.433   8.168 -0.1229 -0.5471 -1.4387
  460MOL0     H63454   7.887  10.226   8.339  0.3488  0.2035 -2.1157
  460MOL0     H63455   7.788  10.337   8.428 -0.9754 -4.6504  0.1576
  460MOL0     H63456   7.930  10.533   8.338 -0.7999 -1.2613  1.3241
  460MOL0     H63457   8.034  10.420   8.242 -1.6761 -1.2514 -1.7767
  460MOL0     H63458   8.039  10.322   8.501 -1.4405 -0.4099 -1.1363
  460MOL0     H63459   8.087  10.494   8.507 -0.5305  0.7266 -0.0524
  460MOL0     H63460   7.255  10.061   7.814  1.7886 -0.1238  0.6039
  460MOL0     H63461   7.074   9.986   7.656  0.0018 -2.8461  0.5893
  460MOL0     H63462   6.630   9.940   7.588  1.4448  1.3382 -2.0389
  460MOL0     H63463   6.414   9.864   7.478 -0.8107 -0.2902  0.6756
  460MOL0     H63464   4.726   9.254   7.665 -0.7591  1.2622 -1.8094
  460MOL0     H63465   4.483   9.272   7.700 -0.9094 -0.0881 -1.0726
  460MOL0     H63466   4.045   9.392   7.431 -0.0359 -0.1718  0.9492
  460MOL0     H63467   3.783   9.397   7.471  0.3122 -1.2457 -1.3471
  460MOL0     H63468   3.592   9.384   7.692 -1.1699  0.6722 -1.4872
  460MOL0     H63469   3.582   9.388   7.518  0.1290  1.5404  0.3705
  460MOL0     H63470   3.424   9.181   7.683 -1.4021 -1.0802 -0.0738
  460MOL0     H63471   3.404   9.228   7.523  1.2388 -3.3761  1.7205
  460MOL0     H63472   3.323   9.469   7.631 -2.7455 -2.0316 -2.9289
  460MOL0     H63473   3.225   9.329   7.659 -0.2028  1.5059 -1.1659
  460MOL0     H63474   3.430   9.447   7.852 -0.9813  0.4583  2.6186
  460MOL0     H63475   3.331   9.301   7.890 -0.1549  0.7845 -0.5169
  460MOL0     H63476   3.032   9.605   7.893  0.0646  0.2804 -1.3770
  460MOL0     H63477   3.801   9.023   7.625 -0.5306  0.6279  0.3635
  460MOL0     H63478   4.132   8.980   7.699  0.2400  3.6794  0.0399
  460MOL0     H63479   3.976   8.903   7.654  2.1842 -3.2478 -2.2898
  460MOL0     H63480   4.105   8.923   7.532  0.3284  0.3992 -0.1491
  461MOL0     O63481   2.322   1.734   4.797  0.0276  0.6500  0.0534
  461MOL0     C63482   2.270   1.840   4.817 -0.1675 -0.1367 -0.4124
  461MOL0     O63483   2.331   1.954   4.867 -0.0111 -0.0091 -0.2291
  461MOL0     C63484   2.463   1.944   4.896 -0.1109  0.9288  0.3051
  461MOL0     C63485   2.558   1.899   4.808 -0.4806 -0.5238 -0.7993
  461MOL0     C63486   2.698   1.903   4.847  0.2971  0.1394  0.5122
  461MOL0     C63487   2.732   1.931   4.979 -0.3069  0.3062  0.1508
  461MOL0     O63488   2.853   1.943   5.027  0.2403 -0.3860  0.4582
  461MOL0     C63489   2.969   1.938   4.934  0.2360  0.6913  0.3219
  461MOL0     C63490   3.088   1.961   5.020  0.2536 -0.5504  0.0293
  461MOL0     C63491   3.203   2.041   4.963 -0.2281 -0.0881 -0.1733
  461MOL0     C63492   3.299   2.095   5.062  0.3040  0.3096 -0.3814
  461MOL0     C63493   3.424   2.152   5.001  0.1035  0.3694  0.4948
  461MOL0     C63494   3.418   2.296   4.962 -0.4684  0.5794 -0.4763
  461MOL0     C63495   3.538   2.341   4.887  0.1971  0.3199  0.6206
  461MOL0     C63496   3.674   2.306   4.944  0.5103  0.6726  0.5311
  461MOL0     N63497   3.776   2.390   4.891 -0.5955  0.1127 -0.1076
  461MOL0     C63498   3.814   2.424   4.762 -0.4123 -0.0316  0.1424
  461MOL0     C63499   3.929   2.499   4.772  0.2747  0.8201  0.6994
  461MOL0     C63500   4.007   2.556   4.660 -0.2697 -0.2894  1.0900
  461MOL0     C63501   4.091   2.681   4.721 -0.3057 -0.1446  0.1134
  461MOL0     C63502   4.139   2.757   4.598  0.1557 -0.1262 -0.2064
  461MOL0     C63503   4.212   2.896   4.623  0.9809 -0.0583  0.0389
  461MOL0     O63504   4.339   2.899   4.697  0.2114 -0.1493 -0.1155
  461MOL0     C63505   4.443   2.968   4.636 -1.2031  0.9313 -0.2136
  461MOL0     C63506   4.432   3.075   4.552  0.5944  0.6041 -0.3004
  461MOL0     C63507   4.539   3.123   4.484  0.0844 -0.7493  0.9435
  461MOL0     C63508   4.528   3.213   4.362  0.8062 -0.3002  0.2877
  461MOL0     C63509   4.666   3.085   4.520  0.6450  0.4466 -0.7919
  461MOL0     C63510   4.791   3.152   4.474 -0.0668  0.5938  0.5270
  461MOL0     O63511   4.793   3.286   4.477 -0.4692 -0.4995 -0.8843
  461MOL0     C63512   4.918   3.338   4.465 -0.0837 -0.1907 -0.1976
  461MOL0     C63513   5.024   3.294   4.548  0.8044  1.4755 -0.2895
  461MOL0     C63514   5.152   3.338   4.536 -0.1204  0.1492  0.2228
  461MOL0     C63515   5.181   3.426   4.428 -0.1686  0.1584  0.5544
  461MOL0     O63516   5.316   3.465   4.413  0.5160  0.5607  0.2929
  461MOL0     C63517   5.357   3.499   4.284  0.2724  0.2057 -0.6681
  461MOL0     C63518   5.513   3.482   4.267 -0.4711  0.1372 -0.1892
  461MOL0     C63519   5.598   3.591   4.337  0.2757 -0.1097  0.2242
  461MOL0     C63520   5.618   3.717   4.248 -1.0775 -0.2259 -0.2668
  461MOL0     C63521   5.738   3.796   4.296 -0.1175 -0.7568 -0.4025
  461MOL0     C63522   5.739   3.943   4.254  0.2663  0.1479  0.2648
  461MOL0     C63523   5.747   3.970   4.110  0.3627 -0.1222 -0.5977
  461MOL0     C63524   5.734   4.121   4.071 -0.3652  0.6441 -0.7455
  461MOL0    Cl63525   5.900   4.187   4.099 -0.0763 -0.1690  0.4517
  461MOL0     C63526   5.074   3.475   4.350 -0.9590  0.1258 -0.2444
  461MOL0     C63527   4.946   3.434   4.367 -0.9234 -0.9619 -0.0279
  461MOL0     O63528   4.872   3.082   4.422 -1.0939 -0.1682  0.4794
  461MOL0     C63529   4.683   2.984   4.623  0.6513  0.7736 -1.0830
  461MOL0     C63530   4.573   2.925   4.677  0.3085  0.0976  0.0436
  461MOL0     N63531   3.966   2.505   4.904 -0.4643  0.2844 -0.0793
  461MOL0     N63532   3.870   2.449   4.969 -0.5692 -0.1546  0.5397
  461MOL0     C63533   2.635   1.979   5.060  1.0405 -0.0479 -0.9780
  461MOL0     C63534   2.504   1.990   5.018  0.8252 -0.2264 -0.2542
  461MOL0     C63535   2.126   1.839   4.793 -0.7829 -0.5578 -0.3846
  461MOL0     C63536   2.053   1.905   4.893 -0.2050  0.1161 -0.4861
  461MOL0     C63537   1.913   1.907   4.905 -0.3115 -0.5018  0.0655
  461MOL0     C63538   1.837   1.839   4.803 -0.0509  0.6330 -0.0780
  461MOL0     O63539   1.702   1.830   4.806 -0.4560 -0.4636  0.2591
  461MOL0     C63540   1.607   1.883   4.909 -0.8031  0.0188  0.4165
  461MOL0     C63541   1.582   1.779   5.015  0.0852 -0.8275  0.3262
  461MOL0     C63542   1.692   1.751   5.116 -0.1958  0.7503 -0.1640
  461MOL0     C63543   1.624   1.638   5.198  0.0651  0.1959 -0.4982
  461MOL0     C63544   1.703   1.609   5.322  0.3472 -0.4710  0.2277
  461MOL0     C63545   1.763   1.603   5.422 -0.5560  0.0382 -0.1548
  461MOL0     C63546   1.911   1.776   4.694 -0.2480 -0.3807 -0.6654
  461MOL0     C63547   2.051   1.793   4.682 -0.0991 -0.4503 -0.3643
  461MOL0     C63548   2.133   1.723   4.567 -0.0660  0.3572 -0.0459
  461MOL0     H63549   2.530   1.874   4.706  1.4651  1.2300 -1.8265
  461MOL0     H63550   2.775   1.866   4.779  0.5433  0.6786  0.4925
  461MOL0     H63551   2.958   1.999   4.844 -0.3138  0.4623  0.2260
  461MOL0     H63552   2.976   1.836   4.897  0.5700  0.7863  0.1298
  461MOL0     H63553   3.056   2.012   5.111  1.5672  0.7922 -0.2138
  461MOL0     H63554   3.136   1.864   5.037  0.6822 -0.3037  0.2413
  461MOL0     H63555   3.263   1.976   4.899  1.0101 -0.6041  1.4552
  461MOL0     H63556   3.171   2.131   4.909  1.1593  0.3142 -0.3613
  461MOL0     H63557   3.261   2.169   5.133 -1.3978 -1.2388  0.4149
  461MOL0     H63558   3.319   2.012   5.131 -0.0139  0.5062 -0.0521
  461MOL0     H63559   3.455   2.089   4.918  0.1201  2.5244 -1.2086
  461MOL0     H63560   3.499   2.138   5.079  0.9306 -0.5688 -0.4557
  461MOL0     H63561   3.335   2.334   4.902 -1.6271 -1.7309 -0.4632
  461MOL0     H63562   3.405   2.350   5.057  1.3444  2.6437 -1.3126
  461MOL0     H63563   3.514   2.447   4.879 -1.1897  0.0027  0.2652
  461MOL0     H63564   3.531   2.297   4.787 -0.9090 -1.5537  1.4622
  461MOL0     H63565   3.679   2.307   5.053  0.8711 -3.2481  0.7059
  461MOL0     H63566   3.702   2.203   4.920  0.5701  0.3032  2.1156
  461MOL0     H63567   3.760   2.399   4.672 -1.3463  1.1993  0.3316
  461MOL0     H63568   3.942   2.585   4.577  0.3128  2.4829  1.5031
  461MOL0     H63569   4.073   2.476   4.626 -0.2310  0.6791 -1.2774
  461MOL0     H63570   4.029   2.750   4.779 -0.7094  1.1198 -1.7371
  461MOL0     H63571   4.178   2.654   4.781 -0.6621 -0.7931  0.3463
  461MOL0     H63572   4.216   2.688   4.560 -0.6659 -2.1259  1.5783
  461MOL0     H63573   4.062   2.769   4.521  1.5430  2.0205 -1.3536
  461MOL0     H63574   4.220   2.937   4.522  1.4322 -0.4344 -0.0793
  461MOL0     H63575   4.139   2.966   4.667  0.5743 -0.6107  0.2521
  461MOL0     H63576   4.339   3.125   4.526  0.8999  0.9969 -0.6542
  461MOL0     H63577   4.528   3.320   4.386  0.6869 -0.0250 -0.8645
  461MOL0     H63578   4.441   3.185   4.302 -0.8450  2.4586  1.2175
  461MOL0     H63579   4.609   3.196   4.291 -1.6864 -0.8150 -2.6550
  461MOL0     H63580   5.005   3.218   4.622 -2.2005 -0.1873 -2.5481
  461MOL0     H63581   5.239   3.314   4.596 -0.3947 -0.0192  0.5574
  461MOL0     H63582   5.318   3.432   4.207 -1.0223 -1.5380  1.3789
  461MOL0     H63583   5.326   3.602   4.266 -2.6821 -0.0460  2.0416
  461MOL0     H63584   5.544   3.383   4.304 -1.0760 -0.1440 -0.4160
  461MOL0     H63585   5.526   3.476   4.159  0.2634  1.0630 -0.1627
  461MOL0     H63586   5.691   3.542   4.368  0.5054 -3.2287 -4.4136
  461MOL0     H63587   5.547   3.622   4.428  0.8914 -0.7964  0.8215
  461MOL0     H63588   5.532   3.784   4.250 -0.9553 -0.0775  0.1278
  461MOL0     H63589   5.642   3.677   4.149 -2.3178 -3.0224  0.4645
  461MOL0     H63590   5.751   3.799   4.404  2.8892 -0.7625 -0.6756
  461MOL0     H63591   5.824   3.734   4.271 -1.0343 -3.1722  1.9475
  461MOL0     H63592   5.814   4.001   4.308 -0.1869 -0.2986  1.4218
  461MOL0     H63593   5.645   3.987   4.290  0.4020  0.1827  0.5825
  461MOL0     H63594   5.668   3.912   4.060 -0.7378  1.9993 -1.4612
  461MOL0     H63595   5.843   3.933   4.073 -0.7075 -3.4893 -0.3020
  461MOL0     H63596   5.652   4.168   4.126  0.4748  2.6949 -1.1564
  461MOL0     H63597   5.710   4.121   3.964  1.1256 -0.4279 -1.1150
  461MOL0     H63598   5.108   3.550   4.279  0.7012 -1.9441 -1.7960
  461MOL0     H63599   4.871   3.485   4.309  1.1971  0.2360 -1.8978
  461MOL0     H63600   4.782   2.945   4.644  1.0909  1.0303 -2.5677
  461MOL0     H63601   4.580   2.841   4.746 -1.6239 -1.1009 -1.1150
  461MOL0     H63602   2.662   2.021   5.156  0.8826 -0.9429 -0.5248
  461MOL0     H63603   2.430   2.031   5.085  0.5196  3.5380 -2.6136
  461MOL0     H63604   2.098   1.963   4.972  1.3849 -3.3532  1.3486
  461MOL0     H63605   1.879   1.972   4.985  3.6595  2.6484 -0.4836
  461MOL0     H63606   1.642   1.976   4.956 -2.0778  0.4343  0.5817
  461MOL0     H63607   1.513   1.910   4.860  1.0396  3.5834 -1.5848
  461MOL0     H63608   1.553   1.692   4.956  2.0594  0.0450 -2.0886
  461MOL0     H63609   1.491   1.813   5.065  1.1751  0.4222  1.5474
  461MOL0     H63610   1.780   1.718   5.060  1.0533  2.4462  0.7013
  461MOL0     H63611   1.714   1.840   5.176  0.0393 -0.2948  1.3493
  461MOL0     H63612   1.622   1.544   5.141  1.2421  0.5094 -1.0742
  461MOL0     H63613   1.523   1.667   5.228  0.7201  0.4639  1.6592
  461MOL0     H63614   1.815   1.608   5.515  0.6087  4.0124 -0.8348
  461MOL0     H63615   1.857   1.727   4.613 -1.1160  0.2471 -0.4882
  461MOL0     H63616   2.240   1.746   4.574 -0.1835  0.4856  1.9803
  461MOL0     H63617   2.131   1.614   4.573  0.1657  0.3837  5.4108
  461MOL0     H63618   2.097   1.760   4.471  1.9745 -2.5220 -2.1070
  462MOL0     O63619   3.490   4.629   5.612 -0.1342 -0.1546 -0.1188
  462MOL0     C63620   3.415   4.579   5.695  0.7112 -0.3972  0.0405
  462MOL0     O63621   3.452   4.538   5.815 -0.2256  0.2172  0.2230
  462MOL0     C63622   3.586   4.522   5.835 -0.2036 -1.0332  0.5146
  462MOL0     C63623   3.681   4.626   5.826  0.3123 -0.3189 -0.9265
  462MOL0     C63624   3.813   4.592   5.845 -0.1297 -0.1595  0.7988
  462MOL0     C63625   3.845   4.460   5.881 -1.0058 -1.2451 -1.0278
  462MOL0     O63626   3.980   4.447   5.903  0.4061  0.4016 -0.5912
  462MOL0     C63627   4.037   4.307   5.927  1.3786 -0.5970  0.0402
  462MOL0     C63628   4.184   4.292   5.880 -0.0975  0.0146 -0.1726
  462MOL0     C63629   4.282   4.385   5.954 -0.4916  0.3785  1.0776
  462MOL0     C63630   4.417   4.388   5.896 -0.5842 -0.2836 -0.3542
  462MOL0     C63631   4.513   4.415   6.010 -0.3606 -0.6571 -0.2155
  462MOL0     C63632   4.535   4.562   6.013  0.2229 -0.0857 -0.1222
  462MOL0     C63633   4.655   4.587   6.109 -0.4550 -0.3972 -0.8787
  462MOL0     C63634   4.617   4.660   6.236 -0.2073  0.4248 -0.6471
  462MOL0     N63635   4.733   4.695   6.316  0.1547  0.6787 -0.3455
  462MOL0     C63636   4.805   4.809   6.304 -0.5654  0.4524  0.2826
  462MOL0     C63637   4.915   4.792   6.394 -0.0733 -0.7145 -0.1671
  462MOL0     C63638   5.030   4.889   6.413  0.1254  0.3480  0.2497
  462MOL0     C63639   5.135   4.879   6.300 -0.2512  1.1014  0.0691
  462MOL0     C63640   5.221   4.998   6.329 -0.0354 -0.0845 -0.2619
  462MOL0     C63641   5.338   5.001   6.230 -0.6489 -0.2642  0.7509
  462MOL0     O63642   5.298   4.997   6.095 -0.0694 -0.1410 -0.3256
  462MOL0     C63643   5.392   5.019   5.998  0.1679 -0.2194 -0.0066
  462MOL0     C63644   5.364   4.973   5.866 -0.1160 -0.0225  0.8148
  462MOL0     C63645   5.452   4.974   5.758  0.8310  0.1790  0.0955
  462MOL0     C63646   5.406   4.918   5.621  0.3133 -1.2843 -0.5787
  462MOL0     C63647   5.584   5.021   5.782  0.3637  0.3503  0.3995
  462MOL0     C63648   5.688   5.033   5.675  1.7115  0.2917  0.0368
  462MOL0     O63649   5.804   4.974   5.711 -0.2862 -0.6548 -0.2669
  462MOL0     C63650   5.913   4.977   5.635 -0.4196 -0.3531  0.4961
  462MOL0     C63651   6.044   5.008   5.681 -0.0095  0.5356 -0.6544
  462MOL0     C63652   6.153   4.995   5.595 -0.4274  0.3943  0.3527
  462MOL0     C63653   6.141   4.970   5.458  0.6515  0.5861 -0.4652
  462MOL0     O63654   6.250   4.958   5.373  0.1443 -0.5557  0.0283
  462MOL0     C63655   6.302   4.829   5.386  0.0547 -1.1886  0.3810
  462MOL0     C63656   6.381   4.789   5.260 -0.6668  0.0132 -0.6336
  462MOL0     C63657   6.492   4.884   5.211 -0.0917  0.2064 -0.5857
  462MOL0     C63658   6.605   4.807   5.160 -0.5652 -0.6236  0.3883
  462MOL0     C63659   6.711   4.775   5.267 -0.2266 -0.5065 -0.4194
  462MOL0     C63660   6.829   4.879   5.267  0.2229 -0.3916  0.2091
  462MOL0     C63661   6.941   4.834   5.366  0.4596 -0.3724  0.5813
  462MOL0     C63662   7.084   4.895   5.333  0.3439  0.2065  0.6369
  462MOL0    Cl63663   7.064   5.061   5.293 -0.2649 -0.0250  0.2224
  462MOL0     C63664   6.016   4.934   5.412  0.4745  0.1802 -0.0059
  462MOL0     C63665   5.906   4.939   5.497 -0.1364 -0.0772 -0.4256
  462MOL0     O63666   5.649   5.065   5.567  0.1328 -0.4858 -0.0117
  462MOL0     C63667   5.617   5.061   5.907 -0.4123  0.1188  0.3832
  462MOL0     C63668   5.526   5.065   6.013  1.0909  0.4461 -0.6946
  462MOL0     N63669   4.898   4.662   6.451  0.0697 -0.0668 -0.0514
  462MOL0     N63670   4.799   4.607   6.392  0.2283 -0.4504  0.3639
  462MOL0     C63671   3.753   4.364   5.895  0.3603  0.3441 -0.2303
  462MOL0     C63672   3.621   4.394   5.868 -0.2173 -0.1787  0.5593
  462MOL0     C63673   3.268   4.568   5.660  0.2317  0.3002 -0.5765
  462MOL0     C63674   3.245   4.504   5.539  0.0812  0.1135 -0.2413
  462MOL0     C63675   3.119   4.512   5.485  0.4232  0.0879 -0.6024
  462MOL0     C63676   3.005   4.564   5.556 -0.5272 -0.3307 -0.0150
  462MOL0     O63677   2.884   4.567   5.487 -0.0598  0.4569 -0.6985
  462MOL0     C63678   2.774   4.641   5.551 -0.5308 -0.2438 -0.3403
  462MOL0     C63679   2.645   4.599   5.484  0.0185 -0.0213 -0.3615
  462MOL0     C63680   2.530   4.660   5.556  0.0893 -0.4792  0.3139
  462MOL0     C63681   2.424   4.561   5.573 -0.3286  0.9601 -0.2469
  462MOL0     C63682   2.449   4.470   5.690 -0.8988  0.5601  0.1637
  462MOL0     C63683   2.477   4.381   5.774 -0.6635 -0.8067  0.0523
  462MOL0     C63684   3.030   4.609   5.688  0.9136 -0.5108 -0.2738
  462MOL0     C63685   3.158   4.612   5.740 -0.8492 -0.1768  0.6603
  462MOL0     C63686   3.167   4.680   5.872  0.3264 -0.6696 -0.2849
  462MOL0     H63687   3.678   4.731   5.798  1.4773  0.6652  2.2491
  462MOL0     H63688   3.882   4.673   5.823 -2.4562  1.6474 -0.2773
  462MOL0     H63689   3.981   4.240   5.860  0.7487  1.1696 -1.2871
  462MOL0     H63690   4.038   4.270   6.030 -1.0856 -4.8658 -1.2167
  462MOL0     H63691   4.205   4.186   5.900 -3.0382 -0.5888  0.1488
  462MOL0     H63692   4.202   4.317   5.775 -0.3906  0.1651 -0.1881
  462MOL0     H63693   4.248   4.487   5.935 -0.7000  0.8559  3.6818
  462MOL0     H63694   4.282   4.367   6.062  2.8044  3.9307  1.8667
  462MOL0     H63695   4.441   4.285   5.867 -0.5917 -2.5586  6.1859
  462MOL0     H63696   4.419   4.453   5.808  0.7114  0.2861  0.0717
  462MOL0     H63697   4.610   4.365   5.994  0.5942  0.4930  1.6069
  462MOL0     H63698   4.484   4.387   6.111 -0.7735  1.9936  0.4816
  462MOL0     H63699   4.549   4.612   5.917 -0.9130 -0.6534 -0.6067
  462MOL0     H63700   4.438   4.598   6.049 -0.9630 -3.3437  0.3456
  462MOL0     H63701   4.708   4.659   6.046 -4.4946  1.6959 -2.2508
  462MOL0     H63702   4.723   4.503   6.125  3.2711  2.7513  1.9545
  462MOL0     H63703   4.557   4.752   6.225  1.8840  1.9466  0.0833
  462MOL0     H63704   4.555   4.593   6.297 -1.4025  3.3953  1.6624
  462MOL0     H63705   4.777   4.883   6.230  1.7493 -0.5601 -1.7500
  462MOL0     H63706   5.075   4.864   6.509  2.8630  0.7419 -0.8431
  462MOL0     H63707   4.984   4.987   6.395  2.6249  1.2666 -1.8870
  462MOL0     H63708   5.198   4.789   6.300 -1.6043  0.0280 -2.8455
  462MOL0     H63709   5.100   4.886   6.196  0.6422 -1.0747 -0.4381
  462MOL0     H63710   5.159   5.088   6.319 -4.5219 -2.8513 -0.4308
  462MOL0     H63711   5.266   4.980   6.427 -0.3033  0.3620 -0.0577
  462MOL0     H63712   5.388   5.095   6.253  0.2173  0.1414 -2.3337
  462MOL0     H63713   5.407   4.917   6.242 -1.4128 -0.9379  0.5470
  462MOL0     H63714   5.268   4.927   5.848 -0.0253 -1.8874  4.3229
  462MOL0     H63715   5.325   4.846   5.633 -1.0102 -0.0370 -1.6078
  462MOL0     H63716   5.498   4.882   5.574  1.4409  0.3144  0.3245
  462MOL0     H63717   5.365   5.002   5.564 -2.1548 -2.1275 -0.1675
  462MOL0     H63718   6.052   5.020   5.789 -2.2701  0.4842 -0.4239
  462MOL0     H63719   6.246   5.016   5.648  0.7444  0.8246 -1.7691
  462MOL0     H63720   6.371   4.820   5.471 -0.1922  1.2806  0.9289
  462MOL0     H63721   6.221   4.756   5.398 -0.9045  0.0981  2.3348
  462MOL0     H63722   6.426   4.691   5.277 -0.7767  0.0419 -0.1612
  462MOL0     H63723   6.311   4.766   5.179 -0.7735  1.7732 -1.0834
  462MOL0     H63724   6.518   4.944   5.299 -0.1350 -1.4675  0.6210
  462MOL0     H63725   6.448   4.950   5.135 -1.5454 -1.6291 -1.4044
  462MOL0     H63726   6.644   4.861   5.073 -1.0557  0.7402  0.9898
  462MOL0     H63727   6.582   4.703   5.133 -0.1782 -0.1954 -1.7387
  462MOL0     H63728   6.666   4.778   5.367 -0.2534 -0.9037 -0.4189
  462MOL0     H63729   6.760   4.677   5.264  4.3690  1.5166 -0.3936
  462MOL0     H63730   6.799   4.979   5.302  1.2016 -0.5811  1.6961
  462MOL0     H63731   6.863   4.879   5.164 -1.1781 -0.4480 -0.2765
  462MOL0     H63732   6.940   4.725   5.368  0.2868 -0.3744  0.3407
  462MOL0     H63733   6.921   4.869   5.468 -2.1601  1.3967 -0.4647
  462MOL0     H63734   7.144   4.841   5.258  3.1114 -0.6478  3.2677
  462MOL0     H63735   7.151   4.885   5.419 -0.0283  3.0667  1.3763
  462MOL0     H63736   5.998   4.913   5.307  2.9481 -0.8255 -0.2832
  462MOL0     H63737   5.814   4.903   5.451 -0.3888 -1.6444  1.1771
  462MOL0     H63738   5.721   5.086   5.919  0.0448 -0.6232 -1.6141
  462MOL0     H63739   5.560   5.107   6.107 -0.2775 -1.2017  0.6157
  462MOL0     H63740   3.769   4.258   5.913 -1.5396  0.1905  0.8229
  462MOL0     H63741   3.543   4.318   5.862  1.0932 -1.6798  1.7019
  462MOL0     H63742   3.332   4.458   5.492  1.8789  3.1372 -0.1065
  462MOL0     H63743   3.102   4.475   5.385 -2.0688 -4.8118  1.2614
  462MOL0     H63744   2.769   4.613   5.656 -1.6910 -2.5861 -0.9414
  462MOL0     H63745   2.794   4.748   5.547 -0.1847 -0.0107  3.7429
  462MOL0     H63746   2.639   4.490   5.485  1.0718 -0.2425  4.1003
  462MOL0     H63747   2.653   4.628   5.379 -0.0456  2.9101  0.3397
  462MOL0     H63748   2.549   4.715   5.648 -0.3598  1.7982 -0.8569
  462MOL0     H63749   2.496   4.737   5.485  0.0870 -0.8577 -0.0994
  462MOL0     H63750   2.416   4.498   5.485 -1.1758 -1.0504  1.2025
  462MOL0     H63751   2.329   4.609   5.597 -0.6903  0.2915 -0.3341
  462MOL0     H63752   2.504   4.318   5.857 -0.3848 -1.1729 -0.3099
  462MOL0     H63753   2.954   4.665   5.742  0.7269 -0.1478 -0.8931
  462MOL0     H63754   3.265   4.675   5.921  1.5977  2.0356 -2.2902
  462MOL0     H63755   3.154   4.786   5.850  0.2663 -0.7942 -0.8470
  462MOL0     H63756   3.082   4.652   5.936 -0.2654 -0.7404 -1.0972
  463MOL0     O63757  11.186   5.770   9.878  0.3955 -0.1581 -0.0094
  463MOL0     C63758  11.130   5.662   9.892  0.6508  0.2744  0.8006
  463MOL0     O63759  11.121   5.598  10.015  0.8886  0.6440  0.0750
  463MOL0     C63760  11.191   5.655  10.114  0.6875  0.1981 -0.4875
  463MOL0     C63761  11.324   5.614  10.149  0.0401 -0.5550  0.1131
  463MOL0     C63762  11.393   5.677  10.255  0.1882 -0.4530  0.7467
  463MOL0     C63763  11.340   5.787  10.318 -0.4178  0.5534  1.2959
  463MOL0     O63764  11.420   5.839  10.412  0.5428 -0.2351 -0.0148
  463MOL0     C63765  11.374   5.954  10.480 -0.0298 -1.1076  0.2330
  463MOL0     C63766  11.477   6.003  10.586 -0.1412 -0.2535  0.2579
  463MOL0     C63767  11.472   5.908  10.701 -0.6120 -0.1778 -0.0471
  463MOL0     C63768  11.604   5.913  10.787 -0.4605  0.1006 -0.1211
  463MOL0     C63769  11.621   5.796  10.891  0.5217  0.5405 -0.6793
  463MOL0     C63770  11.768   5.766  10.922 -1.1038  0.3560 -0.2435
  463MOL0     C63771  11.783   5.685  11.050  0.0756  0.1033  0.3902
  463MOL0     C63772  11.911   5.598  11.041 -0.3210  0.1660 -0.1610
  463MOL0     N63773  12.040   5.675  11.033 -0.2570 -0.3841  0.0463
  463MOL0     C63774  12.162   5.627  10.992  1.0600  0.2666 -0.4142
  463MOL0     C63775  12.246   5.737  11.016 -0.2170 -0.7416 -0.5308
  463MOL0     C63776  12.403   5.738  10.995 -0.4158  0.8845 -0.0967
  463MOL0     C63777  12.442   5.667  10.873  0.4193 -0.2787  0.3310
  463MOL0     C63778  12.584   5.628  10.851 -1.1567  0.5316 -0.7323
  463MOL0     C63779  12.665   5.756  10.839  1.0226  0.0874  0.3530
  463MOL0     O63780  12.785   5.716  10.767  0.0074  0.4915  0.3815
  463MOL0     C63781  12.901   5.774  10.799 -1.7065  0.0858  0.1848
  463MOL0     C63782  13.011   5.721  10.734  0.2341  0.2472 -0.5673
  463MOL0     C63783  13.140   5.776  10.744 -1.2700  0.8550 -0.6373
  463MOL0     C63784  13.247   5.712  10.659  0.2785 -0.2123  0.3583
  463MOL0     C63785  13.160   5.895  10.824 -0.5795  0.0847 -0.8104
  463MOL0     C63786  13.282   5.974  10.841 -0.4367  0.8749 -0.2715
  463MOL0     O63787  13.292   6.055  10.951  0.4699 -0.7210 -0.0664
  463MOL0     C63788  13.416   6.085  10.994  0.2867  1.2552  0.3534
  463MOL0     C63789  13.459   6.034  11.112 -0.0372 -0.1041 -0.1531
  463MOL0     C63790  13.577   6.086  11.169  0.2265  1.0585 -0.2919
  463MOL0     C63791  13.660   6.183  11.106 -0.2580  0.3301 -0.2451
  463MOL0     O63792  13.760   6.240  11.184 -0.0936 -0.0836  0.0830
  463MOL0     C63793  13.847   6.339  11.124 -0.6534 -0.0608 -0.3593
  463MOL0     C63794  13.937   6.386  11.227 -0.5123 -0.0480  0.2443
  463MOL0     C63795  14.043   6.490  11.195 -0.0647  0.1466  0.8928
  463MOL0     C63796  13.979   6.622  11.152  0.4284  0.4490  0.3573
  463MOL0     C63797  14.081   6.735  11.153  0.2064 -0.3649  0.0612
  463MOL0     C63798  14.011   6.859  11.123 -0.6084 -0.0874  0.3117
  463MOL0     C63799  14.112   6.967  11.106  0.1903  0.0962 -0.8376
  463MOL0     C63800  14.058   7.103  11.095  0.4898  0.1438 -0.9010
  463MOL0    Cl63801  13.942   7.119  10.968 -0.8177  0.2111  0.3963
  463MOL0     C63802  13.626   6.212  10.971 -0.1557  0.4650 -0.1416
  463MOL0     C63803  13.501   6.169  10.928 -0.0644  0.7595  0.7134
  463MOL0     O63804  13.368   5.967  10.757  0.1267 -0.0268  0.8028
  463MOL0     C63805  13.046   5.949  10.892 -0.1342  0.0452  0.4573
  463MOL0     C63806  12.918   5.889  10.882  0.4024  0.4191  0.0329
  463MOL0     N63807  12.175   5.845  11.074  0.0005 -0.1202 -0.0390
  463MOL0     N63808  12.051   5.809  11.075  0.9304 -0.1876  0.6101
  463MOL0     C63809  11.214   5.828  10.279  0.1921 -0.6392  0.5994
  463MOL0     C63810  11.134   5.759  10.189 -0.0831 -0.4724 -0.4645
  463MOL0     C63811  11.050   5.614   9.781 -0.8851  0.2621  0.4822
  463MOL0     C63812  11.092   5.647   9.652 -0.4805 -0.4035  0.6455
  463MOL0     C63813  11.014   5.622   9.538 -0.0393 -0.3379  0.6439
  463MOL0     C63814  10.889   5.559   9.548 -0.7854 -0.3837  0.6942
  463MOL0     O63815  10.814   5.538   9.431  0.3170  1.3305  0.2405
  463MOL0     C63816  10.681   5.479   9.453 -1.4606  0.2977  0.4343
  463MOL0     C63817  10.623   5.425   9.330  1.0095  0.6757  0.6421
  463MOL0     C63818  10.677   5.291   9.270 -0.1617 -0.3395  0.1779
  463MOL0     C63819  10.580   5.212   9.173 -0.4077 -0.4446  0.3238
  463MOL0     C63820  10.542   5.291   9.056  0.0271 -0.4503  0.3592
  463MOL0     C63821  10.502   5.367   8.970  0.3035  0.5518 -0.0181
  463MOL0     C63822  10.847   5.517   9.678 -0.1473 -0.4396 -0.1194
  463MOL0     C63823  10.932   5.539   9.789  0.5844 -0.1496 -0.3933
  463MOL0     C63824  10.877   5.493   9.916 -0.8813  0.1108 -0.4526
  463MOL0     H63825  11.366   5.530  10.094  1.6468 -1.9206  3.1745
  463MOL0     H63826  11.495   5.649  10.278  0.6054  0.9417  0.6897
  463MOL0     H63827  11.276   5.943  10.525 -0.5116  2.5768  0.4181
  463MOL0     H63828  11.368   6.037  10.408 -0.5921 -1.0002  0.4038
  463MOL0     H63829  11.577   6.018  10.546 -0.6737  2.8566 -0.1797
  463MOL0     H63830  11.447   6.102  10.623 -0.4296 -0.7829  1.4955
  463MOL0     H63831  11.384   5.919  10.764  1.0136 -0.7224  2.4262
  463MOL0     H63832  11.472   5.812  10.648  1.4385 -0.0267 -0.4070
  463MOL0     H63833  11.684   5.903  10.712  0.9255  1.8620  1.0370
  463MOL0     H63834  11.622   6.009  10.837  3.9690 -0.2596 -0.6303
  463MOL0     H63835  11.565   5.707  10.861 -0.4759  1.5718 -1.9858
  463MOL0     H63836  11.576   5.827  10.986  1.7551 -3.2417  1.3434
  463MOL0     H63837  11.808   5.707  10.839 -0.2239  1.7754 -0.8611
  463MOL0     H63838  11.827   5.858  10.924  2.5545 -1.8137  1.0328
  463MOL0     H63839  11.701   5.615  11.070 -0.7797  0.5434 -1.4082
  463MOL0     H63840  11.800   5.751  11.135 -0.3736  0.0713  0.5050
  463MOL0     H63841  11.919   5.532  11.128  1.4388  2.9921  1.9775
  463MOL0     H63842  11.904   5.528  10.957 -1.1095 -1.6795  1.3542
  463MOL0     H63843  12.184   5.527  10.957 -2.0778 -0.3054 -1.0391
  463MOL0     H63844  12.437   5.670  11.074 -1.6725 -3.8560 -3.2128
  463MOL0     H63845  12.452   5.836  11.002  1.6511 -0.1990  2.0443
  463MOL0     H63846  12.376   5.579  10.871 -1.4909  0.8054  4.3442
  463MOL0     H63847  12.416   5.734  10.790  0.7500  1.3760  1.5135
  463MOL0     H63848  12.616   5.565  10.935 -0.9381  1.2172 -0.2959
  463MOL0     H63849  12.593   5.562  10.764  1.5718  0.4128 -0.4347
  463MOL0     H63850  12.619   5.835  10.778 -0.1194  0.3842  1.5594
  463MOL0     H63851  12.672   5.801  10.938 -0.2649  2.8386 -0.6932
  463MOL0     H63852  12.985   5.628  10.684 -0.9248  0.6235 -0.6830
  463MOL0     H63853  13.269   5.778  10.574 -3.4678  2.1058  0.9889
  463MOL0     H63854  13.206   5.620  10.616  1.4836 -0.9130  0.6531
  463MOL0     H63855  13.335   5.681  10.716 -0.3390  0.0938  1.4895
  463MOL0     H63856  13.399   5.966  11.170  1.5372 -0.0960  1.5482
  463MOL0     H63857  13.607   6.053  11.268  0.9224  2.8550  0.1352
  463MOL0     H63858  13.912   6.285  11.054  1.2695 -0.1913  1.4044
  463MOL0     H63859  13.783   6.419  11.085 -2.9006 -0.8693  1.4204
  463MOL0     H63860  13.870   6.434  11.298 -0.2026 -2.1558  2.0744
  463MOL0     H63861  13.985   6.311  11.290  1.5286  2.3857  1.8179
  463MOL0     H63862  14.096   6.447  11.110  0.1640 -0.4583  1.3402
  463MOL0     H63863  14.111   6.510  11.278 -0.2093  3.5164  0.3326
  463MOL0     H63864  13.905   6.656  11.225 -1.4422  1.3918 -1.8524
  463MOL0     H63865  13.923   6.613  11.059 -1.5678 -1.4564  1.6441
  463MOL0     H63866  14.131   6.744  11.250  1.0560 -2.9440 -0.0849
  463MOL0     H63867  14.155   6.702  11.080 -0.6417  2.2860 -2.2029
  463MOL0     H63868  13.947   6.887  11.207 -2.2974  1.4121 -1.3890
  463MOL0     H63869  13.944   6.849  11.037  0.6741 -0.9731 -0.6285
  463MOL0     H63870  14.188   6.943  11.031  1.8762  0.0154  0.8213
  463MOL0     H63871  14.167   6.961  11.200 -1.0583 -0.3308 -0.1229
  463MOL0     H63872  14.135   7.181  11.094 -3.0246  4.1335  1.8260
  463MOL0     H63873  14.004   7.132  11.186  2.2978 -1.0275  0.6103
  463MOL0     H63874  13.686   6.288  10.922 -0.5572 -0.4425 -2.1042
  463MOL0     H63875  13.464   6.206  10.833 -0.7986 -1.4311  0.0909
  463MOL0     H63876  13.053   6.043  10.947 -1.7806 -0.6052  1.8741
  463MOL0     H63877  12.829   5.924  10.933  0.7491  1.3551  0.0057
  463MOL0     H63878  11.156   5.905  10.330 -0.9512 -2.7655  2.6927
  463MOL0     H63879  11.029   5.779  10.173 -0.8805 -2.0108  2.2868
  463MOL0     H63880  11.189   5.696   9.654 -0.0431 -1.2018 -0.2009
  463MOL0     H63881  11.052   5.662   9.444 -0.6461 -0.5281  0.3117
  463MOL0     H63882  10.686   5.393   9.520 -4.6084 -0.2361  0.1522
  463MOL0     H63883  10.603   5.545   9.493 -1.9497 -0.8050  1.3400
  463MOL0     H63884  10.638   5.496   9.248 -2.1528 -0.9171 -1.5192
  463MOL0     H63885  10.516   5.421   9.353  0.5902  4.2554 -0.0480
  463MOL0     H63886  10.766   5.310   9.210 -2.0877  1.8779 -2.1713
  463MOL0     H63887  10.698   5.225   9.355 -0.6397 -1.2981 -0.4289
  463MOL0     H63888  10.491   5.187   9.232 -1.0720 -0.7332 -0.7659
  463MOL0     H63889  10.625   5.122   9.132 -1.0270 -1.2447  1.3432
  463MOL0     H63890  10.459   5.420   8.887  0.9652 -0.7297 -1.2354
  463MOL0     H63891  10.761   5.452   9.692 -0.2843 -0.5381 -1.3497
  463MOL0     H63892  10.947   5.425   9.965  2.1393  0.2608 -4.1109
  463MOL0     H63893  10.850   5.572   9.987 -2.5702 -1.2314  0.4519
  463MOL0     H63894  10.785   5.438   9.895  1.8683 -4.1469 -2.8113
  464MOL0     O63895  10.038   0.307   2.291  0.6818 -0.2453  0.2979
  464MOL0     C63896   9.946   0.365   2.349  0.2245 -0.4170 -0.6728
  464MOL0     O63897   9.965   0.455   2.448  0.0222 -0.0713  0.3591
  464MOL0     C63898  10.094   0.454   2.504 -0.1664  0.1417  0.1108
  464MOL0     C63899  10.115   0.403   2.640 -0.9854 -0.0740 -0.3131
  464MOL0     C63900  10.247   0.389   2.695  0.3470  0.9094  0.1356
  464MOL0     C63901  10.357   0.417   2.612  0.2876  0.4583  0.2811
  464MOL0     O63902  10.485   0.425   2.659  0.1097 -1.3368  0.2428
  464MOL0     C63903  10.531   0.309   2.717  0.8012 -0.0467  0.3959
  464MOL0     C63904  10.687   0.319   2.734 -0.3023 -0.1755  0.1091
  464MOL0     C63905  10.723   0.451   2.801  0.0248  1.1601  0.8083
  464MOL0     C63906  10.874   0.475   2.820  0.0058  0.5605  0.1026
  464MOL0     C63907  10.887   0.618   2.878 -0.1221 -0.1121  0.5731
  464MOL0     C63908  11.035   0.648   2.922 -0.0091  0.3492 -0.7098
  464MOL0     C63909  11.140   0.620   2.817 -0.0634  0.2187  0.3396
  464MOL0     C63910  11.293   0.641   2.860  0.7913  0.7384 -0.4801
  464MOL0     N63911  11.383   0.645   2.750  0.6892 -0.2074 -0.5336
  464MOL0     C63912  11.465   0.753   2.730 -0.3740  0.5596  1.2185
  464MOL0     C63913  11.519   0.736   2.602 -0.1178  0.1489  0.1914
  464MOL0     C63914  11.624   0.818   2.528  0.1457 -0.4518  0.1793
  464MOL0     C63915  11.725   0.732   2.464 -0.6593 -0.1632 -0.3460
  464MOL0     C63916  11.793   0.639   2.562 -0.4749  0.4108  0.9692
  464MOL0     C63917  11.923   0.582   2.508  0.5026 -0.0547 -0.5201
  464MOL0     O63918  11.900   0.495   2.394  0.2011  0.1783  0.3432
  464MOL0     C63919  12.002   0.416   2.348 -0.1123 -0.2184  0.8990
  464MOL0     C63920  11.968   0.315   2.269 -0.4405 -0.1867  0.0774
  464MOL0     C63921  12.064   0.218   2.225  0.3217 -0.0125  0.2659
  464MOL0     C63922  12.004   0.094   2.164  0.2456 -0.3168  0.0453
  464MOL0     C63923  12.208   0.239   2.241  1.6075 -0.4294 -0.4731
  464MOL0     C63924  12.308   0.160   2.170 -1.2019  0.4538 -0.6502
  464MOL0     O63925  12.443   0.171   2.207 -0.5581  0.1891  0.2457
  464MOL0     C63926  12.535   0.076   2.157 -0.1590 -0.1410 -0.3063
  464MOL0     C63927  12.552   0.079   2.014  0.8940  0.2051 -0.2593
  464MOL0     C63928  12.647   0.005   1.948 -0.2255 -0.1288 -0.0879
  464MOL0     C63929  12.733  -0.069   2.028  0.5393 -0.4892  0.1773
  464MOL0     O63930  12.825  -0.149   1.983 -0.1162 -0.9776  1.4004
  464MOL0     C63931  12.804  -0.203   1.855 -0.0217  0.1696 -0.3828
  464MOL0     C63932  12.875  -0.338   1.848  0.1281  0.5803 -0.5902
  464MOL0     C63933  12.849  -0.398   1.708  0.5953 -0.2204  0.2621
  464MOL0     C63934  12.876  -0.552   1.715  1.0797  0.3659 -0.1616
  464MOL0     C63935  12.896  -0.608   1.578 -0.3055 -0.6547  0.4824
  464MOL0     C63936  13.029  -0.584   1.517 -0.3941 -0.4385  0.0018
  464MOL0     C63937  13.053  -0.652   1.388 -0.3488 -0.4952 -0.9022
  464MOL0     C63938  13.181  -0.612   1.319  1.1027 -0.3069 -0.1163
  464MOL0    Cl63939  13.165  -0.690   1.156  0.2451  0.1494 -0.2158
  464MOL0     C63940  12.726  -0.062   2.175  0.2748 -0.0639  0.4301
  464MOL0     C63941  12.620   0.008   2.243  0.6095  0.1363 -0.4521
  464MOL0     O63942  12.269   0.083   2.083  0.6122 -0.0584 -0.4648
  464MOL0     C63943  12.237   0.357   2.318 -0.2025  0.2449  0.1538
  464MOL0     C63944  12.138   0.435   2.371 -0.4715 -0.0634 -1.4033
  464MOL0     N63945  11.468   0.623   2.548  0.1342 -0.2135 -0.0382
  464MOL0     N63946  11.387   0.572   2.634  0.8649  0.4205 -0.3581
  464MOL0     C63947  10.328   0.474   2.485 -0.0974  0.2562  0.5531
  464MOL0     C63948  10.202   0.493   2.430 -0.1067  0.0015 -0.2181
  464MOL0     C63949   9.812   0.346   2.306 -0.3032  0.0059 -0.2320
  464MOL0     C63950   9.776   0.405   2.189 -0.3574 -0.7993  1.1973
  464MOL0     C63951   9.651   0.393   2.141  0.2894  0.9734  0.3660
  464MOL0     C63952   9.560   0.313   2.208  0.1391 -0.1770 -0.6081
  464MOL0     O63953   9.431   0.277   2.163 -0.3043 -0.5773 -0.6302
  464MOL0     C63954   9.385   0.328   2.036  0.3543  0.4280  0.2181
  464MOL0     C63955   9.346   0.479   2.044 -0.0984  0.5150  0.6732
  464MOL0     C63956   9.265   0.514   1.916 -0.3836 -0.7267 -0.2261
  464MOL0     C63957   9.210   0.662   1.923  0.0963  0.3301 -0.7768
  464MOL0     C63958   9.181   0.716   1.794 -0.0222 -0.2573 -0.1664
  464MOL0     C63959   9.164   0.746   1.682 -0.0531  0.1610  0.3939
  464MOL0     C63960   9.599   0.257   2.331  1.8488 -0.3224  0.6695
  464MOL0     C63961   9.724   0.266   2.384  0.2568 -0.2224  0.0324
  464MOL0     C63962   9.757   0.200   2.509  0.0047 -0.8546  0.0533
  464MOL0     H63963  10.042   0.390   2.720 -0.2921 -0.2258  0.3081
  464MOL0     H63964  10.254   0.350   2.796 -1.8520 -0.2493 -0.0958
  464MOL0     H63965  10.510   0.219   2.659 -2.0915 -0.8001  2.3914
  464MOL0     H63966  10.474   0.301   2.810 -1.9919  0.5523 -1.1323
  464MOL0     H63967  10.719   0.223   2.775 -3.8377 -2.4160 -1.8425
  464MOL0     H63968  10.728   0.305   2.633  1.2572  0.4191  0.6396
  464MOL0     H63969  10.676   0.527   2.738 -1.0545  0.3561  0.6266
  464MOL0     H63970  10.678   0.459   2.900  0.3163 -1.2308  1.1788
  464MOL0     H63971  10.912   0.402   2.892 -2.3042 -0.6286  0.2179
  464MOL0     H63972  10.919   0.460   2.721 -0.0176 -1.9976  0.3882
  464MOL0     H63973  10.819   0.626   2.963 -2.3189 -2.9850 -0.7421
  464MOL0     H63974  10.860   0.692   2.801  0.0734  0.1257  0.7305
  464MOL0     H63975  11.035   0.750   2.960 -3.3784 -0.7672  2.8880
  464MOL0     H63976  11.060   0.583   3.007  0.1107 -0.0722 -1.0599
  464MOL0     H63977  11.127   0.694   2.737 -0.3430  1.7871  1.7898
  464MOL0     H63978  11.126   0.518   2.778 -0.1760  0.3165  0.1206
  464MOL0     H63979  11.297   0.728   2.927  1.5491  0.1474  0.2617
  464MOL0     H63980  11.315   0.558   2.928  1.3860  0.8939 -0.4781
  464MOL0     H63981  11.496   0.822   2.808  3.0321 -0.2994  0.7966
  464MOL0     H63982  11.668   0.893   2.595 -0.4378 -1.6529  1.9954
  464MOL0     H63983  11.569   0.879   2.456 -0.9696  0.9425  2.1043
  464MOL0     H63984  11.686   0.672   2.382  0.3800  0.3186 -1.2253
  464MOL0     H63985  11.805   0.790   2.416  0.5727 -2.3737 -1.1233
  464MOL0     H63986  11.814   0.686   2.659  0.8277  1.9961 -0.0247
  464MOL0     H63987  11.738   0.546   2.576  1.9851 -0.8167  3.2402
  464MOL0     H63988  11.996   0.655   2.471  1.5061 -1.3599 -1.1958
  464MOL0     H63989  11.960   0.526   2.594  0.1129  3.2899  2.0386
  464MOL0     H63990  11.870   0.287   2.231 -0.3356 -0.0624 -0.2881
  464MOL0     H63991  11.900   0.064   2.179  0.2786 -1.9710 -2.3632
  464MOL0     H63992  12.069   0.011   2.192  1.0106  0.1207 -0.4103
  464MOL0     H63993  12.007   0.102   2.055 -0.5045  1.3396  0.1266
  464MOL0     H63994  12.491   0.149   1.958  1.1684 -0.1570 -1.0190
  464MOL0     H63995  12.650   0.006   1.839  0.4132 -1.5619 -0.0972
  464MOL0     H63996  12.699  -0.223   1.832  0.1137  0.8511 -1.6742
  464MOL0     H63997  12.833  -0.137   1.773 -0.0705  0.8255  0.1203
  464MOL0     H63998  12.981  -0.321   1.866  1.3473 -1.9449 -4.2646
  464MOL0     H63999  12.830  -0.412   1.916  3.3243 -0.7211  0.2708
  464MOL0     H64000  12.922  -0.354   1.640  0.4370  0.1543  0.3315
  464MOL0     H64001  12.749  -0.374   1.671  0.3769  0.3801  1.2086
  464MOL0     H64002  12.794  -0.610   1.757  3.3898 -1.9348  1.4688
  464MOL0     H64003  12.970  -0.568   1.768  0.9135 -0.6307 -0.1641
  464MOL0     H64004  12.871  -0.715   1.584 -1.7105 -0.3080  1.5523
  464MOL0     H64005  12.828  -0.559   1.508  0.7674 -0.6521 -0.5797
  464MOL0     H64006  13.104  -0.613   1.592 -2.0531  0.4917  2.1264
  464MOL0     H64007  13.042  -0.477   1.498  2.9188 -0.3448  1.9962
  464MOL0     H64008  12.975  -0.618   1.320 -0.8164 -1.2890 -0.7801
  464MOL0     H64009  13.048  -0.760   1.402  1.5429 -0.2156  4.0420
  464MOL0     H64010  13.274  -0.640   1.370  1.0169 -0.7478 -0.1948
  464MOL0     H64011  13.179  -0.504   1.307  2.2767 -0.3722 -1.0957
  464MOL0     H64012  12.787  -0.125   2.240 -2.4437 -1.7629  1.4874
  464MOL0     H64013  12.604  -0.001   2.350 -1.2755 -1.6522 -0.8181
  464MOL0     H64014  12.340   0.375   2.349  0.6360 -1.0791 -1.6968
  464MOL0     H64015  12.165   0.517   2.436 -2.5191  1.6347 -2.5662
  464MOL0     H64016  10.418   0.508   2.434  0.2922 -0.1838  0.9381
  464MOL0     H64017  10.197   0.530   2.328 -2.8471  1.3893  0.3225
  464MOL0     H64018   9.842   0.479   2.144 -1.2079 -0.3924  0.5945
  464MOL0     H64019   9.626   0.440   2.047  1.6701  1.0211  0.0050
  464MOL0     H64020   9.455   0.296   1.957  0.5431 -2.1146  1.3105
  464MOL0     H64021   9.296   0.272   2.006  1.4967 -1.6359  0.4885
  464MOL0     H64022   9.433   0.542   2.065  0.1246  1.5518 -2.7283
  464MOL0     H64023   9.279   0.491   2.129  0.3038  0.4727  0.9957
  464MOL0     H64024   9.330   0.492   1.831  0.2945  0.1989  0.0397
  464MOL0     H64025   9.185   0.443   1.891 -2.0645  0.8719  0.3497
  464MOL0     H64026   9.290   0.720   1.970  0.8782 -0.9534 -0.4593
  464MOL0     H64027   9.119   0.663   1.984 -0.1214 -0.4982 -1.0750
  464MOL0     H64028   9.157   0.781   1.581  0.1868  1.8871  0.9560
  464MOL0     H64029   9.523   0.195   2.377 -0.6078  0.6914 -1.6640
  464MOL0     H64030   9.776   0.276   2.586 -0.2583  0.2426 -0.9440
  464MOL0     H64031   9.679   0.132   2.546  0.5470 -0.3199  2.3715
  464MOL0     H64032   9.850   0.146   2.491 -0.4622 -1.1349 -1.6875
  465MOL0     O64033  11.135   0.713   6.241 -0.0626 -1.0106  0.0640
  465MOL0     C64034  11.137   0.637   6.330 -0.6393 -0.5678  0.1630
  465MOL0     O64035  11.249   0.535   6.349  0.3217  0.1464  0.6110
  465MOL0     C64036  11.372   0.542   6.282  0.0396 -0.5882 -0.5071
  465MOL0     C64037  11.441   0.663   6.251  0.1653  0.0891 -0.2843
  465MOL0     C64038  11.561   0.662   6.183  0.7180 -0.1225 -0.5995
  465MOL0     C64039  11.615   0.536   6.137 -0.0681 -0.4665  0.0097
  465MOL0     O64040  11.734   0.541   6.063 -0.3234  0.6240 -0.3192
  465MOL0     C64041  11.723   0.611   5.935  0.0658 -0.3245 -0.1770
  465MOL0     C64042  11.820   0.562   5.824  0.3340  0.8636 -0.8959
  465MOL0     C64043  11.964   0.549   5.897 -0.0605 -0.0819 -0.0263
  465MOL0     C64044  12.071   0.484   5.801 -0.4752 -0.6506 -1.0590
  465MOL0     C64045  12.191   0.447   5.894 -0.1821  0.5322  1.1821
  465MOL0     C64046  12.315   0.398   5.812 -0.5257 -0.0775 -0.0909
  465MOL0     C64047  12.286   0.263   5.756  0.0732  0.2226 -0.4175
  465MOL0     C64048  12.405   0.182   5.681  0.3991 -0.0759  0.6309
  465MOL0     N64049  12.514   0.119   5.762  0.7353 -0.6483 -0.3604
  465MOL0     C64050  12.494   0.048   5.878  0.8516  0.2054  0.5200
  465MOL0     C64051  12.610   0.035   5.934 -0.1796  0.2683 -0.0282
  465MOL0     C64052  12.624  -0.026   6.072 -0.1581  0.4675 -0.7339
  465MOL0     C64053  12.573  -0.167   6.071  0.2180 -0.1813  0.0582
  465MOL0     C64054  12.667  -0.258   5.987  0.7007  0.1404  0.1332
  465MOL0     C64055  12.613  -0.404   5.971 -0.2693 -0.1500 -0.4441
  465MOL0     O64056  12.682  -0.469   5.861 -0.2053 -0.5047  0.4110
  465MOL0     C64057  12.814  -0.482   5.860 -0.2842  0.2918  0.5139
  465MOL0     C64058  12.864  -0.508   5.730 -0.5617 -0.7842 -0.9072
  465MOL0     C64059  13.001  -0.543   5.713 -0.4548 -0.2187 -0.8701
  465MOL0     C64060  13.042  -0.572   5.572 -0.7018  0.3862  0.6912
  465MOL0     C64061  13.093  -0.536   5.827  0.0634  0.4639 -0.0495
  465MOL0     C64062  13.242  -0.551   5.821  0.4569 -0.4905  0.0201
  465MOL0     O64063  13.320  -0.517   5.930 -0.1924  0.0481  0.0036
  465MOL0     C64064  13.452  -0.557   5.926  0.2443  0.8711  0.6719
  465MOL0     C64065  13.563  -0.485   5.872 -0.2431 -0.0510 -0.1063
  465MOL0     C64066  13.699  -0.534   5.870 -0.0043 -0.3637  1.4015
  465MOL0     C64067  13.724  -0.660   5.922  0.7081  0.6931  0.5887
  465MOL0     O64068  13.852  -0.706   5.924 -0.0742  0.6890  0.0204
  465MOL0     C64069  13.880  -0.829   5.993 -0.1465 -0.1252 -0.1541
  465MOL0     C64070  14.042  -0.830   6.002  0.8334  0.1941  0.8328
  465MOL0     C64071  14.087  -0.939   6.106  0.2685 -0.4694  0.8164
  465MOL0     C64072  14.232  -0.949   6.110  0.3143 -0.0958 -0.3347
  465MOL0     C64073  14.278  -0.994   6.250  0.6459 -0.6660  0.3987
  465MOL0     C64074  14.423  -1.032   6.270  0.1504 -0.0523 -0.3983
  465MOL0     C64075  14.452  -1.121   6.399 -0.4746 -0.0679  0.2758
  465MOL0     C64076  14.590  -1.182   6.376  0.7788 -0.5674  0.5721
  465MOL0    Cl64077  14.714  -1.063   6.339  0.0118  0.1490 -0.4385
  465MOL0     C64078  13.615  -0.732   5.983  0.1055 -0.0003 -0.9983
  465MOL0     C64079  13.482  -0.683   5.980  0.2484  0.6073 -0.0451
  465MOL0     O64080  13.286  -0.590   5.714 -0.5142  0.2203  0.5020
  465MOL0     C64081  13.037  -0.504   5.954  0.2505 -1.0972 -0.4994
  465MOL0     C64082  12.891  -0.487   5.971 -0.0886 -0.0042  0.2615
  465MOL0     N64083  12.707   0.091   5.851  0.1230 -0.8665  0.4302
  465MOL0     N64084  12.643   0.151   5.754 -0.4783  0.0805  0.6482
  465MOL0     C64085  11.552   0.414   6.169  0.5731  0.6319 -1.3377
  465MOL0     C64086  11.434   0.416   6.244 -0.3046 -0.4360  0.0592
  465MOL0     C64087  11.031   0.631   6.429 -0.5380  0.1112 -0.6544
  465MOL0     C64088  10.967   0.512   6.427 -0.3563  0.4204  0.1887
  465MOL0     C64089  10.850   0.504   6.508 -0.6671  0.1762  0.0789
  465MOL0     C64090  10.819   0.604   6.599 -0.5105 -0.1797 -0.6619
  465MOL0     O64091  10.717   0.577   6.686  0.2536  0.1060 -0.0206
  465MOL0     C64092  10.580   0.622   6.634  0.3259  0.4379 -0.5692
  465MOL0     C64093  10.548   0.736   6.729  0.2646  0.1089  0.5095
  465MOL0     C64094  10.474   0.711   6.858  0.5811  0.6288 -0.2082
  465MOL0     C64095  10.482   0.831   6.944 -0.0750  0.3942 -0.1578
  465MOL0     C64096  10.417   0.816   7.076 -0.2270 -0.2334 -0.2140
  465MOL0     C64097  10.365   0.799   7.183  0.3598  0.9541  0.2729
  465MOL0     C64098  10.885   0.724   6.595 -0.7969  0.4263 -0.1505
  465MOL0     C64099  10.997   0.735   6.511 -0.0203 -0.2442 -0.4277
  465MOL0     C64100  11.065   0.870   6.509  0.7386  0.4061  0.1187
  465MOL0     H64101  11.412   0.759   6.293  0.9450 -0.9490  2.9013
  465MOL0     H64102  11.608   0.756   6.157 -0.8784  0.0333 -3.2945
  465MOL0     H64103  11.739   0.717   5.953  2.2672 -0.7112  0.4814
  465MOL0     H64104  11.621   0.598   5.896 -0.0400 -0.3275  0.1014
  465MOL0     H64105  11.799   0.464   5.781  0.7410 -0.0688  0.9349
  465MOL0     H64106  11.820   0.637   5.744  0.7505  0.1217 -1.6002
  465MOL0     H64107  12.013   0.644   5.921  0.3036  0.4245 -2.4521
  465MOL0     H64108  11.955   0.488   5.987  0.9015 -0.4339 -0.1564
  465MOL0     H64109  12.045   0.386   5.760  4.9891 -3.1557  0.5025
  465MOL0     H64110  12.091   0.561   5.725 -0.4142 -1.4489 -1.8638
  465MOL0     H64111  12.159   0.372   5.967 -0.5094 -0.3821  0.1251
  465MOL0     H64112  12.219   0.542   5.941  1.1699  0.6031  0.2856
  465MOL0     H64113  12.335   0.471   5.733  2.5161  0.1706  0.7825
  465MOL0     H64114  12.409   0.400   5.868 -1.0877 -0.2335  0.8791
  465MOL0     H64115  12.200   0.264   5.688 -1.8920  1.3280  1.8849
  465MOL0     H64116  12.252   0.198   5.837 -1.2218  1.1350 -0.1799
  465MOL0     H64117  12.361   0.103   5.620  1.4683  1.6988 -2.6870
  465MOL0     H64118  12.452   0.242   5.603  1.7152 -0.9828  0.6881
  465MOL0     H64119  12.396   0.030   5.921 -0.7180  1.2443 -2.3688
  465MOL0     H64120  12.562   0.021   6.148  0.8375 -0.4516  0.7103
  465MOL0     H64121  12.723  -0.017   6.117 -1.3681 -0.8455  2.4344
  465MOL0     H64122  12.572  -0.206   6.173 -0.7326  1.1960  0.6122
  465MOL0     H64123  12.470  -0.169   6.035  0.0096 -0.4383  0.6509
  465MOL0     H64124  12.667  -0.220   5.884 -4.2807  1.5967  0.4072
  465MOL0     H64125  12.768  -0.261   6.027 -0.5823 -2.5342  3.7359
  465MOL0     H64126  12.632  -0.467   6.058  0.4899  3.3315  2.1219
  465MOL0     H64127  12.507  -0.402   5.944 -0.4926  2.6847  0.3438
  465MOL0     H64128  12.793  -0.514   5.648  0.2716  3.3615 -2.1457
  465MOL0     H64129  12.956  -0.611   5.516  0.4924  0.6014 -1.4000
  465MOL0     H64130  13.127  -0.638   5.556 -0.0056  1.0964  1.3959
  465MOL0     H64131  13.072  -0.486   5.512  1.3350  0.4387  1.7158
  465MOL0     H64132  13.546  -0.384   5.834 -0.5415  1.2829  3.2189
  465MOL0     H64133  13.778  -0.481   5.819  1.3793 -0.7620  3.0482
  465MOL0     H64134  13.838  -0.826   6.094 -0.2238  2.2508 -0.2075
  465MOL0     H64135  13.848  -0.915   5.933 -1.5277 -0.9749  1.6863
  465MOL0     H64136  14.074  -0.852   5.900  0.5923  1.1653  0.5374
  465MOL0     H64137  14.079  -0.731   6.031 -1.4635  0.9857  1.2392
  465MOL0     H64138  14.036  -1.035   6.089 -1.8532  0.6348  0.5770
  465MOL0     H64139  14.034  -0.909   6.197 -3.3589  0.0938 -1.2933
  465MOL0     H64140  14.280  -0.859   6.069 -0.9302 -0.2725 -2.3421
  465MOL0     H64141  14.266  -1.041   6.060 -0.1205 -1.3326  1.5569
  465MOL0     H64142  14.244  -0.923   6.326  0.7355 -0.7368  0.5060
  465MOL0     H64143  14.205  -1.074   6.268  0.4640 -1.4807 -3.1553
  465MOL0     H64144  14.482  -0.942   6.290  0.9763 -0.5065 -0.7520
  465MOL0     H64145  14.452  -1.078   6.175  2.7240  0.4854  0.0286
  465MOL0     H64146  14.384  -1.207   6.404 -0.1127 -0.3294  0.8272
  465MOL0     H64147  14.447  -1.069   6.494 -0.2124 -1.3872  1.0397
  465MOL0     H64148  14.589  -1.252   6.292  1.0742  1.9977 -1.7095
  465MOL0     H64149  14.615  -1.239   6.466 -1.3396 -0.4884  1.2918
  465MOL0     H64150  13.643  -0.827   6.027  2.2872  1.1906  0.3173
  465MOL0     H64151  13.401  -0.738   6.027  0.5122  0.1276 -0.1513
  465MOL0     H64152  13.091  -0.493   6.047  0.6541 -0.2106 -0.8238
  465MOL0     H64153  12.836  -0.470   6.063 -1.8877  0.7563 -0.8958
  465MOL0     H64154  11.593   0.321   6.130  0.8007 -1.0487  2.4203
  465MOL0     H64155  11.392   0.318   6.265 -1.7376 -0.1248 -1.1316
  465MOL0     H64156  10.988   0.437   6.351 -2.2072 -0.4216  0.4484
  465MOL0     H64157  10.799   0.408   6.502 -1.0736  0.4729 -3.1049
  465MOL0     H64158  10.580   0.665   6.533  0.6136  2.3412  0.2029
  465MOL0     H64159  10.499   0.548   6.630 -0.5109  1.2704  0.4472
  465MOL0     H64160  10.491   0.811   6.674  1.4582  1.3372  0.8634
  465MOL0     H64161  10.642   0.787   6.753 -0.0965  0.5801  0.9311
  465MOL0     H64162  10.373   0.693   6.820  1.9491 -0.2731 -3.9399
  465MOL0     H64163  10.515   0.618   6.898 -1.3816 -0.4670 -0.6157
  465MOL0     H64164  10.454   0.919   6.886 -0.9466  1.1158  1.2813
  465MOL0     H64165  10.587   0.844   6.969  0.3937 -0.3921 -1.5867
  465MOL0     H64166  10.319   0.785   7.278 -1.1188  6.3458  0.6646
  465MOL0     H64167  10.851   0.799   6.666  2.5273  0.9972  1.0073
  465MOL0     H64168  11.032   0.929   6.595 -0.9221 -2.1606  1.3824
  465MOL0     H64169  11.173   0.865   6.523  0.9215  2.0197 -0.4746
  465MOL0     H64170  11.042   0.920   6.414 -0.8408  1.0834  0.8227
  466MOL0     O64171   3.084   1.146   9.717  0.5008  0.8701  0.1852
  466MOL0     C64172   3.098   1.068   9.626  1.1314  0.1731 -0.5679
  466MOL0     O64173   3.213   1.018   9.577  0.0857  0.3318 -0.2166
  466MOL0     C64174   3.337   1.070   9.616 -0.4861 -0.0901 -0.7720
  466MOL0     C64175   3.362   1.207   9.629  0.0833 -0.5938  0.7895
  466MOL0     C64176   3.494   1.248   9.650 -0.1952 -0.7424 -0.6995
  466MOL0     C64177   3.595   1.155   9.685  1.0725  0.9840  0.5140
  466MOL0     O64178   3.715   1.210   9.740  0.9700 -0.9355  0.3739
  466MOL0     C64179   3.824   1.130   9.750  0.3371 -0.2017 -0.0776
  466MOL0     C64180   3.947   1.214   9.787 -0.7599  0.5721  0.0766
  466MOL0     C64181   4.069   1.119   9.765 -0.3832 -0.6168 -0.7789
  466MOL0     C64182   4.127   1.105   9.626 -0.9625  0.1826 -0.8086
  466MOL0     C64183   4.272   1.046   9.631  0.4812  0.0540  0.2585
  466MOL0     C64184   4.373   1.156   9.679  0.0759  0.9120  0.3911
  466MOL0     C64185   4.500   1.108   9.737 -0.1546 -0.4980  1.5752
  466MOL0     C64186   4.596   1.040   9.627 -0.5246  0.0185 -0.4868
  466MOL0     N64187   4.711   0.976   9.683 -0.2655  1.0449  0.0711
  466MOL0     C64188   4.771   0.993   9.812  0.0383 -1.0660 -0.2708
  466MOL0     C64189   4.863   0.897   9.826 -0.5277 -0.1119 -0.4753
  466MOL0     C64190   4.925   0.870   9.965  0.2392 -0.1491 -0.1061
  466MOL0     C64191   4.969   0.984  10.042 -1.2866 -0.2016 -0.4451
  466MOL0     C64192   5.084   1.063   9.987  0.0853 -0.6149  1.0936
  466MOL0     C64193   5.217   0.994   9.967 -0.5686 -0.9676  0.1022
  466MOL0     O64194   5.241   0.917  10.084  0.2457 -0.2684 -0.0228
  466MOL0     C64195   5.361   0.855  10.074  0.1556 -0.4373 -0.7979
  466MOL0     C64196   5.436   0.884  10.185 -0.0656 -0.8715  0.2189
  466MOL0     C64197   5.560   0.826  10.201  0.1539  0.3557  0.3206
  466MOL0     C64198   5.643   0.865  10.326  0.6915 -0.7778 -1.3114
  466MOL0     C64199   5.609   0.726  10.109 -1.2563 -0.2928 -0.2850
  466MOL0     C64200   5.733   0.643  10.122  0.0924 -0.3634 -1.9072
  466MOL0     O64201   5.766   0.558  10.021  0.0948 -0.0842  0.7534
  466MOL0     C64202   5.889   0.490  10.000 -0.4355 -0.2016 -1.5623
  466MOL0     C64203   5.920   0.443   9.876 -0.3758  0.1835 -0.4263
  466MOL0     C64204   6.046   0.381   9.848 -0.4945  0.7846 -0.3230
  466MOL0     C64205   6.150   0.366   9.950  0.8688  0.8208  0.3856
  466MOL0     O64206   6.276   0.314   9.929 -0.1470  0.6083 -0.5589
  466MOL0     C64207   6.290   0.228   9.806  0.4615 -0.5687 -0.3840
  466MOL0     C64208   6.408   0.136   9.807 -0.2544  0.2007  0.2189
  466MOL0     C64209   6.543   0.220   9.804 -0.7662 -0.6390  0.7675
  466MOL0     C64210   6.673   0.135   9.782  0.3621  0.1382  0.2469
  466MOL0     C64211   6.809   0.213   9.757  0.3009 -1.3699 -0.6914
  466MOL0     C64212   6.948   0.155   9.809  0.1140 -0.0130  0.6222
  466MOL0     C64213   6.988   0.034   9.730  0.6339  0.4930  0.0929
  466MOL0     C64214   7.115  -0.029   9.785  0.1595 -0.1577 -0.2396
  466MOL0    Cl64215   7.248   0.102   9.814  0.2369  0.4748 -0.8455
  466MOL0     C64216   6.113   0.404  10.077  0.5736  0.0830  0.0737
  466MOL0     C64217   5.987   0.477  10.110 -0.1220  0.2033  0.3059
  466MOL0     O64218   5.786   0.645  10.231 -1.0412 -0.5975 -0.0397
  466MOL0     C64219   5.528   0.695  10.000  0.5958 -0.3775 -0.4467
  466MOL0     C64220   5.409   0.764   9.981 -0.3970 -0.7220 -0.3477
  466MOL0     N64221   4.861   0.819   9.709 -0.3100  0.0770  0.2124
  466MOL0     N64222   4.774   0.863   9.633 -0.0097 -0.7303  0.3710
  466MOL0     C64223   3.565   1.016   9.672  0.3288 -0.3128  0.8169
  466MOL0     C64224   3.439   0.974   9.634 -0.3020 -0.2821 -0.8013
  466MOL0     C64225   2.971   0.997   9.570  0.4761 -0.5054  0.0058
  466MOL0     C64226   2.991   0.902   9.465  0.0668 -0.0670  0.5337
  466MOL0     C64227   2.886   0.831   9.409  0.3324  0.3837 -0.5929
  466MOL0     C64228   2.764   0.833   9.467 -0.3164  0.5906  0.2158
  466MOL0     O64229   2.656   0.757   9.409 -0.3449 -0.2845 -0.0430
  466MOL0     C64230   2.680   0.625   9.353 -0.8708 -0.0672 -0.9955
  466MOL0     C64231   2.561   0.592   9.264 -0.4530 -0.0663  0.5524
  466MOL0     C64232   2.574   0.686   9.138 -1.0150  0.1504 -0.4749
  466MOL0     C64233   2.447   0.691   9.063 -0.5146  0.5493  1.0145
  466MOL0     C64234   2.465   0.749   8.929  0.5899  0.0355 -0.5175
  466MOL0     C64235   2.467   0.792   8.811  1.1432 -0.4788 -0.1025
  466MOL0     C64236   2.738   0.921   9.570  0.1615 -0.1758  0.6977
  466MOL0     C64237   2.838   1.010   9.619  0.0721 -0.3877 -0.0398
  466MOL0     C64238   2.802   1.091   9.738  0.1575 -0.6934  0.9512
  466MOL0     H64239   3.279   1.272   9.606  0.4410 -0.4373 -0.0870
  466MOL0     H64240   3.523   1.351   9.668 -1.8805 -0.3189 -0.2802
  466MOL0     H64241   3.842   1.066   9.663  3.1035  2.7506 -1.9078
  466MOL0     H64242   3.802   1.053   9.824  2.3085 -0.6262  0.1136
  466MOL0     H64243   3.958   1.302   9.722  0.0222 -0.2271 -0.9133
  466MOL0     H64244   3.944   1.233   9.894 -1.7503 -2.1451  0.5990
  466MOL0     H64245   4.139   1.162   9.837 -3.2704  1.4322  1.0176
  466MOL0     H64246   4.051   1.017   9.801 -0.0787 -0.9551 -1.5578
  466MOL0     H64247   4.054   1.046   9.570 -0.7607  0.5621 -1.4959
  466MOL0     H64248   4.126   1.210   9.593 -0.0950  0.7185  0.7614
  466MOL0     H64249   4.296   1.028   9.526  3.7105  2.2658  0.4563
  466MOL0     H64250   4.277   0.954   9.689 -0.2895  0.5168  1.0916
  466MOL0     H64251   4.401   1.218   9.593 -0.1225 -0.4107 -0.6733
  466MOL0     H64252   4.322   1.214   9.756  0.0675 -1.4678  2.3138
  466MOL0     H64253   4.485   1.031   9.814 -0.1049 -1.4811  0.6241
  466MOL0     H64254   4.554   1.186   9.791 -0.2408  0.0886  0.8263
  466MOL0     H64255   4.538   0.961   9.577 -1.3318 -0.4072  1.0747
  466MOL0     H64256   4.635   1.116   9.558 -1.7890  0.5396 -0.6555
  466MOL0     H64257   4.738   1.056   9.894  0.3223 -1.7735  0.3983
  466MOL0     H64258   5.012   0.805   9.953 -0.0541 -0.2915 -1.5894
  466MOL0     H64259   4.850   0.826  10.032  1.3141  0.4831  1.5723
  466MOL0     H64260   4.897   1.065  10.058  1.1018  1.6309  2.1041
  466MOL0     H64261   4.993   0.947  10.142 -0.0322  0.5049 -0.4707
  466MOL0     H64262   5.070   1.095   9.884  3.8814 -0.0290  0.6162
  466MOL0     H64263   5.087   1.157  10.043 -1.2119  1.2704 -1.7642
  466MOL0     H64264   5.204   0.929   9.880 -0.2174 -0.1293 -0.5878
  466MOL0     H64265   5.304   1.059   9.952 -0.5580 -0.6937  1.2112
  466MOL0     H64266   5.404   0.950  10.265  1.4773  1.5008 -1.0142
  466MOL0     H64267   5.611   0.958  10.374 -0.3779 -1.9749  0.4143
  466MOL0     H64268   5.747   0.880  10.296  0.7690 -0.1749 -0.7602
  466MOL0     H64269   5.622   0.781  10.393  0.1631 -0.9929 -1.7346
  466MOL0     H64270   5.860   0.463   9.788  1.1067 -0.0225 -1.5164
  466MOL0     H64271   6.049   0.347   9.745 -2.0893  1.5231 -0.6365
  466MOL0     H64272   6.209   0.155   9.800  2.7091 -3.3394  0.4871
  466MOL0     H64273   6.288   0.288   9.715 -0.9018 -1.1282 -0.7422
  466MOL0     H64274   6.410   0.069   9.894  0.3034  0.1266  0.1487
  466MOL0     H64275   6.404   0.070   9.720 -2.1972 -0.4777  0.7581
  466MOL0     H64276   6.557   0.273   9.899  0.6776 -2.7883  1.8210
  466MOL0     H64277   6.543   0.295   9.725 -0.0667  1.0361  2.2810
  466MOL0     H64278   6.663   0.082   9.687  0.5609 -0.5961  0.6286
  466MOL0     H64279   6.677   0.055   9.856  4.0138  0.5106  0.6181
  466MOL0     H64280   6.809   0.230   9.649  0.1791 -2.0449 -0.8055
  466MOL0     H64281   6.793   0.307   9.809 -2.1267 -1.1664 -1.6921
  466MOL0     H64282   6.948   0.150   9.918 -0.2846  0.6946  0.6627
  466MOL0     H64283   7.019   0.233   9.779  1.3960 -2.1330 -2.4081
  466MOL0     H64284   7.003   0.062   9.625 -1.6857 -0.8157 -0.6634
  466MOL0     H64285   6.909  -0.038   9.708  0.7118  0.2624  0.5633
  466MOL0     H64286   7.150  -0.108   9.718  1.6472  0.4013 -0.1553
  466MOL0     H64287   7.090  -0.072   9.882 -0.3510  2.0465  0.6685
  466MOL0     H64288   6.174   0.389  10.165  0.9256 -0.5360 -0.2678
  466MOL0     H64289   5.966   0.516  10.209 -3.1080  0.6049 -0.3748
  466MOL0     H64290   5.555   0.627   9.920  1.5906  0.8163 -1.1686
  466MOL0     H64291   5.352   0.752   9.889  0.7463  0.0845 -1.1878
  466MOL0     H64292   3.639   0.940   9.694  2.2284  1.1377 -0.3210
  466MOL0     H64293   3.430   0.866   9.620  0.9161 -0.2128 -2.3901
  466MOL0     H64294   3.086   0.875   9.422  0.0432  3.5378 -2.2759
  466MOL0     H64295   2.918   0.782   9.317 -2.0366  0.4237 -1.5197
  466MOL0     H64296   2.781   0.607   9.315  0.4039 -0.6732  2.3620
  466MOL0     H64297   2.666   0.553   9.434 -0.3430  0.8761 -0.0383
  466MOL0     H64298   2.473   0.612   9.326  1.4698 -0.7128  3.7010
  466MOL0     H64299   2.573   0.484   9.246  4.5738  0.1731  1.1766
  466MOL0     H64300   2.619   0.785   9.154 -0.6313  0.1526 -1.5385
  466MOL0     H64301   2.654   0.632   9.088  1.4898  1.0566  2.2392
  466MOL0     H64302   2.381   0.753   9.125 -2.5384  0.6696 -1.1125
  466MOL0     H64303   2.395   0.596   9.048  0.8475  0.0601 -0.9581
  466MOL0     H64304   2.469   0.833   8.712  0.5157 -2.2560 -0.9085
  466MOL0     H64305   2.638   0.914   9.612 -0.9205  2.8998 -1.0410
  466MOL0     H64306   2.853   1.188   9.733  0.2200 -0.7582 -3.1681
  466MOL0     H64307   2.695   1.110   9.727  0.3117 -1.2337 -2.5117
  466MOL0     H64308   2.818   1.060   9.842 -1.2097  1.4718  1.8717
  467MOL0     O64309   9.376  10.212   5.898  0.0010  0.4034  0.5569
  467MOL0     C64310   9.399  10.119   5.819 -0.4361 -0.6562 -0.1705
  467MOL0     O64311   9.308  10.026   5.782 -0.0521 -0.3508 -0.2449
  467MOL0     C64312   9.190  10.005   5.849  0.2972  0.1761 -0.0341
  467MOL0     C64313   9.100  10.099   5.877 -0.5108  0.6945  0.5914
  467MOL0     C64314   8.983  10.067   5.946 -0.0793 -0.3652 -0.1102
  467MOL0     C64315   8.948   9.941   5.979 -0.2532  0.2244  0.3091
  467MOL0     O64316   8.836   9.908   6.043 -0.1496 -0.4346  0.0489
  467MOL0     C64317   8.760   9.789   6.010 -0.4033 -0.2227  0.6132
  467MOL0     C64318   8.619   9.825   6.054 -0.7184  1.2903  0.5592
  467MOL0     C64319   8.534   9.693   6.037 -0.5457  0.3041 -0.2608
  467MOL0     C64320   8.384   9.715   6.057 -0.0020  0.2239 -0.0033
  467MOL0     C64321   8.306   9.600   5.983 -0.4896  0.2224 -0.0612
  467MOL0     C64322   8.157   9.625   5.972 -0.3385  0.4685  0.0616
  467MOL0     C64323   8.066   9.505   5.938 -0.0562  0.0250  0.0112
  467MOL0     C64324   7.921   9.537   5.922 -0.1291  0.1490 -0.3984
  467MOL0     N64325   7.891   9.646   5.827  0.3778 -0.1612 -0.0306
  467MOL0     C64326   7.902   9.779   5.861  0.6512  0.3537  0.5268
  467MOL0     C64327   7.894   9.849   5.743 -0.5186 -0.4650 -0.6585
  467MOL0     C64328   7.887   9.997   5.727 -0.5382 -0.8949 -0.5811
  467MOL0     C64329   7.967  10.058   5.608  1.4255 -0.5141 -0.3944
  467MOL0     C64330   7.915  10.204   5.590  0.1802  0.1704 -0.6855
  467MOL0     C64331   8.008  10.286   5.499 -0.3995  0.6688 -0.3464
  467MOL0     O64332   8.148  10.272   5.530 -0.1920 -0.0529 -0.3416
  467MOL0     C64333   8.244  10.267   5.424 -0.2555 -0.4798  0.5514
  467MOL0     C64334   8.213  10.299   5.285  0.3393  0.0159  0.0073
  467MOL0     C64335   8.308  10.281   5.181 -0.2286  0.7440  0.6866
  467MOL0     C64336   8.267  10.281   5.034 -0.8309  0.0106 -0.1169
  467MOL0     C64337   8.436  10.242   5.219 -0.3836  0.5434  0.1732
  467MOL0     C64338   8.536  10.185   5.126 -0.7867 -0.1631  0.0405
  467MOL0     O64339   8.614  10.088   5.175  0.2692 -0.2385  0.9510
  467MOL0     C64340   8.709  10.027   5.098 -0.6095  0.4045 -0.1198
  467MOL0     C64341   8.822  10.093   5.050 -0.0985  0.5410 -0.8833
  467MOL0     C64342   8.913  10.031   4.963 -0.6121 -0.4141 -0.3102
  467MOL0     C64343   8.902   9.900   4.929  0.5868  0.4301 -0.7988
  467MOL0     O64344   8.980   9.828   4.848  0.0370  0.4580  0.6040
  467MOL0     C64345   9.107   9.886   4.811  0.3991 -0.1497  0.0639
  467MOL0     C64346   9.192   9.776   4.749 -0.3477  0.4755 -0.4494
  467MOL0     C64347   9.320   9.824   4.687  0.2063  0.3837 -0.4097
  467MOL0     C64348   9.302   9.914   4.555 -0.4094 -1.0764 -0.4371
  467MOL0     C64349   9.438   9.937   4.494 -0.0365 -0.2029  0.3494
  467MOL0     C64350   9.441  10.039   4.377 -1.2193 -0.0657 -0.1818
  467MOL0     C64351   9.359   9.998   4.250  0.3821 -0.1578 -1.4348
  467MOL0     C64352   9.362  10.096   4.135 -0.5338 -0.3968 -0.1617
  467MOL0    Cl64353   9.254  10.040   3.998 -0.3021 -0.0036  0.6004
  467MOL0     C64354   8.792   9.828   4.979  0.3302  0.0226  0.2669
  467MOL0     C64355   8.707   9.884   5.068  1.4552 -0.5886 -0.3351
  467MOL0     O64356   8.543  10.228   5.015  0.3346 -0.6374  0.2709
  467MOL0     C64357   8.471  10.230   5.355 -0.0147  0.7912  0.5436
  467MOL0     C64358   8.374  10.232   5.450 -0.3201  0.2996  0.3438
  467MOL0     N64359   7.874   9.765   5.640  0.4128 -0.1547  0.6175
  467MOL0     N64360   7.879   9.640   5.687 -0.1313  0.5372 -0.4657
  467MOL0     C64361   9.037   9.838   5.951 -0.0662 -0.3332  0.6288
  467MOL0     C64362   9.158   9.869   5.879  0.1620  0.2488 -1.0894
  467MOL0     C64363   9.538  10.114   5.758 -0.2111 -0.0900 -0.5560
  467MOL0     C64364   9.592   9.986   5.721  0.7357 -1.1135  0.8736
  467MOL0     C64365   9.716   9.963   5.675 -0.7682 -0.0251  0.4026
  467MOL0     C64366   9.798  10.079   5.654 -1.0205  0.8473 -0.0099
  467MOL0     O64367   9.926  10.058   5.601  0.4842 -0.4311  0.0954
  467MOL0     C64368   9.988   9.928   5.588  0.5585 -0.4568 -0.5481
  467MOL0     C64369  10.139   9.933   5.595 -0.2615 -0.8868 -0.1547
  467MOL0     C64370  10.210  10.041   5.527  0.2597  0.3369 -0.5094
  467MOL0     C64371  10.353  10.058   5.576  0.6127 -0.3279  0.1364
  467MOL0     C64372  10.448   9.966   5.523 -0.3506  0.5589  0.4346
  467MOL0     C64373  10.513   9.870   5.478 -0.5512 -0.2078  0.6394
  467MOL0     C64374   9.749  10.206   5.679 -0.2491 -0.5736 -0.2883
  467MOL0     C64375   9.620  10.230   5.734  0.2519  0.5383 -0.0664
  467MOL0     C64376   9.585  10.372   5.768  0.2361 -0.5662  1.0292
  467MOL0     H64377   9.125  10.199   5.844  1.3033  0.2234  0.3854
  467MOL0     H64378   8.910  10.145   5.965  0.6302  1.3378 -3.5820
  467MOL0     H64379   8.800   9.697   6.053 -0.3112  0.1556  1.3546
  467MOL0     H64380   8.760   9.779   5.901 -2.2013 -0.5250  0.6087
  467MOL0     H64381   8.618   9.852   6.160 -2.2662  2.8850  0.1777
  467MOL0     H64382   8.579   9.906   5.993 -0.2903  1.8623  1.0349
  467MOL0     H64383   8.538   9.652   5.936 -2.5074 -2.6452  0.7328
  467MOL0     H64384   8.562   9.614   6.107 -5.9138 -0.2819  1.6272
  467MOL0     H64385   8.363   9.727   6.163  1.9954 -1.6487  0.6699
  467MOL0     H64386   8.346   9.810   6.017 -0.4189  0.5654  1.1753
  467MOL0     H64387   8.327   9.504   6.032 -0.1786  0.7559  0.8874
  467MOL0     H64388   8.339   9.583   5.880  1.0670  0.1793  0.4167
  467MOL0     H64389   8.120   9.670   6.064 -2.4000 -0.7643 -0.0954
  467MOL0     H64390   8.149   9.694   5.887  0.6516 -0.4589 -0.8177
  467MOL0     H64391   8.075   9.426   6.014 -0.3297 -0.8002 -0.8017
  467MOL0     H64392   8.101   9.471   5.840 -1.3121  3.7790 -1.9243
  467MOL0     H64393   7.861   9.451   5.889 -0.0329 -0.4000  0.8096
  467MOL0     H64394   7.883   9.564   6.021  1.5783  1.9875 -0.1905
  467MOL0     H64395   7.913   9.813   5.963  0.4229 -0.3849  0.8022
  467MOL0     H64396   7.920  10.050   5.817 -0.9796  0.0173 -0.9461
  467MOL0     H64397   7.780  10.019   5.722 -0.9119 -1.2289  2.9679
  467MOL0     H64398   8.074  10.060   5.628  1.2249  0.5327  0.6616
  467MOL0     H64399   7.953  10.003   5.514 -0.1388 -3.2005  1.3084
  467MOL0     H64400   7.814  10.208   5.549  0.1478 -1.8017 -0.8963
  467MOL0     H64401   7.916  10.234   5.696 -0.1214 -3.2801  0.4159
  467MOL0     H64402   7.994  10.250   5.397  0.3728  1.0235 -0.5849
  467MOL0     H64403   7.974  10.390   5.496 -0.4472  0.6819  0.3991
  467MOL0     H64404   8.110  10.315   5.255  0.2900  0.1635  0.2553
  467MOL0     H64405   8.320  10.341   4.961  1.3128 -0.8874  0.6290
  467MOL0     H64406   8.161  10.305   5.024 -0.8590 -0.3691 -0.8083
  467MOL0     H64407   8.291  10.185   4.986  0.8683 -0.5748  1.7484
  467MOL0     H64408   8.838  10.198   5.074  0.0180  0.3526 -0.1103
  467MOL0     H64409   8.998  10.085   4.924 -0.3470 -1.5626 -1.3761
  467MOL0     H64410   9.066   9.953   4.735 -1.2872 -0.8406  0.3084
  467MOL0     H64411   9.163   9.934   4.891 -1.1345 -0.1184  1.1650
  467MOL0     H64412   9.212   9.701   4.826  1.4761 -0.5775 -1.8735
  467MOL0     H64413   9.121   9.745   4.673 -1.5820  0.4888  0.6540
  467MOL0     H64414   9.374   9.737   4.648 -0.1386  1.0745 -2.5282
  467MOL0     H64415   9.371   9.874   4.771 -3.1932  2.9128  0.3594
  467MOL0     H64416   9.264  10.009   4.596 -2.0293 -3.0031  3.0223
  467MOL0     H64417   9.234   9.881   4.476 -1.1444  1.1056 -0.7825
  467MOL0     H64418   9.508   9.957   4.575 -0.6014  0.9431  0.5748
  467MOL0     H64419   9.480   9.845   4.454  1.5740  0.0423  1.3751
  467MOL0     H64420   9.544  10.046   4.342 -0.1483 -1.5413  2.4108
  467MOL0     H64421   9.406  10.138   4.410  1.0260  0.6772  0.1281
  467MOL0     H64422   9.254   9.988   4.281  1.0127 -1.7464  0.3446
  467MOL0     H64423   9.390   9.899   4.215 -1.4028 -0.8647 -1.1232
  467MOL0     H64424   9.465  10.112   4.100 -0.4452 -3.3772 -1.5177
  467MOL0     H64425   9.325  10.192   4.172  0.0912 -0.1734 -0.1058
  467MOL0     H64426   8.791   9.721   4.963  2.2436 -0.4145  2.5280
  467MOL0     H64427   8.627   9.817   5.100 -1.6903 -0.1009 -5.8719
  467MOL0     H64428   8.569  10.198   5.388 -2.2811 -1.6178  6.2190
  467MOL0     H64429   8.401  10.183   5.544  0.6128 -0.7321 -0.4381
  467MOL0     H64430   9.028   9.738   5.992  1.0275 -0.6498  0.1259
  467MOL0     H64431   9.237   9.796   5.864 -1.0218 -0.5809 -3.9366
  467MOL0     H64432   9.530   9.900   5.745 -2.5229  0.6140 -0.6780
  467MOL0     H64433   9.756   9.864   5.658  2.5740  1.2596  0.0227
  467MOL0     H64434   9.950   9.865   5.668 -2.3386  0.0694 -1.3966
  467MOL0     H64435   9.960   9.872   5.498  0.5325 -4.0321  1.5330
  467MOL0     H64436  10.180   9.836   5.568 -0.0861 -1.2872  1.4585
  467MOL0     H64437  10.143   9.941   5.704 -1.3043 -1.6323 -0.0486
  467MOL0     H64438  10.201  10.018   5.420 -1.1207  0.4121 -0.4214
  467MOL0     H64439  10.158  10.135   5.546 -0.3735  0.0521 -0.8029
  467MOL0     H64440  10.350  10.040   5.684 -1.4722  1.7097  0.5085
  467MOL0     H64441  10.387  10.162   5.580  1.0621 -0.4468 -0.4628
  467MOL0     H64442  10.572   9.784   5.454 -0.0088  0.3261 -0.0068
  467MOL0     H64443   9.812  10.292   5.658  0.3371 -0.8942  0.1487
  467MOL0     H64444   9.494  10.412   5.721 -0.5330 -1.2253  1.9029
  467MOL0     H64445   9.564  10.380   5.875  0.0195 -0.7843  1.0059
  467MOL0     H64446   9.671  10.435   5.743  1.3243 -2.4885 -0.3521
  468MOL0     O64447   6.081   8.479  10.197  0.2678  0.1571 -0.0795
  468MOL0     C64448   6.064   8.371  10.259 -0.9663 -0.3941  0.4769
  468MOL0     O64449   5.939   8.332  10.310  0.0455  0.0644 -1.3027
  468MOL0     C64450   5.840   8.425  10.296  0.2008  0.2035  0.0436
  468MOL0     C64451   5.828   8.536  10.383 -0.1514 -0.0031 -0.3393
  468MOL0     C64452   5.738   8.630  10.350  0.1392 -0.1731 -0.3130
  468MOL0     C64453   5.651   8.624  10.240 -0.1451 -0.1278 -0.3485
  468MOL0     O64454   5.580   8.742  10.227  0.4280 -0.5674 -0.4709
  468MOL0     C64455   5.480   8.754  10.121  0.3775  0.1450  1.1602
  468MOL0     C64456   5.368   8.648  10.128  1.1169  1.4810  0.0266
  468MOL0     C64457   5.318   8.620  10.269 -0.5106 -0.4944  0.0401
  468MOL0     C64458   5.243   8.736  10.322  0.8049  0.1351  0.0463
  468MOL0     C64459   5.183   8.715  10.455  0.5186 -0.3739 -0.0359
  468MOL0     C64460   5.273   8.684  10.568  0.5864  0.5683 -0.4699
  468MOL0     C64461   5.360   8.812  10.600  0.6083 -0.1507 -0.9587
  468MOL0     C64462   5.423   8.811  10.742 -0.0203 -0.5175 -0.4461
  468MOL0     N64463   5.541   8.729  10.755 -0.0728 -0.1862 -0.0077
  468MOL0     C64464   5.542   8.596  10.788 -0.1680  0.7184 -0.6128
  468MOL0     C64465   5.668   8.558  10.818  1.0199  0.7789 -0.2395
  468MOL0     C64466   5.698   8.409  10.835 -0.5053  0.3343 -0.1783
  468MOL0     C64467   5.721   8.349  10.693 -0.1767  0.0199  0.6408
  468MOL0     C64468   5.774   8.209  10.667 -0.1678 -0.0507 -0.6150
  468MOL0     C64469   5.905   8.180  10.748  0.0219 -0.6434  0.1490
  468MOL0     O64470   5.993   8.287  10.730  0.1562 -0.9514 -0.1076
  468MOL0     C64471   6.129   8.262  10.724  1.2431 -0.1490 -0.6512
  468MOL0     C64472   6.189   8.138  10.747 -0.9620  0.5272 -0.0295
  468MOL0     C64473   6.322   8.117  10.717  0.2765 -0.3427  1.2850
  468MOL0     C64474   6.375   7.982  10.749 -0.3070 -0.7642 -0.3273
  468MOL0     C64475   6.404   8.227  10.682  0.2769  0.7977  0.1267
  468MOL0     C64476   6.549   8.225  10.651 -0.3049  0.9431  0.2465
  468MOL0     O64477   6.595   8.339  10.593 -0.0552  0.1432 -0.4368
  468MOL0     C64478   6.734   8.358  10.576  1.2011  1.0193 -0.7810
  468MOL0     C64479   6.798   8.376  10.453  0.4774  0.4773 -0.1061
  468MOL0     C64480   6.935   8.397  10.460 -0.8499 -0.4933 -0.9589
  468MOL0     C64481   7.011   8.413  10.576 -0.3689 -0.5319  0.5781
  468MOL0     O64482   7.141   8.450  10.575 -0.4155 -0.1695  0.0009
  468MOL0     C64483   7.239   8.348  10.560  0.6739  0.0266 -0.0651
  468MOL0     C64484   7.368   8.403  10.514  0.3261  0.5917 -0.2535
  468MOL0     C64485   7.355   8.446  10.367  0.1556  0.9445  0.3174
  468MOL0     C64486   7.476   8.546  10.336  0.7449 -0.0395 -0.2105
  468MOL0     C64487   7.510   8.556  10.189  0.2969  0.4994 -0.0887
  468MOL0     C64488   7.583   8.688  10.150  0.2108  1.0819 -1.0370
  468MOL0     C64489   7.622   8.685  10.003 -0.5830 -0.2718 -0.3915
  468MOL0     C64490   7.706   8.814   9.975  0.6487 -0.3935  0.7778
  468MOL0    Cl64491   7.746   8.840   9.803 -0.7307 -0.3256 -0.0768
  468MOL0     C64492   6.936   8.416  10.691 -0.1927  1.0415  0.0986
  468MOL0     C64493   6.802   8.376  10.692 -0.1745 -0.3288  0.2348
  468MOL0     O64494   6.620   8.136  10.698  0.0285 -0.1816  0.1518
  468MOL0     C64495   6.341   8.351  10.677  0.1994  0.5716 -0.7734
  468MOL0     C64496   6.209   8.375  10.694 -0.8305  0.1611 -0.6733
  468MOL0     N64497   5.749   8.670  10.815  0.5244 -0.1557  0.1654
  468MOL0     N64498   5.672   8.773  10.772  1.1133  0.1900  0.7044
  468MOL0     C64499   5.657   8.517  10.155 -0.2227  0.9123 -0.9435
  468MOL0     C64500   5.745   8.409  10.187  0.3378 -0.6193  0.5719
  468MOL0     C64501   6.182   8.278  10.275 -0.3303  0.1515 -0.6185
  468MOL0     C64502   6.160   8.144  10.329 -0.0729 -0.3999  0.4673
  468MOL0     C64503   6.259   8.060  10.344  0.5458  0.5027  0.0254
  468MOL0     C64504   6.395   8.089  10.324  0.0963 -0.6255  0.4656
  468MOL0     O64505   6.498   8.000  10.338 -0.5503  0.4014 -0.0702
  468MOL0     C64506   6.586   7.969  10.228  0.7152 -0.5323 -0.0103
  468MOL0     C64507   6.738   7.978  10.267  0.2453  0.6383 -0.0924
  468MOL0     C64508   6.828   7.898  10.176 -0.2652 -0.8022  0.1877
  468MOL0     C64509   6.966   7.912  10.223 -0.2452  0.3816  0.4080
  468MOL0     C64510   7.059   7.857  10.124  0.1011  0.1513 -0.7311
  468MOL0     C64511   7.152   7.803  10.065 -0.1289  0.1545  0.8521
  468MOL0     C64512   6.422   8.216  10.287 -0.0754  0.2288  0.0580
  468MOL0     C64513   6.320   8.317  10.264  0.3298  0.0614  0.0375
  468MOL0     C64514   6.367   8.448  10.202 -0.4045  0.3733  0.3842
  468MOL0     H64515   5.890   8.539  10.472 -0.3742  0.7064 -0.2020
  468MOL0     H64516   5.713   8.715  10.413 -0.1557  0.6258 -1.4616
  468MOL0     H64517   5.532   8.732  10.027 -0.2628  1.4711  0.4594
  468MOL0     H64518   5.435   8.852  10.106  0.1599  0.1652  1.9335
  468MOL0     H64519   5.281   8.675  10.067  1.8304  1.1861 -1.1515
  468MOL0     H64520   5.395   8.546  10.099 -4.3001 -0.4079  0.4044
  468MOL0     H64521   5.250   8.535  10.254 -2.4070  1.0456 -0.6067
  468MOL0     H64522   5.407   8.598  10.328  0.0587 -0.2117 -0.7044
  468MOL0     H64523   5.303   8.827  10.319 -1.0757  1.4184 -2.9584
  468MOL0     H64524   5.161   8.750  10.251 -0.6241 -0.7168  1.4597
  468MOL0     H64525   5.109   8.635  10.442 -0.2041  0.2639  0.1115
  468MOL0     H64526   5.130   8.805  10.487  0.4573 -0.2226 -0.5430
  468MOL0     H64527   5.218   8.650  10.655  0.3261  0.6855 -0.5875
  468MOL0     H64528   5.345   8.604  10.549 -0.1341 -0.4857  1.0829
  468MOL0     H64529   5.307   8.907  10.598  0.6071 -0.1471 -0.8037
  468MOL0     H64530   5.436   8.816  10.522  1.6622 -0.7301  0.0098
  468MOL0     H64531   5.441   8.914  10.773  0.5955 -0.3525 -1.3055
  468MOL0     H64532   5.354   8.768  10.815  0.3389 -0.9513 -0.3633
  468MOL0     H64533   5.455   8.531  10.779 -0.3026  0.4988  1.7396
  468MOL0     H64534   5.625   8.356  10.896  1.5295 -2.2260  0.2062
  468MOL0     H64535   5.793   8.408  10.889 -0.4827 -0.4448 -0.2313
  468MOL0     H64536   5.627   8.356  10.638 -1.6208 -2.5233  2.5610
  468MOL0     H64537   5.798   8.406  10.639 -1.6419  1.0534 -0.4358
  468MOL0     H64538   5.696   8.145  10.709 -0.1159 -1.1804 -2.1498
  468MOL0     H64539   5.796   8.191  10.561  0.2247  0.9003 -0.7069
  468MOL0     H64540   5.874   8.171  10.853  1.8742 -0.4478  0.7464
  468MOL0     H64541   5.948   8.083  10.719  0.1822 -0.3661 -0.5418
  468MOL0     H64542   6.134   8.057  10.794  0.7624 -0.6303  0.0640
  468MOL0     H64543   6.290   7.914  10.762 -0.9468  0.0289 -0.2029
  468MOL0     H64544   6.438   7.985  10.838 -0.7919  0.1280  0.0045
  468MOL0     H64545   6.441   7.946  10.670 -0.4572  0.0945 -0.8542
  468MOL0     H64546   6.760   8.353  10.355 -0.0699  1.5389 -0.1550
  468MOL0     H64547   6.987   8.410  10.365 -2.7395  0.8070 -1.8910
  468MOL0     H64548   7.263   8.305  10.657 -1.1461  0.5162  0.6398
  468MOL0     H64549   7.197   8.271  10.495  1.3055 -0.4362  0.0632
  468MOL0     H64550   7.404   8.483  10.580  1.7990 -0.8832  0.8109
  468MOL0     H64551   7.451   8.336  10.536  0.3814  0.8118  0.2325
  468MOL0     H64552   7.259   8.492  10.340 -0.4602 -0.3440  0.2422
  468MOL0     H64553   7.367   8.358  10.304  1.1562  2.4667 -1.7168
  468MOL0     H64554   7.568   8.537  10.393  2.0767 -1.5988 -2.4333
  468MOL0     H64555   7.433   8.643  10.362  1.3124 -0.1422  1.1913
  468MOL0     H64556   7.581   8.473  10.181 -1.0928 -0.6896 -0.6346
  468MOL0     H64557   7.429   8.521  10.124  1.7821 -2.4655 -0.5406
  468MOL0     H64558   7.661   8.689  10.226 -0.9915 -0.6119  0.3029
  468MOL0     H64559   7.510   8.768  10.170 -1.2075 -0.6450  1.1780
  468MOL0     H64560   7.535   8.706   9.940  0.4643  5.9209 -0.3789
  468MOL0     H64561   7.677   8.598   9.967  0.9976 -1.0410  3.3503
  468MOL0     H64562   7.801   8.810  10.030  1.7578 -0.6295 -1.0612
  468MOL0     H64563   7.645   8.898  10.009  2.2821  0.9270  0.6120
  468MOL0     H64564   6.984   8.422  10.788  1.8375 -2.6015 -0.4898
  468MOL0     H64565   6.744   8.362  10.783 -2.5813 -0.3340 -1.2212
  468MOL0     H64566   6.395   8.438  10.641  2.8370 -0.2783  0.7906
  468MOL0     H64567   6.171   8.475  10.672  0.7215  0.4602 -2.2717
  468MOL0     H64568   5.603   8.525  10.061 -0.1577 -2.6715 -1.4204
  468MOL0     H64569   5.767   8.330  10.117  1.3880 -1.9568  2.3473
  468MOL0     H64570   6.059   8.113  10.352 -0.3040 -1.3889 -1.6172
  468MOL0     H64571   6.233   7.959  10.374  2.5970  0.5011  2.1015
  468MOL0     H64572   6.557   7.873  10.184 -0.3142 -0.0629 -0.3976
  468MOL0     H64573   6.573   8.040  10.145 -2.6655  2.4008  2.7248
  468MOL0     H64574   6.750   7.930  10.365  1.0221 -1.7019 -1.2705
  468MOL0     H64575   6.783   8.078  10.274 -0.3371  0.7847  2.5672
  468MOL0     H64576   6.793   7.795  10.179  0.3079 -1.0140 -0.2786
  468MOL0     H64577   6.818   7.938  10.075  0.5501 -2.1522 -0.4492
  468MOL0     H64578   6.971   7.840  10.305  0.3614 -1.2262 -0.9905
  468MOL0     H64579   7.004   8.009  10.258  3.5922 -1.3050  1.4236
  468MOL0     H64580   7.235   7.755  10.017  0.6136  1.7855  0.4304
  468MOL0     H64581   6.526   8.239  10.267 -0.5921  2.0515 -0.6861
  468MOL0     H64582   6.476   8.454  10.211 -0.6061  2.7316  2.1257
  468MOL0     H64583   6.350   8.457  10.094  1.2206  0.0801  0.0821
  468MOL0     H64584   6.330   8.539  10.251 -0.3025  0.1243  0.9253
  469MOL0     O64585  10.370  10.885   8.614 -0.2794 -0.1847 -0.0279
  469MOL0     C64586  10.485  10.915   8.656 -0.0212  0.2148  0.1037
  469MOL0     O64587  10.558  11.024   8.611 -0.4084  0.2566 -0.3515
  469MOL0     C64588  10.514  11.139   8.673  0.2968 -0.0013  0.0444
  469MOL0     C64589  10.605  11.217   8.744 -0.8819  0.8470 -0.3358
  469MOL0     C64590  10.572  11.336   8.814  0.5089  0.3016 -0.6546
  469MOL0     C64591  10.441  11.385   8.796 -0.3383  0.2997 -0.7577
  469MOL0     O64592  10.409  11.501   8.860  0.3898  0.1069  0.7319
  469MOL0     C64593  10.273  11.561   8.835  0.6377 -0.0668 -0.0472
  469MOL0     C64594  10.235  11.656   8.941  0.1265 -0.5578  0.6029
  469MOL0     C64595  10.092  11.689   8.923  0.0600 -0.6141  1.0286
  469MOL0     C64596  10.037  11.773   9.032 -0.7519  1.1503 -0.3001
  469MOL0     C64597   9.892  11.795   8.995  0.1290 -0.2853  0.1160
  469MOL0     C64598   9.870  11.919   8.902  0.6350 -0.2410  0.2548
  469MOL0     C64599   9.731  11.897   8.835 -0.6025 -0.5532  0.0228
  469MOL0     C64600   9.617  11.909   8.938  0.6754  0.0705 -1.0712
  469MOL0     N64601   9.630  12.041   9.004 -0.5636  0.0674  0.5835
  469MOL0     C64602   9.672  12.049   9.129  0.0642  0.5980  1.2228
  469MOL0     C64603   9.629  12.166   9.170 -0.2713 -0.6699 -0.3983
  469MOL0     C64604   9.646  12.211   9.311  0.3765  0.7389  0.5277
  469MOL0     C64605   9.537  12.158   9.411 -0.4636 -0.5895  0.0692
  469MOL0     C64606   9.559  12.216   9.548  0.4456 -0.3158  0.1975
  469MOL0     C64607   9.444  12.171   9.646 -0.4974  0.5051 -0.1061
  469MOL0     O64608   9.485  12.048   9.710  0.2508 -0.3111 -0.7282
  469MOL0     C64609   9.393  11.958   9.760 -0.9482  0.0139  0.0265
  469MOL0     C64610   9.383  11.823   9.718 -0.3506 -0.5271 -0.5656
  469MOL0     C64611   9.290  11.735   9.780  0.1042 -0.3042  0.3810
  469MOL0     C64612   9.254  11.603   9.716 -0.0402 -0.6336  0.6957
  469MOL0     C64613   9.217  11.787   9.891  0.5116  0.7180 -0.8298
  469MOL0     C64614   9.109  11.702   9.950 -0.4468  0.4826 -0.6159
  469MOL0     O64615   9.003  11.764  10.015 -0.1897  1.0504  0.0385
  469MOL0     C64616   8.901  11.679  10.067 -0.3933  0.6172 -0.2673
  469MOL0     C64617   8.767  11.712  10.052  0.6007  0.2817  0.0210
  469MOL0     C64618   8.670  11.630  10.118  0.7157 -0.1090  0.9926
  469MOL0     C64619   8.700  11.520  10.202  1.6801 -0.6434  0.8101
  469MOL0     O64620   8.606  11.451  10.265  0.6219  0.8191 -0.3568
  469MOL0     C64621   8.629  11.372  10.380  0.5083 -0.7247  0.2983
  469MOL0     C64622   8.495  11.337  10.441  0.4479  0.4737 -0.2644
  469MOL0     C64623   8.458  11.195  10.407 -0.4005  1.2445  0.2843
  469MOL0     C64624   8.320  11.164  10.478  0.1529 -0.0666  0.9711
  469MOL0     C64625   8.275  11.018  10.455  0.0949 -0.0902  0.1176
  469MOL0     C64626   8.351  10.915  10.541  0.3981 -0.1328  0.4479
  469MOL0     C64627   8.305  10.776  10.494  0.3590 -0.7529 -0.5073
  469MOL0     C64628   8.361  10.665  10.585 -0.0445 -0.0704  0.2373
  469MOL0    Cl64629   8.539  10.649  10.587  0.0991  0.2801 -0.0420
  469MOL0     C64630   8.835  11.493  10.220 -0.3644  1.3396  0.9667
  469MOL0     C64631   8.933  11.574  10.161  0.1823 -0.1358  0.2487
  469MOL0     O64632   9.127  11.581   9.957 -0.3509  0.0129  0.1301
  469MOL0     C64633   9.237  11.923   9.936  0.2641 -0.6377  0.7025
  469MOL0     C64634   9.318  12.008   9.864  0.4435  0.0334  1.0436
  469MOL0     N64635   9.572  12.238   9.066 -0.4776  0.1165 -0.3293
  469MOL0     N64636   9.568  12.158   8.963 -0.2741 -0.1344  0.4895
  469MOL0     C64637  10.355  11.326   8.710  0.6635 -0.0394  0.6093
  469MOL0     C64638  10.384  11.197   8.652 -0.4991 -0.2630 -0.6239
  469MOL0     C64639  10.539  10.829   8.762  0.8658 -0.2012 -0.1910
  469MOL0     C64640  10.683  10.813   8.774  0.0881 -0.1070  0.1198
  469MOL0     C64641  10.735  10.736   8.877  0.5379 -1.0255  0.9462
  469MOL0     C64642  10.655  10.656   8.956 -0.2392  0.2797  0.6307
  469MOL0     O64643  10.710  10.575   9.058 -0.6779 -0.2047  0.7637
  469MOL0     C64644  10.723  10.437   9.019  0.1650  1.0276  0.1186
  469MOL0     C64645  10.862  10.394   9.087  0.0526  0.4436 -0.5080
  469MOL0     C64646  10.976  10.442   8.997 -0.0789  0.6155  0.3557
  469MOL0     C64647  11.112  10.417   9.051 -0.3045  1.0430  0.9681
  469MOL0     C64648  11.228  10.481   8.978  0.8581 -0.5051  0.1957
  469MOL0     C64649  11.316  10.548   8.923  0.0533 -0.1182 -0.1065
  469MOL0     C64650  10.522  10.677   8.948  0.1682  0.3287  0.1066
  469MOL0     C64651  10.453  10.764   8.862  0.0152 -0.7803  0.4773
  469MOL0     C64652  10.300  10.780   8.880 -0.1761 -0.5831  0.3689
  469MOL0     H64653  10.699  11.172   8.775 -2.7282 -0.6582  3.9904
  469MOL0     H64654  10.647  11.381   8.878 -1.0671  0.1274  1.4376
  469MOL0     H64655  10.187  11.494   8.833 -0.8407  1.6757  1.3160
  469MOL0     H64656  10.286  11.622   8.745  1.4848 -0.7139 -0.3762
  469MOL0     H64657  10.252  11.614   9.041  0.2542  1.8317  1.6719
  469MOL0     H64658  10.300  11.743   8.927 -1.4908  0.4004 -1.3738
  469MOL0     H64659  10.085  11.738   8.825  0.3558  2.7314  2.5245
  469MOL0     H64660  10.027  11.602   8.915  1.6225 -1.6861 -1.3427
  469MOL0     H64661  10.052  11.714   9.123  1.9398  2.6396  0.3287
  469MOL0     H64662  10.094  11.866   9.043 -0.8764  1.0045  2.0821
  469MOL0     H64663   9.839  11.812   9.089 -0.2023 -0.9828  0.0652
  469MOL0     H64664   9.839  11.708   8.955  0.2795  0.3167 -1.4623
  469MOL0     H64665   9.871  12.019   8.946 -0.3761 -0.3920  0.6446
  469MOL0     H64666   9.952  11.925   8.830 -0.2976  1.4226 -0.7179
  469MOL0     H64667   9.726  11.799   8.787 -0.6697 -0.7910  0.5066
  469MOL0     H64668   9.724  11.978   8.762  0.2384 -0.0997  0.4238
  469MOL0     H64669   9.516  11.906   8.896  0.3631  2.0173 -0.5641
  469MOL0     H64670   9.610  11.828   9.011 -1.9261 -0.1802 -1.4895
  469MOL0     H64671   9.717  11.970   9.189 -1.5699 -1.4249 -0.0689
  469MOL0     H64672   9.645  12.320   9.315  3.0944  1.0044 -2.1867
  469MOL0     H64673   9.741  12.172   9.350  1.7172 -0.7554 -3.6309
  469MOL0     H64674   9.438  12.192   9.380  0.6816  1.2714 -1.7950
  469MOL0     H64675   9.543  12.049   9.407  2.6596 -0.5271 -0.0351
  469MOL0     H64676   9.661  12.200   9.583  0.8434  1.2263 -0.1723
  469MOL0     H64677   9.553  12.325   9.539  0.9587 -0.0615  2.3970
  469MOL0     H64678   9.423  12.246   9.723  1.5754  1.9751 -0.8763
  469MOL0     H64679   9.357  12.156   9.582  0.7546 -2.9113 -1.2544
  469MOL0     H64680   9.438  11.792   9.629  2.6182  0.2543  0.8623
  469MOL0     H64681   9.283  11.601   9.610  0.8284  1.1356  0.8750
  469MOL0     H64682   9.145  11.595   9.714 -0.1150  0.3196  0.7278
  469MOL0     H64683   9.309  11.530   9.776 -3.5322 -2.0952  2.4032
  469MOL0     H64684   8.742  11.804  10.002  0.7446  0.1406 -0.3115
  469MOL0     H64685   8.564  11.649  10.109  0.6434  0.0366  2.0340
  469MOL0     H64686   8.687  11.281  10.367  1.6834  0.1903 -1.2797
  469MOL0     H64687   8.691  11.432  10.447  1.8114 -0.1680 -1.3355
  469MOL0     H64688   8.515  11.346  10.548  2.8329 -1.7467 -0.4148
  469MOL0     H64689   8.412  11.402  10.413 -1.5871 -1.4950  0.9649
  469MOL0     H64690   8.529  11.120  10.443 -0.4699 -0.2858 -2.4803
  469MOL0     H64691   8.446  11.186  10.298  0.5028  3.7478 -0.0943
  469MOL0     H64692   8.242  11.235  10.447 -0.9686 -0.9351  1.7210
  469MOL0     H64693   8.346  11.172  10.584  2.9394 -0.7972  0.4260
  469MOL0     H64694   8.167  11.002  10.464  0.1839 -1.3787 -0.7899
  469MOL0     H64695   8.301  10.996  10.351 -0.3342  1.6875 -0.4034
  469MOL0     H64696   8.314  10.926  10.644 -1.4700 -2.8270  0.1594
  469MOL0     H64697   8.460  10.928  10.530  0.2501  0.9451  0.1483
  469MOL0     H64698   8.331  10.761  10.389 -1.6626  0.4250 -1.2228
  469MOL0     H64699   8.197  10.768  10.510 -0.1182  2.4412 -1.4770
  469MOL0     H64700   8.320  10.571  10.549  0.8588 -0.6713  0.7603
  469MOL0     H64701   8.335  10.690  10.689  1.0463 -1.0727  0.7664
  469MOL0     H64702   8.875  11.408  10.275  2.5427  3.4672  2.4248
  469MOL0     H64703   9.037  11.557  10.188  0.0247 -2.6870 -0.4264
  469MOL0     H64704   9.181  11.963  10.019  0.4931  1.1556  0.0320
  469MOL0     H64705   9.337  12.110   9.897 -0.9285  0.8401 -0.4788
  469MOL0     H64706  10.261  11.370   8.679  1.2094 -0.4981 -1.9326
  469MOL0     H64707  10.311  11.144   8.592 -0.4766  0.2681 -1.1211
  469MOL0     H64708  10.747  10.864   8.703  0.7633 -0.4378  0.4816
  469MOL0     H64709  10.835  10.757   8.913  0.2611 -0.4848  1.4114
  469MOL0     H64710  10.637  10.379   9.052  0.7860  0.0038  0.0021
  469MOL0     H64711  10.728  10.420   8.911 -2.2156  1.2734 -0.0785
  469MOL0     H64712  10.869  10.286   9.104 -1.3187  0.7879  2.9604
  469MOL0     H64713  10.872  10.441   9.185  0.3551  2.3840 -1.4114
  469MOL0     H64714  10.958  10.397   8.898  0.2255  1.9797 -0.3481
  469MOL0     H64715  10.970  10.551   8.987  1.0215  0.5098 -2.7577
  469MOL0     H64716  11.137  10.311   9.045 -0.7253  1.0112 -1.6017
  469MOL0     H64717  11.112  10.445   9.156  0.5613 -0.7107  1.4605
  469MOL0     H64718  11.402  10.584   8.871 -0.2658  0.6338 -0.1431
  469MOL0     H64719  10.466  10.634   9.030 -1.3193  1.6765 -0.1503
  469MOL0     H64720  10.239  10.790   8.790 -1.4332  1.8914  1.3989
  469MOL0     H64721  10.271  10.704   8.953 -0.9912 -0.2428  0.4108
  469MOL0     H64722  10.296  10.879   8.926 -0.2821 -0.4164  0.0044
  470MOL0     O64723   3.881  10.958   3.327  0.0199  0.0644  0.6451
  470MOL0     C64724   3.849  11.069   3.299 -0.0835 -0.2105  0.8686
  470MOL0     O64725   3.941  11.169   3.269  0.1185  0.4502  0.0125
  470MOL0     C64726   4.076  11.156   3.270 -0.6504  0.5583  0.1640
  470MOL0     C64727   4.141  11.042   3.326 -0.8439  0.0758  0.6288
  470MOL0     C64728   4.279  11.038   3.337 -0.0022 -0.4249  0.1437
  470MOL0     C64729   4.364  11.145   3.289 -0.2927  1.2050 -0.8471
  470MOL0     O64730   4.506  11.121   3.305  0.8804 -0.2549 -0.7365
  470MOL0     C64731   4.602  11.192   3.235  0.1442  0.4727  0.3229
  470MOL0     C64732   4.739  11.158   3.291 -0.7692  0.5046  0.5921
  470MOL0     C64733   4.766  11.000   3.275 -0.3197  0.4071  0.8986
  470MOL0     C64734   4.737  10.939   3.409 -0.1759 -0.0806 -0.0164
  470MOL0     C64735   4.806  10.803   3.423 -0.1907  0.2627 -1.0377
  470MOL0     C64736   4.956  10.827   3.461  0.0412  0.3472 -0.4504
  470MOL0     C64737   5.040  10.706   3.418  0.4980  0.0507 -0.3269
  470MOL0     C64738   5.058  10.713   3.268 -0.0666  0.2193 -0.2479
  470MOL0     N64739   5.173  10.636   3.220 -0.2452  0.1771 -0.2572
  470MOL0     C64740   5.195  10.498   3.202 -0.5597  0.2432  0.7348
  470MOL0     C64741   5.310  10.484   3.137  0.1358 -0.5891 -0.0218
  470MOL0     C64742   5.380  10.349   3.106 -0.8812  0.3828  0.0172
  470MOL0     C64743   5.513  10.364   3.018  1.0534 -0.1318  0.0716
  470MOL0     C64744   5.606  10.238   3.007  0.6932 -0.3483 -0.3351
  470MOL0     C64745   5.749  10.271   2.954 -0.1260 -0.0163  0.2260
  470MOL0     O64746   5.834  10.152   2.952 -0.0962  0.1414  0.4574
  470MOL0     C64747   5.937  10.163   3.044 -0.3946  0.5137  0.0397
  470MOL0     C64748   5.940  10.121   3.180  0.3741 -0.2754 -1.0338
  470MOL0     C64749   6.059  10.125   3.261 -0.4232 -0.1413 -0.1269
  470MOL0     C64750   6.053  10.065   3.407  0.4798  0.5579  0.5119
  470MOL0     C64751   6.166  10.202   3.211 -0.3952 -0.7664 -0.0051
  470MOL0     C64752   6.277  10.243   3.297 -0.1096 -0.4848 -0.2463
  470MOL0     O64753   6.349  10.339   3.241 -0.5555  0.0866 -0.2660
  470MOL0     C64754   6.462  10.369   3.308 -0.0220 -0.5372 -0.0418
  470MOL0     C64755   6.567  10.277   3.312  0.5954  0.4815 -0.1478
  470MOL0     C64756   6.686  10.312   3.386  0.9419 -0.1572  0.8310
  470MOL0     C64757   6.694  10.431   3.455 -0.6359  0.5985 -0.0043
  470MOL0     O64758   6.803  10.478   3.523 -0.3341 -0.0217 -0.2198
  470MOL0     C64759   6.920  10.468   3.447 -0.0728  0.1572 -0.1127
  470MOL0     C64760   7.025  10.527   3.545 -0.1392  0.1330  0.6112
  470MOL0     C64761   7.063  10.416   3.655  0.5897  0.1763 -0.7827
  470MOL0     C64762   7.200  10.442   3.718 -0.4790  0.0173 -0.0155
  470MOL0     C64763   7.216  10.347   3.837 -0.0002  0.2704  0.1893
  470MOL0     C64764   7.350  10.362   3.890  0.8242 -0.5083  0.2294
  470MOL0     C64765   7.451  10.271   3.822  0.3559  0.6301 -0.1494
  470MOL0     C64766   7.583  10.340   3.816 -0.9069 -0.1633 -0.2596
  470MOL0    Cl64767   7.587  10.491   3.719  0.1789 -0.0295  0.3000
  470MOL0     C64768   6.587  10.517   3.452 -0.5126  0.3816 -0.1721
  470MOL0     C64769   6.471  10.486   3.378  0.3382  0.0126  0.2223
  470MOL0     O64770   6.306  10.163   3.386  0.6178 -0.3881 -0.2046
  470MOL0     C64771   6.165  10.245   3.072  0.1070  1.0177 -0.5981
  470MOL0     C64772   6.053  10.216   2.991 -0.1393  0.4532  0.0276
  470MOL0     N64773   5.349  10.614   3.105 -0.2120 -0.1721  0.2035
  470MOL0     N64774   5.280  10.701   3.167 -1.1026  0.6970  0.0428
  470MOL0     C64775   4.299  11.253   3.231  0.7395  0.3831 -0.4965
  470MOL0     C64776   4.161  11.257   3.219  0.2113 -0.8941 -0.3947
  470MOL0     C64777   3.707  11.108   3.303 -0.0427 -0.2635  0.2369
  470MOL0     C64778   3.684  11.232   3.234  0.9406 -0.0650  0.0003
  470MOL0     C64779   3.551  11.284   3.231 -0.0753  0.1711 -0.5570
  470MOL0     C64780   3.454  11.228   3.313 -0.1453  1.0707 -1.3232
  470MOL0     O64781   3.341  11.284   3.350 -0.1538  0.1985 -0.3915
  470MOL0     C64782   3.236  11.295   3.253 -0.1006 -0.0468  0.2237
  470MOL0     C64783   3.147  11.162   3.233 -0.0690 -1.5041 -0.1451
  470MOL0     C64784   3.010  11.194   3.169  0.0055  0.0807 -0.6023
  470MOL0     C64785   2.926  11.073   3.140 -0.1312  0.2186 -0.2099
  470MOL0     C64786   2.977  10.999   3.016 -0.2375  0.0033 -0.5209
  470MOL0     C64787   3.019  10.951   2.918 -0.3199 -0.3490 -0.6745
  470MOL0     C64788   3.474  11.108   3.381  0.0685 -0.2305  0.3087
  470MOL0     C64789   3.597  11.042   3.369  0.4577 -0.4922 -0.6118
  470MOL0     C64790   3.601  10.916   3.449  0.0395  0.0664 -0.3071
  470MOL0     H64791   4.094  10.959   3.378 -4.3523  2.2765  1.2616
  470MOL0     H64792   4.319  10.953   3.392  0.8416  0.7028  1.3180
  470MOL0     H64793   4.578  11.298   3.241 -2.5123  0.0929 -1.5004
  470MOL0     H64794   4.596  11.168   3.128 -0.9389 -0.8223  0.6404
  470MOL0     H64795   4.822  11.208   3.241 -1.2728  0.6317 -0.1272
  470MOL0     H64796   4.733  11.191   3.395 -1.4007 -0.1439  0.7753
  470MOL0     H64797   4.712  10.961   3.189  1.7583  2.0644 -1.2826
  470MOL0     H64798   4.866  10.979   3.236 -1.5251 -1.0855 -1.6134
  470MOL0     H64799   4.779  11.006   3.485  0.1694  0.8522 -1.0029
  470MOL0     H64800   4.630  10.926   3.426 -0.1458 -0.2424  0.0467
  470MOL0     H64801   4.808  10.738   3.335 -1.2117  0.0787 -0.9342
  470MOL0     H64802   4.759  10.755   3.509 -1.6107 -0.0107 -1.9321
  470MOL0     H64803   4.997  10.915   3.410  0.4941  0.8728  0.7781
  470MOL0     H64804   4.966  10.832   3.569  0.8628 -2.2923 -0.3294
  470MOL0     H64805   5.010  10.604   3.443  4.3785 -1.3589 -0.6507
  470MOL0     H64806   5.142  10.720   3.457  1.2437 -2.6396 -1.0595
  470MOL0     H64807   4.969  10.665   3.227 -0.9198 -2.6842  4.3107
  470MOL0     H64808   5.059  10.817   3.235  0.8138  1.4161  3.1535
  470MOL0     H64809   5.114  10.433   3.234  0.5646 -2.0811 -0.9083
  470MOL0     H64810   5.324  10.275   3.049  3.9077 -1.4840 -2.9103
  470MOL0     H64811   5.407  10.305   3.202  0.4753  2.8231  0.8534
  470MOL0     H64812   5.478  10.401   2.921 -4.2616  0.7863  2.0100
  470MOL0     H64813   5.567  10.445   3.068 -2.5887  1.8102  1.2877
  470MOL0     H64814   5.599  10.186   3.103 -0.4056 -1.6010 -1.0571
  470MOL0     H64815   5.559  10.180   2.927  0.0972  1.6109 -1.4637
  470MOL0     H64816   5.738  10.317   2.855 -0.2568  1.4312  0.8947
  470MOL0     H64817   5.793  10.351   3.014  0.4732  1.0933 -1.5949
  470MOL0     H64818   5.851  10.077   3.223  0.6467 -0.5067 -0.7036
  470MOL0     H64819   5.967  10.003   3.432  1.1903 -0.5788  0.2323
  470MOL0     H64820   6.058  10.145   3.481  0.1178 -2.1216  3.6579
  470MOL0     H64821   6.140  10.004   3.432  0.2048  0.6815  1.8170
  470MOL0     H64822   6.558  10.181   3.263  3.5658  1.3547 -2.7617
  470MOL0     H64823   6.765  10.238   3.396  0.3357 -1.0496 -0.5600
  470MOL0     H64824   6.942  10.363   3.425  1.3364  0.3138  0.4092
  470MOL0     H64825   6.906  10.523   3.354  1.8368  3.2513  1.2609
  470MOL0     H64826   7.114  10.541   3.482  1.1924 -2.7874  1.6388
  470MOL0     H64827   6.989  10.608   3.608 -0.7849 -1.5309  2.4733
  470MOL0     H64828   7.074  10.317   3.610  2.0065  0.8961 -2.1136
  470MOL0     H64829   6.977  10.414   3.722  1.1472  0.6679 -0.0194
  470MOL0     H64830   7.208  10.547   3.749 -2.8543  0.1030  0.5222
  470MOL0     H64831   7.271  10.411   3.642 -1.0098  0.1743 -0.5820
  470MOL0     H64832   7.137  10.365   3.911  0.0102  0.1112  0.2403
  470MOL0     H64833   7.200  10.241   3.814  1.0593  0.0527  0.4076
  470MOL0     H64834   7.349  10.342   3.997  0.4274  2.9975  1.0090
  470MOL0     H64835   7.386  10.466   3.885  0.4785 -0.4539 -2.5369
  470MOL0     H64836   7.418  10.253   3.719 -0.5181  2.6775 -0.2696
  470MOL0     H64837   7.458  10.171   3.866  1.6544  0.2236 -1.2125
  470MOL0     H64838   7.661  10.279   3.769 -1.4576 -0.7843 -0.3778
  470MOL0     H64839   7.616  10.353   3.919 -1.8448 -3.8751  0.6573
  470MOL0     H64840   6.598  10.609   3.510  2.5030  1.1679 -1.7940
  470MOL0     H64841   6.384  10.551   3.372  0.0874 -0.4442 -1.5302
  470MOL0     H64842   6.254  10.290   3.030  1.3528 -1.1637 -0.4571
  470MOL0     H64843   6.051  10.231   2.883 -1.2002 -0.0421 -0.0323
  470MOL0     H64844   4.363  11.326   3.182  0.4174  1.8490  1.1468
  470MOL0     H64845   4.101  11.339   3.180 -1.8208 -0.3222  3.4950
  470MOL0     H64846   3.766  11.282   3.184  2.8464 -1.5327  1.5018
  470MOL0     H64847   3.534  11.379   3.181  3.8729  1.3621  0.0191
  470MOL0     H64848   3.168  11.375   3.282 -1.0015 -0.6426 -0.1878
  470MOL0     H64849   3.279  11.313   3.154  0.0128 -3.8722 -0.5875
  470MOL0     H64850   3.136  11.115   3.331 -0.3536  0.7305  0.9692
  470MOL0     H64851   3.205  11.095   3.170 -0.2597 -1.1095 -0.7467
  470MOL0     H64852   2.958  11.271   3.227  2.6118  1.0996  0.5516
  470MOL0     H64853   3.035  11.242   3.074 -0.3659 -0.6169 -1.0598
  470MOL0     H64854   2.819  11.097   3.142 -0.2612 -0.4061  0.9215
  470MOL0     H64855   2.948  11.006   3.224  1.7042 -0.0359 -0.8442
  470MOL0     H64856   3.079  10.902   2.844  3.0745  0.5007  1.3367
  470MOL0     H64857   3.385  11.063   3.425 -2.9206  1.0780 -3.7169
  470MOL0     H64858   3.674  10.844   3.410 -1.7805 -2.0940  0.0542
  470MOL0     H64859   3.618  10.939   3.555 -1.9084 -0.2430  0.1189
  470MOL0     H64860   3.509  10.858   3.433  0.1499  0.1023 -1.1247
  471MOL0     O64861   9.863   6.918   9.977 -0.7736  0.0207 -0.2929
  471MOL0     C64862   9.908   7.029   9.984  0.7472  0.0827  0.4354
  471MOL0     O64863   9.851   7.134  10.045 -0.3245 -0.3466 -0.6390
  471MOL0     C64864   9.744   7.099  10.131  0.3159 -0.2423 -0.4178
  471MOL0     C64865   9.743   6.999  10.230  0.2885 -0.5265 -0.0696
  471MOL0     C64866   9.636   6.993  10.320 -0.3717  0.5098  0.7415
  471MOL0     C64867   9.529   7.083  10.318  0.1830  0.3555  0.5385
  471MOL0     O64868   9.434   7.090  10.419 -0.5195 -1.0584 -0.1929
  471MOL0     C64869   9.330   7.197  10.414  0.2456 -0.3418 -0.0059
  471MOL0     C64870   9.198   7.130  10.364  0.1693  0.7225 -0.6307
  471MOL0     C64871   9.068   7.208  10.391 -0.3230  0.3871  0.7004
  471MOL0     C64872   9.081   7.340  10.319 -0.5446 -0.1419 -0.3510
  471MOL0     C64873   8.951   7.424  10.337 -0.3556  0.5296 -0.5771
  471MOL0     C64874   8.943   7.559  10.270  0.4789  0.2084  0.3964
  471MOL0     C64875   8.979   7.544  10.125  0.3966  0.2658  0.8384
  471MOL0     C64876   8.998   7.690  10.071 -0.8047 -0.2191 -0.3006
  471MOL0     N64877   9.066   7.692   9.934 -0.7740 -0.2126  0.4881
  471MOL0     C64878   9.174   7.776   9.895 -0.3691  0.8842  0.1465
  471MOL0     C64879   9.198   7.757   9.763  0.1635  0.1766 -0.1345
  471MOL0     C64880   9.307   7.799   9.678 -0.0264 -0.9492 -0.2295
  471MOL0     C64881   9.373   7.683   9.606  0.3313 -0.2609  0.1044
  471MOL0     C64882   9.441   7.570   9.689  0.6300 -0.6110 -0.5469
  471MOL0     C64883   9.508   7.469   9.598 -0.5896 -1.2894 -0.3152
  471MOL0     O64884   9.566   7.367   9.690  0.5245 -0.2981  0.2882
  471MOL0     C64885   9.649   7.275   9.631  0.7615 -0.6328  1.2186
  471MOL0     C64886   9.677   7.257   9.493  0.6628  0.3833  0.3495
  471MOL0     C64887   9.763   7.164   9.436 -0.4091  1.1934  0.0553
  471MOL0     C64888   9.771   7.155   9.288  0.4050  0.6172 -0.1022
  471MOL0     C64889   9.842   7.069   9.521  0.3234  0.3016  0.8271
  471MOL0     C64890   9.924   6.953   9.475  0.5278 -1.3142  0.1787
  471MOL0     O64891   9.989   6.887   9.574 -0.1106  0.1374  0.7520
  471MOL0     C64892  10.115   6.834   9.543  0.4332  0.9396  0.6814
  471MOL0     C64893  10.214   6.897   9.462  0.0645  0.4760 -0.1421
  471MOL0     C64894  10.336   6.833   9.440 -0.5054 -0.7911 -0.2400
  471MOL0     C64895  10.364   6.710   9.491  0.0764  0.7722 -0.4356
  471MOL0     O64896  10.479   6.654   9.463  0.3195  0.1645  0.2056
  471MOL0     C64897  10.515   6.520   9.498  0.4573  0.8490  0.1853
  471MOL0     C64898  10.643   6.475   9.448  0.0641 -0.8975 -0.2692
  471MOL0     C64899  10.687   6.341   9.516  0.5217 -0.2981  0.7176
  471MOL0     C64900  10.827   6.305   9.473 -0.2888 -0.6366 -1.4478
  471MOL0     C64901  10.899   6.192   9.546  0.2368  0.0809 -0.0083
  471MOL0     C64902  11.028   6.160   9.481  0.0143 -0.3526 -0.0551
  471MOL0     C64903  11.090   6.052   9.566 -0.6434  0.2367  0.1514
  471MOL0     C64904  11.246   6.033   9.534  1.3675 -0.6976 -0.7839
  471MOL0    Cl64905  11.332   5.919   9.623 -0.2345  0.0868 -0.1624
  471MOL0     C64906  10.263   6.645   9.564 -0.8140 -0.3143 -0.0376
  471MOL0     C64907  10.145   6.706   9.592  0.3187 -0.2197  0.2294
  471MOL0     O64908   9.944   6.946   9.357  0.3101  0.0531  0.2019
  471MOL0     C64909   9.810   7.089   9.655 -0.5697 -0.2205  0.6617
  471MOL0     C64910   9.725   7.185   9.709  0.1334 -0.2391  0.2123
  471MOL0     N64911   9.101   7.663   9.730 -0.3202 -0.6243  0.5974
  471MOL0     N64912   9.011   7.643   9.824  0.4058  0.4108  0.9165
  471MOL0     C64913   9.526   7.172  10.205  0.2371 -0.7230 -0.2056
  471MOL0     C64914   9.633   7.177  10.114  0.1856 -0.6571  0.3271
  471MOL0     C64915  10.043   7.043   9.919  0.2436 -0.1318  0.0613
  471MOL0     C64916  10.085   7.165   9.870  0.3017  0.4335 -0.2414
  471MOL0     C64917  10.198   7.191   9.802 -0.1598 -0.2527 -0.2256
  471MOL0     C64918  10.287   7.089   9.771 -0.2417  0.2238 -0.3298
  471MOL0     O64919  10.405   7.126   9.713 -0.0535 -0.7119 -0.1117
  471MOL0     C64920  10.508   7.023   9.690  0.1475 -0.6162  0.3991
  471MOL0     C64921  10.636   7.058   9.767 -0.4239  0.6436  0.4089
  471MOL0     C64922  10.689   7.205   9.754 -0.0379  0.7715 -0.2537
  471MOL0     C64923  10.817   7.211   9.831  0.0429  0.0930 -1.1069
  471MOL0     C64924  10.924   7.128   9.762  0.6586 -0.1075 -0.2993
  471MOL0     C64925  11.003   7.049   9.724 -0.5568  0.1396  0.1993
  471MOL0     C64926  10.255   6.965   9.817 -0.1046 -0.3241 -0.0648
  471MOL0     C64927  10.132   6.933   9.882 -0.5757  0.2036 -0.3756
  471MOL0     C64928  10.106   6.789   9.919 -0.4030  0.5023  0.5767
  471MOL0     H64929   9.825   6.933  10.257  1.7875  0.9291 -0.8421
  471MOL0     H64930   9.639   6.913  10.394  0.7734  0.6789  0.8936
  471MOL0     H64931   9.346   7.278  10.343 -2.3434  0.7835  0.5933
  471MOL0     H64932   9.316   7.251  10.508  2.0191  0.5497 -0.2221
  471MOL0     H64933   9.208   7.093  10.262 -1.3050 -1.6964  0.0045
  471MOL0     H64934   9.198   7.031  10.411  3.2025  0.7581 -0.3673
  471MOL0     H64935   8.992   7.144  10.344  0.9973 -0.2483 -0.6643
  471MOL0     H64936   9.035   7.221  10.495  0.6122 -0.4581  1.1230
  471MOL0     H64937   9.162   7.393  10.371 -0.0798  0.4014 -1.5762
  471MOL0     H64938   9.117   7.321  10.217  2.7609 -0.2200  0.7135
  471MOL0     H64939   8.924   7.425  10.443  1.9382  1.1484  0.0630
  471MOL0     H64940   8.867   7.373  10.289  1.0591 -2.9223  0.3693
  471MOL0     H64941   8.849   7.613  10.282  0.4949 -0.0143  1.6530
  471MOL0     H64942   9.013   7.625  10.322 -1.0536  0.8353  1.7448
  471MOL0     H64943   8.910   7.482  10.067  1.8050 -0.7137  0.1264
  471MOL0     H64944   9.076   7.497  10.102 -0.5039 -0.7859 -1.1049
  471MOL0     H64945   8.892   7.719  10.071 -1.2551 -1.6712  1.5364
  471MOL0     H64946   9.051   7.750  10.145 -1.8630  0.0191  0.2965
  471MOL0     H64947   9.226   7.839   9.967  0.9600 -0.4347  0.3973
  471MOL0     H64948   9.388   7.842   9.737 -1.8215  0.5095  1.2887
  471MOL0     H64949   9.270   7.877   9.611  4.5227  1.2994 -0.5049
  471MOL0     H64950   9.297   7.636   9.542  2.0966  1.5775 -3.6964
  471MOL0     H64951   9.439   7.723   9.528 -1.0140  1.8421 -0.0419
  471MOL0     H64952   9.516   7.611   9.757  0.3351 -2.0895  0.7462
  471MOL0     H64953   9.366   7.517   9.748 -0.3506 -0.4191 -1.5684
  471MOL0     H64954   9.442   7.422   9.524  0.6247 -3.0178 -0.3668
  471MOL0     H64955   9.591   7.515   9.545 -0.1153 -0.8319  0.7989
  471MOL0     H64956   9.630   7.319   9.418  1.6250  2.8840  1.6783
  471MOL0     H64957   9.875   7.144   9.256  1.0612  3.8175  0.5129
  471MOL0     H64958   9.730   7.243   9.237  0.0656  2.5729  3.2331
  471MOL0     H64959   9.706   7.074   9.255  3.1155 -2.0331  0.6123
  471MOL0     H64960  10.198   6.998   9.426  2.1176  0.5574 -0.9450
  471MOL0     H64961  10.419   6.875   9.385  1.3397 -3.4049  0.3202
  471MOL0     H64962  10.514   6.524   9.607  1.6998 -1.3545  0.3269
  471MOL0     H64963  10.437   6.455   9.456  0.1392  0.6745  1.0332
  471MOL0     H64964  10.634   6.460   9.340 -1.3450 -1.1025 -0.1329
  471MOL0     H64965  10.715   6.555   9.468  0.5695 -1.3869 -0.0963
  471MOL0     H64966  10.616   6.264   9.488 -0.3391  0.9986 -0.8217
  471MOL0     H64967  10.678   6.354   9.624  2.4745 -1.7228  1.1043
  471MOL0     H64968  10.896   6.390   9.468 -2.3742  1.1355 -1.3345
  471MOL0     H64969  10.820   6.275   9.368  1.2321  2.7522 -2.6654
  471MOL0     H64970  10.902   6.223   9.651  0.6947 -0.1658  0.0547
  471MOL0     H64971  10.836   6.103   9.553  1.0071 -0.4249  0.6107
  471MOL0     H64972  11.100   6.240   9.463 -0.6537  0.7411  1.9132
  471MOL0     H64973  10.997   6.114   9.387  0.9231  0.2535 -0.6693
  471MOL0     H64974  11.039   5.957   9.548  2.3021 -1.4013 -0.2083
  471MOL0     H64975  11.087   6.070   9.674  2.3349 -0.6953  0.4879
  471MOL0     H64976  11.304   6.126   9.538 -1.4331  1.1458  0.0614
  471MOL0     H64977  11.247   5.999   9.430  0.6615 -2.8513 -0.1499
  471MOL0     H64978  10.276   6.541   9.594 -0.3995 -1.0101 -2.3570
  471MOL0     H64979  10.066   6.660   9.649 -0.8345  1.1147 -0.2364
  471MOL0     H64980   9.866   7.033   9.730  0.1572 -0.9490 -0.3874
  471MOL0     H64981   9.709   7.184   9.817 -1.8722 -4.1822  0.0665
  471MOL0     H64982   9.448   7.244  10.183  0.1860 -1.2341 -1.8209
  471MOL0     H64983   9.631   7.250  10.034  1.2901 -1.2644 -0.2681
  471MOL0     H64984  10.022   7.248   9.900 -0.2949 -0.9788  2.7359
  471MOL0     H64985  10.222   7.294   9.776  0.4367 -0.3455 -0.0753
  471MOL0     H64986  10.475   6.923   9.719 -4.6341 -0.0175 -1.9916
  471MOL0     H64987  10.528   7.037   9.583 -4.0019  1.5587 -0.3265
  471MOL0     H64988  10.716   6.998   9.723 -2.7091 -0.6279 -2.2950
  471MOL0     H64989  10.623   7.035   9.874  1.2712 -0.9890  0.3160
  471MOL0     H64990  10.724   7.216   9.651  0.6825 -3.6076 -0.7006
  471MOL0     H64991  10.606   7.266   9.791 -1.5538 -1.6775  0.7174
  471MOL0     H64992  10.807   7.174   9.933 -0.8388 -1.2312 -1.6416
  471MOL0     H64993  10.841   7.317   9.835  2.8211 -0.3446 -2.8636
  471MOL0     H64994  11.078   6.981   9.688 -0.7734 -1.3843  2.4573
  471MOL0     H64995  10.308   6.874   9.791 -1.8416 -0.9144 -1.8343
  471MOL0     H64996  10.180   6.722   9.874  2.0468  2.5640  1.2232
  471MOL0     H64997  10.104   6.775  10.028 -0.4341  1.8464  0.7700
  471MOL0     H64998  10.009   6.768   9.873  1.4304  1.9291 -4.6785
  472MOL0     O64999   4.625  10.093   6.798  0.2520 -0.4467 -0.1472
  472MOL0     C65000   4.568   9.998   6.753  0.9917  0.1005 -0.2908
  472MOL0     O65001   4.574   9.952   6.624 -0.9243 -0.0356  0.0168
  472MOL0     C65002   4.694   9.962   6.560 -0.2111  0.0892  0.4136
  472MOL0     C65003   4.696   9.962   6.419  0.5792  0.0365  0.0789
  472MOL0     C65004   4.810   9.968   6.345  0.1834 -0.6189  0.2346
  472MOL0     C65005   4.931   9.984   6.409 -0.3421 -0.0104 -0.7131
  472MOL0     O65006   5.050  10.000   6.345 -0.4178  0.5986 -0.4381
  472MOL0     C65007   5.086   9.930   6.221 -0.3831 -0.3043 -0.1359
  472MOL0     C65008   5.211  10.003   6.164 -0.2717 -0.7768  0.6285
  472MOL0     C65009   5.328   9.978   6.247  0.9437 -0.0436 -0.1718
  472MOL0     C65010   5.456  10.055   6.203 -0.8216 -0.2902 -0.3553
  472MOL0     C65011   5.569  10.049   6.303 -0.2514 -0.0194 -0.5710
  472MOL0     C65012   5.679  10.150   6.293 -0.5768  0.1343  0.5261
  472MOL0     C65013   5.777  10.126   6.177  0.3066  0.5950  0.3555
  472MOL0     C65014   5.914  10.193   6.194 -0.4493  0.1841 -0.2779
  472MOL0     N65015   6.027  10.118   6.254  0.6434 -0.2949  0.4895
  472MOL0     C65016   6.135  10.086   6.182 -0.7586 -0.0950 -0.4931
  472MOL0     C65017   6.213  10.032   6.278  0.0220  0.3632  0.5106
  472MOL0     C65018   6.345   9.966   6.243 -0.0927 -0.1746 -0.0035
  472MOL0     C65019   6.473  10.046   6.260  0.4573 -0.2103  0.5655
  472MOL0     C65020   6.508  10.049   6.407 -0.7412  0.9249  0.3746
  472MOL0     C65021   6.629  10.132   6.441  0.3635 -0.0543  0.8393
  472MOL0     O65022   6.741  10.105   6.354  0.4873 -0.2634  0.9758
  472MOL0     C65023   6.860  10.181   6.370 -1.2502  0.1704 -0.2035
  472MOL0     C65024   6.966  10.150   6.284 -0.1289  0.0608  0.2291
  472MOL0     C65025   7.076  10.232   6.274 -0.2829 -0.1148 -0.1584
  472MOL0     C65026   7.183  10.191   6.178 -0.7863 -0.5319  0.5145
  472MOL0     C65027   7.106  10.320   6.377  0.6857 -0.1664  0.3542
  472MOL0     C65028   7.242  10.378   6.399  0.6814 -0.9861  0.7405
  472MOL0     O65029   7.349  10.294   6.369 -0.3730 -0.6276 -0.1072
  472MOL0     C65030   7.472  10.338   6.401  0.7157  0.0730  0.2972
  472MOL0     C65031   7.518  10.461   6.351 -0.2423 -0.2953 -0.2652
  472MOL0     C65032   7.649  10.497   6.391 -1.6166  0.0200 -0.0216
  472MOL0     C65033   7.728  10.413   6.468  0.1899  0.2208 -0.0134
  472MOL0     O65034   7.864  10.438   6.501  1.2568 -0.0601 -0.5428
  472MOL0     C65035   7.952  10.462   6.394  0.0067  0.3058 -0.5869
  472MOL0     C65036   8.092  10.415   6.439  0.1540 -0.0515 -0.3062
  472MOL0     C65037   8.204  10.471   6.347 -0.9333  0.6689 -0.5649
  472MOL0     C65038   8.339  10.401   6.371 -0.3558 -0.5198  0.3941
  472MOL0     C65039   8.447  10.477   6.291 -0.1660  0.2778  0.4257
  472MOL0     C65040   8.596  10.414   6.301  0.4128  0.1811  0.2387
  472MOL0     C65041   8.604  10.268   6.267  0.1147  0.4251  0.4578
  472MOL0     C65042   8.723  10.244   6.178 -0.3273 -0.0272 -0.4735
  472MOL0    Cl65043   8.874  10.264   6.282 -0.0062 -0.3145 -0.1141
  472MOL0     C65044   7.679  10.287   6.507 -0.4238  0.2783  0.6643
  472MOL0     C65045   7.553  10.250   6.475  1.4243  0.5460  0.3218
  472MOL0     O65046   7.247  10.492   6.445  0.3546 -0.0442  0.6952
  472MOL0     C65047   7.003  10.349   6.466 -0.0297  0.5800  0.3165
  472MOL0     C65048   6.883  10.285   6.456 -0.5383 -0.5535 -0.6424
  472MOL0     N65049   6.144  10.023   6.400  0.2631  0.6292  0.2977
  472MOL0     N65050   6.035  10.086   6.382  0.3202  0.3309  0.0615
  472MOL0     C65051   4.934   9.986   6.546 -0.3263  0.2474 -0.7839
  472MOL0     C65052   4.818   9.981   6.618  0.2559 -0.1153  0.4310
  472MOL0     C65053   4.471   9.930   6.845 -0.3825 -0.1344  0.3958
  472MOL0     C65054   4.349   9.872   6.802  0.2357 -0.0739 -0.8356
  472MOL0     C65055   4.276   9.792   6.896 -0.2085 -0.5356 -0.2271
  472MOL0     C65056   4.319   9.769   7.026 -1.1425 -0.8075 -0.3172
  472MOL0     O65057   4.240   9.692   7.107  0.2231  1.0067  0.0131
  472MOL0     C65058   4.273   9.660   7.242 -0.4825  0.2141  0.8336
  472MOL0     C65059   4.227   9.770   7.334 -0.4800 -0.0491 -0.1483
  472MOL0     C65060   4.283   9.741   7.487  0.1257  0.9337  0.4794
  472MOL0     C65061   4.435   9.761   7.505  0.4166  0.5372 -0.4590
  472MOL0     C65062   4.476   9.894   7.462  0.0066  0.0408  0.3485
  472MOL0     C65063   4.508  10.006   7.413 -0.4157  0.2448  0.4689
  472MOL0     C65064   4.442   9.827   7.069 -0.0714  0.3625  1.0458
  472MOL0     C65065   4.521   9.901   6.974  0.0843  1.0333  0.2488
  472MOL0     C65066   4.661   9.941   7.024  0.5559  0.0275  0.1825
  472MOL0     H65067   4.602   9.958   6.365  0.8575  2.4871 -0.6922
  472MOL0     H65068   4.800   9.964   6.237  1.9188  1.1576 -0.0590
  472MOL0     H65069   5.003   9.942   6.151 -0.9587 -0.2713  0.5413
  472MOL0     H65070   5.103   9.824   6.243 -1.0817 -0.4762 -0.3948
  472MOL0     H65071   5.236   9.970   6.062  0.7177  2.7705 -0.4406
  472MOL0     H65072   5.183  10.109   6.169 -1.4044 -0.9689 -0.7881
  472MOL0     H65073   5.308   9.996   6.353  1.6816 -0.7368  0.1032
  472MOL0     H65074   5.339   9.869   6.241 -1.1372 -0.5250  2.8162
  472MOL0     H65075   5.479  10.029   6.099  1.7922 -2.5085  0.6660
  472MOL0     H65076   5.431  10.161   6.207  1.4598  0.2436  1.6790
  472MOL0     H65077   5.605   9.947   6.317 -0.4455  0.0743  0.7665
  472MOL0     H65078   5.523  10.070   6.400  1.1995  0.2555  0.0940
  472MOL0     H65079   5.642  10.249   6.265 -2.9234 -0.5999  0.7803
  472MOL0     H65080   5.739  10.151   6.384  1.9879 -2.3681 -0.9809
  472MOL0     H65081   5.729  10.153   6.082 -1.2179 -0.5854  0.7649
  472MOL0     H65082   5.800  10.020   6.164  0.3363  0.6612 -0.1823
  472MOL0     H65083   5.947  10.204   6.090  0.5607  2.0097  0.1954
  472MOL0     H65084   5.894  10.293   6.234  0.7046  0.2427  0.1717
  472MOL0     H65085   6.158  10.088   6.076  2.3498 -1.0177  0.0658
  472MOL0     H65086   6.343   9.942   6.136  0.3431 -2.0488  0.3805
  472MOL0     H65087   6.350   9.875   6.303 -1.2341  0.6597  1.4341
  472MOL0     H65088   6.549   9.994   6.200 -0.2518  0.7458 -1.2534
  472MOL0     H65089   6.457  10.147   6.220  1.9240 -0.1341  0.1021
  472MOL0     H65090   6.421  10.083   6.462 -0.0867  2.5036  0.4947
  472MOL0     H65091   6.530   9.948   6.441  0.8735  1.7051  1.7937
  472MOL0     H65092   6.593  10.235   6.439 -0.5247 -0.3584 -1.0909
  472MOL0     H65093   6.647  10.115   6.547  0.3965  1.2744  1.0606
  472MOL0     H65094   6.954  10.079   6.203  0.3920 -0.7541  0.8486
  472MOL0     H65095   7.252  10.112   6.211  0.3967 -0.5477 -1.7719
  472MOL0     H65096   7.245  10.280   6.162  0.1151 -0.6197  3.0749
  472MOL0     H65097   7.131  10.160   6.087  1.1887 -1.3719 -0.3882
  472MOL0     H65098   7.461  10.529   6.290 -1.1553  0.9057  1.8115
  472MOL0     H65099   7.696  10.591   6.366 -1.5283  0.4498  1.6221
  472MOL0     H65100   7.921  10.411   6.303 -1.5981  0.6690 -0.2825
  472MOL0     H65101   7.952  10.570   6.381  0.9139  0.0525 -3.1242
  472MOL0     H65102   8.115  10.440   6.543  0.4312 -0.0935 -0.3563
  472MOL0     H65103   8.096  10.305   6.438 -1.7063 -0.1397 -1.4064
  472MOL0     H65104   8.202  10.580   6.360  0.5813  0.6928 -0.2908
  472MOL0     H65105   8.172  10.454   6.244 -2.7481  0.8045 -0.0538
  472MOL0     H65106   8.339  10.293   6.351 -2.3271 -0.2483 -1.4320
  472MOL0     H65107   8.358  10.409   6.478  3.9528 -1.3786 -0.1104
  472MOL0     H65108   8.423  10.492   6.186  1.6507 -1.1548 -0.2485
  472MOL0     H65109   8.442  10.578   6.334 -1.3745  1.1117 -1.5205
  472MOL0     H65110   8.635  10.418   6.404 -0.5921  2.6931  0.5984
  472MOL0     H65111   8.671  10.479   6.255 -1.6765  4.1539  1.9399
  472MOL0     H65112   8.519  10.242   6.204 -1.0169  1.4761  1.5089
  472MOL0     H65113   8.600  10.201   6.353  0.5555  0.0100  0.1598
  472MOL0     H65114   8.726  10.314   6.094 -0.6518  2.0649  1.1880
  472MOL0     H65115   8.736  10.141   6.143  5.5192 -0.4575  1.7324
  472MOL0     H65116   7.731  10.236   6.588 -1.0492 -0.8749  0.3700
  472MOL0     H65117   7.511  10.151   6.496 -3.9796  1.8813 -2.2543
  472MOL0     H65118   7.006  10.428   6.541  1.0214  0.1954  0.6971
  472MOL0     H65119   6.805  10.316   6.525  1.6521 -3.2034  3.4279
  472MOL0     H65120   5.028   9.994   6.599  0.5262  2.5389 -2.4688
  472MOL0     H65121   4.821   9.981   6.727 -1.0128 -2.3697  0.5138
  472MOL0     H65122   4.299   9.892   6.708 -2.3048 -1.8051  0.0474
  472MOL0     H65123   4.178   9.750   6.878  0.0244 -1.5146  0.6702
  472MOL0     H65124   4.222   9.567   7.269  0.6789 -1.4786 -2.2734
  472MOL0     H65125   4.381   9.646   7.254 -0.6358 -0.4264  1.4940
  472MOL0     H65126   4.118   9.780   7.335 -0.2834  3.5264  0.8136
  472MOL0     H65127   4.271   9.864   7.299  0.8857 -1.1724 -1.5944
  472MOL0     H65128   4.238   9.819   7.549 -2.0558  0.5852 -0.5597
  472MOL0     H65129   4.257   9.647   7.536  3.4607  0.5204  1.7080
  472MOL0     H65130   4.498   9.686   7.457  0.9352  0.9370 -0.4122
  472MOL0     H65131   4.457   9.759   7.612  0.9110 -2.5670 -0.5308
  472MOL0     H65132   4.553  10.094   7.372 -2.0555  0.1212 -1.8246
  472MOL0     H65133   4.484   9.810   7.168  1.1283 -0.9819  0.3442
  472MOL0     H65134   4.711   9.872   7.092  0.9690  0.2995  0.1641
  472MOL0     H65135   4.739   9.936   6.947 -0.3504  0.5929 -0.8063
  472MOL0     H65136   4.653  10.042   7.066 -2.9543  0.3131 -0.8970
  473MOL0     O65137   8.832   0.849   0.249 -0.3772  0.8862 -0.1633
  473MOL0     C65138   8.935   0.791   0.289  0.4460  0.4866 -0.2864
  473MOL0     O65139   9.058   0.845   0.332 -0.1232 -0.1944  0.6018
  473MOL0     C65140   9.077   0.986   0.326  0.0518  0.7889 -0.5353
  473MOL0     C65141   9.028   1.069   0.220  1.3816 -0.8192 -0.0733
  473MOL0     C65142   9.067   1.200   0.211 -0.6058 -0.9805  0.4080
  473MOL0     C65143   9.165   1.256   0.301  0.5043  0.7858 -0.1807
  473MOL0     O65144   9.210   1.386   0.279  0.4420 -1.3710 -0.7482
  473MOL0     C65145   9.146   1.481   0.182  0.2059  0.4684  0.4582
  473MOL0     C65146   9.215   1.467   0.049 -0.0105  0.3105 -0.1762
  473MOL0     C65147   9.369   1.498   0.053 -0.1132 -0.9340  0.1020
  473MOL0     C65148   9.425   1.447  -0.073  0.2412  1.4612  0.1045
  473MOL0     C65149   9.577   1.439  -0.082  0.5159  0.8937 -0.1830
  473MOL0     C65150   9.631   1.572  -0.128  0.2416  1.1604 -0.6363
  473MOL0     C65151   9.786   1.568  -0.135 -0.3591  0.3061 -0.0255
  473MOL0     C65152   9.816   1.635  -0.276  0.9897  0.0920 -0.3925
  473MOL0     N65153   9.954   1.624  -0.305 -0.5539  0.5222 -0.4152
  473MOL0     C65154  10.049   1.704  -0.248  0.0401 -0.0126 -0.1726
  473MOL0     C65155  10.163   1.668  -0.301  0.1515  0.0578  0.0645
  473MOL0     C65156  10.289   1.753  -0.289 -0.2130 -0.4505  0.1732
  473MOL0     C65157  10.383   1.695  -0.187 -0.6387  0.5323  0.0073
  473MOL0     C65158  10.327   1.683  -0.045 -0.0524  0.4860 -0.2609
  473MOL0     C65159  10.426   1.628   0.055  0.7951  0.4945  0.8659
  473MOL0     O65160  10.436   1.485   0.038 -0.6166 -0.3325  0.3573
  473MOL0     C65161  10.542   1.436  -0.031 -0.6626 -0.3865  1.4615
  473MOL0     C65162  10.517   1.311  -0.083 -0.2219  1.6441  0.6334
  473MOL0     C65163  10.624   1.239  -0.151  0.2775  0.7051 -0.0493
  473MOL0     C65164  10.590   1.097  -0.204  0.7716  0.0011 -0.0818
  473MOL0     C65165  10.756   1.295  -0.150  0.6337 -0.2566 -0.4569
  473MOL0     C65166  10.881   1.222  -0.191 -0.2977  0.0587  0.2423
  473MOL0     O65167  10.996   1.291  -0.184 -0.6947  0.1254  1.0822
  473MOL0     C65168  11.127   1.244  -0.216  0.8254  0.1398  0.8675
  473MOL0     C65169  11.158   1.107  -0.245  0.2570  0.1370  0.2698
  473MOL0     C65170  11.285   1.073  -0.288 -0.2594 -0.2238 -0.3437
  473MOL0     C65171  11.392   1.169  -0.286 -0.0699  1.0909  0.3796
  473MOL0     O65172  11.530   1.141  -0.301 -0.2531 -0.3707 -0.0036
  473MOL0     C65173  11.565   1.114  -0.439  0.7489  0.8737 -0.4002
  473MOL0     C65174  11.700   1.035  -0.440  0.4320  0.6619  0.3354
  473MOL0     C65175  11.676   0.908  -0.369 -0.3862 -0.4334  0.2843
  473MOL0     C65176  11.782   0.798  -0.386 -0.2354  0.0117 -0.9705
  473MOL0     C65177  11.712   0.665  -0.373  0.0600  0.8968  0.7019
  473MOL0     C65178  11.820   0.548  -0.383 -1.0699 -0.3165  0.0205
  473MOL0     C65179  11.763   0.415  -0.352  0.5240  0.0893  0.0996
  473MOL0     C65180  11.869   0.304  -0.356 -0.2557 -0.6235 -0.1805
  473MOL0    Cl65181  12.000   0.333  -0.236  0.1426  0.0196  0.0251
  473MOL0     C65182  11.361   1.295  -0.255  0.0571 -1.0214 -0.3049
  473MOL0     C65183  11.232   1.338  -0.217 -0.0231  0.4571  0.7692
  473MOL0     O65184  10.869   1.109  -0.242  0.4169 -1.0294 -0.6328
  473MOL0     C65185  10.771   1.424  -0.107  0.3911  0.0005  0.7003
  473MOL0     C65186  10.668   1.492  -0.044 -0.3249 -0.1698 -0.1202
  473MOL0     N65187  10.144   1.560  -0.385  0.2310  0.5970  0.7306
  473MOL0     N65188  10.014   1.532  -0.386  0.8174  0.2938 -0.3428
  473MOL0     C65189   9.210   1.175   0.403 -1.1800  0.5231 -0.1754
  473MOL0     C65190   9.169   1.037   0.419 -0.2517 -0.7422 -0.4944
  473MOL0     C65191   8.939   0.641   0.268  0.5991  0.0277 -0.0300
  473MOL0     C65192   9.055   0.578   0.227 -0.9492 -0.0388  0.2664
  473MOL0     C65193   9.063   0.436   0.207  0.9930 -0.2248  0.4029
  473MOL0     C65194   8.945   0.365   0.214  0.1078  0.6756  0.5999
  473MOL0     O65195   8.929   0.229   0.184  0.5182 -0.3128 -1.1938
  473MOL0     C65196   9.044   0.147   0.163 -0.6491  0.0430  0.7920
  473MOL0     C65197   9.073   0.105   0.017  0.0567 -0.3638  0.5638
  473MOL0     C65198   8.992  -0.020  -0.038 -0.6502  0.1664  0.3323
  473MOL0     C65199   9.007  -0.154   0.030 -0.1609  0.5884  0.5453
  473MOL0     C65200   9.141  -0.208   0.030 -0.6873 -0.8543 -0.3127
  473MOL0     C65201   9.255  -0.254   0.014  0.0186  0.1981  0.8367
  473MOL0     C65202   8.824   0.423   0.261  0.6838 -1.1456 -0.0702
  473MOL0     C65203   8.822   0.557   0.294 -0.0710  1.0024  0.8429
  473MOL0     C65204   8.697   0.614   0.358  0.9275 -0.2871  0.7360
  473MOL0     H65205   8.968   1.025   0.141 -1.0704  1.0499  0.6444
  473MOL0     H65206   9.022   1.255   0.129 -3.2257  0.0404  2.3940
  473MOL0     H65207   9.155   1.588   0.202 -2.9513  1.2407 -1.5900
  473MOL0     H65208   9.043   1.448   0.165  1.6874 -3.6527 -2.0369
  473MOL0     H65209   9.201   1.366   0.009 -1.5751  0.8273 -0.9871
  473MOL0     H65210   9.160   1.532  -0.020  1.5244  0.2189 -1.5484
  473MOL0     H65211   9.380   1.605   0.070  1.1318  0.0357 -5.1943
  473MOL0     H65212   9.412   1.433   0.130  1.5218 -0.6630 -0.5542
  473MOL0     H65213   9.393   1.344  -0.093 -0.3389  1.7089 -0.3020
  473MOL0     H65214   9.370   1.495  -0.155 -2.3300 -1.1610  0.1072
  473MOL0     H65215   9.612   1.373  -0.161 -1.5177  1.1888 -1.4177
  473MOL0     H65216   9.619   1.410   0.014 -0.9690  2.2016  0.9282
  473MOL0     H65217   9.576   1.595  -0.220 -1.9974  0.3141  0.4112
  473MOL0     H65218   9.614   1.650  -0.052  1.1743  0.7757 -0.0130
  473MOL0     H65219   9.816   1.464  -0.145 -0.3613  0.5209 -4.0405
  473MOL0     H65220   9.837   1.606  -0.046 -1.7289 -0.1197  0.9714
  473MOL0     H65221   9.755   1.573  -0.343  1.1514 -0.1673 -0.3019
  473MOL0     H65222   9.784   1.739  -0.283  1.2524  0.3020  1.1338
  473MOL0     H65223  10.036   1.791  -0.184 -3.2037  1.9264 -3.0374
  473MOL0     H65224  10.262   1.856  -0.260  0.6702  0.9697 -3.5550
  473MOL0     H65225  10.334   1.768  -0.387 -1.5061  4.4972  0.0698
  473MOL0     H65226  10.397   1.593  -0.222 -0.4148 -0.5788  3.0398
  473MOL0     H65227  10.482   1.740  -0.172 -1.1982  1.0764  2.5582
  473MOL0     H65228  10.294   1.782  -0.011 -0.2583 -0.2195  1.7891
  473MOL0     H65229  10.235   1.623  -0.038  0.2485  0.1574  1.5557
  473MOL0     H65230  10.519   1.681   0.032  1.3533  0.4264  2.7734
  473MOL0     H65231  10.398   1.648   0.159 -2.2407 -2.9783  0.9180
  473MOL0     H65232  10.425   1.258  -0.060  0.5414  0.3858  0.8819
  473MOL0     H65233  10.601   1.090  -0.313 -2.2149 -1.1134 -0.4078
  473MOL0     H65234  10.486   1.081  -0.174 -0.1449  0.2137 -2.8463
  473MOL0     H65235  10.656   1.022  -0.161  2.3379 -0.3410 -2.8114
  473MOL0     H65236  11.086   1.026  -0.236  0.0992  0.0833 -1.2158
  473MOL0     H65237  11.310   0.971  -0.315  4.1473  0.4467  0.5751
  473MOL0     H65238  11.485   1.056  -0.485  0.9670  0.8433 -0.7456
  473MOL0     H65239  11.580   1.206  -0.496  1.4184  1.7713  1.1592
  473MOL0     H65240  11.720   1.012  -0.545 -2.0010  0.5023 -0.1563
  473MOL0     H65241  11.779   1.087  -0.386  1.5744 -2.5416  2.0202
  473MOL0     H65242  11.587   0.855  -0.405 -0.3067 -1.5128  1.5796
  473MOL0     H65243  11.667   0.939  -0.264 -1.0307  0.7357 -0.1027
  473MOL0     H65244  11.869   0.814  -0.321  0.5564 -0.4701 -1.8820
  473MOL0     H65245  11.818   0.806  -0.489  2.9744  1.3369  0.1083
  473MOL0     H65246  11.657   0.657  -0.279  0.2746 -2.1220  0.6867
  473MOL0     H65247  11.629   0.642  -0.440 -1.2847  1.5310  2.1064
  473MOL0     H65248  11.903   0.577  -0.318 -0.3754 -1.3988 -0.3644
  473MOL0     H65249  11.867   0.547  -0.482  2.0016 -1.7597  1.3788
  473MOL0     H65250  11.693   0.391  -0.432 -0.6869  0.9136  0.8882
  473MOL0     H65251  11.714   0.416  -0.254  0.9315  0.9169  0.3045
  473MOL0     H65252  11.910   0.312  -0.457  1.9047  1.5717  0.7722
  473MOL0     H65253  11.820   0.208  -0.340  0.1755 -0.7208  0.6446
  473MOL0     H65254  11.445   1.364  -0.261 -1.3394  0.6420 -2.1224
  473MOL0     H65255  11.222   1.439  -0.178  3.0340 -0.1976  3.7403
  473MOL0     H65256  10.868   1.471  -0.090  0.7428 -0.7532  0.8566
  473MOL0     H65257  10.687   1.592  -0.006 -1.3066  0.3089 -0.8651
  473MOL0     H65258   9.278   1.199   0.484 -1.5776 -0.7750  0.5717
  473MOL0     H65259   9.206   0.975   0.500  0.7673 -0.2756 -0.5874
  473MOL0     H65260   9.151   0.629   0.223  1.3366 -4.0621 -1.4025
  473MOL0     H65261   9.158   0.401   0.167  0.4653 -1.7907  0.4537
  473MOL0     H65262   9.134   0.185   0.212  0.2670 -2.2269  0.9889
  473MOL0     H65263   9.041   0.056   0.224 -0.0999 -0.1686  0.5088
  473MOL0     H65264   9.179   0.078   0.004  0.4312  0.4388  1.8084
  473MOL0     H65265   9.062   0.196  -0.042  0.7760  0.3828  1.5529
  473MOL0     H65266   8.890   0.015  -0.059 -1.0139 -0.3785  1.1261
  473MOL0     H65267   9.035  -0.030  -0.138 -1.4804  2.0785 -0.2670
  473MOL0     H65268   8.941  -0.227  -0.018 -1.0622  1.4448  0.4346
  473MOL0     H65269   8.960  -0.159   0.129 -0.1901  0.9904  0.5535
  473MOL0     H65270   9.344  -0.308  -0.010  0.3751  0.8039  0.7673
  473MOL0     H65271   8.738   0.366   0.294  1.3744 -1.5125  1.1562
  473MOL0     H65272   8.721   0.691   0.433  0.1347  0.5939  0.0992
  473MOL0     H65273   8.632   0.642   0.275  0.8770  0.2381  0.9489
  473MOL0     H65274   8.643   0.536   0.412 -0.4352 -0.4362 -0.7835
  474MOL0     O65275   5.018   6.943   2.353 -0.0099  0.0389  0.3759
  474MOL0     C65276   5.087   6.854   2.306 -0.1075  0.2700 -0.7239
  474MOL0     O65277   5.043   6.756   2.220 -0.7427 -0.1919 -0.6048
  474MOL0     C65278   4.926   6.698   2.249 -0.5546  0.3890  1.3684
  474MOL0     C65279   4.821   6.720   2.160  0.5824 -0.3241 -0.8488
  474MOL0     C65280   4.704   6.647   2.168  0.1206 -0.1907  0.5169
  474MOL0     C65281   4.676   6.562   2.274  0.1041  0.2275  0.2806
  474MOL0     O65282   4.555   6.493   2.297  0.8261  0.3786  0.4968
  474MOL0     C65283   4.482   6.560   2.396  0.1597 -0.7640  0.0949
  474MOL0     C65284   4.409   6.685   2.343 -0.5233  0.1289 -0.9195
  474MOL0     C65285   4.292   6.660   2.251 -0.3197 -0.5452 -0.0247
  474MOL0     C65286   4.176   6.643   2.341 -0.2045 -0.3812  0.5713
  474MOL0     C65287   4.056   6.614   2.254  0.7346 -0.2828 -0.3526
  474MOL0     C65288   3.941   6.571   2.351  0.1218  0.7057  0.9713
  474MOL0     C65289   3.823   6.531   2.260 -0.3127  0.5935  1.0139
  474MOL0     C65290   3.850   6.425   2.157 -0.5942  0.8856 -0.0937
  474MOL0     N65291   3.736   6.347   2.110  0.4395  0.5619  0.2644
  474MOL0     C65292   3.638   6.393   2.017 -0.4219 -0.7737 -0.3595
  474MOL0     C65293   3.548   6.295   2.030  0.5028  0.3998  0.6841
  474MOL0     C65294   3.422   6.302   1.950  0.6065  0.3492 -0.3583
  474MOL0     C65295   3.300   6.307   2.038 -0.0223  0.0959  0.6893
  474MOL0     C65296   3.167   6.305   1.955 -0.4557  0.1249  0.9341
  474MOL0     C65297   3.043   6.330   2.038 -0.9519 -0.3967 -0.5142
  474MOL0     O65298   2.944   6.377   1.950  0.0356  0.1917  0.4465
  474MOL0     C65299   2.819   6.391   1.998  0.3797 -0.0997 -0.0197
  474MOL0     C65300   2.777   6.353   2.126  0.8162  0.1396  1.2876
  474MOL0     C65301   2.642   6.367   2.165 -0.5911 -0.2738 -0.2385
  474MOL0     C65302   2.627   6.344   2.316 -0.5487 -0.6785  0.6114
  474MOL0     C65303   2.544   6.405   2.074 -0.1741  0.0936  0.1082
  474MOL0     C65304   2.400   6.408   2.106  0.1068 -0.1133 -0.6091
  474MOL0     O65305   2.322   6.493   2.036  0.1001 -0.9262  0.8420
  474MOL0     C65306   2.190   6.481   2.017  1.0795  0.2950  0.3811
  474MOL0     C65307   2.120   6.358   2.043 -0.3484  0.2133 -0.8532
  474MOL0     C65308   1.984   6.363   2.017 -0.6465  1.4297  0.0633
  474MOL0     C65309   1.917   6.474   1.975  0.8420 -0.5667 -0.2886
  474MOL0     O65310   1.782   6.455   1.947 -0.1539 -0.3814 -0.3791
  474MOL0     C65311   1.703   6.557   1.875 -0.3936 -0.1249 -0.6283
  474MOL0     C65312   1.667   6.526   1.731 -0.6795 -0.6681  0.8439
  474MOL0     C65313   1.571   6.410   1.707  0.7806  0.2420  0.1707
  474MOL0     C65314   1.421   6.453   1.748  0.0234  0.0432  0.3959
  474MOL0     C65315   1.322   6.354   1.682  0.9944  0.0969 -0.0467
  474MOL0     C65316   1.186   6.410   1.699 -0.3170  0.5831  0.1931
  474MOL0     C65317   1.095   6.315   1.621  0.1571 -0.3143  0.8610
  474MOL0     C65318   0.947   6.339   1.663  0.0072  0.0242 -0.6185
  474MOL0    Cl65319   0.838   6.210   1.605 -0.2205 -0.1382  0.3665
  474MOL0     C65320   1.982   6.594   1.963  0.3249 -0.2688 -0.3222
  474MOL0     C65321   2.120   6.593   1.971 -0.1001  0.2885 -0.5320
  474MOL0     O65322   2.359   6.319   2.181 -0.0909  0.4136  0.0848
  474MOL0     C65323   2.588   6.433   1.946 -0.6340  0.1143 -0.6667
  474MOL0     C65324   2.724   6.428   1.909 -0.4430  0.5992 -0.3685
  474MOL0     N65325   3.592   6.201   2.124  0.7896  0.4563 -0.5696
  474MOL0     N65326   3.693   6.243   2.179 -0.3050  0.2751  0.2524
  474MOL0     C65327   4.784   6.536   2.358 -0.5809  0.6474 -0.0985
  474MOL0     C65328   4.909   6.601   2.350  0.0669 -1.0215 -0.4825
  474MOL0     C65329   5.229   6.867   2.341 -0.0499 -0.3435 -0.4353
  474MOL0     C65330   5.269   6.864   2.475 -0.2498 -0.4052  0.2755
  474MOL0     C65331   5.403   6.879   2.515 -0.1397 -0.0046  0.0226
  474MOL0     C65332   5.502   6.882   2.420  0.1947 -0.5179 -0.4533
  474MOL0     O65333   5.633   6.884   2.460 -0.3272 -0.3105  0.2771
  474MOL0     C65334   5.675   7.001   2.532  0.1392  0.4129 -0.4838
  474MOL0     C65335   5.691   7.109   2.423 -0.5831 -0.0332  0.9254
  474MOL0     C65336   5.810   7.089   2.333  0.4403 -0.1919  0.6509
  474MOL0     C65337   5.811   7.211   2.236  1.0512 -0.4691 -0.3018
  474MOL0     C65338   5.938   7.226   2.174 -0.0923 -0.7461  0.9343
  474MOL0     C65339   6.054   7.216   2.141 -0.0337  0.3000  0.7207
  474MOL0     C65340   5.470   6.881   2.286 -0.6133 -0.3109  0.2253
  474MOL0     C65341   5.332   6.881   2.242 -0.9724  0.3687 -0.3609
  474MOL0     C65342   5.318   6.872   2.098  0.2241 -0.2976  0.7287
  474MOL0     H65343   4.825   6.789   2.076 -1.7367  2.5012  1.1883
  474MOL0     H65344   4.625   6.671   2.098  0.2384  1.3155  0.8850
  474MOL0     H65345   4.548   6.593   2.477 -0.0589 -1.9507  0.7895
  474MOL0     H65346   4.407   6.498   2.446 -0.4579  1.2163  1.7755
  474MOL0     H65347   4.387   6.723   2.443  2.9094 -1.6105  0.6966
  474MOL0     H65348   4.478   6.758   2.298  0.1692 -0.8099 -1.4144
  474MOL0     H65349   4.289   6.746   2.184 -2.6404 -0.6903 -0.1971
  474MOL0     H65350   4.312   6.572   2.189  1.1988  0.2412 -0.6844
  474MOL0     H65351   4.193   6.561   2.411  2.0452 -0.4716  0.0027
  474MOL0     H65352   4.159   6.730   2.405  0.0289  1.2023 -1.3887
  474MOL0     H65353   4.063   6.533   2.180 -1.2524 -2.2595  1.4763
  474MOL0     H65354   4.029   6.704   2.198 -1.0137 -0.9969 -0.7294
  474MOL0     H65355   3.974   6.493   2.421  0.5903 -0.4537 -0.4772
  474MOL0     H65356   3.902   6.655   2.408  0.8871  2.8306 -1.4600
  474MOL0     H65357   3.782   6.626   2.221  1.7107  0.9346 -0.4193
  474MOL0     H65358   3.737   6.498   2.320 -1.8969 -0.2434 -1.5473
  474MOL0     H65359   3.900   6.460   2.067 -1.3554  1.4700 -0.2980
  474MOL0     H65360   3.923   6.356   2.199 -1.8081  0.1011  0.8147
  474MOL0     H65361   3.632   6.489   1.966  0.3440  1.1573  2.9071
  474MOL0     H65362   3.420   6.215   1.883  0.1784  0.0821 -0.0004
  474MOL0     H65363   3.423   6.390   1.884 -0.2995 -0.2354 -1.1774
  474MOL0     H65364   3.297   6.222   2.107  0.3996  0.3422  1.0149
  474MOL0     H65365   3.302   6.397   2.099 -0.4794  0.0764  0.7376
  474MOL0     H65366   3.164   6.375   1.870 -0.6117 -1.3305 -0.2942
  474MOL0     H65367   3.168   6.206   1.910 -2.4838  0.7219 -0.5790
  474MOL0     H65368   3.003   6.234   2.073 -3.2994  0.2647 -1.1831
  474MOL0     H65369   3.049   6.392   2.127 -3.3065 -3.3806  1.9611
  474MOL0     H65370   2.845   6.327   2.206 -1.5530 -3.1596  2.4689
  474MOL0     H65371   2.702   6.411   2.359  1.0842 -1.1022 -1.4100
  474MOL0     H65372   2.663   6.246   2.350  2.3128 -0.0883 -0.4488
  474MOL0     H65373   2.528   6.364   2.359  1.1268  2.9206  3.2403
  474MOL0     H65374   2.173   6.265   2.062  2.6814  2.1386  0.9641
  474MOL0     H65375   1.926   6.274   2.037  1.1739 -0.2439 -1.7089
  474MOL0     H65376   1.605   6.575   1.919 -0.2542 -0.2180 -0.2807
  474MOL0     H65377   1.757   6.652   1.866 -0.4746 -0.0723 -0.5567
  474MOL0     H65378   1.627   6.610   1.675  0.5689 -2.2681 -2.7890
  474MOL0     H65379   1.763   6.498   1.685  0.2783  0.6361  1.9647
  474MOL0     H65380   1.594   6.314   1.755  0.7453 -0.0145 -0.3210
  474MOL0     H65381   1.574   6.392   1.599 -1.8014  3.1913 -0.5739
  474MOL0     H65382   1.404   6.555   1.712 -1.7632 -1.1674 -2.5407
  474MOL0     H65383   1.413   6.451   1.857 -0.1011  1.7326  0.4466
  474MOL0     H65384   1.350   6.339   1.577  0.7059 -0.4415 -0.0494
  474MOL0     H65385   1.331   6.255   1.727  2.1333 -2.3648 -5.0201
  474MOL0     H65386   1.183   6.514   1.666 -0.7018  0.4666 -0.1430
  474MOL0     H65387   1.152   6.402   1.803 -1.3594 -1.1472 -0.2359
  474MOL0     H65388   1.121   6.210   1.638  3.3094  0.3570  0.6984
  474MOL0     H65389   1.102   6.335   1.514 -0.7859 -1.3737  0.5831
  474MOL0     H65390   0.913   6.438   1.631 -2.0130 -0.2803  0.4481
  474MOL0     H65391   0.934   6.356   1.770  0.2470 -1.1048 -0.4047
  474MOL0     H65392   1.935   6.688   1.934  0.4435  0.2393  1.0623
  474MOL0     H65393   2.176   6.683   1.950 -0.0377 -0.2553 -2.9726
  474MOL0     H65394   2.509   6.468   1.881  1.2272  3.1801 -1.4766
  474MOL0     H65395   2.751   6.437   1.804 -3.1519 -0.8911 -1.3081
  474MOL0     H65396   4.765   6.457   2.431  1.4149  0.1116 -0.0984
  474MOL0     H65397   4.984   6.568   2.421 -0.5004 -1.9479 -0.2991
  474MOL0     H65398   5.180   6.858   2.536  1.0821 -0.4026  2.2969
  474MOL0     H65399   5.418   6.883   2.623  0.4001  2.0505 -0.0817
  474MOL0     H65400   5.599   7.028   2.605  1.5541 -1.4114  1.8181
  474MOL0     H65401   5.769   6.974   2.581 -1.1238  0.6675  2.2645
  474MOL0     H65402   5.697   7.196   2.489  0.4496  0.6751 -0.0787
  474MOL0     H65403   5.605   7.133   2.360  0.1459 -1.1353 -0.5502
  474MOL0     H65404   5.902   7.073   2.389  0.4407 -0.0302  0.6969
  474MOL0     H65405   5.787   7.008   2.263  1.6487 -0.4157  0.5061
  474MOL0     H65406   5.789   7.305   2.288 -1.1224 -2.7235  3.2036
  474MOL0     H65407   5.739   7.193   2.156 -0.7160 -2.2129  1.5886
  474MOL0     H65408   6.153   7.228   2.103  0.1145  2.2663  1.6356
  474MOL0     H65409   5.557   6.887   2.221 -1.4787  2.3198 -0.8293
  474MOL0     H65410   5.332   6.771   2.059  0.4606  0.0562 -0.1458
  474MOL0     H65411   5.219   6.899   2.062 -0.0746 -0.6167  1.2999
  474MOL0     H65412   5.392   6.939   2.053 -1.0591  1.0190  0.4883
  475MOL0     O65413   8.758   3.454   5.526 -0.6954  0.3207  0.1241
  475MOL0     C65414   8.784   3.343   5.556 -0.7733  0.6844  0.9551
  475MOL0     O65415   8.699   3.244   5.579  0.8128  0.9436 -0.3825
  475MOL0     C65416   8.563   3.279   5.569  0.1663  0.6805 -0.4058
  475MOL0     C65417   8.511   3.325   5.686  0.5459  0.7693  0.1783
  475MOL0     C65418   8.374   3.363   5.674  0.1370 -0.7722  0.0467
  475MOL0     C65419   8.298   3.357   5.562 -0.5613  0.2825 -0.0698
  475MOL0     O65420   8.170   3.405   5.554 -0.2926 -0.0026  0.2046
  475MOL0     C65421   8.086   3.341   5.645  0.5316  0.1989  0.6588
  475MOL0     C65422   7.938   3.376   5.622  0.1346 -0.1162 -0.0215
  475MOL0     C65423   7.892   3.368   5.475  0.2544  0.6891  0.4978
  475MOL0     C65424   7.742   3.384   5.472  0.4523 -0.4187  0.0613
  475MOL0     C65425   7.683   3.390   5.329 -0.3393 -0.5306 -0.3323
  475MOL0     C65426   7.711   3.260   5.245 -0.2918 -0.9345  0.5802
  475MOL0     C65427   7.657   3.128   5.290 -0.0029 -0.4045 -0.6440
  475MOL0     C65428   7.734   3.015   5.211  1.0042  0.1821  1.0816
  475MOL0     N65429   7.870   2.995   5.256  0.4918  0.2452  0.5392
  475MOL0     C65430   7.905   2.962   5.387  0.3853 -0.1896 -0.7641
  475MOL0     C65431   8.041   2.925   5.380  1.3706  0.4448  0.0110
  475MOL0     C65432   8.124   2.873   5.493 -0.0917  0.8904  0.8601
  475MOL0     C65433   8.270   2.916   5.483  0.0441 -0.4692  0.3477
  475MOL0     C65434   8.327   2.933   5.626  0.2576  0.2493 -1.5694
  475MOL0     C65435   8.481   2.929   5.628 -0.7617 -0.0222 -1.1151
  475MOL0     O65436   8.526   2.798   5.611 -0.2969  0.3927 -0.4064
  475MOL0     C65437   8.657   2.769   5.635  0.1580 -0.5625  0.7543
  475MOL0     C65438   8.703   2.687   5.736 -0.4292 -0.3313 -0.0579
  475MOL0     C65439   8.840   2.666   5.761 -0.7973  0.0497  0.1667
  475MOL0     C65440   8.870   2.546   5.861 -0.5019 -0.2948 -0.1535
  475MOL0     C65441   8.940   2.727   5.681 -0.3096  0.4938  0.1048
  475MOL0     C65442   9.088   2.705   5.689 -0.2029  1.2783 -0.0199
  475MOL0     O65443   9.158   2.740   5.580  0.4432 -0.5662 -0.3946
  475MOL0     C65444   9.296   2.727   5.562  1.1266 -0.7766 -0.4770
  475MOL0     C65445   9.321   2.702   5.425 -0.3000 -0.0289 -1.2561
  475MOL0     C65446   9.456   2.686   5.383  0.7437 -0.2368 -0.5615
  475MOL0     C65447   9.560   2.688   5.477  1.1634 -0.1741  0.5392
  475MOL0     O65448   9.691   2.672   5.447  0.2136 -0.1281  0.1259
  475MOL0     C65449   9.728   2.744   5.321  0.1505 -0.0755  0.0385
  475MOL0     C65450   9.877   2.754   5.326 -0.2312 -0.9154 -0.1124
  475MOL0     C65451   9.911   2.911   5.299  0.0517  0.2334 -0.7123
  475MOL0     C65452  10.052   2.955   5.349 -0.0542 -0.3836 -0.5881
  475MOL0     C65453  10.078   3.111   5.345  0.3388  0.1404  0.7420
  475MOL0     C65454  10.160   3.166   5.458 -0.6300 -0.6953 -0.6169
  475MOL0     C65455  10.201   3.315   5.439  1.0000  0.3465 -0.0213
  475MOL0     C65456  10.256   3.370   5.568  0.0470  0.2355  0.2101
  475MOL0    Cl65457  10.140   3.354   5.697 -0.4819 -0.0037  0.1087
  475MOL0     C65458   9.536   2.718   5.611  0.9500 -1.3401  0.6088
  475MOL0     C65459   9.404   2.752   5.655 -0.3801  0.2958  0.6764
  475MOL0     O65460   9.132   2.657   5.790 -0.0421 -0.4380 -0.1928
  475MOL0     C65461   8.892   2.806   5.574 -0.3192 -0.7050  0.6948
  475MOL0     C65462   8.752   2.828   5.554 -0.5871  0.8153 -0.0918
  475MOL0     N65463   8.072   2.943   5.245 -0.5514 -0.6284  0.2072
  475MOL0     N65464   7.973   2.974   5.171  0.1129  0.4566 -0.5282
  475MOL0     C65465   8.360   3.303   5.450  0.5708  0.0840  0.3683
  475MOL0     C65466   8.490   3.254   5.453 -1.0404 -0.6079 -0.1929
  475MOL0     C65467   8.934   3.315   5.569 -0.1792  0.3294 -0.2175
  475MOL0     C65468   8.973   3.189   5.620 -0.2120 -0.0446  0.7393
  475MOL0     C65469   9.105   3.147   5.617  0.0850 -1.0389  0.0328
  475MOL0     C65470   9.206   3.225   5.570 -0.4729 -0.6546 -0.1887
  475MOL0     O65471   9.334   3.178   5.553 -0.4976 -0.3253  0.3043
  475MOL0     C65472   9.393   3.114   5.669 -0.6789 -0.6029  0.0694
  475MOL0     C65473   9.541   3.098   5.651 -0.3365  0.4235  0.7018
  475MOL0     C65474   9.617   3.235   5.618  0.2736 -0.3562 -0.1202
  475MOL0     C65475   9.766   3.221   5.597 -0.6401  0.8461  0.2537
  475MOL0     C65476   9.827   3.150   5.716  0.4424 -0.1640  0.6331
  475MOL0     C65477   9.870   3.103   5.812  0.2690  0.4665 -0.4404
  475MOL0     C65478   9.169   3.356   5.529 -0.3489  0.0211 -0.6627
  475MOL0     C65479   9.039   3.404   5.533 -0.1391  0.4390  0.5247
  475MOL0     C65480   9.026   3.555   5.499 -0.0220 -0.3674  0.2767
  475MOL0     H65481   8.563   3.344   5.779  0.8975 -0.0837  0.1656
  475MOL0     H65482   8.328   3.418   5.755  0.3611  2.0027 -1.5967
  475MOL0     H65483   8.105   3.354   5.752  1.5877 -2.6251  0.8982
  475MOL0     H65484   8.102   3.234   5.630  1.8681  0.4875 -0.1883
  475MOL0     H65485   7.886   3.303   5.685  1.0440 -1.3711 -0.6818
  475MOL0     H65486   7.912   3.472   5.668  2.0656 -0.6801  2.4697
  475MOL0     H65487   7.942   3.439   5.409  1.6809  1.1796  2.0159
  475MOL0     H65488   7.912   3.267   5.438 -2.4948  1.6089 -4.2122
  475MOL0     H65489   7.711   3.291   5.519 -4.7013 -0.1022 -2.0755
  475MOL0     H65490   7.710   3.465   5.539  0.4853  1.3711 -1.9544
  475MOL0     H65491   7.724   3.476   5.275  0.2831  0.2516  1.3030
  475MOL0     H65492   7.575   3.401   5.338 -0.6941 -3.9537  0.9059
  475MOL0     H65493   7.679   3.289   5.144 -2.1248  0.4605  1.5162
  475MOL0     H65494   7.821   3.256   5.242 -0.1076  2.2078 -0.6535
  475MOL0     H65495   7.551   3.126   5.263 -0.3734 -2.6160  0.7118
  475MOL0     H65496   7.658   3.098   5.396 -0.0157 -0.1970 -0.5841
  475MOL0     H65497   7.677   2.921   5.209  2.0084 -0.4981 -2.3924
  475MOL0     H65498   7.726   3.044   5.106  2.4051 -0.7671  0.6940
  475MOL0     H65499   7.844   2.961   5.477  2.9819 -0.9905  1.1015
  475MOL0     H65500   8.114   2.765   5.499  0.7601  0.7738  0.3507
  475MOL0     H65501   8.084   2.914   5.586  1.6057  2.0580  1.1338
  475MOL0     H65502   8.325   2.836   5.435 -1.0213 -1.2404  0.3885
  475MOL0     H65503   8.284   3.009   5.427  1.5152 -0.9482 -0.0945
  475MOL0     H65504   8.299   3.031   5.665 -1.1851 -0.9496  0.5975
  475MOL0     H65505   8.285   2.859   5.695 -1.0853  4.0824  2.1378
  475MOL0     H65506   8.521   2.998   5.553  0.4584 -0.9350 -1.3204
  475MOL0     H65507   8.522   2.965   5.723 -0.3659 -0.3525 -1.1625
  475MOL0     H65508   8.630   2.635   5.797  1.3473 -1.9605  0.7812
  475MOL0     H65509   8.962   2.490   5.840  0.2383  1.1727 -0.9445
  475MOL0     H65510   8.798   2.464   5.866 -0.2885 -0.4648  0.1374
  475MOL0     H65511   8.863   2.582   5.964 -2.8233  0.2712 -0.4470
  475MOL0     H65512   9.236   2.710   5.358 -1.1897 -0.6666 -0.2326
  475MOL0     H65513   9.486   2.672   5.280 -0.1894  1.2876 -1.0717
  475MOL0     H65514   9.694   2.683   5.236 -0.3016  0.0926  0.0949
  475MOL0     H65515   9.682   2.842   5.307 -2.0513 -1.0427  0.0101
  475MOL0     H65516   9.909   2.726   5.426 -3.8386  0.1772  1.5124
  475MOL0     H65517   9.931   2.700   5.248  2.1728  5.2300 -3.4597
  475MOL0     H65518   9.836   2.967   5.354 -1.8382 -2.0650 -0.8176
  475MOL0     H65519   9.900   2.933   5.192 -1.9496 -2.2370 -1.0888
  475MOL0     H65520  10.136   2.904   5.302 -0.2365 -0.5262 -0.7628
  475MOL0     H65521  10.048   2.918   5.452  0.1107 -0.7653 -0.7181
  475MOL0     H65522  10.120   3.132   5.247  1.0590  2.9818  1.5649
  475MOL0     H65523   9.987   3.170   5.357  0.1363  0.9327 -3.2586
  475MOL0     H65524  10.250   3.108   5.479 -0.7559 -0.8161 -0.4050
  475MOL0     H65525  10.097   3.141   5.544 -2.6659  2.8552 -0.8778
  475MOL0     H65526  10.116   3.378   5.410 -0.7877 -0.0800  3.7729
  475MOL0     H65527  10.271   3.327   5.355  0.8184  1.6885 -0.0051
  475MOL0     H65528  10.270   3.478   5.551 -2.5605  0.7600  0.8805
  475MOL0     H65529  10.352   3.328   5.599  0.8947  2.2366  0.5177
  475MOL0     H65530   9.624   2.711   5.674  0.2395 -1.7194  1.5834
  475MOL0     H65531   9.402   2.779   5.760  1.3625 -0.5835  0.9871
  475MOL0     H65532   8.958   2.867   5.514 -1.5495  0.7778  0.7948
  475MOL0     H65533   8.733   2.896   5.472  4.2037  1.6612 -0.7982
  475MOL0     H65534   8.299   3.293   5.361  0.5569  0.6311  0.3135
  475MOL0     H65535   8.551   3.224   5.368 -0.4371 -0.2020  0.0932
  475MOL0     H65536   8.900   3.121   5.665  1.3734 -2.3400  0.0306
  475MOL0     H65537   9.123   3.048   5.658  3.3166  0.6325  3.1899
  475MOL0     H65538   9.373   3.185   5.749 -1.1707  0.2273 -0.7711
  475MOL0     H65539   9.338   3.022   5.692 -1.3072  0.3513  2.7700
  475MOL0     H65540   9.555   3.021   5.575 -4.0954  1.8666 -1.7114
  475MOL0     H65541   9.587   3.064   5.745 -0.1892 -2.9759 -0.4600
  475MOL0     H65542   9.574   3.294   5.537 -2.2179  0.7654  1.8568
  475MOL0     H65543   9.598   3.298   5.706 -0.6673 -0.5202 -0.1959
  475MOL0     H65544   9.800   3.323   5.580 -0.6180  0.7818 -0.0933
  475MOL0     H65545   9.793   3.162   5.509 -0.4687 -2.3216  2.2534
  475MOL0     H65546   9.908   3.070   5.907 -2.0323 -1.8195 -0.2211
  475MOL0     H65547   9.248   3.423   5.497 -0.0537  0.3066  0.6055
  475MOL0     H65548   9.117   3.616   5.511 -1.6850  2.0196  1.7279
  475MOL0     H65549   8.988   3.567   5.397  1.9718  2.1445 -0.2907
  475MOL0     H65550   8.963   3.606   5.572 -0.1527  2.6759 -1.7647
  476MOL0     O65551   8.591   5.735  10.593  0.1012 -0.0445  0.2319
  476MOL0     C65552   8.622   5.720  10.474  0.4677 -0.0625  0.0571
  476MOL0     O65553   8.556   5.790  10.369  0.2335  0.6017 -0.2383
  476MOL0     C65554   8.457   5.885  10.398  0.2382 -0.1526 -0.0559
  476MOL0     C65555   8.329   5.842  10.435  0.3306  0.0667  0.1344
  476MOL0     C65556   8.230   5.933  10.451 -0.1295  0.7537 -1.1143
  476MOL0     C65557   8.251   6.070  10.454 -1.7293  0.0016  0.0063
  476MOL0     O65558   8.155   6.156  10.489 -0.2136  0.4480  0.0022
  476MOL0     C65559   8.179   6.297  10.493  0.3811  0.2794 -0.6983
  476MOL0     C65560   8.052   6.380  10.497  0.0075  0.0652 -0.0004
  476MOL0     C65561   7.966   6.349  10.629 -0.1018 -0.9304  0.6776
  476MOL0     C65562   7.840   6.440  10.626  0.8190  0.3413 -0.3898
  476MOL0     C65563   7.716   6.362  10.585  1.1679 -0.5850  0.3504
  476MOL0     C65564   7.592   6.447  10.620  0.3657  0.0290  0.5467
  476MOL0     C65565   7.465   6.364  10.615 -0.5070 -1.0255  0.5138
  476MOL0     C65566   7.330   6.439  10.657 -0.2741 -0.6031 -0.6211
  476MOL0     N65567   7.219   6.360  10.612  0.9468 -0.7477  0.3608
  476MOL0     C65568   7.193   6.230  10.650  0.4506 -0.2506  0.1268
  476MOL0     C65569   7.076   6.206  10.583 -0.2650  0.1057 -0.1568
  476MOL0     C65570   7.009   6.078  10.558  0.4305 -0.6604  0.0060
  476MOL0     C65571   7.024   5.977  10.667  0.8956  0.4682 -0.1415
  476MOL0     C65572   6.959   5.844  10.630 -0.0214  0.0351 -0.1929
  476MOL0     C65573   6.962   5.733  10.737 -0.6090  0.9388 -0.5560
  476MOL0     O65574   6.929   5.790  10.861 -0.1518 -0.0530  0.4783
  476MOL0     C65575   6.801   5.756  10.906 -0.0987  0.0321 -0.3369
  476MOL0     C65576   6.697   5.702  10.829 -0.2444 -0.2830  0.1546
  476MOL0     C65577   6.572   5.662  10.883 -0.3826  0.4353  0.0312
  476MOL0     C65578   6.489   5.571  10.809  0.2110 -0.4417 -0.2519
  476MOL0     C65579   6.549   5.680  11.018  0.0085  0.1840 -0.1900
  476MOL0     C65580   6.441   5.629  11.094  0.2417 -0.0740 -0.0118
  476MOL0     O65581   6.350   5.716  11.139  0.0276 -0.1978  0.5772
  476MOL0     C65582   6.232   5.670  11.181  0.4073 -0.6334 -0.4318
  476MOL0     C65583   6.146   5.586  11.108 -0.2791  0.1467 -0.0316
  476MOL0     C65584   6.017   5.561  11.159 -0.3945  0.6099  0.5338
  476MOL0     C65585   5.969   5.607  11.276 -0.0602 -0.1883  0.9634
  476MOL0     O65586   5.850   5.575  11.323 -0.3474 -0.1622  0.4567
  476MOL0     C65587   5.740   5.578  11.223 -0.6404 -0.3845  0.1612
  476MOL0     C65588   5.637   5.470  11.247  0.5493 -0.1459 -0.0203
  476MOL0     C65589   5.536   5.474  11.131  0.0578  0.0482  0.3064
  476MOL0     C65590   5.446   5.353  11.148  0.7935 -1.4104 -0.0716
  476MOL0     C65591   5.336   5.375  11.251  1.1987 -0.7019  0.6318
  476MOL0     C65592   5.226   5.473  11.199 -0.5464 -0.9040  0.9624
  476MOL0     C65593   5.122   5.501  11.303 -1.4378  0.6463  0.5758
  476MOL0     C65594   5.027   5.591  11.239  0.1703 -0.0841  1.1530
  476MOL0    Cl65595   4.891   5.653  11.342 -0.3710  0.5075  0.0840
  476MOL0     C65596   6.050   5.696  11.346  0.4699 -0.2476  0.4804
  476MOL0     C65597   6.180   5.728  11.297 -0.1182 -0.1012 -0.0897
  476MOL0     O65598   6.433   5.508  11.087 -0.4042  0.9012 -0.2198
  476MOL0     C65599   6.648   5.747  11.091  0.6628 -0.4914  0.4269
  476MOL0     C65600   6.763   5.796  11.036 -0.6840 -0.3270 -0.1820
  476MOL0     N65601   7.035   6.313  10.500 -0.1439 -0.6236  0.3279
  476MOL0     N65602   7.117   6.412  10.528  0.3071  0.4041 -0.2186
  476MOL0     C65603   8.391   6.112  10.436 -0.2745 -0.1073  0.3366
  476MOL0     C65604   8.485   6.016  10.400 -0.4294 -0.2707  0.1645
  476MOL0     C65605   8.719   5.622  10.434 -0.0290 -0.9908 -0.2990
  476MOL0     C65606   8.689   5.493  10.473 -0.1565  0.3944  0.1540
  476MOL0     C65607   8.778   5.390  10.438  0.2682  0.2437  0.3678
  476MOL0     C65608   8.883   5.410  10.360 -0.9431 -0.6817 -0.4236
  476MOL0     O65609   8.946   5.299  10.313  0.2046  0.1083  0.3632
  476MOL0     C65610   9.076   5.307  10.237 -0.6740 -0.0251  0.0455
  476MOL0     C65611   9.188   5.331  10.336  1.2301 -0.1255  0.1645
  476MOL0     C65612   9.330   5.282  10.296 -0.3669 -0.1187  0.2401
  476MOL0     C65613   9.408   5.277  10.434 -0.2924 -0.5016  0.0243
  476MOL0     C65614   9.555   5.274  10.409 -1.0754  0.0971  0.5132
  476MOL0     C65615   9.670   5.255  10.374 -0.5547 -0.0805  0.1438
  476MOL0     C65616   8.913   5.532  10.316  0.4200  0.7894 -0.0694
  476MOL0     C65617   8.824   5.644  10.343 -0.1981 -0.7176 -0.1541
  476MOL0     C65618   8.851   5.782  10.270 -0.0659  0.2602 -0.1997
  476MOL0     H65619   8.302   5.737  10.435  0.1314  0.0920 -1.4621
  476MOL0     H65620   8.128   5.896  10.460  0.7210 -1.2045  1.6506
  476MOL0     H65621   8.234   6.327  10.403  3.0037  0.1608  0.7794
  476MOL0     H65622   8.243   6.331  10.574  0.5037  0.2885 -0.7984
  476MOL0     H65623   8.073   6.488  10.493  1.0145 -0.1629 -2.0227
  476MOL0     H65624   7.986   6.350  10.416 -0.3742  0.0093  0.3256
  476MOL0     H65625   7.940   6.243  10.629 -2.4986 -0.4432 -1.3596
  476MOL0     H65626   8.031   6.374  10.713  1.7082 -0.7394 -0.7282
  476MOL0     H65627   7.834   6.479  10.728  1.9177 -3.0468  1.0973
  476MOL0     H65628   7.854   6.520  10.553  2.3022  1.3539  0.9370
  476MOL0     H65629   7.706   6.272  10.647 -1.1594 -0.5076  0.1790
  476MOL0     H65630   7.718   6.316  10.486  1.3457 -0.1990  0.1739
  476MOL0     H65631   7.614   6.488  10.719 -1.3864 -0.2421  1.0792
  476MOL0     H65632   7.566   6.529  10.552 -0.8306  0.7225  1.7860
  476MOL0     H65633   7.477   6.276  10.680  0.8592  1.5431  4.0443
  476MOL0     H65634   7.454   6.330  10.511  0.1408 -0.7177  0.3450
  476MOL0     H65635   7.327   6.441  10.766 -0.2907  3.5462 -0.5221
  476MOL0     H65636   7.329   6.539  10.612  0.0057  0.1370  0.9454
  476MOL0     H65637   7.259   6.162  10.701 -3.1417 -2.6058  2.0402
  476MOL0     H65638   7.053   6.047  10.463  0.3870 -1.5943  0.2833
  476MOL0     H65639   6.903   6.102  10.554  0.3287  0.7589  4.6474
  476MOL0     H65640   7.131   5.960  10.676  1.0077  0.1779 -1.6740
  476MOL0     H65641   6.987   6.019  10.761  0.3784 -1.1322  0.4141
  476MOL0     H65642   6.854   5.861  10.604 -0.0094 -1.1356 -1.0858
  476MOL0     H65643   7.018   5.817  10.542  1.6254 -0.9565  1.1618
  476MOL0     H65644   6.917   5.639  10.704  1.9240 -0.5527 -0.0148
  476MOL0     H65645   7.062   5.693  10.754 -0.4589  0.2372 -2.7528
  476MOL0     H65646   6.721   5.679  10.725  0.9205  1.8720 -0.1135
  476MOL0     H65647   6.499   5.577  10.700 -0.4239 -0.1797 -0.2966
  476MOL0     H65648   6.387   5.598  10.836  0.2619 -0.5861  0.0888
  476MOL0     H65649   6.507   5.469  10.844  0.3965 -0.2016  0.3596
  476MOL0     H65650   6.173   5.550  11.010  1.7240  2.6446 -0.5070
  476MOL0     H65651   5.966   5.481  11.108  2.0189 -1.6716  1.4593
  476MOL0     H65652   5.695   5.678  11.216  0.5494  0.2419  0.9880
  476MOL0     H65653   5.777   5.572  11.120  2.7464  1.5666  1.0829
  476MOL0     H65654   5.694   5.377  11.248 -0.7671 -1.0348 -2.1542
  476MOL0     H65655   5.589   5.472  11.346  1.4274 -3.1885  0.5787
  476MOL0     H65656   5.587   5.459  11.036 -0.1237  1.6068 -0.0675
  476MOL0     H65657   5.477   5.566  11.117 -0.8976 -0.3246  1.6750
  476MOL0     H65658   5.505   5.266  11.177  2.4751  0.3721  2.2902
  476MOL0     H65659   5.409   5.334  11.047  1.0343  2.3942 -1.0498
  476MOL0     H65660   5.277   5.288  11.283 -0.2375  0.8722  2.4868
  476MOL0     H65661   5.384   5.416  11.340  0.9757  0.1291  0.3754
  476MOL0     H65662   5.189   5.442  11.102 -0.3013  1.6425 -0.0221
  476MOL0     H65663   5.267   5.570  11.171 -2.8715 -0.3847 -0.9338
  476MOL0     H65664   5.172   5.552  11.385  0.7301  0.8464 -0.8074
  476MOL0     H65665   5.086   5.405  11.340 -2.6686  1.6018  1.9854
  476MOL0     H65666   4.985   5.532  11.157  0.7412  0.4286  0.4824
  476MOL0     H65667   5.075   5.681  11.200 -2.6147  0.2791 -1.8672
  476MOL0     H65668   6.011   5.737  11.438 -0.1566 -0.3005  0.2463
  476MOL0     H65669   6.233   5.789  11.370  0.1298 -1.3725  0.8310
  476MOL0     H65670   6.625   5.768  11.195  1.7316 -0.2764  0.6243
  476MOL0     H65671   6.828   5.847  11.107 -1.9607  0.5332  0.4112
  476MOL0     H65672   8.412   6.219  10.437  1.9951 -0.4817 -1.1725
  476MOL0     H65673   8.587   6.046  10.379 -1.0440  0.5269 -1.9492
  476MOL0     H65674   8.606   5.479  10.542 -0.5901  1.5792 -0.0974
  476MOL0     H65675   8.759   5.287  10.467  3.8465 -0.1415  1.9256
  476MOL0     H65676   9.095   5.210  10.189 -0.5030  0.5164 -1.0066
  476MOL0     H65677   9.088   5.388  10.165 -0.0959 -0.0444  0.1174
  476MOL0     H65678   9.159   5.272  10.424 -2.7446 -1.4089 -1.7723
  476MOL0     H65679   9.195   5.438  10.358 -0.5601  0.1809 -0.6336
  476MOL0     H65680   9.345   5.194  10.232 -2.5423 -1.8204  1.9315
  476MOL0     H65681   9.371   5.365  10.238  3.5947 -1.6851  0.4769
  476MOL0     H65682   9.385   5.188  10.493 -0.8786 -1.4291 -1.5466
  476MOL0     H65683   9.388   5.369  10.490  1.2770 -0.6434  0.8571
  476MOL0     H65684   9.772   5.256  10.342 -0.5630 -0.6726  0.0859
  476MOL0     H65685   8.995   5.565  10.253  0.5895 -0.0820 -0.3208
  476MOL0     H65686   8.951   5.788  10.226  0.3361 -0.0767  0.6504
  476MOL0     H65687   8.783   5.802  10.187 -0.0455  0.5544 -0.1487
  476MOL0     H65688   8.844   5.873  10.331 -1.8747  2.2286 -3.0671
  477MOL0     O65689   7.581   9.645  11.142 -0.0095  0.6320 -0.5961
  477MOL0     C65690   7.524   9.745  11.165  1.0118 -1.1370 -0.7037
  477MOL0     O65691   7.521   9.817  11.284  0.0029 -0.1352  0.9856
  477MOL0     C65692   7.591   9.773  11.395 -0.9733 -0.3929  0.2731
  477MOL0     C65693   7.539   9.813  11.522  0.5653  0.4684  0.3552
  477MOL0     C65694   7.608   9.781  11.639  0.5229 -0.6263  0.2807
  477MOL0     C65695   7.738   9.733  11.643 -0.1618  0.2025  0.0124
  477MOL0     O65696   7.797   9.737  11.765  0.1997  0.0165 -0.5886
  477MOL0     C65697   7.926   9.687  11.789  0.1420  0.4105 -0.1780
  477MOL0     C65698   7.937   9.626  11.929 -0.7164 -0.5434 -0.2962
  477MOL0     C65699   8.069   9.555  11.959  0.1436 -0.1451  0.1304
  477MOL0     C65700   8.176   9.667  11.953  0.9574 -0.0564 -0.0489
  477MOL0     C65701   8.302   9.629  12.013 -0.3620  0.2339  1.4232
  477MOL0     C65702   8.419   9.626  11.919  0.7981  0.4281  0.2760
  477MOL0     C65703   8.552   9.616  11.981 -0.5868  0.0660  0.0873
  477MOL0     C65704   8.668   9.614  11.881 -0.0250  0.2751  0.6936
  477MOL0     N65705   8.800   9.610  11.946 -0.3738  0.3023  0.6867
  477MOL0     C65706   8.862   9.511  12.002  0.1400  0.4302  0.0723
  477MOL0     C65707   8.980   9.560  12.045  0.7131 -0.1322  0.1997
  477MOL0     C65708   9.081   9.474  12.106 -1.1392  0.0595 -0.1161
  477MOL0     C65709   9.048   9.435  12.249  0.5805 -1.1873 -0.3468
  477MOL0     C65710   9.054   9.553  12.365 -0.0435 -0.0810  0.3937
  477MOL0     C65711   9.201   9.583  12.398 -0.5722  0.2852 -0.5993
  477MOL0     O65712   9.246   9.476  12.474  0.2697  0.0334  0.3944
  477MOL0     C65713   9.364   9.488  12.533 -0.6091  0.1216 -0.2136
  477MOL0     C65714   9.413   9.611  12.579  0.8238 -0.1755  0.5295
  477MOL0     C65715   9.536   9.621  12.645 -0.5420  0.1919 -0.7605
  477MOL0     C65716   9.572   9.763  12.680 -0.1377 -0.3665 -0.7135
  477MOL0     C65717   9.619   9.507  12.658 -0.7557  0.3621  0.6343
  477MOL0     C65718   9.755   9.508  12.715 -1.0082 -0.0514 -0.6929
  477MOL0     O65719   9.835   9.398  12.686  0.3378  0.4135 -0.0866
  477MOL0     C65720   9.964   9.390  12.728  0.6334  0.3155  0.8719
  477MOL0     C65721  10.043   9.494  12.773  0.0212  0.0394 -0.3505
  477MOL0     C65722  10.175   9.462  12.822  0.4256 -0.3836  0.7145
  477MOL0     C65723  10.226   9.336  12.819 -0.9449  0.8148 -0.4329
  477MOL0     O65724  10.354   9.292  12.859  0.1691 -0.2572  0.0340
  477MOL0     C65725  10.440   9.394  12.909  0.2190 -0.5874  0.7637
  477MOL0     C65726  10.570   9.322  12.956 -0.1871 -0.0745 -0.4991
  477MOL0     C65727  10.704   9.402  12.941 -0.1154  0.6170  0.5844
  477MOL0     C65728  10.829   9.315  12.953 -0.0645 -0.8884 -0.0398
  477MOL0     C65729  10.955   9.403  12.916 -0.2285  0.5255  0.3104
  477MOL0     C65730  11.077   9.319  12.893  0.4690  0.2054  0.5907
  477MOL0     C65731  11.196   9.406  12.854  0.0923 -0.0741  0.2848
  477MOL0     C65732  11.342   9.330  12.859  0.1497 -0.3378 -0.2458
  477MOL0    Cl65733  11.377   9.271  13.022  0.0392  0.1360  0.0530
  477MOL0     C65734  10.151   9.232  12.766  0.1082 -0.1494  0.2624
  477MOL0     C65735  10.018   9.261  12.715 -0.4369 -0.3259  0.0395
  477MOL0     O65736   9.791   9.593  12.797 -0.2411 -0.0017 -0.0635
  477MOL0     C65737   9.573   9.391  12.597  0.8538  0.1308  0.1651
  477MOL0     C65738   9.444   9.375  12.549 -0.0985 -0.1167  0.2202
  477MOL0     N65739   8.986   9.697  12.016  0.3759 -0.4069 -0.3210
  477MOL0     N65740   8.870   9.720  11.961 -0.1033 -0.4696 -0.2097
  477MOL0     C65741   7.801   9.700  11.521  0.1145  0.2386 -0.3109
  477MOL0     C65742   7.719   9.716  11.397 -0.7988 -0.4069 -0.4441
  477MOL0     C65743   7.449   9.810  11.047  0.0736 -0.2827  0.3266
  477MOL0     C65744   7.335   9.902  11.079 -1.3476 -0.0786 -0.2247
  477MOL0     C65745   7.265   9.960  10.977 -0.6470  0.0964 -0.3894
  477MOL0     C65746   7.313   9.939  10.845 -0.1295 -0.5563  0.1419
  477MOL0     O65747   7.255  10.004  10.737 -0.2234  0.8920  0.2037
  477MOL0     C65748   7.133  10.073  10.748  0.2438  0.4096 -0.4426
  477MOL0     C65749   7.003   9.983  10.729 -0.0204 -0.1242 -0.0026
  477MOL0     C65750   6.870  10.067  10.730  0.1014 -0.1928  0.2087
  477MOL0     C65751   6.748  10.012  10.811 -0.7016  0.2541 -1.0607
  477MOL0     C65752   6.770   9.998  10.958 -0.4644  0.3920 -0.2967
  477MOL0     C65753   6.782  10.001  11.080 -0.9339  0.2296 -0.4284
  477MOL0     C65754   7.429   9.863  10.819  0.8918  0.2372  0.1991
  477MOL0     C65755   7.492   9.796  10.918 -0.4661 -0.6396 -0.0030
  477MOL0     C65756   7.620   9.730  10.878  0.1362 -0.7053 -0.1594
  477MOL0     H65757   7.448   9.871  11.529 -1.2032 -2.0079 -0.7239
  477MOL0     H65758   7.562   9.791  11.736  0.5209  0.0538  0.2154
  477MOL0     H65759   8.006   9.761  11.773  1.0715 -0.7441 -1.0208
  477MOL0     H65760   7.942   9.618  11.706 -2.4860  0.9728 -1.2622
  477MOL0     H65761   7.933   9.707  12.003  1.5451 -0.5682 -0.0576
  477MOL0     H65762   7.852   9.558  11.940 -1.1178 -0.0128 -0.0912
  477MOL0     H65763   8.066   9.513  12.060 -2.0396  0.3782  0.3134
  477MOL0     H65764   8.084   9.477  11.884 -1.4580  1.8166 -2.3685
  477MOL0     H65765   8.188   9.706  11.851 -0.9799  0.7593 -0.0051
  477MOL0     H65766   8.142   9.755  12.009  0.7753  0.5268 -1.0488
  477MOL0     H65767   8.292   9.532  12.064 -1.8946 -0.9130 -0.9123
  477MOL0     H65768   8.322   9.706  12.089 -3.0409  0.6761  1.7605
  477MOL0     H65769   8.398   9.543  11.852 -2.3604  1.0525  0.3452
  477MOL0     H65770   8.417   9.716  11.858 -1.6260 -2.0130 -3.6495
  477MOL0     H65771   8.562   9.530  12.049 -1.0971 -0.5622 -0.6197
  477MOL0     H65772   8.560   9.710  12.037 -2.6735  1.2509 -1.5016
  477MOL0     H65773   8.662   9.516  11.833 -0.7084 -0.9302  3.0738
  477MOL0     H65774   8.653   9.692  11.807 -0.7302 -0.7696 -0.2891
  477MOL0     H65775   8.844   9.404  12.006  2.5291  0.0247  2.5647
  477MOL0     H65776   9.177   9.526  12.111 -1.5781  0.7817  1.6914
  477MOL0     H65777   9.096   9.381  12.050  2.7873  0.5567 -0.1878
  477MOL0     H65778   8.944   9.405  12.255  0.1159  0.5900  2.1202
  477MOL0     H65779   9.116   9.358  12.285  1.7007 -0.3712 -0.6397
  477MOL0     H65780   9.006   9.641  12.321 -3.2196 -2.5161 -1.3786
  477MOL0     H65781   8.998   9.512  12.450 -2.0166 -0.9985 -1.2682
  477MOL0     H65782   9.264   9.594  12.309  0.3148  1.7455  0.1780
  477MOL0     H65783   9.207   9.681  12.447  1.9189  0.5515 -1.3195
  477MOL0     H65784   9.363   9.705  12.555  2.7404  0.1001 -2.9864
  477MOL0     H65785   9.494   9.836  12.659 -0.5318 -0.7723 -0.6921
  477MOL0     H65786   9.656   9.798  12.619  0.5402  1.5853  1.1939
  477MOL0     H65787   9.598   9.781  12.785 -1.3001 -1.2775 -0.2360
  477MOL0     H65788  10.014   9.598  12.786 -2.4475 -0.2053 -2.8738
  477MOL0     H65789  10.237   9.546  12.852  1.0300  0.3652 -2.2799
  477MOL0     H65790  10.457   9.469  12.832 -2.3112  1.0593  1.6943
  477MOL0     H65791  10.393   9.440  12.996 -1.6939 -0.6262 -0.1927
  477MOL0     H65792  10.553   9.291  13.060 -2.9674  0.1344 -0.8022
  477MOL0     H65793  10.585   9.235  12.891  0.1231 -1.4208  1.2754
  477MOL0     H65794  10.725   9.479  13.016  5.1306  1.3982 -1.2534
  477MOL0     H65795  10.692   9.459  12.849 -1.2449 -0.7890 -0.1778
  477MOL0     H65796  10.830   9.240  12.874 -1.0515 -0.8183 -0.1369
  477MOL0     H65797  10.833   9.272  13.054 -2.2199  1.2280  1.0322
  477MOL0     H65798  10.933   9.460  12.826 -3.2813 -1.8221 -0.6265
  477MOL0     H65799  10.975   9.469  13.001 -1.4791 -0.0559  1.0849
  477MOL0     H65800  11.051   9.248  12.815  0.3773  1.4162 -0.5106
  477MOL0     H65801  11.091   9.263  12.986 -1.6794 -0.6284  0.4931
  477MOL0     H65802  11.210   9.484  12.929 -1.0336 -1.0070  1.5152
  477MOL0     H65803  11.184   9.441  12.751 -1.1912  0.5328  0.6196
  477MOL0     H65804  11.419   9.398  12.821  1.2518 -2.0006 -1.0626
  477MOL0     H65805  11.343   9.252  12.782  0.6045  0.8992 -1.5498
  477MOL0     H65806  10.189   9.130  12.761  1.2542  0.2758 -0.1235
  477MOL0     H65807   9.951   9.183  12.681  1.2565 -0.9001 -2.2221
  477MOL0     H65808   9.641   9.306  12.597  1.4536  0.5757  1.6738
  477MOL0     H65809   9.400   9.279  12.524 -1.5212  0.7690 -0.7990
  477MOL0     H65810   7.906   9.677  11.511  0.4149 -0.0519  2.6022
  477MOL0     H65811   7.771   9.690  11.305 -0.4585  3.6826 -1.6188
  477MOL0     H65812   7.305   9.916  11.183 -0.1854  0.0293  0.1204
  477MOL0     H65813   7.168   9.998  11.010 -1.3454 -0.6379 -1.5442
  477MOL0     H65814   7.121  10.122  10.845  0.9463 -5.7018  3.2981
  477MOL0     H65815   7.119  10.138  10.662 -1.1250  1.4864  0.5425
  477MOL0     H65816   6.997   9.905  10.806 -0.2871  0.6295  0.7535
  477MOL0     H65817   7.015   9.933  10.633  0.5752  1.6045 -0.8780
  477MOL0     H65818   6.890  10.164  10.777 -0.2507  0.6371 -1.2676
  477MOL0     H65819   6.848  10.086  10.624  1.1202  2.0945  0.3375
  477MOL0     H65820   6.717   9.916  10.770 -2.8907  2.2875 -4.7074
  477MOL0     H65821   6.659  10.076  10.813 -1.4007 -0.7140 -0.4003
  477MOL0     H65822   6.799  10.001  11.186 -1.8268 -0.5959 -0.2677
  477MOL0     H65823   7.465   9.860  10.716 -0.4702 -2.6055 -0.2958
  477MOL0     H65824   7.637   9.732  10.770 -1.3224  5.3201 -0.6198
  477MOL0     H65825   7.700   9.779  10.935 -0.6111  1.6153 -0.9820
  477MOL0     H65826   7.616   9.625  10.908 -0.6581 -1.2132 -1.9081
  478MOL0     O65827   0.197   5.539   4.924 -0.4777  0.1333 -0.6340
  478MOL0     C65828   0.205   5.567   4.800 -0.4150  0.7287 -0.5198
  478MOL0     O65829   0.324   5.606   4.735  0.4775  0.4738 -0.1997
  478MOL0     C65830   0.439   5.625   4.808 -0.9775  0.0125  0.4659
  478MOL0     C65831   0.526   5.522   4.856  0.2417  0.3327 -0.0524
  478MOL0     C65832   0.640   5.550   4.932 -0.5682 -0.2146 -0.7631
  478MOL0     C65833   0.685   5.692   4.932 -0.9862  0.5981 -1.1981
  478MOL0     O65834   0.814   5.708   4.967 -0.0253 -0.3601  0.2862
  478MOL0     C65835   0.869   5.838   4.995  0.5200  0.3412 -0.0281
  478MOL0     C65836   1.019   5.843   5.028  0.0923  0.6231  0.9265
  478MOL0     C65837   1.083   5.971   5.044  0.3850 -0.5284  0.5080
  478MOL0     C65838   1.230   5.961   5.085 -0.0168 -0.1764  0.7190
  478MOL0     C65839   1.294   6.099   5.145  1.0589  0.2509 -0.3352
  478MOL0     C65840   1.444   6.094   5.160  0.4038 -0.4966 -0.2658
  478MOL0     C65841   1.495   6.181   5.275 -0.0460  0.2960 -1.1310
  478MOL0     C65842   1.493   6.331   5.234  0.5181  0.5700 -0.0986
  478MOL0     N65843   1.511   6.414   5.352  0.3618 -0.0335 -0.5553
  478MOL0     C65844   1.591   6.387   5.461  0.6343  0.1781  1.2482
  478MOL0     C65845   1.569   6.486   5.541 -0.7551 -0.5994 -0.2497
  478MOL0     C65846   1.613   6.520   5.679 -0.3611  0.2951  0.3890
  478MOL0     C65847   1.543   6.436   5.785  0.0312 -0.4235  0.2507
  478MOL0     C65848   1.618   6.314   5.821 -0.3204  0.0895  0.1003
  478MOL0     C65849   1.555   6.237   5.936  0.7109  0.6305  0.9412
  478MOL0     O65850   1.438   6.178   5.879 -0.4483  0.7677  0.0662
  478MOL0     C65851   1.334   6.138   5.961  0.4037  0.8418  0.0887
  478MOL0     C65852   1.212   6.091   5.905 -0.6340  0.1647  0.6241
  478MOL0     C65853   1.103   6.055   5.976 -0.1629  0.4109  0.0800
  478MOL0     C65854   0.978   6.010   5.903 -0.7488  0.6334  0.1126
  478MOL0     C65855   1.114   6.052   6.119 -0.6122 -0.2947  0.4097
  478MOL0     C65856   1.006   5.996   6.206  0.6187 -0.2011 -0.0931
  478MOL0     O65857   0.986   6.044   6.325  0.0300  0.3901  0.9435
  478MOL0     C65858   0.865   6.009   6.377 -0.4058  0.6073 -0.1668
  478MOL0     C65859   0.854   5.900   6.469 -0.2203 -0.4731  1.1470
  478MOL0     C65860   0.734   5.874   6.533 -0.8006 -0.2047  0.1082
  478MOL0     C65861   0.622   5.956   6.513  0.2744  0.2345  0.4435
  478MOL0     O65862   0.506   5.931   6.578  0.1990  1.1983 -0.3907
  478MOL0     C65863   0.384   5.946   6.497 -0.0694  0.1403 -0.4597
  478MOL0     C65864   0.313   6.063   6.564  0.1814  0.1794  0.2175
  478MOL0     C65865   0.221   6.133   6.457  0.2184  0.2958 -0.0528
  478MOL0     C65866   0.289   6.253   6.378 -0.6626 -0.8785 -0.8339
  478MOL0     C65867   0.181   6.333   6.295 -0.0958 -0.5992 -0.0453
  478MOL0     C65868   0.075   6.394   6.399 -0.2284  0.7207  0.3708
  478MOL0     C65869  -0.013   6.502   6.351  0.5480 -0.6442 -0.0660
  478MOL0     C65870   0.060   6.642   6.321  0.4880  0.2726 -0.4403
  478MOL0    Cl65871   0.131   6.713   6.463 -0.3212 -0.0337 -0.0059
  478MOL0     C65872   0.638   6.070   6.435 -0.0964 -0.1326  0.3274
  478MOL0     C65873   0.755   6.097   6.363 -0.3505  0.5567 -1.0219
  478MOL0     O65874   0.951   5.892   6.168 -0.8439  0.2343  0.4788
  478MOL0     C65875   1.237   6.103   6.179 -0.0283  0.1729 -0.7058
  478MOL0     C65876   1.348   6.136   6.103  0.6447  1.4624  0.4132
  478MOL0     N65877   1.491   6.585   5.478 -0.0052  0.3518  0.0844
  478MOL0     N65878   1.453   6.537   5.362 -0.9867 -0.0291  0.7814
  478MOL0     C65879   0.609   5.788   4.865 -0.4833 -0.6600 -0.7584
  478MOL0     C65880   0.485   5.757   4.816  0.6259  0.1773  0.3975
  478MOL0     C65881   0.083   5.571   4.727 -0.1280  0.2905 -0.6746
  478MOL0     C65882   0.065   5.670   4.630 -0.2732  0.7609  0.0780
  478MOL0     C65883  -0.047   5.667   4.550  0.3344  0.5822 -0.1402
  478MOL0     C65884  -0.147   5.568   4.560  0.1803  0.4040 -0.0836
  478MOL0     O65885  -0.249   5.545   4.473  0.8455  0.2396 -0.1452
  478MOL0     C65886  -0.262   5.627   4.354 -0.1230 -0.4240 -0.6287
  478MOL0     C65887  -0.371   5.562   4.266  0.3998  0.2849 -0.2737
  478MOL0     C65888  -0.507   5.570   4.340  1.1106  0.0316  0.0544
  478MOL0     C65889  -0.605   5.469   4.280  0.1299 -0.4132  0.5463
  478MOL0     C65890  -0.745   5.498   4.329 -0.4341 -0.3379  0.5120
  478MOL0     C65891  -0.861   5.516   4.361 -0.6588  0.5795 -0.6820
  478MOL0     C65892  -0.135   5.468   4.663  0.7330 -0.5101  0.3371
  478MOL0     C65893  -0.025   5.473   4.745 -0.0926  0.1825 -0.8738
  478MOL0     C65894  -0.010   5.364   4.849 -0.1150  0.5228 -0.0202
  478MOL0     H65895   0.502   5.417   4.845 -0.3858  0.4712 -0.0616
  478MOL0     H65896   0.696   5.462   4.961 -0.0728  1.0211  2.5358
  478MOL0     H65897   0.802   5.873   5.073 -0.9452 -0.6134 -0.8263
  478MOL0     H65898   0.863   5.903   4.907  0.8950 -0.2095 -0.4676
  478MOL0     H65899   1.042   5.781   5.116  2.3812  1.5814  1.0803
  478MOL0     H65900   1.075   5.794   4.948 -0.3783  0.1064  0.9118
  478MOL0     H65901   1.079   6.034   4.955  0.5550 -1.6298 -0.3038
  478MOL0     H65902   1.031   6.019   5.127 -1.0936 -0.6303 -0.3191
  478MOL0     H65903   1.229   5.887   5.166 -1.1541 -1.9832 -0.8550
  478MOL0     H65904   1.290   5.932   4.998 -3.1389 -0.5921 -1.4840
  478MOL0     H65905   1.238   6.132   5.234  0.4255  2.6298 -1.5173
  478MOL0     H65906   1.281   6.180   5.073  4.5066  0.7745 -0.5225
  478MOL0     H65907   1.460   5.989   5.186 -0.8694 -0.2257  1.8666
  478MOL0     H65908   1.491   6.120   5.065 -0.4996  0.4408 -0.4738
  478MOL0     H65909   1.599   6.155   5.297  0.1023  2.3510  1.0121
  478MOL0     H65910   1.428   6.174   5.361 -0.4826 -0.9270 -1.5506
  478MOL0     H65911   1.561   6.355   5.151 -2.5490  1.0647 -2.6899
  478MOL0     H65912   1.392   6.355   5.200 -0.3531 -0.8954  1.3537
  478MOL0     H65913   1.640   6.295   5.490 -2.9426 -2.4156 -0.2206
  478MOL0     H65914   1.589   6.626   5.695 -0.8747  0.0756  1.1043
  478MOL0     H65915   1.722   6.504   5.682  0.0257  2.6670  1.0664
  478MOL0     H65916   1.527   6.492   5.878 -1.9933  2.9204 -1.9125
  478MOL0     H65917   1.443   6.413   5.747 -0.9442 -0.1634  2.4700
  478MOL0     H65918   1.612   6.243   5.738 -1.2820  0.1206  0.1305
  478MOL0     H65919   1.718   6.354   5.837  0.3197 -0.0170 -2.9339
  478MOL0     H65920   1.616   6.151   5.966  1.3464  0.0590 -1.7321
  478MOL0     H65921   1.537   6.309   6.016 -0.3894  4.2355 -2.2682
  478MOL0     H65922   1.208   6.096   5.796  0.8344  0.8556  0.5694
  478MOL0     H65923   0.890   6.047   5.957 -0.7331 -0.7889  1.1762
  478MOL0     H65924   0.980   5.903   5.885 -0.2268  0.8900 -1.5244
  478MOL0     H65925   0.978   6.056   5.804  1.6574  1.9772  0.6450
  478MOL0     H65926   0.946   5.849   6.497  0.0882 -0.7104 -0.2396
  478MOL0     H65927   0.736   5.782   6.590  0.8688 -1.5883 -2.0115
  478MOL0     H65928   0.410   5.966   6.392 -0.9433 -0.9266 -0.9025
  478MOL0     H65929   0.316   5.861   6.495 -0.3496  0.3341  0.5563
  478MOL0     H65930   0.266   6.025   6.655  3.0023 -1.0687  1.2826
  478MOL0     H65931   0.378   6.145   6.595 -2.4883  2.5037  0.0132
  478MOL0     H65932   0.131   6.164   6.512 -0.3753 -2.8218  0.9703
  478MOL0     H65933   0.176   6.061   6.389  0.5765  2.1571 -2.3799
  478MOL0     H65934   0.375   6.208   6.327 -0.3415 -1.2959  0.0402
  478MOL0     H65935   0.339   6.320   6.450  1.7562 -1.0519 -2.2264
  478MOL0     H65936   0.224   6.413   6.233 -0.8831 -1.4041 -1.7005
  478MOL0     H65937   0.139   6.256   6.230  0.8626 -0.1331 -1.2576
  478MOL0     H65938   0.125   6.436   6.487  2.2287  2.8956 -1.8882
  478MOL0     H65939   0.007   6.313   6.427  0.9521 -2.6725 -5.0793
  478MOL0     H65940  -0.079   6.527   6.435  0.1128  0.3207 -0.6667
  478MOL0     H65941  -0.076   6.468   6.269  0.3488  1.3075 -0.7790
  478MOL0     H65942  -0.012   6.714   6.280 -0.3264 -1.4131 -2.1336
  478MOL0     H65943   0.140   6.622   6.250 -1.3975 -0.6671 -2.4238
  478MOL0     H65944   0.555   6.140   6.435  1.2586  1.5380 -0.0449
  478MOL0     H65945   0.770   6.184   6.300  0.1589  0.7118 -0.6940
  478MOL0     H65946   1.246   6.112   6.287 -0.0641 -1.7276 -0.5163
  478MOL0     H65947   1.432   6.181   6.156  1.6915  0.6203 -0.4631
  478MOL0     H65948   0.646   5.887   4.843 -1.0440 -0.1236  0.6173
  478MOL0     H65949   0.433   5.837   4.765 -0.0685 -0.0645  0.7151
  478MOL0     H65950   0.147   5.734   4.600 -0.9903  1.2282 -0.9472
  478MOL0     H65951  -0.059   5.739   4.471  3.6487  0.6250 -0.7801
  478MOL0     H65952  -0.301   5.726   4.381  1.2081  0.8194 -2.9560
  478MOL0     H65953  -0.162   5.630   4.311 -0.1185 -1.7951 -0.7636
  478MOL0     H65954  -0.349   5.457   4.247  0.2996  0.6107 -2.4420
  478MOL0     H65955  -0.375   5.627   4.178  3.4380  1.6738  0.4929
  478MOL0     H65956  -0.492   5.548   4.447 -2.7895  0.5875  0.8775
  478MOL0     H65957  -0.550   5.670   4.331 -0.5365 -0.7980 -2.0159
  478MOL0     H65958  -0.570   5.369   4.304  1.3315 -0.2458 -0.4087
  478MOL0     H65959  -0.611   5.469   4.171  2.0837 -0.0516  0.3871
  478MOL0     H65960  -0.959   5.532   4.400 -0.6277 -0.9762  0.1091
  478MOL0     H65961  -0.207   5.387   4.670  0.7656 -0.7061 -1.2720
  478MOL0     H65962   0.001   5.405   4.950  0.9573 -0.0636  0.1104
  478MOL0     H65963  -0.098   5.298   4.848  0.1510  0.1345  0.9871
  478MOL0     H65964   0.084   5.313   4.827  0.4842  1.2811  0.7175
  479MOL0     O65965   0.057   6.103   5.123 -0.5861  0.0036  0.4015
  479MOL0     C65966   0.058   6.000   5.058 -1.0071 -0.0820  0.1764
  479MOL0     O65967   0.170   5.932   5.015  0.1305 -0.3981 -0.6263
  479MOL0     C65968   0.295   5.965   5.062  0.1403  0.7005  0.1809
  479MOL0     C65969   0.385   5.869   5.117  0.5585  0.5284 -0.2766
  479MOL0     C65970   0.512   5.904   5.155 -0.6733 -0.0801  0.7340
  479MOL0     C65971   0.548   6.038   5.154 -0.1616 -1.0501  0.2862
  479MOL0     O65972   0.677   6.069   5.187 -0.0907 -0.5562  0.4336
  479MOL0     C65973   0.700   6.213   5.199 -0.0692 -0.8034 -0.1555
  479MOL0     C65974   0.840   6.239   5.243 -0.6870 -0.2900 -0.1408
  479MOL0     C65975   0.878   6.377   5.273  0.1806  0.0466  0.7763
  479MOL0     C65976   1.028   6.396   5.301  0.1288  0.1880 -0.9944
  479MOL0     C65977   1.070   6.366   5.445  0.5407 -0.4735 -0.6604
  479MOL0     C65978   1.026   6.475   5.552 -0.1688  0.3080 -0.4604
  479MOL0     C65979   1.148   6.522   5.640 -0.1959  0.0876  0.3828
  479MOL0     C65980   1.107   6.611   5.764 -0.0387  0.5964  1.0298
  479MOL0     N65981   1.222   6.681   5.814  0.3949  0.2657 -0.6202
  479MOL0     C65982   1.255   6.812   5.781  0.2612 -0.4020 -1.3448
  479MOL0     C65983   1.357   6.846   5.872  0.5751  0.5639  0.1002
  479MOL0     C65984   1.428   6.981   5.873 -0.8383  0.4728 -0.2090
  479MOL0     C65985   1.576   6.967   5.892 -0.9294 -0.0645  1.4726
  479MOL0     C65986   1.637   7.104   5.902 -0.2774 -0.6021 -0.4927
  479MOL0     C65987   1.799   7.105   5.916 -0.9279 -1.0516  1.0056
  479MOL0     O65988   1.855   7.002   6.001 -0.2256 -0.6089  0.8294
  479MOL0     C65989   1.987   7.018   6.036  0.2788 -0.4505 -0.2002
  479MOL0     C65990   2.073   7.132   6.026 -0.1384 -0.1779  0.3964
  479MOL0     C65991   2.207   7.135   6.070 -1.1370 -0.0066 -0.4805
  479MOL0     C65992   2.293   7.258   6.045  0.0713  0.1628 -0.5194
  479MOL0     C65993   2.266   7.018   6.135  0.1038  0.0582 -0.1722
  479MOL0     C65994   2.411   6.993   6.177  0.2652 -0.7881 -0.3270
  479MOL0     O65995   2.436   6.888   6.259  1.0761 -0.2512  0.1962
  479MOL0     C65996   2.570   6.843   6.252 -0.0646  0.0780  0.5768
  479MOL0     C65997   2.669   6.916   6.316 -0.4319 -0.4924 -0.3162
  479MOL0     C65998   2.798   6.871   6.340 -0.0561  0.5322  0.6527
  479MOL0     C65999   2.838   6.748   6.272  0.4431  0.6720  0.3666
  479MOL0     O66000   2.970   6.709   6.258 -0.4939 -0.5539 -0.5127
  479MOL0     C66001   3.069   6.765   6.361  1.1076 -0.1414 -1.1883
  479MOL0     C66002   3.210   6.757   6.329 -0.5757  1.0041 -0.4410
  479MOL0     C66003   3.294   6.836   6.429  0.1465  0.3623  0.2101
  479MOL0     C66004   3.431   6.767   6.457  0.6875 -0.4982  0.5356
  479MOL0     C66005   3.537   6.798   6.347  0.2658 -0.0942 -0.2056
  479MOL0     C66006   3.683   6.806   6.381  0.9163 -0.2517  0.1641
  479MOL0     C66007   3.729   6.670   6.445 -0.1852 -0.5088 -0.7178
  479MOL0     C66008   3.745   6.675   6.591 -0.3651  0.1337 -0.4954
  479MOL0    Cl66009   3.876   6.789   6.649 -0.1391 -0.4250  0.1247
  479MOL0     C66010   2.737   6.667   6.223 -0.8288  0.9573  0.3266
  479MOL0     C66011   2.602   6.710   6.212  0.1562 -0.6522  0.3477
  479MOL0     O66012   2.495   7.058   6.112 -0.0367  0.4493 -0.2128
  479MOL0     C66013   2.182   6.909   6.149 -1.0315 -0.3574  0.0619
  479MOL0     C66014   2.045   6.911   6.105 -0.9184 -0.2528 -0.2941
  479MOL0     N66015   1.383   6.732   5.950  0.2328 -0.3048  0.2387
  479MOL0     N66016   1.290   6.643   5.926 -0.3208 -0.3673  0.3051
  479MOL0     C66017   0.459   6.134   5.097 -0.5025  0.4407 -0.2473
  479MOL0     C66018   0.340   6.099   5.052  0.8639 -0.5486  0.2302
  479MOL0     C66019  -0.065   5.927   5.035  0.1378 -0.8879  0.7038
  479MOL0     C66020  -0.061   5.803   4.968 -0.3124  0.1064 -0.1651
  479MOL0     C66021  -0.178   5.737   4.922 -0.1876 -0.4895 -0.0707
  479MOL0     C66022  -0.302   5.789   4.941  1.3813  0.5012  0.2885
  479MOL0     O66023  -0.420   5.723   4.903 -0.2842 -0.3838 -0.0447
  479MOL0     C66024  -0.405   5.589   4.856 -0.1959  0.3605  0.1267
  479MOL0     C66025  -0.533   5.529   4.820  0.2547 -1.3768 -0.0725
  479MOL0     C66026  -0.626   5.610   4.722  1.1928 -0.3089 -0.8866
  479MOL0     C66027  -0.755   5.539   4.685  0.0450  0.1444 -0.0435
  479MOL0     C66028  -0.862   5.539   4.795 -0.1045 -0.3134  0.2282
  479MOL0     C66029  -0.945   5.559   4.883  0.2870 -0.2043  0.7819
  479MOL0     C66030  -0.311   5.919   4.994  0.0877 -1.1731  0.2543
  479MOL0     C66031  -0.197   5.985   5.035  0.1819 -0.7956 -0.6621
  479MOL0     C66032  -0.237   6.127   5.086 -0.3004 -0.0352  0.3908
  479MOL0     H66033   0.344   5.768   5.114 -1.4913  1.3093 -0.1104
  479MOL0     H66034   0.577   5.823   5.188 -2.8850 -1.5132  1.7439
  479MOL0     H66035   0.642   6.257   5.280  2.8951  2.0982  0.5958
  479MOL0     H66036   0.694   6.263   5.102  3.0437 -2.5436 -1.4059
  479MOL0     H66037   0.872   6.161   5.313  2.3861  0.1519 -0.9115
  479MOL0     H66038   0.903   6.204   5.161  1.5641  1.5825  0.6895
  479MOL0     H66039   0.865   6.440   5.185 -1.9274 -0.2704  0.8067
  479MOL0     H66040   0.817   6.418   5.354  0.8002  3.7324 -0.4275
  479MOL0     H66041   1.098   6.353   5.229 -0.6044 -1.7797 -0.5792
  479MOL0     H66042   1.036   6.504   5.287 -0.8486 -0.0899 -4.8054
  479MOL0     H66043   1.179   6.375   5.440  0.6238 -1.6121 -1.0781
  479MOL0     H66044   1.038   6.265   5.473 -0.3033  0.4521  2.0291
  479MOL0     H66045   0.981   6.560   5.501 -0.8155  1.6837  2.2561
  479MOL0     H66046   0.950   6.431   5.617  1.4660 -1.3848  0.4160
  479MOL0     H66047   1.235   6.557   5.584  1.2134 -3.0551  0.3718
  479MOL0     H66048   1.189   6.432   5.687  0.6042  0.0353 -0.3903
  479MOL0     H66049   1.033   6.687   5.738 -0.2321 -0.1883 -0.8742
  479MOL0     H66050   1.053   6.547   5.835 -0.1785  0.7370  1.0500
  479MOL0     H66051   1.203   6.879   5.712 -1.9642 -1.9545 -1.2687
  479MOL0     H66052   1.386   7.036   5.957 -1.1006 -1.7456  1.2132
  479MOL0     H66053   1.408   7.042   5.784  2.0085  2.5968  0.4561
  479MOL0     H66054   1.585   6.909   5.984  0.1840 -3.8484 -0.8079
  479MOL0     H66055   1.623   6.914   5.810 -1.8626  1.2582  0.0178
  479MOL0     H66056   1.623   7.169   5.815 -0.9753  1.8306  1.2988
  479MOL0     H66057   1.593   7.146   5.993 -1.7074 -2.0593 -0.4603
  479MOL0     H66058   1.839   7.100   5.814 -0.3561  1.4513  1.0565
  479MOL0     H66059   1.832   7.205   5.945 -3.7854  0.3666 -0.2640
  479MOL0     H66060   2.034   7.223   5.981  0.0131 -0.5396 -0.4814
  479MOL0     H66061   2.356   7.249   5.956 -0.8611  3.3237 -1.6236
  479MOL0     H66062   2.359   7.282   6.128  0.5333 -0.1825 -0.7839
  479MOL0     H66063   2.229   7.346   6.030  0.0307  0.6487  2.0935
  479MOL0     H66064   2.641   7.013   6.357  2.7186  0.3540  0.1210
  479MOL0     H66065   2.865   6.937   6.395  0.4450  0.7498 -0.2007
  479MOL0     H66066   3.049   6.872   6.377 -0.4291 -0.6474  0.6670
  479MOL0     H66067   3.056   6.704   6.451  2.9576 -0.9958 -1.4715
  479MOL0     H66068   3.245   6.653   6.326  0.0126  1.1243  1.1321
  479MOL0     H66069   3.235   6.802   6.233 -1.3743  2.3438 -0.0501
  479MOL0     H66070   3.234   6.846   6.520  1.4890  0.4930  1.0940
  479MOL0     H66071   3.307   6.933   6.379  1.5014 -0.3564 -0.8688
  479MOL0     H66072   3.415   6.659   6.468  0.6484 -0.4694  0.7667
  479MOL0     H66073   3.475   6.806   6.549 -0.0664 -1.7779  1.4786
  479MOL0     H66074   3.533   6.723   6.267 -0.3718  1.0147 -1.2341
  479MOL0     H66075   3.506   6.891   6.300  1.7034  0.9436  0.8080
  479MOL0     H66076   3.711   6.884   6.453 -1.5451 -1.0649  2.1635
  479MOL0     H66077   3.737   6.823   6.288  2.1238  1.8279  1.1695
  479MOL0     H66078   3.821   6.649   6.390  0.3178 -1.7268  0.5511
  479MOL0     H66079   3.653   6.595   6.421 -0.8159  0.2605 -1.1826
  479MOL0     H66080   3.777   6.574   6.620 -2.3634 -1.1298 -2.3313
  479MOL0     H66081   3.650   6.696   6.642  0.1181  0.2964  0.3596
  479MOL0     H66082   2.760   6.570   6.180 -1.0451  0.9276  0.2790
  479MOL0     H66083   2.509   6.662   6.182 -0.3160 -0.3414  1.2818
  479MOL0     H66084   2.228   6.818   6.187 -0.1733  0.3236  0.7024
  479MOL0     H66085   1.974   6.831   6.125 -1.0585  0.2929  1.5782
  479MOL0     H66086   0.483   6.240   5.090 -0.1390  0.2652 -2.2440
  479MOL0     H66087   0.278   6.174   5.003  0.9185 -1.9081 -2.0702
  479MOL0     H66088   0.032   5.748   4.954  0.4500  1.1033  0.8292
  479MOL0     H66089  -0.156   5.642   4.875  2.5118  0.8658 -1.8124
  479MOL0     H66090  -0.359   5.601   4.758 -0.0685  2.1783  0.3757
  479MOL0     H66091  -0.359   5.526   4.934 -0.2889  1.1805  0.8532
  479MOL0     H66092  -0.590   5.523   4.913  1.4580  1.0450  0.9132
  479MOL0     H66093  -0.526   5.422   4.798  0.6438 -1.0291 -1.8310
  479MOL0     H66094  -0.658   5.711   4.750 -0.7523 -0.7464 -1.3784
  479MOL0     H66095  -0.575   5.618   4.626  2.0146 -0.4760 -0.4657
  479MOL0     H66096  -0.731   5.443   4.640  1.3824  0.5327 -0.2224
  479MOL0     H66097  -0.801   5.595   4.603 -2.0092 -0.3726  0.7109
  479MOL0     H66098  -1.006   5.567   4.971  0.6249  0.9788  0.9213
  479MOL0     H66099  -0.407   5.966   5.012  0.7280  0.0686  0.5081
  479MOL0     H66100  -0.246   6.191   4.998  1.8056 -1.8359 -1.2272
  479MOL0     H66101  -0.330   6.135   5.144 -1.2213 -2.2072 -0.6739
  479MOL0     H66102  -0.158   6.177   5.144  1.3526 -1.8521 -0.1708
  480MOL0     O66103   5.299   5.664   3.715 -0.3317 -0.8990  0.2385
  480MOL0     C66104   5.309   5.571   3.794 -0.4843 -0.3297  0.1003
  480MOL0     O66105   5.428   5.515   3.833  0.2426 -0.0083 -0.0382
  480MOL0     C66106   5.547   5.553   3.780 -0.0810  0.1897 -0.1489
  480MOL0     C66107   5.642   5.463   3.730 -0.3522  0.3107  0.6881
  480MOL0     C66108   5.755   5.512   3.668 -1.0516 -0.9673  0.5412
  480MOL0     C66109   5.792   5.648   3.672  0.0499 -0.7542 -0.2126
  480MOL0     O66110   5.906   5.686   3.605 -0.0232 -1.2856  0.2160
  480MOL0     C66111   5.971   5.811   3.641 -0.1815 -0.3288  0.3806
  480MOL0     C66112   6.085   5.840   3.551 -0.5781 -0.2057 -0.0330
  480MOL0     C66113   6.059   5.851   3.399  0.3544  0.7328  0.0926
  480MOL0     C66114   5.991   5.986   3.378  1.4121  0.5151 -0.7533
  480MOL0     C66115   5.969   6.001   3.233 -0.0324 -0.6452  0.1843
  480MOL0     C66116   5.902   6.139   3.196  0.9453  0.3521 -0.0787
  480MOL0     C66117   5.752   6.154   3.239 -0.4618  0.5998 -0.2117
  480MOL0     C66118   5.694   6.270   3.165 -0.0713  0.0111  0.2025
  480MOL0     N66119   5.744   6.407   3.201 -0.2924  0.7078 -0.2850
  480MOL0     C66120   5.851   6.471   3.151 -0.1812 -0.3399  0.2994
  480MOL0     C66121   5.838   6.604   3.201 -0.2574  0.5123  0.5337
  480MOL0     C66122   5.945   6.714   3.172  0.7658 -0.7284  0.0245
  480MOL0     C66123   5.960   6.811   3.284 -0.3369  0.2500  0.0348
  480MOL0     C66124   6.042   6.944   3.258  0.4906  0.0154  0.6545
  480MOL0     C66125   6.190   6.912   3.255  0.8989  0.3140 -0.4823
  480MOL0     O66126   6.228   6.863   3.130  0.1984  0.4856 -0.0050
  480MOL0     C66127   6.311   6.759   3.116 -0.1261  1.2482  1.1255
  480MOL0     C66128   6.428   6.755   3.190 -1.0165 -0.4475 -1.1637
  480MOL0     C66129   6.521   6.649   3.178 -0.7873 -0.3479 -0.2108
  480MOL0     C66130   6.660   6.649   3.249 -0.1756 -0.0174 -0.1096
  480MOL0     C66131   6.490   6.549   3.082  0.2770  0.3386 -0.4054
  480MOL0     C66132   6.586   6.433   3.041 -0.1456 -0.2628 -0.3988
  480MOL0     O66133   6.652   6.375   3.147 -0.8736  0.5048  0.3440
  480MOL0     C66134   6.731   6.269   3.113  0.2631  0.4575  0.4022
  480MOL0     C66135   6.876   6.276   3.127  0.0673  0.8999 -0.4216
  480MOL0     C66136   6.958   6.175   3.090  0.0610  0.2394  0.0111
  480MOL0     C66137   6.902   6.059   3.033 -0.2110 -0.7415  0.0398
  480MOL0     O66138   6.979   5.962   2.978  0.6537  0.5343 -0.0311
  480MOL0     C66139   7.111   6.007   2.925 -0.2496  0.3163 -0.6187
  480MOL0     C66140   7.169   5.889   2.846  0.0769  0.4075 -0.1027
  480MOL0     C66141   7.315   5.897   2.807  0.6714  0.1726 -1.1718
  480MOL0     C66142   7.420   5.880   2.919 -0.4724 -0.7489 -0.2421
  480MOL0     C66143   7.556   5.894   2.862 -0.8347 -1.2605  0.3556
  480MOL0     C66144   7.663   5.834   2.949  0.5369  0.1935 -0.0465
  480MOL0     C66145   7.798   5.856   2.892  0.2494  0.9414 -0.4181
  480MOL0     C66146   7.853   5.993   2.933  0.0158  0.0143  0.1638
  480MOL0    Cl66147   7.895   5.996   3.107  0.2577 -0.2953 -0.3430
  480MOL0     C66148   6.762   6.049   3.014 -1.1328 -0.3959  1.2093
  480MOL0     C66149   6.678   6.152   3.053 -0.8213 -0.6535  0.0079
  480MOL0     O66150   6.581   6.400   2.928  0.4498 -0.3670 -0.2194
  480MOL0     C66151   6.365   6.553   3.023 -0.7116 -0.4025  0.3704
  480MOL0     C66152   6.281   6.658   3.026  0.7835  0.6571 -0.2449
  480MOL0     N66153   5.734   6.598   3.298  0.0548 -0.4877  0.1792
  480MOL0     N66154   5.673   6.489   3.287  0.2821 -0.0455 -0.0163
  480MOL0     C66155   5.704   5.741   3.734 -1.0743 -0.1959  0.0900
  480MOL0     C66156   5.579   5.689   3.777 -0.9267 -0.4666  0.1457
  480MOL0     C66157   5.185   5.513   3.850 -0.5469  0.0408 -0.0504
  480MOL0     C66158   5.057   5.568   3.803  0.2872  0.4763 -0.9560
  480MOL0     C66159   4.936   5.524   3.858  0.4706  0.1836  0.4921
  480MOL0     C66160   4.933   5.420   3.953 -0.5670  0.7837  0.5862
  480MOL0     O66161   4.819   5.377   4.005  0.3573  0.3438 -0.4188
  480MOL0     C66162   4.776   5.469   4.105 -0.4701  0.3781 -0.5688
  480MOL0     C66163   4.630   5.469   4.115 -0.6257 -0.2335  0.7252
  480MOL0     C66164   4.567   5.568   4.218 -1.4855  0.2519 -0.6778
  480MOL0     C66165   4.513   5.470   4.330 -0.0055  0.0962  0.4567
  480MOL0     C66166   4.449   5.526   4.446  0.2881 -1.3280 -0.1849
  480MOL0     C66167   4.386   5.591   4.529  0.1817  0.9943  0.4378
  480MOL0     C66168   5.058   5.371   3.996 -0.0578 -0.4957 -0.1691
  480MOL0     C66169   5.183   5.423   3.959 -0.1344  0.1580 -0.1476
  480MOL0     C66170   5.308   5.365   4.032 -0.0691 -0.0916 -0.0919
  480MOL0     H66171   5.607   5.361   3.720 -2.9228  1.2153 -0.5489
  480MOL0     H66172   5.824   5.447   3.616  0.8903  1.3085  0.1317
  480MOL0     H66173   5.998   5.805   3.747 -1.0074 -2.6460  0.5071
  480MOL0     H66174   5.894   5.889   3.634 -1.7036 -1.6714  1.4784
  480MOL0     H66175   6.133   5.928   3.594  1.2500 -0.7206 -0.8679
  480MOL0     H66176   6.161   5.761   3.563 -1.3781 -0.9608  0.1739
  480MOL0     H66177   6.155   5.839   3.347 -1.0808 -2.6859 -2.0858
  480MOL0     H66178   5.994   5.777   3.352  0.1592  0.2426  1.1094
  480MOL0     H66179   5.894   5.990   3.429  1.9872  2.3318  0.3057
  480MOL0     H66180   6.040   6.073   3.423 -2.7709  1.5084  2.5638
  480MOL0     H66181   5.916   5.915   3.190  2.0422 -0.3092 -3.4560
  480MOL0     H66182   6.060   6.000   3.172  0.5510 -2.2416  1.0381
  480MOL0     H66183   5.955   6.227   3.232 -0.8712  1.7024 -0.5991
  480MOL0     H66184   5.888   6.157   3.089 -2.6308  4.0959  0.7753
  480MOL0     H66185   5.747   6.174   3.347  0.4357  2.0877 -0.4207
  480MOL0     H66186   5.703   6.059   3.215  0.3638  0.9664 -4.0023
  480MOL0     H66187   5.703   6.266   3.056 -1.4823  2.6811 -0.0995
  480MOL0     H66188   5.590   6.273   3.200  0.4626 -1.9523  2.1393
  480MOL0     H66189   5.932   6.442   3.085 -0.7046 -0.1984 -0.4103
  480MOL0     H66190   5.931   6.758   3.073 -0.0753  0.7007  0.7458
  480MOL0     H66191   6.038   6.657   3.173  0.6234 -1.3756 -4.1313
  480MOL0     H66192   5.868   6.842   3.334 -0.5673 -1.5990  0.8674
  480MOL0     H66193   6.006   6.758   3.368 -2.0939  0.0772  0.9363
  480MOL0     H66194   6.003   6.988   3.166 -1.9232  3.3152  2.9933
  480MOL0     H66195   6.019   7.023   3.330  2.1184  0.6965  0.4703
  480MOL0     H66196   6.249   7.004   3.262  1.5403  0.0053 -1.6607
  480MOL0     H66197   6.217   6.848   3.340 -2.7753 -1.2257 -0.3056
  480MOL0     H66198   6.454   6.837   3.257 -1.0661 -2.3451  1.3348
  480MOL0     H66199   6.746   6.677   3.188  0.9686 -1.1501  0.9074
  480MOL0     H66200   6.688   6.555   3.299 -0.3002 -0.2489 -0.4703
  480MOL0     H66201   6.645   6.727   3.325  1.3095 -1.4921  1.8221
  480MOL0     H66202   6.920   6.368   3.167  0.9636  1.6383 -2.9443
  480MOL0     H66203   7.061   6.188   3.120 -0.9107  1.1060  3.5816
  480MOL0     H66204   7.099   6.097   2.866 -0.4441 -0.1151 -1.2467
  480MOL0     H66205   7.175   6.035   3.009 -3.0174  2.2479  1.0260
  480MOL0     H66206   7.160   5.795   2.901 -2.4629  0.9116  0.4774
  480MOL0     H66207   7.105   5.886   2.758  0.6661  0.5431 -0.5449
  480MOL0     H66208   7.317   5.988   2.746  0.1868  1.2443  0.3725
  480MOL0     H66209   7.336   5.816   2.736 -1.5314 -1.3076 -0.2464
  480MOL0     H66210   7.418   5.775   2.951 -0.3476 -1.4818 -2.5142
  480MOL0     H66211   7.414   5.948   3.005  1.4224 -0.5090 -0.2655
  480MOL0     H66212   7.569   5.840   2.768  1.6616  1.0915 -0.7869
  480MOL0     H66213   7.570   6.000   2.843 -2.6068 -1.1943 -0.7484
  480MOL0     H66214   7.650   5.726   2.957  2.8536 -0.4142 -2.9939
  480MOL0     H66215   7.658   5.881   3.048  0.3000  0.0400  0.0158
  480MOL0     H66216   7.789   5.841   2.784 -0.4185 -1.4285 -0.0878
  480MOL0     H66217   7.862   5.780   2.938  1.9683  2.4456 -0.1791
  480MOL0     H66218   7.779   6.072   2.916 -3.1744 -2.4620  1.5641
  480MOL0     H66219   7.949   6.018   2.887 -0.2434  2.9112  1.0072
  480MOL0     H66220   6.727   5.963   2.958 -4.4741  0.4465  1.7825
  480MOL0     H66221   6.571   6.143   3.040 -1.1544  2.6712 -0.4145
  480MOL0     H66222   6.356   6.468   2.956  4.5496 -1.6699  0.8237
  480MOL0     H66223   6.192   6.664   2.963 -1.7565  3.4489  3.2279
  480MOL0     H66224   5.726   5.847   3.743  2.1492 -0.8563  1.4823
  480MOL0     H66225   5.505   5.764   3.804 -0.4082 -0.0637  0.4825
  480MOL0     H66226   5.044   5.651   3.735  3.0797  0.5378 -1.5353
  480MOL0     H66227   4.844   5.561   3.814  1.7897  1.5880 -1.1589
  480MOL0     H66228   4.811   5.447   4.207 -1.9347 -3.1755 -0.6742
  480MOL0     H66229   4.811   5.570   4.083 -1.5138  0.5608 -1.4874
  480MOL0     H66230   4.586   5.371   4.132 -1.5619 -0.7961 -3.6803
  480MOL0     H66231   4.590   5.487   4.015 -2.4964 -0.7306  1.3453
  480MOL0     H66232   4.641   5.637   4.260 -3.7995  3.4252 -1.5120
  480MOL0     H66233   4.490   5.632   4.175 -0.7321  1.1258 -0.7482
  480MOL0     H66234   4.586   5.397   4.366 -2.3654 -1.7376  1.9274
  480MOL0     H66235   4.433   5.416   4.277  0.6378 -0.1051 -0.3288
  480MOL0     H66236   4.333   5.642   4.607 -2.7905 -0.9028 -0.1848
  480MOL0     H66237   5.065   5.292   4.070  2.0770  1.1439  1.5460
  480MOL0     H66238   5.376   5.307   3.969  0.2213 -2.6954  2.4299
  480MOL0     H66239   5.367   5.449   4.069 -0.7765  0.4179 -0.0923
  480MOL0     H66240   5.281   5.299   4.114 -0.9922  0.4171  0.0306
  481MOL0     O66241   0.913   5.774   0.912  0.4054  0.6042  0.3229
  481MOL0     C66242   0.857   5.872   0.864 -0.1843 -0.0706  0.1391
  481MOL0     O66243   0.929   5.984   0.821 -0.3547 -0.1538 -0.7517
  481MOL0     C66244   1.069   5.988   0.800 -0.1731 -0.9651 -0.5227
  481MOL0     C66245   1.162   5.888   0.784  0.9267  0.0437 -0.0402
  481MOL0     C66246   1.300   5.913   0.762  0.2982  0.2503  0.0642
  481MOL0     C66247   1.347   6.045   0.743 -0.1441 -0.4211  0.6809
  481MOL0     O66248   1.476   6.085   0.725  0.3212  0.7042  0.5916
  481MOL0     C66249   1.541   6.024   0.616 -0.2106  1.0679 -0.0937
  481MOL0     C66250   1.689   6.012   0.630  0.5676 -0.4328  0.1490
  481MOL0     C66251   1.753   6.069   0.502 -0.5152 -0.1525 -0.4232
  481MOL0     C66252   1.908   6.058   0.490  0.4959  0.2172  1.0944
  481MOL0     C66253   1.992   6.184   0.543 -0.1634  1.0998 -0.1947
  481MOL0     C66254   1.952   6.312   0.464  0.7332 -0.1525 -0.7274
  481MOL0     C66255   2.034   6.436   0.506 -0.7712 -0.6074 -0.3633
  481MOL0     C66256   2.166   6.434   0.438  0.6040 -0.3638 -0.2125
  481MOL0     N66257   2.258   6.526   0.508 -0.6801  0.4879  0.2274
  481MOL0     C66258   2.303   6.643   0.449  0.2912 -0.5534 -0.0397
  481MOL0     C66259   2.409   6.677   0.516  0.7076 -0.0437  1.1064
  481MOL0     C66260   2.514   6.778   0.483 -0.0429 -0.5912  0.5351
  481MOL0     C66261   2.666   6.740   0.523 -0.2265 -0.1438  0.3028
  481MOL0     C66262   2.751   6.864   0.514 -0.3052  1.4007  0.9186
  481MOL0     C66263   2.891   6.842   0.580  0.3065 -0.3023  0.2823
  481MOL0     O66264   2.974   6.959   0.582 -0.0977  0.2810  0.0286
  481MOL0     C66265   3.111   6.944   0.614 -0.6000  0.2598  0.2419
  481MOL0     C66266   3.184   7.060   0.606 -0.8097 -0.3345 -0.1713
  481MOL0     C66267   3.320   7.068   0.639  0.4577  0.0949 -0.8427
  481MOL0     C66268   3.391   7.200   0.614  0.5576  0.3436  0.5147
  481MOL0     C66269   3.385   6.951   0.692  0.2969  1.0327  0.6159
  481MOL0     C66270   3.528   6.947   0.735 -0.0531 -0.0900 -0.7824
  481MOL0     O66271   3.577   6.815   0.758 -1.0196  0.5678  0.3411
  481MOL0     C66272   3.699   6.795   0.822 -0.2337  0.0644 -0.1958
  481MOL0     C66273   3.787   6.701   0.773  0.2048 -0.2402 -0.2923
  481MOL0     C66274   3.915   6.678   0.831 -0.8605 -1.0685  0.1547
  481MOL0     C66275   3.949   6.748   0.948  0.1471  0.6959 -0.3768
  481MOL0     O66276   4.076   6.733   1.010  0.4378 -0.1973 -0.2755
  481MOL0     C66277   4.181   6.793   0.934  0.4724  0.1104 -0.0164
  481MOL0     C66278   4.302   6.811   1.024 -0.0305 -0.0231 -0.1356
  481MOL0     C66279   4.292   6.921   1.126 -0.7237  0.1486 -0.1183
  481MOL0     C66280   4.386   6.895   1.239  0.1789 -0.0532 -0.6102
  481MOL0     C66281   4.376   7.006   1.346  0.8142 -0.0267 -0.5346
  481MOL0     C66282   4.478   6.983   1.459  0.4370  0.2048  0.6230
  481MOL0     C66283   4.469   7.093   1.570  0.0889 -0.5797 -0.1354
  481MOL0     C66284   4.340   7.091   1.651  0.0460  0.6939 -0.3641
  481MOL0    Cl66285   4.357   6.937   1.753 -0.2561 -0.2011  0.2702
  481MOL0     C66286   3.856   6.824   1.005 -0.1561 -0.0427 -0.2646
  481MOL0     C66287   3.736   6.865   0.940 -0.1971  0.6773  0.5470
  481MOL0     O66288   3.594   7.050   0.756 -0.4835  0.0111  0.0431
  481MOL0     C66289   3.306   6.835   0.698 -0.8622 -0.3430 -0.7684
  481MOL0     C66290   3.173   6.831   0.662  0.4566  0.3234  0.7749
  481MOL0     N66291   2.426   6.591   0.620 -0.4657 -0.1398 -0.5808
  481MOL0     N66292   2.338   6.493   0.616  0.7838 -0.8088 -1.0039
  481MOL0     C66293   1.244   6.138   0.755  0.0985 -0.5429  0.7438
  481MOL0     C66294   1.113   6.119   0.785  0.1432  0.5085  0.2826
  481MOL0     C66295   0.715   5.890   0.887  0.2247  0.7223 -0.0136
  481MOL0     C66296   0.664   6.019   0.896  0.0980  0.6015  0.5501
  481MOL0     C66297   0.535   6.033   0.940  0.5278  0.4292 -0.6741
  481MOL0     C66298   0.453   5.911   0.964 -0.1951 -0.4974  1.2687
  481MOL0     O66299   0.315   5.920   0.999  0.0590  0.6342 -0.3418
  481MOL0     C66300   0.273   6.049   1.040 -0.0248  0.3873 -0.0823
  481MOL0     C66301   0.127   6.031   1.072  0.0583  0.9890 -0.4073
  481MOL0     C66302   0.096   5.984   1.216  0.0089 -0.4612  0.1201
  481MOL0     C66303  -0.026   5.897   1.232 -0.0160  1.0069  0.2144
  481MOL0     C66304  -0.131   5.941   1.141  0.5770  0.1506 -0.0529
  481MOL0     C66305  -0.216   5.953   1.054 -0.1955  0.4030  0.6470
  481MOL0     C66306   0.503   5.791   0.933  0.0986 -0.2397  0.8872
  481MOL0     C66307   0.629   5.778   0.883  0.5947  0.6872  0.5442
  481MOL0     C66308   0.664   5.637   0.849 -0.0405 -0.3112  0.0731
  481MOL0     H66309   1.134   5.783   0.791  1.3309  0.0337  2.4056
  481MOL0     H66310   1.363   5.826   0.749  0.3252  0.5656 -2.3122
  481MOL0     H66311   1.512   6.085   0.530 -2.1830 -3.2430 -2.8185
  481MOL0     H66312   1.510   5.922   0.595 -0.3993  0.4145  2.8799
  481MOL0     H66313   1.722   6.052   0.727  1.2070 -2.4725  0.8285
  481MOL0     H66314   1.714   5.906   0.639  0.7380 -0.4138 -0.0855
  481MOL0     H66315   1.711   6.002   0.426 -1.0326  1.9777 -2.1082
  481MOL0     H66316   1.726   6.170   0.471  0.3659 -0.9754 -4.4085
  481MOL0     H66317   1.937   5.959   0.525  1.8621  0.6366  1.1870
  481MOL0     H66318   1.905   6.065   0.381 -2.9746 -1.2401  0.9497
  481MOL0     H66319   2.100   6.175   0.537 -0.3235 -0.2313 -1.3252
  481MOL0     H66320   1.965   6.203   0.648 -2.3037  1.0004 -0.6697
  481MOL0     H66321   1.975   6.289   0.359  1.2484 -0.4589 -0.5489
  481MOL0     H66322   1.846   6.339   0.468 -0.2192 -3.4656 -0.0188
  481MOL0     H66323   2.039   6.428   0.615  0.4246 -0.1664 -0.3723
  481MOL0     H66324   1.979   6.528   0.483  2.5762  1.7937  0.4434
  481MOL0     H66325   2.202   6.331   0.445 -3.0144 -1.8860 -1.4658
  481MOL0     H66326   2.157   6.468   0.334 -2.7434 -1.1072 -0.3045
  481MOL0     H66327   2.256   6.681   0.359  0.0227 -4.6944 -1.8627
  481MOL0     H66328   2.482   6.863   0.544 -0.7650 -1.3142  1.1978
  481MOL0     H66329   2.511   6.807   0.378 -2.1230 -2.2718  0.0488
  481MOL0     H66330   2.673   6.700   0.624  2.5012  2.9089  1.4839
  481MOL0     H66331   2.693   6.663   0.450  0.2864 -0.0021  0.3394
  481MOL0     H66332   2.770   6.883   0.408  0.4080 -0.0892  0.7654
  481MOL0     H66333   2.697   6.951   0.553  1.5626  2.1075  2.0665
  481MOL0     H66334   2.879   6.820   0.687  0.3982 -0.5873  0.2354
  481MOL0     H66335   2.948   6.756   0.543  1.2771  1.2177 -1.9346
  481MOL0     H66336   3.133   7.147   0.567  0.7230  0.8950  0.4678
  481MOL0     H66337   3.389   7.255   0.708  1.2946 -2.2949  2.1886
  481MOL0     H66338   3.331   7.239   0.532  0.8953 -2.5387 -1.2671
  481MOL0     H66339   3.494   7.190   0.577  0.2857 -1.9144  0.2372
  481MOL0     H66340   3.736   6.641   0.697 -0.8855 -1.4927  1.3485
  481MOL0     H66341   3.979   6.598   0.795  0.4386  0.2309 -0.5433
  481MOL0     H66342   4.193   6.720   0.854 -2.1696 -1.7533  1.1228
  481MOL0     H66343   4.147   6.890   0.896 -1.2462 -0.0544  0.9776
  481MOL0     H66344   4.333   6.715   1.066 -1.1819  0.4431  1.9334
  481MOL0     H66345   4.390   6.842   0.968  0.0001  0.5935  0.2423
  481MOL0     H66346   4.186   6.921   1.155 -0.8118  2.8877 -0.1675
  481MOL0     H66347   4.330   7.013   1.081  0.5608 -0.1809  0.2695
  481MOL0     H66348   4.490   6.898   1.204  0.5520  0.6646  0.4959
  481MOL0     H66349   4.367   6.794   1.275 -0.6056  0.0728 -0.6620
  481MOL0     H66350   4.377   7.106   1.302  0.2203 -0.5532 -1.7844
  481MOL0     H66351   4.282   7.004   1.401  1.3319  2.4225  0.6096
  481MOL0     H66352   4.578   6.994   1.416  0.7310  2.6310  1.7480
  481MOL0     H66353   4.457   6.885   1.503 -2.4047 -0.6486 -2.2820
  481MOL0     H66354   4.485   7.190   1.522 -1.1008  0.6235  1.7172
  481MOL0     H66355   4.552   7.086   1.641  0.5170  2.7123 -0.1483
  481MOL0     H66356   4.256   7.079   1.582  0.7415  2.5350 -1.6275
  481MOL0     H66357   4.329   7.180   1.714 -1.8327 -0.3316  0.8336
  481MOL0     H66358   3.876   6.870   1.102 -0.4861 -1.0681  0.3029
  481MOL0     H66359   3.669   6.939   0.981 -1.0686  0.2461 -0.0814
  481MOL0     H66360   3.355   6.748   0.740  1.9709  0.9726 -1.0841
  481MOL0     H66361   3.112   6.746   0.690  0.3075  0.6499  1.4706
  481MOL0     H66362   1.270   6.243   0.741  1.3824 -0.7932  1.1816
  481MOL0     H66363   1.051   6.207   0.796 -1.2491 -0.4182  0.1153
  481MOL0     H66364   0.735   6.100   0.883  0.0538  0.7607  1.2445
  481MOL0     H66365   0.484   6.126   0.958 -1.2124 -0.3671 -1.3387
  481MOL0     H66366   0.339   6.080   1.122 -1.0135 -1.5037  1.5006
  481MOL0     H66367   0.282   6.111   0.950  0.9061  0.0955 -0.1990
  481MOL0     H66368   0.076   5.961   1.005  1.5099 -0.8607  0.2960
  481MOL0     H66369   0.085   6.131   1.069 -0.5061  0.7681  0.0631
  481MOL0     H66370   0.183   5.928   1.253 -0.2361 -1.5639 -0.9349
  481MOL0     H66371   0.083   6.074   1.278 -0.3513  0.6816 -1.5391
  481MOL0     H66372  -0.057   5.894   1.337  3.5176 -3.3448  1.4530
  481MOL0     H66373  -0.007   5.794   1.200 -0.3329  0.9391  0.2321
  481MOL0     H66374  -0.280   5.946   0.969  2.1065  0.1770 -1.1844
  481MOL0     H66375   0.425   5.716   0.927  0.1856 -0.2146 -1.2536
  481MOL0     H66376   0.577   5.573   0.868 -0.6527 -0.1716 -2.0805
  481MOL0     H66377   0.702   5.610   0.750 -1.3105  0.5650 -0.6806
  481MOL0     H66378   0.748   5.608   0.913  2.0223  1.9646 -1.4080
  482MOL0     O66379   2.591   8.935   9.685 -0.2087 -0.3653 -0.7340
  482MOL0     C66380   2.630   9.051   9.711 -0.6676 -0.3491 -0.6145
  482MOL0     O66381   2.596   9.166   9.639  0.4535  0.1838 -0.4636
  482MOL0     C66382   2.495   9.160   9.553  0.9320 -0.3340  0.3527
  482MOL0     C66383   2.527   9.155   9.412  0.7500  0.4936 -0.1288
  482MOL0     C66384   2.418   9.146   9.322 -0.1147 -0.3290 -0.2238
  482MOL0     C66385   2.282   9.148   9.357  0.5113 -0.0712 -0.1540
  482MOL0     O66386   2.186   9.126   9.268 -0.4317 -0.1465  0.2143
  482MOL0     C66387   2.046   9.144   9.303 -1.1148  1.0107  0.5593
  482MOL0     C66388   1.965   9.161   9.173  0.3838  1.0302  0.6288
  482MOL0     C66389   1.940   9.313   9.132  0.2825 -0.2547 -0.3723
  482MOL0     C66390   1.843   9.332   9.022  1.2241 -0.0693  0.6527
  482MOL0     C66391   1.787   9.475   9.010 -0.8251 -0.4197 -0.3760
  482MOL0     C66392   1.888   9.576   8.964 -0.0291 -0.1902 -0.3126
  482MOL0     C66393   1.829   9.715   8.965  0.2281 -0.5228 -0.9413
  482MOL0     C66394   1.944   9.821   8.940 -0.0222 -0.0023  0.5888
  482MOL0     N66395   1.903   9.952   8.879  0.0035  0.2653  0.5853
  482MOL0     C66396   1.859  10.061   8.954 -0.2194  0.0425  0.5407
  482MOL0     C66397   1.831  10.161   8.859  0.5884 -0.2410 -1.0201
  482MOL0     C66398   1.761  10.288   8.894  0.0160  0.2072  0.3148
  482MOL0     C66399   1.786  10.338   9.043  0.6788 -0.1263  0.4402
  482MOL0     C66400   1.708  10.468   9.081 -0.1951 -0.7758  0.4169
  482MOL0     C66401   1.705  10.482   9.231 -0.0210  0.3646 -0.1918
  482MOL0     O66402   1.834  10.482   9.296 -0.9404 -0.3853  0.4821
  482MOL0     C66403   1.892  10.608   9.323  1.0807 -0.0571  0.3639
  482MOL0     C66404   1.827  10.744   9.323 -0.0580 -0.2435  0.1953
  482MOL0     C66405   1.897  10.861   9.371 -0.4724  0.1312 -0.2335
  482MOL0     C66406   1.823  10.993   9.378  0.2157  0.4621 -0.6210
  482MOL0     C66407   2.036  10.852   9.396  0.6742 -0.2706 -0.0824
  482MOL0     C66408   2.116  10.958   9.444 -0.1497 -0.7120  0.6267
  482MOL0     O66409   2.091  11.087   9.396  0.0596  0.2962 -0.4306
  482MOL0     C66410   2.164  11.183   9.456  0.1774 -0.2484 -1.1412
  482MOL0     C66411   2.264  11.259   9.393  0.8514  0.5160 -0.1409
  482MOL0     C66412   2.336  11.366   9.454 -0.4436  0.3384  0.1313
  482MOL0     C66413   2.306  11.398   9.583  0.8535  0.6737 -0.0891
  482MOL0     O66414   2.359  11.493   9.663  0.1875 -0.2219  0.0329
  482MOL0     C66415   2.478  11.563   9.619 -0.0015 -0.0564 -0.9315
  482MOL0     C66416   2.509  11.668   9.729  0.7826  0.0085  0.4070
  482MOL0     C66417   2.543  11.602   9.856 -0.6768 -0.6247 -0.1393
  482MOL0     C66418   2.602  11.707   9.961 -0.4199 -0.2109 -0.2595
  482MOL0     C66419   2.615  11.650  10.099 -0.6384 -0.6418 -0.2157
  482MOL0     C66420   2.657  11.771  10.195 -0.2875  1.1004 -0.2528
  482MOL0     C66421   2.676  11.718  10.338  0.3969  0.5595  0.0689
  482MOL0     C66422   2.721  11.817  10.446 -0.1928 -0.3232 -0.1746
  482MOL0    Cl66423   2.656  11.974  10.426  0.1460 -0.0845 -0.0213
  482MOL0     C66424   2.203  11.329   9.650 -1.1346 -0.1888  0.4387
  482MOL0     C66425   2.129  11.220   9.589  0.0237  0.0177 -1.0131
  482MOL0     O66426   2.189  10.931   9.537 -0.0900  0.6488 -0.0160
  482MOL0     C66427   2.103  10.727   9.390  0.2383  0.5773 -0.6085
  482MOL0     C66428   2.032  10.609   9.357  0.1160 -0.0329 -0.6283
  482MOL0     N66429   1.868  10.115   8.739  0.8015 -1.3553 -0.1452
  482MOL0     N66430   1.903   9.995   8.748  0.5717  0.7787  0.8810
  482MOL0     C66431   2.256   9.167   9.496  0.0701  0.3928  0.7453
  482MOL0     C66432   2.362   9.176   9.588 -0.7277  0.9106  0.0778
  482MOL0     C66433   2.740   9.068   9.807 -0.5824 -0.8110  0.5717
  482MOL0     C66434   2.856   9.137   9.766  1.3306  0.4318 -0.4771
  482MOL0     C66435   2.969   9.150   9.860 -0.5408  0.0003 -0.1332
  482MOL0     C66436   2.968   9.107   9.990 -0.4271 -0.0609  0.2734
  482MOL0     O66437   3.083   9.119  10.066  0.3423 -0.4425 -0.4063
  482MOL0     C66438   3.115   9.001  10.143  0.1968 -0.1773 -0.4595
  482MOL0     C66439   3.268   9.006  10.163  0.3540 -0.6482  0.9929
  482MOL0     C66440   3.299   9.104  10.272  0.1285 -0.4208  0.2096
  482MOL0     C66441   3.451   9.099  10.303  0.1171 -0.4902 -0.0128
  482MOL0     C66442   3.508   9.218  10.240  1.0349  0.7347  0.0616
  482MOL0     C66443   3.534   9.331  10.209  0.2724 -0.8399 -0.0552
  482MOL0     C66444   2.850   9.044  10.029  0.8947 -0.2420  0.0212
  482MOL0     C66445   2.742   9.019   9.941 -0.4765  0.9227 -0.7129
  482MOL0     C66446   2.636   8.924   9.994 -0.8777  0.4329  0.3972
  482MOL0     H66447   2.627   9.166   9.370  0.9855 -2.6280 -0.6421
  482MOL0     H66448   2.437   9.122   9.218  0.8502  0.7399 -0.3192
  482MOL0     H66449   2.041   9.240   9.354 -2.1026  0.5799  1.3100
  482MOL0     H66450   2.026   9.059   9.369 -1.4550  1.7574  1.4325
  482MOL0     H66451   2.014   9.108   9.091  0.1336 -0.2600  1.2781
  482MOL0     H66452   1.868   9.112   9.187  1.7324 -1.3672  2.2803
  482MOL0     H66453   1.899   9.366   9.219 -0.9961 -0.1996 -0.9981
  482MOL0     H66454   2.036   9.361   9.108 -0.4748  0.9152 -1.1468
  482MOL0     H66455   1.890   9.306   8.926  1.9293  0.0778  0.9518
  482MOL0     H66456   1.751   9.275   9.039  0.4533  0.7509 -0.6087
  482MOL0     H66457   1.750   9.496   9.111 -3.3517  1.3464 -1.5346
  482MOL0     H66458   1.695   9.477   8.950 -1.1904 -2.3405  0.0455
  482MOL0     H66459   1.965   9.579   9.042 -0.4946  2.0067  0.1357
  482MOL0     H66460   1.931   9.543   8.869 -1.2965  0.7563 -1.2496
  482MOL0     H66461   1.780   9.738   9.060  2.5826 -0.2350  0.2458
  482MOL0     H66462   1.749   9.709   8.889 -0.7370  0.4528 -0.0414
  482MOL0     H66463   1.997   9.847   9.033  0.5930  0.3448  0.1489
  482MOL0     H66464   2.023   9.776   8.878  0.3687  0.0427  1.0442
  482MOL0     H66465   1.849  10.060   9.062  1.4470  2.8460  0.8314
  482MOL0     H66466   1.655  10.267   8.877  0.3721 -0.6354 -0.9532
  482MOL0     H66467   1.787  10.380   8.840 -1.1910  0.3647 -0.0314
  482MOL0     H66468   1.750  10.255   9.105  0.2209 -0.8684 -0.7663
  482MOL0     H66469   1.892  10.340   9.071  0.0988 -1.8017  3.1407
  482MOL0     H66470   1.760  10.554   9.038 -2.2866 -1.2931 -3.6361
  482MOL0     H66471   1.605  10.462   9.046 -0.1629  2.0653 -0.3953
  482MOL0     H66472   1.668  10.584   9.238  1.4253  1.1429 -2.6945
  482MOL0     H66473   1.631  10.413   9.274 -0.0093  0.8321  0.5895
  482MOL0     H66474   1.725  10.755   9.285 -0.1538 -3.8891 -1.0604
  482MOL0     H66475   1.879  11.082   9.347 -0.0452  0.4451 -1.1606
  482MOL0     H66476   1.781  11.021   9.475  1.0463  1.4325 -0.5194
  482MOL0     H66477   1.739  10.982   9.308 -0.1283  2.9176 -0.7164
  482MOL0     H66478   2.278  11.241   9.287  3.2622  1.3914 -0.0270
  482MOL0     H66479   2.399  11.424   9.388  1.2632  0.3067  1.6747
  482MOL0     H66480   2.565  11.497   9.615  1.0062  1.0270  1.3028
  482MOL0     H66481   2.459  11.611   9.522  2.0302 -0.7370 -1.7135
  482MOL0     H66482   2.587  11.733   9.688 -0.0639  0.4434 -0.5423
  482MOL0     H66483   2.428  11.739   9.744  0.5664 -0.3184  0.8075
  482MOL0     H66484   2.622  11.527   9.848 -0.6368 -0.4724 -1.1950
  482MOL0     H66485   2.458  11.550   9.902  1.3057 -0.6824  3.9846
  482MOL0     H66486   2.548  11.802   9.961  2.0599  1.2890 -1.1614
  482MOL0     H66487   2.701  11.743   9.931 -0.3173 -1.6884 -1.8786
  482MOL0     H66488   2.513  11.623  10.129 -1.0186 -2.0050 -2.4915
  482MOL0     H66489   2.683  11.565  10.108  0.8211  0.6584  2.2450
  482MOL0     H66490   2.570  11.837  10.204 -1.6216 -0.4898 -1.0152
  482MOL0     H66491   2.743  11.829  10.162 -0.8613  1.8560 -0.4617
  482MOL0     H66492   2.738  11.628  10.342  1.4528  1.2899  0.7207
  482MOL0     H66493   2.578  11.683  10.371  1.3410 -1.1380  1.2100
  482MOL0     H66494   2.828  11.836  10.436 -0.2812  2.1917  2.4770
  482MOL0     H66495   2.705  11.786  10.549  2.7621  3.9784  1.8724
  482MOL0     H66496   2.189  11.356   9.754 -0.8825  2.8141 -0.2241
  482MOL0     H66497   2.047  11.169   9.638 -2.2241  3.1629 -1.2404
  482MOL0     H66498   2.207  10.719   9.420  0.1407  0.8408 -0.1966
  482MOL0     H66499   2.068  10.507   9.363 -1.7570 -0.6485  1.3845
  482MOL0     H66500   2.161   9.143   9.542  1.3068 -2.3679  2.0891
  482MOL0     H66501   2.338   9.175   9.694  0.1191 -0.3100  0.2786
  482MOL0     H66502   2.866   9.173   9.664 -0.1242  0.4597 -0.6228
  482MOL0     H66503   3.065   9.184   9.824  0.3034  1.0210  2.8510
  482MOL0     H66504   3.072   9.004  10.244  2.8039 -0.5210  0.7479
  482MOL0     H66505   3.089   8.911  10.087 -1.5579  0.5027 -0.8334
  482MOL0     H66506   3.304   9.037  10.065 -1.0162  0.5370  0.8452
  482MOL0     H66507   3.311   8.910  10.195  1.2316  0.1023  2.1252
  482MOL0     H66508   3.258   9.205  10.255  1.2610  0.0916  0.4399
  482MOL0     H66509   3.240   9.070  10.357 -0.6599  2.8240  1.1228
  482MOL0     H66510   3.494   9.003  10.271 -2.7000 -2.3024  1.2482
  482MOL0     H66511   3.463   9.102  10.411 -2.5592  1.7980  0.3180
  482MOL0     H66512   3.547   9.430  10.170 -0.5342  0.1411  2.0086
  482MOL0     H66513   2.840   9.001  10.128  0.0222  0.3835  0.2155
  482MOL0     H66514   2.552   8.943   9.926  0.1354 -0.8026 -1.2882
  482MOL0     H66515   2.671   8.821   9.981 -0.4535  0.5090  0.9236
  482MOL0     H66516   2.602   8.950  10.095  0.7254  0.8846  0.8474
  483MOL0     O66517   0.302   7.492   1.172 -0.0295  0.0487  0.4885
  483MOL0     C66518   0.237   7.533   1.072  0.3957 -0.4372 -0.0415
  483MOL0     O66519   0.285   7.615   0.978 -0.3188  0.1249  0.1474
  483MOL0     C66520   0.423   7.633   0.989  1.0928 -1.0083 -0.6563
  483MOL0     C66521   0.473   7.725   1.077  0.2453  0.7262 -0.2357
  483MOL0     C66522   0.600   7.775   1.064  0.5894  0.6199  1.3992
  483MOL0     C66523   0.689   7.729   0.964 -0.0236 -0.2805 -0.5313
  483MOL0     O66524   0.813   7.774   0.940  0.4097 -0.1664 -0.0664
  483MOL0     C66525   0.819   7.924   0.916 -0.8182 -1.1292  0.2757
  483MOL0     C66526   0.973   7.961   0.927 -0.1160 -0.3781 -0.1912
  483MOL0     C66527   1.007   8.014   1.070 -0.6087 -0.9540  0.6875
  483MOL0     C66528   1.150   7.990   1.098 -0.4937 -0.5468 -0.0846
  483MOL0     C66529   1.197   8.059   1.231 -0.7644 -0.4343  0.3796
  483MOL0     C66530   1.335   7.998   1.278 -0.0015  0.0975 -0.2725
  483MOL0     C66531   1.398   8.054   1.403 -0.0395  0.1584 -0.5866
  483MOL0     C66532   1.298   8.047   1.514  0.3891  0.0386 -0.3328
  483MOL0     N66533   1.373   8.051   1.648 -0.2944 -0.2053 -0.3038
  483MOL0     C66534   1.341   8.128   1.756 -0.4207 -0.4065  0.0392
  483MOL0     C66535   1.440   8.095   1.848 -0.2012  0.1849  0.0052
  483MOL0     C66536   1.419   8.136   1.990 -0.0895  0.9020 -1.0964
  483MOL0     C66537   1.505   8.255   2.033  0.2763 -0.4968 -0.4801
  483MOL0     C66538   1.480   8.381   1.953  0.1208  0.6978  0.9950
  483MOL0     C66539   1.563   8.500   1.991 -0.1636 -0.0429 -0.1336
  483MOL0     O66540   1.463   8.606   2.003  0.2455 -0.5815  0.3467
  483MOL0     C66541   1.511   8.732   2.040 -0.5678 -0.1960  0.3911
  483MOL0     C66542   1.421   8.816   2.106  0.1433 -0.0312  1.0560
  483MOL0     C66543   1.455   8.940   2.160  0.5702 -0.4094  0.0881
  483MOL0     C66544   1.336   9.013   2.229  0.1294  0.3797  0.2812
  483MOL0     C66545   1.587   8.993   2.142 -1.2800  0.4546  0.3132
  483MOL0     C66546   1.624   9.132   2.176  0.1758 -0.2963 -0.1917
  483MOL0     O66547   1.757   9.156   2.150  0.5762  0.5705 -0.2308
  483MOL0     C66548   1.843   9.248   2.212  0.1877  0.3343  0.2670
  483MOL0     C66549   1.802   9.351   2.297 -0.1859  0.2097  1.2806
  483MOL0     C66550   1.891   9.442   2.360  0.3316  0.7079  0.9501
  483MOL0     C66551   2.023   9.435   2.323 -1.0719 -0.2124  0.0560
  483MOL0     O66552   2.111   9.520   2.379  0.0573 -0.4091  0.0722
  483MOL0     C66553   2.121   9.522   2.526  0.0165  1.0156 -0.3326
  483MOL0     C66554   2.229   9.431   2.575 -0.2754 -0.9081  0.1530
  483MOL0     C66555   2.372   9.495   2.564 -0.5185  0.7576  0.2923
  483MOL0     C66556   2.464   9.374   2.573  0.1168  0.1877  0.3092
  483MOL0     C66557   2.617   9.403   2.577  0.3324 -0.5421 -0.0336
  483MOL0     C66558   2.649   9.440   2.721  0.3983  0.2316  0.2275
  483MOL0     C66559   2.790   9.478   2.730 -0.9003 -0.4639  0.4947
  483MOL0     C66560   2.840   9.485   2.875  0.0620 -0.0661 -0.2897
  483MOL0    Cl66561   2.747   9.597   2.974  0.4988 -0.4691 -0.3043
  483MOL0     C66562   2.073   9.334   2.235 -0.1218 -0.0653 -0.0792
  483MOL0     C66563   1.982   9.245   2.182  0.0992  0.4023  1.3397
  483MOL0     O66564   1.544   9.208   2.227 -0.6817  0.0016 -0.1756
  483MOL0     C66565   1.680   8.906   2.073  0.0591 -0.1955 -0.7493
  483MOL0     C66566   1.642   8.778   2.030  0.5321 -0.4347  0.1231
  483MOL0     N66567   1.522   7.991   1.795  0.0095  0.7824  0.6012
  483MOL0     N66568   1.482   7.971   1.677  0.2438 -0.5781  0.0979
  483MOL0     C66569   0.641   7.618   0.891 -0.6206 -1.1745  0.0294
  483MOL0     C66570   0.510   7.579   0.897  0.3893  0.5568  0.4152
  483MOL0     C66571   0.084   7.515   1.081 -0.1734 -0.3011  0.2221
  483MOL0     C66572   0.021   7.543   1.199 -0.3224 -0.7864  0.0544
  483MOL0     C66573  -0.107   7.496   1.216 -0.7118 -0.8224  0.8213
  483MOL0     C66574  -0.181   7.441   1.114 -0.0023 -1.1670 -0.0116
  483MOL0     O66575  -0.304   7.402   1.149 -0.5953  0.4965 -0.6721
  483MOL0     C66576  -0.418   7.385   1.060 -0.2266  0.3756 -0.6158
  483MOL0     C66577  -0.480   7.521   1.017 -0.4007  0.2039 -0.7410
  483MOL0     C66578  -0.566   7.579   1.138  0.1777 -0.0218 -0.4779
  483MOL0     C66579  -0.584   7.727   1.154 -0.2398 -1.3135  0.1951
  483MOL0     C66580  -0.453   7.792   1.182 -0.0611 -0.6462  0.2131
  483MOL0     C66581  -0.340   7.843   1.177  0.1254  0.0533 -0.2886
  483MOL0     C66582  -0.121   7.432   0.993  0.1110  0.7919  0.6492
  483MOL0     C66583   0.009   7.472   0.968  0.3609 -0.1128 -0.4152
  483MOL0     C66584   0.075   7.438   0.832 -0.3917 -0.3364  0.6825
  483MOL0     H66585   0.409   7.780   1.145  0.6615  3.2564 -1.7678
  483MOL0     H66586   0.611   7.869   1.116  0.5039 -0.1372  2.8434
  483MOL0     H66587   0.759   7.984   0.986  0.3263  1.5338 -0.8958
  483MOL0     H66588   0.777   7.951   0.819 -0.1866  0.2531  0.3588
  483MOL0     H66589   1.032   7.871   0.904  1.2427  0.6023 -0.6505
  483MOL0     H66590   0.993   8.042   0.856 -0.9994  0.6430  0.7096
  483MOL0     H66591   0.983   8.120   1.068  1.1897 -0.5200  0.3264
  483MOL0     H66592   0.934   7.970   1.139 -1.3586 -0.5470  0.1680
  483MOL0     H66593   1.167   7.882   1.103  0.8909 -0.4013 -1.1043
  483MOL0     H66594   1.213   8.022   1.014  1.0012 -0.3588  1.0666
  483MOL0     H66595   1.110   8.053   1.297 -1.2192 -4.5584 -0.3131
  483MOL0     H66596   1.216   8.166   1.214 -0.6397 -0.8552 -2.9573
  483MOL0     H66597   1.321   7.890   1.286  4.2263 -0.5943 -0.0362
  483MOL0     H66598   1.410   8.007   1.198  1.9366 -0.3935  1.4242
  483MOL0     H66599   1.434   8.157   1.393  0.4624  0.0816  0.3388
  483MOL0     H66600   1.488   7.999   1.429  1.8073  2.1922 -2.2507
  483MOL0     H66601   1.218   8.122   1.519 -0.9191 -1.3278 -0.2336
  483MOL0     H66602   1.247   7.951   1.518 -0.3892  0.4094 -0.9395
  483MOL0     H66603   1.259   8.195   1.774 -0.6067 -0.5099 -0.4068
  483MOL0     H66604   1.454   8.046   2.041 -1.2408  1.3641  0.6094
  483MOL0     H66605   1.316   8.150   2.024  1.8109  0.6397  6.7209
  483MOL0     H66606   1.499   8.280   2.139  1.4422 -0.6625 -0.3608
  483MOL0     H66607   1.611   8.227   2.021  0.8107  0.4790  1.6429
  483MOL0     H66608   1.491   8.361   1.846 -1.2700  2.0579  0.5638
  483MOL0     H66609   1.374   8.409   1.963 -0.1235  0.0954  0.1934
  483MOL0     H66610   1.625   8.494   2.081  1.1785 -1.5446 -1.0966
  483MOL0     H66611   1.626   8.527   1.906 -0.9452  1.0553 -0.3812
  483MOL0     H66612   1.322   8.776   2.124  0.1963 -0.6269  0.0849
  483MOL0     H66613   1.291   9.060   2.141 -0.2293 -0.9918 -0.2807
  483MOL0     H66614   1.354   9.090   2.304 -1.6925  0.1597  0.9925
  483MOL0     H66615   1.259   8.945   2.267 -0.6686 -2.2219 -5.0597
  483MOL0     H66616   1.698   9.382   2.303 -0.8811 -0.8257 -2.6171
  483MOL0     H66617   1.852   9.527   2.416  1.5056  1.6449  0.3898
  483MOL0     H66618   2.137   9.624   2.560  1.6008 -0.3225  3.4511
  483MOL0     H66619   2.035   9.481   2.579  2.0196 -0.4118  2.0098
  483MOL0     H66620   2.207   9.412   2.680 -0.4477  3.1558  1.0261
  483MOL0     H66621   2.225   9.336   2.521 -0.9286 -0.5467 -0.4549
  483MOL0     H66622   2.399   9.563   2.645  0.7206  3.0375 -1.8804
  483MOL0     H66623   2.397   9.544   2.469  2.6121 -0.6989  0.2533
  483MOL0     H66624   2.431   9.315   2.487 -1.0269 -0.3513  1.0936
  483MOL0     H66625   2.430   9.309   2.654  0.8755 -2.5709 -1.4555
  483MOL0     H66626   2.677   9.315   2.551  1.8842  0.4910 -0.0535
  483MOL0     H66627   2.632   9.484   2.506 -2.1084 -1.1053 -1.3227
  483MOL0     H66628   2.632   9.359   2.792  0.6861  0.8252  0.9901
  483MOL0     H66629   2.594   9.532   2.744 -0.2181  0.2705 -1.2393
  483MOL0     H66630   2.799   9.578   2.686  0.8502 -0.9248 -0.3019
  483MOL0     H66631   2.855   9.404   2.683  2.7262  1.4230  2.1356
  483MOL0     H66632   2.948   9.505   2.872  0.7739 -3.3000  0.0682
  483MOL0     H66633   2.832   9.386   2.920  1.5847 -0.6044 -1.1200
  483MOL0     H66634   2.177   9.339   2.203 -0.6702 -4.1204 -3.2501
  483MOL0     H66635   2.011   9.171   2.109 -0.1828  0.4111  1.2162
  483MOL0     H66636   1.785   8.928   2.055  0.7117 -3.4520 -1.4559
  483MOL0     H66637   1.716   8.727   1.969  1.7279  0.7806  0.5142
  483MOL0     H66638   0.699   7.557   0.821 -3.3747 -1.9526 -1.7403
  483MOL0     H66639   0.480   7.504   0.824  0.2039 -0.4881  1.5476
  483MOL0     H66640   0.066   7.585   1.288 -2.1478  0.0928  0.6156
  483MOL0     H66641  -0.161   7.509   1.309  1.0878  3.2158  1.5000
  483MOL0     H66642  -0.386   7.339   0.966 -2.7882  2.1268 -2.4856
  483MOL0     H66643  -0.497   7.329   1.111 -0.9017  1.3494 -0.5677
  483MOL0     H66644  -0.542   7.506   0.928  1.4313  0.6360 -2.1514
  483MOL0     H66645  -0.395   7.585   0.992 -0.2779  1.9890  3.4923
  483MOL0     H66646  -0.663   7.531   1.133  0.5093 -1.0427  1.7341
  483MOL0     H66647  -0.519   7.546   1.231 -0.5646  0.4464  0.0741
  483MOL0     H66648  -0.648   7.764   1.235 -1.4878 -3.4199  0.2448
  483MOL0     H66649  -0.617   7.764   1.056 -2.1067  1.2698  1.6783
  483MOL0     H66650  -0.244   7.889   1.181 -0.6306  1.7196 -0.6048
  483MOL0     H66651  -0.173   7.394   0.905 -0.4738  1.1916  0.8165
  483MOL0     H66652   0.015   7.371   0.770  1.3197 -1.2157 -0.0963
  483MOL0     H66653   0.107   7.528   0.779  0.4322 -1.6522 -1.1656
  483MOL0     H66654   0.166   7.383   0.862 -1.1457 -0.6469  2.5469
  484MOL0     O66655  10.327   5.102   8.344 -0.1762 -0.5534  0.1644
  484MOL0     C66656  10.274   4.993   8.337 -0.0705  0.2439 -0.2985
  484MOL0     O66657  10.336   4.869   8.344 -0.1175  0.4502  1.1940
  484MOL0     C66658  10.463   4.863   8.408  0.2837  0.1643  0.3665
  484MOL0     C66659  10.475   4.855   8.553  0.0291 -0.7685  0.1140
  484MOL0     C66660  10.605   4.837   8.608  0.6181 -0.5791 -0.4560
  484MOL0     C66661  10.719   4.820   8.534 -0.3244  0.5118  0.6679
  484MOL0     O66662  10.848   4.810   8.591  0.8138 -0.4365  0.3976
  484MOL0     C66663  10.959   4.791   8.501  0.6508  0.0053  0.5122
  484MOL0     C66664  11.081   4.783   8.588 -0.0890 -0.2906 -0.7680
  484MOL0     C66665  11.073   4.672   8.689 -0.8241  0.3525 -0.4408
  484MOL0     C66666  11.221   4.644   8.732  1.0152 -0.2814 -0.0303
  484MOL0     C66667  11.229   4.508   8.810 -0.6007  1.1845 -0.3872
  484MOL0     C66668  11.375   4.483   8.860 -0.6204  0.2551 -0.6251
  484MOL0     C66669  11.411   4.334   8.889  0.6576 -0.2439  0.0861
  484MOL0     C66670  11.353   4.303   9.027 -0.0587 -0.0761  0.6012
  484MOL0     N66671  11.387   4.175   9.081  0.2904  0.4056 -0.6161
  484MOL0     C66672  11.506   4.137   9.148  0.8451 -0.3339 -0.4153
  484MOL0     C66673  11.492   4.011   9.185  0.1241  1.0836 -0.0100
  484MOL0     C66674  11.587   3.939   9.275  0.1569  0.0430 -0.5354
  484MOL0     C66675  11.602   3.800   9.216 -0.9809  0.4736  0.4584
  484MOL0     C66676  11.713   3.709   9.281 -0.2757 -0.1055  0.3765
  484MOL0     C66677  11.685   3.689   9.431 -0.8900 -0.0230 -0.5117
  484MOL0     O66678  11.770   3.587   9.482  0.2873 -0.9219 -0.5166
  484MOL0     C66679  11.887   3.616   9.539 -0.7355 -0.1590  0.1463
  484MOL0     C66680  11.964   3.500   9.568 -0.1461 -0.1206  0.3928
  484MOL0     C66681  12.099   3.500   9.610  0.8243 -0.6076 -0.1546
  484MOL0     C66682  12.162   3.369   9.617 -0.4411 -0.0253  0.4702
  484MOL0     C66683  12.149   3.635   9.630 -0.2573 -0.0534 -1.0058
  484MOL0     C66684  12.291   3.653   9.683  0.2235  0.0798 -0.6906
  484MOL0     O66685  12.326   3.770   9.731  0.6183 -0.5700  0.4235
  484MOL0     C66686  12.456   3.807   9.736  0.2928  0.4932  0.6241
  484MOL0     C66687  12.498   3.925   9.668  0.2515  0.2461  0.6628
  484MOL0     C66688  12.623   3.978   9.669  0.2950  0.1182  0.1996
  484MOL0     C66689  12.712   3.908   9.752 -1.2430  0.1454  0.0871
  484MOL0     O66690  12.850   3.931   9.760  0.3032  0.2887 -0.0453
  484MOL0     C66691  12.909   4.035   9.684 -0.0841  0.7752 -0.0023
  484MOL0     C66692  13.047   3.981   9.653 -0.4606 -0.7117  0.3713
  484MOL0     C66693  13.117   4.050   9.531 -0.2223 -0.2742  0.6641
  484MOL0     C66694  13.265   4.013   9.531  0.0365 -0.2894  0.4283
  484MOL0     C66695  13.352   4.114   9.451 -0.3188  0.2703 -0.2103
  484MOL0     C66696  13.427   4.221   9.535  0.0160  1.1085 -0.9049
  484MOL0     C66697  13.518   4.314   9.454  0.1011 -0.3724  0.9182
  484MOL0     C66698  13.580   4.415   9.558  0.4297 -0.7706 -0.5850
  484MOL0    Cl66699  13.660   4.549   9.461  0.2380 -0.2283 -0.2801
  484MOL0     C66700  12.679   3.800   9.823 -0.2061  0.3836 -0.0060
  484MOL0     C66701  12.551   3.744   9.817  0.3362 -1.6592  0.0381
  484MOL0     O66702  12.361   3.554   9.682 -0.6704  0.2689 -0.7008
  484MOL0     C66703  12.076   3.751   9.611  0.6249 -0.2115 -0.1944
  484MOL0     C66704  11.950   3.740   9.555 -0.1825 -0.5354  0.3087
  484MOL0     N66705  11.366   3.970   9.136  0.3827  0.4948  0.4509
  484MOL0     N66706  11.305   4.063   9.068 -0.5715  0.6285  0.1862
  484MOL0     C66707  10.705   4.826   8.396 -0.7883  0.8917  0.5056
  484MOL0     C66708  10.578   4.841   8.337  1.1549 -0.0263  0.1422
  484MOL0     C66709  10.134   4.983   8.292  1.0209 -1.0241 -0.0195
  484MOL0     C66710  10.058   4.860   8.292 -0.7236  0.0289 -0.5138
  484MOL0     C66711   9.939   4.845   8.242  0.6828  0.4292 -0.1171
  484MOL0     C66712   9.860   4.951   8.213 -0.2793 -0.2096  0.5108
  484MOL0     O66713   9.728   4.932   8.173 -0.1389 -0.3480  0.0930
  484MOL0     C66714   9.649   5.048   8.162 -0.4961  0.4283 -0.2850
  484MOL0     C66715   9.505   5.013   8.139 -0.1015 -0.2180 -0.3265
  484MOL0     C66716   9.450   4.972   8.278 -0.2675  0.4226 -0.0816
  484MOL0     C66717   9.299   5.006   8.319  0.5559  0.3079  0.0330
  484MOL0     C66718   9.254   4.902   8.405  0.0703 -0.2489  0.0023
  484MOL0     C66719   9.233   4.807   8.481  0.4209  0.1698 -0.4209
  484MOL0     C66720   9.914   5.085   8.231 -0.3406 -0.0445  0.3754
  484MOL0     C66721  10.054   5.100   8.260 -0.4207  0.1097 -0.3759
  484MOL0     C66722  10.094   5.243   8.256 -0.3191  0.4829 -0.0074
  484MOL0     H66723  10.382   4.862   8.607  0.6998 -0.2924  1.2358
  484MOL0     H66724  10.614   4.840   8.716  1.1459 -2.2251 -0.4275
  484MOL0     H66725  10.979   4.870   8.427 -0.7400  0.5301  0.6670
  484MOL0     H66726  10.934   4.700   8.447  1.4209 -0.4581  0.9252
  484MOL0     H66727  11.164   4.765   8.520 -1.1847  0.9036 -2.5227
  484MOL0     H66728  11.084   4.883   8.632  0.4322 -0.5927 -0.1103
  484MOL0     H66729  11.026   4.701   8.783  0.2471  3.5505 -0.7641
  484MOL0     H66730  11.033   4.584   8.638  2.7188 -2.0241  0.5661
  484MOL0     H66731  11.279   4.631   8.640  2.1332 -0.2831  0.6565
  484MOL0     H66732  11.263   4.731   8.784 -1.1063  0.4540  0.5940
  484MOL0     H66733  11.199   4.424   8.747 -1.6075 -1.6119  3.4733
  484MOL0     H66734  11.158   4.498   8.892 -1.3313  1.7530 -0.9236
  484MOL0     H66735  11.450   4.506   8.783  3.4848  2.4835  3.5281
  484MOL0     H66736  11.400   4.549   8.943 -2.3456 -0.2455  0.3340
  484MOL0     H66737  11.520   4.320   8.883  0.7365  0.6130 -0.7300
  484MOL0     H66738  11.369   4.270   8.811 -1.0732 -0.3939  1.1044
  484MOL0     H66739  11.392   4.378   9.095 -1.4520  0.2950  1.0129
  484MOL0     H66740  11.244   4.312   9.026 -0.6001 -3.9547  2.8305
  484MOL0     H66741  11.591   4.203   9.165  0.9256 -0.9651  1.9990
  484MOL0     H66742  11.550   3.935   9.378 -0.2673  0.0198 -0.6838
  484MOL0     H66743  11.683   3.990   9.288  0.5121 -1.0688  1.7495
  484MOL0     H66744  11.502   3.757   9.229 -2.5713  2.4916 -3.5709
  484MOL0     H66745  11.629   3.817   9.112  0.9965 -1.2663  0.6362
  484MOL0     H66746  11.695   3.609   9.239  2.7648 -0.0355 -1.4151
  484MOL0     H66747  11.812   3.748   9.256 -1.4854  1.3452 -2.5842
  484MOL0     H66748  11.683   3.786   9.482  0.2911  0.9207 -2.1808
  484MOL0     H66749  11.581   3.656   9.432 -2.1229  3.4155 -1.1330
  484MOL0     H66750  11.915   3.404   9.554  2.9992 -2.2030  2.3033
  484MOL0     H66751  12.220   3.340   9.529  0.4406 -0.1417  1.0730
  484MOL0     H66752  12.091   3.291   9.645  0.3676 -1.3047 -0.8918
  484MOL0     H66753  12.237   3.357   9.696  3.0143  0.1177 -2.5005
  484MOL0     H66754  12.423   3.976   9.608  1.8855  1.2823 -0.5760
  484MOL0     H66755  12.642   4.068   9.612  0.3370 -0.1556 -0.2206
  484MOL0     H66756  12.853   4.053   9.592 -3.3023 -2.5878  1.0578
  484MOL0     H66757  12.916   4.117   9.757 -0.7472 -0.1025  1.0800
  484MOL0     H66758  13.109   3.995   9.741 -0.4918  4.3987 -0.1489
  484MOL0     H66759  13.039   3.875   9.625 -0.8087 -1.0926  1.8179
  484MOL0     H66760  13.121   4.157   9.555  1.8981 -0.5913  1.9127
  484MOL0     H66761  13.064   4.014   9.442 -3.5291 -3.2732  3.5151
  484MOL0     H66762  13.268   3.915   9.483 -3.9594  0.4054 -1.6988
  484MOL0     H66763  13.288   4.003   9.637 -1.0609 -4.6468  0.4617
  484MOL0     H66764  13.428   4.057   9.396 -0.6360 -1.3144  0.9532
  484MOL0     H66765  13.296   4.171   9.377 -0.2807  1.0087  0.3214
  484MOL0     H66766  13.503   4.166   9.592 -1.8286 -0.9051 -0.2842
  484MOL0     H66767  13.361   4.273   9.605  0.7496  0.1418  0.5570
  484MOL0     H66768  13.461   4.356   9.371  0.7637  1.0541  1.1573
  484MOL0     H66769  13.606   4.265   9.412  1.1774  2.0409  0.1553
  484MOL0     H66770  13.654   4.359   9.615  2.8300  3.0740  0.5130
  484MOL0     H66771  13.509   4.464   9.626  2.3886  1.5040 -0.0552
  484MOL0     H66772  12.753   3.751   9.885  1.2348 -1.1250 -2.7200
  484MOL0     H66773  12.521   3.662   9.881 -0.8615 -1.5451 -0.3499
  484MOL0     H66774  12.116   3.851   9.620 -0.6735  0.3483 -0.3923
  484MOL0     H66775  11.908   3.831   9.513  1.4408 -0.6648 -1.7609
  484MOL0     H66776  10.781   4.806   8.321 -2.4973  0.6448 -1.2408
  484MOL0     H66777  10.573   4.841   8.229 -1.7482 -2.3583  0.1649
  484MOL0     H66778  10.106   4.768   8.322 -2.1583 -0.4076  0.5657
  484MOL0     H66779   9.908   4.747   8.205  1.5011  0.6540 -1.4597
  484MOL0     H66780   9.658   5.116   8.247 -0.4442  1.6384 -1.2292
  484MOL0     H66781   9.693   5.104   8.079  2.3122 -1.5044 -0.2286
  484MOL0     H66782   9.490   4.926   8.074  0.1441 -0.5896  0.1031
  484MOL0     H66783   9.447   5.100   8.107 -1.2860 -1.2149 -0.9674
  484MOL0     H66784   9.456   4.863   8.275 -2.0553  0.2930 -2.5556
  484MOL0     H66785   9.521   4.998   8.357  2.4253 -1.3208 -1.7246
  484MOL0     H66786   9.239   5.008   8.228  0.0611  0.6674  0.3609
  484MOL0     H66787   9.293   5.106   8.364  2.3123  1.6929 -2.5633
  484MOL0     H66788   9.216   4.725   8.548  1.0150  0.0950 -0.3603
  484MOL0     H66789   9.856   5.176   8.214 -0.1124  0.3229  1.4651
  484MOL0     H66790  10.167   5.275   8.181 -1.1539  0.3863 -0.8904
  484MOL0     H66791  10.015   5.319   8.261 -0.6351  0.0925  1.2375
  484MOL0     H66792  10.143   5.268   8.350  0.6573  2.3189 -0.9453
  485MOL0     O66793   8.241   7.773   4.375 -0.4032  0.2811 -0.2386
  485MOL0     C66794   8.186   7.849   4.452  0.5915  0.4656  0.2220
  485MOL0     O66795   8.248   7.908   4.562  0.6537  0.2644 -0.1886
  485MOL0     C66796   8.367   7.865   4.603  0.8033 -0.4703  0.4965
  485MOL0     C66797   8.440   7.743   4.572 -0.7309 -0.2177  0.3016
  485MOL0     C66798   8.559   7.722   4.645 -0.1351 -0.1433  0.2949
  485MOL0     C66799   8.617   7.817   4.736  0.2104  0.1414 -1.1660
  485MOL0     O66800   8.752   7.796   4.796  0.7364 -0.1439 -0.3234
  485MOL0     C66801   8.845   7.702   4.740 -0.2017  0.7828  0.5475
  485MOL0     C66802   8.998   7.749   4.739 -0.3513  1.0727 -0.1099
  485MOL0     C66803   9.065   7.713   4.879  0.1553 -0.5210  0.1248
  485MOL0     C66804   9.192   7.795   4.909  0.2181 -0.3761  0.0154
  485MOL0     C66805   9.271   7.738   5.037 -0.4149 -0.4056 -0.2079
  485MOL0     C66806   9.233   7.789   5.183 -0.5007  0.3077 -0.3906
  485MOL0     C66807   9.263   7.944   5.207 -0.0077  0.5353 -0.0413
  485MOL0     C66808   9.408   7.972   5.246  1.1472  0.3102 -0.0950
  485MOL0     N66809   9.503   7.979   5.129 -0.0487  0.0100 -0.4469
  485MOL0     C66810   9.504   8.076   5.033 -0.5251 -0.0440 -1.1084
  485MOL0     C66811   9.622   8.063   4.969 -0.0223  1.1187 -0.6497
  485MOL0     C66812   9.669   8.142   4.852  0.3041 -0.3790  0.5088
  485MOL0     C66813   9.552   8.178   4.765  0.2865 -0.3186  0.3049
  485MOL0     C66814   9.606   8.232   4.633 -0.3102  0.2847 -0.9326
  485MOL0     C66815   9.493   8.302   4.546  0.3021  0.8717 -0.0455
  485MOL0     O66816   9.371   8.224   4.533 -0.3857 -0.0322 -0.4266
  485MOL0     C66817   9.278   8.285   4.454  0.2884  0.0110  0.0752
  485MOL0     C66818   9.287   8.287   4.314  0.3479  0.1722 -0.6937
  485MOL0     C66819   9.195   8.347   4.235 -0.5995  0.3670  0.5029
  485MOL0     C66820   9.205   8.345   4.082 -0.0086 -1.1841 -0.5192
  485MOL0     C66821   9.095   8.425   4.290 -1.1422 -0.3765 -0.0627
  485MOL0     C66822   8.991   8.491   4.210  0.0204 -0.9812 -0.1042
  485MOL0     O66823   8.941   8.608   4.258  0.0227  0.0412  0.1079
  485MOL0     C66824   8.808   8.621   4.269 -0.2511 -0.4977 -0.0481
  485MOL0     C66825   8.753   8.747   4.278 -0.9721 -0.0456 -0.2772
  485MOL0     C66826   8.623   8.764   4.308  0.6692 -0.2248 -0.2368
  485MOL0     C66827   8.543   8.652   4.348  0.6352 -0.4725  0.2139
  485MOL0     O66828   8.414   8.649   4.383  0.4776 -0.0464 -0.0131
  485MOL0     C66829   8.342   8.772   4.396  0.0086 -0.1400 -1.0274
  485MOL0     C66830   8.192   8.732   4.413 -0.8733 -0.2237  1.1925
  485MOL0     C66831   8.122   8.840   4.471 -0.1163 -0.2576  0.8767
  485MOL0     C66832   7.977   8.831   4.480  0.8091  0.0329  0.0433
  485MOL0     C66833   7.916   8.812   4.618 -0.2618  0.7355 -0.7560
  485MOL0     C66834   7.769   8.841   4.621 -0.0154  0.0089 -0.2563
  485MOL0     C66835   7.716   8.803   4.759 -0.0943 -0.1719 -0.0165
  485MOL0     C66836   7.568   8.782   4.773  0.0131 -0.1955 -0.1665
  485MOL0    Cl66837   7.529   8.636   4.674 -0.2560 -0.2304 -0.5243
  485MOL0     C66838   8.590   8.523   4.326 -0.3247 -0.6611 -0.3722
  485MOL0     C66839   8.723   8.500   4.288  0.6647 -0.1211  0.7162
  485MOL0     O66840   8.959   8.452   4.098  0.1413  0.2444 -0.8744
  485MOL0     C66841   9.092   8.438   4.429  0.4147 -0.3161 -0.1368
  485MOL0     C66842   9.180   8.367   4.515  0.7820 -0.1691  0.9389
  485MOL0     N66843   9.686   7.953   5.012  0.3415  0.2831  1.0335
  485MOL0     N66844   9.608   7.900   5.102 -0.2957 -0.9559 -0.0382
  485MOL0     C66845   8.537   7.928   4.759 -0.1178 -0.6829 -0.0268
  485MOL0     C66846   8.416   7.959   4.693  0.3376  0.1164 -0.7001
  485MOL0     C66847   8.047   7.900   4.418 -0.3199  0.1213 -0.3952
  485MOL0     C66848   7.987   7.995   4.509  0.0424 -0.5325 -0.6623
  485MOL0     C66849   7.873   8.063   4.477  0.4928 -0.7917  0.0093
  485MOL0     C66850   7.801   8.031   4.364  0.1542 -0.0114 -0.1233
  485MOL0     O66851   7.693   8.098   4.313  0.6617  0.0444 -0.4673
  485MOL0     C66852   7.623   8.197   4.389 -0.0225 -0.4532  0.0522
  485MOL0     C66853   7.532   8.129   4.488  0.1861 -0.3792 -0.3591
  485MOL0     C66854   7.417   8.215   4.549 -0.0693  0.0672  0.5106
  485MOL0     C66855   7.340   8.129   4.649 -0.6860 -0.0457 -0.1551
  485MOL0     C66856   7.256   8.031   4.586  0.1027 -0.5573  0.4855
  485MOL0     C66857   7.188   7.943   4.546  0.4484 -0.1895  1.5970
  485MOL0     C66858   7.846   7.933   4.283 -1.1064  0.2037  0.4921
  485MOL0     C66859   7.969   7.866   4.301 -0.0461 -0.1490 -0.5512
  485MOL0     C66860   8.007   7.770   4.195 -0.6233  0.1289  0.1143
  485MOL0     H66861   8.402   7.664   4.509  2.2758 -1.7449  0.2065
  485MOL0     H66862   8.618   7.634   4.622 -0.6502 -0.6302  0.8334
  485MOL0     H66863   8.809   7.689   4.637  0.7377  4.1124 -0.3252
  485MOL0     H66864   8.844   7.599   4.777 -1.4180  0.2788 -0.7944
  485MOL0     H66865   9.057   7.696   4.664  0.3479 -1.0601  1.8481
  485MOL0     H66866   9.011   7.856   4.719  3.3590  0.6801 -0.4956
  485MOL0     H66867   8.994   7.734   4.959  0.1706  0.2795 -0.0568
  485MOL0     H66868   9.088   7.606   4.877  1.0648 -0.3292 -1.0102
  485MOL0     H66869   9.256   7.785   4.821 -3.0302  1.7885 -2.8412
  485MOL0     H66870   9.175   7.903   4.920  0.3019 -0.1914 -1.4839
  485MOL0     H66871   9.378   7.752   5.024 -0.3890  1.6349  1.6332
  485MOL0     H66872   9.260   7.629   5.045  0.2192 -0.4160  0.6569
  485MOL0     H66873   9.130   7.758   5.200  0.3036 -3.7861 -1.7762
  485MOL0     H66874   9.297   7.739   5.257 -0.6452  1.8188  0.7966
  485MOL0     H66875   9.203   7.958   5.298 -0.0452 -0.0833  0.0332
  485MOL0     H66876   9.228   8.008   5.125  1.4824  0.0520 -1.0858
  485MOL0     H66877   9.408   8.072   5.290 -3.4698  1.2800 -1.7394
  485MOL0     H66878   9.440   7.907   5.329  1.3045  1.0964  0.4755
  485MOL0     H66879   9.442   8.164   5.023 -3.4973 -1.8182  0.2456
  485MOL0     H66880   9.754   8.095   4.802  0.9202  0.0141  1.1521
  485MOL0     H66881   9.701   8.230   4.908 -0.0475 -1.4488  2.4681
  485MOL0     H66882   9.488   8.092   4.741 -0.4915  0.6145 -1.0897
  485MOL0     H66883   9.482   8.247   4.813  1.2305 -0.2410  1.6317
  485MOL0     H66884   9.688   8.301   4.651  0.2837 -0.6662  0.1539
  485MOL0     H66885   9.641   8.150   4.569 -1.5723  0.7411 -2.2632
  485MOL0     H66886   9.471   8.397   4.597 -0.5570 -0.2576  1.7702
  485MOL0     H66887   9.536   8.322   4.447  0.4490 -2.9313 -0.8836
  485MOL0     H66888   9.375   8.234   4.276  0.1970  0.2746 -1.2025
  485MOL0     H66889   9.119   8.305   4.027 -0.8587 -1.4976  0.9968
  485MOL0     H66890   9.294   8.285   4.060  0.3910 -1.2336  1.1401
  485MOL0     H66891   9.219   8.449   4.052 -2.1035 -0.4911  0.7231
  485MOL0     H66892   8.818   8.834   4.268  0.5857 -0.8779  1.8427
  485MOL0     H66893   8.592   8.868   4.317 -0.2368 -0.5803  0.9502
  485MOL0     H66894   8.365   8.816   4.494 -2.4275 -0.5189 -0.2365
  485MOL0     H66895   8.366   8.839   4.313  0.6806  0.5031 -0.3313
  485MOL0     H66896   8.150   8.710   4.315  1.9608  1.8859 -0.6372
  485MOL0     H66897   8.183   8.644   4.477 -1.5823 -0.5116  0.7051
  485MOL0     H66898   8.128   8.926   4.403 -2.3407 -1.5186 -1.0699
  485MOL0     H66899   8.163   8.866   4.568  1.6183 -0.9708  0.3646
  485MOL0     H66900   7.939   8.757   4.409  0.5069  0.3052 -0.0794
  485MOL0     H66901   7.934   8.926   4.448  0.4067  0.0922  0.7485
  485MOL0     H66902   7.927   8.708   4.650 -1.3770  0.0190 -2.5156
  485MOL0     H66903   7.971   8.879   4.684  0.4430 -1.5432  1.1084
  485MOL0     H66904   7.717   8.789   4.540 -0.3244  0.6990 -0.5065
  485MOL0     H66905   7.752   8.949   4.611  0.1620  0.0935  0.2918
  485MOL0     H66906   7.726   8.894   4.820  0.8411 -0.6798  0.6130
  485MOL0     H66907   7.767   8.713   4.793 -2.8423 -1.6586  0.4208
  485MOL0     H66908   7.514   8.870   4.735  2.0344  0.2371 -2.2233
  485MOL0     H66909   7.559   8.766   4.881  2.6035  1.2643  0.3590
  485MOL0     H66910   8.535   8.432   4.348  1.9065 -1.1901  4.4218
  485MOL0     H66911   8.761   8.400   4.269  0.8488 -0.0763  0.8562
  485MOL0     H66912   9.018   8.498   4.482  0.8668 -1.2138  1.6022
  485MOL0     H66913   9.174   8.392   4.620  1.0565  0.8661  0.7187
  485MOL0     H66914   8.581   8.004   4.823 -0.5669 -0.3628 -0.0917
  485MOL0     H66915   8.366   8.052   4.721  1.5297  0.8067 -0.7740
  485MOL0     H66916   8.031   8.006   4.607 -4.7393 -1.3010  1.8626
  485MOL0     H66917   7.848   8.142   4.546  0.2437 -0.6374 -0.2580
  485MOL0     H66918   7.683   8.262   4.454 -0.2436  0.3242 -0.5111
  485MOL0     H66919   7.562   8.257   4.322 -2.8461 -1.3592  1.6604
  485MOL0     H66920   7.595   8.100   4.573  2.5328  0.0498 -1.8512
  485MOL0     H66921   7.484   8.053   4.427 -1.7554 -0.5734  1.3070
  485MOL0     H66922   7.470   8.296   4.600  3.9337 -2.6075  1.0123
  485MOL0     H66923   7.354   8.254   4.468 -0.1476  1.9301  1.4019
  485MOL0     H66924   7.280   8.199   4.707 -0.5484  0.6298 -0.8190
  485MOL0     H66925   7.412   8.094   4.724 -0.7712  2.9013  1.4565
  485MOL0     H66926   7.122   7.862   4.523 -1.1174  1.8090 -1.4340
  485MOL0     H66927   7.785   7.920   4.194 -0.5770  1.4612 -0.0714
  485MOL0     H66928   8.075   7.803   4.115  0.5602  0.3256  1.1815
  485MOL0     H66929   8.049   7.676   4.232  3.5478  2.1052  0.9865
  485MOL0     H66930   7.916   7.743   4.140 -2.1183  2.1833  1.4418
  486MOL0     O66931   4.790   3.506  10.363 -0.2838  0.2456 -0.3827
  486MOL0     C66932   4.736   3.412  10.302  0.2893  0.3536 -0.2782
  486MOL0     O66933   4.797   3.305  10.251  0.4652  0.7902 -0.0887
  486MOL0     C66934   4.933   3.288  10.278  0.7599  0.2563 -0.7747
  486MOL0     C66935   4.978   3.267  10.406 -0.3179 -0.4652  0.0898
  486MOL0     C66936   5.115   3.232  10.438  0.6428 -0.6097 -0.2809
  486MOL0     C66937   5.204   3.226  10.337  0.0637 -0.8370 -0.4799
  486MOL0     O66938   5.331   3.195  10.372 -0.1874  0.3930 -0.1855
  486MOL0     C66939   5.418   3.123  10.281  0.2847 -0.0822 -0.0657
  486MOL0     C66940   5.559   3.092  10.333  0.4622  0.5993 -0.4337
  486MOL0     C66941   5.557   3.021  10.470  1.0101 -0.2987  0.5056
  486MOL0     C66942   5.703   3.007  10.512  0.2238  0.3714  0.3305
  486MOL0     C66943   5.717   2.910  10.634  0.2640 -0.4939  0.1880
  486MOL0     C66944   5.853   2.861  10.670 -0.1194 -0.2188  0.1598
  486MOL0     C66945   5.958   2.961  10.716 -0.3982 -0.9557 -0.0942
  486MOL0     C66946   5.898   3.072  10.807 -0.2582 -0.3388  0.5797
  486MOL0     N66947   6.008   3.154  10.861 -0.6184  0.3201 -0.6110
  486MOL0     C66948   6.061   3.139  10.984 -0.5129 -0.7910 -1.2384
  486MOL0     C66949   6.171   3.226  10.993 -0.8060  0.8267 -0.5528
  486MOL0     C66950   6.262   3.250  11.109 -0.1566  0.7395  0.7794
  486MOL0     C66951   6.403   3.263  11.066  0.7856 -0.6581 -1.0253
  486MOL0     C66952   6.485   3.268  11.195 -0.8242 -0.4291  0.1126
  486MOL0     C66953   6.631   3.260  11.147  0.2580 -0.1860 -0.9240
  486MOL0     O66954   6.684   3.151  11.074 -0.9277 -0.1099  0.6788
  486MOL0     C66955   6.818   3.163  11.052 -0.5663  0.3842  0.1241
  486MOL0     C66956   6.869   3.040  11.004 -0.1202 -0.4432 -0.0895
  486MOL0     C66957   7.008   3.035  10.971  0.4094  0.3120  0.1249
  486MOL0     C66958   7.060   2.904  10.908 -0.0836  0.0698  0.7290
  486MOL0     C66959   7.092   3.145  10.991  0.0602 -0.3145 -0.9424
  486MOL0     C66960   7.247   3.154  10.974 -0.2659 -0.5352  0.1853
  486MOL0     O66961   7.308   3.267  11.025  0.0497 -0.1440  0.0068
  486MOL0     C66962   7.442   3.275  11.049  0.1418  0.1358  0.0809
  486MOL0     C66963   7.540   3.178  11.060  0.2948  0.2832 -0.0702
  486MOL0     C66964   7.674   3.214  11.090 -0.4921  0.6792  0.2983
  486MOL0     C66965   7.711   3.346  11.093  1.1751 -0.1589 -0.4318
  486MOL0     O66966   7.842   3.367  11.101  0.2785  0.8521 -0.8595
  486MOL0     C66967   7.887   3.481  11.023 -0.0983  0.6264 -0.0701
  486MOL0     C66968   8.013   3.463  10.950  0.1133 -1.2869  0.1095
  486MOL0     C66969   8.120   3.444  11.049  0.4503  0.3932 -0.2098
  486MOL0     C66970   8.199   3.574  11.085  0.5511  0.1108  0.5368
  486MOL0     C66971   8.319   3.565  11.189  0.2011  0.2678  0.5880
  486MOL0     C66972   8.414   3.444  11.156 -0.1824  0.6180 -1.0269
  486MOL0     C66973   8.541   3.464  11.248 -0.0800  0.6354  0.2176
  486MOL0     C66974   8.647   3.356  11.227  0.6605 -0.0764 -0.1411
  486MOL0    Cl66975   8.716   3.370  11.060  0.0885 -0.3559  0.0449
  486MOL0     C66976   7.617   3.448  11.082  0.0181  1.2608 -0.2489
  486MOL0     C66977   7.479   3.404  11.064  0.5167 -0.0356  0.3722
  486MOL0     O66978   7.303   3.054  10.915 -0.0912 -0.1632 -0.2640
  486MOL0     C66979   7.036   3.267  11.032  0.6765  1.1795 -0.1451
  486MOL0     C66980   6.898   3.277  11.066 -1.1687 -0.3182 -0.1039
  486MOL0     N66981   6.167   3.300  10.879  0.6910  0.2299 -0.6560
  486MOL0     N66982   6.065   3.264  10.802 -0.1354  0.2653 -1.0197
  486MOL0     C66983   5.165   3.245  10.201 -0.0245  0.2457  0.2793
  486MOL0     C66984   5.031   3.276  10.174 -1.3461 -0.3119 -0.2002
  486MOL0     C66985   4.586   3.418  10.286 -0.5969 -0.4585 -0.1644
  486MOL0     C66986   4.517   3.313  10.220  0.1381 -0.6575 -0.3624
  486MOL0     C66987   4.377   3.312  10.203  0.7665  0.0819  0.5887
  486MOL0     C66988   4.311   3.429  10.240  0.6342 -0.7006  0.3843
  486MOL0     O66989   4.169   3.433  10.223  0.8146  0.7329  0.1080
  486MOL0     C66990   4.111   3.561  10.190 -1.0093 -0.2765 -0.1035
  486MOL0     C66991   4.050   3.628  10.308 -0.3944 -0.0684 -0.2918
  486MOL0     C66992   4.054   3.784  10.303  0.4443  0.4926 -0.7626
  486MOL0     C66993   4.013   3.851  10.433  0.3009 -1.0319 -0.0942
  486MOL0     C66994   3.865   3.858  10.461 -0.1939 -0.5076 -0.7437
  486MOL0     C66995   3.746   3.859  10.471  0.7450  0.0338  0.6072
  486MOL0     C66996   4.377   3.527  10.312  0.6267 -0.9333 -0.1023
  486MOL0     C66997   4.510   3.527  10.337  0.3434 -0.2994 -0.5805
  486MOL0     C66998   4.563   3.637  10.419 -0.6350 -0.0392  0.7568
  486MOL0     H66999   4.911   3.289  10.488 -1.0133  3.8335 -1.3590
  486MOL0     H67000   5.141   3.206  10.540 -2.0561  2.2286  1.2995
  486MOL0     H67001   5.433   3.184  10.190 -0.3970 -0.7806 -0.6557
  486MOL0     H67002   5.356   3.040  10.247 -0.9967  0.4297  0.9403
  486MOL0     H67003   5.606   3.022  10.264 -0.6145 -2.1525  1.4771
  486MOL0     H67004   5.620   3.183  10.343  1.6257 -0.2065  0.0328
  486MOL0     H67005   5.501   3.076  10.546  3.7000  1.3407  1.4107
  486MOL0     H67006   5.504   2.926  10.456 -1.9918  1.0222  1.9324
  486MOL0     H67007   5.759   2.954  10.434 -0.9999  1.0233 -1.0499
  486MOL0     H67008   5.757   3.100  10.531  2.0940 -0.9384  1.7719
  486MOL0     H67009   5.647   2.828  10.614 -0.4418  0.2590 -0.4953
  486MOL0     H67010   5.664   2.957  10.717 -1.9391 -0.2336 -1.2815
  486MOL0     H67011   5.847   2.786  10.749 -4.4029  0.9033  1.1380
  486MOL0     H67012   5.905   2.818  10.584  0.1088  1.0787 -0.3789
  486MOL0     H67013   6.019   2.991  10.631  1.7582 -1.0613  1.3097
  486MOL0     H67014   6.032   2.909  10.779  0.6142 -0.0487 -0.5001
  486MOL0     H67015   5.836   3.138  10.746 -0.1413 -2.3682 -1.9381
  486MOL0     H67016   5.847   3.033  10.895  0.5196 -2.8813 -0.0038
  486MOL0     H67017   6.016   3.079  11.062 -1.8083  2.7093  0.9111
  486MOL0     H67018   6.255   3.169  11.182 -3.0605  0.8549  0.7314
  486MOL0     H67019   6.224   3.341  11.156  1.6232  1.8493  0.1839
  486MOL0     H67020   6.439   3.183  11.000  0.0935 -1.9399  0.1046
  486MOL0     H67021   6.405   3.359  11.014 -2.4515  0.4359  0.5715
  486MOL0     H67022   6.458   3.366  11.235  0.2224 -0.5847  1.2737
  486MOL0     H67023   6.453   3.181  11.253 -3.4029  0.3438 -0.0708
  486MOL0     H67024   6.649   3.348  11.084  0.4239  2.2821  2.3224
  486MOL0     H67025   6.696   3.265  11.235 -1.0229 -0.2633  0.0576
  486MOL0     H67026   6.805   2.953  10.991 -0.2405 -0.2974 -0.4799
  486MOL0     H67027   7.086   2.928  10.805  1.5831  0.9158  1.3120
  486MOL0     H67028   6.986   2.824  10.900  1.1840 -0.9190 -2.7393
  486MOL0     H67029   7.152   2.873  10.958  0.0807  0.6868  0.8185
  486MOL0     H67030   7.510   3.074  11.065  1.3131  0.0261  1.6649
  486MOL0     H67031   7.753   3.141  11.102  1.0254  2.2007 -0.1696
  486MOL0     H67032   7.810   3.512  10.951  1.9902 -1.9847 -3.7987
  486MOL0     H67033   7.900   3.570  11.086 -1.6225  2.2316 -1.8710
  486MOL0     H67034   8.018   3.375  10.885  0.1053 -1.1186 -0.1181
  486MOL0     H67035   8.033   3.548  10.884  2.7064  0.3900  2.8213
  486MOL0     H67036   8.186   3.371  11.002 -1.4850  0.2474 -2.8889
  486MOL0     H67037   8.087   3.408  11.147  0.5570  4.2606  1.4600
  486MOL0     H67038   8.130   3.654  11.113 -0.3363 -0.2895 -0.4535
  486MOL0     H67039   8.248   3.592  10.990  2.8498 -2.1522  1.1780
  486MOL0     H67040   8.371   3.661  11.179  0.3059 -0.0482 -3.1418
  486MOL0     H67041   8.281   3.565  11.291  3.0965  0.1645  1.7740
  486MOL0     H67042   8.450   3.440  11.053 -0.2519 -0.9046 -1.0180
  486MOL0     H67043   8.372   3.345  11.177  0.9297  0.3443  0.0390
  486MOL0     H67044   8.517   3.454  11.354 -1.6455 -0.6882 -0.2228
  486MOL0     H67045   8.587   3.560  11.223 -0.7496  1.2280  1.2163
  486MOL0     H67046   8.600   3.259  11.249  1.9280 -0.0678  3.0647
  486MOL0     H67047   8.716   3.372  11.310 -0.4497  2.4230  0.3985
  486MOL0     H67048   7.650   3.552  11.087 -1.5585  1.7050  2.3080
  486MOL0     H67049   7.406   3.483  11.074 -1.4874 -1.9840  2.0001
  486MOL0     H67050   7.096   3.354  11.059  0.7461  0.8470  0.8096
  486MOL0     H67051   6.867   3.378  11.089  0.1036 -0.0425  0.5130
  486MOL0     H67052   5.229   3.230  10.116  0.9505  1.5725  0.7517
  486MOL0     H67053   4.989   3.288  10.075 -0.0679  2.5440 -0.4892
  486MOL0     H67054   4.575   3.231  10.177  1.3911  0.7226 -1.4515
  486MOL0     H67055   4.317   3.237  10.154  0.8043  1.2135 -1.2670
  486MOL0     H67056   4.181   3.627  10.136 -0.4028 -0.9611 -0.1701
  486MOL0     H67057   4.030   3.544  10.119 -1.1105  2.3477 -0.7176
  486MOL0     H67058   4.114   3.599  10.392  0.0328  0.2766 -0.4888
  486MOL0     H67059   3.953   3.582  10.329 -1.3017  1.2410 -1.4368
  486MOL0     H67060   4.156   3.821  10.291  0.6159  0.1298 -0.4676
  486MOL0     H67061   3.985   3.816  10.225 -1.7154 -2.0171 -0.0104
  486MOL0     H67062   4.042   3.957  10.426  2.3986 -1.6403 -1.3046
  486MOL0     H67063   4.068   3.803  10.514  0.4562  0.8964  1.0261
  486MOL0     H67064   3.639   3.868  10.467  0.6794 -0.3107  1.5422
  486MOL0     H67065   4.325   3.617  10.344  4.2668  1.7220 -0.9587
  486MOL0     H67066   4.487   3.692  10.475 -0.5856  0.1314  0.6531
  486MOL0     H67067   4.629   3.603  10.500  0.2339  0.2150  0.1685
  486MOL0     H67068   4.615   3.698  10.345 -1.7670  0.2269  0.1644
  487MOL0     O67069   2.639   6.510   3.007  0.2370  0.1363 -0.1660
  487MOL0     C67070   2.581   6.404   3.002  0.1318 -0.5834 -0.0276
  487MOL0     O67071   2.627   6.302   2.921  0.4515  0.6270 -1.0477
  487MOL0     C67072   2.722   6.318   2.821  0.0310  0.0422  0.0468
  487MOL0     C67073   2.759   6.203   2.757 -0.4059  0.4813  0.4493
  487MOL0     C67074   2.843   6.204   2.644  0.1427 -0.3921 -0.5452
  487MOL0     C67075   2.899   6.317   2.596 -0.5884  0.5290 -0.7352
  487MOL0     O67076   2.989   6.300   2.489  0.5564 -0.1128 -0.0156
  487MOL0     C67077   3.088   6.397   2.458  0.2056  0.7042 -0.1123
  487MOL0     C67078   3.217   6.366   2.543  0.8088 -0.3819 -0.4273
  487MOL0     C67079   3.295   6.252   2.492 -0.2414 -0.5050 -0.2834
  487MOL0     C67080   3.416   6.208   2.570  0.0093 -0.1594  0.3771
  487MOL0     C67081   3.498   6.113   2.499  0.2281 -0.3565 -0.1083
  487MOL0     C67082   3.645   6.102   2.548 -0.1622  0.8097 -0.6622
  487MOL0     C67083   3.729   6.014   2.450 -0.2505  0.1127  0.6355
  487MOL0     C67084   3.856   5.940   2.502 -0.4418 -1.0769  0.4423
  487MOL0     N67085   3.958   6.030   2.544  0.5110 -0.1632  0.1636
  487MOL0     C67086   4.072   6.042   2.468 -0.1614 -1.0130 -0.0071
  487MOL0     C67087   4.160   6.123   2.533 -0.3271  0.0377  0.2205
  487MOL0     C67088   4.299   6.183   2.491  0.3219  0.3921 -0.1333
  487MOL0     C67089   4.410   6.108   2.562 -0.5659 -0.4699 -0.4408
  487MOL0     C67090   4.545   6.148   2.502  0.5984  0.8083 -0.4406
  487MOL0     C67091   4.664   6.056   2.546  0.9904 -0.2900 -0.0950
  487MOL0     O67092   4.763   6.062   2.439  0.6584 -0.2485  0.1511
  487MOL0     C67093   4.882   6.113   2.468 -0.2552 -0.1434 -0.5111
  487MOL0     C67094   4.947   6.084   2.586 -1.2986  0.0642 -0.8947
  487MOL0     C67095   5.076   6.139   2.618  1.1224  0.6579 -0.1055
  487MOL0     C67096   5.142   6.091   2.736 -0.4645 -0.0493 -0.2855
  487MOL0     C67097   5.131   6.238   2.531 -0.3193 -0.0882 -0.4519
  487MOL0     C67098   5.264   6.302   2.548 -0.8466  0.4434 -0.4328
  487MOL0     O67099   5.322   6.311   2.425  0.3436  0.2419  0.0906
  487MOL0     C67100   5.452   6.364   2.429  0.2147 -0.6877 -0.2437
  487MOL0     C67101   5.560   6.290   2.478 -0.0359 -0.5243  0.5058
  487MOL0     C67102   5.687   6.338   2.469 -0.8690 -0.1085  0.2666
  487MOL0     C67103   5.716   6.469   2.421  0.0769  0.1461 -0.8749
  487MOL0     O67104   5.840   6.520   2.441 -0.1943 -0.0529 -0.1233
  487MOL0     C67105   5.867   6.646   2.392  0.2956 -0.4203  0.1222
  487MOL0     C67106   6.014   6.676   2.410 -0.0500  0.0563 -0.1117
  487MOL0     C67107   6.079   6.779   2.311  0.5887  0.0580 -0.2950
  487MOL0     C67108   6.224   6.814   2.357  0.6610  0.1936  0.0116
  487MOL0     C67109   6.320   6.876   2.252  1.5111 -1.0025 -0.3005
  487MOL0     C67110   6.335   6.785   2.130 -0.3982 -0.4029 -0.1267
  487MOL0     C67111   6.446   6.832   2.038 -0.1054 -0.8259  0.7512
  487MOL0     C67112   6.409   6.969   1.966  0.1995  0.0152  0.3356
  487MOL0    Cl67113   6.260   6.964   1.864 -0.3505 -0.5282  0.0236
  487MOL0     C67114   5.612   6.535   2.357  0.0414  0.1598 -1.9282
  487MOL0     C67115   5.482   6.487   2.364 -0.8148  0.0680  0.5580
  487MOL0     O67116   5.315   6.328   2.656  0.0612  1.0737 -0.2404
  487MOL0     C67117   5.059   6.275   2.411  1.3740 -0.2989  0.6460
  487MOL0     C67118   4.935   6.213   2.381  0.8301 -0.5918  1.0572
  487MOL0     N67119   4.088   6.159   2.645  0.1255  0.4211  0.3562
  487MOL0     N67120   3.974   6.099   2.658  0.3618 -0.1038 -0.1282
  487MOL0     C67121   2.857   6.440   2.648 -0.4390 -0.8208 -0.1076
  487MOL0     C67122   2.777   6.439   2.763  0.3427 -0.4805 -0.6214
  487MOL0     C67123   2.465   6.392   3.094 -0.8945  0.3313 -0.6374
  487MOL0     C67124   2.357   6.311   3.063  0.8034  0.0052 -0.0405
  487MOL0     C67125   2.251   6.295   3.146 -0.9213  0.0185  0.2911
  487MOL0     C67126   2.251   6.358   3.270  0.1745 -0.1021 -0.4068
  487MOL0     O67127   2.137   6.317   3.341  0.5214  0.7015  0.0647
  487MOL0     C67128   2.116   6.384   3.463  0.2797 -0.3795 -0.5657
  487MOL0     C67129   1.974   6.357   3.520 -0.8904 -0.7794  0.8697
  487MOL0     C67130   1.949   6.209   3.537  0.5803 -0.0039 -0.9784
  487MOL0     C67131   1.806   6.176   3.564 -0.4384  0.3480 -0.0814
  487MOL0     C67132   1.756   6.226   3.694  0.0219  0.1226 -0.2388
  487MOL0     C67133   1.688   6.282   3.784  0.3770 -0.3045  0.5499
  487MOL0     C67134   2.357   6.439   3.312  0.4748 -0.4062 -0.3196
  487MOL0     C67135   2.457   6.459   3.221 -0.4237 -0.5585 -0.1097
  487MOL0     C67136   2.563   6.559   3.269  0.1905  0.0463  0.9073
  487MOL0     H67137   2.718   6.107   2.788  1.2306 -2.7833 -5.7714
  487MOL0     H67138   2.866   6.107   2.601 -2.0480 -1.2857  0.1855
  487MOL0     H67139   3.055   6.497   2.487 -1.7662 -0.1470  0.7325
  487MOL0     H67140   3.120   6.397   2.353  1.6946 -0.1399  0.3074
  487MOL0     H67141   3.279   6.455   2.535 -2.0286  1.6945 -0.5526
  487MOL0     H67142   3.195   6.338   2.646  2.2248 -2.9683 -0.7381
  487MOL0     H67143   3.228   6.165   2.488 -0.5467 -0.2531 -0.8113
  487MOL0     H67144   3.325   6.279   2.390  2.4002  1.0821  0.8168
  487MOL0     H67145   3.472   6.298   2.598  0.3111  0.1755 -1.2295
  487MOL0     H67146   3.377   6.155   2.658  1.9945 -2.8634 -0.2402
  487MOL0     H67147   3.499   6.144   2.394 -1.1867  2.9424  0.7145
  487MOL0     H67148   3.447   6.016   2.506  0.8951 -0.6495  0.7395
  487MOL0     H67149   3.692   6.199   2.566 -2.9559  1.8655  1.6064
  487MOL0     H67150   3.649   6.062   2.650 -2.5661  2.9923  0.4013
  487MOL0     H67151   3.776   6.090   2.387  3.2421 -2.1271  0.2701
  487MOL0     H67152   3.664   5.945   2.396  0.3237  1.1183 -1.4588
  487MOL0     H67153   3.820   5.883   2.588 -0.4653 -1.8117 -0.0458
  487MOL0     H67154   3.895   5.860   2.438  1.9112 -0.8865  1.5330
  487MOL0     H67155   4.085   6.001   2.369 -0.1061  3.4079 -2.0496
  487MOL0     H67156   4.311   6.289   2.515 -0.8297  0.2318  1.2415
  487MOL0     H67157   4.310   6.169   2.383  1.2793  2.5486 -0.3753
  487MOL0     H67158   4.413   6.134   2.668  2.1475  0.8028 -0.7373
  487MOL0     H67159   4.394   6.000   2.553  0.4609 -0.7239  0.4929
  487MOL0     H67160   4.533   6.134   2.394 -3.5146  0.5901 -0.1338
  487MOL0     H67161   4.559   6.255   2.520  0.7956  0.4908  1.4471
  487MOL0     H67162   4.698   6.082   2.646  0.2221  0.5635 -0.0358
  487MOL0     H67163   4.629   5.953   2.560  0.7569 -0.4846 -1.8946
  487MOL0     H67164   4.912   6.001   2.647 -1.0396  0.8704  0.3911
  487MOL0     H67165   5.085   6.111   2.827 -1.4004 -2.0593 -0.3580
  487MOL0     H67166   5.247   6.121   2.746 -0.6397  0.7942 -0.8498
  487MOL0     H67167   5.137   5.982   2.726  0.7877 -0.1629  0.1693
  487MOL0     H67168   5.543   6.186   2.507  0.3193 -1.3262 -1.9253
  487MOL0     H67169   5.761   6.270   2.512 -0.0774 -0.9946 -2.3374
  487MOL0     H67170   5.844   6.665   2.287  0.6504  0.9306  0.2740
  487MOL0     H67171   5.823   6.717   2.462 -1.8416 -0.8947 -0.6586
  487MOL0     H67172   6.022   6.723   2.508 -0.7063 -1.1903  0.5712
  487MOL0     H67173   6.079   6.588   2.410 -1.7464 -1.4130 -3.8570
  487MOL0     H67174   6.006   6.860   2.302 -0.6559 -0.9991 -0.1275
  487MOL0     H67175   6.100   6.729   2.216  0.1174  0.6792 -0.7285
  487MOL0     H67176   6.264   6.719   2.394 -1.9410 -0.1109  2.3555
  487MOL0     H67177   6.225   6.877   2.447  0.9807  0.1429  0.0472
  487MOL0     H67178   6.287   6.974   2.216  3.2796  0.1367  0.9919
  487MOL0     H67179   6.410   6.891   2.312  0.5575 -2.1208  1.4701
  487MOL0     H67180   6.244   6.784   2.069 -0.5421  1.4168 -0.0035
  487MOL0     H67181   6.357   6.685   2.168  0.5688 -1.1674 -2.5116
  487MOL0     H67182   6.472   6.755   1.964 -0.8608 -1.2663  0.9325
  487MOL0     H67183   6.539   6.846   2.094  1.4349  1.2706 -2.0334
  487MOL0     H67184   6.492   7.008   1.906  0.2749 -2.7606 -1.5578
  487MOL0     H67185   6.402   7.040   2.049  0.3924 -3.7894  3.9443
  487MOL0     H67186   5.617   6.636   2.317  1.5312  0.6714 -0.5411
  487MOL0     H67187   5.401   6.553   2.335 -1.2481 -0.2180  1.1173
  487MOL0     H67188   5.086   6.364   2.355  1.1027 -0.3009  0.5073
  487MOL0     H67189   4.873   6.241   2.296  2.3949 -0.0215  0.0708
  487MOL0     H67190   2.884   6.532   2.596 -1.5233  0.3951  1.3842
  487MOL0     H67191   2.747   6.533   2.808  0.2388  0.2250 -2.0986
  487MOL0     H67192   2.357   6.250   2.974  1.8437 -0.4342  0.2429
  487MOL0     H67193   2.186   6.212   3.120  0.4968 -1.2314  0.6337
  487MOL0     H67194   2.198   6.342   3.523  1.0671  0.5157 -0.9859
  487MOL0     H67195   2.128   6.492   3.451  0.1308 -0.1880  0.8334
  487MOL0     H67196   1.902   6.397   3.448  1.1481  0.5600 -0.5107
  487MOL0     H67197   1.956   6.419   3.609  0.5933 -1.3322  1.5939
  487MOL0     H67198   1.979   6.155   3.446 -2.4006 -1.1128 -1.4115
  487MOL0     H67199   2.014   6.165   3.613  0.2375  0.2817 -0.5163
  487MOL0     H67200   1.786   6.069   3.555 -2.7950  0.6699  0.7142
  487MOL0     H67201   1.748   6.218   3.482 -0.0094 -0.7445 -0.9712
  487MOL0     H67202   1.629   6.354   3.836  0.3348  1.0762 -1.2951
  487MOL0     H67203   2.342   6.476   3.413 -2.2643  0.8142 -1.0838
  487MOL0     H67204   2.659   6.508   3.271  0.4174  0.3175 -1.1639
  487MOL0     H67205   2.561   6.631   3.186 -0.1210 -2.2245 -1.1737
  487MOL0     H67206   2.535   6.598   3.367 -0.7069  0.1854  0.6046
  488MOL0     O67207   3.759   0.087   9.506 -0.2655  0.2602 -0.9935
  488MOL0     C67208   3.658   0.043   9.461  0.3228 -0.5237 -0.1838
  488MOL0     O67209   3.621  -0.097   9.437  0.2752 -0.8531 -0.3094
  488MOL0     C67210   3.734  -0.183   9.452  0.3825 -0.2327 -0.5335
  488MOL0     C67211   3.739  -0.265   9.564  0.8600  0.3372 -0.5675
  488MOL0     C67212   3.844  -0.353   9.580  0.2077  0.9651 -0.2487
  488MOL0     C67213   3.939  -0.359   9.478 -0.1868  0.5128 -0.0642
  488MOL0     O67214   4.022  -0.467   9.475 -0.7030  0.0115  0.5164
  488MOL0     C67215   4.155  -0.436   9.527  0.1318 -0.7627 -0.6000
  488MOL0     C67216   4.240  -0.545   9.578  0.5629  0.4560 -0.8735
  488MOL0     C67217   4.192  -0.594   9.716 -0.4343  0.4459 -0.5781
  488MOL0     C67218   4.089  -0.703   9.699 -0.5788  0.0889 -0.4570
  488MOL0     C67219   4.066  -0.762   9.842 -0.1424  0.6903 -0.1622
  488MOL0     C67220   3.938  -0.838   9.844  0.5451  0.2587  0.6198
  488MOL0     C67221   3.905  -0.887   9.983  0.8287  0.1242  0.2776
  488MOL0     C67222   3.820  -0.781  10.057  0.3401 -0.1639  0.0162
  488MOL0     N67223   3.894  -0.715  10.169 -0.3174 -0.0510  0.5105
  488MOL0     C67224   3.875  -0.734  10.299 -0.3522 -0.3179  0.9126
  488MOL0     C67225   3.944  -0.630  10.357  0.1308  0.6289  0.1019
  488MOL0     C67226   3.963  -0.606  10.500 -0.0656  0.6097 -0.0169
  488MOL0     C67227   4.070  -0.702  10.543  0.2185  0.5294 -0.2056
  488MOL0     C67228   4.127  -0.670  10.692  0.4612  0.9033  0.4685
  488MOL0     C67229   4.203  -0.786  10.760 -0.1983 -0.6447  0.7023
  488MOL0     O67230   4.289  -0.844  10.664 -0.2600 -0.6392 -0.1494
  488MOL0     C67231   4.357  -0.951  10.713 -0.3955  0.2277  0.1262
  488MOL0     C67232   4.421  -0.964  10.835 -0.1368  0.3199 -0.0163
  488MOL0     C67233   4.505  -1.072  10.860  0.7244 -0.4371 -1.2317
  488MOL0     C67234   4.557  -1.086  11.002 -0.1887 -0.1300  0.4765
  488MOL0     C67235   4.521  -1.176  10.762  0.2703 -0.0281 -0.8083
  488MOL0     C67236   4.602  -1.304  10.776 -0.1842 -1.1040 -0.3111
  488MOL0     O67237   4.594  -1.387  10.676  0.8684  0.4617  0.7020
  488MOL0     C67238   4.620  -1.524  10.690  0.4590 -0.5866 -0.6265
  488MOL0     C67239   4.535  -1.619  10.640 -0.8311  1.2716 -0.2697
  488MOL0     C67240   4.574  -1.753  10.637 -0.2187  0.1042 -0.0380
  488MOL0     C67241   4.709  -1.798  10.673 -0.4675 -0.4317 -0.9766
  488MOL0     O67242   4.748  -1.925  10.687 -0.2622  0.2007  0.1789
  488MOL0     C67243   4.653  -2.030  10.674  0.1460  0.1582  0.2774
  488MOL0     C67244   4.695  -2.182  10.712 -0.5545  0.4765  0.1238
  488MOL0     C67245   4.579  -2.274  10.666  0.1658  0.5163 -0.3846
  488MOL0     C67246   4.594  -2.420  10.714 -0.5265 -0.5889  0.1490
  488MOL0     C67247   4.474  -2.508  10.696 -0.1706  0.2874 -1.0394
  488MOL0     C67248   4.448  -2.553  10.550  0.2615 -0.8902  0.0889
  488MOL0     C67249   4.397  -2.430  10.464  0.3593  0.0121  0.6255
  488MOL0     C67250   4.289  -2.470  10.358  0.1183 -0.2624 -0.2039
  488MOL0    Cl67251   4.227  -2.313  10.298  0.3082 -0.0411  0.4236
  488MOL0     C67252   4.793  -1.691  10.725  0.0222 -0.7231  0.1951
  488MOL0     C67253   4.753  -1.567  10.726 -0.0158 -0.4284 -0.8634
  488MOL0     O67254   4.671  -1.314  10.876  0.7601 -0.4142  0.4238
  488MOL0     C67255   4.461  -1.156  10.644  0.6592  0.5042 -0.4117
  488MOL0     C67256   4.379  -1.050  10.618 -0.4237  0.5458  0.6162
  488MOL0     N67257   4.011  -0.555  10.267  0.2302 -0.2594 -0.1942
  488MOL0     N67258   3.969  -0.603  10.148  0.5380 -0.7749 -0.1319
  488MOL0     C67259   3.940  -0.272   9.373  0.2657  0.3752 -0.2051
  488MOL0     C67260   3.840  -0.186   9.361  0.1974 -0.1779  0.1313
  488MOL0     C67261   3.541   0.131   9.434 -0.1859  0.0486 -0.5929
  488MOL0     C67262   3.457   0.100   9.330 -0.4641  0.3484  0.2235
  488MOL0     C67263   3.355   0.191   9.291  0.4702 -0.6441 -0.1373
  488MOL0     C67264   3.326   0.309   9.362  0.1949 -0.4742  0.0339
  488MOL0     O67265   3.228   0.403   9.323 -0.7315 -0.3426 -0.2028
  488MOL0     C67266   3.194   0.413   9.184 -1.1455 -0.1981  0.3220
  488MOL0     C67267   3.102   0.531   9.169  0.2851 -0.4504  0.1608
  488MOL0     C67268   3.167   0.661   9.230  0.4792 -0.4250  0.3990
  488MOL0     C67269   3.312   0.682   9.182  0.1187 -0.4024 -0.2785
  488MOL0     C67270   3.366   0.809   9.227  0.2484 -1.1574 -0.1984
  488MOL0     C67271   3.384   0.922   9.274  0.1883 -0.2032 -0.2230
  488MOL0     C67272   3.406   0.331   9.470  0.5715  0.0575  0.4320
  488MOL0     C67273   3.506   0.246   9.516 -0.2693  0.1306 -0.2240
  488MOL0     C67274   3.588   0.293   9.630 -0.4019  0.1132  0.8544
  488MOL0     H67275   3.651  -0.266   9.627  1.0128 -2.3542 -0.2783
  488MOL0     H67276   3.853  -0.434   9.651  2.6569 -0.5881 -2.1645
  488MOL0     H67277   4.157  -0.360   9.606  0.5985 -1.4638  0.0747
  488MOL0     H67278   4.219  -0.395   9.448 -1.4556 -1.0569 -2.0940
  488MOL0     H67279   4.242  -0.627   9.505  1.0052  0.4385 -0.8411
  488MOL0     H67280   4.345  -0.517   9.589  1.2188 -2.4422  1.6961
  488MOL0     H67281   4.276  -0.636   9.773 -0.6680 -0.7891 -1.1113
  488MOL0     H67282   4.159  -0.510   9.778  2.8298  2.1842 -0.9647
  488MOL0     H67283   3.999  -0.649   9.669 -1.2041 -0.0623  1.0616
  488MOL0     H67284   4.128  -0.777   9.628 -0.5293 -0.6687  0.3503
  488MOL0     H67285   4.059  -0.679   9.912 -1.0501  0.3949  0.1169
  488MOL0     H67286   4.155  -0.821   9.868 -0.7000  0.2412  0.7927
  488MOL0     H67287   3.855  -0.793   9.788 -1.3551 -3.0296  0.5816
  488MOL0     H67288   3.958  -0.929   9.788 -1.4372 -0.5391  1.1202
  488MOL0     H67289   3.995  -0.921  10.035  0.9730  0.6417  0.3791
  488MOL0     H67290   3.840  -0.974   9.974  0.8629  0.0450  0.7519
  488MOL0     H67291   3.787  -0.708   9.982  1.5225 -2.3841 -2.8332
  488MOL0     H67292   3.734  -0.830  10.104 -0.6864  2.2609  0.8707
  488MOL0     H67293   3.822  -0.813  10.352  2.4308 -1.8433  1.5931
  488MOL0     H67294   3.876  -0.609  10.566  1.3513  0.6989  1.9305
  488MOL0     H67295   4.009  -0.508  10.517  0.0256  0.1877  2.5969
  488MOL0     H67296   4.027  -0.803  10.545  0.3604  0.4470 -1.0439
  488MOL0     H67297   4.158  -0.697  10.478  1.0429  1.7223  0.9392
  488MOL0     H67298   4.183  -0.577  10.690  0.5270  0.8885  1.2433
  488MOL0     H67299   4.047  -0.652  10.764  0.4538  3.0226 -0.0102
  488MOL0     H67300   4.256  -0.740  10.844 -1.6473  0.8656  0.8426
  488MOL0     H67301   4.142  -0.869  10.798 -0.1377 -1.7741 -1.5173
  488MOL0     H67302   4.415  -0.881  10.904  0.1933  0.9177 -0.7052
  488MOL0     H67303   4.528  -0.997  11.060  1.4393  0.2642  0.7422
  488MOL0     H67304   4.665  -1.105  11.000  0.3565  2.5969  0.0085
  488MOL0     H67305   4.513  -1.167  11.060 -0.7436 -0.1261  0.0668
  488MOL0     H67306   4.435  -1.592  10.609 -1.1735  0.1480 -0.1796
  488MOL0     H67307   4.504  -1.828  10.602  1.0487 -0.2279 -2.0206
  488MOL0     H67308   4.571  -2.008  10.743 -1.1471 -1.8438 -0.5251
  488MOL0     H67309   4.613  -2.040  10.573  2.4359  0.0738 -0.6736
  488MOL0     H67310   4.790  -2.199  10.662 -0.1392 -0.9018  1.3077
  488MOL0     H67311   4.710  -2.192  10.820  1.6192 -3.4916 -0.3449
  488MOL0     H67312   4.566  -2.272  10.558 -0.3312 -0.8996 -0.3760
  488MOL0     H67313   4.489  -2.231  10.710  2.0654  0.5029  4.0725
  488MOL0     H67314   4.623  -2.411  10.819 -0.0624 -1.5466  0.1128
  488MOL0     H67315   4.673  -2.470  10.657  1.1109  1.8276  0.1746
  488MOL0     H67316   4.497  -2.599  10.753 -0.5046  0.4634 -0.6148
  488MOL0     H67317   4.392  -2.467  10.757  0.5818 -0.9806  0.9444
  488MOL0     H67318   4.374  -2.633  10.550 -1.3038  0.4848 -1.6555
  488MOL0     H67319   4.541  -2.589  10.506  1.1783  2.3265 -0.9431
  488MOL0     H67320   4.472  -2.380  10.402  2.2772 -1.2950  1.8012
  488MOL0     H67321   4.362  -2.359  10.540 -0.4886 -1.7499  1.9412
  488MOL0     H67322   4.218  -2.528  10.418 -0.7091  2.7076  1.9322
  488MOL0     H67323   4.340  -2.525  10.279  0.2630 -0.6569  0.1542
  488MOL0     H67324   4.892  -1.718  10.759  0.9080  1.2490 -0.6333
  488MOL0     H67325   4.830  -1.505  10.770 -1.9498  0.7187  1.1323
  488MOL0     H67326   4.480  -1.215  10.555 -0.4765 -0.6339  0.0689
  488MOL0     H67327   4.336  -1.035  10.519  0.8943  0.3736 -0.0013
  488MOL0     H67328   4.024  -0.280   9.305 -1.4425 -1.5801 -2.2209
  488MOL0     H67329   3.841  -0.116   9.278  0.9045  1.6044  1.5582
  488MOL0     H67330   3.484   0.014   9.269  0.1764  0.8710 -0.2503
  488MOL0     H67331   3.282   0.161   9.216  0.3192  0.8195 -0.6044
  488MOL0     H67332   3.285   0.420   9.123 -1.9730 -1.0434 -1.0880
  488MOL0     H67333   3.136   0.325   9.155 -1.1802  0.5694 -2.2058
  488MOL0     H67334   3.007   0.517   9.222  1.3497  4.2790  4.0536
  488MOL0     H67335   3.077   0.552   9.065  0.6399 -1.6114 -0.1784
  488MOL0     H67336   3.115   0.756   9.213  0.6691  0.1241  2.6142
  488MOL0     H67337   3.176   0.663   9.339 -2.2350  2.0624  0.6973
  488MOL0     H67338   3.319   0.690   9.073  1.7762 -0.2391 -0.1833
  488MOL0     H67339   3.375   0.598   9.213 -0.0331  0.1951  1.8184
  488MOL0     H67340   3.419   1.014   9.318  4.4036 -2.3350  1.4983
  488MOL0     H67341   3.389   0.430   9.512  0.0777  0.9382 -1.6927
  488MOL0     H67342   3.537   0.369   9.688 -2.3312  0.0691 -0.6876
  488MOL0     H67343   3.623   0.207   9.688  2.3365 -1.8693 -3.2402
  488MOL0     H67344   3.671   0.347   9.583 -3.6203  2.2209 -3.0421
  489MOL0     O67345   1.716   7.392   6.425 -0.3331  0.4224 -0.1664
  489MOL0     C67346   1.713   7.289   6.353  0.5667  0.1787 -0.0113
  489MOL0     O67347   1.821   7.232   6.287 -0.3458 -0.6404  0.4211
  489MOL0     C67348   1.949   7.269   6.315 -0.0668  0.1896  0.2912
  489MOL0     C67349   2.008   7.385   6.267 -0.2703 -0.3635 -0.0969
  489MOL0     C67350   2.138   7.423   6.288  0.4794 -0.5696 -0.1549
  489MOL0     C67351   2.220   7.346   6.376  0.8544  0.0182  0.4721
  489MOL0     O67352   2.345   7.381   6.410  0.2594 -0.0225 -0.0148
  489MOL0     C67353   2.410   7.476   6.332  0.8536  0.4230  0.1956
  489MOL0     C67354   2.560   7.464   6.355 -0.5163 -1.2150  0.0543
  489MOL0     C67355   2.627   7.346   6.286  0.7614  0.2955  0.6608
  489MOL0     C67356   2.780   7.334   6.297  0.6283 -0.3442 -0.1274
  489MOL0     C67357   2.845   7.242   6.193  0.2346  0.2573 -0.1589
  489MOL0     C67358   2.994   7.238   6.217 -0.1767 -0.3464 -0.0318
  489MOL0     C67359   3.054   7.146   6.115 -0.4253  0.6966  0.1762
  489MOL0     C67360   3.193   7.201   6.070 -0.1914  0.0139  0.6558
  489MOL0     N67361   3.304   7.197   6.167  0.0495  0.4839 -0.3069
  489MOL0     C67362   3.439   7.195   6.142  0.6474 -0.4521 -0.2175
  489MOL0     C67363   3.498   7.195   6.264 -0.2155  0.8632 -0.1375
  489MOL0     C67364   3.643   7.203   6.295 -0.0307 -0.1804 -1.0643
  489MOL0     C67365   3.687   7.349   6.250  0.0364  0.2740  0.1358
  489MOL0     C67366   3.632   7.458   6.340  0.4732 -0.8131 -0.0068
  489MOL0     C67367   3.713   7.597   6.303 -0.3032 -0.2073  0.7783
  489MOL0     O67368   3.681   7.714   6.385  0.1179  0.1780 -0.1077
  489MOL0     C67369   3.704   7.685   6.521 -0.5812  0.2390  0.0441
  489MOL0     C67370   3.817   7.617   6.567 -0.3817 -0.2462 -0.6249
  489MOL0     C67371   3.833   7.598   6.710 -0.4156  0.6367 -0.0385
  489MOL0     C67372   3.964   7.532   6.753  0.3931  0.3979  0.3263
  489MOL0     C67373   3.729   7.630   6.799  0.3620 -0.7432 -0.1122
  489MOL0     C67374   3.733   7.590   6.944  0.4305 -0.5313 -0.1721
  489MOL0     O67375   3.797   7.478   6.981  0.1376 -0.3643  0.3947
  489MOL0     C67376   3.811   7.446   7.109  0.2607 -0.6688 -0.9380
  489MOL0     C67377   3.708   7.436   7.205 -0.1314 -0.5039 -0.0798
  489MOL0     C67378   3.736   7.401   7.340  0.4446  0.8549 -0.4401
  489MOL0     C67379   3.866   7.380   7.383  0.0349  0.7752  0.0070
  489MOL0     O67380   3.903   7.347   7.512  0.3228 -1.1625 -0.2027
  489MOL0     C67381   3.815   7.372   7.633  0.0288  0.0246  0.2795
  489MOL0     C67382   3.893   7.379   7.759 -1.0367 -0.3698  0.0941
  489MOL0     C67383   3.985   7.258   7.775  0.9417 -0.0496  0.5144
  489MOL0     C67384   4.034   7.257   7.921  0.3925 -0.2046  0.5974
  489MOL0     C67385   4.118   7.128   7.939  0.3396  0.2284 -0.4176
  489MOL0     C67386   4.244   7.120   7.862 -0.0393 -0.2639 -0.4078
  489MOL0     C67387   4.328   6.994   7.892  0.5394  0.7306  0.2956
  489MOL0     C67388   4.439   6.951   7.795 -0.9308  0.0099  0.9629
  489MOL0    Cl67389   4.396   6.968   7.621 -0.4070 -0.0523  0.5323
  489MOL0     C67390   3.973   7.393   7.288 -0.5224 -1.0078 -0.3971
  489MOL0     C67391   3.938   7.423   7.160 -0.1397  0.3034  0.5597
  489MOL0     O67392   3.674   7.662   7.026 -1.0831 -0.0281  0.1547
  489MOL0     C67393   3.615   7.686   6.750  0.0807  0.5137  0.0496
  489MOL0     C67394   3.605   7.720   6.619 -0.1341 -0.3474  0.2658
  489MOL0     N67395   3.400   7.193   6.364 -1.0885 -0.2872 -0.1867
  489MOL0     N67396   3.287   7.181   6.302  0.1008 -0.4629 -0.6655
  489MOL0     C67397   2.166   7.226   6.422  0.0050 -0.0785 -0.5178
  489MOL0     C67398   2.035   7.182   6.386  0.4970 -0.1424 -1.0072
  489MOL0     C67399   1.594   7.196   6.359  0.3458  1.2908 -1.2135
  489MOL0     C67400   1.597   7.076   6.279  0.2794 -0.1811 -0.1936
  489MOL0     C67401   1.483   7.001   6.252  0.4321  0.5982 -0.5681
  489MOL0     C67402   1.360   7.033   6.313  0.5168  0.5206  0.1616
  489MOL0     O67403   1.250   6.947   6.327  0.1732 -0.2800  0.1853
  489MOL0     C67404   1.205   6.865   6.217  0.4925 -1.0900 -0.4669
  489MOL0     C67405   1.078   6.794   6.261 -0.8224  0.3756 -0.1437
  489MOL0     C67406   0.983   6.892   6.323 -0.6912  0.0167  0.7350
  489MOL0     C67407   0.835   6.858   6.318  0.2563  0.5061  0.3778
  489MOL0     C67408   0.792   6.871   6.173 -0.0644  0.3744 -0.1203
  489MOL0     C67409   0.741   6.878   6.064 -0.3588 -0.2479 -0.1741
  489MOL0     C67410   1.360   7.146   6.391  0.5611 -0.2921 -0.0722
  489MOL0     C67411   1.470   7.226   6.418  0.3439 -0.9141 -0.1828
  489MOL0     C67412   1.448   7.347   6.504 -0.2526  0.1043  0.4033
  489MOL0     H67413   1.950   7.449   6.201  1.6532  1.1529 -0.4150
  489MOL0     H67414   2.190   7.502   6.235  1.5493 -1.1482  0.0077
  489MOL0     H67415   2.377   7.578   6.355 -0.0548  0.3828 -0.8115
  489MOL0     H67416   2.385   7.474   6.225 -1.7457  1.1219  0.7108
  489MOL0     H67417   2.604   7.554   6.310  1.6035 -1.7605  0.9256
  489MOL0     H67418   2.574   7.465   6.463 -0.9378 -0.6062  0.1102
  489MOL0     H67419   2.589   7.257   6.338 -0.9875  1.0286  0.7081
  489MOL0     H67420   2.605   7.344   6.179  1.6311 -2.0774  0.4502
  489MOL0     H67421   2.819   7.435   6.280 -1.7187  1.4720  3.8567
  489MOL0     H67422   2.806   7.304   6.398  2.4632  2.6104  0.4160
  489MOL0     H67423   2.828   7.270   6.089  2.8199 -0.5921 -0.9040
  489MOL0     H67424   2.796   7.145   6.201 -0.7771  0.8531  1.3087
  489MOL0     H67425   3.039   7.337   6.216 -1.0417  0.0804 -2.1904
  489MOL0     H67426   3.003   7.196   6.317  1.4282  2.3640  1.0594
  489MOL0     H67427   2.988   7.123   6.031  0.6222  0.4609 -0.6075
  489MOL0     H67428   3.075   7.045   6.154  2.6601  0.6172 -1.3579
  489MOL0     H67429   3.225   7.141   5.984 -0.9944  0.7139 -0.1574
  489MOL0     H67430   3.188   7.308   6.046 -0.7882 -0.2390 -0.4378
  489MOL0     H67431   3.478   7.201   6.042 -0.3635  1.0766 -0.5587
  489MOL0     H67432   3.701   7.128   6.241 -0.5661  0.8536 -3.1845
  489MOL0     H67433   3.674   7.182   6.398  1.3852 -0.4789 -1.5282
  489MOL0     H67434   3.795   7.364   6.251 -0.1985  2.3292  1.3891
  489MOL0     H67435   3.644   7.372   6.152 -0.3768  2.7547  0.8111
  489MOL0     H67436   3.527   7.475   6.316 -0.0076 -3.6746 -0.3284
  489MOL0     H67437   3.635   7.439   6.447 -2.4032  1.4291  0.5854
  489MOL0     H67438   3.815   7.561   6.319 -0.1690  0.1548  0.7467
  489MOL0     H67439   3.696   7.615   6.197  1.3470  0.3391  0.5646
  489MOL0     H67440   3.893   7.595   6.492 -0.0164  2.6889 -1.2080
  489MOL0     H67441   3.951   7.424   6.763 -0.8043  0.5447  0.4976
  489MOL0     H67442   3.989   7.571   6.852 -2.0014  0.6090  0.9052
  489MOL0     H67443   4.050   7.552   6.688 -0.0735  1.2953 -0.0427
  489MOL0     H67444   3.603   7.445   7.179 -0.0701  1.5346  0.1989
  489MOL0     H67445   3.650   7.390   7.405 -0.7106  0.9753 -1.8780
  489MOL0     H67446   3.756   7.464   7.629 -0.6068 -0.3806 -3.1693
  489MOL0     H67447   3.736   7.296   7.634 -0.0491  0.1054  1.3280
  489MOL0     H67448   3.966   7.460   7.747 -1.5481 -0.0017 -0.5991
  489MOL0     H67449   3.826   7.398   7.843 -0.9322 -2.3601  0.6817
  489MOL0     H67450   4.066   7.285   7.708 -1.9815  1.4557 -2.7205
  489MOL0     H67451   3.946   7.160   7.749  0.3788 -0.3281  2.2433
  489MOL0     H67452   3.949   7.249   7.989  0.3583  0.9820  0.7166
  489MOL0     H67453   4.094   7.347   7.940  1.0931  0.7279 -4.5219
  489MOL0     H67454   4.147   7.117   8.043 -0.0674 -1.9079 -0.4960
  489MOL0     H67455   4.050   7.044   7.921  0.8661 -0.9588  2.6180
  489MOL0     H67456   4.302   7.211   7.882 -0.2752 -0.1531 -0.2320
  489MOL0     H67457   4.226   7.125   7.754 -1.0711 -1.3945 -0.3072
  489MOL0     H67458   4.251   6.916   7.893  0.8770  0.3876  1.5148
  489MOL0     H67459   4.372   7.011   7.991 -0.4836  1.7997  0.5910
  489MOL0     H67460   4.463   6.847   7.818  0.5837 -0.4369 -2.0766
  489MOL0     H67461   4.524   7.018   7.813  1.1525 -1.7986 -1.4336
  489MOL0     H67462   4.077   7.374   7.311 -0.1721 -0.0002 -1.1095
  489MOL0     H67463   4.028   7.428   7.100  1.2160 -2.3270  2.2080
  489MOL0     H67464   3.526   7.718   6.804 -0.9472 -1.2335 -0.4955
  489MOL0     H67465   3.518   7.781   6.596  1.2150  1.7502  0.5682
  489MOL0     H67466   2.219   7.170   6.498 -0.6835  1.1465  0.9216
  489MOL0     H67467   1.995   7.095   6.436 -0.2016  0.4670 -0.4801
  489MOL0     H67468   1.685   7.044   6.225  0.3870  2.2272 -1.5451
  489MOL0     H67469   1.480   6.908   6.196 -1.6282 -0.5899  1.3250
  489MOL0     H67470   1.175   6.930   6.135 -1.5532 -0.3479  0.7902
  489MOL0     H67471   1.288   6.804   6.182  2.0332 -0.4586  1.8301
  489MOL0     H67472   1.108   6.713   6.328 -0.9493 -1.4724 -2.1765
  489MOL0     H67473   1.043   6.743   6.170 -1.3658 -2.2946  1.4595
  489MOL0     H67474   0.997   6.904   6.431 -2.0212  0.2738  0.8901
  489MOL0     H67475   0.986   6.991   6.279 -3.0458 -0.8782 -1.6921
  489MOL0     H67476   0.789   6.938   6.375  0.8271  0.7814  0.4548
  489MOL0     H67477   0.806   6.758   6.352  3.4068 -1.4055 -2.0227
  489MOL0     H67478   0.705   6.894   5.964 -1.5195 -2.6151 -0.2074
  489MOL0     H67479   1.264   7.175   6.432  0.5142  2.7876 -2.0407
  489MOL0     H67480   1.518   7.337   6.587 -1.2834 -1.5324  1.1192
  489MOL0     H67481   1.472   7.438   6.449 -1.7828 -0.7513 -1.8454
  489MOL0     H67482   1.341   7.352   6.526 -0.4366 -0.5137 -0.3186
  490MOL0     O67483   1.285   5.478   2.764 -0.6915 -0.3935  0.5206
  490MOL0     C67484   1.164   5.441   2.745 -0.1200 -0.7573 -0.2028
  490MOL0     O67485   1.126   5.310   2.717 -0.2765  0.9230 -0.5267
  490MOL0     C67486   1.235   5.220   2.702  0.1161 -0.8497  0.9544
  490MOL0     C67487   1.226   5.100   2.758 -0.9373 -0.2715 -0.8158
  490MOL0     C67488   1.317   4.998   2.734 -0.7883  0.7782 -1.0011
  490MOL0     C67489   1.431   5.022   2.649  1.0353  0.8297  0.7194
  490MOL0     O67490   1.534   4.936   2.622 -0.7230  0.0358  0.0383
  490MOL0     C67491   1.537   4.799   2.670 -0.3120  0.2933 -0.4433
  490MOL0     C67492   1.686   4.757   2.690 -0.3863  0.5681 -0.6655
  490MOL0     C67493   1.766   4.735   2.566 -0.2183 -0.4530 -0.2846
  490MOL0     C67494   1.891   4.653   2.587  0.2948 -0.0011 -1.5916
  490MOL0     C67495   1.984   4.644   2.469 -0.5631 -0.5858 -0.3546
  490MOL0     C67496   2.085   4.516   2.486  0.8098 -0.5638 -0.4292
  490MOL0     C67497   2.204   4.511   2.394 -0.0639  0.1506 -0.2367
  490MOL0     C67498   2.318   4.603   2.445 -0.4511  0.8622 -0.8678
  490MOL0     N67499   2.397   4.533   2.544 -0.0158 -0.0022 -0.0343
  490MOL0     C67500   2.518   4.484   2.512 -0.3930 -0.3249 -0.3311
  490MOL0     C67501   2.569   4.442   2.629 -0.0180 -0.8545 -1.3473
  490MOL0     C67502   2.709   4.388   2.668  0.2109 -0.7726  0.4726
  490MOL0     C67503   2.809   4.502   2.675 -0.3151  0.3727 -0.3478
  490MOL0     C67504   2.833   4.566   2.533  0.8353 -0.5816 -0.3714
  490MOL0     C67505   2.965   4.639   2.524  0.0531  0.2465 -0.8511
  490MOL0     O67506   3.060   4.544   2.474  0.6148 -0.0826 -0.1484
  490MOL0     C67507   3.192   4.581   2.481 -0.4014 -0.4163 -0.4657
  490MOL0     C67508   3.284   4.480   2.507 -0.8278  0.0564  0.0508
  490MOL0     C67509   3.427   4.500   2.506  0.4162  0.1452  0.2918
  490MOL0     C67510   3.508   4.385   2.550 -0.4919 -0.3578 -0.1067
  490MOL0     C67511   3.472   4.627   2.476  0.4311 -0.1243  0.0932
  490MOL0     C67512   3.611   4.650   2.473  0.2915  0.1568  0.4177
  490MOL0     O67513   3.679   4.672   2.349  0.1976  0.2224  0.2116
  490MOL0     C67514   3.817   4.658   2.358  0.6024  0.3297  0.4644
  490MOL0     C67515   3.885   4.776   2.320 -1.8733  0.8290  0.0718
  490MOL0     C67516   4.022   4.770   2.291 -0.0551  0.8067 -0.0402
  490MOL0     C67517   4.091   4.645   2.316  0.1022 -0.2284 -0.0423
  490MOL0     O67518   4.224   4.625   2.278 -0.6564  0.2021  0.3833
  490MOL0     C67519   4.303   4.741   2.261 -0.7790  0.6024 -0.6068
  490MOL0     C67520   4.452   4.729   2.238 -0.5924  0.2971  0.4300
  490MOL0     C67521   4.510   4.623   2.339 -0.7190  0.5275  0.6118
  490MOL0     C67522   4.670   4.603   2.322 -0.3146 -0.5751  0.5665
  490MOL0     C67523   4.740   4.511   2.425  0.0971 -0.7040  0.7075
  490MOL0     C67524   4.884   4.473   2.386  0.8513  0.1512  0.3411
  490MOL0     C67525   4.937   4.362   2.470 -0.6910 -0.1778  1.0019
  490MOL0     C67526   5.079   4.397   2.509 -0.9342 -1.1748 -0.3233
  490MOL0    Cl67527   5.205   4.389   2.381 -0.0854 -0.1744  0.0298
  490MOL0     C67528   4.021   4.531   2.347 -0.9975 -0.2142 -0.1094
  490MOL0     C67529   3.888   4.538   2.370 -0.2917  0.5897 -0.3384
  490MOL0     O67530   3.663   4.625   2.580 -0.3042  0.1381 -0.9477
  490MOL0     C67531   3.385   4.727   2.456  0.3720  0.0391  0.3323
  490MOL0     C67532   3.244   4.707   2.456  0.0558  0.0950 -0.3397
  490MOL0     N67533   2.464   4.450   2.723  0.4334  0.1837 -0.3122
  490MOL0     N67534   2.360   4.496   2.669 -0.2992  0.0729 -0.7879
  490MOL0     C67535   1.441   5.151   2.588 -0.1073  0.8501 -0.0186
  490MOL0     C67536   1.338   5.246   2.602 -0.1930  0.1698 -0.2354
  490MOL0     C67537   1.056   5.538   2.754 -0.0962 -0.2607  0.0155
  490MOL0     C67538   0.926   5.497   2.721 -0.9455  0.0035  0.1234
  490MOL0     C67539   0.814   5.584   2.736 -0.0127 -0.7380  0.0146
  490MOL0     C67540   0.837   5.714   2.805  0.8282  0.4211  0.2343
  490MOL0     O67541   0.731   5.800   2.825  0.5739  0.6263 -0.1364
  490MOL0     C67542   0.592   5.746   2.827 -0.6236 -0.2300 -0.1027
  490MOL0     C67543   0.492   5.823   2.736 -1.0311  0.4947  1.2434
  490MOL0     C67544   0.490   5.968   2.766  0.9303 -0.2409 -0.2763
  490MOL0     C67545   0.578   6.044   2.677 -0.9846 -0.2211 -0.2954
  490MOL0     C67546   0.578   6.176   2.730 -0.0797 -0.6300 -0.8436
  490MOL0     C67547   0.593   6.295   2.755  0.4032  0.3019  0.3657
  490MOL0     C67548   0.958   5.744   2.840  0.1004  0.3736 -0.1258
  490MOL0     C67549   1.068   5.662   2.827 -0.3720  0.7548  1.0459
  490MOL0     C67550   1.201   5.722   2.879 -0.3442  0.7797  0.2776
  490MOL0     H67551   1.150   5.081   2.833  1.1184 -0.1881  1.4299
  490MOL0     H67552   1.306   4.908   2.794 -2.2789  2.0129  0.6879
  490MOL0     H67553   1.482   4.737   2.599  1.0511  0.2540 -1.5093
  490MOL0     H67554   1.487   4.794   2.767  1.0912  3.1758  0.5474
  490MOL0     H67555   1.733   4.833   2.755 -1.9018 -0.7584  2.1814
  490MOL0     H67556   1.692   4.667   2.752 -0.1874  0.7126 -0.4695
  490MOL0     H67557   1.705   4.672   2.501  1.4980 -0.5460 -1.8729
  490MOL0     H67558   1.804   4.823   2.514  1.8828 -2.3663 -2.2381
  490MOL0     H67559   1.944   4.691   2.674  0.9729  0.1014 -2.0457
  490MOL0     H67560   1.866   4.548   2.605  0.1695  0.3648  0.6106
  490MOL0     H67561   2.029   4.743   2.466 -0.2711 -0.7180 -0.3506
  490MOL0     H67562   1.920   4.627   2.382 -1.0034  1.3608 -0.4611
  490MOL0     H67563   2.125   4.502   2.587 -0.5581 -4.2639 -0.2555
  490MOL0     H67564   2.029   4.423   2.477 -2.0613  0.5096  3.4433
  490MOL0     H67565   2.174   4.550   2.297  0.7568  3.1023  0.5705
  490MOL0     H67566   2.252   4.413   2.389  2.7264  1.3433  0.8264
  490MOL0     H67567   2.378   4.624   2.356  2.4181  0.4953  0.8605
  490MOL0     H67568   2.282   4.694   2.494  2.2715  1.5173  0.1179
  490MOL0     H67569   2.576   4.496   2.421  1.7130 -2.6636  0.5904
  490MOL0     H67570   2.730   4.322   2.583  0.0216 -1.3645  0.8813
  490MOL0     H67571   2.720   4.323   2.755  4.2599 -1.4841 -0.3353
  490MOL0     H67572   2.770   4.579   2.743  2.2701  0.4001  1.2576
  490MOL0     H67573   2.899   4.460   2.720 -0.7071  2.1435  2.3507
  490MOL0     H67574   2.818   4.496   2.451 -1.0194  0.4453 -0.9619
  490MOL0     H67575   2.754   4.640   2.517  2.4222  0.4374 -4.8359
  490MOL0     H67576   2.953   4.719   2.450  0.9323  0.4034 -0.8333
  490MOL0     H67577   2.998   4.694   2.612  0.8429 -0.0285 -0.9658
  490MOL0     H67578   3.241   4.389   2.548 -0.0347  1.0388  3.3741
  490MOL0     H67579   3.528   4.375   2.657  1.4048 -2.7764 -0.5913
  490MOL0     H67580   3.608   4.379   2.505 -0.6248 -1.1148 -0.3073
  490MOL0     H67581   3.458   4.294   2.517 -0.5883  0.2650 -1.7896
  490MOL0     H67582   3.822   4.864   2.308 -1.6336  0.7579 -2.1756
  490MOL0     H67583   4.074   4.858   2.255  0.6376  0.6017  0.4522
  490MOL0     H67584   4.258   4.795   2.177 -3.4894  0.9649  0.9672
  490MOL0     H67585   4.293   4.808   2.347  2.1426 -0.5827  0.7784
  490MOL0     H67586   4.478   4.700   2.136  0.5750 -0.2705  0.8731
  490MOL0     H67587   4.503   4.820   2.271  2.3609 -1.4681  1.1372
  490MOL0     H67588   4.460   4.528   2.318 -1.2661  1.1152 -0.9232
  490MOL0     H67589   4.493   4.643   2.445  0.4249  0.8939  0.7462
  490MOL0     H67590   4.709   4.705   2.325  3.9451 -1.8188 -2.9776
  490MOL0     H67591   4.676   4.573   2.217  0.9657 -1.5548  0.8957
  490MOL0     H67592   4.749   4.557   2.524 -2.4096 -3.0971  2.1991
  490MOL0     H67593   4.694   4.412   2.437 -1.0163  0.0497  3.2944
  490MOL0     H67594   4.939   4.568   2.388 -0.6993  1.0685  1.7412
  490MOL0     H67595   4.878   4.450   2.279 -0.6346  2.2806 -0.1037
  490MOL0     H67596   4.934   4.268   2.416 -3.7100 -1.2311  2.7682
  490MOL0     H67597   4.874   4.351   2.559 -3.1498  0.9066 -0.5111
  490MOL0     H67598   5.105   4.336   2.596 -0.3395  0.2028  0.4867
  490MOL0     H67599   5.082   4.499   2.548  0.1392 -1.3180 -0.0010
  490MOL0     H67600   4.084   4.442   2.347 -0.1394  0.3395  1.8736
  490MOL0     H67601   3.840   4.442   2.391  1.1338 -0.0756 -0.0092
  490MOL0     H67602   3.409   4.828   2.424  0.5714  0.0708  0.5770
  490MOL0     H67603   3.183   4.788   2.418 -1.1051 -0.1943  0.8569
  490MOL0     H67604   1.539   5.175   2.549  0.7192 -0.1702  1.3026
  490MOL0     H67605   1.364   5.340   2.555  0.2998  1.4164  2.3666
  490MOL0     H67606   0.904   5.393   2.696  0.6201 -0.4010  0.3812
  490MOL0     H67607   0.713   5.562   2.702 -1.4148  1.6004  2.3397
  490MOL0     H67608   0.582   5.638   2.811  1.9830 -0.3757 -1.3791
  490MOL0     H67609   0.565   5.770   2.930  1.3305  3.1209 -0.2162
  490MOL0     H67610   0.392   5.780   2.743 -2.0638  1.4279 -3.8076
  490MOL0     H67611   0.505   5.805   2.629 -0.1042 -2.0357  1.7205
  490MOL0     H67612   0.385   5.996   2.753  0.4498 -2.9959 -3.9339
  490MOL0     H67613   0.513   5.979   2.872 -2.0210  0.2853  0.4097
  490MOL0     H67614   0.560   6.037   2.569  1.0073 -2.8240 -0.5499
  490MOL0     H67615   0.673   5.991   2.687 -1.3084 -1.1257 -1.7169
  490MOL0     H67616   0.613   6.400   2.757  0.9324  0.1940  1.3659
  490MOL0     H67617   0.955   5.845   2.879  1.8752  0.5893 -0.4575
  490MOL0     H67618   1.180   5.819   2.924 -0.8015  0.3696  0.9735
  490MOL0     H67619   1.229   5.647   2.954  1.1408 -2.3992 -3.1293
  490MOL0     H67620   1.276   5.733   2.800  0.3237  1.7770  1.0300
  491MOL0     O67621   4.872   8.271   5.852  0.5561 -0.3911 -0.0694
  491MOL0     C67622   4.802   8.283   5.952  0.1530  0.4700  0.1457
  491MOL0     O67623   4.801   8.395   6.040  0.5064 -0.6977  0.2542
  491MOL0     C67624   4.898   8.493   6.029  0.8500  1.2925  0.2522
  491MOL0     C67625   5.029   8.463   6.058 -0.3481  0.5775 -0.8814
  491MOL0     C67626   5.124   8.568   6.062 -0.4301  0.4245  0.0798
  491MOL0     C67627   5.085   8.703   6.038  0.1454  0.3008  0.1854
  491MOL0     O67628   5.173   8.810   6.037  0.4059 -0.1395  0.2944
  491MOL0     C67629   5.296   8.811   6.104 -0.5855  0.9734  0.0645
  491MOL0     C67630   5.343   8.952   6.135  0.1857  0.5783  0.3744
  491MOL0     C67631   5.473   8.954   6.219 -0.5746  0.1989 -0.2919
  491MOL0     C67632   5.580   9.062   6.170  0.1216  0.7261  0.8264
  491MOL0     C67633   5.558   9.188   6.243 -0.3675  0.4331  0.0123
  491MOL0     C67634   5.665   9.294   6.209  0.2169  0.2546 -0.1639
  491MOL0     C67635   5.805   9.265   6.267  0.7146 -0.1332 -0.3951
  491MOL0     C67636   5.806   9.255   6.424  0.5769 -0.1421  0.7907
  491MOL0     N67637   5.940   9.239   6.483  0.4938 -0.3142  0.5346
  491MOL0     C67638   6.047   9.169   6.432 -0.1318  0.0124  0.7709
  491MOL0     C67639   6.125   9.152   6.535 -0.4956  0.6806  0.9698
  491MOL0     C67640   6.256   9.080   6.556 -0.0912  0.2349  0.9984
  491MOL0     C67641   6.367   9.150   6.629 -0.0407 -0.4001  0.3060
  491MOL0     C67642   6.404   9.279   6.564  0.5955 -0.7467  1.2655
  491MOL0     C67643   6.520   9.359   6.612  0.0205  0.0897 -0.1473
  491MOL0     O67644   6.635   9.277   6.625 -1.1763 -0.0172  0.8438
  491MOL0     C67645   6.753   9.324   6.676 -0.3842 -0.1750 -0.0112
  491MOL0     C67646   6.867   9.234   6.685 -0.6443  0.1942  1.2537
  491MOL0     C67647   6.989   9.277   6.733 -0.8074 -0.2260 -0.3970
  491MOL0     C67648   7.107   9.189   6.717  0.1825 -0.7549  0.0394
  491MOL0     C67649   7.007   9.407   6.789  0.3188 -0.1701 -0.2549
  491MOL0     C67650   7.127   9.474   6.829 -0.6454 -0.1940 -0.8831
  491MOL0     O67651   7.148   9.599   6.791 -0.4013 -0.1912 -1.5428
  491MOL0     C67652   7.266   9.658   6.829 -0.0585  0.2553 -1.1437
  491MOL0     C67653   7.274   9.762   6.929 -0.6035  0.8376 -0.2336
  491MOL0     C67654   7.396   9.828   6.960 -0.0067 -0.2082 -0.2450
  491MOL0     C67655   7.509   9.804   6.891  0.1550 -0.0483  0.1842
  491MOL0     O67656   7.623   9.880   6.926 -0.0149 -0.3451  0.3321
  491MOL0     C67657   7.743   9.865   6.847 -0.4916  0.7349 -0.2684
  491MOL0     C67658   7.754   9.951   6.719  0.1200  1.3429  0.7892
  491MOL0     C67659   7.896   9.977   6.648  0.3238 -0.8730 -0.5280
  491MOL0     C67660   7.975   9.844   6.626  0.2785 -1.6101  0.1318
  491MOL0     C67661   8.122   9.883   6.579 -0.2875 -0.0659  0.2310
  491MOL0     C67662   8.135   9.966   6.447  0.3424 -0.7210 -0.3358
  491MOL0     C67663   8.070   9.892   6.327  0.2899  0.1841  0.1957
  491MOL0     C67664   8.108   9.938   6.187  0.3706 -0.5680  0.3510
  491MOL0    Cl67665   8.047  10.104   6.174 -0.3535  0.4343 -0.0624
  491MOL0     C67666   7.505   9.700   6.793 -0.7333  0.1528 -1.4345
  491MOL0     C67667   7.390   9.616   6.771 -0.5363 -0.5771 -0.3240
  491MOL0     O67668   7.201   9.400   6.892  0.3411 -0.1425 -0.9564
  491MOL0     C67669   6.893   9.494   6.780  0.1410  0.1906 -0.7606
  491MOL0     C67670   6.772   9.455   6.721  0.0798  0.3711  0.9683
  491MOL0     N67671   6.070   9.216   6.643 -0.1655 -0.3207 -0.5335
  491MOL0     N67672   5.957   9.276   6.611  0.1379  0.6889 -0.0384
  491MOL0     C67673   4.955   8.725   6.007 -0.3111  0.8116  0.5047
  491MOL0     C67674   4.859   8.622   6.004 -0.2400  0.4611  0.1975
  491MOL0     C67675   4.716   8.172   5.993  0.4452  0.2138 -0.1897
  491MOL0     C67676   4.639   8.195   6.105 -0.0185  0.4671 -0.6768
  491MOL0     C67677   4.556   8.103   6.158 -0.1807  0.7609 -0.6058
  491MOL0     C67678   4.523   7.986   6.094  2.2046  0.2673  0.2141
  491MOL0     O67679   4.418   7.915   6.149  0.3888 -0.0176  0.1596
  491MOL0     C67680   4.400   7.781   6.093 -0.3091  0.0107 -0.1787
  491MOL0     C67681   4.493   7.688   6.168 -0.3678  0.5621 -0.4117
  491MOL0     C67682   4.462   7.540   6.119  0.5283 -0.1462 -0.5591
  491MOL0     C67683   4.533   7.430   6.194  0.0282 -0.6637 -0.6394
  491MOL0     C67684   4.485   7.301   6.157  0.0724  1.1135 -0.6885
  491MOL0     C67685   4.447   7.201   6.110 -0.0692 -0.0193  0.2371
  491MOL0     C67686   4.594   7.954   5.981 -0.1501  0.2371  0.4545
  491MOL0     C67687   4.702   8.044   5.933  0.1413  0.5312  0.5874
  491MOL0     C67688   4.792   7.994   5.823  0.6570 -0.2995  0.9385
  491MOL0     H67689   5.058   8.360   6.075 -2.1253 -0.0289 -1.3391
  491MOL0     H67690   5.227   8.537   6.078 -0.4681  0.2501 -0.0090
  491MOL0     H67691   5.365   8.763   6.034 -0.5014 -0.7102  1.2380
  491MOL0     H67692   5.287   8.751   6.195 -1.4153  0.2991 -0.4413
  491MOL0     H67693   5.355   9.010   6.043 -1.6363 -1.6480 -1.3777
  491MOL0     H67694   5.271   9.007   6.196 -3.6249 -2.9670 -0.4661
  491MOL0     H67695   5.451   8.972   6.324  0.9754 -0.3104  0.1502
  491MOL0     H67696   5.520   8.856   6.211  1.4902  1.1203 -0.0992
  491MOL0     H67697   5.678   9.021   6.194 -0.9380 -0.2261  3.8835
  491MOL0     H67698   5.582   9.078   6.061  0.9349  0.0802  0.7353
  491MOL0     H67699   5.563   9.173   6.351 -0.4631  0.8974  0.0833
  491MOL0     H67700   5.461   9.234   6.220  1.4078  3.5032 -2.0043
  491MOL0     H67701   5.677   9.303   6.100 -1.0232 -1.5388 -0.4865
  491MOL0     H67702   5.633   9.390   6.252  1.9576  1.2184 -0.8854
  491MOL0     H67703   5.875   9.343   6.235 -0.8573  0.7497 -1.8722
  491MOL0     H67704   5.842   9.172   6.222 -0.3606 -1.1610  0.7640
  491MOL0     H67705   5.757   9.344   6.464 -0.2933 -0.9511  1.5833
  491MOL0     H67706   5.750   9.166   6.454 -0.5846  0.7990  1.5024
  491MOL0     H67707   6.064   9.133   6.331 -0.7688 -0.8326  0.9571
  491MOL0     H67708   6.295   9.064   6.455  0.9925  2.5974  0.9785
  491MOL0     H67709   6.247   8.977   6.592  1.6360 -0.9392 -1.6779
  491MOL0     H67710   6.330   9.169   6.730 -0.2138 -0.9993  0.3602
  491MOL0     H67711   6.442   9.071   6.618  1.1132  0.7147 -0.0012
  491MOL0     H67712   6.423   9.263   6.457 -3.9936  2.0885 -0.2977
  491MOL0     H67713   6.317   9.345   6.575 -0.7176 -1.6908 -2.0336
  491MOL0     H67714   6.547   9.454   6.565  0.2829  0.0459 -0.0890
  491MOL0     H67715   6.485   9.378   6.714 -1.4562 -1.4784 -0.3145
  491MOL0     H67716   6.851   9.139   6.636  2.2752  1.6032 -2.9957
  491MOL0     H67717   7.074   9.123   6.636 -0.7562  2.2799 -2.2299
  491MOL0     H67718   7.135   9.136   6.809  0.5351 -3.8443 -1.7200
  491MOL0     H67719   7.194   9.239   6.674 -1.1739 -2.3509 -5.3693
  491MOL0     H67720   7.187   9.787   6.990 -0.0567  0.7608  0.5955
  491MOL0     H67721   7.393   9.897   7.044  0.9957 -0.9125  0.3831
  491MOL0     H67722   7.811   9.903   6.924 -1.4253 -0.4975  1.2217
  491MOL0     H67723   7.767   9.762   6.818  1.9284  1.8276 -2.6305
  491MOL0     H67724   7.684   9.920   6.640 -0.6903  3.9319  0.3905
  491MOL0     H67725   7.720  10.050   6.751  1.2369  1.2873  2.2425
  491MOL0     H67726   7.945  10.059   6.701 -2.2166  0.7871 -0.5912
  491MOL0     H67727   7.867  10.024   6.553 -4.0294  0.5504  1.2389
  491MOL0     H67728   7.919   9.780   6.558 -1.9778 -1.0299  1.3457
  491MOL0     H67729   7.985   9.794   6.724  0.6462  1.1345  1.5841
  491MOL0     H67730   8.156   9.953   6.656 -1.3809  0.3718  0.3332
  491MOL0     H67731   8.184   9.794   6.565  2.6453  1.9078 -0.0834
  491MOL0     H67732   8.240   9.977   6.420  0.1408  0.2181 -0.7764
  491MOL0     H67733   8.081  10.059   6.467 -2.2061 -1.9531 -0.9733
  491MOL0     H67734   7.961   9.902   6.325 -0.0030 -2.3930 -0.0591
  491MOL0     H67735   8.091   9.785   6.334  0.9596  0.3287  0.4857
  491MOL0     H67736   8.062   9.875   6.111 -0.1019 -1.7888  1.6161
  491MOL0     H67737   8.217   9.941   6.172  0.3123  1.4349  0.0520
  491MOL0     H67738   7.596   9.674   6.741  0.3790 -2.0922  1.3325
  491MOL0     H67739   7.403   9.523   6.717 -0.5440 -0.5624 -0.3521
  491MOL0     H67740   6.902   9.600   6.804 -2.0333  0.4056 -0.7192
  491MOL0     H67741   6.701   9.535   6.702 -0.2310 -0.0836  0.1561
  491MOL0     H67742   4.925   8.829   6.001  0.9812  1.1205 -2.1748
  491MOL0     H67743   4.758   8.652   5.979 -0.2807  0.1457 -0.0133
  491MOL0     H67744   4.632   8.281   6.171  1.5361  1.2761 -1.5161
  491MOL0     H67745   4.520   8.133   6.256  5.3922  0.9272  1.7650
  491MOL0     H67746   4.298   7.746   6.109 -1.0531  1.5443 -1.3067
  491MOL0     H67747   4.408   7.768   5.984 -3.2283 -2.8723 -0.2014
  491MOL0     H67748   4.479   7.703   6.275 -1.1499 -1.1650 -0.2470
  491MOL0     H67749   4.595   7.714   6.139 -0.1552 -2.5003 -2.9562
  491MOL0     H67750   4.354   7.520   6.123  0.1654  1.8332  1.0893
  491MOL0     H67751   4.491   7.535   6.014 -0.8038 -0.7883 -0.9227
  491MOL0     H67752   4.519   7.445   6.301  3.0997  0.9916 -0.3460
  491MOL0     H67753   4.640   7.439   6.173  0.3490  0.0408  1.1340
  491MOL0     H67754   4.416   7.112   6.060  1.1624 -1.2495  1.5939
  491MOL0     H67755   4.599   7.865   5.919  4.2809 -0.1060  0.9750
  491MOL0     H67756   4.783   8.065   5.740  3.4973 -2.8927 -1.8237
  491MOL0     H67757   4.895   8.006   5.857  0.9805  0.6343 -0.2944
  491MOL0     H67758   4.765   7.898   5.779  1.0049  0.7609 -1.8023
  492MOL0     O67759   4.560   0.487  10.188  0.3999  0.1519  0.5063
  492MOL0     C67760   4.594   0.413  10.099 -0.0730 -0.2869 -1.3321
  492MOL0     O67761   4.667   0.298  10.118  0.8644  0.1503 -0.2578
  492MOL0     C67762   4.704   0.253  10.238 -0.2744  0.0393 -0.2722
  492MOL0     C67763   4.833   0.223  10.255 -0.6768 -0.4253  0.2127
  492MOL0     C67764   4.878   0.176  10.373 -0.3912  0.6263 -0.3574
  492MOL0     C67765   4.792   0.137  10.471 -0.4223 -0.5042 -0.9225
  492MOL0     O67766   4.827   0.072  10.585  0.1682  0.3481  0.1460
  492MOL0     C67767   4.935   0.127  10.666  0.5833  1.0036  0.3895
  492MOL0     C67768   4.898   0.100  10.816  0.5930 -0.0054 -0.4875
  492MOL0     C67769   4.776   0.188  10.847 -0.1818  0.9527 -0.5113
  492MOL0     C67770   4.739   0.180  10.997 -0.1608  0.2345 -0.2362
  492MOL0     C67771   4.593   0.217  11.031  0.3231 -0.2304  1.2787
  492MOL0     C67772   4.554   0.166  11.168  0.1916 -0.6874 -0.5449
  492MOL0     C67773   4.646   0.222  11.290 -0.3058  0.1077 -0.2098
  492MOL0     C67774   4.615   0.155  11.418  0.6966 -0.1267 -0.0349
  492MOL0     N67775   4.676   0.241  11.528  0.5001  0.3622  0.6538
  492MOL0     C67776   4.617   0.275  11.645 -0.6608 -0.3110 -0.4652
  492MOL0     C67777   4.705   0.353  11.714  0.5372  0.7262 -0.6542
  492MOL0     C67778   4.705   0.394  11.868  0.9252  0.4855  0.8136
  492MOL0     C67779   4.753   0.285  11.965 -0.0804  0.7072  0.2123
  492MOL0     C67780   4.901   0.265  11.972 -0.2135  0.0572  0.5923
  492MOL0     C67781   4.946   0.147  12.056  0.4333 -0.1465 -0.5550
  492MOL0     O67782   4.874   0.147  12.181 -0.5610  0.7302  0.3847
  492MOL0     C67783   4.919   0.059  12.280 -0.2813  0.2585  0.8126
  492MOL0     C67784   4.873   0.065  12.408 -0.5271  0.0360 -0.8480
  492MOL0     C67785   4.935  -0.007  12.513 -0.6914  0.9553  0.0941
  492MOL0     C67786   4.900   0.040  12.651  0.5558 -0.4341  0.1072
  492MOL0     C67787   5.017  -0.115  12.481 -0.4293  0.1094 -0.1025
  492MOL0     C67788   5.096  -0.188  12.585  1.1197  0.4842  0.4632
  492MOL0     O67789   5.164  -0.298  12.544  0.4599  0.4051 -0.0475
  492MOL0     C67790   5.298  -0.301  12.572  0.9801  0.9418  0.5628
  492MOL0     C67791   5.365  -0.227  12.666  0.1331  0.7122 -0.6778
  492MOL0     C67792   5.506  -0.261  12.691 -0.1097 -0.0360 -0.7069
  492MOL0     C67793   5.576  -0.354  12.614  1.2406 -0.0296  0.1388
  492MOL0     O67794   5.708  -0.392  12.624 -0.0304 -0.4201 -0.0461
  492MOL0     C67795   5.756  -0.384  12.757 -0.4210  0.2043  0.5512
  492MOL0     C67796   5.890  -0.452  12.780 -0.1506 -0.8126  0.8023
  492MOL0     C67797   6.015  -0.369  12.725  0.0827  0.5432  0.1079
  492MOL0     C67798   6.143  -0.445  12.749 -0.0444  0.6963  0.3267
  492MOL0     C67799   6.253  -0.366  12.683 -0.2003 -0.9166 -0.1364
  492MOL0     C67800   6.295  -0.236  12.750 -0.8144 -0.0424 -0.4606
  492MOL0     C67801   6.354  -0.240  12.892  0.1216  0.3625 -1.3184
  492MOL0     C67802   6.354  -0.100  12.960 -0.1163 -0.4688 -0.0731
  492MOL0    Cl67803   6.422  -0.128  13.118 -0.0181  0.5610 -0.2259
  492MOL0     C67804   5.501  -0.415  12.511 -0.6149  0.3515 -0.2122
  492MOL0     C67805   5.368  -0.393  12.495  0.9515  0.1161  0.1847
  492MOL0     O67806   5.086  -0.150  12.701 -0.4273 -0.0382 -0.1808
  492MOL0     C67807   5.049  -0.136  12.345 -0.2335  0.5117  0.6089
  492MOL0     C67808   5.006  -0.049  12.247  0.6246  0.9666 -0.4881
  492MOL0     N67809   4.816   0.368  11.624  0.1868 -0.4023 -0.6603
  492MOL0     N67810   4.796   0.299  11.510 -0.3229  0.4162 -0.1823
  492MOL0     C67811   4.656   0.168  10.462 -0.1677  0.4625  0.3822
  492MOL0     C67812   4.611   0.231  10.339  0.1662 -0.0058 -0.2016
  492MOL0     C67813   4.560   0.444   9.963  0.3180  0.4066 -0.9934
  492MOL0     C67814   4.646   0.526   9.890  0.1118 -0.1042  0.1109
  492MOL0     C67815   4.606   0.557   9.756  0.5384  0.4613  0.5092
  492MOL0     C67816   4.477   0.518   9.700  0.3409 -0.3952  0.5170
  492MOL0     O67817   4.429   0.546   9.572 -0.1531  0.7886 -0.4898
  492MOL0     C67818   4.498   0.648   9.494 -0.8161  1.0493 -0.3363
  492MOL0     C67819   4.457   0.612   9.344 -0.2693  0.9210  0.9975
  492MOL0     C67820   4.316   0.657   9.312 -0.0023  0.2110 -0.1605
  492MOL0     C67821   4.252   0.609   9.186  0.8866  0.3089 -0.1644
  492MOL0     C67822   4.131   0.696   9.156  0.3282 -0.4343 -0.0219
  492MOL0     C67823   4.033   0.755   9.146 -0.0807 -0.1324  0.8814
  492MOL0     C67824   4.396   0.446   9.786 -0.0743 -0.2790 -0.3294
  492MOL0     C67825   4.437   0.403   9.907  0.4057 -0.1756  0.0061
  492MOL0     C67826   4.342   0.318   9.985 -0.1887 -0.2934  0.1433
  492MOL0     H67827   4.905   0.246  10.177 -2.7380 -2.8257 -2.6609
  492MOL0     H67828   4.983   0.152  10.386 -0.4624  0.9501  0.9672
  492MOL0     H67829   4.941   0.234  10.645 -0.9587  1.4980  2.1721
  492MOL0     H67830   5.024   0.065  10.650 -0.3347 -0.2806  0.1484
  492MOL0     H67831   4.886  -0.008  10.827 -1.7186  0.2691  0.1929
  492MOL0     H67832   4.974   0.143  10.882  0.3810  2.1819 -1.5572
  492MOL0     H67833   4.783   0.295  10.823 -3.5017  1.4059 -0.0596
  492MOL0     H67834   4.694   0.145  10.789  0.0829  1.7307 -1.4783
  492MOL0     H67835   4.753   0.078  11.034 -1.0148  0.0522 -0.3768
  492MOL0     H67836   4.815   0.231  11.055 -0.8878 -0.5837  1.5174
  492MOL0     H67837   4.529   0.185  10.948  0.9296  0.0794  0.6780
  492MOL0     H67838   4.595   0.327  11.036 -0.6838  0.0734 -2.0567
  492MOL0     H67839   4.451   0.198  11.183  0.1712 -0.5127 -1.0505
  492MOL0     H67840   4.573   0.059  11.185  0.7949 -0.0117  5.1783
  492MOL0     H67841   4.636   0.329  11.308  2.1785  0.1087  1.6519
  492MOL0     H67842   4.748   0.202  11.258 -0.9525 -4.0514 -0.2702
  492MOL0     H67843   4.506   0.151  11.426  0.3919  1.4511 -2.3493
  492MOL0     H67844   4.652   0.053  11.410 -0.2441 -0.3471 -2.9510
  492MOL0     H67845   4.528   0.243  11.697 -2.6214  2.3392 -1.9303
  492MOL0     H67846   4.600   0.416  11.890  0.3335  0.9983 -2.1264
  492MOL0     H67847   4.768   0.482  11.878  0.0230  1.2225  0.2421
  492MOL0     H67848   4.724   0.319  12.065 -1.2656  2.5646 -0.6962
  492MOL0     H67849   4.702   0.193  11.934  1.8212  0.6175 -3.1460
  492MOL0     H67850   4.936   0.250  11.869  2.3408  3.7581  0.7378
  492MOL0     H67851   4.950   0.353  12.013  3.1367 -1.3506 -0.0264
  492MOL0     H67852   4.924   0.052  12.006  3.5991  0.1384 -2.8266
  492MOL0     H67853   5.053   0.153  12.080  0.3121  0.2136 -0.0840
  492MOL0     H67854   4.815   0.153  12.435  1.0781  1.6853 -2.4230
  492MOL0     H67855   4.809   0.099  12.659  1.8452  1.7328 -0.5331
  492MOL0     H67856   4.985   0.100  12.685 -0.0904  0.0211  0.9638
  492MOL0     H67857   4.869  -0.048  12.709  0.4251 -1.6807 -1.7477
  492MOL0     H67858   5.314  -0.153  12.728 -1.6559 -0.2847 -0.8845
  492MOL0     H67859   5.565  -0.213  12.768  1.7458  1.4973 -2.9491
  492MOL0     H67860   5.766  -0.276  12.769 -0.3747  0.7074 -3.0899
  492MOL0     H67861   5.686  -0.439  12.822  0.3751 -0.5841  0.7685
  492MOL0     H67862   5.897  -0.466  12.889 -3.0498 -4.0010  0.7761
  492MOL0     H67863   5.885  -0.554  12.740  1.9313 -0.7188  0.2054
  492MOL0     H67864   6.021  -0.275  12.781 -1.0167  0.1438  0.9449
  492MOL0     H67865   6.003  -0.347  12.619 -0.1115  0.7605  0.1735
  492MOL0     H67866   6.138  -0.538  12.691  0.8550 -0.2373  1.6674
  492MOL0     H67867   6.160  -0.480  12.852  0.9201 -4.1036 -1.2297
  492MOL0     H67868   6.342  -0.430  12.678  1.2563  1.0933 -1.1796
  492MOL0     H67869   6.227  -0.338  12.581  0.2161  0.5769  0.1466
  492MOL0     H67870   6.204  -0.176  12.745 -1.0312 -0.4065 -1.0218
  492MOL0     H67871   6.368  -0.193  12.681  0.9925  1.7543  2.3786
  492MOL0     H67872   6.455  -0.280  12.893 -0.1851 -0.4902  1.3001
  492MOL0     H67873   6.291  -0.305  12.953  0.0599  1.1701 -0.4942
  492MOL0     H67874   6.253  -0.065  12.983  0.4616  0.2254  1.4951
  492MOL0     H67875   6.411  -0.036  12.892 -0.6983 -2.3171 -2.4669
  492MOL0     H67876   5.553  -0.488  12.450  1.2981  2.3431 -1.0851
  492MOL0     H67877   5.307  -0.453  12.428  0.8973  1.0761 -0.6375
  492MOL0     H67878   5.129  -0.207  12.325  0.1112  0.4745  2.0123
  492MOL0     H67879   5.038  -0.063  12.144 -1.3546  1.4199 -1.2199
  492MOL0     H67880   4.595   0.160  10.551  1.3208  3.2766  1.7825
  492MOL0     H67881   4.509   0.263  10.319  0.1887 -0.9047 -1.8757
  492MOL0     H67882   4.743   0.557   9.929  0.5394 -3.4152  2.0148
  492MOL0     H67883   4.677   0.616   9.699 -1.5746  0.6016 -2.1759
  492MOL0     H67884   4.457   0.745   9.521 -1.5431  0.0856  2.3437
  492MOL0     H67885   4.606   0.644   9.515 -0.4270 -0.4082 -2.3393
  492MOL0     H67886   4.474   0.506   9.322  2.5572  1.7313 -1.3500
  492MOL0     H67887   4.525   0.663   9.275  2.3652 -2.6274  0.6821
  492MOL0     H67888   4.244   0.615   9.383  1.3793  0.3382  1.3594
  492MOL0     H67889   4.323   0.766   9.315  2.1080  0.0861  1.6870
  492MOL0     H67890   4.221   0.504   9.191 -0.1451  0.6333  0.7716
  492MOL0     H67891   4.329   0.622   9.109 -1.9241 -1.5071 -3.5196
  492MOL0     H67892   3.942   0.810   9.160  0.4939  0.8698  0.7188
  492MOL0     H67893   4.295   0.419   9.756 -0.7496 -1.8212  2.8766
  492MOL0     H67894   4.305   0.380  10.068  0.7281  0.3261  0.1096
  492MOL0     H67895   4.256   0.288   9.925  0.5742  1.4816 -1.9532
  492MOL0     H67896   4.384   0.221  10.011  1.5596  0.5408  0.6200
  493MOL0     O67897   0.041   8.271   2.604  0.3155 -0.2551  1.1540
  493MOL0     C67898   0.021   8.154   2.560  0.6232 -0.3201 -0.5470
  493MOL0     O67899   0.077   8.039   2.596 -0.2140 -0.4857 -0.2363
  493MOL0     C67900   0.203   8.032   2.653  0.1867  0.1463  0.2336
  493MOL0     C67901   0.300   7.944   2.608 -0.7543 -0.5060  0.2921
  493MOL0     C67902   0.437   7.943   2.658 -0.3438 -0.0732 -0.4267
  493MOL0     C67903   0.470   8.035   2.757 -0.6490  0.0267  0.6311
  493MOL0     O67904   0.599   8.041   2.796 -0.2663  0.1848 -0.5410
  493MOL0     C67905   0.651   8.150   2.883  0.3098  0.5215  0.4290
  493MOL0     C67906   0.802   8.120   2.908  0.1503 -0.2353  0.0698
  493MOL0     C67907   0.886   8.149   2.785  0.1556  0.4167  0.7838
  493MOL0     C67908   1.036   8.124   2.823 -1.3795  1.0845 -0.2686
  493MOL0     C67909   1.123   8.108   2.698  0.6140  0.2775  0.0994
  493MOL0     C67910   1.265   8.060   2.732  0.3738 -0.8479 -0.7556
  493MOL0     C67911   1.339   8.069   2.597 -0.2965 -0.3780  0.3636
  493MOL0     C67912   1.384   8.201   2.550  0.0666  0.7669  0.1771
  493MOL0     N67913   1.515   8.244   2.605 -1.0222 -0.0976 -0.7721
  493MOL0     C67914   1.530   8.307   2.733  0.4116  0.4065  0.2908
  493MOL0     C67915   1.661   8.353   2.726  0.9814  0.1775 -0.2612
  493MOL0     C67916   1.728   8.436   2.832  0.9619 -0.0577 -0.0542
  493MOL0     C67917   1.744   8.365   2.971  0.1147  0.0604  1.0906
  493MOL0     C67918   1.854   8.254   2.968 -0.1122  0.6534  0.3355
  493MOL0     C67919   2.000   8.267   2.919 -0.0703  0.0988 -0.3817
  493MOL0     O67920   2.075   8.376   2.988  0.1888  0.4166  0.2748
  493MOL0     C67921   2.204   8.391   2.943 -0.9606 -0.6037 -0.4636
  493MOL0     C67922   2.230   8.451   2.819 -0.1935  0.2109  0.1820
  493MOL0     C67923   2.368   8.476   2.783  0.2036 -0.2063  0.3373
  493MOL0     C67924   2.381   8.570   2.669 -0.4033  0.2399  0.1175
  493MOL0     C67925   2.475   8.427   2.864 -0.0846 -0.6357  0.4613
  493MOL0     C67926   2.617   8.433   2.824  0.5916  0.0162 -0.2309
  493MOL0     O67927   2.713   8.442   2.920  0.2589  0.2425  0.1508
  493MOL0     C67928   2.835   8.497   2.886 -0.5483  0.4537  1.1774
  493MOL0     C67929   2.942   8.461   2.972 -0.0575 -1.0745 -0.7777
  493MOL0     C67930   3.063   8.510   2.962 -0.5408 -0.4189  0.0148
  493MOL0     C67931   3.089   8.610   2.865  0.8764  0.9021  0.8170
  493MOL0     O67932   3.218   8.664   2.841  0.6954  0.0265 -0.2143
  493MOL0     C67933   3.335   8.630   2.913  0.1610 -0.4840 -0.0151
  493MOL0     C67934   3.462   8.685   2.854  0.3352  0.2648  0.5453
  493MOL0     C67935   3.473   8.832   2.870 -0.4918  0.1817 -0.1101
  493MOL0     C67936   3.605   8.879   2.816 -1.5635  0.0535  0.0642
  493MOL0     C67937   3.630   9.031   2.800  0.1203  1.0961 -0.7428
  493MOL0     C67938   3.537   9.115   2.705 -0.0509 -0.1620 -0.2121
  493MOL0     C67939   3.562   9.266   2.695  0.2293 -0.2729 -0.5178
  493MOL0     C67940   3.701   9.305   2.674 -0.0300  0.3555 -0.3330
  493MOL0    Cl67941   3.747   9.242   2.510 -0.4693  0.2384  0.0032
  493MOL0     C67942   2.987   8.636   2.772  0.6066  0.7586  0.0924
  493MOL0     C67943   2.858   8.585   2.782 -1.0361 -0.3542  0.9999
  493MOL0     O67944   2.634   8.421   2.704  0.6682 -0.6097 -0.0303
  493MOL0     C67945   2.446   8.359   2.985  1.3187 -0.4039  0.5747
  493MOL0     C67946   2.312   8.337   3.018  0.2420 -0.1419 -0.1724
  493MOL0     N67947   1.719   8.312   2.609 -0.2583  0.3769 -0.9800
  493MOL0     N67948   1.629   8.245   2.534 -0.6467 -0.4135 -0.4238
  493MOL0     C67949   0.370   8.128   2.798 -0.1618 -0.5013 -0.2302
  493MOL0     C67950   0.233   8.125   2.756 -0.3235 -0.1834  1.0077
  493MOL0     C67951  -0.109   8.139   2.471 -0.3291 -1.0152 -0.0642
  493MOL0     C67952  -0.232   8.145   2.533 -0.2335  1.2816 -0.7173
  493MOL0     C67953  -0.341   8.133   2.452  0.2263 -0.7017  0.7860
  493MOL0     C67954  -0.339   8.138   2.314 -1.0994 -0.0424  0.5687
  493MOL0     O67955  -0.459   8.130   2.247  0.8003 -0.3616  0.5538
  493MOL0     C67956  -0.466   8.121   2.109 -0.1365 -0.7848  0.4712
  493MOL0     C67957  -0.613   8.090   2.074  0.2275 -0.0183 -0.3596
  493MOL0     C67958  -0.623   8.038   1.927  0.2186  0.1304  0.3667
  493MOL0     C67959  -0.733   7.930   1.923  0.3938  0.1778 -0.4545
  493MOL0     C67960  -0.717   7.838   1.815 -0.1448  0.3080 -0.0803
  493MOL0     C67961  -0.693   7.748   1.738  0.0510 -0.3560  0.8999
  493MOL0     C67962  -0.204   8.141   2.258  0.9900  0.4807  0.4099
  493MOL0     C67963  -0.089   8.136   2.331  0.4445 -0.3748  0.3951
  493MOL0     C67964   0.044   8.160   2.255 -0.1182  0.5712 -0.0007
  493MOL0     H67965   0.265   7.885   2.525 -2.7718  1.3829 -0.3019
  493MOL0     H67966   0.503   7.872   2.610 -0.4071 -1.0287  0.8409
  493MOL0     H67967   0.603   8.159   2.981 -0.9995  3.3149 -0.3846
  493MOL0     H67968   0.639   8.250   2.842 -0.1250  0.3825  0.2180
  493MOL0     H67969   0.832   8.187   2.989  1.6220 -0.7987  0.0224
  493MOL0     H67970   0.812   8.021   2.953 -1.3263 -0.0196  0.9514
  493MOL0     H67971   0.846   8.088   2.704  1.0511 -0.1187  0.7223
  493MOL0     H67972   0.873   8.251   2.746 -0.1347  0.2306  0.3926
  493MOL0     H67973   1.080   8.197   2.891 -1.7404 -0.7013  1.9842
  493MOL0     H67974   1.058   8.033   2.880  0.2837  1.5797 -0.0867
  493MOL0     H67975   1.118   8.204   2.646 -3.6392 -0.9202 -2.1577
  493MOL0     H67976   1.067   8.039   2.634  0.4682 -1.7287  2.2584
  493MOL0     H67977   1.320   8.125   2.801  0.3114 -0.7498 -0.7980
  493MOL0     H67978   1.256   7.960   2.774 -2.0040  0.0110  0.9819
  493MOL0     H67979   1.282   8.016   2.520  1.0866  0.0358 -0.9951
  493MOL0     H67980   1.435   8.019   2.609  1.2162  2.2310 -0.1389
  493MOL0     H67981   1.400   8.184   2.443 -0.7935  0.8562  0.0261
  493MOL0     H67982   1.304   8.271   2.574 -0.2481 -0.1244  1.8853
  493MOL0     H67983   1.457   8.314   2.813  0.1069  1.5773 -0.0642
  493MOL0     H67984   1.665   8.524   2.845  0.5567 -0.1239 -1.4073
  493MOL0     H67985   1.825   8.470   2.794 -0.0058  0.6945 -1.9908
  493MOL0     H67986   1.758   8.433   3.056 -0.0043 -0.2424  1.3571
  493MOL0     H67987   1.648   8.322   3.001  0.1263 -1.4516 -0.8707
  493MOL0     H67988   1.864   8.231   3.074 -1.5085  1.0569  0.5753
  493MOL0     H67989   1.803   8.176   2.910  1.1888 -0.0933  0.1574
  493MOL0     H67990   2.053   8.172   2.924 -1.0430 -0.4037  0.6019
  493MOL0     H67991   1.998   8.296   2.813  0.6791  1.6749  0.0060
  493MOL0     H67992   2.150   8.496   2.760  0.1329  2.2058  1.1613
  493MOL0     H67993   2.379   8.518   2.573 -1.9871  1.5247 -0.6083
  493MOL0     H67994   2.474   8.627   2.666 -0.4213  0.2159 -1.9237
  493MOL0     H67995   2.291   8.632   2.659  0.6997  1.9383  0.2652
  493MOL0     H67996   2.911   8.390   3.048  3.4197 -1.6631  0.2730
  493MOL0     H67997   3.141   8.480   3.032  0.5688  1.9157 -0.0975
  493MOL0     H67998   3.327   8.680   3.010  1.4467  0.5284 -0.4009
  493MOL0     H67999   3.348   8.522   2.917  1.0747 -0.4020 -0.6231
  493MOL0     H68000   3.543   8.636   2.910 -2.1424 -1.4344  2.8611
  493MOL0     H68001   3.463   8.650   2.750  2.0922 -1.9463  1.2243
  493MOL0     H68002   3.469   8.862   2.975  2.4156  0.2371  0.0637
  493MOL0     H68003   3.403   8.890   2.809  0.9026  1.8990 -0.1823
  493MOL0     H68004   3.628   8.836   2.718  1.2091 -1.0768  1.1168
  493MOL0     H68005   3.678   8.841   2.887  0.4421 -1.9726 -2.8314
  493MOL0     H68006   3.625   9.072   2.901  1.6801 -1.1577  0.3542
  493MOL0     H68007   3.734   9.041   2.766 -0.1369  1.4218 -1.4452
  493MOL0     H68008   3.433   9.104   2.736  0.0483 -0.2916  0.0755
  493MOL0     H68009   3.538   9.081   2.601  3.0249  0.3329 -0.4356
  493MOL0     H68010   3.519   9.316   2.782  0.5501  0.7480 -0.9229
  493MOL0     H68011   3.510   9.305   2.607 -2.6050  0.5115  1.3626
  493MOL0     H68012   3.750   9.266   2.763 -1.0441  0.1341  0.1450
  493MOL0     H68013   3.725   9.412   2.669  0.6030  0.1804 -2.5220
  493MOL0     H68014   3.010   8.694   2.683  0.8283 -0.4920 -0.6914
  493MOL0     H68015   2.792   8.616   2.701 -0.1817  2.1427  1.1784
  493MOL0     H68016   2.533   8.324   3.040  1.7025 -1.3554 -0.5921
  493MOL0     H68017   2.292   8.299   3.117 -0.5200  1.3795  0.2969
  493MOL0     H68018   0.371   8.217   2.861  0.1200 -2.1987  2.3228
  493MOL0     H68019   0.166   8.199   2.800  1.5433  1.6560  0.9394
  493MOL0     H68020  -0.243   8.144   2.641  0.4412  0.7091 -0.6491
  493MOL0     H68021  -0.441   8.129   2.493 -0.3857 -2.5457 -0.7836
  493MOL0     H68022  -0.445   8.216   2.060  0.7994  0.9011  3.8555
  493MOL0     H68023  -0.393   8.045   2.079 -0.7652 -2.9415  3.8437
  493MOL0     H68024  -0.674   8.180   2.086  1.0643  0.4221  0.8184
  493MOL0     H68025  -0.655   8.012   2.138 -2.7038 -0.5263 -2.6908
  493MOL0     H68026  -0.655   8.120   1.863  0.8254  1.5106  1.7557
  493MOL0     H68027  -0.530   7.994   1.891 -0.0173 -0.1076  0.0443
  493MOL0     H68028  -0.830   7.980   1.925 -0.4899 -1.4954  0.2444
  493MOL0     H68029  -0.724   7.864   2.010 -2.7803 -1.2461 -1.0869
  493MOL0     H68030  -0.671   7.671   1.666 -0.7240  1.5996 -1.5781
  493MOL0     H68031  -0.192   8.140   2.150 -0.2722  0.5105  0.2575
  493MOL0     H68032   0.088   8.259   2.273 -0.5698  0.5356  1.4344
  493MOL0     H68033   0.110   8.079   2.288 -0.2531 -0.1016 -1.3048
  493MOL0     H68034   0.022   8.144   2.149 -1.3191 -0.2524  0.3608
  494MOL0     O68035   5.192   3.453   3.427 -0.1907 -0.5702  0.2534
  494MOL0     C68036   5.093   3.509   3.473  0.7612  0.8896 -0.1299
  494MOL0     O68037   5.097   3.603   3.578 -0.3049 -0.5543 -0.0135
  494MOL0     C68038   5.220   3.658   3.600  0.2600 -0.3630  0.1074
  494MOL0     C68039   5.244   3.799   3.585  0.3199  0.4547 -0.1436
  494MOL0     C68040   5.359   3.863   3.624 -1.0351  0.8725 -0.6163
  494MOL0     C68041   5.463   3.782   3.666 -0.0591 -0.5076  0.9261
  494MOL0     O68042   5.579   3.848   3.710 -0.1868  0.2167  0.4191
  494MOL0     C68043   5.705   3.794   3.679 -0.5466 -0.4367 -0.0182
  494MOL0     C68044   5.806   3.915   3.683  0.7831  0.2991 -0.8061
  494MOL0     C68045   5.949   3.886   3.667 -0.8415  0.1924  0.4670
  494MOL0     C68046   6.042   3.995   3.701  0.7100  1.2226 -0.1332
  494MOL0     C68047   6.090   4.012   3.851  0.8250 -0.0907  0.0881
  494MOL0     C68048   6.176   4.138   3.868  0.2567  0.3004 -0.5790
  494MOL0     C68049   6.250   4.150   4.008  0.7786 -0.3652 -0.5911
  494MOL0     C68050   6.348   4.043   4.047  1.2773 -0.9546  0.4548
  494MOL0     N68051   6.468   4.044   3.970 -0.3658  0.1928 -0.0427
  494MOL0     C68052   6.586   4.069   4.024 -0.2630  0.0561  0.8730
  494MOL0     C68053   6.671   4.061   3.920 -0.8302 -0.1985 -0.3172
  494MOL0     C68054   6.826   4.059   3.946  0.3303  1.2385  0.0759
  494MOL0     C68055   6.877   4.197   3.989  0.6038  0.4892 -0.5146
  494MOL0     C68056   7.027   4.200   4.025 -0.3511  0.4929 -0.3130
  494MOL0     C68057   7.099   4.332   4.053 -0.8143 -0.0846 -0.0812
  494MOL0     O68058   7.105   4.419   3.945  0.3032 -1.0501  0.0619
  494MOL0     C68059   7.204   4.508   3.927  1.3059  0.2723 -0.4621
  494MOL0     C68060   7.189   4.599   3.818  0.8889  0.1666  0.2710
  494MOL0     C68061   7.282   4.703   3.788 -1.0741 -0.0397  0.2671
  494MOL0     C68062   7.254   4.789   3.666 -0.0802 -0.1296 -0.2973
  494MOL0     C68063   7.396   4.715   3.873 -0.6518  0.2199  0.0707
  494MOL0     C68064   7.503   4.824   3.855 -0.8040  0.8961 -0.6521
  494MOL0     O68065   7.604   4.839   3.949 -0.2758 -0.2429 -0.0177
  494MOL0     C68066   7.717   4.914   3.920  0.5959 -0.6606 -0.4502
  494MOL0     C68067   7.832   4.846   3.874  0.8196  0.3279 -0.0134
  494MOL0     C68068   7.943   4.918   3.824  0.0763  0.3586  0.4910
  494MOL0     C68069   7.945   5.059   3.808 -0.0608  0.2632 -0.2923
  494MOL0     O68070   8.053   5.114   3.743 -0.9272  0.3625 -0.6152
  494MOL0     C68071   8.108   5.239   3.791 -0.3923 -0.0772  0.2570
  494MOL0     C68072   8.259   5.266   3.774  0.2842 -0.1195 -0.8143
  494MOL0     C68073   8.330   5.169   3.866  0.3467 -0.0016  0.2068
  494MOL0     C68074   8.480   5.162   3.838  0.1835 -0.7421 -0.9989
  494MOL0     C68075   8.549   5.052   3.923 -1.1311  0.2849 -0.6056
  494MOL0     C68076   8.468   4.932   3.945  0.5570 -0.1378 -0.0369
  494MOL0     C68077   8.543   4.807   3.996 -0.4283  0.0187 -0.8950
  494MOL0     C68078   8.652   4.743   3.901 -0.1498  0.4825 -0.4321
  494MOL0    Cl68079   8.803   4.827   3.947 -0.1969 -0.2743 -0.5923
  494MOL0     C68080   7.830   5.122   3.856 -0.0161 -0.6091 -0.3491
  494MOL0     C68081   7.723   5.054   3.918 -0.3853  0.1936  0.1418
  494MOL0     O68082   7.510   4.885   3.753  0.5346  0.1555 -0.1566
  494MOL0     C68083   7.407   4.627   3.981  0.5470 -0.1227 -0.1848
  494MOL0     C68084   7.310   4.533   4.012 -0.5933 -0.0080 -0.5590
  494MOL0     N68085   6.600   4.033   3.807 -0.5392  0.3796  0.3171
  494MOL0     N68086   6.477   4.031   3.841 -0.3187  0.8320 -0.1220
  494MOL0     C68087   5.448   3.644   3.685 -0.4046 -0.0921  0.2718
  494MOL0     C68088   5.332   3.583   3.641  0.2566  0.2842  0.9536
  494MOL0     C68089   4.946   3.496   3.413  0.9230  0.9110 -0.3708
  494MOL0     C68090   4.835   3.546   3.490 -0.4337 -0.7232  0.6582
  494MOL0     C68091   4.705   3.532   3.442  0.2377  0.2612  0.0095
  494MOL0     C68092   4.671   3.465   3.326 -0.4544 -0.5100 -0.2512
  494MOL0     O68093   4.539   3.469   3.291 -0.1293 -0.6541 -0.0362
  494MOL0     C68094   4.480   3.417   3.176 -0.0041  0.2016  0.6253
  494MOL0     C68095   4.464   3.265   3.175  0.6376  0.2742  0.2960
  494MOL0     C68096   4.336   3.201   3.103  0.6221 -1.2160 -0.2318
  494MOL0     C68097   4.348   3.218   2.947  0.9241  0.1064 -0.6259
  494MOL0     C68098   4.458   3.135   2.894  0.2080  0.2563 -0.5157
  494MOL0     C68099   4.541   3.059   2.846  0.0802 -0.2190  0.8757
  494MOL0     C68100   4.781   3.418   3.253  0.7129  0.1247  0.1363
  494MOL0     C68101   4.911   3.422   3.294  0.2879  0.2828  0.0569
  494MOL0     C68102   5.030   3.369   3.215  0.3328  0.5562 -0.4930
  494MOL0     H68103   5.151   3.848   3.558  1.0236  3.8086  2.8487
  494MOL0     H68104   5.369   3.971   3.628 -1.4665  0.8860  1.5166
  494MOL0     H68105   5.711   3.759   3.576 -1.2010 -0.6450  0.0089
  494MOL0     H68106   5.742   3.722   3.753 -0.3694 -1.5209 -1.1292
  494MOL0     H68107   5.776   3.987   3.607 -0.7502 -0.2829 -0.7860
  494MOL0     H68108   5.795   3.960   3.782  0.3600 -2.8312  0.7226
  494MOL0     H68109   5.968   3.799   3.730 -1.5943  1.8460  3.1337
  494MOL0     H68110   5.965   3.849   3.565  2.2738  0.3775  0.7974
  494MOL0     H68111   6.132   3.975   3.642  0.0200 -0.4320 -0.6819
  494MOL0     H68112   5.987   4.084   3.670 -2.1500 -0.1355  0.6451
  494MOL0     H68113   6.132   3.915   3.881 -2.4354 -1.9267 -0.7018
  494MOL0     H68114   6.001   4.024   3.915  1.9413  0.6425  1.5691
  494MOL0     H68115   6.251   4.143   3.788  1.8713 -0.3691  0.8074
  494MOL0     H68116   6.116   4.228   3.860  1.8100  1.6274  1.4305
  494MOL0     H68117   6.171   4.147   4.084  0.9194  0.2249 -0.4153
  494MOL0     H68118   6.282   4.254   4.023 -0.2503 -0.2260  0.9121
  494MOL0     H68119   6.368   4.047   4.155 -0.4397  1.1447  0.7697
  494MOL0     H68120   6.292   3.952   4.026 -0.8566  0.0125  1.5662
  494MOL0     H68121   6.612   4.098   4.126  0.3055 -5.0579  2.4954
  494MOL0     H68122   6.878   4.050   3.850 -0.9044 -0.3068 -0.4903
  494MOL0     H68123   6.849   3.977   4.014  0.4377 -0.8275 -2.3007
  494MOL0     H68124   6.859   4.260   3.901 -2.7593 -0.2898 -0.4996
  494MOL0     H68125   6.827   4.229   4.081 -0.4353 -1.8637 -0.2092
  494MOL0     H68126   7.033   4.123   4.102  0.0657 -0.2547 -1.0683
  494MOL0     H68127   7.082   4.154   3.942  0.1509  1.0725 -0.3075
  494MOL0     H68128   7.054   4.386   4.137 -1.6565  2.6910 -2.1861
  494MOL0     H68129   7.202   4.297   4.070 -1.1893 -1.7655 -1.0687
  494MOL0     H68130   7.101   4.593   3.755  0.4256 -0.1887  0.9398
  494MOL0     H68131   7.329   4.762   3.592 -2.1015  1.7679 -3.2846
  494MOL0     H68132   7.249   4.897   3.684 -0.5435 -0.0881 -0.6653
  494MOL0     H68133   7.164   4.751   3.617 -1.3802  1.2085  0.9472
  494MOL0     H68134   7.828   4.738   3.889 -0.7917  0.7645  3.9103
  494MOL0     H68135   8.033   4.860   3.805 -0.2735  0.5250 -1.9690
  494MOL0     H68136   8.047   5.316   3.742 -2.0994 -0.0922  2.2015
  494MOL0     H68137   8.079   5.248   3.896 -1.5529 -0.9070  0.0316
  494MOL0     H68138   8.292   5.264   3.670 -1.9627 -1.8874 -1.5752
  494MOL0     H68139   8.285   5.359   3.825 -2.6298 -0.6527  1.9689
  494MOL0     H68140   8.285   5.070   3.854 -1.7161  0.8699  0.2695
  494MOL0     H68141   8.303   5.203   3.967 -3.4977 -0.7534 -0.4115
  494MOL0     H68142   8.514   5.263   3.866  1.6156 -1.6514  0.7844
  494MOL0     H68143   8.500   5.145   3.732  1.9874  0.6246 -0.9458
  494MOL0     H68144   8.641   5.011   3.880 -0.4315  0.2049  0.8981
  494MOL0     H68145   8.559   5.090   4.026 -3.6594  1.6365 -0.7934
  494MOL0     H68146   8.421   4.898   3.852 -0.1628 -1.1716  0.6729
  494MOL0     H68147   8.389   4.953   4.018  0.3217 -0.1653 -0.2788
  494MOL0     H68148   8.466   4.730   4.008 -2.7683  2.2264 -0.9810
  494MOL0     H68149   8.596   4.824   4.090 -2.6076  1.5519  0.1296
  494MOL0     H68150   8.630   4.761   3.795 -0.4202 -3.6562 -1.2343
  494MOL0     H68151   8.655   4.635   3.915  1.0345  0.6809  1.1127
  494MOL0     H68152   7.828   5.229   3.841 -1.6790 -0.5648 -0.0114
  494MOL0     H68153   7.652   5.125   3.959 -0.0627 -0.2784  1.5874
  494MOL0     H68154   7.503   4.627   4.032  1.5763 -1.4127 -2.0005
  494MOL0     H68155   7.337   4.478   4.101  3.1465 -0.5866 -1.8388
  494MOL0     H68156   5.521   3.578   3.730 -0.6028 -0.1661  0.4835
  494MOL0     H68157   5.327   3.476   3.658  2.8249  0.6344  5.7103
  494MOL0     H68158   4.857   3.597   3.583  0.3833 -0.4309  0.3149
  494MOL0     H68159   4.623   3.564   3.505 -0.6145  0.2182 -1.0564
  494MOL0     H68160   4.381   3.459   3.156  0.5424  0.4171 -1.8558
  494MOL0     H68161   4.544   3.455   3.096  2.6650 -1.5589  1.7694
  494MOL0     H68162   4.456   3.232   3.279 -2.4744  0.1833  0.1164
  494MOL0     H68163   4.543   3.214   3.119 -1.9596 -0.7728 -2.6820
  494MOL0     H68164   4.325   3.093   3.118  0.3912 -1.3530 -1.3419
  494MOL0     H68165   4.242   3.244   3.139  0.9452 -0.8820  0.2280
  494MOL0     H68166   4.358   3.327   2.936  1.4247  0.4118  2.2062
  494MOL0     H68167   4.250   3.203   2.899 -0.7936  1.3864  2.1776
  494MOL0     H68168   4.624   2.996   2.820 -0.6799 -0.4786 -1.0812
  494MOL0     H68169   4.768   3.362   3.160  0.4084  1.2666 -0.5187
  494MOL0     H68170   5.088   3.297   3.273 -1.4640 -1.2624 -0.8599
  494MOL0     H68171   5.007   3.331   3.115  0.7437  1.7310 -1.0600
  494MOL0     H68172   5.092   3.457   3.192 -0.3221  1.2705  0.3982
  495MOL0     O68173   2.787   0.953   5.856 -0.1830 -0.2011 -0.6290
  495MOL0     C68174   2.755   1.021   5.951 -0.0480  0.0523 -0.4124
  495MOL0     O68175   2.830   1.069   6.047  0.0150  0.5513 -0.9146
  495MOL0     C68176   2.949   1.005   6.067 -0.8538  0.1025 -0.9663
  495MOL0     C68177   2.969   0.870   6.113  0.1580  0.4260 -1.1564
  495MOL0     C68178   3.096   0.828   6.152 -0.4291  0.4622  1.1164
  495MOL0     C68179   3.207   0.912   6.124  1.8423 -0.5348 -0.8095
  495MOL0     O68180   3.332   0.875   6.145 -0.1809  0.5454 -0.0619
  495MOL0     C68181   3.373   0.741   6.184  0.1370  0.4278 -0.3783
  495MOL0     C68182   3.522   0.756   6.197 -0.1078 -0.5209 -0.8133
  495MOL0     C68183   3.560   0.839   6.323 -0.5844  0.6715 -0.3983
  495MOL0     C68184   3.695   0.806   6.384 -0.3763  0.5753 -0.9797
  495MOL0     C68185   3.813   0.829   6.288  0.1648 -0.1595 -0.7291
  495MOL0     C68186   3.942   0.833   6.360  0.5023 -0.2498 -0.2019
  495MOL0     C68187   3.958   0.956   6.464 -0.0720 -0.2129  0.7283
  495MOL0     C68188   4.106   0.969   6.504 -0.4480  0.4748 -0.3581
  495MOL0     N68189   4.107   1.087   6.593  1.2565  0.2307  0.9816
  495MOL0     C68190   4.187   1.100   6.702 -0.2245 -0.0729 -0.8586
  495MOL0     C68191   4.161   1.228   6.751  0.6745 -0.2826 -0.4135
  495MOL0     C68192   4.225   1.283   6.874  1.0336 -0.2537 -0.1907
  495MOL0     C68193   4.374   1.304   6.856 -0.1724 -1.0839 -0.2562
  495MOL0     C68194   4.403   1.423   6.757 -0.1970 -0.1482 -0.7786
  495MOL0     C68195   4.545   1.465   6.759 -0.5050 -0.0225  1.0003
  495MOL0     O68196   4.629   1.347   6.740 -0.3835  0.3185 -0.6282
  495MOL0     C68197   4.756   1.354   6.688 -0.1544 -0.8407 -0.0749
  495MOL0     C68198   4.830   1.464   6.691  0.1080  0.0098  1.0735
  495MOL0     C68199   4.961   1.466   6.638  0.3410  1.2754 -0.8278
  495MOL0     C68200   5.027   1.596   6.631  0.0246 -1.0503 -0.7711
  495MOL0     C68201   5.014   1.345   6.590  0.1194  0.4191  0.7152
  495MOL0     C68202   5.159   1.327   6.537  0.3365 -0.3076 -0.2736
  495MOL0     O68203   5.253   1.391   6.603 -0.4249  0.2388  0.1198
  495MOL0     C68204   5.385   1.335   6.602  0.9583  0.2526  0.2955
  495MOL0     C68205   5.416   1.225   6.679  0.3017 -0.0965 -0.3184
  495MOL0     C68206   5.551   1.173   6.675  0.7027 -0.4909  0.4995
  495MOL0     C68207   5.652   1.241   6.606 -0.7943 -0.1897 -0.1042
  495MOL0     O68208   5.769   1.178   6.604  0.0940 -0.8200  0.4191
  495MOL0     C68209   5.878   1.233   6.514  0.1011  0.6084 -0.0057
  495MOL0     C68210   5.851   1.189   6.370  0.4304  0.3785  1.3343
  495MOL0     C68211   5.950   1.231   6.269 -0.2300 -0.8575 -0.6564
  495MOL0     C68212   5.944   1.141   6.147  0.1582 -0.0971 -0.9335
  495MOL0     C68213   6.073   1.154   6.065 -0.7371 -1.1391  0.2552
  495MOL0     C68214   6.199   1.099   6.123  0.0886 -0.0649  0.8209
  495MOL0     C68215   6.327   1.116   6.035  0.5178 -0.6507  0.2153
  495MOL0     C68216   6.376   1.256   6.037  0.2140 -0.3168  0.1196
  495MOL0    Cl68217   6.550   1.251   5.987 -0.1851 -0.2353 -0.1144
  495MOL0     C68218   5.619   1.358   6.539 -0.0061 -0.3513 -0.1957
  495MOL0     C68219   5.491   1.399   6.531  0.2300 -0.0970 -0.1421
  495MOL0     O68220   5.174   1.239   6.451  0.1549  0.1426 -0.0162
  495MOL0     C68221   4.934   1.232   6.578  0.6649 -0.7816 -0.2019
  495MOL0     C68222   4.803   1.237   6.634 -0.0587 -0.8758 -0.6328
  495MOL0     N68223   4.056   1.282   6.672 -0.5306  0.4991 -0.3885
  495MOL0     N68224   4.028   1.197   6.576  0.1947 -0.3240 -1.7071
  495MOL0     C68225   3.187   1.047   6.079  0.3094  0.4509  0.3860
  495MOL0     C68226   3.054   1.096   6.054 -0.5311 -0.7327  0.8764
  495MOL0     C68227   2.610   1.062   5.966  0.0548  0.0814  0.5470
  495MOL0     C68228   2.558   1.108   6.085  1.4584  0.6135 -0.4924
  495MOL0     C68229   2.420   1.142   6.096  0.0357 -0.2060  1.2180
  495MOL0     C68230   2.332   1.131   5.992 -0.1745  0.8164  0.0197
  495MOL0     O68231   2.196   1.152   6.031  0.0298 -0.5132  0.0189
  495MOL0     C68232   2.087   1.142   5.932 -0.2750  0.8066  0.8199
  495MOL0     C68233   2.056   1.278   5.884  0.1030 -1.0972 -0.2618
  495MOL0     C68234   1.931   1.289   5.791  0.0479  0.4928  0.6345
  495MOL0     C68235   1.944   1.198   5.663  0.5738  0.9730 -0.4868
  495MOL0     C68236   2.054   1.243   5.574  0.4808 -0.4426  0.0511
  495MOL0     C68237   2.141   1.279   5.497  0.8664 -0.2687 -0.5921
  495MOL0     C68238   2.383   1.092   5.871  0.1322  0.0418 -0.1754
  495MOL0     C68239   2.519   1.051   5.852  0.6934  0.0700  0.6050
  495MOL0     C68240   2.549   1.010   5.709  0.0562  0.4667 -0.1659
  495MOL0     H68241   2.885   0.802   6.127 -0.7727  1.5266 -1.2762
  495MOL0     H68242   3.114   0.723   6.172  0.9928  0.1810 -1.2567
  495MOL0     H68243   3.363   0.664   6.107  2.0210  1.6278 -1.9193
  495MOL0     H68244   3.324   0.710   6.276 -4.1572 -3.9430 -3.6225
  495MOL0     H68245   3.563   0.655   6.202 -2.2918 -1.4223  0.7903
  495MOL0     H68246   3.555   0.807   6.106  0.1076  1.4738  0.3362
  495MOL0     H68247   3.565   0.945   6.299 -1.3230  1.2805  1.8964
  495MOL0     H68248   3.492   0.820   6.407  3.0365  2.5170  3.3264
  495MOL0     H68249   3.711   0.874   6.468  0.3014  0.7259 -1.2170
  495MOL0     H68250   3.706   0.703   6.421 -0.2888  0.3937 -1.4909
  495MOL0     H68251   3.802   0.922   6.232 -3.4482 -0.3562 -0.6094
  495MOL0     H68252   3.800   0.748   6.216 -3.9068 -1.4062  1.0878
  495MOL0     H68253   3.941   0.739   6.416 -2.8497 -0.5402 -0.5194
  495MOL0     H68254   4.024   0.826   6.288 -0.4940 -4.3888 -1.2188
  495MOL0     H68255   3.901   0.944   6.557  0.0663  0.3245  0.8871
  495MOL0     H68256   3.929   1.047   6.410  2.3764 -0.0108 -0.3754
  495MOL0     H68257   4.145   0.882   6.558 -1.9855  0.7829  1.3667
  495MOL0     H68258   4.167   0.980   6.415 -0.5211 -0.5412 -0.5518
  495MOL0     H68259   4.255   1.028   6.747  0.2334  1.9274  1.9871
  495MOL0     H68260   4.209   1.215   6.959 -0.9508 -0.1372 -0.4449
  495MOL0     H68261   4.179   1.375   6.909  1.8143 -0.0962  0.4677
  495MOL0     H68262   4.411   1.323   6.957  0.1866 -1.8987 -0.2241
  495MOL0     H68263   4.424   1.218   6.811  1.1409 -1.5408  1.9432
  495MOL0     H68264   4.368   1.402   6.656 -1.5851 -1.0134 -0.1394
  495MOL0     H68265   4.349   1.505   6.804  3.4749  1.4110  1.1449
  495MOL0     H68266   4.565   1.532   6.674 -0.1789 -3.2420 -1.6597
  495MOL0     H68267   4.563   1.519   6.852  1.0441 -2.2844  2.0761
  495MOL0     H68268   4.788   1.555   6.734  0.9475  1.8601 -1.6823
  495MOL0     H68269   5.105   1.596   6.708  0.0872 -4.1413 -0.7132
  495MOL0     H68270   4.957   1.678   6.651  0.7815 -0.4724 -0.4407
  495MOL0     H68271   5.067   1.623   6.533  0.2098 -0.0245 -0.4254
  495MOL0     H68272   5.334   1.180   6.735  1.2747 -2.6177 -0.7652
  495MOL0     H68273   5.588   1.084   6.726  1.2440 -1.5890 -1.6747
  495MOL0     H68274   5.899   1.340   6.506  3.8582 -0.0675 -1.1686
  495MOL0     H68275   5.971   1.192   6.556  0.8050 -1.5939 -3.3130
  495MOL0     H68276   5.840   1.080   6.369 -1.4566  0.4094 -2.5132
  495MOL0     H68277   5.751   1.223   6.341  0.4161 -0.8842 -0.2641
  495MOL0     H68278   6.053   1.219   6.306  0.3928  1.1510 -1.6223
  495MOL0     H68279   5.936   1.335   6.241  1.4687 -0.0536  1.1831
  495MOL0     H68280   5.854   1.167   6.090 -0.3134  2.9438  0.9835
  495MOL0     H68281   5.937   1.035   6.173 -3.9941  0.1797 -0.1546
  495MOL0     H68282   6.060   1.118   5.962  0.7406  2.2903 -1.3014
  495MOL0     H68283   6.100   1.258   6.044 -1.4109 -0.9073  0.5320
  495MOL0     H68284   6.181   0.995   6.153 -1.0553  0.6646  2.9155
  495MOL0     H68285   6.231   1.151   6.213  1.8859  1.5377 -0.6700
  495MOL0     H68286   6.317   1.076   5.933 -2.5804  1.7058 -0.5594
  495MOL0     H68287   6.393   1.043   6.083 -3.0076 -3.7913  0.7695
  495MOL0     H68288   6.371   1.307   6.134 -0.5828 -0.4739  0.1616
  495MOL0     H68289   6.325   1.321   5.965  1.3200 -1.5299 -1.8546
  495MOL0     H68290   5.697   1.408   6.481  0.6943  0.4416  1.3808
  495MOL0     H68291   5.469   1.485   6.468  0.2655 -0.4464 -0.6382
  495MOL0     H68292   4.958   1.131   6.545  0.4324 -0.7829 -0.3722
  495MOL0     H68293   4.742   1.147   6.646 -1.1558 -0.1497 -0.6818
  495MOL0     H68294   3.273   1.109   6.058  0.2030  0.7138  0.7154
  495MOL0     H68295   3.032   1.197   6.020 -1.0890 -1.6050 -1.5319
  495MOL0     H68296   2.616   1.089   6.175  2.4856 -2.9115 -1.7032
  495MOL0     H68297   2.383   1.174   6.192  0.9336  1.0254  1.1798
  495MOL0     H68298   2.113   1.076   5.848 -3.8822 -1.8333  1.5103
  495MOL0     H68299   2.002   1.094   5.981 -3.3374  1.8712 -2.9296
  495MOL0     H68300   2.141   1.319   5.829 -1.0837 -0.7130 -1.8704
  495MOL0     H68301   2.040   1.342   5.972  0.6492 -2.4203  0.8391
  495MOL0     H68302   1.844   1.249   5.846 -0.6093  1.6846  0.4893
  495MOL0     H68303   1.904   1.390   5.759  0.5874  0.5363  0.3131
  495MOL0     H68304   1.860   1.206   5.594  0.2578  4.3625  0.1119
  495MOL0     H68305   1.963   1.092   5.680  0.7696  1.1516  0.4868
  495MOL0     H68306   2.227   1.305   5.438  0.7169 -0.6022 -0.9591
  495MOL0     H68307   2.315   1.082   5.787  1.6727  3.4280 -2.0716
  495MOL0     H68308   2.642   1.060   5.684 -0.1066  1.9877  2.0046
  495MOL0     H68309   2.561   0.901   5.710 -0.3001  0.4181  1.0091
  495MOL0     H68310   2.474   1.053   5.642  0.5741 -1.6453 -2.2628
  496MOL0     O68311   5.536   1.282   5.899  0.0680 -0.4199  0.0850
  496MOL0     C68312   5.642   1.343   5.934  0.4123 -0.7085  0.4474
  496MOL0     O68313   5.642   1.438   6.030  0.0350 -0.3248 -0.3230
  496MOL0     C68314   5.517   1.498   6.059  0.2743  0.1639  0.2475
  496MOL0     C68315   5.448   1.566   5.961 -0.2026  0.2189  0.7816
  496MOL0     C68316   5.312   1.605   5.979 -0.9809  0.2592  0.3172
  496MOL0     C68317   5.241   1.560   6.092  0.5894 -0.4829 -0.5233
  496MOL0     O68318   5.110   1.613   6.089  0.5914 -0.2037  0.8051
  496MOL0     C68319   5.024   1.597   6.203 -0.2621 -0.0506  0.7380
  496MOL0     C68320   4.876   1.599   6.180 -0.9223 -0.0234 -0.0269
  496MOL0     C68321   4.803   1.559   6.313  0.6651 -0.0610  0.8870
  496MOL0     C68322   4.648   1.565   6.267 -0.6182  0.4828 -0.6453
  496MOL0     C68323   4.549   1.535   6.388 -0.7075 -0.2504  0.1282
  496MOL0     C68324   4.534   1.388   6.408  0.1187  1.1206 -0.5665
  496MOL0     C68325   4.426   1.322   6.324  0.8454  0.5779 -0.5169
  496MOL0     C68326   4.344   1.212   6.390  0.2152  0.3055 -0.0362
  496MOL0     N68327   4.433   1.098   6.439 -0.9590 -0.1112 -0.3854
  496MOL0     C68328   4.514   1.026   6.358  0.3507  0.3683  0.7267
  496MOL0     C68329   4.587   0.950   6.439  0.1624  0.5935  0.2605
  496MOL0     C68330   4.683   0.846   6.380 -0.2674 -0.0437 -0.7136
  496MOL0     C68331   4.824   0.848   6.451  0.6959  0.7577 -0.9764
  496MOL0     C68332   4.909   0.723   6.416 -0.3127  0.5835  0.6306
  496MOL0     C68333   5.050   0.762   6.397  0.5027  0.4385 -0.1420
  496MOL0     O68334   5.116   0.635   6.378 -0.3158 -0.5842  0.0832
  496MOL0     C68335   5.212   0.616   6.281  0.5124  0.2223 -0.6341
  496MOL0     C68336   5.298   0.510   6.301  0.1557 -0.8551  0.2520
  496MOL0     C68337   5.407   0.484   6.210  0.3752 -0.5348 -0.7571
  496MOL0     C68338   5.500   0.372   6.248 -0.1261 -0.5812  0.3611
  496MOL0     C68339   5.433   0.570   6.110  0.3313  0.9532  0.8445
  496MOL0     C68340   5.557   0.581   6.029  0.5098 -0.4683 -0.3328
  496MOL0     O68341   5.602   0.703   5.980  0.5889  0.1062  0.0357
  496MOL0     C68342   5.724   0.710   5.926  0.1022 -1.0452 -0.7468
  496MOL0     C68343   5.811   0.789   5.991  0.3894  0.1027 -0.1758
  496MOL0     C68344   5.940   0.820   5.930 -1.1280  0.0446 -0.3506
  496MOL0     C68345   5.984   0.746   5.824 -0.1843  0.0429  0.3985
  496MOL0     O68346   6.106   0.756   5.776 -0.3466  0.2735  0.0072
  496MOL0     C68347   6.204   0.832   5.850  0.0374 -0.9687  0.3516
  496MOL0     C68348   6.346   0.807   5.792 -0.2704  0.9957  0.3576
  496MOL0     C68349   6.405   0.672   5.818  0.4060 -0.1892 -0.7082
  496MOL0     C68350   6.408   0.639   5.967  0.1438  0.0676 -0.2979
  496MOL0     C68351   6.469   0.500   5.991 -1.0500 -0.1446 -0.3278
  496MOL0     C68352   6.489   0.460   6.146  0.0595 -0.5964  0.3534
  496MOL0     C68353   6.567   0.562   6.229  0.8157 -0.2191 -0.7422
  496MOL0     C68354   6.711   0.551   6.189 -0.2722  1.1154  1.2163
  496MOL0    Cl68355   6.753   0.657   6.046  0.3725 -0.0102 -0.4063
  496MOL0     C68356   5.896   0.660   5.762  0.6572 -0.3614  0.2237
  496MOL0     C68357   5.763   0.642   5.812  0.3290 -0.3138  0.5679
  496MOL0     O68358   5.626   0.480   6.033 -0.6150 -0.5868  0.8236
  496MOL0     C68359   5.334   0.674   6.081  0.5689  0.0947 -0.0404
  496MOL0     C68360   5.215   0.682   6.161 -0.5054  0.2197  0.2816
  496MOL0     N68361   4.549   0.980   6.569 -0.6971  0.8362  0.3295
  496MOL0     N68362   4.461   1.073   6.566 -0.6516 -0.6402  0.2875
  496MOL0     C68363   5.312   1.493   6.189  0.1392  0.0915  0.3223
  496MOL0     C68364   5.451   1.463   6.176  0.1417  0.0106 -0.1781
  496MOL0     C68365   5.764   1.304   5.854  0.2239  0.0129 -0.5905
  496MOL0     C68366   5.776   1.171   5.809 -0.2315  0.6618  0.1712
  496MOL0     C68367   5.883   1.134   5.718 -0.8597 -0.5911 -0.1478
  496MOL0     C68368   5.986   1.224   5.695 -0.3366 -0.2022 -0.3931
  496MOL0     O68369   6.099   1.198   5.628 -0.2929 -0.9917 -0.1626
  496MOL0     C68370   6.119   1.076   5.561 -0.9212  0.6851  0.1899
  496MOL0     C68371   6.243   1.093   5.466 -0.1274  0.2589 -0.7074
  496MOL0     C68372   6.371   1.130   5.534 -0.3287 -0.3903 -0.1116
  496MOL0     C68373   6.496   1.087   5.453  0.2820  0.1363  0.5880
  496MOL0     C68374   6.494   1.150   5.314 -0.9696 -0.3324 -0.3205
  496MOL0     C68375   6.504   1.181   5.201  0.0140 -0.0954 -0.3150
  496MOL0     C68376   5.983   1.357   5.749 -0.2818 -0.5437  0.5122
  496MOL0     C68377   5.872   1.390   5.832  0.3018 -1.0297  0.3507
  496MOL0     C68378   5.870   1.530   5.893  0.1100  0.6236 -1.1684
  496MOL0     H68379   5.506   1.579   5.871 -0.5499 -3.2053 -0.0619
  496MOL0     H68380   5.255   1.636   5.891 -2.0355 -1.1070  0.4820
  496MOL0     H68381   5.055   1.659   6.287  0.7815  0.3429  0.0838
  496MOL0     H68382   5.035   1.492   6.232 -0.4719 -1.4926 -3.5865
  496MOL0     H68383   4.846   1.696   6.140 -0.4782 -0.3554 -1.1913
  496MOL0     H68384   4.865   1.537   6.091  1.8146  1.7331 -1.7220
  496MOL0     H68385   4.811   1.455   6.348  0.1948  0.3873  2.4168
  496MOL0     H68386   4.821   1.631   6.393 -1.8688  1.6792 -0.0139
  496MOL0     H68387   4.627   1.655   6.210  1.0896  0.2418 -1.7334
  496MOL0     H68388   4.633   1.491   6.188  0.3931  2.2452 -2.5770
  496MOL0     H68389   4.455   1.576   6.350 -3.4303 -1.6679  4.5737
  496MOL0     H68390   4.576   1.582   6.483  0.1252  1.1462 -0.7711
  496MOL0     H68391   4.626   1.333   6.387 -0.2814  1.3528 -3.1610
  496MOL0     H68392   4.512   1.368   6.514 -5.5932 -0.2969 -1.6978
  496MOL0     H68393   4.464   1.284   6.229 -3.8426 -1.4260 -1.8929
  496MOL0     H68394   4.342   1.389   6.305 -0.1244 -0.0293  1.3285
  496MOL0     H68395   4.286   1.253   6.474 -3.0664 -1.6185 -1.1906
  496MOL0     H68396   4.266   1.187   6.317 -0.5900 -1.6389  1.4332
  496MOL0     H68397   4.503   1.009   6.251 -0.1787  3.4822  0.1831
  496MOL0     H68398   4.705   0.877   6.278  3.3084  0.0317 -0.0641
  496MOL0     H68399   4.636   0.748   6.389 -0.9714  0.2419 -1.2176
  496MOL0     H68400   4.880   0.934   6.414 -0.5869  1.5939 -1.0233
  496MOL0     H68401   4.814   0.853   6.560 -2.1105  1.6406 -1.2017
  496MOL0     H68402   4.905   0.649   6.496  1.9596 -0.5261 -0.1740
  496MOL0     H68403   4.875   0.672   6.325  2.2060 -0.7076  0.2983
  496MOL0     H68404   5.055   0.831   6.312  0.0702 -2.1772 -2.4175
  496MOL0     H68405   5.080   0.815   6.488  0.2506  0.3057  0.0193
  496MOL0     H68406   5.282   0.441   6.383 -0.8762  0.1381  0.9085
  496MOL0     H68407   5.597   0.403   6.287  0.1787 -0.1265 -0.7207
  496MOL0     H68408   5.505   0.306   6.160 -6.2502 -1.1443 -0.0618
  496MOL0     H68409   5.455   0.318   6.332  0.5514  0.7706  1.6266
  496MOL0     H68410   5.782   0.829   6.088  1.5346  0.4748  0.0322
  496MOL0     H68411   6.004   0.889   5.984  1.1369 -2.9183  1.0198
  496MOL0     H68412   6.180   0.938   5.845  2.7934 -0.2745  0.5349
  496MOL0     H68413   6.199   0.820   5.959 -2.3697  1.4140  0.5979
  496MOL0     H68414   6.355   0.828   5.685  3.2250 -1.3158  0.0293
  496MOL0     H68415   6.408   0.884   5.841 -2.8273  1.1295  3.8441
  496MOL0     H68416   6.506   0.673   5.774  0.9675  1.4719  0.5053
  496MOL0     H68417   6.349   0.600   5.757  1.9748 -0.8234 -1.4635
  496MOL0     H68418   6.306   0.639   6.008 -0.1855 -2.5935 -0.9532
  496MOL0     H68419   6.445   0.723   6.026 -0.1892  0.1567 -0.2098
  496MOL0     H68420   6.405   0.420   5.952  0.2344 -0.2912 -2.2722
  496MOL0     H68421   6.573   0.499   5.957  0.3651  1.8354  3.4695
  496MOL0     H68422   6.520   0.356   6.163  1.4626 -0.2281  0.1404
  496MOL0     H68423   6.385   0.462   6.181 -0.2692  1.3566 -0.5939
  496MOL0     H68424   6.547   0.543   6.335  1.7277  1.5510 -0.2125
  496MOL0     H68425   6.533   0.664   6.211 -2.0306 -1.3187 -2.2258
  496MOL0     H68426   6.737   0.446   6.176  1.7853  1.4074  2.4867
  496MOL0     H68427   6.779   0.583   6.268  2.1539  0.0130 -0.3300
  496MOL0     H68428   5.939   0.601   5.681 -1.2453 -0.3939 -0.8378
  496MOL0     H68429   5.694   0.574   5.764 -1.0477  0.8986  0.7534
  496MOL0     H68430   5.332   0.731   5.989 -1.0466  3.5072  1.9267
  496MOL0     H68431   5.137   0.754   6.137  1.3115  1.9142 -0.8846
  496MOL0     H68432   5.255   1.451   6.272 -1.5680  2.1570  0.2666
  496MOL0     H68433   5.497   1.399   6.250  1.4340  1.3140  0.2064
  496MOL0     H68434   5.688   1.109   5.825 -0.1536  0.2827 -0.7660
  496MOL0     H68435   5.884   1.032   5.679 -1.8855 -0.1675 -1.3394
  496MOL0     H68436   6.132   0.990   5.627 -2.9535 -0.8714 -1.3172
  496MOL0     H68437   6.038   1.055   5.491 -1.9326  0.1043  1.5064
  496MOL0     H68438   6.224   1.173   5.394  1.3979  2.3835  1.0767
  496MOL0     H68439   6.250   0.999   5.412  0.5036 -0.3848  0.4473
  496MOL0     H68440   6.371   1.239   5.549 -0.1900 -0.5119  0.8370
  496MOL0     H68441   6.378   1.080   5.631 -0.3881 -0.8200 -0.3274
  496MOL0     H68442   6.501   0.978   5.444  0.7462  0.2926 -1.6810
  496MOL0     H68443   6.582   1.117   5.513  0.0597 -0.9078  1.4555
  496MOL0     H68444   6.495   1.217   5.101 -0.7072  3.6159  0.9219
  496MOL0     H68445   6.073   1.417   5.735 -0.2583 -0.4996  0.8414
  496MOL0     H68446   5.861   1.519   6.002 -2.8308 -3.2952 -1.5883
  496MOL0     H68447   5.958   1.587   5.863 -0.8631  0.7975 -3.9785
  496MOL0     H68448   5.777   1.578   5.859 -1.0389 -0.7443 -0.1121
  497MOL0     O68449   7.017   9.094   9.374 -0.4820  0.5741 -0.2614
  497MOL0     C68450   7.018   9.189   9.295 -0.2681 -0.2108 -0.3411
  497MOL0     O68451   7.120   9.222   9.219  0.4446  0.0694  0.2398
  497MOL0     C68452   7.238   9.160   9.241  0.9451  1.8055  0.0828
  497MOL0     C68453   7.306   9.182   9.358 -0.5996  0.7044 -0.5791
  497MOL0     C68454   7.445   9.135   9.357  0.4727 -0.4442  0.3996
  497MOL0     C68455   7.498   9.073   9.242  0.0825  0.1885  0.4530
  497MOL0     O68456   7.618   9.011   9.237  1.6535 -0.1583 -0.1287
  497MOL0     C68457   7.661   8.945   9.359 -1.0698  0.3943 -0.2369
  497MOL0     C68458   7.794   8.866   9.345  0.2113 -0.1448 -0.3744
  497MOL0     C68459   7.925   8.946   9.318  0.3214 -0.3308  1.4779
  497MOL0     C68460   7.927   9.009   9.183 -0.4683 -0.2287  0.5166
  497MOL0     C68461   8.058   9.083   9.154 -0.8752 -0.3925 -0.5668
  497MOL0     C68462   8.057   9.233   9.194  0.1521 -0.4549  0.3332
  497MOL0     C68463   8.185   9.291   9.248  0.5574 -0.0704  0.3240
  497MOL0     C68464   8.173   9.440   9.258  0.0443  0.6699 -0.2547
  497MOL0     N68465   8.296   9.500   9.314  0.4840 -0.6466  0.0242
  497MOL0     C68466   8.318   9.508   9.448 -0.6706 -0.5405 -0.0852
  497MOL0     C68467   8.413   9.608   9.477 -0.3762  0.4740  0.0355
  497MOL0     C68468   8.476   9.654   9.616 -0.1419 -0.5252  1.2263
  497MOL0     C68469   8.407   9.778   9.676 -0.5484  0.1749  0.1596
  497MOL0     C68470   8.481   9.831   9.805 -0.2861  0.2358 -0.0608
  497MOL0     C68471   8.632   9.866   9.788  0.4966  0.1810 -0.8956
  497MOL0     O68472   8.687   9.932   9.907  0.7539 -0.4524  0.4993
  497MOL0     C68473   8.817   9.969   9.903  1.0411  0.3051 -0.6011
  497MOL0     C68474   8.909   9.958   9.801  0.3097 -0.0900  0.6966
  497MOL0     C68475   9.037   9.998   9.805  0.2438 -0.3301  0.4733
  497MOL0     C68476   9.123   9.989   9.680  0.9127  0.1733  0.9252
  497MOL0     C68477   9.091  10.057   9.924 -0.5837 -0.9504  0.0442
  497MOL0     C68478   9.233  10.103   9.944  0.6303  1.1695 -0.0624
  497MOL0     O68479   9.249  10.191  10.038 -0.1627 -1.1960 -0.1589
  497MOL0     C68480   9.353  10.285  10.029  0.0260 -0.0978 -0.0412
  497MOL0     C68481   9.418  10.336  10.142 -0.0743 -0.8292 -0.2796
  497MOL0     C68482   9.523  10.429  10.125  0.3483  0.3359  0.0122
  497MOL0     C68483   9.557  10.488  10.004 -0.1598 -0.1876 -0.1852
  497MOL0     O68484   9.664  10.572   9.981 -0.5030 -0.4893  0.8531
  497MOL0     C68485   9.731  10.619  10.099  0.2487 -0.7713 -0.0363
  497MOL0     C68486   9.843  10.713  10.060  0.3985 -0.2118 -0.6235
  497MOL0     C68487   9.783  10.839   9.999  0.0897 -0.1868  0.2566
  497MOL0     C68488   9.910  10.934   9.971 -0.4987  0.0549  0.3780
  497MOL0     C68489   9.855  11.067   9.920  0.1798  0.7516  0.0905
  497MOL0     C68490   9.969  11.157   9.854 -0.7646  0.0279 -0.9683
  497MOL0     C68491  10.059  11.224   9.964  0.7527  0.2119  1.1702
  497MOL0     C68492  10.078  11.375   9.929  1.0652 -0.5398 -0.7114
  497MOL0    Cl68493   9.923  11.462   9.936  0.1312  0.1074 -0.1663
  497MOL0     C68494   9.483  10.453   9.894  0.2418  0.6390  0.2527
  497MOL0     C68495   9.385  10.345   9.903  0.0901  0.0576 -0.5400
  497MOL0     O68496   9.320  10.049   9.885 -0.3715 -0.6020 -0.3584
  497MOL0     C68497   8.996  10.090  10.021  0.3341  0.3915 -0.3157
  497MOL0     C68498   8.860  10.039  10.014  0.1358  0.2997 -0.1090
  497MOL0     N68499   8.447   9.643   9.350  0.5093 -0.1742  0.0953
  497MOL0     N68500   8.375   9.590   9.261 -0.0400 -0.2260 -0.0556
  497MOL0     C68501   7.418   9.037   9.141 -0.0302 -0.7034  0.3881
  497MOL0     C68502   7.290   9.082   9.137 -0.9455 -0.4340 -0.0493
  497MOL0     C68503   6.897   9.287   9.311  0.2925 -0.0398 -0.8855
  497MOL0     C68504   6.914   9.410   9.247 -0.3490  0.0098 -0.8183
  497MOL0     C68505   6.833   9.520   9.261 -0.8879  0.0171 -0.7211
  497MOL0     C68506   6.727   9.517   9.352 -0.0668 -0.2133 -0.4496
  497MOL0     O68507   6.653   9.626   9.376 -0.2224 -0.0822  0.4513
  497MOL0     C68508   6.560   9.639   9.483 -0.8795  0.1760 -0.3201
  497MOL0     C68509   6.650   9.702   9.601  0.3518 -0.7913  0.1105
  497MOL0     C68510   6.557   9.735   9.725  0.2075  0.9399 -0.2282
  497MOL0     C68511   6.582   9.868   9.810  0.0094 -0.1692 -0.2740
  497MOL0     C68512   6.460   9.894   9.886  0.1234  1.1128  0.3853
  497MOL0     C68513   6.366   9.937   9.950  0.1013  0.1143 -0.1668
  497MOL0     C68514   6.703   9.396   9.421  0.3730  0.2808  0.8348
  497MOL0     C68515   6.784   9.278   9.400 -0.1326  0.9127 -0.1206
  497MOL0     C68516   6.740   9.155   9.470 -0.0062 -0.2230 -0.5981
  497MOL0     H68517   7.256   9.223   9.445  0.6602  0.3679  0.3404
  497MOL0     H68518   7.496   9.155   9.451  1.8151 -0.3114 -0.3437
  497MOL0     H68519   7.588   8.868   9.385  1.2473 -3.2855 -3.6228
  497MOL0     H68520   7.678   9.010   9.446  1.0698  0.9243 -0.9853
  497MOL0     H68521   7.807   8.827   9.447  1.6258 -1.0266 -0.8630
  497MOL0     H68522   7.774   8.783   9.277  0.6995  0.7290 -1.6137
  497MOL0     H68523   7.935   9.034   9.383  4.8005  1.5524 -1.3174
  497MOL0     H68524   8.016   8.886   9.324  0.2275 -0.5745  0.5827
  497MOL0     H68525   7.917   8.938   9.100  1.6114 -0.3830  0.3621
  497MOL0     H68526   7.849   9.086   9.174 -0.6611 -0.6246 -1.6607
  497MOL0     H68527   8.092   9.074   9.051  0.4846 -0.7915 -0.1006
  497MOL0     H68528   8.144   9.042   9.208  0.1254 -3.2086 -3.9400
  497MOL0     H68529   8.019   9.291   9.110 -0.8395 -0.6935  0.5912
  497MOL0     H68530   7.977   9.254   9.266 -0.2878 -1.1266  0.0584
  497MOL0     H68531   8.260   9.280   9.170 -1.6890  1.5756 -2.2290
  497MOL0     H68532   8.216   9.248   9.344 -0.3763  1.7906  1.5375
  497MOL0     H68533   8.162   9.482   9.157  1.1339  0.0469 -0.6559
  497MOL0     H68534   8.086   9.473   9.314  1.7301  1.5395  2.0009
  497MOL0     H68535   8.256   9.463   9.525 -0.4663 -2.3015 -0.8892
  497MOL0     H68536   8.574   9.670   9.570 -1.2575 -3.9187 -3.1091
  497MOL0     H68537   8.483   9.570   9.686 -3.6912 -2.3783 -0.3997
  497MOL0     H68538   8.401   9.859   9.603  0.7734  0.5157  0.3987
  497MOL0     H68539   8.308   9.739   9.699 -0.4619 -0.1917 -0.0874
  497MOL0     H68540   8.424   9.913   9.849  1.4333  2.1134 -1.1906
  497MOL0     H68541   8.478   9.754   9.883  1.6954  0.7595  0.6030
  497MOL0     H68542   8.686   9.777   9.753 -0.8677 -1.9649  2.0363
  497MOL0     H68543   8.641   9.937   9.706 -0.4753  1.2153 -0.1279
  497MOL0     H68544   8.864   9.926   9.708 -0.3694  0.6958  0.7470
  497MOL0     H68545   9.210   9.925   9.691 -1.1437 -3.0196 -0.0280
  497MOL0     H68546   9.163  10.086   9.649  0.2701  0.5888  1.3443
  497MOL0     H68547   9.071   9.952   9.591  2.3731  1.0535 -0.3430
  497MOL0     H68548   9.399  10.294  10.240 -0.4331  1.7681  0.8335
  497MOL0     H68549   9.574  10.461  10.216 -2.5885 -0.6186  2.1480
  497MOL0     H68550   9.655  10.666  10.162 -1.3185 -1.7980 -1.0906
  497MOL0     H68551   9.772  10.531  10.151 -1.2735 -1.4411  0.1022
  497MOL0     H68552   9.896  10.740  10.152  0.4527 -1.1842 -0.3636
  497MOL0     H68553   9.901  10.658   9.986  1.3525 -0.0365 -0.0245
  497MOL0     H68554   9.705  10.883  10.062 -0.6917  2.1705 -2.1419
  497MOL0     H68555   9.731  10.811   9.908 -1.2098  0.3354  0.8185
  497MOL0     H68556   9.983  10.885   9.906  0.0850  2.0729 -0.5709
  497MOL0     H68557   9.960  10.953  10.066  1.0967 -1.7071 -0.0422
  497MOL0     H68558   9.773  11.053   9.849  0.3972  0.3058 -0.0713
  497MOL0     H68559   9.811  11.123  10.004  1.2821  1.3174  0.3134
  497MOL0     H68560   9.926  11.238   9.795 -0.4432 -0.8748 -2.5175
  497MOL0     H68561  10.021  11.100   9.776 -0.0151  0.4624 -0.8012
  497MOL0     H68562  10.159  11.179   9.960  1.2347  1.2870  0.3377
  497MOL0     H68563  10.022  11.218  10.067 -0.3525  0.2637  0.7850
  497MOL0     H68564  10.134  11.378   9.835  2.3436  0.6612  0.0511
  497MOL0     H68565  10.146  11.405  10.009 -0.0170 -0.3883  0.1745
  497MOL0     H68566   9.492  10.505   9.799 -2.8320  1.9692  0.5758
  497MOL0     H68567   9.338  10.313   9.811 -0.1554  1.5503 -0.9666
  497MOL0     H68568   9.019  10.156  10.103 -1.0026 -0.2275  0.5913
  497MOL0     H68569   8.787  10.077  10.085 -0.1882 -0.8395  0.1936
  497MOL0     H68570   7.461   8.992   9.052 -0.1100  0.7820 -0.4501
  497MOL0     H68571   7.226   9.076   9.049 -0.6133  0.8160 -0.3959
  497MOL0     H68572   6.990   9.427   9.172  0.6572 -1.7301 -0.2512
  497MOL0     H68573   6.862   9.614   9.216 -0.3215 -0.0593 -0.5350
  497MOL0     H68574   6.487   9.715   9.454 -0.6093  0.7075  0.3708
  497MOL0     H68575   6.512   9.548   9.522  0.3527 -0.3132  0.0842
  497MOL0     H68576   6.695   9.790   9.554 -0.2573 -1.7049 -2.3739
  497MOL0     H68577   6.745   9.649   9.614  0.9956  0.1632 -0.5484
  497MOL0     H68578   6.461   9.754   9.677  0.4943 -1.3759 -1.8848
  497MOL0     H68579   6.528   9.642   9.775  0.6926  0.9337  0.0469
  497MOL0     H68580   6.596   9.945   9.734 -1.0277 -0.7225 -1.0493
  497MOL0     H68581   6.669   9.866   9.876 -1.6773  1.9834  2.2307
  497MOL0     H68582   6.279   9.977  10.000  0.4450  0.9269 -0.1947
  497MOL0     H68583   6.616   9.373   9.482  0.4692  0.5381  1.0708
  497MOL0     H68584   6.654   9.177   9.534 -0.6818 -2.2486 -0.7528
  497MOL0     H68585   6.717   9.081   9.392 -3.6052  1.4177 -1.3098
  497MOL0     H68586   6.823   9.121   9.533 -0.4851  1.0142  0.7431
  498MOL0     O68587   7.463   6.727   1.495  0.7209 -0.1132 -0.3795
  498MOL0     C68588   7.513   6.640   1.425 -0.7411 -0.7176 -0.0086
  498MOL0     O68589   7.450   6.530   1.377 -0.6320  0.4490 -0.2654
  498MOL0     C68590   7.322   6.498   1.397 -0.3276  1.2228 -0.1437
  498MOL0     C68591   7.249   6.482   1.278  0.5537 -0.7039  0.1015
  498MOL0     C68592   7.114   6.442   1.281 -0.0674  0.1005 -0.3238
  498MOL0     C68593   7.056   6.409   1.403 -0.8997 -1.3054  0.1031
  498MOL0     O68594   6.933   6.360   1.404 -0.5742  0.9616  0.4382
  498MOL0     C68595   6.868   6.357   1.534  0.2929  0.2357 -0.2289
  498MOL0     C68596   6.717   6.334   1.509 -0.1315  0.3191 -0.2013
  498MOL0     C68597   6.694   6.183   1.487  0.1523 -0.6690  0.5305
  498MOL0     C68598   6.556   6.153   1.421  0.1252 -1.1892 -0.3969
  498MOL0     C68599   6.441   6.121   1.521 -0.1756 -0.4680 -0.6492
  498MOL0     C68600   6.313   6.079   1.445  0.2813 -0.1478 -0.0032
  498MOL0     C68601   6.189   6.070   1.542  0.7013 -0.1680 -0.4129
  498MOL0     C68602   6.070   6.152   1.494  0.7278 -0.5343 -0.4102
  498MOL0     N68603   6.083   6.286   1.535  0.5520 -0.3875  0.5259
  498MOL0     C68604   6.188   6.371   1.514  0.1345 -0.6534  0.2074
  498MOL0     C68605   6.153   6.490   1.575  0.4874 -0.2329  0.6280
  498MOL0     C68606   6.200   6.631   1.592  0.2474  0.6051 -0.5145
  498MOL0     C68607   6.342   6.631   1.535 -0.3603 -0.7196  0.4343
  498MOL0     C68608   6.414   6.757   1.588  0.3999  0.3135 -0.0243
  498MOL0     C68609   6.526   6.792   1.484 -0.1367 -0.0355 -0.3375
  498MOL0     O68610   6.626   6.691   1.488  0.0056 -0.6191  0.6815
  498MOL0     C68611   6.750   6.752   1.477 -0.0854 -0.0530  0.5854
  498MOL0     C68612   6.838   6.733   1.584  0.3940  0.2796  0.4836
  498MOL0     C68613   6.958   6.804   1.566  0.5966  0.2483  0.0094
  498MOL0     C68614   7.049   6.771   1.678 -0.3287 -0.4493  0.0009
  498MOL0     C68615   7.003   6.878   1.450  0.7911 -0.0668  0.0171
  498MOL0     C68616   7.136   6.947   1.434 -0.8125 -1.0932 -0.9177
  498MOL0     O68617   7.182   6.975   1.302 -0.5772  0.5244 -0.5176
  498MOL0     C68618   7.300   7.049   1.304 -0.5815 -0.3086  0.2474
  498MOL0     C68619   7.293   7.189   1.327 -0.7509 -0.5712  0.6042
  498MOL0     C68620   7.411   7.256   1.295 -0.1853 -0.0817 -0.1145
  498MOL0     C68621   7.530   7.190   1.255 -0.9478 -0.5161 -0.3043
  498MOL0     O68622   7.641   7.267   1.226 -0.2317  0.0524  0.2373
  498MOL0     C68623   7.762   7.203   1.183 -0.0967 -0.3540 -0.3512
  498MOL0     C68624   7.861   7.311   1.139 -0.3005 -0.0676 -0.1599
  498MOL0     C68625   7.987   7.232   1.096  0.1707 -0.7860  0.1670
  498MOL0     C68626   8.113   7.310   1.066  0.2176  0.1705 -0.1958
  498MOL0     C68627   8.237   7.222   1.061 -0.6488  0.5693 -0.3877
  498MOL0     C68628   8.263   7.130   1.186 -0.2163 -0.2221 -0.6537
  498MOL0     C68629   8.402   7.073   1.177 -0.5781 -0.7333 -0.3244
  498MOL0     C68630   8.491   7.110   1.297  0.7868  0.5795  0.6561
  498MOL0    Cl68631   8.580   7.259   1.250  0.0753  0.0019  0.0029
  498MOL0     C68632   7.539   7.053   1.250  0.4139  0.9014  0.2858
  498MOL0     C68633   7.415   6.982   1.265 -0.1226  0.4033 -0.3964
  498MOL0     O68634   7.189   6.987   1.538 -0.2725 -0.2564 -0.2182
  498MOL0     C68635   6.917   6.870   1.331  1.3164 -0.2575 -1.2926
  498MOL0     C68636   6.788   6.819   1.349 -0.3687  0.1677 -0.2781
  498MOL0     N68637   6.023   6.463   1.629  0.6785  0.2473  1.2105
  498MOL0     N68638   5.981   6.342   1.603 -0.3606 -0.3782  0.1727
  498MOL0     C68639   7.129   6.429   1.528  0.1809 -0.9248  0.8029
  498MOL0     C68640   7.265   6.475   1.524 -0.3190  0.2903  0.5609
  498MOL0     C68641   7.655   6.651   1.400 -0.6451 -0.6874  0.3319
  498MOL0     C68642   7.722   6.548   1.327 -0.0096  0.2013 -1.1527
  498MOL0     C68643   7.855   6.515   1.347 -0.4803 -0.0430  0.5109
  498MOL0     C68644   7.940   6.598   1.420 -0.1644  0.1237  0.1305
  498MOL0     O68645   8.068   6.568   1.428  0.1043 -0.3100  0.4633
  498MOL0     C68646   8.155   6.640   1.518  0.3238  0.4631 -0.0038
  498MOL0     C68647   8.219   6.758   1.444 -1.0204 -0.0839  0.5052
  498MOL0     C68648   8.313   6.832   1.534 -0.2934  0.6602 -0.5609
  498MOL0     C68649   8.258   6.885   1.660  0.3545 -0.4708  0.0322
  498MOL0     C68650   8.150   6.979   1.626  0.0995 -0.2193  0.5422
  498MOL0     C68651   8.071   7.064   1.588 -0.0319  0.2178 -1.1451
  498MOL0     C68652   7.884   6.705   1.486  0.2984 -0.3041  0.8006
  498MOL0     C68653   7.745   6.740   1.462  0.0999 -0.1185 -1.0148
  498MOL0     C68654   7.696   6.856   1.549  0.2710 -0.2931  0.1480
  498MOL0     H68655   7.307   6.496   1.188  1.5748 -2.8578  0.3587
  498MOL0     H68656   7.054   6.434   1.191  1.7321  3.7250 -2.0674
  498MOL0     H68657   6.883   6.454   1.582  1.6243 -0.0499 -0.0497
  498MOL0     H68658   6.896   6.271   1.595  0.7025  0.6616  0.1934
  498MOL0     H68659   6.671   6.374   1.600 -1.6306 -2.1108  0.2024
  498MOL0     H68660   6.671   6.390   1.427 -0.4536 -0.5335 -0.6224
  498MOL0     H68661   6.772   6.150   1.418  0.4721  2.3426 -0.6762
  498MOL0     H68662   6.707   6.126   1.580 -0.2192 -0.8466  0.4754
  498MOL0     H68663   6.524   6.234   1.355  0.6879  0.2139  0.9722
  498MOL0     H68664   6.547   6.062   1.361  0.6270 -3.0139  2.1185
  498MOL0     H68665   6.419   6.213   1.575  2.2518  1.2014 -2.2714
  498MOL0     H68666   6.462   6.042   1.593 -2.9639 -0.1528  0.6120
  498MOL0     H68667   6.297   6.159   1.371  0.4724 -0.3344 -0.2452
  498MOL0     H68668   6.325   5.983   1.395 -2.0245 -1.2405  1.3911
  498MOL0     H68669   6.219   6.104   1.642  1.3434  2.1458 -1.3234
  498MOL0     H68670   6.148   5.970   1.554  0.1601  0.2086  1.0490
  498MOL0     H68671   6.066   6.165   1.385  2.4967  1.4188 -0.3110
  498MOL0     H68672   5.975   6.114   1.533  0.6438 -2.3525 -2.1796
  498MOL0     H68673   6.275   6.356   1.450  0.3359 -1.3432  0.6332
  498MOL0     H68674   6.211   6.654   1.699  3.4988 -0.0159 -0.5907
  498MOL0     H68675   6.137   6.703   1.540  0.9514  1.7324  0.1355
  498MOL0     H68676   6.398   6.547   1.577 -0.8895 -1.4574 -0.3265
  498MOL0     H68677   6.325   6.630   1.427 -4.2009 -2.3801  0.9151
  498MOL0     H68678   6.341   6.838   1.592  0.2001  0.1208  0.2670
  498MOL0     H68679   6.447   6.737   1.690 -0.9543  0.6868  0.5089
  498MOL0     H68680   6.475   6.808   1.388 -1.2218  0.3797  0.2868
  498MOL0     H68681   6.570   6.880   1.532 -1.2365 -0.3315  1.3069
  498MOL0     H68682   6.804   6.698   1.681 -0.1273  0.2899  0.3055
  498MOL0     H68683   7.012   6.694   1.746 -1.0233  0.4008  0.6034
  498MOL0     H68684   7.065   6.855   1.746  1.0458 -1.8168  1.4523
  498MOL0     H68685   7.149   6.741   1.644 -0.6074 -2.3959  0.7604
  498MOL0     H68686   7.201   7.231   1.367 -0.6435 -0.7772  1.0795
  498MOL0     H68687   7.397   7.363   1.305 -1.3445 -0.1760 -0.5254
  498MOL0     H68688   7.806   7.151   1.269 -0.0115  0.6704  0.2337
  498MOL0     H68689   7.742   7.129   1.104 -1.1995 -0.5934  0.1431
  498MOL0     H68690   7.834   7.367   1.049  0.9285  0.2912 -0.3098
  498MOL0     H68691   7.881   7.383   1.219 -2.6602  0.4865  0.0173
  498MOL0     H68692   7.956   7.174   1.008 -1.3967 -1.9455  1.4200
  498MOL0     H68693   8.005   7.162   1.178 -1.6017 -2.9362 -1.1475
  498MOL0     H68694   8.122   7.366   1.160  0.5052 -2.1157  1.2211
  498MOL0     H68695   8.102   7.377   0.981 -0.8639  0.8502  0.4539
  498MOL0     H68696   8.230   7.162   0.970 -1.1305  0.3506 -0.2062
  498MOL0     H68697   8.322   7.291   1.056  1.6916 -1.9223  1.8597
  498MOL0     H68698   8.191   7.049   1.198 -0.4313  0.1187  0.4846
  498MOL0     H68699   8.242   7.189   1.276  0.2299 -1.0541  0.0033
  498MOL0     H68700   8.445   7.099   1.079 -2.7196  0.1986 -1.0919
  498MOL0     H68701   8.390   6.965   1.179 -5.0396 -0.4348  0.9596
  498MOL0     H68702   8.549   7.019   1.317  0.6200 -0.4779 -3.0703
  498MOL0     H68703   8.429   7.133   1.384 -2.2298  1.1845 -1.5279
  498MOL0     H68704   7.626   6.999   1.214  0.1052  0.9628 -0.5714
  498MOL0     H68705   7.408   6.874   1.264  3.8385  0.0038 -1.2681
  498MOL0     H68706   6.928   6.916   1.233  0.9491 -0.3659 -1.3888
  498MOL0     H68707   6.718   6.823   1.267 -1.2322  1.7576  0.4951
  498MOL0     H68708   7.084   6.389   1.618 -3.6145 -0.8699 -0.8369
  498MOL0     H68709   7.326   6.483   1.614  2.3942 -1.2772 -1.0248
  498MOL0     H68710   7.658   6.478   1.273 -2.3781  2.3241 -1.3101
  498MOL0     H68711   7.916   6.432   1.311 -1.2874 -1.2474  1.8678
  498MOL0     H68712   8.101   6.676   1.606  1.2373 -1.8549  1.5839
  498MOL0     H68713   8.234   6.575   1.557  0.6275 -1.2410 -3.1305
  498MOL0     H68714   8.135   6.823   1.418 -0.6078  0.9436  1.6422
  498MOL0     H68715   8.279   6.724   1.359  1.0473 -0.0190  1.8563
  498MOL0     H68716   8.387   6.755   1.559 -3.6901 -3.5086 -2.1669
  498MOL0     H68717   8.362   6.914   1.479  4.0545 -1.4971 -0.3907
  498MOL0     H68718   8.328   6.954   1.707  0.2699 -1.4875  1.7156
  498MOL0     H68719   8.221   6.805   1.724 -4.2138  0.7362 -0.6986
  498MOL0     H68720   7.994   7.137   1.574 -1.0875 -0.0930  2.1904
  498MOL0     H68721   7.942   6.778   1.541  0.9854 -0.5802  0.4535
  498MOL0     H68722   7.775   6.917   1.593  2.1515  0.0823 -3.3740
  498MOL0     H68723   7.642   6.921   1.479 -1.4716 -0.3994  1.3073
  498MOL0     H68724   7.631   6.813   1.627  1.0121 -2.7973 -0.5219
  499MOL0     O68725   2.438   6.293   6.877 -0.0842  0.3427 -0.1583
  499MOL0     C68726   2.438   6.257   6.993  0.4146  1.0299 -0.5369
  499MOL0     O68727   2.349   6.181   7.054 -0.0497 -0.6017 -0.4834
  499MOL0     C68728   2.226   6.191   7.007 -0.8288  0.3918  0.9452
  499MOL0     C68729   2.154   6.305   7.018  0.1311  0.8282  0.0771
  499MOL0     C68730   2.020   6.313   6.976 -0.4173 -0.5943 -0.7910
  499MOL0     C68731   1.966   6.209   6.900 -0.0263 -0.7915 -0.2713
  499MOL0     O68732   1.842   6.211   6.840  0.1822  0.5403  0.3591
  499MOL0     C68733   1.803   6.333   6.786  0.1206  0.6630 -0.0732
  499MOL0     C68734   1.650   6.340   6.808  0.5883 -0.0810  0.3183
  499MOL0     C68735   1.608   6.386   6.946 -0.1148  0.1281  0.2056
  499MOL0     C68736   1.457   6.369   6.971 -0.1865  0.8977 -0.0132
  499MOL0     C68737   1.423   6.369   7.119 -0.8259 -0.1243 -0.3622
  499MOL0     C68738   1.278   6.333   7.120  0.0507  0.2511  0.2494
  499MOL0     C68739   1.211   6.308   7.259  0.0500 -0.4955 -0.4320
  499MOL0     C68740   1.067   6.259   7.240 -0.3200  0.1063  0.7266
  499MOL0     N68741   1.065   6.120   7.190 -0.3560 -1.4519 -0.1110
  499MOL0     C68742   1.136   6.016   7.240 -0.6563  0.1773  0.5264
  499MOL0     C68743   1.117   5.913   7.151  0.4249 -0.4512 -0.0333
  499MOL0     C68744   1.147   5.766   7.154 -0.1775 -1.6651 -0.0367
  499MOL0     C68745   1.242   5.724   7.035 -0.0077  0.1797 -0.4175
  499MOL0     C68746   1.387   5.772   7.044 -0.0763  0.0073 -0.2138
  499MOL0     C68747   1.463   5.724   6.918  0.6267  0.6200 -0.1717
  499MOL0     O68748   1.579   5.800   6.882  0.0431  0.1052 -0.5789
  499MOL0     C68749   1.678   5.807   6.982  0.2245 -0.1538 -1.0055
  499MOL0     C68750   1.722   5.697   7.052 -0.7738  1.3319 -0.9303
  499MOL0     C68751   1.826   5.696   7.147 -0.0711 -0.2084 -0.1830
  499MOL0     C68752   1.877   5.571   7.207  0.2853  0.0635  0.0170
  499MOL0     C68753   1.884   5.819   7.180  0.5364 -0.8908 -0.1884
  499MOL0     C68754   2.006   5.827   7.251 -0.6674 -0.2921 -0.3464
  499MOL0     O68755   2.113   5.760   7.202  0.4114 -0.4432 -0.2899
  499MOL0     C68756   2.236   5.749   7.259  0.5492  0.1790  0.3197
  499MOL0     C68757   2.255   5.701   7.386  0.0942 -0.1135 -0.1921
  499MOL0     C68758   2.380   5.661   7.436  0.1482  0.9419 -0.5476
  499MOL0     C68759   2.495   5.696   7.365 -0.4077  0.1040  0.0556
  499MOL0     O68760   2.620   5.692   7.415 -0.0056  0.3121  0.7740
  499MOL0     C68761   2.713   5.797   7.388 -0.1411 -0.7079 -0.0035
  499MOL0     C68762   2.678   5.930   7.447 -0.0638  0.3824 -0.1374
  499MOL0     C68763   2.701   5.934   7.603 -0.6226 -0.3196 -0.9732
  499MOL0     C68764   2.840   5.909   7.656  0.9515  0.2414  0.0038
  499MOL0     C68765   2.932   6.033   7.658 -0.3350 -0.8077 -0.0492
  499MOL0     C68766   3.074   6.002   7.706 -0.5367 -0.6953 -0.2989
  499MOL0     C68767   3.159   6.130   7.707  0.8647  0.1212 -1.0262
  499MOL0     C68768   3.300   6.096   7.730  0.5039  0.4547  0.5281
  499MOL0    Cl68769   3.315   6.030   7.906 -0.1658 -0.4707  0.1640
  499MOL0     C68770   2.483   5.735   7.234  0.0180 -0.2178 -0.4202
  499MOL0     C68771   2.354   5.760   7.174  0.3087  0.8219 -0.5401
  499MOL0     O68772   2.007   5.895   7.355  0.0379 -0.0964  1.3437
  499MOL0     C68773   1.826   5.941   7.133 -0.1754 -0.0250  0.3935
  499MOL0     C68774   1.732   5.931   7.029 -0.3394  0.0933 -0.4411
  499MOL0     N68775   1.025   5.963   7.064 -0.2011  0.2113  1.3187
  499MOL0     N68776   1.000   6.087   7.075  0.7579  0.5050  0.0582
  499MOL0     C68777   2.041   6.091   6.888 -0.4307 -0.2814 -0.2840
  499MOL0     C68778   2.167   6.081   6.948 -0.1161  0.9786  0.5124
  499MOL0     C68779   2.552   6.285   7.083 -0.4180 -0.1964  0.4418
  499MOL0     C68780   2.537   6.260   7.218  0.5651  1.1912  0.4396
  499MOL0     C68781   2.644   6.290   7.302 -0.1237  0.5288 -0.2303
  499MOL0     C68782   2.765   6.345   7.261  0.0376  0.6666 -0.4507
  499MOL0     O68783   2.861   6.377   7.354 -0.2437  0.1127 -0.2713
  499MOL0     C68784   2.993   6.416   7.311 -0.4444  0.7084 -0.6837
  499MOL0     C68785   3.000   6.567   7.293 -0.3047  0.6577  0.0707
  499MOL0     C68786   3.088   6.637   7.409  0.6024  0.0124  0.4844
  499MOL0     C68787   3.103   6.790   7.385 -0.4438 -0.8548 -0.2085
  499MOL0     C68788   3.213   6.830   7.290  0.2856  0.5682 -0.1825
  499MOL0     C68789   3.294   6.877   7.214  0.5524 -0.0779 -0.2910
  499MOL0     C68790   2.769   6.371   7.124  0.6551 -0.3467 -0.4545
  499MOL0     C68791   2.673   6.331   7.036  0.3645 -0.1478 -0.1360
  499MOL0     C68792   2.698   6.374   6.885  0.2923 -0.0422  0.0551
  499MOL0     H68793   2.196   6.390   7.070  2.5353 -0.1559 -0.1133
  499MOL0     H68794   1.962   6.402   6.998 -1.6319 -1.5033 -0.1700
  499MOL0     H68795   1.809   6.320   6.677 -1.3331  1.9579 -0.3437
  499MOL0     H68796   1.845   6.428   6.819 -1.8304  1.4863  0.2071
  499MOL0     H68797   1.612   6.411   6.734 -1.0853  0.0789  1.2756
  499MOL0     H68798   1.597   6.249   6.779 -1.4452  1.3564 -0.6989
  499MOL0     H68799   1.664   6.321   7.013 -0.5169 -0.4842 -0.0492
  499MOL0     H68800   1.639   6.490   6.961 -2.6002  0.6344  2.5912
  499MOL0     H68801   1.393   6.443   6.922 -0.1639  0.2723 -1.0071
  499MOL0     H68802   1.437   6.267   6.936  1.2725  0.8778 -0.8823
  499MOL0     H68803   1.452   6.467   7.158  1.1134 -0.4438 -0.8907
  499MOL0     H68804   1.483   6.301   7.181  0.8074  2.5997  1.2252
  499MOL0     H68805   1.227   6.402   7.052 -1.3462 -0.2336  0.7864
  499MOL0     H68806   1.261   6.238   7.067 -3.6420  0.1200  1.3900
  499MOL0     H68807   1.198   6.390   7.330  1.2347 -2.0356  1.6800
  499MOL0     H68808   1.268   6.232   7.314 -1.1725  0.9756  3.2178
  499MOL0     H68809   1.002   6.264   7.328 -0.3317  3.6867  0.6634
  499MOL0     H68810   1.020   6.336   7.179  3.3123  1.3053 -0.8393
  499MOL0     H68811   1.199   5.998   7.326  0.4450 -2.0664 -0.6522
  499MOL0     H68812   1.045   5.727   7.159 -1.9556  2.4384 -0.8806
  499MOL0     H68813   1.186   5.742   7.253 -1.8706  0.6507  1.2912
  499MOL0     H68814   1.238   5.615   7.031  0.5292  0.1731 -1.1024
  499MOL0     H68815   1.201   5.763   6.942 -1.3217 -2.7907 -1.2079
  499MOL0     H68816   1.389   5.881   7.039  1.7180  0.0512  0.7384
  499MOL0     H68817   1.449   5.737   7.127  1.0766  2.3671  0.0061
  499MOL0     H68818   1.502   5.623   6.934 -1.3208 -0.0580  0.6346
  499MOL0     H68819   1.397   5.736   6.832 -1.2170  1.7094  1.3143
  499MOL0     H68820   1.675   5.601   7.033  0.5321  0.7567 -1.3977
  499MOL0     H68821   1.963   5.525   7.158  0.5573  1.6135 -1.0473
  499MOL0     H68822   1.795   5.498   7.203 -0.6438  1.1269 -0.9297
  499MOL0     H68823   1.890   5.581   7.315  0.2564  0.2826 -0.0002
  499MOL0     H68824   2.167   5.686   7.447  1.5793  0.3379  2.1731
  499MOL0     H68825   2.394   5.624   7.537  3.1255 -0.1589 -1.2570
  499MOL0     H68826   2.807   5.759   7.429  2.0252  0.3072 -3.6128
  499MOL0     H68827   2.715   5.805   7.279 -0.3492 -1.5523 -0.0795
  499MOL0     H68828   2.744   6.009   7.409  0.8991 -0.7909 -0.9840
  499MOL0     H68829   2.575   5.951   7.418  0.6559  2.5814 -1.3062
  499MOL0     H68830   2.637   5.852   7.638 -2.6744  1.2623 -0.8040
  499MOL0     H68831   2.671   6.037   7.627 -0.9424 -0.0826 -2.2756
  499MOL0     H68832   2.887   5.835   7.591 -0.7304 -1.7878  0.9643
  499MOL0     H68833   2.823   5.868   7.756  0.1512  0.5970  0.0146
  499MOL0     H68834   2.930   6.076   7.558  0.7407 -4.4969 -1.8173
  499MOL0     H68835   2.882   6.106   7.724 -2.1479 -3.4359  1.6982
  499MOL0     H68836   3.128   5.934   7.639 -0.9722  0.8640 -2.3257
  499MOL0     H68837   3.080   5.968   7.810  1.1677 -0.1055 -0.1753
  499MOL0     H68838   3.120   6.196   7.785  0.7948  4.2112 -4.1913
  499MOL0     H68839   3.150   6.179   7.609  1.3250 -1.0397 -1.6701
  499MOL0     H68840   3.356   6.190   7.722  0.5539  0.6384  2.6032
  499MOL0     H68841   3.338   6.027   7.654  0.8418  2.1978 -0.9438
  499MOL0     H68842   2.567   5.741   7.165  0.0384 -1.3525 -0.5162
  499MOL0     H68843   2.345   5.802   7.074  0.6586  1.4399 -0.3158
  499MOL0     H68844   1.859   6.041   7.160  1.6154 -0.4732  0.0171
  499MOL0     H68845   1.721   6.027   6.980  0.7675  1.8013  2.4284
  499MOL0     H68846   2.003   6.006   6.832 -2.3275  1.1163 -1.1925
  499MOL0     H68847   2.218   5.985   6.937 -0.0209  1.3239 -4.3786
  499MOL0     H68848   2.448   6.213   7.259  0.6485  0.6386 -0.0065
  499MOL0     H68849   2.621   6.282   7.408  2.3381  2.3465  0.5378
  499MOL0     H68850   3.078   6.388   7.373 -1.3943  0.5873  0.5999
  499MOL0     H68851   3.018   6.357   7.223  0.0178  1.6287 -1.1848
  499MOL0     H68852   2.899   6.607   7.280 -1.1834 -1.6833 -1.0071
  499MOL0     H68853   3.057   6.581   7.201  3.2640 -0.9156  1.8692
  499MOL0     H68854   3.023   6.615   7.494 -0.2375  1.4181  0.2521
  499MOL0     H68855   3.189   6.597   7.416  2.1386  3.6940  2.0996
  499MOL0     H68856   3.116   6.845   7.478 -0.1134  2.6451 -2.1786
  499MOL0     H68857   3.013   6.831   7.338  0.1594 -0.8613 -1.4023
  499MOL0     H68858   3.362   6.909   7.137  1.3257  0.2286  0.4995
  499MOL0     H68859   2.860   6.420   7.091  0.5283 -0.5379 -1.1081
  499MOL0     H68860   2.641   6.466   6.865 -0.3575  0.1542  2.4966
  499MOL0     H68861   2.803   6.401   6.872  0.8727 -2.1702 -0.0329
  499MOL0     H68862   2.670   6.288   6.824  1.0465  0.7706 -1.4948
  500MOL0     O68863   3.801   5.391   3.036  0.6669 -0.9542  0.0496
  500MOL0     C68864   3.710   5.311   3.019 -0.1804  0.7188 -0.1042
  500MOL0     O68865   3.738   5.182   2.973  0.2776 -0.3307 -0.6957
  500MOL0     C68866   3.866   5.143   2.979 -0.2150 -0.0737 -0.0273
  500MOL0     C68867   3.906   5.056   3.086  0.6473 -0.5068 -0.9305
  500MOL0     C68868   4.038   5.012   3.099 -0.5798  0.0437  0.0584
  500MOL0     C68869   4.136   5.059   3.005 -0.9135  0.0300 -0.6415
  500MOL0     O68870   4.270   5.058   3.030 -0.1260 -0.0372 -0.0186
  500MOL0     C68871   4.324   4.973   3.127  0.9672  0.0599  0.0671
  500MOL0     C68872   4.470   4.979   3.129  0.2655  0.0784  0.5134
  500MOL0     C68873   4.514   4.933   2.993 -0.9715 -0.1648  0.3430
  500MOL0     C68874   4.655   4.975   2.970  0.3958 -0.8938  0.3039
  500MOL0     C68875   4.751   4.893   3.060 -0.5137  0.3265  0.5499
  500MOL0     C68876   4.899   4.936   3.040 -0.1278 -0.0557 -0.7590
  500MOL0     C68877   4.990   4.904   3.154  0.0430 -0.4110  0.4032
  500MOL0     C68878   5.143   4.916   3.127  0.3316 -0.1458 -0.0093
  500MOL0     N68879   5.193   4.810   3.039 -0.1707 -0.3628 -0.4456
  500MOL0     C68880   5.184   4.786   2.909 -0.3088 -0.4240  0.3966
  500MOL0     C68881   5.260   4.677   2.884 -0.2801 -0.5255  0.0576
  500MOL0     C68882   5.245   4.601   2.751 -0.2427 -0.0113 -0.4102
  500MOL0     C68883   5.371   4.634   2.674  0.5361  0.2621 -0.6486
  500MOL0     C68884   5.465   4.519   2.686 -0.8742  0.0975  0.2717
  500MOL0     C68885   5.588   4.545   2.597 -0.3587 -0.1114  0.5232
  500MOL0     O68886   5.673   4.647   2.663 -0.2073 -0.4693 -0.3143
  500MOL0     C68887   5.794   4.676   2.613 -0.4845  0.1305 -0.3463
  500MOL0     C68888   5.880   4.748   2.699  1.1678  0.0849 -1.0492
  500MOL0     C68889   6.008   4.791   2.664  0.5403 -0.0075  0.7061
  500MOL0     C68890   6.090   4.856   2.770  0.9185  0.8581  0.4108
  500MOL0     C68891   6.048   4.780   2.531 -0.6812 -0.2753 -0.1665
  500MOL0     C68892   6.185   4.822   2.474 -0.5604 -0.3311 -0.5507
  500MOL0     O68893   6.197   4.780   2.348 -0.2978 -0.5457  0.9629
  500MOL0     C68894   6.311   4.801   2.285 -0.1115  0.0466  0.1842
  500MOL0     C68895   6.411   4.707   2.284 -0.9824  0.0481 -0.4276
  500MOL0     C68896   6.527   4.730   2.205 -0.0104  0.2626  0.2246
  500MOL0     C68897   6.558   4.861   2.158 -0.2544  0.0463  0.5226
  500MOL0     O68898   6.651   4.910   2.079 -0.4455  0.2264  0.5512
  500MOL0     C68899   6.753   4.819   2.035  0.0333 -0.9667 -0.0320
  500MOL0     C68900   6.876   4.887   1.973 -0.0343 -0.8615 -0.2809
  500MOL0     C68901   6.959   4.772   1.900  0.1896 -0.1343  0.8169
  500MOL0     C68902   7.112   4.796   1.900  0.0342 -0.5974 -0.2863
  500MOL0     C68903   7.204   4.700   1.823 -0.4912  0.1360 -0.0605
  500MOL0     C68904   7.356   4.704   1.882  0.4961 -0.4589  0.4909
  500MOL0     C68905   7.444   4.612   1.793 -0.5513 -0.0011 -0.8418
  500MOL0     C68906   7.592   4.626   1.827  0.5272  0.2697 -0.1452
  500MOL0    Cl68907   7.651   4.776   1.754  0.0735  0.1555  0.0262
  500MOL0     C68908   6.469   4.960   2.182  0.3792  0.1816 -0.2909
  500MOL0     C68909   6.341   4.926   2.225 -0.9031 -0.4627 -0.5485
  500MOL0     O68910   6.269   4.882   2.540 -0.4522 -0.2320  0.9711
  500MOL0     C68911   5.959   4.707   2.446 -0.5291 -0.4120  0.2557
  500MOL0     C68912   5.839   4.659   2.479  1.0868  0.2241 -0.2446
  500MOL0     N68913   5.330   4.648   3.000  0.4813 -0.5140  0.0481
  500MOL0     N68914   5.284   4.720   3.094 -0.2833 -0.7103  0.2875
  500MOL0     C68915   4.097   5.149   2.903 -0.1584  0.6019  0.3520
  500MOL0     C68916   3.958   5.185   2.886  0.3115 -0.9010 -0.7244
  500MOL0     C68917   3.573   5.348   3.064 -0.4702  0.6748  0.1452
  500MOL0     C68918   3.470   5.272   3.020  0.7248 -0.4762 -0.5081
  500MOL0     C68919   3.344   5.286   3.074  1.1368 -0.0743  0.0648
  500MOL0     C68920   3.319   5.381   3.180 -0.0855  0.6573  0.6357
  500MOL0     O68921   3.199   5.377   3.235  0.4205  0.5815 -0.0471
  500MOL0     C68922   3.200   5.356   3.382 -0.2281 -0.5924 -0.0907
  500MOL0     C68923   3.160   5.486   3.462  0.4116  0.4965  0.1013
  500MOL0     C68924   3.144   5.447   3.612  0.5013 -0.4363 -0.0651
  500MOL0     C68925   3.157   5.556   3.712  0.5433 -0.2843  0.0562
  500MOL0     C68926   3.057   5.664   3.692  0.0592 -0.5796  0.8839
  500MOL0     C68927   2.978   5.755   3.667 -0.3663 -0.5102  0.6917
  500MOL0     C68928   3.421   5.468   3.219  0.2662 -0.4708 -0.6177
  500MOL0     C68929   3.549   5.453   3.164 -0.6072  0.0723  0.8672
  500MOL0     C68930   3.661   5.538   3.226  0.1993  0.2905  0.5656
  500MOL0     H68931   3.818   5.040   3.147  0.2923  4.1622  0.1499
  500MOL0     H68932   4.064   4.959   3.190  1.6969 -0.6266 -0.9182
  500MOL0     H68933   4.288   4.875   3.095 -0.3305  0.2140  0.9687
  500MOL0     H68934   4.279   5.000   3.223 -0.1247 -0.6549 -0.2235
  500MOL0     H68935   4.498   5.083   3.147 -1.1734  0.7348 -0.8142
  500MOL0     H68936   4.496   4.912   3.211  2.5723 -0.1637 -0.3405
  500MOL0     H68937   4.500   4.824   2.989 -1.0927 -0.2325  2.0713
  500MOL0     H68938   4.448   4.966   2.912 -0.2612  0.3033 -0.0554
  500MOL0     H68939   4.673   4.954   2.864 -1.2110 -0.1646 -0.1437
  500MOL0     H68940   4.672   5.083   2.983  0.5945 -0.4316 -2.9263
  500MOL0     H68941   4.738   4.787   3.038  1.1185  0.2754 -0.3390
  500MOL0     H68942   4.728   4.913   3.165  2.7458  2.5737  0.9965
  500MOL0     H68943   4.939   4.880   2.955 -0.3214  0.0617 -0.9308
  500MOL0     H68944   4.910   5.044   3.024 -0.1644  0.4400  1.9991
  500MOL0     H68945   4.980   4.797   3.172 -0.8725 -0.8270 -2.1281
  500MOL0     H68946   4.959   4.951   3.248 -0.5107  1.3512 -0.6246
  500MOL0     H68947   5.163   5.015   3.085 -3.3995 -0.1440 -2.2806
  500MOL0     H68948   5.197   4.910   3.221 -0.2944 -1.5197  0.2811
  500MOL0     H68949   5.127   4.837   2.832 -1.8110 -3.2150 -0.4963
  500MOL0     H68950   5.156   4.644   2.705  1.3202  3.0352 -0.9121
  500MOL0     H68951   5.231   4.495   2.773  2.6038 -0.2738  0.6075
  500MOL0     H68952   5.356   4.639   2.565 -1.2458 -0.0772 -0.4561
  500MOL0     H68953   5.413   4.726   2.715  1.1884 -1.4832  2.9572
  500MOL0     H68954   5.512   4.510   2.784 -2.3060  0.3626  1.0071
  500MOL0     H68955   5.410   4.427   2.666 -2.5514  1.0720  0.2280
  500MOL0     H68956   5.652   4.457   2.582  0.2764  0.4576 -0.2263
  500MOL0     H68957   5.569   4.582   2.495  2.4610 -0.9947 -0.4414
  500MOL0     H68958   5.847   4.757   2.801  0.8851  2.4961 -1.2943
  500MOL0     H68959   6.197   4.872   2.753  0.7066  5.0066  1.8678
  500MOL0     H68960   6.087   4.799   2.863 -0.3595 -0.1007 -0.1869
  500MOL0     H68961   6.057   4.959   2.782  0.1438  1.0655 -2.5939
  500MOL0     H68962   6.394   4.610   2.330 -1.4911  0.0463 -0.6187
  500MOL0     H68963   6.598   4.651   2.182  0.2176  1.2585 -2.9516
  500MOL0     H68964   6.790   4.757   2.117 -1.1373  0.9641  2.0816
  500MOL0     H68965   6.700   4.754   1.964 -1.0864 -0.2411  0.1067
  500MOL0     H68966   6.841   4.958   1.898  3.7965  2.5955  0.8582
  500MOL0     H68967   6.920   4.954   2.048  0.2658 -0.2970 -0.9480
  500MOL0     H68968   6.935   4.764   1.794  1.2128  0.1865  0.5512
  500MOL0     H68969   6.941   4.677   1.951  1.3012  0.5682  2.6289
  500MOL0     H68970   7.135   4.787   2.006  0.8913 -1.5313 -0.5452
  500MOL0     H68971   7.138   4.895   1.861 -0.5693  0.4451  1.8242
  500MOL0     H68972   7.173   4.597   1.841  0.2294 -0.2236 -0.8100
  500MOL0     H68973   7.210   4.717   1.715 -1.1588  0.3854 -0.0605
  500MOL0     H68974   7.344   4.665   1.983 -0.3594  0.5621  0.7974
  500MOL0     H68975   7.392   4.808   1.888  1.1004 -0.5982 -0.4890
  500MOL0     H68976   7.432   4.643   1.689  1.1990  0.5521 -0.9269
  500MOL0     H68977   7.415   4.508   1.806 -0.2812  0.2084  2.2668
  500MOL0     H68978   7.655   4.547   1.783  0.3766  1.6581 -3.0482
  500MOL0     H68979   7.617   4.628   1.934 -1.9510 -2.8466  0.6388
  500MOL0     H68980   6.483   5.061   2.146 -3.8063  1.3416  0.7438
  500MOL0     H68981   6.265   5.003   2.218  0.7293  1.1669 -1.1597
  500MOL0     H68982   5.977   4.703   2.339  1.4600 -3.5188  0.5763
  500MOL0     H68983   5.785   4.609   2.399 -1.5444 -0.5752  1.8829
  500MOL0     H68984   4.176   5.191   2.840 -1.6426  1.1839 -1.2034
  500MOL0     H68985   3.928   5.248   2.803  1.8521 -0.9489 -1.3523
  500MOL0     H68986   3.488   5.209   2.934  0.6279  0.1162 -0.9696
  500MOL0     H68987   3.260   5.225   3.043  0.8713  0.1719  0.2950
  500MOL0     H68988   3.117   5.287   3.400 -2.7068  2.3850  0.7507
  500MOL0     H68989   3.290   5.314   3.427  0.3422  1.1786  0.5043
  500MOL0     H68990   3.067   5.523   3.416 -0.3205 -3.0347 -1.6138
  500MOL0     H68991   3.241   5.560   3.471  0.3658  0.5413  0.1417
  500MOL0     H68992   3.043   5.405   3.620  1.0232 -1.6413  0.3217
  500MOL0     H68993   3.216   5.368   3.633  1.5997  0.2690 -1.0634
  500MOL0     H68994   3.257   5.600   3.703  0.0468  1.7670  3.0817
  500MOL0     H68995   3.133   5.513   3.809  0.0207 -3.5860 -1.3855
  500MOL0     H68996   2.909   5.831   3.639  2.3755  1.1159 -2.4467
  500MOL0     H68997   3.401   5.526   3.308  1.3175 -0.6126 -0.2728
  500MOL0     H68998   3.616   5.624   3.276 -1.1965 -0.6145  0.9175
  500MOL0     H68999   3.728   5.477   3.287  1.6571 -1.7118 -2.7785
  500MOL0     H69000   3.727   5.577   3.148 -0.9162 -0.3658 -0.7692
  501MOL0     O69001   5.009   1.401   7.468  0.3039  0.0110  0.5378
  501MOL0     C69002   4.970   1.514   7.482  0.3564 -0.0467 -0.4678
  501MOL0     O69003   4.857   1.555   7.567  0.6044  0.5495 -0.1382
  501MOL0     C69004   4.785   1.450   7.621  0.0678  0.5914  0.1063
  501MOL0     C69005   4.846   1.372   7.724 -0.9854  0.1221 -0.3005
  501MOL0     C69006   4.770   1.271   7.792  0.7297 -0.2168  0.4775
  501MOL0     C69007   4.628   1.263   7.776 -0.1578  0.4513 -0.1078
  501MOL0     O69008   4.563   1.160   7.843 -0.0880  0.2945 -0.2617
  501MOL0     C69009   4.421   1.166   7.845  0.1542  0.3067  0.5257
  501MOL0     C69010   4.372   1.145   7.991 -0.2479  0.8528  0.2362
  501MOL0     C69011   4.223   1.151   8.011 -0.3599 -0.4595  0.5440
  501MOL0     C69012   4.156   1.287   7.970  0.0600  0.1921 -0.4161
  501MOL0     C69013   4.173   1.397   8.077  0.2093  0.6999 -0.5048
  501MOL0     C69014   4.101   1.368   8.206 -0.2869  0.1643  1.3279
  501MOL0     C69015   4.111   1.483   8.312 -0.7380  0.4622  0.3894
  501MOL0     C69016   4.057   1.619   8.270 -0.1479 -0.0598  0.3662
  501MOL0     N69017   3.915   1.622   8.234 -0.1660  0.2424  0.0747
  501MOL0     C69018   3.797   1.634   8.310 -0.4740  0.0818  0.3959
  501MOL0     C69019   3.693   1.643   8.218  0.3898  0.0447  0.2624
  501MOL0     C69020   3.545   1.667   8.251 -0.2260 -0.5396  1.0703
  501MOL0     C69021   3.454   1.596   8.145 -0.1140 -0.4806 -0.0730
  501MOL0     C69022   3.446   1.444   8.160 -1.2656  0.9962  0.2008
  501MOL0     C69023   3.524   1.369   8.047 -0.1562  0.1905  0.4132
  501MOL0     O69024   3.491   1.226   8.032 -0.7053 -0.1139  0.1346
  501MOL0     C69025   3.592   1.134   8.032 -0.0211 -0.5056 -1.2956
  501MOL0     C69026   3.581   1.015   7.966  0.0475 -0.5120  0.5205
  501MOL0     C69027   3.682   0.927   7.963 -0.1812  1.0455 -0.0304
  501MOL0     C69028   3.654   0.807   7.873  0.9340  0.4519 -0.0858
  501MOL0     C69029   3.799   0.946   8.030  0.4854 -0.6100 -0.4223
  501MOL0     C69030   3.904   0.859   8.058  0.3416  0.2168  0.8074
  501MOL0     O69031   3.949   0.856   8.189 -0.0156 -0.2655 -0.2584
  501MOL0     C69032   4.057   0.773   8.211  0.4911  0.7021  0.5233
  501MOL0     C69033   4.185   0.813   8.181 -0.3483  0.2072 -0.0518
  501MOL0     C69034   4.303   0.742   8.217 -0.1239  0.9095 -0.6773
  501MOL0     C69035   4.287   0.623   8.280  0.7264 -0.4469 -0.8390
  501MOL0     O69036   4.396   0.538   8.289 -0.4815  0.7365 -0.4719
  501MOL0     C69037   4.381   0.396   8.270 -0.2477  0.1710 -0.5152
  501MOL0     C69038   4.426   0.317   8.392 -0.1824  0.4494 -0.1463
  501MOL0     C69039   4.573   0.339   8.435  0.6272 -0.5536  0.2188
  501MOL0     C69040   4.671   0.280   8.333 -0.4611 -0.4142 -0.0664
  501MOL0     C69041   4.815   0.278   8.400  1.0855 -0.2352  0.2714
  501MOL0     C69042   4.926   0.218   8.308  1.1432 -0.4995  0.1210
  501MOL0     C69043   5.070   0.224   8.366 -0.4327  0.2997  0.8613
  501MOL0     C69044   5.174   0.218   8.252 -0.0647 -0.5717 -1.0202
  501MOL0    Cl69045   5.331   0.262   8.311  0.0566 -0.1955  0.2763
  501MOL0     C69046   4.164   0.589   8.326  0.1521  0.3967 -0.5694
  501MOL0     C69047   4.046   0.660   8.287  0.0750  0.1258 -0.0201
  501MOL0     O69048   3.942   0.789   7.964 -0.1760  0.0526  0.1826
  501MOL0     C69049   3.818   1.072   8.097 -0.4910 -0.3689 -0.1616
  501MOL0     C69050   3.713   1.165   8.102  0.8797  0.3130  0.5011
  501MOL0     N69051   3.751   1.642   8.095  0.0599  0.7180  0.1293
  501MOL0     N69052   3.876   1.635   8.104 -0.0932 -0.6511  0.5125
  501MOL0     C69053   4.570   1.342   7.681 -0.3868 -0.6800  0.2036
  501MOL0     C69054   4.652   1.434   7.607  0.7866 -0.2371  0.2535
  501MOL0     C69055   5.055   1.624   7.427 -0.7358 -0.5598 -0.5690
  501MOL0     C69056   5.157   1.587   7.336  0.5857  0.5843  0.0298
  501MOL0     C69057   5.233   1.689   7.275 -0.3194 -0.2609 -0.5741
  501MOL0     C69058   5.230   1.825   7.314 -0.4496 -0.7896 -0.3693
  501MOL0     O69059   5.316   1.908   7.252 -0.0800  0.1820 -0.4664
  501MOL0     C69060   5.283   2.044   7.227 -0.2551 -1.4171 -0.2059
  501MOL0     C69061   5.328   2.061   7.088 -1.0304 -0.9790  0.0670
  501MOL0     C69062   5.264   2.181   7.020  1.0585  1.5601  0.0793
  501MOL0     C69063   5.353   2.245   6.917  0.4387  0.2997 -0.3335
  501MOL0     C69064   5.469   2.314   6.981 -0.3557  0.6320  0.7597
  501MOL0     C69065   5.570   2.360   7.035  0.7754  1.5099  0.3178
  501MOL0     C69066   5.120   1.859   7.389  0.6216 -0.2919  0.4471
  501MOL0     C69067   5.040   1.767   7.451 -0.3146 -0.1221 -0.0118
  501MOL0     C69068   4.936   1.819   7.542  0.6520 -0.3503  0.1801
  501MOL0     H69069   4.950   1.385   7.751 -1.4049  2.5045  0.3588
  501MOL0     H69070   4.822   1.199   7.854  2.1292  2.4339  2.6110
  501MOL0     H69071   4.393   1.077   7.788 -1.9696  1.2708 -0.0686
  501MOL0     H69072   4.384   1.263   7.810 -0.0115  1.1177  2.7912
  501MOL0     H69073   4.410   1.048   8.022 -1.0414 -0.3172 -2.2453
  501MOL0     H69074   4.432   1.217   8.049 -0.3002  0.5401  0.6826
  501MOL0     H69075   4.175   1.074   7.950  1.8267 -0.6897 -1.0391
  501MOL0     H69076   4.198   1.135   8.116  0.6392  0.8482  1.0076
  501MOL0     H69077   4.199   1.328   7.878  3.4162  0.1545  0.9764
  501MOL0     H69078   4.053   1.259   7.946  1.3103 -3.4028 -2.3434
  501MOL0     H69079   4.140   1.492   8.034  0.4067 -0.3776 -3.2281
  501MOL0     H69080   4.281   1.406   8.093  0.7100 -4.3753  0.5154
  501MOL0     H69081   3.996   1.356   8.176  0.7300 -2.9227 -1.5706
  501MOL0     H69082   4.137   1.273   8.246 -0.2336 -1.4900 -2.2438
  501MOL0     H69083   4.213   1.492   8.351 -0.8357 -2.7996  1.7076
  501MOL0     H69084   4.066   1.447   8.404 -1.0438 -0.1755 -0.0061
  501MOL0     H69085   4.079   1.689   8.352 -4.4615  1.5895  0.4222
  501MOL0     H69086   4.108   1.668   8.187  0.2420  0.8002  1.0984
  501MOL0     H69087   3.789   1.640   8.418  1.0546 -0.0497  0.5469
  501MOL0     H69088   3.527   1.775   8.261  0.2896 -0.3571  0.1584
  501MOL0     H69089   3.524   1.620   8.347  0.8515 -1.1994  0.9963
  501MOL0     H69090   3.353   1.636   8.151 -0.0302 -0.4973  1.8851
  501MOL0     H69091   3.495   1.628   8.048 -1.9029 -0.2733 -0.7995
  501MOL0     H69092   3.492   1.414   8.254 -1.1225  0.7304  0.0450
  501MOL0     H69093   3.346   1.399   8.163  0.1167 -2.3815  0.0669
  501MOL0     H69094   3.479   1.416   7.960 -1.3604 -0.5568  0.6062
  501MOL0     H69095   3.629   1.399   8.039  0.0507 -1.0877 -3.1202
  501MOL0     H69096   3.495   0.995   7.903  0.8394 -1.4309 -0.3036
  501MOL0     H69097   3.554   0.808   7.829  0.5266 -1.2211  0.7138
  501MOL0     H69098   3.667   0.716   7.932  1.2967  1.6651  1.8023
  501MOL0     H69099   3.723   0.811   7.788 -1.6001  2.0040 -2.2301
  501MOL0     H69100   4.191   0.912   8.136  1.6918 -1.1969 -3.2427
  501MOL0     H69101   4.398   0.791   8.200  1.4029 -1.8180 -0.5539
  501MOL0     H69102   4.276   0.370   8.253 -0.2893  1.3231 -2.2183
  501MOL0     H69103   4.441   0.373   8.182  1.6663 -1.1134  1.0245
  501MOL0     H69104   4.360   0.344   8.475 -1.1260 -2.6080  0.2247
  501MOL0     H69105   4.413   0.213   8.363  0.7458 -0.1120  1.3343
  501MOL0     H69106   4.588   0.290   8.531 -1.4240  1.3164  1.5956
  501MOL0     H69107   4.589   0.445   8.457 -2.7968  0.3120 -0.9336
  501MOL0     H69108   4.672   0.330   8.235 -2.4065 -4.0293 -2.1210
  501MOL0     H69109   4.644   0.176   8.313 -0.7244 -0.7940  2.0076
  501MOL0     H69110   4.842   0.382   8.419  6.4779 -0.8320 -2.2570
  501MOL0     H69111   4.819   0.232   8.500  1.1349 -2.3392 -0.6397
  501MOL0     H69112   4.927   0.275   8.215 -1.3054  0.4662  0.6085
  501MOL0     H69113   4.909   0.113   8.283 -0.1315 -0.4000  0.5338
  501MOL0     H69114   5.091   0.136   8.428  2.5259  1.4448  1.6602
  501MOL0     H69115   5.087   0.318   8.419 -0.0892  0.1682  0.9859
  501MOL0     H69116   5.150   0.288   8.172  2.2154  2.1231  0.4600
  501MOL0     H69117   5.170   0.120   8.205 -1.6259 -0.5318 -1.0378
  501MOL0     H69118   4.151   0.504   8.393 -0.1528  0.1615 -0.9194
  501MOL0     H69119   3.945   0.641   8.319 -0.0024  1.6214  0.7193
  501MOL0     H69120   3.913   1.105   8.138  0.5029 -1.9744 -1.0754
  501MOL0     H69121   3.728   1.257   8.158 -2.8867  2.8249 -2.1675
  501MOL0     H69122   4.468   1.346   7.643 -0.8737 -0.4453  1.4646
  501MOL0     H69123   4.596   1.497   7.539 -3.5479 -1.2212  2.5354
  501MOL0     H69124   5.154   1.481   7.310  2.0862  0.0588  1.7912
  501MOL0     H69125   5.296   1.649   7.196  0.2285 -0.3046 -0.1213
  501MOL0     H69126   5.179   2.074   7.241  0.8854  2.4793  1.1305
  501MOL0     H69127   5.336   2.103   7.302  3.8292 -2.2969 -2.1049
  501MOL0     H69128   5.322   1.971   7.027  1.3692  0.4178 -2.4603
  501MOL0     H69129   5.433   2.092   7.089 -0.7999 -1.1861 -3.6816
  501MOL0     H69130   5.179   2.150   6.959  1.1368  0.1969  0.6329
  501MOL0     H69131   5.233   2.257   7.092  0.2476 -0.0176  1.4665
  501MOL0     H69132   5.299   2.314   6.852 -1.7987 -1.6267 -0.6655
  501MOL0     H69133   5.391   2.169   6.849 -0.2782 -2.0550  1.7182
  501MOL0     H69134   5.647   2.398   7.099  0.7290  0.0986  1.2604
  501MOL0     H69135   5.102   1.962   7.415 -0.8820  0.1324 -1.9989
  501MOL0     H69136   4.957   1.786   7.644  0.5527  0.3075  0.4213
  501MOL0     H69137   4.924   1.928   7.544  0.9347 -0.2327 -2.0528
  501MOL0     H69138   4.835   1.782   7.521 -0.3326  1.8036  0.8120
  502MOL0     O69139  10.503   3.506   8.566 -0.5418  0.2981 -0.1996
  502MOL0     C69140  10.493   3.385   8.588 -0.4348 -0.7593  0.7539
  502MOL0     O69141  10.384   3.307   8.554 -0.0698 -0.0956  0.7867
  502MOL0     C69142  10.272   3.366   8.526  0.2708 -0.6968  0.1931
  502MOL0     C69143  10.211   3.324   8.404  0.4101 -0.2344 -0.0067
  502MOL0     C69144  10.089   3.381   8.374 -0.3905 -0.0886 -0.3372
  502MOL0     C69145  10.024   3.469   8.456 -0.6121 -0.4755  0.3481
  502MOL0     O69146   9.898   3.508   8.424  0.0748  0.5507  0.5134
  502MOL0     C69147   9.811   3.577   8.512 -0.9654 -0.0344  0.0270
  502MOL0     C69148   9.679   3.612   8.451 -0.0864 -0.2596 -0.2302
  502MOL0     C69149   9.651   3.753   8.466 -0.3593 -0.2669 -0.0894
  502MOL0     C69150   9.506   3.778   8.435  0.5997 -0.5475  0.1469
  502MOL0     C69151   9.444   3.920   8.454  0.1000  0.3364  1.0739
  502MOL0     C69152   9.441   3.955   8.605 -0.4818  0.2079  0.8437
  502MOL0     C69153   9.381   4.082   8.636  0.4741 -0.4560  0.1035
  502MOL0     C69154   9.436   4.207   8.554 -0.6055  0.5462 -0.3345
  502MOL0     N69155   9.414   4.341   8.613 -0.1110  0.0896 -0.0848
  502MOL0     C69156   9.409   4.365   8.747 -0.9547 -0.0719 -0.1418
  502MOL0     C69157   9.381   4.493   8.753  0.8789 -0.4309  0.3984
  502MOL0     C69158   9.344   4.568   8.891  0.4353  0.0692  0.9684
  502MOL0     C69159   9.443   4.535   9.004 -0.3214 -0.0617  0.3879
  502MOL0     C69160   9.589   4.556   8.964  0.1697  0.0130 -0.6364
  502MOL0     C69161   9.675   4.555   9.086  0.1755  0.7160 -0.2227
  502MOL0     O69162   9.809   4.566   9.047  0.2073 -0.1812 -0.2021
  502MOL0     C69163   9.909   4.599   9.143  0.2500  1.1489 -0.5655
  502MOL0     C69164   9.899   4.583   9.283 -0.6553  1.0646  0.2237
  502MOL0     C69165   9.999   4.635   9.372  1.3534 -0.1801 -0.0974
  502MOL0     C69166   9.968   4.643   9.521  0.3524  0.2743 -0.0088
  502MOL0     C69167  10.126   4.675   9.323 -0.7418 -0.0451 -0.4390
  502MOL0     C69168  10.242   4.727   9.401  0.0714 -0.3260 -0.2373
  502MOL0     O69169  10.315   4.824   9.337  0.5903 -0.1481 -1.2577
  502MOL0     C69170  10.410   4.896   9.417  0.1877 -0.0010 -0.4618
  502MOL0     C69171  10.524   4.841   9.484 -0.0004  0.0958 -0.0340
  502MOL0     C69172  10.604   4.928   9.558  0.2821 -0.7023  0.1843
  502MOL0     C69173  10.589   5.068   9.555 -0.2382 -0.0779  1.3473
  502MOL0     O69174  10.657   5.153   9.634 -0.3365  0.4537  0.2455
  502MOL0     C69175  10.593   5.197   9.757 -0.7539 -0.2781 -0.2394
  502MOL0     C69176  10.638   5.114   9.883  0.3578 -0.1162  0.8204
  502MOL0     C69177  10.570   4.971   9.893  0.6522  0.0534 -0.5384
  502MOL0     C69178  10.421   4.967   9.852 -0.5858 -0.5476 -0.6463
  502MOL0     C69179  10.362   4.827   9.852 -0.1005 -0.6988  0.6557
  502MOL0     C69180  10.209   4.832   9.854  0.9730  0.3553 -0.5618
  502MOL0     C69181  10.150   4.694   9.886 -1.2248 -0.2475 -0.1474
  502MOL0     C69182  10.001   4.699   9.888  0.2878 -0.1249 -0.4219
  502MOL0    Cl69183   9.940   4.772  10.042 -0.1825  0.6167  0.4382
  502MOL0     C69184  10.471   5.123   9.494 -0.6287 -0.4784  0.1344
  502MOL0     C69185  10.385   5.029   9.427  0.2209  0.0610  0.2009
  502MOL0     O69186  10.248   4.688   9.515 -0.2690 -0.1736 -0.1754
  502MOL0     C69187  10.145   4.674   9.181  0.2128 -0.0827 -0.0857
  502MOL0     C69188  10.039   4.643   9.094 -0.0480  0.0196  0.3760
  502MOL0     N69189   9.384   4.552   8.624 -0.2986 -0.0296  0.1373
  502MOL0     N69190   9.406   4.459   8.537  0.2617  0.0468 -0.2170
  502MOL0     C69191  10.078   3.502   8.585  0.4941 -0.1083  0.1891
  502MOL0     C69192  10.203   3.440   8.611  0.0223 -0.1942 -0.6168
  502MOL0     C69193  10.609   3.333   8.649 -0.3301 -0.0613 -0.2245
  502MOL0     C69194  10.732   3.348   8.586 -0.1233 -0.0655 -1.2049
  502MOL0     C69195  10.850   3.292   8.632 -0.1192 -0.2360  0.4964
  502MOL0     C69196  10.850   3.229   8.751  0.3781 -0.3062 -0.0272
  502MOL0     O69197  10.970   3.192   8.803  0.3368  0.0037 -0.4943
  502MOL0     C69198  10.982   3.089   8.901 -0.8593  0.0368 -0.5989
  502MOL0     C69199  10.940   2.949   8.842  0.3225 -0.0782  0.1966
  502MOL0     C69200  11.047   2.890   8.752 -1.1870  0.3240 -0.7489
  502MOL0     C69201  11.014   2.757   8.696 -0.7965 -0.4567 -0.4920
  502MOL0     C69202  10.979   2.654   8.796  0.5085  0.3021  0.9103
  502MOL0     C69203  10.941   2.571   8.872 -0.3095  0.1049  0.2458
  502MOL0     C69204  10.735   3.205   8.820  0.6856  0.1791  0.4205
  502MOL0     C69205  10.613   3.260   8.774  0.5808 -0.1481  0.9076
  502MOL0     C69206  10.495   3.229   8.850  0.6803  0.2698 -0.9020
  502MOL0     H69207  10.257   3.249   8.341  0.4226  0.3504 -0.7193
  502MOL0     H69208  10.029   3.353   8.287 -2.9250  2.3792  0.4777
  502MOL0     H69209   9.857   3.670   8.546  1.3323 -0.8037 -0.7750
  502MOL0     H69210   9.780   3.514   8.596 -0.8694  1.3474  1.1358
  502MOL0     H69211   9.685   3.591   8.343 -0.4760  1.0095 -0.5139
  502MOL0     H69212   9.605   3.548   8.499  1.6475 -0.1895  2.7503
  502MOL0     H69213   9.673   3.782   8.569 -3.0054  0.4600  0.3412
  502MOL0     H69214   9.715   3.804   8.393 -2.1900  0.3637 -1.3218
  502MOL0     H69215   9.495   3.738   8.333 -0.6097  1.7069 -0.6750
  502MOL0     H69216   9.449   3.707   8.496 -1.0307 -1.4378 -2.2418
  502MOL0     H69217   9.345   3.902   8.413 -0.4570 -2.4904  3.3391
  502MOL0     H69218   9.509   3.986   8.395 -0.8072  0.2215 -0.0836
  502MOL0     H69219   9.392   3.874   8.660 -1.6322  2.0627  2.6818
  502MOL0     H69220   9.548   3.959   8.629 -0.1121 -3.1202  0.2643
  502MOL0     H69221   9.405   4.099   8.741  2.5601 -0.5612 -0.3083
  502MOL0     H69222   9.273   4.086   8.617  0.3687  2.9741  0.7311
  502MOL0     H69223   9.543   4.207   8.532 -0.7969  0.1590 -1.3309
  502MOL0     H69224   9.399   4.202   8.451  2.4591 -2.7608 -1.4807
  502MOL0     H69225   9.405   4.303   8.837  1.1517 -1.5131 -0.9625
  502MOL0     H69226   9.245   4.532   8.920  0.3448 -0.5029 -0.0072
  502MOL0     H69227   9.354   4.676   8.877  0.2153  0.0022  0.2167
  502MOL0     H69228   9.418   4.605   9.084  1.5855  2.5221 -1.1476
  502MOL0     H69229   9.435   4.429   9.030  3.6665 -1.2195 -2.1910
  502MOL0     H69230   9.619   4.475   8.896 -1.1039 -0.2132 -0.9549
  502MOL0     H69231   9.604   4.659   8.929  3.7282  0.2165  1.0992
  502MOL0     H69232   9.643   4.640   9.147  1.0467  1.2423 -0.4762
  502MOL0     H69233   9.654   4.467   9.147 -1.0930  1.6775  0.7706
  502MOL0     H69234   9.807   4.541   9.322  0.3257 -1.6911 -0.1966
  502MOL0     H69235  10.034   4.587   9.588 -1.0975  0.4448  1.6448
  502MOL0     H69236   9.876   4.593   9.551 -0.4754  2.0150  0.4801
  502MOL0     H69237   9.969   4.747   9.554  0.5400 -0.5560  2.8704
  502MOL0     H69238  10.545   4.735   9.473 -0.0253 -0.1955  2.1599
  502MOL0     H69239  10.685   4.884   9.615  0.0233  0.1037  1.1892
  502MOL0     H69240  10.610   5.305   9.766 -4.7000  0.5055 -0.1695
  502MOL0     H69241  10.484   5.207   9.752 -0.8842  0.7970  2.6586
  502MOL0     H69242  10.746   5.103   9.872  0.0136 -0.6754 -3.4430
  502MOL0     H69243  10.615   5.182   9.966 -1.2238  0.5956 -0.1363
  502MOL0     H69244  10.586   4.928   9.992 -2.0546  1.3376  0.5606
  502MOL0     H69245  10.621   4.906   9.821  0.6188 -1.2336  0.5602
  502MOL0     H69246  10.424   5.001   9.748  0.2391 -2.3349 -1.2621
  502MOL0     H69247  10.361   5.032   9.916  0.2599 -0.5850  0.2114
  502MOL0     H69248  10.400   4.762   9.772  2.7059 -1.0552  2.1471
  502MOL0     H69249  10.401   4.770   9.937  2.6048  1.7207  1.1604
  502MOL0     H69250  10.173   4.863   9.755  0.9444  1.6100 -0.1760
  502MOL0     H69251  10.175   4.896   9.936  0.2413 -0.8229  0.0684
  502MOL0     H69252  10.182   4.659   9.985 -1.1115 -3.0000 -1.0776
  502MOL0     H69253  10.183   4.622   9.811 -2.7382 -0.8361 -0.2911
  502MOL0     H69254   9.957   4.599   9.887  1.4304 -0.8110  3.1431
  502MOL0     H69255   9.963   4.755   9.801  2.9265 -0.0345 -1.6353
  502MOL0     H69256  10.451   5.228   9.477 -2.1300 -1.0457 -2.0710
  502MOL0     H69257  10.296   5.071   9.382 -1.2071 -1.7553  1.1866
  502MOL0     H69258  10.233   4.725   9.144  1.0843 -0.9923  0.6912
  502MOL0     H69259  10.037   4.655   8.986 -5.0659  1.0232  0.3366
  502MOL0     H69260  10.025   3.569   8.652 -2.0972 -0.1054 -1.6865
  502MOL0     H69261  10.243   3.452   8.711  2.8531 -0.2596 -1.6679
  502MOL0     H69262  10.741   3.412   8.499  1.1830 -0.2406 -1.2222
  502MOL0     H69263  10.943   3.307   8.578 -1.6316 -1.3399 -2.6534
  502MOL0     H69264  11.090   3.099   8.913 -1.0174  0.6328  0.5235
  502MOL0     H69265  10.918   3.111   8.987  0.2538  1.2913 -0.0595
  502MOL0     H69266  10.848   2.953   8.783 -0.9942 -0.0072  2.1501
  502MOL0     H69267  10.929   2.890   8.933  3.1946 -0.5509  0.3243
  502MOL0     H69268  11.061   2.963   8.672 -0.4528  0.6237 -0.3629
  502MOL0     H69269  11.138   2.880   8.812 -0.8593  1.1788 -1.0861
  502MOL0     H69270  11.099   2.721   8.637  0.2860 -0.0735  0.7772
  502MOL0     H69271  10.929   2.783   8.632 -0.3920 -1.9327 -1.6948
  502MOL0     H69272  10.898   2.493   8.930  0.7122 -0.4587  0.2751
  502MOL0     H69273  10.725   3.140   8.906 -0.6597 -5.1835 -3.3307
  502MOL0     H69274  10.414   3.299   8.829  0.7933 -0.0825 -2.6463
  502MOL0     H69275  10.463   3.129   8.820  1.3564  0.2550 -1.6300
  502MOL0     H69276  10.511   3.214   8.957  0.5246  1.3935 -0.7095
  503MOL0     O69277   4.789  10.307   1.203  0.6728 -0.3510  0.3536
  503MOL0     C69278   4.728  10.324   1.311  0.4717 -0.6117  1.0809
  503MOL0     O69279   4.773  10.273   1.435 -0.0331 -0.0644  0.6406
  503MOL0     C69280   4.898  10.214   1.437 -0.5782  0.5092  1.1785
  503MOL0     C69281   4.923  10.073   1.454 -0.5658  1.3602  0.1530
  503MOL0     C69282   5.053  10.025   1.445  0.1298 -0.7968  0.7347
  503MOL0     C69283   5.162  10.120   1.425 -0.0746 -0.0084 -0.3826
  503MOL0     O69284   5.290  10.072   1.423 -0.5888  0.3150 -0.2736
  503MOL0     C69285   5.397  10.161   1.407  0.4355 -0.5223 -0.3140
  503MOL0     C69286   5.529  10.086   1.400 -0.1609 -0.7553 -0.1738
  503MOL0     C69287   5.588  10.040   1.534  0.5603 -0.6824  0.8359
  503MOL0     C69288   5.673   9.906   1.521 -0.2645  0.6187  0.6321
  503MOL0     C69289   5.816   9.928   1.468 -0.2381  0.0775 -0.4850
  503MOL0     C69290   5.919  10.001   1.569  0.0374 -1.2121 -0.1490
  503MOL0     C69291   6.061  10.015   1.505  0.1111 -0.7631  0.3490
  503MOL0     C69292   6.053  10.065   1.351 -0.2656  0.4590 -0.6798
  503MOL0     N69293   6.181  10.081   1.299  0.1034 -0.2437  0.0717
  503MOL0     C69294   6.266   9.967   1.290 -0.2162  0.2543 -0.1814
  503MOL0     C69295   6.389  10.032   1.278 -0.1542 -0.2387 -0.7724
  503MOL0     C69296   6.516   9.969   1.242  0.0801  0.0522  0.2635
  503MOL0     C69297   6.565   9.881   1.360  0.0337 -0.2212 -0.2365
  503MOL0     C69298   6.602   9.968   1.483  0.2264 -0.0679  0.4979
  503MOL0     C69299   6.685   9.896   1.587 -0.4689  0.3225  0.4515
  503MOL0     O69300   6.615   9.785   1.649  0.0069  0.1937  0.6627
  503MOL0     C69301   6.675   9.721   1.758 -0.3287 -0.2170  0.6438
  503MOL0     C69302   6.823   9.716   1.777  0.4573 -0.0962 -0.5888
  503MOL0     C69303   6.883   9.642   1.881  0.4432  0.1894 -0.1284
  503MOL0     C69304   7.027   9.627   1.892 -0.4726  0.5373 -0.5305
  503MOL0     C69305   6.797   9.577   1.974  0.2496  0.3484  0.6485
  503MOL0     C69306   6.837   9.479   2.071 -0.0902  0.2601 -0.2562
  503MOL0     O69307   6.957   9.491   2.127  0.6134  0.2552  0.1942
  503MOL0     C69308   7.009   9.392   2.208 -0.3167  0.3908 -0.3097
  503MOL0     C69309   6.939   9.350   2.324  0.6254 -0.2330  0.2467
  503MOL0     C69310   6.980   9.264   2.418 -0.5444 -0.3143  0.0391
  503MOL0     C69311   7.098   9.195   2.386  0.4208  0.2523 -0.2472
  503MOL0     O69312   7.150   9.094   2.465  0.6156 -0.4552  0.0155
  503MOL0     C69313   7.061   8.988   2.515  0.5151 -0.4008  0.5462
  503MOL0     C69314   7.082   8.948   2.655 -1.1044  0.0320 -0.0852
  503MOL0     C69315   7.104   9.070   2.748  0.2399  0.5769 -0.0998
  503MOL0     C69316   7.141   9.031   2.893  0.7106  0.0425  0.2046
  503MOL0     C69317   7.148   9.147   2.998 -0.6625 -0.2108  0.1413
  503MOL0     C69318   7.215   9.272   2.951  0.1440 -0.0072 -0.1924
  503MOL0     C69319   7.176   9.395   3.039  0.2281  0.5422 -0.3081
  503MOL0     C69320   7.036   9.440   2.995  0.1430 -0.0139 -0.8207
  503MOL0    Cl69321   7.054   9.544   2.850 -0.4222 -0.2858  0.1416
  503MOL0     C69322   7.179   9.236   2.276  0.1965 -0.0538 -0.1832
  503MOL0     C69323   7.141   9.343   2.184  0.0002 -0.0428 -0.0673
  503MOL0     O69324   6.769   9.378   2.069 -0.4161 -0.2947 -0.1692
  503MOL0     C69325   6.656   9.591   1.953  0.1418 -0.0764  0.2605
  503MOL0     C69326   6.592   9.663   1.852 -0.9480 -0.0804  0.3110
  503MOL0     N69327   6.377  10.170   1.274  0.6771 -0.3652  0.6078
  503MOL0     N69328   6.251  10.200   1.296  0.5766 -0.0931 -0.2998
  503MOL0     C69329   5.129  10.257   1.417  0.5282 -0.0197  0.1311
  503MOL0     C69330   4.999  10.300   1.415  0.1829  0.0783 -0.3759
  503MOL0     C69331   4.599  10.404   1.307  0.2817  0.3491  0.9329
  503MOL0     C69332   4.568  10.478   1.414 -0.1708  0.3095 -0.0068
  503MOL0     C69333   4.463  10.569   1.401  0.4259  0.2054 -0.0015
  503MOL0     C69334   4.381  10.586   1.293  0.6272  0.0361 -0.7626
  503MOL0     O69335   4.283  10.682   1.306  0.2292  0.2866 -0.2023
  503MOL0     C69336   4.163  10.642   1.233  0.4354  0.7072  0.4836
  503MOL0     C69337   4.103  10.505   1.294 -0.0481 -0.0813  0.5946
  503MOL0     C69338   4.081  10.512   1.441  0.3983 -0.4534  0.2937
  503MOL0     C69339   4.056  10.377   1.515  0.4051  0.2838  0.5661
  503MOL0     C69340   4.024  10.406   1.649  0.2501 -0.2687  0.6694
  503MOL0     C69341   3.989  10.431   1.757  0.3046  0.1684  0.1454
  503MOL0     C69342   4.412  10.507   1.189  0.6953  0.4304  0.4943
  503MOL0     C69343   4.523  10.418   1.187  0.2889  0.3656  0.0948
  503MOL0     C69344   4.541  10.339   1.056  1.2016 -0.5870 -0.1678
  503MOL0     H69345   4.846   9.999   1.474  1.0069 -1.0364 -2.0074
  503MOL0     H69346   5.073   9.918   1.446  4.2358 -0.1746  0.2250
  503MOL0     H69347   5.402  10.240   1.483 -0.7365  3.5840 -4.1054
  503MOL0     H69348   5.371  10.210   1.313 -1.0904 -0.2092  0.2360
  503MOL0     H69349   5.503   9.996   1.345 -1.8491 -0.4615  0.0689
  503MOL0     H69350   5.607  10.129   1.337  2.2298 -2.5023  1.4613
  503MOL0     H69351   5.642  10.122   1.582 -0.0250 -0.4024  1.0262
  503MOL0     H69352   5.507  10.009   1.600 -0.3350 -0.5842 -0.1964
  503MOL0     H69353   5.694   9.861   1.619  2.4997  0.5882  0.1026
  503MOL0     H69354   5.620   9.827   1.466  0.8897  2.4998 -3.5543
  503MOL0     H69355   5.787   9.983   1.378  0.5874  1.4018  0.0293
  503MOL0     H69356   5.863   9.835   1.436  0.7243  0.2858  0.2819
  503MOL0     H69357   5.886  10.103   1.588 -0.1850 -1.6111  1.7940
  503MOL0     H69358   5.929   9.941   1.660 -0.5094 -0.1080  0.6545
  503MOL0     H69359   6.099   9.912   1.501  0.0300 -0.7540 -0.7425
  503MOL0     H69360   6.123  10.078   1.570 -0.0566  1.7288 -1.7524
  503MOL0     H69361   6.000   9.983   1.301  1.8794 -5.1925  4.9500
  503MOL0     H69362   5.999  10.160   1.351 -1.5923 -0.2668 -0.5253
  503MOL0     H69363   6.233   9.864   1.282 -2.7034  1.0950 -1.7446
  503MOL0     H69364   6.592  10.040   1.209  0.5280 -1.0953 -1.3213
  503MOL0     H69365   6.500   9.912   1.150  1.6302  2.0881 -1.3734
  503MOL0     H69366   6.493   9.804   1.388 -0.5892  0.4945  0.1890
  503MOL0     H69367   6.658   9.829   1.336  2.3140  3.2940  0.1109
  503MOL0     H69368   6.656  10.058   1.453 -3.4627  2.0687 -0.4352
  503MOL0     H69369   6.508  10.005   1.526 -0.1154  1.4973 -1.4246
  503MOL0     H69370   6.774   9.863   1.533 -2.6323 -0.3439 -3.0181
  503MOL0     H69371   6.704   9.970   1.665 -0.6739 -0.3529  1.1537
  503MOL0     H69372   6.889   9.749   1.697  1.7701 -3.6580 -1.1473
  503MOL0     H69373   7.062   9.525   1.871  1.4397  0.3091  2.9908
  503MOL0     H69374   7.064   9.649   1.992 -3.1066 -1.5229  1.0265
  503MOL0     H69375   7.075   9.693   1.818  0.3197  1.3230  0.6519
  503MOL0     H69376   6.841   9.393   2.344 -0.4186 -2.7036  0.7446
  503MOL0     H69377   6.913   9.246   2.502  0.1910  0.8101  0.9020
  503MOL0     H69378   6.953   9.007   2.504  0.0623 -2.1894  1.5115
  503MOL0     H69379   7.076   8.903   2.449 -0.9397  0.1653 -0.5741
  503MOL0     H69380   6.998   8.891   2.696 -0.0708 -0.7815  0.9963
  503MOL0     H69381   7.173   8.888   2.661 -0.0086  1.7315  0.8475
  503MOL0     H69382   7.012   9.128   2.756 -1.1629 -1.5774  0.2113
  503MOL0     H69383   7.184   9.130   2.705 -0.2310  0.4252 -1.2238
  503MOL0     H69384   7.237   8.978   2.887 -0.8834 -2.9110 -1.8573
  503MOL0     H69385   7.071   8.957   2.932 -1.7809  0.1236 -3.5838
  503MOL0     H69386   7.042   9.170   3.013 -0.2258  0.9937  1.5353
  503MOL0     H69387   7.190   9.118   3.095 -1.1219  1.1145  0.7595
  503MOL0     H69388   7.194   9.297   2.847  0.9547  0.2218 -0.3120
  503MOL0     H69389   7.322   9.251   2.957  0.5408  2.1049  1.8151
  503MOL0     H69390   7.260   9.463   3.022  0.8788 -0.4473 -1.1894
  503MOL0     H69391   7.172   9.368   3.145  0.7948 -2.3016 -0.9409
  503MOL0     H69392   6.991   9.494   3.078  3.9372  1.4238  0.4848
  503MOL0     H69393   6.968   9.356   2.973  1.6544 -2.2521  2.2921
  503MOL0     H69394   7.271   9.179   2.268  0.3498  0.1693 -0.0306
  503MOL0     H69395   7.213   9.380   2.112  2.3280 -3.5004  0.2662
  503MOL0     H69396   6.591   9.538   2.021 -0.1040 -0.1799 -0.0529
  503MOL0     H69397   6.487   9.654   1.826 -0.1317  0.8409 -4.2139
  503MOL0     H69398   5.205  10.328   1.385 -0.5266  1.7784  1.4092
  503MOL0     H69399   4.974  10.400   1.380  0.7868 -0.6371 -3.1004
  503MOL0     H69400   4.632  10.472   1.502 -0.6559 -2.0078  0.2604
  503MOL0     H69401   4.458  10.627   1.493  1.0142  0.0449  0.1347
  503MOL0     H69402   4.086  10.718   1.243 -2.9114 -2.4320  0.6307
  503MOL0     H69403   4.169  10.640   1.124 -2.6447  2.3957  0.1918
  503MOL0     H69404   4.172  10.422   1.276  1.0036  0.4786  1.9183
  503MOL0     H69405   4.003  10.482   1.256  0.7799  0.1798 -1.9273
  503MOL0     H69406   4.160  10.562   1.497 -0.7893  1.4158  0.4003
  503MOL0     H69407   3.991  10.574   1.452  2.2289  2.1789  1.3890
  503MOL0     H69408   4.144  10.312   1.508 -0.4200 -0.7414 -0.9319
  503MOL0     H69409   3.970  10.324   1.472 -0.1299  3.3162 -2.6528
  503MOL0     H69410   3.953  10.460   1.854 -1.2408 -2.0555  0.3169
  503MOL0     H69411   4.342  10.507   1.106  2.4578  0.8520 -1.0615
  503MOL0     H69412   4.442  10.333   1.010 -0.7094  2.4021  2.9713
  503MOL0     H69413   4.596  10.401   0.986  2.4241 -2.3654 -0.8347
  503MOL0     H69414   4.589  10.242   1.069  0.3713 -1.1287 -1.0236
  504MOL0     O69415   6.581   7.259   2.168 -0.4296 -0.1913  0.5143
  504MOL0     C69416   6.493   7.306   2.242  0.0328  0.8855 -0.5555
  504MOL0     O69417   6.393   7.385   2.209  0.2223  1.0590 -0.0775
  504MOL0     C69418   6.396   7.476   2.107  0.7647  0.3596  0.3200
  504MOL0     C69419   6.277   7.555   2.103 -0.3738  0.1195 -0.9046
  504MOL0     C69420   6.255   7.648   2.008 -0.6892 -0.8202  0.2050
  504MOL0     C69421   6.360   7.692   1.914 -0.4903 -0.5492 -0.7197
  504MOL0     O69422   6.345   7.786   1.805  0.1137  0.1138  0.4292
  504MOL0     C69423   6.240   7.888   1.826  0.0185  0.2142  0.1774
  504MOL0     C69424   6.256   8.001   1.711  0.6019 -0.5467 -0.0180
  504MOL0     C69425   6.161   8.122   1.722 -0.3741 -0.3882  0.2178
  504MOL0     C69426   6.246   8.250   1.747  0.4122 -0.5366  0.5634
  504MOL0     C69427   6.301   8.309   1.616  0.0308 -0.5992  0.6269
  504MOL0     C69428   6.397   8.427   1.636  1.0271 -0.7157  1.0470
  504MOL0     C69429   6.515   8.389   1.715 -0.0914 -0.9457 -0.2821
  504MOL0     C69430   6.635   8.489   1.696  0.0731 -0.1517 -0.6682
  504MOL0     N69431   6.746   8.458   1.789 -0.1368  0.1428 -0.3151
  504MOL0     C69432   6.831   8.348   1.770 -0.6951 -0.2671 -0.5812
  504MOL0     C69433   6.915   8.349   1.877  0.0091  0.0478 -0.4371
  504MOL0     C69434   7.034   8.257   1.915  0.8680  0.6404  1.2411
  504MOL0     C69435   7.141   8.237   1.807  0.6806 -0.3399  0.4996
  504MOL0     C69436   7.262   8.157   1.856  1.0350  0.7357 -0.1955
  504MOL0     C69437   7.351   8.123   1.737  0.0181 -0.0504  0.2448
  504MOL0     O69438   7.464   8.047   1.781  0.9128 -0.5438 -0.2877
  504MOL0     C69439   7.591   8.057   1.720  0.3590 -0.1250  0.0303
  504MOL0     C69440   7.636   8.168   1.643  0.8948  0.7973 -0.6889
  504MOL0     C69441   7.768   8.165   1.606  0.0255  0.0481 -1.3611
  504MOL0     C69442   7.815   8.286   1.529  0.3569 -0.1217 -0.7625
  504MOL0     C69443   7.846   8.044   1.614 -0.3022 -0.2071  0.3420
  504MOL0     C69444   7.976   8.033   1.553 -0.1948  0.0347  0.6268
  504MOL0     O69445   8.011   7.908   1.506 -0.1346 -0.3425  0.2044
  504MOL0     C69446   8.144   7.894   1.497 -0.0862  1.0137  0.5730
  504MOL0     C69447   8.196   7.889   1.363  0.1979 -0.9333 -0.4222
  504MOL0     C69448   8.326   7.875   1.340 -0.9096 -1.1300 -0.1790
  504MOL0     C69449   8.423   7.877   1.448 -0.1150 -0.2616  0.5161
  504MOL0     O69450   8.558   7.871   1.433 -0.1732  0.0295  0.1574
  504MOL0     C69451   8.609   7.847   1.299 -0.6089  0.2080 -0.5307
  504MOL0     C69452   8.756   7.856   1.312  0.3623  0.0083 -0.2913
  504MOL0     C69453   8.823   7.821   1.185  0.6278  0.2014  0.6628
  504MOL0     C69454   8.972   7.822   1.198 -1.0360  0.3586  0.5058
  504MOL0     C69455   9.028   7.833   1.059  0.9805 -0.2939 -0.2821
  504MOL0     C69456   9.178   7.832   1.055 -0.1468 -0.2104  0.3523
  504MOL0     C69457   9.245   7.701   1.096 -0.3688 -0.3025 -0.8983
  504MOL0     C69458   9.396   7.691   1.081  0.5188  0.3080  0.6325
  504MOL0    Cl69459   9.477   7.804   1.186 -0.3293 -0.3262 -0.6679
  504MOL0     C69460   8.368   7.886   1.571 -0.0955 -0.4087 -0.2536
  504MOL0     C69461   8.231   7.889   1.599 -0.2776 -0.5193  0.4794
  504MOL0     O69462   8.052   8.136   1.555  0.0096 -0.2874 -0.3084
  504MOL0     C69463   7.797   7.945   1.693 -1.2664  0.7582 -0.0559
  504MOL0     C69464   7.667   7.948   1.749 -0.3210 -0.1409 -0.1876
  504MOL0     N69465   6.881   8.464   1.952 -0.0071 -0.1690  0.2149
  504MOL0     N69466   6.780   8.523   1.905 -0.0265  0.9489 -1.4187
  504MOL0     C69467   6.480   7.616   1.927 -0.1944  0.3271 -0.1725
  504MOL0     C69468   6.504   7.508   2.021  0.9772  0.4110  0.0827
  504MOL0     C69469   6.466   7.246   2.377  0.5526 -0.7138  0.9297
  504MOL0     C69470   6.332   7.221   2.418 -0.0364  1.1946 -0.6126
  504MOL0     C69471   6.309   7.151   2.530 -0.5030 -0.2486  0.6642
  504MOL0     C69472   6.407   7.114   2.614 -1.0963 -0.3715 -0.2872
  504MOL0     O69473   6.389   7.048   2.733  0.3071  0.1772 -0.4374
  504MOL0     C69474   6.259   6.974   2.752  0.1909 -0.5706 -0.2331
  504MOL0     C69475   6.153   7.064   2.807  0.5504 -0.4362  0.2536
  504MOL0     C69476   6.013   7.006   2.803  0.4452  0.3248 -0.8008
  504MOL0     C69477   5.903   7.105   2.862  0.7516 -0.3043 -0.9061
  504MOL0     C69478   5.782   7.030   2.883  0.8152 -0.1645  0.2723
  504MOL0     C69479   5.689   6.956   2.904  0.6029 -0.9008 -0.6678
  504MOL0     C69480   6.542   7.156   2.583  0.0496 -0.0191 -0.6706
  504MOL0     C69481   6.566   7.216   2.463  0.5609 -0.7143  0.0563
  504MOL0     C69482   6.704   7.273   2.435  0.1217 -0.9642  0.9120
  504MOL0     H69483   6.197   7.531   2.172 -0.8722 -1.3802 -1.9481
  504MOL0     H69484   6.166   7.710   2.017 -0.0716 -0.2284  3.2662
  504MOL0     H69485   6.234   7.936   1.924 -3.1362 -0.2303  0.3151
  504MOL0     H69486   6.140   7.843   1.824 -0.0253  0.1615  2.2589
  504MOL0     H69487   6.360   8.036   1.704  0.7049 -0.2903  2.0020
  504MOL0     H69488   6.232   7.959   1.614  1.9818  1.6322 -1.4049
  504MOL0     H69489   6.095   8.137   1.636  2.3502 -1.8241 -2.3144
  504MOL0     H69490   6.107   8.103   1.815 -1.3129 -3.7749 -0.8796
  504MOL0     H69491   6.182   8.328   1.789  0.5097 -0.3467  0.3673
  504MOL0     H69492   6.326   8.229   1.818 -0.0393 -2.1836  0.6204
  504MOL0     H69493   6.213   8.322   1.553 -0.5727  1.1952  1.7581
  504MOL0     H69494   6.362   8.232   1.568  1.0601 -0.1472  1.1762
  504MOL0     H69495   6.436   8.471   1.544 -0.3969 -1.7023 -0.0867
  504MOL0     H69496   6.356   8.508   1.697  3.4162 -0.6179  2.6395
  504MOL0     H69497   6.551   8.292   1.680  2.2522  0.9000 -3.4162
  504MOL0     H69498   6.492   8.384   1.822  1.9681  0.9566  0.3296
  504MOL0     H69499   6.674   8.477   1.595  0.7799 -2.1134 -0.2132
  504MOL0     H69500   6.602   8.590   1.725 -2.6033 -1.1827  0.1612
  504MOL0     H69501   6.831   8.289   1.679  0.0735  1.5809 -1.8514
  504MOL0     H69502   6.987   8.160   1.935  1.0626 -0.2112 -1.9205
  504MOL0     H69503   7.084   8.291   2.006  1.8637  0.6369  0.6990
  504MOL0     H69504   7.096   8.169   1.735  1.3669 -0.2742  0.0016
  504MOL0     H69505   7.178   8.324   1.754 -0.8088 -0.1848 -0.3235
  504MOL0     H69506   7.323   8.223   1.918 -0.7530 -1.1736  4.0202
  504MOL0     H69507   7.228   8.068   1.910 -1.2033  1.5682 -0.1400
  504MOL0     H69508   7.299   8.065   1.660  0.7379  0.1972 -0.4431
  504MOL0     H69509   7.378   8.214   1.682 -0.5409  1.4341  2.3031
  504MOL0     H69510   7.571   8.253   1.625  1.0919  0.7940 -1.4153
  504MOL0     H69511   7.739   8.365   1.521  1.8473  1.6617  1.3271
  504MOL0     H69512   7.854   8.253   1.432  0.3440 -0.3417 -0.6924
  504MOL0     H69513   7.901   8.324   1.585  0.2868  2.6216 -2.3247
  504MOL0     H69514   8.121   7.890   1.285 -1.9372  1.7015  1.4195
  504MOL0     H69515   8.359   7.863   1.237 -1.6995  0.2062 -0.6108
  504MOL0     H69516   8.585   7.749   1.256  0.6729 -0.7692  0.8858
  504MOL0     H69517   8.577   7.935   1.242  2.5104  4.1182  3.0656
  504MOL0     H69518   8.792   7.952   1.351  2.1299 -1.3591  1.6790
  504MOL0     H69519   8.793   7.781   1.383  0.1244 -1.3966 -1.6134
  504MOL0     H69520   8.792   7.884   1.102  2.0742 -2.9440 -2.5159
  504MOL0     H69521   8.792   7.721   1.153  0.0661  0.5361  0.1452
  504MOL0     H69522   8.992   7.723   1.239 -0.9137 -0.3831 -1.2954
  504MOL0     H69523   9.018   7.909   1.248 -0.1644  1.7340 -2.4774
  504MOL0     H69524   8.979   7.750   1.007 -1.7316 -0.8012  2.7331
  504MOL0     H69525   8.993   7.926   1.013  0.5327  0.2919  1.1697
  504MOL0     H69526   9.215   7.906   1.126  0.0116 -1.1725  1.3024
  504MOL0     H69527   9.216   7.853   0.955  0.6324 -2.7778  0.0283
  504MOL0     H69528   9.204   7.617   1.039 -0.6437 -0.1438 -0.9329
  504MOL0     H69529   9.223   7.689   1.203  1.0947 -0.9006 -0.6340
  504MOL0     H69530   9.431   7.705   0.978  1.1967 -0.6737  0.7161
  504MOL0     H69531   9.437   7.592   1.102  1.0073  0.8510  2.3578
  504MOL0     H69532   8.446   7.885   1.647 -0.3075 -1.2408 -0.0297
  504MOL0     H69533   8.199   7.909   1.701  0.3866  0.6805  0.4626
  504MOL0     H69534   7.868   7.864   1.707 -0.0135  1.7537 -0.5839
  504MOL0     H69535   7.625   7.867   1.807 -0.9972 -0.9431 -1.7323
  504MOL0     H69536   6.559   7.639   1.856 -0.3889 -0.4479 -0.6504
  504MOL0     H69537   6.585   7.436   2.010 -1.7345 -2.6577 -1.6813
  504MOL0     H69538   6.241   7.255   2.370 -0.3544  0.6092 -0.4351
  504MOL0     H69539   6.206   7.125   2.553 -0.8816 -0.1997 -0.8265
  504MOL0     H69540   6.231   6.932   2.655  1.0132 -2.4481  0.2927
  504MOL0     H69541   6.266   6.891   2.823 -0.8368  0.4534  1.1352
  504MOL0     H69542   6.151   7.164   2.762  1.8624 -0.4129  0.2113
  504MOL0     H69543   6.180   7.075   2.913 -1.1821 -1.8254  0.8867
  504MOL0     H69544   6.005   6.986   2.696  2.0225  0.7665 -1.0275
  504MOL0     H69545   6.010   6.915   2.864 -2.3814  1.7755  1.4876
  504MOL0     H69546   5.898   7.198   2.805  3.5244  0.6147  0.2136
  504MOL0     H69547   5.938   7.141   2.959  3.2852 -2.6114 -0.8307
  504MOL0     H69548   5.605   6.896   2.936 -0.9350  1.6299  0.3212
  504MOL0     H69549   6.620   7.134   2.655 -2.5906  1.0816  2.8202
  504MOL0     H69550   6.693   7.373   2.393  0.9273 -0.9355  0.7534
  504MOL0     H69551   6.765   7.297   2.522  1.1514 -0.7185  0.1486
  504MOL0     H69552   6.766   7.211   2.369  0.8048 -0.2730  0.8875
  505MOL0     O69553   6.772   0.979   9.825 -0.4599  0.5573  0.0699
  505MOL0     C69554   6.794   1.072   9.899 -1.3316 -0.2348 -0.1908
  505MOL0     O69555   6.918   1.138   9.914 -0.4176  0.4140  0.2584
  505MOL0     C69556   7.017   1.126   9.816  0.5972 -0.3663 -0.3669
  505MOL0     C69557   6.984   1.111   9.679  0.2977  0.1918 -0.1139
  505MOL0     C69558   7.092   1.096   9.586  0.1642  0.1786  0.3578
  505MOL0     C69559   7.222   1.116   9.625 -0.0603 -0.7074 -0.3523
  505MOL0     O69560   7.323   1.095   9.540 -0.3133  0.6583  0.1927
  505MOL0     C69561   7.393   0.968   9.567  0.2921 -0.2087 -0.4346
  505MOL0     C69562   7.544   1.012   9.587  0.8247 -0.2157 -0.7202
  505MOL0     C69563   7.615   1.050   9.456 -0.0052 -0.9107  1.0635
  505MOL0     C69564   7.771   1.054   9.490 -0.5933 -0.5541  0.2399
  505MOL0     C69565   7.832   1.158   9.385  0.4323 -0.3892  0.7735
  505MOL0     C69566   7.989   1.141   9.381 -0.2875 -0.2248  0.1503
  505MOL0     C69567   8.051   1.169   9.521  0.0716 -0.5886  0.6112
  505MOL0     C69568   8.204   1.131   9.515  0.1045  0.7782 -0.4625
  505MOL0     N69569   8.285   1.236   9.456  0.3667  0.0751 -0.3026
  505MOL0     C69570   8.333   1.243   9.326  0.2799  0.5078 -0.3722
  505MOL0     C69571   8.399   1.360   9.326 -0.0846  0.1632 -0.1422
  505MOL0     C69572   8.497   1.415   9.215 -0.0910 -0.8165 -0.4042
  505MOL0     C69573   8.620   1.325   9.192  1.5287 -0.0567 -0.3153
  505MOL0     C69574   8.728   1.338   9.301  0.1163 -0.0579  1.2709
  505MOL0     C69575   8.778   1.481   9.308  0.9390 -1.2062 -0.1053
  505MOL0     O69576   8.823   1.524   9.182  0.3710 -0.2434  0.2506
  505MOL0     C69577   8.951   1.490   9.144  0.1869  0.9443 -0.3027
  505MOL0     C69578   8.964   1.485   9.004 -0.5634 -0.6518 -0.6643
  505MOL0     C69579   9.089   1.440   8.943  0.7735  1.3203 -0.7637
  505MOL0     C69580   9.097   1.467   8.793 -0.5416 -0.1705  0.1021
  505MOL0     C69581   9.197   1.382   9.021  0.3594 -0.6713 -0.8896
  505MOL0     C69582   9.329   1.338   8.972 -0.0202  0.0872  0.4510
  505MOL0     O69583   9.348   1.303   8.843 -0.2794 -0.1232  0.3298
  505MOL0     C69584   9.469   1.255   8.803 -0.6665  0.3218  0.7621
  505MOL0     C69585   9.500   1.128   8.846 -0.0956  0.8282 -1.3417
  505MOL0     C69586   9.620   1.073   8.810  0.1510  0.3180  0.1466
  505MOL0     C69587   9.711   1.147   8.722  0.0805  0.1699 -0.6726
  505MOL0     O69588   9.832   1.106   8.685  0.2855 -0.0222  0.6291
  505MOL0     C69589   9.842   0.962   8.687 -0.7580 -0.3823  0.1367
  505MOL0     C69590   9.965   0.911   8.618  0.7996 -1.4844  1.0465
  505MOL0     C69591   9.933   0.797   8.517 -1.2349  0.3416  0.5065
  505MOL0     C69592   9.953   0.661   8.582  0.1888 -0.1534  0.6759
  505MOL0     C69593   9.913   0.556   8.486 -0.4659 -1.2640  0.1239
  505MOL0     C69594   9.955   0.417   8.534  0.6775 -0.1942  0.1057
  505MOL0     C69595   9.924   0.307   8.432  0.3076  0.2496 -0.2473
  505MOL0     C69596   9.965   0.167   8.473 -0.1654 -0.1068  0.3199
  505MOL0    Cl69597  10.140   0.174   8.501 -0.2140 -0.4391 -0.1399
  505MOL0     C69598   9.668   1.274   8.679 -0.3933  0.7982  0.9006
  505MOL0     C69599   9.552   1.335   8.727 -0.5642 -0.7281  0.1054
  505MOL0     O69600   9.422   1.328   9.053  0.7138  0.1108  0.0431
  505MOL0     C69601   9.170   1.384   9.163  0.4595  0.1869  0.4945
  505MOL0     C69602   9.056   1.436   9.223  0.7915 -0.6409 -0.4193
  505MOL0     N69603   8.392   1.418   9.452 -0.2121 -0.4511  0.5240
  505MOL0     N69604   8.329   1.344   9.533 -0.1622  0.2751  0.4352
  505MOL0     C69605   7.249   1.132   9.762  0.2506  0.0589  0.1137
  505MOL0     C69606   7.146   1.145   9.857 -0.2304  0.0441 -0.0170
  505MOL0     C69607   6.688   1.123   9.989  0.2956 -0.4436  1.2092
  505MOL0     C69608   6.716   1.181  10.111 -0.2513  0.8087 -0.0598
  505MOL0     C69609   6.617   1.202  10.207 -0.0731  0.0776 -0.5986
  505MOL0     C69610   6.488   1.179  10.174  0.2868  0.7140  0.3585
  505MOL0     O69611   6.402   1.185  10.287 -1.1114 -0.4648  0.7775
  505MOL0     C69612   6.266   1.143  10.270  0.5612  0.4247 -0.1660
  505MOL0     C69613   6.204   1.158  10.414 -0.4621  0.0463  0.2575
  505MOL0     C69614   6.053   1.170  10.414  0.3158  0.5950 -0.3018
  505MOL0     C69615   5.999   1.081  10.529  0.0287  0.3735 -0.3901
  505MOL0     C69616   5.855   1.109  10.567 -1.1182  0.3184 -0.2612
  505MOL0     C69617   5.737   1.129  10.580 -0.7203  0.2472 -0.2548
  505MOL0     C69618   6.451   1.145  10.047  0.3402 -0.1720  1.5353
  505MOL0     C69619   6.551   1.119   9.952 -0.2899 -0.2679 -0.2471
  505MOL0     C69620   6.517   1.090   9.809  0.6027 -0.1037 -0.4230
  505MOL0     H69621   6.882   1.109   9.642 -0.2039  1.1449  1.1133
  505MOL0     H69622   7.062   1.065   9.487  0.6493  1.0655 -0.0823
  505MOL0     H69623   7.387   0.901   9.481 -0.0557 -0.9562  0.1639
  505MOL0     H69624   7.352   0.919   9.656 -0.0985  0.9975  0.0807
  505MOL0     H69625   7.561   1.084   9.668  1.6420 -0.4735 -0.6520
  505MOL0     H69626   7.598   0.930   9.636  4.0139  2.2093  0.1268
  505MOL0     H69627   7.605   0.968   9.384  1.6738 -3.9322  3.9540
  505MOL0     H69628   7.577   1.147   9.423 -1.9423 -0.6725  3.6896
  505MOL0     H69629   7.786   1.102   9.587  3.6199 -1.3351  0.1356
  505MOL0     H69630   7.823   0.957   9.488  1.3369  0.4401  0.0158
  505MOL0     H69631   7.805   1.261   9.413 -0.4033  0.4946 -2.7389
  505MOL0     H69632   7.783   1.142   9.289  1.2166  0.6664  0.1731
  505MOL0     H69633   8.011   1.036   9.362  2.3113  0.5775 -1.9240
  505MOL0     H69634   8.046   1.197   9.306  0.0410 -0.8491 -0.0658
  505MOL0     H69635   7.991   1.123   9.600 -2.6062  1.6183  0.0469
  505MOL0     H69636   8.043   1.277   9.539  1.8487 -0.4503  0.6900
  505MOL0     H69637   8.240   1.117   9.617  3.2791 -0.2440 -1.5840
  505MOL0     H69638   8.223   1.033   9.469 -1.3652 -0.4907  1.5045
  505MOL0     H69639   8.342   1.167   9.250  1.2897 -1.3116  1.4646
  505MOL0     H69640   8.518   1.522   9.222  0.3009 -0.9037 -0.2185
  505MOL0     H69641   8.438   1.399   9.124 -1.2945  3.6995 -0.6675
  505MOL0     H69642   8.587   1.221   9.194 -0.0940  0.4382  1.9447
  505MOL0     H69643   8.656   1.348   9.091 -0.2735 -0.6698 -1.1479
  505MOL0     H69644   8.701   1.305   9.402  0.2449  2.0335  2.0260
  505MOL0     H69645   8.810   1.270   9.275  0.0157  0.3514 -0.1987
  505MOL0     H69646   8.705   1.548   9.355  2.1147 -0.1418  0.2569
  505MOL0     H69647   8.858   1.492   9.382  0.1714  0.5473  0.5200
  505MOL0     H69648   8.897   1.526   8.928  0.2130  0.8918 -0.5569
  505MOL0     H69649   9.016   1.420   8.737 -1.2550  1.8747 -0.7119
  505MOL0     H69650   9.193   1.436   8.752  0.0793 -1.1924  2.2410
  505MOL0     H69651   9.098   1.574   8.767  1.1819 -0.4938 -1.3193
  505MOL0     H69652   9.428   1.077   8.909  1.6664 -1.2570 -0.8739
  505MOL0     H69653   9.639   0.980   8.861  0.6634  0.7190  0.7020
  505MOL0     H69654   9.861   0.924   8.788  1.3801  1.2977  0.4455
  505MOL0     H69655   9.751   0.912   8.651 -1.4003 -0.5364  1.8684
  505MOL0     H69656  10.010   0.996   8.567  1.8344 -0.7828  3.0399
  505MOL0     H69657  10.049   0.882   8.682  0.7091  0.6911  2.2647
  505MOL0     H69658   9.998   0.802   8.429  1.0868  1.0000  2.1516
  505MOL0     H69659   9.829   0.809   8.485 -0.8430  2.2028 -0.2662
  505MOL0     H69660   9.892   0.639   8.670 -0.0976 -2.1116  0.0515
  505MOL0     H69661  10.052   0.647   8.625  0.2003 -0.1321  0.6566
  505MOL0     H69662   9.806   0.547   8.467 -0.3740  0.6920 -1.7377
  505MOL0     H69663   9.956   0.563   8.385 -1.2010  2.1758 -0.0811
  505MOL0     H69664   9.897   0.386   8.622  0.4779  2.4445  0.9834
  505MOL0     H69665  10.062   0.417   8.555  0.4770 -2.0205  1.3340
  505MOL0     H69666   9.971   0.338   8.338  1.6592 -1.2048 -0.0946
  505MOL0     H69667   9.816   0.314   8.417 -0.0922 -0.9097  1.7786
  505MOL0     H69668   9.943   0.091   8.398 -2.8599  0.6473  0.2472
  505MOL0     H69669   9.921   0.146   8.571  0.3765  0.9822  0.8214
  505MOL0     H69670   9.734   1.333   8.616  0.4928 -0.0482  1.0120
  505MOL0     H69671   9.522   1.433   8.692  0.9256 -0.9241 -1.9419
  505MOL0     H69672   9.251   1.350   9.227  1.3252 -1.4230 -1.3364
  505MOL0     H69673   9.061   1.436   9.332 -0.4777  0.1787 -0.3383
  505MOL0     H69674   7.349   1.157   9.794 -0.3672 -1.4588  3.6641
  505MOL0     H69675   7.159   1.171   9.961 -0.9377  0.9198 -0.1341
  505MOL0     H69676   6.819   1.206  10.133 -0.0539  0.6809 -0.8225
  505MOL0     H69677   6.647   1.220  10.310 -0.5222 -1.6802 -0.1143
  505MOL0     H69678   6.212   1.213  10.206  0.5513  0.0865 -0.5245
  505MOL0     H69679   6.239   1.043  10.238  0.2594  0.6578 -0.6529
  505MOL0     H69680   6.249   1.250  10.453 -3.9369  0.6715  3.2977
  505MOL0     H69681   6.248   1.077  10.472 -0.4395  0.4549  0.8199
  505MOL0     H69682   6.030   1.276  10.425  1.7466  0.6992  2.8926
  505MOL0     H69683   6.006   1.142  10.320  0.2252  2.4141 -0.8409
  505MOL0     H69684   6.059   1.089  10.620 -0.2604 -1.0165 -0.0602
  505MOL0     H69685   6.004   0.979  10.491 -0.0458 -1.3064  3.5898
  505MOL0     H69686   5.630   1.134  10.590 -0.5859 -0.5017  1.9701
  505MOL0     H69687   6.349   1.126  10.015  0.8701 -0.7803  0.1076
  505MOL0     H69688   6.568   1.161   9.743  0.0294 -0.6213 -1.4236
  505MOL0     H69689   6.545   0.992   9.770  1.4901 -0.8025  1.7859
  505MOL0     H69690   6.412   1.112   9.790 -0.1691 -0.3010  2.9395
  506MOL0     O69691   5.286   0.764   6.643 -0.1007 -0.0870  0.0500
  506MOL0     C69692   5.197   0.687   6.687 -0.2796  0.1529 -1.0391
  506MOL0     O69693   5.198   0.544   6.677 -0.3110  0.3013  0.2413
  506MOL0     C69694   5.307   0.454   6.654 -0.3515  0.1977  0.1335
  506MOL0     C69695   5.440   0.496   6.633  0.3211 -0.2368 -0.3316
  506MOL0     C69696   5.547   0.410   6.611  0.5459  0.6497  0.2565
  506MOL0     C69697   5.526   0.269   6.618  1.1537 -1.0622  0.2494
  506MOL0     O69698   5.620   0.169   6.610  0.0272 -0.3082  0.0906
  506MOL0     C69699   5.726   0.188   6.510 -0.1636  0.3266 -0.1784
  506MOL0     C69700   5.851   0.164   6.584 -0.2693 -0.0952  0.1820
  506MOL0     C69701   5.880   0.023   6.606 -0.1784  0.1937  0.4054
  506MOL0     C69702   6.021  -0.002   6.660  0.5485 -0.4963  0.0697
  506MOL0     C69703   6.033  -0.160   6.686  0.8763 -0.7965 -0.1836
  506MOL0     C69704   6.173  -0.195   6.734 -0.4237  0.3486  0.0096
  506MOL0     C69705   6.197  -0.342   6.767  0.3281 -0.2038  0.5004
  506MOL0     C69706   6.308  -0.411   6.689  0.2395 -0.6231 -0.3919
  506MOL0     N69707   6.437  -0.354   6.736  0.2875  0.0014  0.2127
  506MOL0     C69708   6.486  -0.337   6.864  0.5855 -0.0299  0.2321
  506MOL0     C69709   6.614  -0.308   6.850 -0.3878 -0.1336 -0.1272
  506MOL0     C69710   6.695  -0.329   6.972 -0.2590 -0.4349  0.7019
  506MOL0     C69711   6.842  -0.365   6.943 -0.3187  0.4093 -0.2522
  506MOL0     C69712   6.933  -0.239   6.965  0.3963 -0.6855  0.2352
  506MOL0     C69713   7.076  -0.266   6.915  0.6653 -0.4385  0.2719
  506MOL0     O69714   7.159  -0.157   6.937  0.2492 -0.1342 -0.0292
  506MOL0     C69715   7.297  -0.164   6.938 -0.1680  0.1991  0.6481
  506MOL0     C69716   7.352  -0.041   6.922  0.4446  0.3883 -0.0815
  506MOL0     C69717   7.480  -0.005   6.902  0.3806  0.8344 -0.2738
  506MOL0     C69718   7.516   0.136   6.876 -0.0991 -0.7208  0.3408
  506MOL0     C69719   7.575  -0.117   6.900 -1.4183 -0.5598  0.4052
  506MOL0     C69720   7.726  -0.094   6.878 -0.1619 -0.4969  0.0166
  506MOL0     O69721   7.795  -0.208   6.868  0.1973  0.5575  0.4763
  506MOL0     C69722   7.933  -0.202   6.861  0.6795 -0.0970 -0.6637
  506MOL0     C69723   8.008  -0.258   6.966  0.6396  0.1808  0.1209
  506MOL0     C69724   8.145  -0.265   6.954 -0.0240 -0.8719 -0.5039
  506MOL0     C69725   8.208  -0.221   6.840  0.2141 -0.1953  0.8152
  506MOL0     O69726   8.340  -0.224   6.821 -0.2639  0.1573 -0.3097
  506MOL0     C69727   8.437  -0.293   6.914 -0.2621 -0.8713 -0.2808
  506MOL0     C69728   8.565  -0.348   6.851  0.5589  0.4220  0.8344
  506MOL0     C69729   8.635  -0.248   6.745  0.3111 -0.6059 -0.1680
  506MOL0     C69730   8.741  -0.320   6.658 -0.0521 -0.1692 -0.3260
  506MOL0     C69731   8.674  -0.413   6.559  0.6660  0.1703  1.1638
  506MOL0     C69732   8.764  -0.481   6.460 -0.2217  0.9529  0.1121
  506MOL0     C69733   8.687  -0.599   6.395 -0.0146  0.5186 -0.0457
  506MOL0     C69734   8.785  -0.697   6.325  0.2139 -0.3151 -0.1315
  506MOL0    Cl69735   8.888  -0.784   6.438 -0.1326  0.4346 -0.2726
  506MOL0     C69736   8.132  -0.180   6.732 -0.2506  0.1195 -0.5150
  506MOL0     C69737   7.997  -0.161   6.745  1.1859 -0.0090  1.2442
  506MOL0     O69738   7.779   0.023   6.884  0.5393 -0.3305  0.3325
  506MOL0     C69739   7.533  -0.249   6.934 -0.6273  0.2769 -0.1806
  506MOL0     C69740   7.389  -0.268   6.945 -0.2252 -0.4556  0.8808
  506MOL0     N69741   6.643  -0.284   6.718 -0.2679 -0.4403 -0.3046
  506MOL0     N69742   6.537  -0.319   6.652  0.0613 -0.6868 -0.1556
  506MOL0     C69743   5.391   0.225   6.627 -0.6554  0.0550  0.3900
  506MOL0     C69744   5.284   0.316   6.646 -0.2696 -0.1182  0.4645
  506MOL0     C69745   5.078   0.742   6.756  0.0326  0.7278  0.4798
  506MOL0     C69746   4.977   0.649   6.803  0.4214  0.0773  0.0024
  506MOL0     C69747   4.848   0.684   6.843  0.9106  0.5149 -0.0298
  506MOL0     C69748   4.815   0.817   6.836 -0.2487  0.0357 -0.8999
  506MOL0     O69749   4.689   0.844   6.886 -0.2810 -0.2881 -0.3555
  506MOL0     C69750   4.640   0.978   6.899  0.0537  0.3728 -0.4710
  506MOL0     C69751   4.513   0.988   6.983 -0.5943  0.3900 -0.2670
  506MOL0     C69752   4.526   0.953   7.134  0.0491  0.0087  0.3783
  506MOL0     C69753   4.409   0.870   7.194 -0.2600  0.1491  0.8002
  506MOL0     C69754   4.446   0.848   7.329 -0.4437  0.3120  0.1679
  506MOL0     C69755   4.472   0.839   7.448 -0.8133  0.5302  0.2787
  506MOL0     C69756   4.901   0.914   6.793 -0.6613 -0.5848 -1.0517
  506MOL0     C69757   5.034   0.872   6.759 -1.0468 -0.0199 -0.6276
  506MOL0     C69758   5.137   0.975   6.725  0.2876  0.3241 -0.3036
  506MOL0     H69759   5.458   0.603   6.632 -0.5386 -0.0737  0.2690
  506MOL0     H69760   5.645   0.456   6.605  1.1182 -0.6904 -1.5893
  506MOL0     H69761   5.738   0.287   6.464  3.0775 -0.3300 -0.9820
  506MOL0     H69762   5.721   0.112   6.431 -1.4329 -2.2404  2.1766
  506MOL0     H69763   5.927   0.211   6.520 -2.3741  3.3833  0.0390
  506MOL0     H69764   5.857   0.217   6.679  0.1719 -1.1867  0.7833
  506MOL0     H69765   5.808  -0.002   6.685 -0.0933  1.2756  0.8375
  506MOL0     H69766   5.850  -0.035   6.518 -1.5525  1.8229 -0.2657
  506MOL0     H69767   6.093   0.040   6.590  1.4389  0.3964  1.4696
  506MOL0     H69768   6.031   0.045   6.759 -2.1963 -1.1740  0.7554
  506MOL0     H69769   5.999  -0.223   6.603  1.0432 -1.4767  0.2501
  506MOL0     H69770   5.970  -0.184   6.773 -0.3977  2.4926 -0.0607
  506MOL0     H69771   6.241  -0.171   6.652 -1.1233 -0.8068 -0.9361
  506MOL0     H69772   6.199  -0.132   6.820 -2.1024  3.7410 -1.7744
  506MOL0     H69773   6.106  -0.401   6.751  1.5207 -1.8178 -0.7924
  506MOL0     H69774   6.218  -0.353   6.874  2.6256 -1.4693 -0.0180
  506MOL0     H69775   6.310  -0.515   6.723 -2.6018 -0.5735  0.1434
  506MOL0     H69776   6.304  -0.416   6.580 -0.2580 -0.3079 -0.3913
  506MOL0     H69777   6.447  -0.375   6.958 -2.6602 -0.5545 -1.1932
  506MOL0     H69778   6.659  -0.421   7.020 -0.2333  0.0258  1.6292
  506MOL0     H69779   6.680  -0.247   7.042 -0.5469 -0.2227  0.3973
  506MOL0     H69780   6.871  -0.446   7.011 -1.7384 -1.3118 -1.5937
  506MOL0     H69781   6.853  -0.412   6.845 -0.5910 -2.4294  0.9716
  506MOL0     H69782   6.897  -0.155   6.905 -1.2036 -0.9883  0.7487
  506MOL0     H69783   6.943  -0.203   7.067 -0.1004 -0.8859  0.3553
  506MOL0     H69784   7.111  -0.356   6.968  0.1130 -0.1761  1.0941
  506MOL0     H69785   7.064  -0.284   6.808 -0.1625  2.7145 -0.2478
  506MOL0     H69786   7.279   0.039   6.918  1.9026  1.7241 -1.3042
  506MOL0     H69787   7.428   0.200   6.865  0.5612 -0.0590 -1.4273
  506MOL0     H69788   7.568   0.142   6.780 -0.7854  3.3399  0.0516
  506MOL0     H69789   7.590   0.168   6.949  0.3831 -1.7053  0.3042
  506MOL0     H69790   7.951  -0.294   7.051 -2.3179  1.5896 -1.1257
  506MOL0     H69791   8.210  -0.308   7.030  2.1865  0.9823 -1.2509
  506MOL0     H69792   8.471  -0.232   6.998  1.0274 -1.2138 -0.5319
  506MOL0     H69793   8.381  -0.376   6.957 -0.8223 -1.5766 -2.2895
  506MOL0     H69794   8.632  -0.388   6.927  1.7825 -2.4198 -1.5206
  506MOL0     H69795   8.539  -0.438   6.793  1.0757  0.0807  1.1297
  506MOL0     H69796   8.685  -0.170   6.803 -1.1554  0.3265 -0.0880
  506MOL0     H69797   8.562  -0.211   6.673  3.3509  2.4008 -1.9474
  506MOL0     H69798   8.808  -0.372   6.728 -0.1346 -0.8668 -0.7507
  506MOL0     H69799   8.803  -0.251   6.601  1.3106 -0.9898  0.1101
  506MOL0     H69800   8.614  -0.492   6.605 -0.5031 -0.9303 -2.0224
  506MOL0     H69801   8.599  -0.357   6.503  1.0194 -0.7726 -0.2968
  506MOL0     H69802   8.847  -0.514   6.524 -0.6700 -0.2764  0.0876
  506MOL0     H69803   8.811  -0.414   6.387  1.3931 -0.5716 -0.2981
  506MOL0     H69804   8.610  -0.551   6.334  1.4874  4.0503  0.5705
  506MOL0     H69805   8.639  -0.666   6.467  0.3881  1.0989  0.7823
  506MOL0     H69806   8.847  -0.648   6.250  2.3819  0.2348  1.8849
  506MOL0     H69807   8.720  -0.766   6.270 -1.3869 -0.8376  2.2568
  506MOL0     H69808   8.191  -0.146   6.647  3.5742 -0.8376  1.5493
  506MOL0     H69809   7.949  -0.126   6.654  1.2799 -0.1040  1.1572
  506MOL0     H69810   7.601  -0.334   6.941 -0.6084  0.3431  0.4776
  506MOL0     H69811   7.366  -0.373   6.962  2.4671 -1.0647  1.2281
  506MOL0     H69812   5.360   0.122   6.616  2.6784 -0.9457 -0.8928
  506MOL0     H69813   5.186   0.273   6.661 -0.4031 -0.8879 -2.1125
  506MOL0     H69814   4.994   0.543   6.815 -2.0667 -0.4404 -0.5283
  506MOL0     H69815   4.773   0.613   6.876 -0.1680  1.8069  0.3588
  506MOL0     H69816   4.706   1.057   6.938 -0.5238  1.6147 -1.9003
  506MOL0     H69817   4.611   1.024   6.804  2.0400  2.8852 -0.0058
  506MOL0     H69818   4.435   0.934   6.928  0.4146 -0.3315 -1.0228
  506MOL0     H69819   4.478   1.091   6.972 -2.9958 -0.2495  0.6663
  506MOL0     H69820   4.621   0.901   7.149  1.5749  2.1964 -1.0794
  506MOL0     H69821   4.530   1.046   7.190  0.1325 -1.4317  2.8905
  506MOL0     H69822   4.395   0.772   7.146  0.0875  0.5428 -0.1226
  506MOL0     H69823   4.320   0.933   7.196 -0.2356  0.2966 -1.0028
  506MOL0     H69824   4.510   0.816   7.546 -4.1665 -2.4628  1.1048
  506MOL0     H69825   4.878   1.020   6.805  0.9912 -0.3743  1.0068
  506MOL0     H69826   5.232   0.945   6.770  0.9383  0.6415 -1.4297
  506MOL0     H69827   5.145   0.989   6.617  0.4601  1.0607 -0.2020
  506MOL0     H69828   5.100   1.074   6.755  0.6184  0.0309  1.1521
  507MOL0     O69829   6.895   9.456   3.666  0.8615  0.0898  0.7119
  507MOL0     C69830   6.850   9.427   3.774 -0.4384 -0.5628 -0.4424
  507MOL0     O69831   6.926   9.398   3.888 -0.9885 -0.4196  0.2997
  507MOL0     C69832   7.062   9.394   3.869 -0.9056 -1.7553 -0.2209
  507MOL0     C69833   7.139   9.517   3.882 -0.0790 -0.8150 -0.1767
  507MOL0     C69834   7.279   9.514   3.858 -0.4924  0.3989 -0.9644
  507MOL0     C69835   7.338   9.391   3.822  0.6240  1.1775  0.1967
  507MOL0     O69836   7.471   9.377   3.781  0.6714 -0.1231  0.7313
  507MOL0     C69837   7.533   9.493   3.729  0.7337  0.2926 -0.5584
  507MOL0     C69838   7.672   9.465   3.677 -0.7482  1.9636 -0.5596
  507MOL0     C69839   7.765   9.398   3.783  0.5375  0.1171 -0.3124
  507MOL0     C69840   7.908   9.399   3.729 -0.3279 -1.1119 -0.2443
  507MOL0     C69841   8.013   9.344   3.823  0.3107 -0.4862  0.3905
  507MOL0     C69842   8.143   9.387   3.755 -0.2529 -0.0092 -0.7761
  507MOL0     C69843   8.270   9.336   3.839  0.7083 -0.7755 -0.1866
  507MOL0     C69844   8.411   9.343   3.772 -0.2167  0.7519  0.1342
  507MOL0     N69845   8.432   9.280   3.644 -0.3229 -0.3290  0.2717
  507MOL0     C69846   8.386   9.153   3.621 -0.3457  0.6058 -1.0326
  507MOL0     C69847   8.400   9.130   3.498  0.8996  1.1142 -0.4954
  507MOL0     C69848   8.355   9.002   3.433  0.3963 -0.3905  0.0405
  507MOL0     C69849   8.473   8.903   3.415 -0.2061  0.5891 -0.5344
  507MOL0     C69850   8.417   8.750   3.398 -0.2273 -0.9366  0.1676
  507MOL0     C69851   8.331   8.738   3.275  0.1380 -0.5681  0.1949
  507MOL0     O69852   8.406   8.785   3.163 -0.7487  0.8601  0.7425
  507MOL0     C69853   8.498   8.691   3.121  0.2194  0.4995  0.4090
  507MOL0     C69854   8.459   8.575   3.047 -0.4749 -1.8191 -1.2415
  507MOL0     C69855   8.555   8.480   3.011 -1.5505  0.1534 -0.8518
  507MOL0     C69856   8.493   8.356   2.961 -0.1920 -0.2121  0.4886
  507MOL0     C69857   8.695   8.508   3.036  0.2721 -0.1084  0.2008
  507MOL0     C69858   8.801   8.414   2.979 -0.0730 -1.0014  0.1996
  507MOL0     O69859   8.929   8.444   3.007  0.4891 -0.1554 -0.0753
  507MOL0     C69860   9.021   8.386   2.923  0.7598 -0.4782 -0.5833
  507MOL0     C69861   9.154   8.403   2.962 -0.1857 -0.0966  0.6367
  507MOL0     C69862   9.260   8.344   2.899  0.4489 -0.3359  0.0675
  507MOL0     C69863   9.239   8.249   2.802  0.1693  0.5173  0.1910
  507MOL0     O69864   9.333   8.165   2.746 -0.5584 -0.7184 -0.1067
  507MOL0     C69865   9.467   8.172   2.779 -0.4224  0.3300  0.2965
  507MOL0     C69866   9.531   8.032   2.762  0.8890 -0.3632 -0.2190
  507MOL0     C69867   9.529   7.994   2.613 -0.2783 -0.2402  0.1678
  507MOL0     C69868   9.624   7.877   2.594  1.1444 -0.5201  0.1558
  507MOL0     C69869   9.613   7.832   2.447  0.5095  0.6312 -1.2629
  507MOL0     C69870   9.677   7.693   2.435 -0.1522  0.3670  0.3465
  507MOL0     C69871   9.701   7.660   2.286 -1.0156  0.0194  0.3078
  507MOL0     C69872   9.796   7.533   2.276 -0.2863  0.1696  0.1047
  507MOL0    Cl69873   9.712   7.388   2.369  0.0575 -0.0663 -0.2554
  507MOL0     C69874   9.113   8.243   2.742 -0.5956  0.1170 -0.3327
  507MOL0     C69875   9.005   8.307   2.800 -0.1351  0.2533 -0.1594
  507MOL0     O69876   8.762   8.305   2.939 -0.0101 -0.4445  0.4218
  507MOL0     C69877   8.726   8.615   3.112 -0.2964  0.3138 -0.0816
  507MOL0     C69878   8.625   8.709   3.149 -0.7294  0.7331 -0.3864
  507MOL0     N69879   8.440   9.233   3.437 -0.2594 -1.6244 -0.0198
  507MOL0     N69880   8.453   9.335   3.523  0.2022 -0.3701 -0.2671
  507MOL0     C69881   7.268   9.272   3.838 -0.6141 -0.2251  0.1775
  507MOL0     C69882   7.131   9.283   3.865 -0.3051  0.8872  0.6645
  507MOL0     C69883   6.706   9.408   3.797  0.0479  0.1468 -0.0139
  507MOL0     C69884   6.668   9.307   3.895 -0.2904 -0.2944  0.1857
  507MOL0     C69885   6.530   9.290   3.926 -0.6312 -0.6336  0.1338
  507MOL0     C69886   6.431   9.375   3.871 -0.1979  0.1734  0.7005
  507MOL0     O69887   6.312   9.370   3.946  0.2374  0.0697 -0.7711
  507MOL0     C69888   6.191   9.407   3.887 -0.6986  0.0121  0.8649
  507MOL0     C69889   6.082   9.371   3.989 -0.4921 -0.2465 -0.3485
  507MOL0     C69890   5.943   9.391   3.934  0.0159 -0.5383  0.5024
  507MOL0     C69891   5.880   9.261   3.877 -0.2736 -0.4924 -0.0259
  507MOL0     C69892   5.948   9.196   3.768 -0.2792  0.3440 -0.5410
  507MOL0     C69893   6.004   9.125   3.685 -0.5454 -0.1769  0.2154
  507MOL0     C69894   6.468   9.474   3.774  0.1668  0.3815 -0.0752
  507MOL0     C69895   6.600   9.476   3.728  0.3939 -0.7310 -0.3480
  507MOL0     C69896   6.619   9.560   3.613  0.3192 -0.7253  1.0191
  507MOL0     H69897   7.092   9.611   3.912  3.9412  1.2680  0.3673
  507MOL0     H69898   7.338   9.605   3.851  1.6566 -0.7209  1.1803
  507MOL0     H69899   7.546   9.561   3.814  0.7167 -1.1890  0.6705
  507MOL0     H69900   7.476   9.542   3.650 -0.2729  0.8666  0.4916
  507MOL0     H69901   7.640   9.403   3.593 -1.4864 -0.3214  1.3200
  507MOL0     H69902   7.712   9.561   3.643 -1.1511  2.3021 -0.0875
  507MOL0     H69903   7.756   9.458   3.873  0.3945 -0.4951  0.0921
  507MOL0     H69904   7.730   9.299   3.814  1.2107  0.0462  0.2393
  507MOL0     H69905   7.907   9.344   3.634 -2.2833 -2.3485  0.4026
  507MOL0     H69906   7.924   9.502   3.696 -1.4222 -0.5844  0.7862
  507MOL0     H69907   8.006   9.235   3.826 -1.8820 -0.3748  0.3497
  507MOL0     H69908   8.011   9.390   3.922 -4.2134 -0.0073  0.2423
  507MOL0     H69909   8.151   9.344   3.654  2.1046 -2.1317  0.1874
  507MOL0     H69910   8.151   9.495   3.742  1.6682 -0.1462 -0.9765
  507MOL0     H69911   8.240   9.234   3.861 -0.4609  0.1138  2.6820
  507MOL0     H69912   8.288   9.386   3.934  2.6659 -1.1669 -0.3027
  507MOL0     H69913   8.435   9.450   3.763 -1.5827  0.9164 -3.7214
  507MOL0     H69914   8.486   9.310   3.843 -1.1973 -1.3764  0.2588
  507MOL0     H69915   8.350   9.081   3.694 -1.9098  0.9343 -1.4414
  507MOL0     H69916   8.310   9.034   3.338 -1.9017  2.3787  1.9043
  507MOL0     H69917   8.294   8.947   3.504 -0.0391  3.0853  2.5791
  507MOL0     H69918   8.536   8.928   3.329  0.6716 -0.5464 -0.2416
  507MOL0     H69919   8.537   8.903   3.503 -0.7802  1.3042 -0.1089
  507MOL0     H69920   8.494   8.676   3.374  1.0183  0.4255 -0.2109
  507MOL0     H69921   8.370   8.711   3.488 -0.2227 -2.5972 -0.5053
  507MOL0     H69922   8.292   8.637   3.264  1.5264 -0.9459 -1.5093
  507MOL0     H69923   8.243   8.803   3.286  0.3697  0.3152 -2.4604
  507MOL0     H69924   8.352   8.557   3.042 -1.0879  1.2742 -1.3053
  507MOL0     H69925   8.385   8.361   2.975  0.1813  1.6238  3.4503
  507MOL0     H69926   8.527   8.267   3.015 -3.4750 -2.8233 -1.3441
  507MOL0     H69927   8.509   8.335   2.855  3.8687 -0.5193  0.9946
  507MOL0     H69928   9.175   8.459   3.052  1.1933  1.3391 -0.5100
  507MOL0     H69929   9.359   8.359   2.943  1.4769  0.1408 -2.2666
  507MOL0     H69930   9.517   8.253   2.723  0.5856 -0.0901  0.5599
  507MOL0     H69931   9.494   8.203   2.880 -2.0672 -0.2339  0.9336
  507MOL0     H69932   9.636   8.037   2.791  0.2544 -0.2244  2.3034
  507MOL0     H69933   9.482   7.944   2.805 -1.2052 -1.0241 -3.5644
  507MOL0     H69934   9.561   8.075   2.547 -1.7768  0.3630  0.1308
  507MOL0     H69935   9.434   7.953   2.577 -0.3876  0.6195 -0.5492
  507MOL0     H69936   9.601   7.802   2.671  1.1934  0.7929  1.4800
  507MOL0     H69937   9.729   7.898   2.616  1.5617 -3.8657  2.0798
  507MOL0     H69938   9.512   7.804   2.415  0.0812  2.0320 -1.2299
  507MOL0     H69939   9.663   7.903   2.380  0.3102 -0.4963 -2.6495
  507MOL0     H69940   9.604   7.623   2.476 -1.8628  0.5316 -2.1409
  507MOL0     H69941   9.767   7.688   2.496  0.6113 -1.0450 -0.8469
  507MOL0     H69942   9.736   7.741   2.220 -1.1823 -1.1246 -1.2476
  507MOL0     H69943   9.603   7.635   2.246 -1.6561 -0.2102  1.9489
  507MOL0     H69944   9.897   7.550   2.314 -1.4178  1.6012  2.7490
  507MOL0     H69945   9.794   7.507   2.170  0.0562  0.6684 -0.0200
  507MOL0     H69946   9.091   8.176   2.659  0.9510 -1.9710  0.8159
  507MOL0     H69947   8.909   8.304   2.749 -0.1414  1.8672 -0.2683
  507MOL0     H69948   8.830   8.634   3.138 -0.5191 -0.0348  1.1261
  507MOL0     H69949   8.657   8.801   3.197  1.7125 -0.5033  0.5164
  507MOL0     H69950   7.321   9.179   3.824  0.2042  0.5739 -2.5509
  507MOL0     H69951   7.076   9.191   3.881  0.5629  0.2348 -0.0196
  507MOL0     H69952   6.738   9.245   3.950 -0.1325  1.3100  1.8659
  507MOL0     H69953   6.498   9.223   4.005 -0.7931  0.1360  0.7361
  507MOL0     H69954   6.194   9.515   3.867 -0.0749  0.3653  2.7079
  507MOL0     H69955   6.196   9.350   3.794  0.0677  1.5808 -0.1038
  507MOL0     H69956   6.103   9.433   4.077  0.4409 -1.0341 -0.0001
  507MOL0     H69957   6.089   9.269   4.028 -0.4866 -0.0855  0.0744
  507MOL0     H69958   5.868   9.415   4.010 -0.3535 -0.6114  0.1600
  507MOL0     H69959   5.947   9.472   3.861  0.3173 -0.5552  0.4976
  507MOL0     H69960   5.777   9.276   3.841  0.4639  3.9651 -0.8364
  507MOL0     H69961   5.863   9.183   3.953 -0.8342 -0.3278  0.0249
  507MOL0     H69962   6.055   9.071   3.608 -1.3264  1.5439 -1.5706
  507MOL0     H69963   6.389   9.540   3.740  0.6714  3.1466  3.4588
  507MOL0     H69964   6.675   9.519   3.529  2.4996  1.7106  1.1611
  507MOL0     H69965   6.525   9.607   3.580  1.2183  0.4918  0.0921
  507MOL0     H69966   6.682   9.647   3.634  2.1923 -1.5878 -0.6817
  508MOL0     O69967  11.359   9.784   2.334  0.6650  0.4510 -0.0022
  508MOL0     C69968  11.375   9.666   2.309  0.0786 -0.1370 -0.2789
  508MOL0     O69969  11.496   9.599   2.302 -0.7989 -0.2606  0.7758
  508MOL0     C69970  11.611   9.673   2.325 -0.2336 -1.6736 -0.6141
  508MOL0     C69971  11.641   9.736   2.446  0.0590 -0.2060 -0.5481
  508MOL0     C69972  11.765   9.789   2.468  0.3410 -0.3611 -0.1425
  508MOL0     C69973  11.864   9.785   2.377  0.6871  0.3600  0.6969
  508MOL0     O69974  11.993   9.822   2.412 -0.2744  0.2000  0.0137
  508MOL0     C69975  12.068   9.906   2.320  1.1086 -0.0772 -0.6664
  508MOL0     C69976  12.214   9.929   2.357 -0.5459 -0.1482  1.1201
  508MOL0     C69977  12.298   9.826   2.275  0.8255 -0.1629  0.4906
  508MOL0     C69978  12.441   9.837   2.313  0.1276  0.5569 -0.4500
  508MOL0     C69979  12.518   9.929   2.213 -0.4738 -1.2700  0.1210
  508MOL0     C69980  12.655   9.970   2.260  0.5244  0.8355  0.1716
  508MOL0     C69981  12.657  10.054   2.383 -0.1829 -0.8194 -0.1111
  508MOL0     C69982  12.794  10.076   2.429  0.2126  0.6578  0.1618
  508MOL0     N69983  12.867  10.170   2.345  0.3920  0.8355 -0.9463
  508MOL0     C69984  12.998  10.161   2.324  0.1177  0.1632  0.1937
  508MOL0     C69985  13.034  10.280   2.275  0.6939  0.1495 -0.6856
  508MOL0     C69986  13.163  10.308   2.211 -0.5097  0.7604  0.5021
  508MOL0     C69987  13.269  10.295   2.319 -0.8608  0.0125  0.4900
  508MOL0     C69988  13.399  10.360   2.269  1.4800  0.4734  0.4879
  508MOL0     C69989  13.505  10.337   2.369 -0.9970 -0.5830 -0.1051
  508MOL0     O69990  13.638  10.352   2.316 -0.5254  0.5218  0.3475
  508MOL0     C69991  13.737  10.367   2.409  0.1656 -0.0175  0.6465
  508MOL0     C69992  13.756  10.305   2.529  0.5347 -0.5858  0.8038
  508MOL0     C69993  13.870  10.322   2.601  0.1683  0.2863 -1.3637
  508MOL0     C69994  13.879  10.243   2.731  0.6672  0.1921  0.0313
  508MOL0     C69995  13.973  10.401   2.557 -0.8249  0.2487  0.2046
  508MOL0     C69996  14.103  10.423   2.619 -0.1952 -0.3380  0.1242
  508MOL0     O69997  14.203  10.488   2.542 -0.4320  0.2309 -1.0402
  508MOL0     C69998  14.312  10.546   2.596 -1.1150  0.2548 -0.7761
  508MOL0     C69999  14.439  10.539   2.526  0.4966  0.6710 -0.2544
  508MOL0     C70000  14.556  10.590   2.581  1.0499  1.3484 -0.0572
  508MOL0     C70001  14.558  10.632   2.713  1.0180 -0.8443 -0.3116
  508MOL0     O70002  14.667  10.693   2.771 -0.4453  0.1904  1.0084
  508MOL0     C70003  14.789  10.632   2.735  0.1829 -0.0457 -0.1072
  508MOL0     C70004  14.906  10.690   2.803 -0.3750  0.8795  0.1375
  508MOL0     C70005  14.937  10.836   2.793 -0.3870  0.5853  0.3657
  508MOL0     C70006  14.832  10.911   2.881 -0.5440  0.2031  0.5729
  508MOL0     C70007  14.888  11.033   2.951  0.2279 -0.1111 -0.9591
  508MOL0     C70008  14.928  11.144   2.852 -0.2228 -0.2251  0.0362
  508MOL0     C70009  14.814  11.191   2.758  0.5808  0.1084 -0.0694
  508MOL0     C70010  14.845  11.329   2.700 -0.9266 -1.1309  0.5214
  508MOL0    Cl70011  14.862  11.479   2.809  0.0034  0.3716  0.3922
  508MOL0     C70012  14.432  10.632   2.783  0.9240  0.1187 -0.2720
  508MOL0     C70013  14.313  10.592   2.727  0.0066 -0.3170  0.0033
  508MOL0     O70014  14.130  10.363   2.723 -0.0145 -0.1180  0.9230
  508MOL0     C70015  13.957  10.471   2.433  0.3775  0.0441 -0.5362
  508MOL0     C70016  13.847  10.446   2.361  0.2049  0.7552 -0.8202
  508MOL0     N70017  12.921  10.367   2.276 -0.2843  0.4933  0.2425
  508MOL0     N70018  12.819  10.297   2.319 -0.3276 -0.2931  0.0665
  508MOL0     C70019  11.843   9.716   2.258  0.4687 -0.1065  0.8347
  508MOL0     C70020  11.720   9.677   2.224 -0.4231  0.5212  0.2294
  508MOL0     C70021  11.256   9.592   2.266 -0.1528 -0.1282 -1.4692
  508MOL0     C70022  11.147   9.660   2.204  0.2514  0.0338 -0.4125
  508MOL0     C70023  11.024   9.606   2.170  0.0320  0.2066  0.3810
  508MOL0     C70024  11.008   9.467   2.176 -0.4182 -0.6008  0.3592
  508MOL0     O70025  10.889   9.406   2.156 -0.3253  0.6499  0.0801
  508MOL0     C70026  10.768   9.484   2.180  0.1825  0.5733  0.4885
  508MOL0     C70027  10.663   9.383   2.224 -0.0473  0.0509  0.4477
  508MOL0     C70028  10.528   9.464   2.219 -0.0996  0.4497 -0.4935
  508MOL0     C70029  10.414   9.366   2.225  0.4369  0.1656  0.5482
  508MOL0     C70030  10.290   9.449   2.239  0.3403 -0.1999  0.2148
  508MOL0     C70031  10.193   9.519   2.232  0.4330  0.0602 -0.2051
  508MOL0     C70032  11.115   9.399   2.241 -0.9677  0.3263 -0.5788
  508MOL0     C70033  11.230   9.458   2.288 -0.0516 -0.2635  0.1713
  508MOL0     C70034  11.328   9.383   2.371  0.5375  0.3085  0.2902
  508MOL0     H70035  11.554   9.733   2.511  0.7885 -3.3686  0.4641
  508MOL0     H70036  11.789   9.848   2.556 -2.3437  0.7708 -0.0710
  508MOL0     H70037  12.014  10.001   2.313  2.4918  1.1577  2.8350
  508MOL0     H70038  12.062   9.864   2.219  2.3257  0.6344 -1.0623
  508MOL0     H70039  12.255  10.029   2.337 -1.7178  0.1102 -0.2308
  508MOL0     H70040  12.221   9.906   2.463 -0.2177 -1.4277  0.8415
  508MOL0     H70041  12.268   9.724   2.303 -0.4261 -0.2046 -0.8718
  508MOL0     H70042  12.270   9.845   2.171 -0.1169  0.0443  0.7742
  508MOL0     H70043  12.432   9.873   2.416 -0.9294 -0.1669 -0.2809
  508MOL0     H70044  12.494   9.742   2.316 -0.1241  0.4271  1.8419
  508MOL0     H70045  12.468  10.023   2.186 -0.8317 -1.3710  0.4146
  508MOL0     H70046  12.517   9.887   2.113 -1.9239  1.1083 -0.9634
  508MOL0     H70047  12.704   9.875   2.285 -1.8871 -1.7746 -3.8516
  508MOL0     H70048  12.700  10.005   2.166  0.1444 -1.1927 -0.8200
  508MOL0     H70049  12.598  10.014   2.466 -0.5453 -2.3873 -1.0788
  508MOL0     H70050  12.606  10.149   2.365  0.9993  0.2728  1.9034
  508MOL0     H70051  12.790  10.111   2.532 -1.5318 -0.5589  0.5569
  508MOL0     H70052  12.844   9.979   2.433  2.3804  1.4396 -3.3504
  508MOL0     H70053  13.057  10.070   2.332 -0.2943 -0.0538  0.8358
  508MOL0     H70054  13.161  10.412   2.175  1.1851  0.3541 -0.8931
  508MOL0     H70055  13.179  10.237   2.130 -3.0852  0.1021  0.4924
  508MOL0     H70056  13.233  10.336   2.414  3.4857  1.6210  1.6844
  508MOL0     H70057  13.282  10.187   2.332 -1.1236 -0.0376  0.3377
  508MOL0     H70058  13.423  10.320   2.171  0.9812 -0.3163  0.6797
  508MOL0     H70059  13.381  10.465   2.243  0.7202  0.0128 -0.8925
  508MOL0     H70060  13.495  10.402   2.456  1.2772  2.0322 -1.6244
  508MOL0     H70061  13.491  10.232   2.397 -2.8519  0.5626  4.0109
  508MOL0     H70062  13.684  10.228   2.556 -0.9593  0.7465  0.7583
  508MOL0     H70063  13.777  10.210   2.750 -0.6202  2.6086 -2.0019
  508MOL0     H70064  13.923  10.294   2.817 -0.5420 -0.3931  1.0260
  508MOL0     H70065  13.932  10.151   2.701  2.6070 -0.1567  3.9342
  508MOL0     H70066  14.431  10.479   2.435 -4.8883  1.0403 -0.3477
  508MOL0     H70067  14.647  10.595   2.523 -0.5447  0.9051 -2.7502
  508MOL0     H70068  14.783  10.528   2.770  1.5429 -0.4794 -1.0741
  508MOL0     H70069  14.805  10.647   2.628 -0.6481 -1.2112 -0.4128
  508MOL0     H70070  14.914  10.656   2.907  1.6360 -1.9670 -0.8313
  508MOL0     H70071  14.998  10.643   2.767 -0.9151 -1.1211  1.2081
  508MOL0     H70072  14.923  10.869   2.689  1.7428 -0.4496 -0.2990
  508MOL0     H70073  15.038  10.847   2.833 -1.3302 -0.2568  3.2022
  508MOL0     H70074  14.790  10.862   2.969  0.2211  2.1239  2.0719
  508MOL0     H70075  14.752  10.933   2.810  0.5668 -3.3174 -2.0447
  508MOL0     H70076  14.807  11.083   3.006  2.9954  1.7082  1.7386
  508MOL0     H70077  14.961  11.000   3.025  1.0653  1.4459 -1.0536
  508MOL0     H70078  15.016  11.103   2.801  0.4285 -1.5635  2.0805
  508MOL0     H70079  14.965  11.230   2.908  1.4543 -1.5420  1.0614
  508MOL0     H70080  14.716  11.197   2.806  0.7285  2.0093  0.0720
  508MOL0     H70081  14.800  11.116   2.679 -0.5212 -0.7188  0.8758
  508MOL0     H70082  14.778  11.343   2.615  0.1261 -4.9143 -1.1447
  508MOL0     H70083  14.948  11.319   2.663  0.0543  0.0698  2.7328
  508MOL0     H70084  14.416  10.656   2.888  0.9241 -0.6673 -0.0841
  508MOL0     H70085  14.221  10.605   2.784  0.7407  1.8526  0.7693
  508MOL0     H70086  14.033  10.539   2.395  0.3614  1.9970  2.6105
  508MOL0     H70087  13.842  10.496   2.264 -0.1370  1.5579 -0.4031
  508MOL0     H70088  11.933   9.701   2.200 -0.0752 -0.6724  0.1249
  508MOL0     H70089  11.693   9.612   2.141 -1.9271  0.6530  0.5909
  508MOL0     H70090  11.156   9.768   2.197  2.9139  0.0050  1.0539
  508MOL0     H70091  10.965   9.674   2.109  1.1503 -0.3760 -1.4578
  508MOL0     H70092  10.782   9.570   2.246 -2.1100  0.6964  0.8806
  508MOL0     H70093  10.745   9.531   2.085  2.3006  1.3166  0.2793
  508MOL0     H70094  10.694   9.355   2.325  0.4013 -1.2774 -0.0354
  508MOL0     H70095  10.677   9.305   2.149 -1.9781 -0.1595  0.2417
  508MOL0     H70096  10.525   9.531   2.305  4.1472  2.8456 -1.9516
  508MOL0     H70097  10.511   9.518   2.125 -1.3455  0.1263 -0.4803
  508MOL0     H70098  10.419   9.302   2.314  0.5479 -2.0357 -0.9734
  508MOL0     H70099  10.414   9.296   2.141 -0.1281  0.1624  0.5473
  508MOL0     H70100  10.099   9.571   2.227  1.7824  2.6196 -0.4110
  508MOL0     H70101  11.100   9.292   2.246  1.1301 -0.0700 -1.6729
  508MOL0     H70102  11.364   9.447   2.452  1.4038  0.9979 -0.6121
  508MOL0     H70103  11.268   9.304   2.416 -1.2197 -0.1302 -2.5678
  508MOL0     H70104  11.412   9.335   2.320 -0.8174 -0.3505 -1.4159
  509MOL0     O70105   8.318   7.698   9.531  0.4513 -1.0317  0.2980
  509MOL0     C70106   8.278   7.753   9.639  0.2226  0.5705 -0.6442
  509MOL0     O70107   8.348   7.828   9.734  0.0719  0.5628  0.4515
  509MOL0     C70108   8.466   7.873   9.680  1.0482  0.8489 -0.5118
  509MOL0     C70109   8.581   7.808   9.731  0.1476 -0.6132 -0.2160
  509MOL0     C70110   8.705   7.851   9.691 -1.0781 -0.0725  0.9325
  509MOL0     C70111   8.715   7.968   9.611 -0.6938  0.3600 -0.5374
  509MOL0     O70112   8.828   8.028   9.569  0.6004 -0.2297 -0.1825
  509MOL0     C70113   8.955   7.990   9.623 -0.3523  1.0795 -0.2841
  509MOL0     C70114   9.055   8.109   9.631  0.7078 -0.2120  0.7274
  509MOL0     C70115   9.025   8.234   9.712  0.1153 -0.0765 -0.6024
  509MOL0     C70116   9.120   8.357   9.674 -0.4456  0.5578 -0.1038
  509MOL0     C70117   9.083   8.467   9.772 -0.9739 -0.3106  0.1611
  509MOL0     C70118   9.184   8.592   9.762  0.0436  0.0872 -0.6414
  509MOL0     C70119   9.134   8.700   9.854 -0.6202  0.5854 -1.2269
  509MOL0     C70120   9.203   8.831   9.836  0.5685  0.6235  0.3264
  509MOL0     N70121   9.148   8.914   9.940  0.0569 -0.5770  0.1546
  509MOL0     C70122   9.064   9.017   9.909  0.6409 -0.3270 -0.2495
  509MOL0     C70123   9.015   9.066  10.025 -0.4381  0.6376 -0.6650
  509MOL0     C70124   8.935   9.187  10.032  0.7960 -0.2014 -0.5961
  509MOL0     C70125   9.018   9.302  10.099  0.8845  0.1030 -0.2231
  509MOL0     C70126   8.925   9.392  10.189  0.4367 -0.2380  0.2493
  509MOL0     C70127   8.977   9.532  10.215  0.9259 -0.4496  0.1274
  509MOL0     O70128   9.115   9.529  10.260  1.0331  0.0053  0.1042
  509MOL0     C70129   9.189   9.639  10.276 -1.5541 -0.4029  0.0627
  509MOL0     C70130   9.327   9.616  10.279 -0.5188 -0.0215  0.5953
  509MOL0     C70131   9.417   9.723  10.309 -0.2342  0.1637 -0.4321
  509MOL0     C70132   9.558   9.687  10.330 -1.0196 -0.3515  1.0781
  509MOL0     C70133   9.375   9.854  10.315  0.7054  0.1461 -0.0045
  509MOL0     C70134   9.465   9.969  10.328 -1.2986  0.2850 -0.3841
  509MOL0     O70135   9.560   9.983  10.238  0.5663  0.5220 -0.2940
  509MOL0     C70136   9.667  10.059  10.249 -0.4481 -0.9058  0.0268
  509MOL0     C70137   9.748  10.073  10.361 -0.4083  0.4715  0.0372
  509MOL0     C70138   9.854  10.159  10.363  0.0249 -0.4075 -0.2161
  509MOL0     C70139   9.906  10.218  10.245  0.2039  0.1955  0.1191
  509MOL0     O70140  10.019  10.302  10.250  0.2561  0.2378 -1.0325
  509MOL0     C70141  10.085  10.329  10.131 -0.2269 -0.5751  0.0045
  509MOL0     C70142  10.230  10.363  10.170  0.2424  0.1872 -0.3308
  509MOL0     C70143  10.319  10.249  10.225 -0.6659 -0.4869  0.4628
  509MOL0     C70144  10.367  10.165  10.102 -0.0254  0.2561 -0.4932
  509MOL0     C70145  10.523  10.150  10.099 -0.3343  0.2373 -0.4347
  509MOL0     C70146  10.584  10.084  10.227  0.0581  0.9011  0.3078
  509MOL0     C70147  10.557   9.930  10.226  0.2994 -0.2839 -0.2902
  509MOL0     C70148  10.648   9.850  10.325 -0.3872  0.2556  0.0044
  509MOL0    Cl70149  10.749   9.951  10.441  0.0055 -0.3067 -0.4057
  509MOL0     C70150   9.832  10.192  10.126 -0.0340  0.9182  0.3271
  509MOL0     C70151   9.714  10.122  10.132 -0.7312 -0.7772 -0.1179
  509MOL0     O70152   9.443  10.049  10.413  0.6691 -0.0930 -0.0326
  509MOL0     C70153   9.236   9.873  10.304  0.4110 -0.7508 -0.9553
  509MOL0     C70154   9.149   9.770  10.278 -0.2516 -0.9834 -0.4698
  509MOL0     N70155   9.051   8.970  10.124  0.1107 -0.9274  0.1060
  509MOL0     N70156   9.134   8.887  10.076 -0.3883  0.1701  0.2365
  509MOL0     C70157   8.596   8.026   9.560 -0.2452  0.4962 -0.1158
  509MOL0     C70158   8.477   7.958   9.578  0.1075 -0.4487 -0.2796
  509MOL0     C70159   8.142   7.713   9.676 -0.5299  1.1408  0.4564
  509MOL0     C70160   8.119   7.690   9.813  0.2523 -0.3207 -0.0701
  509MOL0     C70161   7.990   7.661   9.854  0.3366 -0.1428  0.5299
  509MOL0     C70162   7.887   7.642   9.764 -0.2886 -0.7900 -0.1576
  509MOL0     O70163   7.766   7.603   9.820  0.2894  0.7942 -0.0963
  509MOL0     C70164   7.677   7.710   9.854  0.4147  0.3371  0.5640
  509MOL0     C70165   7.565   7.713   9.749 -0.4249 -0.2899 -0.9148
  509MOL0     C70166   7.561   7.853   9.688  0.2728  0.4304  0.3279
  509MOL0     C70167   7.473   7.855   9.563 -0.0424 -0.0560 -0.5888
  509MOL0     C70168   7.339   7.812   9.580 -0.2464  0.1728 -0.8186
  509MOL0     C70169   7.226   7.776   9.598 -0.0226  0.5373 -0.1471
  509MOL0     C70170   7.915   7.665   9.634 -0.4768  0.0701 -0.0675
  509MOL0     C70171   8.039   7.700   9.582 -0.7681  0.7127  0.6834
  509MOL0     C70172   8.064   7.736   9.432  0.0169 -0.7260  0.3448
  509MOL0     H70173   8.573   7.728   9.805 -1.3375 -0.2000  0.1080
  509MOL0     H70174   8.788   7.797   9.735 -0.9700  0.9894  2.0728
  509MOL0     H70175   8.996   7.931   9.541 -2.3767  0.4206 -0.8615
  509MOL0     H70176   8.951   7.938   9.719  2.3755 -0.7443 -1.0362
  509MOL0     H70177   9.152   8.071   9.667  0.5163 -0.9150  0.5262
  509MOL0     H70178   9.068   8.132   9.525 -0.6096 -1.2117  0.3219
  509MOL0     H70179   8.918   8.257   9.705 -0.0839 -1.2106 -1.7140
  509MOL0     H70180   9.059   8.221   9.815 -0.8581  2.3396  0.0936
  509MOL0     H70181   9.225   8.329   9.683 -0.8626 -1.9756 -1.9137
  509MOL0     H70182   9.107   8.378   9.567  0.7757  1.0602 -0.1629
  509MOL0     H70183   9.077   8.435   9.876  0.8286  1.2575  0.8127
  509MOL0     H70184   8.988   8.510   9.739 -0.6185  0.4547  0.1065
  509MOL0     H70185   9.285   8.559   9.789 -0.2573 -1.8619 -1.7220
  509MOL0     H70186   9.177   8.620   9.657 -0.3537 -2.9885 -1.5326
  509MOL0     H70187   9.158   8.656   9.952  2.3152 -2.5903 -3.1473
  509MOL0     H70188   9.025   8.705   9.840 -0.8273 -2.8708 -1.7917
  509MOL0     H70189   9.309   8.822   9.860  0.6457  1.0012  0.1435
  509MOL0     H70190   9.182   8.871   9.736  2.6683  1.2681  0.0938
  509MOL0     H70191   9.047   9.071   9.817  0.6716  1.4078  0.7177
  509MOL0     H70192   8.843   9.159  10.085  1.6038 -3.2536 -0.6306
  509MOL0     H70193   8.900   9.218   9.933 -0.6147 -0.1811 -0.1107
  509MOL0     H70194   9.106   9.266  10.153  1.7089  0.8851 -0.9984
  509MOL0     H70195   9.054   9.372  10.022 -4.1503 -0.8210 -3.9580
  509MOL0     H70196   8.838   9.409  10.125 -0.8892  1.0689  2.2831
  509MOL0     H70197   8.889   9.355  10.286 -1.9640  2.0841  0.3237
  509MOL0     H70198   8.960   9.586  10.121 -1.7166  0.0513  0.7905
  509MOL0     H70199   8.911   9.579  10.288  1.2593  0.2803 -0.0389
  509MOL0     H70200   9.344   9.510  10.264 -1.1068 -0.2581  1.5189
  509MOL0     H70201   9.587   9.744  10.418  0.3974  1.1108 -0.2716
  509MOL0     H70202   9.619   9.720  10.245 -2.7385 -1.4094 -0.6553
  509MOL0     H70203   9.568   9.583  10.359 -5.5091 -0.6268  2.4881
  509MOL0     H70204   9.732  10.018  10.453  0.8777 -0.7586 -0.4525
  509MOL0     H70205   9.921  10.178  10.447  0.5724 -0.4944 -0.6270
  509MOL0     H70206  10.085  10.244  10.063 -0.1875 -0.2711 -0.3804
  509MOL0     H70207  10.041  10.420  10.088  1.2174 -0.1456 -0.6285
  509MOL0     H70208  10.285  10.411  10.088  2.2618  1.5071  1.6704
  509MOL0     H70209  10.221  10.433  10.254  0.3003  0.7619 -0.7923
  509MOL0     H70210  10.254  10.196  10.295 -0.1383 -0.9114  0.6320
  509MOL0     H70211  10.405  10.299  10.271 -2.0511  2.4175  0.1284
  509MOL0     H70212  10.347  10.219  10.009  2.4938  1.8815 -0.1869
  509MOL0     H70213  10.317  10.068  10.095 -2.2692  1.2277  0.9166
  509MOL0     H70214  10.556  10.104  10.006 -3.0824 -1.2329 -0.7902
  509MOL0     H70215  10.566  10.250  10.093  1.7346 -0.6676 -1.2903
  509MOL0     H70216  10.530  10.116  10.317  0.1919  0.0779  0.6917
  509MOL0     H70217  10.690  10.106  10.244  0.4453 -0.9016  0.3769
  509MOL0     H70218  10.580   9.890  10.127  1.4501  1.7371 -0.9015
  509MOL0     H70219  10.452   9.917  10.251  0.5494 -1.3967  0.2445
  509MOL0     H70220  10.713   9.793  10.258  0.8918  1.1826  0.4079
  509MOL0     H70221  10.591   9.775  10.380  1.8754 -0.3805  1.6732
  509MOL0     H70222   9.860  10.220  10.024 -0.3174  1.4738  0.3979
  509MOL0     H70223   9.660  10.124  10.038 -1.8551 -1.5126  0.4907
  509MOL0     H70224   9.193   9.972  10.311  1.1392 -0.3594 -1.7770
  509MOL0     H70225   9.042   9.784  10.267 -0.1395  1.2522  0.5776
  509MOL0     H70226   8.610   8.091   9.474  1.8971 -2.0234 -1.8273
  509MOL0     H70227   8.390   7.997   9.527  1.0431 -1.5655 -2.9296
  509MOL0     H70228   8.194   7.703   9.890 -1.2836 -1.7000  1.7727
  509MOL0     H70229   7.971   7.660   9.961 -0.5558  2.6551  0.4640
  509MOL0     H70230   7.628   7.696   9.950  0.9890  0.2106  0.8465
  509MOL0     H70231   7.729   7.805   9.867 -0.8497  1.0067  0.8802
  509MOL0     H70232   7.465   7.693   9.789 -0.6892  1.9001 -0.3345
  509MOL0     H70233   7.585   7.646   9.665  1.4245 -2.9823  1.4780
  509MOL0     H70234   7.521   7.930   9.755 -0.8616 -0.7345  1.0425
  509MOL0     H70235   7.664   7.882   9.663  0.4142 -0.7863 -0.5873
  509MOL0     H70236   7.525   7.787   9.495  0.5612 -0.0291 -0.1664
  509MOL0     H70237   7.477   7.953   9.514  0.8466 -1.1291 -2.7908
  509MOL0     H70238   7.129   7.734   9.612  0.2713 -0.6946 -1.4766
  509MOL0     H70239   7.833   7.647   9.565  0.2641 -3.1733 -0.2664
  509MOL0     H70240   7.975   7.728   9.368 -0.5628 -2.2902  1.2752
  509MOL0     H70241   8.122   7.828   9.425  1.1063 -1.3837  0.4790
  509MOL0     H70242   8.121   7.658   9.380  2.7493  1.0378  0.5444
  510MOL0     O70243   2.756   5.834   3.472 -0.2926 -0.0395 -0.3194
  510MOL0     C70244   2.665   5.910   3.516 -0.4094 -0.0735  0.0264
  510MOL0     O70245   2.668   6.047   3.504 -0.0546 -0.0348  0.6321
  510MOL0     C70246   2.766   6.114   3.420  0.8051  0.8655 -0.2101
  510MOL0     C70247   2.728   6.201   3.316 -0.8075 -0.3781 -0.7279
  510MOL0     C70248   2.821   6.268   3.233 -0.0480  0.8398  0.1144
  510MOL0     C70249   2.959   6.244   3.261  0.7265  0.2693 -0.1742
  510MOL0     O70250   3.063   6.281   3.180  0.1042 -0.5103  0.1648
  510MOL0     C70251   3.037   6.353   3.057 -0.1038  0.1884 -1.2610
  510MOL0     C70252   3.169   6.371   2.991 -1.0997  0.0257 -0.6386
  510MOL0     C70253   3.224   6.246   2.916  0.2702 -0.5590  0.1708
  510MOL0     C70254   3.268   6.146   3.022 -0.3031  0.2856  0.2493
  510MOL0     C70255   3.369   6.048   2.967  0.6312 -0.4596  0.0642
  510MOL0     C70256   3.509   6.108   2.946  0.9440 -0.1531 -0.4179
  510MOL0     C70257   3.620   6.002   2.946  0.2786  0.6186 -1.2578
  510MOL0     C70258   3.758   6.068   2.964 -0.2835 -0.3049  0.3921
  510MOL0     N70259   3.838   5.954   3.008 -0.2450 -0.7432  0.9116
  510MOL0     C70260   3.879   5.858   2.928 -0.4112  0.5698 -1.0376
  510MOL0     C70261   3.958   5.780   3.005  0.7149  0.2958  0.1949
  510MOL0     C70262   4.023   5.645   2.972  0.2326  0.4443 -0.7564
  510MOL0     C70263   4.122   5.656   2.860 -0.5613  0.3054 -0.2045
  510MOL0     C70264   4.262   5.715   2.898 -0.3235  0.4094 -0.0178
  510MOL0     C70265   4.345   5.776   2.791  0.6171 -0.2733 -0.7217
  510MOL0     O70266   4.358   5.689   2.672  0.1748 -0.2648  0.1473
  510MOL0     C70267   4.484   5.686   2.619 -0.5056 -0.1661 -0.6605
  510MOL0     C70268   4.500   5.712   2.491 -0.4714  0.4499  0.1870
  510MOL0     C70269   4.630   5.711   2.433 -0.4686  0.7168  0.6403
  510MOL0     C70270   4.635   5.729   2.280  0.4518 -0.0227  0.5788
  510MOL0     C70271   4.746   5.692   2.518  0.0144  0.2186 -0.1021
  510MOL0     C70272   4.893   5.699   2.470 -0.2651 -0.2112 -0.0307
  510MOL0     O70273   4.989   5.693   2.574  0.2562  0.0518 -0.1226
  510MOL0     C70274   5.125   5.706   2.552  0.3707 -0.0810  0.2395
  510MOL0     C70275   5.186   5.800   2.466  0.1524  0.5546  0.5012
  510MOL0     C70276   5.320   5.817   2.452 -0.5029 -0.1249  0.1941
  510MOL0     C70277   5.410   5.735   2.523 -0.7434 -0.1979 -0.5714
  510MOL0     O70278   5.542   5.765   2.516 -0.2679 -0.3061  0.4132
  510MOL0     C70279   5.647   5.661   2.536 -0.3477  0.4515 -0.7172
  510MOL0     C70280   5.747   5.649   2.419  0.7464  0.1350  0.0109
  510MOL0     C70281   5.862   5.570   2.463  0.4374  0.7412 -0.4448
  510MOL0     C70282   5.967   5.571   2.351  0.5762 -0.2004 -0.1808
  510MOL0     C70283   6.075   5.490   2.398  0.8191 -0.1948 -0.4574
  510MOL0     C70284   6.195   5.487   2.300 -0.8009 -0.5638 -0.5286
  510MOL0     C70285   6.177   5.379   2.191  0.3591  0.0624  0.1073
  510MOL0     C70286   6.271   5.401   2.068  0.4142  0.5440  0.2116
  510MOL0    Cl70287   6.433   5.347   2.090 -0.0748  0.4946  0.3053
  510MOL0     C70288   5.354   5.639   2.610 -0.5164  0.9527  0.9017
  510MOL0     C70289   5.212   5.619   2.608 -0.7221 -1.6182 -0.4164
  510MOL0     O70290   4.920   5.700   2.355  0.0124 -0.6196  0.6435
  510MOL0     C70291   4.722   5.665   2.652  0.3023  1.0356 -0.1712
  510MOL0     C70292   4.596   5.666   2.704  0.0444 -0.5977 -0.3144
  510MOL0     N70293   3.960   5.838   3.133  0.2359  0.3149 -0.3358
  510MOL0     N70294   3.881   5.943   3.136 -0.0594 -0.6835 -0.2906
  510MOL0     C70295   2.998   6.162   3.367 -0.4092 -1.5254 -0.8815
  510MOL0     C70296   2.900   6.102   3.447 -0.0301 -0.3625 -0.8785
  510MOL0     C70297   2.549   5.857   3.586  0.7015  1.0885 -0.2033
  510MOL0     C70298   2.572   5.735   3.655  0.1595  0.3387 -0.9481
  510MOL0     C70299   2.474   5.670   3.735 -0.4795 -0.4396  0.0539
  510MOL0     C70300   2.345   5.727   3.740 -0.0718 -0.0786  0.1791
  510MOL0     O70301   2.239   5.662   3.796  0.0282 -0.9586  0.0408
  510MOL0     C70302   2.252   5.518   3.818  0.1374 -0.3173  0.0290
  510MOL0     C70303   2.318   5.474   3.954 -0.7241  0.6784 -0.2335
  510MOL0     C70304   2.241   5.508   4.087  0.5344 -0.4780 -0.3892
  510MOL0     C70305   2.219   5.654   4.108 -0.4889 -0.0767 -0.1642
  510MOL0     C70306   2.153   5.679   4.239 -0.4490 -0.1487 -0.3261
  510MOL0     C70307   2.097   5.696   4.341  0.1435 -0.3062 -0.4603
  510MOL0     C70308   2.328   5.857   3.687  0.9040 -0.1464  0.4686
  510MOL0     C70309   2.422   5.919   3.602 -0.1401 -0.3083 -0.5864
  510MOL0     C70310   2.388   6.044   3.532  1.0213 -0.3578  0.3698
  510MOL0     H70311   2.624   6.230   3.306 -0.1257  3.6129  1.7707
  510MOL0     H70312   2.801   6.330   3.147  0.2116  1.3907  0.4494
  510MOL0     H70313   2.991   6.449   3.084  1.8551  0.5675  1.0933
  510MOL0     H70314   2.971   6.293   2.994 -0.1211 -0.2273 -0.8551
  510MOL0     H70315   3.158   6.450   2.916  0.2132  1.2147  0.3558
  510MOL0     H70316   3.247   6.400   3.063 -1.1157 -2.7269  0.6410
  510MOL0     H70317   3.139   6.204   2.861 -3.0530  2.8869  2.1615
  510MOL0     H70318   3.311   6.275   2.856  0.0418 -1.3043 -0.5272
  510MOL0     H70319   3.317   6.189   3.109  2.6069 -1.2897 -0.4830
  510MOL0     H70320   3.173   6.100   3.053 -0.8061  3.2822  3.8730
  510MOL0     H70321   3.331   6.015   2.870 -0.5400  0.4685  0.1721
  510MOL0     H70322   3.368   5.963   3.035  2.0525 -1.1661 -0.7479
  510MOL0     H70323   3.511   6.154   2.847 -1.1058 -1.1621 -0.9816
  510MOL0     H70324   3.525   6.177   3.030 -3.5388  1.6815 -0.8175
  510MOL0     H70325   3.625   5.935   2.859  0.6836 -1.5266  0.3381
  510MOL0     H70326   3.607   5.934   3.031  1.2592  0.5771 -1.1350
  510MOL0     H70327   3.803   6.099   2.869  0.7289  2.9276  1.7944
  510MOL0     H70328   3.744   6.149   3.036  0.5211  0.0229  0.1977
  510MOL0     H70329   3.852   5.837   2.825  1.1373 -1.0378 -1.1559
  510MOL0     H70330   3.941   5.576   2.953  0.6733 -1.8504  4.1311
  510MOL0     H70331   4.069   5.605   3.063 -1.4972  1.0190  0.4255
  510MOL0     H70332   4.133   5.552   2.830 -1.6960 -0.5817  2.1514
  510MOL0     H70333   4.085   5.719   2.778  1.2992 -2.2496 -3.2119
  510MOL0     H70334   4.244   5.788   2.977  0.9330  1.7903 -0.9451
  510MOL0     H70335   4.320   5.634   2.944 -1.3897 -1.2240 -1.4192
  510MOL0     H70336   4.278   5.855   2.754  1.2644 -0.5750 -2.6850
  510MOL0     H70337   4.434   5.811   2.844  0.3662 -2.3368  1.1514
  510MOL0     H70338   4.420   5.740   2.423  0.5873  5.2407  0.5742
  510MOL0     H70339   4.671   5.643   2.223  0.1092 -0.7817  1.4671
  510MOL0     H70340   4.712   5.805   2.262  0.0980  1.2340  3.6663
  510MOL0     H70341   4.535   5.755   2.246 -0.9581 -2.1553  2.7054
  510MOL0     H70342   5.110   5.856   2.413 -0.8182  1.0700  2.3619
  510MOL0     H70343   5.363   5.885   2.379 -2.1387  0.0456 -0.6300
  510MOL0     H70344   5.703   5.684   2.626  1.2336  1.5805 -1.9331
  510MOL0     H70345   5.591   5.568   2.550 -1.0076  0.7976 -1.0121
  510MOL0     H70346   5.692   5.597   2.340 -2.8215 -0.4328  2.6519
  510MOL0     H70347   5.778   5.752   2.397  0.5181  0.6067  1.7897
  510MOL0     H70348   5.834   5.466   2.484 -0.0853  0.9669  0.0205
  510MOL0     H70349   5.904   5.628   2.545  2.0791  0.9308 -1.3952
  510MOL0     H70350   6.006   5.669   2.319 -1.7335 -0.2443 -3.7082
  510MOL0     H70351   5.911   5.523   2.270 -3.5941  0.1033  2.2827
  510MOL0     H70352   6.106   5.542   2.488  0.0008 -2.9963  1.5784
  510MOL0     H70353   6.038   5.388   2.414 -1.1182  0.4165 -0.7068
  510MOL0     H70354   6.286   5.481   2.360 -0.5102  2.5153 -0.4613
  510MOL0     H70355   6.194   5.587   2.256  1.2133 -0.3121 -0.0857
  510MOL0     H70356   6.071   5.379   2.162  1.2411 -1.0897 -3.5850
  510MOL0     H70357   6.188   5.275   2.224 -2.0404 -0.7201 -1.3364
  510MOL0     H70358   6.278   5.507   2.044 -3.9311  0.8201 -0.6675
  510MOL0     H70359   6.226   5.352   1.981 -1.2215  0.1607  1.2247
  510MOL0     H70360   5.420   5.582   2.674  1.6646 -0.0155 -1.9920
  510MOL0     H70361   5.182   5.541   2.678  1.6896 -1.4755  0.8721
  510MOL0     H70362   4.803   5.643   2.719  2.4860  1.6579 -2.4483
  510MOL0     H70363   4.586   5.651   2.811 -3.0438  0.7685 -0.3071
  510MOL0     H70364   3.106   6.156   3.382  0.0627  3.6841 -0.0993
  510MOL0     H70365   2.928   6.032   3.525  4.3910 -1.3682 -3.0223
  510MOL0     H70366   2.665   5.679   3.653 -0.7018 -1.1161 -1.0705
  510MOL0     H70367   2.509   5.582   3.788  0.8700  0.7594  1.2309
  510MOL0     H70368   2.154   5.469   3.811 -1.4019  2.5494 -0.1007
  510MOL0     H70369   2.304   5.487   3.726  0.3336  2.8075 -1.0573
  510MOL0     H70370   2.419   5.514   3.970  0.1510 -1.9674  1.6677
  510MOL0     H70371   2.319   5.365   3.959 -0.0057  0.6959  0.1229
  510MOL0     H70372   2.145   5.456   4.074  1.5300 -2.0625 -2.0240
  510MOL0     H70373   2.292   5.463   4.172  1.0961  0.2899 -0.3098
  510MOL0     H70374   2.152   5.693   4.031  0.9781  1.5317 -0.6901
  510MOL0     H70375   2.317   5.704   4.108  0.3874 -1.7158 -1.5346
  510MOL0     H70376   2.033   5.707   4.425  1.9823 -1.7043  1.2272
  510MOL0     H70377   2.232   5.907   3.689  0.0839 -1.5240 -1.2864
  510MOL0     H70378   2.282   6.070   3.520  0.6699 -1.0242  1.8196
  510MOL0     H70379   2.422   6.122   3.600  0.9198 -0.5937  0.6949
  510MOL0     H70380   2.430   6.041   3.431 -3.2211 -2.0830 -1.6115
  511MOL0     O70381   7.919   2.821   7.462 -0.3476 -0.1408  0.0377
  511MOL0     C70382   7.854   2.879   7.548 -0.7396 -0.6142 -0.5154
  511MOL0     O70383   7.832   2.834   7.672 -0.1358  0.6566  0.3751
  511MOL0     C70384   7.852   2.702   7.703  0.6771 -0.9716  0.5671
  511MOL0     C70385   7.782   2.601   7.639 -0.5477 -0.5809 -0.3625
  511MOL0     C70386   7.813   2.462   7.665 -0.5396  0.0543 -0.5800
  511MOL0     C70387   7.918   2.433   7.760 -0.1394 -0.4788  0.3851
  511MOL0     O70388   7.961   2.309   7.805  0.6557 -0.3390 -0.3675
  511MOL0     C70389   7.930   2.199   7.715 -0.6158 -0.7892  0.2085
  511MOL0     C70390   8.007   2.070   7.760  0.1089  0.3667 -0.2215
  511MOL0     C70391   8.158   2.089   7.773  0.1498  0.3641  0.4736
  511MOL0     C70392   8.220   2.005   7.887  0.2982  0.1001  0.0293
  511MOL0     C70393   8.375   2.015   7.885  0.9347  0.2506  0.5793
  511MOL0     C70394   8.444   1.934   7.993  0.8142  0.1471  0.5977
  511MOL0     C70395   8.594   1.965   8.001  0.4249  0.1681  0.8013
  511MOL0     C70396   8.654   1.875   8.102 -1.0225  1.1717 -0.1484
  511MOL0     N70397   8.802   1.869   8.099 -0.4529  0.7028  0.0146
  511MOL0     C70398   8.876   1.974   8.143  0.5952  0.4157  0.3278
  511MOL0     C70399   8.998   1.941   8.111  0.5214 -0.6389 -0.3491
  511MOL0     C70400   9.127   2.021   8.131 -0.2312 -0.5480  0.1970
  511MOL0     C70401   9.176   2.086   7.998  0.0536  0.1341 -0.5121
  511MOL0     C70402   9.323   2.104   8.014 -0.5094 -0.9226  0.1389
  511MOL0     C70403   9.384   2.142   7.876 -0.2426  1.6281 -0.0396
  511MOL0     O70404   9.425   2.019   7.808  0.1887 -0.8290  0.9530
  511MOL0     C70405   9.561   2.026   7.789 -0.7006 -0.0057 -0.5891
  511MOL0     C70406   9.624   2.117   7.706 -0.3391  1.1131 -0.3852
  511MOL0     C70407   9.759   2.102   7.690 -0.2002 -0.2418  0.8921
  511MOL0     C70408   9.826   2.197   7.591 -0.2698  0.0049 -0.0750
  511MOL0     C70409   9.833   2.004   7.751 -0.6136  0.4437 -0.1707
  511MOL0     C70410   9.984   1.990   7.743  0.5716 -0.1936 -0.5618
  511MOL0     O70411  10.053   2.103   7.793  0.3660 -0.4820 -0.3418
  511MOL0     C70412  10.181   2.106   7.741  0.2618  0.1397  0.1409
  511MOL0     C70413  10.226   2.055   7.620 -0.3102  0.4982 -0.3994
  511MOL0     C70414  10.350   2.077   7.573 -0.4124 -0.2807 -0.1510
  511MOL0     C70415  10.439   2.147   7.659 -0.3353  0.0619 -0.2675
  511MOL0     O70416  10.572   2.158   7.636 -0.6835 -0.4796 -0.6316
  511MOL0     C70417  10.633   2.095   7.519 -0.8985  0.5904  0.0784
  511MOL0     C70418  10.782   2.129   7.527  1.1930 -0.1064 -0.6867
  511MOL0     C70419  10.855   2.038   7.609  0.6658  0.5350 -0.6000
  511MOL0     C70420  11.000   2.051   7.586 -0.8885 -0.2508 -0.5081
  511MOL0     C70421  11.052   1.966   7.471 -0.4082  0.4883  0.5651
  511MOL0     C70422  11.034   1.810   7.490  0.1934 -0.3266 -0.1929
  511MOL0     C70423  11.121   1.711   7.397 -0.4059 -0.6454 -0.2294
  511MOL0     C70424  11.103   1.706   7.251 -0.2463 -0.8893 -0.9087
  511MOL0    Cl70425  10.932   1.705   7.198  0.3968 -0.5193 -0.4031
  511MOL0     C70426  10.406   2.193   7.777  1.3870  0.2624 -1.0052
  511MOL0     C70427  10.276   2.171   7.823 -0.0590 -0.9152 -0.4120
  511MOL0     O70428  10.030   1.880   7.710  0.0189 -0.3331  0.4439
  511MOL0     C70429   9.767   1.911   7.835 -0.5274  0.4943  0.1969
  511MOL0     C70430   9.628   1.916   7.841 -0.2784  0.1370 -0.5663
  511MOL0     N70431   9.004   1.815   8.049  0.0748  0.1767 -0.7084
  511MOL0     N70432   8.889   1.763   8.063  0.3336  0.1826 -0.5501
  511MOL0     C70433   7.980   2.544   7.831  0.4086  0.1223  0.7513
  511MOL0     C70434   7.947   2.671   7.801  1.1129 -1.0396 -0.1499
  511MOL0     C70435   7.815   3.017   7.515 -0.7219 -0.3393 -0.7186
  511MOL0     C70436   7.767   3.048   7.386 -0.2155 -0.5252  0.1049
  511MOL0     C70437   7.731   3.176   7.352 -0.2283  0.9007  0.3343
  511MOL0     C70438   7.739   3.280   7.449 -0.5006 -0.5181 -0.1933
  511MOL0     O70439   7.669   3.378   7.399 -0.1295 -0.6342  0.4037
  511MOL0     C70440   7.660   3.500   7.471  0.2397 -0.9140 -0.4066
  511MOL0     C70441   7.610   3.615   7.377  0.3343  0.0201  0.6096
  511MOL0     C70442   7.576   3.747   7.445 -0.1301 -0.5323  0.5088
  511MOL0     C70443   7.488   3.833   7.360 -0.4669  0.2084  0.0420
  511MOL0     C70444   7.489   3.962   7.422 -0.6650 -0.1321  0.0277
  511MOL0     C70445   7.481   4.086   7.458  0.4245  0.5708 -0.6796
  511MOL0     C70446   7.778   3.254   7.581  0.3039  0.5637 -0.0591
  511MOL0     C70447   7.830   3.123   7.615  0.6835 -0.0927  0.0990
  511MOL0     C70448   7.883   3.098   7.754  0.5256  0.2239  0.0784
  511MOL0     H70449   7.704   2.631   7.570 -0.4826  1.5041  0.4012
  511MOL0     H70450   7.762   2.374   7.628 -1.0018  0.1047 -0.0813
  511MOL0     H70451   7.936   2.235   7.612  2.7727 -0.1130  0.5195
  511MOL0     H70452   7.828   2.178   7.747 -0.6919  0.5428  0.8916
  511MOL0     H70453   7.967   2.057   7.861 -1.9864 -0.0987 -1.0645
  511MOL0     H70454   7.971   1.980   7.710  0.6793  0.1066 -0.1708
  511MOL0     H70455   8.217   2.060   7.685  0.8790  2.0605  0.3679
  511MOL0     H70456   8.170   2.197   7.785  0.1646  0.5784 -1.2250
  511MOL0     H70457   8.192   2.034   7.988 -1.3515 -2.2778  0.3466
  511MOL0     H70458   8.181   1.903   7.878  2.0742 -0.5610 -0.7356
  511MOL0     H70459   8.389   2.122   7.900 -1.7554  0.4683  2.2232
  511MOL0     H70460   8.412   1.994   7.784  1.9673  3.2170  0.2341
  511MOL0     H70461   8.394   1.973   8.082  0.7286 -0.0530  0.6376
  511MOL0     H70462   8.420   1.827   7.987  0.0140  0.3419  0.0897
  511MOL0     H70463   8.618   2.064   8.042  1.5648 -0.2819  1.2806
  511MOL0     H70464   8.641   1.957   7.902 -1.2801 -1.1884  0.0434
  511MOL0     H70465   8.625   1.909   8.202  2.5769 -1.4730  2.0524
  511MOL0     H70466   8.624   1.771   8.085 -0.0549  1.0698 -1.4156
  511MOL0     H70467   8.840   2.064   8.192 -0.8406 -0.4411  0.8980
  511MOL0     H70468   9.204   1.958   8.175  1.9866  0.8356 -1.5001
  511MOL0     H70469   9.108   2.104   8.200  0.7699 -0.5133  0.4414
  511MOL0     H70470   9.159   2.011   7.920 -1.6952  3.3536 -3.5433
  511MOL0     H70471   9.117   2.174   7.969 -3.5483 -1.4495  1.3182
  511MOL0     H70472   9.345   2.177   8.093  1.1878  0.0499 -1.1735
  511MOL0     H70473   9.373   2.011   8.045 -0.8061 -0.8645  0.8010
  511MOL0     H70474   9.313   2.199   7.815  1.2850  2.9516 -0.6356
  511MOL0     H70475   9.471   2.207   7.880 -0.4663  2.1465 -2.1819
  511MOL0     H70476   9.570   2.198   7.656  0.7881  2.8960  1.1468
  511MOL0     H70477   9.902   2.256   7.643  0.3516 -2.8480  2.5035
  511MOL0     H70478   9.760   2.261   7.531  1.3744  0.8851 -1.0343
  511MOL0     H70479   9.883   2.143   7.515 -1.0140 -1.3305  0.2843
  511MOL0     H70480  10.172   1.994   7.547  1.9410 -1.8418 -0.2340
  511MOL0     H70481  10.381   2.050   7.472  0.7325  0.7373 -0.1047
  511MOL0     H70482  10.617   1.987   7.532 -0.6530  0.8163  2.8987
  511MOL0     H70483  10.582   2.128   7.429 -2.0824 -0.5331  0.3103
  511MOL0     H70484  10.822   2.119   7.426  0.3290 -2.0542 -0.8866
  511MOL0     H70485  10.805   2.231   7.559  0.6520 -0.4702  1.0067
  511MOL0     H70486  10.823   1.935   7.589 -1.0189  1.1363 -1.1315
  511MOL0     H70487  10.849   2.052   7.718  0.5384  1.3251 -0.7037
  511MOL0     H70488  11.051   2.020   7.677 -0.1611 -0.3159 -0.9325
  511MOL0     H70489  11.020   2.157   7.565  3.1864 -0.9439 -0.9691
  511MOL0     H70490  10.994   1.992   7.382 -0.2764 -0.5970  0.1409
  511MOL0     H70491  11.159   1.986   7.466  0.3195 -2.9260 -1.4215
  511MOL0     H70492  10.929   1.782   7.480  0.2180  0.0514 -1.8388
  511MOL0     H70493  11.052   1.789   7.596 -1.8324  1.2638  0.5353
  511MOL0     H70494  11.089   1.612   7.429 -1.2441 -0.3506 -0.1322
  511MOL0     H70495  11.225   1.734   7.421 -0.2470 -0.6161 -0.9166
  511MOL0     H70496  11.149   1.613   7.217  0.8289  0.3709 -3.1125
  511MOL0     H70497  11.159   1.787   7.202  1.3770 -1.9190 -0.8367
  511MOL0     H70498  10.475   2.252   7.838  0.7549 -1.7022  1.7948
  511MOL0     H70499  10.243   2.216   7.916  1.5467  1.5393 -0.9363
  511MOL0     H70500   9.827   1.841   7.892 -1.0968  0.4118  0.6964
  511MOL0     H70501   9.581   1.841   7.903  2.5667 -0.0771  1.5095
  511MOL0     H70502   8.055   2.519   7.905  0.4342 -0.7340  0.4449
  511MOL0     H70503   8.002   2.752   7.847  1.9821 -0.3312 -2.2835
  511MOL0     H70504   7.769   2.975   7.307 -0.8956 -1.9899  1.3909
  511MOL0     H70505   7.685   3.203   7.258 -0.4621  0.2974  0.2697
  511MOL0     H70506   7.593   3.481   7.555  1.2496  1.5990  1.0584
  511MOL0     H70507   7.758   3.525   7.512 -0.2246 -1.3537  1.0111
  511MOL0     H70508   7.519   3.568   7.336  0.9226 -2.0024  1.4815
  511MOL0     H70509   7.673   3.626   7.288  0.2486 -0.8914  0.4215
  511MOL0     H70510   7.523   3.719   7.536 -1.6334 -0.4773 -0.3219
  511MOL0     H70511   7.666   3.808   7.458 -0.1622 -0.2780 -0.4110
  511MOL0     H70512   7.390   3.788   7.343  0.2014 -0.2294 -3.6370
  511MOL0     H70513   7.524   3.837   7.256  1.8082 -0.9449  0.7230
  511MOL0     H70514   7.468   4.185   7.497 -1.0203 -0.2818  1.1139
  511MOL0     H70515   7.777   3.322   7.666 -1.9455  0.6015 -0.0361
  511MOL0     H70516   7.954   3.015   7.758  3.6088  2.6204 -1.0496
  511MOL0     H70517   7.929   3.185   7.801 -1.5872  0.0004  2.7894
  511MOL0     H70518   7.798   3.064   7.814  0.8071  0.1529  0.4382
  512MOL0     O70519   5.585   3.428   2.283 -0.2929 -0.3091 -0.0361
  512MOL0     C70520   5.538   3.531   2.231 -0.6181  0.3598  0.0601
  512MOL0     O70521   5.600   3.645   2.220 -0.2754 -0.0593  0.6725
  512MOL0     C70522   5.697   3.666   2.313 -0.8682  0.3249  0.0202
  512MOL0     C70523   5.838   3.641   2.282  0.4074 -0.3328  0.7216
  512MOL0     C70524   5.918   3.650   2.399  0.1877  0.4801  1.1747
  512MOL0     C70525   5.868   3.679   2.533 -0.9361  0.2119 -0.0722
  512MOL0     O70526   5.946   3.690   2.642 -0.1728  0.4627 -0.1009
  512MOL0     C70527   6.084   3.702   2.607 -0.0771 -0.2968  0.0953
  512MOL0     C70528   6.166   3.754   2.729  0.1658 -0.7146 -0.7050
  512MOL0     C70529   6.314   3.770   2.691  0.4833 -0.6878 -0.2329
  512MOL0     C70530   6.324   3.901   2.607 -1.1396  0.6931  0.2113
  512MOL0     C70531   6.478   3.920   2.568 -0.5198 -0.1577 -1.1407
  512MOL0     C70532   6.565   3.937   2.696 -0.8418  0.6779 -0.4919
  512MOL0     C70533   6.710   3.996   2.678  0.3136  1.2507  0.3804
  512MOL0     C70534   6.796   3.896   2.591  0.8093  0.0351  0.0553
  512MOL0     N70535   6.942   3.929   2.580  0.3186 -0.4031 -0.7747
  512MOL0     C70536   7.023   3.908   2.469  0.8841  0.3286 -0.4016
  512MOL0     C70537   7.145   3.958   2.499 -0.2868  0.8718 -0.9497
  512MOL0     C70538   7.273   3.952   2.427 -0.5665  0.2618 -0.5829
  512MOL0     C70539   7.241   3.941   2.280 -0.0074 -0.2083  0.9962
  512MOL0     C70540   7.369   3.941   2.188  0.1314  0.0866 -0.7557
  512MOL0     C70541   7.454   3.815   2.211 -0.1407 -0.0207 -0.5204
  512MOL0     O70542   7.537   3.806   2.323 -0.4233  0.1637 -0.2481
  512MOL0     C70543   7.630   3.903   2.357 -0.6342  0.4221  0.5268
  512MOL0     C70544   7.666   3.907   2.492 -0.3473 -0.8561  0.4426
  512MOL0     C70545   7.772   3.998   2.537 -0.5538 -0.0576  0.4819
  512MOL0     C70546   7.800   3.998   2.683  0.0819  0.0690  0.7445
  512MOL0     C70547   7.824   4.096   2.445  0.6958  0.2859 -0.7785
  512MOL0     C70548   7.926   4.205   2.488  0.0583 -0.0406  0.0650
  512MOL0     O70549   7.896   4.330   2.436 -0.1489  0.9946 -0.4991
  512MOL0     C70550   7.930   4.430   2.524  0.2009 -0.4344 -0.8678
  512MOL0     C70551   7.844   4.476   2.626 -0.0873  0.3994 -1.0274
  512MOL0     C70552   7.877   4.579   2.711  1.1993 -0.1718 -0.0105
  512MOL0     C70553   8.009   4.637   2.706  0.2107  0.1575 -0.2085
  512MOL0     O70554   8.018   4.746   2.788  0.5027 -0.0700  0.6965
  512MOL0     C70555   8.144   4.805   2.788 -1.3476  0.0084  0.0048
  512MOL0     C70556   8.157   4.881   2.925 -0.3808  0.5912 -0.1209
  512MOL0     C70557   8.293   4.925   2.962  0.2595 -0.2417  0.3759
  512MOL0     C70558   8.340   5.047   2.884  1.0148 -0.1847  0.5702
  512MOL0     C70559   8.473   5.103   2.938 -0.1098  0.5411  0.4432
  512MOL0     C70560   8.539   5.203   2.835 -0.1442 -0.0151 -0.5193
  512MOL0     C70561   8.671   5.256   2.889  0.3707 -0.7469  0.0502
  512MOL0     C70562   8.765   5.290   2.775 -0.3899 -1.0090 -0.6403
  512MOL0    Cl70563   8.704   5.408   2.659  0.0154 -0.2950  0.2236
  512MOL0     C70564   8.096   4.582   2.610 -0.8885  0.9119  0.7321
  512MOL0     C70565   8.051   4.488   2.522 -1.1190  0.7596 -0.0870
  512MOL0     O70566   8.027   4.172   2.545 -0.5009  0.4032 -0.6471
  512MOL0     C70567   7.775   4.089   2.312 -0.6291 -0.5229  0.1663
  512MOL0     C70568   7.673   4.001   2.276  0.4323 -0.7492  0.5673
  512MOL0     N70569   7.143   4.015   2.621  0.0533 -0.1451  0.1275
  512MOL0     N70570   7.025   3.996   2.669  0.4960  0.2315 -0.3404
  512MOL0     C70571   5.737   3.700   2.546  0.3551 -0.7795 -0.8227
  512MOL0     C70572   5.645   3.695   2.444 -0.5267  0.5698  0.1269
  512MOL0     C70573   5.392   3.523   2.190 -0.0692 -0.3757 -0.3402
  512MOL0     C70574   5.330   3.641   2.156 -0.2357  0.1562  0.3457
  512MOL0     C70575   5.195   3.650   2.149  0.1959  0.0790 -0.7387
  512MOL0     C70576   5.112   3.542   2.158  0.0851 -0.2670 -0.4636
  512MOL0     O70577   4.978   3.561   2.166 -0.5358 -0.6516  0.5905
  512MOL0     C70578   4.883   3.450   2.164 -0.3277  0.4368  0.8179
  512MOL0     C70579   4.842   3.414   2.303 -1.0291 -0.9524  0.0219
  512MOL0     C70580   4.722   3.314   2.290 -1.0777 -0.7777  1.7055
  512MOL0     C70581   4.651   3.293   2.422 -0.6625 -0.2805 -0.8104
  512MOL0     C70582   4.753   3.263   2.525 -0.5379  0.2446 -0.4428
  512MOL0     C70583   4.837   3.244   2.609  0.3331 -0.7624  0.7387
  512MOL0     C70584   5.175   3.424   2.177 -0.0682 -0.4447 -0.8103
  512MOL0     C70585   5.309   3.408   2.193 -0.2191  0.3620 -0.2481
  512MOL0     C70586   5.356   3.266   2.212 -0.1619  0.6201 -0.4663
  512MOL0     H70587   5.874   3.608   2.185 -2.4733  1.2561 -1.0488
  512MOL0     H70588   6.026   3.651   2.389  0.2448  1.6073  1.7016
  512MOL0     H70589   6.104   3.770   2.524  0.6715  0.0391  0.5412
  512MOL0     H70590   6.131   3.610   2.573 -0.2424  0.3553 -2.0212
  512MOL0     H70591   6.128   3.840   2.785 -1.2969 -0.7201 -1.6223
  512MOL0     H70592   6.155   3.675   2.804  2.8478  1.9760  2.9321
  512MOL0     H70593   6.374   3.786   2.781  0.8492  3.7774 -1.0461
  512MOL0     H70594   6.345   3.684   2.631  2.2364  0.5760 -1.2358
  512MOL0     H70595   6.272   3.895   2.511 -0.5446  1.8893 -0.2033
  512MOL0     H70596   6.277   3.983   2.662 -2.3997 -2.4412  4.3021
  512MOL0     H70597   6.485   4.014   2.514  1.1814 -0.2957 -1.2220
  512MOL0     H70598   6.517   3.839   2.506 -0.5513 -2.4256  1.5924
  512MOL0     H70599   6.509   3.998   2.768 -0.8016 -0.4409  0.5376
  512MOL0     H70600   6.584   3.844   2.752  0.2662  0.9530 -0.3763
  512MOL0     H70601   6.754   4.013   2.777 -3.0379  2.1637  1.8418
  512MOL0     H70602   6.690   4.089   2.624 -0.1805 -0.2366 -2.1522
  512MOL0     H70603   6.791   3.799   2.642 -0.6054  0.8006  1.4780
  512MOL0     H70604   6.746   3.899   2.494 -1.1914  1.7419  1.0597
  512MOL0     H70605   6.989   3.858   2.379 -1.0156 -1.5922  1.2751
  512MOL0     H70606   7.350   3.882   2.458 -1.0516 -0.7526 -1.6040
  512MOL0     H70607   7.321   4.050   2.433 -1.4373  0.7138 -0.7944
  512MOL0     H70608   7.182   3.852   2.254 -1.7068  1.6407 -2.1286
  512MOL0     H70609   7.184   4.031   2.253  1.6786  0.2418 -1.3711
  512MOL0     H70610   7.330   3.943   2.086 -0.4772 -0.3830 -0.5331
  512MOL0     H70611   7.424   4.033   2.206 -0.5487  0.6058 -1.3160
  512MOL0     H70612   7.381   3.733   2.214 -1.4534  1.1399  1.9387
  512MOL0     H70613   7.526   3.804   2.129  0.2688  0.1089 -0.1771
  512MOL0     H70614   7.616   3.833   2.553 -0.2584 -1.1024  0.2178
  512MOL0     H70615   7.770   3.904   2.731  2.1655 -0.5900  0.8329
  512MOL0     H70616   7.727   4.066   2.728 -1.7638 -3.3715  3.4361
  512MOL0     H70617   7.899   4.024   2.720 -0.4292  0.6269  1.7404
  512MOL0     H70618   7.753   4.419   2.643  1.3755 -2.2712 -1.5429
  512MOL0     H70619   7.806   4.603   2.790  0.1410 -1.7762 -0.4324
  512MOL0     H70620   8.223   4.730   2.790 -1.4654 -0.2316 -1.9491
  512MOL0     H70621   8.154   4.875   2.705 -0.5336  0.9944  0.9177
  512MOL0     H70622   8.091   4.968   2.919 -0.0997  0.8464  0.3701
  512MOL0     H70623   8.128   4.822   3.012  2.7829 -0.8755  0.0750
  512MOL0     H70624   8.363   4.842   2.957  1.2200  0.5996 -0.6128
  512MOL0     H70625   8.307   4.957   3.065  5.3671  1.8139 -0.6747
  512MOL0     H70626   8.264   5.125   2.878  1.0270 -0.0378  1.8929
  512MOL0     H70627   8.361   5.009   2.784  1.1385  1.2449  0.0357
  512MOL0     H70628   8.462   5.162   3.029  0.7181  0.7413  0.4198
  512MOL0     H70629   8.533   5.014   2.962 -2.5914 -1.1414  0.7361
  512MOL0     H70630   8.469   5.286   2.825 -1.1300 -0.6412  0.7683
  512MOL0     H70631   8.552   5.159   2.736  0.5113  1.9791 -1.3574
  512MOL0     H70632   8.726   5.185   2.952 -0.2368 -0.5173  0.8470
  512MOL0     H70633   8.659   5.335   2.963 -0.9075 -2.9960  2.4454
  512MOL0     H70634   8.791   5.213   2.702  1.5736 -1.6797  0.6858
  512MOL0     H70635   8.851   5.338   2.822 -1.0521 -0.7630  0.3428
  512MOL0     H70636   8.197   4.619   2.601 -0.2384 -0.9200  0.0844
  512MOL0     H70637   8.126   4.435   2.464 -4.5518 -3.4737 -1.1270
  512MOL0     H70638   7.826   4.154   2.241 -1.7466 -0.9636 -1.0696
  512MOL0     H70639   7.631   3.993   2.176  2.3573 -4.4641 -0.1118
  512MOL0     H70640   5.699   3.716   2.646  1.1554 -2.3672 -0.2302
  512MOL0     H70641   5.539   3.709   2.462 -0.4756  0.7063  0.3207
  512MOL0     H70642   5.379   3.737   2.147 -0.6899  0.2293 -1.5923
  512MOL0     H70643   5.151   3.748   2.132  1.4456  0.6815 -0.6113
  512MOL0     H70644   4.800   3.495   2.110  0.6924  0.2874 -0.9803
  512MOL0     H70645   4.913   3.354   2.122  0.4537 -0.4889  3.2828
  512MOL0     H70646   4.804   3.502   2.356 -2.4582 -2.5611  1.7894
  512MOL0     H70647   4.922   3.388   2.372 -0.8071 -1.1100 -0.2934
  512MOL0     H70648   4.650   3.361   2.222  0.3247 -1.3004 -0.2148
  512MOL0     H70649   4.768   3.221   2.256  3.2785  1.5757  0.4611
  512MOL0     H70650   4.582   3.208   2.409 -1.2375  0.4456 -2.9466
  512MOL0     H70651   4.594   3.382   2.451  0.0260 -0.4107  1.0254
  512MOL0     H70652   4.895   3.241   2.700 -2.3575  0.7131  2.6468
  512MOL0     H70653   5.118   3.333   2.184  1.7218 -1.6113 -0.8010
  512MOL0     H70654   5.445   3.250   2.150 -0.6258 -0.9665 -0.7446
  512MOL0     H70655   5.384   3.245   2.316  2.7477 -1.0495 -1.4659
  512MOL0     H70656   5.281   3.201   2.168 -0.0887  0.8688 -0.9725
  513MOL0     O70657   3.167   4.784   7.596  0.3874  0.9197  0.1263
  513MOL0     C70658   3.149   4.681   7.533 -0.4861 -0.6889  0.2617
  513MOL0     O70659   3.220   4.634   7.429 -0.3192 -0.3444  0.1304
  513MOL0     C70660   3.332   4.696   7.395 -0.0025  0.2330  0.3491
  513MOL0     C70661   3.450   4.680   7.478  0.2928 -0.0596  0.6201
  513MOL0     C70662   3.568   4.732   7.426 -1.8250  0.3995  0.4078
  513MOL0     C70663   3.580   4.781   7.295  0.0614 -0.0083 -0.6094
  513MOL0     O70664   3.696   4.830   7.251  0.6793 -0.3119  0.1441
  513MOL0     C70665   3.812   4.749   7.291  0.5833 -0.0971 -0.0294
  513MOL0     C70666   3.917   4.734   7.180  0.0484  0.1098 -0.5602
  513MOL0     C70667   3.943   4.874   7.109  0.2814  0.8863 -0.2602
  513MOL0     C70668   4.064   4.862   7.018 -0.0534  0.3486 -0.2746
  513MOL0     C70669   4.181   4.879   7.110  0.4069  0.3286 -0.3453
  513MOL0     C70670   4.319   4.904   7.037  0.6368  0.3396  0.3792
  513MOL0     C70671   4.430   4.921   7.139 -0.5546  0.4013 -0.0200
  513MOL0     C70672   4.569   4.921   7.071 -0.1698  0.6325  0.1947
  513MOL0     N70673   4.674   4.941   7.173 -0.7999  0.2431  0.0702
  513MOL0     C70674   4.766   4.841   7.218  0.8056 -0.4177  0.5033
  513MOL0     C70675   4.851   4.906   7.297  0.1453 -0.0831 -0.2529
  513MOL0     C70676   4.960   4.840   7.381  0.7380 -0.1024  0.2953
  513MOL0     C70677   5.088   4.918   7.406  0.0960 -0.0806 -0.1042
  513MOL0     C70678   5.170   4.993   7.302 -0.5404  1.1543  0.3158
  513MOL0     C70679   5.303   4.920   7.285 -0.3443  0.3553  0.4075
  513MOL0     O70680   5.371   4.962   7.171 -0.4252 -0.5800 -0.1768
  513MOL0     C70681   5.503   4.916   7.144  0.7596  0.8004 -0.4308
  513MOL0     C70682   5.597   4.906   7.245  0.1218  0.1071 -0.2119
  513MOL0     C70683   5.730   4.874   7.221  0.4100  0.4014 -0.0535
  513MOL0     C70684   5.827   4.871   7.340 -0.3196 -0.1191 -0.0339
  513MOL0     C70685   5.775   4.839   7.086 -0.8352 -0.2234 -0.0382
  513MOL0     C70686   5.911   4.778   7.055  0.0748  1.0638  0.1305
  513MOL0     O70687   5.984   4.723   7.152  0.3735  0.1069  0.4883
  513MOL0     C70688   6.103   4.665   7.121 -0.1002 -1.0314 -0.4334
  513MOL0     C70689   6.129   4.589   7.005  0.1302  0.9401 -0.9345
  513MOL0     C70690   6.253   4.530   6.983 -0.7941  0.0151 -0.2719
  513MOL0     C70691   6.357   4.557   7.059 -0.0391  0.3060  0.9011
  513MOL0     O70692   6.475   4.516   7.014  0.2695  0.3740  0.1259
  513MOL0     C70693   6.588   4.562   7.089  0.3248  0.7485  0.4510
  513MOL0     C70694   6.710   4.504   7.021 -0.0108 -0.1671 -0.1657
  513MOL0     C70695   6.840   4.563   7.094  0.0291  0.5464  0.2690
  513MOL0     C70696   6.876   4.490   7.226  0.0302 -0.0612 -0.3399
  513MOL0     C70697   6.985   4.563   7.310 -0.2921 -0.1143  0.0505
  513MOL0     C70698   7.110   4.592   7.236 -0.4016  0.4224 -0.4594
  513MOL0     C70699   7.196   4.669   7.338 -0.4642 -0.5771 -0.3322
  513MOL0     C70700   7.336   4.712   7.291  0.2050  0.4078  0.0489
  513MOL0    Cl70701   7.333   4.853   7.174 -0.1539  0.1887  0.3440
  513MOL0     C70702   6.335   4.633   7.176 -0.3711  0.1225 -0.5227
  513MOL0     C70703   6.216   4.693   7.198  0.5329  0.3663 -0.0118
  513MOL0     O70704   5.955   4.806   6.939  0.2159 -0.3298 -0.5678
  513MOL0     C70705   5.683   4.855   6.983 -0.7494 -0.2649 -0.1559
  513MOL0     C70706   5.545   4.901   7.012  1.0953 -0.3066  0.6464
  513MOL0     N70707   4.821   5.040   7.291  0.5915 -0.5844  0.3593
  513MOL0     N70708   4.720   5.061   7.218 -0.2623  0.1274 -0.3003
  513MOL0     C70709   3.464   4.782   7.216  0.2640 -0.1140 -0.1775
  513MOL0     C70710   3.341   4.742   7.259 -0.7995  0.1742  0.3540
  513MOL0     C70711   3.029   4.604   7.570 -0.3950 -0.0993  0.1709
  513MOL0     C70712   2.919   4.624   7.483 -0.6949 -0.2391  0.5339
  513MOL0     C70713   2.801   4.554   7.498  0.9524  0.3797  0.0613
  513MOL0     C70714   2.786   4.464   7.604 -0.2887 -1.2772 -0.7780
  513MOL0     O70715   2.678   4.384   7.622  1.4528  0.0864  0.3825
  513MOL0     C70716   2.625   4.313   7.506 -0.3153 -0.8056 -1.0564
  513MOL0     C70717   2.514   4.395   7.431 -0.0661 -0.6186 -0.2416
  513MOL0     C70718   2.439   4.314   7.325 -0.0530 -0.4240  0.0209
  513MOL0     C70719   2.303   4.391   7.285  0.1083 -0.4665 -0.7227
  513MOL0     C70720   2.202   4.431   7.388  0.4259 -0.3405  0.8451
  513MOL0     C70721   2.119   4.450   7.480 -0.4521  0.3392  0.1342
  513MOL0     C70722   2.895   4.446   7.691 -0.2353 -1.0850 -0.2741
  513MOL0     C70723   3.018   4.517   7.673  0.0618  1.0446 -0.4827
  513MOL0     C70724   3.132   4.500   7.764 -0.4883  0.1310  0.5300
  513MOL0     H70725   3.444   4.647   7.581  2.0589 -1.3362  0.3692
  513MOL0     H70726   3.648   4.727   7.499 -3.9433  0.5432  2.8526
  513MOL0     H70727   3.780   4.647   7.315 -0.8843  0.9013  2.6130
  513MOL0     H70728   3.864   4.796   7.375  1.0613 -2.6110  1.1965
  513MOL0     H70729   4.003   4.685   7.227  1.3417  0.7993 -2.0985
  513MOL0     H70730   3.870   4.658   7.117  2.1289 -2.7430  1.0402
  513MOL0     H70731   3.854   4.892   7.047 -1.4284 -4.0140  0.3430
  513MOL0     H70732   3.962   4.955   7.180  1.2701  0.0893  0.4110
  513MOL0     H70733   4.044   4.769   6.964  0.2035  0.4929 -0.6170
  513MOL0     H70734   4.070   4.946   6.949  0.2882  0.4349 -0.1428
  513MOL0     H70735   4.197   4.805   7.189  0.5009  1.3755  0.6426
  513MOL0     H70736   4.172   4.972   7.167 -3.1665  1.7149 -2.8113
  513MOL0     H70737   4.331   4.813   6.978 -2.9576 -2.3541  3.2999
  513MOL0     H70738   4.314   4.987   6.966  0.8426 -0.0920 -0.1467
  513MOL0     H70739   4.423   4.846   7.218  0.1219  0.2782 -0.0761
  513MOL0     H70740   4.412   5.013   7.197 -4.0414  0.1299 -0.4215
  513MOL0     H70741   4.578   4.817   7.037 -0.1615  0.1337  1.6465
  513MOL0     H70742   4.572   4.997   6.993 -2.9611  1.3229  0.6353
  513MOL0     H70743   4.754   4.736   7.193  0.3084 -0.4249  0.7600
  513MOL0     H70744   4.998   4.753   7.327  0.9884  1.1635 -1.6540
  513MOL0     H70745   4.925   4.813   7.481  2.8943 -1.8553  0.6549
  513MOL0     H70746   5.057   5.001   7.470  2.0019  0.8726 -0.3356
  513MOL0     H70747   5.152   4.856   7.470 -0.7092 -1.6440 -0.7572
  513MOL0     H70748   5.129   5.006   7.202  0.1278  0.1163 -0.1126
  513MOL0     H70749   5.196   5.093   7.337  1.9320  0.5959  0.2744
  513MOL0     H70750   5.358   4.938   7.378 -0.5070  0.4664  0.4823
  513MOL0     H70751   5.286   4.814   7.268 -4.1012  1.2128 -2.2498
  513MOL0     H70752   5.572   4.924   7.349 -2.7563  0.9668 -0.9541
  513MOL0     H70753   5.924   4.909   7.308  0.1861 -2.0055 -0.9376
  513MOL0     H70754   5.834   4.763   7.357 -0.2546 -0.3795 -1.6037
  513MOL0     H70755   5.784   4.920   7.428  0.5587 -1.9509  1.5048
  513MOL0     H70756   6.058   4.579   6.924  1.7150 -0.4291 -2.2378
  513MOL0     H70757   6.254   4.473   6.891 -1.1194  1.0624 -0.9467
  513MOL0     H70758   6.601   4.671   7.080  1.5652  0.4097 -3.0958
  513MOL0     H70759   6.580   4.527   7.192 -0.0743  0.9486  0.4923
  513MOL0     H70760   6.713   4.396   7.007  1.7683 -0.1038 -0.5721
  513MOL0     H70761   6.707   4.548   6.921 -0.3790  2.7117  0.9913
  513MOL0     H70762   6.846   4.672   7.107 -1.6463  0.7748 -0.6209
  513MOL0     H70763   6.923   4.553   7.023  1.5551  2.8149  1.5780
  513MOL0     H70764   6.909   4.395   7.185  1.2994  0.9871 -1.8756
  513MOL0     H70765   6.787   4.473   7.287 -0.0736  0.4796 -0.3341
  513MOL0     H70766   6.941   4.659   7.339 -0.0930 -0.6665  2.3061
  513MOL0     H70767   7.014   4.502   7.396 -0.5901 -1.5645 -0.8325
  513MOL0     H70768   7.093   4.647   7.143 -0.2370  0.6466 -0.3582
  513MOL0     H70769   7.145   4.492   7.210  1.9523  0.9695  0.3675
  513MOL0     H70770   7.221   4.598   7.417 -0.5587 -0.5114 -0.2432
  513MOL0     H70771   7.137   4.754   7.375 -2.0243 -0.9159 -1.8939
  513MOL0     H70772   7.385   4.629   7.239 -0.7433 -0.8908  1.1795
  513MOL0     H70773   7.393   4.745   7.378 -0.8400 -0.3276  1.0379
  513MOL0     H70774   6.419   4.644   7.243 -0.6129  1.4362 -0.4157
  513MOL0     H70775   6.201   4.746   7.292 -1.4987  1.4376 -0.8759
  513MOL0     H70776   5.724   4.843   6.883 -2.0186  0.9150 -0.8336
  513MOL0     H70777   5.473   4.921   6.933  0.5977  0.0776  1.1891
  513MOL0     H70778   3.466   4.808   7.110 -0.8080  1.3045  0.1276
  513MOL0     H70779   3.261   4.740   7.186 -1.9647 -0.1290  1.5848
  513MOL0     H70780   2.932   4.686   7.395 -1.5577  0.0332  0.5892
  513MOL0     H70781   2.724   4.583   7.427 -0.7720 -1.2826  1.1457
  513MOL0     H70782   2.704   4.284   7.436 -0.8371 -1.7934 -1.2447
  513MOL0     H70783   2.570   4.225   7.540  0.6767 -0.6660  1.1655
  513MOL0     H70784   2.557   4.490   7.397  0.1544 -0.8816 -0.7123
  513MOL0     H70785   2.440   4.429   7.504 -1.3735  0.3571 -1.9404
  513MOL0     H70786   2.507   4.296   7.242  0.6912 -1.9305  0.9111
  513MOL0     H70787   2.417   4.218   7.374  0.4609  0.0480  1.2279
  513MOL0     H70788   2.259   4.328   7.208  1.1904  1.2019 -2.8080
  513MOL0     H70789   2.344   4.477   7.231  0.2042 -0.1219 -0.1086
  513MOL0     H70790   2.051   4.438   7.562  0.4556 -0.1847  0.8425
  513MOL0     H70791   2.888   4.374   7.772  0.3048  0.4208  1.1637
  513MOL0     H70792   3.111   4.412   7.825 -0.6500 -0.4818 -0.3878
  513MOL0     H70793   3.225   4.479   7.711 -1.6455 -2.3839 -0.6759
  513MOL0     H70794   3.128   4.588   7.828  1.4406 -0.8750  2.1077
  514MOL0     O70795   9.858   2.560   6.544 -0.4831  0.1160  0.5228
  514MOL0     C70796   9.751   2.568   6.601 -0.0502  0.1740 -0.9426
  514MOL0     O70797   9.736   2.627   6.724 -0.0670  0.5658 -0.2658
  514MOL0     C70798   9.833   2.700   6.781 -0.7463 -1.1587  1.0390
  514MOL0     C70799   9.819   2.841   6.791  0.1606 -0.7843 -0.0326
  514MOL0     C70800   9.917   2.916   6.859 -0.3641 -0.1275 -0.6137
  514MOL0     C70801  10.031   2.863   6.922  0.3221  0.3242  0.1302
  514MOL0     O70802  10.128   2.947   6.977  0.3617  0.5645 -0.5144
  514MOL0     C70803  10.261   2.892   7.000 -0.2088 -0.4858 -0.2876
  514MOL0     C70804  10.355   2.998   7.039  0.5032 -0.5096  0.5775
  514MOL0     C70805  10.502   2.951   7.033 -0.4900 -1.0673 -0.4447
  514MOL0     C70806  10.583   3.019   7.146  0.3373 -0.5590 -0.4425
  514MOL0     C70807  10.733   3.002   7.136  0.0285 -0.2385  1.1647
  514MOL0     C70808  10.808   3.045   7.258 -0.0290 -0.8921 -0.1473
  514MOL0     C70809  10.961   3.056   7.257 -0.6082  0.4835  0.4312
  514MOL0     C70810  11.010   3.175   7.164 -0.8514 -0.5593 -0.0626
  514MOL0     N70811  11.155   3.195   7.186 -0.0700  0.4512  0.0221
  514MOL0     C70812  11.247   3.094   7.189  0.6647 -0.4278 -0.1566
  514MOL0     C70813  11.363   3.160   7.195  0.0860  0.5170 -0.2212
  514MOL0     C70814  11.504   3.097   7.205 -0.6689  0.2305  0.0948
  514MOL0     C70815  11.613   3.201   7.181 -0.0277  0.3893  0.5436
  514MOL0     C70816  11.756   3.152   7.176 -0.4502 -0.4500 -0.4074
  514MOL0     C70817  11.863   3.256   7.140  0.0283 -0.1865  0.1609
  514MOL0     O70818  11.995   3.200   7.168 -0.0534 -0.0025  0.2887
  514MOL0     C70819  12.069   3.131   7.072  0.4966 -0.0433 -0.1760
  514MOL0     C70820  12.031   3.112   6.939  0.1156 -0.2509  1.4688
  514MOL0     C70821  12.115   3.037   6.854  0.3586 -0.1134  0.6591
  514MOL0     C70822  12.065   3.023   6.717  0.5150 -0.8407  0.1413
  514MOL0     C70823  12.241   2.985   6.898 -0.2016  0.2249  0.3402
  514MOL0     C70824  12.341   2.901   6.822  0.8222 -0.0194  0.1971
  514MOL0     O70825  12.460   2.881   6.888 -0.8147  0.2294  0.1498
  514MOL0     C70826  12.554   2.783   6.858  0.2238 -0.3896  0.2092
  514MOL0     C70827  12.535   2.668   6.785  0.1733  0.2676 -0.4533
  514MOL0     C70828  12.635   2.567   6.774  0.1113 -0.6422 -0.0934
  514MOL0     C70829  12.749   2.579   6.838 -0.9224 -0.0920 -0.1662
  514MOL0     O70830  12.851   2.483   6.832  0.3482  0.8116  0.3148
  514MOL0     C70831  12.858   2.371   6.740  0.3703  0.3340 -0.2286
  514MOL0     C70832  12.893   2.414   6.593  0.8950 -0.2463  0.5931
  514MOL0     C70833  12.989   2.532   6.575 -0.4119  0.0525 -0.3151
  514MOL0     C70834  13.142   2.505   6.594 -1.2674 -0.0344 -0.1510
  514MOL0     C70835  13.212   2.634   6.552  0.2917  0.2470  0.3077
  514MOL0     C70836  13.360   2.602   6.525 -0.4874  0.3591  0.3606
  514MOL0     C70837  13.446   2.597   6.645 -0.2853 -0.5386 -0.2079
  514MOL0     C70838  13.598   2.606   6.632 -0.1344 -0.2987 -0.0022
  514MOL0    Cl70839  13.686   2.568   6.778  0.1109  0.4283 -0.5539
  514MOL0     C70840  12.774   2.703   6.906  0.2498 -0.8723  0.2414
  514MOL0     C70841  12.679   2.805   6.923  0.6712  0.1717 -0.3927
  514MOL0     O70842  12.292   2.837   6.726 -0.7708  0.0657 -0.2211
  514MOL0     C70843  12.279   3.014   7.033  0.1502 -0.1422  0.0241
  514MOL0     C70844  12.194   3.082   7.112  0.7537  0.7390 -0.0125
  514MOL0     N70845  11.334   3.297   7.202  0.4203 -0.3450 -0.0958
  514MOL0     N70846  11.210   3.313   7.200  0.2101 -0.9931  0.2410
  514MOL0     C70847  10.042   2.720   6.908 -0.2711 -0.3200  0.6846
  514MOL0     C70848   9.943   2.638   6.840  0.9565  0.3235  0.3734
  514MOL0     C70849   9.636   2.481   6.550 -0.4488 -0.1973 -0.2378
  514MOL0     C70850   9.655   2.406   6.440 -0.6123 -1.4964  0.3952
  514MOL0     C70851   9.563   2.330   6.378 -0.4878 -0.6081  0.5080
  514MOL0     C70852   9.440   2.322   6.434  0.6202 -0.5768  0.9571
  514MOL0     O70853   9.360   2.228   6.372  0.0457  1.1877  1.3901
  514MOL0     C70854   9.231   2.191   6.420 -0.0589  0.1742 -0.1155
  514MOL0     C70855   9.178   2.073   6.341  0.3191 -0.0402  0.3609
  514MOL0     C70856   9.129   2.122   6.198  0.6081 -0.0441 -0.1510
  514MOL0     C70857   9.097   1.988   6.125  0.5776  0.3798 -0.2628
  514MOL0     C70858   9.037   2.022   5.997 -0.3202  0.0045 -1.0034
  514MOL0     C70859   8.996   2.046   5.884  1.5662 -0.4908 -0.1730
  514MOL0     C70860   9.412   2.394   6.549  1.0934 -0.1469  0.8701
  514MOL0     C70861   9.511   2.471   6.611  1.0763  0.1262  0.2582
  514MOL0     C70862   9.469   2.552   6.734 -0.1193  0.0952 -0.0312
  514MOL0     H70863   9.741   2.901   6.745  1.3600  1.6861  0.9362
  514MOL0     H70864   9.920   3.023   6.874  1.1873 -0.2691  0.2214
  514MOL0     H70865  10.304   2.861   6.904  1.1167  0.0114  0.1220
  514MOL0     H70866  10.261   2.808   7.071  3.1447 -0.9653 -0.6714
  514MOL0     H70867  10.351   3.082   6.968  5.0661  0.5833  1.2778
  514MOL0     H70868  10.331   3.039   7.137  0.3819  1.2951 -0.1638
  514MOL0     H70869  10.518   2.843   7.038  0.3635 -1.1910 -3.5511
  514MOL0     H70870  10.546   2.974   6.935 -0.6989  1.0777 -0.0903
  514MOL0     H70871  10.560   3.124   7.129  1.6594  0.4353  2.9716
  514MOL0     H70872  10.547   2.992   7.246 -1.0078  0.5554 -0.5994
  514MOL0     H70873  10.766   3.054   7.046  0.9913 -2.2932  0.2786
  514MOL0     H70874  10.746   2.894   7.128  0.5573 -0.0385 -1.2160
  514MOL0     H70875  10.764   3.142   7.284  0.1596 -1.2508  1.6323
  514MOL0     H70876  10.783   2.978   7.341 -0.3819  0.8058  1.1870
  514MOL0     H70877  11.005   2.957   7.243  0.1428  0.6439  1.5774
  514MOL0     H70878  10.981   3.075   7.363 -4.6514  2.8608  0.9999
  514MOL0     H70879  10.996   3.147   7.059  0.4091 -1.3893 -0.0281
  514MOL0     H70880  10.949   3.264   7.184 -0.2262 -0.3533  1.0234
  514MOL0     H70881  11.228   2.987   7.186 -1.2160 -0.1613  0.5853
  514MOL0     H70882  11.511   3.012   7.137 -0.7386  0.3948 -0.1156
  514MOL0     H70883  11.525   3.060   7.306  1.0877 -1.7888 -0.9258
  514MOL0     H70884  11.587   3.242   7.083 -0.8416  1.3347  1.1365
  514MOL0     H70885  11.587   3.287   7.243 -0.1256  2.4583 -2.1648
  514MOL0     H70886  11.772   3.088   7.264 -2.1340 -0.0420  0.2301
  514MOL0     H70887  11.762   3.076   7.098  0.5011 -1.2894  0.4556
  514MOL0     H70888  11.849   3.285   7.035  2.5287 -1.1207 -0.5141
  514MOL0     H70889  11.843   3.345   7.199  0.4405 -0.9739  1.5194
  514MOL0     H70890  11.940   3.160   6.904 -0.5609 -0.5668  2.7491
  514MOL0     H70891  12.151   3.022   6.649  2.1146 -0.9847  2.0434
  514MOL0     H70892  11.999   3.100   6.678  2.3216  0.6494 -0.1499
  514MOL0     H70893  12.006   2.932   6.704  1.0417 -0.8049 -3.6994
  514MOL0     H70894  12.439   2.655   6.735 -0.6877  0.5037  1.1017
  514MOL0     H70895  12.608   2.476   6.721 -2.6342 -2.2565  3.6317
  514MOL0     H70896  12.945   2.313   6.771 -0.6115  0.1844  2.5222
  514MOL0     H70897  12.764   2.315   6.736 -0.0321  0.9709  0.1857
  514MOL0     H70898  12.930   2.325   6.541  3.0495  1.3623 -0.8219
  514MOL0     H70899  12.799   2.443   6.547  0.1428 -4.4399 -0.9231
  514MOL0     H70900  12.955   2.618   6.634  0.5152  1.9119 -2.3695
  514MOL0     H70901  12.972   2.571   6.474 -0.4011  0.4854 -0.1512
  514MOL0     H70902  13.167   2.419   6.532  1.0122 -0.2279  0.9479
  514MOL0     H70903  13.164   2.485   6.699 -2.7338  0.3767  0.2643
  514MOL0     H70904  13.170   2.685   6.465 -1.7184  0.4621  1.3293
  514MOL0     H70905  13.199   2.699   6.640 -1.6090 -1.4274  1.3385
  514MOL0     H70906  13.406   2.675   6.458 -0.1149 -0.4708 -0.3221
  514MOL0     H70907  13.366   2.504   6.476 -1.6484  0.4816 -0.0565
  514MOL0     H70908  13.417   2.511   6.706 -0.2694  0.9106  1.9675
  514MOL0     H70909  13.427   2.688   6.703  1.3744 -1.6948  2.3219
  514MOL0     H70910  13.626   2.703   6.590 -0.3657 -0.5532 -0.7680
  514MOL0     H70911  13.631   2.537   6.553 -0.9131 -0.2293 -0.4002
  514MOL0     H70912  12.874   2.714   6.947  0.4056  3.7358 -0.7723
  514MOL0     H70913  12.700   2.896   6.977  0.4837 -1.3084  2.3375
  514MOL0     H70914  12.367   2.980   7.086  0.6391 -0.2125 -0.8201
  514MOL0     H70915  12.222   3.101   7.215 -0.9995  0.8170  0.4786
  514MOL0     H70916  10.123   2.673   6.963  0.8708  0.8132  0.0239
  514MOL0     H70917   9.952   2.531   6.853  1.5282  0.2939 -0.2209
  514MOL0     H70918   9.750   2.406   6.387  0.0693  0.4702  1.5012
  514MOL0     H70919   9.583   2.269   6.291 -1.1814 -0.6042  0.3377
  514MOL0     H70920   9.234   2.166   6.527 -1.8223  1.4471  0.2686
  514MOL0     H70921   9.167   2.278   6.408 -1.6506 -0.7847  1.0450
  514MOL0     H70922   9.098   2.020   6.392 -0.2511  0.0223 -0.4528
  514MOL0     H70923   9.263   2.005   6.333  2.9844  3.0669 -0.2792
  514MOL0     H70924   9.041   2.188   6.197 -1.3666 -2.4924 -2.2169
  514MOL0     H70925   9.210   2.177   6.150  2.2655 -0.5717  1.8547
  514MOL0     H70926   9.036   1.928   6.194  1.6980 -1.6074 -0.9125
  514MOL0     H70927   9.184   1.923   6.108 -0.8775 -1.4935 -0.9338
  514MOL0     H70928   8.967   2.066   5.783  0.8855 -2.2528 -0.3515
  514MOL0     H70929   9.316   2.388   6.599 -0.4739 -1.1307 -2.0048
  514MOL0     H70930   9.377   2.519   6.782 -0.1350 -1.1193 -0.8486
  514MOL0     H70931   9.551   2.531   6.803 -1.3628 -1.5932  0.9936
  514MOL0     H70932   9.456   2.659   6.721 -1.7504  0.1341  1.6023
  515MOL0     O70933   6.072   1.219   7.950 -0.1605  0.0018 -0.9791
  515MOL0     C70934   6.088   1.336   7.968  0.4236 -0.2723 -0.3302
  515MOL0     O70935   6.024   1.409   8.065 -0.0229 -0.4211 -0.0148
  515MOL0     C70936   5.933   1.348   8.151 -0.0898  0.8933 -0.2775
  515MOL0     C70937   5.951   1.227   8.217 -0.5346  1.0953  0.6218
  515MOL0     C70938   5.844   1.175   8.287 -0.2208  0.5983 -0.0736
  515MOL0     C70939   5.718   1.228   8.293  0.1614 -0.4481 -0.7089
  515MOL0     O70940   5.625   1.157   8.369  0.2213 -0.2834 -0.1138
  515MOL0     C70941   5.488   1.216   8.396 -0.3433 -0.6145  1.4516
  515MOL0     C70942   5.385   1.110   8.422  0.9658  0.6051  1.0180
  515MOL0     C70943   5.266   1.109   8.318 -0.1104  0.5497  0.2609
  515MOL0     C70944   5.317   1.051   8.180  0.0276  0.2895  0.9469
  515MOL0     C70945   5.231   1.104   8.066  0.2530 -1.2250 -0.3252
  515MOL0     C70946   5.258   1.040   7.930 -0.4936 -0.2074 -0.7626
  515MOL0     C70947   5.223   0.892   7.917  0.3873 -0.0385  0.2066
  515MOL0     C70948   5.207   0.847   7.770  0.2067 -0.5273  0.4618
  515MOL0     N70949   5.065   0.867   7.726 -0.5402 -0.0947  0.2605
  515MOL0     C70950   5.001   0.974   7.674  0.7940 -0.7948  0.4195
  515MOL0     C70951   4.880   0.932   7.623  0.1876  0.5917 -0.3324
  515MOL0     C70952   4.782   1.008   7.540  0.1961 -0.1784  0.6290
  515MOL0     C70953   4.792   1.002   7.386  0.0252 -0.4539 -0.8938
  515MOL0     C70954   4.933   1.015   7.329  0.5952 -0.1368 -0.6377
  515MOL0     C70955   4.934   0.987   7.177  0.3777 -0.0311  0.5196
  515MOL0     O70956   4.936   1.110   7.110 -0.1139 -0.1408  0.0175
  515MOL0     C70957   5.053   1.183   7.085  0.9774  0.1150  0.6792
  515MOL0     C70958   5.178   1.134   7.112  0.4741 -0.3816 -0.4385
  515MOL0     C70959   5.296   1.212   7.076  0.1250  0.4849  0.5254
  515MOL0     C70960   5.428   1.144   7.074 -0.1702  0.0147  0.0495
  515MOL0     C70961   5.282   1.344   7.022  0.0039 -1.0582 -0.0747
  515MOL0     C70962   5.386   1.444   6.986 -0.4818  0.5599  0.0214
  515MOL0     O70963   5.349   1.563   6.938 -0.2906 -0.5055  0.9806
  515MOL0     C70964   5.437   1.655   6.882 -0.0928 -0.6047 -0.9092
  515MOL0     C70965   5.502   1.753   6.966  0.5239 -0.5958 -0.0838
  515MOL0     C70966   5.582   1.845   6.896  0.9016 -0.6774  0.0220
  515MOL0     C70967   5.601   1.839   6.749 -0.6712  0.0030 -0.7128
  515MOL0     O70968   5.687   1.920   6.680 -0.6615 -0.0043 -0.4860
  515MOL0     C70969   5.770   2.006   6.755 -1.1495 -0.0938 -0.7256
  515MOL0     C70970   5.875   2.068   6.663  0.8394  0.6024  0.4627
  515MOL0     C70971   5.988   1.983   6.619  0.1564  0.1951 -0.3909
  515MOL0     C70972   6.061   2.036   6.499  0.2158  0.4110 -0.1033
  515MOL0     C70973   6.185   1.959   6.497  0.2527  0.2937  0.9053
  515MOL0     C70974   6.289   2.000   6.377  0.5456  0.3102 -0.7948
  515MOL0     C70975   6.410   1.907   6.394 -0.3919 -0.0580  0.3729
  515MOL0     C70976   6.519   1.965   6.307 -0.0628  0.4559  0.2929
  515MOL0    Cl70977   6.470   1.991   6.139  0.0797 -0.2321 -0.2380
  515MOL0     C70978   5.527   1.739   6.677 -1.0789 -0.3615  0.0023
  515MOL0     C70979   5.440   1.661   6.742 -0.1448 -0.2981  0.1470
  515MOL0     O70980   5.503   1.412   7.002  0.2678  0.0607  0.6794
  515MOL0     C70981   5.146   1.387   6.998 -0.3901  0.4329 -0.1954
  515MOL0     C70982   5.035   1.307   7.033  0.0994  0.5490 -0.3896
  515MOL0     N70983   4.876   0.799   7.652  0.0699  0.0116  0.4818
  515MOL0     N70984   4.985   0.758   7.707  0.4889 -0.5150 -0.5264
  515MOL0     C70985   5.701   1.345   8.222  0.8537  0.0204  0.4141
  515MOL0     C70986   5.805   1.403   8.155  0.2422  0.4894  0.7519
  515MOL0     C70987   6.187   1.410   7.881 -0.1894 -0.2215  0.2741
  515MOL0     C70988   6.198   1.549   7.895  0.1240  0.4022  0.5215
  515MOL0     C70989   6.283   1.622   7.809 -0.1976  1.0305  0.3485
  515MOL0     C70990   6.350   1.557   7.703  0.2771 -0.2584 -0.4487
  515MOL0     O70991   6.428   1.619   7.617  0.1804 -0.0204 -0.2958
  515MOL0     C70992   6.461   1.754   7.637  0.1564  0.7910 -0.1090
  515MOL0     C70993   6.579   1.780   7.536  0.0592  0.2855  0.5129
  515MOL0     C70994   6.537   1.777   7.384 -0.1589  0.3501 -0.2980
  515MOL0     C70995   6.654   1.776   7.291 -0.2029  0.2914 -0.0619
  515MOL0     C70996   6.734   1.896   7.291  0.1169  0.6417 -0.2239
  515MOL0     C70997   6.809   1.994   7.290  0.3824  0.2087 -0.3742
  515MOL0     C70998   6.347   1.423   7.690 -0.7295 -0.3497  0.0487
  515MOL0     C70999   6.281   1.347   7.784  0.2597 -0.4272 -0.0373
  515MOL0     C71000   6.290   1.196   7.759 -0.1102 -0.4136 -0.0352
  515MOL0     H71001   6.052   1.186   8.221 -0.8239  0.3209  0.0798
  515MOL0     H71002   5.866   1.080   8.334  1.1078  0.8117 -0.2365
  515MOL0     H71003   5.457   1.275   8.310  1.1987 -1.3272  0.3515
  515MOL0     H71004   5.497   1.288   8.478  1.7054 -1.5762  2.1506
  515MOL0     H71005   5.435   1.014   8.429  2.6799  1.4471  0.8058
  515MOL0     H71006   5.340   1.122   8.521  2.1122 -2.3904  1.9982
  515MOL0     H71007   5.180   1.046   8.344  0.3695  0.2840  1.2357
  515MOL0     H71008   5.224   1.209   8.304 -1.4040 -0.0207 -0.1502
  515MOL0     H71009   5.425   1.058   8.164  0.2110  0.3604  2.1353
  515MOL0     H71010   5.288   0.947   8.195 -0.8126  0.4261  0.3284
  515MOL0     H71011   5.251   1.212   8.056  1.5494 -1.4247 -0.1494
  515MOL0     H71012   5.124   1.093   8.081 -0.1157 -0.1655 -1.9421
  515MOL0     H71013   5.202   1.098   7.856  0.2041  1.9011  0.2847
  515MOL0     H71014   5.363   1.053   7.900  0.9847 -0.4768  3.5116
  515MOL0     H71015   5.131   0.877   7.974  0.8451  1.6833  1.4858
  515MOL0     H71016   5.303   0.839   7.969  0.4955  2.6836  3.0552
  515MOL0     H71017   5.273   0.912   7.712 -1.9196  3.9498  2.5466
  515MOL0     H71018   5.249   0.746   7.776 -1.7281 -1.2950  2.2233
  515MOL0     H71019   5.051   1.069   7.658  1.6049 -0.7678  2.7120
  515MOL0     H71020   4.782   1.115   7.561 -1.7260  0.5650 -2.4458
  515MOL0     H71021   4.687   0.962   7.568 -1.1390 -1.0150 -4.2550
  515MOL0     H71022   4.738   0.915   7.348 -3.6956  0.0956  2.3701
  515MOL0     H71023   4.737   1.087   7.344 -1.1418 -0.1343  1.1290
  515MOL0     H71024   4.981   1.108   7.359  3.2536 -1.3314 -0.8866
  515MOL0     H71025   4.983   0.936   7.385 -1.3429 -0.6438  0.4680
  515MOL0     H71026   5.019   0.921   7.156  0.3805 -0.2377  1.1605
  515MOL0     H71027   4.843   0.930   7.151 -0.7428  1.4795  0.9953
  515MOL0     H71028   5.202   1.035   7.150 -0.2049 -0.6802 -0.7831
  515MOL0     H71029   5.512   1.205   7.109 -0.2786  0.8217 -1.0532
  515MOL0     H71030   5.452   1.123   6.970  0.7536  0.7423  0.1016
  515MOL0     H71031   5.415   1.060   7.143 -1.0591 -0.1047 -0.2618
  515MOL0     H71032   5.480   1.778   7.069  0.1522  1.3949 -0.5965
  515MOL0     H71033   5.625   1.926   6.954 -3.6364  2.3343 -0.2516
  515MOL0     H71034   5.712   2.083   6.806 -0.0508  0.0322  0.4064
  515MOL0     H71035   5.828   1.949   6.829 -1.1270  1.3169  0.3888
  515MOL0     H71036   5.832   2.114   6.573  0.0972  0.2826  0.6407
  515MOL0     H71037   5.930   2.147   6.713  1.2840 -0.7443  2.2052
  515MOL0     H71038   5.941   1.886   6.601 -0.6823  0.1562  1.7186
  515MOL0     H71039   6.049   1.964   6.708  0.0749 -0.7245 -0.5227
  515MOL0     H71040   6.088   2.142   6.510  0.0985  0.3580  0.7314
  515MOL0     H71041   6.000   2.026   6.409  0.5389  1.3084 -0.4343
  515MOL0     H71042   6.236   1.972   6.594  1.2169  4.6074  0.0264
  515MOL0     H71043   6.156   1.855   6.483  1.6145  0.1855 -1.6453
  515MOL0     H71044   6.326   2.102   6.388 -0.4022  0.6226 -0.3463
  515MOL0     H71045   6.251   1.977   6.277  0.8545  1.3586 -1.1644
  515MOL0     H71046   6.383   1.805   6.367 -0.4535  0.1411 -0.3241
  515MOL0     H71047   6.440   1.920   6.499 -0.3681  1.6989  0.1820
  515MOL0     H71048   6.599   1.892   6.322 -1.0881 -0.6674  0.4650
  515MOL0     H71049   6.550   2.059   6.353 -0.6481 -0.1316  1.9742
  515MOL0     H71050   5.531   1.745   6.568  1.2817 -1.6350 -0.0492
  515MOL0     H71051   5.356   1.616   6.690 -0.1540  0.0188 -0.1165
  515MOL0     H71052   5.109   1.486   6.972  0.7253  0.7600 -0.5496
  515MOL0     H71053   4.938   1.341   6.997  0.7810  0.9555 -1.9467
  515MOL0     H71054   5.606   1.396   8.208  1.5393  1.3079  0.2494
  515MOL0     H71055   5.786   1.489   8.090  0.6612 -0.5230 -0.7710
  515MOL0     H71056   6.135   1.596   7.970 -0.8889 -0.0306 -0.0409
  515MOL0     H71057   6.266   1.729   7.817 -0.8023  0.8435  1.9745
  515MOL0     H71058   6.383   1.819   7.596 -0.3091  1.1637  1.2947
  515MOL0     H71059   6.484   1.768   7.743  3.3431  1.9103 -0.8707
  515MOL0     H71060   6.654   1.701   7.548  1.2817  1.3167 -0.0136
  515MOL0     H71061   6.627   1.877   7.558  0.5455 -0.1112  1.2532
  515MOL0     H71062   6.483   1.684   7.366  1.5995 -0.6218 -0.7692
  515MOL0     H71063   6.459   1.851   7.361 -1.3585 -1.2859 -1.7865
  515MOL0     H71064   6.609   1.741   7.197 -0.1774 -3.1178  1.0386
  515MOL0     H71065   6.724   1.696   7.319 -0.8925 -0.4795 -0.5020
  515MOL0     H71066   6.891   2.062   7.289  0.1250  0.5752  0.9074
  515MOL0     H71067   6.410   1.374   7.617  0.0137  1.0044 -0.2474
  515MOL0     H71068   6.289   1.138   7.852 -0.7024  1.3244  1.1051
  515MOL0     H71069   6.192   1.162   7.723 -0.8621 -1.6271  2.8267
  515MOL0     H71070   6.372   1.173   7.691 -1.1250 -1.7202 -0.8603
  516MOL0     O71071   5.748   2.371   3.060  0.6906  0.4878 -0.3118
  516MOL0     C71072   5.748   2.466   2.980 -0.4072 -0.6181 -0.1299
  516MOL0     O71073   5.638   2.522   2.924  0.1983 -0.2318 -0.8706
  516MOL0     C71074   5.520   2.506   2.987 -0.2258  0.0693 -0.4095
  516MOL0     C71075   5.507   2.475   3.123 -0.2185 -0.2487 -0.1377
  516MOL0     C71076   5.379   2.470   3.176 -0.3874 -0.5447 -0.2885
  516MOL0     C71077   5.269   2.473   3.092  0.4314 -0.2320  0.1207
  516MOL0     O71078   5.136   2.476   3.127 -0.8937 -0.7356  0.1111
  516MOL0     C71079   5.107   2.549   3.255  0.0817  0.5875 -0.6762
  516MOL0     C71080   5.050   2.696   3.238  1.1332  0.2139 -0.4083
  516MOL0     C71081   4.913   2.711   3.171 -0.2826  0.9752 -0.2027
  516MOL0     C71082   4.803   2.623   3.235 -0.3608  0.9879 -0.8063
  516MOL0     C71083   4.668   2.672   3.197 -0.0906  0.3740  0.8449
  516MOL0     C71084   4.646   2.659   3.044 -0.1754 -0.1302  0.0348
  516MOL0     C71085   4.490   2.666   3.029 -0.6280  0.2763  0.9452
  516MOL0     C71086   4.457   2.660   2.877 -0.5620  0.0969  0.1679
  516MOL0     N71087   4.306   2.656   2.867 -0.1230  0.3517 -0.5393
  516MOL0     C71088   4.230   2.534   2.842  1.4335 -0.5964  0.0342
  516MOL0     C71089   4.103   2.582   2.845  0.8164  0.1398 -0.8054
  516MOL0     C71090   3.980   2.494   2.821  0.0455  0.7065  0.4282
  516MOL0     C71091   3.940   2.407   2.941 -0.2425  0.9093 -0.0974
  516MOL0     C71092   3.895   2.262   2.912 -0.3333 -0.4003 -0.8027
  516MOL0     C71093   4.005   2.169   2.852  0.4932  0.2813  1.1638
  516MOL0     O71094   4.113   2.160   2.945 -0.4455  0.1274 -0.3563
  516MOL0     C71095   4.238   2.107   2.907 -0.0951  0.3103 -0.3420
  516MOL0     C71096   4.325   2.067   3.009 -0.1031  0.4910  0.1333
  516MOL0     C71097   4.444   2.002   2.972 -0.7145 -0.2762  0.1912
  516MOL0     C71098   4.534   1.966   3.089  0.0703  0.5468  0.4252
  516MOL0     C71099   4.480   1.977   2.836  0.8866 -0.8908 -0.3873
  516MOL0     C71100   4.598   1.903   2.802 -0.4807  0.1658 -0.0798
  516MOL0     O71101   4.627   1.791   2.881 -1.1276 -0.2250 -0.1674
  516MOL0     C71102   4.733   1.720   2.846 -0.6330  0.7336 -0.0917
  516MOL0     C71103   4.738   1.589   2.794  0.5707 -0.4830  0.5778
  516MOL0     C71104   4.865   1.538   2.756 -0.2809  0.7995 -0.0746
  516MOL0     C71105   4.985   1.601   2.780 -0.0664 -0.6468  0.4803
  516MOL0     O71106   5.107   1.536   2.759 -0.0201 -0.0186  0.5300
  516MOL0     C71107   5.195   1.552   2.878 -1.0234 -0.0832  0.3923
  516MOL0     C71108   5.301   1.435   2.881  0.2212 -0.2498  0.4254
  516MOL0     C71109   5.244   1.308   2.942  0.0595  0.3281  0.9426
  516MOL0     C71110   5.358   1.205   2.959  0.0601  0.1850 -0.2386
  516MOL0     C71111   5.299   1.071   2.995 -0.5057  0.6799 -1.3532
  516MOL0     C71112   5.250   1.064   3.150  0.1036  1.1610  0.7100
  516MOL0     C71113   5.111   1.114   3.179  0.1938 -0.6527  0.6165
  516MOL0     C71114   5.048   1.052   3.303 -0.1790  0.7248 -1.1399
  516MOL0    Cl71115   5.159   1.082   3.450  0.2767 -0.3327 -0.1175
  516MOL0     C71116   4.980   1.733   2.835 -1.0671  0.1134 -0.4018
  516MOL0     C71117   4.859   1.782   2.861  0.1111 -0.0771  0.6625
  516MOL0     O71118   4.651   1.934   2.696  0.7242 -0.1033 -0.3055
  516MOL0     C71119   4.397   2.029   2.738 -0.1032 -0.0350 -0.5067
  516MOL0     C71120   4.276   2.089   2.773 -0.2849 -0.3989 -0.2928
  516MOL0     N71121   4.102   2.714   2.881  1.3261 -0.5906 -0.4603
  516MOL0     N71122   4.223   2.755   2.893 -0.4457  0.4205 -0.8660
  516MOL0     C71123   5.283   2.497   2.957  0.4781 -0.7309  0.4032
  516MOL0     C71124   5.408   2.508   2.903  0.6502 -0.8094 -0.3194
  516MOL0     C71125   5.875   2.514   2.932  0.2021 -0.2034 -1.4532
  516MOL0     C71126   5.986   2.519   3.020  0.0889 -0.0973 -0.4257
  516MOL0     C71127   6.116   2.550   2.990  1.0913 -0.1743 -0.9491
  516MOL0     C71128   6.149   2.571   2.854  0.5922 -0.1406 -0.2186
  516MOL0     O71129   6.283   2.581   2.819 -0.2301  0.2198 -0.3784
  516MOL0     C71130   6.386   2.545   2.908  0.3020  0.5812 -0.5249
  516MOL0     C71131   6.511   2.557   2.821 -0.3693  0.9552  0.7454
  516MOL0     C71132   6.538   2.701   2.766  0.0521  0.1789  0.5786
  516MOL0     C71133   6.675   2.695   2.703 -0.3491  0.3026  0.0146
  516MOL0     C71134   6.719   2.826   2.643 -0.5148  0.2032 -0.0531
  516MOL0     C71135   6.767   2.934   2.620 -0.5257  0.6069  0.4316
  516MOL0     C71136   6.037   2.598   2.771 -0.0587  0.4803 -0.0154
  516MOL0     C71137   5.899   2.559   2.799  0.2531  0.1321  0.3162
  516MOL0     C71138   5.812   2.547   2.687 -0.0360  0.0072  0.1376
  516MOL0     H71139   5.594   2.479   3.187  1.2372 -2.2669 -1.8671
  516MOL0     H71140   5.366   2.448   3.282  2.2963  2.3046  0.7717
  516MOL0     H71141   5.192   2.574   3.319 -0.5778  1.9044 -0.2616
  516MOL0     H71142   5.035   2.487   3.309 -0.7366  1.3799 -0.8354
  516MOL0     H71143   5.032   2.737   3.338 -4.2894 -0.2871 -0.8489
  516MOL0     H71144   5.124   2.762   3.195 -1.7723  0.8873 -5.0477
  516MOL0     H71145   4.888   2.818   3.175 -1.1042  0.7700  0.4035
  516MOL0     H71146   4.921   2.671   3.069 -4.3321 -0.0866 -0.3047
  516MOL0     H71147   4.819   2.517   3.210  3.3826  0.7355  1.7947
  516MOL0     H71148   4.815   2.625   3.344  1.3174 -1.1978 -0.8805
  516MOL0     H71149   4.654   2.776   3.230 -2.4173  0.5810 -0.5333
  516MOL0     H71150   4.594   2.611   3.251 -1.6155 -1.1656 -2.6697
  516MOL0     H71151   4.685   2.745   2.990  0.0798 -0.1893  0.1263
  516MOL0     H71152   4.681   2.564   3.004  0.1330  1.1732 -3.0646
  516MOL0     H71153   4.464   2.768   3.061  1.4598  0.4050  2.3936
  516MOL0     H71154   4.446   2.584   3.087  1.2069 -2.7007 -1.5400
  516MOL0     H71155   4.483   2.751   2.823 -1.7399  0.5478  0.3115
  516MOL0     H71156   4.497   2.572   2.828 -1.0117  0.2946 -0.5581
  516MOL0     H71157   4.244   2.429   2.817 -0.9835 -0.7671 -0.8352
  516MOL0     H71158   3.995   2.429   2.734 -2.9592 -1.0268  1.0857
  516MOL0     H71159   3.896   2.563   2.806  0.2643  0.7387 -0.7136
  516MOL0     H71160   4.022   2.407   3.014  1.9071  2.6625 -2.3356
  516MOL0     H71161   3.860   2.463   2.991 -0.1738  2.2444 -1.4214
  516MOL0     H71162   3.864   2.225   3.010 -0.4725  2.9755  0.5456
  516MOL0     H71163   3.810   2.266   2.842 -0.3389 -2.8637 -1.0282
  516MOL0     H71164   3.961   2.069   2.847 -0.1012  0.5974 -1.6235
  516MOL0     H71165   4.027   2.206   2.751 -0.9953  0.9716  1.0712
  516MOL0     H71166   4.293   2.073   3.113 -1.1086 -3.6566  0.2465
  516MOL0     H71167   4.528   2.036   3.174  0.3115  1.2575 -0.1331
  516MOL0     H71168   4.639   1.970   3.059  0.2946  0.7522  1.2010
  516MOL0     H71169   4.512   1.862   3.115 -1.1400  0.2804 -1.5096
  516MOL0     H71170   4.647   1.530   2.792  0.2825 -0.0530  0.7099
  516MOL0     H71171   4.872   1.435   2.720 -0.6921  0.9398 -0.5720
  516MOL0     H71172   5.249   1.647   2.882 -1.9727  0.4951 -0.2152
  516MOL0     H71173   5.140   1.537   2.971  2.0465  0.2310  2.4012
  516MOL0     H71174   5.342   1.419   2.781 -1.2119 -1.4350 -0.0150
  516MOL0     H71175   5.382   1.470   2.946  0.7243  0.3971 -0.5407
  516MOL0     H71176   5.161   1.269   2.882  2.1866  0.0811 -2.0668
  516MOL0     H71177   5.204   1.350   3.035  0.0174  3.6029 -0.4002
  516MOL0     H71178   5.419   1.254   3.036 -0.1622  3.3757 -1.9344
  516MOL0     H71179   5.419   1.189   2.870 -0.7957 -0.6050 -0.7033
  516MOL0     H71180   5.227   1.034   2.922 -0.1577 -1.5789 -0.6304
  516MOL0     H71181   5.372   0.991   2.982 -1.7622 -0.6435 -0.5347
  516MOL0     H71182   5.313   1.121   3.218  0.7632 -1.4721  2.4444
  516MOL0     H71183   5.247   0.963   3.192 -0.1410  1.3952  1.2686
  516MOL0     H71184   5.055   1.087   3.089 -2.6540 -0.8122  2.2952
  516MOL0     H71185   5.107   1.223   3.188 -2.3564 -0.5381 -0.9028
  516MOL0     H71186   5.045   0.945   3.281  1.4512  0.6323 -1.0549
  516MOL0     H71187   4.950   1.088   3.335 -0.1774 -1.4663  1.7294
  516MOL0     H71188   5.069   1.795   2.847 -1.5427  0.9562 -1.0911
  516MOL0     H71189   4.856   1.883   2.901 -0.0198  0.1405  0.1064
  516MOL0     H71190   4.413   2.005   2.633 -1.3260 -0.9944 -0.4985
  516MOL0     H71191   4.205   2.106   2.692 -3.0095 -1.2067  1.7545
  516MOL0     H71192   5.208   2.521   2.882  1.2575  2.2013  0.4189
  516MOL0     H71193   5.427   2.523   2.798  1.0471 -0.7881 -0.2485
  516MOL0     H71194   5.961   2.501   3.125 -0.2578 -2.5899 -0.8551
  516MOL0     H71195   6.190   2.543   3.069  0.5192 -2.0927 -0.5250
  516MOL0     H71196   6.384   2.603   3.000  0.5596  0.0210 -0.1606
  516MOL0     H71197   6.373   2.441   2.938 -1.4700  0.9071 -0.0543
  516MOL0     H71198   6.494   2.498   2.731  0.6264  1.2495  0.3464
  516MOL0     H71199   6.600   2.514   2.867 -0.6278 -1.5498 -0.9080
  516MOL0     H71200   6.462   2.736   2.695  1.2723  2.1623  0.1863
  516MOL0     H71201   6.531   2.776   2.846  0.3702  2.2707 -1.2475
  516MOL0     H71202   6.690   2.615   2.630 -0.1558  0.5069 -0.1723
  516MOL0     H71203   6.751   2.676   2.779 -0.4915 -2.1227 -0.3851
  516MOL0     H71204   6.812   3.029   2.599 -0.1814  0.2042 -0.7252
  516MOL0     H71205   6.062   2.638   2.673  2.0029  4.6546  1.9473
  516MOL0     H71206   5.748   2.635   2.675  0.4102  0.3495  0.2688
  516MOL0     H71207   5.874   2.548   2.596  0.3719 -0.3706  0.4064
  516MOL0     H71208   5.759   2.451   2.687 -0.6829  0.3572  0.3024
  517MOL0     O71209   6.425   3.564  10.714 -0.0758  0.1845  0.5910
  517MOL0     C71210   6.380   3.671  10.670 -0.3028 -0.2577 -0.1286
  517MOL0     O71211   6.450   3.786  10.689 -0.3275 -0.0029 -0.1787
  517MOL0     C71212   6.579   3.784  10.735 -0.3152  0.0932 -0.8540
  517MOL0     C71213   6.684   3.739  10.655  0.1960  0.0764  0.0900
  517MOL0     C71214   6.824   3.754  10.692 -0.6707 -0.4344 -0.4341
  517MOL0     C71215   6.857   3.807  10.816  0.4496 -0.2085  0.5289
  517MOL0     O71216   6.994   3.832  10.844 -0.4197  0.5187  0.2163
  517MOL0     C71217   7.093   3.742  10.782  0.8648 -0.2098 -0.4134
  517MOL0     C71218   7.229   3.779  10.840 -0.6544 -0.0232 -0.5528
  517MOL0     C71219   7.352   3.749  10.745  0.0809 -0.2972 -0.6675
  517MOL0     C71220   7.386   3.595  10.745 -0.1347  0.7056 -0.0751
  517MOL0     C71221   7.481   3.569  10.631 -0.1932  0.2934  0.0359
  517MOL0     C71222   7.473   3.422  10.578  0.1693  0.9095 -0.2470
  517MOL0     C71223   7.573   3.330  10.658 -0.0441 -0.4593 -0.9654
  517MOL0     C71224   7.558   3.190  10.602  0.7658  0.5215 -0.5414
  517MOL0     N71225   7.693   3.143  10.587 -0.9060  0.4288 -0.6725
  517MOL0     C71226   7.768   3.091  10.699  1.0397  0.2925 -0.0718
  517MOL0     C71227   7.888   3.067  10.639 -0.9046 -0.7596 -0.7622
  517MOL0     C71228   7.995   2.985  10.704 -0.3743  1.1525  0.2369
  517MOL0     C71229   8.049   3.053  10.830 -0.4340 -0.4200  0.4803
  517MOL0     C71230   8.177   2.973  10.870  0.1644 -0.2362  0.4123
  517MOL0     C71231   8.217   3.024  11.004 -0.7441  0.5313 -0.3478
  517MOL0     O71232   8.134   3.016  11.109  0.1502  0.2187  0.2359
  517MOL0     C71233   8.165   3.090  11.219 -0.2117  0.2362  0.9629
  517MOL0     C71234   8.074   3.160  11.295 -0.6821  1.0585  0.1617
  517MOL0     C71235   8.106   3.234  11.404 -0.1843  0.2676  0.2312
  517MOL0     C71236   7.992   3.318  11.464 -0.3980 -0.6953 -0.3751
  517MOL0     C71237   8.237   3.227  11.462 -0.3129  0.2631  0.7992
  517MOL0     C71238   8.280   3.311  11.575  0.7955  0.0897  0.1794
  517MOL0     O71239   8.412   3.348  11.559 -0.3393  0.2097  0.5522
  517MOL0     C71240   8.490   3.400  11.657  0.3341 -0.2339 -0.0205
  517MOL0     C71241   8.445   3.432  11.790  0.0194 -0.7631 -0.7147
  517MOL0     C71242   8.535   3.483  11.880  0.0078 -0.6865 -0.2621
  517MOL0     C71243   8.672   3.497  11.852  1.1787  0.7918  0.3114
  517MOL0     O71244   8.741   3.549  11.949  0.1560  0.2411  1.2713
  517MOL0     C71245   8.874   3.601  11.922  0.8209  0.2110  0.8180
  517MOL0     C71246   8.878   3.729  11.839 -0.3534 -0.2483  0.4482
  517MOL0     C71247   8.813   3.836  11.925 -0.3446  0.6757 -0.7662
  517MOL0     C71248   8.687   3.902  11.862  0.0765 -0.7441  0.1672
  517MOL0     C71249   8.646   4.010  11.957  0.2814  0.5407  0.0265
  517MOL0     C71250   8.571   4.128  11.897 -1.0128  0.6617 -0.1846
  517MOL0     C71251   8.517   4.215  12.009 -1.1407  0.3460 -0.0965
  517MOL0     C71252   8.502   4.356  11.953  0.1877  0.6765  0.8040
  517MOL0    Cl71253   8.481   4.481  12.078 -0.4860 -0.0783 -0.0440
  517MOL0     C71254   8.714   3.471  11.721  0.5554 -0.6293 -0.6055
  517MOL0     C71255   8.625   3.418  11.623  0.0564  0.0488  0.5737
  517MOL0     O71256   8.192   3.350  11.658 -0.4717 -0.2905  0.2496
  517MOL0     C71257   8.334   3.151  11.390  1.2769  0.3161 -0.4839
  517MOL0     C71258   8.292   3.078  11.271 -1.0838  1.0770 -0.5238
  517MOL0     N71259   7.877   3.089  10.508  0.0292 -0.6474 -0.2098
  517MOL0     N71260   7.775   3.154  10.479  0.5467 -0.1414  0.5650
  517MOL0     C71261   6.747   3.847  10.896 -0.0987 -0.0270 -0.3630
  517MOL0     C71262   6.613   3.826  10.860 -0.5099  0.6677  0.8799
  517MOL0     C71263   6.233   3.667  10.630 -1.1103  0.0103  0.2653
  517MOL0     C71264   6.170   3.539  10.622  0.6001  0.3291 -0.0283
  517MOL0     C71265   6.039   3.517  10.575  0.1899  0.4107 -0.1805
  517MOL0     C71266   5.963   3.623  10.530 -0.1749  0.4168  0.7056
  517MOL0     O71267   5.833   3.602  10.495  0.0286  1.4251  0.5044
  517MOL0     C71268   5.786   3.493  10.426 -0.0750  0.3844  0.7025
  517MOL0     C71269   5.676   3.433  10.519  0.0925  0.0236  0.4031
  517MOL0     C71270   5.697   3.434  10.672  0.0899 -0.4327 -0.2685
  517MOL0     C71271   5.602   3.349  10.748  0.7916  2.1911  0.3819
  517MOL0     C71272   5.466   3.405  10.751  0.0921 -0.5820  0.5238
  517MOL0     C71273   5.350   3.445  10.751  0.0078 -0.9111 -0.6214
  517MOL0     C71274   6.017   3.749  10.550 -0.5847 -0.4794  0.3950
  517MOL0     C71275   6.152   3.775  10.603  0.4152 -1.1835  0.0598
  517MOL0     C71276   6.203   3.918  10.619 -0.4534 -0.6845 -0.3303
  517MOL0     H71277   6.674   3.698  10.555  0.4759  1.7646 -0.6723
  517MOL0     H71278   6.902   3.720  10.624 -0.0771  0.0769 -0.0255
  517MOL0     H71279   7.105   3.766  10.676 -1.4971 -2.0135 -1.1776
  517MOL0     H71280   7.077   3.637  10.805 -0.5365 -0.0918 -0.7532
  517MOL0     H71281   7.223   3.888  10.846 -1.6007 -0.1259  1.0848
  517MOL0     H71282   7.249   3.743  10.942 -0.0988 -0.1531 -0.7036
  517MOL0     H71283   7.319   3.789  10.648 -2.0749  1.2856  0.6149
  517MOL0     H71284   7.446   3.798  10.771  0.8889 -2.3118  0.4836
  517MOL0     H71285   7.435   3.573  10.840  1.2291  0.8255 -0.7179
  517MOL0     H71286   7.297   3.532  10.742  0.0899  0.4303 -1.6369
  517MOL0     H71287   7.587   3.574  10.657  0.2578 -1.3287 -1.3163
  517MOL0     H71288   7.465   3.645  10.554 -0.9922  2.1193  1.9113
  517MOL0     H71289   7.370   3.384  10.585  1.0959 -2.0531 -0.9790
  517MOL0     H71290   7.512   3.408  10.477  0.9013 -0.8110  0.2377
  517MOL0     H71291   7.552   3.328  10.765  2.4040  3.0447 -0.2487
  517MOL0     H71292   7.678   3.361  10.650  0.7252 -2.9220 -1.3995
  517MOL0     H71293   7.506   3.127  10.674  1.1304 -0.5052 -1.1618
  517MOL0     H71294   7.504   3.190  10.507 -1.5797 -1.9102  0.6655
  517MOL0     H71295   7.721   3.062  10.792  1.3279 -2.6386 -0.7424
  517MOL0     H71296   8.072   2.968  10.629 -2.8700  1.9894 -2.6991
  517MOL0     H71297   7.945   2.892  10.734 -0.3596  0.2554 -2.3067
  517MOL0     H71298   8.063   3.158  10.800 -1.2134 -0.6429 -0.7714
  517MOL0     H71299   7.968   3.051  10.903 -0.0650 -0.9828  0.8825
  517MOL0     H71300   8.142   2.871  10.886 -0.8721  0.2909  1.7312
  517MOL0     H71301   8.265   2.980  10.806  1.1310  1.7715  1.8318
  517MOL0     H71302   8.304   2.964  11.032  0.3302  1.9597 -0.5053
  517MOL0     H71303   8.256   3.125  10.988  1.1691 -0.0292  0.4912
  517MOL0     H71304   7.974   3.162  11.252 -0.1730  2.5125 -1.0577
  517MOL0     H71305   7.914   3.325  11.388  0.9422  1.1142 -1.6775
  517MOL0     H71306   8.030   3.419  11.484 -3.2130  0.4450 -0.3491
  517MOL0     H71307   7.961   3.286  11.564  2.1403 -0.9696  0.3856
  517MOL0     H71308   8.344   3.426  11.830 -0.0415  0.8869 -0.5430
  517MOL0     H71309   8.498   3.511  11.979 -2.0682 -1.0929 -0.8715
  517MOL0     H71310   8.923   3.627  12.017  1.7628  2.3723 -0.1809
  517MOL0     H71311   8.933   3.523  11.873  1.1270  1.8352 -1.5884
  517MOL0     H71312   8.979   3.765  11.818 -0.3100  0.7680  2.1993
  517MOL0     H71313   8.829   3.719  11.741  0.5684 -3.1684  0.2166
  517MOL0     H71314   8.883   3.918  11.943  0.1587  0.2739 -0.8770
  517MOL0     H71315   8.773   3.809  12.023 -0.5381 -0.0247 -1.0319
  517MOL0     H71316   8.613   3.821  11.864  1.1660 -1.7780  1.9405
  517MOL0     H71317   8.713   3.932  11.760  0.0003  0.7106  0.5488
  517MOL0     H71318   8.576   3.970  12.031  0.6211 -1.2986 -0.6077
  517MOL0     H71319   8.729   4.045  12.021  0.6967 -0.1442 -0.1252
  517MOL0     H71320   8.479   4.090  11.850 -0.7627 -0.7462  0.4117
  517MOL0     H71321   8.645   4.177  11.833  0.4631  0.1491  1.0826
  517MOL0     H71322   8.583   4.215  12.097  1.0404 -1.1405 -1.6470
  517MOL0     H71323   8.420   4.173  12.037 -0.4526 -1.0954  0.2353
  517MOL0     H71324   8.418   4.348  11.884  0.0354 -0.6165  1.1142
  517MOL0     H71325   8.593   4.386  11.899  1.4942 -3.3085  0.4054
  517MOL0     H71326   8.817   3.486  11.692  1.0009 -1.5460  0.4086
  517MOL0     H71327   8.658   3.405  11.521  0.5312  0.2116  0.6987
  517MOL0     H71328   8.436   3.159  11.425  0.4274  0.0760  2.2732
  517MOL0     H71329   8.363   3.015  11.217 -0.9177 -0.1686  1.0562
  517MOL0     H71330   6.765   3.897  10.991  1.5253 -0.3122 -0.4849
  517MOL0     H71331   6.533   3.854  10.929 -2.3389  0.0379 -0.8734
  517MOL0     H71332   6.220   3.445  10.641  1.0125  0.3560 -0.9599
  517MOL0     H71333   6.002   3.415  10.581 -1.6257  1.1202  2.2598
  517MOL0     H71334   5.747   3.531  10.331  0.3956 -1.5207 -0.3062
  517MOL0     H71335   5.865   3.421  10.402 -0.7631 -0.1061 -0.1820
  517MOL0     H71336   5.656   3.327  10.499 -1.3444  0.1486  1.0931
  517MOL0     H71337   5.585   3.490  10.499  0.7045 -0.0807 -3.6930
  517MOL0     H71338   5.797   3.395  10.691  0.1626 -0.4249 -0.6203
  517MOL0     H71339   5.685   3.536  10.708 -3.5113  0.1420 -2.5334
  517MOL0     H71340   5.634   3.318  10.848  2.0016 -0.3648 -0.6999
  517MOL0     H71341   5.580   3.256  10.694 -0.0987  1.0664  2.5503
  517MOL0     H71342   5.249   3.480  10.743 -0.1011 -1.3692 -1.2089
  517MOL0     H71343   5.962   3.838  10.519  1.1574 -0.1935 -2.2301
  517MOL0     H71344   6.216   3.941  10.725  1.9280  1.1942 -0.9505
  517MOL0     H71345   6.298   3.940  10.570 -0.4584  1.1733  0.4356
  517MOL0     H71346   6.124   3.983  10.579 -0.1175 -0.6215 -0.8974
  518MOL0     O71347   0.832   2.739   2.172  0.7028 -0.6607 -0.1954
  518MOL0     C71348   0.878   2.631   2.147  0.1923  0.6260  0.2163
  518MOL0     O71349   0.839   2.545   2.044  0.4038  0.1090  0.1133
  518MOL0     C71350   0.738   2.564   1.958  0.1432  0.3608 -0.7542
  518MOL0     C71351   0.754   2.529   1.830  0.2917  0.5294  0.3691
  518MOL0     C71352   0.643   2.534   1.735 -1.0934 -0.0454 -0.2754
  518MOL0     C71353   0.526   2.592   1.781 -0.6502 -0.2333 -0.8828
  518MOL0     O71354   0.421   2.619   1.696  0.3101  0.2246 -0.4936
  518MOL0     C71355   0.449   2.712   1.588 -0.4238  0.1764 -0.1559
  518MOL0     C71356   0.425   2.858   1.632  0.4289  0.4351 -0.3394
  518MOL0     C71357   0.510   2.925   1.741 -0.3791 -0.1046  0.6517
  518MOL0     C71358   0.658   2.906   1.707  0.0294 -0.7237  0.3835
  518MOL0     C71359   0.759   2.954   1.809 -1.2409  0.7870 -0.0582
  518MOL0     C71360   0.752   3.099   1.844 -0.0593 -0.2816  0.0944
  518MOL0     C71361   0.880   3.135   1.931 -1.2566 -0.3740  0.5042
  518MOL0     C71362   0.897   3.091   2.076 -0.2784  0.1970  0.0058
  518MOL0     N71363   1.039   3.089   2.105  0.1629 -0.1397 -0.0349
  518MOL0     C71364   1.116   2.973   2.106 -0.4377 -0.3648 -0.2856
  518MOL0     C71365   1.243   3.015   2.126  0.8776 -0.3461 -0.9774
  518MOL0     C71366   1.363   2.927   2.141  0.3634 -0.0019  0.1887
  518MOL0     C71367   1.445   2.964   2.264  0.7670  0.8016  0.2089
  518MOL0     C71368   1.562   2.862   2.288  0.6815 -0.0921 -0.8260
  518MOL0     C71369   1.616   2.879   2.429  0.5779 -0.8100  0.2738
  518MOL0     O71370   1.680   3.002   2.452 -0.6786 -0.2290  0.3360
  518MOL0     C71371   1.755   3.016   2.572 -0.6388  0.3881 -0.1074
  518MOL0     C71372   1.787   2.910   2.657  0.9308 -0.0296  0.5455
  518MOL0     C71373   1.850   2.923   2.780  0.4492 -1.0616 -0.2110
  518MOL0     C71374   1.865   2.792   2.858  0.1094  0.2359  0.5235
  518MOL0     C71375   1.897   3.059   2.813  0.2484  0.0190  0.3935
  518MOL0     C71376   1.969   3.087   2.934 -1.0629  0.7578 -0.9930
  518MOL0     O71377   1.995   3.224   2.973  0.5391 -0.4833 -0.5308
  518MOL0     C71378   2.084   3.261   3.068  0.3855 -0.3280  0.1331
  518MOL0     C71379   2.201   3.201   3.104 -0.6504  0.6148  1.4667
  518MOL0     C71380   2.279   3.252   3.209 -0.0203  0.1479 -0.5010
  518MOL0     C71381   2.248   3.363   3.284  0.8694  0.0847  0.3007
  518MOL0     O71382   2.334   3.395   3.380  0.3497 -0.5152  0.5732
  518MOL0     C71383   2.298   3.449   3.502 -0.5365 -0.2467 -0.9825
  518MOL0     C71384   2.320   3.600   3.513 -0.1489  0.0192  0.3418
  518MOL0     C71385   2.472   3.636   3.520  0.3602  0.4538  0.5256
  518MOL0     C71386   2.540   3.601   3.659 -1.2049  0.0561 -0.2517
  518MOL0     C71387   2.695   3.634   3.663  0.1100  0.2384 -0.3350
  518MOL0     C71388   2.737   3.759   3.583  0.0351 -0.8222 -0.3088
  518MOL0     C71389   2.885   3.800   3.603  0.2378 -0.9577  0.4060
  518MOL0     C71390   2.922   3.932   3.543 -0.0030 -0.5384  0.4267
  518MOL0    Cl71391   2.932   3.919   3.363 -0.0649 -0.1040 -0.1519
  518MOL0     C71392   2.125   3.425   3.255  0.2567  0.8044  0.1643
  518MOL0     C71393   2.044   3.373   3.147 -0.8398  1.1211  0.3500
  518MOL0     O71394   2.027   2.988   2.978  0.9069 -0.0555 -0.0616
  518MOL0     C71395   1.879   3.161   2.720  0.1680 -0.8652  0.5809
  518MOL0     C71396   1.815   3.135   2.598 -0.0103  0.5155  0.4307
  518MOL0     N71397   1.242   3.156   2.133 -0.5422 -0.0383  0.7007
  518MOL0     N71398   1.122   3.198   2.117 -0.0485  0.0180 -0.4330
  518MOL0     C71399   0.513   2.641   1.909  0.5488  0.5597 -0.4746
  518MOL0     C71400   0.618   2.621   2.004  1.2334  0.2860  0.7360
  518MOL0     C71401   0.985   2.577   2.240  0.0562  0.2714  1.2132
  518MOL0     C71402   1.058   2.673   2.313 -0.1483 -0.3570 -0.0695
  518MOL0     C71403   1.159   2.625   2.398  0.7041  0.4916 -0.4167
  518MOL0     C71404   1.188   2.494   2.423 -0.2137 -0.2051 -0.5188
  518MOL0     O71405   1.267   2.450   2.523  0.4301 -0.7737  0.1062
  518MOL0     C71406   1.249   2.481   2.662 -0.2326  0.0007  1.0444
  518MOL0     C71407   1.383   2.515   2.726  0.0629 -0.7680 -0.5813
  518MOL0     C71408   1.436   2.657   2.697 -0.0359  1.2571 -0.3777
  518MOL0     C71409   1.453   2.761   2.808 -0.4661 -0.3720 -0.5004
  518MOL0     C71410   1.527   2.713   2.931  1.6171  0.8056 -0.7906
  518MOL0     C71411   1.576   2.682   3.040  0.5297  0.6588  0.1157
  518MOL0     C71412   1.117   2.395   2.346  0.7260 -0.1403 -0.0565
  518MOL0     C71413   1.011   2.438   2.261 -0.1915  0.7835 -0.2031
  518MOL0     C71414   0.927   2.330   2.203 -0.2659  0.3820 -0.0572
  518MOL0     H71415   0.857   2.515   1.799  0.0224  0.6506 -0.6110
  518MOL0     H71416   0.661   2.493   1.636 -0.8151  0.8424 -0.6044
  518MOL0     H71417   0.388   2.681   1.503  0.1284 -0.4910 -0.3151
  518MOL0     H71418   0.552   2.695   1.557  0.3997  1.1063  1.8558
  518MOL0     H71419   0.422   2.927   1.547  0.0003  1.6426  0.6156
  518MOL0     H71420   0.318   2.856   1.658  1.1079 -0.1910  2.8650
  518MOL0     H71421   0.482   3.031   1.744 -0.0791 -0.0104  0.1053
  518MOL0     H71422   0.485   2.886   1.840  0.9388 -3.7825 -0.3158
  518MOL0     H71423   0.688   2.806   1.674  3.9299 -0.7595  3.2974
  518MOL0     H71424   0.678   2.962   1.616 -1.2625 -0.0105  0.5116
  518MOL0     H71425   0.862   2.929   1.779 -1.7426 -2.5219  0.5853
  518MOL0     H71426   0.748   2.897   1.902 -1.8796  0.0008 -0.6108
  518MOL0     H71427   0.767   3.155   1.751  0.2222 -2.0117 -0.9646
  518MOL0     H71428   0.663   3.133   1.898 -0.5242 -2.0655  0.5145
  518MOL0     H71429   0.887   3.244   1.924  4.5334 -0.5138 -0.4169
  518MOL0     H71430   0.967   3.103   1.874 -0.5881  3.0263 -0.5844
  518MOL0     H71431   0.839   3.155   2.144 -0.4915 -0.5299  0.5239
  518MOL0     H71432   0.847   2.996   2.097  0.7643 -0.4011 -0.1686
  518MOL0     H71433   1.091   2.867   2.104  2.0091 -1.0233 -2.8394
  518MOL0     H71434   1.422   2.935   2.050 -1.1770 -0.5757 -0.9179
  518MOL0     H71435   1.335   2.821   2.146 -0.1056 -0.1708 -3.4352
  518MOL0     H71436   1.486   3.065   2.268 -1.5613  1.8005  0.4585
  518MOL0     H71437   1.386   2.962   2.356  1.0447  1.1475  0.3974
  518MOL0     H71438   1.545   2.755   2.279 -0.6356  0.2213 -2.4645
  518MOL0     H71439   1.643   2.894   2.221  1.2951  1.9685  0.7924
  518MOL0     H71440   1.534   2.868   2.501  1.5462  0.0811  1.5559
  518MOL0     H71441   1.686   2.796   2.445 -1.5643 -2.1113  4.6379
  518MOL0     H71442   1.750   2.812   2.629  2.3583  0.1831 -2.4991
  518MOL0     H71443   1.971   2.769   2.871 -0.1938 -0.5326  1.8909
  518MOL0     H71444   1.816   2.705   2.813  0.7924  2.0726 -4.3649
  518MOL0     H71445   1.826   2.806   2.959  0.4734  1.3747  0.5140
  518MOL0     H71446   2.232   3.119   3.040  2.0601  2.5437  0.1238
  518MOL0     H71447   2.375   3.205   3.228 -1.1126 -1.6287  0.9662
  518MOL0     H71448   2.195   3.420   3.524 -0.5769 -0.4972 -1.4828
  518MOL0     H71449   2.359   3.394   3.575 -1.1126  1.3703  0.7842
  518MOL0     H71450   2.275   3.630   3.418  0.4868 -1.0571 -0.3124
  518MOL0     H71451   2.270   3.650   3.597  0.3484  1.6616 -0.3040
  518MOL0     H71452   2.480   3.742   3.494 -0.9840  1.1079  2.5942
  518MOL0     H71453   2.528   3.592   3.436  0.3174  1.6554 -0.1527
  518MOL0     H71454   2.519   3.500   3.694 -0.0620 -0.3230 -0.6170
  518MOL0     H71455   2.498   3.665   3.737 -2.6433 -1.9451  0.7050
  518MOL0     H71456   2.721   3.664   3.765  1.6652  0.1386 -0.6828
  518MOL0     H71457   2.753   3.545   3.638  0.6492  0.1801  1.0549
  518MOL0     H71458   2.665   3.837   3.608  0.1835 -1.1820  1.3600
  518MOL0     H71459   2.723   3.735   3.477 -1.4296 -0.1600 -0.2856
  518MOL0     H71460   2.945   3.724   3.554 -0.5223 -0.8249 -0.7567
  518MOL0     H71461   2.904   3.798   3.711  0.7194  0.6686  0.3812
  518MOL0     H71462   3.019   3.957   3.587  0.1923  1.2691 -0.9108
  518MOL0     H71463   2.856   4.018   3.558  0.1066 -0.3871  0.0518
  518MOL0     H71464   2.092   3.515   3.307  0.4878  0.2615  1.2685
  518MOL0     H71465   1.950   3.426   3.138 -0.4029  1.7652 -0.4803
  518MOL0     H71466   1.904   3.264   2.740 -1.2858 -0.6486  1.3718
  518MOL0     H71467   1.794   3.220   2.534 -2.4350  2.1343  3.1527
  518MOL0     H71468   0.427   2.700   1.941  0.6522  0.9403 -0.8853
  518MOL0     H71469   0.613   2.670   2.101  3.2415  3.6152 -0.6665
  518MOL0     H71470   1.033   2.778   2.300  1.0164 -0.2809 -2.1425
  518MOL0     H71471   1.212   2.698   2.458 -1.5886 -0.8725  3.6962
  518MOL0     H71472   1.169   2.555   2.668  0.8424  1.1879  1.0112
  518MOL0     H71473   1.205   2.397   2.716 -0.2053  0.3135  1.5573
  518MOL0     H71474   1.454   2.441   2.689  1.7744  0.4327  0.1896
  518MOL0     H71475   1.373   2.508   2.835 -0.3786 -0.5289 -0.6048
  518MOL0     H71476   1.530   2.640   2.643  0.5356 -2.4958  1.4847
  518MOL0     H71477   1.379   2.709   2.620 -1.4924  0.2313 -0.0275
  518MOL0     H71478   1.353   2.796   2.837  0.4668  2.8837 -0.8718
  518MOL0     H71479   1.496   2.851   2.764 -0.7962  0.5685  1.0244
  518MOL0     H71480   1.604   2.658   3.141 -2.1490  2.5142  1.4312
  518MOL0     H71481   1.141   2.291   2.366 -1.1185 -0.2652  1.8710
  518MOL0     H71482   0.952   2.316   2.097  1.5511  0.0097  0.3923
  518MOL0     H71483   0.945   2.236   2.256 -1.1652  0.1157 -0.2025
  518MOL0     H71484   0.821   2.356   2.213 -1.0520 -1.9402 -1.4215
  519MOL0     O71485   1.926  10.028   3.616  0.1445 -0.3123 -0.3312
  519MOL0     C71486   1.906   9.942   3.527 -0.1186  0.5582  0.0017
  519MOL0     O71487   1.997   9.906   3.429  0.1878 -0.1493  0.2424
  519MOL0     C71488   2.122   9.957   3.444 -0.0449  0.3961 -0.6269
  519MOL0     C71489   2.155  10.084   3.389  0.0680  0.0361  0.3410
  519MOL0     C71490   2.287  10.122   3.400  0.3103  0.4220  0.4931
  519MOL0     C71491   2.382  10.045   3.477  0.4289 -0.3428 -0.8025
  519MOL0     O71492   2.507  10.104   3.492  0.3369 -0.3821 -0.0461
  519MOL0     C71493   2.591  10.060   3.595 -0.6830 -0.2896  0.0317
  519MOL0     C71494   2.713  10.158   3.593  0.3861  0.6936  0.7690
  519MOL0     C71495   2.662  10.296   3.643 -0.3630  0.2629  1.2000
  519MOL0     C71496   2.733  10.347   3.766 -0.3976 -0.4034  0.3444
  519MOL0     C71497   2.693  10.489   3.813  0.5542  0.6302  0.5445
  519MOL0     C71498   2.787  10.560   3.911  0.0415 -0.0859  0.0367
  519MOL0     C71499   2.724  10.696   3.940  0.5744  0.0424 -0.5003
  519MOL0     C71500   2.832  10.796   3.990 -0.3575 -0.0629  0.9358
  519MOL0     N71501   2.886  10.769   4.125  0.1321  0.3257 -0.3962
  519MOL0     C71502   3.009  10.714   4.153 -0.5034 -1.4353 -0.1264
  519MOL0     C71503   2.995  10.699   4.292 -0.0425  0.2573  0.8742
  519MOL0     C71504   3.102  10.644   4.375  0.4778  0.5755  0.4654
  519MOL0     C71505   3.225  10.743   4.394  0.4325  0.5399  0.3601
  519MOL0     C71506   3.293  10.715   4.525  0.4332  0.2344  0.2209
  519MOL0     C71507   3.416  10.801   4.562 -0.7081 -0.2741  0.0033
  519MOL0     O71508   3.461  10.762   4.691 -0.0347  0.2900 -0.0302
  519MOL0     C71509   3.532  10.640   4.704  0.1330 -0.2834  1.6610
  519MOL0     C71510   3.594  10.585   4.588 -0.2149 -0.4104 -0.2621
  519MOL0     C71511   3.680  10.474   4.597  1.0007 -0.0119  0.7471
  519MOL0     C71512   3.741  10.445   4.460  0.5544  0.7558 -0.0951
  519MOL0     C71513   3.710  10.425   4.730  0.3880  0.2079 -0.6215
  519MOL0     C71514   3.812  10.321   4.757  0.2553 -0.5641 -0.6632
  519MOL0     O71515   3.833  10.298   4.894  0.0520  0.7867 -0.1086
  519MOL0     C71516   3.945  10.245   4.951 -0.5222  0.8975 -0.8788
  519MOL0     C71517   3.955  10.240   5.090  0.1004  0.4542 -0.1527
  519MOL0     C71518   4.065  10.202   5.166 -0.0106  0.4122  0.6187
  519MOL0     C71519   4.181  10.173   5.088  1.2077 -0.8486  0.7005
  519MOL0     O71520   4.300  10.143   5.144 -0.5952 -0.0130  0.0065
  519MOL0     C71521   4.340  10.008   5.112 -0.2711  0.0604 -1.0038
  519MOL0     C71522   4.481   9.985   5.157 -0.7015  0.0503 -0.7387
  519MOL0     C71523   4.587  10.050   5.063 -0.2147  0.1488  0.4734
  519MOL0     C71524   4.625   9.944   4.953 -0.0551  1.4876  0.3153
  519MOL0     C71525   4.706  10.002   4.845  0.5556 -0.1925  0.3033
  519MOL0     C71526   4.737   9.888   4.743 -0.0240 -1.3481  1.0611
  519MOL0     C71527   4.886   9.843   4.772  0.1502  0.2775  0.2974
  519MOL0     C71528   4.937   9.751   4.665 -0.5955 -0.3769 -0.0586
  519MOL0    Cl71529   4.932   9.822   4.505  0.0277 -0.3158  0.0980
  519MOL0     C71530   4.173  10.177   4.952 -0.0631  0.0442  0.3932
  519MOL0     C71531   4.059  10.197   4.881  0.1102  0.1537 -0.1319
  519MOL0     O71532   3.869  10.262   4.667  0.3882 -0.0238  0.3695
  519MOL0     C71533   3.654  10.480   4.848 -0.5126 -0.3266  0.5488
  519MOL0     C71534   3.559  10.587   4.828  0.3552  0.9424 -0.5834
  519MOL0     N71535   2.877  10.760   4.334 -0.2383  0.3505 -0.8507
  519MOL0     N71536   2.816  10.812   4.236  0.4498  0.5012 -0.2242
  519MOL0     C71537   2.341   9.931   3.546 -1.0007 -1.0824  0.1982
  519MOL0     C71538   2.219   9.879   3.514 -0.9579  0.7626 -0.0377
  519MOL0     C71539   1.771   9.877   3.524 -0.1748  0.6912 -0.2724
  519MOL0     C71540   1.718   9.816   3.416  0.1135  0.6863 -0.0413
  519MOL0     C71541   1.596   9.748   3.421  0.2736 -0.7760  0.3741
  519MOL0     C71542   1.513   9.766   3.526 -0.8809 -0.5931  0.5425
  519MOL0     O71543   1.398   9.699   3.504 -0.3328 -0.0485  0.1150
  519MOL0     C71544   1.313   9.686   3.621 -0.1615  0.9431 -0.2505
  519MOL0     C71545   1.228   9.560   3.625  0.4836  0.7479  1.0798
  519MOL0     C71546   1.145   9.548   3.752  1.5163 -0.2903 -0.8381
  519MOL0     C71547   1.031   9.653   3.775 -0.5564 -0.2509  0.5461
  519MOL0     C71548   0.957   9.668   3.651 -0.2370  0.1212 -0.3388
  519MOL0     C71549   0.908   9.677   3.543  0.4128 -1.1895 -1.0674
  519MOL0     C71550   1.555   9.841   3.636 -0.0290 -0.0437  0.0697
  519MOL0     C71551   1.695   9.882   3.647  0.1642 -0.9856 -0.0151
  519MOL0     C71552   1.745   9.920   3.787  0.2523  0.4310  0.5590
  519MOL0     H71553   2.090  10.150   3.334  1.8796  0.8807 -0.8833
  519MOL0     H71554   2.326  10.212   3.353  2.4562  0.6846  2.5453
  519MOL0     H71555   2.621   9.958   3.569  1.4959 -0.3756  2.3879
  519MOL0     H71556   2.555  10.068   3.698 -1.0972 -3.8870  0.3058
  519MOL0     H71557   2.797  10.121   3.653  0.1359  1.6132  1.7021
  519MOL0     H71558   2.753  10.162   3.491  0.7409 -0.1786  0.8625
  519MOL0     H71559   2.692  10.370   3.567  2.0380 -0.6824  1.1441
  519MOL0     H71560   2.553  10.304   3.641 -0.2708  1.7282  0.4756
  519MOL0     H71561   2.704  10.280   3.847 -0.3033 -1.7615 -0.7097
  519MOL0     H71562   2.841  10.336   3.752 -0.7303 -0.2363 -3.1676
  519MOL0     H71563   2.599  10.474   3.865  1.4399 -3.1490  1.4024
  519MOL0     H71564   2.680  10.544   3.719 -3.3760 -2.1602 -0.7986
  519MOL0     H71565   2.824  10.519   4.005  1.6827 -1.3880 -1.1309
  519MOL0     H71566   2.873  10.580   3.847 -0.8389 -0.1760 -1.2144
  519MOL0     H71567   2.643  10.674   4.010  0.2321 -1.8717 -1.4315
  519MOL0     H71568   2.678  10.750   3.856  1.3474 -1.3843 -1.8846
  519MOL0     H71569   2.918  10.795   3.922 -1.1916  0.8842 -0.1821
  519MOL0     H71570   2.792  10.896   3.976 -1.3884 -0.6096 -0.1751
  519MOL0     H71571   3.083  10.696   4.076 -0.3898  0.8987 -0.6425
  519MOL0     H71572   3.124  10.543   4.340 -1.0693 -0.6570  2.7533
  519MOL0     H71573   3.065  10.626   4.476 -0.4056 -0.4147 -0.0042
  519MOL0     H71574   3.303  10.717   4.322 -1.4667 -0.5772 -1.4252
  519MOL0     H71575   3.195  10.848   4.397 -1.2537  0.0964  3.0937
  519MOL0     H71576   3.224  10.720   4.610 -0.5864 -1.0872 -0.4754
  519MOL0     H71577   3.329  10.612   4.524 -0.1990  0.0054 -0.1907
  519MOL0     H71578   3.497  10.807   4.489 -0.5103 -2.2416  0.0083
  519MOL0     H71579   3.390  10.907   4.570 -1.6332 -0.3681 -1.3956
  519MOL0     H71580   3.579  10.620   4.486  0.7949 -1.0634 -0.6639
  519MOL0     H71581   3.772  10.340   4.448 -0.6619  0.4646 -0.8418
  519MOL0     H71582   3.821  10.517   4.442  1.8490 -0.0716  1.9555
  519MOL0     H71583   3.666  10.453   4.381  2.0203 -1.8119 -1.8935
  519MOL0     H71584   3.864  10.276   5.137  1.0919  0.4674  1.8567
  519MOL0     H71585   4.073  10.206   5.274 -1.9782  0.7256  0.7887
  519MOL0     H71586   4.270   9.946   5.169  1.6300 -0.6207  0.7334
  519MOL0     H71587   4.343   9.997   5.004  0.5879  0.5461 -1.0434
  519MOL0     H71588   4.494  10.016   5.261 -1.3433 -1.5885 -0.1329
  519MOL0     H71589   4.492   9.876   5.162 -1.6370 -0.0118  0.7770
  519MOL0     H71590   4.685  10.066   5.108  0.4397  1.0533 -1.1759
  519MOL0     H71591   4.552  10.147   5.026 -0.7089  0.0293  0.6134
  519MOL0     H71592   4.541   9.890   4.910  0.2259  1.5998 -0.3864
  519MOL0     H71593   4.690   9.870   5.001 -0.7564  0.5448 -0.1769
  519MOL0     H71594   4.639  10.074   4.797 -2.0311 -2.4031  0.3092
  519MOL0     H71595   4.796  10.055   4.877  1.7062 -1.5575 -0.5222
  519MOL0     H71596   4.733   9.943   4.648 -3.3193 -2.7147  0.2392
  519MOL0     H71597   4.665   9.807   4.728  0.0716 -0.9812 -1.9405
  519MOL0     H71598   4.891   9.788   4.866  0.3668  1.6306  1.1114
  519MOL0     H71599   4.958   9.926   4.774  2.1329 -1.3878  1.1941
  519MOL0     H71600   4.885   9.655   4.673 -0.3140 -0.5187  0.0501
  519MOL0     H71601   5.041   9.728   4.690 -0.8180 -1.5272 -0.1540
  519MOL0     H71602   4.261  10.156   4.891 -0.8006 -0.1430 -0.6272
  519MOL0     H71603   4.064  10.192   4.773  1.7600  3.4909 -0.3186
  519MOL0     H71604   3.681  10.457   4.950  0.8576 -0.3324  0.2021
  519MOL0     H71605   3.522  10.646   4.910 -0.2915  0.8206 -0.7822
  519MOL0     H71606   2.394   9.899   3.634  0.8068 -2.0943 -1.1920
  519MOL0     H71607   2.190   9.788   3.565 -1.0717  1.0145  0.3503
  519MOL0     H71608   1.777   9.798   3.326 -0.5256 -0.3183 -0.2816
  519MOL0     H71609   1.566   9.687   3.336 -1.3930 -1.9391  1.7247
  519MOL0     H71610   1.379   9.673   3.707  0.4552 -0.6975 -0.9270
  519MOL0     H71611   1.248   9.773   3.636 -0.2305  1.3907 -2.7186
  519MOL0     H71612   1.293   9.472   3.629 -0.2295  0.1397 -0.1200
  519MOL0     H71613   1.180   9.535   3.530  2.0073  0.3431  0.3895
  519MOL0     H71614   1.100   9.449   3.749  2.4106 -0.7010 -2.5946
  519MOL0     H71615   1.220   9.556   3.831  1.1032  0.7428 -0.5347
  519MOL0     H71616   1.066   9.756   3.785  2.5673 -0.6636 -3.6271
  519MOL0     H71617   0.963   9.620   3.855  2.4454 -2.8895  2.2586
  519MOL0     H71618   0.869   9.684   3.443  2.6792 -2.8834 -2.1313
  519MOL0     H71619   1.494   9.859   3.724  0.8914 -3.3207  1.5091
  519MOL0     H71620   1.852   9.899   3.789  0.1683  0.0198  2.5993
  519MOL0     H71621   1.731  10.029   3.795  1.9624  0.9453 -2.2891
  519MOL0     H71622   1.692   9.872   3.870 -2.0433  1.1263 -0.4248
  520MOL0     O71623   8.132   9.115   5.197 -0.3161  0.2119 -0.7818
  520MOL0     C71624   8.203   9.179   5.275  0.6935  0.1020 -0.1347
  520MOL0     O71625   8.160   9.266   5.369 -0.8673  0.3316 -0.1887
  520MOL0     C71626   8.022   9.259   5.389  0.3808 -0.7061 -1.4075
  520MOL0     C71627   7.975   9.154   5.478 -0.3416  0.0399 -0.3168
  520MOL0     C71628   7.840   9.166   5.529 -0.1233 -0.3715  0.4051
  520MOL0     C71629   7.750   9.266   5.493  1.1332 -0.0816  0.1763
  520MOL0     O71630   7.620   9.259   5.536  0.1949 -0.1935  0.4237
  520MOL0     C71631   7.584   9.351   5.636  0.3578 -0.6690  0.0011
  520MOL0     C71632   7.527   9.484   5.583 -0.0190  0.2065 -0.0836
  520MOL0     C71633   7.428   9.472   5.469 -0.0987  0.2601 -0.4064
  520MOL0     C71634   7.342   9.590   5.473  0.3108  0.3866  0.2539
  520MOL0     C71635   7.232   9.573   5.367  0.9585 -0.3071 -0.4474
  520MOL0     C71636   7.116   9.676   5.403  0.2522 -0.2487  0.7665
  520MOL0     C71637   6.999   9.659   5.311  0.7242 -0.0317  0.3529
  520MOL0     C71638   6.877   9.751   5.352 -0.1908  0.3445  0.0630
  520MOL0     N71639   6.750   9.700   5.296 -0.3790 -0.1853 -0.2810
  520MOL0     C71640   6.736   9.682   5.163  1.0663 -0.3559  0.7697
  520MOL0     C71641   6.611   9.632   5.147 -0.3674 -0.7816  0.2114
  520MOL0     C71642   6.529   9.595   5.032  0.0844  0.2998  0.2759
  520MOL0     C71643   6.620   9.580   4.905  0.8802 -0.0764  0.3480
  520MOL0     C71644   6.531   9.518   4.794 -0.3634  0.1885  0.5530
  520MOL0     C71645   6.589   9.532   4.643 -0.4920 -0.2953 -0.5451
  520MOL0     O71646   6.646   9.667   4.633  0.7365 -0.3403  0.2555
  520MOL0     C71647   6.783   9.686   4.641 -0.5263  0.1405 -0.5489
  520MOL0     C71648   6.828   9.813   4.602 -0.4889 -0.0913 -0.6934
  520MOL0     C71649   6.967   9.842   4.598 -0.7975 -0.0101 -1.0872
  520MOL0     C71650   7.006   9.983   4.580 -0.6745 -0.0223 -1.2887
  520MOL0     C71651   7.061   9.738   4.631  0.1725 -0.2586  0.3728
  520MOL0     C71652   7.204   9.762   4.627 -0.0253  1.2036  0.3629
  520MOL0     O71653   7.277   9.662   4.688  0.5003 -0.4006  0.9817
  520MOL0     C71654   7.412   9.701   4.690  0.5343 -0.6245  0.2943
  520MOL0     C71655   7.456   9.789   4.782  0.3862 -0.6226 -0.4073
  520MOL0     C71656   7.593   9.824   4.790 -0.2793  0.9045  0.5267
  520MOL0     C71657   7.683   9.760   4.707 -0.1845 -0.4865 -0.2590
  520MOL0     O71658   7.814   9.789   4.724 -0.7973 -0.8072  0.4358
  520MOL0     C71659   7.876   9.854   4.606  0.1876 -0.9063 -0.6360
  520MOL0     C71660   8.010   9.798   4.577  1.2712  0.5989  0.1396
  520MOL0     C71661   8.115   9.861   4.669 -1.2427 -0.0461  0.3626
  520MOL0     C71662   8.224   9.763   4.695 -0.3799  1.3673 -0.5645
  520MOL0     C71663   8.358   9.822   4.720  0.3423 -0.5962  1.1771
  520MOL0     C71664   8.420   9.900   4.606 -0.1305 -1.0401  0.1883
  520MOL0     C71665   8.565   9.948   4.621 -0.2414 -0.1689 -0.2978
  520MOL0     C71666   8.574  10.046   4.741  0.3431  0.7086  0.1837
  520MOL0    Cl71667   8.490  10.189   4.692 -0.3808 -0.2034 -0.0674
  520MOL0     C71668   7.634   9.655   4.621 -0.2048 -0.6242 -0.5589
  520MOL0     C71669   7.496   9.631   4.608  0.3272  0.0354  0.1209
  520MOL0     O71670   7.252   9.851   4.556 -0.2035 -0.1298 -0.4953
  520MOL0     C71671   7.010   9.612   4.674  0.0748 -0.2412 -0.4329
  520MOL0     C71672   6.875   9.583   4.679  1.3833  0.3633  0.8165
  520MOL0     N71673   6.561   9.627   5.283 -0.2329  0.5895  0.0461
  520MOL0     N71674   6.646   9.667   5.380 -0.4424  0.6218  0.2636
  520MOL0     C71675   7.795   9.357   5.397  0.7320 -0.2591 -1.1685
  520MOL0     C71676   7.931   9.359   5.363 -1.1549 -0.1959 -0.3661
  520MOL0     C71677   8.344   9.175   5.244 -0.0015  0.1839  0.0246
  520MOL0     C71678   8.391   9.164   5.116 -0.0076  1.0295  0.8057
  520MOL0     C71679   8.526   9.168   5.078  0.3272  0.0674  0.1323
  520MOL0     C71680   8.624   9.194   5.180  0.1245  0.4950 -0.0749
  520MOL0     O71681   8.764   9.197   5.161  0.4163  0.5411  0.7758
  520MOL0     C71682   8.805   9.207   5.022  0.3505 -0.5102 -0.7873
  520MOL0     C71683   8.957   9.236   5.004 -0.1740 -0.4532  0.2632
  520MOL0     C71684   8.977   9.230   4.849 -0.0823 -0.4058  0.3306
  520MOL0     C71685   9.130   9.223   4.814 -0.4523  0.4238  0.3334
  520MOL0     C71686   9.143   9.243   4.668 -0.8219  0.5303 -0.4997
  520MOL0     C71687   9.158   9.256   4.554  0.3880 -0.6672  0.3034
  520MOL0     C71688   8.578   9.204   5.317 -0.2280  0.0672  0.8314
  520MOL0     C71689   8.440   9.190   5.349 -0.3026 -0.0562 -0.5926
  520MOL0     C71690   8.403   9.185   5.499 -0.1825  0.4319  0.3805
  520MOL0     H71691   8.046   9.077   5.504  0.7721  0.8128 -0.9805
  520MOL0     H71692   7.786   9.093   5.588  0.6603 -1.4600 -0.1982
  520MOL0     H71693   7.670   9.378   5.698  1.5700  0.4077 -2.0189
  520MOL0     H71694   7.500   9.313   5.695 -1.5750  1.8539 -0.9814
  520MOL0     H71695   7.479   9.523   5.674  0.1668 -0.7800  0.4529
  520MOL0     H71696   7.610   9.548   5.553  0.1664 -0.8570 -1.9834
  520MOL0     H71697   7.480   9.456   5.373 -0.6085  1.2017 -0.8509
  520MOL0     H71698   7.370   9.379   5.473  1.6933 -1.2474 -4.2428
  520MOL0     H71699   7.310   9.608   5.576  2.3322  1.6804  0.7381
  520MOL0     H71700   7.404   9.677   5.448  2.6008 -0.3443  2.8339
  520MOL0     H71701   7.204   9.467   5.364  3.3480 -0.9830 -2.1913
  520MOL0     H71702   7.276   9.591   5.268  1.6359 -2.4547 -0.5901
  520MOL0     H71703   7.079   9.646   5.502 -3.3123  1.2661  0.0543
  520MOL0     H71704   7.152   9.780   5.399 -0.1811 -0.1107  0.3120
  520MOL0     H71705   6.970   9.554   5.313 -0.0065  0.1742  1.0796
  520MOL0     H71706   7.027   9.698   5.212 -1.5026  2.7845  0.6775
  520MOL0     H71707   6.876   9.750   5.461  1.5782  1.0992  0.1191
  520MOL0     H71708   6.899   9.856   5.335  1.2601 -0.0502 -0.6610
  520MOL0     H71709   6.802   9.714   5.083  2.3754 -1.2743  1.4510
  520MOL0     H71710   6.453   9.670   5.012  0.8755  0.5784 -1.9965
  520MOL0     H71711   6.491   9.496   5.060 -0.0716  0.7512  1.6911
  520MOL0     H71712   6.663   9.676   4.875 -1.7914  1.1481  0.2091
  520MOL0     H71713   6.702   9.510   4.926  1.1137 -0.2083 -0.9245
  520MOL0     H71714   6.527   9.412   4.818 -0.7404  0.5130  2.0101
  520MOL0     H71715   6.430   9.561   4.795  0.6528  2.9101 -1.3288
  520MOL0     H71716   6.668   9.463   4.611  1.7127  1.8656 -0.1113
  520MOL0     H71717   6.510   9.534   4.568  0.9965  1.0581 -2.1765
  520MOL0     H71718   6.739   9.874   4.591 -1.0793 -0.3929  1.8289
  520MOL0     H71719   7.048   9.988   4.479  3.7718  1.7393  0.3945
  520MOL0     H71720   7.091  10.008   4.644 -0.7609 -0.8654 -0.8330
  520MOL0     H71721   6.920  10.047   4.601  1.0838  1.9875  0.2573
  520MOL0     H71722   7.394   9.834   4.859  0.2586 -2.9959  0.9661
  520MOL0     H71723   7.631   9.884   4.872  1.7510 -1.3343  1.3503
  520MOL0     H71724   7.815   9.830   4.519 -1.3420 -1.7191  0.5902
  520MOL0     H71725   7.876   9.961   4.629  0.2330 -0.6607 -1.7617
  520MOL0     H71726   8.006   9.690   4.594  0.4479  0.6742  0.4592
  520MOL0     H71727   8.031   9.799   4.470  1.3575 -2.7304  0.0039
  520MOL0     H71728   8.070   9.880   4.766  3.8689 -1.1859  3.3409
  520MOL0     H71729   8.147   9.957   4.627 -0.3944  0.4823  2.1185
  520MOL0     H71730   8.237   9.705   4.603 -3.3508  2.0626 -1.5136
  520MOL0     H71731   8.191   9.708   4.784  0.3147  2.3191  0.3015
  520MOL0     H71732   8.354   9.895   4.801  0.1353  1.8900 -0.9595
  520MOL0     H71733   8.433   9.747   4.745  1.8045 -1.3208 -4.0937
  520MOL0     H71734   8.359   9.988   4.584 -1.6726 -2.0607  0.2487
  520MOL0     H71735   8.420   9.838   4.516  2.6670 -1.2860  0.2828
  520MOL0     H71736   8.598   9.998   4.529  1.2115 -0.1753  0.1935
  520MOL0     H71737   8.634   9.868   4.648  2.0849  1.7230 -0.3252
  520MOL0     H71738   8.680  10.070   4.752  0.3089  0.9792 -0.0707
  520MOL0     H71739   8.534  10.003   4.834 -1.4555 -0.6054 -1.1242
  520MOL0     H71740   7.701   9.613   4.547  0.7561  2.6065 -1.7152
  520MOL0     H71741   7.440   9.564   4.543  2.1145 -1.7165  0.3002
  520MOL0     H71742   7.078   9.529   4.694 -0.0583 -0.2976 -0.2101
  520MOL0     H71743   6.851   9.485   4.718 -1.0358  0.9750  1.0245
  520MOL0     H71744   7.720   9.426   5.361  0.6588 -0.5267 -1.5347
  520MOL0     H71745   7.970   9.432   5.293 -1.0872 -0.7839 -0.9559
  520MOL0     H71746   8.322   9.158   5.032 -1.9107 -1.0278  2.3862
  520MOL0     H71747   8.557   9.136   4.979  3.6377 -1.8098  1.5852
  520MOL0     H71748   8.776   9.114   4.972  0.4101  0.7097 -3.2110
  520MOL0     H71749   8.761   9.292   4.969 -1.0564 -1.5071 -1.2781
  520MOL0     H71750   9.016   9.163   5.061 -0.8995 -0.1862  1.3796
  520MOL0     H71751   8.993   9.330   5.045  1.3121 -1.4304  1.3311
  520MOL0     H71752   8.932   9.143   4.799 -1.7176  1.1867 -1.0935
  520MOL0     H71753   8.931   9.316   4.801 -0.1297  0.0560  1.1872
  520MOL0     H71754   9.173   9.135   4.861 -1.5841 -0.5511 -0.3842
  520MOL0     H71755   9.164   9.317   4.859 -0.6370  2.3615 -3.1962
  520MOL0     H71756   9.165   9.278   4.449 -0.0640  0.4627  0.4964
  520MOL0     H71757   8.656   9.214   5.392 -1.2184 -2.5490  2.3304
  520MOL0     H71758   8.345   9.272   5.531 -1.1394  0.7105 -1.9099
  520MOL0     H71759   8.348   9.092   5.516  2.8863 -2.0606 -1.9694
  520MOL0     H71760   8.498   9.183   5.553  1.3264  1.8619 -2.0031
  521MOL0     O71761   0.049  11.225  10.316 -0.5930  0.3305  0.0890
  521MOL0     C71762  -0.018  11.245  10.416 -0.6455 -1.1651  0.0887
  521MOL0     O71763   0.009  11.205  10.538 -0.2189  0.5239 -0.3075
  521MOL0     C71764   0.122  11.125  10.557 -0.0622  0.0271  0.6967
  521MOL0     C71765   0.113  10.988  10.531 -0.2688 -0.4535 -0.1816
  521MOL0     C71766   0.230  10.911  10.539 -1.0808 -0.0493  0.2376
  521MOL0     C71767   0.349  10.970  10.586  0.7971  0.1668  0.6957
  521MOL0     O71768   0.458  10.894  10.614 -0.6107 -0.5914 -0.1163
  521MOL0     C71769   0.478  10.770  10.544  0.1283 -0.0874 -0.5131
  521MOL0     C71770   0.618  10.722  10.561  0.0802  0.5490  0.8194
  521MOL0     C71771   0.724  10.783  10.478 -1.2680 -0.3509  0.1280
  521MOL0     C71772   0.856  10.769  10.559  0.2060  0.5543 -0.0183
  521MOL0     C71773   0.975  10.795  10.465 -0.0138  0.3106  0.0798
  521MOL0     C71774   1.121  10.762  10.511  0.0124  0.3422 -0.1283
  521MOL0     C71775   1.182  10.888  10.568  0.9481  0.3622  0.1722
  521MOL0     C71776   1.315  10.850  10.637 -1.5966 -0.4867 -0.0844
  521MOL0     N71777   1.386  10.974  10.680  0.6082  0.1517 -0.0366
  521MOL0     C71778   1.332  11.073  10.763 -0.1122  0.3697  0.1604
  521MOL0     C71779   1.439  11.143  10.806 -0.1820 -0.3343 -0.5102
  521MOL0     C71780   1.449  11.264  10.902  0.1184 -0.4253  0.2808
  521MOL0     C71781   1.384  11.382  10.846  0.0960 -0.6947 -0.7897
  521MOL0     C71782   1.462  11.442  10.724  0.2013 -1.0245  0.3720
  521MOL0     C71783   1.476  11.594  10.723 -0.4946 -0.0340 -0.5178
  521MOL0     O71784   1.332  11.648  10.714 -0.6301 -0.8875  0.1604
  521MOL0     C71785   1.283  11.671  10.589 -0.1874 -0.5461  0.6427
  521MOL0     C71786   1.167  11.758  10.600 -0.6381 -0.4618 -0.5509
  521MOL0     C71787   1.100  11.800  10.482  0.3124 -0.0815  0.1173
  521MOL0     C71788   0.988  11.897  10.483 -0.8977  0.2160 -0.1647
  521MOL0     C71789   1.145  11.750  10.362 -0.3410 -0.1517 -0.1619
  521MOL0     C71790   1.073  11.783  10.232 -0.7091 -0.5686 -0.0642
  521MOL0     O71791   1.160  11.804  10.124  0.0980 -0.2376  0.1792
  521MOL0     C71792   1.122  11.885  10.024  0.2626 -0.3204  0.6470
  521MOL0     C71793   1.208  11.879   9.908 -0.2170  0.4976 -0.4169
  521MOL0     C71794   1.193  11.971   9.800 -0.5763  0.3927  0.0583
  521MOL0     C71795   1.099  12.076   9.803 -0.0950 -0.4213 -1.3433
  521MOL0     O71796   1.078  12.173   9.710 -0.3265  0.8416  0.5384
  521MOL0     C71797   0.948  12.230   9.699 -0.4792 -0.2671  0.2606
  521MOL0     C71798   0.918  12.292   9.562 -0.6002 -1.0332  0.0305
  521MOL0     C71799   1.027  12.349   9.475  0.4653  0.6945  0.1496
  521MOL0     C71800   1.157  12.422   9.528  0.3768  0.2881  0.3595
  521MOL0     C71801   1.261  12.429   9.416 -0.1162  0.6405  0.3313
  521MOL0     C71802   1.194  12.497   9.295  0.2925 -0.2298  0.4098
  521MOL0     C71803   1.290  12.540   9.186  0.1041 -0.4636 -0.1373
  521MOL0     C71804   1.388  12.431   9.143  0.4058  0.0742  0.5205
  521MOL0    Cl71805   1.472  12.502   9.000  0.2451 -0.1852  0.3331
  521MOL0     C71806   1.026  12.088   9.936 -0.6528 -0.1067  0.2223
  521MOL0     C71807   1.045  11.998  10.040 -0.3879 -0.4406  0.1718
  521MOL0     O71808   0.951  11.757  10.229 -0.6474  0.5847  1.0265
  521MOL0     C71809   1.263  11.674  10.343 -0.5501 -0.0808 -0.3144
  521MOL0     C71810   1.335  11.634  10.458  0.7034  0.3921 -0.6515
  521MOL0     N71811   1.557  11.088  10.762  0.6476 -0.6176 -0.0944
  521MOL0     N71812   1.525  10.999  10.672 -0.2993  0.3244  0.5266
  521MOL0     C71813   0.352  11.099  10.607 -0.2420  0.1218  0.5079
  521MOL0     C71814   0.241  11.181  10.595  0.1194  0.0917  0.7112
  521MOL0     C71815  -0.132  11.333  10.396  0.7844 -0.6597 -0.6045
  521MOL0     C71816  -0.117  11.449  10.314  0.2908  1.7424  0.0016
  521MOL0     C71817  -0.212  11.545  10.296  1.4757  0.1981  0.0165
  521MOL0     C71818  -0.340  11.532  10.352  0.2474  0.5551  0.2093
  521MOL0     O71819  -0.438  11.629  10.353  0.0994  0.0671  1.0473
  521MOL0     C71820  -0.425  11.746  10.269  0.2149  0.3054 -0.6798
  521MOL0     C71821  -0.536  11.841  10.305  0.6178 -0.1255 -0.0713
  521MOL0     C71822  -0.520  11.933  10.432 -1.0628 -0.2437 -0.7219
  521MOL0     C71823  -0.444  12.071  10.410 -0.8959 -0.0739  0.2857
  521MOL0     C71824  -0.326  12.061  10.319 -0.1306 -0.3064 -0.2522
  521MOL0     C71825  -0.228  12.063  10.248 -0.1301  1.1951 -0.6738
  521MOL0     C71826  -0.360  11.414  10.428 -0.2394 -0.3647  0.4435
  521MOL0     C71827  -0.263  11.317  10.450  0.0627  0.5428  0.0002
  521MOL0     C71828  -0.311  11.193  10.518  0.5590  0.4607 -0.0160
  521MOL0     H71829   0.026  10.947  10.480  0.5723 -2.0652 -0.3859
  521MOL0     H71830   0.209  10.810  10.506  2.1768 -0.6815 -0.2485
  521MOL0     H71831   0.470  10.782  10.436  1.0749 -1.2553 -0.7349
  521MOL0     H71832   0.408  10.697  10.586  1.6943 -1.9783 -1.0324
  521MOL0     H71833   0.633  10.730  10.669  2.9692 -0.1909  0.5624
  521MOL0     H71834   0.625  10.616  10.537 -2.2921  0.5300 -0.0866
  521MOL0     H71835   0.741  10.735  10.381 -0.5641  0.6672 -0.2748
  521MOL0     H71836   0.719  10.891  10.460  1.2859  0.1068  1.6154
  521MOL0     H71837   0.853  10.835  10.645 -0.9122 -0.3351  0.6595
  521MOL0     H71838   0.854  10.669  10.603 -2.9881 -0.2885 -1.7515
  521MOL0     H71839   0.978  10.893  10.416  2.3689  0.2404 -0.0584
  521MOL0     H71840   0.967  10.724  10.382 -1.3782  0.4723  0.0623
  521MOL0     H71841   1.114  10.678  10.580 -2.0886 -0.0922 -0.7767
  521MOL0     H71842   1.172  10.738  10.417 -1.3337  1.7257 -1.2544
  521MOL0     H71843   1.113  10.930  10.642  1.3986  0.7312  0.3829
  521MOL0     H71844   1.187  10.954  10.481 -0.3062  0.5114  0.1848
  521MOL0     H71845   1.301  10.789  10.727  2.5122 -1.1083  0.2937
  521MOL0     H71846   1.380  10.795  10.569  2.8513  2.0129  1.6909
  521MOL0     H71847   1.230  11.092  10.797  0.0903  2.5971 -0.3008
  521MOL0     H71848   1.550  11.280  10.941 -0.4941  1.3616  1.2450
  521MOL0     H71849   1.384  11.232  10.984 -0.9673  2.0788  0.4625
  521MOL0     H71850   1.278  11.362  10.830 -0.4775  1.6158 -0.1686
  521MOL0     H71851   1.384  11.462  10.920 -1.6104  0.4091 -1.9165
  521MOL0     H71852   1.562  11.401  10.704  1.1939  3.0306 -5.0580
  521MOL0     H71853   1.409  11.426  10.630 -1.0137 -1.2856  1.0855
  521MOL0     H71854   1.516  11.628  10.819 -0.5818 -2.4516  0.4369
  521MOL0     H71855   1.545  11.628  10.646 -0.9423  0.3681 -0.7510
  521MOL0     H71856   1.117  11.778  10.694  0.0122 -1.7281  0.0981
  521MOL0     H71857   1.001  11.986  10.421 -0.8877  1.4175  1.4798
  521MOL0     H71858   0.979  11.933  10.586 -0.7134 -0.9414  0.2643
  521MOL0     H71859   0.893  11.855  10.450  0.1664 -1.8491 -0.7152
  521MOL0     H71860   1.292  11.810   9.913  0.7102  1.6744  1.2837
  521MOL0     H71861   1.264  11.969   9.719 -0.6328  0.4690  0.0067
  521MOL0     H71862   0.866  12.158   9.703 -0.8328  0.1799  1.1806
  521MOL0     H71863   0.933  12.294   9.786 -1.1269  1.2221 -0.8831
  521MOL0     H71864   0.880  12.211   9.499 -2.0102 -0.7709  0.4913
  521MOL0     H71865   0.825  12.348   9.573 -2.6010 -3.4119 -2.9430
  521MOL0     H71866   0.975  12.409   9.400 -2.2886  1.3313  2.3961
  521MOL0     H71867   1.078  12.264   9.429  0.1568  0.9399 -0.6496
  521MOL0     H71868   1.211  12.381   9.613 -0.5486 -0.7751  0.4626
  521MOL0     H71869   1.130  12.522   9.563  1.8250  0.8135  0.0227
  521MOL0     H71870   1.351  12.478   9.453  0.5425  0.7012 -1.2730
  521MOL0     H71871   1.285  12.328   9.381  0.2928  0.2762  1.5866
  521MOL0     H71872   1.143  12.586   9.331  0.3336 -0.3293  0.7180
  521MOL0     H71873   1.126  12.432   9.239 -0.5737  0.6084  0.4767
  521MOL0     H71874   1.344  12.627   9.224  0.7572 -0.8412 -0.1850
  521MOL0     H71875   1.235  12.567   9.096  2.5197  0.8045 -1.3493
  521MOL0     H71876   1.339  12.335   9.123  1.5235  0.2446 -4.3500
  521MOL0     H71877   1.459  12.425   9.226 -1.2944  1.8393  2.1850
  521MOL0     H71878   0.968  12.177   9.959 -1.5146  0.3684 -3.2690
  521MOL0     H71879   1.013  12.022  10.141 -0.1487  1.5941 -0.1934
  521MOL0     H71880   1.296  11.642  10.245  1.8038 -1.3122  0.8076
  521MOL0     H71881   1.421  11.568  10.470  0.9144  1.1804  4.2540
  521MOL0     H71882   0.442  11.152  10.638 -1.1389  3.6879 -2.3009
  521MOL0     H71883   0.238  11.285  10.623  3.8270  0.3911  0.5180
  521MOL0     H71884  -0.024  11.466  10.261 -1.2313  0.8505 -3.2504
  521MOL0     H71885  -0.197  11.632  10.233  1.4055  2.3225  2.7517
  521MOL0     H71886  -0.331  11.799  10.284 -0.4900  1.2584  0.6969
  521MOL0     H71887  -0.433  11.709  10.167 -0.3631 -0.2251 -0.4463
  521MOL0     H71888  -0.630  11.785  10.307 -0.3571  1.4825  0.8729
  521MOL0     H71889  -0.553  11.913  10.224  1.1537  0.7294  0.5590
  521MOL0     H71890  -0.623  11.941  10.467 -0.1136  0.9601  2.1483
  521MOL0     H71891  -0.468  11.873  10.508 -0.8156 -1.7118 -1.9833
  521MOL0     H71892  -0.416  12.119  10.504 -0.2859  2.3130 -1.0184
  521MOL0     H71893  -0.516  12.134  10.356 -0.3152  0.6020  0.2756
  521MOL0     H71894  -0.137  12.062  10.192  0.1620  3.3560 -0.3134
  521MOL0     H71895  -0.455  11.404  10.478 -0.8822 -1.4205 -0.9253
  521MOL0     H71896  -0.277  11.096  10.483 -1.3266  0.4405 -2.0093
  521MOL0     H71897  -0.279  11.197  10.623  1.4003  0.5587 -0.2715
  521MOL0     H71898  -0.420  11.187  10.513  0.6210 -1.4729  0.2682
  522MOL0     O71899   4.519   4.480   5.177  0.1339  0.8550 -0.1725
  522MOL0     C71900   4.489   4.517   5.289 -0.1136 -0.5658  0.5133
  522MOL0     O71901   4.585   4.564   5.383  0.7275  0.6511  0.3161
  522MOL0     C71902   4.711   4.596   5.332  0.8581  0.1273 -0.5059
  522MOL0     C71903   4.819   4.527   5.375 -0.1065  0.0130 -0.8367
  522MOL0     C71904   4.947   4.563   5.336  0.8813 -0.5722  0.3595
  522MOL0     C71905   4.959   4.685   5.265 -0.3063  0.9532  0.9351
  522MOL0     O71906   5.083   4.726   5.226 -0.4229  0.2690  0.7330
  522MOL0     C71907   5.188   4.633   5.211 -0.0830  0.2696 -0.1885
  522MOL0     C71908   5.293   4.709   5.131 -0.4951  0.2363 -0.3720
  522MOL0     C71909   5.245   4.717   4.978  0.0805  0.0093 -0.2085
  522MOL0     C71910   5.364   4.786   4.902 -0.0769 -0.5083  0.2243
  522MOL0     C71911   5.329   4.763   4.752 -0.7622 -0.3659  1.0341
  522MOL0     C71912   5.423   4.843   4.662 -0.0930  0.1818  0.3375
  522MOL0     C71913   5.573   4.843   4.697 -0.3195  0.5259  0.1894
  522MOL0     C71914   5.651   4.894   4.578 -1.4987  0.4735  0.7434
  522MOL0     N71915   5.796   4.872   4.607 -0.3982 -0.7040 -0.8938
  522MOL0     C71916   5.888   4.973   4.611 -1.3037 -0.3108 -0.3023
  522MOL0     C71917   6.010   4.918   4.623  0.8254  0.0542  0.3495
  522MOL0     C71918   6.128   5.013   4.660 -1.1618  0.3258  0.4364
  522MOL0     C71919   6.268   4.939   4.675 -0.3179  0.0392  0.0123
  522MOL0     C71920   6.260   4.846   4.788 -0.6871  0.4275 -0.0707
  522MOL0     C71921   6.403   4.813   4.823 -0.5993  0.7000  0.0419
  522MOL0     O71922   6.456   4.732   4.717 -0.4923 -0.9513  0.1132
  522MOL0     C71923   6.592   4.729   4.715 -0.1831 -0.5304 -0.1681
  522MOL0     C71924   6.662   4.650   4.808 -0.3250 -0.1908 -0.0863
  522MOL0     C71925   6.804   4.650   4.817  0.0724 -0.2632 -0.4311
  522MOL0     C71926   6.868   4.569   4.934  0.3147 -0.5038 -0.2637
  522MOL0     C71927   6.871   4.726   4.713  0.7574 -0.1677 -0.6700
  522MOL0     C71928   7.023   4.742   4.707  0.7887 -1.0256 -0.6993
  522MOL0     O71929   7.097   4.705   4.810 -0.5945 -0.3883 -0.2790
  522MOL0     C71930   7.236   4.706   4.803  0.1998  0.2477  0.3558
  522MOL0     C71931   7.310   4.591   4.808 -0.5166 -0.2246 -0.2600
  522MOL0     C71932   7.443   4.589   4.784  0.6582 -0.5412  0.1102
  522MOL0     C71933   7.512   4.713   4.752 -0.2997  0.1918 -0.6088
  522MOL0     O71934   7.652   4.717   4.727  0.7184  0.1128 -0.1203
  522MOL0     C71935   7.677   4.705   4.590 -0.4890  0.1584  0.4256
  522MOL0     C71936   7.824   4.712   4.554 -0.2039  0.3109 -0.2494
  522MOL0     C71937   7.925   4.605   4.621  0.1825 -0.3622  0.0813
  522MOL0     C71938   8.070   4.631   4.582  0.1266 -0.5864 -1.4480
  522MOL0     C71939   8.151   4.513   4.617  0.5457 -0.6758  0.2834
  522MOL0     C71940   8.298   4.555   4.634 -0.5103 -0.6374 -0.2044
  522MOL0     C71941   8.386   4.433   4.616 -0.7392 -0.4154  0.4131
  522MOL0     C71942   8.532   4.469   4.584 -0.4136 -0.3053  0.5531
  522MOL0    Cl71943   8.590   4.572   4.722 -0.4404  0.7277  0.1067
  522MOL0     C71944   7.436   4.834   4.763 -0.3580  0.5011  0.0468
  522MOL0     C71945   7.295   4.835   4.788 -0.9708  0.0517  0.5035
  522MOL0     O71946   7.067   4.790   4.601 -0.3181 -0.2090  0.1521
  522MOL0     C71947   6.802   4.795   4.612  0.3247  0.2103  0.6071
  522MOL0     C71948   6.663   4.797   4.619 -0.1003  0.1382 -0.7266
  522MOL0     N71949   5.995   4.784   4.622  0.4364  0.1956 -0.2304
  522MOL0     N71950   5.871   4.758   4.613 -0.8610  0.4285 -0.5082
  522MOL0     C71951   4.847   4.751   5.218  0.4338  0.1565  0.5637
  522MOL0     C71952   4.718   4.699   5.243 -0.1337 -0.3888 -0.2446
  522MOL0     C71953   4.359   4.509   5.335  0.1310 -0.6569 -0.0392
  522MOL0     C71954   4.334   4.545   5.473  0.0975  0.5471  0.2920
  522MOL0     C71955   4.203   4.528   5.525  0.2246 -0.0133 -0.3642
  522MOL0     C71956   4.102   4.469   5.454 -0.0778  0.1800 -0.0895
  522MOL0     O71957   3.979   4.451   5.524 -0.1147 -0.3185  0.2877
  522MOL0     C71958   3.872   4.388   5.448 -0.3152 -0.1004 -0.3033
  522MOL0     C71959   3.751   4.371   5.539 -0.1840  0.2559  0.8380
  522MOL0     C71960   3.642   4.285   5.462 -0.5678  0.1655  0.1232
  522MOL0     C71961   3.682   4.158   5.396 -1.0045 -0.2114 -0.2540
  522MOL0     C71962   3.561   4.072   5.381 -0.3258 -0.5546  0.5873
  522MOL0     C71963   3.457   4.012   5.365 -0.4743  0.8754  0.6716
  522MOL0     C71964   4.127   4.429   5.324  0.2855 -0.3844 -0.1008
  522MOL0     C71965   4.252   4.457   5.261  0.5163  0.0962 -0.1261
  522MOL0     C71966   4.257   4.423   5.114 -0.2925  0.2208 -0.6623
  522MOL0     H71967   4.811   4.442   5.441 -4.1648 -1.3260 -2.8005
  522MOL0     H71968   5.029   4.497   5.361 -0.4341 -1.4313  2.7610
  522MOL0     H71969   5.145   4.548   5.158 -2.0956  0.1531  1.4889
  522MOL0     H71970   5.237   4.614   5.307  1.2891 -0.8494 -1.0799
  522MOL0     H71971   5.311   4.804   5.182  3.0468 -0.8712  0.6904
  522MOL0     H71972   5.384   4.650   5.134  0.4435  1.4149 -2.7492
  522MOL0     H71973   5.196   4.631   4.931 -0.8165 -0.3206  1.2619
  522MOL0     H71974   5.160   4.785   4.969 -1.5636 -1.8991  0.1796
  522MOL0     H71975   5.371   4.892   4.926 -0.4119 -0.1071 -1.3529
  522MOL0     H71976   5.458   4.738   4.928  0.3931 -1.0220 -2.1459
  522MOL0     H71977   5.231   4.809   4.737 -1.4036 -0.7886  3.5754
  522MOL0     H71978   5.336   4.658   4.722 -0.4901  0.2033 -1.1103
  522MOL0     H71979   5.417   4.804   4.560 -0.9554  2.0601 -0.3684
  522MOL0     H71980   5.387   4.946   4.661 -2.9622 -0.7486 -0.1144
  522MOL0     H71981   5.601   4.742   4.728  2.7816  1.4851  0.9121
  522MOL0     H71982   5.586   4.907   4.785 -0.1432  0.2344  0.3778
  522MOL0     H71983   5.637   4.829   4.490  0.7007  1.9448 -0.7859
  522MOL0     H71984   5.618   4.996   4.558  1.9279  1.1596 -2.7366
  522MOL0     H71985   5.866   5.078   4.619 -1.0533 -0.3615  1.3991
  522MOL0     H71986   6.111   5.072   4.750 -0.7472  0.7889  0.2211
  522MOL0     H71987   6.138   5.090   4.583  3.9785 -0.4584 -0.0596
  522MOL0     H71988   6.284   4.881   4.583 -0.3772 -1.5184  0.9440
  522MOL0     H71989   6.348   5.014   4.681  0.6372 -0.9758  0.3798
  522MOL0     H71990   6.225   4.890   4.881  0.6891 -2.1783  1.7902
  522MOL0     H71991   6.193   4.764   4.758 -1.3436  0.8729  0.1537
  522MOL0     H71992   6.452   4.909   4.839  0.0043  0.7963 -2.1148
  522MOL0     H71993   6.397   4.762   4.920  0.2453 -1.4898 -0.9792
  522MOL0     H71994   6.619   4.587   4.884  1.2538 -0.3913  0.6705
  522MOL0     H71995   6.893   4.641   5.012 -1.5358  0.8022 -0.8044
  522MOL0     H71996   6.962   4.527   4.896  1.6533 -0.2015  2.4701
  522MOL0     H71997   6.796   4.497   4.975 -0.5172  0.4673 -0.0041
  522MOL0     H71998   7.259   4.496   4.825  1.6032 -1.4713 -0.5115
  522MOL0     H71999   7.501   4.497   4.788 -1.4219 -1.8899  0.6448
  522MOL0     H72000   7.634   4.610   4.555 -1.5682  0.4047  1.0270
  522MOL0     H72001   7.635   4.785   4.528  1.1303 -1.0720 -2.4908
  522MOL0     H72002   7.817   4.706   4.445 -0.9571  3.8417 -0.5276
  522MOL0     H72003   7.872   4.805   4.584  5.9838 -2.3943 -0.2478
  522MOL0     H72004   7.892   4.509   4.580 -2.0519  0.0750  0.7442
  522MOL0     H72005   7.904   4.614   4.728 -1.7775  2.8238 -0.4239
  522MOL0     H72006   8.093   4.723   4.636  0.1919 -2.2927  1.6512
  522MOL0     H72007   8.071   4.636   4.473 -1.1863  0.4500 -1.4417
  522MOL0     H72008   8.126   4.465   4.712 -1.1833 -0.5458 -0.0689
  522MOL0     H72009   8.139   4.443   4.535  0.6514 -1.7607  1.1776
  522MOL0     H72010   8.304   4.605   4.731 -0.8625 -0.9282 -0.0308
  522MOL0     H72011   8.341   4.622   4.558  0.1114 -1.3351 -0.4720
  522MOL0     H72012   8.339   4.374   4.537 -2.2191 -0.7597  1.5155
  522MOL0     H72013   8.385   4.377   4.710  3.6504 -0.6516  0.5422
  522MOL0     H72014   8.544   4.526   4.492 -0.0709  0.0286  0.8000
  522MOL0     H72015   8.588   4.376   4.567 -0.8165 -0.4932  0.2448
  522MOL0     H72016   7.490   4.918   4.720 -2.2505  1.3755 -0.7396
  522MOL0     H72017   7.242   4.929   4.781 -0.2018  0.4009 -0.8974
  522MOL0     H72018   6.857   4.846   4.533 -0.4560 -2.0469 -1.5087
  522MOL0     H72019   6.600   4.844   4.543 -1.4927 -2.0424 -1.0154
  522MOL0     H72020   4.843   4.832   5.146 -0.5842  1.6651  2.1999
  522MOL0     H72021   4.628   4.746   5.204 -1.6341 -2.6132  0.3329
  522MOL0     H72022   4.405   4.561   5.553 -0.7978  0.0958  1.2048
  522MOL0     H72023   4.186   4.552   5.629 -1.2904  1.4654 -0.9045
  522MOL0     H72024   3.840   4.447   5.362  2.7593  2.8404  0.3456
  522MOL0     H72025   3.905   4.292   5.408 -0.7346  0.2679 -1.5706
  522MOL0     H72026   3.707   4.470   5.558  1.7799  1.3392  0.1169
  522MOL0     H72027   3.776   4.330   5.637 -0.5279 -0.3149  0.6901
  522MOL0     H72028   3.568   4.277   5.541 -0.3043  1.5500  0.5479
  522MOL0     H72029   3.587   4.350   5.393  1.3581  1.6449 -0.1133
  522MOL0     H72030   3.758   4.106   5.456 -0.8084 -2.4518 -2.3189
  522MOL0     H72031   3.731   4.180   5.300 -0.7063  0.0282 -0.0523
  522MOL0     H72032   3.374   3.948   5.344 -0.9223  1.4206  0.7442
  522MOL0     H72033   4.048   4.377   5.272  0.3731 -1.5215  0.8470
  522MOL0     H72034   4.164   4.372   5.088 -1.0715  1.7014 -0.8706
  522MOL0     H72035   4.260   4.516   5.056  2.1744  1.1799  0.8239
  522MOL0     H72036   4.341   4.356   5.093 -0.6711 -0.5743  0.2941
  523MOL0     O72037   7.605  11.307   8.514  0.5274 -0.0531  1.0522
  523MOL0     C72038   7.616  11.387   8.609 -0.6428 -0.2430 -0.0338
  523MOL0     O72039   7.727  11.465   8.637 -0.2654  0.1263 -0.1568
  523MOL0     C72040   7.847  11.441   8.580  0.2310  0.3329  0.2732
  523MOL0     C72041   7.924  11.560   8.553 -0.5389 -0.9257  0.5394
  523MOL0     C72042   8.059  11.543   8.509 -0.0165 -0.2242  0.1481
  523MOL0     C72043   8.111  11.414   8.493 -0.9984  0.5392  0.1479
  523MOL0     O72044   8.247  11.416   8.454 -0.3539 -0.0830 -0.1882
  523MOL0     C72045   8.312  11.295   8.421  0.2886 -0.3637  0.0785
  523MOL0     C72046   8.448  11.341   8.372 -0.7038 -0.9728 -0.8162
  523MOL0     C72047   8.525  11.218   8.311 -0.0892  0.8588 -0.6840
  523MOL0     C72048   8.672  11.262   8.277  0.0340 -0.4571 -0.1366
  523MOL0     C72049   8.750  11.148   8.202  1.5594  0.2477  0.5646
  523MOL0     C72050   8.899  11.161   8.215  0.2094  0.4959  0.1116
  523MOL0     C72051   8.959  11.283   8.132 -0.1134  0.7430 -0.3945
  523MOL0     C72052   8.952  11.268   7.983  0.1008  0.8136  0.1499
  523MOL0     N72053   9.089  11.253   7.927 -0.0563  0.1940  0.0903
  523MOL0     C72054   9.176  11.148   7.956  1.3137 -0.4227 -0.1303
  523MOL0     C72055   9.296  11.187   7.925 -0.6622 -1.1435 -0.4415
  523MOL0     C72056   9.419  11.108   7.947  0.6879  0.3636  0.2062
  523MOL0     C72057   9.494  11.081   7.822  0.0422 -0.9668  0.0118
  523MOL0     C72058   9.640  11.034   7.858  1.2585 -0.3981 -0.6636
  523MOL0     C72059   9.720  11.002   7.737  0.1275 -0.0026 -0.5243
  523MOL0     O72060   9.827  10.910   7.764  0.5197 -0.2533  0.3779
  523MOL0     C72061   9.807  10.772   7.781  0.9662 -0.8615 -0.3578
  523MOL0     C72062   9.685  10.707   7.784 -0.0764 -0.3651  0.7955
  523MOL0     C72063   9.673  10.569   7.789 -0.4220 -0.3644 -0.4076
  523MOL0     C72064   9.536  10.506   7.772  0.1850 -0.4228 -0.7435
  523MOL0     C72065   9.783  10.489   7.808 -1.0547 -0.1851  0.3553
  523MOL0     C72066   9.777  10.344   7.804 -0.5081  0.5919 -0.2789
  523MOL0     O72067   9.857  10.287   7.896 -0.8446 -1.0065  0.2568
  523MOL0     C72068   9.906  10.163   7.884  0.1598  0.1134  0.0144
  523MOL0     C72069   9.815  10.056   7.906  0.6467 -0.4449  0.6603
  523MOL0     C72070   9.863   9.925   7.913 -0.1730 -0.7511 -0.0450
  523MOL0     C72071   9.995   9.895   7.901 -0.3605 -0.3918 -0.2657
  523MOL0     O72072  10.035   9.759   7.883  0.1217 -0.7616  0.0911
  523MOL0     C72073  10.115   9.734   7.765  0.4422  0.3512  0.5912
  523MOL0     C72074  10.031   9.772   7.641 -0.0970 -0.5299  0.1759
  523MOL0     C72075   9.908   9.689   7.638 -0.6785  0.8004  0.4762
  523MOL0     C72076   9.873   9.642   7.494  0.8586 -1.0718  0.9314
  523MOL0     C72077   9.764   9.528   7.486 -1.5501  0.7004 -0.1715
  523MOL0     C72078   9.623   9.576   7.518 -0.1351 -0.5110 -0.2257
  523MOL0     C72079   9.519   9.475   7.466  0.2239  0.5081 -0.1692
  523MOL0     C72080   9.373   9.517   7.493  0.2526 -0.1118 -0.6592
  523MOL0    Cl72081   9.258   9.396   7.440  0.2409  0.0413  0.0322
  523MOL0     C72082  10.085   9.999   7.865  0.3236  0.2732 -0.4723
  523MOL0     C72083  10.044  10.127   7.877 -0.0634 -0.6366 -0.2627
  523MOL0     O72084   9.723  10.287   7.715  0.0696  0.1890  0.5110
  523MOL0     C72085   9.910  10.554   7.803 -0.3071 -0.2001  0.9595
  523MOL0     C72086   9.917  10.695   7.793 -1.1475  0.2692 -0.2923
  523MOL0     N72087   9.286  11.316   7.874  0.5158 -0.3450 -0.1972
  523MOL0     N72088   9.165  11.354   7.875 -0.0588 -0.3056 -0.0721
  523MOL0     C72089   8.041  11.305   8.527  0.6333  0.2849 -0.7256
  523MOL0     C72090   7.909  11.318   8.568  0.7612 -0.4645  0.3045
  523MOL0     C72091   7.500  11.428   8.694  0.4058 -0.6076  0.7239
  523MOL0     C72092   7.513  11.512   8.811 -0.1072 -0.2972 -0.1850
  523MOL0     C72093   7.403  11.553   8.892  0.8638 -0.6066 -0.5083
  523MOL0     C72094   7.268  11.504   8.862 -0.6557 -0.6307  1.0737
  523MOL0     O72095   7.167  11.558   8.939  0.5345  0.3708 -0.0665
  523MOL0     C72096   7.039  11.492   8.930  0.4783  0.5334 -1.2305
  523MOL0     C72097   6.952  11.570   8.840  0.1300 -0.4804 -0.5091
  523MOL0     C72098   6.821  11.493   8.816 -0.5812 -0.4993  0.4074
  523MOL0     C72099   6.716  11.579   8.741  0.0720 -0.2635  0.3407
  523MOL0     C72100   6.611  11.649   8.830  0.0293  0.7703  0.4030
  523MOL0     C72101   6.550  11.712   8.910  0.5772 -0.1830 -0.3550
  523MOL0     C72102   7.256  11.419   8.753 -0.1064 -0.7004 -0.2030
  523MOL0     C72103   7.364  11.386   8.665 -0.2885 -0.2821 -0.1320
  523MOL0     C72104   7.310  11.308   8.543 -0.0191  1.1233 -0.5811
  523MOL0     H72105   7.884  11.659   8.575 -0.2257 -0.9499  1.2224
  523MOL0     H72106   8.116  11.629   8.477  0.4675 -1.8417 -4.1059
  523MOL0     H72107   8.257  11.239   8.345  0.0894 -4.2557  2.8050
  523MOL0     H72108   8.334  11.231   8.506  0.7771 -1.1016 -0.5892
  523MOL0     H72109   8.444  11.429   8.307  1.6873  0.7738  1.2079
  523MOL0     H72110   8.503  11.380   8.459  1.4790 -1.1914 -2.0419
  523MOL0     H72111   8.527  11.131   8.377 -1.0069  0.4190 -1.2099
  523MOL0     H72112   8.478  11.195   8.215 -4.2453 -0.3734  1.4189
  523MOL0     H72113   8.676  11.349   8.211 -0.8381  0.3055  0.7769
  523MOL0     H72114   8.720  11.301   8.368  3.4509 -3.0516 -0.6186
  523MOL0     H72115   8.706  11.132   8.103  1.1001  0.0576  0.7925
  523MOL0     H72116   8.724  11.056   8.256 -0.5324 -0.2893 -1.2326
  523MOL0     H72117   8.926  11.170   8.321 -0.7279  0.9544  0.3243
  523MOL0     H72118   8.933  11.065   8.175 -2.2884  0.3157 -1.8279
  523MOL0     H72119   9.063  11.297   8.163  0.8997 -0.0580 -3.1044
  523MOL0     H72120   8.914  11.378   8.165 -1.8603  0.2343 -1.1951
  523MOL0     H72121   8.882  11.186   7.964  0.7479 -0.2163  1.9924
  523MOL0     H72122   8.914  11.354   7.927  0.1541 -0.1713 -1.4780
  523MOL0     H72123   9.155  11.052   8.002 -1.7756 -0.8716 -2.1350
  523MOL0     H72124   9.386  11.010   7.984 -4.2742  1.5695 -0.3476
  523MOL0     H72125   9.486  11.161   8.014 -1.6246  0.1730  2.8299
  523MOL0     H72126   9.450  11.007   7.754  1.3123 -0.0699 -1.8688
  523MOL0     H72127   9.508  11.171   7.762 -2.1139 -0.5853 -0.0187
  523MOL0     H72128   9.695  11.108   7.917  2.9060  1.3355 -4.1018
  523MOL0     H72129   9.623  10.943   7.917 -2.3869 -1.1728 -2.5814
  523MOL0     H72130   9.653  10.966   7.659 -3.4049  0.5395  2.0191
  523MOL0     H72131   9.756  11.099   7.703  1.0099 -0.1215  0.0407
  523MOL0     H72132   9.597  10.764   7.758 -1.0560 -2.1411  0.0201
  523MOL0     H72133   9.520  10.449   7.680 -1.2071 -1.1036 -0.1201
  523MOL0     H72134   9.456  10.578   7.789 -1.0875 -1.3535 -2.5346
  523MOL0     H72135   9.522  10.433   7.852  1.3662 -1.0631 -1.0844
  523MOL0     H72136   9.712  10.083   7.926  1.0996  0.9713  1.2267
  523MOL0     H72137   9.801   9.836   7.921 -0.8027 -0.1902  1.8536
  523MOL0     H72138  10.211   9.786   7.761  0.4594  0.5822  2.8320
  523MOL0     H72139  10.138   9.627   7.765  0.2661  0.3134  0.6588
  523MOL0     H72140   9.995   9.875   7.648 -0.9329 -0.5687 -2.2956
  523MOL0     H72141  10.087   9.761   7.548 -0.8434  2.3232 -0.7278
  523MOL0     H72142   9.821   9.717   7.697 -2.4035 -0.9611 -1.1050
  523MOL0     H72143   9.943   9.593   7.678 -3.1964 -0.9300 -1.1827
  523MOL0     H72144   9.964   9.600   7.449 -0.5728 -3.2227 -0.0792
  523MOL0     H72145   9.832   9.722   7.431 -2.9272 -2.8727  0.8516
  523MOL0     H72146   9.774   9.488   7.385  0.4806  0.3997  0.1138
  523MOL0     H72147   9.788   9.448   7.557 -1.9520  3.9242  4.0249
  523MOL0     H72148   9.609   9.677   7.479  1.1681  1.0998  3.0985
  523MOL0     H72149   9.601   9.593   7.624 -1.7006  0.6842 -0.6876
  523MOL0     H72150   9.534   9.377   7.513  1.2042  0.3637 -0.7552
  523MOL0     H72151   9.544   9.462   7.361 -0.9957  0.5200 -0.4760
  523MOL0     H72152   9.350   9.609   7.438 -1.1398 -0.8265 -1.3117
  523MOL0     H72153   9.354   9.536   7.599 -1.4627 -0.9952 -0.7806
  523MOL0     H72154  10.192   9.984   7.854  0.0715 -1.8406 -0.5121
  523MOL0     H72155  10.114  10.210   7.874 -0.6233 -0.1680 -2.5018
  523MOL0     H72156  10.001  10.495   7.797  0.2933  0.8157 -1.9557
  523MOL0     H72157  10.015  10.741   7.793 -0.0594 -1.8946 -0.9967
  523MOL0     H72158   8.090  11.209   8.525  0.7497  0.3275 -0.0307
  523MOL0     H72159   7.853  11.228   8.591 -0.7405  0.3081 -0.1568
  523MOL0     H72160   7.614  11.535   8.844 -0.4955 -0.9028  1.5577
  523MOL0     H72161   7.420  11.607   8.985 -0.9920  0.1336 -0.5439
  523MOL0     H72162   7.044  11.383   8.920  0.5058  0.4967 -0.8232
  523MOL0     H72163   7.001  11.502   9.032 -1.0791 -2.8031 -1.3588
  523MOL0     H72164   6.997  11.593   8.742  1.1604  1.7079  0.4007
  523MOL0     H72165   6.936  11.666   8.889  2.8477 -0.6160  0.8299
  523MOL0     H72166   6.831  11.402   8.756 -0.3025  0.5744 -1.2402
  523MOL0     H72167   6.785  11.457   8.913  0.0978 -1.1955  0.4078
  523MOL0     H72168   6.653  11.529   8.667  0.0913  1.4929 -0.9260
  523MOL0     H72169   6.757  11.667   8.690 -2.4306  0.0449 -1.3038
  523MOL0     H72170   6.479  11.747   8.982  1.4108 -0.4999  0.6400
  523MOL0     H72171   7.157  11.378   8.736 -0.7555 -0.4862  2.6257
  523MOL0     H72172   7.323  11.200   8.551 -3.9314  0.4833 -0.8772
  523MOL0     H72173   7.201  11.317   8.538 -0.0989  0.4136 -0.2125
  523MOL0     H72174   7.351  11.337   8.446 -0.9799  0.5950 -1.1615
  524MOL0     O72175   1.591   0.037   8.050 -0.4691 -0.4993  0.0530
  524MOL0     C72176   1.687  -0.048   8.077  0.2040  0.5078  0.3987
  524MOL0     O72177   1.747  -0.065   8.200 -0.3580 -0.1855 -1.0762
  524MOL0     C72178   1.691   0.000   8.307 -0.9560  0.1173  0.5214
  524MOL0     C72179   1.561  -0.025   8.341  0.4638 -0.7009 -0.3325
  524MOL0     C72180   1.501   0.038   8.455 -0.4493 -0.1511 -0.3874
  524MOL0     C72181   1.575   0.125   8.546  0.1370  0.2943 -0.6532
  524MOL0     O72182   1.511   0.199   8.641 -0.4833  0.4073  0.0272
  524MOL0     C72183   1.470   0.322   8.598  0.6182  0.1612  0.4671
  524MOL0     C72184   1.433   0.402   8.725 -0.2597  0.4040  0.2095
  524MOL0     C72185   1.546   0.409   8.823  0.3998  0.0164 -0.3335
  524MOL0     C72186   1.510   0.502   8.945 -0.2159 -0.2353 -0.1428
  524MOL0     C72187   1.637   0.531   9.034  0.3981 -0.2977  0.6134
  524MOL0     C72188   1.601   0.646   9.135  0.5704 -0.4120 -0.2613
  524MOL0     C72189   1.717   0.683   9.229  0.7542  0.7320  0.2307
  524MOL0     C72190   1.700   0.772   9.354  0.1066 -0.1125  0.3596
  524MOL0     N72191   1.653   0.703   9.473 -0.0847  0.0676 -0.0798
  524MOL0     C72192   1.705   0.588   9.530  0.0919 -0.0263 -0.5375
  524MOL0     C72193   1.603   0.554   9.617  0.0277  0.0538 -0.0765
  524MOL0     C72194   1.603   0.424   9.693  0.0892  0.2206 -0.2660
  524MOL0     C72195   1.538   0.309   9.608 -0.5400 -0.2736 -0.4281
  524MOL0     C72196   1.504   0.191   9.691  0.2535 -0.7450 -0.3268
  524MOL0     C72197   1.434   0.080   9.605 -0.0397 -0.6591  0.5320
  524MOL0     O72198   1.544   0.011   9.549 -0.2179 -0.2699 -0.5743
  524MOL0     C72199   1.524  -0.062   9.444  0.1070 -0.2893 -0.0822
  524MOL0     C72200   1.395  -0.088   9.389  0.6457  1.1479 -0.5890
  524MOL0     C72201   1.380  -0.186   9.293  0.7311 -0.0332 -0.5441
  524MOL0     C72202   1.244  -0.233   9.263 -0.1588  0.5630 -0.6869
  524MOL0     C72203   1.488  -0.239   9.233 -0.2176  0.0910  0.3015
  524MOL0     C72204   1.468  -0.345   9.132 -0.0982 -0.3935 -0.3404
  524MOL0     O72205   1.551  -0.449   9.135  0.4929  0.0781 -0.0601
  524MOL0     C72206   1.561  -0.526   9.025 -0.4000 -0.3984 -1.5726
  524MOL0     C72207   1.683  -0.530   8.961 -0.0080 -0.0340 -0.1749
  524MOL0     C72208   1.707  -0.605   8.844 -0.9896 -0.1448 -0.3260
  524MOL0     C72209   1.606  -0.695   8.798 -0.3274 -0.6941 -0.5088
  524MOL0     O72210   1.625  -0.762   8.682  0.2792  1.3224  0.2203
  524MOL0     C72211   1.557  -0.883   8.640  0.1176  0.3856  0.2124
  524MOL0     C72212   1.629  -0.943   8.520 -0.1328 -0.2232 -0.8786
  524MOL0     C72213   1.534  -1.066   8.463  1.0303 -0.1263 -0.3240
  524MOL0     C72214   1.613  -1.134   8.361  0.6094 -0.2396 -0.3003
  524MOL0     C72215   1.533  -1.233   8.289 -0.4254  0.2849  0.8801
  524MOL0     C72216   1.623  -1.324   8.205 -0.9310 -0.4272 -0.4712
  524MOL0     C72217   1.551  -1.439   8.139 -0.6591  0.0299 -0.0171
  524MOL0     C72218   1.644  -1.507   8.041 -0.0538  0.6895  0.0055
  524MOL0    Cl72219   1.663  -1.419   7.894  0.0355  0.2295  0.6552
  524MOL0     C72220   1.475  -0.693   8.859 -0.5899  0.4272 -0.2927
  524MOL0     C72221   1.464  -0.611   8.981  0.4998 -0.2213 -0.1587
  524MOL0     O72222   1.383  -0.316   9.042 -0.4639 -0.1995  0.7459
  524MOL0     C72223   1.619  -0.197   9.262 -0.7619 -0.3663 -0.7435
  524MOL0     C72224   1.632  -0.105   9.371 -0.8285  0.7002  0.2530
  524MOL0     N72225   1.497   0.640   9.604 -0.3052 -0.3354  0.3528
  524MOL0     N72226   1.532   0.736   9.529 -0.9566  0.7308 -0.6011
  524MOL0     C72227   1.705   0.144   8.505 -0.0069  0.2531 -0.0432
  524MOL0     C72228   1.761   0.085   8.385 -0.6757 -0.1871 -0.6332
  524MOL0     C72229   1.726  -0.145   7.970  0.1038  0.5257  0.0314
  524MOL0     C72230   1.762  -0.277   8.007 -0.7025 -0.1833  0.6459
  524MOL0     C72231   1.799  -0.374   7.909 -0.1985  0.1587  0.6918
  524MOL0     C72232   1.789  -0.353   7.776  0.3405 -0.4405 -0.3488
  524MOL0     O72233   1.827  -0.452   7.688 -0.2470 -0.0833  0.1184
  524MOL0     C72234   1.722  -0.553   7.686 -0.7851 -0.2115  0.4823
  524MOL0     C72235   1.631  -0.505   7.571 -0.1870 -0.0102 -0.4343
  524MOL0     C72236   1.547  -0.622   7.518 -0.4832 -0.0831  0.3818
  524MOL0     C72237   1.451  -0.581   7.411 -0.7989 -0.7587  0.1899
  524MOL0     C72238   1.350  -0.681   7.393  0.1937 -0.4621 -0.5682
  524MOL0     C72239   1.263  -0.763   7.374 -0.1272  0.1505  0.0489
  524MOL0     C72240   1.752  -0.223   7.743 -0.4603 -0.0621  0.6267
  524MOL0     C72241   1.717  -0.119   7.834  0.0902  0.1609 -0.1190
  524MOL0     C72242   1.675   0.019   7.779 -0.2939  0.0889  0.0785
  524MOL0     H72243   1.510  -0.090   8.271  0.4105  1.4662 -2.4076
  524MOL0     H72244   1.396   0.021   8.473 -0.3866 -0.5856 -0.4342
  524MOL0     H72245   1.379   0.299   8.541  0.4116 -0.4329  1.0254
  524MOL0     H72246   1.549   0.374   8.543  1.3747  0.6055  1.9386
  524MOL0     H72247   1.400   0.504   8.703 -0.1424 -0.2037 -3.4218
  524MOL0     H72248   1.349   0.340   8.759  0.0543 -0.9608 -1.3815
  524MOL0     H72249   1.561   0.308   8.861 -1.8452  0.9774  3.7136
  524MOL0     H72250   1.644   0.430   8.778  0.5323  2.3052  0.8574
  524MOL0     H72251   1.483   0.605   8.920  0.5864 -0.1613 -0.7344
  524MOL0     H72252   1.423   0.470   9.003 -0.9462  0.2021 -0.9776
  524MOL0     H72253   1.712   0.577   8.969 -0.6393  2.2080  1.0908
  524MOL0     H72254   1.683   0.439   9.072  0.0758 -2.3739 -3.3690
  524MOL0     H72255   1.581   0.734   9.072 -1.0373 -1.1333 -0.8308
  524MOL0     H72256   1.509   0.604   9.178  1.3096 -0.8240  0.9618
  524MOL0     H72257   1.788   0.735   9.163 -0.9905 -0.7633 -3.0309
  524MOL0     H72258   1.765   0.592   9.266 -5.2775 -2.0481  2.5312
  524MOL0     H72259   1.800   0.810   9.379 -0.5650  0.1772  2.8962
  524MOL0     H72260   1.642   0.864   9.340  1.8791  1.0024  0.0547
  524MOL0     H72261   1.795   0.533   9.504  0.4142 -0.3061  1.0726
  524MOL0     H72262   1.547   0.433   9.786  3.4016  0.3324  1.8893
  524MOL0     H72263   1.702   0.403   9.736  0.5315  1.8862 -0.4146
  524MOL0     H72264   1.451   0.365   9.572 -0.2527  0.7315  0.3990
  524MOL0     H72265   1.610   0.279   9.532  2.6771 -0.1906  2.3326
  524MOL0     H72266   1.592   0.150   9.740 -1.0036 -2.5054  0.5890
  524MOL0     H72267   1.438   0.229   9.769  0.5219 -0.2772 -0.3309
  524MOL0     H72268   1.373   0.010   9.662 -2.6936  0.4197 -0.8419
  524MOL0     H72269   1.362   0.134   9.544 -1.7734 -0.5140  2.6024
  524MOL0     H72270   1.301  -0.062   9.435  0.1528 -2.4494  0.7680
  524MOL0     H72271   1.211  -0.178   9.174  1.4830 -0.3641 -1.9451
  524MOL0     H72272   1.183  -0.206   9.349  0.8768 -1.5176  0.7883
  524MOL0     H72273   1.240  -0.342   9.251 -1.4067  0.5485 -0.2980
  524MOL0     H72274   1.757  -0.459   8.996 -1.0149  0.4908  0.9591
  524MOL0     H72275   1.805  -0.615   8.797 -0.5588 -1.7635  0.8455
  524MOL0     H72276   1.552  -0.953   8.724  1.4459 -0.6112 -0.4975
  524MOL0     H72277   1.451  -0.863   8.620 -0.1645 -1.8294 -0.9017
  524MOL0     H72278   1.656  -0.867   8.447  1.3988 -0.3763 -0.5222
  524MOL0     H72279   1.726  -0.980   8.557 -1.6745 -1.1745  2.6867
  524MOL0     H72280   1.448  -1.028   8.408 -0.6281 -4.0816 -0.8025
  524MOL0     H72281   1.488  -1.130   8.539  0.3277  1.2839  0.4924
  524MOL0     H72282   1.693  -1.183   8.418 -0.1542  0.1720  1.1791
  524MOL0     H72283   1.666  -1.065   8.295  0.1253  1.1344  0.6846
  524MOL0     H72284   1.479  -1.300   8.357 -0.4914 -2.0521 -1.3294
  524MOL0     H72285   1.452  -1.186   8.233 -1.0425 -2.2490 -0.4988
  524MOL0     H72286   1.696  -1.362   8.277 -0.4294  0.0934 -0.6987
  524MOL0     H72287   1.676  -1.269   8.126 -2.1169 -0.2957 -1.1983
  524MOL0     H72288   1.465  -1.392   8.091 -2.1992 -1.1373  1.4329
  524MOL0     H72289   1.526  -1.511   8.218 -0.0690  0.4466  0.5620
  524MOL0     H72290   1.608  -1.607   8.015  0.8559 -0.1379  1.7167
  524MOL0     H72291   1.742  -1.522   8.086  0.5624  3.0008 -0.4477
  524MOL0     H72292   1.389  -0.750   8.826 -1.2277  0.3216  1.4445
  524MOL0     H72293   1.370  -0.610   9.034 -0.1729  0.3531 -1.3300
  524MOL0     H72294   1.708  -0.227   9.207 -0.1534 -0.7765  0.4271
  524MOL0     H72295   1.728  -0.067   9.402 -0.8216  2.3985 -1.6403
  524MOL0     H72296   1.756   0.226   8.554  1.5462 -1.0105  0.5516
  524MOL0     H72297   1.862   0.097   8.347 -0.4094  0.1848  0.1730
  524MOL0     H72298   1.783  -0.311   8.108  3.5082 -2.6194 -0.7673
  524MOL0     H72299   1.833  -0.468   7.953  1.7391  0.0395 -0.9476
  524MOL0     H72300   1.769  -0.649   7.663  0.8888  0.6269  0.2592
  524MOL0     H72301   1.668  -0.571   7.780 -1.0287  1.2016  0.6321
  524MOL0     H72302   1.696  -0.472   7.490 -0.9708  1.9696 -0.3092
  524MOL0     H72303   1.567  -0.423   7.605 -0.2010 -0.2327  0.0825
  524MOL0     H72304   1.609  -0.697   7.467 -2.5938 -0.1786 -2.2645
  524MOL0     H72305   1.495  -0.655   7.608  0.6660  2.0174  1.8997
  524MOL0     H72306   1.507  -0.572   7.317 -1.1340 -2.2128 -0.1617
  524MOL0     H72307   1.401  -0.484   7.420  0.2646  0.0786 -2.1938
  524MOL0     H72308   1.177  -0.827   7.378  0.4534 -0.7711 -1.3172
  524MOL0     H72309   1.735  -0.191   7.641  0.5346 -1.9612 -0.1842
  524MOL0     H72310   1.572   0.037   7.811 -0.5166 -0.8359 -0.0828
  524MOL0     H72311   1.746   0.087   7.825 -2.4653  0.5301  3.0457
  524MOL0     H72312   1.688   0.022   7.670  0.6922 -1.5020  0.1082
  525MOL0     O72313   2.632   1.235   4.469  0.5406 -0.0760 -0.7742
  525MOL0     C72314   2.612   1.147   4.548  0.7203  0.0517  0.0429
  525MOL0     O72315   2.673   1.023   4.546 -0.3867  0.0798  0.1296
  525MOL0     C72316   2.794   1.027   4.473  0.3314  0.8189  0.1475
  525MOL0     C72317   2.790   0.969   4.342 -0.1389  0.1020 -0.0557
  525MOL0     C72318   2.910   0.959   4.264 -0.4881 -0.0212 -0.4459
  525MOL0     C72319   3.031   1.015   4.312 -0.3066  0.3541  0.2767
  525MOL0     O72320   3.145   0.993   4.249  0.2999 -0.0751  0.0656
  525MOL0     C72321   3.163   1.004   4.104 -0.2543 -0.3523  0.4061
  525MOL0     C72322   3.280   0.917   4.074 -1.2923  0.4203 -0.8315
  525MOL0     C72323   3.421   0.979   4.093 -0.3116  0.1389  0.1304
  525MOL0     C72324   3.522   0.869   4.086 -0.6798  0.0652 -0.2467
  525MOL0     C72325   3.661   0.935   4.058  0.3662 -0.0849 -0.5798
  525MOL0     C72326   3.778   0.838   4.089 -0.2252 -1.3755 -0.2853
  525MOL0     C72327   3.912   0.903   4.054 -0.0939 -0.4489  0.1769
  525MOL0     C72328   4.025   0.820   4.106 -0.3745  0.3436 -0.4551
  525MOL0     N72329   4.153   0.848   4.044  0.2975 -0.5459 -0.0539
  525MOL0     C72330   4.206   0.971   4.030  1.2280 -0.3622  0.0130
  525MOL0     C72331   4.323   0.946   3.974  0.6636 -0.2188 -0.2924
  525MOL0     C72332   4.418   1.055   3.952 -0.4976 -0.2738 -0.6889
  525MOL0     C72333   4.523   1.056   4.066 -0.0325 -0.1556  0.7692
  525MOL0     C72334   4.650   1.119   4.007  0.0092  0.0850  0.1047
  525MOL0     C72335   4.749   1.125   4.124  0.3228 -0.2727  0.5428
  525MOL0     O72336   4.827   1.003   4.152  0.1963  0.1723  0.9593
  525MOL0     C72337   4.952   0.985   4.100  0.6302 -0.7783  0.2093
  525MOL0     C72338   5.005   1.053   3.987 -1.5166  0.3825 -0.3547
  525MOL0     C72339   5.136   1.021   3.942 -0.1947  0.8432  0.5895
  525MOL0     C72340   5.176   1.082   3.811 -0.2289  0.6209  0.4397
  525MOL0     C72341   5.219   0.939   4.027 -0.9267 -0.7734 -0.6066
  525MOL0     C72342   5.369   0.914   4.005  0.5226  0.5007  0.1347
  525MOL0     O72343   5.417   0.793   4.029 -0.6120  0.8315 -0.7251
  525MOL0     C72344   5.551   0.780   4.055  0.6655  0.9993 -0.1400
  525MOL0     C72345   5.651   0.814   3.953 -0.1465  0.0498 -0.5172
  525MOL0     C72346   5.780   0.790   3.984  0.0397  0.0695 -0.1182
  525MOL0     C72347   5.818   0.733   4.104  0.0615 -0.8030 -0.4780
  525MOL0     O72348   5.950   0.731   4.145 -0.6319  0.5650  0.0096
  525MOL0     C72349   6.048   0.721   4.040 -0.0951  0.2219 -0.2413
  525MOL0     C72350   6.173   0.668   4.118  0.5770 -0.5664 -0.1394
  525MOL0     C72351   6.306   0.680   4.044  0.3434  0.8967 -0.0765
  525MOL0     C72352   6.422   0.599   4.108  0.5397  0.0283  0.0971
  525MOL0     C72353   6.560   0.630   4.046 -0.6092 -0.2686 -0.5798
  525MOL0     C72354   6.608   0.776   4.071 -0.4459  0.8549  0.3422
  525MOL0     C72355   6.663   0.787   4.213 -0.3102 -0.9949  0.4580
  525MOL0     C72356   6.763   0.905   4.242  0.6810  0.3052  0.3242
  525MOL0    Cl72357   6.739   1.040   4.144  0.1789 -0.4056  0.1577
  525MOL0     C72358   5.718   0.703   4.201  0.3957 -0.5252 -0.3604
  525MOL0     C72359   5.589   0.732   4.175  0.2084 -0.1490  0.1835
  525MOL0     O72360   5.435   1.011   3.983  0.6811  0.1295 -0.3806
  525MOL0     C72361   5.157   0.882   4.137  0.1867  0.6695  0.7532
  525MOL0     C72362   5.031   0.904   4.179  0.5364  0.9390 -0.6091
  525MOL0     N72363   4.348   0.806   3.954  0.1859 -0.1662  0.7362
  525MOL0     N72364   4.237   0.756   3.991 -0.2271 -0.3221 -0.7216
  525MOL0     C72365   3.027   1.074   4.437 -0.2455 -0.6247  0.6456
  525MOL0     C72366   2.914   1.085   4.517  0.0444 -0.4195 -0.0603
  525MOL0     C72367   2.509   1.167   4.647  0.7790 -0.5821 -0.2291
  525MOL0     C72368   2.416   1.060   4.664  0.4391  0.5857  0.1053
  525MOL0     C72369   2.318   1.076   4.761  0.3778 -0.2614  0.1633
  525MOL0     C72370   2.309   1.184   4.850  0.0501  0.1274  0.6704
  525MOL0     O72371   2.207   1.200   4.935  0.0816  0.4442 -0.1877
  525MOL0     C72372   2.192   1.091   5.029 -0.6125  1.2715  0.2222
  525MOL0     C72373   2.325   1.067   5.102 -0.6277  0.5131  0.0234
  525MOL0     C72374   2.367   1.176   5.191  0.1256  0.0887  0.9637
  525MOL0     C72375   2.510   1.157   5.237 -0.5369  0.1789 -0.4790
  525MOL0     C72376   2.613   1.183   5.137  0.1088 -0.0799  0.0946
  525MOL0     C72377   2.690   1.218   5.052 -0.1344 -0.2701  0.3058
  525MOL0     C72378   2.396   1.291   4.830 -0.1438  0.0130 -0.3069
  525MOL0     C72379   2.497   1.278   4.736 -0.2793  0.4946 -0.2726
  525MOL0     C72380   2.598   1.385   4.730  0.5975  0.4143  0.8740
  525MOL0     H72381   2.695   0.926   4.309  0.4908 -1.4608  0.0723
  525MOL0     H72382   2.901   0.920   4.163 -1.1578 -1.2092  0.0468
  525MOL0     H72383   3.177   1.105   4.064 -0.7277  0.1720  1.5228
  525MOL0     H72384   3.071   0.970   4.056  0.0869  1.8141 -2.0220
  525MOL0     H72385   3.276   0.830   4.141  0.8165  2.1040  1.7158
  525MOL0     H72386   3.271   0.874   3.974  1.9891 -3.8680  0.4062
  525MOL0     H72387   3.442   1.052   4.014 -2.3721  1.8943  1.0721
  525MOL0     H72388   3.424   1.031   4.189  0.4405  2.2177 -0.9549
  525MOL0     H72389   3.533   0.827   4.187 -1.5457  0.9217  0.2255
  525MOL0     H72390   3.505   0.796   4.007 -1.2036  1.0573 -1.0692
  525MOL0     H72391   3.681   1.028   4.112  0.9205 -0.5594  0.0552
  525MOL0     H72392   3.672   0.968   3.954  4.2250  0.6311 -0.0866
  525MOL0     H72393   3.779   0.808   4.194  0.8734  2.3645  0.9368
  525MOL0     H72394   3.763   0.742   4.038 -1.3009 -2.0654  1.2342
  525MOL0     H72395   3.922   1.006   4.088 -0.3571  1.4094 -4.6577
  525MOL0     H72396   3.925   0.912   3.946  0.8789  2.0723  0.4533
  525MOL0     H72397   4.023   0.849   4.212 -1.6683  0.1992 -0.4287
  525MOL0     H72398   4.000   0.714   4.101  0.8506  0.0278 -0.1966
  525MOL0     H72399   4.167   1.069   4.053 -0.0112 -0.2311 -2.4067
  525MOL0     H72400   4.364   1.150   3.957 -0.6507 -0.3478 -0.9415
  525MOL0     H72401   4.462   1.051   3.852  0.3891  0.8059 -0.3640
  525MOL0     H72402   4.480   1.117   4.146  2.5438  1.1020  1.3013
  525MOL0     H72403   4.548   0.958   4.106  0.7215 -0.5200 -0.5355
  525MOL0     H72404   4.690   1.063   3.922 -0.4433 -0.0817 -0.0013
  525MOL0     H72405   4.634   1.225   3.983  2.7216  0.3183 -0.9463
  525MOL0     H72406   4.821   1.204   4.102  0.7370 -1.1446 -1.4051
  525MOL0     H72407   4.692   1.151   4.214  0.0877 -1.2847  0.6913
  525MOL0     H72408   4.950   1.135   3.942 -0.4147  1.3408 -0.0015
  525MOL0     H72409   5.252   1.021   3.761  0.0866  0.4139  1.1566
  525MOL0     H72410   5.215   1.183   3.827  0.9350  0.1620  0.5981
  525MOL0     H72411   5.095   1.098   3.740 -1.7633  3.7233  2.6295
  525MOL0     H72412   5.621   0.860   3.860 -2.3337  1.2059  0.6768
  525MOL0     H72413   5.860   0.807   3.912  0.6791 -1.8159  0.1070
  525MOL0     H72414   6.031   0.647   3.961  1.8729 -0.2602 -0.2723
  525MOL0     H72415   6.073   0.818   3.996  0.0172  0.3737  0.1562
  525MOL0     H72416   6.190   0.725   4.210 -0.3931 -3.5753  2.0793
  525MOL0     H72417   6.139   0.568   4.146 -1.3545  0.4859  1.6198
  525MOL0     H72418   6.333   0.785   4.037  2.7651  0.3776  0.6937
  525MOL0     H72419   6.300   0.649   3.939 -0.0794 -1.6652  0.6236
  525MOL0     H72420   6.399   0.492   4.100 -0.0590  0.2256 -1.1426
  525MOL0     H72421   6.422   0.625   4.214 -0.4742 -1.0290  0.3766
  525MOL0     H72422   6.629   0.559   4.092  2.1124  3.1997  1.1504
  525MOL0     H72423   6.563   0.617   3.937 -0.7173 -0.2131 -0.5893
  525MOL0     H72424   6.529   0.851   4.057  1.7631  3.7408  2.0504
  525MOL0     H72425   6.697   0.797   4.011 -2.6327  2.2712 -2.6426
  525MOL0     H72426   6.726   0.700   4.235  0.9474  0.1734  1.6423
  525MOL0     H72427   6.579   0.788   4.283 -0.3059 -0.2340  0.4532
  525MOL0     H72428   6.867   0.874   4.225  0.7968  0.6630  0.3611
  525MOL0     H72429   6.746   0.931   4.347 -1.3800 -0.8724  0.3299
  525MOL0     H72430   5.762   0.680   4.298  1.0315  1.0504 -0.2362
  525MOL0     H72431   5.515   0.713   4.252 -0.4764 -1.1822 -0.7056
  525MOL0     H72432   5.211   0.805   4.190  1.0029 -0.5308 -1.6733
  525MOL0     H72433   4.992   0.841   4.259 -0.4753  1.6803 -0.4964
  525MOL0     H72434   3.118   1.124   4.470 -1.8165  1.0254  2.7942
  525MOL0     H72435   2.920   1.131   4.615  0.5668 -1.7419  0.5567
  525MOL0     H72436   2.432   0.971   4.604  3.3809  1.0060  0.1192
  525MOL0     H72437   2.248   0.992   4.766 -1.4718  1.2634  1.0151
  525MOL0     H72438   2.106   1.116   5.092 -1.6017 -1.3147  0.0199
  525MOL0     H72439   2.175   0.998   4.975  1.1801  0.5152  0.8777
  525MOL0     H72440   2.396   1.033   5.026 -1.2526 -1.1798  0.1480
  525MOL0     H72441   2.324   0.976   5.163  1.6684 -0.9393 -1.9130
  525MOL0     H72442   2.376   1.274   5.142  3.0862 -2.0261 -3.3301
  525MOL0     H72443   2.298   1.185   5.276  1.6247  1.5552  2.1222
  525MOL0     H72444   2.527   1.059   5.284  0.2604  0.9817  0.9591
  525MOL0     H72445   2.525   1.231   5.317 -3.8814  0.1230  0.3667
  525MOL0     H72446   2.738   1.262   4.966 -0.5603  0.5840  0.4954
  525MOL0     H72447   2.390   1.378   4.894 -0.2685 -1.6393  2.0699
  525MOL0     H72448   2.696   1.353   4.693  0.9138  1.2719  0.9373
  525MOL0     H72449   2.551   1.470   4.681 -2.0838 -0.6763  1.3918
  525MOL0     H72450   2.622   1.411   4.834  4.1196  1.2173 -0.0074
  526MOL0     O72451   1.028   5.165  11.421 -0.2911  0.3175  0.3010
  526MOL0     C72452   1.078   5.060  11.385  0.0437 -0.5435 -0.4953
  526MOL0     O72453   1.177   4.993  11.451  0.1860 -0.3404 -0.7531
  526MOL0     C72454   1.296   5.053  11.495 -0.4828  0.2406 -0.5941
  526MOL0     C72455   1.412   4.983  11.484 -0.4921 -0.0298  0.1283
  526MOL0     C72456   1.529   5.033  11.522 -1.0031 -0.2321  0.0209
  526MOL0     C72457   1.535   5.166  11.575  0.0945  0.7909  0.0991
  526MOL0     O72458   1.654   5.218  11.612  0.4669 -0.1723  0.1609
  526MOL0     C72459   1.767   5.132  11.646  0.8559  0.2355 -0.1510
  526MOL0     C72460   1.843   5.112  11.511 -0.7920  0.2176  0.2200
  526MOL0     C72461   1.971   5.032  11.537  0.5643 -0.1745  0.2239
  526MOL0     C72462   2.039   4.994  11.406 -0.4065 -0.1232 -0.0689
  526MOL0     C72463   2.188   4.951  11.417 -0.4866  0.3964 -0.5101
  526MOL0     C72464   2.248   4.927  11.280  0.2516  0.0609  0.2499
  526MOL0     C72465   2.375   4.850  11.268 -0.0016 -0.2182 -1.0151
  526MOL0     C72466   2.351   4.699  11.290 -0.2111  0.2295 -0.5888
  526MOL0     N72467   2.361   4.652  11.423 -0.5936 -0.4643 -0.5008
  526MOL0     C72468   2.479   4.621  11.488  0.0940  0.0868 -0.3621
  526MOL0     C72469   2.446   4.551  11.603 -0.3730 -1.3754  0.0899
  526MOL0     C72470   2.542   4.493  11.705 -0.4634  0.4819 -0.5772
  526MOL0     C72471   2.560   4.587  11.823  0.2484 -0.0036  0.7553
  526MOL0     C72472   2.630   4.718  11.777 -0.1618  0.1993 -0.2020
  526MOL0     C72473   2.663   4.797  11.911 -1.0146 -0.3740  0.4643
  526MOL0     O72474   2.727   4.919  11.869  0.2367  0.7736  0.2925
  526MOL0     C72475   2.837   4.962  11.936  0.1354  0.2541  0.1097
  526MOL0     C72476   2.850   4.944  12.074 -0.3279 -0.1016  0.6283
  526MOL0     C72477   2.962   4.982  12.148  0.0107  0.8271 -0.8428
  526MOL0     C72478   2.957   4.980  12.297  0.7238 -0.1462 -1.1143
  526MOL0     C72479   3.075   5.029  12.078 -0.0327 -0.4129 -0.0414
  526MOL0     C72480   3.212   5.050  12.137 -0.3683 -0.4300 -0.1452
  526MOL0     O72481   3.302   5.117  12.064 -0.2456  0.3160  0.5297
  526MOL0     C72482   3.422   5.151  12.121  0.6857 -0.2986 -0.6605
  526MOL0     C72483   3.441   5.232  12.239  0.2086  0.2310 -0.1613
  526MOL0     C72484   3.571   5.252  12.292 -0.3045 -0.2364 -0.3428
  526MOL0     C72485   3.678   5.184  12.242 -0.4115  0.3010  0.2663
  526MOL0     O72486   3.805   5.177  12.298 -0.1224  0.2127  0.2636
  526MOL0     C72487   3.903   5.077  12.271  0.0123  0.3107 -0.2051
  526MOL0     C72488   4.022   5.124  12.351 -0.4058 -0.3415 -0.3911
  526MOL0     C72489   4.077   5.254  12.296  1.2677 -0.7876  0.5057
  526MOL0     C72490   4.191   5.277  12.394  0.8096  0.0103 -0.8709
  526MOL0     C72491   4.280   5.405  12.377 -0.7131  0.0197  0.1192
  526MOL0     C72492   4.369   5.404  12.244  1.0771  0.9068 -0.2132
  526MOL0     C72493   4.435   5.547  12.240  1.0574  0.1553 -0.2349
  526MOL0     C72494   4.530   5.570  12.124  0.2165  0.3008  0.5741
  526MOL0    Cl72495   4.435   5.581  11.981  0.2264 -0.1797 -0.4906
  526MOL0     C72496   3.660   5.098  12.132  0.0006  0.0471 -1.0998
  526MOL0     C72497   3.533   5.084  12.070 -0.6266 -0.1017 -0.4311
  526MOL0     O72498   3.244   4.994  12.243  0.0582  1.0401 -0.8631
  526MOL0     C72499   3.057   5.063  11.945  0.3848 -0.5085 -0.1792
  526MOL0     C72500   2.938   5.033  11.874 -0.1428 -0.0354  0.2569
  526MOL0     N72501   2.312   4.537  11.601 -0.3994 -0.0900 -0.3542
  526MOL0     N72502   2.261   4.594  11.497 -0.8015  0.0402  0.0054
  526MOL0     C72503   1.422   5.239  11.587 -0.1887 -0.7215  0.5086
  526MOL0     C72504   1.301   5.190  11.539 -0.1103 -0.6093 -0.0324
  526MOL0     C72505   1.041   5.002  11.251 -1.0001 -0.5386 -0.4022
  526MOL0     C72506   1.146   4.973  11.158  0.1372 -0.7929 -0.4264
  526MOL0     C72507   1.128   4.927  11.033  0.1654  0.9471  0.2360
  526MOL0     C72508   1.006   4.910  10.975  0.5595  0.6207 -0.6954
  526MOL0     O72509   0.991   4.836  10.862  1.2268 -0.3871  0.3895
  526MOL0     C72510   0.891   4.885  10.767  0.0632 -0.9052  0.0894
  526MOL0     C72511   0.923   4.813  10.641  0.4317 -0.0685  0.5028
  526MOL0     C72512   0.816   4.829  10.533  0.6615 -0.2826  0.1457
  526MOL0     C72513   0.691   4.750  10.568  0.4724 -0.3019 -0.1849
  526MOL0     C72514   0.600   4.765  10.454 -0.0827  0.1025 -0.6009
  526MOL0     C72515   0.554   4.767  10.341 -0.0021 -0.6726 -1.1019
  526MOL0     C72516   0.903   4.924  11.065  0.7636 -0.1905 -0.4156
  526MOL0     C72517   0.914   4.983  11.196 -0.7432  0.1752 -0.4708
  526MOL0     C72518   0.804   4.991  11.286 -0.1122 -0.2879  0.1525
  526MOL0     H72519   1.411   4.881  11.447 -2.5761 -0.0758  0.1993
  526MOL0     H72520   1.609   4.965  11.496 -0.7386 -0.4627  1.3540
  526MOL0     H72521   1.739   5.030  11.677  0.5733  0.5966  0.8109
  526MOL0     H72522   1.829   5.167  11.728 -0.4825 -1.2485  1.5898
  526MOL0     H72523   1.787   5.048  11.443  0.1703 -0.9751  0.5034
  526MOL0     H72524   1.866   5.206  11.460  0.1587 -0.8816 -1.4460
  526MOL0     H72525   2.038   5.099  11.593  2.6724 -0.3082 -1.9872
  526MOL0     H72526   1.939   4.947  11.598 -3.7312  2.9187  2.8373
  526MOL0     H72527   1.994   4.908  11.355  2.9419 -3.3804  1.9343
  526MOL0     H72528   2.040   5.085  11.346  2.1884  0.2709  0.4373
  526MOL0     H72529   2.186   4.857  11.473  0.6126  0.8129  0.2505
  526MOL0     H72530   2.241   5.027  11.474 -1.7951  0.6400  0.4354
  526MOL0     H72531   2.175   4.879  11.213 -2.0643 -0.9526  3.2416
  526MOL0     H72532   2.273   5.027  11.245  2.0125 -0.4767 -0.1172
  526MOL0     H72533   2.451   4.897  11.331 -0.8686  0.5195 -0.4912
  526MOL0     H72534   2.406   4.864  11.164  0.7726 -1.8465 -1.0190
  526MOL0     H72535   2.256   4.666  11.246 -2.2309  1.8254  2.2634
  526MOL0     H72536   2.431   4.646  11.236  1.4452  3.2478 -1.3122
  526MOL0     H72537   2.577   4.648  11.452  0.6291 -2.2797 -0.8758
  526MOL0     H72538   2.641   4.474  11.661 -0.5901  0.5343 -0.8856
  526MOL0     H72539   2.500   4.400  11.744  0.3555  0.6058  0.6508
  526MOL0     H72540   2.458   4.599  11.863 -0.8800  1.1622 -2.1748
  526MOL0     H72541   2.624   4.544  11.900  2.3380 -0.3036 -1.0421
  526MOL0     H72542   2.724   4.701  11.724  1.0820  1.7121  1.3861
  526MOL0     H72543   2.561   4.779  11.717  0.2564  1.4967  0.6070
  526MOL0     H72544   2.575   4.828  11.967 -1.1497 -0.3601  0.2471
  526MOL0     H72545   2.722   4.731  11.975  0.8291  0.1946 -0.5353
  526MOL0     H72546   2.761   4.915  12.129 -0.4824  1.8042  1.4536
  526MOL0     H72547   3.011   4.908  12.358 -1.6460  0.6659  2.1948
  526MOL0     H72548   2.854   4.978  12.333  1.4255 -2.7359  0.9931
  526MOL0     H72549   3.003   5.072  12.334 -1.4459 -0.8122  3.9911
  526MOL0     H72550   3.350   5.277  12.277 -0.1137  0.5290 -1.2685
  526MOL0     H72551   3.596   5.303  12.385 -2.8729 -1.9558  1.4296
  526MOL0     H72552   3.863   4.979  12.300  1.9729  0.0073  1.7719
  526MOL0     H72553   3.932   5.077  12.166  0.0235  1.1080 -0.2061
  526MOL0     H72554   3.998   5.141  12.456  0.1036 -1.3267 -0.1097
  526MOL0     H72555   4.102   5.050  12.345 -1.2497 -1.2300 -0.8686
  526MOL0     H72556   4.017   5.343  12.278  2.6164 -0.5641 -4.8233
  526MOL0     H72557   4.118   5.233  12.197 -2.2861 -0.1525 -1.2770
  526MOL0     H72558   4.252   5.187  12.380 -2.1600 -2.1623 -0.7348
  526MOL0     H72559   4.165   5.279  12.500 -0.7462  0.0673 -1.2310
  526MOL0     H72560   4.216   5.493  12.366 -1.2005 -0.1200  1.5786
  526MOL0     H72561   4.336   5.422  12.469 -0.6107  0.6486 -0.0534
  526MOL0     H72562   4.318   5.380  12.151  1.3671 -2.1656  0.3362
  526MOL0     H72563   4.445   5.328  12.259 -1.8492 -1.9689  1.3010
  526MOL0     H72564   4.496   5.575  12.327  0.7855  0.3524 -0.1055
  526MOL0     H72565   4.358   5.624  12.225  0.2989  0.2193  3.1931
  526MOL0     H72566   4.601   5.487  12.118 -0.7675 -0.6761  1.8394
  526MOL0     H72567   4.588   5.657  12.156  0.3136 -0.3354  2.2692
  526MOL0     H72568   3.738   5.031  12.097  1.2466  2.1505 -2.5597
  526MOL0     H72569   3.526   5.020  11.983  1.4067  0.6325 -1.1809
  526MOL0     H72570   3.127   5.126  11.889 -1.7287  1.5974 -0.6259
  526MOL0     H72571   2.927   5.067  11.771 -1.2715 -2.2647 -0.4375
  526MOL0     H72572   1.427   5.338  11.632 -0.4818 -1.5811  2.5259
  526MOL0     H72573   1.206   5.239  11.561 -0.4458 -0.3209 -1.9241
  526MOL0     H72574   1.249   4.991  11.187 -0.5671 -0.0776  1.9240
  526MOL0     H72575   1.217   4.898  10.979  1.4861  2.3672  1.5476
  526MOL0     H72576   0.791   4.859  10.803 -0.4755  3.3699  2.2660
  526MOL0     H72577   0.894   4.992  10.746 -1.8944 -0.9038 -0.3163
  526MOL0     H72578   0.960   4.710  10.653 -0.4986 -0.5532 -0.5538
  526MOL0     H72579   1.016   4.857  10.605  0.6207 -1.4937 -0.9181
  526MOL0     H72580   0.801   4.937  10.524  0.8254 -0.2945 -0.2808
  526MOL0     H72581   0.862   4.793  10.441 -0.3251 -3.8209  0.8986
  526MOL0     H72582   0.638   4.792  10.654 -1.0565 -2.2931 -0.0774
  526MOL0     H72583   0.718   4.645  10.586 -1.1220 -0.7113 -0.0126
  526MOL0     H72584   0.497   4.763  10.249 -3.3302 -5.0339  0.7589
  526MOL0     H72585   0.813   4.878  11.025  0.6130 -1.2015  0.9733
  526MOL0     H72586   0.785   5.087  11.334  1.9442  0.6683 -0.8068
  526MOL0     H72587   0.714   4.988  11.225  0.5873  1.6700 -1.0613
  526MOL0     H72588   0.801   4.913  11.363 -0.6607 -1.1834 -0.7722
  527MOL0     O72589  10.052   4.735  11.389  0.4059 -0.4651  0.6132
  527MOL0     C72590  10.071   4.864  11.388  0.1091  0.5043  0.3451
  527MOL0     O72591  10.191   4.927  11.399 -0.3859  0.2653  0.5662
  527MOL0     C72592  10.309   4.856  11.363  0.2043  0.0329 -0.2926
  527MOL0     C72593  10.400   4.941  11.295 -0.2152  0.5434  0.4487
  527MOL0     C72594  10.517   4.880  11.243 -0.0043 -0.3578  0.9861
  527MOL0     C72595  10.552   4.745  11.255  0.3623 -0.6666  0.3070
  527MOL0     O72596  10.667   4.697  11.209  0.1002  0.6312  0.2884
  527MOL0     C72597  10.735   4.758  11.099 -0.4081  0.5406  1.4916
  527MOL0     C72598  10.860   4.676  11.071 -0.9407  0.1410  0.5328
  527MOL0     C72599  10.827   4.531  11.037 -0.0327  0.6769  0.2534
  527MOL0     C72600  10.950   4.430  11.010 -0.0770 -0.2538  0.4643
  527MOL0     C72601  10.908   4.289  10.971  0.1999 -0.2806  0.0475
  527MOL0     C72602  11.025   4.197  10.941  0.4853  0.1575 -0.0234
  527MOL0     C72603  11.122   4.251  10.848  0.7666 -0.4832  0.4914
  527MOL0     C72604  11.213   4.140  10.805  0.5478  0.3949 -0.2818
  527MOL0     N72605  11.343   4.188  10.768 -0.6778 -0.1680  1.5716
  527MOL0     C72606  11.413   4.194  10.642 -0.3382  1.2312 -0.4982
  527MOL0     C72607  11.544   4.233  10.673  0.0883  0.3173  0.0764
  527MOL0     C72608  11.656   4.245  10.570  0.1636  0.0614 -0.5034
  527MOL0     C72609  11.755   4.142  10.617  0.8334 -0.0093  0.0820
  527MOL0     C72610  11.879   4.123  10.527  0.4064  1.0943 -0.4907
  527MOL0     C72611  11.945   4.253  10.470  0.1258 -0.3292 -0.4535
  527MOL0     O72612  12.052   4.215  10.381 -0.9186  0.1078 -0.0325
  527MOL0     C72613  12.167   4.294  10.375 -0.3978  0.4067  0.5217
  527MOL0     C72614  12.271   4.230  10.297 -0.1312  0.5488 -0.1948
  527MOL0     C72615  12.391   4.296  10.270 -0.9093 -1.0504  0.0313
  527MOL0     C72616  12.493   4.225  10.192 -0.3150  0.2071 -0.3012
  527MOL0     C72617  12.408   4.427  10.327 -0.7715  0.9250  1.3499
  527MOL0     C72618  12.541   4.500  10.319 -0.3260 -0.0909  0.0212
  527MOL0     O72619  12.640   4.445  10.240  0.8925  0.4514 -0.0360
  527MOL0     C72620  12.745   4.528  10.234  0.4977  0.3162 -0.7007
  527MOL0     C72621  12.840   4.519  10.335 -0.0742 -0.2814 -0.4055
  527MOL0     C72622  12.949   4.609  10.330  0.5574 -0.3566 -0.7159
  527MOL0     C72623  12.967   4.703  10.227 -0.7019 -0.5478  0.7677
  527MOL0     O72624  13.096   4.763  10.219 -0.8385  0.0365  0.2898
  527MOL0     C72625  13.094   4.899  10.260  0.5212  0.8437 -0.5652
  527MOL0     C72626  13.231   4.919  10.316  0.1964  0.4878 -0.3954
  527MOL0     C72627  13.247   5.018  10.435 -0.4151  0.2118  0.3552
  527MOL0     C72628  13.393   5.019  10.472 -0.8366 -0.3054  0.0818
  527MOL0     C72629  13.489   5.078  10.368  0.2974 -0.3866  0.2657
  527MOL0     C72630  13.632   5.083  10.433  0.0929 -0.2694  0.0881
  527MOL0     C72631  13.664   5.231  10.491 -0.1155 -0.0523 -0.1091
  527MOL0     C72632  13.807   5.242  10.538 -0.3176  0.0270 -0.0866
  527MOL0    Cl72633  13.843   5.138  10.679 -0.2696  0.2222 -0.1933
  527MOL0     C72634  12.873   4.703  10.130  0.1224  0.2840 -0.0606
  527MOL0     C72635  12.753   4.633  10.135 -0.5419 -0.8589 -0.6831
  527MOL0     O72636  12.547   4.605  10.384 -0.0116 -0.0887  0.2842
  527MOL0     C72637  12.297   4.494  10.383  0.3941  0.0244 -0.0802
  527MOL0     C72638  12.177   4.430  10.404 -0.2620  0.2907 -0.6408
  527MOL0     N72639  11.550   4.246  10.809 -0.0404  0.4839  0.7394
  527MOL0     N72640  11.430   4.224  10.862  0.2148 -0.1360  0.5584
  527MOL0     C72641  10.463   4.666  11.337  0.1734 -0.0991 -0.7440
  527MOL0     C72642  10.344   4.725  11.389  0.4209 -0.9582 -0.4510
  527MOL0     C72643   9.951   4.951  11.380  0.6068 -0.4181 -0.8739
  527MOL0     C72644   9.972   5.090  11.349 -0.8257 -0.2534  0.8285
  527MOL0     C72645   9.868   5.180  11.331  0.7473  0.1113  0.3705
  527MOL0     C72646   9.732   5.137  11.323 -0.0762  1.2261 -0.5670
  527MOL0     O72647   9.629   5.226  11.306 -0.1427  0.2962 -0.0701
  527MOL0     C72648   9.491   5.185  11.304  0.6078  0.2279  0.3266
  527MOL0     C72649   9.397   5.292  11.247  0.7499 -0.0271 -0.0909
  527MOL0     C72650   9.247   5.257  11.266 -0.7338 -0.1475  0.6037
  527MOL0     C72651   9.148   5.353  11.208  0.3946 -0.2794  0.7663
  527MOL0     C72652   9.017   5.300  11.230  0.5005  0.5345 -0.1710
  527MOL0     C72653   8.908   5.253  11.269 -0.2219  0.4145  0.1903
  527MOL0     C72654   9.710   5.003  11.353 -0.1265  0.0915 -0.1990
  527MOL0     C72655   9.812   4.919  11.398  0.2694 -0.1983  0.0788
  527MOL0     C72656   9.763   4.788  11.444 -0.0554 -0.2601  0.4789
  527MOL0     H72657  10.372   5.044  11.275 -0.6777  0.0145 -1.9502
  527MOL0     H72658  10.579   4.946  11.184  0.1191 -1.9121 -0.7020
  527MOL0     H72659  10.764   4.862  11.119  1.6159  0.6643 -1.4775
  527MOL0     H72660  10.669   4.746  11.013 -0.8584 -1.1279  2.0325
  527MOL0     H72661  10.910   4.721  10.985 -0.1028 -4.2548 -1.6001
  527MOL0     H72662  10.929   4.683  11.156 -0.8546 -1.9389  0.7017
  527MOL0     H72663  10.771   4.489  11.120 -0.4399  0.3105 -0.1986
  527MOL0     H72664  10.765   4.527  10.946 -3.9455  1.9037  2.6291
  527MOL0     H72665  11.011   4.477  10.933 -0.1175 -0.2654  0.4260
  527MOL0     H72666  11.013   4.429  11.100  0.6350  2.8496  0.0995
  527MOL0     H72667  10.838   4.291  10.887 -1.8077 -0.6377  1.6005
  527MOL0     H72668  10.845   4.255  11.055  0.3282  2.6930  1.4632
  527MOL0     H72669  11.074   4.146  11.026 -0.7816  0.8056  1.1335
  527MOL0     H72670  10.975   4.113  10.891  0.0417 -1.0103  2.2396
  527MOL0     H72671  11.175   4.338  10.887  1.5466  0.4060 -2.3118
  527MOL0     H72672  11.061   4.276  10.761  0.4065  2.1687  1.4251
  527MOL0     H72673  11.226   4.075  10.893 -0.5747 -0.7836 -0.9489
  527MOL0     H72674  11.172   4.080  10.723 -1.9973  1.6573 -0.0293
  527MOL0     H72675  11.367   4.170  10.547 -2.2289  0.5297  0.5610
  527MOL0     H72676  11.700   4.345  10.580 -2.1508  0.9664  1.7091
  527MOL0     H72677  11.633   4.226  10.465 -1.4521 -0.0672 -0.1465
  527MOL0     H72678  11.804   4.177  10.708  1.3801  3.2078 -1.3238
  527MOL0     H72679  11.705   4.046  10.629  0.9853 -0.2951 -1.3502
  527MOL0     H72680  11.950   4.065  10.586  0.9264  3.1087  0.9992
  527MOL0     H72681  11.858   4.054  10.445  2.2571  0.3891 -0.4202
  527MOL0     H72682  11.871   4.319  10.422 -1.0873  1.3033  3.2774
  527MOL0     H72683  11.982   4.309  10.557  0.0360 -1.3952  0.2840
  527MOL0     H72684  12.252   4.132  10.254  0.0413 -0.0865  1.1516
  527MOL0     H72685  12.503   4.282  10.100  0.9791 -0.5045 -0.6134
  527MOL0     H72686  12.471   4.121  10.164  1.8801  0.1020 -1.8739
  527MOL0     H72687  12.590   4.224  10.242 -0.4128 -1.6582 -0.0611
  527MOL0     H72688  12.823   4.443  10.410 -0.1514  0.6861  0.5850
  527MOL0     H72689  13.013   4.599  10.417  1.1039 -1.4817 -1.2277
  527MOL0     H72690  13.065   4.965  10.178 -1.2347  2.1752  1.0363
  527MOL0     H72691  13.029   4.914  10.346  3.5781 -0.1192  2.1112
  527MOL0     H72692  13.254   4.824  10.366  0.4571 -0.1268 -1.6573
  527MOL0     H72693  13.293   4.930  10.228  0.8174  0.3436  0.0163
  527MOL0     H72694  13.205   4.979  10.528 -0.5133 -2.6358 -0.7728
  527MOL0     H72695  13.207   5.114  10.401 -0.2593 -0.7766 -2.9469
  527MOL0     H72696  13.430   4.916  10.483  3.0320  1.0153  0.9788
  527MOL0     H72697  13.399   5.067  10.570 -0.0755  1.3598 -0.7314
  527MOL0     H72698  13.484   5.040  10.266  1.0489  0.5039 -0.1174
  527MOL0     H72699  13.441   5.176  10.361  0.6797 -0.2950 -1.5385
  527MOL0     H72700  13.704   5.060  10.354  0.2966  2.4165 -0.6361
  527MOL0     H72701  13.638   5.004  10.508  0.2239 -1.1956 -0.8768
  527MOL0     H72702  13.606   5.257  10.580 -0.2735  2.5706 -0.8863
  527MOL0     H72703  13.645   5.309  10.416 -1.7798  0.1423  0.4746
  527MOL0     H72704  13.821   5.343  10.578  0.2046  0.2404 -0.7837
  527MOL0     H72705  13.876   5.218  10.457 -0.6754 -0.7031 -0.1842
  527MOL0     H72706  12.883   4.778  10.052 -1.9531 -0.3089 -0.9542
  527MOL0     H72707  12.667   4.641  10.069  0.0377  0.8143 -1.2784
  527MOL0     H72708  12.311   4.595  10.418  0.0540 -0.4918  1.6322
  527MOL0     H72709  12.088   4.474  10.447 -0.6555  0.8958 -2.0072
  527MOL0     H72710  10.484   4.561  11.357  1.0556 -0.0893 -1.5123
  527MOL0     H72711  10.278   4.654  11.439  0.4919 -1.0525 -0.4908
  527MOL0     H72712  10.074   5.120  11.326 -1.1082  0.2621  0.1887
  527MOL0     H72713   9.875   5.287  11.317 -1.4977  0.3290  0.5804
  527MOL0     H72714   9.484   5.101  11.234  2.0575  0.8435 -0.5953
  527MOL0     H72715   9.464   5.153  11.405  1.6262 -1.0565  0.2304
  527MOL0     H72716   9.415   5.318  11.142 -0.9752 -0.6790 -0.5733
  527MOL0     H72717   9.413   5.380  11.310  1.9664  0.3445 -0.8791
  527MOL0     H72718   9.230   5.160  11.219 -2.9372  1.3931 -2.0608
  527MOL0     H72719   9.232   5.243  11.374 -2.8444 -0.5496  0.3086
  527MOL0     H72720   9.156   5.363  11.099 -0.7000 -2.0480  0.4686
  527MOL0     H72721   9.145   5.449  11.259 -0.5493  1.4009 -2.1753
  527MOL0     H72722   8.817   5.219  11.314  0.0400  1.3491  1.4839
  527MOL0     H72723   9.614   4.954  11.349  1.2793 -2.9150  0.4121
  527MOL0     H72724   9.747   4.733  11.351  0.1178 -0.1776  0.3982
  527MOL0     H72725   9.834   4.733  11.507  0.1290 -1.1801 -0.4988
  527MOL0     H72726   9.676   4.792  11.509 -1.5193  0.5525 -1.4300
  528MOL0     O72727   9.152   9.514   8.220 -0.6446  0.9336  0.2497
  528MOL0     C72728   9.213   9.475   8.321  0.1078  0.0116  0.3221
  528MOL0     O72729   9.175   9.499   8.446 -0.2193 -0.7136 -0.8015
  528MOL0     C72730   9.047   9.523   8.485  0.2343 -0.3183 -0.0640
  528MOL0     C72731   9.040   9.567   8.620 -0.1025  0.5807 -0.0882
  528MOL0     C72732   8.918   9.608   8.676 -0.0389 -0.0132 -0.0941
  528MOL0     C72733   8.800   9.604   8.608  0.3086 -0.1084 -0.0079
  528MOL0     O72734   8.679   9.642   8.657  0.3432  0.0976 -0.3669
  528MOL0     C72735   8.647   9.784   8.654  0.3903  0.2545  0.8300
  528MOL0     C72736   8.513   9.822   8.719 -0.6545  0.1218  0.4701
  528MOL0     C72737   8.499   9.797   8.868 -0.8532 -0.2380 -0.4795
  528MOL0     C72738   8.575   9.907   8.950 -0.5377 -0.2273  0.6350
  528MOL0     C72739   8.576   9.870   9.095  0.7800  1.3340 -0.1512
  528MOL0     C72740   8.658   9.963   9.179 -0.5180  0.0027 -0.1644
  528MOL0     C72741   8.661   9.897   9.317 -0.5284  1.0127  0.2892
  528MOL0     C72742   8.781   9.955   9.402 -0.7417  0.3213 -0.0274
  528MOL0     N72743   8.905   9.886   9.364 -0.3303  0.3949 -0.4930
  528MOL0     C72744   9.000   9.924   9.278 -0.4110 -0.9200 -0.1545
  528MOL0     C72745   9.091   9.824   9.277 -0.2647 -0.0040  0.4082
  528MOL0     C72746   9.225   9.811   9.213  0.0206  0.2911 -0.5521
  528MOL0     C72747   9.331   9.806   9.315  0.0889  0.3147  0.5043
  528MOL0     C72748   9.359   9.938   9.391 -0.2853 -0.6747  0.3436
  528MOL0     C72749   9.474  10.011   9.318 -0.1139 -0.5163 -0.1306
  528MOL0     O72750   9.521  10.120   9.398 -0.5786  0.9091  0.0345
  528MOL0     C72751   9.448  10.241   9.397  1.2328 -0.2590 -0.3838
  528MOL0     C72752   9.409  10.306   9.284  0.7077 -0.3190 -0.3068
  528MOL0     C72753   9.337  10.433   9.287 -0.7407  0.5332 -0.7938
  528MOL0     C72754   9.306  10.484   9.149  0.9185 -0.1703  0.1709
  528MOL0     C72755   9.316  10.497   9.412  0.1378  0.1536  0.4549
  528MOL0     C72756   9.255  10.627   9.431 -0.1178 -0.2827  0.8282
  528MOL0     O72757   9.273  10.686   9.557  0.5836 -0.6769 -0.2239
  528MOL0     C72758   9.214  10.810   9.585 -0.4221  0.0446 -1.4345
  528MOL0     C72759   9.112  10.813   9.678 -0.4709  0.4858  0.2136
  528MOL0     C72760   9.053  10.935   9.715  0.2197  0.1882 -0.2316
  528MOL0     C72761   9.095  11.055   9.652 -0.5535 -0.6017 -0.2213
  528MOL0     O72762   9.045  11.173   9.696 -0.0222 -0.0752  0.1351
  528MOL0     C72763   8.991  11.276   9.603  0.0027  1.0976 -0.6643
  528MOL0     C72764   8.856  11.340   9.646  0.5334 -0.5299  0.3091
  528MOL0     C72765   8.819  11.330   9.796 -0.4586  0.0500 -0.2658
  528MOL0     C72766   8.721  11.214   9.820  0.0814  0.4994 -0.0784
  528MOL0     C72767   8.696  11.221   9.972  1.1427 -0.1121  0.7773
  528MOL0     C72768   8.577  11.137  10.009 -0.1395  0.1113  0.2841
  528MOL0     C72769   8.619  10.995  10.065  0.6714 -0.2127  0.1083
  528MOL0     C72770   8.492  10.923  10.094  0.8115  0.2462  0.3581
  528MOL0    Cl72771   8.537  10.777  10.187  0.0052  0.2008 -0.0032
  528MOL0     C72772   9.181  11.051   9.545 -0.3675 -0.1827  0.1714
  528MOL0     C72773   9.247  10.926   9.515 -0.3412 -0.8786 -0.6514
  528MOL0     O72774   9.178  10.670   9.345  0.1937  1.0368  0.2076
  528MOL0     C72775   9.349  10.423   9.525 -0.2697  0.5359 -0.8711
  528MOL0     C72776   9.420  10.299   9.519  0.1720 -0.2716 -0.5327
  528MOL0     N72777   9.045   9.717   9.349  0.1251  0.3640  0.3970
  528MOL0     N72778   8.938   9.759   9.402  0.0733  0.0943 -0.5254
  528MOL0     C72779   8.811   9.544   8.480 -0.0192 -0.9532 -0.5853
  528MOL0     C72780   8.929   9.500   8.410 -0.4038  0.3657 -0.4894
  528MOL0     C72781   9.334   9.400   8.311 -0.2017  0.5143  0.2070
  528MOL0     C72782   9.332   9.304   8.202  0.5710  0.0088 -1.5086
  528MOL0     C72783   9.434   9.213   8.188 -0.3172 -0.4876  0.5657
  528MOL0     C72784   9.542   9.208   8.274  0.2600  0.8284  0.6385
  528MOL0     O72785   9.630   9.105   8.241  0.2099 -0.3670  0.7686
  528MOL0     C72786   9.739   9.096   8.326 -0.3033  0.6104  0.0512
  528MOL0     C72787   9.839   9.208   8.295 -0.1789 -0.5277  0.6631
  528MOL0     C72788   9.965   9.203   8.379 -0.5158 -0.6141 -1.0545
  528MOL0     C72789   9.939   9.208   8.531  0.0109  0.4211 -0.4648
  528MOL0     C72790   9.882   9.340   8.566 -0.4769  0.6610 -0.5746
  528MOL0     C72791   9.843   9.448   8.607  0.6279  0.1512 -0.0462
  528MOL0     C72792   9.543   9.299   8.378  0.1838 -0.1744  0.2547
  528MOL0     C72793   9.443   9.396   8.397  0.5577 -0.1648  0.3371
  528MOL0     C72794   9.462   9.479   8.532  0.5857  0.2429  0.1947
  528MOL0     H72795   9.126   9.586   8.683 -2.5466  3.8687  2.6552
  528MOL0     H72796   8.916   9.641   8.779  0.7609  2.4826 -0.7969
  528MOL0     H72797   8.648   9.822   8.552 -0.5986  0.7403  0.9932
  528MOL0     H72798   8.727   9.827   8.715 -1.4746 -0.3998  3.9720
  528MOL0     H72799   8.490   9.928   8.701  0.3003  0.2005 -0.4321
  528MOL0     H72800   8.435   9.756   8.679 -0.4870 -0.3768  0.9686
  528MOL0     H72801   8.393   9.804   8.892 -0.7259  3.1919 -0.4386
  528MOL0     H72802   8.541   9.701   8.900 -1.0578  0.1254  0.9856
  528MOL0     H72803   8.677   9.922   8.914 -0.6518 -0.6208  0.1402
  528MOL0     H72804   8.533  10.008   8.945  0.9370  0.4312  1.0728
  528MOL0     H72805   8.616   9.769   9.111  0.6889  0.9902 -1.9752
  528MOL0     H72806   8.474   9.868   9.134  0.8288  1.5455 -0.0074
  528MOL0     H72807   8.763   9.965   9.148  0.1738  3.3774  1.8635
  528MOL0     H72808   8.610  10.060   9.191  0.1551  0.0179  3.9302
  528MOL0     H72809   8.669   9.788   9.320 -1.0449  0.7434 -3.5247
  528MOL0     H72810   8.562   9.912   9.361 -0.2259  1.7030  0.7443
  528MOL0     H72811   8.789  10.064   9.392 -1.6111  0.2610 -1.9395
  528MOL0     H72812   8.751   9.940   9.506 -1.2624 -1.8303 -0.4410
  528MOL0     H72813   9.015  10.023   9.237 -1.4540 -0.9140 -0.5319
  528MOL0     H72814   9.242   9.900   9.153 -1.7678  1.6127  0.7879
  528MOL0     H72815   9.237   9.714   9.164  0.4354  1.0638 -2.0155
  528MOL0     H72816   9.315   9.723   9.386  3.3168  0.3023  1.3753
  528MOL0     H72817   9.421   9.781   9.259 -0.8227  0.2569 -0.9885
  528MOL0     H72818   9.270   9.994   9.420  1.2076 -0.8067  6.4705
  528MOL0     H72819   9.387   9.906   9.492 -1.3635  2.7108  1.8677
  528MOL0     H72820   9.544   9.927   9.309  0.1709 -0.0971 -2.2735
  528MOL0     H72821   9.453  10.040   9.214  1.7716 -0.9337 -0.6577
  528MOL0     H72822   9.441  10.262   9.190 -2.3866  0.9025 -2.1017
  528MOL0     H72823   9.239  10.570   9.141  2.0195  0.6024 -1.1585
  528MOL0     H72824   9.257  10.408   9.086  0.8010 -1.2321  1.4875
  528MOL0     H72825   9.392  10.520   9.091 -0.1898 -0.7728 -1.9371
  528MOL0     H72826   9.080  10.722   9.730  2.6115 -1.1219 -0.4518
  528MOL0     H72827   8.985  10.955   9.798  2.2801  1.1418  1.3160
  528MOL0     H72828   9.057  11.362   9.589 -0.2257  1.0568 -2.0798
  528MOL0     H72829   8.974  11.233   9.504  3.1531  1.4093 -1.4388
  528MOL0     H72830   8.857  11.446   9.619 -1.1802 -1.0366 -2.0798
  528MOL0     H72831   8.768  11.298   9.595  1.7905 -4.3303  0.9202
  528MOL0     H72832   8.768  11.421   9.825 -2.7983 -0.7458 -1.6380
  528MOL0     H72833   8.912  11.314   9.851  0.3202  1.6488 -1.0646
  528MOL0     H72834   8.739  11.108   9.799 -1.5589 -0.4418  2.6514
  528MOL0     H72835   8.627  11.237   9.770 -0.1029  1.7374  0.7882
  528MOL0     H72836   8.787  11.197  10.028 -0.1153 -0.7353  2.6271
  528MOL0     H72837   8.675  11.325   9.999 -0.5112  0.5690 -2.6494
  528MOL0     H72838   8.507  11.129   9.925 -0.1724 -0.6861  0.3820
  528MOL0     H72839   8.526  11.187  10.092  2.4463 -0.6850  2.4523
  528MOL0     H72840   8.684  11.003  10.153 -2.4106  0.1465  2.5448
  528MOL0     H72841   8.680  10.951   9.986  2.7265  1.0488  0.9075
  528MOL0     H72842   8.435  10.900  10.003  0.6943  1.2419  0.1648
  528MOL0     H72843   8.429  10.990  10.154  1.3926  1.0263  0.1203
  528MOL0     H72844   9.212  11.144   9.500 -1.8576  0.4397  0.3625
  528MOL0     H72845   9.332  10.915   9.448  2.2458  0.5852  2.0975
  528MOL0     H72846   9.311  10.461   9.619  0.3371 -1.7431  0.3687
  528MOL0     H72847   9.449  10.251   9.612 -0.4780  0.0726 -0.1385
  528MOL0     H72848   8.711   9.523   8.442 -0.7612 -1.4108  1.4689
  528MOL0     H72849   8.926   9.448   8.314  1.4872  0.4533 -0.6328
  528MOL0     H72850   9.247   9.303   8.135 -0.8675 -2.8151  0.2046
  528MOL0     H72851   9.416   9.146   8.105 -4.6164 -0.4905  1.3105
  528MOL0     H72852   9.710   9.099   8.432  2.0076  1.0139  0.7283
  528MOL0     H72853   9.780   8.998   8.301  2.4501  1.0262  2.3984
  528MOL0     H72854   9.800   9.310   8.304  2.2328  0.4103  1.1967
  528MOL0     H72855   9.872   9.200   8.191 -0.6002  1.9022  0.2656
  528MOL0     H72856  10.014   9.108   8.353  0.5893  0.1121 -1.6919
  528MOL0     H72857  10.035   9.279   8.343  0.7459 -1.0689  0.3387
  528MOL0     H72858  10.032   9.198   8.588 -0.3278  0.1419  0.0509
  528MOL0     H72859   9.874   9.127   8.565 -1.9654  1.5355 -1.4277
  528MOL0     H72860   9.808   9.541   8.647 -1.0092  0.7147 -2.5625
  528MOL0     H72861   9.625   9.297   8.450  1.5604  3.2840 -0.9901
  528MOL0     H72862   9.501   9.575   8.496  0.8680 -0.7458 -2.3502
  528MOL0     H72863   9.374   9.488   8.596  1.9166  4.1265  1.7716
  528MOL0     H72864   9.534   9.431   8.599 -0.7114 -1.1113  0.6798
  529MOL0     O72865   6.178   1.692   9.336 -0.2698 -0.3294 -0.0893
  529MOL0     C72866   6.268   1.757   9.284  0.3372  0.6789  0.8948
  529MOL0     O72867   6.385   1.803   9.343  0.0893  0.1906  0.4414
  529MOL0     C72868   6.397   1.812   9.481  0.7864 -0.3847  0.6831
  529MOL0     C72869   6.522   1.799   9.528 -0.3960 -0.6051  0.2771
  529MOL0     C72870   6.559   1.825   9.663  0.7439 -0.5699  0.4909
  529MOL0     C72871   6.451   1.861   9.756 -0.1096  0.6084 -0.1620
  529MOL0     O72872   6.465   1.893   9.889 -0.1822 -0.4583 -0.1593
  529MOL0     C72873   6.584   1.841   9.949 -0.3424  0.1345 -0.1655
  529MOL0     C72874   6.572   1.827  10.105  0.9782 -0.4704  1.5035
  529MOL0     C72875   6.627   1.942  10.180  0.0266 -0.8130  0.3114
  529MOL0     C72876   6.544   2.064  10.172  0.1299 -0.3742  0.9962
  529MOL0     C72877   6.443   2.060  10.294 -0.3577  0.5158  0.1911
  529MOL0     C72878   6.368   2.186  10.322 -0.1339 -0.7433  0.0131
  529MOL0     C72879   6.238   2.146  10.388 -0.6546  0.6604 -0.1948
  529MOL0     C72880   6.149   2.262  10.412 -0.4442  0.9819  0.7870
  529MOL0     N72881   6.020   2.227  10.479 -0.1930  0.7009  0.6966
  529MOL0     C72882   5.941   2.117  10.451  1.2754  0.0325 -0.5856
  529MOL0     C72883   5.812   2.151  10.485  0.3977  0.6209 -0.3820
  529MOL0     C72884   5.679   2.078  10.464 -0.7427 -0.7283  0.3581
  529MOL0     C72885   5.562   2.176  10.450  0.3485 -0.4890 -0.6042
  529MOL0     C72886   5.450   2.106  10.373 -0.6565  0.6857 -0.0290
  529MOL0     C72887   5.323   2.187  10.416  0.2703  0.3884  0.4764
  529MOL0     O72888   5.291   2.198  10.556 -0.6827 -0.4177 -0.5428
  529MOL0     C72889   5.164   2.241  10.588 -0.5099  0.7324 -0.0852
  529MOL0     C72890   5.131   2.247  10.722  0.0483 -0.5779 -0.3243
  529MOL0     C72891   5.006   2.290  10.770 -0.0537  1.1232  0.1147
  529MOL0     C72892   4.993   2.294  10.911  0.8163 -0.6225  0.2546
  529MOL0     C72893   4.899   2.320  10.678 -0.8057 -0.2518 -0.2434
  529MOL0     C72894   4.766   2.362  10.712 -0.1966 -0.4263 -0.5904
  529MOL0     O72895   4.697   2.381  10.605  0.0090 -0.6879  0.1171
  529MOL0     C72896   4.589   2.451  10.619  0.2826 -0.5569 -0.1219
  529MOL0     C72897   4.594   2.574  10.552 -0.2979  0.7605  1.1712
  529MOL0     C72898   4.476   2.655  10.551  0.8529 -0.3015  0.0747
  529MOL0     C72899   4.357   2.613  10.615  0.2652  0.1740 -0.6012
  529MOL0     O72900   4.263   2.707  10.608 -0.3061  0.6897  0.3005
  529MOL0     C72901   4.145   2.699  10.688  0.4296  0.1988  0.0979
  529MOL0     C72902   4.025   2.630  10.619 -0.7474  0.5847  0.8396
  529MOL0     C72903   3.887   2.664  10.678 -0.3488 -0.4305 -0.9313
  529MOL0     C72904   3.777   2.574  10.629 -0.0366 -0.5541 -1.0625
  529MOL0     C72905   3.636   2.599  10.702 -0.6669  0.4087 -0.4148
  529MOL0     C72906   3.523   2.518  10.631  0.5839  0.1539  0.7150
  529MOL0     C72907   3.380   2.568  10.655 -0.7356 -0.2193 -0.6091
  529MOL0     C72908   3.339   2.594  10.804 -0.8910  0.6954  0.1352
  529MOL0    Cl72909   3.181   2.676  10.828  0.7970 -0.2285 -0.6925
  529MOL0     C72910   4.359   2.492  10.689  0.1108 -0.3378  0.0148
  529MOL0     C72911   4.467   2.407  10.678  0.4783  0.2125 -0.1018
  529MOL0     O72912   4.723   2.382  10.829  0.1551  0.0794 -0.0483
  529MOL0     C72913   4.924   2.298  10.537 -0.8141  0.3686  0.1550
  529MOL0     C72914   5.059   2.273  10.496 -0.4022  0.1920 -0.0434
  529MOL0     N72915   5.821   2.279  10.537 -0.1862  0.4757 -0.7342
  529MOL0     N72916   5.943   2.323  10.536  0.0356  0.2304 -0.2475
  529MOL0     C72917   6.321   1.856   9.711  0.2237  0.4672 -0.4174
  529MOL0     C72918   6.291   1.840   9.576  1.0104 -0.3598  0.2631
  529MOL0     C72919   6.260   1.765   9.135  0.7460 -1.3220  0.0305
  529MOL0     C72920   6.381   1.766   9.062  0.3366 -0.9970 -0.7629
  529MOL0     C72921   6.388   1.773   8.927 -0.1182 -0.7326 -0.2116
  529MOL0     C72922   6.270   1.817   8.856  0.2949  0.5796 -0.2479
  529MOL0     O72923   6.259   1.838   8.726 -0.8483  1.0138  0.4888
  529MOL0     C72924   6.379   1.838   8.646 -0.5781  0.1942 -0.3160
  529MOL0     C72925   6.435   1.984   8.670  0.2970  0.3068 -0.0726
  529MOL0     C72926   6.579   1.983   8.613  0.4644 -0.4616 -0.1546
  529MOL0     C72927   6.680   1.913   8.694  0.6973 -0.1033 -0.3289
  529MOL0     C72928   6.814   1.921   8.632 -0.5430  0.0700  0.4630
  529MOL0     C72929   6.911   1.942   8.562 -0.0007 -0.0200 -0.7761
  529MOL0     C72930   6.146   1.819   8.928 -0.8465 -0.6858 -0.4209
  529MOL0     C72931   6.138   1.790   9.061 -0.2625 -0.1064 -0.0790
  529MOL0     C72932   6.007   1.798   9.133 -0.6325  0.5173  0.0797
  529MOL0     H72933   6.606   1.771   9.466 -1.6856 -0.9151 -1.3840
  529MOL0     H72934   6.664   1.825   9.693  0.4147  1.1145  1.8314
  529MOL0     H72935   6.671   1.907   9.934  1.2082 -1.3545  1.7087
  529MOL0     H72936   6.604   1.743   9.905 -2.2222 -0.5539  0.4396
  529MOL0     H72937   6.467   1.805  10.130  0.8280 -1.2431  0.2718
  529MOL0     H72938   6.609   1.728  10.135  1.1988 -0.0291  2.7483
  529MOL0     H72939   6.655   1.913  10.281  0.8257  0.2350  0.4091
  529MOL0     H72940   6.718   1.961  10.124 -1.1385 -0.5231 -1.5793
  529MOL0     H72941   6.609   2.151  10.184  1.0615 -0.6802 -1.3436
  529MOL0     H72942   6.492   2.065  10.076  1.4353 -3.4053  0.1487
  529MOL0     H72943   6.497   2.032  10.384  2.9959  0.9839 -1.5166
  529MOL0     H72944   6.378   1.976  10.266 -3.1465  2.3413  0.7040
  529MOL0     H72945   6.436   2.245  10.383 -0.7681 -0.4435  0.4482
  529MOL0     H72946   6.347   2.237  10.227  0.5434 -1.4262 -0.5112
  529MOL0     H72947   6.260   2.096  10.483  0.9267 -2.7199 -2.1345
  529MOL0     H72948   6.181   2.077  10.325 -0.9965  0.2925  0.4939
  529MOL0     H72949   6.205   2.328  10.480  0.3704 -0.0100  1.1088
  529MOL0     H72950   6.127   2.325  10.326 -2.4764  1.5892  1.6857
  529MOL0     H72951   5.969   2.019  10.416 -2.4152 -0.3774 -2.8869
  529MOL0     H72952   5.646   2.009  10.542 -1.7480 -0.3210  0.3114
  529MOL0     H72953   5.695   2.025  10.369  2.6597  1.2917 -0.3458
  529MOL0     H72954   5.523   2.202  10.548  0.6817  1.4694 -0.9569
  529MOL0     H72955   5.597   2.264  10.397 -0.5270  1.8139  2.3838
  529MOL0     H72956   5.479   2.123  10.269 -0.6908  0.0564 -0.1500
  529MOL0     H72957   5.452   2.000  10.399  0.5173  0.7232  0.0725
  529MOL0     H72958   5.337   2.282  10.363 -1.4221  0.2492 -0.2933
  529MOL0     H72959   5.236   2.135  10.375 -0.3015 -0.6727  2.8815
  529MOL0     H72960   5.213   2.213  10.784  1.6750  3.9728  0.3834
  529MOL0     H72961   5.083   2.262  10.964  1.2064 -0.3597 -0.2414
  529MOL0     H72962   4.919   2.226  10.953  1.3984  0.0033  2.4156
  529MOL0     H72963   4.970   2.399  10.934 -3.3790 -0.8800 -1.7440
  529MOL0     H72964   4.691   2.593  10.508 -0.2567 -0.5720  0.6354
  529MOL0     H72965   4.489   2.745  10.491  2.2185 -0.0566  0.6962
  529MOL0     H72966   4.175   2.646  10.779  0.9418 -3.7697 -2.1604
  529MOL0     H72967   4.104   2.795  10.720 -3.4453 -1.4857  0.6897
  529MOL0     H72968   4.034   2.644  10.511  1.8952 -2.6594  0.5032
  529MOL0     H72969   4.047   2.523  10.622  1.5350  0.8712 -1.7960
  529MOL0     H72970   3.839   2.763  10.680 -0.3996 -0.4656  0.4049
  529MOL0     H72971   3.902   2.645  10.784  1.0513  1.0058 -0.8183
  529MOL0     H72972   3.814   2.473  10.647 -2.9422 -1.5018  0.1836
  529MOL0     H72973   3.760   2.575  10.521  0.4495  1.4791 -1.1480
  529MOL0     H72974   3.654   2.558  10.802  2.0434  2.2768 -0.0556
  529MOL0     H72975   3.616   2.706  10.712  2.5221  1.1515 -0.9405
  529MOL0     H72976   3.534   2.418  10.674  0.8921 -0.7137 -1.2524
  529MOL0     H72977   3.529   2.517  10.521 -2.5540  2.5906  0.3730
  529MOL0     H72978   3.314   2.494  10.610 -0.0946 -2.1661  1.4544
  529MOL0     H72979   3.382   2.662  10.599  1.5902  2.1048  2.9759
  529MOL0     H72980   3.420   2.647  10.855 -0.3326 -0.8524  0.9467
  529MOL0     H72981   3.349   2.498  10.855 -1.0982 -0.0192 -1.1238
  529MOL0     H72982   4.271   2.461  10.744  1.2783 -1.6742  1.2252
  529MOL0     H72983   4.476   2.307  10.719  0.3512  0.3806  0.3410
  529MOL0     H72984   4.854   2.310  10.456  0.0491 -0.6852 -0.7904
  529MOL0     H72985   5.068   2.253  10.390 -1.4964 -1.5983  0.1638
  529MOL0     H72986   6.240   1.883   9.778  0.4765  1.3464 -0.4514
  529MOL0     H72987   6.187   1.849   9.546  0.7204  0.5945  1.4773
  529MOL0     H72988   6.474   1.750   9.115  2.1954  0.2415 -3.4283
  529MOL0     H72989   6.484   1.756   8.880  0.0623 -0.2690 -0.0175
  529MOL0     H72990   6.456   1.768   8.680  1.6230  2.2202 -0.8970
  529MOL0     H72991   6.356   1.813   8.542 -0.1879 -4.1866  0.4570
  529MOL0     H72992   6.438   2.017   8.774  3.1603  0.2528 -0.0537
  529MOL0     H72993   6.369   2.053   8.615 -0.8178 -0.4052  0.3317
  529MOL0     H72994   6.573   1.955   8.508 -2.2931  2.0004 -0.7836
  529MOL0     H72995   6.601   2.090   8.621 -2.4319  0.2726 -0.8280
  529MOL0     H72996   6.664   1.806   8.700 -0.0484 -0.0468 -1.0903
  529MOL0     H72997   6.689   1.963   8.791  0.6362  0.0382 -0.3944
  529MOL0     H72998   6.987   1.964   8.490 -1.1815  0.3041 -1.9562
  529MOL0     H72999   6.053   1.846   8.880 -1.1368  0.4438  0.7123
  529MOL0     H73000   5.972   1.700   9.165  2.2369 -0.3805  0.7204
  529MOL0     H73001   6.011   1.870   9.215 -0.4984 -2.0375  2.4515
  529MOL0     H73002   5.930   1.835   9.064 -0.7693  0.9820  0.4741
  530MOL0     O73003   3.994   9.253   1.365 -0.2949 -0.0074 -0.1566
  530MOL0     C73004   3.909   9.225   1.285  0.0820  0.1783  0.0416
  530MOL0     O73005   3.884   9.100   1.252  0.2438  0.6243 -0.1865
  530MOL0     C73006   3.964   9.001   1.309  0.0143 -0.6836  0.6024
  530MOL0     C73007   3.951   8.969   1.446  0.5076  0.0126 -0.3296
  530MOL0     C73008   4.047   8.889   1.509  0.4062 -0.9021 -0.0499
  530MOL0     C73009   4.145   8.825   1.432 -0.0046 -0.1840  0.2606
  530MOL0     O73010   4.236   8.749   1.488  0.2414 -0.4285  0.5675
  530MOL0     C73011   4.357   8.811   1.536 -0.0690 -0.5059  0.2202
  530MOL0     C73012   4.439   8.711   1.617 -0.2940  0.2121 -0.2515
  530MOL0     C73013   4.572   8.768   1.664 -0.2373 -0.1537 -0.0568
  530MOL0     C73014   4.678   8.755   1.552  0.5405  0.1048 -0.8646
  530MOL0     C73015   4.828   8.782   1.595 -0.8265  0.2312  0.3676
  530MOL0     C73016   4.925   8.758   1.481  0.0335  0.0314  0.3312
  530MOL0     C73017   5.070   8.760   1.532 -0.2002 -0.8567 -0.0787
  530MOL0     C73018   5.113   8.899   1.588 -0.0575 -0.0552  0.4144
  530MOL0     N73019   5.249   8.936   1.551 -0.0540  0.6266 -0.4177
  530MOL0     C73020   5.366   8.873   1.592 -0.0958  0.8221  1.1434
  530MOL0     C73021   5.465   8.952   1.542  0.4623 -0.2394  0.8270
  530MOL0     C73022   5.610   8.931   1.548  0.4614 -0.7376 -0.1655
  530MOL0     C73023   5.673   8.983   1.678 -0.1876  0.4006  0.1434
  530MOL0     C73024   5.679   9.137   1.686  0.1320 -0.7114 -0.7303
  530MOL0     C73025   5.804   9.209   1.736  0.3847  0.9546 -0.8370
  530MOL0     O73026   5.809   9.191   1.879  0.3145 -0.4911 -0.0080
  530MOL0     C73027   5.915   9.260   1.938  0.4594  0.5640 -0.5932
  530MOL0     C73028   6.054   9.258   1.915  0.1880 -0.5711 -0.7527
  530MOL0     C73029   6.146   9.335   1.986  0.3973  0.2384  0.0638
  530MOL0     C73030   6.285   9.307   1.940  0.1203 -0.6722 -0.8353
  530MOL0     C73031   6.104   9.430   2.087  0.0712 -0.3286  0.8330
  530MOL0     C73032   6.191   9.524   2.162  0.3195 -0.2177  0.6597
  530MOL0     O73033   6.324   9.532   2.126 -0.8156  0.5593  0.2519
  530MOL0     C73034   6.411   9.591   2.214 -0.0616 -0.7768 -0.0841
  530MOL0     C73035   6.423   9.733   2.218  1.0037 -0.6251  0.0023
  530MOL0     C73036   6.517   9.797   2.304 -0.1484 -0.6391 -0.2862
  530MOL0     C73037   6.599   9.719   2.392 -0.3367 -0.7629 -0.0119
  530MOL0     O73038   6.702   9.766   2.466  0.4995 -0.6149  1.0472
  530MOL0     C73039   6.674   9.891   2.528  0.9080 -0.2094 -0.7648
  530MOL0     C73040   6.799   9.937   2.593  0.2768 -0.5730  0.2996
  530MOL0     C73041   6.868   9.825   2.674  0.0657  0.6058  0.4552
  530MOL0     C73042   6.984   9.873   2.768  0.6490 -0.3123  0.5041
  530MOL0     C73043   7.111   9.916   2.696  0.7339 -0.5007  0.2275
  530MOL0     C73044   7.121  10.073   2.695 -0.1447 -0.2379 -0.7133
  530MOL0     C73045   7.247  10.112   2.634 -0.9391  0.5256  0.5136
  530MOL0     C73046   7.249  10.267   2.600 -0.0674  0.0300 -0.5313
  530MOL0    Cl73047   7.167  10.320   2.457 -0.1457 -0.4537  0.0981
  530MOL0     C73048   6.588   9.571   2.381 -0.0563 -0.5786 -0.3483
  530MOL0     C73049   6.494   9.515   2.296  1.0697 -0.8586  0.3006
  530MOL0     O73050   6.129   9.591   2.241 -0.1502  0.4983 -0.5290
  530MOL0     C73051   5.963   9.430   2.123 -0.0675 -0.0204  0.3089
  530MOL0     C73052   5.870   9.342   2.044  0.2408 -0.5674 -0.5085
  530MOL0     N73053   5.412   9.053   1.472  0.6700 -0.2349 -0.4279
  530MOL0     N73054   5.289   9.043   1.474 -0.0484  0.6375 -0.1815
  530MOL0     C73055   4.149   8.851   1.294  0.3486 -0.5776 -0.3045
  530MOL0     C73056   4.065   8.948   1.224  0.6796  0.6706  0.5437
  530MOL0     C73057   3.829   9.340   1.238 -0.2362  0.4621  0.1123
  530MOL0     C73058   3.727   9.314   1.145  0.1026  0.6857  0.0496
  530MOL0     C73059   3.648   9.423   1.086  0.1993  0.6298  0.3006
  530MOL0     C73060   3.664   9.552   1.124  0.4166 -0.3466 -0.8115
  530MOL0     O73061   3.608   9.663   1.063 -0.4615  0.1176 -0.3076
  530MOL0     C73062   3.507   9.642   0.965  0.0514  1.1722  0.2495
  530MOL0     C73063   3.432   9.780   0.936 -0.2377  0.2324 -0.0940
  530MOL0     C73064   3.512   9.867   0.836 -0.3256 -0.5671  0.1176
  530MOL0     C73065   3.440  10.000   0.795 -0.4924  0.7074 -0.1633
  530MOL0     C73066   3.465  10.097   0.902 -0.4373  0.2245 -0.5946
  530MOL0     C73067   3.474  10.176   0.994  0.8288  0.4781  0.6343
  530MOL0     C73068   3.764   9.581   1.220  0.3105  0.8271 -0.1315
  530MOL0     C73069   3.838   9.478   1.283 -0.1244  0.3404  0.5828
  530MOL0     C73070   3.931   9.528   1.383 -0.2540 -0.3679 -0.1822
  530MOL0     H73071   3.880   9.014   1.515  1.3692  1.2697 -0.2293
  530MOL0     H73072   4.042   8.876   1.616 -1.0323 -1.0075 -0.1132
  530MOL0     H73073   4.340   8.904   1.592  1.2851  0.3410 -0.7264
  530MOL0     H73074   4.414   8.846   1.449 -3.6495  2.0053 -1.3783
  530MOL0     H73075   4.383   8.684   1.707 -0.4883 -0.2659 -0.5150
  530MOL0     H73076   4.448   8.615   1.565 -2.0241 -0.0150 -0.1764
  530MOL0     H73077   4.557   8.873   1.690 -1.3034 -0.2071 -0.4025
  530MOL0     H73078   4.611   8.707   1.746 -0.8443  1.6842  1.6764
  530MOL0     H73079   4.678   8.652   1.517  2.2795 -0.5964  0.9835
  530MOL0     H73080   4.652   8.817   1.466  0.8183 -0.0445 -1.0584
  530MOL0     H73081   4.875   8.728   1.677  2.3455  2.0721 -0.0758
  530MOL0     H73082   4.831   8.885   1.632 -0.9474  0.2128  0.4295
  530MOL0     H73083   4.897   8.669   1.424  0.6469  0.7256 -1.0991
  530MOL0     H73084   4.916   8.848   1.421  2.0440 -0.1071 -0.2365
  530MOL0     H73085   5.129   8.743   1.442 -0.1863  2.3870 -0.8000
  530MOL0     H73086   5.104   8.695   1.613  1.9964  2.7930  2.2435
  530MOL0     H73087   5.049   8.980   1.555  0.2170  0.3232  0.7953
  530MOL0     H73088   5.099   8.895   1.697  1.1533 -0.1153  0.5826
  530MOL0     H73089   5.389   8.795   1.664  2.0028  0.6437  0.3694
  530MOL0     H73090   5.666   8.980   1.468  0.3049 -0.6092 -0.1978
  530MOL0     H73091   5.633   8.825   1.534  0.1630 -0.7364 -0.6850
  530MOL0     H73092   5.626   8.939   1.766 -1.4461  0.3006 -0.5453
  530MOL0     H73093   5.779   8.958   1.690  0.1682  0.9266 -1.6190
  530MOL0     H73094   5.664   9.177   1.585  2.8406  0.6851 -0.6740
  530MOL0     H73095   5.593   9.173   1.743  1.2896 -2.8010  2.5654
  530MOL0     H73096   5.890   9.164   1.685 -0.1310  1.6117 -2.3236
  530MOL0     H73097   5.799   9.314   1.708 -1.0797  1.5231  1.3053
  530MOL0     H73098   6.097   9.194   1.839  2.5132  3.3324 -3.0520
  530MOL0     H73099   6.309   9.385   1.867 -1.8184  1.6590  0.8346
  530MOL0     H73100   6.311   9.214   1.888 -0.4331 -0.1491 -2.0758
  530MOL0     H73101   6.351   9.313   2.026  0.2115  0.6325 -0.9815
  530MOL0     H73102   6.368   9.793   2.146  0.1256 -2.9793 -1.3883
  530MOL0     H73103   6.524   9.905   2.299  2.7139 -0.7256  0.4084
  530MOL0     H73104   6.638   9.972   2.464 -2.1830  0.5275  1.6684
  530MOL0     H73105   6.593   9.868   2.598  0.6916 -1.0147 -1.2714
  530MOL0     H73106   6.855   9.970   2.505 -0.1641 -1.4305 -0.3200
  530MOL0     H73107   6.785  10.020   2.662  4.3386  2.0251 -1.6392
  530MOL0     H73108   6.910   9.753   2.602  2.4278  0.1128  2.1933
  530MOL0     H73109   6.802   9.767   2.739  0.0642 -1.6695 -1.4013
  530MOL0     H73110   7.008   9.788   2.832  0.9433  0.6305  1.6805
  530MOL0     H73111   6.956   9.958   2.832  1.8291  0.5186 -0.0513
  530MOL0     H73112   7.199   9.887   2.755 -0.4725 -0.9417  1.8590
  530MOL0     H73113   7.107   9.894   2.588  0.3047 -0.5258  0.2501
  530MOL0     H73114   7.109  10.116   2.795  2.2189  0.2666 -0.5826
  530MOL0     H73115   7.042  10.105   2.626 -1.2739 -0.2812  0.5136
  530MOL0     H73116   7.266  10.042   2.552  1.4943  1.1437  0.4827
  530MOL0     H73117   7.332  10.101   2.702  0.7269  0.3985 -1.4953
  530MOL0     H73118   7.355  10.294   2.588  0.7903 -3.3707 -1.6299
  530MOL0     H73119   7.208  10.320   2.686  1.9990  0.5120  0.2303
  530MOL0     H73120   6.652   9.507   2.440 -0.0275 -1.0944 -0.9367
  530MOL0     H73121   6.470   9.409   2.297  2.3139 -1.1471  0.8743
  530MOL0     H73122   5.920   9.497   2.197 -3.2678 -0.9950 -0.5420
  530MOL0     H73123   5.764   9.336   2.065 -0.5328  3.8438 -2.0275
  530MOL0     H73124   4.230   8.819   1.229  1.5627  2.9950 -0.7475
  530MOL0     H73125   4.075   8.979   1.120 -1.2749  0.1534  0.1690
  530MOL0     H73126   3.713   9.220   1.091 -3.7186  1.4968 -0.7212
  530MOL0     H73127   3.583   9.394   1.004 -0.8262 -1.6067  1.8082
  530MOL0     H73128   3.550   9.604   0.872 -0.0320  2.7429 -0.4645
  530MOL0     H73129   3.432   9.571   1.000  0.3655  0.9849  0.5471
  530MOL0     H73130   3.414   9.829   1.032  0.3200  1.9896 -0.8452
  530MOL0     H73131   3.340   9.756   0.882  0.4101  0.0754 -1.1658
  530MOL0     H73132   3.611   9.887   0.880  0.3869 -1.9077 -0.8071
  530MOL0     H73133   3.529   9.802   0.750  4.1714 -0.1807  0.4684
  530MOL0     H73134   3.331   9.993   0.787 -0.5110  1.3273 -0.5346
  530MOL0     H73135   3.480  10.039   0.701 -0.8135  1.9656  0.2079
  530MOL0     H73136   3.459  10.238   1.080 -1.5632  1.0108 -0.0714
  530MOL0     H73137   3.775   9.684   1.251  1.3550  1.8234 -3.4489
  530MOL0     H73138   4.035   9.545   1.352  0.5027 -0.2922  2.1407
  530MOL0     H73139   3.902   9.630   1.409  0.1311 -0.8268  2.3212
  530MOL0     H73140   3.923   9.462   1.471  0.1726  1.6673  1.4560
  531MOL0     O73141   7.858   1.343   8.141 -0.2437 -0.8479 -0.4760
  531MOL0     C73142   7.939   1.433   8.120 -0.7911 -1.5804  0.1878
  531MOL0     O73143   8.075   1.428   8.152 -0.7047 -0.0877  0.9479
  531MOL0     C73144   8.124   1.313   8.208 -0.7028 -1.1546 -0.0593
  531MOL0     C73145   8.166   1.211   8.120 -0.3058  0.5575  0.2611
  531MOL0     C73146   8.226   1.094   8.170  0.0685  0.5701 -0.7757
  531MOL0     C73147   8.229   1.073   8.311  0.0859 -0.4349 -0.7848
  531MOL0     O73148   8.259   0.949   8.372 -0.3628 -0.8606 -0.1924
  531MOL0     C73149   8.402   0.923   8.377 -0.4943  0.8074 -0.6893
  531MOL0     C73150   8.411   0.765   8.410 -0.1842 -0.7624  0.2350
  531MOL0     C73151   8.367   0.725   8.552 -0.4176 -0.2009 -0.4409
  531MOL0     C73152   8.453   0.766   8.667 -1.0049 -0.2431 -0.2918
  531MOL0     C73153   8.396   0.734   8.802  0.6330  0.9173  0.4609
  531MOL0     C73154   8.413   0.586   8.833 -0.4112  0.3291 -0.0178
  531MOL0     C73155   8.555   0.556   8.903 -0.0231 -0.0804  0.1556
  531MOL0     C73156   8.571   0.407   8.932  0.1654 -0.0577 -0.1007
  531MOL0     N73157   8.703   0.395   8.995  0.2495 -0.5677 -0.6855
  531MOL0     C73158   8.743   0.433   9.119  0.8969  0.9214  0.8234
  531MOL0     C73159   8.856   0.360   9.146 -0.1815 -0.3316  0.0520
  531MOL0     C73160   8.911   0.351   9.288 -0.3888  0.9113  0.2699
  531MOL0     C73161   8.824   0.256   9.380  0.3578  0.6356  1.0289
  531MOL0     C73162   8.716   0.345   9.442  0.2066  0.8996  0.6798
  531MOL0     C73163   8.627   0.267   9.547 -0.3669  0.3464  0.0844
  531MOL0     O73164   8.587   0.135   9.496  0.7770 -0.0762 -0.1796
  531MOL0     C73165   8.516   0.060   9.586  0.4452  0.1414  0.2621
  531MOL0     C73166   8.470   0.109   9.706 -0.4124 -0.6516 -0.7148
  531MOL0     C73167   8.369   0.041   9.784  0.1864 -0.2919  0.5690
  531MOL0     C73168   8.320   0.119   9.902  0.0242  0.2742 -0.1698
  531MOL0     C73169   8.329  -0.086   9.744 -0.2210 -0.0715 -0.4997
  531MOL0     C73170   8.235  -0.176   9.833  0.2262  0.1804  0.4513
  531MOL0     O73171   8.217  -0.140   9.967  0.3262  0.0778  0.0296
  531MOL0     C73172   8.154  -0.238  10.040 -0.1095 -0.0010 -0.1612
  531MOL0     C73173   8.184  -0.379  10.030 -0.5973 -0.0429  0.4785
  531MOL0     C73174   8.109  -0.474  10.106 -0.6846 -0.4484  0.5034
  531MOL0     C73175   8.019  -0.427  10.206  0.0621 -0.3544  0.3165
  531MOL0     O73176   7.959  -0.517  10.298  0.3450  0.0791  0.6044
  531MOL0     C73177   7.810  -0.513  10.293  0.3216  0.4452  0.3297
  531MOL0     C73178   7.762  -0.660  10.315  0.0341  0.3276 -0.5053
  531MOL0     C73179   7.809  -0.700  10.461  0.6015 -0.0793 -0.0287
  531MOL0     C73180   7.708  -0.781  10.534  0.4781 -0.9732 -0.5465
  531MOL0     C73181   7.694  -0.927  10.477  0.7900 -1.0762 -0.2138
  531MOL0     C73182   7.563  -1.000  10.514 -0.7912 -1.0174 -0.5664
  531MOL0     C73183   7.590  -1.116  10.617 -0.3682  0.0087 -0.3067
  531MOL0     C73184   7.469  -1.200  10.636  0.5321  0.9114  0.0097
  531MOL0    Cl73185   7.351  -1.105  10.731 -0.3367  0.5402 -0.1081
  531MOL0     C73186   7.992  -0.291  10.214  0.1370 -0.4298 -0.4201
  531MOL0     C73187   8.057  -0.202  10.132 -0.1556 -0.3634  0.7093
  531MOL0     O73188   8.171  -0.266   9.774  0.0177  0.1760 -0.7972
  531MOL0     C73189   8.380  -0.135   9.626  0.5033  0.1885 -0.1538
  531MOL0     C73190   8.468  -0.067   9.545 -0.3197 -0.9450  0.4025
  531MOL0     N73191   8.895   0.297   9.034 -0.9993  0.1777  0.5330
  531MOL0     N73192   8.799   0.314   8.947 -0.2295 -0.4609 -0.1637
  531MOL0     C73193   8.194   1.182   8.401  0.1102  0.1643  0.1462
  531MOL0     C73194   8.143   1.306   8.344  0.5593  0.4005  0.7274
  531MOL0     C73195   7.896   1.543   8.035  0.0275  0.1835 -0.3727
  531MOL0     C73196   7.815   1.511   7.929  0.7621 -0.6296  0.6657
  531MOL0     C73197   7.783   1.602   7.835 -0.6616  0.2177 -0.0781
  531MOL0     C73198   7.814   1.736   7.857  0.0378  0.1437  0.0862
  531MOL0     O73199   7.774   1.840   7.777  0.1065 -0.0068  0.0679
  531MOL0     C73200   7.694   1.811   7.659  0.9595  0.4340  0.4840
  531MOL0     C73201   7.628   1.940   7.616 -0.6820 -0.3140 -0.5745
  531MOL0     C73202   7.559   2.018   7.727  0.1588 -0.6352  0.0197
  531MOL0     C73203   7.488   2.146   7.665 -0.2602 -0.7487  0.1088
  531MOL0     C73204   7.355   2.114   7.616  0.2373 -0.0246 -0.4241
  531MOL0     C73205   7.241   2.076   7.571 -0.3196  0.5876 -0.1897
  531MOL0     C73206   7.891   1.776   7.960  0.2997  0.5190  0.6023
  531MOL0     C73207   7.939   1.676   8.054 -0.0830  0.6306 -0.0908
  531MOL0     C73208   8.033   1.712   8.161 -0.3862 -0.0316  0.2331
  531MOL0     H73209   8.138   1.202   8.015 -0.2364 -1.7811  0.4035
  531MOL0     H73210   8.259   1.015   8.104 -1.3056  0.7455 -1.7005
  531MOL0     H73211   8.453   0.981   8.454 -2.1569 -0.1672  1.2598
  531MOL0     H73212   8.457   0.942   8.285  1.0842  0.4096  0.1362
  531MOL0     H73213   8.346   0.711   8.340 -1.4789 -1.7004  2.0721
  531MOL0     H73214   8.512   0.727   8.394  0.6605  1.0860  0.9598
  531MOL0     H73215   8.262   0.753   8.568 -0.7862 -1.4367 -0.5985
  531MOL0     H73216   8.370   0.615   8.557 -1.9324 -0.3098  5.1477
  531MOL0     H73217   8.553   0.722   8.660  0.6115  2.6385  2.2729
  531MOL0     H73218   8.474   0.873   8.672 -2.5215  0.0311  0.9298
  531MOL0     H73219   8.295   0.777   8.803  0.4439  0.4932 -0.0087
  531MOL0     H73220   8.441   0.804   8.873 -0.4908  1.2622  0.8593
  531MOL0     H73221   8.333   0.566   8.905  0.4020 -0.9324  0.5759
  531MOL0     H73222   8.402   0.523   8.744 -3.5692  1.9638 -0.9442
  531MOL0     H73223   8.561   0.616   8.993 -1.9690 -1.0767  1.0182
  531MOL0     H73224   8.637   0.585   8.837  1.0211 -1.7063  0.6690
  531MOL0     H73225   8.493   0.383   9.005 -0.3634 -0.0184 -0.6449
  531MOL0     H73226   8.558   0.347   8.841 -5.2542  0.1267  0.2461
  531MOL0     H73227   8.685   0.498   9.184 -0.7240  0.8658 -0.4919
  531MOL0     H73228   8.922   0.448   9.337  4.2599  0.2149  1.1288
  531MOL0     H73229   9.011   0.306   9.283 -1.3692 -1.3992  0.0283
  531MOL0     H73230   8.781   0.171   9.328 -0.7960  1.1418  1.1270
  531MOL0     H73231   8.889   0.229   9.464  1.7097 -0.6215 -0.3590
  531MOL0     H73232   8.759   0.437   9.483  1.6327  0.3698  0.4315
  531MOL0     H73233   8.656   0.376   9.356  1.2989 -0.7384 -0.7566
  531MOL0     H73234   8.692   0.249   9.633  0.8796 -4.0202 -1.5243
  531MOL0     H73235   8.547   0.334   9.578  1.1869  2.1614  0.3879
  531MOL0     H73236   8.501   0.201   9.754  0.8465 -0.8524 -1.1129
  531MOL0     H73237   8.349   0.074   9.997 -0.5149 -1.1468 -0.6480
  531MOL0     H73238   8.211   0.118   9.898 -0.0940 -0.2596  2.0257
  531MOL0     H73239   8.361   0.220   9.901  1.4640 -0.2793 -0.5930
  531MOL0     H73240   8.265  -0.429   9.979  0.6459  0.6662  1.6792
  531MOL0     H73241   8.142  -0.577  10.116  1.2014  0.3306  5.7713
  531MOL0     H73242   7.774  -0.452  10.377  0.4879 -0.9124  1.4213
  531MOL0     H73243   7.770  -0.455  10.210 -4.0873  0.9235  2.4884
  531MOL0     H73244   7.652  -0.656  10.315 -0.3740 -4.5925 -0.2960
  531MOL0     H73245   7.779  -0.737  10.239 -1.0165  0.5291 -0.9675
  531MOL0     H73246   7.827  -0.611  10.522 -2.4355  2.0303 -1.9034
  531MOL0     H73247   7.905  -0.749  10.445  1.9193  2.4672 -0.4648
  531MOL0     H73248   7.604  -0.749  10.527  1.3004  1.6909 -2.5004
  531MOL0     H73249   7.733  -0.785  10.640 -1.1275 -1.3757 -0.1676
  531MOL0     H73250   7.689  -0.905  10.370 -0.9500  3.4622  0.5410
  531MOL0     H73251   7.775  -0.996  10.502  0.1907 -1.4608  0.7309
  531MOL0     H73252   7.534  -1.041  10.416 -0.6035  0.1140 -1.1074
  531MOL0     H73253   7.490  -0.930  10.555  0.9527  1.6340 -1.6743
  531MOL0     H73254   7.627  -1.078  10.713 -1.9602 -0.9868  0.7457
  531MOL0     H73255   7.677  -1.173  10.584 -0.4904  0.2900 -1.1306
  531MOL0     H73256   7.494  -1.289  10.694 -0.3646  0.2472 -0.5955
  531MOL0     H73257   7.419  -1.227  10.542 -0.7801  0.5706  0.7797
  531MOL0     H73258   7.922  -0.260  10.291 -1.3218  0.6930 -2.1294
  531MOL0     H73259   8.040  -0.096  10.150  2.5542 -0.2760  3.5709
  531MOL0     H73260   8.344  -0.229   9.586 -0.8300  1.2477 -1.5444
  531MOL0     H73261   8.495  -0.097   9.445 -2.6228  1.4360 -1.0498
  531MOL0     H73262   8.196   1.173   8.509 -0.4680 -0.0470  0.1460
  531MOL0     H73263   8.098   1.391   8.394 -1.7279 -0.1718 -0.2238
  531MOL0     H73264   7.774   1.412   7.913 -3.1438  0.4494  2.7557
  531MOL0     H73265   7.712   1.564   7.762  0.2677 -0.4221 -0.6674
  531MOL0     H73266   7.751   1.770   7.575  1.6886  1.6281  0.3764
  531MOL0     H73267   7.613   1.743   7.688  1.5798 -1.0095 -0.9965
  531MOL0     H73268   7.562   1.913   7.533 -0.7760 -1.5863 -0.0909
  531MOL0     H73269   7.716   1.994   7.577  0.1045 -0.9111  0.3220
  531MOL0     H73270   7.484   1.957   7.778  0.1586  0.2932  1.1539
  531MOL0     H73271   7.634   2.045   7.802 -0.1749 -2.1116  0.9234
  531MOL0     H73272   7.553   2.200   7.595 -1.5543  1.9265  0.8364
  531MOL0     H73273   7.478   2.229   7.736 -1.6158 -0.7591 -0.0457
  531MOL0     H73274   7.148   2.056   7.522 -0.2490 -0.0938 -0.0590
  531MOL0     H73275   7.913   1.881   7.981 -0.8081  1.0051 -0.5161
  531MOL0     H73276   8.026   1.821   8.170  0.5605 -0.0642  1.7778
  531MOL0     H73277   8.012   1.658   8.254 -0.9918 -0.0734  0.0761
  531MOL0     H73278   8.137   1.697   8.131 -0.3860 -0.1658  0.2992
  532MOL0     O73279   0.666   9.824   1.942  0.4303 -0.0744 -0.8264
  532MOL0     C73280   0.602   9.863   1.841 -0.2317 -0.4323 -0.3227
  532MOL0     O73281   0.647   9.942   1.738  0.3624  0.5893  0.4216
  532MOL0     C73282   0.769  10.004   1.763 -0.5371  0.4343 -0.8803
  532MOL0     C73283   0.887   9.924   1.771  0.2430 -1.2258  0.6176
  532MOL0     C73284   1.008   9.973   1.820  1.1590 -1.1069 -0.0666
  532MOL0     C73285   1.012  10.109   1.857 -0.7918 -0.2336  0.3473
  532MOL0     O73286   1.121  10.167   1.907 -0.5877  0.2819  0.1838
  532MOL0     C73287   1.194  10.249   1.809 -0.9238 -0.5091  0.6953
  532MOL0     C73288   1.332  10.288   1.876 -0.2324  0.4890 -0.1808
  532MOL0     C73289   1.420  10.377   1.781  0.1093  0.4618 -0.7237
  532MOL0     C73290   1.571  10.385   1.830  0.8088 -1.0626  0.0877
  532MOL0     C73291   1.629  10.508   1.759  0.5767  0.5989 -0.5921
  532MOL0     C73292   1.778  10.544   1.781 -0.0716  0.6999 -0.2675
  532MOL0     C73293   1.867  10.417   1.783  0.7324  0.1390 -0.1031
  532MOL0     C73294   1.859  10.324   1.651  0.8590 -0.2570 -0.5970
  532MOL0     N73295   1.889  10.397   1.529 -0.3331 -0.0500 -0.0413
  532MOL0     C73296   2.014  10.441   1.503 -0.6504 -0.4417  0.6883
  532MOL0     C73297   2.013  10.529   1.397  0.4525  0.5738  0.3559
  532MOL0     C73298   2.130  10.597   1.334  0.2568 -0.4990  0.2931
  532MOL0     C73299   2.258  10.519   1.336  0.3392  1.1979  0.4615
  532MOL0     C73300   2.254  10.408   1.238 -0.3354 -0.9503 -0.2371
  532MOL0     C73301   2.151  10.291   1.255  0.7726  0.4412 -0.5710
  532MOL0     O73302   2.183  10.236   1.389 -0.1081 -0.2353  0.6385
  532MOL0     C73303   2.302  10.171   1.404 -0.6688  0.1300  0.1637
  532MOL0     C73304   2.386  10.206   1.509 -1.0470 -0.7089  0.4064
  532MOL0     C73305   2.507  10.143   1.527 -0.1373 -0.5893 -0.0869
  532MOL0     C73306   2.584  10.179   1.662  0.8858  0.0024 -0.2130
  532MOL0     C73307   2.547  10.042   1.436  0.0989  0.2057 -0.6228
  532MOL0     C73308   2.668   9.963   1.461  0.2116  0.6921  0.1134
  532MOL0     O73309   2.673   9.829   1.414  0.5056 -0.3434  0.5687
  532MOL0     C73310   2.790   9.759   1.414 -0.4513 -0.8397 -1.0269
  532MOL0     C73311   2.849   9.723   1.537  0.4308  0.2871 -0.5639
  532MOL0     C73312   2.955   9.636   1.540  0.6212 -0.2788  0.1527
  532MOL0     C73313   2.996   9.574   1.424 -0.5322 -0.1825  0.4636
  532MOL0     O73314   3.106   9.480   1.438  0.0172 -0.2845 -0.0377
  532MOL0     C73315   3.132   9.388   1.331  0.4661 -0.2069 -0.3691
  532MOL0     C73316   3.265   9.432   1.265  0.1652  0.4801 -0.3308
  532MOL0     C73317   3.365   9.503   1.359 -0.1636  0.1113 -0.1435
  532MOL0     C73318   3.420   9.415   1.474 -1.0523  0.0091 -0.7709
  532MOL0     C73319   3.543   9.465   1.550  0.1433 -0.0919  0.0271
  532MOL0     C73320   3.604   9.369   1.652 -0.6779  0.3890 -0.2140
  532MOL0     C73321   3.740   9.424   1.718  0.0352 -0.4825 -0.2353
  532MOL0     C73322   3.728   9.434   1.870  0.8765 -0.2581  0.3358
  532MOL0    Cl73323   3.868   9.511   1.933  0.3103 -0.4355 -0.6033
  532MOL0     C73324   2.946   9.620   1.299 -0.1123  0.6796  0.4676
  532MOL0     C73325   2.834   9.700   1.296 -0.1047 -0.3928  0.0330
  532MOL0     O73326   2.761  10.020   1.512 -0.0460 -0.3721 -0.0027
  532MOL0     C73327   2.465  10.006   1.332  0.4556 -0.1439 -0.7432
  532MOL0     C73328   2.345  10.076   1.315 -0.3872  0.2375  0.2757
  532MOL0     N73329   1.875  10.543   1.359 -0.6999 -0.0901  0.0004
  532MOL0     N73330   1.807  10.466   1.444  0.4337  0.6384  0.0605
  532MOL0     C73331   0.904  10.191   1.844  0.7171 -0.7552 -0.0399
  532MOL0     C73332   0.780  10.147   1.788  0.5670 -0.3103  0.1522
  532MOL0     C73333   0.467   9.826   1.836 -0.0589  0.3732  0.4564
  532MOL0     C73334   0.448   9.698   1.868  0.3046  0.2435  0.2615
  532MOL0     C73335   0.316   9.645   1.870 -0.5013 -0.0433 -0.7360
  532MOL0     C73336   0.208   9.728   1.865  0.2817  0.3854 -0.0885
  532MOL0     O73337   0.079   9.679   1.875  0.3124 -0.0279  0.0152
  532MOL0     C73338  -0.035   9.758   1.845  0.5126 -0.5821 -0.3535
  532MOL0     C73339  -0.164   9.683   1.869  0.7917 -0.5038  0.6751
  532MOL0     C73340  -0.193   9.568   1.779  0.8385  0.2686  0.4379
  532MOL0     C73341  -0.304   9.477   1.841 -1.0262 -0.1286  0.3452
  532MOL0     C73342  -0.436   9.545   1.841  0.2426 -0.8399 -0.5244
  532MOL0     C73343  -0.535   9.604   1.830  0.3412 -0.3059 -0.5794
  532MOL0     C73344   0.230   9.856   1.831  0.1748 -0.6311  0.2811
  532MOL0     C73345   0.363   9.913   1.814 -0.0755  0.1986  0.5740
  532MOL0     C73346   0.374  10.064   1.791  0.7736 -1.5598 -0.0647
  532MOL0     H73347   0.873   9.820   1.744  0.6265 -0.8158 -1.3552
  532MOL0     H73348   1.101   9.917   1.824  1.3054 -0.9144 -0.6727
  532MOL0     H73349   1.135  10.328   1.763  0.7814  0.3277 -0.1131
  532MOL0     H73350   1.222  10.189   1.722  0.5534  1.3437 -0.1710
  532MOL0     H73351   1.308  10.334   1.972 -2.2447 -1.7323  0.4891
  532MOL0     H73352   1.384  10.195   1.900 -2.7726 -1.5677 -2.0290
  532MOL0     H73353   1.423  10.332   1.682  0.6195 -1.2624  0.0343
  532MOL0     H73354   1.377  10.477   1.780 -1.4200 -0.1566  0.0142
  532MOL0     H73355   1.561  10.402   1.937  1.8960  1.1937 -0.1157
  532MOL0     H73356   1.614  10.286   1.810 -1.7427 -2.2989  0.2608
  532MOL0     H73357   1.565  10.594   1.781  0.1341 -0.7590  4.6093
  532MOL0     H73358   1.623  10.478   1.654 -0.8378  0.4097 -0.4740
  532MOL0     H73359   1.810  10.606   1.697 -1.3784  1.7645 -0.0118
  532MOL0     H73360   1.793  10.597   1.876  1.8759  2.3362 -1.3998
  532MOL0     H73361   1.834  10.366   1.874 -1.0272  2.1323  0.4509
  532MOL0     H73362   1.970  10.449   1.795  1.2648 -1.3419 -0.5046
  532MOL0     H73363   1.933  10.243   1.660  0.7102 -0.3344 -0.0267
  532MOL0     H73364   1.758  10.282   1.647  0.3020  0.4949  2.7596
  532MOL0     H73365   2.098  10.406   1.563 -0.4493  0.2243  0.8001
  532MOL0     H73366   2.143  10.696   1.379 -0.3574  1.3977 -3.3464
  532MOL0     H73367   2.102  10.615   1.230  3.9910 -1.1059 -0.9470
  532MOL0     H73368   2.346  10.579   1.311 -0.0057  1.0503 -1.2566
  532MOL0     H73369   2.281  10.486   1.438  0.4423  0.5943  0.2432
  532MOL0     H73370   2.228  10.457   1.143  0.1862 -1.0812 -0.4524
  532MOL0     H73371   2.356  10.367   1.233 -0.0885 -0.7680  2.3142
  532MOL0     H73372   2.045  10.316   1.257  1.0840  2.0021  2.4555
  532MOL0     H73373   2.170  10.217   1.177 -0.9286 -2.8660  1.8905
  532MOL0     H73374   2.344  10.285   1.570  0.7451  0.7271 -0.1236
  532MOL0     H73375   2.509  10.233   1.721 -0.2194  0.5263 -2.0117
  532MOL0     H73376   2.670  10.245   1.647  1.0649  0.4168  2.1615
  532MOL0     H73377   2.611  10.084   1.708 -1.0463 -1.0808 -1.1826
  532MOL0     H73378   2.814   9.766   1.630 -0.6699 -1.1264 -0.2802
  532MOL0     H73379   2.992   9.604   1.637  2.3453  0.8637 -0.1012
  532MOL0     H73380   3.143   9.288   1.374  2.5100  0.6796  1.3114
  532MOL0     H73381   3.055   9.381   1.253  0.3367 -1.7927 -0.1360
  532MOL0     H73382   3.309   9.342   1.221 -1.4160 -0.9943  0.9385
  532MOL0     H73383   3.245   9.497   1.180 -0.0444  1.0788  0.1700
  532MOL0     H73384   3.318   9.591   1.404  1.4721  0.9449  0.0160
  532MOL0     H73385   3.444   9.536   1.291  0.6731 -0.0164  0.7506
  532MOL0     H73386   3.440   9.314   1.435 -0.6848  0.0178 -0.6077
  532MOL0     H73387   3.347   9.414   1.556 -0.2843  1.6670 -0.0381
  532MOL0     H73388   3.610   9.493   1.468  0.9850  0.9993  1.0488
  532MOL0     H73389   3.528   9.557   1.608 -0.1929  0.4107 -0.8289
  532MOL0     H73390   3.631   9.282   1.592 -0.6457  0.5055 -0.3687
  532MOL0     H73391   3.534   9.340   1.731  1.5506 -0.7433  1.4403
  532MOL0     H73392   3.760   9.529   1.693  2.1633 -0.4152  1.4439
  532MOL0     H73393   3.833   9.368   1.704  0.1964  0.1994 -2.1805
  532MOL0     H73394   3.700   9.335   1.907 -1.8087  0.7286  1.1597
  532MOL0     H73395   3.643   9.495   1.899  1.2385  0.1108  0.6285
  532MOL0     H73396   2.990   9.566   1.216 -0.0568 -1.7848  2.0008
  532MOL0     H73397   2.785   9.727   1.203  2.3169 -0.4426 -1.3629
  532MOL0     H73398   2.485   9.927   1.260  0.6495 -1.5449  0.7954
  532MOL0     H73399   2.280  10.054   1.230 -1.0746 -6.2657  1.9488
  532MOL0     H73400   0.896  10.284   1.899 -1.0606 -0.4077 -0.8232
  532MOL0     H73401   0.694  10.214   1.789  0.5986 -0.2623 -0.2573
  532MOL0     H73402   0.534   9.632   1.883 -0.4772 -1.0018 -0.5153
  532MOL0     H73403   0.299   9.539   1.886 -2.3326  0.0921 -1.5355
  532MOL0     H73404  -0.041   9.843   1.915 -1.0770 -1.1143  0.1916
  532MOL0     H73405  -0.029   9.809   1.748 -0.4517 -0.3796 -0.3143
  532MOL0     H73406  -0.247   9.752   1.860  0.6334 -0.8686 -1.1263
  532MOL0     H73407  -0.155   9.644   1.971  1.8860 -2.5313 -0.1216
  532MOL0     H73408  -0.212   9.598   1.676 -0.0380 -1.1502  0.1623
  532MOL0     H73409  -0.105   9.502   1.782  0.5929 -0.1141 -0.4240
  532MOL0     H73410  -0.271   9.448   1.941  3.4663 -1.4065 -1.3077
  532MOL0     H73411  -0.307   9.382   1.787 -4.4311 -2.3090  3.7516
  532MOL0     H73412  -0.613   9.679   1.824  0.3452 -0.3237 -0.9210
  532MOL0     H73413   0.140   9.916   1.822 -1.0484 -2.4036  0.2261
  532MOL0     H73414   0.406  10.116   1.881  0.2944  0.0123 -0.7573
  532MOL0     H73415   0.437  10.111   1.715 -1.2533  1.7875  0.1091
  532MOL0     H73416   0.272  10.096   1.765  0.0249 -2.8444  1.1309
  533MOL0     O73417   1.424   9.375   2.997  0.1556 -0.3622  0.1251
  533MOL0     C73418   1.405   9.476   3.064  0.2065  0.6093 -0.4553
  533MOL0     O73419   1.497   9.545   3.126  0.0793 -0.8332  0.1072
  533MOL0     C73420   1.629   9.552   3.083  1.3079  0.0934  1.3917
  533MOL0     C73421   1.732   9.548   3.174  0.1753  0.4012 -0.6568
  533MOL0     C73422   1.867   9.577   3.142  0.2738  0.3476 -0.0589
  533MOL0     C73423   1.897   9.618   3.013 -0.5136  0.7040  0.2163
  533MOL0     O73424   2.026   9.643   2.966  0.0604  0.1698  0.6218
  533MOL0     C73425   2.129   9.546   3.008  0.2140 -0.3430 -0.0376
  533MOL0     C73426   2.264   9.601   2.968  1.1547 -0.0229  0.9801
  533MOL0     C73427   2.304   9.730   3.038  0.5299  1.5230  0.3245
  533MOL0     C73428   2.444   9.784   2.990 -0.6698  0.3506  0.1807
  533MOL0     C73429   2.495   9.875   3.109 -0.7045 -0.5205 -0.4773
  533MOL0     C73430   2.617   9.959   3.079 -0.5376 -0.0055  0.2492
  533MOL0     C73431   2.661  10.044   3.196  1.1472  0.3796 -0.2103
  533MOL0     C73432   2.783  10.141   3.169 -0.3652  0.1486 -0.5815
  533MOL0     N73433   2.914  10.072   3.173  0.4803 -0.1267  0.2297
  533MOL0     C73434   2.936   9.944   3.136 -0.5249  0.2881 -0.1119
  533MOL0     C73435   3.075   9.942   3.135  0.5327 -0.8338 -0.4433
  533MOL0     C73436   3.177   9.832   3.089 -0.1122  0.6211 -0.5511
  533MOL0     C73437   3.129   9.692   3.065 -0.2647  0.2457  0.4649
  533MOL0     C73438   3.244   9.597   3.035 -0.1109  0.1372 -0.0278
  533MOL0     C73439   3.357   9.636   2.932 -0.3447  0.2462 -0.6004
  533MOL0     O73440   3.311   9.709   2.813 -0.2363  0.1297 -0.0706
  533MOL0     C73441   3.236   9.638   2.718  0.5414 -0.0445  0.3822
  533MOL0     C73442   3.260   9.505   2.685  1.1413 -0.8559 -0.0359
  533MOL0     C73443   3.190   9.448   2.575  0.0996 -0.4592 -0.4988
  533MOL0     C73444   3.204   9.301   2.571 -0.4128 -0.0348 -0.3021
  533MOL0     C73445   3.086   9.514   2.503 -0.7754  0.1726  0.6132
  533MOL0     C73446   3.015   9.443   2.399  1.2856 -0.9585  0.9722
  533MOL0     O73447   3.067   9.337   2.335  0.6251  0.4438 -0.0354
  533MOL0     C73448   2.978   9.256   2.263  0.0699 -0.0152 -0.0338
  533MOL0     C73449   2.951   9.123   2.307  0.0163 -0.3541  0.1813
  533MOL0     C73450   2.893   9.026   2.223 -0.4405  0.4688 -0.0722
  533MOL0     C73451   2.845   9.064   2.097  0.5114 -0.2547  0.2613
  533MOL0     O73452   2.794   8.963   2.017 -0.4283  0.1593 -0.6933
  533MOL0     C73453   2.664   8.978   1.971  0.7049  0.4381 -0.3853
  533MOL0     C73454   2.555   8.895   2.059  1.2736 -0.0387  0.5465
  533MOL0     C73455   2.563   8.749   2.047  0.0180  0.1260 -0.0093
  533MOL0     C73456   2.520   8.678   1.912  0.6069  0.0144 -1.0140
  533MOL0     C73457   2.363   8.694   1.876  0.2256  0.4550  0.4502
  533MOL0     C73458   2.266   8.648   1.979 -0.0071 -0.3375  0.1197
  533MOL0     C73459   2.121   8.695   1.932 -0.7873 -1.0610  0.2714
  533MOL0     C73460   2.100   8.843   1.948  0.3593  0.7271  0.0363
  533MOL0    Cl73461   2.122   8.888   2.120 -0.4871  0.5178 -0.0756
  533MOL0     C73462   2.865   9.197   2.056 -0.3019  0.8117  0.4680
  533MOL0     C73463   2.935   9.286   2.134 -0.6098  0.5619 -0.5299
  533MOL0     O73464   2.906   9.491   2.375  0.0121  0.2432  0.7692
  533MOL0     C73465   3.067   9.647   2.534  0.1654 -0.1414  0.6095
  533MOL0     C73466   3.144   9.707   2.643  0.8945  0.1315  0.2932
  533MOL0     N73467   3.128  10.066   3.165 -0.5347 -0.1076  1.5291
  533MOL0     N73468   3.027  10.141   3.196 -0.6093  0.0767 -0.0628
  533MOL0     C73469   1.791   9.637   2.922  0.8238 -0.2545  0.7577
  533MOL0     C73470   1.659   9.597   2.953 -1.1159 -0.5935 -0.4282
  533MOL0     C73471   1.263   9.521   3.088 -0.0226  0.3772  0.1201
  533MOL0     C73472   1.237   9.591   3.216  0.3391  0.5029  0.6590
  533MOL0     C73473   1.105   9.628   3.250  0.7477  0.2036 -0.6858
  533MOL0     C73474   1.000   9.586   3.164 -0.4218  0.8102 -0.0599
  533MOL0     O73475   0.870   9.615   3.195  0.1656  0.6261 -0.0954
  533MOL0     C73476   0.769   9.593   3.092  0.9160 -0.6566  0.7441
  533MOL0     C73477   0.635   9.642   3.156 -0.6146  0.1588  0.4030
  533MOL0     C73478   0.642   9.793   3.185  0.3954  0.2919  0.4618
  533MOL0     C73479   0.525   9.842   3.261 -0.1161  0.5886  0.1626
  533MOL0     C73480   0.531   9.804   3.404 -0.8042  0.2801  0.6219
  533MOL0     C73481   0.574   9.786   3.519  0.1163  0.3096 -0.2572
  533MOL0     C73482   1.028   9.520   3.039  0.6899  0.7250  0.3933
  533MOL0     C73483   1.160   9.498   3.000  0.4778  0.5930  1.2140
  533MOL0     C73484   1.168   9.424   2.868 -0.0010  0.7387 -0.2875
  533MOL0     H73485   1.720   9.525   3.279  0.8774 -0.0938 -0.6821
  533MOL0     H73486   1.932   9.569   3.229 -1.6334  0.9359  1.4818
  533MOL0     H73487   2.105   9.450   2.961 -4.6826  0.1076  1.0411
  533MOL0     H73488   2.116   9.513   3.112 -0.5235 -0.1474 -0.0648
  533MOL0     H73489   2.337   9.521   2.974  0.3149 -0.8434  0.3950
  533MOL0     H73490   2.261   9.620   2.861 -1.6178 -0.3116  0.9221
  533MOL0     H73491   2.229   9.809   3.028 -0.1465  1.3319  2.9872
  533MOL0     H73492   2.302   9.725   3.147  0.3986 -0.6834  0.2639
  533MOL0     H73493   2.518   9.704   2.982  0.1542  0.9766  1.2678
  533MOL0     H73494   2.437   9.829   2.890 -1.2196  2.4880  1.1302
  533MOL0     H73495   2.510   9.816   3.200  1.7691  0.8709  0.1052
  533MOL0     H73496   2.415   9.946   3.128  0.6671  1.1636 -0.7305
  533MOL0     H73497   2.697   9.889   3.055  2.4165  3.2473 -0.1958
  533MOL0     H73498   2.603  10.024   2.991  2.6923  0.6093  0.0499
  533MOL0     H73499   2.677   9.981   3.284  0.8197  2.0872  1.1139
  533MOL0     H73500   2.571  10.098   3.224 -0.9486 -3.7197  1.9233
  533MOL0     H73501   2.768  10.174   3.066  2.1797  0.7498 -0.8017
  533MOL0     H73502   2.779  10.228   3.235 -0.4765  0.8021 -1.4341
  533MOL0     H73503   2.870   9.869   3.096 -2.5277  2.4806 -1.1422
  533MOL0     H73504   3.258   9.831   3.163 -2.1043 -3.8766  1.9575
  533MOL0     H73505   3.221   9.865   2.994 -0.2125  1.0445 -0.4524
  533MOL0     H73506   3.070   9.652   3.148 -1.3946 -0.8568 -0.8264
  533MOL0     H73507   3.068   9.701   2.975  2.4758  2.2889 -1.3513
  533MOL0     H73508   3.290   9.561   3.128 -1.0228 -2.1137 -0.3891
  533MOL0     H73509   3.193   9.511   2.992 -0.7380  1.0999 -1.2735
  533MOL0     H73510   3.437   9.692   2.981  1.4048 -4.1221  2.0774
  533MOL0     H73511   3.425   9.555   2.905  2.3392  1.6897  1.4297
  533MOL0     H73512   3.320   9.442   2.750  1.5596 -1.5439 -1.0699
  533MOL0     H73513   3.255   9.278   2.476  2.0101  0.7260  0.7493
  533MOL0     H73514   3.108   9.248   2.570 -1.5221  1.6575  2.8909
  533MOL0     H73515   3.256   9.253   2.654  0.8372  1.1011 -0.3939
  533MOL0     H73516   2.981   9.091   2.407 -0.7345  1.4529  1.0318
  533MOL0     H73517   2.876   8.927   2.265 -1.6393  0.8560  0.3946
  533MOL0     H73518   2.631   9.081   1.960  1.0297  0.3305 -3.1073
  533MOL0     H73519   2.674   8.931   1.872  1.5849 -0.1232 -0.0439
  533MOL0     H73520   2.562   8.931   2.162 -1.2214 -0.0165  0.7769
  533MOL0     H73521   2.455   8.914   2.017  0.5324 -3.5500  0.4706
  533MOL0     H73522   2.510   8.698   2.127  1.6567 -2.2405 -0.3399
  533MOL0     H73523   2.667   8.729   2.073  0.1181 -0.9446 -1.1755
  533MOL0     H73524   2.530   8.571   1.932 -1.9855  0.0496  1.0434
  533MOL0     H73525   2.581   8.716   1.829 -1.9877  1.8822 -2.1953
  533MOL0     H73526   2.347   8.801   1.865 -1.8340  0.2115  0.6850
  533MOL0     H73527   2.338   8.646   1.781 -0.2824  1.5659  0.0120
  533MOL0     H73528   2.289   8.677   2.082 -4.2146 -0.5070  1.2926
  533MOL0     H73529   2.263   8.539   1.981 -1.4050 -0.3249  0.2397
  533MOL0     H73530   2.042   8.643   1.987 -3.2965  0.6747 -1.5273
  533MOL0     H73531   2.103   8.669   1.828  2.9836  0.8571 -1.0640
  533MOL0     H73532   1.996   8.864   1.921  0.4729  2.4366  0.7710
  533MOL0     H73533   2.169   8.899   1.884  0.2866  1.9418  0.9824
  533MOL0     H73534   2.838   9.218   1.953  0.1929  4.1526  0.9215
  533MOL0     H73535   2.981   9.374   2.089  1.5560  0.9251  2.1291
  533MOL0     H73536   2.996   9.706   2.477 -0.8459 -2.0610 -0.2097
  533MOL0     H73537   3.140   9.813   2.665 -0.0886  0.3191 -0.6787
  533MOL0     H73538   1.799   9.687   2.826 -1.9414 -0.6845  0.1980
  533MOL0     H73539   1.582   9.623   2.881 -2.6788  2.8163  2.1538
  533MOL0     H73540   1.319   9.624   3.279  0.1826  1.5441  0.3281
  533MOL0     H73541   1.084   9.684   3.340  3.3002  0.8351 -0.3957
  533MOL0     H73542   0.784   9.662   3.008 -0.1374 -0.2310  0.8824
  533MOL0     H73543   0.763   9.491   3.054  2.1718 -0.2744 -0.5694
  533MOL0     H73544   0.601   9.582   3.241 -2.4223 -1.1936 -1.1666
  533MOL0     H73545   0.554   9.627   3.084  1.2725 -0.1319 -1.7945
  533MOL0     H73546   0.730   9.826   3.241  1.0792 -1.2997  0.3889
  533MOL0     H73547   0.643   9.855   3.095 -0.4561  1.5907  1.3213
  533MOL0     H73548   0.430   9.805   3.221 -0.3664 -1.6643  2.6126
  533MOL0     H73549   0.523   9.952   3.260  1.0726  0.6367 -1.3989
  533MOL0     H73550   0.617   9.788   3.617  0.5220  1.4155 -0.4530
  533MOL0     H73551   0.945   9.487   2.977  0.2164 -0.2116  1.4942
  533MOL0     H73552   1.092   9.447   2.793 -2.7659 -1.6410  1.5397
  533MOL0     H73553   1.264   9.438   2.818  0.9310 -1.1767  0.8492
  533MOL0     H73554   1.160   9.318   2.893  0.1539  0.8888  0.4362
  534MOL0     O73555   2.141   4.158   5.962  0.4233  0.6672 -0.1217
  534MOL0     C73556   2.114   4.203   6.071  1.1393 -0.0393 -0.1941
  534MOL0     O73557   2.133   4.148   6.192  0.3954  0.2222  0.0013
  534MOL0     C73558   2.200   4.027   6.195 -1.0650 -0.2672  0.0705
  534MOL0     C73559   2.144   3.914   6.124  0.3235  0.2120  0.8536
  534MOL0     C73560   2.205   3.792   6.141  0.0466 -0.7656  0.4005
  534MOL0     C73561   2.321   3.773   6.222  0.2758 -1.1777  0.9879
  534MOL0     O73562   2.392   3.655   6.228 -0.3247  0.3518  0.0241
  534MOL0     C73563   2.386   3.576   6.108 -0.3636  0.2388  0.3099
  534MOL0     C73564   2.487   3.461   6.124 -0.2729  0.1808  0.2899
  534MOL0     C73565   2.470   3.375   6.248 -0.4822  0.0912 -0.0362
  534MOL0     C73566   2.555   3.249   6.247 -0.9943 -0.1421 -0.1409
  534MOL0     C73567   2.710   3.257   6.234  0.3420  0.3353  0.0030
  534MOL0     C73568   2.773   3.116   6.233  0.2118 -0.4872 -0.2338
  534MOL0     C73569   2.921   3.129   6.232  0.6323 -0.8659  0.4945
  534MOL0     C73570   2.993   2.997   6.230 -1.5315  0.9837 -0.2824
  534MOL0     N73571   3.140   2.998   6.262 -0.4785  0.9019  0.0744
  534MOL0     C73572   3.238   3.062   6.198 -0.5045 -0.2184  0.5233
  534MOL0     C73573   3.353   3.019   6.255  0.8960 -0.3625  0.2611
  534MOL0     C73574   3.486   3.074   6.224 -0.1562 -0.3220  0.3457
  534MOL0     C73575   3.555   3.150   6.341 -0.2972  0.7046 -0.3491
  534MOL0     C73576   3.692   3.080   6.391  0.7872 -0.7080 -0.3095
  534MOL0     C73577   3.681   2.944   6.452 -0.2190  0.3214  0.8945
  534MOL0     O73578   3.793   2.931   6.539  0.3749 -0.2931 -0.3541
  534MOL0     C73579   3.922   2.910   6.505 -1.0726  0.0276  0.1437
  534MOL0     C73580   4.013   2.944   6.604 -0.6450  0.4211  1.2044
  534MOL0     C73581   4.151   2.942   6.590 -0.5609 -0.3302 -0.2331
  534MOL0     C73582   4.231   3.006   6.701 -0.5259 -0.0207  0.0184
  534MOL0     C73583   4.210   2.903   6.463 -0.2795 -1.0509 -0.7849
  534MOL0     C73584   4.354   2.911   6.431  0.1833 -0.0157 -0.9176
  534MOL0     O73585   4.437   2.910   6.536 -0.4835  0.5701  0.1179
  534MOL0     C73586   4.577   2.917   6.521 -0.2881  0.0467 -0.0600
  534MOL0     C73587   4.657   2.877   6.633 -0.1462  0.4791  0.5974
  534MOL0     C73588   4.798   2.871   6.617 -0.3890  0.5314 -0.2730
  534MOL0     C73589   4.862   2.908   6.505  0.4409  0.3959  0.8404
  534MOL0     O73590   4.998   2.894   6.512 -0.8447  0.4936  0.9129
  534MOL0     C73591   5.059   2.887   6.384  0.3466  0.6537 -0.3237
  534MOL0     C73592   5.208   2.869   6.390 -0.4257 -0.1933 -0.1942
  534MOL0     C73593   5.271   2.954   6.497 -0.2053 -0.1961 -0.3251
  534MOL0     C73594   5.424   2.918   6.516  0.4170  0.0300 -0.0684
  534MOL0     C73595   5.496   2.983   6.631 -0.5482 -0.0006  0.3064
  534MOL0     C73596   5.492   3.140   6.622 -0.1602  0.0911 -0.4334
  534MOL0     C73597   5.575   3.186   6.745  0.1871 -0.0220  0.5458
  534MOL0     C73598   5.554   3.334   6.780 -0.6808 -0.2494  0.2963
  534MOL0    Cl73599   5.592   3.446   6.640 -0.0112 -0.5800 -0.2736
  534MOL0     C73600   4.786   2.961   6.402 -0.2428 -1.0727  0.2919
  534MOL0     C73601   4.647   2.968   6.409 -0.3279 -0.2493 -0.3228
  534MOL0     O73602   4.386   2.914   6.311  0.7084  0.4212 -0.7256
  534MOL0     C73603   4.115   2.885   6.361  0.2382 -0.1448 -0.2781
  534MOL0     C73604   3.975   2.882   6.377 -0.6103  0.6767  0.0217
  534MOL0     N73605   3.323   2.912   6.337  0.2556 -0.1833  0.5331
  534MOL0     N73606   3.197   2.897   6.335  0.3362 -0.2857  0.6288
  534MOL0     C73607   2.373   3.880   6.285  0.6231 -0.0592 -0.1673
  534MOL0     C73608   2.308   4.006   6.280  0.7555  0.6592 -0.4408
  534MOL0     C73609   2.052   4.336   6.066 -0.6319 -0.2677 -0.6947
  534MOL0     C73610   2.026   4.399   6.190  1.2217 -0.8720  0.2308
  534MOL0     C73611   1.932   4.510   6.186 -0.5061 -0.4236 -0.0418
  534MOL0     C73612   1.899   4.578   6.072  1.0626 -0.7277  0.5832
  534MOL0     O73613   1.828   4.695   6.081  0.2538  0.1951  0.1175
  534MOL0     C73614   1.775   4.766   5.970 -0.6991 -0.1943  0.6308
  534MOL0     C73615   1.628   4.732   5.953  0.3045 -0.6362 -0.6984
  534MOL0     C73616   1.537   4.761   6.072 -0.1932  1.1428  0.4732
  534MOL0     C73617   1.533   4.900   6.123  0.1722  0.3052  0.0883
  534MOL0     C73618   1.498   5.010   6.032  0.0088 -0.5334 -0.1784
  534MOL0     C73619   1.486   5.103   5.956 -0.1502  0.0239 -0.1759
  534MOL0     C73620   1.949   4.531   5.951  0.0972 -1.5205  0.3030
  534MOL0     C73621   2.018   4.410   5.946 -0.1716  1.1350 -0.3089
  534MOL0     C73622   2.037   4.351   5.807  0.0810 -0.2888 -0.2223
  534MOL0     H73623   2.056   3.926   6.062 -0.2903  0.1526  1.7056
  534MOL0     H73624   2.171   3.711   6.079  1.2909  0.2434 -1.7216
  534MOL0     H73625   2.416   3.634   6.020 -0.2361 -0.8428 -0.3722
  534MOL0     H73626   2.282   3.548   6.089 -0.4820  0.9944 -0.2081
  534MOL0     H73627   2.480   3.391   6.040 -0.0179  2.9613 -2.2137
  534MOL0     H73628   2.586   3.506   6.120 -1.1674  2.2587 -0.0997
  534MOL0     H73629   2.502   3.434   6.334 -1.3911  0.4128  0.0829
  534MOL0     H73630   2.365   3.344   6.251 -0.7577  0.4494 -2.8407
  534MOL0     H73631   2.537   3.200   6.344  0.7214 -0.8844 -0.1591
  534MOL0     H73632   2.512   3.178   6.176 -1.0173  1.0139 -1.3058
  534MOL0     H73633   2.745   3.323   6.313 -1.5628  0.4770  0.7973
  534MOL0     H73634   2.732   3.308   6.140  0.3612 -1.3332 -0.9461
  534MOL0     H73635   2.732   3.069   6.323 -1.0035  2.4076  0.8601
  534MOL0     H73636   2.734   3.070   6.142 -1.5846 -0.4966  0.4900
  534MOL0     H73637   2.948   3.184   6.323  2.8308  0.6298 -0.9886
  534MOL0     H73638   2.950   3.189   6.146  0.8200 -3.5063 -1.3984
  534MOL0     H73639   2.953   2.915   6.291  2.0294  0.5701  1.7632
  534MOL0     H73640   2.982   2.970   6.124 -0.5860  0.5913 -0.2872
  534MOL0     H73641   3.222   3.142   6.128 -3.0778 -1.4480 -0.4285
  534MOL0     H73642   3.474   3.140   6.138  1.6598 -2.1319 -1.3938
  534MOL0     H73643   3.553   3.000   6.182  0.3243 -0.7086  1.7272
  534MOL0     H73644   3.585   3.250   6.309  0.0599  1.1437  1.2593
  534MOL0     H73645   3.491   3.169   6.428 -1.8053 -0.4845 -1.1505
  534MOL0     H73646   3.760   3.074   6.306 -1.7552 -2.4827 -2.3745
  534MOL0     H73647   3.728   3.158   6.459 -3.1794 -0.4599  1.8157
  534MOL0     H73648   3.587   2.941   6.507  0.2296 -0.3735  1.6551
  534MOL0     H73649   3.680   2.872   6.370 -3.1313  2.9220 -1.6169
  534MOL0     H73650   3.966   2.964   6.700 -1.8618  1.5198  0.4175
  534MOL0     H73651   4.174   3.063   6.775  0.3000  0.6395  0.1664
  534MOL0     H73652   4.305   3.072   6.654 -0.5748 -0.0397 -0.0820
  534MOL0     H73653   4.280   2.928   6.761 -1.3640 -0.2071  0.4847
  534MOL0     H73654   4.620   2.828   6.722 -1.1992  0.8321  0.3693
  534MOL0     H73655   4.855   2.824   6.696  1.7013 -0.7735 -2.4158
  534MOL0     H73656   5.011   2.804   6.330 -1.5882  2.3500 -1.3592
  534MOL0     H73657   5.032   2.970   6.318 -1.7834 -1.1406 -1.8723
  534MOL0     H73658   5.226   2.767   6.424 -0.6232  0.0979  0.8280
  534MOL0     H73659   5.256   2.878   6.293 -0.5629 -2.9746 -0.6097
  534MOL0     H73660   5.231   2.933   6.597  1.7558  0.1086  0.5542
  534MOL0     H73661   5.257   3.061   6.479 -0.2432 -0.3768 -1.4263
  534MOL0     H73662   5.478   2.949   6.426 -0.0601  0.6830 -0.1353
  534MOL0     H73663   5.438   2.811   6.534  2.1425  0.4718  1.5870
  534MOL0     H73664   5.443   2.945   6.719 -0.4091  0.7414  0.7168
  534MOL0     H73665   5.601   2.954   6.644 -0.3545  0.2820 -0.5822
  534MOL0     H73666   5.390   3.177   6.624  0.0918  0.7988 -0.3240
  534MOL0     H73667   5.537   3.167   6.526  0.5624 -1.8059 -0.6755
  534MOL0     H73668   5.680   3.178   6.715  1.1664  1.9194  3.1126
  534MOL0     H73669   5.555   3.136   6.840 -0.5995  2.4305  1.7428
  534MOL0     H73670   5.622   3.358   6.861 -2.7125 -2.5452  2.8860
  534MOL0     H73671   5.450   3.342   6.813 -1.0711 -1.5681 -0.5370
  534MOL0     H73672   4.824   3.006   6.310 -0.7552 -0.7965  0.2133
  534MOL0     H73673   4.598   3.016   6.325  0.7703 -1.6364 -1.8130
  534MOL0     H73674   4.151   2.856   6.263  1.0405  0.2709 -0.1124
  534MOL0     H73675   3.913   2.877   6.288  1.0798  0.2890 -1.1738
  534MOL0     H73676   2.458   3.867   6.351 -1.8475 -1.6991  2.9776
  534MOL0     H73677   2.346   4.095   6.330 -2.2603  2.6515 -1.4143
  534MOL0     H73678   2.055   4.351   6.283  0.7665 -1.2405  0.1879
  534MOL0     H73679   1.885   4.528   6.282  0.5037 -3.1052  1.0676
  534MOL0     H73680   1.792   4.872   5.990  0.1919 -0.4682  1.4114
  534MOL0     H73681   1.835   4.758   5.880 -1.0533 -1.0867  0.4612
  534MOL0     H73682   1.611   4.628   5.925 -0.9879  0.2868 -3.7603
  534MOL0     H73683   1.583   4.785   5.868 -3.2729 -0.7376  0.9446
  534MOL0     H73684   1.434   4.735   6.045  0.8807 -2.2882 -0.9026
  534MOL0     H73685   1.563   4.695   6.155 -1.4896 -2.3752 -1.7110
  534MOL0     H73686   1.639   4.915   6.148  0.9292 -0.2605 -2.4266
  534MOL0     H73687   1.467   4.913   6.209  0.7168  1.5344  0.3389
  534MOL0     H73688   1.484   5.177   5.878 -1.1379 -2.6791 -2.9092
  534MOL0     H73689   1.927   4.582   5.858  0.4586  1.1972  1.6214
  534MOL0     H73690   1.971   4.264   5.793 -1.1838  0.3047  1.6328
  534MOL0     H73691   2.012   4.413   5.720  2.1815  0.3930 -0.3856
  534MOL0     H73692   2.144   4.332   5.796  0.0023 -0.8945  0.0371
  535MOL0     O73693   3.564   6.947   2.237  0.3661 -0.5798  0.4899
  535MOL0     C73694   3.452   7.009   2.236 -0.0671  0.8313  0.2777
  535MOL0     O73695   3.441   7.143   2.249  0.5326  0.8559  0.5471
  535MOL0     C73696   3.549   7.218   2.256 -0.6987 -0.0356  0.0151
  535MOL0     C73697   3.635   7.239   2.146 -0.5986  1.0445 -0.9265
  535MOL0     C73698   3.739   7.321   2.169  0.3367 -0.4384 -0.7154
  535MOL0     C73699   3.757   7.387   2.295  1.0715 -0.5814  0.3551
  535MOL0     O73700   3.855   7.480   2.325 -0.1745 -0.0569 -0.0039
  535MOL0     C73701   3.945   7.494   2.211 -0.0472  0.6803 -1.3565
  535MOL0     C73702   4.070   7.572   2.251 -0.1405 -0.6217  0.2970
  535MOL0     C73703   4.161   7.510   2.355  0.0925  0.0820  0.5962
  535MOL0     C73704   4.292   7.591   2.358 -0.6418 -0.0498 -0.5709
  535MOL0     C73705   4.408   7.504   2.396 -0.5851  0.2991  0.1805
  535MOL0     C73706   4.541   7.583   2.404 -0.3336 -0.6608 -0.2368
  535MOL0     C73707   4.664   7.503   2.449  0.4274  0.5213  0.1793
  535MOL0     C73708   4.738   7.435   2.327 -0.0029  0.2443 -0.6172
  535MOL0     N73709   4.875   7.393   2.357 -0.0369  1.0573  0.0723
  535MOL0     C73710   4.969   7.343   2.276 -0.2237 -0.8877 -0.8472
  535MOL0     C73711   5.078   7.313   2.357  1.0157  0.1099  0.3345
  535MOL0     C73712   5.208   7.239   2.331  0.0332  0.3052 -0.5370
  535MOL0     C73713   5.311   7.310   2.245 -0.3398 -0.5467 -0.0637
  535MOL0     C73714   5.347   7.443   2.304  0.7317  0.3672  0.0617
  535MOL0     C73715   5.471   7.498   2.230  0.9720  0.1651  0.2090
  535MOL0     O73716   5.525   7.613   2.305 -0.1497  0.0519  0.2381
  535MOL0     C73717   5.625   7.694   2.258 -0.3883 -0.9317 -0.2457
  535MOL0     C73718   5.675   7.689   2.124 -0.2097 -0.4181 -0.2877
  535MOL0     C73719   5.785   7.771   2.082  0.9497 -0.5652 -1.0449
  535MOL0     C73720   5.826   7.773   1.934 -0.0212 -0.4075  0.0663
  535MOL0     C73721   5.862   7.840   2.177  0.2706 -0.0504 -0.1059
  535MOL0     C73722   5.983   7.919   2.141 -0.2839 -0.3415  0.2338
  535MOL0     O73723   6.062   7.941   2.251  0.0623 -0.3523  0.2298
  535MOL0     C73724   6.181   7.997   2.213  0.3539  1.1942 -0.9796
  535MOL0     C73725   6.203   8.133   2.170  1.4051 -0.3958 -0.0303
  535MOL0     C73726   6.317   8.167   2.100 -0.3018  0.6681  0.4851
  535MOL0     C73727   6.419   8.078   2.107  0.1475 -0.0945  0.7850
  535MOL0     O73728   6.541   8.104   2.048 -0.0056 -0.1422 -0.3367
  535MOL0     C73729   6.556   8.032   1.919  0.3762  0.9029  0.8856
  535MOL0     C73730   6.704   8.007   1.886  0.3212 -0.0471  0.5296
  535MOL0     C73731   6.714   7.957   1.744 -0.6172 -0.2825 -0.1338
  535MOL0     C73732   6.852   7.905   1.715  0.0001 -0.1184  0.2407
  535MOL0     C73733   6.876   7.868   1.576 -0.3605  0.1291 -0.4743
  535MOL0     C73734   6.908   7.981   1.480 -0.3303  0.1986  0.6735
  535MOL0     C73735   6.883   7.936   1.334 -0.3788 -0.4746  0.6855
  535MOL0     C73736   6.932   8.037   1.224  0.1186 -0.5986 -0.5828
  535MOL0    Cl73737   6.859   8.027   1.063 -0.1580  0.4490 -0.1343
  535MOL0     C73738   6.410   7.961   2.177 -0.3475 -0.0845 -0.5946
  535MOL0     C73739   6.286   7.907   2.222  0.1127 -0.1720  0.8892
  535MOL0     O73740   6.011   7.953   2.026 -0.2702  0.0738  0.7681
  535MOL0     C73741   5.813   7.835   2.305 -0.4000  0.7105  0.0303
  535MOL0     C73742   5.699   7.760   2.348 -0.3072  0.1544 -1.2308
  535MOL0     N73743   5.053   7.357   2.485  1.1759 -0.2498 -0.0666
  535MOL0     N73744   4.934   7.396   2.484  0.3777 -0.2655 -0.4171
  535MOL0     C73745   3.670   7.367   2.402 -0.5164 -0.2636  0.9500
  535MOL0     C73746   3.563   7.286   2.380 -0.6240  0.7461  0.8170
  535MOL0     C73747   3.326   6.923   2.215 -0.4731  0.1107  0.1485
  535MOL0     C73748   3.207   7.005   2.210 -0.6098  0.4706 -0.9099
  535MOL0     C73749   3.089   6.939   2.171 -0.6041 -0.2118  0.2654
  535MOL0     C73750   3.084   6.805   2.148 -0.2656 -0.1930 -0.9805
  535MOL0     O73751   2.972   6.728   2.132 -0.2810 -0.0481 -0.9037
  535MOL0     C73752   2.837   6.789   2.119  0.2915 -0.1924  0.3176
  535MOL0     C73753   2.777   6.801   2.264 -0.1166  0.7221  0.1608
  535MOL0     C73754   2.634   6.847   2.258 -0.5748  0.8594 -0.2163
  535MOL0     C73755   2.558   6.754   2.166  0.0614  0.5328 -0.1862
  535MOL0     C73756   2.415   6.787   2.174 -0.6546  0.1011  0.3483
  535MOL0     C73757   2.301   6.823   2.178 -0.8756 -0.2758 -0.1451
  535MOL0     C73758   3.201   6.725   2.158 -0.4827  0.1107 -0.3003
  535MOL0     C73759   3.326   6.783   2.188 -0.0731 -0.4980  0.0790
  535MOL0     C73760   3.451   6.695   2.187 -0.7770 -0.1881  0.9817
  535MOL0     H73761   3.631   7.178   2.057 -0.7358 -1.6713  0.8117
  535MOL0     H73762   3.787   7.340   2.074  1.5630 -1.8950 -0.4376
  535MOL0     H73763   3.890   7.541   2.129 -0.2952  0.3048 -1.4114
  535MOL0     H73764   3.977   7.393   2.182 -1.4486  0.1540 -1.1806
  535MOL0     H73765   4.127   7.590   2.159 -0.6513  1.9184  0.3912
  535MOL0     H73766   4.034   7.673   2.273  0.1148 -0.3308 -0.5634
  535MOL0     H73767   4.127   7.525   2.458  2.5071  0.2615  1.4395
  535MOL0     H73768   4.173   7.403   2.335 -0.2280  0.3915 -1.4607
  535MOL0     H73769   4.306   7.637   2.260  0.5496  0.5237 -0.1483
  535MOL0     H73770   4.293   7.668   2.435  0.3590  0.8612 -1.4629
  535MOL0     H73771   4.423   7.419   2.328 -1.3666  0.6134 -0.4033
  535MOL0     H73772   4.381   7.468   2.495 -1.9950  2.6071  0.7260
  535MOL0     H73773   4.556   7.629   2.306 -0.2054  0.6193  0.3589
  535MOL0     H73774   4.544   7.656   2.486  3.1547 -1.2616  0.3202
  535MOL0     H73775   4.639   7.422   2.518 -0.2913  1.4752  1.0631
  535MOL0     H73776   4.731   7.577   2.495  0.5235 -0.0484  0.9585
  535MOL0     H73777   4.688   7.341   2.303 -1.9259  0.5566  1.8038
  535MOL0     H73778   4.762   7.495   2.238  0.9537  0.7986 -0.0037
  535MOL0     H73779   4.952   7.318   2.172  0.8976  1.1703 -1.5859
  535MOL0     H73780   5.185   7.144   2.282 -0.7715 -0.7674  1.7816
  535MOL0     H73781   5.255   7.213   2.427 -1.6975  0.5343  0.4088
  535MOL0     H73782   5.395   7.243   2.226  2.1349  1.9626  1.1738
  535MOL0     H73783   5.261   7.337   2.151 -1.9169  3.4102  1.6815
  535MOL0     H73784   5.262   7.511   2.295  3.0821  3.6925  0.9761
  535MOL0     H73785   5.363   7.428   2.411  0.3058 -1.7188 -0.1370
  535MOL0     H73786   5.556   7.430   2.226  2.1000  1.4172  1.6018
  535MOL0     H73787   5.441   7.527   2.129  0.1624 -2.8945 -0.5256
  535MOL0     H73788   5.612   7.652   2.044 -2.3383  2.6588 -0.2375
  535MOL0     H73789   5.929   7.740   1.922 -0.3601 -1.0441 -1.2846
  535MOL0     H73790   5.824   7.875   1.895 -0.6531 -0.6297 -0.5156
  535MOL0     H73791   5.750   7.720   1.876  0.2641  0.0889 -0.7888
  535MOL0     H73792   6.131   8.214   2.180  2.6822  0.5697  1.9137
  535MOL0     H73793   6.327   8.269   2.062  1.0389  0.5381  0.4469
  535MOL0     H73794   6.510   7.933   1.912  0.6749  0.8325 -0.1773
  535MOL0     H73795   6.504   8.099   1.849  0.7181  1.6315  1.3138
  535MOL0     H73796   6.759   8.099   1.912  2.5366 -1.3699  0.8191
  535MOL0     H73797   6.744   7.928   1.950  4.6433  1.7058  0.3716
  535MOL0     H73798   6.692   8.046   1.685 -1.4360  0.2436  0.9324
  535MOL0     H73799   6.636   7.882   1.728 -2.5326  1.4202  0.7631
  535MOL0     H73800   6.874   7.820   1.781 -0.3087  0.2768  0.8683
  535MOL0     H73801   6.918   7.990   1.735 -0.7504  1.0541 -2.0153
  535MOL0     H73802   6.959   7.797   1.582 -0.1685  0.4414  0.7098
  535MOL0     H73803   6.794   7.809   1.534  0.6453 -0.2178 -2.0622
  535MOL0     H73804   7.014   8.007   1.493  1.5232 -4.7903 -1.7685
  535MOL0     H73805   6.846   8.065   1.512  0.2752  0.3750  1.4114
  535MOL0     H73806   6.776   7.915   1.326 -0.6556  0.7667  0.9252
  535MOL0     H73807   6.936   7.844   1.306  1.3772  0.6963  0.0335
  535MOL0     H73808   7.038   8.019   1.209  0.5508 -0.7167  2.1046
  535MOL0     H73809   6.920   8.139   1.262  1.2852 -0.3549 -0.8522
  535MOL0     H73810   6.493   7.893   2.192  0.8002  1.6769  1.4946
  535MOL0     H73811   6.280   7.808   2.266  0.4546 -0.2668  0.7308
  535MOL0     H73812   5.867   7.887   2.384  1.4049 -1.7320  0.5365
  535MOL0     H73813   5.663   7.766   2.451  0.0087 -1.1626 -1.0210
  535MOL0     H73814   3.679   7.416   2.498 -0.2677  5.7669 -1.6940
  535MOL0     H73815   3.481   7.278   2.451 -0.8659 -2.9950  0.3432
  535MOL0     H73816   3.204   7.112   2.230 -1.8957  0.9467 -3.2849
  535MOL0     H73817   2.994   6.992   2.172 -0.8100 -0.5914  0.6809
  535MOL0     H73818   2.833   6.887   2.070 -0.3290  1.0021  2.6241
  535MOL0     H73819   2.777   6.718   2.061 -2.2027  0.4409  1.9803
  535MOL0     H73820   2.834   6.865   2.333 -1.0611  0.3656  1.2953
  535MOL0     H73821   2.784   6.697   2.295  1.7435 -0.0714 -2.5848
  535MOL0     H73822   2.593   6.832   2.358 -0.5368  1.6129 -0.0787
  535MOL0     H73823   2.632   6.949   2.218  2.2960  0.8456 -0.6211
  535MOL0     H73824   2.582   6.653   2.200 -3.0350 -0.3428 -0.3020
  535MOL0     H73825   2.593   6.771   2.063  1.7651  1.4726  0.4868
  535MOL0     H73826   2.196   6.841   2.191 -2.0042 -3.6118 -3.0387
  535MOL0     H73827   3.196   6.618   2.139  0.3800  0.7208 -5.9631
  535MOL0     H73828   3.430   6.590   2.164 -0.2787  0.6955 -5.2766
  535MOL0     H73829   3.511   6.741   2.108 -1.1038 -0.9264  0.2894
  535MOL0     H73830   3.506   6.697   2.282  1.0685 -5.4494  0.3240
  536MOL0     O73831   1.855   3.321   4.212  0.3258 -0.3101 -0.2954
  536MOL0     C73832   1.862   3.395   4.115  0.3870 -0.6807  1.1724
  536MOL0     O73833   1.965   3.481   4.094  0.4991  1.2196  0.2614
  536MOL0     C73834   2.083   3.491   4.165 -1.2470  0.4684  0.0365
  536MOL0     C73835   2.096   3.471   4.301  0.2994 -0.6332 -0.3797
  536MOL0     C73836   2.204   3.513   4.373  0.2756 -0.9550  0.0176
  536MOL0     C73837   2.307   3.592   4.314 -0.4632 -0.5608 -1.3446
  536MOL0     O73838   2.407   3.650   4.393  0.4185 -0.5211  0.0602
  536MOL0     C73839   2.476   3.763   4.333 -0.0181  0.5042 -0.7304
  536MOL0     C73840   2.536   3.853   4.441  0.0313 -0.2491 -0.1966
  536MOL0     C73841   2.590   3.984   4.384 -0.6203  0.4185 -0.3455
  536MOL0     C73842   2.724   3.965   4.313 -0.4153 -0.4392  0.3221
  536MOL0     C73843   2.840   4.005   4.403  0.5342  0.2404  0.0938
  536MOL0     C73844   2.974   3.975   4.344 -0.3636  0.3116  0.4669
  536MOL0     C73845   3.096   4.005   4.438 -0.2442  0.3657 -0.6058
  536MOL0     C73846   3.207   3.904   4.406 -0.3867  0.4451 -0.2378
  536MOL0     N73847   3.332   3.942   4.474  0.4223  1.0177  0.1237
  536MOL0     C73848   3.382   4.063   4.489  0.2024  0.0732  0.0598
  536MOL0     C73849   3.489   4.046   4.574 -0.2095 -0.1604  0.1607
  536MOL0     C73850   3.583   4.165   4.600 -0.0066 -0.1752 -0.3993
  536MOL0     C73851   3.706   4.163   4.502  0.1480  0.6371  0.1102
  536MOL0     C73852   3.804   4.268   4.537 -0.7312 -0.1377 -0.6465
  536MOL0     C73853   3.931   4.302   4.455  1.0145  0.8507 -0.4180
  536MOL0     O73854   4.030   4.196   4.443  0.0549 -0.1405 -0.2133
  536MOL0     C73855   4.147   4.217   4.508 -0.1964  0.0411 -0.0724
  536MOL0     C73856   4.269   4.176   4.445  0.7986 -0.1095 -0.7704
  536MOL0     C73857   4.391   4.200   4.512  0.5432 -0.5253  0.3440
  536MOL0     C73858   4.514   4.169   4.426 -0.1366  0.7153  0.2887
  536MOL0     C73859   4.395   4.256   4.636  0.1522 -0.1449 -0.0029
  536MOL0     C73860   4.523   4.279   4.717  0.3829 -1.1656 -0.1312
  536MOL0     O73861   4.640   4.220   4.676  0.3014  0.2302 -0.6148
  536MOL0     C73862   4.765   4.243   4.723 -0.7853 -0.3252  0.4018
  536MOL0     C73863   4.798   4.360   4.786 -0.2721 -0.4479 -1.7778
  536MOL0     C73864   4.927   4.382   4.830 -0.5218 -0.0236  0.1958
  536MOL0     C73865   5.031   4.300   4.814 -0.0432 -0.5461  0.6691
  536MOL0     O73866   5.156   4.336   4.873 -0.0096  0.1410  0.5641
  536MOL0     C73867   5.268   4.254   4.840  0.0876  0.7993 -0.6196
  536MOL0     C73868   5.387   4.326   4.891 -0.1679 -0.2234 -0.1948
  536MOL0     C73869   5.511   4.269   4.822  0.6602 -0.9448 -1.2131
  536MOL0     C73870   5.647   4.326   4.881 -0.6781 -0.0690 -0.5544
  536MOL0     C73871   5.677   4.464   4.829  0.2313 -0.2132  0.7424
  536MOL0     C73872   5.753   4.566   4.926 -0.2305  0.5860 -0.7659
  536MOL0     C73873   5.900   4.531   4.961 -0.5641 -0.0472 -0.2171
  536MOL0     C73874   5.983   4.649   5.014 -0.1054 -0.0606 -0.2805
  536MOL0    Cl73875   6.140   4.588   5.088  0.4831 -0.7297 -0.1448
  536MOL0     C73876   5.000   4.177   4.746  0.2262  0.5392 -0.1657
  536MOL0     C73877   4.871   4.148   4.706 -0.7609  0.1250  1.1870
  536MOL0     O73878   4.515   4.338   4.821  0.0906  0.1712  0.0814
  536MOL0     C73879   4.273   4.281   4.698 -0.3487 -0.6382 -0.8359
  536MOL0     C73880   4.156   4.268   4.629  0.5577  0.4064 -0.3377
  536MOL0     N73881   3.488   3.918   4.625  0.6164 -0.0042 -0.0061
  536MOL0     N73882   3.392   3.858   4.549  0.3146 -0.5159 -0.5761
  536MOL0     C73883   2.307   3.607   4.174  0.0900  0.2248  0.2351
  536MOL0     C73884   2.194   3.565   4.100  0.3984  0.3750  0.0567
  536MOL0     C73885   1.750   3.384   4.012 -0.1326  0.1286  0.4713
  536MOL0     C73886   1.646   3.288   4.033  0.4868 -0.0646  0.3009
  536MOL0     C73887   1.530   3.290   3.946  0.1590  0.1501 -1.1569
  536MOL0     C73888   1.522   3.374   3.840 -0.6319 -0.1859  1.2617
  536MOL0     O73889   1.409   3.369   3.764  0.5628  0.2050  0.1381
  536MOL0     C73890   1.422   3.345   3.626 -0.3970  1.1111 -0.5414
  536MOL0     C73891   1.337   3.437   3.553  0.2674  1.3991  1.0130
  536MOL0     C73892   1.384   3.585   3.539 -0.0306  0.4030  0.1149
  536MOL0     C73893   1.368   3.671   3.672  0.3638  0.1423 -0.6623
  536MOL0     C73894   1.460   3.786   3.673  0.3091  0.7378 -0.5078
  536MOL0     C73895   1.534   3.880   3.660 -0.6258 -0.2613 -0.2557
  536MOL0     C73896   1.629   3.466   3.814 -1.2625 -0.3765  0.2902
  536MOL0     C73897   1.747   3.464   3.893 -0.2531 -1.3687  0.0541
  536MOL0     C73898   1.858   3.557   3.843 -0.5618 -0.3032  0.5988
  536MOL0     H73899   2.008   3.439   4.354  0.1952 -0.4957 -0.4681
  536MOL0     H73900   2.204   3.511   4.482  1.0554  0.9209  0.0889
  536MOL0     H73901   2.412   3.825   4.270 -0.3627  1.9194  0.9622
  536MOL0     H73902   2.550   3.722   4.263 -2.1020 -1.6778 -1.8370
  536MOL0     H73903   2.459   3.876   4.516 -0.1682  0.0715 -0.4996
  536MOL0     H73904   2.622   3.798   4.480  0.0673  0.7824  1.2525
  536MOL0     H73905   2.507   4.013   4.318 -1.0317 -2.9541 -1.4924
  536MOL0     H73906   2.608   4.054   4.467 -1.0941  1.3660 -1.0216
  536MOL0     H73907   2.739   3.863   4.277  0.5169  0.0273 -0.6559
  536MOL0     H73908   2.711   4.020   4.220 -4.4098 -0.9597  0.3673
  536MOL0     H73909   2.830   3.949   4.496  1.3891 -0.0395  0.0309
  536MOL0     H73910   2.820   4.111   4.424 -1.4662 -0.2363  0.7788
  536MOL0     H73911   2.981   3.875   4.300  0.6037  0.7436 -0.4124
  536MOL0     H73912   2.979   4.047   4.262 -3.0504  2.0231  1.6559
  536MOL0     H73913   3.064   3.993   4.542  0.8142  0.5201 -0.2505
  536MOL0     H73914   3.132   4.108   4.429 -1.1527  0.7650  0.0801
  536MOL0     H73915   3.176   3.802   4.433 -0.6885  0.1184 -1.6936
  536MOL0     H73916   3.222   3.912   4.298  1.8488 -2.0816 -0.2200
  536MOL0     H73917   3.353   4.156   4.441 -2.3672 -0.5162  0.3347
  536MOL0     H73918   3.606   4.164   4.707  1.6895  0.3039 -0.7326
  536MOL0     H73919   3.538   4.263   4.579  2.7029  0.5342 -3.8733
  536MOL0     H73920   3.747   4.063   4.488  0.2650  0.4998  1.3526
  536MOL0     H73921   3.667   4.189   4.403  2.0836  1.0989 -0.5666
  536MOL0     H73922   3.748   4.360   4.558 -1.2608 -0.6453  0.2447
  536MOL0     H73923   3.847   4.240   4.634  2.2251  0.0176 -1.8188
  536MOL0     H73924   3.889   4.324   4.356 -3.2456 -0.5486  0.8331
  536MOL0     H73925   3.976   4.394   4.493 -0.9854  2.5145 -1.8213
  536MOL0     H73926   4.257   4.145   4.342 -1.4169 -0.9987 -0.2984
  536MOL0     H73927   4.487   4.124   4.330 -2.5248  1.2777  0.6239
  536MOL0     H73928   4.564   4.088   4.480 -0.4850 -0.1767 -0.6952
  536MOL0     H73929   4.570   4.261   4.409 -0.7797  1.4395  1.8491
  536MOL0     H73930   4.727   4.441   4.789  0.1630 -0.0851  0.5204
  536MOL0     H73931   4.953   4.474   4.882  3.1726  0.1332 -1.5912
  536MOL0     H73932   5.262   4.148   4.866 -0.1464  0.5687 -1.5689
  536MOL0     H73933   5.275   4.266   4.731  1.3817 -1.0271 -0.7949
  536MOL0     H73934   5.378   4.432   4.867  2.7443 -0.0487 -0.9034
  536MOL0     H73935   5.397   4.322   5.000 -0.8733 -3.0540 -0.1627
  536MOL0     H73936   5.502   4.281   4.713  2.2164 -0.5018 -1.3161
  536MOL0     H73937   5.509   4.160   4.828 -0.2867 -0.8734  0.1954
  536MOL0     H73938   5.723   4.256   4.847 -0.1120 -0.5437  1.4996
  536MOL0     H73939   5.649   4.313   4.990 -0.8514 -0.2794 -0.5768
  536MOL0     H73940   5.738   4.462   4.738 -0.1811  1.5608  0.3927
  536MOL0     H73941   5.584   4.517   4.807  0.6163  0.5051  0.8298
  536MOL0     H73942   5.695   4.572   5.018  0.4330 -2.6758  0.0019
  536MOL0     H73943   5.770   4.659   4.872 -1.2875  0.5336 -1.2089
  536MOL0     H73944   5.941   4.492   4.867 -4.9054 -1.1770 -1.8961
  536MOL0     H73945   5.899   4.449   5.034  1.2513 -2.0783 -2.3162
  536MOL0     H73946   5.931   4.703   5.093 -1.4301 -0.1861 -1.0343
  536MOL0     H73947   5.998   4.720   4.932 -0.1404 -0.2560 -0.4567
  536MOL0     H73948   5.086   4.111   4.732  1.6845  2.0249  1.3210
  536MOL0     H73949   4.850   4.051   4.663  1.7635  0.4520 -1.0151
  536MOL0     H73950   4.278   4.322   4.799 -3.0955 -0.1398 -0.8374
  536MOL0     H73951   4.061   4.293   4.676  1.2668 -0.3373  1.5826
  536MOL0     H73952   2.393   3.643   4.118 -1.0291 -0.2514 -1.9114
  536MOL0     H73953   2.197   3.592   3.995  1.6181  2.6236  0.5991
  536MOL0     H73954   1.645   3.211   4.110  0.7202 -2.6963 -2.1756
  536MOL0     H73955   1.447   3.226   3.975 -0.6939  2.0847  0.9952
  536MOL0     H73956   1.525   3.348   3.590  0.0438 -1.6874  0.2801
  536MOL0     H73957   1.391   3.241   3.613 -2.0224  1.7002 -1.8034
  536MOL0     H73958   1.236   3.430   3.594  0.3946  2.7910  1.6116
  536MOL0     H73959   1.334   3.395   3.452 -0.0164  0.0256  1.5660
  536MOL0     H73960   1.489   3.589   3.509  0.6419  0.0547  2.2743
  536MOL0     H73961   1.343   3.651   3.462  1.3287  0.9599 -0.1503
  536MOL0     H73962   1.386   3.606   3.759  0.5126 -0.7915 -1.3724
  536MOL0     H73963   1.265   3.704   3.686 -0.0762 -1.6215  0.8056
  536MOL0     H73964   1.612   3.953   3.658  2.0211 -2.8427  1.5152
  536MOL0     H73965   1.620   3.525   3.724 -1.7160 -0.9882 -0.0760
  536MOL0     H73966   1.953   3.503   3.845 -1.0526 -1.1597  1.1257
  536MOL0     H73967   1.845   3.584   3.738 -0.7935  0.4849  0.8194
  536MOL0     H73968   1.877   3.648   3.901  2.6230 -0.0380 -0.6728
  537MOL0     O73969   2.382   5.089   0.254  0.9240  0.2936 -0.6385
  537MOL0     C73970   2.309   5.131   0.346 -0.2034 -0.0534  0.9026
  537MOL0     O73971   2.324   5.248   0.409  0.4077 -0.5310  0.8647
  537MOL0     C73972   2.436   5.326   0.406  0.2586 -0.6739  0.6712
  537MOL0     C73973   2.417   5.467   0.391  0.5512  0.5272  0.1390
  537MOL0     C73974   2.522   5.553   0.392  0.0012 -0.7531  1.0131
  537MOL0     C73975   2.658   5.514   0.399 -0.1381  0.2045 -0.1370
  537MOL0     O73976   2.757   5.604   0.390  0.4120  1.0814  0.1184
  537MOL0     C73977   2.889   5.568   0.326 -0.1492  0.0219 -0.7105
  537MOL0     C73978   2.897   5.628   0.188  0.7811 -0.4079  0.2801
  537MOL0     C73979   2.789   5.572   0.084  0.5591  0.6815  0.4710
  537MOL0     C73980   2.792   5.423   0.073  0.4694 -0.2128 -0.1446
  537MOL0     C73981   2.666   5.376   0.006  0.5200  0.1471  1.0365
  537MOL0     C73982   2.673   5.231  -0.037 -0.6740  0.8976  0.4031
  537MOL0     C73983   2.668   5.146   0.094  0.7058 -0.2866  0.0145
  537MOL0     C73984   2.659   4.992   0.068 -0.9806  0.1009 -0.6995
  537MOL0     N73985   2.753   4.945  -0.037  0.4390 -0.1654 -0.0609
  537MOL0     C73986   2.882   4.977  -0.040 -0.7670  0.0694  0.7198
  537MOL0     C73987   2.928   4.919  -0.158  0.1219  0.7912  0.0775
  537MOL0     C73988   3.057   4.953  -0.224 -0.1066 -0.5478 -0.5448
  537MOL0     C73989   3.032   5.085  -0.292 -0.3229  0.7802 -0.2178
  537MOL0     C73990   3.074   5.203  -0.200  0.4356 -0.6127 -0.2583
  537MOL0     C73991   3.220   5.244  -0.190  0.9164  0.7882 -0.6841
  537MOL0     O73992   3.288   5.265  -0.317  0.0690 -0.2124 -0.8244
  537MOL0     C73993   3.422   5.251  -0.330  0.5981  0.5631  0.1761
  537MOL0     C73994   3.507   5.284  -0.226 -0.1286 -0.6442 -0.1475
  537MOL0     C73995   3.645   5.284  -0.248  0.7399 -0.2481 -0.3759
  537MOL0     C73996   3.751   5.325  -0.140  0.3141  0.4441  0.1095
  537MOL0     C73997   3.699   5.244  -0.375 -0.5867  0.0930  0.2986
  537MOL0     C73998   3.836   5.235  -0.420 -0.1869  0.1432 -0.5237
  537MOL0     O73999   3.859   5.150  -0.526 -0.2940  0.2442 -0.0331
  537MOL0     C74000   3.978   5.115  -0.586  0.3042 -0.1400  0.5652
  537MOL0     C74001   3.969   5.102  -0.725  0.0745 -0.6675  0.5603
  537MOL0     C74002   4.090   5.079  -0.800  0.1635  0.1976 -0.6578
  537MOL0     C74003   4.213   5.064  -0.736  0.3373 -0.3708  0.4557
  537MOL0     O74004   4.315   5.018  -0.814  0.7865 -0.1794  0.0508
  537MOL0     C74005   4.443   4.991  -0.756  1.2677  0.1626  0.3378
  537MOL0     C74006   4.537   4.936  -0.866  0.3857 -0.1240  0.1455
  537MOL0     C74007   4.497   4.798  -0.919  0.0653  0.2931 -0.2718
  537MOL0     C74008   4.500   4.688  -0.800 -0.4702 -0.7821  0.3394
  537MOL0     C74009   4.499   4.551  -0.869  0.0821 -0.2620 -0.7534
  537MOL0     C74010   4.445   4.456  -0.763  0.0392  0.1013 -1.3035
  537MOL0     C74011   4.436   4.312  -0.810 -0.7191 -0.3562 -0.1751
  537MOL0     C74012   4.351   4.228  -0.713  0.1820 -0.0049 -0.6447
  537MOL0    Cl74013   4.388   4.048  -0.763 -0.3412  0.2470  0.4274
  537MOL0     C74014   4.213   5.074  -0.598  0.4888  0.0811 -0.1788
  537MOL0     C74015   4.096   5.092  -0.523 -0.7640  0.1129  1.2488
  537MOL0     O74016   3.922   5.307  -0.369 -0.7136 -0.7426  0.1853
  537MOL0     C74017   3.612   5.204  -0.476 -0.2010  0.0617 -0.2166
  537MOL0     C74018   3.473   5.206  -0.450 -0.8424 -0.3283 -0.0599
  537MOL0     N74019   2.821   4.849  -0.216 -0.4469 -0.2062 -0.8285
  537MOL0     N74020   2.722   4.868  -0.145  0.3251  0.3374  0.5170
  537MOL0     C74021   2.681   5.373   0.413  0.5893  0.1119 -1.9426
  537MOL0     C74022   2.569   5.273   0.420  0.9991 -1.2063  0.0240
  537MOL0     C74023   2.194   5.047   0.382  0.2342 -0.5008 -1.5532
  537MOL0     C74024   2.197   4.910   0.343  0.6709  1.0079  0.8443
  537MOL0     C74025   2.099   4.820   0.375 -0.4018 -0.8625 -0.4911
  537MOL0     C74026   1.996   4.866   0.462 -0.5189 -0.6998 -0.2133
  537MOL0     O74027   1.911   4.771   0.499  0.5909  1.0550 -1.0495
  537MOL0     C74028   1.823   4.779   0.612 -0.2303 -0.0630  0.3792
  537MOL0     C74029   1.879   4.835   0.742  0.3853  0.2754 -0.6580
  537MOL0     C74030   1.790   4.796   0.864 -0.0742 -0.1175  0.2567
  537MOL0     C74031   1.648   4.844   0.854 -1.0197  0.1545 -0.8808
  537MOL0     C74032   1.581   4.788   0.974  0.6944 -0.2064  1.3403
  537MOL0     C74033   1.525   4.734   1.064  0.0286  0.3663  0.5094
  537MOL0     C74034   1.984   5.004   0.495  0.3825  1.0315  0.6391
  537MOL0     C74035   2.079   5.093   0.454 -0.8604 -0.4741 -0.1641
  537MOL0     C74036   2.057   5.239   0.488  0.7228  0.8337 -0.1767
  537MOL0     H74037   2.317   5.509   0.385  1.0251  1.4345 -3.3906
  537MOL0     H74038   2.509   5.659   0.372 -2.0502 -0.8855  1.3962
  537MOL0     H74039   2.908   5.460   0.332 -0.6601 -0.1073 -1.3046
  537MOL0     H74040   2.963   5.614   0.392  1.0206 -1.9458 -0.5488
  537MOL0     H74041   2.886   5.737   0.184 -0.5871 -0.5437 -0.2675
  537MOL0     H74042   2.996   5.621   0.143  1.0022  2.5341  0.0775
  537MOL0     H74043   2.691   5.601   0.124  0.2126 -2.1685  1.9424
  537MOL0     H74044   2.795   5.611  -0.017 -2.9647  1.9980  0.6031
  537MOL0     H74045   2.884   5.409   0.016  0.6153  0.2431 -0.0296
  537MOL0     H74046   2.802   5.382   0.174 -0.8047  1.7297  0.8539
  537MOL0     H74047   2.649   5.436  -0.084 -0.3056  0.5685  1.4712
  537MOL0     H74048   2.574   5.399   0.060 -0.3685 -0.1795 -0.2921
  537MOL0     H74049   2.593   5.209  -0.109  0.3581  2.1024 -1.1516
  537MOL0     H74050   2.761   5.204  -0.095 -0.5164 -2.6905  2.0003
  537MOL0     H74051   2.581   5.180   0.152  0.8181  1.4715 -0.8021
  537MOL0     H74052   2.758   5.175   0.148  0.2756  2.0995 -0.4381
  537MOL0     H74053   2.706   4.955   0.160 -0.7536  1.2242 -0.3457
  537MOL0     H74054   2.555   4.961   0.057 -1.0338 -0.9465  1.9944
  537MOL0     H74055   2.936   5.043   0.027  1.6726  0.4471 -1.4479
  537MOL0     H74056   3.081   4.883  -0.305  2.3744  0.4143 -0.6992
  537MOL0     H74057   3.135   4.941  -0.149 -0.6585  1.9071  0.5138
  537MOL0     H74058   3.097   5.085  -0.380  2.4086 -0.1931  1.6314
  537MOL0     H74059   2.931   5.098  -0.331 -1.4736 -0.3322  2.1937
  537MOL0     H74060   3.018   5.294  -0.224  2.3058  0.8486  0.6654
  537MOL0     H74061   3.040   5.187  -0.097  0.6214 -1.1497 -0.2738
  537MOL0     H74062   3.224   5.333  -0.126  0.7533  1.5493 -1.7048
  537MOL0     H74063   3.262   5.163  -0.130  1.1258  1.3016 -0.1287
  537MOL0     H74064   3.461   5.317  -0.134  3.9241  2.4029  1.0542
  537MOL0     H74065   3.826   5.246  -0.130 -0.4584 -0.4894 -1.0984
  537MOL0     H74066   3.710   5.351  -0.042  1.6964  3.4094  0.0229
  537MOL0     H74067   3.802   5.414  -0.180  0.5113 -0.1779 -1.0651
  537MOL0     H74068   3.872   5.127  -0.767 -0.8033 -1.3991  2.0463
  537MOL0     H74069   4.079   5.086  -0.908 -5.3279 -0.5564 -0.4119
  537MOL0     H74070   4.484   5.086  -0.722 -0.8295  1.3625 -0.2726
  537MOL0     H74071   4.426   4.920  -0.675 -2.8882  1.7072  1.0750
  537MOL0     H74072   4.537   5.014  -0.942 -2.1273  0.4609  0.6569
  537MOL0     H74073   4.639   4.926  -0.827  0.1252 -5.0065  0.2063
  537MOL0     H74074   4.569   4.768  -0.995  1.1255  0.8115  0.4984
  537MOL0     H74075   4.399   4.799  -0.967  0.5966  2.3377 -1.4538
  537MOL0     H74076   4.416   4.702  -0.731 -1.0191 -0.1599 -0.4390
  537MOL0     H74077   4.589   4.701  -0.737 -1.3245 -1.6887  1.8116
  537MOL0     H74078   4.430   4.560  -0.953  1.0381  1.2710 -1.4171
  537MOL0     H74079   4.592   4.512  -0.910 -0.7959 -1.4337 -1.6998
  537MOL0     H74080   4.351   4.497  -0.727  1.1519 -0.0932  2.1608
  537MOL0     H74081   4.511   4.464  -0.676  1.0633  0.0024 -2.0416
  537MOL0     H74082   4.537   4.270  -0.816 -0.1594  0.8499  0.4905
  537MOL0     H74083   4.385   4.309  -0.907 -0.0624 -1.7287 -0.5170
  537MOL0     H74084   4.249   4.268  -0.717  0.2944  0.2245 -1.4108
  537MOL0     H74085   4.378   4.238  -0.608 -1.1217  0.7565 -0.3557
  537MOL0     H74086   4.302   5.058  -0.538  0.9922 -2.4355 -1.4545
  537MOL0     H74087   4.089   5.082  -0.415  1.8470 -2.1345  1.3289
  537MOL0     H74088   3.640   5.175  -0.577  0.4536  3.0003 -0.9718
  537MOL0     H74089   3.407   5.176  -0.531  0.0522  0.8101 -1.2461
  537MOL0     H74090   2.777   5.330   0.437 -1.4076 -3.0320  1.3733
  537MOL0     H74091   2.578   5.167   0.439  0.9295 -1.9348 -3.3040
  537MOL0     H74092   2.292   4.875   0.303  0.1008 -1.6250  1.5659
  537MOL0     H74093   2.094   4.712   0.361  3.8748 -1.0756 -1.6645
  537MOL0     H74094   1.735   4.839   0.586  0.4248  1.0133  0.5697
  537MOL0     H74095   1.783   4.680   0.633 -1.2692 -0.5353 -3.2065
  537MOL0     H74096   1.886   4.943   0.730  2.1922 -0.0630 -3.9349
  537MOL0     H74097   1.981   4.798   0.755 -0.2310 -1.1960  0.2642
  537MOL0     H74098   1.795   4.688   0.878 -3.0698 -0.4013 -0.1906
  537MOL0     H74099   1.838   4.837   0.954 -1.4593 -1.5226  1.6917
  537MOL0     H74100   1.611   4.812   0.756 -0.8273 -1.7554 -0.3647
  537MOL0     H74101   1.652   4.953   0.861 -0.6903  0.3457 -3.2662
  537MOL0     H74102   1.469   4.701   1.150  1.9624  1.1778  2.1785
  537MOL0     H74103   1.904   5.043   0.558 -2.1015 -0.3127 -1.4823
  537MOL0     H74104   2.064   5.306   0.401  0.3155  1.3809  0.2077
  537MOL0     H74105   1.958   5.264   0.527  0.3138 -0.2438 -0.4800
  537MOL0     H74106   2.140   5.267   0.553  1.6588 -2.4096  0.2135
  538MOL0     O74107  10.483   4.286   4.965  0.4282  0.3307  0.5595
  538MOL0     C74108  10.500   4.209   5.061 -0.4127 -0.5675 -0.3137
  538MOL0     O74109  10.591   4.113   5.061  0.3112  0.3540 -0.4667
  538MOL0     C74110  10.693   4.136   4.970 -0.3803 -0.0641 -0.3223
  538MOL0     C74111  10.798   4.221   5.003 -0.1972 -0.7061 -0.0225
  538MOL0     C74112  10.901   4.235   4.907  0.1979 -0.2307 -0.1296
  538MOL0     C74113  10.896   4.177   4.784 -1.3131  0.2983  0.1331
  538MOL0     O74114  10.999   4.214   4.698  0.4475  0.0575 -0.5148
  538MOL0     C74115  10.989   4.198   4.554 -0.9403 -0.3619  0.3278
  538MOL0     C74116  11.109   4.243   4.474  0.4778  0.0934  0.9087
  538MOL0     C74117  11.238   4.163   4.511  0.3096 -0.1990 -0.3457
  538MOL0     C74118  11.353   4.182   4.417 -0.2492 -0.1391 -0.3318
  538MOL0     C74119  11.484   4.123   4.474  1.2125  0.4517 -0.7423
  538MOL0     C74120  11.587   4.098   4.362 -0.5012 -0.5154  0.6373
  538MOL0     C74121  11.687   4.217   4.360 -0.1214 -0.5625 -0.0463
  538MOL0     C74122  11.790   4.199   4.470 -0.2549  0.5311  0.2833
  538MOL0     N74123  11.906   4.289   4.480  0.1160 -0.0864  1.1693
  538MOL0     C74124  11.908   4.420   4.454 -0.3577 -0.1394 -0.0449
  538MOL0     C74125  12.045   4.455   4.451  0.9099 -0.2292 -0.2036
  538MOL0     C74126  12.110   4.586   4.430  0.2153  0.5783  0.5489
  538MOL0     C74127  12.210   4.619   4.545 -0.2668 -0.0245  0.1725
  538MOL0     C74128  12.233   4.770   4.564  0.3265  0.6427  0.1257
  538MOL0     C74129  12.318   4.828   4.454 -0.5001  0.6337  0.3758
  538MOL0     O74130  12.446   4.763   4.449  0.8425 -0.2356 -0.1795
  538MOL0     C74131  12.529   4.811   4.543  0.3779  0.5508 -0.1471
  538MOL0     C74132  12.652   4.738   4.540  1.1077  0.2050 -0.6983
  538MOL0     C74133  12.768   4.775   4.621  0.4200  0.7526  1.0486
  538MOL0     C74134  12.887   4.679   4.597  0.5165 -0.5118 -1.5632
  538MOL0     C74135  12.754   4.889   4.700  0.0197 -0.3800 -0.7651
  538MOL0     C74136  12.865   4.942   4.788  0.9204  0.0075 -0.0138
  538MOL0     O74137  12.991   4.878   4.776  0.3030  0.5782  0.4063
  538MOL0     C74138  13.099   4.887   4.864 -0.6734 -0.2437  0.0584
  538MOL0     C74139  13.086   4.902   5.006  0.1258 -0.4208 -1.0141
  538MOL0     C74140  13.204   4.898   5.081 -0.3520 -0.2652  0.5265
  538MOL0     C74141  13.334   4.885   5.022  0.7629 -1.1469  0.4246
  538MOL0     O74142  13.450   4.907   5.090  0.4090 -0.1975  0.8509
  538MOL0     C74143  13.445   4.972   5.222  0.8674  1.3081  0.0003
  538MOL0     C74144  13.589   5.004   5.264  0.3558  0.5418 -0.1931
  538MOL0     C74145  13.581   5.086   5.388  0.2464 -0.6737  0.8841
  538MOL0     C74146  13.712   5.117   5.453 -0.4885  0.3664  0.6668
  538MOL0     C74147  13.715   5.224   5.558  0.4536 -0.9092  0.6011
  538MOL0     C74148  13.854   5.270   5.594  0.3109  0.3417 -0.3602
  538MOL0     C74149  13.841   5.406   5.651  0.2408  0.4412  0.0970
  538MOL0     C74150  13.748   5.412   5.769  0.0371 -0.4747 -0.6495
  538MOL0    Cl74151  13.820   5.310   5.912  0.3549 -0.0758  0.4136
  538MOL0     C74152  13.336   4.869   4.878 -0.4294 -0.0511 -0.9000
  538MOL0     C74153  13.221   4.862   4.798 -0.6603 -0.7929  0.3624
  538MOL0     O74154  12.842   5.037   4.860 -0.2632 -0.0661  0.2364
  538MOL0     C74155  12.628   4.954   4.702 -0.0776 -0.2038  0.6635
  538MOL0     C74156  12.517   4.922   4.627 -0.2182  0.1467 -0.0350
  538MOL0     N74157  12.114   4.335   4.473  0.4867  0.0114 -0.8744
  538MOL0     N74158  12.031   4.242   4.493  0.0403  0.0154  0.4943
  538MOL0     C74159  10.792   4.090   4.755  0.5357 -0.4592  0.4615
  538MOL0     C74160  10.693   4.062   4.850  1.1328 -0.3535 -0.0012
  538MOL0     C74161  10.400   4.199   5.175 -0.7627 -0.0811  0.4479
  538MOL0     C74162  10.265   4.244   5.155 -0.4510 -0.2937 -0.1713
  538MOL0     C74163  10.177   4.252   5.254  0.3234 -0.5481 -0.2219
  538MOL0     C74164  10.211   4.204   5.384  1.2266 -0.2386  0.1889
  538MOL0     O74165  10.117   4.204   5.480  0.6833 -0.1892  0.7264
  538MOL0     C74166  10.074   4.078   5.523  0.1089  0.1626 -0.3186
  538MOL0     C74167   9.936   4.049   5.467 -0.0164 -0.0696  0.3096
  538MOL0     C74168   9.839   4.165   5.454  0.5423  0.5119 -0.7230
  538MOL0     C74169   9.788   4.225   5.577 -0.8231 -0.2814  0.6345
  538MOL0     C74170   9.707   4.128   5.650 -0.7552 -0.9568  0.0176
  538MOL0     C74171   9.622   4.062   5.700  0.3590 -0.3331 -0.1586
  538MOL0     C74172  10.334   4.157   5.405  0.2968  0.3014 -0.5306
  538MOL0     C74173  10.433   4.150   5.306  0.5052  0.1827  0.3643
  538MOL0     C74174  10.564   4.080   5.338 -0.4830  0.7815  0.0568
  538MOL0     H74175  10.797   4.276   5.096  3.4477 -1.0352  0.3389
  538MOL0     H74176  10.968   4.315   4.938 -0.8669  0.2431  1.0794
  538MOL0     H74177  10.903   4.257   4.520 -0.6171  1.1190  1.8885
  538MOL0     H74178  10.983   4.091   4.538  3.6924 -0.9952  1.3072
  538MOL0     H74179  11.095   4.230   4.367  0.9464 -2.3539  1.1051
  538MOL0     H74180  11.121   4.352   4.480  0.1878  0.2401 -0.7101
  538MOL0     H74181  11.271   4.194   4.610  0.4807  4.1764 -1.5575
  538MOL0     H74182  11.208   4.057   4.515 -0.5338  0.0188 -0.6224
  538MOL0     H74183  11.333   4.138   4.319  3.0039 -1.4525 -0.5373
  538MOL0     H74184  11.366   4.290   4.405 -0.2089  0.1023  1.5434
  538MOL0     H74185  11.455   4.030   4.524  1.5468  0.9721  0.4474
  538MOL0     H74186  11.525   4.183   4.556  0.0955  0.2174  0.0102
  538MOL0     H74187  11.636   4.000   4.367 -2.7219 -1.6377  1.8060
  538MOL0     H74188  11.532   4.095   4.268  0.5070  1.1815 -0.0534
  538MOL0     H74189  11.639   4.315   4.368  0.0223 -0.1819 -2.8761
  538MOL0     H74190  11.750   4.217   4.270  1.8217 -0.1290  1.2389
  538MOL0     H74191  11.737   4.207   4.565  0.3103 -0.3566  0.6848
  538MOL0     H74192  11.824   4.095   4.466  0.2830  0.7153 -0.0996
  538MOL0     H74193  11.827   4.491   4.445 -0.2452  0.7838  4.0294
  538MOL0     H74194  12.039   4.667   4.412  0.1319  1.0411  2.6743
  538MOL0     H74195  12.165   4.594   4.336 -2.7756  0.0074 -1.3663
  538MOL0     H74196  12.177   4.564   4.634 -0.3733  0.7152  0.5971
  538MOL0     H74197  12.311   4.581   4.527  0.7426  0.3459  4.0747
  538MOL0     H74198  12.142   4.831   4.562 -0.1229 -0.0376 -0.9509
  538MOL0     H74199  12.282   4.789   4.661  1.3167 -0.9571 -0.0243
  538MOL0     H74200  12.276   4.816   4.354 -1.6011 -1.7082  1.0507
  538MOL0     H74201  12.329   4.936   4.467  1.5218  0.4845  0.2408
  538MOL0     H74202  12.646   4.655   4.470 -1.9446 -0.9968  0.8139
  538MOL0     H74203  12.856   4.595   4.535 -4.0495 -1.5350  1.6118
  538MOL0     H74204  12.912   4.656   4.701 -0.9277  1.7203 -0.6471
  538MOL0     H74205  12.975   4.733   4.559 -0.4593 -0.3449 -3.7314
  538MOL0     H74206  12.986   4.906   5.049  1.5203  2.1358  2.4489
  538MOL0     H74207  13.195   4.903   5.189 -1.1161  3.6487  0.4214
  538MOL0     H74208  13.391   5.067   5.214  1.3367  1.4819 -1.5045
  538MOL0     H74209  13.394   4.906   5.292  0.9934 -0.6917 -1.7003
  538MOL0     H74210  13.632   4.905   5.286 -0.6106  0.1215 -0.1579
  538MOL0     H74211  13.651   5.051   5.187 -0.6980  0.3074 -1.2087
  538MOL0     H74212  13.523   5.028   5.460  1.0064 -0.1139  1.9814
  538MOL0     H74213  13.529   5.182   5.379  3.9512  1.4712 -0.1276
  538MOL0     H74214  13.783   5.136   5.372  0.4765 -0.8881  1.1949
  538MOL0     H74215  13.751   5.024   5.496 -0.7030 -0.3272 -0.5936
  538MOL0     H74216  13.672   5.306   5.501 -0.9338 -1.0901  1.3507
  538MOL0     H74217  13.651   5.187   5.639  0.0209 -0.6177  0.3950
  538MOL0     H74218  13.910   5.292   5.503  0.1462  0.8114 -0.3489
  538MOL0     H74219  13.911   5.194   5.648  1.1802  1.2695  0.0503
  538MOL0     H74220  13.802   5.471   5.572 -0.7335 -0.9842 -0.6287
  538MOL0     H74221  13.944   5.433   5.674  0.2476  0.1352  0.4445
  538MOL0     H74222  13.645   5.382   5.750 -0.5796  0.8616  0.3576
  538MOL0     H74223  13.758   5.517   5.800  2.6984 -1.0567  0.8331
  538MOL0     H74224  13.443   4.862   4.862 -0.3732 -0.6320 -0.3153
  538MOL0     H74225  13.212   4.835   4.693  1.2140 -1.0499  0.2251
  538MOL0     H74226  12.613   5.039   4.768  0.9610  2.6575 -2.5317
  538MOL0     H74227  12.430   4.985   4.636  2.1490  3.7629 -0.4995
  538MOL0     H74228  10.798   4.043   4.657  4.2949 -1.5323  1.0350
  538MOL0     H74229  10.616   3.988   4.829  0.8457 -0.2067  0.5246
  538MOL0     H74230  10.229   4.282   5.060  0.3465 -0.0789 -0.3970
  538MOL0     H74231  10.081   4.291   5.221  0.9048 -0.0922 -1.4500
  538MOL0     H74232  10.143   3.994   5.509 -2.2357 -2.0234  0.4168
  538MOL0     H74233  10.068   4.086   5.632  1.6258 -1.5785 -0.0526
  538MOL0     H74234   9.882   3.966   5.513  0.2571  0.8243  2.3413
  538MOL0     H74235   9.959   4.019   5.364  0.7553  1.6159 -0.0326
  538MOL0     H74236   9.880   4.239   5.385 -0.3425 -0.1447 -1.9989
  538MOL0     H74237   9.754   4.121   5.401 -0.9906  1.6167  0.7407
  538MOL0     H74238   9.729   4.311   5.544  1.7001  0.5330 -2.2937
  538MOL0     H74239   9.869   4.260   5.641 -0.4651 -2.4557  1.4556
  538MOL0     H74240   9.539   4.013   5.747 -0.5298 -1.0975 -2.3848
  538MOL0     H74241  10.342   4.109   5.502 -3.1484 -0.3495 -0.4383
  538MOL0     H74242  10.569   4.067   5.447 -0.2350  0.9821  0.0715
  538MOL0     H74243  10.588   3.989   5.282  1.1568 -0.2636  2.3067
  538MOL0     H74244  10.643   4.148   5.305  1.7187 -2.6732 -2.4826
  539MOL0     O74245   5.853   6.694   9.625  0.4539  0.3196 -0.2705
  539MOL0     C74246   5.898   6.765   9.707 -0.2294 -0.9643  0.1767
  539MOL0     O74247   6.030   6.810   9.706  0.1530 -0.1946 -0.1053
  539MOL0     C74248   6.123   6.741   9.635  0.2141 -0.3824 -0.9578
  539MOL0     C74249   6.200   6.655   9.710  0.3272  0.1075 -0.0980
  539MOL0     C74250   6.310   6.587   9.659 -0.6768 -0.6708  0.1291
  539MOL0     C74251   6.324   6.580   9.516 -0.1617 -0.9978 -0.5328
  539MOL0     O74252   6.426   6.515   9.459 -0.1801  0.0403  0.2530
  539MOL0     C74253   6.446   6.515   9.315 -0.2129 -0.9113  1.1260
  539MOL0     C74254   6.574   6.447   9.264 -1.4539  0.2719  0.2069
  539MOL0     C74255   6.701   6.518   9.316  0.6680 -0.2089 -0.0710
  539MOL0     C74256   6.822   6.462   9.241  0.1057 -0.2571  0.2772
  539MOL0     C74257   6.948   6.525   9.288 -0.1423 -0.3196  0.2163
  539MOL0     C74258   7.053   6.455   9.208 -0.2507  0.5958 -0.1534
  539MOL0     C74259   7.186   6.533   9.231 -0.3999  0.4486 -0.4690
  539MOL0     C74260   7.279   6.529   9.109 -0.4901 -0.0906  0.6388
  539MOL0     N74261   7.224   6.580   8.984 -0.2809  0.3397  0.2077
  539MOL0     C74262   7.185   6.506   8.883 -0.1376 -0.4605 -0.1597
  539MOL0     C74263   7.127   6.591   8.793  0.0652 -0.5747 -0.8305
  539MOL0     C74264   7.051   6.551   8.668  0.8104  0.3667 -0.0843
  539MOL0     C74265   6.906   6.598   8.669  0.6933 -0.2368  0.3264
  539MOL0     C74266   6.872   6.720   8.576 -0.8464  0.8105 -0.0456
  539MOL0     C74267   6.731   6.775   8.595  0.0771  0.1332  0.0202
  539MOL0     O74268   6.662   6.721   8.483 -0.9628 -0.0658 -0.6423
  539MOL0     C74269   6.531   6.704   8.513  0.2659 -0.4214 -0.4424
  539MOL0     C74270   6.452   6.814   8.555  0.3461  0.0747  0.5247
  539MOL0     C74271   6.312   6.804   8.567  0.1276  0.2113 -0.3210
  539MOL0     C74272   6.245   6.912   8.643  0.0425 -0.0038  0.0503
  539MOL0     C74273   6.251   6.692   8.504  0.1219 -0.2050  0.5525
  539MOL0     C74274   6.112   6.674   8.505  0.0479  0.3794 -0.5935
  539MOL0     O74275   6.038   6.783   8.479  0.1918 -0.7236  0.3080
  539MOL0     C74276   5.898   6.781   8.482  0.7948 -0.2627 -0.1591
  539MOL0     C74277   5.839   6.897   8.528  0.2290  1.2776  0.4566
  539MOL0     C74278   5.698   6.911   8.539  0.5257  0.2085  0.0124
  539MOL0     C74279   5.610   6.805   8.514 -0.3110  0.2694  0.2857
  539MOL0     O74280   5.473   6.819   8.526  0.5146  0.0705 -0.2391
  539MOL0     C74281   5.409   6.928   8.596  0.3235 -0.4721 -0.3630
  539MOL0     C74282   5.267   6.900   8.604 -0.4634 -0.0960  0.3123
  539MOL0     C74283   5.184   6.953   8.478  0.2547 -0.6405 -0.5597
  539MOL0     C74284   5.143   6.841   8.382  0.6677  0.1924  0.5838
  539MOL0     C74285   5.073   6.888   8.251 -0.8280  0.3374 -0.1736
  539MOL0     C74286   4.962   6.987   8.276 -0.2036  0.5416  0.5811
  539MOL0     C74287   4.886   7.013   8.136 -0.0590  1.1928 -0.1968
  539MOL0     C74288   4.864   7.159   8.112 -0.0157 -0.5615 -0.1055
  539MOL0    Cl74289   4.744   7.176   7.982  0.3194 -0.2718  0.3526
  539MOL0     C74290   5.662   6.679   8.482 -0.3649 -0.1466 -0.2174
  539MOL0     C74291   5.808   6.674   8.459  0.2658  0.3781 -0.4001
  539MOL0     O74292   6.069   6.562   8.514 -0.5508  0.2856 -0.7255
  539MOL0     C74293   6.331   6.587   8.451  1.0062  0.8761  1.0820
  539MOL0     C74294   6.469   6.597   8.452 -0.0990 -0.5831 -0.7666
  539MOL0     N74295   7.143   6.722   8.847  0.9849 -0.7441  0.5136
  539MOL0     N74296   7.200   6.708   8.959  0.6368  0.3028  0.3653
  539MOL0     C74297   6.235   6.663   9.441 -0.5935  0.1133 -0.4220
  539MOL0     C74298   6.144   6.742   9.502 -0.4672 -0.5731 -0.2727
  539MOL0     C74299   5.807   6.829   9.811 -0.4722  0.0892 -0.8773
  539MOL0     C74300   5.868   6.924   9.888 -1.0497  0.0816 -0.4393
  539MOL0     C74301   5.803   7.006   9.986  0.7414  0.5432  0.2447
  539MOL0     C74302   5.672   6.971  10.015 -0.0747  1.4513 -0.9319
  539MOL0     O74303   5.621   7.037  10.125 -0.5537  0.5457 -0.0059
  539MOL0     C74304   5.479   7.065  10.128  1.1250  0.1734 -0.5101
  539MOL0     C74305   5.450   7.192  10.202 -0.0006 -0.3188 -0.2826
  539MOL0     C74306   5.511   7.318  10.139 -0.7787  0.4213  0.4374
  539MOL0     C74307   5.469   7.447  10.212  0.2990  0.0210  0.2382
  539MOL0     C74308   5.468   7.440  10.357  0.1462 -0.6050  0.7373
  539MOL0     C74309   5.467   7.412  10.478  0.3692 -0.0422  0.7493
  539MOL0     C74310   5.600   6.876   9.944 -0.6184 -0.1125  0.3500
  539MOL0     C74311   5.671   6.802   9.832  0.4726 -0.3689 -0.2900
  539MOL0     C74312   5.593   6.692   9.763  0.1367  0.0097 -0.3582
  539MOL0     H74313   6.190   6.652   9.818 -0.6427 -0.3033 -0.1889
  539MOL0     H74314   6.374   6.528   9.724 -0.4706  2.0074  2.5648
  539MOL0     H74315   6.437   6.615   9.273 -0.5465 -1.4109 -0.0294
  539MOL0     H74316   6.364   6.460   9.269  0.0056 -0.1724 -0.2035
  539MOL0     H74317   6.583   6.339   9.279 -0.7973  0.2630 -0.2140
  539MOL0     H74318   6.579   6.463   9.156 -0.2238  0.0025  0.2134
  539MOL0     H74319   6.687   6.626   9.300 -0.2409 -0.3964 -0.5892
  539MOL0     H74320   6.709   6.503   9.424 -0.6308  0.5623  0.1510
  539MOL0     H74321   6.829   6.354   9.258  0.8955 -0.5738 -1.8546
  539MOL0     H74322   6.818   6.479   9.133  0.6338 -3.0593 -0.2680
  539MOL0     H74323   6.970   6.530   9.395 -0.0358  1.9339  0.1362
  539MOL0     H74324   6.955   6.627   9.247 -1.4630 -1.3130 -2.8089
  539MOL0     H74325   7.073   6.352   9.237 -0.5794  0.0981 -1.6290
  539MOL0     H74326   7.034   6.437   9.102 -1.0080  1.1900 -0.1282
  539MOL0     H74327   7.238   6.480   9.311  0.4193 -2.3898 -2.6983
  539MOL0     H74328   7.173   6.637   9.263  0.4138  0.1939  0.7520
  539MOL0     H74329   7.355   6.605   9.130  0.3317 -0.2065 -1.6163
  539MOL0     H74330   7.328   6.433   9.092 -0.1106  0.4744 -1.7723
  539MOL0     H74331   7.181   6.398   8.866 -2.5568 -0.5749  0.7596
  539MOL0     H74332   7.062   6.444   8.650  3.2352  0.2603  1.5040
  539MOL0     H74333   7.100   6.605   8.587  0.9460  0.3216 -0.0327
  539MOL0     H74334   6.842   6.515   8.638 -2.1202  1.5498  0.9762
  539MOL0     H74335   6.875   6.618   8.772 -1.4160  0.5948 -0.4136
  539MOL0     H74336   6.945   6.798   8.603  1.7527 -1.4493 -0.0604
  539MOL0     H74337   6.890   6.683   8.475 -1.0679 -3.5428  1.3068
  539MOL0     H74338   6.684   6.759   8.692  0.1746 -0.3634 -0.0110
  539MOL0     H74339   6.728   6.884   8.587 -2.5427  0.1447  0.4057
  539MOL0     H74340   6.500   6.905   8.590  1.2890  0.0561 -0.6794
  539MOL0     H74341   6.314   6.956   8.716 -1.1787 -0.4973  1.5690
  539MOL0     H74342   6.169   6.861   8.704 -2.0334  0.0534 -2.3363
  539MOL0     H74343   6.197   6.991   8.586  1.2471  0.6627 -0.0766
  539MOL0     H74344   5.903   6.979   8.561 -2.2292  2.4877  2.6238
  539MOL0     H74345   5.652   6.994   8.592  0.0937 -0.8237  1.3226
  539MOL0     H74346   5.444   6.932   8.700 -0.4903 -0.6134 -0.0758
  539MOL0     H74347   5.441   7.018   8.542 -0.5796 -0.9755 -1.8035
  539MOL0     H74348   5.248   6.794   8.622  0.1694 -0.2903 -0.1007
  539MOL0     H74349   5.239   6.955   8.693  3.2052 -0.6550  1.9972
  539MOL0     H74350   5.239   7.034   8.429 -1.2652  0.1445 -1.0372
  539MOL0     H74351   5.094   6.987   8.531  1.4348 -2.0708  2.6091
  539MOL0     H74352   5.075   6.772   8.433 -0.6407 -1.4113 -2.9219
  539MOL0     H74353   5.226   6.778   8.351 -0.0826 -0.4460 -0.1871
  539MOL0     H74354   5.146   6.930   8.182  0.5510 -0.8711  0.5070
  539MOL0     H74355   5.020   6.808   8.199 -3.5770  1.4791  0.6787
  539MOL0     H74356   5.000   7.079   8.322 -0.2769  1.6766 -1.5312
  539MOL0     H74357   4.885   6.951   8.345  2.0603 -1.2540  2.3317
  539MOL0     H74358   4.787   6.967   8.141  0.7516 -0.8316 -1.5888
  539MOL0     H74359   4.936   6.959   8.055 -0.5537  0.8795 -0.2979
  539MOL0     H74360   4.963   7.204   8.101 -0.8881  1.1277 -1.4417
  539MOL0     H74361   4.823   7.220   8.193 -1.5485 -1.0590 -0.4727
  539MOL0     H74362   5.590   6.602   8.456  1.8218 -2.5851  0.5215
  539MOL0     H74363   5.862   6.586   8.426  0.3474 -0.0150  0.7418
  539MOL0     H74364   6.288   6.498   8.406  0.9655  0.3196  2.2020
  539MOL0     H74365   6.540   6.527   8.407  2.5135  0.7154  1.0839
  539MOL0     H74366   6.229   6.664   9.333  0.9923 -0.5683 -0.5397
  539MOL0     H74367   6.097   6.815   9.436 -0.5598 -0.3398  0.0468
  539MOL0     H74368   5.976   6.930   9.892 -0.9113 -1.3579 -1.2252
  539MOL0     H74369   5.843   7.080  10.056 -3.0560 -0.0725  3.3941
  539MOL0     H74370   5.420   7.066  10.036  1.1099 -1.6831 -0.5603
  539MOL0     H74371   5.430   6.984  10.182  1.6503  0.1768 -0.0168
  539MOL0     H74372   5.480   7.183  10.307 -0.1730  2.4419  0.0976
  539MOL0     H74373   5.342   7.210  10.198  0.3568  1.9124 -3.6605
  539MOL0     H74374   5.618   7.293  10.141 -1.2688 -1.8885  0.9421
  539MOL0     H74375   5.495   7.330  10.031  3.2092  4.2197 -0.0121
  539MOL0     H74376   5.371   7.482  10.179 -0.7712 -0.9902  2.1215
  539MOL0     H74377   5.543   7.523  10.187  1.1260 -1.4884 -2.1929
  539MOL0     H74378   5.464   7.366  10.575  0.2872 -1.8036 -0.0420
  539MOL0     H74379   5.502   6.837   9.970 -0.3330  0.1589  1.9217
  539MOL0     H74380   5.606   6.594   9.808 -3.3194 -1.0629 -1.3759
  539MOL0     H74381   5.487   6.707   9.786 -0.5703 -1.0430 -2.6916
  539MOL0     H74382   5.612   6.690   9.655  2.7747  1.4174 -0.0198
  540MOL0     O74383   7.775   0.880   9.224  0.5290 -0.7972 -0.2136
  540MOL0     C74384   7.814   0.766   9.233  0.6590  0.3560  1.0928
  540MOL0     O74385   7.933   0.721   9.180  0.2349 -0.2223 -0.8717
  540MOL0     C74386   8.001   0.811   9.096  0.0639 -0.0342 -0.7560
  540MOL0     C74387   8.107   0.889   9.139  0.1526  0.3045  0.0246
  540MOL0     C74388   8.177   0.977   9.053  0.1936  1.3280 -0.4429
  540MOL0     C74389   8.156   0.975   8.920  0.4217 -0.5563  0.3921
  540MOL0     O74390   8.225   1.045   8.823  0.3161  0.3270  0.3822
  540MOL0     C74391   8.355   1.106   8.837  0.4150  0.5995 -0.6008
  540MOL0     C74392   8.400   1.177   8.709 -0.3268 -0.0718 -0.7404
  540MOL0     C74393   8.550   1.221   8.714  1.2050  0.8218 -0.7341
  540MOL0     C74394   8.578   1.329   8.833  1.4492  0.3115 -0.5482
  540MOL0     C74395   8.502   1.459   8.811  0.7173 -0.2981 -0.5535
  540MOL0     C74396   8.578   1.582   8.865 -0.0089 -0.5645  0.2089
  540MOL0     C74397   8.508   1.717   8.851  0.1423 -0.0311 -0.1717
  540MOL0     C74398   8.587   1.819   8.924  0.3567 -0.1332  0.6354
  540MOL0     N74399   8.712   1.844   8.841 -0.0649  0.6212  0.5980
  540MOL0     C74400   8.722   1.928   8.737  0.1569  0.2229 -0.3190
  540MOL0     C74401   8.848   1.912   8.694  0.4276 -0.2727 -0.1454
  540MOL0     C74402   8.914   1.968   8.571 -0.7320 -0.6504 -0.6071
  540MOL0     C74403   8.992   2.095   8.595 -0.1018  0.4042 -0.2589
  540MOL0     C74404   9.093   2.108   8.480  0.2440 -0.4404  0.4074
  540MOL0     C74405   9.167   2.242   8.501 -0.1286 -0.1638  0.4702
  540MOL0     O74406   9.256   2.246   8.388  0.5317  0.1687  0.0632
  540MOL0     C74407   9.390   2.247   8.417 -0.2115  0.4628 -0.5541
  540MOL0     C74408   9.450   2.182   8.525 -0.0013  0.4427  0.0679
  540MOL0     C74409   9.589   2.190   8.528  0.4848  0.0071 -0.5433
  540MOL0     C74410   9.651   2.094   8.625  0.5684  0.3843 -0.9936
  540MOL0     C74411   9.671   2.270   8.448  0.6530  0.4201 -0.2529
  540MOL0     C74412   9.811   2.302   8.482  0.8624  1.1961 -0.2285
  540MOL0     O74413   9.885   2.344   8.382 -0.4514  0.1318  0.6187
  540MOL0     C74414  10.019   2.360   8.379 -0.1662  0.6310  0.7249
  540MOL0     C74415  10.069   2.421   8.269 -0.2460 -0.4160 -0.0798
  540MOL0     C74416  10.209   2.421   8.235 -0.4044 -0.2253 -0.6002
  540MOL0     C74417  10.308   2.357   8.331  0.0970  0.5379 -0.3834
  540MOL0     O74418  10.443   2.338   8.310 -1.1641 -0.1645  0.3100
  540MOL0     C74419  10.505   2.201   8.340 -0.1059 -0.5235  0.2141
  540MOL0     C74420  10.434   2.078   8.281  0.2364 -0.0449  0.2765
  540MOL0     C74421  10.385   2.077   8.130 -0.5169  0.4770 -0.1155
  540MOL0     C74422  10.267   1.982   8.113  0.7800  0.8161 -1.1266
  540MOL0     C74423  10.131   2.049   8.144 -0.9696 -0.1832 -0.3446
  540MOL0     C74424  10.018   1.949   8.156 -0.4448  0.8351 -0.7151
  540MOL0     C74425   9.895   2.008   8.222  1.0559  0.3351  0.4419
  540MOL0     C74426   9.781   1.904   8.201 -0.0896 -0.2362 -0.6025
  540MOL0    Cl74427   9.625   1.979   8.227 -0.2376  0.4047  0.3857
  540MOL0     C74428  10.252   2.296   8.449  0.1355  0.2994 -0.2742
  540MOL0     C74429  10.115   2.298   8.475  0.1203 -0.7003  0.2829
  540MOL0     O74430   9.849   2.302   8.599 -0.1921  0.4391  0.0920
  540MOL0     C74431   9.609   2.333   8.338 -0.8549  0.3200  0.3331
  540MOL0     C74432   9.467   2.317   8.321 -1.0044 -0.0827 -0.0893
  540MOL0     N74433   8.912   1.829   8.785 -0.3532 -0.2518 -0.9723
  540MOL0     N74434   8.826   1.781   8.863 -0.3605 -0.0661  0.6738
  540MOL0     C74435   8.040   0.907   8.875  0.1914  0.8011 -0.4445
  540MOL0     C74436   7.971   0.816   8.958 -0.1682  0.2379  0.7280
  540MOL0     C74437   7.728   0.675   9.310 -0.2201 -0.6638 -0.2068
  540MOL0     C74438   7.591   0.679   9.294 -0.1923 -0.1425 -0.0494
  540MOL0     C74439   7.504   0.586   9.343 -0.3627  1.1732 -0.2158
  540MOL0     C74440   7.557   0.486   9.430 -0.1159 -0.7241 -1.2451
  540MOL0     O74441   7.481   0.383   9.486  0.2665 -0.0265  0.7650
  540MOL0     C74442   7.354   0.353   9.429 -0.0627  0.0029  0.2938
  540MOL0     C74443   7.321   0.207   9.465  0.6520 -0.1744 -0.7286
  540MOL0     C74444   7.412   0.108   9.389  0.2396 -0.4874 -1.0370
  540MOL0     C74445   7.389  -0.033   9.444  0.1033 -0.0775 -0.6457
  540MOL0     C74446   7.250  -0.082   9.423  0.7023  0.8174  0.6219
  540MOL0     C74447   7.137  -0.093   9.389 -1.0549  1.1229 -0.2137
  540MOL0     C74448   7.700   0.483   9.461 -0.0022  0.0672  0.1705
  540MOL0     C74449   7.779   0.571   9.394 -0.0139  0.4403 -0.9336
  540MOL0     C74450   7.926   0.564   9.422 -0.2196  0.3814  0.4135
  540MOL0     H74451   8.142   0.874   9.241  2.2649 -1.6130 -0.8869
  540MOL0     H74452   8.249   1.045   9.097  0.7695 -0.1790  1.0719
  540MOL0     H74453   8.420   1.025   8.873 -0.2161  1.2460  2.2026
  540MOL0     H74454   8.345   1.178   8.919  1.0344  1.3126 -1.1244
  540MOL0     H74455   8.379   1.105   8.630 -1.9027 -0.9852  0.4645
  540MOL0     H74456   8.342   1.268   8.692  2.2138  1.9673  0.8596
  540MOL0     H74457   8.617   1.137   8.735  0.9097  1.0878  1.4280
  540MOL0     H74458   8.575   1.266   8.617 -0.4872 -0.2670 -1.7236
  540MOL0     H74459   8.544   1.291   8.930 -2.2440 -2.4915 -2.6357
  540MOL0     H74460   8.685   1.347   8.819  1.1733  1.4049 -1.4667
  540MOL0     H74461   8.397   1.463   8.842  0.6131  0.5945 -0.9644
  540MOL0     H74462   8.504   1.474   8.702 -0.9665  2.3730 -0.3213
  540MOL0     H74463   8.594   1.563   8.971 -0.1884  0.4097  0.4239
  540MOL0     H74464   8.668   1.585   8.803 -0.1936 -3.1188 -0.2735
  540MOL0     H74465   8.409   1.695   8.890 -0.1922 -1.6696 -1.7842
  540MOL0     H74466   8.487   1.749   8.749  0.6456  1.8895  0.2908
  540MOL0     H74467   8.529   1.905   8.959 -0.0171 -0.8380  1.8104
  540MOL0     H74468   8.621   1.770   9.016  0.8896 -1.6703 -0.3481
  540MOL0     H74469   8.650   1.992   8.687 -2.1177 -1.3673  0.7561
  540MOL0     H74470   8.838   1.986   8.495 -2.0841  0.9775  1.0315
  540MOL0     H74471   8.976   1.886   8.534 -2.4711 -1.9184 -0.8941
  540MOL0     H74472   8.928   2.182   8.612 -0.2853  0.2918 -0.3707
  540MOL0     H74473   9.047   2.085   8.689  0.7292  2.4521 -0.4723
  540MOL0     H74474   9.165   2.026   8.480  0.7792  0.0169  0.0030
  540MOL0     H74475   9.036   2.111   8.387 -0.8974 -2.7250  0.9832
  540MOL0     H74476   9.096   2.325   8.506  0.4411  0.3612  0.1448
  540MOL0     H74477   9.219   2.260   8.596 -0.6376  3.7293  0.1672
  540MOL0     H74478   9.386   2.123   8.589  0.5195  0.8917  1.0317
  540MOL0     H74479   9.652   2.129   8.729  1.7540  0.3074 -0.9690
  540MOL0     H74480   9.750   2.064   8.591  0.3865  0.8728 -1.9899
  540MOL0     H74481   9.600   1.998   8.629  0.4116  0.4907  0.2345
  540MOL0     H74482  10.003   2.464   8.194  0.4710  2.4435  0.7822
  540MOL0     H74483  10.254   2.459   8.144  1.4316 -0.6355  0.0811
  540MOL0     H74484  10.603   2.204   8.293 -0.3399  4.6669 -0.5523
  540MOL0     H74485  10.507   2.192   8.449 -0.1720 -0.4340  0.2229
  540MOL0     H74486  10.500   1.991   8.290  0.6741  0.1391 -1.0303
  540MOL0     H74487  10.344   2.054   8.339  1.3083 -1.0306  1.6131
  540MOL0     H74488  10.471   2.038   8.075 -0.1216 -0.7160  1.2775
  540MOL0     H74489  10.372   2.181   8.100  2.8055  1.2214  0.6783
  540MOL0     H74490  10.277   1.899   8.183 -1.2600  1.7494  0.3625
  540MOL0     H74491  10.267   1.931   8.016 -0.5034 -0.4255 -0.5089
  540MOL0     H74492  10.141   2.098   8.242  1.4523 -1.1991 -0.0177
  540MOL0     H74493  10.106   2.126   8.070 -0.3532 -0.7251 -1.1387
  540MOL0     H74494  10.054   1.873   8.226  1.8456  2.5413  0.0771
  540MOL0     H74495   9.993   1.906   8.058 -1.0728 -1.8859  0.5455
  540MOL0     H74496   9.864   2.100   8.171 -0.7650 -1.4696 -1.9491
  540MOL0     H74497   9.907   2.023   8.330  3.4277  1.0983  0.1333
  540MOL0     H74498   9.791   1.817   8.266  0.4478  0.2620 -0.0079
  540MOL0     H74499   9.777   1.872   8.096 -0.8141  3.5241 -1.8925
  540MOL0     H74500  10.316   2.240   8.516 -1.0517  0.4319  1.0198
  540MOL0     H74501  10.078   2.242   8.560  1.0074 -2.3246 -0.3307
  540MOL0     H74502   9.662   2.403   8.274  0.0183 -0.9678 -0.3823
  540MOL0     H74503   9.413   2.360   8.238  1.3420  1.4893 -0.8939
  540MOL0     H74504   8.011   0.911   8.771 -1.4664 -3.0811 -0.3435
  540MOL0     H74505   7.877   0.773   8.925 -0.6705  2.5589 -1.1508
  540MOL0     H74506   7.551   0.748   9.221  1.5720  1.0056  0.0260
  540MOL0     H74507   7.402   0.588   9.307 -0.6960 -0.7550  0.4751
  540MOL0     H74508   7.284   0.427   9.468 -0.5343  1.4325 -2.9436
  540MOL0     H74509   7.352   0.372   9.322  0.5010  1.1270  0.4662
  540MOL0     H74510   7.218   0.187   9.435  1.2494 -1.6985 -1.8707
  540MOL0     H74511   7.331   0.200   9.574 -1.2416  1.4372 -0.3832
  540MOL0     H74512   7.378   0.111   9.285 -0.1117  1.3838 -0.9014
  540MOL0     H74513   7.519   0.130   9.387  0.6939 -2.4648 -3.0775
  540MOL0     H74514   7.410  -0.044   9.551 -0.7009  2.1482 -0.2082
  540MOL0     H74515   7.463  -0.095   9.393  0.0553 -0.5038 -0.2052
  540MOL0     H74516   7.032  -0.093   9.366 -1.0141 -0.8998 -0.5782
  540MOL0     H74517   7.736   0.407   9.530  0.7916 -0.0215 -0.3260
  540MOL0     H74518   7.969   0.665   9.421  0.1894  0.2102  0.6339
  540MOL0     H74519   7.951   0.527   9.521  0.0619 -1.3476 -0.2673
  540MOL0     H74520   7.983   0.502   9.353  3.0011  0.3271  2.9324
  541MOL0     O74521   7.847   1.927   7.352  0.1065  0.1836  0.2821
  541MOL0     C74522   7.882   1.941   7.233  0.2076  0.5346  0.3786
  541MOL0     O74523   7.998   1.894   7.181 -0.7338 -0.2799 -0.7097
  541MOL0     C74524   8.110   1.892   7.262  0.0040  0.1470  0.2676
  541MOL0     C74525   8.196   1.779   7.247  0.3844 -0.7307 -0.1264
  541MOL0     C74526   8.320   1.769   7.312  0.1755  0.0238  0.2317
  541MOL0     C74527   8.366   1.873   7.401 -0.2377  0.0713  0.2975
  541MOL0     O74528   8.465   1.853   7.490  0.3268 -0.4374 -0.5302
  541MOL0     C74529   8.591   1.839   7.429  0.5721  0.4824  0.3982
  541MOL0     C74530   8.695   1.835   7.541  0.5373 -0.1979  0.1094
  541MOL0     C74531   8.719   1.690   7.584 -0.1827  0.8891 -0.3923
  541MOL0     C74532   8.809   1.658   7.706 -0.2511  0.2044  0.5246
  541MOL0     C74533   8.880   1.521   7.682  0.7174  0.5477 -0.7561
  541MOL0     C74534   8.963   1.499   7.811 -0.7845 -0.0547 -0.5931
  541MOL0     C74535   9.080   1.409   7.797 -0.0022 -0.1526  0.3945
  541MOL0     C74536   9.166   1.404   7.924  0.6887 -0.3436 -0.0820
  541MOL0     N74537   9.239   1.277   7.919 -0.0781 -0.3392  0.4271
  541MOL0     C74538   9.373   1.266   7.886  0.1179  0.2802  0.5614
  541MOL0     C74539   9.409   1.139   7.911 -0.7075 -0.2144 -0.2732
  541MOL0     C74540   9.535   1.064   7.879 -0.3557  0.5538  0.3399
  541MOL0     C74541   9.487   0.933   7.792  0.0632  0.1662  0.1483
  541MOL0     C74542   9.498   0.957   7.644 -0.0826  0.2066  0.1224
  541MOL0     C74543   9.387   1.042   7.581 -0.3200  0.0190 -0.6048
  541MOL0     O74544   9.267   1.031   7.659  0.4079 -0.4184  0.3560
  541MOL0     C74545   9.153   1.089   7.609 -0.2790  1.0070  0.2403
  541MOL0     C74546   9.159   1.179   7.498 -0.9256 -0.2467 -0.0391
  541MOL0     C74547   9.045   1.241   7.445  0.6607  0.9041 -0.0834
  541MOL0     C74548   9.071   1.334   7.329  0.4769 -0.3873 -0.2873
  541MOL0     C74549   8.917   1.199   7.501  1.1375 -1.0480  1.0559
  541MOL0     C74550   8.785   1.251   7.443  0.6185  0.1401 -0.1583
  541MOL0     O74551   8.681   1.216   7.513  0.6691 -0.1468 -0.2633
  541MOL0     C74552   8.552   1.247   7.469  0.0904  0.1633 -1.4116
  541MOL0     C74553   8.502   1.173   7.364 -0.2791  0.4163 -0.1736
  541MOL0     C74554   8.369   1.193   7.316  0.3758  0.2399 -0.4274
  541MOL0     C74555   8.287   1.291   7.370  0.1272 -0.5288  0.8241
  541MOL0     O74556   8.161   1.322   7.333  0.3449  0.2435 -0.2559
  541MOL0     C74557   8.072   1.223   7.382  0.3437 -0.8058 -0.3615
  541MOL0     C74558   7.976   1.177   7.275 -0.3181  0.0758  0.1070
  541MOL0     C74559   7.827   1.170   7.315 -0.3758 -0.9007 -0.5042
  541MOL0     C74560   7.752   1.154   7.184 -0.7393 -0.3582  0.7674
  541MOL0     C74561   7.606   1.183   7.217  0.6012 -0.5185 -0.2252
  541MOL0     C74562   7.513   1.178   7.092 -0.4409 -0.5472  0.8116
  541MOL0     C74563   7.373   1.186   7.145 -0.3021  0.1431  0.6322
  541MOL0     C74564   7.284   1.265   7.041 -0.1354  0.6335 -0.0661
  541MOL0    Cl74565   7.110   1.264   7.082 -0.2155  0.6396  0.0559
  541MOL0     C74566   8.346   1.374   7.463 -0.3538 -0.2192 -0.3893
  541MOL0     C74567   8.473   1.352   7.518 -0.0010 -0.2097 -0.9044
  541MOL0     O74568   8.782   1.304   7.332  0.0504  0.6945  0.7315
  541MOL0     C74569   8.915   1.105   7.601  0.0749  0.4061 -0.6248
  541MOL0     C74570   9.032   1.053   7.659 -0.2392 -0.8373  0.0832
  541MOL0     N74571   9.295   1.070   7.963 -0.1190  0.3797 -0.3063
  541MOL0     N74572   9.199   1.152   7.968  0.6145 -1.0899 -0.1137
  541MOL0     C74573   8.285   1.987   7.407 -0.3699 -0.4795 -0.1410
  541MOL0     C74574   8.163   1.998   7.336  0.6914  0.1138 -0.2265
  541MOL0     C74575   7.777   1.983   7.136 -0.1876 -0.4472 -0.2438
  541MOL0     C74576   7.806   1.975   7.001 -0.0133  0.0986  0.9462
  541MOL0     C74577   7.712   1.987   6.899  1.1407 -0.2554  0.0956
  541MOL0     C74578   7.583   2.038   6.928  0.1763  0.9186  0.8527
  541MOL0     O74579   7.483   2.058   6.841 -0.5249 -0.6985 -0.0469
  541MOL0     C74580   7.487   2.027   6.700 -1.1158  0.5795 -0.4040
  541MOL0     C74581   7.562   2.141   6.628 -0.9898 -0.1185 -0.4573
  541MOL0     C74582   7.485   2.196   6.501  0.2740 -0.3842  0.0624
  541MOL0     C74583   7.574   2.266   6.407 -0.5472  0.0089  0.0296
  541MOL0     C74584   7.606   2.178   6.293 -0.1466  1.0188  0.0135
  541MOL0     C74585   7.635   2.111   6.199  0.0690  0.1968 -0.3374
  541MOL0     C74586   7.558   2.064   7.063 -0.5431 -0.5038 -0.0858
  541MOL0     C74587   7.646   2.029   7.166 -0.1934 -0.0200  0.1356
  541MOL0     C74588   7.599   2.047   7.305 -0.1425  0.8996 -0.3678
  541MOL0     H74589   8.170   1.696   7.183  1.2878 -0.7313 -0.5078
  541MOL0     H74590   8.384   1.681   7.305  1.0235  0.7323 -1.7019
  541MOL0     H74591   8.608   1.923   7.361 -0.3708  2.5072  2.5178
  541MOL0     H74592   8.591   1.747   7.370 -1.7866 -0.9151  2.3781
  541MOL0     H74593   8.785   1.889   7.511 -1.3358  2.3456 -1.3458
  541MOL0     H74594   8.652   1.891   7.625 -1.4834 -0.7270 -0.5223
  541MOL0     H74595   8.625   1.634   7.581  1.0897 -1.3224 -0.5458
  541MOL0     H74596   8.772   1.648   7.498  1.4763  1.7442  0.1630
  541MOL0     H74597   8.884   1.736   7.722  1.6995 -1.9301  2.3058
  541MOL0     H74598   8.756   1.663   7.802 -1.4221  1.6219 -0.1459
  541MOL0     H74599   8.943   1.518   7.592 -0.9859  1.9434 -2.0441
  541MOL0     H74600   8.811   1.436   7.681  1.5679 -0.3158  2.1917
  541MOL0     H74601   9.012   1.591   7.844  1.0570 -0.8040 -1.1129
  541MOL0     H74602   8.889   1.465   7.884 -1.6994 -0.7675 -1.8186
  541MOL0     H74603   9.141   1.434   7.710  0.1347 -1.7099  0.0025
  541MOL0     H74604   9.034   1.312   7.773 -1.5656 -0.3600  3.5909
  541MOL0     H74605   9.231   1.492   7.925  2.0366 -1.2656  2.4136
  541MOL0     H74606   9.092   1.393   8.005  0.6820 -1.6183 -0.2460
  541MOL0     H74607   9.423   1.348   7.835  0.3591  1.8706  3.1428
  541MOL0     H74608   9.576   1.030   7.974 -2.7753  1.4535  1.7978
  541MOL0     H74609   9.606   1.128   7.827 -1.1191  1.3987  0.3214
  541MOL0     H74610   9.558   0.852   7.809  0.4066 -0.2180 -2.6642
  541MOL0     H74611   9.384   0.906   7.817 -0.0386  0.3063 -0.1174
  541MOL0     H74612   9.601   0.988   7.625  0.3308 -1.5009 -0.6820
  541MOL0     H74613   9.485   0.861   7.592 -0.7485 -0.3384  1.2617
  541MOL0     H74614   9.430   1.142   7.594  2.6870 -1.0457 -1.5108
  541MOL0     H74615   9.376   1.029   7.473  0.4216 -0.5455 -0.6190
  541MOL0     H74616   9.252   1.201   7.448 -1.3536 -1.5908 -1.5310
  541MOL0     H74617   8.988   1.405   7.333 -0.9879 -2.0745  1.7754
  541MOL0     H74618   9.053   1.286   7.233 -2.0902  0.0392 -0.0934
  541MOL0     H74619   9.171   1.378   7.333 -0.1753  1.0747  1.6432
  541MOL0     H74620   8.567   1.097   7.321 -0.6625 -0.5730  0.9455
  541MOL0     H74621   8.328   1.128   7.239 -0.3420 -1.8044  1.5662
  541MOL0     H74622   8.116   1.137   7.434 -0.4756 -1.0624 -0.0685
  541MOL0     H74623   8.016   1.277   7.459  2.5158 -0.3935  1.0217
  541MOL0     H74624   7.985   1.248   7.191  1.1206  0.9259  0.9397
  541MOL0     H74625   8.006   1.079   7.237  2.0683 -0.8330  3.8375
  541MOL0     H74626   7.793   1.257   7.372 -3.4924 -2.3889  0.1538
  541MOL0     H74627   7.802   1.080   7.371 -0.4390 -0.1729  0.6770
  541MOL0     H74628   7.758   1.054   7.141 -2.5759 -0.0889 -0.2463
  541MOL0     H74629   7.773   1.224   7.103 -0.8105 -0.7589  0.4016
  541MOL0     H74630   7.570   1.107   7.288  1.3043  0.8199  1.6371
  541MOL0     H74631   7.593   1.282   7.261 -2.2881 -0.5422 -0.8400
  541MOL0     H74632   7.526   1.091   7.028 -1.6336  0.0584 -0.2894
  541MOL0     H74633   7.541   1.264   7.030 -1.6650  1.3438  2.7294
  541MOL0     H74634   7.378   1.247   7.236  3.0870 -1.4418  1.6580
  541MOL0     H74635   7.334   1.085   7.162 -0.9906 -0.1267 -2.0120
  541MOL0     H74636   7.302   1.223   6.941 -3.2888  0.5873 -0.6930
  541MOL0     H74637   7.304   1.372   7.035  0.3866  0.5202 -0.5743
  541MOL0     H74638   8.289   1.463   7.490  0.8638  0.2797  0.6510
  541MOL0     H74639   8.515   1.428   7.583 -0.4940  1.5108 -2.4954
  541MOL0     H74640   8.821   1.072   7.645 -0.7342  0.0238 -2.5384
  541MOL0     H74641   9.018   0.980   7.738 -1.5800 -1.1286 -0.3921
  541MOL0     H74642   8.320   2.072   7.466 -3.9253  1.9272 -1.2151
  541MOL0     H74643   8.095   2.083   7.333 -4.9548 -3.5344  3.5601
  541MOL0     H74644   7.904   1.939   6.970  0.5125  1.8399  0.4810
  541MOL0     H74645   7.742   1.972   6.795 -0.8961  2.6851 -1.0717
  541MOL0     H74646   7.540   1.932   6.688  0.9799  1.4534  1.2845
  541MOL0     H74647   7.385   2.024   6.661 -1.9340  0.7272  1.5963
  541MOL0     H74648   7.666   2.114   6.608 -0.0107  2.8732  0.0662
  541MOL0     H74649   7.578   2.223   6.699  2.2802 -2.2883  1.5829
  541MOL0     H74650   7.428   2.113   6.460 -1.4535  1.4802 -1.5109
  541MOL0     H74651   7.418   2.278   6.527 -0.6898 -0.9461 -0.6197
  541MOL0     H74652   7.672   2.285   6.453  0.6394 -3.6494 -0.6975
  541MOL0     H74653   7.531   2.359   6.367  0.1086  0.0043 -0.7200
  541MOL0     H74654   7.669   2.053   6.115  0.7782 -1.9615  1.3174
  541MOL0     H74655   7.466   2.118   7.079  0.6514  1.5289  0.3765
  541MOL0     H74656   7.668   2.094   7.374  0.7535 -1.4941  0.4873
  541MOL0     H74657   7.503   2.099   7.305 -0.2354  1.0901  3.8243
  541MOL0     H74658   7.571   1.949   7.346 -1.3433  1.9516  1.4772
  542MOL0     O74659  11.041  11.279   6.074  0.0682  0.1315 -0.1222
  542MOL0     C74660  11.078  11.223   6.172  0.2958  0.2021 -1.1364
  542MOL0     O74661  11.214  11.203   6.205  0.2967 -0.4133 -0.0855
  542MOL0     C74662  11.311  11.256   6.127  0.0057  0.9241  0.5866
  542MOL0     C74663  11.410  11.338   6.176  0.8656  0.7350 -0.7155
  542MOL0     C74664  11.527  11.372   6.109  0.0542  0.2064  0.0929
  542MOL0     C74665  11.536  11.323   5.974 -0.5882 -0.1786  0.2130
  542MOL0     O74666  11.656  11.339   5.915 -0.8214 -0.0778  0.2839
  542MOL0     C74667  11.700  11.258   5.803 -0.4655  0.4008 -0.0077
  542MOL0     C74668  11.668  11.318   5.667 -0.7563 -0.3832  0.2916
  542MOL0     C74669  11.780  11.270   5.560 -0.1273  0.1911 -0.0401
  542MOL0     C74670  11.757  11.337   5.427 -0.8150 -0.0909 -0.4793
  542MOL0     C74671  11.882  11.349   5.339  0.2903 -0.0876 -0.0304
  542MOL0     C74672  11.926  11.209   5.289  0.3417  0.4445  0.3033
  542MOL0     C74673  12.056  11.218   5.201 -0.0588  0.2577  0.4869
  542MOL0     C74674  12.100  11.072   5.165 -0.2936 -0.9162 -0.5267
  542MOL0     N74675  12.226  11.069   5.089 -0.1807  0.6499 -0.2104
  542MOL0     C74676  12.353  11.102   5.138  0.4173  0.5341 -0.7843
  542MOL0     C74677  12.429  11.113   5.024  0.9375  0.1922  0.0789
  542MOL0     C74678  12.582  11.129   5.031 -0.2223  0.2411  0.1081
  542MOL0     C74679  12.619  11.260   4.957 -0.0118 -0.7745  0.2145
  542MOL0     C74680  12.755  11.325   5.005  1.0183  0.6400  0.9575
  542MOL0     C74681  12.864  11.238   4.944 -1.0453 -0.4475 -0.6699
  542MOL0     O74682  12.986  11.301   4.979 -0.3511 -0.2462  0.0893
  542MOL0     C74683  13.102  11.259   4.917  0.6316 -0.5600 -0.1928
  542MOL0     C74684  13.199  11.363   4.905  0.6462 -0.1445  0.4382
  542MOL0     C74685  13.323  11.339   4.843  0.5967  0.7516  0.5333
  542MOL0     C74686  13.412  11.457   4.844 -0.0885 -0.5271 -0.5596
  542MOL0     C74687  13.346  11.220   4.778  0.3176  0.3795 -0.0088
  542MOL0     C74688  13.480  11.193   4.709 -0.1843 -0.2123  0.6085
  542MOL0     O74689  13.590  11.226   4.779 -1.1750  0.5993  0.4072
  542MOL0     C74690  13.709  11.162   4.769 -0.4138  0.1103 -0.2739
  542MOL0     C74691  13.824  11.242   4.756 -0.3684 -0.3565 -0.5337
  542MOL0     C74692  13.946  11.185   4.749 -0.6143  1.0124 -0.5370
  542MOL0     C74693  13.970  11.052   4.757 -0.1119 -0.4216 -0.1411
  542MOL0     O74694  14.093  10.992   4.745  0.8444 -0.0863  0.4694
  542MOL0     C74695  14.209  11.064   4.770 -0.0279 -0.0328  0.3380
  542MOL0     C74696  14.269  11.106   4.641  0.1387 -0.2592 -0.3921
  542MOL0     C74697  14.418  11.157   4.669  0.3978  1.0056  0.1393
  542MOL0     C74698  14.510  11.043   4.721 -0.3172  0.2563  0.5110
  542MOL0     C74699  14.659  11.086   4.723  0.0896  0.3612 -0.7855
  542MOL0     C74700  14.685  11.201   4.817 -0.1912  0.3799  0.5017
  542MOL0     C74701  14.834  11.219   4.858  0.0369 -0.5454 -0.5263
  542MOL0     C74702  14.832  11.305   4.981 -0.2379  0.6616  0.0124
  542MOL0    Cl74703  14.993  11.372   5.005 -0.2104  0.3675 -0.0513
  542MOL0     C74704  13.864  10.972   4.775 -0.0728  1.1811 -0.9545
  542MOL0     C74705  13.729  11.024   4.781 -0.0099 -0.0033 -0.8560
  542MOL0     O74706  13.478  11.121   4.611 -0.0568  0.0774  0.5002
  542MOL0     C74707  13.251  11.119   4.794 -0.1600  0.7430  0.6606
  542MOL0     C74708  13.132  11.137   4.860 -0.1121 -0.9140  0.7063
  542MOL0     N74709  12.353  11.095   4.914 -0.3446 -0.8028  0.8574
  542MOL0     N74710  12.236  11.065   4.953  0.0642 -0.3839  0.6297
  542MOL0     C74711  11.434  11.241   5.920 -0.8791 -0.6793 -0.2501
  542MOL0     C74712  11.325  11.212   6.002  0.7040 -0.5320 -0.2031
  542MOL0     C74713  10.960  11.189   6.263 -0.3249 -0.6848  0.9801
  542MOL0     C74714  10.830  11.170   6.205  0.0607 -0.9386 -0.1469
  542MOL0     C74715  10.719  11.134   6.291  0.0571 -0.5094  0.1018
  542MOL0     C74716  10.736  11.110   6.423 -0.7799  0.3567 -0.7643
  542MOL0     O74717  10.640  11.055   6.492  0.1423 -0.2275 -0.0036
  542MOL0     C74718  10.620  11.096   6.622 -0.3637 -0.3117 -0.5206
  542MOL0     C74719  10.479  11.051   6.641 -0.2564 -0.4339 -0.2369
  542MOL0     C74720  10.428  11.092   6.780  0.4807  0.4944  0.5054
  542MOL0     C74721  10.276  11.062   6.774  0.7488 -0.7291  0.2187
  542MOL0     C74722  10.201  11.088   6.898 -0.3133 -0.0693  0.2759
  542MOL0     C74723  10.146  11.129   7.002 -0.1156 -0.0154  0.9808
  542MOL0     C74724  10.863  11.123   6.481  0.0820  0.2949 -0.8183
  542MOL0     C74725  10.972  11.170   6.407 -0.7575 -0.0055  0.0826
  542MOL0     C74726  11.104  11.193   6.484  1.0113 -0.3650 -0.0239
  542MOL0     H74727  11.423  11.359   6.282  5.6570  2.3866 -1.4028
  542MOL0     H74728  11.600  11.444   6.146  2.0104 -0.1809 -2.6684
  542MOL0     H74729  11.665  11.155   5.811  3.5696 -1.4606 -2.7833
  542MOL0     H74730  11.809  11.248   5.808 -0.2586  1.9956 -0.5460
  542MOL0     H74731  11.568  11.304   5.625 -0.0091  0.4930 -1.9272
  542MOL0     H74732  11.685  11.423   5.689 -2.3867  0.3745 -1.7465
  542MOL0     H74733  11.884  11.273   5.594  0.8300  0.9080 -2.8194
  542MOL0     H74734  11.751  11.164   5.551  0.0437  0.2070 -0.8097
  542MOL0     H74735  11.668  11.287   5.388 -0.1643 -1.0496 -0.7941
  542MOL0     H74736  11.746  11.443   5.450 -1.0791 -0.2135 -0.0404
  542MOL0     H74737  11.966  11.388   5.398 -0.7381  0.9649  0.7940
  542MOL0     H74738  11.868  11.416   5.254  0.9524  1.6450  1.1677
  542MOL0     H74739  11.946  11.140   5.372  0.9636 -0.4663 -0.5900
  542MOL0     H74740  11.843  11.174   5.228  2.0224  0.5549 -2.1853
  542MOL0     H74741  12.137  11.255   5.264  1.1392 -2.0692  0.4049
  542MOL0     H74742  12.057  11.279   5.110  0.9080 -0.5425 -0.0587
  542MOL0     H74743  12.133  11.022   5.257  3.8384  0.0374 -1.2943
  542MOL0     H74744  12.022  11.014   5.114  1.1914 -1.9845 -1.6734
  542MOL0     H74745  12.385  11.111   5.241  0.8622  0.9689 -0.9592
  542MOL0     H74746  12.632  11.041   4.990  0.7163  2.1874 -3.3093
  542MOL0     H74747  12.615  11.137   5.135 -2.7841 -3.2796  1.3714
  542MOL0     H74748  12.631  11.241   4.850  1.1017  0.3573  0.1142
  542MOL0     H74749  12.539  11.333   4.978  2.2518  1.6034  1.1856
  542MOL0     H74750  12.760  11.429   4.974 -0.4018  0.1472 -1.1416
  542MOL0     H74751  12.758  11.316   5.114 -2.0241  1.8980  1.2318
  542MOL0     H74752  12.867  11.137   4.985  0.8986 -0.7654 -1.4582
  542MOL0     H74753  12.861  11.242   4.835 -0.7364  0.7466 -0.6493
  542MOL0     H74754  13.180  11.467   4.930 -0.8136 -0.0357 -0.9827
  542MOL0     H74755  13.423  11.474   4.737  0.6828 -4.0189 -1.1394
  542MOL0     H74756  13.511  11.439   4.887 -0.5606 -0.6387  0.5102
  542MOL0     H74757  13.360  11.540   4.894 -0.8163 -2.3588  1.9208
  542MOL0     H74758  13.811  11.350   4.753 -1.0958 -0.4070  0.2007
  542MOL0     H74759  14.022  11.262   4.744 -0.4489  0.8068 -1.4148
  542MOL0     H74760  14.185  11.148   4.836  0.5737 -1.5919  2.6959
  542MOL0     H74761  14.277  11.003   4.831 -0.9245 -2.5705 -1.0691
  542MOL0     H74762  14.281  11.021   4.574 -0.9001  0.4315 -1.4986
  542MOL0     H74763  14.203  11.178   4.590 -0.3362 -2.9911 -4.0285
  542MOL0     H74764  14.417  11.251   4.725  0.9650  0.2889  1.3899
  542MOL0     H74765  14.462  11.178   4.570  0.4724 -1.1300 -0.3187
  542MOL0     H74766  14.510  10.961   4.649 -0.6118  0.8952 -0.2342
  542MOL0     H74767  14.491  10.997   4.819  1.6392 -2.4624 -0.2581
  542MOL0     H74768  14.718  11.001   4.760 -1.6530 -0.1407  1.0057
  542MOL0     H74769  14.685  11.114   4.621 -3.9533  2.0494 -1.5455
  542MOL0     H74770  14.628  11.171   4.905 -2.2061  2.3025 -0.0676
  542MOL0     H74771  14.643  11.295   4.781  0.7721  0.8934  0.6989
  542MOL0     H74772  14.892  11.275   4.785  1.9433 -2.8308 -0.8868
  542MOL0     H74773  14.889  11.125   4.865  3.1267  1.1509  0.2501
  542MOL0     H74774  14.794  11.234   5.056  0.6650 -0.5808 -0.6584
  542MOL0     H74775  14.763  11.390   4.984  0.8954  1.5708  1.0341
  542MOL0     H74776  13.881  10.865   4.777  3.0677  1.5637 -0.5842
  542MOL0     H74777  13.657  10.946   4.804  1.0187 -0.6857  0.2109
  542MOL0     H74778  13.272  11.019   4.759  2.1075  0.8116  1.7003
  542MOL0     H74779  13.052  11.064   4.867 -2.2392  1.0611 -1.2178
  542MOL0     H74780  11.452  11.189   5.827 -0.4412 -1.9312  0.5200
  542MOL0     H74781  11.247  11.150   5.959 -1.8356  0.6795  2.3299
  542MOL0     H74782  10.820  11.178   6.097 -1.8613 -1.3304 -0.0387
  542MOL0     H74783  10.621  11.127   6.245  0.1737  0.3755 -0.3062
  542MOL0     H74784  10.681  11.038   6.691  3.7693  1.8300 -2.0639
  542MOL0     H74785  10.626  11.204   6.638 -1.7306 -0.0744 -1.3893
  542MOL0     H74786  10.483  10.942   6.629  2.2990 -0.7532  2.4934
  542MOL0     H74787  10.421  11.094   6.559 -0.6288 -1.4479 -0.5220
  542MOL0     H74788  10.478  11.040   6.862 -0.7830 -2.0234 -0.2074
  542MOL0     H74789  10.446  11.197   6.804  2.7861 -0.0644  1.5649
  542MOL0     H74790  10.274  10.956   6.748  0.8559 -1.0658  1.5458
  542MOL0     H74791  10.214  11.117   6.702 -2.0106 -4.0207 -0.1897
  542MOL0     H74792  10.103  11.155   7.096  3.3114  1.1733  2.3796
  542MOL0     H74793  10.863  11.108   6.589  0.4006  0.9576 -0.7196
  542MOL0     H74794  11.154  11.099   6.508 -0.1269 -0.6909  1.1644
  542MOL0     H74795  11.167  11.273   6.442  0.2659  0.1914 -0.1167
  542MOL0     H74796  11.087  11.238   6.582  2.8905  1.7806 -0.5827
  543MOL0     O74797   7.324   0.070   2.936 -0.2755  0.6039  0.6526
  543MOL0     C74798   7.394   0.036   3.024 -0.0631  0.8597 -0.2801
  543MOL0     O74799   7.529  -0.004   3.022  0.3132  0.7979 -0.2649
  543MOL0     C74800   7.618   0.044   2.925 -0.3696 -0.2383 -1.3469
  543MOL0     C74801   7.737  -0.027   2.908  0.2741 -0.1706  0.1316
  543MOL0     C74802   7.829   0.004   2.801  1.0818  0.6484  0.1810
  543MOL0     C74803   7.815   0.115   2.724 -0.5596 -0.7186  0.6909
  543MOL0     O74804   7.911   0.150   2.636 -0.7528 -0.3990 -0.5257
  543MOL0     C74805   7.919   0.285   2.609  0.1876 -1.1487  0.3854
  543MOL0     C74806   8.035   0.319   2.517 -0.7416 -0.3704  0.2614
  543MOL0     C74807   8.043   0.239   2.386 -0.5530  1.2031 -0.2201
  543MOL0     C74808   7.974   0.308   2.263  0.2748  0.1507 -0.0264
  543MOL0     C74809   7.899   0.220   2.173  0.3050  0.1182 -0.1688
  543MOL0     C74810   7.786   0.142   2.260  0.7082 -0.3483 -0.6494
  543MOL0     C74811   7.673   0.073   2.177  0.1072 -0.7222 -0.5661
  543MOL0     C74812   7.595   0.173   2.098 -1.0503  0.1223  1.0383
  543MOL0     N74813   7.477   0.106   2.040  0.8511  0.0193 -0.4969
  543MOL0     C74814   7.361   0.090   2.120 -0.0537 -0.2363  0.1272
  543MOL0     C74815   7.281   0.003   2.054 -0.0792  0.6906  0.3232
  543MOL0     C74816   7.139  -0.018   2.105  0.4207  0.3429 -0.6867
  543MOL0     C74817   7.040  -0.088   2.009 -0.0200 -0.3949  0.1339
  543MOL0     C74818   6.897  -0.088   2.072  0.7832 -0.4221 -0.3661
  543MOL0     C74819   6.786  -0.126   1.981 -0.1698  0.2103  0.2851
  543MOL0     O74820   6.773  -0.274   1.978 -0.2431  0.9914 -0.5022
  543MOL0     C74821   6.795  -0.342   1.862 -0.1317  1.0229  0.3743
  543MOL0     C74822   6.890  -0.445   1.861  1.0440  1.3017 -0.2162
  543MOL0     C74823   6.901  -0.514   1.736  0.0455  0.3601 -0.2025
  543MOL0     C74824   7.008  -0.621   1.740 -0.0641  0.3696  0.5046
  543MOL0     C74825   6.818  -0.488   1.622  0.0661  0.1971 -0.0809
  543MOL0     C74826   6.828  -0.556   1.491 -0.1251 -0.2946 -0.1607
  543MOL0     O74827   6.769  -0.500   1.386 -0.2432 -0.0535  0.4339
  543MOL0     C74828   6.789  -0.552   1.260  0.0504  0.3562  0.5506
  543MOL0     C74829   6.690  -0.582   1.169 -0.3248 -0.8175 -0.3678
  543MOL0     C74830   6.721  -0.624   1.040  0.7941  0.6503 -0.1103
  543MOL0     C74831   6.852  -0.662   0.994  1.4441 -0.1941 -0.1172
  543MOL0     O74832   6.884  -0.709   0.867 -0.2032 -0.0276  0.3090
  543MOL0     C74833   6.792  -0.794   0.799 -0.1305  0.3422  0.0200
  543MOL0     C74834   6.733  -0.711   0.686  0.6677  0.3808 -0.7672
  543MOL0     C74835   6.674  -0.782   0.558  0.0711  0.2822 -0.0210
  543MOL0     C74836   6.638  -0.685   0.449  0.3406  0.4429 -0.3203
  543MOL0     C74837   6.579  -0.751   0.329  0.7831  0.5075  0.8052
  543MOL0     C74838   6.546  -0.648   0.215  0.1874  0.0451 -0.3417
  543MOL0     C74839   6.469  -0.716   0.095  0.1354 -0.2471 -0.2558
  543MOL0     C74840   6.430  -0.610  -0.002 -0.0991 -0.3633 -0.5878
  543MOL0    Cl74841   6.587  -0.541  -0.070  0.1060 -0.4143  0.5780
  543MOL0     C74842   6.953  -0.627   1.084 -0.6374  0.4894 -0.4897
  543MOL0     C74843   6.915  -0.577   1.209 -0.7923 -0.1025  0.2854
  543MOL0     O74844   6.875  -0.669   1.487  0.1358 -0.0760  0.4000
  543MOL0     C74845   6.735  -0.380   1.632  0.1769 -0.0480  0.2142
  543MOL0     C74846   6.722  -0.307   1.749  0.7168 -0.3338  0.1422
  543MOL0     N74847   7.341  -0.027   1.930  0.1384  0.0361 -0.1967
  543MOL0     N74848   7.447   0.038   1.924  0.7825 -0.3043 -0.2467
  543MOL0     C74849   7.704   0.201   2.757  0.7162 -0.3572 -0.8139
  543MOL0     C74850   7.607   0.173   2.856  0.4774 -0.1254 -0.0324
  543MOL0     C74851   7.333   0.003   3.155 -0.1897 -0.5251  0.7219
  543MOL0     C74852   7.413  -0.048   3.263 -0.5748 -0.1889 -0.7559
  543MOL0     C74853   7.362  -0.096   3.385 -0.2056  0.6342 -0.6348
  543MOL0     C74854   7.225  -0.109   3.401 -0.4949 -0.5566 -1.1465
  543MOL0     O74855   7.174  -0.155   3.517 -0.3247 -0.2162 -0.4847
  543MOL0     C74856   7.243  -0.129   3.646 -0.0691 -0.2727 -0.3806
  543MOL0     C74857   7.185  -0.155   3.787  0.2585  0.8774  0.5525
  543MOL0     C74858   7.055  -0.070   3.817  0.6938  0.6984 -0.6490
  543MOL0     C74859   6.966  -0.149   3.922 -0.0192  0.3316  0.7573
  543MOL0     C74860   7.005  -0.125   4.057  0.0948  0.2956  0.3771
  543MOL0     C74861   7.048  -0.110   4.167 -0.1492  0.3922 -0.5111
  543MOL0     C74862   7.142  -0.073   3.294 -0.3904 -0.9327  0.1469
  543MOL0     C74863   7.188  -0.016   3.174 -0.2930 -0.3033  1.3275
  543MOL0     C74864   7.082   0.040   3.085  0.2451  0.0938 -0.4554
  543MOL0     H74865   7.752  -0.115   2.970 -0.6174 -1.6435 -1.6152
  543MOL0     H74866   7.917  -0.058   2.793  0.3532 -0.3084 -0.8217
  543MOL0     H74867   7.934   0.348   2.697  0.0492 -1.6824  0.7966
  543MOL0     H74868   7.827   0.319   2.560 -0.6933 -1.2078  1.9323
  543MOL0     H74869   8.050   0.425   2.494  0.3380 -1.0743 -2.8408
  543MOL0     H74870   8.125   0.282   2.568  0.3963  0.7094 -0.8785
  543MOL0     H74871   8.148   0.230   2.358 -0.8264 -0.2489 -0.8619
  543MOL0     H74872   8.002   0.138   2.400 -1.3380  1.7985  2.2517
  543MOL0     H74873   7.903   0.381   2.305 -0.5678 -1.0822  0.7621
  543MOL0     H74874   8.051   0.363   2.208  2.5357  0.8447  3.5357
  543MOL0     H74875   7.957   0.148   2.115  0.4332 -0.6246  0.8492
  543MOL0     H74876   7.842   0.282   2.103 -1.0908 -0.1920  0.6387
  543MOL0     H74877   7.843   0.062   2.309  3.8928  0.8518 -2.0904
  543MOL0     H74878   7.741   0.210   2.333  2.5331  0.7332 -0.4640
  543MOL0     H74879   7.624   0.026   2.263  2.3456 -0.4083  0.9774
  543MOL0     H74880   7.707  -0.009   2.114 -1.3143 -2.8360  1.2609
  543MOL0     H74881   7.559   0.251   2.166  0.5446 -0.6682  2.8958
  543MOL0     H74882   7.649   0.222   2.017 -2.1374  1.7227  1.2462
  543MOL0     H74883   7.343   0.137   2.216  3.5718  1.3469  0.1778
  543MOL0     H74884   7.100   0.082   2.129 -1.8752 -0.6475  0.0250
  543MOL0     H74885   7.151  -0.082   2.193 -1.1768  1.3006  0.2951
  543MOL0     H74886   7.042  -0.035   1.913 -2.5367 -3.0900 -1.5808
  543MOL0     H74887   7.083  -0.185   1.985  1.5696  0.3844 -0.3259
  543MOL0     H74888   6.892  -0.144   2.165  0.0549 -1.3080 -0.9200
  543MOL0     H74889   6.874   0.016   2.097  0.2227 -1.0566  1.9911
  543MOL0     H74890   6.691  -0.076   2.001 -1.4812 -0.1647 -3.8754
  543MOL0     H74891   6.807  -0.079   1.884 -1.2675  1.1871  0.4926
  543MOL0     H74892   6.951  -0.457   1.949 -0.8093 -2.8004  0.7802
  543MOL0     H74893   7.066  -0.636   1.648  0.9374  0.4046  1.1165
  543MOL0     H74894   6.967  -0.720   1.757  0.9174 -0.6956 -2.5641
  543MOL0     H74895   7.086  -0.607   1.815 -0.4889  0.9593  0.8427
  543MOL0     H74896   6.590  -0.575   1.211  0.2813  0.5748  0.9076
  543MOL0     H74897   6.636  -0.637   0.974  2.9825  2.2396 -3.5555
  543MOL0     H74898   6.854  -0.874   0.757 -2.2607 -1.6861  0.5758
  543MOL0     H74899   6.720  -0.844   0.864 -0.1676 -1.0268 -1.0491
  543MOL0     H74900   6.651  -0.653   0.730 -0.2195 -1.8614  0.7602
  543MOL0     H74901   6.816  -0.644   0.661  1.9821  0.5742  3.4212
  543MOL0     H74902   6.580  -0.833   0.584 -0.1043 -0.9120 -2.7392
  543MOL0     H74903   6.741  -0.856   0.514  2.2861  2.5380 -0.6348
  543MOL0     H74904   6.731  -0.645   0.406  0.4400 -1.9347 -2.5241
  543MOL0     H74905   6.578  -0.601   0.487  1.6074  0.9986  0.5589
  543MOL0     H74906   6.645  -0.825   0.283 -1.6046 -1.4388  0.2372
  543MOL0     H74907   6.487  -0.798   0.365 -1.2662  1.0216 -3.2023
  543MOL0     H74908   6.639  -0.599   0.184 -0.0457 -0.2719 -1.5703
  543MOL0     H74909   6.477  -0.576   0.261 -0.1734 -0.2125 -0.4792
  543MOL0     H74910   6.383  -0.774   0.130 -0.0594  0.1532 -0.0725
  543MOL0     H74911   6.541  -0.784   0.047 -0.5082 -1.4906  0.4844
  543MOL0     H74912   6.376  -0.533   0.052  1.2774 -0.1587  0.5621
  543MOL0     H74913   6.368  -0.651  -0.083 -2.4358 -1.3507  1.5891
  543MOL0     H74914   7.053  -0.656   1.053 -1.3409 -3.8795  0.6281
  543MOL0     H74915   6.998  -0.556   1.276 -0.1822 -0.8649 -0.2155
  543MOL0     H74916   6.669  -0.347   1.553  0.8464 -0.0912 -0.3724
  543MOL0     H74917   6.658  -0.219   1.742  2.5663  1.1469  1.0004
  543MOL0     H74918   7.688   0.293   2.702 -0.6934  0.4117  0.7671
  543MOL0     H74919   7.521   0.235   2.879  0.2562 -0.6652  0.6461
  543MOL0     H74920   7.522  -0.042   3.257 -0.6249 -0.3895 -2.1779
  543MOL0     H74921   7.426  -0.144   3.458 -4.4870 -1.8644  1.9125
  543MOL0     H74922   7.337  -0.184   3.653  0.7415  1.1936  0.9255
  543MOL0     H74923   7.267  -0.022   3.641 -1.3691 -0.0189 -2.8064
  543MOL0     H74924   7.263  -0.145   3.863  1.2921 -1.9490 -0.0067
  543MOL0     H74925   7.149  -0.259   3.787  1.4567  0.4400  1.0638
  543MOL0     H74926   7.084   0.024   3.864  1.2522  0.9056 -1.3872
  543MOL0     H74927   7.005  -0.045   3.723 -0.1836 -2.1109 -1.0529
  543MOL0     H74928   6.961  -0.257   3.903 -0.3456  0.2758  1.1491
  543MOL0     H74929   6.863  -0.114   3.926 -0.3610 -0.6896  1.4095
  543MOL0     H74930   7.070  -0.085   4.269 -1.8824  0.0833 -0.0325
  543MOL0     H74931   7.036  -0.081   3.316 -0.0842 -0.2951  2.0052
  543MOL0     H74932   7.116   0.141   3.061 -0.7616 -0.0360 -2.6728
  543MOL0     H74933   7.070  -0.009   2.987 -1.5786 -0.0007 -0.2194
  543MOL0     H74934   6.979   0.051   3.118  0.3640 -0.3936  0.1063
  544MOL0     O74935  10.119   4.359   8.490 -1.0781 -0.3258 -0.8274
  544MOL0     C74936  10.110   4.396   8.375  0.1643 -0.9381  0.2114
  544MOL0     O74937  10.222   4.425   8.294  0.1662  0.0579  0.1915
  544MOL0     C74938  10.346   4.415   8.360 -0.2089 -0.1784  0.2746
  544MOL0     C74939  10.396   4.520   8.445  0.3231 -0.2445 -1.2336
  544MOL0     C74940  10.512   4.511   8.517 -0.3207 -0.0360  0.8285
  544MOL0     C74941  10.596   4.405   8.492  0.4348  0.5937 -0.5013
  544MOL0     O74942  10.723   4.396   8.554  0.3484 -0.4804  0.0672
  544MOL0     C74943  10.739   4.431   8.693  1.0790 -0.8976 -0.2361
  544MOL0     C74944  10.820   4.333   8.767  0.3907  0.3481 -0.6316
  544MOL0     C74945  10.838   4.377   8.912  0.3776  0.2327  0.5769
  544MOL0     C74946  10.942   4.292   8.988  0.4115  0.6319  0.6408
  544MOL0     C74947  10.883   4.181   9.083 -0.3528 -0.0041  1.0021
  544MOL0     C74948  10.812   4.074   8.996 -0.3441 -0.1427  0.5824
  544MOL0     C74949  10.758   3.960   9.088  0.1896 -0.5797 -0.6117
  544MOL0     C74950  10.607   3.946   9.099 -0.0396 -0.9114 -0.6140
  544MOL0     N74951  10.543   4.064   9.156  0.2438 -0.3947  0.1520
  544MOL0     C74952  10.577   4.113   9.277 -0.9169 -0.1679 -0.1647
  544MOL0     C74953  10.490   4.213   9.296 -0.2926  0.3797 -0.5696
  544MOL0     C74954  10.458   4.288   9.421  0.2014 -0.2156  0.4327
  544MOL0     C74955  10.320   4.359   9.419  1.0164  0.6620 -0.5332
  544MOL0     C74956  10.201   4.278   9.474  0.1459 -0.2634  0.6631
  544MOL0     C74957  10.109   4.216   9.364  0.3452  0.3873  1.0287
  544MOL0     O74958  10.022   4.116   9.420 -1.4553 -0.6862 -0.5245
  544MOL0     C74959  10.076   4.002   9.464  0.1745  1.0780  0.0685
  544MOL0     C74960  10.206   3.952   9.439 -0.0046  0.5052  0.0528
  544MOL0     C74961  10.252   3.828   9.496  1.4834  0.3154  0.1185
  544MOL0     C74962  10.390   3.785   9.455  0.2308 -0.0146 -0.1945
  544MOL0     C74963  10.166   3.749   9.567 -0.2257 -0.1836 -0.1871
  544MOL0     C74964  10.199   3.621   9.640  0.7283  0.5456 -0.1619
  544MOL0     O74965  10.097   3.560   9.709 -0.4634  0.4513 -0.7310
  544MOL0     C74966  10.092   3.433   9.771  0.0225 -0.5250 -0.8638
  544MOL0     C74967   9.975   3.400   9.851 -0.3364 -0.3201 -0.8105
  544MOL0     C74968   9.967   3.284   9.932  0.5189 -0.2667  0.8110
  544MOL0     C74969  10.066   3.182   9.919  0.0651  0.6395 -0.2851
  544MOL0     O74970  10.044   3.063   9.987  0.1876  0.2733 -0.0791
  544MOL0     C74971  10.110   2.939   9.936  0.5479 -0.5369  0.2118
  544MOL0     C74972  10.047   2.813   9.974  0.2360  0.0629  0.5566
  544MOL0     C74973  10.056   2.770  10.116 -0.3576 -0.2782 -0.3874
  544MOL0     C74974   9.980   2.640  10.157  0.0964  0.3225  0.3007
  544MOL0     C74975   9.995   2.623  10.309 -0.6163  0.9672  0.1745
  544MOL0     C74976   9.980   2.471  10.332 -0.4623 -0.0358 -1.1344
  544MOL0     C74977   9.949   2.444  10.482 -0.6881  0.1359 -0.3478
  544MOL0     C74978   9.925   2.296  10.513  0.8259  0.1193  0.0902
  544MOL0    Cl74979   9.862   2.283  10.682  0.5386  0.0400 -0.1390
  544MOL0     C74980  10.184   3.220   9.842  0.3819 -0.8629 -0.5213
  544MOL0     C74981  10.197   3.336   9.778  0.5544  0.3951  0.1669
  544MOL0     O74982  10.309   3.566   9.635 -0.9110 -0.5394  0.6452
  544MOL0     C74983  10.034   3.790   9.586 -0.1756 -0.2159  1.1532
  544MOL0     C74984   9.986   3.918   9.524  0.6460  0.1675  0.3265
  544MOL0     N74985  10.409   4.227   9.188  0.7785  0.2695  0.1909
  544MOL0     N74986  10.445   4.134   9.105 -0.1923 -0.3913 -0.4758
  544MOL0     C74987  10.544   4.296   8.421 -0.6308 -0.4092  0.1613
  544MOL0     C74988  10.421   4.301   8.353 -0.5800  0.3805 -0.4344
  544MOL0     C74989   9.979   4.414   8.310 -0.2988  0.0867  0.4747
  544MOL0     C74990   9.972   4.480   8.183  0.0076  0.5074 -0.3738
  544MOL0     C74991   9.857   4.493   8.111 -0.6367 -0.6621  0.9830
  544MOL0     C74992   9.735   4.460   8.163  1.1725  0.6260  0.3483
  544MOL0     O74993   9.618   4.478   8.095 -0.1630  0.2675  0.5020
  544MOL0     C74994   9.554   4.609   8.103 -0.3500  0.0766 -0.4435
  544MOL0     C74995   9.523   4.649   7.962  0.6514  0.3979 -0.3843
  544MOL0     C74996   9.629   4.726   7.887  0.4642  0.4562  0.3854
  544MOL0     C74997   9.561   4.803   7.769  0.0010  0.1997 -0.1927
  544MOL0     C74998   9.657   4.867   7.681  0.4026 -0.4045 -0.2646
  544MOL0     C74999   9.714   4.919   7.586 -0.7625  0.1267  0.1651
  544MOL0     C75000   9.736   4.384   8.285  0.0617 -0.4933 -0.1945
  544MOL0     C75001   9.853   4.364   8.359 -0.0793  0.1886  0.0391
  544MOL0     C75002   9.831   4.292   8.486 -0.1961 -0.1694 -0.5909
  544MOL0     H75003  10.338   4.611   8.448 -0.4097 -0.7201 -0.3704
  544MOL0     H75004  10.550   4.592   8.580 -2.5412  0.1025  2.0817
  544MOL0     H75005  10.645   4.449   8.745  0.6843  0.0787 -1.2455
  544MOL0     H75006  10.793   4.526   8.696  0.4513 -0.4995  4.2469
  544MOL0     H75007  10.771   4.235   8.769  3.0381 -1.1011 -1.6859
  544MOL0     H75008  10.914   4.322   8.711  1.6490 -1.7286  1.6940
  544MOL0     H75009  10.871   4.480   8.927 -0.5247  0.4532  1.1132
  544MOL0     H75010  10.743   4.372   8.965 -0.7521 -3.2490 -1.3976
  544MOL0     H75011  11.008   4.259   8.907  0.1084 -0.0538  0.6682
  544MOL0     H75012  10.988   4.358   9.062  0.7970  1.0577  0.0326
  544MOL0     H75013  10.809   4.223   9.152 -2.1016  2.3184 -2.0348
  544MOL0     H75014  10.967   4.128   9.130  3.2965 -0.4305 -4.9168
  544MOL0     H75015  10.733   4.118   8.934 -1.1350  0.1947  1.7840
  544MOL0     H75016  10.888   4.043   8.924  0.7189  2.3359  0.5286
  544MOL0     H75017  10.814   3.965   9.182  1.7203  1.9666 -1.5598
  544MOL0     H75018  10.788   3.865   9.041  0.0918 -0.3168 -1.2177
  544MOL0     H75019  10.567   3.922   9.000 -0.6644 -2.7464  0.0301
  544MOL0     H75020  10.574   3.858   9.156 -0.1523 -3.0465 -3.7347
  544MOL0     H75021  10.639   4.058   9.346 -2.0666  0.2106  1.2143
  544MOL0     H75022  10.528   4.372   9.426 -1.1484  1.1368 -1.4856
  544MOL0     H75023  10.475   4.224   9.508  0.5461 -0.1068  0.4461
  544MOL0     H75024  10.314   4.456   9.470 -1.9442  0.5439 -0.4708
  544MOL0     H75025  10.306   4.385   9.313  0.5186 -2.8112 -1.4691
  544MOL0     H75026  10.222   4.211   9.558 -0.2276 -1.0570  0.1371
  544MOL0     H75027  10.140   4.357   9.519 -1.1664  0.1808 -1.7235
  544MOL0     H75028  10.043   4.295   9.328  0.7868  0.7431  0.9852
  544MOL0     H75029  10.163   4.188   9.273 -2.4524  2.7913 -1.5598
  544MOL0     H75030  10.280   4.006   9.382  3.4951 -0.9544  2.8126
  544MOL0     H75031  10.445   3.842   9.380  0.0594  0.0796 -0.2504
  544MOL0     H75032  10.390   3.687   9.406 -2.9608  0.0533 -0.5799
  544MOL0     H75033  10.454   3.799   9.543 -1.9172  0.6443  1.3636
  544MOL0     H75034   9.894   3.472   9.846  0.0069 -0.0055 -2.6587
  544MOL0     H75035   9.874   3.263   9.983 -1.5353  0.9950 -2.1331
  544MOL0     H75036  10.122   2.943   9.828  1.2465 -1.0468  0.2669
  544MOL0     H75037  10.211   2.944   9.976  0.4975 -0.4656  0.3305
  544MOL0     H75038   9.945   2.795   9.940  1.1431 -4.0346 -0.5804
  544MOL0     H75039  10.111   2.743   9.920 -0.1951  0.1597 -0.0783
  544MOL0     H75040  10.018   2.856  10.172 -0.6893  1.0663 -2.5740
  544MOL0     H75041  10.163   2.762  10.135  0.1437 -1.6123 -3.2751
  544MOL0     H75042  10.027   2.556  10.105 -2.4400 -0.2682 -1.2031
  544MOL0     H75043   9.881   2.648  10.114  0.5879 -2.5218 -1.6461
  544MOL0     H75044  10.094   2.655  10.344 -0.6567 -1.0730  2.3994
  544MOL0     H75045   9.922   2.683  10.365 -1.8990 -0.2126 -0.1887
  544MOL0     H75046  10.073   2.421  10.304 -0.5485 -1.1445  0.3917
  544MOL0     H75047   9.891   2.426  10.288 -1.7169 -1.3567  2.3951
  544MOL0     H75048   9.861   2.496  10.520 -0.4100 -1.7027  3.2026
  544MOL0     H75049  10.031   2.479  10.546 -1.2294 -0.7033  0.8451
  544MOL0     H75050  10.021   2.245  10.509  0.0453 -1.7625  2.7025
  544MOL0     H75051   9.849   2.260  10.442 -0.1641  2.9402 -0.4489
  544MOL0     H75052  10.271   3.157   9.858  0.8796  0.0160  0.4065
  544MOL0     H75053  10.291   3.370   9.735 -0.1031  4.8440  1.7453
  544MOL0     H75054   9.956   3.727   9.627 -0.3867 -1.7986 -1.4665
  544MOL0     H75055   9.879   3.939   9.531  0.3871 -1.3192  1.6527
  544MOL0     H75056  10.597   4.202   8.419 -0.8212 -0.5383 -2.5942
  544MOL0     H75057  10.377   4.214   8.305 -0.9001 -2.0356  3.7369
  544MOL0     H75058  10.060   4.504   8.125  0.3045 -1.9157 -1.0319
  544MOL0     H75059   9.858   4.546   8.016  2.3814  2.8933  2.7385
  544MOL0     H75060   9.464   4.574   8.153 -0.0465  1.9558  1.5725
  544MOL0     H75061   9.591   4.698   8.155  0.4099 -0.9992  0.9306
  544MOL0     H75062   9.439   4.719   7.969  2.5147  2.8823 -1.1445
  544MOL0     H75063   9.487   4.563   7.904 -0.8009 -1.9167  3.5410
  544MOL0     H75064   9.674   4.792   7.962  0.8636  0.3767  0.2174
  544MOL0     H75065   9.714   4.662   7.862  0.6925  0.0358  2.0876
  544MOL0     H75066   9.486   4.874   7.803  0.6486  0.5837  0.4496
  544MOL0     H75067   9.511   4.740   7.694  0.3013 -0.9092  0.5182
  544MOL0     H75068   9.765   4.966   7.505 -2.4956  0.2148 -0.9226
  544MOL0     H75069   9.637   4.354   8.317  0.8043 -0.5574  2.2448
  544MOL0     H75070   9.726   4.285   8.517 -0.0894  0.6298 -0.0454
  544MOL0     H75071   9.875   4.192   8.478  2.7407  0.6165  3.0753
  544MOL0     H75072   9.883   4.358   8.555 -0.9275 -0.1976 -0.0082
  545MOL0     O75073   9.601  10.965   2.428  0.0104 -0.3204 -0.6053
  545MOL0     C75074   9.559  11.062   2.487 -0.1421 -0.1441  0.1864
  545MOL0     O75075   9.635  11.136   2.566  0.7203 -0.1675  0.3230
  545MOL0     C75076   9.776  11.167   2.550 -0.4229 -0.6948 -0.4141
  545MOL0     C75077   9.862  11.106   2.458 -0.5086 -0.5980  0.3027
  545MOL0     C75078   9.999  11.164   2.436 -1.3967  0.6574  0.7436
  545MOL0     C75079  10.047  11.259   2.526 -0.6825  0.3953  0.4240
  545MOL0     O75080  10.178  11.300   2.508 -0.4127 -0.1274 -0.8156
  545MOL0     C75081  10.218  11.437   2.533  0.6734  0.6708  0.5607
  545MOL0     C75082  10.338  11.468   2.463  0.3023  0.9815 -0.2190
  545MOL0     C75083  10.459  11.367   2.495 -0.6216 -0.1387  0.0719
  545MOL0     C75084  10.593  11.428   2.445  0.6181 -0.5376 -1.2367
  545MOL0     C75085  10.714  11.348   2.499 -0.2393  0.1700 -0.8753
  545MOL0     C75086  10.724  11.209   2.434  1.2287  0.1122 -0.3964
  545MOL0     C75087  10.849  11.135   2.465 -0.0104  0.4271  0.0088
  545MOL0     C75088  10.877  11.130   2.616 -0.3217 -0.3368 -0.4841
  545MOL0     N75089  11.002  11.066   2.646 -0.6189 -0.0463 -1.0444
  545MOL0     C75090  11.042  11.031   2.773 -0.1822  0.3613  0.1860
  545MOL0     C75091  11.159  10.966   2.767  0.5989  0.0317 -0.4658
  545MOL0     C75092  11.235  10.905   2.880 -0.2329  0.4040 -0.4982
  545MOL0     C75093  11.350  10.817   2.826  1.3266  0.5752 -0.3119
  545MOL0     C75094  11.461  10.904   2.779  0.4463  0.4406 -0.1817
  545MOL0     C75095  11.584  10.825   2.732  0.9572 -0.4418  0.1269
  545MOL0     O75096  11.685  10.930   2.732  0.1611 -0.4589  0.1033
  545MOL0     C75097  11.812  10.895   2.693  0.1853 -0.1399  0.0268
  545MOL0     C75098  11.841  10.787   2.619 -0.3302 -0.4601 -0.5664
  545MOL0     C75099  11.976  10.768   2.585 -0.0374  0.5971  0.1011
  545MOL0     C75100  12.006  10.642   2.504 -0.1223 -0.2313  0.6250
  545MOL0     C75101  12.080  10.858   2.616  0.7416  0.0871 -0.4735
  545MOL0     C75102  12.226  10.834   2.588 -0.0027 -0.4362  0.4045
  545MOL0     O75103  12.308  10.913   2.670  0.5412  0.1801  0.3992
  545MOL0     C75104  12.441  10.910   2.635 -0.0602 -0.3680  0.8761
  545MOL0     C75105  12.532  10.821   2.694  1.0296  0.6182  0.0819
  545MOL0     C75106  12.668  10.828   2.659 -0.8294 -0.1840  0.2846
  545MOL0     C75107  12.715  10.922   2.578  0.3232 -0.7692  0.3939
  545MOL0     O75108  12.847  10.939   2.545  0.4999  0.0970  0.2602
  545MOL0     C75109  12.926  10.833   2.483 -0.2161 -0.5844 -0.3545
  545MOL0     C75110  13.054  10.891   2.408  0.6450 -0.5421  0.0326
  545MOL0     C75111  13.142  10.790   2.330 -0.4090  0.1868  0.2612
  545MOL0     C75112  13.281  10.854   2.310  0.7999 -0.4544 -0.3203
  545MOL0     C75113  13.391  10.752   2.289  0.1805  0.6366 -0.0298
  545MOL0     C75114  13.529  10.813   2.262 -0.0431  0.0358  0.2845
  545MOL0     C75115  13.631  10.708   2.297  0.0851 -0.2804  0.4707
  545MOL0     C75116  13.768  10.769   2.300 -0.1572  0.1026 -0.1815
  545MOL0    Cl75117  13.807  10.797   2.129 -0.2322  0.0531 -0.0271
  545MOL0     C75118  12.626  10.998   2.506 -0.6673  0.4045 -0.1523
  545MOL0     C75119  12.487  10.996   2.542 -0.7624 -0.0984 -0.4142
  545MOL0     O75120  12.261  10.785   2.482 -0.1991 -0.6401  0.2384
  545MOL0     C75121  12.042  10.977   2.676  0.8085 -0.2704  1.0292
  545MOL0     C75122  11.908  10.992   2.707  0.3257 -0.6133  0.1377
  545MOL0     N75123  11.197  10.964   2.635  0.0855  0.2542  0.1085
  545MOL0     N75124  11.105  11.025   2.568  0.5065  0.1940  0.0676
  545MOL0     C75125   9.969  11.316   2.620 -0.0743  0.5762  0.1384
  545MOL0     C75126   9.832  11.275   2.628  0.6989  0.4887 -0.1428
  545MOL0     C75127   9.416  11.089   2.469 -0.0753 -1.1309  0.7713
  545MOL0     C75128   9.322  10.982   2.482  0.1520 -1.0292  0.3302
  545MOL0     C75129   9.181  11.001   2.470 -0.1397  0.7528 -0.3020
  545MOL0     C75130   9.135  11.133   2.451  0.1655  0.1213  0.1869
  545MOL0     O75131   9.005  11.166   2.443 -0.5169 -0.6400  0.2050
  545MOL0     C75132   8.903  11.063   2.458 -0.5269 -0.4386  0.0123
  545MOL0     C75133   8.766  11.114   2.405  0.0698 -0.2691 -0.0668
  545MOL0     C75134   8.660  11.018   2.391 -0.9241 -0.0998  0.0716
  545MOL0     C75135   8.537  11.084   2.326  0.6784 -0.2146 -0.5016
  545MOL0     C75136   8.464  11.170   2.424 -0.1715 -0.0806  0.0591
  545MOL0     C75137   8.412  11.250   2.500  0.2466  0.9755 -0.1797
  545MOL0     C75138   9.225  11.233   2.434 -0.4086  0.7054 -0.2311
  545MOL0     C75139   9.367  11.213   2.440 -1.3102 -0.0552 -1.2872
  545MOL0     C75140   9.454  11.344   2.417  0.1959 -0.1887 -0.2507
  545MOL0     H75141   9.830  11.020   2.400 -2.1767 -0.1390  0.4996
  545MOL0     H75142  10.062  11.128   2.355 -0.9146  1.2126  0.8647
  545MOL0     H75143  10.236  11.458   2.638 -2.3602  0.8337  1.1585
  545MOL0     H75144  10.137  11.505   2.503  0.8025  0.8556  0.6274
  545MOL0     H75145  10.323  11.462   2.354  0.3826 -0.4206 -0.1809
  545MOL0     H75146  10.376  11.568   2.484  1.2345  0.6132 -0.1353
  545MOL0     H75147  10.473  11.354   2.603  0.2087 -3.9794 -0.3715
  545MOL0     H75148  10.438  11.267   2.457  1.8067 -1.0044  0.7889
  545MOL0     H75149  10.594  11.430   2.336  0.3675  0.5859 -1.2344
  545MOL0     H75150  10.608  11.529   2.484  2.6109 -1.1650 -0.2739
  545MOL0     H75151  10.704  11.342   2.608  1.4611 -3.7288 -0.7780
  545MOL0     H75152  10.804  11.406   2.477 -1.7617  2.0365 -2.6312
  545MOL0     H75153  10.640  11.146   2.464  1.5268 -2.8124 -4.7427
  545MOL0     H75154  10.716  11.222   2.325 -0.4448 -1.4403 -0.5067
  545MOL0     H75155  10.934  11.175   2.409 -0.4924  0.2824 -0.8463
  545MOL0     H75156  10.840  11.028   2.447 -0.2157 -0.4453  4.2736
  545MOL0     H75157  10.873  11.232   2.654  1.9485  0.6311 -2.6420
  545MOL0     H75158  10.804  11.070   2.672  1.4281 -1.2967  0.9277
  545MOL0     H75159  10.984  11.051   2.863 -0.9577  0.7282 -0.3807
  545MOL0     H75160  11.176  10.836   2.941  0.8917  1.4474  1.9495
  545MOL0     H75161  11.259  10.978   2.958 -2.4008  0.4158  0.2123
  545MOL0     H75162  11.393  10.744   2.896  0.3477  1.1967  0.9927
  545MOL0     H75163  11.310  10.755   2.745  0.6025  2.1029 -1.1517
  545MOL0     H75164  11.424  10.966   2.696  0.8076  1.0427  0.1034
  545MOL0     H75165  11.492  10.980   2.851  2.3932  1.7668 -2.2984
  545MOL0     H75166  11.611  10.739   2.794  0.9885 -1.0037 -0.6377
  545MOL0     H75167  11.576  10.789   2.629  1.0253  3.4468 -1.4116
  545MOL0     H75168  11.769  10.710   2.593 -0.0568 -0.5403 -1.1079
  545MOL0     H75169  12.017  10.685   2.403 -0.4018 -1.5505  0.0128
  545MOL0     H75170  11.927  10.568   2.499  0.5559 -1.0359  1.5124
  545MOL0     H75171  12.101  10.593   2.529  0.5567  1.2566  1.0940
  545MOL0     H75172  12.494  10.748   2.765  0.5923  0.1512 -0.6200
  545MOL0     H75173  12.750  10.787   2.717 -1.3887  0.3111  1.4750
  545MOL0     H75174  12.965  10.759   2.553  2.1233  0.2614 -0.6831
  545MOL0     H75175  12.870  10.765   2.417  0.1060 -1.8573  0.6442
  545MOL0     H75176  13.018  10.964   2.335  1.6937  0.1572  0.1937
  545MOL0     H75177  13.106  10.950   2.484 -1.6386 -0.5039  1.6464
  545MOL0     H75178  13.091  10.768   2.236 -1.8594  0.0938  1.0403
  545MOL0     H75179  13.145  10.695   2.385 -3.2644 -0.2119 -0.1303
  545MOL0     H75180  13.312  10.908   2.400  3.1893  1.3911 -2.1040
  545MOL0     H75181  13.273  10.918   2.222 -0.7326 -0.0208  0.1108
  545MOL0     H75182  13.398  10.698   2.384 -0.2094 -0.3080 -0.5288
  545MOL0     H75183  13.365  10.685   2.206 -1.5075 -0.5525  1.3799
  545MOL0     H75184  13.532  10.903   2.324 -2.8055 -0.7589  1.7259
  545MOL0     H75185  13.530  10.840   2.156  0.4277  1.3449  0.6002
  545MOL0     H75186  13.630  10.630   2.220 -1.2669 -0.6256  0.8083
  545MOL0     H75187  13.610  10.661   2.393 -2.5744  1.3722  0.8042
  545MOL0     H75188  13.846  10.705   2.343 -0.1170  0.0873 -0.2756
  545MOL0     H75189  13.771  10.861   2.359 -0.7226  0.0736 -0.1015
  545MOL0     H75190  12.678  11.072   2.445  0.1025  0.1190  0.1529
  545MOL0     H75191  12.426  11.076   2.500  1.0980  1.3779 -0.4475
  545MOL0     H75192  12.113  11.053   2.711  0.7987  0.6172 -0.7698
  545MOL0     H75193  11.877  11.083   2.758 -4.0772 -1.2100 -1.0160
  545MOL0     H75194  10.009  11.398   2.679 -1.9252  1.0489  0.7919
  545MOL0     H75195   9.778  11.318   2.712  0.1764  1.7602 -1.1076
  545MOL0     H75196   9.364  10.887   2.516 -0.4245 -1.2695  0.3848
  545MOL0     H75197   9.126  10.909   2.486  0.6966  0.4674  1.0810
  545MOL0     H75198   8.927  10.982   2.388  5.0681  1.1799 -0.5082
  545MOL0     H75199   8.897  11.030   2.561  0.4620 -0.8869 -0.0650
  545MOL0     H75200   8.785  11.145   2.302 -0.6264  1.0517  0.1823
  545MOL0     H75201   8.739  11.205   2.460  0.8715  1.7101 -2.6895
  545MOL0     H75202   8.695  10.937   2.326  2.8165  1.0131  0.4229
  545MOL0     H75203   8.630  10.966   2.482 -3.3421 -0.3099 -0.7926
  545MOL0     H75204   8.467  11.018   2.275 -1.6241  1.9758 -0.3727
  545MOL0     H75205   8.571  11.158   2.252  0.1585  2.9264  2.1344
  545MOL0     H75206   8.378  11.333   2.558 -0.4052 -0.4041  1.5047
  545MOL0     H75207   9.196  11.336   2.415  1.3539  1.2837  0.0680
  545MOL0     H75208   9.410  11.403   2.336 -4.3277 -1.4472  1.0461
  545MOL0     H75209   9.446  11.405   2.507  1.9276  0.6273 -0.6121
  545MOL0     H75210   9.556  11.308   2.401 -0.4237 -1.8526 -0.6714
  546MOL0     O75211   5.935   9.507  10.788 -0.2656  0.5531 -0.1731
  546MOL0     C75212   5.979   9.607  10.842 -1.1868 -0.0341  0.3022
  546MOL0     O75213   6.107   9.646  10.840 -0.0568  0.4633  0.8393
  546MOL0     C75214   6.199   9.555  10.785 -0.0866 -0.2456 -0.6959
  546MOL0     C75215   6.296   9.606  10.701 -0.0693 -0.5618  0.5936
  546MOL0     C75216   6.402   9.532  10.649  1.0998  0.1927 -0.2702
  546MOL0     C75217   6.405   9.397  10.687  0.1038 -0.6337  0.5109
  546MOL0     O75218   6.507   9.311  10.647  0.2134 -0.3046  0.8940
  546MOL0     C75219   6.591   9.347  10.538 -0.0229 -0.8481 -0.5067
  546MOL0     C75220   6.653   9.229  10.468  0.2659 -0.0427 -0.1402
  546MOL0     C75221   6.749   9.272  10.355 -1.3100 -0.8111 -0.9376
  546MOL0     C75222   6.813   9.153  10.282  0.1224 -0.5038  0.2660
  546MOL0     C75223   6.926   9.194  10.170  0.0920 -0.5576 -0.1772
  546MOL0     C75224   7.066   9.215  10.243  0.3355 -0.0738  0.0007
  546MOL0     C75225   7.172   9.263  10.147  0.1223 -0.1070 -0.0566
  546MOL0     C75226   7.215   9.162  10.039  0.5111 -0.2452  0.5253
  546MOL0     N75227   7.321   9.223   9.954  0.4122 -0.8129  0.0364
  546MOL0     C75228   7.376   9.163   9.840 -0.9945 -0.2054 -1.1100
  546MOL0     C75229   7.491   9.226   9.820 -0.5442  0.3493 -1.3760
  546MOL0     C75230   7.605   9.170   9.732  0.2492  0.5797 -0.3466
  546MOL0     C75231   7.692   9.300   9.688 -0.5106  0.6595  0.5418
  546MOL0     C75232   7.828   9.254   9.647 -0.0859 -0.0686  0.2716
  546MOL0     C75233   7.926   9.230   9.766 -0.3314 -0.4553  0.3667
  546MOL0     O75234   8.065   9.206   9.729  0.5165 -0.1110  0.7239
  546MOL0     C75235   8.166   9.273   9.806 -0.2350  0.8929  0.5672
  546MOL0     C75236   8.261   9.197   9.865  0.0497  0.3244  0.8773
  546MOL0     C75237   8.370   9.259   9.935  0.5607 -0.1030 -0.1241
  546MOL0     C75238   8.463   9.163  10.002 -0.0478  0.3562  0.6532
  546MOL0     C75239   8.382   9.395   9.942  0.4927 -0.9656  1.2318
  546MOL0     C75240   8.481   9.464  10.036  0.0462 -0.6553 -0.0699
  546MOL0     O75241   8.453   9.594  10.070  0.1122  0.2849  0.1287
  546MOL0     C75242   8.511   9.648  10.185 -0.0672  0.7355 -0.1122
  546MOL0     C75243   8.533   9.787  10.183 -0.0138  0.0144 -0.2437
  546MOL0     C75244   8.614   9.844  10.289  0.1204  0.2275 -0.6886
  546MOL0     C75245   8.665   9.770  10.395 -0.5024 -0.3176 -0.0346
  546MOL0     O75246   8.749   9.837  10.488 -0.2412  0.0547 -0.9307
  546MOL0     C75247   8.845   9.762  10.557  0.0773 -0.3396  0.3767
  546MOL0     C75248   8.965   9.838  10.604 -0.1929  0.4606 -0.5641
  546MOL0     C75249   9.074   9.739  10.645  0.7281  0.5296  0.4113
  546MOL0     C75250   9.206   9.801  10.695 -0.1181 -0.2204  0.3100
  546MOL0     C75251   9.174   9.857  10.838  1.1005  0.2294 -0.5687
  546MOL0     C75252   9.312   9.889  10.899 -0.6395  0.1394 -0.1805
  546MOL0     C75253   9.298   9.928  11.044  0.2318  0.0891  0.4896
  546MOL0     C75254   9.430   9.994  11.086  0.3372  1.1536 -0.5123
  546MOL0    Cl75255   9.452  10.156  11.018  0.0151 -0.4676  0.1155
  546MOL0     C75256   8.629   9.630  10.399  0.1035  0.3998  0.6438
  546MOL0     C75257   8.552   9.574  10.298 -0.4623  0.3795  0.1157
  546MOL0     O75258   8.583   9.408  10.063 -0.0332  0.2647  0.0654
  546MOL0     C75259   8.276   9.474   9.877 -0.2775 -0.3723  0.2998
  546MOL0     C75260   8.173   9.407   9.811 -1.1315  0.1379  0.7281
  546MOL0     N75261   7.513   9.324   9.921 -0.0348 -0.2987 -0.7912
  546MOL0     N75262   7.414   9.317  10.000 -0.4346  0.5847  0.0224
  546MOL0     C75263   6.302   9.340  10.771  0.4008 -0.1149  0.2949
  546MOL0     C75264   6.206   9.414  10.829  0.7935  0.3406  0.4730
  546MOL0     C75265   5.898   9.686  10.932 -0.0501 -0.4193 -0.9616
  546MOL0     C75266   5.956   9.728  11.052  0.4694 -0.7677 -0.1595
  546MOL0     C75267   5.890   9.820  11.142 -0.3060 -0.2102 -0.2809
  546MOL0     C75268   5.769   9.875  11.116 -0.3047 -0.5632  0.6598
  546MOL0     O75269   5.697   9.970  11.188  0.7544 -0.0299 -0.1759
  546MOL0     C75270   5.731   9.988  11.332  1.2727  0.5702 -0.4601
  546MOL0     C75271   5.601   9.997  11.410 -0.7478 -0.1584  0.3090
  546MOL0     C75272   5.523  10.122  11.367  0.6596 -0.3525  0.3348
  546MOL0     C75273   5.395  10.122  11.444  0.5548  0.0351  0.0074
  546MOL0     C75274   5.401  10.166  11.581 -0.5606 -0.4797  0.2590
  546MOL0     C75275   5.390  10.182  11.704 -0.7722  0.1589  0.4848
  546MOL0     C75276   5.708   9.836  10.991 -0.6093 -0.2107  0.1460
  546MOL0     C75277   5.767   9.736  10.908 -0.5328 -0.8474  0.2766
  546MOL0     C75278   5.690   9.705  10.783  0.1269 -0.5371  0.0046
  546MOL0     H75279   6.291   9.713  10.688  1.0561 -0.5739 -0.1029
  546MOL0     H75280   6.477   9.593  10.600  0.1242  1.3972 -0.3223
  546MOL0     H75281   6.677   9.409  10.565 -0.3411  0.5385 -2.4435
  546MOL0     H75282   6.555   9.418  10.463  1.8831  2.5583  1.5466
  546MOL0     H75283   6.707   9.168  10.542  0.7016 -1.8905 -1.8909
  546MOL0     H75284   6.571   9.169  10.429 -0.2119  0.3204  0.2865
  546MOL0     H75285   6.695   9.330  10.280 -2.6321  1.3279  1.5355
  546MOL0     H75286   6.831   9.331  10.397  0.3077 -1.7271 -2.6902
  546MOL0     H75287   6.857   9.075  10.345  0.2164 -0.2714  0.4930
  546MOL0     H75288   6.725   9.113  10.231 -0.9450  2.4004 -0.3703
  546MOL0     H75289   6.896   9.289  10.126 -1.1404 -0.2009  1.3571
  546MOL0     H75290   6.940   9.110  10.100  0.2456 -0.8037  0.1478
  546MOL0     H75291   7.054   9.284  10.328 -2.8956 -0.9366  0.3957
  546MOL0     H75292   7.086   9.115  10.281  0.9409  0.8256  2.2613
  546MOL0     H75293   7.261   9.291  10.204  0.1117 -0.9581  0.3943
  546MOL0     H75294   7.138   9.354  10.097 -0.8305 -0.8751 -0.8578
  546MOL0     H75295   7.245   9.064  10.078 -0.0597 -1.0180 -0.9006
  546MOL0     H75296   7.130   9.140   9.975  0.8259  1.2022 -0.4386
  546MOL0     H75297   7.347   9.083   9.773  0.0541  1.0062 -3.0959
  546MOL0     H75298   7.564   9.109   9.651 -0.8223  0.8303 -0.0106
  546MOL0     H75299   7.666   9.107   9.798  0.9827  0.9303 -0.6823
  546MOL0     H75300   7.642   9.342   9.601 -0.3230 -2.6789 -1.3362
  546MOL0     H75301   7.701   9.371   9.771 -0.0615 -1.8630  2.8170
  546MOL0     H75302   7.829   9.155   9.599  4.2472 -0.1923  0.3035
  546MOL0     H75303   7.871   9.322   9.574 -0.0771 -0.0654  0.2800
  546MOL0     H75304   7.934   9.324   9.821  1.1914 -0.0257 -0.5154
  546MOL0     H75305   7.891   9.160   9.842  2.4478 -0.6649  1.5686
  546MOL0     H75306   8.241   9.091   9.852 -0.1994  0.3333  1.1882
  546MOL0     H75307   8.438   9.057   9.989 -0.1235  0.4642 -0.1089
  546MOL0     H75308   8.459   9.189  10.108 -3.4072  0.0952  0.6927
  546MOL0     H75309   8.568   9.180   9.975  0.2649  1.0221  2.1733
  546MOL0     H75310   8.496   9.847  10.102  1.6868  1.0911 -0.2765
  546MOL0     H75311   8.641   9.949  10.278  1.2749 -0.0254 -0.3913
  546MOL0     H75312   8.797   9.708  10.640 -0.5394  0.7602  0.7564
  546MOL0     H75313   8.879   9.686  10.486 -2.2351 -2.2683  1.1916
  546MOL0     H75314   9.008   9.897  10.523  0.5752 -0.9914 -1.2582
  546MOL0     H75315   8.924   9.906  10.679 -2.0034  2.0916 -2.9168
  546MOL0     H75316   9.095   9.680  10.555 -2.5285 -3.3993  1.9313
  546MOL0     H75317   9.038   9.658  10.709 -0.0412  0.2892 -0.3080
  546MOL0     H75318   9.245   9.878  10.628  4.2143 -0.8477  1.8501
  546MOL0     H75319   9.286   9.727  10.697  0.7888  0.2093 -5.2105
  546MOL0     H75320   9.114   9.948  10.844  2.3271  0.9670  2.3964
  546MOL0     H75321   9.128   9.787  10.909  1.0512  1.3087  0.5059
  546MOL0     H75322   9.360   9.965  10.837 -0.4535  1.4380  1.4689
  546MOL0     H75323   9.380   9.804  10.899  0.4380  0.9679  0.4758
  546MOL0     H75324   9.273   9.838  11.102  1.9046 -0.5481  0.2648
  546MOL0     H75325   9.207   9.985  11.062  0.8852  0.8594  1.4490
  546MOL0     H75326   9.515   9.928  11.065  0.1369  0.9475 -0.6845
  546MOL0     H75327   9.421  10.016  11.192 -3.9132  0.9949 -0.7061
  546MOL0     H75328   8.662   9.565  10.480 -0.8403  1.5861  2.0045
  546MOL0     H75329   8.526   9.468  10.302  1.3605 -0.0585  1.5696
  546MOL0     H75330   8.269   9.583   9.874 -0.2307 -0.3825 -0.2144
  546MOL0     H75331   8.098   9.463   9.755 -1.6028  1.3529  2.4861
  546MOL0     H75332   6.307   9.234  10.794  1.2978  0.2603  2.0169
  546MOL0     H75333   6.150   9.369  10.910 -2.1199  1.2563 -0.8805
  546MOL0     H75334   6.054   9.689  11.078  0.1352 -3.3467 -2.3403
  546MOL0     H75335   5.945   9.851  11.231  4.6442 -0.8948 -2.7242
  546MOL0     H75336   5.781   9.895  11.361 -1.2605 -0.4041  1.1230
  546MOL0     H75337   5.803  10.069  11.350  0.8696  0.8533 -0.1230
  546MOL0     H75338   5.610  10.010  11.519 -2.0302 -1.3706  0.5815
  546MOL0     H75339   5.536   9.911  11.396 -4.3288  2.4793 -0.6259
  546MOL0     H75340   5.583  10.207  11.400  0.8939 -0.5372  0.3839
  546MOL0     H75341   5.503  10.124  11.259  1.7353 -0.1449  0.1313
  546MOL0     H75342   5.327  10.037  11.442  1.4983 -0.7567  0.9634
  546MOL0     H75343   5.339  10.203  11.396 -0.7177 -0.3019  0.8938
  546MOL0     H75344   5.382  10.197  11.810 -0.0046 -0.7015  0.6706
  546MOL0     H75345   5.618   9.889  10.961  0.5337  2.1464  0.6626
  546MOL0     H75346   5.744   9.630  10.726  3.3536 -1.1548  3.5034
  546MOL0     H75347   5.590   9.671  10.813  1.3167 -0.9561  4.1912
  546MOL0     H75348   5.668   9.790  10.718  0.1721  0.2660  0.9987
  547MOL0     O75349  10.958  11.217   5.057  0.1705 -0.3227 -0.1436
  547MOL0     C75350  11.082  11.237   5.061  0.5898  0.1356  0.2396
  547MOL0     O75351  11.160  11.153   5.134  0.2825 -0.0096  0.3711
  547MOL0     C75352  11.106  11.040   5.192 -0.6323 -0.0557 -0.3844
  547MOL0     C75353  10.991  11.029   5.272  0.1618 -0.4422  1.6151
  547MOL0     C75354  10.939  10.911   5.308  0.2882 -0.5532 -0.8985
  547MOL0     C75355  11.004  10.791   5.279  0.2369  0.6557 -0.6210
  547MOL0     O75356  10.963  10.671   5.328  1.8319  0.0936  0.3931
  547MOL0     C75357  10.857  10.663   5.429  0.4502 -0.0294  0.4120
  547MOL0     C75358  10.831  10.516   5.469 -0.2120  0.8352  0.5096
  547MOL0     C75359  10.778  10.431   5.354  0.6207 -0.7044  0.0404
  547MOL0     C75360  10.742  10.283   5.396 -0.1178 -0.1836  0.0222
  547MOL0     C75361  10.670  10.195   5.282  0.4719  0.2759 -0.5487
  547MOL0     C75362  10.536  10.269   5.245  0.4103  0.5813 -0.2693
  547MOL0     C75363  10.445  10.182   5.159 -0.0307  0.9584  0.2082
  547MOL0     C75364  10.331  10.256   5.103  0.7449  0.3682  0.5256
  547MOL0     N75365  10.241  10.176   5.010 -0.6346 -0.2696 -0.1430
  547MOL0     C75366  10.110  10.140   5.038  0.8533  0.3734  0.5024
  547MOL0     C75367  10.079  10.046   4.942  0.3074  0.4356 -0.3189
  547MOL0     C75368   9.946   9.998   4.889  0.1988 -0.5834  0.5358
  547MOL0     C75369   9.827  10.088   4.916 -0.5379 -0.2543  0.2346
  547MOL0     C75370   9.707  10.048   4.827  0.5494  1.0696  0.0371
  547MOL0     C75371   9.576  10.105   4.868 -0.2966  0.2991  0.2937
  547MOL0     O75372   9.574  10.248   4.877  0.5902  1.0607  0.2550
  547MOL0     C75373   9.460  10.309   4.928 -0.2661  0.3814 -0.2079
  547MOL0     C75374   9.477  10.432   5.002 -0.5689 -0.0163  0.7478
  547MOL0     C75375   9.371  10.510   5.048  0.8149 -0.4005 -1.2882
  547MOL0     C75376   9.395  10.635   5.132 -0.7071 -0.2810 -0.0991
  547MOL0     C75377   9.240  10.460   5.025  0.2033  0.7631  0.0133
  547MOL0     C75378   9.123  10.532   5.071  0.0480 -0.2161  0.1490
  547MOL0     O75379   9.007  10.456   5.085  0.6829 -0.5348 -0.4646
  547MOL0     C75380   8.883  10.520   5.117 -0.1586 -0.1469  0.2510
  547MOL0     C75381   8.876  10.616   5.217 -0.7407 -0.3209  0.2258
  547MOL0     C75382   8.745  10.672   5.241  0.0760 -0.6345 -0.4689
  547MOL0     C75383   8.635  10.633   5.164  0.5678  0.6200  0.1140
  547MOL0     O75384   8.519  10.698   5.192  1.4643 -0.6202  0.0354
  547MOL0     C75385   8.406  10.646   5.112 -1.0330 -0.0714 -0.8752
  547MOL0     C75386   8.277  10.732   5.137 -0.9001  0.1022  0.3263
  547MOL0     C75387   8.149  10.647   5.090 -0.3846  0.1034 -0.2272
  547MOL0     C75388   8.032  10.738   5.075 -0.4680 -0.4133  0.4548
  547MOL0     C75389   7.899  10.674   5.117  0.1197 -0.0352  0.9532
  547MOL0     C75390   7.804  10.644   4.997 -0.4354 -0.8430  0.4445
  547MOL0     C75391   7.685  10.564   5.057  0.5079  0.3833 -0.5827
  547MOL0     C75392   7.594  10.517   4.936 -0.3732  0.2044 -0.8341
  547MOL0    Cl75393   7.544  10.646   4.831 -0.0966  0.2666 -0.4454
  547MOL0     C75394   8.651  10.519   5.077  0.2260  0.3773  0.5291
  547MOL0     C75395   8.777  10.467   5.054  0.2945  0.6732 -0.4161
  547MOL0     O75396   9.129  10.647   5.107  0.3315  0.2066  0.5119
  547MOL0     C75397   9.223  10.345   4.939 -0.1225  0.6938 -0.4355
  547MOL0     C75398   9.330  10.267   4.904 -0.0164 -0.6549  0.3996
  547MOL0     N75399  10.200  10.028   4.875  0.5301  0.2427 -0.5199
  547MOL0     N75400  10.298  10.099   4.917  1.4763  0.3534  0.5697
  547MOL0     C75401  11.118  10.795   5.194 -0.0667 -0.4833 -0.2480
  547MOL0     C75402  11.173  10.918   5.162  1.8093 -0.8943 -0.4845
  547MOL0     C75403  11.142  11.348   4.971  0.2855  0.3484 -0.1136
  547MOL0     C75404  11.058  11.433   4.896  0.0551  0.7896 -0.2802
  547MOL0     C75405  11.102  11.543   4.818 -0.0388  0.2154 -0.3149
  547MOL0     C75406  11.240  11.567   4.807  1.4799  0.1404 -0.0985
  547MOL0     O75407  11.298  11.670   4.741 -1.2198 -0.1438  0.2540
  547MOL0     C75408  11.209  11.784   4.698  0.1981 -0.2526  0.2008
  547MOL0     C75409  11.179  11.896   4.797 -0.2955 -0.4030 -0.2407
  547MOL0     C75410  11.070  11.868   4.903  0.5014 -0.2446 -0.1434
  547MOL0     C75411  10.940  11.941   4.867 -0.1881  0.3818  0.2071
  547MOL0     C75412  10.833  11.894   4.948  0.8048  0.1869  0.9758
  547MOL0     C75413  10.735  11.862   5.020 -0.3133 -0.1989  0.0613
  547MOL0     C75414  11.323  11.485   4.883 -0.4960 -0.3079  0.0313
  547MOL0     C75415  11.280  11.380   4.969  0.4358  0.2370  0.3126
  547MOL0     C75416  11.377  11.290   5.050  0.5448  0.0473 -0.9185
  547MOL0     H75417  10.934  11.117   5.301 -0.9610 -0.6597  0.1905
  547MOL0     H75418  10.850  10.920   5.369  1.5606  2.3884  0.7712
  547MOL0     H75419  10.766  10.699   5.382 -0.5274 -0.6381  1.7832
  547MOL0     H75420  10.884  10.728   5.513 -1.2377  3.2899 -1.4121
  547MOL0     H75421  10.927  10.474   5.500  0.6020  0.5709 -2.1114
  547MOL0     H75422  10.760  10.513   5.552  0.2797  1.2469  0.9565
  547MOL0     H75423  10.692  10.493   5.325  2.3731  1.7044 -0.3426
  547MOL0     H75424  10.849  10.432   5.271 -0.6732  0.5521 -1.1143
  547MOL0     H75425  10.839  10.237   5.413  0.2885 -0.3730 -2.4681
  547MOL0     H75426  10.692  10.272   5.493  0.4245 -1.5360  0.1737
  547MOL0     H75427  10.658  10.097   5.329 -1.6553  2.0173  3.0465
  547MOL0     H75428  10.737  10.198   5.196 -0.2658 -0.4074 -1.1507
  547MOL0     H75429  10.478  10.293   5.335  0.7036  2.2574 -0.4947
  547MOL0     H75430  10.563  10.357   5.188  2.1893  0.1542 -0.1272
  547MOL0     H75431  10.405  10.107   5.228 -0.4249 -0.0425 -1.0750
  547MOL0     H75432  10.498  10.138   5.074  0.1701 -1.1715  1.3579
  547MOL0     H75433  10.271  10.307   5.179 -0.1364  1.8084 -1.0487
  547MOL0     H75434  10.383  10.335   5.047 -0.6278  3.3948  3.1874
  547MOL0     H75435  10.043  10.195   5.104  2.1831  2.1687  0.4305
  547MOL0     H75436   9.928   9.901   4.937  0.2442 -1.8680 -1.8735
  547MOL0     H75437   9.952   9.979   4.781 -3.1564 -1.8351  0.4503
  547MOL0     H75438   9.802  10.083   5.022 -0.2523  0.3035  0.3321
  547MOL0     H75439   9.870  10.182   4.881 -0.2922 -1.0170 -1.6308
  547MOL0     H75440   9.725  10.069   4.721  0.4667 -1.6083 -0.5806
  547MOL0     H75441   9.692   9.941   4.845  0.1655  0.9224 -1.1031
  547MOL0     H75442   9.501  10.063   4.800  1.1274 -0.1994 -1.0282
  547MOL0     H75443   9.558  10.059   4.965 -0.8238 -1.2424 -0.5001
  547MOL0     H75444   9.578  10.460   5.029  0.4363  0.8910 -3.2809
  547MOL0     H75445   9.499  10.643   5.165 -1.3149  0.4896  1.7039
  547MOL0     H75446   9.336  10.625   5.223 -0.7122  2.4563  0.2784
  547MOL0     H75447   9.372  10.727   5.079  2.0280 -0.1232 -1.2120
  547MOL0     H75448   8.958  10.646   5.282 -1.2836  0.4623  0.5609
  547MOL0     H75449   8.729  10.744   5.320  2.8898  3.6468 -3.3307
  547MOL0     H75450   8.441  10.644   5.008  1.4469 -0.0988 -0.1226
  547MOL0     H75451   8.387  10.545   5.148 -0.8826 -0.0900 -0.8448
  547MOL0     H75452   8.266  10.749   5.244 -3.5759  2.7983 -0.2559
  547MOL0     H75453   8.296  10.823   5.079  0.9554 -1.1722 -1.2332
  547MOL0     H75454   8.135  10.563   5.159  0.0579  0.1194 -0.1106
  547MOL0     H75455   8.162  10.584   5.002 -1.0005 -2.4883  1.4172
  547MOL0     H75456   8.028  10.800   4.985  0.7863 -0.2650  0.4789
  547MOL0     H75457   8.064  10.808   5.153  2.3352 -2.1765  1.0538
  547MOL0     H75458   7.918  10.584   5.177 -0.9717 -0.1323  1.1636
  547MOL0     H75459   7.851  10.741   5.189  1.9803  1.1164  1.1947
  547MOL0     H75460   7.846  10.576   4.922 -1.1994 -1.0782  0.2210
  547MOL0     H75461   7.782  10.744   4.957  2.6678 -0.4152 -0.4571
  547MOL0     H75462   7.638  10.635   5.126 -0.7964 -3.0611  2.4186
  547MOL0     H75463   7.712  10.472   5.109 -1.2395  0.8561  1.2823
  547MOL0     H75464   7.505  10.473   4.982 -0.0005  2.0282  1.8708
  547MOL0     H75465   7.634  10.442   4.868  2.5554 -0.1147  1.0524
  547MOL0     H75466   8.560  10.471   5.045  0.1179  0.3413  0.8818
  547MOL0     H75467   8.794  10.395   4.975 -2.7941  1.6111 -2.1051
  547MOL0     H75468   9.127  10.304   4.909  0.0992 -1.1716  1.2355
  547MOL0     H75469   9.309  10.196   4.825  0.1677 -1.4160  1.0240
  547MOL0     H75470  11.163  10.706   5.152  1.1268 -0.3364  0.6618
  547MOL0     H75471  11.255  10.927   5.092  1.6275  0.4270 -0.5581
  547MOL0     H75472  10.951  11.415   4.902 -0.1586  1.3789 -1.9635
  547MOL0     H75473  11.014  11.582   4.768  0.3864 -0.4383 -1.6133
  547MOL0     H75474  11.265  11.820   4.611 -0.9880 -0.3964 -0.6357
  547MOL0     H75475  11.116  11.745   4.657 -1.6847  2.2299  1.7648
  547MOL0     H75476  11.147  11.980   4.734 -3.3683 -2.9248 -2.3275
  547MOL0     H75477  11.270  11.920   4.852  0.2731  1.3408 -1.8155
  547MOL0     H75478  11.053  11.761   4.918 -3.2917  0.3704  1.2201
  547MOL0     H75479  11.103  11.897   5.004 -1.0438  0.4290  0.2018
  547MOL0     H75480  10.923  11.932   4.759 -0.2707  1.8942  0.0728
  547MOL0     H75481  10.945  12.049   4.887  2.4260 -0.0080  2.1841
  547MOL0     H75482  10.653  11.847   5.088  0.3327  1.1716  1.2025
  547MOL0     H75483  11.426  11.515   4.865 -0.4925 -0.5594 -0.3721
  547MOL0     H75484  11.354  11.285   5.156 -2.2724  0.3082 -1.4510
  547MOL0     H75485  11.377  11.185   5.016 -1.1592  0.9161 -3.9993
  547MOL0     H75486  11.477  11.334   5.045  0.8084 -0.3870  0.2398
  548MOL0     O75487  10.693   3.306   4.526 -0.4352 -0.3148 -0.3774
  548MOL0     C75488  10.671   3.280   4.644  0.2702  0.6513  0.2352
  548MOL0     O75489  10.739   3.330   4.753  0.1644  0.1229 -0.1545
  548MOL0     C75490  10.866   3.370   4.732 -0.9100  0.3380  0.3227
  548MOL0     C75491  10.920   3.442   4.838  0.0011  0.5090 -0.0947
  548MOL0     C75492  11.060   3.472   4.850 -0.2326  0.9781 -0.3494
  548MOL0     C75493  11.141   3.431   4.743  1.0530 -0.1890 -0.1833
  548MOL0     O75494  11.273   3.451   4.748 -0.0943  0.0045 -0.1481
  548MOL0     C75495  11.353   3.422   4.866 -0.1492  0.5461 -0.9118
  548MOL0     C75496  11.460   3.303   4.854 -0.1856 -0.2516 -0.1034
  548MOL0     C75497  11.397   3.164   4.829 -0.1697  0.2244  0.3692
  548MOL0     C75498  11.268   3.133   4.905 -0.3652  0.8312  0.3275
  548MOL0     C75499  11.206   2.998   4.854 -0.9481 -0.3769 -0.6692
  548MOL0     C75500  11.075   2.968   4.931  0.2887 -0.9206 -0.5149
  548MOL0     C75501  11.015   2.832   4.906 -0.0252  0.0292 -0.2812
  548MOL0     C75502  10.893   2.814   4.998 -0.0598  0.2717 -0.9718
  548MOL0     N75503  10.787   2.730   4.959 -0.0606  0.8365  0.1273
  548MOL0     C75504  10.783   2.589   4.978  0.2109  0.0635 -0.2935
  548MOL0     C75505  10.675   2.555   4.897 -0.0665 -0.3880  0.1053
  548MOL0     C75506  10.634   2.412   4.897  0.4825  0.3960 -0.2519
  548MOL0     C75507  10.485   2.401   4.893  0.0174  0.0372  0.3773
  548MOL0     C75508  10.450   2.242   4.905  0.7254  0.0990 -0.5100
  548MOL0     C75509  10.317   2.195   4.840 -0.7887 -0.4235 -0.7915
  548MOL0     O75510  10.207   2.246   4.918  0.4570  0.4661 -0.9922
  548MOL0     C75511  10.081   2.228   4.871  0.0308 -0.3239  0.3456
  548MOL0     C75512  10.046   2.158   4.754  1.0278  0.3666 -0.5412
  548MOL0     C75513   9.912   2.130   4.718  0.4910  0.4703  0.0154
  548MOL0     C75514   9.890   2.056   4.583  0.4399  0.2347  0.0218
  548MOL0     C75515   9.805   2.176   4.797  0.7563 -0.3250  0.0399
  548MOL0     C75516   9.665   2.159   4.754  1.1001  0.0633  0.4907
  548MOL0     O75517   9.614   2.036   4.720  0.2475  0.3576  0.4779
  548MOL0     C75518   9.501   2.043   4.645 -0.3376 -0.9567  0.3109
  548MOL0     C75519   9.512   2.039   4.504 -0.4728  0.1032  0.8809
  548MOL0     C75520   9.395   2.039   4.426  0.1985  0.3381  0.2050
  548MOL0     C75521   9.274   2.034   4.485  0.6443 -1.0880  1.1938
  548MOL0     O75522   9.156   2.022   4.415 -0.7220 -0.3261  0.4542
  548MOL0     C75523   9.129   2.153   4.355  0.1839  0.6091  1.1757
  548MOL0     C75524   8.992   2.152   4.274  0.5137 -0.3145  0.0815
  548MOL0     C75525   8.937   2.298   4.248 -0.4782 -0.0743 -0.0860
  548MOL0     C75526   8.792   2.287   4.220  0.7254  0.0892  0.0083
  548MOL0     C75527   8.720   2.421   4.194 -0.1569  0.3826  0.5711
  548MOL0     C75528   8.572   2.395   4.134  0.0175 -0.7572 -0.3334
  548MOL0     C75529   8.511   2.527   4.093  0.4782  0.3037  0.3372
  548MOL0     C75530   8.379   2.486   4.012 -0.2018  0.1166 -0.3860
  548MOL0    Cl75531   8.250   2.408   4.111 -0.2152 -0.1268  0.2606
  548MOL0     C75532   9.264   2.045   4.623  0.6560  1.0758  0.1221
  548MOL0     C75533   9.374   2.062   4.700 -0.0719 -0.7943  0.5827
  548MOL0     O75534   9.604   2.269   4.752 -0.1149  0.0802  0.5599
  548MOL0     C75535   9.838   2.243   4.913  0.2263 -0.9311  0.2852
  548MOL0     C75536   9.970   2.269   4.952  0.1968 -0.4122 -0.4231
  548MOL0     N75537  10.621   2.666   4.837 -0.3785  0.5564  0.3056
  548MOL0     N75538  10.689   2.771   4.874 -0.7535  0.5828  1.0283
  548MOL0     C75539  11.088   3.373   4.628 -0.2294  0.7044  0.1022
  548MOL0     C75540  10.953   3.325   4.625 -0.3908  0.8084  0.5727
  548MOL0     C75541  10.557   3.193   4.679  0.5840 -0.2949 -0.0295
  548MOL0     C75542  10.580   3.107   4.794 -0.6750 -0.2305  0.1252
  548MOL0     C75543  10.490   3.003   4.830  0.1426  1.0602  0.2264
  548MOL0     C75544  10.364   3.005   4.764  0.8384 -0.6374 -0.1211
  548MOL0     O75545  10.259   2.928   4.804  0.5135  0.5521  0.1970
  548MOL0     C75546  10.270   2.840   4.920 -0.6819 -0.1782 -0.6783
  548MOL0     C75547  10.134   2.809   4.968  0.1011  0.3293 -0.4775
  548MOL0     C75548  10.038   2.734   4.875  0.0665  0.1415 -0.0720
  548MOL0     C75549   9.896   2.712   4.936  0.4813  0.7984  0.3218
  548MOL0     C75550   9.815   2.636   4.843  0.5935  0.1631  0.4299
  548MOL0     C75551   9.730   2.585   4.767 -0.2752 -0.6236  0.8432
  548MOL0     C75552  10.335   3.092   4.660 -0.2558  0.3548  0.5112
  548MOL0     C75553  10.428   3.190   4.622  0.1817  0.6730  1.1493
  548MOL0     C75554  10.398   3.273   4.500  0.1834 -0.9062 -0.2942
  548MOL0     H75555  10.848   3.477   4.911 -2.2440  2.6040 -3.0818
  548MOL0     H75556  11.099   3.522   4.938 -0.5192  1.8908 -0.7308
  548MOL0     H75557  11.301   3.400   4.959  1.1978  0.8137 -0.0633
  548MOL0     H75558  11.408   3.514   4.888 -1.7747  0.9670  1.7560
  548MOL0     H75559  11.531   3.330   4.775  0.1847  0.3085  0.4200
  548MOL0     H75560  11.521   3.297   4.944  1.7426  2.6046 -1.0686
  548MOL0     H75561  11.362   3.163   4.726  1.4375  1.1180 -0.2230
  548MOL0     H75562  11.460   3.075   4.840 -2.8672 -1.7972  0.3734
  548MOL0     H75563  11.290   3.123   5.011  1.8766  0.8334 -0.0931
  548MOL0     H75564  11.191   3.211   4.900 -2.2352 -0.8983  0.5783
  548MOL0     H75565  11.277   2.917   4.877  0.2365  0.8569  0.1730
  548MOL0     H75566  11.186   3.001   4.746 -0.5279 -0.0197 -0.7427
  548MOL0     H75567  11.087   2.976   5.039 -1.5780  2.1637 -0.4071
  548MOL0     H75568  11.014   3.051   4.895  3.3602  1.2645 -1.1396
  548MOL0     H75569  11.080   2.746   4.920 -0.7108 -0.3082  0.9286
  548MOL0     H75570  10.974   2.833   4.804  0.2660  0.0205 -0.4009
  548MOL0     H75571  10.931   2.776   5.093 -1.2446  1.3836  0.0010
  548MOL0     H75572  10.844   2.912   5.001 -1.7066 -0.4211 -2.9897
  548MOL0     H75573  10.858   2.531   5.031  2.3498  0.9614 -2.1916
  548MOL0     H75574  10.668   2.354   4.983 -2.1985 -0.0299  0.6262
  548MOL0     H75575  10.667   2.360   4.806  1.4319 -0.3656  0.4981
  548MOL0     H75576  10.438   2.445   4.981 -2.9952 -1.1771 -0.5195
  548MOL0     H75577  10.444   2.440   4.800 -4.5772 -0.5695  1.9204
  548MOL0     H75578  10.525   2.179   4.857  2.5121  0.9316  1.0560
  548MOL0     H75579  10.445   2.212   5.011 -0.6185  1.3012 -0.2018
  548MOL0     H75580  10.317   2.232   4.737  1.2069 -2.7926 -1.7403
  548MOL0     H75581  10.314   2.086   4.849 -2.3054 -0.3383 -0.0084
  548MOL0     H75582  10.124   2.116   4.691  1.1969 -2.4684  1.3539
  548MOL0     H75583   9.980   2.039   4.525  1.7219 -1.5363  2.3617
  548MOL0     H75584   9.814   2.103   4.519  2.4782  0.7254 -2.1716
  548MOL0     H75585   9.853   1.954   4.591  0.7732  0.0852 -0.3080
  548MOL0     H75586   9.600   2.026   4.443 -2.0780  0.8705 -1.7637
  548MOL0     H75587   9.395   2.032   4.318 -2.7549  1.2629  0.0564
  548MOL0     H75588   9.105   2.224   4.436 -0.7256  2.5807 -0.7171
  548MOL0     H75589   9.209   2.183   4.288  1.0033 -1.5303  1.1239
  548MOL0     H75590   9.013   2.103   4.179  0.5330  1.2317 -0.7369
  548MOL0     H75591   8.911   2.091   4.316 -1.0578  0.6889 -1.3614
  548MOL0     H75592   8.987   2.346   4.164 -1.4759 -0.3773 -0.8674
  548MOL0     H75593   8.963   2.362   4.333 -1.0981  1.2557 -0.8628
  548MOL0     H75594   8.750   2.234   4.307 -1.6160 -1.4081 -1.9241
  548MOL0     H75595   8.794   2.219   4.134 -4.7151  1.9585 -2.0108
  548MOL0     H75596   8.720   2.485   4.283  1.9585  0.7863  0.3375
  548MOL0     H75597   8.774   2.473   4.114 -0.1757 -2.4396 -1.4176
  548MOL0     H75598   8.515   2.350   4.215 -0.6256  1.1725  0.3425
  548MOL0     H75599   8.581   2.327   4.049  3.1997  0.8786 -1.5217
  548MOL0     H75600   8.583   2.573   4.025 -3.2041  1.4433 -3.2338
  548MOL0     H75601   8.487   2.588   4.180 -2.7456  1.1930 -1.0405
  548MOL0     H75602   8.407   2.410   3.939 -3.2472 -1.1810 -0.3542
  548MOL0     H75603   8.345   2.581   3.971 -1.6189  0.1007  0.6672
  548MOL0     H75604   9.165   2.034   4.666  0.6256 -1.4261 -0.4237
  548MOL0     H75605   9.370   2.067   4.808  0.1940 -1.1903  0.6129
  548MOL0     H75606   9.749   2.278   4.964  0.4144  1.0424 -0.6391
  548MOL0     H75607   9.983   2.328   5.042  0.4355 -1.5169  0.2799
  548MOL0     H75608  11.166   3.344   4.559  0.8415 -2.1221  2.2920
  548MOL0     H75609  10.932   3.245   4.556  3.3352 -1.1548  1.4543
  548MOL0     H75610  10.679   3.114   4.837 -0.2705  1.8341 -1.0244
  548MOL0     H75611  10.509   2.935   4.912  0.6489 -1.5014 -1.8558
  548MOL0     H75612  10.334   2.758   4.887  1.6023  0.8500  0.8969
  548MOL0     H75613  10.313   2.885   5.010 -1.4703 -2.1494  0.7807
  548MOL0     H75614  10.100   2.907   5.004  1.6707  0.1793  1.5971
  548MOL0     H75615  10.145   2.749   5.059  0.7712 -1.3229 -1.6027
  548MOL0     H75616  10.024   2.794   4.784 -2.0785  0.9510  0.7249
  548MOL0     H75617  10.072   2.631   4.858 -2.4958 -0.5171 -1.6958
  548MOL0     H75618   9.840   2.799   4.970 -1.7821 -1.0348  1.6405
  548MOL0     H75619   9.909   2.647   5.023 -1.2045 -1.2558 -0.8623
  548MOL0     H75620   9.659   2.542   4.700 -0.0485 -0.0391  0.2147
  548MOL0     H75621  10.242   3.086   4.603  0.0525 -1.4236  0.1192
  548MOL0     H75622  10.291   3.282   4.479  0.5752 -1.4006 -2.7368
  548MOL0     H75623  10.448   3.370   4.509  1.1087 -1.4636  0.8801
  548MOL0     H75624  10.430   3.218   4.412 -1.1409 -4.4185  1.2310
  549MOL0     O75625   9.716   1.346   0.619  0.3220 -0.2512  0.4903
  549MOL0     C75626   9.782   1.442   0.594  0.7812 -0.0573  0.3436
  549MOL0     O75627   9.919   1.442   0.601  0.2596  0.0785 -0.8620
  549MOL0     C75628   9.993   1.337   0.642  0.2537 -0.0331  0.2683
  549MOL0     C75629  10.126   1.334   0.590  0.4565 -0.0862 -0.2023
  549MOL0     C75630  10.216   1.241   0.633 -0.4996 -0.4452  0.2851
  549MOL0     C75631  10.172   1.142   0.719 -0.0648  0.2425 -0.6225
  549MOL0     O75632  10.262   1.044   0.759  0.2374  0.3819 -0.3811
  549MOL0     C75633  10.332   0.973   0.653 -1.3296  0.6741 -0.8840
  549MOL0     C75634  10.402   0.852   0.713 -0.4676  0.1288 -0.2057
  549MOL0     C75635  10.312   0.729   0.734 -0.5672  0.4724 -0.2660
  549MOL0     C75636  10.167   0.760   0.769 -0.9658  0.5294 -0.3596
  549MOL0     C75637  10.106   0.630   0.812 -0.0240  0.3235 -0.1142
  549MOL0     C75638   9.967   0.650   0.861 -0.6401 -0.1090  0.8274
  549MOL0     C75639   9.952   0.745   0.984 -0.5104  0.1984  0.8489
  549MOL0     C75640   9.809   0.740   1.032 -0.4946 -0.5033  0.1295
  549MOL0     N75641   9.763   0.612   1.089 -0.3456 -0.0873 -0.2522
  549MOL0     C75642   9.820   0.525   1.176  0.5792  0.8467 -0.1000
  549MOL0     C75643   9.738   0.418   1.187 -0.1489  0.9442 -0.4801
  549MOL0     C75644   9.770   0.305   1.291 -0.6145  0.5289 -0.5631
  549MOL0     C75645   9.712   0.340   1.429 -0.4554 -0.9100  0.0942
  549MOL0     C75646   9.736   0.231   1.546 -0.2538  0.1622 -0.1499
  549MOL0     C75647   9.640   0.254   1.663 -0.4699  0.3904 -0.5305
  549MOL0     O75648   9.664   0.389   1.728 -0.0047  1.2113  0.0459
  549MOL0     C75649   9.789   0.406   1.789 -0.9746  0.0096 -0.2043
  549MOL0     C75650   9.859   0.524   1.766  0.5332 -0.5636  0.5381
  549MOL0     C75651   9.987   0.556   1.807 -0.6974 -0.0161 -0.5656
  549MOL0     C75652  10.024   0.704   1.806 -0.7305  0.7232 -0.8729
  549MOL0     C75653  10.059   0.448   1.875  0.0316  0.0030 -0.5426
  549MOL0     C75654  10.191   0.452   1.929 -0.2368 -0.3228 -0.7243
  549MOL0     O75655  10.265   0.336   1.916 -0.9982 -0.1411  0.1406
  549MOL0     C75656  10.385   0.330   1.990 -0.3252 -0.4480 -0.3967
  549MOL0     C75657  10.506   0.363   1.933  0.1329  0.4407 -0.9444
  549MOL0     C75658  10.624   0.343   2.002  0.1570 -0.7372  0.7378
  549MOL0     C75659  10.619   0.296   2.136  0.6446 -0.2220 -0.7172
  549MOL0     O75660  10.734   0.274   2.213 -0.0625 -0.0425  0.5440
  549MOL0     C75661  10.797   0.156   2.161  0.5833  0.3405  0.1245
  549MOL0     C75662  10.921   0.182   2.077 -0.4934  0.0611 -0.2224
  549MOL0     C75663  11.034   0.263   2.152  0.0853  0.2249 -0.3025
  549MOL0     C75664  11.168   0.255   2.080 -0.9347  0.6122 -0.1453
  549MOL0     C75665  11.271   0.323   2.171 -0.1058 -0.1685 -0.0744
  549MOL0     C75666  11.408   0.316   2.106  0.0962 -0.2294 -0.9394
  549MOL0     C75667  11.506   0.399   2.185  0.9491 -0.8453 -0.0092
  549MOL0     C75668  11.646   0.395   2.133 -0.1180 -0.2209 -0.1695
  549MOL0    Cl75669  11.676   0.471   1.976 -0.4917 -0.0148 -0.2633
  549MOL0     C75670  10.499   0.265   2.196 -0.5213  0.1904 -0.1894
  549MOL0     C75671  10.382   0.282   2.123  0.0735  0.6350  0.4860
  549MOL0     O75672  10.227   0.552   1.985  0.2154 -0.4939  0.4397
  549MOL0     C75673   9.984   0.328   1.894 -1.1514  0.5571  1.2865
  549MOL0     C75674   9.862   0.307   1.851  0.0137  0.2215 -0.3095
  549MOL0     N75675   9.634   0.437   1.108  0.6693  0.2947 -0.2287
  549MOL0     N75676   9.658   0.546   1.045  1.0292  0.1146  0.4501
  549MOL0     C75677  10.040   1.136   0.767  0.4391 -0.2014  0.7001
  549MOL0     C75678   9.950   1.240   0.730 -0.1697  0.3584 -0.2542
  549MOL0     C75679   9.706   1.569   0.567 -0.1472  0.0483 -0.4810
  549MOL0     C75680   9.728   1.677   0.647  0.0293  0.7232  0.0954
  549MOL0     C75681   9.660   1.799   0.616 -0.2381  0.4322  0.1090
  549MOL0     C75682   9.572   1.807   0.508  1.1801 -0.6442  1.2205
  549MOL0     O75683   9.522   1.930   0.483  0.8712  0.2761  0.3643
  549MOL0     C75684   9.406   1.954   0.407  0.2178  0.5854  0.0210
  549MOL0     C75685   9.453   2.003   0.265 -0.0820  1.1236 -0.1388
  549MOL0     C75686   9.350   1.992   0.157  0.1831  0.0357  0.0658
  549MOL0     C75687   9.266   2.123   0.151 -0.3330 -0.4201  1.1485
  549MOL0     C75688   9.159   2.108   0.245 -0.1220  0.4554  0.6351
  549MOL0     C75689   9.055   2.085   0.312  0.2352  0.0767  0.1490
  549MOL0     C75690   9.551   1.690   0.431 -0.4581 -0.0057  0.1405
  549MOL0     C75691   9.606   1.571   0.463 -1.0703  0.2125 -0.4908
  549MOL0     C75692   9.558   1.450   0.379  0.1411 -0.0253  0.2351
  549MOL0     H75693  10.156   1.420   0.531  1.8850  0.2960  1.0166
  549MOL0     H75694  10.321   1.239   0.606 -0.6972 -2.1764 -0.4848
  549MOL0     H75695  10.411   1.039   0.615  0.2036  0.8293  2.1991
  549MOL0     H75696  10.258   0.935   0.582 -1.8703 -1.2102  0.5992
  549MOL0     H75697  10.494   0.830   0.659 -0.2970 -2.0005  0.8561
  549MOL0     H75698  10.441   0.878   0.812  0.2461 -1.5853 -0.0014
  549MOL0     H75699  10.306   0.680   0.637 -0.6527 -3.3857  1.5077
  549MOL0     H75700  10.355   0.659   0.806 -1.4711 -1.4447 -1.5385
  549MOL0     H75701  10.168   0.820   0.860  0.6231 -0.9623  0.6579
  549MOL0     H75702  10.108   0.816   0.696 -2.4417 -1.8401 -1.1013
  549MOL0     H75703  10.156   0.584   0.898  0.5053 -0.4982 -0.8407
  549MOL0     H75704  10.109   0.563   0.725  0.0910 -2.3332  1.8059
  549MOL0     H75705   9.905   0.690   0.781 -0.3558  1.7027  1.4603
  549MOL0     H75706   9.927   0.552   0.887 -0.9073  0.4275  2.5440
  549MOL0     H75707   9.981   0.849   0.967  0.3540  0.0462  1.3689
  549MOL0     H75708  10.020   0.718   1.065  1.4531 -1.8174 -1.3257
  549MOL0     H75709   9.792   0.820   1.105  0.2464  0.1039 -0.3546
  549MOL0     H75710   9.744   0.772   0.949  4.4868  1.0686 -3.6563
  549MOL0     H75711   9.913   0.527   1.232 -1.4429 -3.6427  4.2152
  549MOL0     H75712   9.877   0.284   1.294 -0.8533 -0.6080  0.9892
  549MOL0     H75713   9.708   0.224   1.250 -3.1664  1.4710  1.1524
  549MOL0     H75714   9.773   0.421   1.471 -1.5260 -0.7526  1.4174
  549MOL0     H75715   9.609   0.376   1.432 -0.1629 -0.0470  3.0658
  549MOL0     H75716   9.709   0.134   1.503  1.2538 -0.7056  0.7678
  549MOL0     H75717   9.840   0.220   1.581 -1.0565 -0.5660  2.2590
  549MOL0     H75718   9.534   0.241   1.639 -0.4286 -2.0666  0.3759
  549MOL0     H75719   9.659   0.168   1.729  1.3345 -2.3479 -4.1958
  549MOL0     H75720   9.802   0.598   1.710 -0.1313  0.6705  2.6836
  549MOL0     H75721   9.962   0.765   1.740 -1.2191  0.6604 -0.4764
  549MOL0     H75722  10.131   0.696   1.784 -0.9770 -0.5854 -1.7422
  549MOL0     H75723  10.016   0.753   1.903  2.4434  2.8649 -1.5162
  549MOL0     H75724  10.509   0.394   1.829  0.2967  3.3879 -0.1677
  549MOL0     H75725  10.718   0.378   1.960  0.1627 -1.6919 -0.0730
  549MOL0     H75726  10.828   0.091   2.244 -1.7345 -2.6971 -1.2089
  549MOL0     H75727  10.725   0.090   2.112  1.9541 -3.2930  2.5406
  549MOL0     H75728  10.960   0.082   2.059 -1.4201 -0.7263  1.7554
  549MOL0     H75729  10.889   0.226   1.982 -3.4592 -1.6869 -0.1853
  549MOL0     H75730  11.049   0.231   2.256 -2.0170  0.9141  0.2746
  549MOL0     H75731  10.998   0.367   2.154 -0.7869 -0.0735  0.1940
  549MOL0     H75732  11.170   0.324   1.995  1.1168  2.8406  1.5473
  549MOL0     H75733  11.191   0.151   2.054 -1.4179  0.1061  1.3838
  549MOL0     H75734  11.242   0.423   2.203 -1.5279  0.1439 -2.1491
  549MOL0     H75735  11.267   0.255   2.257 -0.7516  1.6024  1.3586
  549MOL0     H75736  11.399   0.355   2.005  1.4477 -0.4751 -1.1681
  549MOL0     H75737  11.447   0.214   2.103  1.0650  0.0045  1.4780
  549MOL0     H75738  11.510   0.354   2.285  1.1794 -1.9034 -0.4832
  549MOL0     H75739  11.469   0.502   2.192 -0.1417 -1.2883  1.1347
  549MOL0     H75740  11.680   0.292   2.117  0.4168  0.0119 -0.5612
  549MOL0     H75741  11.705   0.453   2.204  0.4743  0.3531 -1.1002
  549MOL0     H75742  10.505   0.214   2.292  0.1945  0.1056 -0.2763
  549MOL0     H75743  10.287   0.244   2.161  0.9766 -2.0286  0.2749
  549MOL0     H75744  10.038   0.247   1.941  0.2741 -0.1350 -1.3174
  549MOL0     H75745   9.811   0.212   1.865  1.8977 -0.7626  0.1435
  549MOL0     H75746  10.010   1.047   0.821 -1.0618  0.2735  0.7153
  549MOL0     H75747   9.852   1.236   0.775  1.0027 -0.3777  2.4598
  549MOL0     H75748   9.790   1.666   0.736 -2.3480  1.6755  1.9994
  549MOL0     H75749   9.681   1.884   0.681 -1.6867  0.7256  0.2338
  549MOL0     H75750   9.329   1.877   0.399  1.5658 -0.6737 -2.3391
  549MOL0     H75751   9.354   2.039   0.451 -0.9230  0.0505 -0.2696
  549MOL0     H75752   9.526   1.925   0.239 -1.8118  0.2000 -2.5656
  549MOL0     H75753   9.503   2.100   0.265 -0.8805  1.5554  1.1745
  549MOL0     H75754   9.404   1.986   0.062  1.5347 -0.1181  0.8139
  549MOL0     H75755   9.283   1.907   0.169  1.7389 -1.3870 -1.0136
  549MOL0     H75756   9.218   2.118   0.053 -3.6365 -1.5576  2.6486
  549MOL0     H75757   9.322   2.216   0.153  2.1648 -1.8439  1.8186
  549MOL0     H75758   8.965   2.073   0.369  0.2200 -0.1818  0.0724
  549MOL0     H75759   9.496   1.697   0.338 -0.8812 -1.6654  0.2309
  549MOL0     H75760   9.571   1.353   0.429  1.3761 -0.2269 -0.4325
  549MOL0     H75761   9.452   1.460   0.358 -0.1749 -1.8053  0.8058
  549MOL0     H75762   9.608   1.436   0.282  0.5350 -2.8771  0.7648
  550MOL0     O75763   4.452  10.326   7.906 -0.7559 -0.1535 -0.3607
  550MOL0     C75764   4.425  10.237   7.831 -0.0274 -0.6471  0.0922
  550MOL0     O75765   4.458  10.102   7.848 -0.1761  0.0640 -0.4956
  550MOL0     C75766   4.510  10.079   7.973  0.6274 -0.4804 -0.1361
  550MOL0     C75767   4.415  10.041   8.075 -0.1388  0.8003  0.2500
  550MOL0     C75768   4.469   9.988   8.195 -1.0030  0.0764 -0.4312
  550MOL0     C75769   4.608   9.967   8.216  1.0644  0.4419 -0.3233
  550MOL0     O75770   4.657   9.917   8.330 -0.0327  0.0125 -0.0120
  550MOL0     C75771   4.708   9.781   8.314 -0.3134  0.1877  0.2274
  550MOL0     C75772   4.821   9.762   8.413 -0.1520 -1.1504  0.3053
  550MOL0     C75773   4.847   9.605   8.428 -0.1104 -0.1801 -0.4470
  550MOL0     C75774   4.960   9.568   8.340 -0.3852 -0.2143  0.8368
  550MOL0     C75775   5.028   9.433   8.369 -0.7331 -0.1032  0.6022
  550MOL0     C75776   5.150   9.395   8.289  0.0689  1.7824 -0.1042
  550MOL0     C75777   5.222   9.271   8.357 -0.0568 -0.1456 -0.1444
  550MOL0     C75778   5.190   9.140   8.284  0.5805  0.2258  0.4055
  550MOL0     N75779   5.253   9.021   8.339 -0.9523  0.8116  0.1948
  550MOL0     C75780   5.386   9.003   8.379 -0.3929  0.1767  0.0021
  550MOL0     C75781   5.397   8.871   8.425  0.3430 -0.1023 -0.1240
  550MOL0     C75782   5.492   8.800   8.515 -0.0881 -0.1763  0.2635
  550MOL0     C75783   5.621   8.763   8.450 -0.4054  0.2314 -0.5150
  550MOL0     C75784   5.618   8.616   8.395 -0.1139  0.2972 -0.2505
  550MOL0     C75785   5.751   8.579   8.348 -0.4741 -0.0772  0.1492
  550MOL0     O75786   5.729   8.445   8.290 -0.2433 -0.6987  0.2871
  550MOL0     C75787   5.833   8.361   8.261  0.3078  0.3379 -0.4591
  550MOL0     C75788   5.818   8.223   8.268 -0.8274 -0.0372 -0.1182
  550MOL0     C75789   5.929   8.144   8.248  0.0483 -1.3844 -0.8792
  550MOL0     C75790   5.898   7.999   8.266  0.9192 -0.1561 -0.2989
  550MOL0     C75791   6.057   8.203   8.217 -0.3149 -0.3388 -0.8096
  550MOL0     C75792   6.183   8.121   8.184  0.5975  0.8590  0.6070
  550MOL0     O75793   6.304   8.186   8.193  0.1176 -0.0679 -0.2189
  550MOL0     C75794   6.422   8.114   8.200  0.1266 -1.0771 -0.0021
  550MOL0     C75795   6.541   8.163   8.145  0.1780  0.4910  0.1863
  550MOL0     C75796   6.658   8.098   8.161 -1.2947  0.5215  0.0289
  550MOL0     C75797   6.659   7.982   8.244  0.7590 -0.1915 -0.7391
  550MOL0     O75798   6.774   7.912   8.281  0.3980 -0.0310 -0.2270
  550MOL0     C75799   6.893   7.970   8.231  0.0031  0.0856  0.0354
  550MOL0     C75800   7.033   7.911   8.273  0.4426 -0.0852  0.2705
  550MOL0     C75801   7.046   7.945   8.421 -0.2627  0.1137 -0.7887
  550MOL0     C75802   7.184   7.885   8.465 -0.0843 -0.4967 -0.4665
  550MOL0     C75803   7.240   7.930   8.600  0.0159 -0.0605 -0.1903
  550MOL0     C75804   7.341   7.827   8.650 -0.2326  0.0077  0.0267
  550MOL0     C75805   7.397   7.868   8.790 -0.5409 -1.1909 -0.6119
  550MOL0     C75806   7.465   7.752   8.856 -0.0300  1.0706 -0.0072
  550MOL0    Cl75807   7.613   7.683   8.774  0.0755  0.1249  0.2831
  550MOL0     C75808   6.540   7.940   8.306 -0.4629  0.3835  0.1008
  550MOL0     C75809   6.423   8.004   8.286 -1.1670 -0.5258  0.1395
  550MOL0     O75810   6.167   8.006   8.152 -0.1869 -0.2386  1.0270
  550MOL0     C75811   6.073   8.343   8.198  0.2726  0.1599 -1.0118
  550MOL0     C75812   5.958   8.418   8.228 -0.5022 -0.0539  0.6004
  550MOL0     N75813   5.275   8.807   8.391  0.5097  0.3169 -0.6233
  550MOL0     N75814   5.189   8.898   8.349  0.5303  1.0853  0.3274
  550MOL0     C75815   4.694  10.013   8.121 -0.3941 -1.2900  1.2350
  550MOL0     C75816   4.654  10.054   7.996  0.5225 -0.3384  0.6318
  550MOL0     C75817   4.354  10.266   7.704 -0.1536 -0.2856  0.4146
  550MOL0     C75818   4.288  10.152   7.637  0.0895 -0.7206 -0.7866
  550MOL0     C75819   4.224  10.180   7.511  0.2720 -1.0576 -0.3467
  550MOL0     C75820   4.250  10.298   7.439 -0.3241  0.4701  0.4972
  550MOL0     O75821   4.204  10.319   7.310 -0.4015  0.4687 -0.5990
  550MOL0     C75822   4.315  10.297   7.217 -0.4804  0.4352  0.1254
  550MOL0     C75823   4.258  10.261   7.083  0.3299  1.0417  0.3826
  550MOL0     C75824   4.192  10.122   7.086  0.2925 -0.3218  0.5661
  550MOL0     C75825   4.086  10.101   6.973 -0.1874  0.4891 -0.2417
  550MOL0     C75826   3.954  10.040   7.007 -0.4184 -0.0535  0.3879
  550MOL0     C75827   3.844  10.008   7.045  0.5444 -1.0425 -0.4058
  550MOL0     C75828   4.304  10.401   7.515  0.5393  0.0681  0.2253
  550MOL0     C75829   4.354  10.395   7.639 -0.5714 -0.3562 -0.3364
  550MOL0     C75830   4.422  10.519   7.702 -0.6308 -0.1184  0.2774
  550MOL0     H75831   4.313  10.055   8.039 -0.3326 -2.8601 -1.0672
  550MOL0     H75832   4.420   9.947   8.282 -0.3637 -0.2241 -0.2106
  550MOL0     H75833   4.753   9.744   8.221 -0.0701 -1.7207  1.0696
  550MOL0     H75834   4.620   9.722   8.341 -1.4461  2.5285  2.0366
  550MOL0     H75835   4.914   9.819   8.401 -0.4210 -0.7419  0.1317
  550MOL0     H75836   4.798   9.809   8.509  1.1337 -1.1378  0.6343
  550MOL0     H75837   4.887   9.591   8.529 -1.9398 -0.7976  0.2174
  550MOL0     H75838   4.756   9.547   8.415  0.4499 -1.0593 -0.5579
  550MOL0     H75839   4.922   9.565   8.238  1.7227 -1.7672  0.0303
  550MOL0     H75840   5.041   9.642   8.341  1.0646 -1.6370 -1.6952
  550MOL0     H75841   4.961   9.347   8.354  0.9167 -1.1119 -1.5847
  550MOL0     H75842   5.055   9.439   8.474  1.3263 -1.2882  0.2043
  550MOL0     H75843   5.132   9.371   8.184  2.2194  0.4108 -0.2224
  550MOL0     H75844   5.220   9.479   8.298  0.4611  1.4384  0.0596
  550MOL0     H75845   5.191   9.262   8.461  0.0046 -0.6694 -0.1708
  550MOL0     H75846   5.329   9.293   8.352 -0.2604  1.1460  0.7481
  550MOL0     H75847   5.083   9.120   8.284  0.8648 -1.5323  1.1559
  550MOL0     H75848   5.212   9.165   8.180  0.7739  2.6783  0.9798
  550MOL0     H75849   5.460   9.081   8.394 -1.3549  0.7497  2.1664
  550MOL0     H75850   5.444   8.706   8.541 -0.0594 -0.1669  0.3543
  550MOL0     H75851   5.513   8.850   8.610  1.4011  0.2274 -0.2402
  550MOL0     H75852   5.651   8.828   8.367  0.9372 -0.4909 -0.6282
  550MOL0     H75853   5.690   8.782   8.533 -0.7421 -3.3225  0.7404
  550MOL0     H75854   5.588   8.549   8.476  2.1558 -0.8141 -0.2551
  550MOL0     H75855   5.543   8.603   8.316 -1.8029  1.6922  1.0338
  550MOL0     H75856   5.784   8.657   8.278 -0.1295  1.4982  1.9794
  550MOL0     H75857   5.827   8.577   8.427  0.0766  0.0698 -0.3672
  550MOL0     H75858   5.715   8.191   8.278 -1.3902  1.8846  0.6623
  550MOL0     H75859   5.890   7.941   8.173  1.4864 -1.0511  0.1852
  550MOL0     H75860   5.809   7.985   8.328  0.9445  1.1420  0.0448
  550MOL0     H75861   5.976   7.941   8.318  0.2263 -2.5101 -1.7109
  550MOL0     H75862   6.546   8.251   8.082 -1.8664  0.7542  0.3010
  550MOL0     H75863   6.748   8.118   8.103 -1.7810 -3.3988 -2.4544
  550MOL0     H75864   6.888   7.962   8.122  2.2362 -3.1833  0.0156
  550MOL0     H75865   6.896   8.073   8.267 -0.0670 -0.0185  0.3372
  550MOL0     H75866   7.035   7.802   8.262  0.2212 -0.1688  1.0086
  550MOL0     H75867   7.114   7.953   8.213 -1.3686 -2.4971 -4.4141
  550MOL0     H75868   6.965   7.922   8.491 -0.4247 -0.9992 -1.3335
  550MOL0     H75869   7.055   8.054   8.432  0.1709  0.0669 -0.6638
  550MOL0     H75870   7.263   7.912   8.394  0.7734 -2.2929 -0.2471
  550MOL0     H75871   7.174   7.777   8.472 -3.2836 -0.2232  0.6862
  550MOL0     H75872   7.292   8.025   8.586  0.7562 -0.0503  2.1846
  550MOL0     H75873   7.166   7.946   8.679  2.5367  2.4806  1.8886
  550MOL0     H75874   7.423   7.809   8.580  1.5686  0.0242  2.0489
  550MOL0     H75875   7.284   7.734   8.656 -3.7371  1.6987 -2.6964
  550MOL0     H75876   7.312   7.891   8.855  0.1234 -0.8831  0.1526
  550MOL0     H75877   7.470   7.949   8.779  0.1198 -1.9173 -1.8456
  550MOL0     H75878   7.390   7.674   8.863  0.5540  0.3644 -1.3199
  550MOL0     H75879   7.484   7.778   8.961 -3.2716 -0.1744  0.9836
  550MOL0     H75880   6.552   7.846   8.359 -1.1582  0.5716  0.6135
  550MOL0     H75881   6.335   7.971   8.341  1.0105 -3.5074  2.1855
  550MOL0     H75882   6.167   8.392   8.177 -0.3553  2.3877  0.8906
  550MOL0     H75883   5.964   8.526   8.218  0.9778 -0.0652  1.1540
  550MOL0     H75884   4.802  10.011   8.136  0.0288  0.0166 -1.2062
  550MOL0     H75885   4.720  10.074   7.912 -0.4813 -1.1883 -0.3987
  550MOL0     H75886   4.280  10.056   7.686 -0.3806  0.4285  1.5629
  550MOL0     H75887   4.166  10.100   7.467 -0.8668 -0.6114  0.2906
  550MOL0     H75888   4.376  10.388   7.206 -0.3107  0.5367  1.7626
  550MOL0     H75889   4.376  10.213   7.249  0.2544  1.0435  0.3453
  550MOL0     H75890   4.351  10.245   7.028  0.4695  2.5901  0.1054
  550MOL0     H75891   4.197  10.343   7.042  0.9567  0.8581 -0.9772
  550MOL0     H75892   4.272  10.050   7.066  0.0322 -0.4761  0.0788
  550MOL0     H75893   4.142  10.094   7.179  0.3159  0.7530  0.9136
  550MOL0     H75894   4.136  10.051   6.889 -0.6416  2.8453 -2.0091
  550MOL0     H75895   4.065  10.200   6.933  3.2921  0.8185 -1.6811
  550MOL0     H75896   3.745   9.980   7.074  0.3519  0.2183  0.2045
  550MOL0     H75897   4.303  10.495   7.460 -0.5688  1.6742  2.8347
  550MOL0     H75898   4.515  10.504   7.757  0.9985  1.5985 -1.8622
  550MOL0     H75899   4.444  10.582   7.616 -2.0751  1.9470  1.3198
  550MOL0     H75900   4.357  10.578   7.769 -0.2922 -0.3139  0.7845
  551MOL0     O75901  10.037   3.461   4.472  0.2677 -0.4451  0.7305
  551MOL0     C75902   9.962   3.515   4.391 -0.1493  0.2480  0.7743
  551MOL0     O75903   9.994   3.564   4.269 -0.0554 -0.4479 -0.1209
  551MOL0     C75904  10.129   3.563   4.245 -0.7607  0.1085 -0.2100
  551MOL0     C75905  10.221   3.660   4.296 -0.3755 -0.4897 -0.2322
  551MOL0     C75906  10.362   3.651   4.267 -0.5217  0.4748 -0.2091
  551MOL0     C75907  10.407   3.560   4.181  0.0461  0.5908 -1.2792
  551MOL0     O75908  10.538   3.553   4.140  0.1792  0.3569  0.7040
  551MOL0     C75909  10.605   3.425   4.146  0.4320  0.2300 -0.5900
  551MOL0     C75910  10.727   3.417   4.232 -0.5131  0.0718  0.2842
  551MOL0     C75911  10.798   3.277   4.221 -0.7181 -0.5204 -0.2914
  551MOL0     C75912  10.957   3.276   4.261 -0.1353 -0.2220 -0.3886
  551MOL0     C75913  11.037   3.327   4.141  0.8579  0.4404  0.3775
  551MOL0     C75914  11.182   3.340   4.175 -0.6323  0.9395 -0.1301
  551MOL0     C75915  11.264   3.390   4.046 -0.4089  0.4965  0.3371
  551MOL0     C75916  11.410   3.337   4.047 -0.1623 -0.2018 -0.5466
  551MOL0     N75917  11.484   3.397   3.936  1.0112  0.3724  0.1103
  551MOL0     C75918  11.621   3.415   3.934 -0.5485  0.6938  0.1993
  551MOL0     C75919  11.641   3.473   3.811 -0.4707 -0.3217 -0.3689
  551MOL0     C75920  11.770   3.499   3.750 -0.0076 -1.0204 -0.5925
  551MOL0     C75921  11.793   3.653   3.786  0.2452 -0.0671  0.0254
  551MOL0     C75922  11.936   3.696   3.775 -0.8731 -0.3555  0.6652
  551MOL0     C75923  11.988   3.702   3.626  0.7642 -0.2034 -0.4089
  551MOL0     O75924  12.120   3.756   3.603 -0.1101  0.4238 -0.0153
  551MOL0     C75925  12.177   3.745   3.480 -0.4721 -1.0094 -0.3000
  551MOL0     C75926  12.304   3.794   3.473  0.3513  0.0551 -0.8879
  551MOL0     C75927  12.380   3.806   3.356  0.3659  0.7169 -0.0356
  551MOL0     C75928  12.513   3.874   3.367  0.7154  0.2729  0.2748
  551MOL0     C75929  12.317   3.757   3.236  0.4131  0.0847  0.3211
  551MOL0     C75930  12.385   3.774   3.100  0.0625 -0.0525 -0.5720
  551MOL0     O75931  12.316   3.709   3.001  0.7080  0.0840 -0.0031
  551MOL0     C75932  12.387   3.677   2.888  1.1279  0.0980 -0.2669
  551MOL0     C75933  12.488   3.584   2.887 -0.2254  0.1062  0.0484
  551MOL0     C75934  12.555   3.548   2.773 -0.5577  0.0063 -0.3111
  551MOL0     C75935  12.531   3.601   2.651 -0.2207  0.1892 -0.2956
  551MOL0     O75936  12.606   3.561   2.544  0.1170  0.8840  0.2613
  551MOL0     C75937  12.637   3.652   2.439 -0.2991  0.1369  0.0664
  551MOL0     C75938  12.713   3.580   2.329 -0.1468  0.2092 -0.1323
  551MOL0     C75939  12.839   3.513   2.382  0.0147 -0.0442 -0.7043
  551MOL0     C75940  12.884   3.418   2.280 -0.6108  0.9243 -0.0185
  551MOL0     C75941  13.012   3.346   2.332 -0.0444  0.4525  0.0659
  551MOL0     C75942  13.095   3.284   2.213  0.2662  0.0305 -0.2982
  551MOL0     C75943  13.168   3.407   2.148  0.0991  0.1191 -0.2922
  551MOL0     C75944  13.254   3.369   2.024  0.0393  0.3636  0.2990
  551MOL0    Cl75945  13.376   3.243   2.071  0.1754  0.0059 -0.5706
  551MOL0     C75946  12.429   3.699   2.649  0.2081  0.2038  0.5987
  551MOL0     C75947  12.363   3.744   2.768 -0.1409 -0.2136 -0.0433
  551MOL0     O75948  12.495   3.831   3.085 -0.5035  0.3052  0.1237
  551MOL0     C75949  12.182   3.707   3.242 -0.0506 -1.0461  1.0293
  551MOL0     C75950  12.110   3.698   3.364 -0.3452  0.7437 -0.0965
  551MOL0     N75951  11.522   3.492   3.741 -0.5902  0.2693  0.0916
  551MOL0     N75952  11.431   3.453   3.826  0.1636 -0.4165 -0.1377
  551MOL0     C75953  10.318   3.466   4.131 -0.2961  0.4672  0.3938
  551MOL0     C75954  10.181   3.466   4.153 -0.3623 -0.4824  0.1863
  551MOL0     C75955   9.825   3.532   4.440  0.1194 -0.8583 -0.0146
  551MOL0     C75956   9.812   3.575   4.577  0.5800  0.2018 -0.1980
  551MOL0     C75957   9.689   3.575   4.636  0.3617 -0.0619 -0.3101
  551MOL0     C75958   9.569   3.540   4.565  0.5125 -0.3801 -0.3314
  551MOL0     O75959   9.457   3.532   4.640 -0.2191  0.2346 -1.1746
  551MOL0     C75960   9.334   3.508   4.578 -0.1919 -0.1435  0.6435
  551MOL0     C75961   9.222   3.503   4.679  0.5539 -0.4183  0.1950
  551MOL0     C75962   9.251   3.390   4.785 -0.7417 -0.8837 -0.0505
  551MOL0     C75963   9.161   3.282   4.808  0.5085 -0.1660  0.6469
  551MOL0     C75964   9.035   3.330   4.862  0.0344  0.9689  0.2178
  551MOL0     C75965   8.920   3.354   4.902 -0.7414  0.3521  0.8586
  551MOL0     C75966   9.585   3.518   4.433 -0.3813  0.0865  0.1329
  551MOL0     C75967   9.705   3.511   4.365 -0.2058 -0.2327  0.2097
  551MOL0     C75968   9.707   3.472   4.226  0.0350 -0.5247  0.6664
  551MOL0     H75969  10.188   3.749   4.348 -0.3261 -1.3204  1.2953
  551MOL0     H75970  10.421   3.737   4.298 -0.0338  0.7352 -1.7555
  551MOL0     H75971  10.623   3.400   4.041 -2.7744  1.4534 -1.5341
  551MOL0     H75972  10.535   3.353   4.189  2.1643  0.0254  2.1289
  551MOL0     H75973  10.807   3.477   4.188  0.8462 -2.0161 -0.2827
  551MOL0     H75974  10.702   3.441   4.335  1.3067 -1.2920  1.1104
  551MOL0     H75975  10.744   3.202   4.279  1.8952 -0.7570  2.0281
  551MOL0     H75976  10.793   3.232   4.122  0.0538 -1.2341 -0.0228
  551MOL0     H75977  10.982   3.342   4.344  3.4612 -2.6533  0.7199
  551MOL0     H75978  11.001   3.182   4.295  0.9790 -0.2803 -1.9135
  551MOL0     H75979  11.005   3.427   4.110 -0.2773 -0.2898 -0.9209
  551MOL0     H75980  11.018   3.254   4.062  1.2702 -0.4038  1.0395
  551MOL0     H75981  11.198   3.400   4.265  0.9087  0.5524 -0.1141
  551MOL0     H75982  11.218   3.239   4.196 -0.6236  1.1476  0.8750
  551MOL0     H75983  11.269   3.499   4.053 -0.9751  0.4435  2.0215
  551MOL0     H75984  11.223   3.364   3.948 -0.9350 -1.8359  1.1007
  551MOL0     H75985  11.465   3.350   4.141 -0.4693 -4.2357  0.3707
  551MOL0     H75986  11.406   3.228   4.051 -0.4591 -0.1706  0.3020
  551MOL0     H75987  11.690   3.371   4.006  0.2131 -0.4543 -1.1947
  551MOL0     H75988  11.770   3.486   3.642 -0.0159 -1.8555 -0.4991
  551MOL0     H75989  11.842   3.435   3.801  1.8822  0.8506 -0.7525
  551MOL0     H75990  11.731   3.713   3.719  0.5462 -0.7457 -0.8821
  551MOL0     H75991  11.757   3.681   3.886 -1.1254 -0.5020 -0.3281
  551MOL0     H75992  11.954   3.799   3.808  1.4309 -0.2485 -0.6940
  551MOL0     H75993  11.998   3.632   3.838 -0.3362  0.5970  1.1319
  551MOL0     H75994  11.979   3.600   3.588 -1.4729  0.0349 -0.6533
  551MOL0     H75995  11.912   3.761   3.574  1.4517 -0.1174 -1.3476
  551MOL0     H75996  12.358   3.830   3.560  2.3316 -1.3048 -1.4623
  551MOL0     H75997  12.550   3.895   3.467 -0.9325  1.0470  0.7673
  551MOL0     H75998  12.506   3.974   3.323 -0.4918 -0.6879 -1.8799
  551MOL0     H75999  12.581   3.818   3.302 -0.5660  1.0074 -1.8337
  551MOL0     H76000  12.518   3.539   2.982  1.4977 -1.1236 -1.0267
  551MOL0     H76001  12.627   3.468   2.789 -0.6347  0.0311  0.1693
  551MOL0     H76002  12.543   3.685   2.393  1.5095  3.5432 -1.5088
  551MOL0     H76003  12.693   3.731   2.488 -3.6559 -0.1483  5.1660
  551MOL0     H76004  12.647   3.508   2.281 -0.6691 -0.6563  1.7982
  551MOL0     H76005  12.754   3.654   2.259 -3.2044  1.1561 -1.0957
  551MOL0     H76006  12.805   3.462   2.473 -1.4961  1.0939 -0.6000
  551MOL0     H76007  12.913   3.587   2.413  0.9460 -1.6301  1.0701
  551MOL0     H76008  12.893   3.468   2.182  2.7284  1.9624  0.6828
  551MOL0     H76009  12.794   3.357   2.272 -1.4148  2.1141 -0.4104
  551MOL0     H76010  13.064   3.420   2.394  0.7808 -0.5413  0.5764
  551MOL0     H76011  12.985   3.266   2.401 -0.5833  0.6151  0.0520
  551MOL0     H76012  13.034   3.235   2.136  0.7234 -3.1471  1.1926
  551MOL0     H76013  13.167   3.206   2.241 -1.7746 -3.5587 -3.9017
  551MOL0     H76014  13.236   3.454   2.220  0.2250  0.1596 -0.4359
  551MOL0     H76015  13.095   3.486   2.129  0.2010  0.9266  2.3273
  551MOL0     H76016  13.307   3.455   1.984 -0.8629  1.3353  1.1306
  551MOL0     H76017  13.189   3.333   1.943  1.1328 -0.2972 -0.3060
  551MOL0     H76018  12.412   3.756   2.559 -1.2234 -0.2399  0.5754
  551MOL0     H76019  12.304   3.834   2.752 -0.1948  0.7040  4.2340
  551MOL0     H76020  12.130   3.677   3.152 -0.9566 -1.9764  1.8411
  551MOL0     H76021  12.009   3.661   3.374 -0.5705  1.2191 -0.5044
  551MOL0     H76022  10.362   3.400   4.056  1.0471 -0.4673  1.9277
  551MOL0     H76023  10.110   3.398   4.107 -0.4600  0.8139 -1.7253
  551MOL0     H76024   9.905   3.593   4.629  0.7004  1.5160 -0.8483
  551MOL0     H76025   9.686   3.599   4.742  0.6675  0.1182 -0.3410
  551MOL0     H76026   9.325   3.587   4.504 -0.5848 -1.1453 -0.4087
  551MOL0     H76027   9.327   3.416   4.519  0.1497 -0.7052  1.4490
  551MOL0     H76028   9.125   3.482   4.632 -0.9330  2.4123  1.7416
  551MOL0     H76029   9.227   3.606   4.716  1.6802 -0.4655  0.2052
  551MOL0     H76030   9.354   3.354   4.780  0.0438  0.8247  2.1790
  551MOL0     H76031   9.243   3.444   4.879 -2.2569  0.5041 -0.9255
  551MOL0     H76032   9.203   3.207   4.875  0.6459 -0.1855  0.5395
  551MOL0     H76033   9.145   3.231   4.713 -0.4849 -2.4548  1.9724
  551MOL0     H76034   8.815   3.364   4.922 -1.5369  1.6337 -2.9984
  551MOL0     H76035   9.491   3.501   4.381 -0.2448  0.3005 -0.1875
  551MOL0     H76036   9.615   3.495   4.172  1.2562 -0.1093 -1.3316
  551MOL0     H76037   9.792   3.503   4.165  1.9085 -3.7579  1.3652
  551MOL0     H76038   9.713   3.362   4.224  0.0001 -0.5181 -1.6621
  552MOL0     O76039   6.103   2.973   5.030 -0.7494  0.6583  0.2399
  552MOL0     C76040   6.055   2.906   4.944 -0.4685 -0.2445  0.4833
  552MOL0     O76041   6.123   2.815   4.872 -0.2570  0.5560  0.0784
  552MOL0     C76042   6.261   2.814   4.893 -1.2136 -1.6841 -0.3967
  552MOL0     C76043   6.342   2.873   4.789  0.0151 -1.6335 -0.9570
  552MOL0     C76044   6.478   2.889   4.823  0.1516 -0.2133  0.2249
  552MOL0     C76045   6.542   2.828   4.932 -0.1169 -0.2385 -0.3106
  552MOL0     O76046   6.680   2.839   4.961  0.6907  0.7596 -0.4236
  552MOL0     C76047   6.759   2.910   4.869  0.9094  0.5589 -0.5452
  552MOL0     C76048   6.912   2.929   4.895 -0.3213  0.3037  0.0411
  552MOL0     C76049   6.977   2.799   4.842 -0.6739  0.4705 -0.7412
  552MOL0     C76050   7.124   2.784   4.862  0.1189 -0.3229  0.3465
  552MOL0     C76051   7.209   2.818   4.732  0.1686  0.2633  0.1954
  552MOL0     C76052   7.223   2.712   4.624 -0.5562  0.0532  1.2050
  552MOL0     C76053   7.333   2.756   4.511  0.0415 -0.2923 -0.2212
  552MOL0     C76054   7.371   2.644   4.428 -0.1501  0.2996  0.3278
  552MOL0     N76055   7.469   2.690   4.332  0.2090  0.4043  0.2590
  552MOL0     C76056   7.585   2.751   4.375  0.1409 -0.9450 -0.0192
  552MOL0     C76057   7.652   2.774   4.255 -0.3831 -0.3260 -0.4436
  552MOL0     C76058   7.781   2.851   4.238 -0.2394  0.4013  0.3221
  552MOL0     C76059   7.775   2.920   4.112 -0.8871  0.4485 -0.5268
  552MOL0     C76060   7.885   3.026   4.105  0.2660  0.1703 -0.2849
  552MOL0     C76061   8.031   2.973   4.118 -0.1411 -0.2407  0.7117
  552MOL0     O76062   8.066   2.966   4.254 -0.1822 -0.3594 -0.7470
  552MOL0     C76063   8.198   2.951   4.274  0.1599 -0.1926  0.1621
  552MOL0     C76064   8.294   2.919   4.178 -0.3317  0.4231  0.3065
  552MOL0     C76065   8.429   2.894   4.209 -0.3076  0.0789 -0.5116
  552MOL0     C76066   8.523   2.885   4.079  0.7704  0.0040 -0.9217
  552MOL0     C76067   8.476   2.909   4.338 -0.1807 -0.4550  0.0831
  552MOL0     C76068   8.611   2.880   4.387  0.2442 -0.3175 -0.8487
  552MOL0     O76069   8.628   2.860   4.519 -0.8502 -0.0100  0.7765
  552MOL0     C76070   8.744   2.797   4.562 -0.3828  0.5202  0.2011
  552MOL0     C76071   8.808   2.686   4.505 -1.1389  0.5969 -0.4326
  552MOL0     C76072   8.917   2.627   4.571 -0.7765  0.0177  0.1540
  552MOL0     C76073   8.968   2.676   4.686  1.1218 -1.0929  0.4818
  552MOL0     O76074   9.079   2.624   4.743 -0.0649  0.0028  0.1062
  552MOL0     C76075   9.185   2.562   4.664  0.4504 -0.7025  0.4950
  552MOL0     C76076   9.312   2.556   4.750  0.3168  0.3783  0.3193
  552MOL0     C76077   9.296   2.477   4.884  0.1149 -0.2213  0.0537
  552MOL0     C76078   9.433   2.480   4.958  0.2667  0.1275  0.1582
  552MOL0     C76079   9.433   2.368   5.066  0.5367 -0.5741  1.3981
  552MOL0     C76080   9.551   2.380   5.165  0.4046  0.2703  0.4270
  552MOL0     C76081   9.566   2.248   5.241  0.7012  0.0023 -0.1120
  552MOL0     C76082   9.657   2.254   5.364  0.7547  1.0811 -0.0352
  552MOL0    Cl76083   9.711   2.087   5.414 -0.0182 -0.0786  0.1359
  552MOL0     C76084   8.894   2.783   4.753  0.1077  1.0795  0.5377
  552MOL0     C76085   8.788   2.843   4.683 -0.8401 -0.4106 -0.1823
  552MOL0     O76086   8.697   2.893   4.300  0.5522 -0.2958  0.2487
  552MOL0     C76087   8.384   2.950   4.435 -0.2123  0.2610  0.0752
  552MOL0     C76088   8.247   2.974   4.398 -0.6833 -0.2765 -1.0592
  552MOL0     N76089   7.574   2.724   4.145  0.2723 -0.0016 -0.0968
  552MOL0     N76090   7.458   2.684   4.200  0.7027 -0.4214  0.3102
  552MOL0     C76091   6.458   2.765   5.027  0.5096  0.0510  0.5174
  552MOL0     C76092   6.317   2.756   5.005  0.3544 -0.7558  0.7059
  552MOL0     C76093   5.908   2.929   4.904 -0.0893 -0.2950  0.1140
  552MOL0     C76094   5.867   2.878   4.779 -0.6699 -0.8364  0.1039
  552MOL0     C76095   5.745   2.882   4.724  0.4277 -1.1851  0.5110
  552MOL0     C76096   5.640   2.934   4.800  0.8543  0.8830 -0.2779
  552MOL0     O76097   5.519   2.950   4.741 -0.6878 -0.1717  0.9272
  552MOL0     C76098   5.416   3.019   4.823 -0.3020 -0.4906  0.0237
  552MOL0     C76099   5.273   3.020   4.758 -0.4024 -0.7343  0.4525
  552MOL0     C76100   5.224   2.879   4.787  0.1099  0.0510  0.8008
  552MOL0     C76101   5.080   2.868   4.732 -0.7038 -0.5614 -0.4435
  552MOL0     C76102   5.089   2.867   4.587 -0.9095  0.2196  0.5872
  552MOL0     C76103   5.094   2.871   4.461  0.2004  0.8352  0.3706
  552MOL0     C76104   5.677   2.994   4.923  0.3705  0.7655 -0.0432
  552MOL0     C76105   5.806   2.979   4.980 -0.3097  0.7423 -0.1412
  552MOL0     C76106   5.818   3.031   5.122 -0.5458 -0.6316  0.0218
  552MOL0     H76107   6.296   2.917   4.701 -1.7783  0.7794  1.0431
  552MOL0     H76108   6.538   2.937   4.746 -0.3283 -0.4082 -0.2798
  552MOL0     H76109   6.714   3.010   4.870 -0.0665  0.1853  2.6249
  552MOL0     H76110   6.741   2.866   4.771  0.0927  2.4707 -1.3033
  552MOL0     H76111   6.940   3.021   4.843  2.2099 -0.4464 -0.0515
  552MOL0     H76112   6.920   2.941   5.003  1.3230 -2.3155  0.2984
  552MOL0     H76113   6.925   2.721   4.898 -0.9733  0.7778 -0.5852
  552MOL0     H76114   6.962   2.766   4.739 -0.4413 -1.9979 -0.0296
  552MOL0     H76115   7.157   2.851   4.943 -1.4894  2.0748 -0.8634
  552MOL0     H76116   7.149   2.683   4.896  0.9408  0.3732  1.9745
  552MOL0     H76117   7.313   2.846   4.754  0.8668 -0.4981 -1.8817
  552MOL0     H76118   7.171   2.908   4.681 -1.4929 -1.5362 -1.9581
  552MOL0     H76119   7.260   2.623   4.675 -1.4837  0.4710  2.6823
  552MOL0     H76120   7.128   2.693   4.573 -0.0233  0.3469  0.0767
  552MOL0     H76121   7.414   2.806   4.564 -0.0640  3.2027 -2.9203
  552MOL0     H76122   7.297   2.835   4.444 -2.2162 -1.8095 -0.9297
  552MOL0     H76123   7.411   2.574   4.503 -1.5732 -0.8115  0.1002
  552MOL0     H76124   7.289   2.600   4.371  0.2133  0.0277  0.0064
  552MOL0     H76125   7.607   2.780   4.478  2.5078 -2.5981  0.0289
  552MOL0     H76126   7.860   2.775   4.242 -0.6740 -0.0226  0.8107
  552MOL0     H76127   7.790   2.922   4.320 -1.2735  0.0578  0.7391
  552MOL0     H76128   7.789   2.841   4.038 -0.6455 -0.7404  0.7619
  552MOL0     H76129   7.673   2.958   4.099 -1.0791  0.2115  0.2811
  552MOL0     H76130   7.876   3.075   4.007 -1.1736  0.9982  0.2263
  552MOL0     H76131   7.873   3.111   4.174  0.8749  1.1589 -1.3597
  552MOL0     H76132   8.035   2.876   4.068 -1.8757 -0.9361  1.8435
  552MOL0     H76133   8.090   3.052   4.069 -1.6330  0.2187 -0.4173
  552MOL0     H76134   8.258   2.926   4.076  1.0853 -1.1548 -0.3609
  552MOL0     H76135   8.591   2.801   4.068 -1.4791 -1.8354 -1.4806
  552MOL0     H76136   8.585   2.975   4.070 -0.3065  0.8743 -0.0476
  552MOL0     H76137   8.456   2.878   3.993 -0.7970 -0.7464  0.3082
  552MOL0     H76138   8.776   2.633   4.415  1.7022 -1.2718 -0.4785
  552MOL0     H76139   8.955   2.534   4.531  1.3117  0.1486  1.6534
  552MOL0     H76140   9.145   2.467   4.627  1.2751 -0.6498 -0.5872
  552MOL0     H76141   9.217   2.622   4.578 -0.2636 -0.2004  0.5653
  552MOL0     H76142   9.396   2.527   4.686 -1.0502  1.1435 -1.9517
  552MOL0     H76143   9.331   2.657   4.788  0.7973  1.9153 -3.5317
  552MOL0     H76144   9.254   2.376   4.877  0.5333 -0.4291  0.5255
  552MOL0     H76145   9.223   2.532   4.945 -1.7004  1.1876 -3.1188
  552MOL0     H76146   9.455   2.575   5.008  2.9415 -0.1970 -0.2479
  552MOL0     H76147   9.513   2.464   4.886 -0.2082 -1.6343 -0.0196
  552MOL0     H76148   9.333   2.363   5.110 -0.1624 -1.3280 -0.1492
  552MOL0     H76149   9.461   2.282   5.003  2.3480  1.5765 -0.9472
  552MOL0     H76150   9.528   2.459   5.238 -2.6925  0.1044 -0.2094
  552MOL0     H76151   9.643   2.403   5.111  1.2562  0.3557  1.8672
  552MOL0     H76152   9.598   2.176   5.166 -1.1231 -0.1851 -0.7767
  552MOL0     H76153   9.465   2.224   5.276 -1.2850 -0.5796 -5.3925
  552MOL0     H76154   9.605   2.310   5.442  1.6339  0.9356  0.6783
  552MOL0     H76155   9.753   2.304   5.346  2.1389 -0.9904  1.2097
  552MOL0     H76156   8.926   2.830   4.845 -0.9282  1.6542  0.6124
  552MOL0     H76157   8.744   2.931   4.729 -2.4490 -0.7990 -0.9101
  552MOL0     H76158   8.401   2.954   4.542 -0.1055  0.3962  0.0534
  552MOL0     H76159   8.181   2.998   4.481 -0.1172  0.0025 -0.6785
  552MOL0     H76160   6.497   2.726   5.120 -0.9445 -0.4179  0.9563
  552MOL0     H76161   6.252   2.717   5.083 -1.2424  1.7138  0.7195
  552MOL0     H76162   5.931   2.827   4.708  0.5108 -1.7873  1.7628
  552MOL0     H76163   5.738   2.842   4.623  1.1259 -1.6481  0.6427
  552MOL0     H76164   5.404   2.971   4.921 -1.9025  0.5891  0.4090
  552MOL0     H76165   5.449   3.123   4.833 -1.1386  0.0764 -2.4126
  552MOL0     H76166   5.284   3.048   4.653 -0.2253 -0.6580  0.4902
  552MOL0     H76167   5.211   3.091   4.814 -1.7358 -1.8047  0.3914
  552MOL0     H76168   5.288   2.809   4.733 -2.3711 -1.0309 -0.9442
  552MOL0     H76169   5.213   2.861   4.894  0.0235 -0.9945  0.6254
  552MOL0     H76170   5.028   2.961   4.758  1.0824  0.4167 -0.2279
  552MOL0     H76171   5.030   2.782   4.778  2.9487 -1.3833  2.4311
  552MOL0     H76172   5.105   2.875   4.355 -0.8355  0.2033  0.2243
  552MOL0     H76173   5.597   3.048   4.972  1.6502  3.2436 -0.5715
  552MOL0     H76174   5.921   3.045   5.156  0.2020  0.3410 -2.4721
  552MOL0     H76175   5.768   3.128   5.127 -1.9715 -1.3435 -0.0316
  552MOL0     H76176   5.770   2.963   5.194  1.9060  0.3914  2.8721
  553MOL0     O76177   0.140   0.145  10.973 -0.0637  0.1398  0.4271
  553MOL0     C76178   0.188   0.060  10.899  1.0824  0.5867  0.8626
  553MOL0     O76179   0.121  -0.054  10.858 -0.3931  0.4846  0.1685
  553MOL0     C76180  -0.001  -0.083  10.914 -0.2163  0.2393  0.2643
  553MOL0     C76181  -0.016  -0.100  11.048  0.2363  0.2839  0.5472
  553MOL0     C76182  -0.145  -0.132  11.099 -0.3156 -0.5109 -1.1043
  553MOL0     C76183  -0.260  -0.143  11.014 -0.3857  0.6844  0.3779
  553MOL0     O76184  -0.393  -0.170  11.053 -0.1663  0.1321 -0.2376
  553MOL0     C76185  -0.427  -0.189  11.192 -0.3785 -0.8404 -0.0343
  553MOL0     C76186  -0.524  -0.308  11.200  0.2304  0.3770  0.7363
  553MOL0     C76187  -0.666  -0.281  11.141  0.4644 -0.8366 -0.3997
  553MOL0     C76188  -0.763  -0.195  11.234  0.2908  0.2268  0.2114
  553MOL0     C76189  -0.908  -0.172  11.201 -0.0402  0.8903  1.0148
  553MOL0     C76190  -1.007  -0.287  11.226 -0.0000 -0.5020  0.2932
  553MOL0     C76191  -1.010  -0.349  11.370  0.7170 -0.3546 -0.1220
  553MOL0     C76192  -1.137  -0.414  11.420 -0.3314 -0.0812  0.3572
  553MOL0     N76193  -1.220  -0.301  11.454  0.3305 -0.3867  0.3332
  553MOL0     C76194  -1.230  -0.245  11.584 -0.3935 -1.2366  0.1814
  553MOL0     C76195  -1.337  -0.160  11.579 -0.3031  0.9866  0.7746
  553MOL0     C76196  -1.393  -0.086  11.696 -0.0595  0.3520 -0.0575
  553MOL0     C76197  -1.433  -0.187  11.801 -0.2861 -0.3898  0.4683
  553MOL0     C76198  -1.583  -0.178  11.829  1.3884 -0.5144 -0.5664
  553MOL0     C76199  -1.620  -0.263  11.952  0.4620  0.0734 -0.6058
  553MOL0     O76200  -1.598  -0.404  11.919 -0.8534 -0.1911 -0.4872
  553MOL0     C76201  -1.701  -0.493  11.897 -0.4533  0.6133 -1.1058
  553MOL0     C76202  -1.834  -0.462  11.907  0.1436 -0.8089  1.1636
  553MOL0     C76203  -1.945  -0.552  11.902 -0.1858  0.5797  0.8908
  553MOL0     C76204  -2.083  -0.494  11.895  0.1561  0.2168 -0.7034
  553MOL0     C76205  -1.916  -0.690  11.893  0.0290  0.2558 -0.3925
  553MOL0     C76206  -2.014  -0.795  11.885 -0.7788  0.6989  0.1497
  553MOL0     O76207  -2.138  -0.770  11.918 -0.0329  0.0244 -0.8889
  553MOL0     C76208  -2.235  -0.872  11.901  0.7626 -0.5052 -0.3043
  553MOL0     C76209  -2.295  -0.925  12.012 -0.1322  0.0792  0.5408
  553MOL0     C76210  -2.383  -1.032  12.005  0.1971 -0.8473  0.2119
  553MOL0     C76211  -2.414  -1.082  11.880  0.6123  0.6087  0.3915
  553MOL0     O76212  -2.508  -1.183  11.878 -0.3882 -0.0825 -0.0407
  553MOL0     C76213  -2.513  -1.273  11.760  0.7877 -0.7975  0.4113
  553MOL0     C76214  -2.572  -1.406  11.802 -0.3148  0.0233 -0.5597
  553MOL0     C76215  -2.719  -1.390  11.843 -0.3992 -0.4624 -0.1100
  553MOL0     C76216  -2.823  -1.393  11.723 -0.7190  0.3356  0.2716
  553MOL0     C76217  -2.966  -1.370  11.771  0.5126  0.8579 -0.8267
  553MOL0     C76218  -3.058  -1.420  11.663  0.1576  0.4088  0.3236
  553MOL0     C76219  -3.205  -1.378  11.691  0.1957  0.3861  0.3462
  553MOL0     C76220  -3.285  -1.442  11.576  0.2488  0.5245  0.4365
  553MOL0    Cl76221  -3.210  -1.418  11.417 -0.1785  0.0624  0.1970
  553MOL0     C76222  -2.374  -1.017  11.766 -0.2525 -0.0992  0.1235
  553MOL0     C76223  -2.278  -0.917  11.774  0.3392 -0.3290  0.6558
  553MOL0     O76224  -1.977  -0.909  11.837  0.3880 -0.8658 -0.7993
  553MOL0     C76225  -1.772  -0.722  11.884  0.1782 -0.5151 -0.7274
  553MOL0     C76226  -1.674  -0.629  11.888  0.5441  0.4066 -0.3609
  553MOL0     N76227  -1.387  -0.158  11.437 -0.0233 -0.3402 -0.5010
  553MOL0     N76228  -1.306  -0.231  11.371 -0.4163 -0.8662 -0.1729
  553MOL0     C76229  -0.239  -0.127  10.884  0.0492  0.9719  0.5199
  553MOL0     C76230  -0.111  -0.096  10.834  0.1537 -0.0987  0.6133
  553MOL0     C76231   0.318   0.096  10.828  0.1794 -0.7762  0.0920
  553MOL0     C76232   0.326   0.219  10.770 -0.2515 -0.5158  0.8139
  553MOL0     C76233   0.443   0.253  10.711  0.0803  0.6767 -0.5595
  553MOL0     C76234   0.552   0.166  10.697 -0.8596 -0.0106 -0.3488
  553MOL0     O76235   0.670   0.228  10.654  0.1902  0.8216 -0.5090
  553MOL0     C76236   0.792   0.159  10.663  0.1731  0.9103  0.2519
  553MOL0     C76237   0.820   0.089  10.529  0.3272  0.6761 -0.0176
  553MOL0     C76238   0.955   0.010  10.540  0.2745  0.3670 -0.5620
  553MOL0     C76239   1.006  -0.029  10.404  0.0092  0.1019 -0.2861
  553MOL0     C76240   1.119  -0.114  10.428 -0.0370 -0.6847 -0.2819
  553MOL0     C76241   1.226  -0.164  10.449 -0.2387 -0.0230  0.0251
  553MOL0     C76242   0.535   0.036  10.746 -0.1960 -0.6698 -0.7227
  553MOL0     C76243   0.426   0.008  10.825 -0.0227 -0.5280 -0.0435
  553MOL0     C76244   0.413  -0.130  10.890 -0.0622  0.5914 -0.0566
  553MOL0     H76245   0.060  -0.091  11.124  0.3623 -2.0354  0.7431
  553MOL0     H76246  -0.155  -0.154  11.205  1.2201 -0.9523 -1.0336
  553MOL0     H76247  -0.475  -0.094  11.220 -0.0083 -1.0078  1.2128
  553MOL0     H76248  -0.333  -0.200  11.248  0.0771  0.5059 -0.4812
  553MOL0     H76249  -0.472  -0.385  11.141 -1.7131 -0.6175  0.2526
  553MOL0     H76250  -0.540  -0.341  11.302 -1.5792 -0.0308  0.3551
  553MOL0     H76251  -0.655  -0.240  11.040 -0.3059  0.0387 -0.1370
  553MOL0     H76252  -0.720  -0.371  11.109 -0.7054 -0.8612  1.5161
  553MOL0     H76253  -0.762  -0.231  11.337 -0.0104 -2.7446 -0.7486
  553MOL0     H76254  -0.711  -0.099  11.241 -0.7383  0.7272  1.4759
  553MOL0     H76255  -0.904  -0.154  11.093  4.1028 -0.9407  0.6601
  553MOL0     H76256  -0.943  -0.084  11.255  2.4083  4.3057 -2.3557
  553MOL0     H76257  -1.108  -0.248  11.214 -0.0940 -0.4048  1.2947
  553MOL0     H76258  -0.992  -0.363  11.150  0.1255  1.4707 -1.7746
  553MOL0     H76259  -0.977  -0.270  11.438 -0.2515 -0.0252 -0.0230
  553MOL0     H76260  -0.928  -0.422  11.373  2.0019  1.0287 -0.1334
  553MOL0     H76261  -1.175  -0.483  11.344 -0.1304  0.3342 -0.1212
  553MOL0     H76262  -1.122  -0.475  11.509  0.9244  1.9260  1.5909
  553MOL0     H76263  -1.169  -0.263  11.672  0.9580  0.4896 -0.3422
  553MOL0     H76264  -1.484  -0.031  11.673 -0.2164  0.0946 -0.0504
  553MOL0     H76265  -1.310  -0.020  11.725 -0.6598  0.8086  0.6648
  553MOL0     H76266  -1.411  -0.292  11.779 -1.9344 -0.8061  0.7008
  553MOL0     H76267  -1.377  -0.159  11.891 -1.3295 -1.4499  1.4784
  553MOL0     H76268  -1.620  -0.078  11.858 -0.8870 -1.1610 -1.0092
  553MOL0     H76269  -1.642  -0.216  11.746 -0.2110 -0.2126  0.3805
  553MOL0     H76270  -1.559  -0.232  12.037  1.5921  0.6070 -1.5943
  553MOL0     H76271  -1.723  -0.233  11.972  0.7690  2.4901 -2.1840
  553MOL0     H76272  -1.868  -0.359  11.908 -0.7379 -1.0399 -0.7673
  553MOL0     H76273  -2.096  -0.392  11.858 -1.1790  0.4185  0.1961
  553MOL0     H76274  -2.134  -0.485  11.992  0.1815  1.0301 -0.7521
  553MOL0     H76275  -2.146  -0.556  11.831  0.3020  1.5764 -2.2393
  553MOL0     H76276  -2.266  -0.878  12.105  2.6135 -0.1290 -0.1195
  553MOL0     H76277  -2.413  -1.059  12.106 -2.7721  3.4237  0.7735
  553MOL0     H76278  -2.575  -1.234  11.678  1.8948  0.4773  0.1391
  553MOL0     H76279  -2.415  -1.291  11.717  0.1703 -2.1273 -0.4912
  553MOL0     H76280  -2.562  -1.480  11.722  0.8212 -0.9519  0.4548
  553MOL0     H76281  -2.511  -1.445  11.883 -0.4325  1.9376  0.5063
  553MOL0     H76282  -2.742  -1.300  11.901 -2.4623 -0.1183 -1.3347
  553MOL0     H76283  -2.730  -1.479  11.905 -0.3774  0.7185  1.6755
  553MOL0     H76284  -2.806  -1.489  11.671  0.2367 -1.4564  3.6062
  553MOL0     H76285  -2.803  -1.310  11.655  0.7133  0.8917  1.3109
  553MOL0     H76286  -2.983  -1.422  11.866 -2.1577  1.8551 -0.6828
  553MOL0     H76287  -2.984  -1.264  11.785  1.1885  1.0844 -1.5465
  553MOL0     H76288  -3.045  -1.528  11.652  2.2035  0.8371 -2.4696
  553MOL0     H76289  -3.022  -1.369  11.573  2.2645  0.4185  1.1213
  553MOL0     H76290  -3.207  -1.269  11.691  0.2909  0.3874  0.1412
  553MOL0     H76291  -3.248  -1.420  11.783 -1.6457 -0.7411 -0.9697
  553MOL0     H76292  -3.383  -1.394  11.568 -0.7235 -0.8495  2.9887
  553MOL0     H76293  -3.299  -1.546  11.607 -1.5252  0.7329  0.4658
  553MOL0     H76294  -2.396  -1.052  11.666  0.3114  1.7274 -0.6842
  553MOL0     H76295  -2.239  -0.879  11.680 -2.1561 -0.1523 -0.3658
  553MOL0     H76296  -1.746  -0.826  11.866  2.5946 -0.1746  0.4477
  553MOL0     H76297  -1.570  -0.660  11.876 -0.3025 -2.0717 -2.0005
  553MOL0     H76298  -0.316  -0.113  10.809  0.2284  1.8264  0.4892
  553MOL0     H76299  -0.089  -0.076  10.730  1.9294  0.8447  1.1196
  553MOL0     H76300   0.242   0.288  10.770 -0.1636 -0.3994  0.1543
  553MOL0     H76301   0.451   0.356  10.677  2.0276  0.7437 -0.0012
  553MOL0     H76302   0.867   0.235  10.687 -0.1302  1.1841  0.3307
  553MOL0     H76303   0.792   0.086  10.745 -2.5551  2.2741  1.5642
  553MOL0     H76304   0.821   0.169  10.455 -0.3417 -0.4851 -1.3283
  553MOL0     H76305   0.744   0.016  10.498  1.0798 -0.2608  0.2850
  553MOL0     H76306   1.031   0.079  10.579  1.7353 -1.2554 -0.4045
  553MOL0     H76307   0.953  -0.078  10.606  2.4013  0.5829 -0.1290
  553MOL0     H76308   1.033   0.063  10.352 -0.6015  0.1235 -0.5743
  553MOL0     H76309   0.930  -0.084  10.347 -2.7998  1.5950  1.8201
  553MOL0     H76310   1.314  -0.215  10.482  2.0389  1.6082 -3.0536
  553MOL0     H76311   0.609  -0.043  10.731  1.9394  1.2886 -1.0906
  553MOL0     H76312   0.510  -0.172  10.915  0.5534  1.7055 -0.4784
  553MOL0     H76313   0.376  -0.112  10.991  4.8157  0.3389  2.0367
  553MOL0     H76314   0.343  -0.188  10.828 -2.0803  0.9943  1.7305
  554MOL0     O76315  11.093   8.081  11.383 -0.7366 -0.3431  0.7410
  554MOL0     C76316  11.060   8.193  11.341 -0.4376 -0.4655  0.2223
  554MOL0     O76317  11.141   8.277  11.273 -0.6148  0.2687  0.4990
  554MOL0     C76318  11.266   8.227  11.233 -0.1834  0.8005  0.0279
  554MOL0     C76319  11.380   8.263  11.305 -0.2335  0.3379 -0.8853
  554MOL0     C76320  11.511   8.230  11.268  0.3308 -0.1723  0.3564
  554MOL0     C76321  11.522   8.141  11.157  0.1782 -0.7017 -0.2626
  554MOL0     O76322  11.651   8.114  11.117  0.1765  0.1631  0.1961
  554MOL0     C76323  11.663   8.090  10.977  1.4630  0.2083 -0.9653
  554MOL0     C76324  11.803   8.110  10.935  0.7423 -0.5742 -0.3649
  554MOL0     C76325  11.873   8.244  10.956 -0.4532 -0.3750 -0.5303
  554MOL0     C76326  12.020   8.242  10.925  1.0358 -0.0782 -0.3636
  554MOL0     C76327  12.087   8.380  10.930  0.1720 -0.5912 -1.2125
  554MOL0     C76328  12.239   8.372  10.883 -0.2349  0.3324 -0.7725
  554MOL0     C76329  12.287   8.493  10.803 -0.0554 -0.6462 -0.2386
  554MOL0     C76330  12.438   8.468  10.790 -0.3151  0.1050 -0.0583
  554MOL0     N76331  12.511   8.576  10.729  0.0817 -0.3990  0.3807
  554MOL0     C76332  12.628   8.639  10.767 -0.2165  0.2327  0.2250
  554MOL0     C76333  12.668   8.711  10.663 -1.0942  0.3991 -0.7700
  554MOL0     C76334  12.797   8.789  10.657  0.1049  0.4602 -0.6305
  554MOL0     C76335  12.787   8.918  10.743 -0.3757 -0.5877 -0.1015
  554MOL0     C76336  12.693   9.026  10.696 -0.2892 -1.0171  0.3421
  554MOL0     C76337  12.689   9.158  10.781 -1.1388 -0.7125  0.1302
  554MOL0     O76338  12.818   9.226  10.766  0.5619 -0.2027  0.1666
  554MOL0     C76339  12.902   9.230  10.880  0.1222  0.2203  0.3917
  554MOL0     C76340  12.891   9.149  10.988 -0.0087 -0.2531 -0.1000
  554MOL0     C76341  12.981   9.155  11.098  0.3304  0.3465  0.0039
  554MOL0     C76342  12.949   9.049  11.209  0.2282  0.3393  0.5808
  554MOL0     C76343  13.090   9.251  11.102  0.7618  0.2783 -0.3778
  554MOL0     C76344  13.196   9.259  11.206  0.6655  0.2023 -0.0198
  554MOL0     O76345  13.280   9.371  11.201 -0.6052  0.8135  0.0201
  554MOL0     C76346  13.383   9.369  11.293 -0.5436 -0.6834  0.5160
  554MOL0     C76347  13.394   9.469  11.391 -0.0828  0.8956  0.0297
  554MOL0     C76348  13.491   9.471  11.484 -0.6828 -0.1108  0.0777
  554MOL0     C76349  13.602   9.378  11.492  0.1477 -0.3253  0.0302
  554MOL0     O76350  13.708   9.367  11.583  0.2649  0.1442  0.4278
  554MOL0     C76351  13.721   9.477  11.668  0.1103 -0.9452 -0.7133
  554MOL0     C76352  13.637   9.461  11.802 -0.3600  0.5267  0.2505
  554MOL0     C76353  13.646   9.592  11.889 -0.0532 -0.7991 -0.2492
  554MOL0     C76354  13.794   9.619  11.925 -0.0839  0.2499  0.1793
  554MOL0     C76355  13.793   9.683  12.069  0.2655 -0.0651 -0.6542
  554MOL0     C76356  13.738   9.825  12.082 -1.0379 -0.0436 -0.5008
  554MOL0     C76357  13.753   9.868  12.230 -0.0386  1.0633 -0.4988
  554MOL0     C76358  13.702  10.017  12.242  0.4017  0.4301 -0.4005
  554MOL0    Cl76359  13.647  10.073  12.393  0.0911  0.1020 -0.1394
  554MOL0     C76360  13.588   9.268  11.402 -0.6244 -0.0423  0.2387
  554MOL0     C76361  13.487   9.276  11.299 -0.9767  0.1185  0.1107
  554MOL0     O76362  13.206   9.162  11.277 -0.7528 -0.8509 -0.3695
  554MOL0     C76363  13.087   9.332  10.989 -0.0719  0.3477 -0.3582
  554MOL0     C76364  13.006   9.319  10.882 -0.5161  0.3767  0.4037
  554MOL0     N76365  12.577   8.695  10.564 -0.1303 -0.0846 -0.7400
  554MOL0     N76366  12.482   8.621  10.601 -0.0978  0.5872 -0.4674
  554MOL0     C76367  11.404   8.092  11.090 -0.6228  0.2185  0.1225
  554MOL0     C76368  11.278   8.141  11.122 -0.2953 -0.6055  0.4775
  554MOL0     C76369  10.928   8.249  11.373  0.7717 -0.4725 -0.0654
  554MOL0     C76370  10.881   8.345  11.288  0.3430 -1.0611 -0.5592
  554MOL0     C76371  10.751   8.406  11.305  0.1918 -0.1149 -0.3641
  554MOL0     C76372  10.667   8.357  11.411 -0.2353  0.5266  0.1811
  554MOL0     O76373  10.543   8.412  11.420  0.1220  0.4842 -0.1381
  554MOL0     C76374  10.467   8.391  11.536  0.6855 -0.0654 -0.4995
  554MOL0     C76375  10.375   8.259  11.513  1.2651 -0.7128 -0.7217
  554MOL0     C76376  10.247   8.293  11.582  0.6829 -0.2032 -0.0396
  554MOL0     C76377  10.164   8.167  11.602 -0.7134 -0.2297  0.1101
  554MOL0     C76378  10.044   8.210  11.670 -0.0853  0.3780 -0.6046
  554MOL0     C76379   9.954   8.237  11.746 -0.2024 -0.1039  0.1471
  554MOL0     C76380  10.729   8.265  11.499  0.9010  0.0642  0.0003
  554MOL0     C76381  10.855   8.209  11.485  0.8221 -0.8891 -0.3237
  554MOL0     C76382  10.898   8.105  11.587 -0.9483  0.5977 -0.6802
  554MOL0     H76383  11.368   8.334  11.386 -0.3687  0.5606 -1.1023
  554MOL0     H76384  11.593   8.273  11.325  2.8551 -2.0232 -1.6361
  554MOL0     H76385  11.590   8.158  10.931 -1.4149 -0.8836  1.6332
  554MOL0     H76386  11.633   7.989  10.945 -0.6999 -0.3057  2.2008
  554MOL0     H76387  11.853   8.030  10.991  3.5763  0.5687 -1.0684
  554MOL0     H76388  11.807   8.089  10.828  0.9953 -2.2371 -0.0528
  554MOL0     H76389  11.833   8.322  10.891  0.7782  0.7299 -0.0094
  554MOL0     H76390  11.860   8.275  11.060  0.3096  1.4577 -0.9505
  554MOL0     H76391  12.072   8.178  10.997  2.4349  1.1372 -0.2564
  554MOL0     H76392  12.030   8.206  10.823  1.5521  1.5172 -0.8996
  554MOL0     H76393  12.070   8.423  11.029  1.6649 -1.2735 -0.6311
  554MOL0     H76394  12.046   8.454  10.860  2.5922 -0.3495 -2.5183
  554MOL0     H76395  12.298   8.359  10.974 -2.0036 -0.8397  0.2701
  554MOL0     H76396  12.256   8.281  10.825  1.6664 -0.1923  0.5020
  554MOL0     H76397  12.256   8.578  10.864  1.3338 -0.9894  1.0019
  554MOL0     H76398  12.230   8.498  10.710 -2.4451  3.1465  1.1824
  554MOL0     H76399  12.476   8.440  10.889 -3.6214  0.3809  1.4039
  554MOL0     H76400  12.447   8.383  10.721 -1.2115  1.3801 -1.8331
  554MOL0     H76401  12.680   8.637  10.863 -0.8207 -0.4156  0.5495
  554MOL0     H76402  12.831   8.805  10.554  1.3636  1.0258 -0.1466
  554MOL0     H76403  12.870   8.719  10.699 -3.1267 -1.8253  1.6088
  554MOL0     H76404  12.760   8.900  10.847 -0.7903  0.1761 -0.0642
  554MOL0     H76405  12.889   8.958  10.741 -0.2064 -0.9410 -3.1449
  554MOL0     H76406  12.730   9.048  10.595  4.5536  1.3290  2.2877
  554MOL0     H76407  12.589   8.993  10.705 -0.8280 -0.3011 -2.3592
  554MOL0     H76408  12.607   9.220  10.743 -1.7287 -1.0695  0.8142
  554MOL0     H76409  12.658   9.131  10.882 -1.4613  1.0500  0.5281
  554MOL0     H76410  12.817   9.070  10.990 -0.1952 -0.1459 -1.5095
  554MOL0     H76411  12.849   9.006  11.209  0.5311 -0.4017 -0.1597
  554MOL0     H76412  12.965   9.088  11.310 -3.1600  0.8696  1.0088
  554MOL0     H76413  13.025   8.971  11.200  2.0714  2.2234 -1.6729
  554MOL0     H76414  13.322   9.551  11.391 -0.4053  0.6276  0.6755
  554MOL0     H76415  13.498   9.564  11.539  0.9023  0.2170 -0.6259
  554MOL0     H76416  13.827   9.480  11.697 -0.2351 -0.2083  0.5805
  554MOL0     H76417  13.697   9.575  11.627  2.1035  0.9873  2.2981
  554MOL0     H76418  13.540   9.441  11.755 -0.6590 -1.1654  1.5248
  554MOL0     H76419  13.667   9.371  11.855  0.5838 -0.1961 -1.4304
  554MOL0     H76420  13.588   9.595  11.981  0.4536  2.3137  0.0937
  554MOL0     H76421  13.596   9.674  11.836  0.3413 -1.1769 -1.2385
  554MOL0     H76422  13.821   9.693  11.849 -0.7310  0.3295  0.0235
  554MOL0     H76423  13.853   9.527  11.929  1.1433  0.9961 -0.1250
  554MOL0     H76424  13.735   9.623  12.140 -2.5277  0.0536 -2.6283
  554MOL0     H76425  13.898   9.687  12.099  0.1235  1.1141 -0.2945
  554MOL0     H76426  13.639   9.822  12.035 -2.2093  2.1006  1.6199
  554MOL0     H76427  13.791   9.898  12.020 -2.2420 -0.5820 -2.2598
  554MOL0     H76428  13.857   9.865  12.261 -0.7392 -0.4535  2.0257
  554MOL0     H76429  13.692   9.801  12.292  0.3615 -0.6260 -1.8549
  554MOL0     H76430  13.619  10.035  12.174 -1.9428 -1.0588  1.8842
  554MOL0     H76431  13.788  10.081  12.219 -0.7086  2.3568  0.5042
  554MOL0     H76432  13.659   9.186  11.395  2.1086  2.1403  0.8047
  554MOL0     H76433  13.470   9.195  11.230  0.7626 -1.9409  1.9688
  554MOL0     H76434  13.172   9.400  10.988  1.5591 -1.6005 -1.2243
  554MOL0     H76435  13.023   9.380  10.794 -1.5007 -0.6571 -0.5453
  554MOL0     H76436  11.414   8.007  11.023 -1.4006  2.5123 -3.1888
  554MOL0     H76437  11.187   8.118  11.068 -0.8477 -2.9468  2.2663
  554MOL0     H76438  10.935   8.381  11.201  1.0001  1.0414  0.6617
  554MOL0     H76439  10.717   8.467  11.222  4.4112  0.4700 -1.9271
  554MOL0     H76440  10.533   8.384  11.622  0.8015 -1.0407 -0.6536
  554MOL0     H76441  10.411   8.485  11.547  0.7553 -0.2774  2.2951
  554MOL0     H76442  10.427   8.175  11.561  2.1863  1.5064  2.4859
  554MOL0     H76443  10.360   8.234  11.408  0.2306 -1.3474 -0.4322
  554MOL0     H76444  10.261   8.341  11.678 -1.9245 -1.6861  1.2056
  554MOL0     H76445  10.191   8.355  11.512  2.0026  0.6446 -0.3809
  554MOL0     H76446  10.217   8.094  11.664  0.2938  0.1896 -0.2385
  554MOL0     H76447  10.146   8.112  11.510  1.6509 -3.7486  1.5200
  554MOL0     H76448   9.889   8.263  11.826 -0.5722  1.2137 -0.5553
  554MOL0     H76449  10.668   8.238  11.584 -0.2211  1.3575 -0.3543
  554MOL0     H76450  10.903   8.003  11.546 -0.6951 -0.4137  1.7122
  554MOL0     H76451  10.991   8.140  11.634 -0.5719 -2.5797  1.2929
  554MOL0     H76452  10.828   8.100  11.670  0.2149  0.0966  0.3051
  555MOL0     O76453   3.710   8.335   5.500  0.0792  0.8394  0.3610
  555MOL0     C76454   3.693   8.436   5.571 -0.4878  0.4556  0.7863
  555MOL0     O76455   3.778   8.531   5.596  0.2024  0.9179  0.0174
  555MOL0     C76456   3.909   8.521   5.555 -0.0091  0.0900  0.7150
  555MOL0     C76457   3.958   8.481   5.434 -0.7060  0.2276  0.6720
  555MOL0     C76458   4.090   8.497   5.400 -0.3188 -0.4974  0.3711
  555MOL0     C76459   4.183   8.559   5.486  0.0188  0.1399  0.4331
  555MOL0     O76460   4.314   8.592   5.455  0.3177 -0.3100  0.7702
  555MOL0     C76461   4.365   8.613   5.317  0.3356 -1.0746 -0.9006
  555MOL0     C76462   4.483   8.518   5.290 -0.1061 -0.6449 -0.4030
  555MOL0     C76463   4.432   8.368   5.305  0.0745 -0.3458  0.7605
  555MOL0     C76464   4.543   8.280   5.243 -0.0358  0.0331 -0.2791
  555MOL0     C76465   4.517   8.132   5.252 -0.2711  0.1157  0.3403
  555MOL0     C76466   4.511   8.071   5.396 -1.1005  0.5258 -0.9162
  555MOL0     C76467   4.639   8.099   5.476 -0.3411  0.4262 -0.6628
  555MOL0     C76468   4.758   8.028   5.412 -0.5559  1.0941  0.2573
  555MOL0     N76469   4.881   8.063   5.479  0.2697  0.0259  0.6075
  555MOL0     C76470   4.925   8.186   5.517  0.5454  0.9621 -0.5396
  555MOL0     C76471   5.048   8.162   5.574  0.8868  0.3028  0.2919
  555MOL0     C76472   5.133   8.283   5.621 -0.2222 -0.3614  0.1404
  555MOL0     C76473   5.202   8.247   5.755  0.0258  0.4896  0.0657
  555MOL0     C76474   5.269   8.362   5.825 -1.0505 -0.6486 -0.0439
  555MOL0     C76475   5.388   8.427   5.761 -0.6765  0.1369  0.2967
  555MOL0     O76476   5.464   8.502   5.859  0.6375  0.0547  1.0907
  555MOL0     C76477   5.593   8.531   5.821  0.9064  0.5616  0.1603
  555MOL0     C76478   5.653   8.522   5.699  1.4199  0.1908  0.6892
  555MOL0     C76479   5.793   8.537   5.675  0.2755 -0.1337 -0.3292
  555MOL0     C76480   5.850   8.524   5.528  0.7809 -0.8704 -0.1832
  555MOL0     C76481   5.876   8.569   5.791  0.0425  0.6496  0.2142
  555MOL0     C76482   6.029   8.573   5.788 -0.8016  0.1997 -0.7872
  555MOL0     O76483   6.090   8.603   5.910 -0.8182  0.0337  0.7511
  555MOL0     C76484   6.224   8.645   5.921 -0.3793 -1.5464 -0.2788
  555MOL0     C76485   6.307   8.588   6.012 -1.3491  0.3255  0.5010
  555MOL0     C76486   6.444   8.619   6.017 -0.0554  0.1143 -0.9066
  555MOL0     C76487   6.497   8.716   5.931  0.5477 -0.0168 -0.3226
  555MOL0     O76488   6.628   8.747   5.927 -0.0578 -0.3291 -0.0721
  555MOL0     C76489   6.696   8.725   6.057 -0.1522 -0.2675  0.1704
  555MOL0     C76490   6.843   8.769   6.068  1.0293 -0.6438 -0.4315
  555MOL0     C76491   6.943   8.706   5.973 -0.4864 -0.2617 -0.0789
  555MOL0     C76492   7.085   8.763   6.011  0.4123 -0.1363 -0.4034
  555MOL0     C76493   7.201   8.703   5.942  0.5756  0.6109  0.6749
  555MOL0     C76494   7.342   8.760   5.971 -1.0251  0.1173  0.7624
  555MOL0     C76495   7.404   8.697   6.097  0.3423  0.2872  0.2645
  555MOL0     C76496   7.553   8.749   6.113 -0.3709 -0.0815 -0.1192
  555MOL0    Cl76497   7.673   8.617   6.064  0.0342  0.4409 -0.4234
  555MOL0     C76498   6.409   8.783   5.844 -0.7268  0.8357 -0.4157
  555MOL0     C76499   6.273   8.746   5.839 -0.6029 -0.8275  0.3252
  555MOL0     O76500   6.092   8.573   5.683  0.0367  0.7415 -0.3490
  555MOL0     C76501   5.811   8.581   5.910 -0.5415 -0.1431 -0.3874
  555MOL0     C76502   5.671   8.575   5.925 -0.0424  0.0233  0.9445
  555MOL0     N76503   5.069   8.025   5.586  0.2555 -0.6469  0.2564
  555MOL0     N76504   4.968   7.971   5.519 -0.3201  0.3017 -0.1693
  555MOL0     C76505   4.130   8.606   5.612 -0.2465 -0.4014  1.0154
  555MOL0     C76506   3.996   8.578   5.644 -0.1967 -0.9227  0.5903
  555MOL0     C76507   3.573   8.442   5.655 -0.0259  0.0825 -0.3412
  555MOL0     C76508   3.577   8.532   5.765  0.6233 -0.3151  0.5662
  555MOL0     C76509   3.472   8.536   5.857 -0.1155 -1.0640 -0.2599
  555MOL0     C76510   3.353   8.463   5.832 -0.2124 -0.2523  0.0923
  555MOL0     O76511   3.252   8.495   5.914 -0.2661  0.4468 -0.1522
  555MOL0     C76512   3.114   8.455   5.884 -0.4576  0.0622  0.3946
  555MOL0     C76513   3.089   8.306   5.930  0.3645 -0.5327 -0.7688
  555MOL0     C76514   3.150   8.273   6.073 -0.2423  0.0496 -0.6345
  555MOL0     C76515   3.067   8.172   6.158 -0.1581 -0.0740  0.3418
  555MOL0     C76516   3.029   8.043   6.087 -1.0785 -0.9110  0.6636
  555MOL0     C76517   2.992   7.943   6.028 -0.5857  0.4779 -0.2927
  555MOL0     C76518   3.348   8.374   5.721  0.4338 -0.0490 -0.5770
  555MOL0     C76519   3.459   8.365   5.631  0.3780 -0.2096 -0.6218
  555MOL0     C76520   3.457   8.258   5.528  0.0650 -0.0481 -0.7446
  555MOL0     H76521   3.892   8.445   5.355 -0.1535 -0.4248  0.5000
  555MOL0     H76522   4.125   8.468   5.301 -0.7492  2.5682 -0.7894
  555MOL0     H76523   4.392   8.717   5.297 -0.7813 -0.3792  0.8993
  555MOL0     H76524   4.295   8.592   5.235 -0.0820  0.8980 -1.0891
  555MOL0     H76525   4.522   8.536   5.189 -0.6499 -2.2904 -0.9400
  555MOL0     H76526   4.557   8.537   5.368  1.3116 -0.2344 -1.8146
  555MOL0     H76527   4.427   8.345   5.411  3.5799 -3.0755  0.5172
  555MOL0     H76528   4.338   8.351   5.251 -0.3265 -2.5750  2.0307
  555MOL0     H76529   4.544   8.307   5.137 -2.1273  0.8975 -0.1249
  555MOL0     H76530   4.636   8.306   5.294 -0.1127 -0.7900  0.3097
  555MOL0     H76531   4.586   8.075   5.189 -0.8752 -1.4639  1.0646
  555MOL0     H76532   4.425   8.110   5.196  0.7754  1.8383 -2.2515
  555MOL0     H76533   4.425   8.119   5.443  0.6090  0.5916  2.4537
  555MOL0     H76534   4.496   7.963   5.397  1.1901  0.1505  0.5928
  555MOL0     H76535   4.628   8.061   5.578 -0.5008  0.7541 -0.5581
  555MOL0     H76536   4.656   8.206   5.489  5.0447 -0.0107 -1.7299
  555MOL0     H76537   4.744   7.921   5.428  1.0272  1.0323  1.4856
  555MOL0     H76538   4.781   8.053   5.308  2.3387 -0.4832  0.4089
  555MOL0     H76539   4.876   8.282   5.503 -1.0406  0.5636  1.7090
  555MOL0     H76540   5.071   8.370   5.644  1.1572  1.5212 -2.5694
  555MOL0     H76541   5.204   8.310   5.541  0.7418  0.0941  1.1213
  555MOL0     H76542   5.131   8.207   5.827 -0.2027  3.3477  1.5837
  555MOL0     H76543   5.276   8.171   5.730  1.0722  1.6292 -0.4630
  555MOL0     H76544   5.191   8.436   5.843 -1.0864 -0.6422 -0.2197
  555MOL0     H76545   5.311   8.307   5.910  3.2639  1.3477 -0.6152
  555MOL0     H76546   5.455   8.349   5.723 -0.1174  1.0556 -0.6485
  555MOL0     H76547   5.364   8.484   5.671  0.8975  0.6801  0.1897
  555MOL0     H76548   5.587   8.523   5.612  0.8926 -0.6237  1.0654
  555MOL0     H76549   5.768   8.545   5.458  0.1875  0.2707  0.8105
  555MOL0     H76550   5.894   8.425   5.519  0.1530 -1.4919  2.6641
  555MOL0     H76551   5.921   8.607   5.521 -0.0911 -0.0196  0.6420
  555MOL0     H76552   6.276   8.506   6.076  0.6872 -1.4193 -0.6154
  555MOL0     H76553   6.506   8.564   6.087  1.4780  0.3589 -2.0204
  555MOL0     H76554   6.641   8.763   6.144 -1.2059 -0.0618 -0.5665
  555MOL0     H76555   6.706   8.616   6.060  1.2389 -0.1526  0.2642
  555MOL0     H76556   6.855   8.873   6.037  0.9485 -1.0041 -1.7332
  555MOL0     H76557   6.883   8.758   6.169  0.1893  2.2727  0.3189
  555MOL0     H76558   6.918   8.722   5.868  2.7018  1.2868 -0.7402
  555MOL0     H76559   6.955   8.598   5.977  1.5856 -0.0490  1.1780
  555MOL0     H76560   7.100   8.757   6.119  2.2415  2.1076 -0.4498
  555MOL0     H76561   7.089   8.871   5.993  3.1259  0.0872  1.0262
  555MOL0     H76562   7.193   8.599   5.974  2.3950  0.4167  0.5959
  555MOL0     H76563   7.180   8.693   5.835 -2.0263  0.9463  1.0801
  555MOL0     H76564   7.328   8.868   5.986  0.1773  0.3430  0.3536
  555MOL0     H76565   7.407   8.749   5.884 -1.5184  2.9358 -0.0582
  555MOL0     H76566   7.401   8.589   6.083  0.8215  0.5729 -2.8442
  555MOL0     H76567   7.357   8.734   6.188  1.6627  2.3153  0.1769
  555MOL0     H76568   7.582   8.779   6.214  0.5983  1.0659 -0.7051
  555MOL0     H76569   7.570   8.833   6.044 -3.2720  0.5557 -0.2095
  555MOL0     H76570   6.442   8.859   5.774 -0.6770 -0.5261 -1.9302
  555MOL0     H76571   6.197   8.799   5.782 -0.4237  1.2929  1.9290
  555MOL0     H76572   5.871   8.601   5.998  2.3825 -1.2878 -1.9857
  555MOL0     H76573   5.637   8.597   6.026  0.1441  1.0895  0.7865
  555MOL0     H76574   4.190   8.653   5.689  1.0533  0.5422 -0.5150
  555MOL0     H76575   3.944   8.615   5.731 -1.0081  1.5981 -0.8690
  555MOL0     H76576   3.661   8.599   5.778 -0.6649  1.0924  1.9788
  555MOL0     H76577   3.478   8.597   5.946 -1.0515 -1.8897  0.3962
  555MOL0     H76578   3.044   8.522   5.935 -1.0551  1.0201 -1.5734
  555MOL0     H76579   3.099   8.456   5.776  2.1807 -3.2486 -0.1599
  555MOL0     H76580   3.138   8.244   5.855  1.2922  0.4052 -0.9608
  555MOL0     H76581   2.981   8.289   5.925  0.3787 -0.4864 -1.2979
  555MOL0     H76582   3.250   8.235   6.051  0.4155  0.4775  1.4295
  555MOL0     H76583   3.160   8.362   6.135 -0.3485 -0.1421 -0.3388
  555MOL0     H76584   2.976   8.222   6.191  0.0509  1.2814 -1.0146
  555MOL0     H76585   3.113   8.136   6.251 -2.3554 -2.6607  0.5154
  555MOL0     H76586   2.940   7.860   5.985 -1.6353 -0.1933  2.1085
  555MOL0     H76587   3.257   8.316   5.709 -0.6560  1.5781 -0.5319
  555MOL0     H76588   3.362   8.205   5.522 -0.1468  0.3707 -1.1734
  555MOL0     H76589   3.476   8.305   5.431  0.3665  1.4794  0.0168
  555MOL0     H76590   3.529   8.179   5.548 -0.7735 -0.6865 -0.1963
  556MOL0     O76591   8.971   9.569   6.228  0.5533 -0.5164  0.3543
  556MOL0     C76592   8.935   9.663   6.308  1.1001  0.3445  0.1487
  556MOL0     O76593   9.015   9.761   6.356 -0.1088 -0.3296 -0.1856
  556MOL0     C76594   9.135   9.785   6.296 -0.4152  0.3507 -0.0261
  556MOL0     C76595   9.161   9.910   6.244  1.1660  0.4037 -0.2526
  556MOL0     C76596   9.287   9.939   6.190 -0.3776 -0.2282 -0.4815
  556MOL0     C76597   9.390   9.847   6.187  0.9745 -0.4817  0.2653
  556MOL0     O76598   9.500   9.898   6.113 -0.0383 -1.0523  0.2169
  556MOL0     C76599   9.622   9.858   6.159 -0.2138  0.4409  0.0568
  556MOL0     C76600   9.716   9.839   6.044 -0.7312  0.1656 -0.0870
  556MOL0     C76601   9.846   9.818   6.106  0.4904  0.5041 -0.2309
  556MOL0     C76602   9.956   9.848   6.004 -0.2613 -1.0151  0.1769
  556MOL0     C76603  10.101   9.828   6.062  0.1810 -1.0360 -0.4924
  556MOL0     C76604  10.142   9.688   6.115  0.0158 -0.5196  0.0641
  556MOL0     C76605  10.293   9.689   6.154 -0.5114  0.4301 -0.4001
  556MOL0     C76606  10.340   9.542   6.192  0.2123 -0.5429 -0.2385
  556MOL0     N76607  10.484   9.539   6.206  0.5031 -0.1718  0.0137
  556MOL0     C76608  10.567   9.555   6.099 -0.7913  0.0550 -0.1373
  556MOL0     C76609  10.695   9.556   6.166 -0.5101  0.1227  0.8500
  556MOL0     C76610  10.822   9.584   6.082  0.2813 -0.0017  0.3851
  556MOL0     C76611  10.922   9.468   6.071  0.6767  0.1967 -0.4572
  556MOL0     C76612  11.058   9.517   6.023 -0.3088 -0.3777  0.4105
  556MOL0     C76613  11.063   9.538   5.873  0.4923 -0.4101 -0.0768
  556MOL0     O76614  11.179   9.612   5.830 -0.8824 -0.2768 -0.7125
  556MOL0     C76615  11.221   9.602   5.700  0.5958 -1.1653 -0.1443
  556MOL0     C76616  11.358   9.587   5.670  0.6857  0.2948 -0.6905
  556MOL0     C76617  11.398   9.567   5.536 -0.2592  0.3906  0.3045
  556MOL0     C76618  11.546   9.539   5.505  0.2150  0.0685 -0.3892
  556MOL0     C76619  11.296   9.566   5.435 -0.6894 -0.2543  0.2145
  556MOL0     C76620  11.334   9.515   5.301  0.2102 -1.4371  0.7992
  556MOL0     O76621  11.245   9.419   5.263  0.3783  0.5763  0.3521
  556MOL0     C76622  11.278   9.335   5.165 -0.3786  0.0325 -0.4293
  556MOL0     C76623  11.349   9.216   5.182 -0.6707  0.2097 -1.5082
  556MOL0     C76624  11.408   9.148   5.078  0.4346 -0.4594  1.2091
  556MOL0     C76625  11.376   9.182   4.945  0.0091 -0.5284 -0.2395
  556MOL0     O76626  11.445   9.119   4.848  0.4414 -1.0091 -0.6003
  556MOL0     C76627  11.421   9.140   4.715 -0.1802 -0.0967  2.0525
  556MOL0     C76628  11.509   9.048   4.633 -0.0405 -0.0705 -0.4707
  556MOL0     C76629  11.441   8.910   4.638 -0.2086 -0.7636 -0.0576
  556MOL0     C76630  11.327   8.893   4.539 -0.1659  0.0873 -0.0386
  556MOL0     C76631  11.338   8.788   4.421 -0.3832 -0.1496 -0.1692
  556MOL0     C76632  11.448   8.814   4.314 -0.5331  0.1448 -0.1732
  556MOL0     C76633  11.445   8.709   4.199  0.0064 -0.2824  0.1154
  556MOL0     C76634  11.316   8.693   4.110  0.0632  0.1823 -0.5859
  556MOL0    Cl76635  11.286   8.840   4.012  0.1812  0.4194  0.1186
  556MOL0     C76636  11.292   9.288   4.927  0.4906 -0.0831  0.3353
  556MOL0     C76637  11.241   9.364   5.032  0.2895  0.4221 -0.2732
  556MOL0     O76638  11.436   9.536   5.238 -0.0217  0.0958 -0.6990
  556MOL0     C76639  11.161   9.597   5.459  0.6634  0.5946 -0.0341
  556MOL0     C76640  11.131   9.604   5.592  0.2842  0.3724  0.1845
  556MOL0     N76641  10.674   9.556   6.301 -0.5870 -0.2490  0.5700
  556MOL0     N76642  10.546   9.549   6.323  0.5858  0.6941  0.3948
  556MOL0     C76643   9.367   9.722   6.241  0.2079 -0.7593  0.2792
  556MOL0     C76644   9.242   9.695   6.302  1.0639  0.7181 -0.1228
  556MOL0     C76645   8.791   9.683   6.345  0.5953  0.8448  0.4226
  556MOL0     C76646   8.706   9.568   6.351 -0.2238 -0.1725 -0.2083
  556MOL0     C76647   8.577   9.560   6.404 -0.0559 -1.0729  0.9850
  556MOL0     C76648   8.515   9.675   6.458  0.2511  0.4853 -0.1537
  556MOL0     O76649   8.390   9.672   6.515 -0.0455  0.9905 -0.3698
  556MOL0     C76650   8.371   9.581   6.621 -0.1135  0.1374 -0.5211
  556MOL0     C76651   8.289   9.464   6.568  0.6877 -0.9621  0.3136
  556MOL0     C76652   8.146   9.494   6.513 -0.1307  0.0480 -0.1288
  556MOL0     C76653   8.111   9.387   6.419 -0.4982 -0.3220  0.8597
  556MOL0     C76654   7.975   9.421   6.374  0.1806 -0.0601 -0.4410
  556MOL0     C76655   7.861   9.452   6.355 -0.6292 -0.0692 -0.0050
  556MOL0     C76656   8.599   9.791   6.462 -0.3564  0.2596 -0.3325
  556MOL0     C76657   8.728   9.793   6.403 -0.0489  0.2980 -0.3471
  556MOL0     C76658   8.789   9.926   6.412  0.2918 -0.0125 -0.0403
  556MOL0     H76659   9.085   9.987   6.253 -0.8582 -1.3649 -1.1738
  556MOL0     H76660   9.290  10.038   6.146 -1.9268 -0.9514 -2.3797
  556MOL0     H76661   9.612   9.776   6.230 -0.3096  1.4422  1.2424
  556MOL0     H76662   9.664   9.944   6.212 -0.9008 -0.0203  1.4102
  556MOL0     H76663   9.685   9.757   5.979  2.6769 -0.3734 -1.2471
  556MOL0     H76664   9.723   9.927   5.980 -0.0822 -1.0191 -1.6953
  556MOL0     H76665   9.858   9.883   6.193 -0.1519  1.4107 -0.8115
  556MOL0     H76666   9.857   9.716   6.144 -0.4104  0.9846  1.4012
  556MOL0     H76667   9.934   9.779   5.921 -0.7832  2.1633 -2.5540
  556MOL0     H76668   9.949   9.943   5.951 -0.1127 -2.7885 -3.3642
  556MOL0     H76669  10.105   9.899   6.144 -4.5390  2.6077 -2.9371
  556MOL0     H76670  10.175   9.853   5.985  1.5655 -0.3188  1.0172
  556MOL0     H76671  10.083   9.676   6.206  2.1828 -0.0174  1.5946
  556MOL0     H76672  10.125   9.612   6.038  0.4593 -0.8567  0.3014
  556MOL0     H76673  10.327   9.749   6.238  4.8624 -1.7596 -0.6614
  556MOL0     H76674  10.350   9.725   6.068  0.0484  1.1330  0.2630
  556MOL0     H76675  10.302   9.523   6.293  1.0225  0.3789  0.2617
  556MOL0     H76676  10.300   9.469   6.121 -0.5125  1.4921 -2.0592
  556MOL0     H76677  10.544   9.552   5.993 -2.9465  3.0486  0.1259
  556MOL0     H76678  10.876   9.669   6.126  1.5857  0.0761 -1.2693
  556MOL0     H76679  10.791   9.607   5.980 -0.6773 -0.1354  0.6359
  556MOL0     H76680  10.949   9.430   6.170  0.1025  1.4225  0.1986
  556MOL0     H76681  10.889   9.392   6.000  1.5969  1.2926 -2.1543
  556MOL0     H76682  11.079   9.614   6.069  1.0603 -0.4711  0.0245
  556MOL0     H76683  11.134   9.443   6.050 -0.2998 -0.8774 -0.9020
  556MOL0     H76684  11.052   9.441   5.825 -2.5661 -0.1485 -0.0980
  556MOL0     H76685  10.989   9.611   5.841  0.1565 -0.0383  1.4546
  556MOL0     H76686  11.426   9.579   5.755 -0.2933 -0.7138  0.0189
  556MOL0     H76687  11.548   9.451   5.440 -2.3479  0.4431 -1.0807
  556MOL0     H76688  11.596   9.518   5.600 -1.2028  1.0290  0.6159
  556MOL0     H76689  11.589   9.620   5.445  1.0188 -1.4534 -1.9667
  556MOL0     H76690  11.374   9.190   5.285 -1.8675 -0.0033 -1.2627
  556MOL0     H76691  11.483   9.070   5.086  0.8700 -0.1455  0.3588
  556MOL0     H76692  11.316   9.140   4.682  0.8033  0.8867 -1.5445
  556MOL0     H76693  11.454   9.238   4.678 -1.5215 -0.0667  0.8045
  556MOL0     H76694  11.515   9.068   4.526 -4.5868  0.1639 -0.8786
  556MOL0     H76695  11.609   9.044   4.678 -0.2767 -3.6311  0.0533
  556MOL0     H76696  11.414   8.890   4.742  0.9803 -1.7343  0.0852
  556MOL0     H76697  11.517   8.834   4.619  0.3206 -0.4424  0.7480
  556MOL0     H76698  11.305   8.993   4.499 -0.4481  0.1959  0.3775
  556MOL0     H76699  11.239   8.867   4.598  1.4172 -2.4788  1.3979
  556MOL0     H76700  11.363   8.694   4.472  0.4805  0.3415  0.3409
  556MOL0     H76701  11.242   8.789   4.368 -0.6887  1.4298  0.3476
  556MOL0     H76702  11.542   8.819   4.370 -2.0179  2.9275  2.3394
  556MOL0     H76703  11.439   8.915   4.272 -1.0709  0.9578  1.7928
  556MOL0     H76704  11.469   8.607   4.230 -1.1864 -0.8540 -0.7653
  556MOL0     H76705  11.531   8.718   4.132 -1.3102 -0.2582 -1.6243
  556MOL0     H76706  11.225   8.672   4.166 -0.0647 -1.1273 -1.2476
  556MOL0     H76707  11.325   8.610   4.039  0.3334  0.9008 -1.4205
  556MOL0     H76708  11.277   9.313   4.823 -1.3327 -1.3026  0.2651
  556MOL0     H76709  11.176   9.447   5.009  0.8460  1.0102  0.2261
  556MOL0     H76710  11.077   9.573   5.394  0.1385  0.1104  0.8056
  556MOL0     H76711  11.025   9.598   5.613  0.5530 -2.9111  1.0584
  556MOL0     H76712   9.448   9.651   6.235 -0.1579 -1.0985 -0.9876
  556MOL0     H76713   9.233   9.590   6.330  1.9436  0.5038 -0.5933
  556MOL0     H76714   8.763   9.481   6.321  3.0405  1.6827  0.1042
  556MOL0     H76715   8.520   9.468   6.398 -1.7204 -0.0894  1.0486
  556MOL0     H76716   8.463   9.544   6.668  0.2876  0.2508 -1.2132
  556MOL0     H76717   8.328   9.645   6.699  0.5441  0.1235 -0.1398
  556MOL0     H76718   8.284   9.397   6.654 -0.3462  0.8732  1.7507
  556MOL0     H76719   8.348   9.414   6.491 -0.4468 -1.6831 -0.1239
  556MOL0     H76720   8.071   9.499   6.593 -1.6669  1.5707 -1.5845
  556MOL0     H76721   8.146   9.590   6.461  0.1535 -0.7198 -1.5865
  556MOL0     H76722   8.122   9.300   6.485 -1.2077 -0.3766  0.9059
  556MOL0     H76723   8.177   9.374   6.333  1.0280  1.8370  1.6110
  556MOL0     H76724   7.758   9.481   6.355 -0.3986  1.5200  4.5907
  556MOL0     H76725   8.562   9.877   6.517 -1.1215  1.2224 -2.2608
  556MOL0     H76726   8.870   9.937   6.340  0.1121 -3.0705 -0.8454
  556MOL0     H76727   8.713  10.004   6.402  2.0153  1.6725 -0.4643
  556MOL0     H76728   8.826   9.926   6.514 -2.8602 -2.2830  1.2694
  557MOL0     O76729   6.364   6.125   9.920 -0.0423  0.1199 -0.2127
  557MOL0     C76730   6.316   6.162   9.808 -1.5302  0.7994  0.0926
  557MOL0     O76731   6.391   6.198   9.694 -0.0039 -0.2685  0.1621
  557MOL0     C76732   6.526   6.180   9.703 -0.4733 -0.0215  0.7631
  557MOL0     C76733   6.594   6.066   9.742  0.1684  1.1269  1.0725
  557MOL0     C76734   6.735   6.061   9.734  0.7181 -0.0316  0.0182
  557MOL0     C76735   6.812   6.173   9.698 -0.2803  0.1910  0.0784
  557MOL0     O76736   6.949   6.158   9.690  0.9032 -0.6373  0.2502
  557MOL0     C76737   7.015   6.238   9.589 -0.3073 -0.0506 -0.2580
  557MOL0     C76738   7.147   6.167   9.546 -0.7349  0.1969  0.8708
  557MOL0     C76739   7.235   6.126   9.673  0.5657 -0.0526  0.3071
  557MOL0     C76740   7.370   6.048   9.639 -0.7547  0.0058  0.8803
  557MOL0     C76741   7.428   5.984   9.760  0.3696  0.4076  0.5031
  557MOL0     C76742   7.563   5.918   9.719 -0.0082  0.0681 -0.9332
  557MOL0     C76743   7.682   6.007   9.710  0.1204  0.1619 -0.1853
  557MOL0     C76744   7.799   5.931   9.644 -0.2496  0.9582  0.7111
  557MOL0     N76745   7.911   6.021   9.620 -0.2362 -0.4895  0.3378
  557MOL0     C76746   8.032   6.026   9.683 -0.0070  0.1882  0.0504
  557MOL0     C76747   8.107   6.114   9.602 -0.0950 -0.0874  0.1958
  557MOL0     C76748   8.256   6.138   9.608  0.1945 -0.1243 -0.3349
  557MOL0     C76749   8.298   6.283   9.580 -0.1552  1.1877 -0.2269
  557MOL0     C76750   8.449   6.294   9.542 -0.5451  0.0747 -0.9061
  557MOL0     C76751   8.538   6.261   9.670 -0.2270  0.1920  0.6053
  557MOL0     O76752   8.673   6.242   9.624  0.7794  0.0811 -0.1590
  557MOL0     C76753   8.756   6.175   9.706  0.3167  0.3124  0.4486
  557MOL0     C76754   8.776   6.211   9.841  1.1457 -0.0204  0.6730
  557MOL0     C76755   8.874   6.153   9.919 -0.0628 -0.1475 -0.2537
  557MOL0     C76756   8.869   6.186  10.067  0.6701  0.3900  0.0243
  557MOL0     C76757   8.957   6.044   9.854 -0.1044  0.8105  0.1787
  557MOL0     C76758   9.056   5.954   9.928 -0.2159  0.2713  1.2331
  557MOL0     O76759   9.099   5.837   9.862 -0.4778 -0.8539 -1.0376
  557MOL0     C76760   9.194   5.750   9.918  0.4192 -0.8929  0.8529
  557MOL0     C76761   9.207   5.720  10.047 -1.0939 -1.0800  0.2963
  557MOL0     C76762   9.306   5.627  10.081 -0.4471 -0.6313  0.2934
  557MOL0     C76763   9.390   5.556   9.996  0.9031 -0.0246  0.9498
  557MOL0     O76764   9.474   5.460  10.053 -0.7974 -0.1774  0.4310
  557MOL0     C76765   9.524   5.354   9.965  0.6789  0.2524  0.1365
  557MOL0     C76766   9.608   5.250  10.049  1.1074 -0.2091 -0.1176
  557MOL0     C76767   9.704   5.179   9.956 -0.3059 -0.4445 -0.2956
  557MOL0     C76768   9.634   5.091   9.861 -0.1888 -0.7145  0.2370
  557MOL0     C76769   9.571   4.957   9.926  0.0020  0.4924  0.2464
  557MOL0     C76770   9.593   4.833   9.846 -0.1572 -0.2743  0.0076
  557MOL0     C76771   9.536   4.719   9.934 -0.8401 -0.4404 -0.2121
  557MOL0     C76772   9.541   4.580   9.869 -0.6500 -0.1374 -0.1240
  557MOL0    Cl76773   9.698   4.559   9.789  0.1479 -0.1353 -0.0989
  557MOL0     C76774   9.352   5.582   9.864 -0.3680 -0.0752 -0.7095
  557MOL0     C76775   9.260   5.674   9.820  0.2218 -0.5138  0.5814
  557MOL0     O76776   9.074   5.978  10.050  0.4330  0.7499 -0.4055
  557MOL0     C76777   8.933   6.008   9.722  0.1229 -0.5436 -0.4316
  557MOL0     C76778   8.826   6.073   9.646  0.0022 -0.3045 -0.3652
  557MOL0     N76779   8.022   6.166   9.503 -0.2235  0.1251 -0.6572
  557MOL0     N76780   7.907   6.105   9.511  0.2926 -0.6814 -1.1181
  557MOL0     C76781   6.740   6.285   9.647  0.0353  0.1966 -0.0877
  557MOL0     C76782   6.597   6.284   9.650  0.0437 -0.3415 -0.3118
  557MOL0     C76783   6.164   6.175   9.801 -0.0042 -0.4322  0.7047
  557MOL0     C76784   6.111   6.267   9.713  0.0035 -0.0867  0.0820
  557MOL0     C76785   5.975   6.310   9.713 -0.5679  0.4646  0.1293
  557MOL0     C76786   5.887   6.262   9.804  0.2020 -0.0018 -0.2353
  557MOL0     O76787   5.755   6.287   9.815  0.1901 -0.3768 -0.3950
  557MOL0     C76788   5.688   6.318   9.693 -0.2580 -0.0667  0.1103
  557MOL0     C76789   5.542   6.306   9.717  0.6179 -0.7297  0.0412
  557MOL0     C76790   5.461   6.366   9.608  1.0814 -0.2664 -0.2008
  557MOL0     C76791   5.308   6.324   9.603  0.3802 -0.3923  0.3168
  557MOL0     C76792   5.239   6.373   9.479 -0.6532  0.4547 -0.8852
  557MOL0     C76793   5.179   6.394   9.379 -0.0721  0.4478  0.8975
  557MOL0     C76794   5.936   6.165   9.894 -0.2531  0.3170 -0.5113
  557MOL0     C76795   6.071   6.125   9.894  0.1839  0.9527  0.4433
  557MOL0     C76796   6.113   6.009   9.984 -0.4073  0.0268 -1.3656
  557MOL0     H76797   6.532   5.982   9.773  3.7017 -2.1782  0.0807
  557MOL0     H76798   6.781   5.970   9.771  0.6094 -0.4201 -0.7943
  557MOL0     H76799   7.023   6.332   9.644 -3.1241 -0.0854  0.3786
  557MOL0     H76800   6.950   6.249   9.502 -1.6473 -0.0546  0.7173
  557MOL0     H76801   7.135   6.075   9.488 -2.8590  1.6414 -1.2001
  557MOL0     H76802   7.206   6.241   9.490 -0.1657  0.3627  1.6753
  557MOL0     H76803   7.250   6.214   9.737 -3.0983  0.3719  0.8180
  557MOL0     H76804   7.177   6.062   9.739  0.0066  0.0600 -0.0708
  557MOL0     H76805   7.356   5.971   9.562  1.1532 -0.0917  0.5858
  557MOL0     H76806   7.443   6.116   9.594 -0.2794 -0.8252  0.3720
  557MOL0     H76807   7.349   5.915   9.789  2.5505 -1.6083  1.9748
  557MOL0     H76808   7.447   6.054   9.843  1.5613  1.1150 -0.3356
  557MOL0     H76809   7.587   5.841   9.793  0.5906  0.9117 -0.2167
  557MOL0     H76810   7.561   5.876   9.618  2.3959  1.0943 -1.4768
  557MOL0     H76811   7.704   6.042   9.811 -3.9661  1.4211  0.4220
  557MOL0     H76812   7.647   6.089   9.647 -0.1652 -1.3170 -2.0593
  557MOL0     H76813   7.833   5.852   9.711  4.7497  0.4987 -1.8754
  557MOL0     H76814   7.774   5.891   9.545 -1.1514 -1.7915  1.9673
  557MOL0     H76815   8.056   5.967   9.771  1.5708  0.6754 -0.0142
  557MOL0     H76816   8.295   6.078   9.525 -0.4089  1.4578 -1.8450
  557MOL0     H76817   8.301   6.093   9.697 -0.3365  0.1430  0.0695
  557MOL0     H76818   8.242   6.340   9.505 -0.5456 -1.1360 -1.7989
  557MOL0     H76819   8.291   6.336   9.676  1.2121  2.7922 -0.9528
  557MOL0     H76820   8.475   6.241   9.450  0.4523  1.6917 -1.6023
  557MOL0     H76821   8.473   6.398   9.521 -0.1155 -0.0284 -0.9317
  557MOL0     H76822   8.528   6.333   9.752 -0.2446  1.1479 -0.2248
  557MOL0     H76823   8.510   6.163   9.708 -0.3465  0.5830  1.5617
  557MOL0     H76824   8.712   6.287   9.886  0.6826 -0.5721  0.9604
  557MOL0     H76825   8.818   6.276  10.103  0.5258  0.3353 -0.0407
  557MOL0     H76826   8.972   6.180  10.104  1.2608 -2.1624 -1.7727
  557MOL0     H76827   8.816   6.099  10.107  1.9037 -1.5252 -2.2368
  557MOL0     H76828   9.153   5.767  10.129  0.6786  2.1979 -0.2679
  557MOL0     H76829   9.310   5.615  10.189 -1.0221  0.3118  0.4348
  557MOL0     H76830   9.441   5.307   9.911  1.4049  0.1249 -0.9046
  557MOL0     H76831   9.587   5.406   9.892 -0.1365  2.3862  0.8612
  557MOL0     H76832   9.681   5.304  10.110 -0.6059  1.7142  0.3479
  557MOL0     H76833   9.535   5.182  10.093 -0.8957  0.0988 -2.7015
  557MOL0     H76834   9.778   5.119  10.009 -1.7455 -0.7787  1.3833
  557MOL0     H76835   9.759   5.254   9.898 -1.3521 -1.1099 -2.2583
  557MOL0     H76836   9.706   5.071   9.780  0.9955  0.7788  0.8665
  557MOL0     H76837   9.545   5.138   9.820 -1.9216 -0.5593  3.8439
  557MOL0     H76838   9.601   4.948  10.031  1.3048 -1.4434 -0.2294
  557MOL0     H76839   9.464   4.979   9.922  0.4310  2.6885 -2.7943
  557MOL0     H76840   9.700   4.824   9.825 -0.1079 -0.8027  0.4687
  557MOL0     H76841   9.539   4.831   9.751 -0.9548  1.5396  0.3812
  557MOL0     H76842   9.435   4.749   9.966  0.2060  2.4789  0.6544
  557MOL0     H76843   9.596   4.714  10.025 -1.0260 -1.5267 -0.1356
  557MOL0     H76844   9.449   4.575   9.809 -2.1635  1.1304  1.9319
  557MOL0     H76845   9.533   4.502   9.945  0.1042  0.4724  0.6022
  557MOL0     H76846   9.396   5.515   9.790 -1.1813 -3.3841  1.5534
  557MOL0     H76847   9.236   5.681   9.714 -1.2784  1.5004  0.9970
  557MOL0     H76848   8.994   5.936   9.669 -0.3660  0.1770 -2.0395
  557MOL0     H76849   8.818   6.043   9.542 -0.1585  0.4978 -0.5929
  557MOL0     H76850   6.789   6.371   9.602 -0.4831  0.4023 -0.2718
  557MOL0     H76851   6.557   6.374   9.605  1.7473  0.4702 -0.2806
  557MOL0     H76852   6.177   6.320   9.645  1.8216  0.4653  2.1691
  557MOL0     H76853   5.952   6.377   9.631  3.3164 -0.5247 -1.9786
  557MOL0     H76854   5.723   6.418   9.665  1.6610 -1.0007 -1.0448
  557MOL0     H76855   5.723   6.250   9.614  2.8037  1.9953 -0.5067
  557MOL0     H76856   5.504   6.360   9.805  1.8029  0.6328 -0.2530
  557MOL0     H76857   5.519   6.200   9.729  2.2588 -1.3530 -1.8574
  557MOL0     H76858   5.464   6.476   9.610 -1.5687 -0.1378 -0.2092
  557MOL0     H76859   5.510   6.334   9.515  0.4685  1.2690 -1.1054
  557MOL0     H76860   5.251   6.361   9.688 -0.0972 -1.9022  0.6857
  557MOL0     H76861   5.294   6.215   9.609  0.1727 -0.3878 -0.0596
  557MOL0     H76862   5.115   6.427   9.300  0.9234 -1.5654 -0.8374
  557MOL0     H76863   5.868   6.119   9.965  0.4742  1.2994  0.8585
  557MOL0     H76864   6.174   6.044  10.068 -3.1456  0.7820  0.4594
  557MOL0     H76865   6.022   5.976  10.035 -0.4617  2.8025  0.5923
  557MOL0     H76866   6.177   5.931   9.943 -1.1598 -0.8593 -0.8869
  558MOL0     O76867   7.038  10.272   3.023  0.0956  0.4091 -1.2332
  558MOL0     C76868   6.985  10.175   3.078 -0.0197 -0.2305 -0.8609
  558MOL0     O76869   7.044  10.106   3.180 -0.0754  0.3447 -0.5201
  558MOL0     C76870   7.166  10.147   3.223 -0.8276 -0.7962  0.2711
  558MOL0     C76871   7.193  10.188   3.357  0.2343  0.0231 -0.0099
  558MOL0     C76872   7.326  10.212   3.403  0.2223  0.6562 -0.3745
  558MOL0     C76873   7.437  10.188   3.320 -0.1061 -0.1795 -0.3776
  558MOL0     O76874   7.567  10.200   3.359 -0.0373 -0.8412 -0.5594
  558MOL0     C76875   7.607  10.327   3.407  0.3454 -0.9188 -0.5891
  558MOL0     C76876   7.754  10.330   3.446  0.5790 -0.0865  0.2291
  558MOL0     C76877   7.848  10.296   3.328 -0.4253  0.1906 -0.1184
  558MOL0     C76878   7.854  10.410   3.219 -0.1787 -0.5143  0.6201
  558MOL0     C76879   7.972  10.386   3.127  0.7612  0.0474 -0.3797
  558MOL0     C76880   7.993  10.479   3.002  0.9389 -1.3913 -0.2365
  558MOL0     C76881   8.088  10.422   2.904 -0.0488 -0.3853  0.0284
  558MOL0     C76882   8.085  10.492   2.767 -0.4613 -0.6075 -0.4032
  558MOL0     N76883   8.203  10.470   2.682  0.3910  0.0174  0.3128
  558MOL0     C76884   8.307  10.371   2.704  0.0094 -0.4397 -0.3318
  558MOL0     C76885   8.347  10.325   2.587 -1.2777  0.0479  0.3135
  558MOL0     C76886   8.448  10.218   2.561  0.2902  0.1385  0.6120
  558MOL0     C76887   8.594  10.260   2.529  0.7335 -0.3676  0.3423
  558MOL0     C76888   8.683  10.133   2.561  0.4657  0.1678 -0.4712
  558MOL0     C76889   8.831  10.181   2.598  0.1167  0.9275  0.7005
  558MOL0     O76890   8.849  10.157   2.737  0.6645  0.3208  0.1851
  558MOL0     C76891   8.783  10.237   2.823  0.2074  0.8555 -0.4242
  558MOL0     C76892   8.736  10.170   2.941 -0.1961 -0.0126  0.3950
  558MOL0     C76893   8.671  10.235   3.050 -0.1622 -0.0999  0.4827
  558MOL0     C76894   8.645  10.148   3.170  0.0490 -0.2895 -0.6348
  558MOL0     C76895   8.639  10.369   3.034 -0.6221  0.2046  0.0793
  558MOL0     C76896   8.556  10.433   3.128  0.3519  0.8587  0.5720
  558MOL0     O76897   8.436  10.378   3.162  0.0454  0.0412 -0.2978
  558MOL0     C76898   8.355  10.448   3.252 -0.2637 -0.3844 -0.2771
  558MOL0     C76899   8.298  10.378   3.365 -0.0963 -0.7487  1.7199
  558MOL0     C76900   8.197  10.433   3.443 -0.4487 -0.1943  0.4865
  558MOL0     C76901   8.139  10.562   3.412 -0.3132  0.1743  0.0091
  558MOL0     O76902   8.027  10.593   3.474 -0.2998  0.6298 -0.7201
  558MOL0     C76903   8.040  10.716   3.551  0.3406 -0.3828 -0.4188
  558MOL0     C76904   7.897  10.762   3.582 -0.4718  1.3185  0.0193
  558MOL0     C76905   7.806  10.793   3.454 -0.1341 -0.4959 -0.9456
  558MOL0     C76906   7.664  10.734   3.457  0.1095  1.0082  0.0877
  558MOL0     C76907   7.574  10.789   3.559  1.2565 -0.3112 -1.0175
  558MOL0     C76908   7.427  10.770   3.536  0.6881 -0.7843 -0.0406
  558MOL0     C76909   7.341  10.832   3.649 -0.6037 -0.0711 -0.5912
  558MOL0     C76910   7.195  10.849   3.605 -0.1896  0.1332  1.3165
  558MOL0    Cl76911   7.084  10.879   3.737 -0.1306  0.0801 -0.1043
  558MOL0     C76912   8.194  10.634   3.304  0.1420 -0.0438 -0.3122
  558MOL0     C76913   8.303  10.583   3.222  0.6662  0.0145  0.6591
  558MOL0     O76914   8.598  10.544   3.162 -0.2511 -0.2272  0.5627
  558MOL0     C76915   8.690  10.433   2.922 -0.6339 -0.3601 -0.4641
  558MOL0     C76916   8.764  10.371   2.822  0.0829  0.0690 -0.1740
  558MOL0     N76917   8.278  10.393   2.494 -0.2338  0.1846  0.0360
  558MOL0     N76918   8.195  10.476   2.548 -0.3499 -0.1142  0.0556
  558MOL0     C76919   7.416  10.149   3.188  0.9271  0.3460 -0.2420
  558MOL0     C76920   7.280  10.127   3.133 -0.3831  0.0423 -0.1934
  558MOL0     C76921   6.853  10.128   3.049 -0.1350  0.3530  1.1421
  558MOL0     C76922   6.824   9.987   3.060  0.3891 -0.5460 -0.2102
  558MOL0     C76923   6.709   9.940   3.007  0.6311  0.8202  0.4238
  558MOL0     C76924   6.610  10.021   2.951  0.2985  0.2831  0.5373
  558MOL0     O76925   6.500   9.970   2.891  0.3113 -0.3273  0.3581
  558MOL0     C76926   6.433   9.846   2.937 -0.9208  0.3158 -0.4329
  558MOL0     C76927   6.274   9.865   2.919  0.7186 -0.7851 -0.3520
  558MOL0     C76928   6.232   9.842   2.774  0.2864  0.6675  0.5822
  558MOL0     C76929   6.081   9.837   2.748 -0.1787  0.3730 -1.0127
  558MOL0     C76930   6.054   9.823   2.611 -0.9770 -0.0593  0.1417
  558MOL0     C76931   6.043   9.818   2.495  0.0854 -0.8697  0.4366
  558MOL0     C76932   6.635  10.156   2.931  0.0996 -0.0686 -0.5029
  558MOL0     C76933   6.761  10.211   2.978  0.1656 -0.3560 -0.1364
  558MOL0     C76934   6.778  10.355   2.934  0.2492 -0.0526 -0.2883
  558MOL0     H76935   7.107  10.201   3.423  0.2878 -0.7168  0.2144
  558MOL0     H76936   7.340  10.243   3.506 -0.8290  1.7744 -0.5455
  558MOL0     H76937   7.547  10.348   3.496 -1.1105  0.4750 -1.8227
  558MOL0     H76938   7.595  10.404   3.330  0.6380  0.3967  0.6591
  558MOL0     H76939   7.781  10.433   3.471  2.7389 -0.2079 -1.3364
  558MOL0     H76940   7.775  10.269   3.535  0.8391  1.7235  1.4706
  558MOL0     H76941   7.948  10.278   3.369 -1.2746  0.5576  2.2906
  558MOL0     H76942   7.812  10.200   3.290  0.2775  0.5562 -1.8147
  558MOL0     H76943   7.768  10.388   3.154  0.8281  0.1348 -0.9816
  558MOL0     H76944   7.853  10.509   3.265  0.8452  0.8984 -2.1924
  558MOL0     H76945   7.951  10.291   3.078 -0.6885  1.2471 -2.2273
  558MOL0     H76946   8.058  10.383   3.195 -1.0702  1.5286  2.1996
  558MOL0     H76947   7.899  10.505   2.952  0.9953 -3.4143 -1.5062
  558MOL0     H76948   8.024  10.578   3.037 -0.6703 -0.5028 -1.2320
  558MOL0     H76949   8.067  10.316   2.889 -0.4407 -0.5802  1.7498
  558MOL0     H76950   8.189  10.435   2.943  0.6744 -3.3970 -0.6371
  558MOL0     H76951   8.001  10.449   2.712 -1.2216 -1.1318  1.1101
  558MOL0     H76952   8.053  10.597   2.767 -4.2808 -1.6228 -0.8257
  558MOL0     H76953   8.337  10.326   2.799  2.7462  1.6717 -0.0786
  558MOL0     H76954   8.403  10.160   2.480 -0.4678  1.3829  0.1191
  558MOL0     H76955   8.453  10.153   2.650 -3.1229 -1.2159 -0.0040
  558MOL0     H76956   8.610  10.285   2.424  1.9360  0.7682  0.7594
  558MOL0     H76957   8.624  10.339   2.599  0.9104  2.2703 -2.5122
  558MOL0     H76958   8.648  10.076   2.647 -1.6990  0.1970 -1.2673
  558MOL0     H76959   8.675  10.061   2.478 -0.0896  1.2866 -1.4251
  558MOL0     H76960   8.906  10.130   2.537 -0.9227 -2.2329  1.8735
  558MOL0     H76961   8.840  10.284   2.562  0.5836 -0.3775 -3.4980
  558MOL0     H76962   8.748  10.062   2.952 -2.6850 -0.4369 -0.4846
  558MOL0     H76963   8.544  10.142   3.209  1.0023 -0.4381  2.0044
  558MOL0     H76964   8.707  10.189   3.251 -0.5431  0.5768 -0.6079
  558MOL0     H76965   8.680  10.045   3.157 -1.1747 -0.5591 -2.1043
  558MOL0     H76966   8.346  10.284   3.389  1.1031  0.0243  2.4102
  558MOL0     H76967   8.160  10.366   3.520  0.7923 -0.5155  0.8353
  558MOL0     H76968   8.089  10.694   3.647 -0.1356  0.8577  0.1335
  558MOL0     H76969   8.091  10.799   3.502  2.2839 -0.6561  0.9996
  558MOL0     H76970   7.851  10.675   3.629 -0.6111  1.0054 -0.6798
  558MOL0     H76971   7.885  10.846   3.651 -0.3594  1.2182  0.1595
  558MOL0     H76972   7.854  10.746   3.367 -1.6468 -0.5899 -1.7598
  558MOL0     H76973   7.807  10.901   3.438 -2.5557 -0.5307 -1.6623
  558MOL0     H76974   7.657  10.626   3.475 -0.9546  0.9357 -0.7249
  558MOL0     H76975   7.611  10.747   3.363  1.3085 -2.0740 -1.1702
  558MOL0     H76976   7.600  10.737   3.652  0.1261 -2.2981 -1.7406
  558MOL0     H76977   7.590  10.897   3.565  0.9327 -0.2568  4.9372
  558MOL0     H76978   7.415  10.663   3.515 -0.8473 -1.2574  2.7427
  558MOL0     H76979   7.407  10.811   3.437 -2.3439 -3.5111 -0.7307
  558MOL0     H76980   7.388  10.924   3.683  1.0321 -1.2633  0.5055
  558MOL0     H76981   7.344  10.764   3.735 -0.0335  0.0113 -0.5447
  558MOL0     H76982   7.161  10.758   3.555 -3.0059  1.8967 -0.2433
  558MOL0     H76983   7.182  10.933   3.535 -4.8298 -1.7666 -0.5112
  558MOL0     H76984   8.154  10.730   3.272 -1.5376 -0.5683  0.1184
  558MOL0     H76985   8.326  10.634   3.129  1.7047  0.9028  1.3821
  558MOL0     H76986   8.691  10.539   2.898 -0.3341 -0.0628  0.8224
  558MOL0     H76987   8.793  10.434   2.739 -3.2967 -2.1834 -3.3537
  558MOL0     H76988   7.501  10.138   3.122  2.0252  2.7038  0.6831
  558MOL0     H76989   7.264  10.091   3.032 -1.5238  2.0274 -0.7716
  558MOL0     H76990   6.892   9.906   3.082 -1.6890 -3.2259 -2.8372
  558MOL0     H76991   6.681   9.835   2.999 -0.3561  1.1659 -1.0696
  558MOL0     H76992   6.457   9.755   2.882 -3.5898 -0.8746  0.1898
  558MOL0     H76993   6.442   9.835   3.045  1.1217 -0.9664 -0.6942
  558MOL0     H76994   6.244   9.964   2.956 -1.6997 -0.6296 -2.4692
  558MOL0     H76995   6.229   9.785   2.978  1.8438 -0.6094  0.7858
  558MOL0     H76996   6.281   9.926   2.724  0.9526 -0.2519 -0.3502
  558MOL0     H76997   6.269   9.747   2.736 -2.8103 -0.1235 -0.7724
  558MOL0     H76998   6.032   9.928   2.782  2.2109  1.0281  0.9371
  558MOL0     H76999   6.035   9.752   2.799  0.6727  2.0526  2.8793
  558MOL0     H77000   6.056   9.809   2.389  2.9409  0.9805  0.4996
  558MOL0     H77001   6.568  10.221   2.876  1.9198  3.4462  1.1701
  558MOL0     H77002   6.683  10.407   2.914  0.8950  0.6858 -1.5460
  558MOL0     H77003   6.824  10.419   3.009  0.8081 -1.6532  0.7727
  558MOL0     H77004   6.837  10.358   2.842 -0.2540  2.1039 -0.6130
  559MOL0     O77005   9.296   4.181   0.981  0.2536  0.0764  0.0326
  559MOL0     C77006   9.283   4.298   1.011  1.3357 -0.4208  0.4778
  559MOL0     O77007   9.343   4.401   0.949 -0.3204  0.1571 -1.0450
  559MOL0     C77008   9.452   4.373   0.865  0.6441  0.2174  0.0676
  559MOL0     C77009   9.441   4.408   0.727 -0.3738  0.1052 -0.3593
  559MOL0     C77010   9.548   4.367   0.649 -0.4190 -0.1859  0.3036
  559MOL0     C77011   9.659   4.296   0.695 -0.4728 -0.4152  0.8050
  559MOL0     O77012   9.756   4.251   0.614  0.4141  0.8385 -0.0500
  559MOL0     C77013   9.715   4.156   0.516  0.5294 -0.1414  0.4862
  559MOL0     C77014   9.833   4.069   0.478  1.0312 -0.6854  0.2124
  559MOL0     C77015   9.955   4.136   0.435  0.2864 -0.2092 -0.3577
  559MOL0     C77016  10.068   4.059   0.372 -0.2207 -0.0304  0.4429
  559MOL0     C77017  10.129   3.970   0.479  0.1636  0.8970  0.2185
  559MOL0     C77018  10.241   3.886   0.420  0.4668 -0.3724  0.7352
  559MOL0     C77019  10.193   3.747   0.357  0.0858  0.5133  0.3134
  559MOL0     C77020  10.161   3.637   0.448 -0.2451  0.2362 -0.3236
  559MOL0     N77021  10.275   3.568   0.513  0.1910  0.4643 -0.5494
  559MOL0     C77022  10.343   3.618   0.630 -0.0514  1.1732  1.4243
  559MOL0     C77023  10.438   3.525   0.642  0.2039 -0.2394  0.1200
  559MOL0     C77024  10.543   3.528   0.750 -0.1541  0.1110  0.1010
  559MOL0     C77025  10.560   3.394   0.835  0.3703  0.3988  0.4024
  559MOL0     C77026  10.665   3.406   0.950  1.0044 -0.0916  0.1587
  559MOL0     C77027  10.664   3.273   1.021  0.6018  0.2092  0.2571
  559MOL0     O77028  10.710   3.171   0.940  0.8723 -0.0163 -0.7393
  559MOL0     C77029  10.724   3.042   0.980 -0.5652 -0.0457  0.6635
  559MOL0     C77030  10.751   2.945   0.882 -0.6207  0.8155 -0.2111
  559MOL0     C77031  10.783   2.810   0.913  0.3219  0.1242  0.2189
  559MOL0     C77032  10.806   2.717   0.788  0.1043 -0.6530 -0.0471
  559MOL0     C77033  10.772   2.757   1.047 -0.2298 -1.1236  0.0192
  559MOL0     C77034  10.805   2.620   1.095  0.3021 -0.0907  0.2118
  559MOL0     O77035  10.757   2.584   1.219  0.4169  0.7306  0.1911
  559MOL0     C77036  10.833   2.504   1.304  0.8248  0.6936  0.3720
  559MOL0     C77037  10.926   2.562   1.389  0.0764  0.3195 -0.2905
  559MOL0     C77038  11.021   2.481   1.454  0.3182  0.9346  0.0331
  559MOL0     C77039  11.019   2.337   1.432 -0.5796 -0.2558 -0.8757
  559MOL0     O77040  11.103   2.247   1.508  0.2444 -0.0760  0.4276
  559MOL0     C77041  11.200   2.299   1.602 -0.6679 -0.0079 -0.4584
  559MOL0     C77042  11.299   2.188   1.629 -0.0225 -0.1244  0.9702
  559MOL0     C77043  11.415   2.240   1.707  0.1012  0.5550  0.3476
  559MOL0     C77044  11.514   2.135   1.761  0.9763 -0.1585 -0.0600
  559MOL0     C77045  11.613   2.197   1.847  1.1164 -0.9622 -0.2532
  559MOL0     C77046  11.712   2.094   1.900  0.7479  0.2159 -0.2406
  559MOL0     C77047  11.833   2.157   1.969  1.0562  0.1925  0.1542
  559MOL0     C77048  11.955   2.064   1.962 -0.4154 -0.1216  0.7160
  559MOL0    Cl77049  12.060   2.100   2.104 -0.0327 -0.2167 -1.0147
  559MOL0     C77050  10.916   2.291   1.351 -0.2173  0.6152 -0.3532
  559MOL0     C77051  10.822   2.368   1.283  0.3536  0.0086  0.1244
  559MOL0     O77052  10.879   2.551   1.024 -0.5780 -0.3630  0.7385
  559MOL0     C77053  10.742   2.858   1.142  0.1423 -0.0689 -0.4212
  559MOL0     C77054  10.715   2.999   1.106 -0.7604 -0.3928  0.3347
  559MOL0     N77055  10.439   3.438   0.537  0.8477 -0.2005  0.1961
  559MOL0     N77056  10.346   3.472   0.449  0.2616 -0.2921 -0.0021
  559MOL0     C77057   9.669   4.271   0.832 -0.2748 -0.0969  0.5004
  559MOL0     C77058   9.568   4.319   0.922 -0.3031  0.0768  0.6865
  559MOL0     C77059   9.174   4.333   1.108 -0.3983  0.2787  0.4220
  559MOL0     C77060   9.101   4.450   1.087 -0.0012  0.0064 -0.2298
  559MOL0     C77061   8.999   4.485   1.174 -0.3039 -0.5124  0.2732
  559MOL0     C77062   8.967   4.412   1.286 -0.3206  0.1871  0.7076
  559MOL0     O77063   8.872   4.457   1.380  0.3592 -0.3352  0.4437
  559MOL0     C77064   8.810   4.593   1.367 -0.5751 -0.2327  0.6703
  559MOL0     C77065   8.747   4.640   1.495 -0.1272  0.0816  0.1017
  559MOL0     C77066   8.629   4.555   1.550 -1.0373 -0.0092  0.2848
  559MOL0     C77067   8.628   4.546   1.709 -0.0670 -0.2132  1.0877
  559MOL0     C77068   8.551   4.431   1.746  0.1432  0.3310  0.1375
  559MOL0     C77069   8.475   4.340   1.766  0.4337  0.2555  0.3211
  559MOL0     C77070   9.028   4.285   1.299 -0.0629 -0.4383 -0.4353
  559MOL0     C77071   9.144   4.253   1.224 -0.4128 -0.1751 -0.3667
  559MOL0     C77072   9.207   4.115   1.249 -0.1172 -0.0073 -0.5227
  559MOL0     H77073   9.347   4.457   0.703  1.1678  2.7334 -1.4423
  559MOL0     H77074   9.533   4.397   0.546 -0.6149  0.4596  0.5160
  559MOL0     H77075   9.680   4.211   0.429  1.5963 -1.1523 -0.6205
  559MOL0     H77076   9.636   4.087   0.550  2.3362 -1.5134  2.1790
  559MOL0     H77077   9.846   4.003   0.564 -2.9968 -0.7889  0.9416
  559MOL0     H77078   9.792   4.021   0.388 -0.8607  1.9481 -0.4531
  559MOL0     H77079   9.923   4.207   0.358 -1.5823 -0.0543  0.5314
  559MOL0     H77080   9.993   4.197   0.518  2.3284 -1.1158 -0.5476
  559MOL0     H77081  10.028   3.993   0.294  1.0832  1.2469 -1.3740
  559MOL0     H77082  10.145   4.123   0.329 -2.8089  1.3598 -2.4719
  559MOL0     H77083  10.064   3.907   0.540  1.0028 -1.0784 -0.8610
  559MOL0     H77084  10.183   4.038   0.546  2.7307  1.6993 -2.4318
  559MOL0     H77085  10.294   3.942   0.342  0.2107 -2.7434 -1.2746
  559MOL0     H77086  10.317   3.866   0.496  1.3025 -1.5882 -0.3741
  559MOL0     H77087  10.280   3.705   0.305 -0.3289 -0.9534  0.7632
  559MOL0     H77088  10.120   3.768   0.278 -0.4240 -1.8796  0.0651
  559MOL0     H77089  10.083   3.676   0.514 -4.1736  0.3727 -4.5350
  559MOL0     H77090  10.094   3.569   0.394 -0.4749  0.4023 -0.2535
  559MOL0     H77091  10.332   3.704   0.695  0.7056  2.9446 -0.6761
  559MOL0     H77092  10.542   3.609   0.823  1.8017  0.7261 -0.4804
  559MOL0     H77093  10.635   3.555   0.696  0.7758  0.0801  1.6027
  559MOL0     H77094  10.461   3.380   0.880  0.5741  0.9517  1.0439
  559MOL0     H77095  10.573   3.309   0.768 -4.2725  0.9656 -1.5637
  559MOL0     H77096  10.770   3.428   0.927  1.3976  0.4905  2.2510
  559MOL0     H77097  10.636   3.494   1.009  1.6749  0.9488 -1.0018
  559MOL0     H77098  10.714   3.286   1.118  0.0765 -0.0445  0.5668
  559MOL0     H77099  10.564   3.239   1.047  1.2431 -1.1678  1.0044
  559MOL0     H77100  10.749   2.974   0.777 -0.9064  1.9431  0.0904
  559MOL0     H77101  10.758   2.752   0.696  0.5331  1.1457  0.3795
  559MOL0     H77102  10.785   2.612   0.807  3.3588 -1.4387 -0.2592
  559MOL0     H77103  10.911   2.730   0.759 -0.3245 -3.1142 -3.2592
  559MOL0     H77104  10.938   2.670   1.396 -2.8190  0.6556  1.4116
  559MOL0     H77105  11.102   2.522   1.514  1.0002 -1.8954  1.2257
  559MOL0     H77106  11.262   2.371   1.548  3.3107 -0.9325  2.3782
  559MOL0     H77107  11.162   2.338   1.697 -1.5484 -0.9444 -0.4079
  559MOL0     H77108  11.250   2.109   1.686 -0.4359 -0.0726  0.6908
  559MOL0     H77109  11.331   2.144   1.534  0.8044 -0.3299  1.3358
  559MOL0     H77110  11.371   2.282   1.798 -1.9847  0.1443 -0.4050
  559MOL0     H77111  11.477   2.317   1.661  0.8278  0.3871  1.0369
  559MOL0     H77112  11.571   2.090   1.679 -0.5330 -3.4681  0.5275
  559MOL0     H77113  11.464   2.042   1.793 -0.3670  0.8594  0.9371
  559MOL0     H77114  11.670   2.265   1.783 -0.8941  1.9888  0.8562
  559MOL0     H77115  11.564   2.256   1.925 -0.5925  4.4208 -4.7578
  559MOL0     H77116  11.742   2.030   1.817  1.2159  1.1174 -0.7878
  559MOL0     H77117  11.656   2.031   1.969  1.4152 -0.9105 -0.6983
  559MOL0     H77118  11.805   2.177   2.073 -0.5659 -1.6880  0.1266
  559MOL0     H77119  11.857   2.254   1.924 -1.2037  0.8231  0.2191
  559MOL0     H77120  12.007   2.095   1.871  0.6618  2.1861  2.0397
  559MOL0     H77121  11.923   1.959   1.963 -0.7762 -0.0402 -0.4730
  559MOL0     H77122  10.885   2.188   1.338 -0.5468  0.8893 -1.9542
  559MOL0     H77123  10.752   2.332   1.208  1.8723 -0.1860 -1.2545
  559MOL0     H77124  10.736   2.822   1.244 -2.1211 -3.7446 -1.6332
  559MOL0     H77125  10.699   3.073   1.183  0.4163  0.8904 -0.6082
  559MOL0     H77126   9.759   4.222   0.867 -0.8573 -2.1807 -0.7108
  559MOL0     H77127   9.574   4.302   1.029  0.5030 -1.0151  0.4882
  559MOL0     H77128   9.116   4.518   1.003 -1.9955 -0.8368 -1.3293
  559MOL0     H77129   8.944   4.574   1.146 -1.8957 -1.8299 -0.9615
  559MOL0     H77130   8.882   4.673   1.349  0.4794 -0.9631  1.5046
  559MOL0     H77131   8.737   4.606   1.287  1.0051 -2.2097 -1.1964
  559MOL0     H77132   8.727   4.748   1.499  2.2882  0.6161 -0.3220
  559MOL0     H77133   8.827   4.638   1.570  1.3260 -0.5233 -1.4025
  559MOL0     H77134   8.541   4.611   1.518  0.5202  2.6562  0.3803
  559MOL0     H77135   8.629   4.456   1.503 -0.4229  0.1938 -0.1580
  559MOL0     H77136   8.578   4.636   1.747 -0.4946  1.1121 -2.2617
  559MOL0     H77137   8.726   4.538   1.755  0.0951  0.9105  0.9677
  559MOL0     H77138   8.404   4.260   1.756 -0.2061  0.7031  1.2062
  559MOL0     H77139   9.000   4.219   1.380 -3.0561  2.5701  1.2761
  559MOL0     H77140   9.231   4.112   1.356  3.1909 -3.3085 -1.1437
  559MOL0     H77141   9.144   4.029   1.223 -0.0510 -0.8365  1.8233
  559MOL0     H77142   9.311   4.109   1.215  0.8358  1.4660  1.8260
  560MOL0     O77143  10.707   5.382   8.663 -0.3642 -0.2891 -0.0531
  560MOL0     C77144  10.693   5.263   8.694 -0.2934 -0.7463 -0.0553
  560MOL0     O77145  10.793   5.187   8.732 -0.5189  0.0792  0.1455
  560MOL0     C77146  10.925   5.221   8.751  0.0540 -0.1328 -0.2160
  560MOL0     C77147  11.022   5.159   8.674 -0.4951  0.0450 -0.4699
  560MOL0     C77148  11.158   5.194   8.683 -0.3060  0.0353 -0.9636
  560MOL0     C77149  11.198   5.301   8.776  0.0439 -0.0201  0.1177
  560MOL0     O77150  11.322   5.345   8.797 -0.2627 -0.1713  0.1587
  560MOL0     C77151  11.430   5.291   8.708 -0.0873 -0.6983  0.5003
  560MOL0     C77152  11.567   5.335   8.766  0.4497 -0.4468  0.0874
  560MOL0     C77153  11.589   5.259   8.900 -0.5724 -0.5692  0.7429
  560MOL0     C77154  11.730   5.295   8.939  0.1252 -0.3338 -0.3116
  560MOL0     C77155  11.780   5.198   9.047 -0.1630  1.3176  0.4252
  560MOL0     C77156  11.913   5.247   9.114 -0.0709 -0.4366  0.9514
  560MOL0     C77157  11.964   5.158   9.234  0.6706 -0.0388  0.0855
  560MOL0     C77158  12.061   5.240   9.307  1.0518 -0.1071  0.0708
  560MOL0     N77159  12.085   5.176   9.440 -0.0042 -0.0541  0.3767
  560MOL0     C77160  12.034   5.216   9.566  0.3816 -0.4886  0.0623
  560MOL0     C77161  12.091   5.123   9.648 -0.7421 -0.3085 -0.4492
  560MOL0     C77162  12.070   5.116   9.797  0.1082 -1.0665 -0.5482
  560MOL0     C77163  11.945   5.037   9.815  0.2376 -0.1209 -0.6536
  560MOL0     C77164  11.921   4.975   9.947 -0.2836  0.4289  1.1467
  560MOL0     C77165  11.810   4.873   9.923 -0.0338  0.1750  0.5823
  560MOL0     O77166  11.790   4.801  10.045 -0.1850  0.1273 -0.3139
  560MOL0     C77167  11.680   4.727  10.057  0.0358 -0.2187 -0.0790
  560MOL0     C77168  11.658   4.673  10.179  0.1581 -0.3475 -0.8654
  560MOL0     C77169  11.551   4.586  10.210  0.5827 -0.1821 -0.3006
  560MOL0     C77170  11.529   4.536  10.351 -0.1889 -0.2273 -0.0711
  560MOL0     C77171  11.457   4.560  10.103 -0.8472 -0.2759 -0.9230
  560MOL0     C77172  11.333   4.482  10.130 -0.5670 -0.0521  0.5866
  560MOL0     O77173  11.276   4.414  10.025 -0.0071 -0.6385  0.2732
  560MOL0     C77174  11.161   4.345  10.047  0.0457 -1.3691 -0.5098
  560MOL0     C77175  11.156   4.218   9.994 -0.8302  0.5752 -0.4180
  560MOL0     C77176  11.044   4.127   9.997 -0.3660  0.1099 -0.4454
  560MOL0     C77177  10.928   4.171  10.071  0.0040 -0.7114 -0.2073
  560MOL0     O77178  10.827   4.095  10.104  1.1190  0.0583 -0.2390
  560MOL0     C77179  10.817   3.953  10.075  0.7947 -0.4413 -0.7409
  560MOL0     C77180  10.675   3.921  10.134 -0.4435  0.4310  0.1559
  560MOL0     C77181  10.651   3.780  10.154  0.1603 -0.5493  0.4460
  560MOL0     C77182  10.504   3.746  10.180 -0.2321  0.1026  0.7301
  560MOL0     C77183  10.484   3.605  10.247 -1.1308  0.0241 -1.3087
  560MOL0     C77184  10.339   3.569  10.264 -0.2524 -0.6365 -0.1922
  560MOL0     C77185  10.305   3.436  10.321 -1.0147  0.0832  0.4714
  560MOL0     C77186  10.155   3.407  10.313 -0.1705 -0.1570  0.6964
  560MOL0    Cl77187  10.072   3.494  10.445  0.4987 -0.5142  0.0878
  560MOL0     C77188  10.924   4.303  10.116  0.4778  0.4168  0.2595
  560MOL0     C77189  11.038   4.386  10.102 -0.0226  0.2914  0.2803
  560MOL0     O77190  11.281   4.493  10.241 -0.5349 -0.0538  0.2095
  560MOL0     C77191  11.478   4.619   9.980  0.3847 -0.1985 -0.0784
  560MOL0     C77192  11.588   4.697   9.954  0.6575  0.3031  0.5350
  560MOL0     N77193  12.168   5.031   9.571  0.3464 -0.2584  0.1956
  560MOL0     N77194  12.156   5.059   9.444 -0.7114 -0.2273 -0.4999
  560MOL0     C77195  11.098   5.366   8.841  0.2039  0.4789  0.0055
  560MOL0     C77196  10.963   5.329   8.831 -0.1459 -1.3193  0.3640
  560MOL0     C77197  10.560   5.205   8.697  0.9177 -0.5913  0.9068
  560MOL0     C77198  10.528   5.100   8.777 -0.1687  0.2392 -0.4094
  560MOL0     C77199  10.405   5.042   8.794  0.2354 -1.0301  0.1326
  560MOL0     C77200  10.300   5.092   8.723  0.4084  0.6586  0.3016
  560MOL0     O77201  10.177   5.030   8.738 -0.2518 -0.8228 -0.1784
  560MOL0     C77202  10.087   5.021   8.638 -0.2737 -0.2016  0.8266
  560MOL0     C77203   9.967   4.936   8.679  0.3680  0.8321  0.0599
  560MOL0     C77204  10.003   4.791   8.698 -0.0413  0.4082 -0.0982
  560MOL0     C77205   9.883   4.695   8.737 -1.0247 -0.6111 -0.7210
  560MOL0     C77206   9.782   4.669   8.628 -1.1264  0.1498 -0.7078
  560MOL0     C77207   9.707   4.638   8.536  0.2179  0.2397 -1.0483
  560MOL0     C77208  10.315   5.202   8.637 -0.4435  0.0293  0.0720
  560MOL0     C77209  10.444   5.266   8.630 -0.1762 -0.0096  0.5645
  560MOL0     C77210  10.462   5.373   8.524 -0.1766 -0.2662  0.4448
  560MOL0     H77211  10.997   5.069   8.619 -0.9740 -0.6409  0.8298
  560MOL0     H77212  11.239   5.148   8.626  1.1894  1.6412 -0.2060
  560MOL0     H77213  11.419   5.339   8.610  1.3161  0.2960  0.7880
  560MOL0     H77214  11.425   5.183   8.698 -0.2391 -0.7397  1.0111
  560MOL0     H77215  11.634   5.294   8.690  1.9344  2.8528 -0.5584
  560MOL0     H77216  11.573   5.443   8.783 -3.3379 -0.0099 -0.5517
  560MOL0     H77217  11.514   5.271   8.978 -2.3107 -0.6259 -0.8599
  560MOL0     H77218  11.587   5.152   8.881 -4.7253 -0.7826  1.4360
  560MOL0     H77219  11.791   5.280   8.850  1.8994 -2.4650  1.1515
  560MOL0     H77220  11.731   5.399   8.974 -0.4525 -0.5143  0.2749
  560MOL0     H77221  11.777   5.094   9.013  0.8578  1.5571 -0.4497
  560MOL0     H77222  11.711   5.202   9.132 -1.0491  1.7320 -0.2976
  560MOL0     H77223  11.998   5.243   9.045  0.7685 -0.8535  1.9961
  560MOL0     H77224  11.885   5.346   9.150 -3.4925 -1.9120  2.8077
  560MOL0     H77225  12.016   5.068   9.200  2.1111  1.1963 -1.1004
  560MOL0     H77226  11.876   5.137   9.295  1.4415  0.1301  1.2713
  560MOL0     H77227  12.158   5.231   9.256 -0.6214 -1.3546 -3.1964
  560MOL0     H77228  12.031   5.346   9.308  1.9754  0.2723 -2.6788
  560MOL0     H77229  11.974   5.305   9.580  2.3978  1.2423 -1.5595
  560MOL0     H77230  12.061   5.216   9.840 -0.5810 -2.1371  1.9687
  560MOL0     H77231  12.156   5.071   9.847 -1.8871 -4.0822  0.4520
  560MOL0     H77232  11.858   5.094   9.782  0.2563 -0.2767 -0.9780
  560MOL0     H77233  11.951   4.953   9.745  1.4411 -0.0045 -0.7232
  560MOL0     H77234  12.013   4.927   9.982 -0.0189  0.8850  1.0875
  560MOL0     H77235  11.898   5.053  10.019  0.3778  0.6488  1.1309
  560MOL0     H77236  11.716   4.923   9.900 -1.3979 -2.1894  0.7754
  560MOL0     H77237  11.837   4.804   9.843  0.4783  0.3578  0.5916
  560MOL0     H77238  11.724   4.708  10.258 -1.7726 -0.9631  1.1069
  560MOL0     H77239  11.502   4.431  10.332  1.1181 -0.7604  0.8298
  560MOL0     H77240  11.441   4.584  10.394 -0.4745 -0.4223 -0.4303
  560MOL0     H77241  11.620   4.541  10.412 -0.1634 -1.3370  0.0086
  560MOL0     H77242  11.246   4.184   9.944 -1.4584 -0.3428 -0.9643
  560MOL0     H77243  11.045   4.029   9.950  1.3773  0.0205 -0.2786
  560MOL0     H77244  10.830   3.933   9.968  2.3247  0.6216 -0.7820
  560MOL0     H77245  10.907   3.905  10.114  0.7015  0.9554  1.3945
  560MOL0     H77246  10.676   3.969  10.232 -0.4612  0.0578  0.3413
  560MOL0     H77247  10.594   3.966  10.076 -2.7164 -0.6069  2.3471
  560MOL0     H77248  10.703   3.727  10.235 -0.6244 -1.1304  0.5842
  560MOL0     H77249  10.672   3.727  10.061  0.0737  1.4210 -0.7449
  560MOL0     H77250  10.452   3.746  10.084 -0.9492 -2.2616  1.0538
  560MOL0     H77251  10.459   3.819  10.248 -0.2821 -0.5123  1.3654
  560MOL0     H77252  10.532   3.532  10.183  0.6437  1.5290 -1.7767
  560MOL0     H77253  10.541   3.596  10.340 -1.3609 -1.3538 -1.2895
  560MOL0     H77254  10.299   3.574  10.162  1.4289  1.0270 -0.8299
  560MOL0     H77255  10.298   3.645  10.331  2.9071 -1.7005  3.2514
  560MOL0     H77256  10.336   3.414  10.424  0.2891  0.3314  0.1401
  560MOL0     H77257  10.359   3.363  10.259  3.7012  3.8563 -0.4107
  560MOL0     H77258  10.134   3.300  10.321 -5.1508  0.6501  1.5885
  560MOL0     H77259  10.109   3.444  10.220  0.5351 -2.2544 -0.5566
  560MOL0     H77260  10.829   4.337  10.155 -1.0829 -1.6237 -1.5388
  560MOL0     H77261  11.027   4.490  10.131 -0.0933  0.5842 -0.7376
  560MOL0     H77262  11.411   4.592   9.899 -0.2570 -0.2295  0.4569
  560MOL0     H77263  11.592   4.722   9.848  0.3503 -2.0721 -0.1159
  560MOL0     H77264  11.134   5.444   8.907 -1.8696  2.1975 -0.7941
  560MOL0     H77265  10.891   5.385   8.890  1.6931 -2.2575  3.8277
  560MOL0     H77266  10.615   5.071   8.835 -0.3892  3.6610  1.9427
  560MOL0     H77267  10.380   4.970   8.872  1.8187 -3.4641 -1.4934
  560MOL0     H77268  10.049   5.109   8.586 -0.2057 -1.0100 -0.6352
  560MOL0     H77269  10.129   4.956   8.560 -0.9150  2.1043 -1.5691
  560MOL0     H77270   9.900   4.934   8.593 -2.5900  3.6260  2.0668
  560MOL0     H77271   9.920   4.984   8.765  0.7984  0.9461  0.2359
  560MOL0     H77272  10.057   4.750   8.613 -0.3869 -0.9419  0.3037
  560MOL0     H77273  10.068   4.783   8.786 -3.0152 -0.7680  2.1975
  560MOL0     H77274   9.836   4.743   8.823 -0.8216  0.3535 -1.1290
  560MOL0     H77275   9.939   4.607   8.769  0.5380  1.1395  1.7084
  560MOL0     H77276   9.639   4.603   8.462  0.2531  0.2952 -1.1067
  560MOL0     H77277  10.229   5.249   8.590 -0.7791  1.2541  1.7784
  560MOL0     H77278  10.515   5.458   8.568  1.9011 -0.8580 -0.7810
  560MOL0     H77279  10.512   5.336   8.434 -1.1168  2.7776 -1.4914
  560MOL0     H77280  10.364   5.412   8.493 -1.1121 -2.2402  0.7717
  561MOL0     O77281  10.114   3.439   3.126  0.1575 -0.4788 -0.4755
  561MOL0     C77282  10.070   3.437   3.239 -0.4741 -0.0531  0.3419
  561MOL0     O77283  10.123   3.371   3.338 -0.3261  0.1033  0.3649
  561MOL0     C77284  10.261   3.378   3.349  0.0075  0.0795  0.6326
  561MOL0     C77285  10.319   3.260   3.397  0.2884 -0.0784 -1.3721
  561MOL0     C77286  10.457   3.261   3.418 -0.3092 -0.2112 -0.1420
  561MOL0     C77287  10.541   3.367   3.395  0.1924 -0.1085  0.6847
  561MOL0     O77288  10.674   3.347   3.409  1.3570  0.1690 -0.3968
  561MOL0     C77289  10.773   3.428   3.352  0.0655 -0.9898  0.1906
  561MOL0     C77290  10.911   3.381   3.385 -0.3146 -0.2772  0.5507
  561MOL0     C77291  11.009   3.491   3.339 -0.3291  0.1345 -0.1955
  561MOL0     C77292  11.156   3.443   3.371  0.8818  0.0108 -0.4280
  561MOL0     C77293  11.253   3.546   3.314 -0.2262  0.0933 -0.0801
  561MOL0     C77294  11.395   3.491   3.341 -0.0852 -0.0027 -0.5937
  561MOL0     C77295  11.505   3.581   3.296  0.0593 -0.1359  0.2018
  561MOL0     C77296  11.637   3.555   3.367 -0.1806  0.3725 -0.6728
  561MOL0     N77297  11.752   3.607   3.286 -0.1066 -0.5876 -0.3729
  561MOL0     C77298  11.748   3.742   3.249  0.3157  0.1945 -0.0864
  561MOL0     C77299  11.825   3.748   3.136  0.3748 -0.1162 -1.1179
  561MOL0     C77300  11.869   3.874   3.060  0.4984 -0.6652 -0.1499
  561MOL0     C77301  11.860   3.851   2.912  0.3489  0.5999 -0.7310
  561MOL0     C77302  11.980   3.785   2.850 -0.0077  0.0342  0.3115
  561MOL0     C77303  11.953   3.762   2.707 -0.9105  1.3720  0.2815
  561MOL0     O77304  12.061   3.678   2.659  0.2970  0.3782 -0.1077
  561MOL0     C77305  12.070   3.645   2.524  0.3397  0.1820  0.7099
  561MOL0     C77306  12.165   3.552   2.478 -0.5122  0.2953  0.3176
  561MOL0     C77307  12.182   3.501   2.353 -0.3450  0.2038 -0.1462
  561MOL0     C77308  12.304   3.414   2.334 -0.4980  0.7881 -1.0706
  561MOL0     C77309  12.088   3.524   2.255  0.9489 -0.7082 -0.4391
  561MOL0     C77310  12.076   3.452   2.127 -0.4283  0.3146  1.0571
  561MOL0     O77311  11.971   3.486   2.055 -0.2840  0.0135  0.3558
  561MOL0     C77312  11.955   3.420   1.936  0.3823 -0.0017 -0.8483
  561MOL0     C77313  12.032   3.446   1.814  0.1163 -0.6309 -0.9316
  561MOL0     C77314  11.994   3.397   1.689 -0.5166  0.6347 -0.3259
  561MOL0     C77315  11.893   3.312   1.675  1.0445  1.5401 -0.1128
  561MOL0     O77316  11.858   3.241   1.561 -0.1340  0.4102 -0.2143
  561MOL0     C77317  11.886   3.304   1.443 -0.5237  0.8952  0.4102
  561MOL0     C77318  11.868   3.205   1.330 -0.6590 -0.7033 -0.5579
  561MOL0     C77319  11.719   3.181   1.318  0.5809 -1.0101 -0.3586
  561MOL0     C77320  11.673   3.048   1.370  1.0185  0.3552  0.4239
  561MOL0     C77321  11.522   3.033   1.353 -0.7095  1.1160  0.0826
  561MOL0     C77322  11.441   2.953   1.457  0.5884 -0.0222  0.4433
  561MOL0     C77323  11.464   2.801   1.434  0.3770 -0.4037 -0.4217
  561MOL0     C77324  11.421   2.737   1.559  0.2570 -1.0002 -0.7069
  561MOL0    Cl77325  11.488   2.578   1.573 -0.0773  0.2148 -0.2786
  561MOL0     C77326  11.822   3.279   1.798  0.1918 -0.1580 -0.4366
  561MOL0     C77327  11.855   3.325   1.928  0.2064  0.8411  0.4925
  561MOL0     O77328  12.153   3.361   2.102 -1.4257 -0.3750  0.0577
  561MOL0     C77329  11.993   3.630   2.290  0.6196  0.0125  0.7003
  561MOL0     C77330  11.990   3.694   2.417 -0.5106 -0.1969 -0.1387
  561MOL0     N77331  11.864   3.625   3.102  0.1963  0.6239 -0.1319
  561MOL0     N77332  11.814   3.543   3.188 -0.0225  0.0255 -0.0200
  561MOL0     C77333  10.484   3.485   3.351 -0.7008  0.2888  0.3889
  561MOL0     C77334  10.346   3.487   3.323 -0.8087 -0.7445  0.6673
  561MOL0     C77335   9.949   3.518   3.257  0.0061  0.6294 -0.0876
  561MOL0     C77336   9.840   3.503   3.173  1.2080 -0.1877 -0.1788
  561MOL0     C77337   9.709   3.545   3.208  0.3492  0.2570  0.7637
  561MOL0     C77338   9.685   3.609   3.325 -0.4831  0.5749 -0.2880
  561MOL0     O77339   9.567   3.649   3.376 -0.9826  0.0417 -0.1026
  561MOL0     C77340   9.452   3.633   3.288  0.1287  0.2298 -0.0007
  561MOL0     C77341   9.341   3.728   3.336  0.2601 -0.0257  0.5870
  561MOL0     C77342   9.218   3.730   3.243 -0.0108  0.5323 -0.5873
  561MOL0     C77343   9.122   3.835   3.289  0.5049 -0.6949  0.0450
  561MOL0     C77344   9.006   3.838   3.201 -0.9811  0.0699 -0.3309
  561MOL0     C77345   8.921   3.854   3.115 -0.4470 -0.7152  0.3473
  561MOL0     C77346   9.791   3.646   3.403 -0.4159  0.2423  0.4160
  561MOL0     C77347   9.921   3.599   3.375  0.2650 -0.0694 -0.6960
  561MOL0     C77348  10.026   3.636   3.476 -0.3674  0.3206 -0.4228
  561MOL0     H77349  10.259   3.172   3.415 -2.4693  1.8603 -0.3605
  561MOL0     H77350  10.495   3.166   3.456  1.7806  0.4213 -0.4935
  561MOL0     H77351  10.755   3.524   3.402 -0.2019 -2.1052  2.3980
  561MOL0     H77352  10.757   3.439   3.245 -1.1802  0.3425  0.4747
  561MOL0     H77353  10.919   3.376   3.494 -2.0640  0.9037  0.7769
  561MOL0     H77354  10.912   3.282   3.339  1.4699 -1.0801  2.1746
  561MOL0     H77355  10.987   3.507   3.233  2.5668 -1.8997 -1.2512
  561MOL0     H77356  11.003   3.581   3.400 -0.0115  0.5930 -0.8244
  561MOL0     H77357  11.165   3.436   3.480  0.7989  1.5559 -0.3102
  561MOL0     H77358  11.193   3.347   3.333  1.2709 -0.0194  0.0268
  561MOL0     H77359  11.244   3.644   3.360 -1.7775  1.2355 -2.6140
  561MOL0     H77360  11.243   3.547   3.205  2.8934 -1.3903 -0.4954
  561MOL0     H77361  11.406   3.483   3.450  1.8206 -0.1004 -0.7607
  561MOL0     H77362  11.414   3.391   3.302  2.7062 -0.6124  1.9888
  561MOL0     H77363  11.471   3.683   3.318  0.7170  0.4565 -1.3685
  561MOL0     H77364  11.525   3.576   3.188  0.4674  0.8580  0.2279
  561MOL0     H77365  11.635   3.591   3.470  2.2243  0.5568 -0.6408
  561MOL0     H77366  11.658   3.448   3.379  3.2105  0.8932 -1.0428
  561MOL0     H77367  11.708   3.830   3.300  1.4815  0.6900  0.0154
  561MOL0     H77368  11.966   3.895   3.105  0.7247 -2.5770  0.3728
  561MOL0     H77369  11.794   3.949   3.087 -1.3207 -2.4798  0.0817
  561MOL0     H77370  11.771   3.788   2.906  0.2979  0.4404  1.1340
  561MOL0     H77371  11.837   3.948   2.866  1.7010  0.6023 -1.4752
  561MOL0     H77372  12.065   3.853   2.861  1.8360 -1.7513 -1.8878
  561MOL0     H77373  12.010   3.691   2.898 -0.2977 -1.0132 -1.4686
  561MOL0     H77374  11.866   3.696   2.704  0.6762 -0.7875 -1.4849
  561MOL0     H77375  11.929   3.855   2.654 -1.5836  1.7251  1.1701
  561MOL0     H77376  12.238   3.520   2.551 -0.3119 -2.7321 -1.0684
  561MOL0     H77377  12.364   3.453   2.251 -2.0624  2.9676 -1.2628
  561MOL0     H77378  12.273   3.313   2.307 -1.3291  0.6138  0.4222
  561MOL0     H77379  12.375   3.411   2.418 -0.8990  3.8513 -0.5112
  561MOL0     H77380  12.116   3.514   1.811  0.1707 -0.6848 -0.7036
  561MOL0     H77381  12.048   3.438   1.605  0.1900  1.1972  0.3832
  561MOL0     H77382  11.815   3.386   1.432 -1.7108 -0.1237  0.3604
  561MOL0     H77383  11.987   3.346   1.429 -0.6767  1.6750  1.4685
  561MOL0     H77384  11.903   3.250   1.236 -0.0465  0.0602  0.0291
  561MOL0     H77385  11.926   3.115   1.353  0.0156 -0.0098  0.5279
  561MOL0     H77386  11.696   3.176   1.212 -2.4230 -0.6272  0.1979
  561MOL0     H77387  11.663   3.259   1.369  0.5909 -2.0954  1.4159
  561MOL0     H77388  11.707   3.046   1.474  0.3870  1.9152  0.6936
  561MOL0     H77389  11.734   2.972   1.322  2.1986  0.8321  1.1328
  561MOL0     H77390  11.478   3.132   1.372  1.7641  2.6582 -1.6054
  561MOL0     H77391  11.507   3.004   1.248  1.3581  1.2988 -0.3089
  561MOL0     H77392  11.338   2.985   1.438  0.7401 -0.1497 -0.6629
  561MOL0     H77393  11.480   2.981   1.555  0.5281 -1.3269  0.8571
  561MOL0     H77394  11.568   2.774   1.410  1.7475 -0.9642  4.8833
  561MOL0     H77395  11.398   2.752   1.361  0.8520 -2.7906  0.6458
  561MOL0     H77396  11.313   2.744   1.574  0.7373  3.1264  2.3112
  561MOL0     H77397  11.477   2.796   1.632 -0.6870  2.7164 -2.7540
  561MOL0     H77398  11.743   3.205   1.803 -2.4316  2.5058 -0.0708
  561MOL0     H77399  11.795   3.301   2.015  1.8616 -0.7573  1.2639
  561MOL0     H77400  11.921   3.665   2.216  2.5866  2.9311  0.0207
  561MOL0     H77401  11.917   3.772   2.434 -0.7897 -0.8369  1.8825
  561MOL0     H77402  10.546   3.574   3.343  0.5561 -0.6285 -0.5993
  561MOL0     H77403  10.304   3.574   3.272 -0.1972  0.0408  1.4661
  561MOL0     H77404   9.860   3.460   3.076  3.5538 -0.7420  0.4833
  561MOL0     H77405   9.622   3.510   3.154  0.8472  2.4289 -1.6488
  561MOL0     H77406   9.468   3.666   3.185 -0.7407  1.3162  0.2031
  561MOL0     H77407   9.416   3.530   3.297  2.6939 -0.7712 -0.2389
  561MOL0     H77408   9.379   3.830   3.340  0.7525  0.0722 -3.1572
  561MOL0     H77409   9.315   3.693   3.437  0.2404 -5.4815 -0.9891
  561MOL0     H77410   9.251   3.740   3.139  1.7031  0.9695 -0.0267
  561MOL0     H77411   9.158   3.638   3.247  1.2664 -0.2833  1.1021
  561MOL0     H77412   9.161   3.937   3.296 -0.4563 -0.3977  1.3423
  561MOL0     H77413   9.088   3.806   3.389 -4.1621 -3.1698 -1.9230
  561MOL0     H77414   8.863   3.890   3.031  1.2719  2.2385  0.2997
  561MOL0     H77415   9.767   3.704   3.492  1.4957  2.2776 -0.3185
  561MOL0     H77416   9.999   3.725   3.533  0.5158  1.0410 -1.1042
  561MOL0     H77417  10.059   3.547   3.532  0.8983 -1.5259 -3.7997
  561MOL0     H77418  10.110   3.658   3.410  0.9532  0.4213  1.2198
  562MOL0     O77419   8.265   8.998   6.552 -0.0404  0.4286 -0.0466
  562MOL0     C77420   8.192   9.043   6.642 -1.6034 -0.3152 -0.0258
  562MOL0     O77421   8.238   9.111   6.753  0.4557 -0.2218 -0.5888
  562MOL0     C77422   8.364   9.125   6.785 -0.7738  0.8724 -0.3847
  562MOL0     C77423   8.389   9.228   6.862 -0.8858 -0.5426  0.4796
  562MOL0     C77424   8.518   9.254   6.906 -1.0536  0.2185 -0.5800
  562MOL0     C77425   8.624   9.163   6.886 -0.5222 -0.2298 -0.1277
  562MOL0     O77426   8.745   9.194   6.941 -0.4553  0.0019  0.8560
  562MOL0     C77427   8.850   9.088   6.941  0.1964 -0.1108 -0.3011
  562MOL0     C77428   8.954   9.127   7.053  1.3086 -0.0992 -0.2496
  562MOL0     C77429   9.068   9.206   6.991 -0.3780 -0.0980 -0.8911
  562MOL0     C77430   9.173   9.244   7.093  0.2793  0.6372 -0.5753
  562MOL0     C77431   9.281   9.332   7.043  0.5456 -0.5582 -0.3603
  562MOL0     C77432   9.401   9.256   6.993  0.1524 -0.0082 -0.3673
  562MOL0     C77433   9.521   9.351   6.962  0.5625 -1.0507  0.3905
  562MOL0     C77434   9.628   9.256   6.900  0.6020  0.7545 -0.5896
  562MOL0     N77435   9.738   9.324   6.834  0.3761 -0.4697  0.1025
  562MOL0     C77436   9.765   9.462   6.807 -0.5350 -0.3225 -0.2115
  562MOL0     C77437   9.881   9.469   6.734  0.4140 -0.0195  0.2587
  562MOL0     C77438   9.942   9.600   6.681 -0.4878  0.2106  0.3255
  562MOL0     C77439  10.070   9.567   6.597  0.5627 -0.4196  0.6835
  562MOL0     C77440  10.155   9.684   6.540  0.4576  0.1107 -0.4036
  562MOL0     C77441  10.203   9.766   6.662 -0.2863  0.2746  0.2617
  562MOL0     O77442  10.310   9.701   6.733  0.2296 -0.2384  0.3583
  562MOL0     C77443  10.434   9.729   6.694 -0.9677 -0.4689  0.2187
  562MOL0     C77444  10.546   9.729   6.781 -0.2383 -0.6254 -0.1861
  562MOL0     C77445  10.684   9.741   6.750 -0.3890  0.2459 -0.6291
  562MOL0     C77446  10.787   9.731   6.864 -0.3416 -0.1431  0.7024
  562MOL0     C77447  10.713   9.773   6.611  0.1079 -0.2085  0.2673
  562MOL0     C77448  10.850   9.794   6.554 -0.7551  0.0943 -1.0938
  562MOL0     O77449  10.861   9.826   6.419 -0.2718  0.3678  0.3742
  562MOL0     C77450  10.993   9.808   6.382  0.4974 -0.8643  0.6326
  562MOL0     C77451  11.065   9.683   6.388 -0.4277  1.3205  0.3107
  562MOL0     C77452  11.182   9.676   6.313 -0.0236 -0.1912  0.3265
  562MOL0     C77453  11.243   9.787   6.257 -0.0160  0.6672  0.9833
  562MOL0     O77454  11.365   9.787   6.198 -0.3538  0.1395 -0.1527
  562MOL0     C77455  11.405   9.672   6.122  0.3276  0.2345 -0.7446
  562MOL0     C77456  11.528   9.719   6.048 -0.1264 -0.0418 -0.4928
  562MOL0     C77457  11.502   9.831   5.940 -0.7541  0.8400  0.0682
  562MOL0     C77458  11.609   9.808   5.830 -0.6555  0.4657 -0.0451
  562MOL0     C77459  11.592   9.929   5.732  0.8534 -0.5073  0.3576
  562MOL0     C77460  11.726   9.969   5.663  0.8584  0.4838  0.0853
  562MOL0     C77461  11.782   9.844   5.598 -0.2196 -0.6742  0.6061
  562MOL0     C77462  11.919   9.872   5.533 -0.2882  0.0173  0.0891
  562MOL0    Cl77463  11.962   9.716   5.467  0.3555 -0.4657  0.4640
  562MOL0     C77464  11.186   9.915   6.268 -0.0780 -0.2757 -0.9249
  562MOL0     C77465  11.060   9.922   6.337  0.0367  0.1216  0.0502
  562MOL0     O77466  10.952   9.791   6.631 -0.0563  0.2636 -0.2247
  562MOL0     C77467  10.604   9.786   6.521  0.2417  0.0036  0.5013
  562MOL0     C77468  10.473   9.763   6.563 -0.4543  0.0111  0.0903
  562MOL0     N77469   9.933   9.340   6.721 -0.2559 -0.3981  0.4740
  562MOL0     N77470   9.847   9.262   6.776 -0.1478  0.1914 -0.1515
  562MOL0     C77471   8.604   9.061   6.801 -0.1216  0.1844  0.0265
  562MOL0     C77472   8.475   9.043   6.750 -0.2036  0.7604  0.6738
  562MOL0     C77473   8.045   9.018   6.620  0.0513  0.5094 -1.1504
  562MOL0     C77474   7.999   8.909   6.541 -0.3617  0.0738 -0.7542
  562MOL0     C77475   7.866   8.884   6.522 -0.2966  0.7916  1.0454
  562MOL0     C77476   7.767   8.967   6.550  0.6294 -0.6054 -0.0668
  562MOL0     O77477   7.640   8.953   6.496 -0.2973  0.2512 -0.3220
  562MOL0     C77478   7.527   9.042   6.530 -0.0991  0.4548 -0.8661
  562MOL0     C77479   7.539   9.165   6.441 -0.0932 -0.0149 -0.0602
  562MOL0     C77480   7.446   9.283   6.483  0.1877  0.5216 -0.8371
  562MOL0     C77481   7.438   9.392   6.379 -1.7099 -0.4454  0.0718
  562MOL0     C77482   7.326   9.476   6.414 -0.1583 -0.6398  0.7279
  562MOL0     C77483   7.244   9.565   6.426 -0.6114 -0.7729 -0.5043
  562MOL0     C77484   7.804   9.069   6.640  0.0463 -0.4353  0.4930
  562MOL0     C77485   7.940   9.103   6.667 -0.3858 -0.7862 -0.5059
  562MOL0     C77486   7.972   9.231   6.746  0.3206 -0.1355 -0.4139
  562MOL0     H77487   8.310   9.294   6.894 -2.3904 -1.1080 -1.8108
  562MOL0     H77488   8.534   9.338   6.972 -1.3787 -0.1101 -0.0771
  562MOL0     H77489   8.901   9.084   6.844 -0.4354  1.7822 -0.7496
  562MOL0     H77490   8.805   8.996   6.981 -2.0871  1.6767  1.5390
  562MOL0     H77491   8.911   9.187   7.134  0.1359  0.8884 -1.5678
  562MOL0     H77492   8.985   9.031   7.096 -2.8611 -2.2887 -1.5032
  562MOL0     H77493   9.118   9.146   6.915  0.1404  0.2896 -0.8590
  562MOL0     H77494   9.026   9.289   6.933 -1.1138  2.0216  2.3778
  562MOL0     H77495   9.137   9.302   7.179  2.4304  2.3919 -0.7682
  562MOL0     H77496   9.222   9.154   7.132 -0.3243  0.9042  0.8865
  562MOL0     H77497   9.296   9.395   7.131 -1.2681 -1.1622  0.4339
  562MOL0     H77498   9.246   9.393   6.959 -0.8349  0.9237  1.2046
  562MOL0     H77499   9.440   9.185   7.066  1.0672 -0.0494 -0.8763
  562MOL0     H77500   9.355   9.207   6.907  1.4045 -2.2569  0.1737
  562MOL0     H77501   9.574   9.390   7.049  2.1043  0.0615 -0.9861
  562MOL0     H77502   9.495   9.433   6.894  1.5296 -2.3933 -1.6886
  562MOL0     H77503   9.677   9.205   6.984 -0.0956  0.7741 -0.1656
  562MOL0     H77504   9.586   9.183   6.831  0.0327  0.2023  0.3094
  562MOL0     H77505   9.724   9.560   6.829  0.0434  0.4413 -2.2402
  562MOL0     H77506   9.957   9.666   6.766  1.1103 -2.3015  2.1052
  562MOL0     H77507   9.867   9.638   6.611 -0.5230 -0.4756 -0.0237
  562MOL0     H77508  10.136   9.514   6.666  1.4795  0.7400  0.7282
  562MOL0     H77509  10.040   9.501   6.515 -2.6061  0.1751  1.1987
  562MOL0     H77510  10.233   9.645   6.473 -1.9998  0.2770 -3.6242
  562MOL0     H77511  10.094   9.746   6.473 -1.2164 -1.7442 -0.6712
  562MOL0     H77512  10.228   9.865   6.622  1.3278 -0.8579 -1.7335
  562MOL0     H77513  10.120   9.784   6.730 -1.1987 -1.3838 -0.3744
  562MOL0     H77514  10.523   9.712   6.886  0.1870 -1.8493 -0.2758
  562MOL0     H77515  10.856   9.816   6.862  1.1245 -1.2509  2.0803
  562MOL0     H77516  10.839   9.635   6.859  0.5066  0.3205  0.3179
  562MOL0     H77517  10.743   9.741   6.963  2.6698 -1.7093  2.3658
  562MOL0     H77518  11.015   9.596   6.429 -0.5001  0.3411 -1.7830
  562MOL0     H77519  11.227   9.578   6.294  2.6146  0.8205  0.9150
  562MOL0     H77520  11.434   9.595   6.194 -0.6488  1.3017  0.8760
  562MOL0     H77521  11.326   9.628   6.060  1.9039 -1.8356 -1.3894
  562MOL0     H77522  11.601   9.759   6.119 -0.2923 -0.4680 -0.0753
  562MOL0     H77523  11.579   9.635   5.999 -0.7343 -0.9513  0.4004
  562MOL0     H77524  11.504   9.934   5.978  2.3992  1.2118 -0.8062
  562MOL0     H77525  11.401   9.817   5.900 -1.9470 -1.4708  3.4227
  562MOL0     H77526  11.603   9.710   5.782 -0.0664  0.1068  0.6032
  562MOL0     H77527  11.704   9.812   5.883 -0.2321  0.7730 -0.8007
  562MOL0     H77528  11.525   9.892   5.654 -2.8204  1.8786  2.0705
  562MOL0     H77529  11.546  10.017   5.779  0.2495 -1.0631  0.8322
  562MOL0     H77530  11.795  10.001   5.742 -0.5710  0.0524  1.5590
  562MOL0     H77531  11.696  10.044   5.589 -1.2727 -1.1764 -0.8404
  562MOL0     H77532  11.706   9.823   5.522 -1.0542  0.6783  1.0320
  562MOL0     H77533  11.780   9.756   5.663 -0.7216 -0.0186  1.4964
  562MOL0     H77534  11.993   9.900   5.609  1.4620 -2.7396 -0.4793
  562MOL0     H77535  11.908   9.939   5.448 -1.0180  0.5492  0.5897
  562MOL0     H77536  11.240   9.999   6.224  0.5716 -1.0377 -1.6364
  562MOL0     H77537  11.014  10.020   6.344  0.1352  0.1676  0.0516
  562MOL0     H77538  10.629   9.813   6.419 -1.6476 -0.7915 -0.2213
  562MOL0     H77539  10.402   9.766   6.481 -0.9606  0.7541  0.5454
  562MOL0     H77540   8.683   8.991   6.774 -0.6250 -0.3331 -0.1295
  562MOL0     H77541   8.466   8.947   6.700 -0.8215  0.5327  1.2131
  562MOL0     H77542   8.075   8.849   6.491  1.3179  2.6354 -1.4855
  562MOL0     H77543   7.840   8.791   6.472 -0.0967  0.2941  1.8321
  562MOL0     H77544   7.430   8.992   6.525 -0.5074  0.8536  1.6615
  562MOL0     H77545   7.528   9.074   6.634 -1.8361 -1.2815 -0.2385
  562MOL0     H77546   7.521   9.135   6.337 -6.1686 -0.5388  0.8075
  562MOL0     H77547   7.645   9.187   6.456  0.5211 -2.2832 -0.6748
  562MOL0     H77548   7.349   9.236   6.497 -0.2135  1.3172 -0.9312
  562MOL0     H77549   7.468   9.328   6.580 -0.7689 -0.8366  0.0419
  562MOL0     H77550   7.422   9.337   6.286  3.1801 -0.5457 -0.9811
  562MOL0     H77551   7.529   9.452   6.367 -2.7273  0.7303 -2.2436
  562MOL0     H77552   7.186   9.655   6.428 -2.1861 -1.6806  3.2168
  562MOL0     H77553   7.736   9.141   6.685 -0.1236  0.4076 -1.0387
  562MOL0     H77554   8.058   9.276   6.695 -0.0694 -0.1474 -1.0975
  562MOL0     H77555   7.889   9.302   6.751  2.0269  1.9673 -0.3471
  562MOL0     H77556   8.004   9.215   6.849  0.1062 -0.4519 -0.3932
  563MOL0     O77557   8.881   9.491   1.499  0.3539 -0.6753  0.0410
  563MOL0     C77558   8.849   9.609   1.487 -1.0831 -0.6353  0.1229
  563MOL0     O77559   8.934   9.714   1.515  0.4244 -0.2629 -0.4805
  563MOL0     C77560   9.059   9.673   1.555 -0.9844  0.3436  0.0960
  563MOL0     C77561   9.086   9.637   1.686 -0.1840  0.3245 -0.9261
  563MOL0     C77562   9.218   9.621   1.731 -0.8979 -0.1517 -0.3742
  563MOL0     C77563   9.329   9.639   1.635  0.1338 -0.0401 -0.0969
  563MOL0     O77564   9.467   9.621   1.679  0.4579  0.3259  0.6745
  563MOL0     C77565   9.557   9.733   1.639  0.2472 -0.1143  0.1017
  563MOL0     C77566   9.645   9.798   1.754  0.8886  0.3652 -0.0039
  563MOL0     C77567   9.716   9.689   1.829 -0.6706  0.0543 -0.1302
  563MOL0     C77568   9.848   9.651   1.751 -0.5859 -0.5062  0.2680
  563MOL0     C77569   9.934   9.544   1.824 -0.8179 -0.0239 -0.1056
  563MOL0     C77570  10.065   9.511   1.751  0.1991  0.2609 -0.1558
  563MOL0     C77571  10.180   9.606   1.776 -0.5923 -0.4145  0.2037
  563MOL0     C77572  10.268   9.575   1.891  0.1791  0.3547  0.5529
  563MOL0     N77573  10.371   9.676   1.926  0.5912 -0.4170  0.6622
  563MOL0     C77574  10.359   9.792   2.003  0.3442 -0.4770  0.3516
  563MOL0     C77575  10.478   9.830   2.050 -0.2915  0.3897  0.6965
  563MOL0     C77576  10.536   9.942   2.132 -0.9342 -0.0023  0.1083
  563MOL0     C77577  10.644  10.041   2.068  0.6448  0.1548 -0.0535
  563MOL0     C77578  10.633  10.186   2.122  0.5551  1.3817 -0.5436
  563MOL0     C77579  10.754  10.267   2.104 -0.1901  0.1877 -0.3098
  563MOL0     O77580  10.771  10.316   1.967  0.0151 -0.4889 -0.1075
  563MOL0     C77581  10.879  10.400   1.940  0.3312  0.7192  0.7862
  563MOL0     C77582  10.876  10.454   1.814  0.3919  0.1700  0.1349
  563MOL0     C77583  10.971  10.535   1.759 -0.0418  0.0338 -0.3699
  563MOL0     C77584  10.959  10.585   1.617  0.8417  1.0564  0.3828
  563MOL0     C77585  11.095  10.558   1.840  1.2941 -0.5249  0.9975
  563MOL0     C77586  11.211  10.636   1.791 -0.1059  0.0487 -0.5224
  563MOL0     O77587  11.265  10.725   1.885  0.2673 -0.7896  0.0128
  563MOL0     C77588  11.372  10.787   1.833 -0.4180 -0.1736 -0.9860
  563MOL0     C77589  11.504  10.739   1.845  0.5785  0.3686 -0.1137
  563MOL0     C77590  11.613  10.817   1.808 -0.3291  0.4626 -0.6437
  563MOL0     C77591  11.595  10.951   1.757  0.5172  0.9450 -0.1646
  563MOL0     O77592  11.702  11.029   1.725  0.0038 -0.3309  0.3228
  563MOL0     C77593  11.817  11.019   1.806  0.4241  0.5945 -0.7732
  563MOL0     C77594  11.899  11.149   1.821  0.8740 -1.0089 -0.5404
  563MOL0     C77595  12.039  11.125   1.879 -0.3835  0.2787  0.3187
  563MOL0     C77596  12.110  11.259   1.878  0.1978  1.0253 -0.3687
  563MOL0     C77597  12.258  11.239   1.893 -0.2639  0.0232  1.1506
  563MOL0     C77598  12.306  11.225   2.034  0.2779 -0.2130  0.7969
  563MOL0     C77599  12.314  11.077   2.086  0.1851 -0.6977  0.8340
  563MOL0     C77600  12.429  11.051   2.192  0.6732 -0.6417 -0.0612
  563MOL0    Cl77601  12.590  11.041   2.111 -0.5015  0.2176  0.0349
  563MOL0     C77602  11.464  11.000   1.733  0.0409  0.6586  0.1071
  563MOL0     C77603  11.358  10.913   1.779 -0.5570 -0.5543  0.1935
  563MOL0     O77604  11.244  10.630   1.672  0.0398 -0.6193 -1.1041
  563MOL0     C77605  11.089  10.510   1.966 -0.6193  0.4383  0.4289
  563MOL0     C77606  10.978  10.427   2.019  0.0176 -0.3561 -0.7931
  563MOL0     N77607  10.563   9.744   1.983 -0.7125  0.0561  0.4623
  563MOL0     N77608  10.505   9.651   1.916  0.4218 -0.0286 -0.5567
  563MOL0     C77609   9.299   9.664   1.506 -0.8252  0.5567  0.0957
  563MOL0     C77610   9.166   9.667   1.459 -0.1243  0.0856  0.1771
  563MOL0     C77611   8.713   9.628   1.429  0.4674 -0.2231  0.3702
  563MOL0     C77612   8.654   9.752   1.449 -0.4148 -1.0723 -0.4101
  563MOL0     C77613   8.543   9.792   1.377  0.0538 -0.0256  0.9342
  563MOL0     C77614   8.465   9.700   1.292  0.4330 -0.8459 -0.5253
  563MOL0     O77615   8.342   9.729   1.236 -0.9723 -1.1985  0.0393
  563MOL0     C77616   8.279   9.859   1.263  0.1482 -0.4617  0.8167
  563MOL0     C77617   8.184   9.910   1.146 -0.4640 -0.3463 -0.2181
  563MOL0     C77618   8.043   9.840   1.157 -0.3253  0.4106  0.3442
  563MOL0     C77619   7.954   9.901   1.058 -0.4255  0.7249  0.3523
  563MOL0     C77620   7.998   9.908   0.921  0.1658  0.4028 -0.3970
  563MOL0     C77621   8.047   9.903   0.810  0.1750 -0.4723 -0.0936
  563MOL0     C77622   8.521   9.569   1.279  0.7796  0.1996 -0.1124
  563MOL0     C77623   8.633   9.530   1.347 -0.6809 -0.8641 -0.0594
  563MOL0     C77624   8.683   9.388   1.322 -1.0549  0.4300  0.0080
  563MOL0     H77625   9.006   9.633   1.759  1.5371  0.3763  1.0326
  563MOL0     H77626   9.239   9.596   1.834 -3.1111 -1.2577 -0.1154
  563MOL0     H77627   9.500   9.813   1.590 -0.0344 -0.5337 -0.2787
  563MOL0     H77628   9.622   9.698   1.558  0.5221  1.1332 -0.2416
  563MOL0     H77629   9.718   9.863   1.705 -0.0282  2.3404  1.1381
  563MOL0     H77630   9.583   9.858   1.822  0.0564 -1.0285  0.5200
  563MOL0     H77631   9.738   9.733   1.927  1.9139  1.3663 -1.1931
  563MOL0     H77632   9.655   9.601   1.849  0.2135 -0.0313  2.4913
  563MOL0     H77633   9.813   9.618   1.653  0.7570  0.8327 -0.7176
  563MOL0     H77634   9.915   9.735   1.730 -0.4238 -0.4172  1.1313
  563MOL0     H77635   9.876   9.452   1.817 -0.6468 -0.2208  0.9892
  563MOL0     H77636   9.952   9.562   1.930 -2.5556 -0.3542  0.2679
  563MOL0     H77637  10.095   9.411   1.782 -1.8195 -0.1332  0.6634
  563MOL0     H77638  10.048   9.519   1.644 -0.2202  2.4687  0.0179
  563MOL0     H77639  10.150   9.711   1.784  1.2836  0.2411 -0.7719
  563MOL0     H77640  10.241   9.615   1.685  0.0311  4.8173  0.8315
  563MOL0     H77641  10.196   9.576   1.973  1.0384 -1.2373  1.3892
  563MOL0     H77642  10.318   9.477   1.889 -0.8454 -0.1698 -0.0412
  563MOL0     H77643  10.266   9.839   2.033  0.8765  0.0138  1.3329
  563MOL0     H77644  10.590   9.898   2.216 -0.0818  1.4900  0.3763
  563MOL0     H77645  10.463  10.019   2.158  0.5942  1.8876 -0.8837
  563MOL0     H77646  10.741  10.004   2.100  0.1158 -1.2861 -0.0261
  563MOL0     H77647  10.632  10.039   1.959 -1.9094  1.0413  0.1304
  563MOL0     H77648  10.537  10.225   2.088 -0.2369 -1.0525 -1.2444
  563MOL0     H77649  10.612  10.181   2.229 -1.4114  2.6131 -0.8207
  563MOL0     H77650  10.746  10.367   2.149  0.2427  0.3704 -0.6291
  563MOL0     H77651  10.844  10.210   2.129 -0.8313 -0.4648  0.5555
  563MOL0     H77652  10.791  10.450   1.747 -0.1440  1.9384  0.6445
  563MOL0     H77653  10.878  10.537   1.562  0.2857  4.4870 -2.1170
  563MOL0     H77654  11.047  10.567   1.553 -0.2205 -1.8508 -0.4443
  563MOL0     H77655  10.938  10.692   1.619  0.0049  0.9200 -0.4257
  563MOL0     H77656  11.537  10.641   1.880 -1.2522 -0.8170 -1.5217
  563MOL0     H77657  11.704  10.759   1.816 -2.0475 -2.4190 -0.2448
  563MOL0     H77658  11.794  10.985   1.907 -1.4363  0.0145 -1.3462
  563MOL0     H77659  11.882  10.945   1.758 -1.5671 -2.2557  0.6137
  563MOL0     H77660  11.910  11.193   1.722 -1.1300  1.6258  0.2780
  563MOL0     H77661  11.840  11.220   1.879  4.2937  2.0506 -0.4514
  563MOL0     H77662  12.092  11.050   1.820 -3.2543 -1.7353  0.1140
  563MOL0     H77663  12.026  11.098   1.984 -1.8020 -2.8884 -0.5776
  563MOL0     H77664  12.066  11.329   1.950 -1.4256  1.7493 -1.9713
  563MOL0     H77665  12.088  11.295   1.777 -3.0409 -1.8961 -0.8843
  563MOL0     H77666  12.297  11.153   1.839  0.8959  0.2940  1.5234
  563MOL0     H77667  12.314  11.325   1.854  1.2252 -1.0219  0.8766
  563MOL0     H77668  12.247  11.283   2.106  0.8471  1.9567 -0.4201
  563MOL0     H77669  12.402  11.274   2.050  0.3286 -1.1631  4.4821
  563MOL0     H77670  12.334  11.010   2.002  1.1547 -0.2433  0.6821
  563MOL0     H77671  12.216  11.050   2.124 -0.2424  0.4488  0.6065
  563MOL0     H77672  12.406  10.957   2.242  0.0230  0.7529  2.4877
  563MOL0     H77673  12.427  11.124   2.274  4.3177 -0.1414 -0.2450
  563MOL0     H77674  11.424  11.092   1.691  0.4654  1.0380  0.5254
  563MOL0     H77675  11.258  10.954   1.764  0.0681  0.6866 -0.6889
  563MOL0     H77676  11.173  10.525   2.032 -1.9028 -0.7709  2.4540
  563MOL0     H77677  10.977  10.384   2.119 -0.8562 -0.3271 -0.7831
  563MOL0     H77678   9.375   9.679   1.430  1.4749  0.0265  2.1443
  563MOL0     H77679   9.148   9.698   1.356  2.2680  1.4148  0.0785
  563MOL0     H77680   8.709   9.823   1.510  2.5981 -2.6927 -1.0619
  563MOL0     H77681   8.512   9.894   1.400 -1.7839 -0.2692 -0.3235
  563MOL0     H77682   8.213   9.865   1.349  2.0955  2.1713  2.2526
  563MOL0     H77683   8.350   9.935   1.296 -1.2021  0.3087  2.0456
  563MOL0     H77684   8.231   9.887   1.050 -1.8455 -1.7652 -0.6080
  563MOL0     H77685   8.168  10.018   1.157 -2.9886 -0.4185 -2.0386
  563MOL0     H77686   8.059   9.732   1.148  3.7697  0.4845  3.5730
  563MOL0     H77687   8.008   9.855   1.260  0.7814 -2.8267  1.3027
  563MOL0     H77688   7.925  10.002   1.090 -3.2238  0.6452 -1.5823
  563MOL0     H77689   7.861   9.843   1.055  0.3714 -0.5656 -0.3630
  563MOL0     H77690   8.085   9.912   0.711  1.1062  2.3750  0.4370
  563MOL0     H77691   8.486   9.484   1.221  0.6506 -0.2963  0.6716
  563MOL0     H77692   8.621   9.339   1.245  0.4501  0.5997 -1.3693
  563MOL0     H77693   8.789   9.394   1.294  0.5811 -1.0337  4.9551
  563MOL0     H77694   8.682   9.330   1.414  2.7871 -0.8867 -0.5939
  564MOL0     O77695   9.216   2.168   3.031 -0.2524  0.6882  0.5620
  564MOL0     C77696   9.295   2.077   3.004 -0.4878 -0.5116  0.2186
  564MOL0     O77697   9.425   2.096   2.979  0.4436  0.0765  0.6383
  564MOL0     C77698   9.498   2.201   3.033  0.8046  0.5170  0.0206
  564MOL0     C77699   9.446   2.333   3.062  0.2616 -0.2237  0.4097
  564MOL0     C77700   9.530   2.432   3.109  0.8557  0.3651 -0.8475
  564MOL0     C77701   9.665   2.413   3.137 -0.3902  0.6826 -0.3633
  564MOL0     O77702   9.738   2.520   3.185 -0.9052 -0.5121 -0.3763
  564MOL0     C77703   9.857   2.494   3.261 -0.0792 -0.0918  0.0835
  564MOL0     C77704   9.891   2.611   3.343 -0.1275 -0.1512  0.1077
  564MOL0     C77705   9.885   2.749   3.274  0.1445 -0.9036  0.5219
  564MOL0     C77706   9.978   2.758   3.158  0.2845 -0.4519 -0.0256
  564MOL0     C77707   9.968   2.913   3.121  0.2094  0.2425 -0.2706
  564MOL0     C77708  10.089   2.952   3.037  0.1587 -0.1246 -0.3834
  564MOL0     C77709  10.085   3.104   3.031 -0.2772  0.8671 -0.1148
  564MOL0     C77710  10.151   3.164   2.906 -0.4169  0.7934 -0.2067
  564MOL0     N77711  10.292   3.121   2.903  0.0178 -0.6988  0.4133
  564MOL0     C77712  10.391   3.191   2.964  0.7357  0.2440  0.5013
  564MOL0     C77713  10.499   3.124   2.927 -0.2229 -0.0506 -0.4743
  564MOL0     C77714  10.638   3.149   2.968  0.3549  0.7268  0.3356
  564MOL0     C77715  10.698   3.049   3.070 -0.1618  0.6612  0.1398
  564MOL0     C77716  10.692   3.103   3.208  0.3727 -0.0768  0.8347
  564MOL0     C77717  10.770   3.026   3.307 -0.3495  0.0604  0.2697
  564MOL0     O77718  10.913   3.049   3.274  0.3181  0.5007  0.1603
  564MOL0     C77719  11.005   2.962   3.321  0.2563 -0.1559 -0.3712
  564MOL0     C77720  11.127   2.970   3.246  0.2275 -0.1946 -0.3825
  564MOL0     C77721  11.232   2.880   3.287  0.1651 -0.1166 -0.2912
  564MOL0     C77722  11.369   2.891   3.221 -0.2183 -0.0975  0.5111
  564MOL0     C77723  11.219   2.794   3.397 -0.3697  0.0719  0.1241
  564MOL0     C77724  11.339   2.716   3.450 -0.0482 -0.2876  0.0487
  564MOL0     O77725  11.335   2.582   3.442 -0.6606 -0.3939  0.5907
  564MOL0     C77726  11.454   2.517   3.456 -0.1933 -0.8961 -1.1165
  564MOL0     C77727  11.513   2.472   3.576 -0.3285  0.5865 -0.4460
  564MOL0     C77728  11.633   2.400   3.584  1.3259 -0.6797 -0.7070
  564MOL0     C77729  11.705   2.380   3.465  0.5303 -0.1427  0.2250
  564MOL0     O77730  11.825   2.313   3.483  0.1013 -0.2278  0.0879
  564MOL0     C77731  11.907   2.325   3.365 -0.6690 -0.1120  0.7822
  564MOL0     C77732  12.047   2.292   3.402 -0.6173  0.1449 -0.6197
  564MOL0     C77733  12.071   2.167   3.487 -0.6310  0.4786 -0.3522
  564MOL0     C77734  12.100   2.050   3.396  0.6609 -0.3743  0.0090
  564MOL0     C77735  12.156   1.936   3.480 -0.2875 -0.8083  0.7017
  564MOL0     C77736  12.302   1.961   3.528  0.8777 -0.9841  0.4275
  564MOL0     C77737  12.387   2.020   3.418  0.5878 -0.2127 -0.1036
  564MOL0     C77738  12.530   1.994   3.442 -0.4896 -0.2094  0.5618
  564MOL0    Cl77739  12.581   2.058   3.601 -0.9794  0.5741 -0.4917
  564MOL0     C77740  11.645   2.424   3.341 -0.2389  0.8844 -0.1931
  564MOL0     C77741  11.514   2.480   3.341 -0.0223 -0.4796  0.1604
  564MOL0     O77742  11.441   2.782   3.480 -0.3690 -0.5726 -0.0915
  564MOL0     C77743  11.090   2.778   3.449  0.3637 -0.1477  0.3518
  564MOL0     C77744  10.991   2.859   3.413 -0.3334 -0.6172  0.5102
  564MOL0     N77745  10.465   3.021   2.842 -0.7986 -0.0973  1.0697
  564MOL0     N77746  10.341   3.025   2.821 -0.9762 -0.0523 -0.5901
  564MOL0     C77747   9.719   2.283   3.100 -0.7932 -0.8294  0.1643
  564MOL0     C77748   9.632   2.184   3.054  0.1817  0.6689 -0.2642
  564MOL0     C77749   9.241   1.940   2.974  0.5540  0.2989  0.5456
  564MOL0     C77750   9.102   1.927   3.002 -0.3394 -0.0549 -1.0595
  564MOL0     C77751   9.033   1.806   2.976  0.1220 -0.0495 -0.1435
  564MOL0     C77752   9.100   1.692   2.940 -0.8921  0.2041 -0.1486
  564MOL0     O77753   9.057   1.560   2.951 -0.1570 -0.3025  0.4530
  564MOL0     C77754   8.912   1.545   2.979 -0.0150  0.1032 -0.0636
  564MOL0     C77755   8.836   1.569   2.847 -0.1915  0.7355  0.0915
  564MOL0     C77756   8.863   1.456   2.740  0.0550 -0.2613  0.0028
  564MOL0     C77757   8.780   1.467   2.617 -0.7964 -0.0081 -0.6454
  564MOL0     C77758   8.786   1.345   2.532 -0.4711 -0.2833 -1.1668
  564MOL0     C77759   8.777   1.254   2.462 -0.0349  0.0741  0.8103
  564MOL0     C77760   9.229   1.714   2.891  0.2020 -0.9274  0.2637
  564MOL0     C77761   9.301   1.826   2.906  0.4148  0.1979  0.1310
  564MOL0     C77762   9.432   1.825   2.828 -0.0526  0.4361 -0.5679
  564MOL0     H77763   9.346   2.361   3.030 -0.9841 -4.7713 -0.3922
  564MOL0     H77764   9.479   2.527   3.125  1.3141  0.3523  0.8384
  564MOL0     H77765   9.941   2.485   3.192  0.8562  1.8315  0.9011
  564MOL0     H77766   9.845   2.406   3.325 -0.2440  0.8164  1.3471
  564MOL0     H77767   9.810   2.618   3.416 -2.2031 -1.4332 -1.9248
  564MOL0     H77768   9.984   2.590   3.396 -1.6260 -2.1111  2.1886
  564MOL0     H77769   9.786   2.772   3.234  0.5714 -2.5853 -1.7212
  564MOL0     H77770   9.906   2.822   3.352 -1.8312 -2.4213  2.5956
  564MOL0     H77771  10.076   2.722   3.190  0.4645  0.2119  0.1869
  564MOL0     H77772   9.941   2.700   3.072 -1.4399  0.7747 -0.1735
  564MOL0     H77773   9.967   2.980   3.207 -0.8367  0.2719 -0.2921
  564MOL0     H77774   9.881   2.931   3.058  0.1232 -0.1589 -0.2712
  564MOL0     H77775  10.181   2.918   3.085 -0.3686 -0.6033  0.3012
  564MOL0     H77776  10.080   2.896   2.944 -0.0478  0.2223 -0.5763
  564MOL0     H77777  10.114   3.150   3.126  2.2496 -0.0359 -0.3845
  564MOL0     H77778   9.980   3.133   3.018 -0.0063  2.4680  1.0187
  564MOL0     H77779  10.104   3.137   2.811 -0.7616 -1.5742  0.5544
  564MOL0     H77780  10.144   3.273   2.913  2.3216  1.0957 -1.0740
  564MOL0     H77781  10.379   3.263   3.044 -2.3091 -1.7270  2.0296
  564MOL0     H77782  10.645   3.253   3.000  0.6728  0.9715 -0.4959
  564MOL0     H77783  10.693   3.152   2.873 -0.7044 -0.2843 -0.3422
  564MOL0     H77784  10.647   2.952   3.076  1.7622 -0.3340  1.1108
  564MOL0     H77785  10.800   3.027   3.039  0.0167 -2.4382  2.4698
  564MOL0     H77786  10.736   3.203   3.210  2.8209 -1.0688  0.4691
  564MOL0     H77787  10.587   3.110   3.236  0.0982  2.4975 -0.4937
  564MOL0     H77788  10.746   3.039   3.412  2.3919  1.4818  0.8185
  564MOL0     H77789  10.740   2.922   3.294  1.9639 -0.6808  0.3654
  564MOL0     H77790  11.146   3.050   3.175  2.9550 -1.7228 -1.5286
  564MOL0     H77791  11.352   2.922   3.117  1.9533 -1.2954 -0.2548
  564MOL0     H77792  11.410   2.792   3.201 -0.4377 -0.6103  2.4193
  564MOL0     H77793  11.437   2.956   3.276  1.3610 -0.7679 -0.5929
  564MOL0     H77794  11.452   2.494   3.663  2.1990 -1.9099  2.1534
  564MOL0     H77795  11.661   2.358   3.680  2.5890  0.2934 -0.6298
  564MOL0     H77796  11.872   2.246   3.298  0.4974  1.1499 -1.4533
  564MOL0     H77797  11.902   2.420   3.312 -0.6405 -0.2874  0.4613
  564MOL0     H77798  12.117   2.298   3.319  1.6136 -0.1442  1.1353
  564MOL0     H77799  12.076   2.372   3.471 -0.2189 -1.3631  1.0533
  564MOL0     H77800  11.989   2.143   3.555  0.2120 -1.9141 -0.0824
  564MOL0     H77801  12.155   2.196   3.551 -0.7823 -0.1517  0.1428
  564MOL0     H77802  12.149   2.077   3.303  0.0400  0.0636 -0.1973
  564MOL0     H77803  12.004   2.006   3.366 -0.1188  1.2016  0.0930
  564MOL0     H77804  12.094   1.909   3.566  0.8116  1.2768  2.2465
  564MOL0     H77805  12.157   1.858   3.403  0.5113 -0.1576  0.0253
  564MOL0     H77806  12.349   1.875   3.577  1.1340 -0.5893  0.8737
  564MOL0     H77807  12.280   2.038   3.602  0.0841  1.2563 -1.9918
  564MOL0     H77808  12.359   2.125   3.406 -3.4645 -0.9998  1.0375
  564MOL0     H77809  12.358   1.966   3.327 -2.2866 -1.4772  1.4400
  564MOL0     H77810  12.586   2.052   3.368  1.1493 -1.4750  0.7604
  564MOL0     H77811  12.541   1.886   3.428 -1.3307 -0.1759 -0.5132
  564MOL0     H77812  11.694   2.415   3.244 -0.3798  3.2441 -0.5419
  564MOL0     H77813  11.468   2.517   3.250 -0.5598 -2.0039 -0.2091
  564MOL0     H77814  11.074   2.694   3.516 -0.3582 -0.2350  0.0841
  564MOL0     H77815  10.891   2.840   3.448 -0.6318  0.7330  0.4613
  564MOL0     H77816   9.823   2.265   3.121  0.0035  0.5890 -2.2003
  564MOL0     H77817   9.674   2.091   3.017  1.5535  0.8752  0.7082
  564MOL0     H77818   9.037   2.006   3.038 -1.0029 -1.0556 -0.0187
  564MOL0     H77819   8.930   1.788   3.006  0.0521 -0.8984 -0.8864
  564MOL0     H77820   8.900   1.444   3.018  2.2966 -0.1800  0.0900
  564MOL0     H77821   8.865   1.609   3.054  0.3725 -0.1340  0.3876
  564MOL0     H77822   8.863   1.665   2.801 -0.6762  1.4754  1.3255
  564MOL0     H77823   8.729   1.561   2.863 -0.3636  1.1086 -0.7879
  564MOL0     H77824   8.969   1.444   2.716  0.1712  1.1714 -0.2606
  564MOL0     H77825   8.830   1.360   2.781 -2.4881  0.5512  0.0311
  564MOL0     H77826   8.823   1.555   2.568  0.6008  0.2398  0.9541
  564MOL0     H77827   8.675   1.492   2.635 -0.9877 -0.2966 -1.2929
  564MOL0     H77828   8.779   1.162   2.407 -0.0568 -1.4002  3.1395
  564MOL0     H77829   9.278   1.624   2.855 -0.1347 -1.1191  0.2728
  564MOL0     H77830   9.519   1.793   2.885 -0.2697 -0.1967 -0.5841
  564MOL0     H77831   9.429   1.761   2.739 -0.7737  0.4685 -0.5755
  564MOL0     H77832   9.458   1.924   2.791 -4.2668  1.6331 -0.8276
  565MOL0     O77833   9.397   8.197   7.374 -0.2765  0.2936 -0.0213
  565MOL0     C77834   9.452   8.127   7.282  0.1316  0.1211 -0.2218
  565MOL0     O77835   9.381   8.080   7.181  0.7122  0.3562  0.5262
  565MOL0     C77836   9.245   8.076   7.163  0.4052  0.4308  1.3842
  565MOL0     C77837   9.200   8.059   7.036  0.5558  0.0831  0.0293
  565MOL0     C77838   9.066   8.068   7.006 -0.5048 -0.1279  0.0189
  565MOL0     C77839   8.967   8.081   7.110 -0.1903  0.3087  0.7808
  565MOL0     O77840   8.835   8.091   7.079  0.6295 -0.1150  0.2867
  565MOL0     C77841   8.722   8.092   7.169 -1.0002  0.0547  0.1847
  565MOL0     C77842   8.594   8.067   7.081 -0.0746 -0.0012  0.9280
  565MOL0     C77843   8.471   8.043   7.173 -0.2857  0.3663 -0.1504
  565MOL0     C77844   8.337   8.034   7.099 -0.4622  0.2852 -0.2297
  565MOL0     C77845   8.222   7.967   7.187 -0.6723 -0.6949  0.3096
  565MOL0     C77846   8.120   7.893   7.108 -0.1792 -0.0506  0.1765
  565MOL0     C77847   8.004   7.846   7.185 -0.1583 -0.2202 -0.3048
  565MOL0     C77848   8.051   7.723   7.259  0.2380 -0.5086 -0.3997
  565MOL0     N77849   7.936   7.654   7.316 -0.2043 -0.3908 -0.5907
  565MOL0     C77850   7.844   7.571   7.252  0.0599 -0.1924 -0.1369
  565MOL0     C77851   7.730   7.559   7.334  0.2990  0.1195 -0.8838
  565MOL0     C77852   7.598   7.483   7.334  0.2415 -0.2729  0.0714
  565MOL0     C77853   7.581   7.391   7.207 -0.1973  0.1914  0.4315
  565MOL0     C77854   7.634   7.255   7.244 -0.5558 -0.5097  0.4729
  565MOL0     C77855   7.662   7.163   7.124 -0.0267  0.2655 -0.6936
  565MOL0     O77856   7.753   7.217   7.022 -0.3264 -0.0078  0.1427
  565MOL0     C77857   7.890   7.183   7.037  0.5097 -0.4203  0.2574
  565MOL0     C77858   7.971   7.209   6.922 -0.3595 -0.7159 -0.5758
  565MOL0     C77859   8.109   7.190   6.931  0.0914  0.6165  0.5824
  565MOL0     C77860   8.182   7.204   6.798  0.1095  0.3050  0.3401
  565MOL0     C77861   8.174   7.135   7.045 -0.2299 -0.7472 -1.4945
  565MOL0     C77862   8.312   7.087   7.044 -0.4865  0.3795  0.5416
  565MOL0     O77863   8.379   7.079   7.166  0.6567 -0.3258  0.3906
  565MOL0     C77864   8.500   7.024   7.174 -0.7033 -0.4852  0.4675
  565MOL0     C77865   8.532   6.903   7.105  1.0263  0.0463  0.2348
  565MOL0     C77866   8.664   6.860   7.113  0.1452  0.4395 -0.0923
  565MOL0     C77867   8.769   6.925   7.179  0.7471 -0.1075 -0.8112
  565MOL0     O77868   8.910   6.899   7.175  0.4805  1.3123 -0.0590
  565MOL0     C77869   8.938   6.781   7.100 -0.4976 -0.4128  0.1729
  565MOL0     C77870   9.074   6.742   7.139 -0.3016  0.4773  0.3403
  565MOL0     C77871   9.090   6.595   7.072 -0.0206 -0.8665  0.6573
  565MOL0     C77872   9.045   6.485   7.170 -0.2352  0.0658  0.9171
  565MOL0     C77873   9.076   6.346   7.113 -1.1101  0.4846  0.6943
  565MOL0     C77874   8.973   6.231   7.168 -0.1377 -0.6131  0.2451
  565MOL0     C77875   8.981   6.090   7.109  0.0554 -0.3528 -0.5859
  565MOL0     C77876   8.953   6.080   6.959 -0.6666 -0.4859  0.5378
  565MOL0    Cl77877   8.771   6.049   6.929 -0.0960 -0.2926 -0.2609
  565MOL0     C77878   8.731   7.027   7.266  0.2109 -0.2974  0.9710
  565MOL0     C77879   8.599   7.079   7.255  0.6261  0.4638 -0.6214
  565MOL0     O77880   8.367   7.060   6.934 -0.5096 -0.6382 -0.2411
  565MOL0     C77881   8.090   7.099   7.154  0.0129  0.3738 -1.2154
  565MOL0     C77882   7.951   7.114   7.146  0.1216 -1.6031 -0.5143
  565MOL0     N77883   7.772   7.623   7.444 -0.4355  0.0286 -0.8114
  565MOL0     N77884   7.886   7.689   7.432  0.3822 -0.7174  0.4277
  565MOL0     C77885   9.015   8.085   7.238 -0.3851 -0.1855 -0.7156
  565MOL0     C77886   9.146   8.086   7.259 -0.1488  0.2520  0.4499
  565MOL0     C77887   9.599   8.117   7.267  0.5387  0.7723  0.4255
  565MOL0     C77888   9.651   8.057   7.149 -0.3487 -0.6216  0.9174
  565MOL0     C77889   9.788   8.054   7.125 -0.0143  1.5800 -0.0199
  565MOL0     C77890   9.882   8.108   7.210 -0.1343 -0.2664  0.0706
  565MOL0     O77891  10.016   8.126   7.192 -0.2945 -0.5648  0.2948
  565MOL0     C77892  10.096   8.059   7.089  0.3077 -1.1725  1.2103
  565MOL0     C77893  10.251   8.057   7.120  0.0077  0.2837 -0.4982
  565MOL0     C77894  10.316   7.965   7.013 -0.3065  0.8712  0.0620
  565MOL0     C77895  10.464   7.968   7.019 -0.8781 -0.2582 -0.1688
  565MOL0     C77896  10.513   7.880   6.919 -0.1785  0.4967 -0.0095
  565MOL0     C77897  10.574   7.808   6.839 -0.4754 -0.2907  0.0188
  565MOL0     C77898   9.828   8.163   7.328 -0.4801  0.8096  0.2229
  565MOL0     C77899   9.693   8.171   7.355  0.2871  0.3641  0.3174
  565MOL0     C77900   9.648   8.222   7.492  0.6497  0.3387 -0.1311
  565MOL0     H77901   9.275   8.049   6.957 -0.0107  0.1528 -0.5227
  565MOL0     H77902   9.023   8.075   6.907  0.7851 -0.1956 -0.5699
  565MOL0     H77903   8.712   8.180   7.233 -2.9509  0.6724 -0.8872
  565MOL0     H77904   8.726   7.996   7.221  1.4125  0.1201  0.2407
  565MOL0     H77905   8.571   8.153   7.017 -1.7004 -1.0002  0.0887
  565MOL0     H77906   8.597   7.977   7.019  2.6850 -0.7284  1.9918
  565MOL0     H77907   8.489   7.951   7.229 -1.7985 -1.3817 -2.3813
  565MOL0     H77908   8.460   8.126   7.244 -1.7065 -2.1428  2.7935
  565MOL0     H77909   8.315   8.133   7.057  0.7291  0.5114 -0.3462
  565MOL0     H77910   8.360   7.977   7.009  3.3346 -1.1947  1.4708
  565MOL0     H77911   8.175   8.039   7.255  2.3719  3.4616 -1.5295
  565MOL0     H77912   8.280   7.902   7.252  5.9076  3.1140 -0.8174
  565MOL0     H77913   8.071   7.961   7.038  2.7506  0.7696 -1.2435
  565MOL0     H77914   8.171   7.811   7.057 -1.2252  1.0369 -2.8255
  565MOL0     H77915   7.932   7.833   7.104  1.1825 -1.6310 -1.3413
  565MOL0     H77916   7.958   7.913   7.258 -1.1942 -2.9836  1.7865
  565MOL0     H77917   8.097   7.649   7.193  0.5197  1.0404 -2.0447
  565MOL0     H77918   8.110   7.751   7.346 -2.1238 -1.8811  1.7747
  565MOL0     H77919   7.855   7.516   7.160 -1.0913  2.0359 -1.6948
  565MOL0     H77920   7.523   7.560   7.314  1.0873  0.5706  0.1013
  565MOL0     H77921   7.592   7.427   7.427  1.5824 -0.8361 -0.1682
  565MOL0     H77922   7.481   7.385   7.165  0.7140 -2.3318 -1.6476
  565MOL0     H77923   7.650   7.436   7.135 -0.2343  0.3160  0.4738
  565MOL0     H77924   7.729   7.270   7.296  1.1316  1.5937 -2.8724
  565MOL0     H77925   7.555   7.206   7.302 -0.8937 -1.6763 -0.8860
  565MOL0     H77926   7.691   7.061   7.152  1.9510  0.6003 -1.3425
  565MOL0     H77927   7.575   7.142   7.061  1.3834 -0.6972 -2.4030
  565MOL0     H77928   7.915   7.244   6.835 -0.5203 -3.5310 -1.6991
  565MOL0     H77929   8.251   7.288   6.810  1.2787 -0.7984  1.8790
  565MOL0     H77930   8.107   7.233   6.725  0.6515  1.9841  0.4083
  565MOL0     H77931   8.236   7.114   6.768  1.2868  0.7355  1.0796
  565MOL0     H77932   8.459   6.850   7.045 -0.3640  2.5049 -0.3757
  565MOL0     H77933   8.685   6.768   7.059  0.9110  1.7667 -2.1839
  565MOL0     H77934   8.865   6.700   7.114  0.3804 -1.0991  0.8613
  565MOL0     H77935   8.937   6.806   6.993 -3.7516  0.2193  0.2477
  565MOL0     H77936   9.147   6.813   7.100  0.2492 -1.1624 -1.7815
  565MOL0     H77937   9.086   6.732   7.247  0.3988 -1.4167  0.1188
  565MOL0     H77938   9.192   6.576   7.039 -0.8019 -1.1053 -1.8162
  565MOL0     H77939   9.020   6.596   6.988 -0.3588 -1.6866  0.9204
  565MOL0     H77940   8.938   6.478   7.192 -0.1296 -1.1496  1.1521
  565MOL0     H77941   9.091   6.504   7.267 -1.8019  0.9871  1.5067
  565MOL0     H77942   9.087   6.355   7.005  1.5810 -0.5216  0.7943
  565MOL0     H77943   9.170   6.316   7.162 -2.2229  0.2524  2.8102
  565MOL0     H77944   8.871   6.265   7.150 -0.6206 -2.1853 -0.0846
  565MOL0     H77945   9.005   6.228   7.273  1.8773 -4.8114 -0.2618
  565MOL0     H77946   8.919   6.020   7.165  0.3198  2.0154  2.9291
  565MOL0     H77947   9.086   6.062   7.119 -0.2875 -3.1914 -3.1938
  565MOL0     H77948   9.003   6.000   6.904 -0.4752  0.5004 -0.7514
  565MOL0     H77949   8.989   6.167   6.905 -1.9562 -1.1911 -1.5568
  565MOL0     H77950   8.807   7.069   7.330  1.5044  0.1026 -0.7494
  565MOL0     H77951   8.575   7.157   7.327  0.7708 -0.8700  0.9249
  565MOL0     H77952   8.136   7.046   7.236 -1.2988  0.6087 -0.3036
  565MOL0     H77953   7.896   7.083   7.235  1.5705 -1.9583  0.2834
  565MOL0     H77954   8.941   8.106   7.315  1.5047 -2.4478  1.8922
  565MOL0     H77955   9.173   8.089   7.365  0.9455 -3.1216  0.3869
  565MOL0     H77956   9.582   8.013   7.078  0.0019 -1.1551  0.8995
  565MOL0     H77957   9.829   8.004   7.038 -0.9901  0.6080  0.0602
  565MOL0     H77958  10.063   7.955   7.074  3.1027 -1.8220 -1.5640
  565MOL0     H77959  10.079   8.113   6.995  0.4826 -1.1466  1.1942
  565MOL0     H77960  10.269   8.032   7.225 -0.9015  2.6615  0.2909
  565MOL0     H77961  10.301   8.154   7.112 -0.4671  0.4691 -1.2423
  565MOL0     H77962  10.291   7.866   7.051  3.4255  0.1710  1.1184
  565MOL0     H77963  10.264   7.985   6.919 -1.6907 -0.6001  0.4746
  565MOL0     H77964  10.509   7.927   7.110 -2.3862 -0.2490  0.6060
  565MOL0     H77965  10.502   8.069   6.998 -1.1872 -0.7535 -3.7162
  565MOL0     H77966  10.637   7.743   6.783  1.2160 -2.2503  3.8272
  565MOL0     H77967   9.902   8.196   7.399 -0.6701 -1.5467  1.6248
  565MOL0     H77968   9.593   8.146   7.548  1.0833  1.3077  1.6996
  565MOL0     H77969   9.733   8.246   7.558  0.9114 -0.6665 -0.0837
  565MOL0     H77970   9.595   8.315   7.474 -2.4529 -0.9440  1.6636
  566MOL0     O77971   9.612   9.008  10.618  0.0906 -0.2957  0.1414
  566MOL0     C77972   9.531   9.048  10.701  0.6765  0.3754  0.0001
  566MOL0     O77973   9.555   9.130  10.801 -1.2743  0.2351 -0.0664
  566MOL0     C77974   9.670   9.188  10.845  0.5031 -0.1414 -0.9516
  566MOL0     C77975   9.789   9.174  10.783  0.5291 -1.0443 -0.7234
  566MOL0     C77976   9.904   9.227  10.835 -0.3380 -1.2491  0.1445
  566MOL0     C77977   9.912   9.306  10.952 -0.5094  0.4572  0.4245
  566MOL0     O77978  10.029   9.366  11.007  0.2361  0.6243 -0.3184
  566MOL0     C77979  10.157   9.304  10.990  0.0577  0.3414 -0.0393
  566MOL0     C77980  10.277   9.395  11.028 -1.0146 -0.8928  0.0499
  566MOL0     C77981  10.339   9.476  10.909 -0.1151  0.3899 -0.2201
  566MOL0     C77982  10.432   9.598  10.958 -0.1358  0.8024  0.9123
  566MOL0     C77983  10.491   9.678  10.845  0.1164 -0.2289 -0.5199
  566MOL0     C77984  10.398   9.775  10.765 -0.4873 -0.6855 -0.4818
  566MOL0     C77985  10.324   9.865  10.863 -0.0657  0.1745  0.2216
  566MOL0     C77986  10.247   9.983  10.797 -0.4801  0.7515  0.5187
  566MOL0     N77987  10.209   9.951  10.658  0.5753 -0.2605 -0.8501
  566MOL0     C77988  10.146   9.843  10.599 -0.0080  1.1544 -0.1729
  566MOL0     C77989  10.145   9.855  10.468  0.8753  0.3041 -0.4641
  566MOL0     C77990  10.070   9.747  10.378  0.4069  0.1759 -0.4174
  566MOL0     C77991  10.008   9.799  10.246  0.4423  0.5469  0.6662
  566MOL0     C77992  10.109   9.860  10.141  1.0410  0.0675  0.3731
  566MOL0     C77993  10.026   9.901  10.019  0.5915  0.0511 -0.2840
  566MOL0     O77994  10.097   9.977   9.921 -0.5896  0.4039  0.1595
  566MOL0     C77995  10.031  10.057   9.834 -0.4278 -0.4560 -0.7799
  566MOL0     C77996   9.899  10.045   9.790  0.2154  0.5748 -0.8115
  566MOL0     C77997   9.843  10.130   9.702 -0.4987 -0.5285  0.3721
  566MOL0     C77998   9.705  10.101   9.655  0.6081  0.0924 -0.0018
  566MOL0     C77999   9.912  10.247   9.661  0.3069  0.0976 -0.1707
  566MOL0     C78000   9.854  10.362   9.574  0.0426 -0.0718 -0.6465
  566MOL0     O78001   9.730  10.397   9.597  0.3975 -0.5854 -0.2573
  566MOL0     C78002   9.685  10.513   9.533  0.0088 -0.6100  0.2844
  566MOL0     C78003   9.691  10.629   9.610 -0.0682 -1.1064  0.0094
  566MOL0     C78004   9.673  10.761   9.552 -0.0533 -0.4270 -0.2584
  566MOL0     C78005   9.631  10.768   9.417 -0.1968 -0.2979 -0.1320
  566MOL0     O78006   9.592  10.887   9.364 -0.0031 -0.1321  0.8675
  566MOL0     C78007   9.626  11.012   9.433 -0.4109 -0.2931  0.1454
  566MOL0     C78008   9.778  11.054   9.428  0.1168 -0.5538 -0.4180
  566MOL0     C78009   9.796  11.174   9.536  0.5716 -0.0323  0.2876
  566MOL0     C78010   9.736  11.311   9.488 -0.1074 -0.2811  0.4869
  566MOL0     C78011   9.754  11.421   9.603 -0.1817  0.6746 -0.0553
  566MOL0     C78012   9.719  11.565   9.554 -0.9489 -0.7886 -0.1694
  566MOL0     C78013   9.771  11.663   9.664  0.5791 -0.1571 -0.3453
  566MOL0     C78014   9.753  11.808   9.621  0.0785 -0.7255 -0.4053
  566MOL0    Cl78015   9.857  11.845   9.487 -0.3234  0.0954  0.4199
  566MOL0     C78016   9.625  10.645   9.338  0.7556 -0.0307 -0.1740
  566MOL0     C78017   9.654  10.523   9.396 -0.0016 -0.3335 -0.7361
  566MOL0     O78018   9.936  10.418   9.504 -0.1116  0.0842 -0.4722
  566MOL0     C78019  10.039  10.264   9.705 -1.0209 -0.1282 -0.5125
  566MOL0     C78020  10.103  10.165   9.790 -0.8333  0.1581  0.2469
  566MOL0     N78021  10.218   9.962  10.444 -0.4119 -0.4674 -0.0841
  566MOL0     N78022  10.241  10.023  10.554 -1.0034 -0.2078  0.0798
  566MOL0     C78023   9.786   9.324  11.012 -0.2927  0.1080  0.2210
  566MOL0     C78024   9.667   9.266  10.960 -0.9312  0.3745 -0.5689
  566MOL0     C78025   9.397   8.985  10.727 -0.1999  0.0456 -0.2040
  566MOL0     C78026   9.334   9.013  10.854 -0.4900 -0.0505 -0.1479
  566MOL0     C78027   9.207   8.958  10.882 -1.1865 -0.3348 -0.8771
  566MOL0     C78028   9.145   8.875  10.796  0.5823  0.2389  0.2892
  566MOL0     O78029   9.035   8.802  10.821 -0.3533 -0.8629  0.0377
  566MOL0     C78030   8.999   8.764  10.952 -0.1068  0.0670 -0.1111
  566MOL0     C78031   9.053   8.622  10.967  0.6301  0.5098  0.0724
  566MOL0     C78032   8.953   8.511  10.904 -0.2181 -0.7541 -0.6473
  566MOL0     C78033   8.986   8.376  10.969  0.7858 -0.5541 -0.0220
  566MOL0     C78034   8.904   8.265  10.922 -0.4214  0.0469  0.2930
  566MOL0     C78035   8.856   8.177  10.860  0.4355  0.6139  0.0118
  566MOL0     C78036   9.205   8.843  10.671 -0.6286 -0.3831 -0.6362
  566MOL0     C78037   9.333   8.897  10.637  0.0033 -0.9354  0.9227
  566MOL0     C78038   9.393   8.850  10.509 -1.0934 -0.4880 -0.6747
  566MOL0     H78039   9.801   9.127  10.686  3.1230  0.6835 -1.3563
  566MOL0     H78040   9.995   9.205  10.780  0.7924  0.7272  1.0862
  566MOL0     H78041  10.178   9.283  10.885  1.7106  1.3167  0.0617
  566MOL0     H78042  10.164   9.206  11.040 -0.8873 -0.2482 -1.0241
  566MOL0     H78043  10.259   9.459  11.115  1.3677  1.8170 -1.2605
  566MOL0     H78044  10.357   9.326  11.057 -1.6082 -2.4125 -1.7144
  566MOL0     H78045  10.405   9.413  10.848  0.5029  1.5605 -0.8050
  566MOL0     H78046  10.260   9.513  10.843 -0.2903 -0.8378 -0.7392
  566MOL0     H78047  10.380   9.661  11.031 -1.6840  1.1359 -0.4365
  566MOL0     H78048  10.519   9.553  11.007 -0.5427 -2.4708 -1.0928
  566MOL0     H78049  10.551   9.620  10.774 -0.2337  2.0801 -2.8464
  566MOL0     H78050  10.560   9.745  10.897 -1.1581 -0.1765  1.2084
  566MOL0     H78051  10.459   9.837  10.698 -1.5507 -1.2959 -2.0682
  566MOL0     H78052  10.341   9.711  10.698  0.0144 -3.8068  1.8546
  566MOL0     H78053  10.386   9.904  10.945 -0.4767 -1.4246  1.3371
  566MOL0     H78054  10.258   9.795  10.915  0.1249 -0.9810 -1.0324
  566MOL0     H78055  10.151   9.990  10.851 -0.9300  4.4039 -0.5243
  566MOL0     H78056  10.298  10.079  10.800  0.4755  0.2526  0.5258
  566MOL0     H78057  10.116   9.752  10.650 -1.5763  0.3419 -2.4143
  566MOL0     H78058   9.982   9.708  10.429 -1.0016  3.0529 -0.4904
  566MOL0     H78059  10.145   9.673  10.348  1.8766  1.7706 -0.8240
  566MOL0     H78060   9.965   9.714  10.192  3.0696 -0.6225  0.2622
  566MOL0     H78061   9.937   9.880  10.263  2.4956  2.2885  1.4909
  566MOL0     H78062  10.154   9.946  10.192  0.8802  0.8882 -0.8206
  566MOL0     H78063  10.182   9.786  10.109 -2.4202 -3.2910 -0.4791
  566MOL0     H78064   9.970   9.819   9.972  1.0466  0.8729 -2.3958
  566MOL0     H78065   9.951   9.973  10.053 -0.2186  1.6096 -4.6601
  566MOL0     H78066   9.838   9.969   9.838  0.8423  1.8722  2.2730
  566MOL0     H78067   9.630  10.159   9.710 -1.2759 -1.8605 -0.3622
  566MOL0     H78068   9.692   9.992   9.654  0.4018  0.0601 -3.2031
  566MOL0     H78069   9.709  10.133   9.551  3.1678  4.0957  1.1144
  566MOL0     H78070   9.711  10.610   9.715 -0.8818  1.1186  0.6226
  566MOL0     H78071   9.700  10.838   9.624 -0.6838 -2.1759  1.9712
  566MOL0     H78072   9.577  11.100   9.390 -1.7642 -0.7610  0.6705
  566MOL0     H78073   9.594  11.007   9.537 -0.0631  1.5570  0.3807
  566MOL0     H78074   9.845  10.969   9.448 -0.2889 -0.9127 -0.5564
  566MOL0     H78075   9.797  11.085   9.325  2.8381  0.3732  0.2764
  566MOL0     H78076   9.903  11.194   9.546  0.4927 -0.6845  3.0340
  566MOL0     H78077   9.771  11.142   9.637  0.0747 -1.1675 -0.1722
  566MOL0     H78078   9.631  11.294   9.463  0.6373 -4.0433 -0.7492
  566MOL0     H78079   9.798  11.341   9.403  0.2928  2.8392  1.7335
  566MOL0     H78080   9.694  11.393   9.691  1.0742 -1.5415  0.1525
  566MOL0     H78081   9.858  11.428   9.636 -0.4700  1.9032  0.6834
  566MOL0     H78082   9.611  11.577   9.542 -1.2958 -4.7101 -3.4138
  566MOL0     H78083   9.768  11.584   9.458  1.6983  0.3622  1.2917
  566MOL0     H78084   9.880  11.656   9.676  0.2458 -3.3011  2.0609
  566MOL0     H78085   9.718  11.643   9.757 -0.7615 -0.2839 -1.1097
  566MOL0     H78086   9.774  11.874   9.707 -0.7916  0.4720 -1.0837
  566MOL0     H78087   9.650  11.834   9.595  1.0137  2.3697 -1.5462
  566MOL0     H78088   9.620  10.643   9.230 -1.3234  1.3628 -0.1619
  566MOL0     H78089   9.661  10.430   9.339 -3.0562 -0.2058 -1.4776
  566MOL0     H78090  10.095  10.351   9.675 -1.2263  0.8588  1.7095
  566MOL0     H78091  10.210  10.170   9.806 -0.8314  1.7220 -0.1108
  566MOL0     H78092   9.767   9.382  11.102  1.4170 -0.4145  0.9580
  566MOL0     H78093   9.567   9.276  11.001 -0.2438 -0.0385  1.2888
  566MOL0     H78094   9.378   9.088  10.919  2.0894 -1.2955 -0.3186
  566MOL0     H78095   9.153   8.992  10.970  0.8984  0.4182  0.2049
  566MOL0     H78096   9.044   8.830  11.026 -2.1752  1.1343  0.2601
  566MOL0     H78097   8.891   8.770  10.971  0.2028  0.7119  1.6514
  566MOL0     H78098   9.061   8.605  11.074  1.5748  2.8556  0.4499
  566MOL0     H78099   9.157   8.609  10.935  0.0382 -1.0120 -1.3921
  566MOL0     H78100   8.849   8.539  10.922 -0.3433 -1.5601 -0.0269
  566MOL0     H78101   8.977   8.510  10.798 -1.4687 -0.9034 -0.9440
  566MOL0     H78102   8.971   8.380  11.077 -1.6193  0.0026 -0.3228
  566MOL0     H78103   9.089   8.356  10.937  1.1627  0.0932  0.7448
  566MOL0     H78104   8.827   8.088  10.808  1.9421  0.2944 -0.3274
  566MOL0     H78105   9.150   8.773  10.609 -2.1049 -2.3782  2.7008
  566MOL0     H78106   9.422   8.937  10.449 -0.0089  0.1643  0.7339
  566MOL0     H78107   9.483   8.794  10.538 -0.0659 -0.4134 -3.4019
  566MOL0     H78108   9.316   8.795  10.454 -1.4304  1.0734 -1.8360
  567MOL0     O78109  11.251   9.348   6.929  0.0251 -0.4101  0.0186
  567MOL0     C78110  11.197   9.389   6.829 -0.2869 -0.5308 -0.3611
  567MOL0     O78111  11.254   9.459   6.728 -0.2888 -0.2705  0.2384
  567MOL0     C78112  11.380   9.530   6.730  0.4200  0.1728  0.2422
  567MOL0     C78113  11.414   9.593   6.612 -0.9907  0.1106  1.2031
  567MOL0     C78114  11.529   9.665   6.599  1.5737 -0.5748  1.4858
  567MOL0     C78115  11.620   9.689   6.705 -0.0205 -0.7338 -0.4808
  567MOL0     O78116  11.728   9.769   6.681  0.5683 -0.0972 -0.5066
  567MOL0     C78117  11.820   9.799   6.796  0.1485 -0.6542 -0.6850
  567MOL0     C78118  11.922   9.907   6.762 -0.0346 -0.4935 -0.6742
  567MOL0     C78119  12.018   9.859   6.664  0.9874 -0.6066 -0.5789
  567MOL0     C78120  12.156   9.930   6.666 -0.0067 -0.8547  0.2375
  567MOL0     C78121  12.237   9.868   6.556 -0.0198 -0.6203  0.9186
  567MOL0     C78122  12.292   9.729   6.595 -0.5509 -0.8634  0.8978
  567MOL0     C78123  12.297   9.633   6.475  0.3026  0.2337  0.0494
  567MOL0     C78124  12.403   9.680   6.370  1.0698 -0.3713  0.3918
  567MOL0     N78125  12.542   9.658   6.424  0.4311 -0.7878 -0.5175
  567MOL0     C78126  12.602   9.540   6.420 -0.0541 -0.3703  0.4865
  567MOL0     C78127  12.720   9.556   6.476  0.2113 -0.4673  0.8710
  567MOL0     C78128  12.828   9.450   6.498  0.2902  0.0774  0.2682
  567MOL0     C78129  12.893   9.451   6.636  0.0993  0.8690  0.3064
  567MOL0     C78130  13.000   9.556   6.653 -0.0872  0.6300  0.0812
  567MOL0     C78131  13.086   9.532   6.779 -1.1610  0.4803 -0.9557
  567MOL0     O78132  13.176   9.425   6.766 -0.1057  0.9426 -1.2284
  567MOL0     C78133  13.260   9.399   6.871  0.3333 -0.7815  0.5074
  567MOL0     C78134  13.391   9.363   6.849 -0.2340 -0.0387 -0.5859
  567MOL0     C78135  13.477   9.335   6.959 -0.2141  0.6134 -0.1319
  567MOL0     C78136  13.621   9.321   6.919 -0.1059  0.0619 -0.4062
  567MOL0     C78137  13.425   9.331   7.092  0.2800 -0.3043 -0.1133
  567MOL0     C78138  13.500   9.287   7.220 -0.3571  0.4088  0.7837
  567MOL0     O78139  13.438   9.267   7.341 -0.4191 -0.7473 -0.3957
  567MOL0     C78140  13.502   9.222   7.447  0.3919  0.0833  1.1061
  567MOL0     C78141  13.585   9.107   7.459  0.6973 -0.4624  0.6506
  567MOL0     C78142  13.604   9.065   7.589  0.4786 -0.0132  0.2339
  567MOL0     C78143  13.566   9.126   7.708 -0.5743  0.0298 -0.6641
  567MOL0     O78144  13.608   9.066   7.826  0.4872  0.4038 -0.3601
  567MOL0     C78145  13.606   9.148   7.943 -0.7558  0.1405  0.6627
  567MOL0     C78146  13.685   9.069   8.041  0.6710 -0.8941  1.0361
  567MOL0     C78147  13.626   8.930   8.062  0.3542  0.3258 -0.1399
  567MOL0     C78148  13.680   8.858   8.189  0.0803  0.3978 -0.1933
  567MOL0     C78149  13.837   8.842   8.177  0.6417  0.1784 -0.0127
  567MOL0     C78150  13.902   8.762   8.284  0.2265  0.0087  0.5637
  567MOL0     C78151  14.048   8.739   8.233  0.5483 -0.6907  0.2924
  567MOL0     C78152  14.121   8.637   8.318 -0.5859  1.2032  0.1928
  567MOL0    Cl78153  14.115   8.677   8.495  0.6181  0.1399 -0.3582
  567MOL0     C78154  13.494   9.246   7.692  0.1212 -0.9262  0.1523
  567MOL0     C78155  13.452   9.290   7.562  0.0492 -0.4122 -0.5468
  567MOL0     O78156  13.621   9.267   7.209  0.5126 -0.0781 -0.0012
  567MOL0     C78157  13.293   9.370   7.106  0.4476  0.0987 -0.1204
  567MOL0     C78158  13.212   9.402   6.998  0.4435 -1.2630  0.2726
  567MOL0     N78159  12.738   9.692   6.494  0.2150 -0.1897  0.0681
  567MOL0     N78160  12.628   9.758   6.470 -0.0688  0.7594 -1.3331
  567MOL0     C78161  11.586   9.622   6.828 -0.2635  0.4097  0.0040
  567MOL0     C78162  11.475   9.541   6.838 -0.0070  0.3011  1.0879
  567MOL0     C78163  11.057   9.348   6.805  0.3859  0.3507 -0.3470
  567MOL0     C78164  10.976   9.447   6.739  0.7505 -0.1891  0.4893
  567MOL0     C78165  10.838   9.428   6.709  0.1777 -0.9440 -0.5374
  567MOL0     C78166  10.780   9.304   6.750 -0.2364  0.2119 -0.6196
  567MOL0     O78167  10.649   9.264   6.734 -0.3767 -0.0540 -0.1452
  567MOL0     C78168  10.559   9.361   6.670 -0.4962  0.2205 -0.4739
  567MOL0     C78169  10.427   9.291   6.665  0.1815  0.0633 -0.1863
  567MOL0     C78170  10.361   9.313   6.528 -0.1854  0.5700  0.5359
  567MOL0     C78171  10.222   9.248   6.514 -0.6501  0.5289  0.0576
  567MOL0     C78172  10.236   9.100   6.524  0.0188 -0.1519 -0.1371
  567MOL0     C78173  10.244   8.980   6.536  0.1927  0.8429  0.5000
  567MOL0     C78174  10.867   9.207   6.816  0.7737 -0.2525  0.0220
  567MOL0     C78175  11.002   9.220   6.830  0.0442  1.2276  0.0958
  567MOL0     C78176  11.079   9.102   6.880 -0.4983 -0.0163 -0.4582
  567MOL0     H78177  11.345   9.572   6.530  0.5898 -0.9547  0.0700
  567MOL0     H78178  11.546   9.722   6.508 -2.8494 -0.5628  0.4465
  567MOL0     H78179  11.863   9.706   6.834 -0.2189 -1.4726 -2.1994
  567MOL0     H78180  11.773   9.841   6.885 -0.2561 -1.4200 -0.5359
  567MOL0     H78181  11.881   9.999   6.720 -2.2465 -0.4314  1.4169
  567MOL0     H78182  11.962   9.932   6.860 -1.7288 -0.8540  0.1487
  567MOL0     H78183  12.030   9.751   6.676  2.1120 -0.2508  2.1764
  567MOL0     H78184  11.965   9.887   6.572 -2.7514  0.6205  1.6945
  567MOL0     H78185  12.121  10.032   6.648  0.1404 -0.7266  0.6566
  567MOL0     H78186  12.215   9.916   6.757  1.3519 -1.2821 -0.6783
  567MOL0     H78187  12.320   9.935   6.534 -0.4270  0.5165  2.6730
  567MOL0     H78188  12.164   9.865   6.475 -0.3386 -0.0847  1.1808
  567MOL0     H78189  12.396   9.749   6.624 -0.1214 -1.8682  0.1107
  567MOL0     H78190  12.246   9.677   6.680 -2.5903 -3.3734 -1.5341
  567MOL0     H78191  12.205   9.630   6.416  0.1790  3.6507 -0.1006
  567MOL0     H78192  12.313   9.530   6.509 -2.2613 -0.0432  0.5991
  567MOL0     H78193  12.391   9.621   6.278 -1.7391 -0.4602  0.7221
  567MOL0     H78194  12.395   9.785   6.343  2.8145  0.2790  2.1914
  567MOL0     H78195  12.563   9.447   6.379 -1.3122  0.4522 -0.2621
  567MOL0     H78196  12.905   9.460   6.421  0.1066 -1.0503 -0.0845
  567MOL0     H78197  12.780   9.354   6.478 -1.4325  1.0684 -0.5711
  567MOL0     H78198  12.821   9.468   6.716  2.2141  0.9885  2.2840
  567MOL0     H78199  12.940   9.355   6.659  0.2489  1.0366  0.7050
  567MOL0     H78200  13.072   9.573   6.573  0.8413  1.3989  1.0595
  567MOL0     H78201  12.952   9.651   6.675 -0.1349  0.5378  0.3717
  567MOL0     H78202  13.136   9.626   6.803 -1.0299 -0.0574  1.0859
  567MOL0     H78203  13.011   9.515   6.857  0.2526  2.2716  0.9267
  567MOL0     H78204  13.425   9.369   6.746 -1.3211 -3.1692 -1.2352
  567MOL0     H78205  13.634   9.212   6.914  2.0301 -0.1255  4.0965
  567MOL0     H78206  13.689   9.349   7.000  3.8052 -1.7448 -2.7782
  567MOL0     H78207  13.652   9.379   6.831  0.7032  1.1289  0.5535
  567MOL0     H78208  13.632   9.050   7.379 -0.6750  0.9165 -1.2401
  567MOL0     H78209  13.653   8.968   7.593  1.9518  0.7361  1.0680
  567MOL0     H78210  13.663   9.241   7.941  0.4996 -0.5059  2.8634
  567MOL0     H78211  13.507   9.167   7.985 -0.6711  2.2217  0.0398
  567MOL0     H78212  13.790   9.066   8.009  0.5459 -1.3518  0.6514
  567MOL0     H78213  13.684   9.131   8.132 -0.4029  0.5354  0.0945
  567MOL0     H78214  13.640   8.870   7.972 -0.8724 -0.2771  0.0551
  567MOL0     H78215  13.518   8.929   8.074  0.3776 -1.5422  0.2025
  567MOL0     H78216  13.631   8.761   8.202  1.6399 -0.2397  1.3624
  567MOL0     H78217  13.666   8.919   8.279  3.0142 -1.7160  1.9092
  567MOL0     H78218  13.865   8.806   8.078  2.6793 -0.3017  0.6830
  567MOL0     H78219  13.885   8.941   8.180  2.6125 -0.5928 -2.5502
  567MOL0     H78220  13.841   8.672   8.296 -1.7246  1.4344  1.8781
  567MOL0     H78221  13.911   8.820   8.376 -1.2575  2.4328 -0.7238
  567MOL0     H78222  14.106   8.832   8.233  3.1397 -2.2106  0.9943
  567MOL0     H78223  14.044   8.707   8.128 -0.4597  1.1867 -0.2991
  567MOL0     H78224  14.223   8.647   8.281 -0.2421  1.7726  1.2580
  567MOL0     H78225  14.082   8.535   8.310  1.1686  0.5187  0.0795
  567MOL0     H78226  13.465   9.307   7.776 -0.4872 -0.3608 -0.4592
  567MOL0     H78227  13.383   9.372   7.546  0.4322  0.0870  0.2913
  567MOL0     H78228  13.251   9.373   7.207  0.7065  0.7900 -0.0272
  567MOL0     H78229  13.108   9.426   7.020  0.7859  3.1243 -1.8100
  567MOL0     H78230  11.649   9.625   6.915  1.5497 -2.3501 -1.0876
  567MOL0     H78231  11.451   9.498   6.935  0.1652  2.3100  2.0944
  567MOL0     H78232  11.017   9.541   6.703 -0.0056  0.4292  1.2337
  567MOL0     H78233  10.790   9.510   6.657  0.2236  0.7204  1.8506
  567MOL0     H78234  10.555   9.452   6.730  0.3189  1.6842 -2.5546
  567MOL0     H78235  10.599   9.376   6.570 -1.4935  3.3126 -0.5058
  567MOL0     H78236  10.364   9.326   6.748 -0.7420  0.3905 -1.0009
  567MOL0     H78237  10.438   9.186   6.691 -1.9769 -0.0350  0.5089
  567MOL0     H78238  10.351   9.419   6.503 -3.4252  0.1822 -0.3875
  567MOL0     H78239  10.434   9.266   6.461 -1.5434 -1.3208  0.3099
  567MOL0     H78240  10.195   9.264   6.409  2.4191 -1.1238 -1.1202
  567MOL0     H78241  10.140   9.288   6.575 -1.4961 -0.4442 -0.4114
  567MOL0     H78242  10.253   8.873   6.536  1.4470  0.8199 -3.0599
  567MOL0     H78243  10.813   9.115   6.835  0.4129 -0.1923 -0.6746
  567MOL0     H78244  11.109   9.134   6.980  0.0471 -0.0092 -0.6201
  567MOL0     H78245  11.011   9.016   6.878  0.8083 -1.0819 -1.4999
  567MOL0     H78246  11.162   9.082   6.812  0.1044  0.8702  0.0025
  568MOL0     O78247   3.108   6.096   8.764  0.5329  0.4723  0.6131
  568MOL0     C78248   3.106   5.976   8.796 -0.5437  0.0166  0.5266
  568MOL0     O78249   3.208   5.921   8.863 -0.0169  0.0648 -0.0317
  568MOL0     C78250   3.306   6.007   8.909  0.7295 -0.2120 -0.8924
  568MOL0     C78251   3.419   6.032   8.834 -0.3115 -0.6004  0.1667
  568MOL0     C78252   3.502   6.146   8.867 -1.1488 -0.5207 -0.1779
  568MOL0     C78253   3.496   6.199   8.997  0.7518  0.2189 -0.0884
  568MOL0     O78254   3.583   6.300   9.036 -0.3884  0.2553 -0.9301
  568MOL0     C78255   3.542   6.422   8.984  0.2785  0.2794 -0.1574
  568MOL0     C78256   3.646   6.521   9.043  0.0838 -0.0719  0.2822
  568MOL0     C78257   3.614   6.668   9.016 -0.1117  0.4052 -0.1072
  568MOL0     C78258   3.485   6.714   9.079 -0.1850 -0.2733  0.1733
  568MOL0     C78259   3.465   6.858   9.044  0.4355 -0.0749 -0.1513
  568MOL0     C78260   3.327   6.909   9.104  0.9765 -0.1467 -0.5117
  568MOL0     C78261   3.305   7.065   9.098  0.3898  0.4416 -0.8791
  568MOL0     C78262   3.320   7.126   8.956 -0.0398 -0.3414 -0.0365
  568MOL0     N78263   3.296   7.269   8.944  0.3074  0.1866 -0.2900
  568MOL0     C78264   3.284   7.355   9.048  0.5314  0.0838  0.4848
  568MOL0     C78265   3.250   7.473   8.986 -0.2864 -1.1977  0.0931
  568MOL0     C78266   3.236   7.598   9.064 -0.1010  0.4827  0.9603
  568MOL0     C78267   3.119   7.687   9.009  0.1044  0.3499  1.0883
  568MOL0     C78268   3.099   7.814   9.092 -0.7688  0.9812  0.7210
  568MOL0     C78269   2.977   7.904   9.082 -0.4786  0.8360 -0.1769
  568MOL0     O78270   2.968   7.967   8.959 -0.0171 -0.5809  0.7249
  568MOL0     C78271   2.840   7.968   8.911 -0.5787  0.0815 -0.4815
  568MOL0     C78272   2.802   7.902   8.793  0.3435 -1.1998 -0.1209
  568MOL0     C78273   2.671   7.901   8.744  0.1708 -0.3081 -0.2621
  568MOL0     C78274   2.651   7.839   8.617  0.2102  0.2154  0.6736
  568MOL0     C78275   2.571   7.969   8.814  0.1761 -0.1072  0.4417
  568MOL0     C78276   2.429   7.973   8.776  0.4132 -0.1021  1.0088
  568MOL0     O78277   2.350   8.060   8.830  0.2154 -1.0379 -0.1102
  568MOL0     C78278   2.223   8.026   8.834  0.7030  1.1967  0.3769
  568MOL0     C78279   2.184   7.956   8.950 -0.0787 -0.4382 -0.3154
  568MOL0     C78280   2.049   7.919   8.970 -0.1899  0.6301 -0.6789
  568MOL0     C78281   1.951   7.970   8.877  0.0889  0.2291 -0.5701
  568MOL0     O78282   1.815   7.954   8.887 -0.0149  0.2808  0.0259
  568MOL0     C78283   1.766   7.916   9.013 -0.2384  0.7183  0.1204
  568MOL0     C78284   1.616   7.921   9.017  0.2539 -0.7512  0.7475
  568MOL0     C78285   1.557   8.049   9.078 -0.2766  0.0835 -0.7808
  568MOL0     C78286   1.413   8.061   9.059  0.1949  0.2839  0.1523
  568MOL0     C78287   1.347   8.152   9.163  0.7993 -0.0075 -0.3016
  568MOL0     C78288   1.224   8.226   9.105  0.1011 -0.0756  0.0652
  568MOL0     C78289   1.161   8.343   9.200 -0.1807  0.5083 -0.1671
  568MOL0     C78290   1.150   8.316   9.359  0.4962  0.0948 -0.1046
  568MOL0    Cl78291   1.312   8.330   9.430 -0.1329 -0.1426  0.6381
  568MOL0     C78292   1.990   8.041   8.769  0.0251 -0.2966  0.8611
  568MOL0     C78293   2.122   8.065   8.747 -0.0074 -0.1178 -1.4614
  568MOL0     O78294   2.386   7.900   8.686 -0.2236 -0.5511 -0.4401
  568MOL0     C78295   2.609   8.036   8.930 -0.5334 -0.7585  0.8284
  568MOL0     C78296   2.740   8.040   8.982 -0.2161  0.1582  0.7224
  568MOL0     N78297   3.242   7.456   8.853 -0.5336  0.0500  0.3242
  568MOL0     N78298   3.261   7.333   8.831 -0.4131  0.0574  0.3498
  568MOL0     C78299   3.396   6.150   9.087  0.1296 -0.5281  0.3279
  568MOL0     C78300   3.295   6.067   9.035 -0.2055  0.4545 -0.1310
  568MOL0     C78301   2.984   5.894   8.772  0.7927 -0.6310  0.6630
  568MOL0     C78302   2.976   5.769   8.824 -0.2475  0.1856  0.0469
  568MOL0     C78303   2.860   5.683   8.788 -1.2665 -0.1651  0.6578
  568MOL0     C78304   2.758   5.731   8.708 -0.6206 -0.8500  0.3015
  568MOL0     O78305   2.653   5.658   8.667 -0.0696  0.0653 -0.2390
  568MOL0     C78306   2.654   5.513   8.699 -0.2865 -0.1356 -0.0203
  568MOL0     C78307   2.537   5.456   8.620 -0.3916 -0.1987  0.2656
  568MOL0     C78308   2.408   5.467   8.703 -0.6874  0.0237 -0.7673
  568MOL0     C78309   2.294   5.386   8.634 -0.2398  0.8417  0.0597
  568MOL0     C78310   2.243   5.457   8.522 -0.3164 -0.4373 -0.3410
  568MOL0     C78311   2.201   5.526   8.430  0.3006  1.2056  0.0835
  568MOL0     C78312   2.771   5.865   8.667  0.8542  0.6041 -0.9466
  568MOL0     C78313   2.879   5.945   8.695  0.3727  0.1244 -0.2370
  568MOL0     C78314   2.874   6.082   8.624  0.2430  0.6800 -0.6718
  568MOL0     H78315   3.433   5.987   8.736  0.4179  0.1590 -0.0903
  568MOL0     H78316   3.578   6.184   8.799 -2.6700 -0.1278 -1.7357
  568MOL0     H78317   3.440   6.435   9.022  1.4781  0.5816  3.3967
  568MOL0     H78318   3.543   6.430   8.875  1.1059  4.0363  0.0010
  568MOL0     H78319   3.679   6.511   9.147  1.0228  2.4736  0.3010
  568MOL0     H78320   3.740   6.495   8.991 -0.9831 -3.2699 -0.2455
  568MOL0     H78321   3.695   6.734   9.047  1.3531 -0.3699 -2.0571
  568MOL0     H78322   3.610   6.677   8.907  1.0766 -0.4939 -0.2426
  568MOL0     H78323   3.401   6.661   9.033 -1.8654  1.3558  1.2519
  568MOL0     H78324   3.480   6.700   9.188  2.9661 -0.8782  0.3297
  568MOL0     H78325   3.453   6.881   8.937  1.5310  4.9832  0.5470
  568MOL0     H78326   3.551   6.916   9.077  1.6502 -2.3886  0.9519
  568MOL0     H78327   3.242   6.851   9.067  0.3610  0.3061  0.1870
  568MOL0     H78328   3.326   6.885   9.211  0.4940 -2.0830 -0.9036
  568MOL0     H78329   3.360   7.120   9.174 -1.4924  2.0335 -0.5770
  568MOL0     H78330   3.202   7.093   9.123  1.2623  1.8149  1.5127
  568MOL0     H78331   3.423   7.113   8.923 -0.0407 -2.1818  0.6148
  568MOL0     H78332   3.252   7.083   8.883 -1.9947  3.2178 -0.5640
  568MOL0     H78333   3.302   7.342   9.154  1.2046 -2.1751  0.1421
  568MOL0     H78334   3.335   7.644   9.066 -0.3315  1.1740 -1.1966
  568MOL0     H78335   3.204   7.564   9.163  0.4014 -0.0958  0.9299
  568MOL0     H78336   3.155   7.708   8.907  0.1581 -2.8184  0.3419
  568MOL0     H78337   3.026   7.632   9.000 -0.3782  1.0860  1.4942
  568MOL0     H78338   3.109   7.783   9.196  1.4826  0.7265  0.4785
  568MOL0     H78339   3.180   7.879   9.058 -0.6459 -0.6562 -2.4878
  568MOL0     H78340   2.890   7.842   9.108  0.1682 -0.4812 -1.0632
  568MOL0     H78341   2.995   7.975   9.163  0.6756 -0.7598  1.0288
  568MOL0     H78342   2.878   7.849   8.735  1.9627 -0.7185  1.4994
  568MOL0     H78343   2.601   7.908   8.548  0.1738 -1.8592 -1.5254
  568MOL0     H78344   2.577   7.759   8.632 -0.0561  0.4382  0.5643
  568MOL0     H78345   2.741   7.795   8.574 -1.0450  0.6458 -2.7045
  568MOL0     H78346   2.256   7.930   9.027 -0.0586  1.2786  0.2906
  568MOL0     H78347   2.020   7.855   9.053  1.7085 -3.0708 -2.6214
  568MOL0     H78348   1.796   7.814   9.036 -0.6233  0.3537 -0.9586
  568MOL0     H78349   1.817   7.979   9.086  2.5050 -0.5264 -0.5953
  568MOL0     H78350   1.591   7.915   8.911 -1.7678 -0.0673  1.1380
  568MOL0     H78351   1.576   7.832   9.066  3.0081 -1.9571  0.9883
  568MOL0     H78352   1.613   8.139   9.049  0.5555 -0.2330 -0.1980
  568MOL0     H78353   1.577   8.033   9.184  1.2398 -1.4559 -1.2575
  568MOL0     H78354   1.366   7.963   9.069  1.7821 -0.6687 -1.2307
  568MOL0     H78355   1.379   8.096   8.961  1.9114  1.0147 -0.2128
  568MOL0     H78356   1.324   8.101   9.257 -0.0720  1.1201  0.1166
  568MOL0     H78357   1.410   8.238   9.188  1.9616 -0.5718 -1.2032
  568MOL0     H78358   1.143   8.154   9.090 -0.0755  0.3376 -1.0263
  568MOL0     H78359   1.242   8.270   9.007  0.1136  1.0784  0.5650
  568MOL0     H78360   1.061   8.359   9.159  0.5039 -0.1556 -2.2394
  568MOL0     H78361   1.215   8.437   9.184  0.0629  0.3939 -0.0195
  568MOL0     H78362   1.099   8.222   9.378 -2.7808  1.3104 -2.1062
  568MOL0     H78363   1.087   8.384   9.416 -0.8544 -0.1741 -1.2219
  568MOL0     H78364   1.917   8.081   8.700  0.9521 -0.4097 -0.2212
  568MOL0     H78365   2.156   8.118   8.659 -0.9613  0.2865 -1.5977
  568MOL0     H78366   2.539   8.074   9.003  3.2815 -1.9308  5.6395
  568MOL0     H78367   2.782   8.089   9.070 -1.2458  0.9181  0.8183
  568MOL0     H78368   3.385   6.191   9.187 -1.5485 -0.0825  0.0024
  568MOL0     H78369   3.203   6.063   9.092  1.0531  1.5852  2.1048
  568MOL0     H78370   3.057   5.726   8.882 -0.0852 -1.1498 -1.1004
  568MOL0     H78371   2.857   5.582   8.828 -5.0357 -0.0733  0.9572
  568MOL0     H78372   2.745   5.470   8.654 -1.0306  1.3957 -3.3468
  568MOL0     H78373   2.654   5.491   8.806 -2.1176 -0.5897 -0.0816
  568MOL0     H78374   2.555   5.350   8.597 -1.9496 -1.3964  3.8018
  568MOL0     H78375   2.525   5.519   8.532  0.1619  0.1505  0.4361
  568MOL0     H78376   2.427   5.404   8.791  1.8646  1.4131 -0.2401
  568MOL0     H78377   2.384   5.570   8.729 -2.5935  0.2045 -2.8353
  568MOL0     H78378   2.216   5.366   8.708 -0.9918 -2.1703 -1.3920
  568MOL0     H78379   2.331   5.286   8.610 -0.2091  1.0316 -0.7236
  568MOL0     H78380   2.151   5.564   8.344  0.9863  0.0989 -0.8348
  568MOL0     H78381   2.695   5.891   8.594  0.6631 -2.7290 -2.0768
  568MOL0     H78382   2.779   6.096   8.570 -1.8282  0.1034  2.5273
  568MOL0     H78383   2.867   6.158   8.703  2.0672 -0.4466  0.6327
  568MOL0     H78384   2.954   6.100   8.552  1.0794 -1.9454 -0.5056
  569MOL0     O78385   6.234   3.881   9.553  0.5280 -0.4581 -0.4348
  569MOL0     C78386   6.138   3.937   9.611  1.0002 -0.1579 -0.4569
  569MOL0     O78387   6.131   3.952   9.753  0.5473 -0.2952 -0.0491
  569MOL0     C78388   6.246   3.935   9.825  0.0771  0.5135  0.8608
  569MOL0     C78389   6.336   3.824   9.827  0.4222 -0.7713  0.1052
  569MOL0     C78390   6.452   3.819   9.904  0.3368 -0.3684 -0.0164
  569MOL0     C78391   6.484   3.929   9.977  0.2082  0.0651  0.5544
  569MOL0     O78392   6.598   3.944  10.052  1.3314  0.0954  0.2334
  569MOL0     C78393   6.699   3.844  10.045  0.0368 -0.7278 -0.3878
  569MOL0     C78394   6.790   3.883  10.153  0.8868 -0.2881  0.0528
  569MOL0     C78395   6.927   3.803  10.122  0.8286  0.1405  0.1906
  569MOL0     C78396   6.958   3.735  10.258 -0.5679  0.5423  0.0961
  569MOL0     C78397   7.076   3.648  10.250 -0.5697 -0.2950  1.1104
  569MOL0     C78398   7.028   3.507  10.204  0.9571  0.0654  0.4441
  569MOL0     C78399   7.139   3.412  10.127 -0.5115  0.4518 -0.3186
  569MOL0     C78400   7.257   3.366  10.217  0.0126 -0.6051 -0.8289
  569MOL0     N78401   7.343   3.268  10.164 -0.0413  0.1049  0.0064
  569MOL0     C78402   7.477   3.266  10.177  0.5679 -0.1839 -0.1578
  569MOL0     C78403   7.528   3.159  10.115  0.1027 -0.1928 -0.3336
  569MOL0     C78404   7.672   3.119  10.121  0.3210 -0.1077 -0.4919
  569MOL0     C78405   7.752   3.207  10.029 -0.1405 -0.2597 -0.5318
  569MOL0     C78406   7.899   3.175  10.076 -0.3415  0.3089 -0.4512
  569MOL0     C78407   7.997   3.274  10.012  0.4731 -0.1542 -0.1975
  569MOL0     O78408   8.113   3.288  10.096 -0.4226  0.3363 -0.3976
  569MOL0     C78409   8.206   3.393  10.068 -0.4632 -0.3767  1.1002
  569MOL0     C78410   8.317   3.405  10.151 -0.0840  0.8925 -0.4864
  569MOL0     C78411   8.417   3.506  10.142  0.5810 -0.6637 -0.8562
  569MOL0     C78412   8.520   3.509  10.243 -0.3111 -0.1872  0.0406
  569MOL0     C78413   8.404   3.597  10.036  0.0391  0.2439  0.2092
  569MOL0     C78414   8.511   3.698  10.004 -0.6188 -1.0687  0.1129
  569MOL0     O78415   8.468   3.828   9.975  0.1917  0.4115  0.2423
  569MOL0     C78416   8.562   3.909   9.930 -0.6949  0.4902  0.3411
  569MOL0     C78417   8.592   4.029   9.994  0.4257  0.0727 -0.1420
  569MOL0     C78418   8.674   4.115   9.930  0.4531 -0.6876 -0.8147
  569MOL0     C78419   8.733   4.096   9.802  1.1311 -0.1851 -0.2153
  569MOL0     O78420   8.793   4.200   9.735 -0.2785 -0.4754  0.1541
  569MOL0     C78421   8.904   4.256   9.811 -0.4263 -0.3796  0.1189
  569MOL0     C78422   9.040   4.200   9.758  1.1252 -0.4034 -0.2348
  569MOL0     C78423   9.061   4.208   9.599  0.0207  0.1486 -1.1938
  569MOL0     C78424   9.201   4.149   9.569  0.8649  0.0335  0.1498
  569MOL0     C78425   9.291   4.264   9.548  0.2820 -0.4766 -0.2752
  569MOL0     C78426   9.426   4.220   9.497  0.9717  0.1474  0.1204
  569MOL0     C78427   9.531   4.319   9.449  0.5330 -0.3024  0.9348
  569MOL0     C78428   9.671   4.293   9.523  0.6700  1.0382  0.0097
  569MOL0    Cl78429   9.719   4.130   9.483 -0.1113  0.2955 -0.0906
  569MOL0     C78430   8.699   3.973   9.738 -0.6386 -0.6883  0.5659
  569MOL0     C78431   8.613   3.886   9.809 -0.3795 -0.2301  0.2611
  569MOL0     O78432   8.625   3.658  10.007 -0.2036 -0.0892 -0.5993
  569MOL0     C78433   8.294   3.589   9.948  0.0726  0.0829 -0.7871
  569MOL0     C78434   8.190   3.491   9.966  0.1145  0.1107  0.3538
  569MOL0     N78435   7.414   3.100  10.057  0.6572  0.1189  0.0674
  569MOL0     N78436   7.304   3.176  10.072  0.5586 -0.0621 -0.5492
  569MOL0     C78437   6.405   4.044   9.969  0.1938 -0.3944  0.1447
  569MOL0     C78438   6.285   4.046   9.894 -0.0054  0.3609 -0.3710
  569MOL0     C78439   6.010   3.969   9.528 -1.1830  0.2562  0.5467
  569MOL0     C78440   5.892   3.973   9.599  0.3180 -0.0382 -0.5896
  569MOL0     C78441   5.772   3.996   9.532  0.0621 -0.8536 -0.6761
  569MOL0     C78442   5.768   4.030   9.402  0.4041 -0.4205  0.0587
  569MOL0     O78443   5.640   4.071   9.362 -0.5709  0.5830  0.0729
  569MOL0     C78444   5.634   4.105   9.221  0.4670 -0.2038  0.6570
  569MOL0     C78445   5.484   4.132   9.183 -0.1111 -0.1748 -0.0234
  569MOL0     C78446   5.398   4.019   9.198 -0.9906  1.2741 -0.1351
  569MOL0     C78447   5.254   4.055   9.168  1.7062 -0.1753 -0.1643
  569MOL0     C78448   5.198   4.170   9.244 -0.1894 -0.1481 -0.3294
  569MOL0     C78449   5.168   4.261   9.321 -0.2464  0.6148 -0.1319
  569MOL0     C78450   5.892   4.032   9.325  0.1326 -0.3384 -0.6099
  569MOL0     C78451   6.018   3.996   9.387 -1.0557 -0.5674  0.6201
  569MOL0     C78452   6.150   4.002   9.295 -0.3004  0.4226 -0.0158
  569MOL0     H78453   6.313   3.740   9.761 -2.8836  1.0001 -1.2724
  569MOL0     H78454   6.510   3.728   9.892  0.4708 -0.1332 -1.3222
  569MOL0     H78455   6.755   3.849   9.951  0.5770 -0.0078 -0.0290
  569MOL0     H78456   6.659   3.742  10.052  0.3487 -1.0004 -2.1696
  569MOL0     H78457   6.802   3.992  10.153 -0.2198 -0.1210 -1.4274
  569MOL0     H78458   6.743   3.852  10.246 -0.3033  1.1867 -0.0088
  569MOL0     H78459   6.908   3.722  10.051  0.3345 -2.7208  3.3265
  569MOL0     H78460   7.011   3.864  10.087  0.6209 -0.6453 -1.8069
  569MOL0     H78461   6.992   3.821  10.316 -1.5209  0.1901  1.2102
  569MOL0     H78462   6.870   3.687  10.301  0.8475 -0.3633  2.1183
  569MOL0     H78463   7.126   3.643  10.347 -2.8164 -0.9647  2.3119
  569MOL0     H78464   7.150   3.691  10.183 -0.9290 -1.7199 -0.2857
  569MOL0     H78465   6.999   3.443  10.287 -0.2176 -1.2792 -0.9419
  569MOL0     H78466   6.949   3.522  10.130  1.9293  2.9851 -0.1385
  569MOL0     H78467   7.179   3.466  10.041  0.1685  2.7405  1.3347
  569MOL0     H78468   7.086   3.330  10.078  2.5030  0.7293 -4.6429
  569MOL0     H78469   7.320   3.455  10.230  1.5493 -1.4378 -2.1649
  569MOL0     H78470   7.208   3.335  10.309  1.0394 -0.4742 -0.2243
  569MOL0     H78471   7.541   3.331  10.237  0.0570 -1.5733  2.0184
  569MOL0     H78472   7.670   3.013  10.095 -1.9548 -0.2467 -0.0192
  569MOL0     H78473   7.710   3.138  10.222 -2.1658  2.5610  0.1003
  569MOL0     H78474   7.737   3.190   9.922 -2.2768 -1.0862 -0.1491
  569MOL0     H78475   7.718   3.308  10.053 -0.0967 -0.0390 -1.3614
  569MOL0     H78476   7.913   3.205  10.181 -0.8665  0.4047 -0.4071
  569MOL0     H78477   7.928   3.070  10.065 -3.5517 -0.5205 -1.9941
  569MOL0     H78478   8.026   3.245   9.911 -0.6148 -1.8430 -0.0667
  569MOL0     H78479   7.932   3.362  10.004 -0.7594 -0.9393  0.7764
  569MOL0     H78480   8.316   3.324  10.222  0.2064  0.1867 -1.2683
  569MOL0     H78481   8.556   3.612  10.249 -1.9565  0.4952 -0.9926
  569MOL0     H78482   8.597   3.436  10.216 -2.2824 -2.3882  0.0803
  569MOL0     H78483   8.474   3.483  10.338 -1.0303  1.0168  0.0346
  569MOL0     H78484   8.539   4.057  10.085 -1.4164  0.7766 -1.3798
  569MOL0     H78485   8.683   4.219   9.961 -0.2827 -0.6805 -0.6179
  569MOL0     H78486   8.907   4.364   9.795 -0.4576 -0.5942 -1.5743
  569MOL0     H78487   8.896   4.241   9.919  2.4944  2.9009  0.9576
  569MOL0     H78488   9.115   4.266   9.801 -1.7776  2.9215  0.1961
  569MOL0     H78489   9.054   4.096   9.789  0.7011  0.3045  2.6081
  569MOL0     H78490   9.054   4.314   9.574  2.5682  0.3443 -1.3103
  569MOL0     H78491   8.976   4.164   9.545 -1.5717  3.6551 -1.8450
  569MOL0     H78492   9.209   4.092   9.476  1.5498  0.8580 -0.3056
  569MOL0     H78493   9.241   4.082   9.646  0.6693  0.6519  0.8070
  569MOL0     H78494   9.244   4.335   9.478  0.3171  1.8802  1.9488
  569MOL0     H78495   9.298   4.320   9.641  0.3043 -0.1172 -0.4887
  569MOL0     H78496   9.409   4.168   9.402  1.2726  0.7236 -0.2514
  569MOL0     H78497   9.464   4.152   9.573 -0.1255 -0.7562 -0.1069
  569MOL0     H78498   9.516   4.426   9.465  1.8044 -0.0827  0.7474
  569MOL0     H78499   9.529   4.315   9.340 -0.3468 -0.2367  0.9370
  569MOL0     H78500   9.649   4.293   9.630  0.0309  2.8181 -0.0897
  569MOL0     H78501   9.753   4.361   9.497  2.3534 -0.9004  0.0140
  569MOL0     H78502   8.739   3.941   9.643 -5.2747 -1.4417 -1.3854
  569MOL0     H78503   8.579   3.792   9.766  2.2577  0.2733 -3.3242
  569MOL0     H78504   8.277   3.665   9.872 -0.7020  0.1185 -0.5920
  569MOL0     H78505   8.116   3.499   9.887  1.7004 -0.1646 -1.2095
  569MOL0     H78506   6.444   4.133  10.019  1.4188 -1.7915  1.7853
  569MOL0     H78507   6.221   4.134   9.902 -0.0139  0.2319  1.3278
  569MOL0     H78508   5.881   3.950   9.705 -0.1627  1.1015 -0.3826
  569MOL0     H78509   5.681   3.975   9.586  0.9746  0.4890  1.5183
  569MOL0     H78510   5.695   4.193   9.200  0.8319  0.0169  2.4255
  569MOL0     H78511   5.671   4.031   9.150  1.6425  1.6057 -0.7051
  569MOL0     H78512   5.484   4.158   9.077 -0.0333 -2.0028 -0.4961
  569MOL0     H78513   5.456   4.225   9.233  0.8822  1.5085 -2.4120
  569MOL0     H78514   5.431   3.949   9.120  1.0086  2.4419 -0.4013
  569MOL0     H78515   5.414   3.970   9.295 -1.4261  2.2024  0.4227
  569MOL0     H78516   5.181   3.975   9.182  0.5897  0.6184 -1.2584
  569MOL0     H78517   5.252   4.089   9.064  1.5149  0.3225 -0.0015
  569MOL0     H78518   5.152   4.334   9.398  0.0484  1.1088 -0.5355
  569MOL0     H78519   5.893   4.056   9.219 -1.5753 -0.6817 -0.7205
  569MOL0     H78520   6.203   3.906   9.294 -0.8426  0.1155 -1.0969
  569MOL0     H78521   6.123   4.023   9.192 -0.8785 -2.4856 -0.5603
  569MOL0     H78522   6.218   4.083   9.322 -0.7524 -0.1979  3.4349
  570MOL0     O78523   0.779   8.452   1.153 -0.0130 -0.4619  0.2195
  570MOL0     C78524   0.725   8.392   1.058  0.7030 -0.2801 -0.9642
  570MOL0     O78525   0.744   8.418   0.927 -0.2610 -0.3527  0.1182
  570MOL0     C78526   0.859   8.470   0.881 -0.5219 -0.6752  0.7432
  570MOL0     C78527   0.970   8.524   0.953  0.0323 -0.4610  0.4963
  570MOL0     C78528   1.076   8.593   0.894 -1.1701  0.0604  0.2809
  570MOL0     C78529   1.084   8.602   0.754  0.5104  0.4761 -0.8533
  570MOL0     O78530   1.180   8.682   0.698  0.4844  0.2107  0.0215
  570MOL0     C78531   1.176   8.720   0.558  0.3643  0.8562 -0.8687
  570MOL0     C78532   1.310   8.789   0.528  0.2557  0.0358 -0.3374
  570MOL0     C78533   1.437   8.706   0.569  0.8933  0.3251  0.7315
  570MOL0     C78534   1.559   8.762   0.490  0.7784 -0.6414 -0.3839
  570MOL0     C78535   1.689   8.678   0.492 -0.2043  0.8350  0.0613
  570MOL0     C78536   1.754   8.664   0.629  0.2850  0.3874 -0.3532
  570MOL0     C78537   1.902   8.654   0.608 -0.6183  1.5337  0.0113
  570MOL0     C78538   1.958   8.547   0.505 -0.3662 -0.0773  0.1991
  570MOL0     N78539   1.919   8.409   0.534 -0.6843  0.2459  0.0560
  570MOL0     C78540   1.965   8.331   0.642 -0.0224 -0.5738  0.0116
  570MOL0     C78541   1.888   8.223   0.646  0.0125 -0.4794  0.2573
  570MOL0     C78542   1.906   8.107   0.743  0.2194  1.1174 -0.1644
  570MOL0     C78543   1.911   7.966   0.669  0.5042  0.8142  0.1618
  570MOL0     C78544   2.048   7.916   0.630 -0.1307  0.0553  0.0618
  570MOL0     C78545   2.077   7.944   0.482  0.3145 -0.1625  1.1368
  570MOL0     O78546   2.224   7.938   0.462  0.1233 -0.2217  0.0866
  570MOL0     C78547   2.306   8.046   0.456 -0.8915  0.3301  0.2797
  570MOL0     C78548   2.281   8.171   0.511  0.0647  0.1398  0.4330
  570MOL0     C78549   2.378   8.271   0.509  0.1702  0.3414  0.3495
  570MOL0     C78550   2.355   8.400   0.577  1.1188 -0.2480 -0.0098
  570MOL0     C78551   2.506   8.250   0.442  0.1665  0.0066  0.0286
  570MOL0     C78552   2.609   8.353   0.408 -0.9277 -0.2383  0.0401
  570MOL0     O78553   2.727   8.297   0.355 -0.0187 -0.5356  0.1466
  570MOL0     C78554   2.846   8.373   0.327  0.1200 -0.5906  0.0113
  570MOL0     C78555   2.887   8.494   0.390 -0.9482  0.5793 -0.4984
  570MOL0     C78556   3.014   8.546   0.364  0.0938 -0.5361 -0.0942
  570MOL0     C78557   3.101   8.485   0.273  0.1313  0.8436  0.0711
  570MOL0     O78558   3.222   8.544   0.267 -0.5883  0.6996 -0.1123
  570MOL0     C78559   3.330   8.481   0.193  0.3748 -0.9901 -0.7219
  570MOL0     C78560   3.401   8.366   0.266 -0.8854 -0.1152 -0.4567
  570MOL0     C78561   3.494   8.282   0.175  0.6617  0.5764 -0.2369
  570MOL0     C78562   3.450   8.141   0.190  0.7900  0.6777 -0.0629
  570MOL0     C78563   3.555   8.048   0.147 -0.8854 -0.7800 -0.0003
  570MOL0     C78564   3.520   7.897   0.151 -0.1095  1.0750 -0.2200
  570MOL0     C78565   3.389   7.868   0.097 -0.3605  0.5775 -0.3876
  570MOL0     C78566   3.368   7.715   0.090  0.7116  0.8643  0.1337
  570MOL0    Cl78567   3.188   7.677   0.075  0.5315  0.0050  0.4733
  570MOL0     C78568   3.055   8.375   0.197  0.0896 -0.5862 -0.1934
  570MOL0     C78569   2.928   8.323   0.218 -0.2517 -0.3381 -0.7516
  570MOL0     O78570   2.595   8.468   0.437  0.0768  1.0020 -1.0042
  570MOL0     C78571   2.529   8.121   0.391 -0.0447 -0.4095  0.6356
  570MOL0     C78572   2.429   8.020   0.401  0.0287  0.1025  0.1745
  570MOL0     N78573   1.792   8.239   0.549  0.3245  0.2839  0.2317
  570MOL0     N78574   1.805   8.348   0.480  0.3845 -0.2697 -0.0701
  570MOL0     C78575   0.988   8.529   0.679  0.8766 -0.2489 -0.4155
  570MOL0     C78576   0.876   8.467   0.739  0.9706 -0.6192 -0.0143
  570MOL0     C78577   0.623   8.291   1.091  0.3503 -0.3538  0.3506
  570MOL0     C78578   0.528   8.269   0.984  0.0548  0.1551  0.1628
  570MOL0     C78579   0.424   8.176   1.001  1.0606  0.2625 -0.1213
  570MOL0     C78580   0.387   8.125   1.122  0.7996 -0.1337 -0.8216
  570MOL0     O78581   0.289   8.030   1.151  0.2458 -0.3053  0.3277
  570MOL0     C78582   0.165   8.032   1.075  0.3684 -0.6408  0.4764
  570MOL0     C78583   0.137   7.893   1.010  0.1280  0.1671  0.1374
  570MOL0     C78584   0.002   7.885   0.945  0.7678 -0.8923  0.7146
  570MOL0     C78585   0.018   7.953   0.806  1.0276 -0.2035 -0.0567
  570MOL0     C78586  -0.112   7.990   0.744  0.4514 -0.4901 -0.2203
  570MOL0     C78587  -0.222   8.011   0.697 -0.3264 -0.0412  0.4371
  570MOL0     C78588   0.477   8.150   1.229 -0.7109  0.3225  0.0603
  570MOL0     C78589   0.592   8.233   1.214 -0.5466  1.3721  0.8127
  570MOL0     C78590   0.683   8.230   1.338 -0.3728 -0.1715 -0.0453
  570MOL0     H78591   0.973   8.515   1.061 -5.2464  0.0109  0.9180
  570MOL0     H78592   1.146   8.643   0.961  1.7893  1.1692 -3.2780
  570MOL0     H78593   1.092   8.784   0.528 -1.1706 -1.4337 -1.7621
  570MOL0     H78594   1.169   8.622   0.508  0.3407  0.6467 -0.4591
  570MOL0     H78595   1.316   8.815   0.422 -3.1079 -2.5877 -1.3535
  570MOL0     H78596   1.306   8.880   0.590 -2.3084 -1.2453  1.5657
  570MOL0     H78597   1.442   8.713   0.678 -0.8585 -0.8046  0.9246
  570MOL0     H78598   1.423   8.605   0.531 -1.0361  1.4218 -1.7470
  570MOL0     H78599   1.534   8.769   0.384 -0.9656  1.4742  0.0855
  570MOL0     H78600   1.583   8.863   0.527 -1.1918  0.4736 -1.9126
  570MOL0     H78601   1.766   8.725   0.431  2.6399 -1.0308  1.9652
  570MOL0     H78602   1.691   8.579   0.445  2.4464  0.5114  0.6864
  570MOL0     H78603   1.734   8.739   0.706  1.4260  0.4371 -0.0922
  570MOL0     H78604   1.730   8.567   0.675  2.1980 -0.3219 -0.7910
  570MOL0     H78605   1.938   8.631   0.709 -1.1018 -1.4207 -0.4031
  570MOL0     H78606   1.942   8.751   0.577 -0.9903  2.1287  1.3260
  570MOL0     H78607   1.916   8.576   0.408  0.6068 -1.7974 -0.7747
  570MOL0     H78608   2.066   8.560   0.503 -0.4973  1.0253 -0.7882
  570MOL0     H78609   2.045   8.353   0.712  0.1157 -3.3695  0.8504
  570MOL0     H78610   1.823   8.105   0.814 -3.1349  0.9565 -3.7581
  570MOL0     H78611   2.000   8.112   0.799  0.7348 -2.0960 -0.5425
  570MOL0     H78612   1.866   7.890   0.734  0.9682 -0.5149 -1.0051
  570MOL0     H78613   1.846   7.956   0.582  0.4179 -2.5952  0.4823
  570MOL0     H78614   2.132   7.953   0.689  0.4346  0.3103 -0.8752
  570MOL0     H78615   2.040   7.809   0.647 -0.7081  0.3580  1.9169
  570MOL0     H78616   2.033   7.867   0.417  0.2133  2.1442 -1.7243
  570MOL0     H78617   2.044   8.041   0.444 -0.1246 -1.3499 -1.8858
  570MOL0     H78618   2.190   8.180   0.569  1.6746 -1.0054  3.3578
  570MOL0     H78619   2.430   8.416   0.656  2.8705  2.8838 -2.0933
  570MOL0     H78620   2.254   8.406   0.618  0.6339  2.1418 -1.3157
  570MOL0     H78621   2.371   8.492   0.520 -0.1780  0.7820  1.1997
  570MOL0     H78622   2.827   8.543   0.466 -0.3147 -0.1626  0.5120
  570MOL0     H78623   3.044   8.640   0.408  1.4716 -0.8439 -0.3478
  570MOL0     H78624   3.309   8.466   0.087 -1.9883  0.3330 -0.5074
  570MOL0     H78625   3.408   8.558   0.181 -0.7787  0.0377 -2.0101
  570MOL0     H78626   3.472   8.415   0.333  0.0423  1.9184 -2.7685
  570MOL0     H78627   3.330   8.298   0.314 -0.7718  0.9340  1.2639
  570MOL0     H78628   3.598   8.295   0.205  0.7505 -0.5051 -0.0399
  570MOL0     H78629   3.485   8.309   0.069 -0.4830 -3.8435 -1.4708
  570MOL0     H78630   3.371   8.124   0.117  0.8771  0.5778 -0.1342
  570MOL0     H78631   3.421   8.117   0.292  0.0715 -0.6659 -0.5634
  570MOL0     H78632   3.571   8.072   0.041 -0.0899 -3.8933 -0.6935
  570MOL0     H78633   3.650   8.069   0.197 -0.3215  1.3516 -1.8014
  570MOL0     H78634   3.535   7.851   0.249 -6.1911 -3.5971 -0.8759
  570MOL0     H78635   3.595   7.858   0.082  0.6438  1.1552  0.5254
  570MOL0     H78636   3.370   7.919   0.002 -2.6234 -0.1057 -0.3733
  570MOL0     H78637   3.305   7.906   0.157 -0.8922  1.7030 -1.7729
  570MOL0     H78638   3.404   7.674   0.185  0.9908  1.5244  0.3184
  570MOL0     H78639   3.415   7.663   0.007 -1.1064  0.8589 -0.9531
  570MOL0     H78640   3.111   8.345   0.109  0.6356  1.4211 -0.5835
  570MOL0     H78641   2.895   8.242   0.153  2.2005  0.2893 -2.8863
  570MOL0     H78642   2.617   8.090   0.337 -0.3335 -0.3826  0.1473
  570MOL0     H78643   2.449   7.918   0.372 -0.3476 -0.3242  1.3644
  570MOL0     H78644   0.989   8.522   0.570 -0.5773  0.2335 -0.4757
  570MOL0     H78645   0.800   8.423   0.675 -0.2742 -0.2232  1.1338
  570MOL0     H78646   0.540   8.308   0.883 -0.2459 -1.5735 -0.5638
  570MOL0     H78647   0.363   8.162   0.912 -2.6526 -0.3533  2.3012
  570MOL0     H78648   0.082   8.047   1.143  1.0914 -2.8379  1.9457
  570MOL0     H78649   0.167   8.114   1.002 -0.8138 -3.1503 -2.6510
  570MOL0     H78650   0.143   7.819   1.090  1.9613 -2.0224 -1.8747
  570MOL0     H78651   0.218   7.863   0.943  0.5438  1.5544 -0.0145
  570MOL0     H78652  -0.006   7.778   0.927  2.3116 -1.2347  1.8875
  570MOL0     H78653  -0.083   7.921   1.003 -1.7183 -0.6177 -2.7903
  570MOL0     H78654   0.084   7.888   0.747 -1.2671 -1.4499 -1.4048
  570MOL0     H78655   0.074   8.047   0.808  1.4612 -0.4421 -0.4894
  570MOL0     H78656  -0.316   8.034   0.650 -0.8516 -0.0231  1.4619
  570MOL0     H78657   0.456   8.098   1.322  1.3888  3.2542  2.4129
  570MOL0     H78658   0.702   8.331   1.377 -1.2853  0.6122 -1.5646
  570MOL0     H78659   0.628   8.184   1.421 -2.7793  3.3065  0.4964
  570MOL0     H78660   0.776   8.175   1.318 -0.8521  0.1002 -3.5572
  571MOL0     O78661   7.861   5.619   2.221 -0.3336 -0.5437  0.1364
  571MOL0     C78662   7.820   5.528   2.154 -0.0466  0.5789  0.0621
  571MOL0     O78663   7.693   5.477   2.148 -0.4426 -0.4375  0.7512
  571MOL0     C78664   7.601   5.520   2.235 -0.4570  0.1935  0.3777
  571MOL0     C78665   7.472   5.498   2.191  0.3656 -0.1621 -0.5195
  571MOL0     C78666   7.356   5.521   2.271 -0.5898 -0.6374 -0.8128
  571MOL0     C78667   7.375   5.573   2.406 -0.2031 -0.4803  0.4395
  571MOL0     O78668   7.270   5.617   2.482  0.0061 -0.4393  0.0697
  571MOL0     C78669   7.162   5.521   2.507 -0.7625  0.1841 -0.3402
  571MOL0     C78670   7.105   5.576   2.641 -1.4545 -0.0645  1.1027
  571MOL0     C78671   6.972   5.515   2.669 -0.0109 -0.2507  0.4821
  571MOL0     C78672   6.907   5.574   2.796  0.3126 -0.5952  0.5823
  571MOL0     C78673   6.760   5.529   2.813  0.3744  0.1894 -0.0274
  571MOL0     C78674   6.679   5.633   2.893 -0.5320  0.3002 -0.2008
  571MOL0     C78675   6.555   5.580   2.945  0.4645 -1.2984  0.0990
  571MOL0     C78676   6.503   5.681   3.052  0.1242  0.3174 -0.1473
  571MOL0     N78677   6.377   5.632   3.112  0.9193  0.2325  0.0146
  571MOL0     C78678   6.359   5.509   3.177  0.5129  0.1095  0.2252
  571MOL0     C78679   6.233   5.525   3.221 -0.6107 -0.2514  0.3492
  571MOL0     C78680   6.157   5.439   3.311 -0.8223  0.4623 -0.8705
  571MOL0     C78681   6.229   5.423   3.441 -0.0976 -0.1803 -1.2357
  571MOL0     C78682   6.157   5.310   3.520  0.0040 -0.3482  0.0229
  571MOL0     C78683   6.156   5.168   3.461 -0.0188 -0.2474  0.2830
  571MOL0     O78684   6.287   5.117   3.458  0.0050 -0.0596  0.0534
  571MOL0     C78685   6.368   5.142   3.352  0.3842 -0.1871 -0.1420
  571MOL0     C78686   6.331   5.116   3.213  0.0350 -0.1042  1.1843
  571MOL0     C78687   6.420   5.120   3.110 -0.1797  0.2651 -1.0911
  571MOL0     C78688   6.360   5.093   2.966 -0.6955  0.1076  0.4622
  571MOL0     C78689   6.561   5.154   3.138  0.4117  0.3297  0.3982
  571MOL0     C78690   6.670   5.162   3.034  0.2210 -0.0412  0.1355
  571MOL0     O78691   6.796   5.145   3.078  0.1431 -0.4781  0.0898
  571MOL0     C78692   6.909   5.167   3.001 -0.2532 -0.5790 -0.0976
  571MOL0     C78693   6.934   5.102   2.880 -0.1524  0.0635  0.4682
  571MOL0     C78694   7.051   5.124   2.800  0.7732 -0.0164  0.2939
  571MOL0     C78695   7.142   5.226   2.834 -0.3891  0.2362  0.2080
  571MOL0     O78696   7.250   5.254   2.755  0.0651 -0.2059  0.4969
  571MOL0     C78697   7.377   5.262   2.821 -0.6432 -0.8742 -0.2811
  571MOL0     C78698   7.475   5.297   2.707  0.0951 -0.1442 -0.2151
  571MOL0     C78699   7.489   5.185   2.600  0.2505 -0.5578 -0.5154
  571MOL0     C78700   7.593   5.225   2.493 -0.4335 -0.4685  0.9007
  571MOL0     C78701   7.666   5.100   2.436 -0.0304 -0.2662 -0.1951
  571MOL0     C78702   7.787   5.157   2.363  0.4201  0.0229  0.2674
  571MOL0     C78703   7.869   5.050   2.304 -0.1846  0.0028 -0.7811
  571MOL0     C78704   8.018   5.096   2.294  0.5024 -0.1647 -0.2681
  571MOL0    Cl78705   8.110   4.954   2.211  0.1769 -0.0601  0.0974
  571MOL0     C78706   7.119   5.288   2.954 -0.0290 -1.0027 -0.7900
  571MOL0     C78707   7.003   5.266   3.033  1.4511 -0.1222  0.0882
  571MOL0     O78708   6.640   5.177   2.917  0.4318 -0.7468  0.1566
  571MOL0     C78709   6.599   5.156   3.274  0.5527  0.4847 -1.1384
  571MOL0     C78710   6.507   5.154   3.376 -0.3356 -0.1498 -0.1915
  571MOL0     N78711   6.170   5.638   3.176 -0.1050 -0.3727 -0.4825
  571MOL0     N78712   6.261   5.699   3.116 -0.1064 -0.0772  0.0931
  571MOL0     C78713   7.505   5.591   2.450 -0.4336 -0.8065 -0.3491
  571MOL0     C78714   7.617   5.550   2.370  1.4511  0.0032 -0.4067
  571MOL0     C78715   7.909   5.475   2.051  0.2190 -0.3350 -0.3384
  571MOL0     C78716   7.850   5.441   1.928  0.5195  1.2918  0.4387
  571MOL0     C78717   7.920   5.400   1.812  0.1258  0.8340  0.0083
  571MOL0     C78718   8.058   5.411   1.815 -0.2381  0.0276 -0.2831
  571MOL0     O78719   8.115   5.387   1.695 -0.5905 -0.1896 -0.2699
  571MOL0     C78720   8.257   5.422   1.676  0.2432 -0.8170  0.8165
  571MOL0     C78721   8.274   5.574   1.644  0.4135 -0.0275  0.4230
  571MOL0     C78722   8.414   5.590   1.610  0.0050 -1.3421  1.2270
  571MOL0     C78723   8.428   5.703   1.503  0.1447  0.6395 -0.7408
  571MOL0     C78724   8.569   5.718   1.474 -0.3767  0.3752 -0.5615
  571MOL0     C78725   8.689   5.743   1.452 -0.5120  0.0842 -0.2597
  571MOL0     C78726   8.125   5.436   1.937 -0.0825 -0.3180 -0.2330
  571MOL0     C78727   8.054   5.457   2.060 -0.5589  1.2383 -0.7129
  571MOL0     C78728   8.133   5.490   2.178 -0.3531 -0.6897  0.0926
  571MOL0     H78729   7.452   5.451   2.095 -0.1470  2.3469 -1.7109
  571MOL0     H78730   7.253   5.507   2.242 -1.5394  2.1320  0.9226
  571MOL0     H78731   7.210   5.424   2.521  0.7988  0.6523 -2.0929
  571MOL0     H78732   7.086   5.521   2.428  1.6616 -1.7483 -2.8718
  571MOL0     H78733   7.177   5.534   2.712  0.6752  0.7088 -0.4731
  571MOL0     H78734   7.097   5.684   2.654 -1.6874 -0.1013  1.2815
  571MOL0     H78735   6.901   5.523   2.586 -1.9556 -4.8560  1.4234
  571MOL0     H78736   6.991   5.410   2.692  1.4325 -0.3127 -0.8476
  571MOL0     H78737   6.965   5.560   2.887 -0.0858  0.9799  1.1181
  571MOL0     H78738   6.914   5.683   2.786  2.3371 -0.8537 -1.7260
  571MOL0     H78739   6.760   5.433   2.867  2.3362  1.4382  2.4122
  571MOL0     H78740   6.712   5.512   2.716  0.2770  0.2687  0.0068
  571MOL0     H78741   6.737   5.666   2.979 -1.2271  2.1880 -0.4191
  571MOL0     H78742   6.649   5.721   2.836  0.3314  1.3528  0.9209
  571MOL0     H78743   6.579   5.486   2.996 -0.2486 -0.8444  1.3142
  571MOL0     H78744   6.484   5.567   2.862 -3.7442  0.6179  3.0560
  571MOL0     H78745   6.570   5.696   3.137 -2.2461  3.3489  1.3957
  571MOL0     H78746   6.492   5.776   2.999  0.6195  1.3004  1.4566
  571MOL0     H78747   6.433   5.437   3.207  1.2113  0.1182 -1.3748
  571MOL0     H78748   6.141   5.340   3.267 -1.8141  1.0085 -1.7786
  571MOL0     H78749   6.059   5.480   3.335 -0.7382  1.0718 -1.5391
  571MOL0     H78750   6.332   5.393   3.421 -0.1165  0.2629 -2.0056
  571MOL0     H78751   6.227   5.521   3.488  1.4760  1.4315 -4.2238
  571MOL0     H78752   6.191   5.315   3.623 -0.0897  0.4841  0.0176
  571MOL0     H78753   6.049   5.327   3.523  0.0421 -0.1578  0.3103
  571MOL0     H78754   6.098   5.105   3.529 -0.7835  1.9891  1.8227
  571MOL0     H78755   6.113   5.157   3.361  1.0260 -2.5511  0.0010
  571MOL0     H78756   6.226   5.095   3.198 -1.0384  3.4369  2.8317
  571MOL0     H78757   6.431   5.034   2.907 -1.6326  0.3607 -0.9732
  571MOL0     H78758   6.330   5.185   2.915 -1.2553  0.8141  2.0052
  571MOL0     H78759   6.272   5.028   2.964  0.7363 -1.9273 -1.4662
  571MOL0     H78760   6.854   5.036   2.848 -1.2503  2.1271 -1.2436
  571MOL0     H78761   7.064   5.072   2.706 -1.1987  2.6089 -1.5843
  571MOL0     H78762   7.396   5.338   2.898  1.8288 -2.8225  1.1695
  571MOL0     H78763   7.397   5.165   2.868 -0.3296 -0.7179 -0.0853
  571MOL0     H78764   7.452   5.390   2.654  0.1165 -0.6582 -1.1611
  571MOL0     H78765   7.570   5.312   2.759 -1.5893 -1.2268  3.5248
  571MOL0     H78766   7.389   5.163   2.561  0.0871 -1.3119  0.3040
  571MOL0     H78767   7.506   5.090   2.651 -0.2035  1.3373  3.6119
  571MOL0     H78768   7.663   5.292   2.543  0.0694  0.2252 -0.6946
  571MOL0     H78769   7.553   5.293   2.418  0.1149  0.7970  1.7179
  571MOL0     H78770   7.699   5.028   2.511  3.3002  1.1066 -0.1701
  571MOL0     H78771   7.602   5.045   2.367 -0.4032 -0.0922  0.0085
  571MOL0     H78772   7.856   5.198   2.438  1.2565 -0.9273  0.0327
  571MOL0     H78773   7.760   5.229   2.285 -2.3366 -0.6053  0.5426
  571MOL0     H78774   7.827   5.030   2.205 -2.2083 -1.1891  0.2579
  571MOL0     H78775   7.868   4.959   2.366 -1.5692 -0.1760 -1.0285
  571MOL0     H78776   8.058   5.127   2.391  0.7819  1.0210 -0.7507
  571MOL0     H78777   8.029   5.185   2.232 -3.4907 -0.0252 -1.0121
  571MOL0     H78778   7.194   5.361   2.984 -0.5883 -0.9048  0.4476
  571MOL0     H78779   6.990   5.319   3.127 -2.8939  1.5177 -1.1832
  571MOL0     H78780   6.702   5.149   3.306  1.0318  3.3262 -1.7815
  571MOL0     H78781   6.537   5.149   3.480 -1.4361  0.8407  0.2060
  571MOL0     H78782   7.507   5.624   2.554 -0.2401  2.3320 -1.2281
  571MOL0     H78783   7.714   5.560   2.419  0.1511  1.2355  2.1535
  571MOL0     H78784   7.743   5.430   1.911  0.5329  2.0588 -0.1649
  571MOL0     H78785   7.865   5.374   1.722 -0.6166  2.7251 -0.1352
  571MOL0     H78786   8.323   5.402   1.761  2.7045  2.1088 -0.1919
  571MOL0     H78787   8.291   5.365   1.589  0.9465 -2.1946  1.9608
  571MOL0     H78788   8.272   5.622   1.743 -0.2463  0.4212  0.1994
  571MOL0     H78789   8.196   5.630   1.592  0.9356 -0.5859 -0.9988
  571MOL0     H78790   8.473   5.623   1.696  2.5899  0.3854 -1.0366
  571MOL0     H78791   8.463   5.503   1.566 -2.5058 -1.4308 -1.6759
  571MOL0     H78792   8.391   5.795   1.551 -2.2404 -2.3952  3.9779
  571MOL0     H78793   8.362   5.689   1.417  1.0072  0.5295 -1.4069
  571MOL0     H78794   8.790   5.767   1.425 -0.8940  1.0701 -0.8340
  571MOL0     H78795   8.230   5.464   1.937  0.1870 -1.2812 -0.4859
  571MOL0     H78796   8.080   5.470   2.273  0.7339 -0.8733  0.6761
  571MOL0     H78797   8.228   5.436   2.180  1.4935  2.3834 -0.0548
  571MOL0     H78798   8.155   5.597   2.176  2.2412 -1.0862  1.9204
  572MOL0     O78799  11.322   6.615   2.276  0.4440  0.6461  0.3985
  572MOL0     C78800  11.244   6.622   2.182  0.2924 -0.3855  1.3038
  572MOL0     O78801  11.112   6.669   2.193  0.1314 -0.8832  0.1827
  572MOL0     C78802  11.068   6.740   2.300  0.4864  0.7620 -0.2538
  572MOL0     C78803  10.931   6.749   2.336 -0.1078 -0.3485  0.3157
  572MOL0     C78804  10.888   6.821   2.448  0.2591 -0.4135 -0.0339
  572MOL0     C78805  10.976   6.902   2.517 -0.2088 -0.9115 -0.8558
  572MOL0     O78806  10.928   6.997   2.612  0.0630 -0.2026 -0.6425
  572MOL0     C78807  10.840   6.950   2.709 -0.6148 -0.4180 -0.9969
  572MOL0     C78808  10.863   7.021   2.839 -0.0771 -0.3329  0.5939
  572MOL0     C78809  10.763   6.992   2.950  0.1035  0.4792  0.3128
  572MOL0     C78810  10.750   6.848   2.995  0.8513 -0.0244 -0.2492
  572MOL0     C78811  10.634   6.816   3.087 -0.2823  0.4851 -0.1159
  572MOL0     C78812  10.606   6.662   3.078 -0.1294  0.5309  0.6457
  572MOL0     C78813  10.693   6.594   3.181  0.7467 -0.0826 -0.1334
  572MOL0     C78814  10.626   6.472   3.240  0.4447 -0.3115 -1.0758
  572MOL0     N78815  10.621   6.364   3.140 -0.3039  0.4138 -0.4039
  572MOL0     C78816  10.506   6.318   3.076 -0.6341  0.6243  0.5029
  572MOL0     C78817  10.551   6.212   3.004  0.3569 -0.2641  0.5346
  572MOL0     C78818  10.461   6.131   2.914  0.7508  0.1588  0.0251
  572MOL0     C78819  10.452   6.205   2.778 -0.5541 -0.0111 -0.9008
  572MOL0     C78820  10.378   6.105   2.690  0.4915  0.1927 -0.1392
  572MOL0     C78821  10.345   6.166   2.546 -0.0643 -0.0673 -0.9568
  572MOL0     O78822  10.467   6.165   2.473  0.2392 -0.0053 -0.7827
  572MOL0     C78823  10.467   6.111   2.352  0.7816  0.4074  0.1111
  572MOL0     C78824  10.372   6.020   2.303 -0.6555  0.3334  0.4468
  572MOL0     C78825  10.387   5.962   2.180  0.4077 -0.2306 -0.0732
  572MOL0     C78826  10.289   5.860   2.138  0.9796  0.3398  0.8765
  572MOL0     C78827  10.489   6.011   2.092  0.3014  0.1594 -0.0129
  572MOL0     C78828  10.511   5.962   1.952  0.0457 -0.1021  0.8015
  572MOL0     O78829  10.414   5.896   1.886 -0.3765 -0.2263 -0.4438
  572MOL0     C78830  10.443   5.843   1.763  0.1878  0.1658 -0.0465
  572MOL0     C78831  10.472   5.926   1.653 -0.1008  0.0515 -0.2710
  572MOL0     C78832  10.506   5.868   1.534  0.5119 -0.0401 -0.0970
  572MOL0     C78833  10.512   5.728   1.518 -0.1287 -0.0024  0.7233
  572MOL0     O78834  10.518   5.681   1.384 -0.5424  0.6965  0.2831
  572MOL0     C78835  10.548   5.539   1.376  0.1122 -0.0720 -0.5081
  572MOL0     C78836  10.553   5.517   1.220 -0.3690  0.2487  0.6172
  572MOL0     C78837  10.680   5.593   1.171  0.0429 -0.3181 -0.0035
  572MOL0     C78838  10.682   5.596   1.018  0.4368  0.4547  0.7332
  572MOL0     C78839  10.773   5.706   0.967  0.1191  0.9965  0.4489
  572MOL0     C78840  10.924   5.680   0.989  0.3574  0.5072  0.1929
  572MOL0     C78841  10.969   5.546   0.925 -0.2644  0.1385 -0.2934
  572MOL0     C78842  11.113   5.543   0.893  0.0185  0.7910 -0.0103
  572MOL0    Cl78843  11.161   5.623   0.737  0.1255  0.1547  0.0209
  572MOL0     C78844  10.495   5.647   1.628 -0.3690 -0.2324 -0.7235
  572MOL0     C78845  10.455   5.706   1.749 -0.3298  0.2613 -0.5870
  572MOL0     O78846  10.620   5.985   1.902 -0.2636 -0.0605 -0.7150
  572MOL0     C78847  10.580   6.109   2.137  0.0293  0.1960 -0.7061
  572MOL0     C78848  10.567   6.151   2.268 -0.5065 -0.0200 -0.0033
  572MOL0     N78849  10.686   6.196   3.027  0.0904 -0.2986  0.0954
  572MOL0     N78850  10.726   6.280   3.107 -0.3550  0.0308 -0.0094
  572MOL0     C78851  11.116   6.902   2.479  0.3103  0.0228 -0.3399
  572MOL0     C78852  11.161   6.824   2.371  0.0149  0.1697 -0.1782
  572MOL0     C78853  11.274   6.573   2.044 -0.4161 -0.6477  0.1413
  572MOL0     C78854  11.159   6.544   1.960 -0.9941 -0.4972  0.3620
  572MOL0     C78855  11.178   6.490   1.832 -0.7007 -0.2556 -0.9627
  572MOL0     C78856  11.304   6.459   1.787 -0.1372 -0.3722  0.6412
  572MOL0     O78857  11.314   6.403   1.666 -0.4329  0.3514  0.7143
  572MOL0     C78858  11.340   6.262   1.652 -0.0256 -0.7607 -0.9512
  572MOL0     C78859  11.207   6.190   1.624  0.2420 -0.5331  0.4180
  572MOL0     C78860  11.136   6.261   1.506 -0.6325 -0.4783  0.3314
  572MOL0     C78861  11.181   6.202   1.378  0.1480 -0.3454  0.0791
  572MOL0     C78862  11.236   6.304   1.284 -0.1604  0.3089  0.0848
  572MOL0     C78863  11.299   6.380   1.213  0.7595 -0.2916  0.3034
  572MOL0     C78864  11.416   6.496   1.861 -1.5537 -0.4087  0.3206
  572MOL0     C78865  11.401   6.551   1.990  0.0914 -0.1507 -0.7461
  572MOL0     C78866  11.525   6.593   2.072  0.4728  0.1206 -0.3287
  572MOL0     H78867  10.859   6.681   2.291  0.2862  0.8772 -2.3726
  572MOL0     H78868  10.780   6.821   2.462  0.1671  1.3892 -0.4466
  572MOL0     H78869  10.866   6.844   2.720 -2.7458 -0.9314 -0.3830
  572MOL0     H78870  10.737   6.956   2.672 -0.4762 -1.9679 -1.7379
  572MOL0     H78871  10.965   7.008   2.878 -0.1623  2.8852  2.2437
  572MOL0     H78872  10.845   7.126   2.816  0.8085 -0.0422  1.1517
  572MOL0     H78873  10.794   7.045   3.041  1.9546 -0.7412  0.4505
  572MOL0     H78874  10.662   7.019   2.917 -1.6752 -3.3770  1.9695
  572MOL0     H78875  10.748   6.786   2.906  1.6771  1.5254 -1.3910
  572MOL0     H78876  10.846   6.818   3.038  0.8937 -1.4715 -1.3092
  572MOL0     H78877  10.542   6.870   3.065 -1.4025 -0.8880  1.0122
  572MOL0     H78878  10.664   6.850   3.187  0.9514 -0.5732 -0.0900
  572MOL0     H78879  10.500   6.646   3.098 -0.4688 -0.3498 -1.6252
  572MOL0     H78880  10.622   6.618   2.980 -4.3655 -0.4548  0.1983
  572MOL0     H78881  10.712   6.664   3.263 -2.9040  0.2283  0.6569
  572MOL0     H78882  10.788   6.576   3.131 -1.3061  2.7315 -5.9213
  572MOL0     H78883  10.678   6.441   3.331  0.9865  3.5131  0.0803
  572MOL0     H78884  10.520   6.486   3.263  0.7752 -1.5198  1.5166
  572MOL0     H78885  10.411   6.371   3.075  0.5133  2.7864  0.2884
  572MOL0     H78886  10.361   6.123   2.956 -1.4240  2.3568 -4.0905
  572MOL0     H78887  10.510   6.034   2.909 -1.0635 -0.8011  0.2976
  572MOL0     H78888  10.399   6.301   2.784  1.6499  1.3942 -2.4596
  572MOL0     H78889  10.556   6.215   2.745  0.0670 -2.5827  0.0116
  572MOL0     H78890  10.445   6.019   2.685  0.7857  0.2738  1.8528
  572MOL0     H78891  10.287   6.067   2.737  0.9375 -1.3632 -0.4682
  572MOL0     H78892  10.258   6.130   2.490  0.1102  3.6207 -4.0106
  572MOL0     H78893  10.319   6.269   2.575  0.0581 -0.4361  0.5454
  572MOL0     H78894  10.295   5.982   2.369 -0.5362  0.6108  0.7502
  572MOL0     H78895  10.221   5.827   2.217 -1.2532 -0.5737 -1.3041
  572MOL0     H78896  10.340   5.770   2.102 -1.4015 -0.9188  0.4967
  572MOL0     H78897  10.228   5.891   2.053 -0.4198 -3.6268  0.2376
  572MOL0     H78898  10.480   6.033   1.669  0.9517  0.0666 -0.8126
  572MOL0     H78899  10.531   5.929   1.447  0.2834  1.4874  0.8688
  572MOL0     H78900  10.634   5.512   1.439 -0.4339 -0.6381  0.0092
  572MOL0     H78901  10.462   5.477   1.402 -0.4538 -0.0255 -2.1568
  572MOL0     H78902  10.558   5.414   1.185  4.1048 -0.1825  1.9492
  572MOL0     H78903  10.468   5.572   1.177 -0.4612 -0.1200  0.3198
  572MOL0     H78904  10.766   5.541   1.215  0.6573  1.0529  0.4882
  572MOL0     H78905  10.677   5.698   1.202 -2.3377 -0.0096 -1.0969
  572MOL0     H78906  10.581   5.614   0.981 -0.5017 -1.5041  2.1291
  572MOL0     H78907  10.708   5.498   0.977 -2.5113  0.5870 -1.7027
  572MOL0     H78908  10.757   5.712   0.859  0.4199 -2.6094  0.0856
  572MOL0     H78909  10.748   5.800   1.016 -0.6554  0.0740  1.8677
  572MOL0     H78910  10.943   5.670   1.097  1.3356 -3.0867 -0.2099
  572MOL0     H78911  10.978   5.763   0.943  1.0304  0.0431  0.1343
  572MOL0     H78912  10.903   5.517   0.842 -0.5584  1.6809 -0.6324
  572MOL0     H78913  10.965   5.479   1.010  1.2757  0.6437  0.2202
  572MOL0     H78914  11.138   5.438   0.877  1.4898  1.0324  0.5179
  572MOL0     H78915  11.174   5.568   0.980 -0.8275  0.5896  0.6550
  572MOL0     H78916  10.484   5.539   1.616 -0.5926 -0.7625  3.0804
  572MOL0     H78917  10.434   5.649   1.839  1.0521  1.4022  0.5224
  572MOL0     H78918  10.657   6.162   2.083  0.8082 -0.1658  0.0232
  572MOL0     H78919  10.647   6.210   2.311 -1.9219 -1.0226  4.5883
  572MOL0     H78920  11.190   6.959   2.534  1.1724 -1.1041 -0.2841
  572MOL0     H78921  11.267   6.806   2.358 -0.3182 -1.8494 -0.3691
  572MOL0     H78922  11.057   6.571   1.982  0.0171  1.7415  2.9566
  572MOL0     H78923  11.085   6.466   1.782 -2.3288 -1.6218  2.3903
  572MOL0     H78924  11.406   6.230   1.571  0.3851  0.6743 -1.2203
  572MOL0     H78925  11.375   6.224   1.748  1.2829  1.3652 -0.5125
  572MOL0     H78926  11.141   6.190   1.711  0.9535 -0.6128  0.9722
  572MOL0     H78927  11.227   6.084   1.604  0.8224 -0.9005  2.6443
  572MOL0     H78928  11.029   6.242   1.512 -1.2322  2.4599  0.5684
  572MOL0     H78929  11.151   6.369   1.514  3.5271 -1.0003  3.8218
  572MOL0     H78930  11.106   6.139   1.329  0.4556  0.0378 -0.9080
  572MOL0     H78931  11.263   6.134   1.406 -1.7849 -1.2196  4.4764
  572MOL0     H78932  11.358   6.439   1.147 -0.0573  1.2495  0.8956
  572MOL0     H78933  11.519   6.498   1.827 -1.4141 -0.2949  0.7423
  572MOL0     H78934  11.604   6.622   2.002  0.9236  1.7162  0.7728
  572MOL0     H78935  11.492   6.684   2.123 -0.6122 -1.4754  1.9657
  572MOL0     H78936  11.562   6.519   2.143  2.1501  0.7929 -0.4714
  573MOL0     O78937   6.605   5.306   9.264 -0.0425  0.1323 -0.0965
  573MOL0     C78938   6.566   5.307   9.384 -0.7795  0.1144  0.7348
  573MOL0     O78939   6.630   5.238   9.484 -0.1726  0.1286  0.6152
  573MOL0     C78940   6.736   5.165   9.459 -0.3406  0.3332 -0.4099
  573MOL0     C78941   6.761   5.081   9.352  0.0922 -0.1395  0.3907
  573MOL0     C78942   6.885   5.020   9.335 -0.0128  0.3471  0.1223
  573MOL0     C78943   6.986   5.023   9.432  0.3217 -1.1906 -0.2184
  573MOL0     O78944   7.107   4.962   9.414  0.1795  0.5493 -0.0241
  573MOL0     C78945   7.157   4.999   9.283 -0.3384 -0.5703 -0.7048
  573MOL0     C78946   7.309   4.991   9.281  0.1030  0.4310 -0.4529
  573MOL0     C78947   7.381   5.060   9.390  0.4056  0.1445  0.0711
  573MOL0     C78948   7.530   5.073   9.344 -0.6073  0.3026 -0.2547
  573MOL0     C78949   7.628   5.080   9.473  0.5050 -0.2704 -0.2001
  573MOL0     C78950   7.767   5.041   9.421 -0.7154  0.7034  0.0267
  573MOL0     C78951   7.865   5.036   9.529 -0.0258 -0.2237  0.1983
  573MOL0     C78952   7.862   5.141   9.634 -0.4698  0.4527 -1.0197
  573MOL0     N78953   7.987   5.139   9.718 -0.0355  0.1211  0.8567
  573MOL0     C78954   8.079   5.234   9.697  0.1449 -0.4598  0.0130
  573MOL0     C78955   8.178   5.206   9.781  0.7868 -0.3343 -0.7275
  573MOL0     C78956   8.300   5.290   9.820  0.5920  0.0058 -0.3562
  573MOL0     C78957   8.391   5.296   9.699 -0.5092  0.2961 -0.0424
  573MOL0     C78958   8.525   5.333   9.758  0.2213  0.3903 -0.2530
  573MOL0     C78959   8.636   5.349   9.643 -0.1380 -0.4207 -1.0403
  573MOL0     O78960   8.656   5.228   9.573  0.9348 -0.5317 -0.6165
  573MOL0     C78961   8.765   5.226   9.493 -0.3028  0.9598  0.2544
  573MOL0     C78962   8.825   5.102   9.466  0.6601  0.2002  0.0867
  573MOL0     C78963   8.944   5.087   9.394 -0.0649  0.8545  0.8954
  573MOL0     C78964   8.998   4.947   9.390 -0.1315 -0.6797 -0.1972
  573MOL0     C78965   8.999   5.195   9.344 -0.4990 -0.3479 -0.0229
  573MOL0     C78966   9.130   5.197   9.268  0.4525  0.4147 -0.3107
  573MOL0     O78967   9.186   5.312   9.234  0.7038 -0.0916  0.4663
  573MOL0     C78968   9.300   5.312   9.164 -0.5785 -0.2038  0.3025
  573MOL0     C78969   9.300   5.386   9.047 -0.6114 -1.3319 -0.0255
  573MOL0     C78970   9.420   5.409   8.972 -0.2863  0.3420 -0.0751
  573MOL0     C78971   9.538   5.360   9.022 -1.3696 -0.2685 -0.2928
  573MOL0     O78972   9.655   5.351   8.959 -0.1956 -0.0827  0.4659
  573MOL0     C78973   9.680   5.453   8.859  0.1051 -0.1845  0.1842
  573MOL0     C78974   9.819   5.433   8.804  0.3536  0.3878 -0.5338
  573MOL0     C78975   9.856   5.561   8.729  0.8985  0.3667  0.8131
  573MOL0     C78976   9.799   5.569   8.585 -0.6156 -0.2908 -0.7540
  573MOL0     C78977   9.827   5.706   8.522  0.5660  0.3516  1.1998
  573MOL0     C78978   9.969   5.740   8.504 -0.8012  0.0629 -0.5769
  573MOL0     C78979  10.002   5.852   8.407  1.2480  0.6225 -0.5122
  573MOL0     C78980   9.935   5.981   8.450  0.9628 -0.8878 -0.0080
  573MOL0    Cl78981   9.949   6.100   8.317 -0.1872 -0.4461 -0.1326
  573MOL0     C78982   9.531   5.275   9.130 -0.6641 -0.5126 -0.5463
  573MOL0     C78983   9.417   5.253   9.205  0.1406  0.3244  1.0630
  573MOL0     O78984   9.174   5.091   9.231 -0.7229 -0.4499  0.4395
  573MOL0     C78985   8.935   5.315   9.350  0.2181 -0.5343  0.6268
  573MOL0     C78986   8.825   5.338   9.432 -0.0315  0.3364 -0.2422
  573MOL0     N78987   8.148   5.090   9.845  0.6909 -0.3718 -0.1385
  573MOL0     N78988   8.027   5.059   9.816 -0.3360  0.1396  1.1432
  573MOL0     C78989   6.957   5.094   9.541  0.0096 -0.0671 -0.4313
  573MOL0     C78990   6.834   5.164   9.558  0.3925 -0.6325 -0.2356
  573MOL0     C78991   6.433   5.371   9.422 -0.1458 -0.2302 -0.0420
  573MOL0     C78992   6.382   5.337   9.550  0.5474 -0.8276 -0.2199
  573MOL0     C78993   6.265   5.397   9.596 -0.6105 -0.9719  0.3350
  573MOL0     C78994   6.189   5.495   9.522 -0.7901  0.1568 -0.1717
  573MOL0     O78995   6.070   5.553   9.580 -0.0168 -0.5498  0.6842
  573MOL0     C78996   5.950   5.521   9.508 -0.2045  0.3188  1.1680
  573MOL0     C78997   5.831   5.602   9.544  0.3087 -0.0401 -0.1841
  573MOL0     C78998   5.817   5.649   9.700  0.4486 -0.1452  0.2473
  573MOL0     C78999   5.888   5.778   9.734  0.1972 -0.6070  0.2494
  573MOL0     C79000   5.859   5.805   9.871 -0.0197  0.9529 -0.4650
  573MOL0     C79001   5.797   5.824   9.972  0.4237  0.0799  0.3596
  573MOL0     C79002   6.238   5.519   9.388  0.5461  0.5075 -1.0824
  573MOL0     C79003   6.354   5.450   9.335  0.0387 -0.2181  0.1686
  573MOL0     C79004   6.396   5.491   9.203  0.1873  0.2392  0.1499
  573MOL0     H79005   6.689   5.056   9.275 -0.6815 -2.2445  1.7075
  573MOL0     H79006   6.894   4.953   9.251 -2.3734  0.0586  0.0497
  573MOL0     H79007   7.139   5.106   9.273 -1.0698 -0.5180  0.9050
  573MOL0     H79008   7.115   4.944   9.198 -0.2908 -4.2655  1.4288
  573MOL0     H79009   7.342   4.887   9.286  3.4393  1.4395  0.9257
  573MOL0     H79010   7.334   5.034   9.183  1.5585 -0.3973 -0.4702
  573MOL0     H79011   7.339   5.159   9.410 -0.0402  0.3684 -1.7268
  573MOL0     H79012   7.364   4.999   9.479  1.0755 -0.7462 -0.3964
  573MOL0     H79013   7.562   4.980   9.295 -1.4440 -0.4245  0.5457
  573MOL0     H79014   7.547   5.156   9.275  0.4198 -1.1165 -1.7916
  573MOL0     H79015   7.597   5.004   9.545 -0.9677 -1.8152 -2.3486
  573MOL0     H79016   7.625   5.183   9.510  1.4090 -0.0517 -0.6954
  573MOL0     H79017   7.760   4.944   9.370  0.7577 -0.0162  1.1167
  573MOL0     H79018   7.804   5.105   9.341 -2.5289  2.3310  0.4118
  573MOL0     H79019   7.967   5.035   9.487 -0.8857  1.2769 -2.1216
  573MOL0     H79020   7.855   4.942   9.583 -1.2316 -0.1964  0.0435
  573MOL0     H79021   7.848   5.239   9.589 -1.5211  1.0557  0.5698
  573MOL0     H79022   7.770   5.127   9.691  0.0429  1.9154  0.2194
  573MOL0     H79023   8.059   5.319   9.633  0.7180 -0.2399  0.1169
  573MOL0     H79024   8.358   5.235   9.895  1.6941  0.2605 -0.9964
  573MOL0     H79025   8.261   5.383   9.862 -1.9360 -2.9905  5.0784
  573MOL0     H79026   8.391   5.196   9.653 -1.4984  0.3173 -0.1136
  573MOL0     H79027   8.352   5.369   9.628  0.6412  1.3461  0.3713
  573MOL0     H79028   8.524   5.433   9.803  4.0763 -0.3263  1.8570
  573MOL0     H79029   8.560   5.255   9.825 -2.1599 -3.1709 -2.7657
  573MOL0     H79030   8.590   5.427   9.581  1.4859 -0.3308 -2.1916
  573MOL0     H79031   8.732   5.375   9.689  0.6729 -2.1176 -1.7110
  573MOL0     H79032   8.771   5.014   9.499 -0.7451  0.6487 -0.9084
  573MOL0     H79033   9.007   4.917   9.285 -0.3816  1.0079 -0.7213
  573MOL0     H79034   8.940   4.872   9.445  2.7412 -2.7215  0.2718
  573MOL0     H79035   9.097   4.938   9.434 -0.3578  0.1579  0.5012
  573MOL0     H79036   9.201   5.427   9.029  0.0591  2.7179  3.9551
  573MOL0     H79037   9.410   5.454   8.874  1.6214  4.0411  1.2114
  573MOL0     H79038   9.603   5.451   8.781 -1.9751  2.0923  2.0252
  573MOL0     H79039   9.685   5.548   8.913  1.7910 -0.1525  0.0296
  573MOL0     H79040   9.888   5.410   8.885 -1.9319  2.1544  2.0747
  573MOL0     H79041   9.821   5.345   8.738  1.7994 -0.7812  1.0004
  573MOL0     H79042   9.965   5.564   8.722  0.8787  0.0009  0.2251
  573MOL0     H79043   9.826   5.646   8.790 -2.3942 -0.0949  0.0547
  573MOL0     H79044   9.692   5.552   8.596 -0.0129 -3.2184  1.6959
  573MOL0     H79045   9.856   5.494   8.530  1.7673  0.5332  0.4473
  573MOL0     H79046   9.773   5.705   8.426  4.6015  2.3767 -1.3549
  573MOL0     H79047   9.794   5.777   8.598  1.4082  0.2184  1.6942
  573MOL0     H79048  10.024   5.649   8.475  0.3251  0.1251  1.2097
  573MOL0     H79049  10.016   5.765   8.599 -0.5168 -1.1895 -0.3672
  573MOL0     H79050   9.958   5.823   8.311  1.4315 -0.4948 -0.2800
  573MOL0     H79051  10.110   5.864   8.399  1.5275 -1.5091 -0.6114
  573MOL0     H79052   9.985   6.033   8.532  2.5466 -0.3704 -1.2540
  573MOL0     H79053   9.832   5.974   8.486  1.7552  2.6102  3.6010
  573MOL0     H79054   9.622   5.220   9.152  0.3137  1.5000  0.7898
  573MOL0     H79055   9.426   5.191   9.294  1.5198  1.4505  1.7493
  573MOL0     H79056   8.959   5.408   9.299  0.8186  1.3567  4.0805
  573MOL0     H79057   8.782   5.438   9.434  0.7045  0.6668  2.7291
  573MOL0     H79058   7.024   5.111   9.625 -1.5575  0.6926  0.7063
  573MOL0     H79059   6.801   5.221   9.644  1.2003 -2.0115  1.0375
  573MOL0     H79060   6.439   5.278   9.621  3.8768  0.5871 -1.5110
  573MOL0     H79061   6.228   5.376   9.696  0.1834  0.9057  1.0661
  573MOL0     H79062   5.971   5.538   9.402 -0.2486 -2.8417  0.5806
  573MOL0     H79063   5.924   5.416   9.519 -2.0515  0.4706 -1.0354
  573MOL0     H79064   5.743   5.542   9.519 -0.5119 -0.3581  3.0817
  573MOL0     H79065   5.825   5.698   9.490 -3.1397  0.0686  0.1977
  573MOL0     H79066   5.710   5.651   9.721  0.7153 -0.5206  1.7521
  573MOL0     H79067   5.863   5.576   9.767  0.0865 -0.4973  0.1131
  573MOL0     H79068   5.843   5.856   9.673 -1.5882 -1.1421  0.8237
  573MOL0     H79069   5.997   5.780   9.721  0.0568  1.5858 -0.9750
  573MOL0     H79070   5.734   5.844  10.056 -0.9196  1.4941 -0.9239
  573MOL0     H79071   6.176   5.589   9.332 -3.2423 -1.4105  0.3894
  573MOL0     H79072   6.389   5.404   9.138  1.0079  0.1260  0.1967
  573MOL0     H79073   6.324   5.570   9.180 -2.1962 -0.7401  3.4255
  573MOL0     H79074   6.497   5.534   9.201  0.0739  0.5514  0.7575
  574MOL0     O79075   0.675   7.251   2.118  0.3357 -0.2114  0.2115
  574MOL0     C79076   0.678   7.229   1.998 -0.2559  0.2713  1.2111
  574MOL0     O79077   0.757   7.297   1.905  0.5355  0.3703 -0.0408
  574MOL0     C79078   0.833   7.404   1.940 -0.2499  0.1934  0.5726
  574MOL0     C79079   0.791   7.501   2.027  1.3575  0.4117 -0.7380
  574MOL0     C79080   0.865   7.615   2.056 -0.2500 -0.9384 -0.1302
  574MOL0     C79081   0.989   7.619   2.010  0.4504  0.2999 -0.3906
  574MOL0     O79082   1.088   7.713   2.036 -0.3081 -0.4012  0.9847
  574MOL0     C79083   1.175   7.696   2.152 -0.4991 -0.4582 -0.8199
  574MOL0     C79084   1.312   7.773   2.139 -0.3676 -0.5283  0.2631
  574MOL0     C79085   1.405   7.772   2.270  0.6319 -0.7339  0.5691
  574MOL0     C79086   1.531   7.854   2.241  0.3599  0.3696 -0.0727
  574MOL0     C79087   1.634   7.823   2.347 -0.4243 -0.0414  0.3221
  574MOL0     C79088   1.745   7.923   2.352  0.0891  0.6688  0.4478
  574MOL0     C79089   1.831   7.918   2.229 -0.4400  0.2198 -0.5137
  574MOL0     C79090   1.932   8.036   2.238  0.4808 -0.8265  1.2268
  574MOL0     N79091   2.019   8.018   2.350 -0.3111  0.5213  0.2862
  574MOL0     C79092   2.048   8.101   2.453  0.2945 -0.1883 -1.6036
  574MOL0     C79093   2.146   8.041   2.526  0.2827 -0.1964  0.1198
  574MOL0     C79094   2.219   8.099   2.645 -1.0258 -0.7231  0.6129
  574MOL0     C79095   2.367   8.146   2.617  0.4472  1.2168 -0.1017
  574MOL0     C79096   2.465   8.036   2.630 -0.0063  0.8907  0.2011
  574MOL0     C79097   2.608   8.079   2.610  0.7157 -0.4792  0.1290
  574MOL0     O79098   2.714   7.999   2.663 -0.2446 -0.2901  0.3017
  574MOL0     C79099   2.843   8.032   2.656 -0.4740  0.6456 -0.5025
  574MOL0     C79100   2.930   7.919   2.674 -0.3042 -0.4146 -0.2150
  574MOL0     C79101   3.067   7.933   2.683 -0.8493 -0.9351  0.4578
  574MOL0     C79102   3.147   7.808   2.710  0.4340 -0.0892  0.0533
  574MOL0     C79103   3.123   8.063   2.686  0.3748 -0.5517 -0.3975
  574MOL0     C79104   3.270   8.108   2.692 -0.0858  0.6025  0.4968
  574MOL0     O79105   3.295   8.246   2.689  0.0234 -0.4542  0.6896
  574MOL0     C79106   3.417   8.296   2.638 -0.0363  0.6992 -1.0976
  574MOL0     C79107   3.456   8.295   2.508 -0.6753 -0.6424 -0.1550
  574MOL0     C79108   3.586   8.343   2.457  0.2860 -0.7232 -0.2895
  574MOL0     C79109   3.679   8.380   2.556 -0.5488 -0.1812 -0.0310
  574MOL0     O79110   3.810   8.387   2.514  0.0243 -0.3570  0.1440
  574MOL0     C79111   3.853   8.522   2.492 -0.6596 -0.3264  0.8781
  574MOL0     C79112   4.000   8.515   2.437 -0.4617  1.1628  1.1197
  574MOL0     C79113   4.080   8.645   2.451 -0.2854  1.4333  0.0314
  574MOL0     C79114   4.226   8.601   2.425  0.6291 -0.0687  0.0953
  574MOL0     C79115   4.308   8.729   2.403  0.1883  0.0095 -1.1508
  574MOL0     C79116   4.291   8.782   2.259  0.0640  0.0242  0.0299
  574MOL0     C79117   4.427   8.795   2.178 -0.1935 -1.0839 -0.7505
  574MOL0     C79118   4.410   8.726   2.042  0.5542 -0.7837  0.1952
  574MOL0    Cl79119   4.272   8.787   1.944  0.2663 -0.3535  0.3035
  574MOL0     C79120   3.645   8.377   2.693  0.2088  0.8687 -0.7090
  574MOL0     C79121   3.512   8.341   2.733  0.4365  0.4556 -1.0504
  574MOL0     O79122   3.362   8.025   2.693 -0.2675  0.3207 -0.2094
  574MOL0     C79123   3.038   8.175   2.662  0.2690 -0.2597  0.1975
  574MOL0     C79124   2.895   8.161   2.645  0.2009 -0.1229 -0.7318
  574MOL0     N79125   2.171   7.922   2.459  0.0965  0.5084  0.5641
  574MOL0     N79126   2.088   7.901   2.360  0.3096  0.1753  0.1795
  574MOL0     C79127   1.040   7.523   1.923  0.0015  0.2416  0.0612
  574MOL0     C79128   0.957   7.420   1.885  0.3268 -0.2740  0.2080
  574MOL0     C79129   0.593   7.119   1.942 -0.2175 -0.0608  0.3490
  574MOL0     C79130   0.533   7.040   2.042  0.0582  0.7336  0.2964
  574MOL0     C79131   0.446   6.941   2.015  0.9170  0.4547  0.3179
  574MOL0     C79132   0.390   6.925   1.889 -0.0528  0.1528 -0.2615
  574MOL0     O79133   0.296   6.825   1.885 -0.0739  0.3588 -0.5303
  574MOL0     C79134   0.213   6.803   1.765  0.1019 -0.2251  0.2277
  574MOL0     C79135   0.113   6.919   1.763  0.9136 -0.1442 -1.0132
  574MOL0     C79136   0.016   6.916   1.875  0.0418 -0.0160  0.0754
  574MOL0     C79137  -0.088   7.025   1.869  0.1174 -0.1930 -0.3826
  574MOL0     C79138  -0.172   7.017   1.745  0.7738  0.4892  0.7968
  574MOL0     C79139  -0.251   7.007   1.652 -0.3365 -0.8037 -0.3388
  574MOL0     C79140   0.452   6.995   1.791  0.3084 -0.2672  0.8832
  574MOL0     C79141   0.560   7.085   1.810  0.3127 -0.3096  0.2736
  574MOL0     C79142   0.630   7.155   1.699  0.7779 -0.2044 -0.0175
  574MOL0     H79143   0.710   7.488   2.098  2.8969 -0.4706  0.9588
  574MOL0     H79144   0.832   7.686   2.132 -4.0530 -1.1586 -1.3553
  574MOL0     H79145   1.200   7.593   2.179  1.3380  0.3034  0.5756
  574MOL0     H79146   1.132   7.738   2.243  2.5070 -0.7314  0.8450
  574MOL0     H79147   1.361   7.719   2.058 -0.6677  0.4334 -0.5915
  574MOL0     H79148   1.289   7.868   2.089 -1.9979 -0.6000  0.8047
  574MOL0     H79149   1.353   7.812   2.358 -0.5938 -1.0919  0.0382
  574MOL0     H79150   1.427   7.666   2.285  2.1068 -0.4109  0.7734
  574MOL0     H79151   1.582   7.827   2.148  1.2169  2.1516 -0.1646
  574MOL0     H79152   1.515   7.961   2.224  0.6491  0.3320 -0.6370
  574MOL0     H79153   1.681   7.724   2.352  1.3345  0.8156  2.7310
  574MOL0     H79154   1.565   7.829   2.432 -2.4601 -1.7750 -1.0934
  574MOL0     H79155   1.697   8.021   2.360  2.7247  2.0758  0.5324
  574MOL0     H79156   1.801   7.908   2.445  2.9994  1.9038 -0.9778
  574MOL0     H79157   1.764   7.919   2.142 -3.5331  0.5748  1.6991
  574MOL0     H79158   1.884   7.822   2.228  0.0095  0.4690 -0.9329
  574MOL0     H79159   1.981   8.038   2.140 -2.2925 -0.1080 -0.2571
  574MOL0     H79160   1.873   8.127   2.250  1.7022  0.2621 -0.5333
  574MOL0     H79161   2.003   8.197   2.473  0.4648 -0.6338  1.3188
  574MOL0     H79162   2.228   8.029   2.727  0.2538  0.0273  1.1415
  574MOL0     H79163   2.161   8.182   2.686  0.8466  0.0774  1.7533
  574MOL0     H79164   2.377   8.198   2.521 -0.0986  0.3384 -0.6481
  574MOL0     H79165   2.398   8.217   2.694  1.6880 -3.7127  4.5496
  574MOL0     H79166   2.459   7.991   2.730 -2.6375 -1.6594 -0.9575
  574MOL0     H79167   2.440   7.954   2.562  0.1305  2.9196 -2.4616
  574MOL0     H79168   2.616   8.092   2.501  0.4862 -0.7197  0.0835
  574MOL0     H79169   2.610   8.177   2.658  0.5144 -0.8821  0.9666
  574MOL0     H79170   2.889   7.819   2.686  1.4060 -1.0883  0.2138
  574MOL0     H79171   3.093   7.714   2.728  0.0972  0.3653  1.5390
  574MOL0     H79172   3.219   7.815   2.792  1.9310  1.5142 -1.3179
  574MOL0     H79173   3.208   7.800   2.619 -0.7927  0.0303 -0.8022
  574MOL0     H79174   3.375   8.261   2.444 -2.5435 -0.1085  1.7927
  574MOL0     H79175   3.604   8.344   2.350  0.3285  0.0653 -0.2785
  574MOL0     H79176   3.791   8.580   2.423  0.5513 -0.5210 -0.4189
  574MOL0     H79177   3.864   8.581   2.583  4.0806  0.1952  0.2566
  574MOL0     H79178   4.043   8.435   2.496 -2.5939  0.1014  1.3181
  574MOL0     H79179   3.997   8.491   2.330 -0.5588 -0.7264  1.5147
  574MOL0     H79180   4.082   8.687   2.552  0.9090  1.3014  0.0806
  574MOL0     H79181   4.056   8.729   2.385  0.0526 -0.1795 -2.2937
  574MOL0     H79182   4.232   8.543   2.332  1.9423 -0.0997  0.1795
  574MOL0     H79183   4.264   8.533   2.502  0.9617 -2.0197 -1.6896
  574MOL0     H79184   4.281   8.810   2.470  4.4071 -0.7723  1.9052
  574MOL0     H79185   4.413   8.700   2.411 -0.2411 -1.2084  0.6211
  574MOL0     H79186   4.249   8.882   2.271 -0.3282  0.2466 -2.5485
  574MOL0     H79187   4.215   8.728   2.202 -0.1897 -0.2356  0.6069
  574MOL0     H79188   4.513   8.758   2.234 -1.4949 -3.3478 -0.1132
  574MOL0     H79189   4.444   8.903   2.168 -0.0722 -1.1117 -0.8481
  574MOL0     H79190   4.403   8.617   2.047  2.6749 -1.0237 -0.8256
  574MOL0     H79191   4.505   8.746   1.991  0.8241 -0.7222  0.7125
  574MOL0     H79192   3.720   8.398   2.768  1.4131  0.9393 -1.8870
  574MOL0     H79193   3.475   8.348   2.835  0.7245  2.8521 -1.0444
  574MOL0     H79194   3.069   8.279   2.666 -2.3809  0.6462 -0.9799
  574MOL0     H79195   2.822   8.240   2.634 -2.6228 -2.3100  0.9240
  574MOL0     H79196   1.137   7.538   1.876 -1.2238 -0.0652 -2.7578
  574MOL0     H79197   0.986   7.362   1.797  1.0483  1.8735 -1.0548
  574MOL0     H79198   0.567   7.039   2.145  0.6219  0.8921  0.1158
  574MOL0     H79199   0.405   6.888   2.101 -0.3532 -0.3780 -0.7714
  574MOL0     H79200   0.280   6.799   1.678  1.1425  3.1099  0.7559
  574MOL0     H79201   0.151   6.713   1.763  1.4359 -1.2591  2.1494
  574MOL0     H79202   0.057   6.895   1.672  1.7765  0.4051 -1.6984
  574MOL0     H79203   0.158   7.018   1.759 -2.5688  2.0575  3.9422
  574MOL0     H79204  -0.043   6.824   1.878  0.8103 -0.5077  0.5573
  574MOL0     H79205   0.074   6.920   1.968 -1.4748 -0.6030  1.0815
  574MOL0     H79206  -0.045   7.125   1.880  1.7837 -1.0370  1.3763
  574MOL0     H79207  -0.151   7.000   1.955  0.1904 -2.9898 -1.0411
  574MOL0     H79208  -0.324   6.977   1.580 -3.4740  1.2071  1.7645
  574MOL0     H79209   0.411   6.990   1.690  0.8755  4.8301  0.1572
  574MOL0     H79210   0.590   7.118   1.604 -1.3789  1.0629  0.3529
  574MOL0     H79211   0.622   7.263   1.713  1.1760 -0.1101 -0.4800
  574MOL0     H79212   0.734   7.120   1.696 -0.2106 -3.5711  0.3095
  575MOL0     O79213   0.180   2.074   3.863 -0.0020 -0.9129 -0.3235
  575MOL0     C79214   0.164   2.068   3.738  0.2749  0.2641  0.7241
  575MOL0     O79215   0.244   2.006   3.651  0.7420 -0.4786 -0.2271
  575MOL0     C79216   0.340   1.918   3.691 -1.2228 -1.7269  0.8228
  575MOL0     C79217   0.341   1.782   3.659  0.4728 -0.9073 -0.5635
  575MOL0     C79218   0.435   1.688   3.708  0.3848 -0.6392  0.8941
  575MOL0     C79219   0.536   1.735   3.788  0.8682  0.3974  0.4282
  575MOL0     O79220   0.634   1.644   3.832  0.1514 -0.0222  0.2146
  575MOL0     C79221   0.688   1.676   3.957  0.3433 -0.0410 -0.0162
  575MOL0     C79222   0.808   1.585   3.984  0.4009 -0.2527 -0.0567
  575MOL0     C79223   0.930   1.637   3.890  0.4939 -0.0898 -0.1142
  575MOL0     C79224   1.058   1.565   3.926 -0.4881 -0.1438  0.5094
  575MOL0     C79225   1.175   1.639   3.867 -1.0070  0.0301  0.5173
  575MOL0     C79226   1.305   1.551   3.869  0.2005  0.7860  0.4135
  575MOL0     C79227   1.428   1.624   3.820  0.0788 -0.4222  0.3310
  575MOL0     C79228   1.486   1.705   3.938 -0.3755  0.3264 -0.1479
  575MOL0     N79229   1.581   1.794   3.886  0.3448 -0.1807  0.4808
  575MOL0     C79230   1.719   1.774   3.897  0.6827 -0.0210  0.3851
  575MOL0     C79231   1.768   1.893   3.866  0.5323  0.1008  1.0144
  575MOL0     C79232   1.910   1.943   3.875 -0.8120 -0.3747 -0.3687
  575MOL0     C79233   2.004   1.891   3.758 -0.2780 -0.3099  0.2691
  575MOL0     C79234   2.119   1.981   3.761 -0.7474  0.3561  0.4731
  575MOL0     C79235   2.101   2.127   3.714 -0.5967 -0.2606 -0.4286
  575MOL0     O79236   2.153   2.138   3.586  0.1424  0.8864  0.2110
  575MOL0     C79237   2.266   2.216   3.578 -0.1253  0.0303  0.2630
  575MOL0     C79238   2.254   2.351   3.542  0.4816  0.6763  0.8090
  575MOL0     C79239   2.363   2.431   3.525 -0.7483  0.4617  0.7777
  575MOL0     C79240   2.333   2.576   3.493 -0.1607 -0.2970  1.2326
  575MOL0     C79241   2.493   2.383   3.553 -0.2640  0.2198 -0.2370
  575MOL0     C79242   2.628   2.462   3.542  0.9037  0.3002 -0.1810
  575MOL0     O79243   2.733   2.415   3.601  0.7364  0.2905 -0.2504
  575MOL0     C79244   2.853   2.477   3.587 -0.9472 -0.3285  1.2971
  575MOL0     C79245   2.868   2.616   3.612 -1.0419  0.4807  0.8079
  575MOL0     C79246   2.994   2.670   3.612  0.1745 -0.2128  0.4083
  575MOL0     C79247   3.108   2.593   3.574  0.1866 -0.6739  0.1068
  575MOL0     O79248   3.222   2.663   3.563 -1.0892 -0.0035  0.6064
  575MOL0     C79249   3.338   2.609   3.497  0.0156  1.0727  0.1967
  575MOL0     C79250   3.445   2.715   3.491 -0.1566  0.2154 -1.2255
  575MOL0     C79251   3.581   2.671   3.429  0.0431  0.2862 -0.1104
  575MOL0     C79252   3.641   2.549   3.489  0.1226  0.5022 -0.2617
  575MOL0     C79253   3.776   2.516   3.426 -0.7751  0.2880  0.0887
  575MOL0     C79254   3.883   2.454   3.519 -0.2832 -0.9263  0.3536
  575MOL0     C79255   4.025   2.464   3.441  0.8881  0.0571 -0.3391
  575MOL0     C79256   4.027   2.416   3.295 -0.9828 -0.5539 -0.9015
  575MOL0    Cl79257   4.015   2.239   3.290  0.2718 -0.1024 -0.1168
  575MOL0     C79258   3.090   2.463   3.528  0.6010  0.4096  0.7938
  575MOL0     C79259   2.966   2.405   3.543  0.7201  0.4300  0.1901
  575MOL0     O79260   2.625   2.563   3.473 -0.1129 -0.0192 -0.5217
  575MOL0     C79261   2.492   2.257   3.598 -0.5245 -0.5242  0.3972
  575MOL0     C79262   2.386   2.168   3.607  0.3946 -0.0847 -0.2892
  575MOL0     N79263   1.666   1.974   3.822  0.5310 -0.5625  0.5626
  575MOL0     N79264   1.557   1.917   3.838  0.4824  0.8630  0.1741
  575MOL0     C79265   0.530   1.865   3.829 -0.1245 -0.1761 -0.2493
  575MOL0     C79266   0.441   1.960   3.779  0.5606 -1.0553 -0.2942
  575MOL0     C79267   0.038   2.122   3.679  0.1769  0.2353  0.2229
  575MOL0     C79268   0.022   2.123   3.536 -0.1148  0.4379 -0.8333
  575MOL0     C79269  -0.094   2.168   3.475 -0.7507  0.1980 -0.5677
  575MOL0     C79270  -0.193   2.234   3.545  0.4495  0.2639 -0.7885
  575MOL0     O79271  -0.306   2.289   3.492 -0.3425 -1.6196 -0.3245
  575MOL0     C79272  -0.307   2.311   3.351 -0.0301 -0.3031  0.0843
  575MOL0     C79273  -0.410   2.438   3.320 -0.2904  0.2915 -0.5916
  575MOL0     C79274  -0.527   2.447   3.409 -0.8849 -0.5556 -0.9093
  575MOL0     C79275  -0.638   2.336   3.402 -0.5141 -0.6021 -0.5988
  575MOL0     C79276  -0.754   2.364   3.480  0.3745 -0.1644 -1.0677
  575MOL0     C79277  -0.852   2.383   3.551 -0.5744  0.6937 -0.9789
  575MOL0     C79278  -0.173   2.248   3.681  0.2403  0.1828  0.0036
  575MOL0     C79279  -0.064   2.200   3.748 -0.2216  0.1428 -0.9604
  575MOL0     C79280  -0.079   2.212   3.894 -0.4340 -0.2265  0.3158
  575MOL0     H79281   0.253   1.744   3.606 -0.7812  0.6800  0.2982
  575MOL0     H79282   0.413   1.585   3.680 -1.5990  0.2926 -1.3716
  575MOL0     H79283   0.613   1.647   4.032 -0.1436  1.9257  0.3115
  575MOL0     H79284   0.719   1.779   3.978  0.4265 -0.3578  1.5499
  575MOL0     H79285   0.839   1.591   4.088 -1.3551  3.0700  0.4107
  575MOL0     H79286   0.768   1.491   3.945 -0.8265  0.9833 -1.9259
  575MOL0     H79287   0.912   1.628   3.783 -0.2183  0.2732 -0.0352
  575MOL0     H79288   0.942   1.740   3.926 -2.9137 -0.1450  1.6657
  575MOL0     H79289   1.076   1.559   4.034  0.2565  1.9238  0.5408
  575MOL0     H79290   1.053   1.467   3.879 -2.1593  0.6410 -1.1069
  575MOL0     H79291   1.186   1.727   3.931  0.2021  0.8607 -0.7987
  575MOL0     H79292   1.152   1.666   3.764 -0.6212 -1.2437  0.0739
  575MOL0     H79293   1.320   1.502   3.966  3.6531  1.5600  0.3689
  575MOL0     H79294   1.280   1.476   3.794  1.8599  1.0195 -0.4054
  575MOL0     H79295   1.393   1.681   3.733 -1.3083 -0.4890  0.8108
  575MOL0     H79296   1.506   1.561   3.778 -1.3753 -0.6862 -2.2142
  575MOL0     H79297   1.407   1.759   3.992 -0.1647  0.2161  0.2727
  575MOL0     H79298   1.538   1.642   4.010 -1.2199 -1.1525 -0.7832
  575MOL0     H79299   1.767   1.689   3.945 -0.4188  0.5627  2.7162
  575MOL0     H79300   1.944   1.913   3.975 -0.6259  0.5198 -0.1617
  575MOL0     H79301   1.914   2.052   3.876 -0.1548 -0.3965  0.0317
  575MOL0     H79302   2.028   1.786   3.779  1.1706  0.4220  2.7118
  575MOL0     H79303   1.949   1.903   3.664 -1.0569 -1.7166  0.5188
  575MOL0     H79304   2.157   1.992   3.863 -0.2847  1.2673  0.2113
  575MOL0     H79305   2.199   1.929   3.706  0.1599 -0.3810  2.4002
  575MOL0     H79306   1.995   2.154   3.713 -0.6932 -0.6164  0.0209
  575MOL0     H79307   2.150   2.202   3.778 -2.5000  1.4549 -0.8735
  575MOL0     H79308   2.160   2.403   3.523 -0.4493  0.3187  3.8218
  575MOL0     H79309   2.381   2.643   3.565  2.7063 -3.0273  2.0516
  575MOL0     H79310   2.226   2.601   3.499  0.1396  1.5484 -0.1332
  575MOL0     H79311   2.376   2.601   3.396 -0.9572 -0.4731  0.8233
  575MOL0     H79312   2.791   2.685   3.646  1.0911  2.8798  1.0981
  575MOL0     H79313   2.997   2.771   3.652 -1.9030  0.4452 -0.9349
  575MOL0     H79314   3.373   2.522   3.552 -0.8556  0.5498 -0.0619
  575MOL0     H79315   3.306   2.580   3.396 -0.6096  2.0550  0.0939
  575MOL0     H79316   3.421   2.809   3.440  2.5322  0.9803 -1.2364
  575MOL0     H79317   3.457   2.722   3.599 -3.0818 -3.6373 -0.4408
  575MOL0     H79318   3.653   2.752   3.413  3.6252 -3.0894 -3.0200
  575MOL0     H79319   3.563   2.636   3.326  0.5948 -0.1226 -0.0697
  575MOL0     H79320   3.568   2.471   3.466  0.6321  0.5558 -2.3512
  575MOL0     H79321   3.665   2.555   3.595 -0.0414 -3.7718  0.2021
  575MOL0     H79322   3.762   2.436   3.352  1.7610  1.1648 -1.4699
  575MOL0     H79323   3.825   2.595   3.369  0.8658  0.1358  1.2190
  575MOL0     H79324   3.851   2.351   3.535 -3.7060 -0.2305 -1.0371
  575MOL0     H79325   3.896   2.513   3.610 -1.4808  0.5047 -0.3475
  575MOL0     H79326   4.102   2.407   3.494 -1.3597 -1.5105  1.4485
  575MOL0     H79327   4.058   2.568   3.434  2.2508 -0.3664 -0.5388
  575MOL0     H79328   4.129   2.441   3.262 -0.4750  1.1192  1.6192
  575MOL0     H79329   3.950   2.464   3.234 -2.6841 -2.3449 -0.2252
  575MOL0     H79330   3.172   2.412   3.479 -0.3117 -0.1818 -0.1365
  575MOL0     H79331   2.953   2.301   3.512 -3.4347  0.1142  2.2757
  575MOL0     H79332   2.583   2.204   3.624 -1.1111 -0.7816  2.0706
  575MOL0     H79333   2.397   2.064   3.632 -0.2978 -1.1862 -3.8944
  575MOL0     H79334   0.607   1.912   3.890 -0.9677  4.2720 -2.1853
  575MOL0     H79335   0.454   2.065   3.805 -1.2526 -0.3695 -1.8296
  575MOL0     H79336   0.099   2.084   3.470 -0.0698 -0.3996 -0.2993
  575MOL0     H79337  -0.086   2.162   3.367 -1.5993 -0.5261 -0.6039
  575MOL0     H79338  -0.206   2.337   3.318  0.7225 -0.6040  2.0171
  575MOL0     H79339  -0.344   2.223   3.296 -1.8188  0.0738  0.6168
  575MOL0     H79340  -0.454   2.435   3.220 -3.5997  2.3509  0.6239
  575MOL0     H79341  -0.364   2.537   3.328  0.9118 -0.3368  0.7770
  575MOL0     H79342  -0.482   2.444   3.508 -2.2380 -1.4007 -0.2900
  575MOL0     H79343  -0.576   2.545   3.407  1.9379  0.9643  0.0034
  575MOL0     H79344  -0.594   2.240   3.430 -2.5326 -2.1743 -2.3951
  575MOL0     H79345  -0.676   2.317   3.301 -1.0466 -1.4985 -0.2461
  575MOL0     H79346  -0.932   2.417   3.613 -0.3707  2.3904 -1.6035
  575MOL0     H79347  -0.253   2.289   3.742 -0.2256 -0.7293  0.0247
  575MOL0     H79348  -0.078   2.112   3.937  1.3009  0.6783  2.5492
  575MOL0     H79349   0.011   2.260   3.933 -1.0396  0.0901  1.3516
  575MOL0     H79350  -0.172   2.260   3.924 -1.5325 -0.8237 -1.8978
  576MOL0     O79351  10.668   8.675   2.509  1.0317  0.8238 -0.1464
  576MOL0     C79352  10.702   8.558   2.487  0.1375 -0.1248 -0.2832
  576MOL0     O79353  10.827   8.515   2.538 -0.6788  0.1320 -0.1481
  576MOL0     C79354  10.938   8.592   2.560 -0.5721  0.3289  0.0949
  576MOL0     C79355  10.964   8.715   2.506 -0.6232 -0.6911  0.0238
  576MOL0     C79356  11.085   8.787   2.537  1.0377  0.4184 -0.2017
  576MOL0     C79357  11.188   8.726   2.618  0.5014  0.4881  0.3417
  576MOL0     O79358  11.306   8.781   2.649  0.7729 -0.0581 -0.5348
  576MOL0     C79359  11.321   8.922   2.630 -0.5024 -0.5767 -0.6915
  576MOL0     C79360  11.454   8.965   2.698  0.1442 -0.3812  0.1607
  576MOL0     C79361  11.509   9.097   2.644 -0.3154  0.1524  0.1612
  576MOL0     C79362  11.636   9.160   2.696 -0.6167 -0.0674  0.4185
  576MOL0     C79363  11.689   9.292   2.639 -0.3513  0.7305 -0.6297
  576MOL0     C79364  11.812   9.329   2.721 -0.3576  0.0274  0.0243
  576MOL0     C79365  11.867   9.454   2.654 -0.3370 -0.4838  0.2056
  576MOL0     C79366  11.992   9.518   2.720  0.0993  1.2213  0.1223
  576MOL0     N79367  12.113   9.437   2.693 -0.3456 -0.4391 -0.0126
  576MOL0     C79368  12.183   9.451   2.576  0.1868  0.4183 -0.1400
  576MOL0     C79369  12.297   9.374   2.581  0.1748 -0.7656  0.0434
  576MOL0     C79370  12.395   9.347   2.473 -0.3921 -0.4604 -0.2084
  576MOL0     C79371  12.515   9.441   2.472  0.6244  0.0544  0.3330
  576MOL0     C79372  12.611   9.411   2.355  0.0931  0.9851  0.0270
  576MOL0     C79373  12.758   9.450   2.376 -0.0328  0.6076  0.4033
  576MOL0     O79374  12.764   9.569   2.442 -0.1054 -0.3609 -0.0352
  576MOL0     C79375  12.878   9.643   2.427 -0.4180 -0.3569 -0.6279
  576MOL0     C79376  12.905   9.708   2.312  0.1080  0.0454 -0.1844
  576MOL0     C79377  13.025   9.781   2.289  0.6608  0.1712 -0.0253
  576MOL0     C79378  13.050   9.819   2.151 -0.6107  0.7647 -0.2638
  576MOL0     C79379  13.119   9.785   2.397 -0.2477  0.3248 -0.1278
  576MOL0     C79380  13.257   9.856   2.398 -0.0220 -0.5104 -0.7582
  576MOL0     O79381  13.339   9.848   2.509  0.0296  0.1644  1.0830
  576MOL0     C79382  13.467   9.882   2.490 -0.8573  0.5710 -0.0735
  576MOL0     C79383  13.541   9.904   2.607 -0.0718 -0.1531  0.1532
  576MOL0     C79384  13.678   9.939   2.607  0.0134 -0.0417 -0.7831
  576MOL0     C79385  13.741   9.947   2.482  0.4466 -0.4468 -0.3398
  576MOL0     O79386  13.867   9.997   2.477  0.3056 -0.1381 -0.4937
  576MOL0     C79387  13.916  10.055   2.357 -0.6603 -0.1227  0.6651
  576MOL0     C79388  14.058  10.102   2.387  0.3364 -0.6695  0.9558
  576MOL0     C79389  14.140  10.172   2.270  0.9354  0.1487  0.6154
  576MOL0     C79390  14.134  10.118   2.133  0.1715 -0.2884  0.1159
  576MOL0     C79391  14.229  10.001   2.107 -0.9318  0.1773  0.2522
  576MOL0     C79392  14.228   9.959   1.963  0.0942 -1.1432  0.4327
  576MOL0     C79393  14.299   9.825   1.936 -0.7127 -1.1197 -0.0833
  576MOL0     C79394  14.226   9.701   1.982 -0.6015  0.0694  0.4861
  576MOL0    Cl79395  14.271   9.548   1.904 -0.0217 -0.8530 -0.7197
  576MOL0     C79396  13.671   9.909   2.369 -0.0063  0.5043  0.0716
  576MOL0     C79397  13.537   9.870   2.371  0.7159  0.4856 -0.5935
  576MOL0     O79398  13.273   9.925   2.301 -0.2721 -0.1137 -0.2461
  576MOL0     C79399  13.086   9.717   2.517  0.4975  0.0093  0.6366
  576MOL0     C79400  12.965   9.650   2.536  0.0223 -0.3111  0.3495
  576MOL0     N79401  12.285   9.305   2.702  0.3933  0.2645 -0.5452
  576MOL0     N79402  12.184   9.340   2.765  0.0376 -0.3599  0.3392
  576MOL0     C79403  11.169   8.592   2.666  0.6376 -0.4767  0.6361
  576MOL0     C79404  11.046   8.534   2.638  0.1817  0.2024  0.2441
  576MOL0     C79405  10.607   8.468   2.413 -0.8294 -0.4297 -0.0764
  576MOL0     C79406  10.487   8.529   2.353  0.0687  0.0524  0.4499
  576MOL0     C79407  10.396   8.452   2.281  0.1300  0.2549  0.7062
  576MOL0     C79408  10.398   8.311   2.290 -0.6210  0.3001  0.3825
  576MOL0     O79409  10.307   8.240   2.222  0.2739  0.0375 -0.7454
  576MOL0     C79410  10.321   8.093   2.211 -0.2334 -0.2842 -0.3247
  576MOL0     C79411  10.201   8.036   2.142  0.7619  0.7279  1.3275
  576MOL0     C79412  10.165   8.105   2.014 -0.3397 -0.8886 -0.6772
  576MOL0     C79413  10.065   8.231   2.018 -0.0013  1.3238 -0.1768
  576MOL0     C79414   9.943   8.175   2.082  0.3495 -0.0559  0.5107
  576MOL0     C79415   9.843   8.133   2.141  0.9147  0.2004  0.1210
  576MOL0     C79416  10.513   8.248   2.351 -0.0246  0.4198 -0.3399
  576MOL0     C79417  10.617   8.325   2.409 -0.0273  0.1853  0.4867
  576MOL0     C79418  10.737   8.259   2.468  0.2679  0.8552 -0.3370
  576MOL0     H79419  10.889   8.770   2.450  2.2777  3.9688  0.1232
  576MOL0     H79420  11.102   8.884   2.491 -1.7565  1.1351  0.0996
  576MOL0     H79421  11.247   8.991   2.672 -0.3131 -0.5834 -0.3396
  576MOL0     H79422  11.343   8.941   2.525  2.1768 -2.5721 -0.5862
  576MOL0     H79423  11.425   8.982   2.803 -0.6684 -0.2886 -0.0723
  576MOL0     H79424  11.535   8.892   2.692 -0.8854 -1.5343  0.0532
  576MOL0     H79425  11.527   9.092   2.537 -1.2845  1.0499 -0.0588
  576MOL0     H79426  11.424   9.163   2.664  1.4892  1.9017  2.8823
  576MOL0     H79427  11.637   9.174   2.805  0.1496  2.4928  0.1480
  576MOL0     H79428  11.710   9.085   2.670 -0.8633 -0.5220  0.9861
  576MOL0     H79429  11.614   9.371   2.649  0.1508  0.9394  2.8045
  576MOL0     H79430  11.719   9.274   2.536 -1.5848 -0.9013 -0.7379
  576MOL0     H79431  11.787   9.346   2.826  0.9010 -1.5689  0.6260
  576MOL0     H79432  11.884   9.247   2.709 -0.2862 -0.3485  2.6084
  576MOL0     H79433  11.787   9.529   2.660 -1.2715 -1.1563 -2.3546
  576MOL0     H79434  11.881   9.432   2.548 -1.5200 -0.2364 -0.0216
  576MOL0     H79435  12.003   9.619   2.680  0.8349  0.6587 -1.1604
  576MOL0     H79436  11.981   9.520   2.828 -1.4265  0.6296  0.0018
  576MOL0     H79437  12.151   9.512   2.492  1.5282  0.3211 -0.7327
  576MOL0     H79438  12.352   9.354   2.373 -0.8791 -1.2330 -0.0557
  576MOL0     H79439  12.425   9.242   2.477  2.3805  0.2597  0.7094
  576MOL0     H79440  12.474   9.542   2.464 -1.2439 -0.6462  0.5701
  576MOL0     H79441  12.572   9.439   2.566  0.1436  0.6342  0.6424
  576MOL0     H79442  12.630   9.305   2.336  2.2971  1.1710  0.8417
  576MOL0     H79443  12.583   9.457   2.259  2.1392 -2.2138 -2.3265
  576MOL0     H79444  12.797   9.368   2.437 -0.6902 -0.7595 -0.9326
  576MOL0     H79445  12.813   9.446   2.281 -0.0083  0.4437  0.4246
  576MOL0     H79446  12.829   9.694   2.236  1.6686 -0.4917 -1.7042
  576MOL0     H79447  13.069   9.926   2.138  1.5731  0.2915 -1.4301
  576MOL0     H79448  12.970   9.786   2.084  0.1155  0.3437 -0.9392
  576MOL0     H79449  13.143   9.777   2.112 -0.8303  0.6993 -0.7247
  576MOL0     H79450  13.493   9.897   2.705 -0.3524 -0.5503 -0.0116
  576MOL0     H79451  13.724   9.955   2.704 -0.8377  1.1033 -0.5545
  576MOL0     H79452  13.927   9.978   2.280 -2.0213 -1.2030  1.4980
  576MOL0     H79453  13.860  10.145   2.329  2.1416  1.3700 -0.4885
  576MOL0     H79454  14.051  10.177   2.466  0.3145  0.6738 -0.2715
  576MOL0     H79455  14.121  10.016   2.412  1.4471  0.2572  1.4119
  576MOL0     H79456  14.241  10.192   2.306  0.5072 -0.9926  2.6270
  576MOL0     H79457  14.087  10.268   2.270  0.6122  0.0310  3.0028
  576MOL0     H79458  14.161  10.194   2.059 -3.5960  2.4960  1.3188
  576MOL0     H79459  14.032  10.088   2.108 -0.1878 -0.3671  1.5685
  576MOL0     H79460  14.328  10.026   2.145 -1.3535  0.9887  0.8539
  576MOL0     H79461  14.202   9.918   2.174  1.2128 -0.0308  0.9089
  576MOL0     H79462  14.280  10.040   1.910 -0.6836 -1.6650 -1.2065
  576MOL0     H79463  14.127   9.955   1.921 -0.5924  3.2695  1.2348
  576MOL0     H79464  14.398   9.825   1.983 -0.0938  1.1523 -1.2508
  576MOL0     H79465  14.323   9.817   1.830 -0.0640  0.0340 -0.0430
  576MOL0     H79466  14.125   9.725   1.948  0.4672  0.9193 -2.3589
  576MOL0     H79467  14.230   9.697   2.092  1.1838 -1.4209  0.4267
  576MOL0     H79468  13.731   9.894   2.280  0.6816 -1.9581  0.8938
  576MOL0     H79469  13.491   9.830   2.282 -2.4718  3.0365 -0.2758
  576MOL0     H79470  13.148   9.725   2.606 -1.3475  3.8153  1.7908
  576MOL0     H79471  12.930   9.632   2.637  1.2419  1.1442  1.0668
  576MOL0     H79472  11.246   8.539   2.721 -0.7460 -2.7404  0.5332
  576MOL0     H79473  11.023   8.435   2.676 -2.4009  0.3797 -0.6515
  576MOL0     H79474  10.479   8.637   2.346  3.6298  0.3905 -0.7964
  576MOL0     H79475  10.320   8.504   2.224  0.7800 -1.1175 -1.5255
  576MOL0     H79476  10.412   8.075   2.154 -0.4680  0.2453 -0.8682
  576MOL0     H79477  10.344   8.050   2.309  0.9198 -1.0570 -0.9112
  576MOL0     H79478  10.108   8.034   2.201 -0.1903  1.4294 -0.0904
  576MOL0     H79479  10.212   7.931   2.113 -3.3824  0.2391  0.8713
  576MOL0     H79480  10.266   8.136   1.985 -0.4356  0.0073 -0.0887
  576MOL0     H79481  10.136   8.032   1.938 -0.6531 -0.0302 -1.3958
  576MOL0     H79482  10.048   8.272   1.918 -0.3263 -1.4213 -1.3492
  576MOL0     H79483  10.090   8.317   2.080 -0.2844  0.5182  1.0771
  576MOL0     H79484   9.747   8.098   2.173  0.4504  1.4177  0.1345
  576MOL0     H79485  10.521   8.141   2.368 -3.7426  0.3329  2.0138
  576MOL0     H79486  10.823   8.312   2.426 -0.1943  4.0227  2.3110
  576MOL0     H79487  10.736   8.277   2.576 -2.7334  0.1609 -0.1515
  576MOL0     H79488  10.734   8.150   2.460 -1.4115  0.8812 -0.3757
  577MOL0     O79489   6.029   5.027   9.660  0.8750  0.0648  0.1591
  577MOL0     C79490   5.991   5.134   9.705  0.4729  1.0534  0.0792
  577MOL0     O79491   6.044   5.202   9.808 -0.9540  0.0925  0.3837
  577MOL0     C79492   6.170   5.173   9.860 -0.2334  0.2541  0.0931
  577MOL0     C79493   6.280   5.129   9.783 -0.5480 -0.3174  0.9995
  577MOL0     C79494   6.412   5.116   9.837  0.1691 -0.1005  0.6958
  577MOL0     C79495   6.427   5.128   9.977 -0.0192 -0.1635 -0.2891
  577MOL0     O79496   6.557   5.082  10.024  0.2134  0.3169  0.5997
  577MOL0     C79497   6.576   5.100  10.160 -0.2971  0.1120  0.2479
  577MOL0     C79498   6.724   5.067  10.192  0.0893 -0.8116 -0.3085
  577MOL0     C79499   6.811   5.151  10.109 -0.5385 -0.5435 -0.4414
  577MOL0     C79500   6.961   5.127  10.136 -0.0049  0.2679  0.0706
  577MOL0     C79501   7.043   5.235  10.058 -0.4942  0.1939 -0.7150
  577MOL0     C79502   7.071   5.172   9.923  0.1355 -0.1691  0.7358
  577MOL0     C79503   7.167   5.255   9.836 -0.2593 -0.6948 -0.4561
  577MOL0     C79504   7.260   5.162   9.750  0.2803 -0.4412  0.8195
  577MOL0     N79505   7.387   5.127   9.813  0.3340  0.2023 -0.6946
  577MOL0     C79506   7.422   5.017   9.894  0.5457 -0.6531  0.0313
  577MOL0     C79507   7.548   5.045   9.933  0.0910  0.5801 -0.0681
  577MOL0     C79508   7.633   4.960  10.022  0.1660 -0.4524  0.4021
  577MOL0     C79509   7.635   4.819   9.964  0.1463 -0.6725  0.5036
  577MOL0     C79510   7.749   4.740  10.036 -0.2613 -0.4650 -0.1075
  577MOL0     C79511   7.772   4.610   9.962  0.8139  0.0701 -0.2215
  577MOL0     O79512   7.803   4.514  10.049 -0.0217  0.0500  0.4276
  577MOL0     C79513   7.938   4.482  10.070  0.0926 -0.1638  0.2447
  577MOL0     C79514   8.048   4.499   9.987 -0.8255 -0.7892 -0.0222
  577MOL0     C79515   8.186   4.472  10.024  1.1267  0.1697  0.0804
  577MOL0     C79516   8.294   4.501   9.923  0.4546  0.3871 -0.5073
  577MOL0     C79517   8.207   4.417  10.151 -1.1580 -0.6291 -0.3780
  577MOL0     C79518   8.337   4.375  10.206 -0.8045 -0.1597  0.5959
  577MOL0     O79519   8.361   4.404  10.344  1.0021 -0.7332  0.7098
  577MOL0     C79520   8.479   4.371  10.399  0.0632  0.3817  0.8964
  577MOL0     C79521   8.482   4.298  10.517 -0.6382  0.1700  0.3417
  577MOL0     C79522   8.610   4.278  10.585 -0.2544  0.7157  0.4611
  577MOL0     C79523   8.729   4.328  10.529 -0.2712  1.1746 -0.3189
  577MOL0     O79524   8.855   4.312  10.580 -0.4997 -0.2570 -0.5524
  577MOL0     C79525   8.879   4.227  10.699  0.1331 -0.0824  0.2954
  577MOL0     C79526   9.031   4.184  10.719 -0.7408 -0.0966  0.4341
  577MOL0     C79527   9.128   4.302  10.675  0.2530  0.3321  0.6943
  577MOL0     C79528   9.276   4.245  10.692  1.3648 -0.8237  0.2770
  577MOL0     C79529   9.384   4.341  10.649  0.1320 -0.4598 -0.2271
  577MOL0     C79530   9.422   4.333  10.500  0.2231  0.4490  0.1624
  577MOL0     C79531   9.537   4.432  10.492  0.6213  0.5471 -0.3780
  577MOL0     C79532   9.614   4.425  10.369  0.4416  0.3383  0.7461
  577MOL0    Cl79533   9.525   4.493  10.234 -0.1057 -0.0755 -0.2344
  577MOL0     C79534   8.714   4.396  10.409  0.0284  0.3392 -0.6473
  577MOL0     C79535   8.591   4.425  10.347 -1.3955 -0.4428  0.2065
  577MOL0     O79536   8.412   4.309  10.137  0.2896  0.6657 -0.0306
  577MOL0     C79537   8.095   4.395  10.241 -0.0770  0.6866  0.9493
  577MOL0     C79538   7.967   4.430  10.193 -0.3478 -0.0042 -0.4208
  577MOL0     N79539   7.591   5.162   9.866 -0.2040  0.0710 -0.0007
  577MOL0     N79540   7.489   5.211   9.803 -0.2452  0.1015  1.1523
  577MOL0     C79541   6.324   5.177  10.053  0.9679  0.1932  0.8468
  577MOL0     C79542   6.193   5.202   9.995  0.1538 -0.3084  0.4911
  577MOL0     C79543   5.858   5.189   9.662 -0.5627 -0.0532  0.6241
  577MOL0     C79544   5.785   5.263   9.755 -0.3264  0.0820  0.0969
  577MOL0     C79545   5.666   5.320   9.712  0.4548  0.2542 -0.8590
  577MOL0     C79546   5.613   5.302   9.583 -0.6529  0.4707  0.1330
  577MOL0     O79547   5.488   5.343   9.539 -0.6128  0.1858 -0.3044
  577MOL0     C79548   5.416   5.434   9.624  0.0357  0.3835  0.1331
  577MOL0     C79549   5.320   5.496   9.528 -0.3235  0.2790  0.3357
  577MOL0     C79550   5.233   5.608   9.596  0.6140  0.4751  0.9961
  577MOL0     C79551   5.101   5.649   9.519 -0.0275 -0.1008  0.0147
  577MOL0     C79552   5.030   5.535   9.478 -0.7769 -0.8423 -0.0836
  577MOL0     C79553   4.958   5.448   9.428 -0.2903 -0.8432  0.2010
  577MOL0     C79554   5.693   5.220   9.494  0.1281 -0.0555 -0.2782
  577MOL0     C79555   5.820   5.171   9.526  0.3913 -0.2233  0.0018
  577MOL0     C79556   5.902   5.110   9.418 -0.0060 -0.3801 -0.4627
  577MOL0     H79557   6.262   5.096   9.682  1.1080  2.0591 -0.1669
  577MOL0     H79558   6.491   5.072   9.779  0.6198  0.8217  0.5951
  577MOL0     H79559   6.512   5.033  10.217 -0.8771 -1.7893 -2.4187
  577MOL0     H79560   6.555   5.203  10.188 -3.3449 -0.2082 -0.5479
  577MOL0     H79561   6.754   5.086  10.296  0.3454 -2.4077 -0.0648
  577MOL0     H79562   6.731   4.959  10.178 -2.6076 -0.8187 -2.5475
  577MOL0     H79563   6.783   5.127  10.006 -2.3247  1.4351 -0.4841
  577MOL0     H79564   6.782   5.257  10.111 -2.2756 -0.9994  2.0544
  577MOL0     H79565   6.984   5.145  10.242 -0.5498 -2.8597  0.8240
  577MOL0     H79566   6.987   5.025  10.107 -1.6258  0.3445 -1.7969
  577MOL0     H79567   7.138   5.249  10.110 -0.9962  0.3139  0.1817
  577MOL0     H79568   7.001   5.336  10.051  2.1256  1.5263  1.1909
  577MOL0     H79569   7.116   5.075   9.942  0.1326 -0.4133 -0.4026
  577MOL0     H79570   6.981   5.155   9.862  1.1773  1.2548 -1.3095
  577MOL0     H79571   7.220   5.322   9.905 -2.2674  0.0855  0.4309
  577MOL0     H79572   7.115   5.313   9.759  1.4408  0.1786 -0.9990
  577MOL0     H79573   7.217   5.066   9.721 -0.0004 -0.2166  0.4867
  577MOL0     H79574   7.295   5.216   9.662  3.4734 -1.8141  1.1104
  577MOL0     H79575   7.358   4.937   9.931 -1.9638  0.8501 -0.8302
  577MOL0     H79576   7.606   4.973  10.128 -0.0144  1.5791  0.1563
  577MOL0     H79577   7.736   4.996  10.009 -0.4853  0.9085 -1.4856
  577MOL0     H79578   7.534   4.778   9.974 -1.5026  2.9424  0.1592
  577MOL0     H79579   7.652   4.822   9.857 -2.7451  0.5216 -0.0183
  577MOL0     H79580   7.837   4.805  10.039 -0.2632 -0.4812  2.5643
  577MOL0     H79581   7.719   4.707  10.136 -0.7312  1.6283  0.4883
  577MOL0     H79582   7.688   4.576   9.901  2.0879 -1.0598 -1.4187
  577MOL0     H79583   7.844   4.627   9.881  0.8315 -0.7867 -0.3951
  577MOL0     H79584   8.038   4.548   9.891  2.8381  0.8177  0.2235
  577MOL0     H79585   8.374   4.556   9.974  0.9078 -0.9487  0.2581
  577MOL0     H79586   8.254   4.569   9.847 -2.0460 -0.9273 -0.4666
  577MOL0     H79587   8.332   4.407   9.883 -1.2997 -0.4771 -0.2130
  577MOL0     H79588   8.386   4.253  10.540 -1.3130  0.5107 -1.5810
  577MOL0     H79589   8.619   4.235  10.685  1.4331 -0.1354 -0.0301
  577MOL0     H79590   8.859   4.286  10.789 -1.1620  2.0624 -1.3202
  577MOL0     H79591   8.810   4.142  10.697  2.2358 -1.9120 -2.1951
  577MOL0     H79592   9.056   4.175  10.826 -0.2377  2.0065  0.5406
  577MOL0     H79593   9.049   4.089  10.668 -2.6538 -0.5080  0.4587
  577MOL0     H79594   9.116   4.390  10.738 -0.7270 -0.3994  1.5715
  577MOL0     H79595   9.117   4.342  10.574  2.2562  3.5094  1.5896
  577MOL0     H79596   9.299   4.147  10.651  0.1034 -1.1016  0.1996
  577MOL0     H79597   9.277   4.238  10.801  0.1600  1.5922  0.5128
  577MOL0     H79598   9.365   4.447  10.670 -0.4160  0.7994 -5.6394
  577MOL0     H79599   9.469   4.304  10.706 -0.4103 -2.2369 -0.5114
  577MOL0     H79600   9.339   4.368  10.438 -2.6082 -5.5449 -0.0640
  577MOL0     H79601   9.453   4.236  10.461 -0.5093 -0.0765  0.8493
  577MOL0     H79602   9.601   4.405  10.577 -1.8085  1.1812  1.8081
  577MOL0     H79603   9.505   4.536  10.506  2.7634  1.1083  0.7843
  577MOL0     H79604   9.655   4.327  10.343 -0.6842  0.0273  0.1228
  577MOL0     H79605   9.703   4.485  10.390 -0.4099  0.3024  5.5551
  577MOL0     H79606   8.799   4.445  10.361 -0.9980  3.0629  0.1110
  577MOL0     H79607   8.585   4.483  10.255 -0.1954 -2.1081 -0.9701
  577MOL0     H79608   8.105   4.355  10.341  0.3735  1.6277  1.2904
  577MOL0     H79609   7.882   4.422  10.260  1.0398 -0.1916  1.3985
  577MOL0     H79610   6.328   5.201  10.159  1.0009  3.9270  0.1290
  577MOL0     H79611   6.110   5.246  10.049  0.2628  0.5583 -0.0259
  577MOL0     H79612   5.818   5.277   9.857 -2.9602 -1.9330  1.3571
  577MOL0     H79613   5.613   5.380   9.785  0.2503  3.7901 -3.6474
  577MOL0     H79614   5.359   5.380   9.700 -0.9183  0.6927 -0.3442
  577MOL0     H79615   5.482   5.512   9.664 -0.9158  1.2016  0.1362
  577MOL0     H79616   5.254   5.417   9.493 -0.0066 -0.4743  1.4038
  577MOL0     H79617   5.373   5.542   9.444  0.9631 -0.6687  0.6023
  577MOL0     H79618   5.199   5.570   9.693  3.3434 -1.8885  1.1561
  577MOL0     H79619   5.291   5.699   9.614 -0.0668  1.5088 -1.6065
  577MOL0     H79620   5.121   5.705   9.427  0.0562  0.9366  0.6539
  577MOL0     H79621   5.037   5.709   9.584  0.8722 -0.9545  1.7465
  577MOL0     H79622   4.883   5.376   9.400 -0.4282 -0.3066 -0.8747
  577MOL0     H79623   5.655   5.211   9.393 -2.1303 -1.2867  0.6065
  577MOL0     H79624   5.856   5.111   9.319  0.4194 -4.7627 -0.9216
  577MOL0     H79625   6.000   5.158   9.417  0.2218 -0.8432 -0.8731
  577MOL0     H79626   5.922   5.003   9.433  0.3652 -0.4805 -1.6292
  578MOL0     O79627   9.422   9.313   9.085  0.7106 -0.2085  0.1323
  578MOL0     C79628   9.331   9.377   9.146  0.4625 -0.1061 -0.2674
  578MOL0     O79629   9.341   9.436   9.268 -0.1556 -0.1748  0.5065
  578MOL0     C79630   9.452   9.395   9.347 -0.2160  0.1468 -0.7253
  578MOL0     C79631   9.512   9.485   9.428  0.0427  0.3951  0.2068
  578MOL0     C79632   9.612   9.454   9.512 -1.1255  0.6864  0.3686
  578MOL0     C79633   9.672   9.320   9.521 -1.3669 -0.2112  0.2252
  578MOL0     O79634   9.780   9.291   9.603  0.8147  0.2383 -0.2061
  578MOL0     C79635   9.905   9.241   9.541  0.3298 -0.0068 -0.2063
  578MOL0     C79636   9.977   9.157   9.646 -0.0195  0.3171 -0.8733
  578MOL0     C79637  10.096   9.078   9.581 -0.5549 -0.3215 -0.1979
  578MOL0     C79638  10.204   9.037   9.685 -0.7977 -0.5092 -0.3758
  578MOL0     C79639  10.321   8.954   9.625  0.1480  0.3726  0.2263
  578MOL0     C79640  10.417   8.900   9.730  0.4649 -0.2587  0.6205
  578MOL0     C79641  10.526   8.802   9.683 -0.4093  0.3829  0.7733
  578MOL0     C79642  10.634   8.864   9.601 -0.0449  0.5882 -0.9356
  578MOL0     N79643  10.751   8.783   9.602  0.0999 -0.1157  0.2548
  578MOL0     C79644  10.778   8.701   9.494  0.7120 -0.4567 -0.3065
  578MOL0     C79645  10.909   8.676   9.511  0.3310  0.2058  0.2405
  578MOL0     C79646  10.975   8.622   9.388 -0.3823  0.1485  0.4194
  578MOL0     C79647  11.011   8.725   9.286 -0.3809 -0.2799  0.4980
  578MOL0     C79648  11.114   8.834   9.335  0.4529 -0.5280 -0.2330
  578MOL0     C79649  11.242   8.774   9.395  0.0157 -0.5920  0.6643
  578MOL0     O79650  11.335   8.880   9.403 -0.5820 -0.4539  0.0415
  578MOL0     C79651  11.465   8.843   9.437 -0.3394  0.0329 -0.4839
  578MOL0     C79652  11.509   8.717   9.458 -0.0133  0.8018  0.4161
  578MOL0     C79653  11.643   8.683   9.475 -0.5720 -1.6350 -0.5879
  578MOL0     C79654  11.682   8.537   9.478 -0.4588 -0.5945  0.6515
  578MOL0     C79655  11.740   8.790   9.500  0.0059 -0.9070  0.8722
  578MOL0     C79656  11.883   8.783   9.523 -0.3458  0.1478 -0.4366
  578MOL0     O79657  11.967   8.866   9.457  0.5267 -0.9273  0.3669
  578MOL0     C79658  12.106   8.854   9.468 -0.5837 -0.6126 -0.2706
  578MOL0     C79659  12.189   8.962   9.472 -0.1218 -0.0183  0.3330
  578MOL0     C79660  12.323   8.939   9.492 -0.1575 -0.6204  0.1318
  578MOL0     C79661  12.380   8.815   9.508  0.2109 -0.2403 -1.3396
  578MOL0     O79662  12.515   8.808   9.514  0.5751  0.7777 -0.1552
  578MOL0     C79663  12.581   8.686   9.493 -0.9598  0.2892  0.6899
  578MOL0     C79664  12.719   8.678   9.550 -0.0974 -0.1685  0.0715
  578MOL0     C79665  12.810   8.770   9.471 -0.0236  0.1921 -0.6638
  578MOL0     C79666  12.938   8.774   9.545 -0.4760 -0.1539  0.2387
  578MOL0     C79667  12.932   8.858   9.679 -0.4829  0.3341 -0.1394
  578MOL0     C79668  13.068   8.908   9.738 -0.3293  0.6734  0.2607
  578MOL0     C79669  13.063   8.997   9.864  0.0766 -0.1033 -0.1926
  578MOL0     C79670  13.203   9.043   9.909  0.0668 -0.0087  0.0349
  578MOL0    Cl79671  13.189   9.128  10.063  0.1871 -0.5437  0.3271
  578MOL0     C79672  12.294   8.707   9.491 -0.7515 -0.3110  0.2085
  578MOL0     C79673  12.162   8.725   9.465 -0.5793 -0.2729  2.0910
  578MOL0     O79674  11.919   8.693   9.599 -0.0901  0.3013  0.1541
  578MOL0     C79675  11.686   8.925   9.499 -1.0884  0.3595  0.5966
  578MOL0     C79676  11.555   8.947   9.466  0.8044  0.5679 -0.3967
  578MOL0     N79677  10.964   8.737   9.624  0.7554 -0.1737  0.2248
  578MOL0     N79678  10.868   8.812   9.675 -0.3962  0.2442 -0.2384
  578MOL0     C79679   9.620   9.231   9.429 -0.3640  0.7964  0.5065
  578MOL0     C79680   9.511   9.260   9.351  0.7422  0.1279 -0.0021
  578MOL0     C79681   9.196   9.389   9.093 -0.7133 -0.3496  0.7928
  578MOL0     C79682   9.099   9.461   9.158 -0.6486  0.3515 -0.2939
  578MOL0     C79683   8.968   9.467   9.118  0.6778  0.2081  0.5555
  578MOL0     C79684   8.920   9.383   9.016  1.1713 -0.5789 -0.1083
  578MOL0     O79685   8.792   9.386   8.964 -0.4704 -0.0318  0.1431
  578MOL0     C79686   8.686   9.436   9.047  0.0522 -0.1742 -0.1585
  578MOL0     C79687   8.562   9.378   9.002 -0.3987  0.2391 -0.1589
  578MOL0     C79688   8.530   9.405   8.851 -0.4040 -1.2373 -0.3485
  578MOL0     C79689   8.388   9.410   8.814  0.0102  0.8266  0.2852
  578MOL0     C79690   8.316   9.283   8.821  0.0556  0.2521 -0.4033
  578MOL0     C79691   8.265   9.177   8.845  0.3128  0.7535  0.0478
  578MOL0     C79692   9.012   9.312   8.948  0.0735  0.6140  0.5250
  578MOL0     C79693   9.149   9.305   8.987  0.9166 -0.8388 -0.9090
  578MOL0     C79694   9.229   9.214   8.908  0.1891  0.6571  1.0583
  578MOL0     H79695   9.473   9.586   9.426 -0.6708  0.1399 -1.6766
  578MOL0     H79696   9.656   9.526   9.581  0.6137 -1.2495  1.4203
  578MOL0     H79697   9.964   9.330   9.517  0.4890  0.0203  0.2696
  578MOL0     H79698   9.895   9.183   9.449  0.1708  0.3000 -0.3823
  578MOL0     H79699  10.011   9.223   9.726  0.7708  0.5276 -1.3770
  578MOL0     H79700   9.923   9.076   9.696  0.7787  1.3059  1.7441
  578MOL0     H79701  10.052   8.988   9.538 -0.9578  0.2185 -0.9431
  578MOL0     H79702  10.146   9.124   9.495  0.7099 -0.9324  0.1760
  578MOL0     H79703  10.243   9.119   9.745  0.5108 -1.8336  0.6729
  578MOL0     H79704  10.153   8.972   9.757  0.4332  0.0993  1.0995
  578MOL0     H79705  10.385   9.018   9.563  1.4347 -0.3352  0.7901
  578MOL0     H79706  10.283   8.869   9.568 -0.5707  0.0672  1.1399
  578MOL0     H79707  10.467   8.981   9.784  1.3595  0.3683 -1.0895
  578MOL0     H79708  10.351   8.838   9.792 -1.3416 -1.6503 -2.4515
  578MOL0     H79709  10.485   8.732   9.609  1.0379 -0.8028  1.0367
  578MOL0     H79710  10.566   8.758   9.774  1.0369  0.1401  0.0517
  578MOL0     H79711  10.595   8.886   9.501 -1.0234  0.8544 -0.5024
  578MOL0     H79712  10.653   8.961   9.649 -1.7381  0.8899 -0.8361
  578MOL0     H79713  10.709   8.678   9.414  0.2365 -0.2245  0.0300
  578MOL0     H79714  10.914   8.544   9.342 -3.5012  0.9242  2.8911
  578MOL0     H79715  11.068   8.569   9.413 -1.2015 -1.6184 -0.0762
  578MOL0     H79716  11.063   8.685   9.198 -0.8513 -0.5159  0.3187
  578MOL0     H79717  10.916   8.773   9.257 -1.5423 -2.6089  0.1757
  578MOL0     H79718  11.146   8.890   9.247 -1.0417 -2.3193 -2.0189
  578MOL0     H79719  11.073   8.904   9.408 -1.0855 -0.5537 -1.0309
  578MOL0     H79720  11.230   8.717   9.488  0.5338 -0.8709  0.5618
  578MOL0     H79721  11.275   8.702   9.320  0.6001  0.3255  0.0290
  578MOL0     H79722  11.447   8.629   9.450  1.1930 -0.2687  2.0151
  578MOL0     H79723  11.732   8.511   9.384  0.5993  1.1231  0.6993
  578MOL0     H79724  11.595   8.472   9.494 -1.9586  0.3909 -2.5696
  578MOL0     H79725  11.752   8.514   9.558 -0.3757  3.2072  1.8676
  578MOL0     H79726  12.152   9.064   9.483 -0.8280 -0.5312  4.0602
  578MOL0     H79727  12.383   9.028   9.508 -0.1102 -0.2906 -1.6476
  578MOL0     H79728  12.529   8.598   9.533 -1.4428  1.1855  2.0894
  578MOL0     H79729  12.588   8.687   9.383  0.8795 -1.5425  0.7274
  578MOL0     H79730  12.721   8.702   9.656  1.2013 -0.1242  0.0555
  578MOL0     H79731  12.761   8.579   9.530  0.5386  0.3077 -1.1468
  578MOL0     H79732  12.775   8.872   9.453  0.1526  0.8636  2.2739
  578MOL0     H79733  12.842   8.730   9.375  3.5912  3.8035 -1.2124
  578MOL0     H79734  13.004   8.824   9.474 -0.8927  0.8425  0.5399
  578MOL0     H79735  12.980   8.675   9.566  1.3960  0.9879  2.3501
  578MOL0     H79736  12.869   8.946   9.657 -2.5016 -1.2942 -1.2881
  578MOL0     H79737  12.884   8.804   9.760  1.6703  0.3746  1.2209
  578MOL0     H79738  13.117   8.962   9.656 -1.4111 -1.0669 -1.6280
  578MOL0     H79739  13.133   8.826   9.769  2.0543  3.2789  2.6254
  578MOL0     H79740  13.016   8.940   9.945  0.7764  1.9137  1.7482
  578MOL0     H79741  13.005   9.088   9.848  5.3518  3.7818 -0.0871
  578MOL0     H79742  13.255   9.106   9.836 -0.1255  0.2689  0.1367
  578MOL0     H79743  13.254   8.948   9.927  0.9718  0.5731  0.6187
  578MOL0     H79744  12.320   8.603   9.504  2.7641  0.4611  0.2707
  578MOL0     H79745  12.096   8.641   9.449  0.4141 -0.8268  0.7712
  578MOL0     H79746  11.759   9.000   9.529 -0.0348  0.4219 -1.9108
  578MOL0     H79747  11.500   9.040   9.467 -2.0773 -1.0094 -0.4447
  578MOL0     H79748   9.635   9.125   9.449 -1.6372  0.1709 -1.4714
  578MOL0     H79749   9.465   9.179   9.294  0.2044  2.1814 -2.6705
  578MOL0     H79750   9.114   9.518   9.249  1.2645  0.7409 -0.8203
  578MOL0     H79751   8.918   9.542   9.179  3.8011  3.0618 -0.0965
  578MOL0     H79752   8.704   9.397   9.148  3.4302 -1.1008 -1.0083
  578MOL0     H79753   8.683   9.545   9.056 -1.7331 -0.1209 -0.9774
  578MOL0     H79754   8.482   9.422   9.063  0.6085  2.0734 -0.0759
  578MOL0     H79755   8.567   9.271   9.024 -1.3270  0.5857  1.9657
  578MOL0     H79756   8.580   9.495   8.815  0.0408 -1.6055 -0.6492
  578MOL0     H79757   8.576   9.322   8.797  3.8516 -0.2108  1.3103
  578MOL0     H79758   8.369   9.436   8.709  1.5098 -2.5585 -0.9663
  578MOL0     H79759   8.337   9.482   8.879 -0.6514  1.2391 -0.6622
  578MOL0     H79760   8.220   9.085   8.876  0.7391 -0.8212 -3.5333
  578MOL0     H79761   8.965   9.253   8.870  2.4812 -1.0335  0.2144
  578MOL0     H79762   9.286   9.285   8.847 -1.3497  1.7201  0.8053
  578MOL0     H79763   9.279   9.134   8.963  2.9848  2.0023  0.6231
  578MOL0     H79764   9.166   9.158   8.837  1.3566 -1.0759  1.3387
  579MOL0     O79765   6.526   4.959   4.292  0.3499  0.1300 -0.0212
  579MOL0     C79766   6.436   5.042   4.327  0.1829  0.4748 -0.5609
  579MOL0     O79767   6.460   5.168   4.382  0.5270  0.4733 -0.1172
  579MOL0     C79768   6.590   5.196   4.412  0.1921  0.1056 -0.5020
  579MOL0     C79769   6.682   5.243   4.313 -0.1434  0.0878  0.6939
  579MOL0     C79770   6.815   5.256   4.337 -0.0613  0.5290 -0.8253
  579MOL0     C79771   6.867   5.206   4.458 -0.1031  0.1430  0.3669
  579MOL0     O79772   7.000   5.213   4.472 -0.2434 -0.5176  0.4961
  579MOL0     C79773   7.069   5.114   4.546  0.0453  0.2646 -0.2344
  579MOL0     C79774   7.221   5.127   4.520 -0.0520 -0.5485 -0.6685
  579MOL0     C79775   7.275   5.268   4.495  0.4772 -0.3338  0.1506
  579MOL0     C79776   7.430   5.280   4.513  0.2976 -0.5899 -0.0747
  579MOL0     C79777   7.461   5.303   4.667 -0.7131  0.9406  0.6241
  579MOL0     C79778   7.598   5.237   4.698  0.4078 -1.1603  0.0539
  579MOL0     C79779   7.710   5.305   4.621  0.2407 -0.2574  0.1624
  579MOL0     C79780   7.723   5.459   4.641  0.2989  0.7628 -0.5247
  579MOL0     N79781   7.777   5.472   4.778 -0.1441  0.2979 -0.5005
  579MOL0     C79782   7.718   5.530   4.887 -0.3982 -0.1622 -0.0938
  579MOL0     C79783   7.816   5.537   4.979 -0.4371  0.1234 -0.5577
  579MOL0     C79784   7.788   5.571   5.123 -0.3013 -0.3940  0.3217
  579MOL0     C79785   7.660   5.501   5.175  0.2527  0.9929 -0.4154
  579MOL0     C79786   7.672   5.428   5.304  0.5858  1.0997  0.3066
  579MOL0     C79787   7.533   5.376   5.348 -0.2263  0.1451 -0.6478
  579MOL0     O79788   7.556   5.289   5.461  0.0009 -0.3969 -0.3969
  579MOL0     C79789   7.450   5.248   5.536 -0.7292  0.3418 -0.9394
  579MOL0     C79790   7.492   5.164   5.643  0.3649 -0.3873  0.2978
  579MOL0     C79791   7.392   5.104   5.720 -0.4291  0.2646  0.0135
  579MOL0     C79792   7.444   5.015   5.832  1.1313 -0.6455  1.4055
  579MOL0     C79793   7.253   5.137   5.695 -0.1507  0.5102  1.0625
  579MOL0     C79794   7.147   5.065   5.767  0.1650 -0.5197  0.2978
  579MOL0     O79795   7.072   4.977   5.681  0.1242  0.0350 -0.2893
  579MOL0     C79796   6.947   4.957   5.728 -0.1562  0.1063  0.2270
  579MOL0     C79797   6.925   4.865   5.833  0.3898 -0.2085 -0.3914
  579MOL0     C79798   6.790   4.843   5.887 -0.2523  0.1987  0.1775
  579MOL0     C79799   6.677   4.905   5.816  0.0530  1.1764 -0.3663
  579MOL0     O79800   6.558   4.871   5.870 -0.5125  0.1562  0.3662
  579MOL0     C79801   6.442   4.874   5.787  0.1206 -0.4717 -0.1003
  579MOL0     C79802   6.327   4.800   5.860  0.6392 -0.5430 -0.1250
  579MOL0     C79803   6.286   4.844   5.997  0.4510  0.1423 -0.1764
  579MOL0     C79804   6.194   4.746   6.061  0.0549 -0.6497 -0.2089
  579MOL0     C79805   6.049   4.792   6.036  0.6302 -0.4216  0.4989
  579MOL0     C79806   5.955   4.687   6.083 -0.7101 -0.6717  0.5709
  579MOL0     C79807   5.811   4.741   6.074  0.5927  0.2762 -0.1166
  579MOL0     C79808   5.720   4.645   6.148 -0.2456  0.2570  0.1190
  579MOL0    Cl79809   5.567   4.723   6.192  0.1833 -0.0696  0.0687
  579MOL0     C79810   6.694   4.984   5.701 -0.0695 -0.2529 -0.3857
  579MOL0     C79811   6.830   5.005   5.662  0.3320 -0.6849 -0.0370
  579MOL0     O79812   7.127   5.099   5.882  0.3838 -0.0292  0.7934
  579MOL0     C79813   7.214   5.234   5.601  0.4363 -0.6522  0.2210
  579MOL0     C79814   7.315   5.284   5.519  0.2304 -0.1657  0.1243
  579MOL0     N79815   7.938   5.506   4.921  0.4128  0.1210  0.2240
  579MOL0     N79816   7.913   5.472   4.796  0.4427 -0.0689  0.3276
  579MOL0     C79817   6.780   5.163   4.561 -0.6417  0.4355  0.1046
  579MOL0     C79818   6.647   5.144   4.529  0.0969 -0.0283 -0.7956
  579MOL0     C79819   6.293   5.008   4.294  0.1050 -0.1433 -0.7048
  579MOL0     C79820   6.202   5.122   4.280  0.8628 -0.3956 -0.1598
  579MOL0     C79821   6.071   5.100   4.253  0.6184  0.5210  0.1785
  579MOL0     C79822   6.017   4.970   4.240  0.9620 -0.3046  0.2568
  579MOL0     O79823   5.882   4.936   4.212 -0.6270  0.9653  0.5232
  579MOL0     C79824   5.772   5.030   4.192 -1.0569  0.0999 -0.5242
  579MOL0     C79825   5.637   4.967   4.157 -0.1067 -0.1772 -0.8177
  579MOL0     C79826   5.628   4.904   4.016  0.5156 -0.8353  0.5493
  579MOL0     C79827   5.500   4.813   3.997 -0.2484  0.0333  0.4849
  579MOL0     C79828   5.380   4.898   4.027 -1.1322 -0.0802 -0.0906
  579MOL0     C79829   5.280   4.969   4.046 -0.8314 -0.7263  0.4504
  579MOL0     C79830   6.102   4.859   4.250  0.4220 -0.6048  0.7142
  579MOL0     C79831   6.237   4.875   4.272 -0.8386 -0.6816 -0.1417
  579MOL0     C79832   6.325   4.750   4.271  0.0611 -0.0138  0.0373
  579MOL0     H79833   6.634   5.286   4.226  0.2650  0.3346  0.5852
  579MOL0     H79834   6.884   5.298   4.264  1.1686  0.1970  0.0989
  579MOL0     H79835   7.042   5.011   4.525  1.2633  0.3723 -2.6412
  579MOL0     H79836   7.052   5.144   4.650  1.1176 -0.5238  0.1886
  579MOL0     H79837   7.272   5.089   4.609 -0.8959 -1.2632 -0.4712
  579MOL0     H79838   7.254   5.069   4.433  2.0014 -0.0197 -0.2961
  579MOL0     H79839   7.254   5.297   4.391  0.3738  1.0349  0.5321
  579MOL0     H79840   7.233   5.348   4.557 -0.1912  0.3372 -1.1193
  579MOL0     H79841   7.484   5.195   4.472  1.7461 -0.1602  0.8740
  579MOL0     H79842   7.469   5.367   4.459  0.7587 -1.5159 -1.2976
  579MOL0     H79843   7.380   5.259   4.727 -0.9960  0.7895  0.1330
  579MOL0     H79844   7.467   5.410   4.689 -1.8367  1.3847 -1.0396
  579MOL0     H79845   7.619   5.261   4.803 -0.6252  1.1919 -0.1946
  579MOL0     H79846   7.605   5.129   4.683  0.1688 -1.0683 -0.7311
  579MOL0     H79847   7.705   5.282   4.515  1.1365  0.0651  0.0412
  579MOL0     H79848   7.803   5.255   4.651 -0.0954 -1.0214 -0.0549
  579MOL0     H79849   7.797   5.503   4.573 -0.0496  0.9850 -0.7674
  579MOL0     H79850   7.632   5.518   4.627 -0.7847  0.8501  4.8813
  579MOL0     H79851   7.611   5.537   4.904 -0.3464 -0.1356  0.2300
  579MOL0     H79852   7.771   5.679   5.116  0.5300 -0.0867  2.3787
  579MOL0     H79853   7.873   5.556   5.190 -0.8425 -1.0241  0.8810
  579MOL0     H79854   7.598   5.587   5.202 -0.5219  0.9493 -1.9528
  579MOL0     H79855   7.606   5.439   5.102 -0.7211 -1.1882  1.9820
  579MOL0     H79856   7.738   5.342   5.285 -1.4901 -0.6448  0.5979
  579MOL0     H79857   7.711   5.492   5.384  0.2289  2.4654 -0.5887
  579MOL0     H79858   7.470   5.462   5.374 -1.9461 -0.8943 -1.2265
  579MOL0     H79859   7.483   5.326   5.264 -2.3960 -1.1676  1.3366
  579MOL0     H79860   7.599   5.154   5.662  0.3234 -1.2621  0.1015
  579MOL0     H79861   7.404   5.055   5.926 -1.6775 -2.4858  1.0993
  579MOL0     H79862   7.553   5.013   5.834  1.2528  1.9983  1.0984
  579MOL0     H79863   7.399   4.917   5.812  0.7442  0.1772 -2.3420
  579MOL0     H79864   7.008   4.808   5.873  0.5774  1.5515  1.9182
  579MOL0     H79865   6.773   4.770   5.965  0.2979 -1.8729 -1.5401
  579MOL0     H79866   6.422   4.981   5.778  1.4979 -0.1401  0.5364
  579MOL0     H79867   6.474   4.837   5.689 -0.3201  2.4636 -1.4412
  579MOL0     H79868   6.240   4.816   5.797  0.1596 -1.5247  0.2622
  579MOL0     H79869   6.361   4.696   5.862  2.5498  0.0357  1.0238
  579MOL0     H79870   6.252   4.948   5.997  1.6127  0.5445  0.0373
  579MOL0     H79871   6.382   4.844   6.051  1.5196 -0.9455 -2.0041
  579MOL0     H79872   6.225   4.751   6.166  1.2330 -0.1030 -0.5620
  579MOL0     H79873   6.210   4.646   6.020  0.7322 -1.1731  1.2412
  579MOL0     H79874   6.036   4.887   6.088  2.6498  0.7564 -1.0312
  579MOL0     H79875   6.029   4.814   5.931  0.6120  3.3389  1.1470
  579MOL0     H79876   5.978   4.651   6.184  0.9886 -0.7668  0.1790
  579MOL0     H79877   5.966   4.604   6.013 -3.1162  1.0225 -1.9988
  579MOL0     H79878   5.783   4.747   5.968  1.7473  1.4102 -0.3846
  579MOL0     H79879   5.822   4.842   6.114  0.3827  0.1645  0.2267
  579MOL0     H79880   5.770   4.617   6.241 -0.2493  0.1205  0.0795
  579MOL0     H79881   5.720   4.554   6.088  2.2832  0.4956 -0.3316
  579MOL0     H79882   6.606   5.026   5.655  0.5330  3.0962  1.2257
  579MOL0     H79883   6.860   5.070   5.580  0.4273 -0.1552  0.4159
  579MOL0     H79884   7.110   5.263   5.590  0.5859  0.6025  1.7925
  579MOL0     H79885   7.303   5.366   5.448  0.1702 -0.0589  0.2564
  579MOL0     H79886   6.835   5.123   4.645 -0.1500  1.6419  0.3800
  579MOL0     H79887   6.585   5.098   4.605  0.3847  0.5682 -0.1867
  579MOL0     H79888   6.243   5.219   4.305 -0.9763  0.6303 -0.9546
  579MOL0     H79889   6.001   5.183   4.249  1.0969  0.8956 -0.6530
  579MOL0     H79890   5.755   5.083   4.286 -0.5411 -0.5228 -0.0658
  579MOL0     H79891   5.803   5.096   4.111 -0.3818  0.6607  0.1732
  579MOL0     H79892   5.565   5.050   4.161  3.1741  2.8653 -0.1579
  579MOL0     H79893   5.613   4.903   4.243  0.7829  0.3299 -0.1785
  579MOL0     H79894   5.628   4.975   3.933 -2.4825 -0.4719  0.7829
  579MOL0     H79895   5.719   4.843   4.016  2.4351  1.8357  0.2667
  579MOL0     H79896   5.518   4.724   4.056  0.9908 -1.0459 -1.4195
  579MOL0     H79897   5.502   4.782   3.892  0.7277  1.1594  0.1480
  579MOL0     H79898   5.184   5.013   4.068  0.2335  1.3924  1.0794
  579MOL0     H79899   6.060   4.760   4.234  4.0858 -2.2403  0.0176
  579MOL0     H79900   6.263   4.661   4.288 -2.6101  2.0035  1.7728
  579MOL0     H79901   6.374   4.733   4.175  0.3132  1.0376 -0.0251
  579MOL0     H79902   6.401   4.750   4.349  0.1975  2.2212 -0.0410
  580MOL0     O79903   1.677   9.008   5.798 -0.3316  0.0269 -0.2420
  580MOL0     C79904   1.716   8.940   5.893  0.3446  0.0503  0.2971
  580MOL0     O79905   1.838   8.955   5.950 -0.2192  0.3200  0.1236
  580MOL0     C79906   1.911   9.069   5.913  1.0025  0.5464  0.1775
  580MOL0     C79907   1.884   9.197   5.950  0.5357  0.5321  0.2156
  580MOL0     C79908   1.950   9.309   5.909 -0.3437  0.5845  0.4391
  580MOL0     C79909   2.064   9.291   5.831  0.6458 -0.7608 -0.3238
  580MOL0     O79910   2.139   9.394   5.773  0.0877  0.3054  0.0614
  580MOL0     C79911   2.086   9.528   5.777  0.9693 -0.4178  0.6643
  580MOL0     C79912   1.964   9.555   5.703 -0.1912  0.5444  0.1091
  580MOL0     C79913   1.956   9.486   5.563  0.6657 -1.1815  0.0331
  580MOL0     C79914   2.042   9.556   5.464  0.3279  0.2815 -0.5366
  580MOL0     C79915   2.039   9.472   5.351  0.2857  0.4599  0.5259
  580MOL0     C79916   2.129   9.526   5.239 -0.1705 -0.4845  0.6312
  580MOL0     C79917   2.270   9.573   5.266 -0.2884  0.3329 -0.1376
  580MOL0     C79918   2.360   9.459   5.327  0.1517  0.5986  0.0944
  580MOL0     N79919   2.498   9.517   5.339 -0.8333  0.2082 -0.0547
  580MOL0     C79920   2.544   9.605   5.434  0.6761  0.7855 -0.7949
  580MOL0     C79921   2.684   9.618   5.423 -0.2115  0.1704  0.2039
  580MOL0     C79922   2.768   9.703   5.510 -0.5604 -0.6686 -1.3731
  580MOL0     C79923   2.762   9.657   5.652 -0.6138  0.4685 -0.2700
  580MOL0     C79924   2.825   9.521   5.662 -0.4861 -0.5540 -0.2116
  580MOL0     C79925   2.891   9.498   5.800 -0.0880 -0.2634  0.4300
  580MOL0     O79926   2.927   9.359   5.794  0.2037  0.6766  0.1548
  580MOL0     C79927   2.962   9.289   5.910  0.5252 -0.3325  0.0059
  580MOL0     C79928   2.973   9.346   6.032  0.6372  0.3280 -0.6699
  580MOL0     C79929   3.024   9.269   6.141 -0.4375 -0.0456  0.0680
  580MOL0     C79930   3.045   9.345   6.276 -0.0157  0.4084 -0.4680
  580MOL0     C79931   3.051   9.131   6.122  1.3701 -0.3365  0.1730
  580MOL0     C79932   3.115   9.047   6.232  0.8842  0.2438 -0.8765
  580MOL0     O79933   3.160   8.926   6.200 -0.3923  0.6298  0.5609
  580MOL0     C79934   3.248   8.858   6.275  0.1423  0.8298  0.5946
  580MOL0     C79935   3.366   8.912   6.315 -0.7418  0.3541  0.2709
  580MOL0     C79936   3.461   8.847   6.396 -0.5114  0.5773  0.2753
  580MOL0     C79937   3.427   8.710   6.434  0.7066 -0.3481 -0.1382
  580MOL0     O79938   3.531   8.652   6.507  0.1726  0.0856  0.5196
  580MOL0     C79939   3.539   8.514   6.524 -0.5837  0.6307  0.1021
  580MOL0     C79940   3.659   8.492   6.613 -0.7350 -0.0931 -0.2312
  580MOL0     C79941   3.621   8.428   6.746  0.3604  0.5386  0.3316
  580MOL0     C79942   3.542   8.519   6.843  0.0223 -0.2641  0.3985
  580MOL0     C79943   3.548   8.460   6.976 -0.6304 -0.2799 -0.0913
  580MOL0     C79944   3.500   8.561   7.082  0.3504 -0.9259  0.0781
  580MOL0     C79945   3.456   8.474   7.203  0.0095  0.9449  0.3844
  580MOL0     C79946   3.395   8.542   7.332  0.0176 -0.0148  0.1408
  580MOL0    Cl79947   3.260   8.654   7.296  0.6274 -0.1865  0.4103
  580MOL0     C79948   3.301   8.654   6.398 -0.2576 -0.2936 -0.0741
  580MOL0     C79949   3.214   8.731   6.323 -0.2062  0.3004 -0.2005
  580MOL0     O79950   3.123   9.091   6.345  0.6091 -0.4167 -0.0993
  580MOL0     C79951   3.026   9.071   6.000  0.6743 -0.2761  1.0016
  580MOL0     C79952   2.977   9.152   5.896 -0.3848 -0.1641 -0.3082
  580MOL0     N79953   2.723   9.533   5.323 -0.2869  0.8744 -0.3127
  580MOL0     N79954   2.613   9.476   5.276  0.3006 -0.0939  0.4452
  580MOL0     C79955   2.101   9.158   5.798 -0.2462  0.3290 -0.3160
  580MOL0     C79956   2.016   9.054   5.827  0.8632  0.4244  1.1129
  580MOL0     C79957   1.633   8.824   5.935  0.6605  0.8491 -0.9699
  580MOL0     C79958   1.701   8.704   5.968 -0.8461 -0.8247  0.2257
  580MOL0     C79959   1.637   8.583   6.001 -0.5729  0.5951  0.7249
  580MOL0     C79960   1.498   8.578   5.993 -0.3252  0.1616 -0.1479
  580MOL0     O79961   1.453   8.456   6.036  0.0319  0.2207  0.1366
  580MOL0     C79962   1.316   8.436   6.065 -0.5819 -0.0279  0.4552
  580MOL0     C79963   1.234   8.425   5.939 -0.7930  0.1468 -0.0195
  580MOL0     C79964   1.084   8.462   5.951 -0.5634 -0.9508 -0.6667
  580MOL0     C79965   1.007   8.432   5.822 -0.0153  0.2820  1.4952
  580MOL0     C79966   0.863   8.473   5.811 -0.3075  0.3857 -0.1807
  580MOL0     C79967   0.756   8.518   5.782 -0.2847 -0.2270  0.1048
  580MOL0     C79968   1.429   8.699   5.949  0.0566  0.3796  1.1650
  580MOL0     C79969   1.493   8.820   5.928  0.0187 -0.4449  0.0170
  580MOL0     C79970   1.412   8.945   5.906  0.3298 -0.1276  0.0023
  580MOL0     H79971   1.786   9.197   5.996  0.3530  1.2066 -0.1536
  580MOL0     H79972   1.902   9.403   5.931 -1.2160  0.7231 -1.8177
  580MOL0     H79973   2.157   9.602   5.739 -0.4710  0.3377 -0.6649
  580MOL0     H79974   2.067   9.552   5.882 -2.9778 -2.5210  0.6482
  580MOL0     H79975   1.877   9.531   5.765  2.3246  0.8726  4.1702
  580MOL0     H79976   1.956   9.664   5.698  0.0374  0.8400  3.6222
  580MOL0     H79977   1.982   9.381   5.580 -1.3382 -1.6332  0.4637
  580MOL0     H79978   1.853   9.498   5.530  0.8636 -1.0935 -0.5620
  580MOL0     H79979   1.996   9.652   5.443 -2.7126 -1.1088 -0.7619
  580MOL0     H79980   2.145   9.566   5.499 -0.1557 -0.1591  1.0897
  580MOL0     H79981   1.937   9.464   5.314  0.2501 -0.2233  0.7600
  580MOL0     H79982   2.090   9.378   5.375  1.0727  0.2825 -1.6298
  580MOL0     H79983   2.126   9.443   5.168 -1.1432 -2.5257  2.9102
  580MOL0     H79984   2.077   9.613   5.197  2.7768  1.0987 -0.0400
  580MOL0     H79985   2.274   9.651   5.343 -1.1832  0.3824 -0.1340
  580MOL0     H79986   2.316   9.616   5.177 -2.0508 -0.7151 -1.6110
  580MOL0     H79987   2.317   9.418   5.418 -1.3361 -1.2447 -1.3777
  580MOL0     H79988   2.367   9.370   5.265  1.6559  0.8104 -0.0847
  580MOL0     H79989   2.478   9.665   5.496 -2.6332 -1.9289 -1.3897
  580MOL0     H79990   2.766   9.812   5.501  1.0354 -0.5230 -0.3372
  580MOL0     H79991   2.870   9.678   5.478  0.4645  1.4017  0.0615
  580MOL0     H79992   2.819   9.727   5.714  0.4128 -0.9229  0.4131
  580MOL0     H79993   2.656   9.666   5.678 -0.8821  1.5929 -1.6752
  580MOL0     H79994   2.745   9.448   5.648 -1.6513  0.6851 -0.1941
  580MOL0     H79995   2.908   9.512   5.591  0.2967  0.6926  0.5048
  580MOL0     H79996   2.983   9.557   5.813 -0.1147 -0.5112  1.9773
  580MOL0     H79997   2.823   9.526   5.881 -1.4204  0.0458 -0.7539
  580MOL0     H79998   2.953   9.452   6.044  0.8051  0.1973  1.0383
  580MOL0     H79999   2.968   9.336   6.353  0.0758 -1.0050 -0.5145
  580MOL0     H80000   3.056   9.453   6.263 -1.1472  1.5611  5.3376
  580MOL0     H80001   3.141   9.325   6.324 -0.5810  1.2121  1.0756
  580MOL0     H80002   3.387   9.011   6.277 -4.2569  0.6607 -1.2846
  580MOL0     H80003   3.549   8.904   6.424  0.7579 -1.5418  0.8184
  580MOL0     H80004   3.446   8.492   6.577 -1.1191  0.1795 -0.9918
  580MOL0     H80005   3.540   8.456   6.431  2.5781  2.1783 -0.9735
  580MOL0     H80006   3.726   8.436   6.546  1.0235 -0.4664  1.7408
  580MOL0     H80007   3.704   8.588   6.639  0.5709 -0.5535 -0.6864
  580MOL0     H80008   3.722   8.409   6.785  1.1980  1.4871 -1.2851
  580MOL0     H80009   3.567   8.337   6.719 -1.5351  1.4470  0.9013
  580MOL0     H80010   3.438   8.529   6.808 -0.2548 -2.1808  0.5741
  580MOL0     H80011   3.596   8.614   6.839 -1.5279  0.7092  1.3219
  580MOL0     H80012   3.486   8.370   6.972 -0.6431 -0.2842 -3.8171
  580MOL0     H80013   3.651   8.431   6.999  0.4002  0.5369 -3.1531
  580MOL0     H80014   3.420   8.630   7.054  2.9163  2.1072 -0.3173
  580MOL0     H80015   3.571   8.633   7.122 -0.8469  0.7102 -0.6437
  580MOL0     H80016   3.530   8.405   7.242  0.5580 -1.4465 -4.2087
  580MOL0     H80017   3.368   8.416   7.174  0.6625 -0.1602  0.5816
  580MOL0     H80018   3.472   8.597   7.386  0.5627  1.1696 -1.7348
  580MOL0     H80019   3.364   8.455   7.390  1.2265 -0.9749 -0.6254
  580MOL0     H80020   3.284   8.551   6.427  0.8663  0.1530  2.4191
  580MOL0     H80021   3.118   8.690   6.295 -1.2122  2.2028  0.3363
  580MOL0     H80022   3.030   8.964   5.981 -2.7868  0.0083 -2.8039
  580MOL0     H80023   2.934   9.111   5.806  0.2607  0.4069 -0.8870
  580MOL0     H80024   2.191   9.141   5.740 -0.8508 -2.4002 -0.6039
  580MOL0     H80025   2.043   8.952   5.802  0.4400 -0.0504  2.4664
  580MOL0     H80026   1.808   8.702   5.951 -0.8147 -2.2747  0.4759
  580MOL0     H80027   1.686   8.489   6.026  1.7735  1.6297  0.3258
  580MOL0     H80028   1.303   8.347   6.128  0.7911 -1.4075 -1.1344
  580MOL0     H80029   1.278   8.525   6.116 -0.1443  0.6470 -0.3771
  580MOL0     H80030   1.244   8.326   5.895 -0.3996  0.8311 -1.5267
  580MOL0     H80031   1.288   8.484   5.865  1.9632 -0.3517  1.4771
  580MOL0     H80032   1.045   8.398   6.031 -0.6618 -0.3118 -0.1913
  580MOL0     H80033   1.065   8.565   5.982 -3.1367 -1.6870  0.5007
  580MOL0     H80034   1.012   8.334   5.773 -1.2017  1.0018 -0.1484
  580MOL0     H80035   1.057   8.494   5.747 -1.9649  1.0262  0.7533
  580MOL0     H80036   0.665   8.566   5.751  1.9083  2.7927 -2.2662
  580MOL0     H80037   1.325   8.696   5.920  0.4876 -1.9486 -0.4042
  580MOL0     H80038   1.381   8.960   5.803 -0.5855 -0.1197  0.2676
  580MOL0     H80039   1.321   8.941   5.967  0.1367 -0.0003 -0.2749
  580MOL0     H80040   1.473   9.029   5.941  1.3107 -1.1540  0.8478
  581MOL0     O80041  11.273   5.907   7.032  0.1119  0.1019 -0.6109
  581MOL0     C80042  11.269   5.848   6.917  0.3559  0.0771 -0.1859
  581MOL0     O80043  11.348   5.744   6.874 -0.1441 -0.8224 -0.6648
  581MOL0     C80044  11.461   5.729   6.951  0.1066 -0.4271  0.2325
  581MOL0     C80045  11.473   5.603   7.008 -0.5184  0.0397  0.1526
  581MOL0     C80046  11.576   5.578   7.093 -0.0424  0.5391  0.3658
  581MOL0     C80047  11.685   5.660   7.118 -0.4194 -0.2634  0.1224
  581MOL0     O80048  11.783   5.629   7.205 -0.2171 -0.1937  0.3599
  581MOL0     C80049  11.885   5.573   7.129  0.9739  0.1058 -0.5799
  581MOL0     C80050  11.996   5.543   7.230  0.0166  0.1361 -0.0989
  581MOL0     C80051  12.069   5.680   7.266  0.8051 -0.2206 -0.0444
  581MOL0     C80052  12.196   5.663   7.347  0.3991 -0.8433  0.7881
  581MOL0     C80053  12.212   5.790   7.439  0.3561  0.4839  0.0131
  581MOL0     C80054  12.349   5.791   7.503  0.6070  0.3404 -0.1108
  581MOL0     C80055  12.383   5.914   7.577  0.4147  1.4234 -0.0890
  581MOL0     C80056  12.501   5.895   7.671  0.2021  0.6894 -0.0040
  581MOL0     N80057  12.630   5.872   7.605  0.0502  0.3767 -0.9743
  581MOL0     C80058  12.714   5.974   7.572 -0.8446 -0.3824 -0.6655
  581MOL0     C80059  12.807   5.906   7.499  0.3964 -0.5207 -0.0448
  581MOL0     C80060  12.914   5.968   7.422 -1.2147  1.0705  0.1565
  581MOL0     C80061  13.057   5.930   7.464  0.0741  0.6296  0.3345
  581MOL0     C80062  13.096   6.008   7.594 -0.4126 -0.5378 -0.1224
  581MOL0     C80063  13.248   6.018   7.609  0.1530 -0.4553  0.0879
  581MOL0     O80064  13.286   6.064   7.734  0.1002  0.5354  0.5156
  581MOL0     C80065  13.421   6.075   7.751  0.1108  0.4196  0.0741
  581MOL0     C80066  13.524   6.013   7.676 -0.0214  0.5844 -0.4817
  581MOL0     C80067  13.655   6.035   7.697 -0.6613 -0.2449 -0.2746
  581MOL0     C80068  13.771   6.000   7.603 -0.6915  0.0669  0.1784
  581MOL0     C80069  13.686   6.123   7.807  0.6484  0.2203  0.4180
  581MOL0     C80070  13.820   6.183   7.833 -0.0038 -0.2678 -0.4650
  581MOL0     O80071  13.842   6.320   7.849  0.1842 -0.4182 -0.0095
  581MOL0     C80072  13.969   6.371   7.835  0.2937  0.2560 -0.4918
  581MOL0     C80073  13.991   6.471   7.744  0.1427 -0.3786  0.2369
  581MOL0     C80074  14.123   6.515   7.724  0.1271 -0.5809 -0.6852
  581MOL0     C80075  14.230   6.458   7.782  0.2462 -0.0224  0.2749
  581MOL0     O80076  14.351   6.512   7.738 -0.5433  1.0120  0.1461
  581MOL0     C80077  14.451   6.538   7.844 -0.8338  0.5733 -0.6999
  581MOL0     C80078  14.568   6.608   7.775  0.4600 -0.4186  0.3033
  581MOL0     C80079  14.669   6.510   7.721  0.1131  0.1592 -0.0596
  581MOL0     C80080  14.802   6.579   7.682  1.1984 -0.4581 -0.1683
  581MOL0     C80081  14.892   6.466   7.622 -0.0467  0.5524 -0.3907
  581MOL0     C80082  15.033   6.508   7.613 -1.0163  0.0803 -0.7437
  581MOL0     C80083  15.135   6.385   7.608 -0.4549  0.3505 -0.2594
  581MOL0     C80084  15.108   6.288   7.488  0.8355 -0.5258  0.7734
  581MOL0    Cl80085  15.165   6.360   7.345 -0.1781  0.0528 -0.3346
  581MOL0     C80086  14.213   6.358   7.877 -0.1707  0.2852  0.4165
  581MOL0     C80087  14.084   6.313   7.899  0.6228 -0.3868 -0.8031
  581MOL0     O80088  13.908   6.099   7.844 -0.6852 -0.0988  0.3991
  581MOL0     C80089  13.586   6.171   7.890 -0.0082 -0.1547 -0.0256
  581MOL0     C80090  13.456   6.151   7.863  0.9114 -0.4194  0.3944
  581MOL0     N80091  12.786   5.769   7.504  0.1237 -0.4779 -1.0238
  581MOL0     N80092  12.676   5.755   7.566  0.6376  0.8544  1.1038
  581MOL0     C80093  11.684   5.785   7.058 -0.1062  1.0675  0.4914
  581MOL0     C80094  11.567   5.823   6.980  0.0351  0.2856  0.1859
  581MOL0     C80095  11.148   5.885   6.830 -0.4926 -0.2589  1.5522
  581MOL0     C80096  11.115   5.784   6.733  0.1076  0.1290  0.1750
  581MOL0     C80097  10.999   5.789   6.653  0.4741 -0.3851 -0.7883
  581MOL0     C80098  10.899   5.888   6.686 -0.6005  0.3776 -0.3100
  581MOL0     O80099  10.781   5.892   6.624 -0.0176  0.2645 -0.4496
  581MOL0     C80100  10.719   5.796   6.547 -0.2692  0.0237 -1.0381
  581MOL0     C80101  10.652   5.875   6.433  0.4968 -1.0241 -0.8547
  581MOL0     C80102  10.591   5.794   6.326 -0.0013 -0.3324  0.8663
  581MOL0     C80103  10.507   5.666   6.373  0.3966 -0.1789  0.1969
  581MOL0     C80104  10.386   5.724   6.443  0.2435 -0.5700 -0.0113
  581MOL0     C80105  10.291   5.778   6.498  0.3782 -0.9558  0.6084
  581MOL0     C80106  10.936   5.988   6.783  0.1725 -0.1766  0.9065
  581MOL0     C80107  11.061   5.988   6.853 -0.2241  0.1483 -0.7954
  581MOL0     C80108  11.089   6.103   6.946  0.1294  0.1540  0.2404
  581MOL0     H80109  11.398   5.532   6.974 -0.5697  0.6944 -1.2030
  581MOL0     H80110  11.595   5.477   7.129  1.2878 -0.3698 -2.5445
  581MOL0     H80111  11.920   5.634   7.045  1.4949 -1.6726 -1.7212
  581MOL0     H80112  11.858   5.476   7.087  0.8903 -0.7115  1.2617
  581MOL0     H80113  11.963   5.486   7.317  1.6268 -1.2888 -0.3575
  581MOL0     H80114  12.059   5.478   7.168 -2.1040 -1.6384 -0.5149
  581MOL0     H80115  12.082   5.745   7.179 -0.9263 -0.4286 -0.4951
  581MOL0     H80116  12.005   5.743   7.328  0.2647 -1.1404  0.3491
  581MOL0     H80117  12.200   5.569   7.403  3.3921 -3.3504 -3.0836
  581MOL0     H80118  12.284   5.659   7.281  1.6173  1.0342  2.1846
  581MOL0     H80119  12.136   5.795   7.517 -0.7771  0.4601 -1.0665
  581MOL0     H80120  12.201   5.877   7.373  2.3443 -0.6764 -2.0001
  581MOL0     H80121  12.347   5.709   7.575  2.5679 -1.6861 -2.1949
  581MOL0     H80122  12.427   5.775   7.428  0.7921  0.5758  0.0319
  581MOL0     H80123  12.302   5.940   7.645 -0.4479  1.3753 -1.0616
  581MOL0     H80124  12.408   6.003   7.518  0.5289  0.8350 -0.9442
  581MOL0     H80125  12.500   5.990   7.725  0.9499  0.2772  0.7636
  581MOL0     H80126  12.479   5.812   7.738 -3.5090  0.1707 -1.6007
  581MOL0     H80127  12.702   6.081   7.586  1.4461 -0.2011  0.3232
  581MOL0     H80128  12.903   6.077   7.426  0.2755  1.2507  0.1687
  581MOL0     H80129  12.893   5.936   7.320  0.1227  0.1454  0.1379
  581MOL0     H80130  13.068   5.823   7.486 -0.1420 -0.0655 -2.5503
  581MOL0     H80131  13.128   5.942   7.382  1.5944  0.3334  1.5726
  581MOL0     H80132  13.059   6.111   7.595  0.0783 -0.3214 -1.6395
  581MOL0     H80133  13.045   5.950   7.672 -0.5271 -3.4126 -2.1721
  581MOL0     H80134  13.287   5.917   7.592  3.6846  0.7665  0.0156
  581MOL0     H80135  13.280   6.088   7.531 -1.7922  1.5106  0.9530
  581MOL0     H80136  13.510   5.952   7.587 -1.2793  1.2736 -0.7726
  581MOL0     H80137  13.731   5.960   7.509  0.5307  2.9142 -1.6828
  581MOL0     H80138  13.835   5.920   7.641 -0.5712 -1.6208 -3.2155
  581MOL0     H80139  13.827   6.088   7.569 -0.3111 -0.4482 -0.5495
  581MOL0     H80140  13.922   6.513   7.672  1.0617  0.5341 -0.1353
  581MOL0     H80141  14.147   6.599   7.660 -1.6183  2.9232  2.7884
  581MOL0     H80142  14.403   6.608   7.913  1.3282  2.9311 -1.4163
  581MOL0     H80143  14.483   6.447   7.895  2.5618  1.2316 -1.3706
  581MOL0     H80144  14.527   6.672   7.697 -0.2424 -0.0114  0.9843
  581MOL0     H80145  14.626   6.663   7.850  2.3818 -2.6222  0.5412
  581MOL0     H80146  14.629   6.454   7.636  1.1762 -0.1370 -0.3842
  581MOL0     H80147  14.681   6.435   7.800 -0.2016  0.1566 -0.0139
  581MOL0     H80148  14.848   6.630   7.767 -0.3719 -0.0534  0.4768
  581MOL0     H80149  14.785   6.653   7.604  1.5355  0.1893  0.3625
  581MOL0     H80150  14.881   6.386   7.697 -2.7080  0.6596 -0.5728
  581MOL0     H80151  14.850   6.423   7.531 -2.0665  1.2253  0.1666
  581MOL0     H80152  15.059   6.558   7.707  2.4541  0.6124 -1.8249
  581MOL0     H80153  15.038   6.582   7.533  1.6856  0.4696 -0.2982
  581MOL0     H80154  15.139   6.330   7.703 -0.6995  2.0635  0.7766
  581MOL0     H80155  15.235   6.426   7.597  0.8003 -2.4896 -0.2629
  581MOL0     H80156  15.003   6.266   7.468  0.5987 -0.9952  2.3724
  581MOL0     H80157  15.164   6.195   7.501 -1.4711 -2.0880  0.1503
  581MOL0     H80158  14.301   6.297   7.896 -0.8511 -0.5832  0.8774
  581MOL0     H80159  14.066   6.236   7.973  0.3051  0.9487  0.5823
  581MOL0     H80160  13.607   6.241   7.970 -0.3059 -0.7050  0.5391
  581MOL0     H80161  13.384   6.201   7.926 -0.7457  2.4940 -3.4018
  581MOL0     H80162  11.770   5.850   7.070  3.5760 -2.4229 -3.5891
  581MOL0     H80163  11.552   5.921   6.937  1.4354  0.5925  0.3668
  581MOL0     H80164  11.176   5.698   6.708 -0.2190  0.2083 -0.9616
  581MOL0     H80165  10.993   5.711   6.578  3.0845 -0.7893 -0.6676
  581MOL0     H80166  10.784   5.726   6.492 -2.3372 -0.7670 -2.6029
  581MOL0     H80167  10.649   5.735   6.606 -0.9011 -0.1848 -1.9889
  581MOL0     H80168  10.733   5.939   6.396  2.9228 -2.4341  1.6094
  581MOL0     H80169  10.581   5.949   6.472 -0.1981 -0.7643 -2.5292
  581MOL0     H80170  10.531   5.862   6.266 -0.9516 -0.2682  1.8663
  581MOL0     H80171  10.677   5.759   6.267 -0.5800  0.8502 -0.7404
  581MOL0     H80172  10.573   5.607   6.436 -0.3008 -2.6519 -1.2312
  581MOL0     H80173  10.479   5.600   6.289  2.2961  0.1478 -0.7393
  581MOL0     H80174  10.222   5.839   6.553  0.4632  0.5980 -0.8988
  581MOL0     H80175  10.858   6.057   6.813  0.7622  1.4743 -1.0595
  581MOL0     H80176  11.034   6.194   6.920  0.6538  0.7942  1.2848
  581MOL0     H80177  11.073   6.076   7.050  2.7700  0.6648  0.8565
  581MOL0     H80178  11.195   6.130   6.946 -0.3444  2.2172  0.3657
  582MOL0     O80179   2.189   3.420   9.438  0.6583 -0.1287 -0.4944
  582MOL0     C80180   2.178   3.513   9.358 -0.5678  0.7590 -0.9451
  582MOL0     O80181   2.082   3.520   9.268 -0.1128  0.1627 -0.6237
  582MOL0     C80182   1.965   3.438   9.269  0.0181  1.1163 -0.2238
  582MOL0     C80183   1.906   3.387   9.391  0.0355 -0.4905 -0.1275
  582MOL0     C80184   1.790   3.305   9.391 -0.4465  0.6027 -0.6556
  582MOL0     C80185   1.739   3.266   9.268 -0.4417 -0.6156 -0.2995
  582MOL0     O80186   1.630   3.192   9.266  0.2600  0.2151 -0.0180
  582MOL0     C80187   1.640   3.067   9.336 -0.4840  0.3882  0.5322
  582MOL0     C80188   1.695   2.954   9.241  0.4469 -0.1004  0.6832
  582MOL0     C80189   1.635   2.949   9.095  0.8508  0.5564 -0.0711
  582MOL0     C80190   1.494   2.892   9.113  0.5146  0.1189 -0.6827
  582MOL0     C80191   1.421   2.879   8.979  0.6193 -0.2609 -0.4759
  582MOL0     C80192   1.398   3.011   8.907  0.2740 -0.3874 -0.0340
  582MOL0     C80193   1.356   2.994   8.756 -0.0006 -0.8908 -0.6899
  582MOL0     C80194   1.208   2.960   8.751  0.0608  0.3604  0.2638
  582MOL0     N80195   1.175   2.817   8.774 -0.2943 -1.1143  0.1756
  582MOL0     C80196   1.235   2.716   8.705  0.4890  0.0936 -0.4397
  582MOL0     C80197   1.199   2.607   8.773 -0.3313  0.1496  0.5342
  582MOL0     C80198   1.236   2.466   8.745 -0.5343 -0.4229  0.3467
  582MOL0     C80199   1.372   2.442   8.808  0.0664  0.1616 -0.0184
  582MOL0     C80200   1.367   2.356   8.938 -0.1764 -1.0532 -1.1767
  582MOL0     C80201   1.501   2.326   9.011 -0.0816 -0.2243  0.3771
  582MOL0     O80202   1.554   2.460   9.037  0.0189  0.3574  0.5379
  582MOL0     C80203   1.681   2.480   9.098  0.8594 -0.0548  0.1624
  582MOL0     C80204   1.759   2.375   9.148 -0.0033 -0.7731 -0.4926
  582MOL0     C80205   1.882   2.396   9.211 -0.6584 -0.3411  0.0327
  582MOL0     C80206   1.959   2.273   9.244 -0.5102 -0.2161 -0.8440
  582MOL0     C80207   1.933   2.530   9.209 -1.0377 -0.0695 -0.6336
  582MOL0     C80208   2.055   2.565   9.276  0.3842 -0.6653  0.6555
  582MOL0     O80209   2.120   2.671   9.228  0.8845  0.0081 -0.1372
  582MOL0     C80210   2.251   2.688   9.263  0.3066  0.4465 -1.0721
  582MOL0     C80211   2.353   2.692   9.175 -0.3636 -0.3326 -0.2090
  582MOL0     C80212   2.487   2.714   9.206  0.4789 -0.0963  0.0338
  582MOL0     C80213   2.522   2.750   9.341 -0.2758 -0.1428  0.4234
  582MOL0     O80214   2.649   2.794   9.360 -0.6741  1.3120 -0.3144
  582MOL0     C80215   2.660   2.911   9.436 -0.3300 -0.1979 -0.9396
  582MOL0     C80216   2.796   2.988   9.418  0.4671  0.2558  0.0582
  582MOL0     C80217   2.920   2.911   9.466 -0.2760 -0.2188 -0.8981
  582MOL0     C80218   2.943   2.944   9.614  0.7373  0.4702 -0.9748
  582MOL0     C80219   3.065   2.882   9.672  0.2126 -0.0907  0.7585
  582MOL0     C80220   3.069   2.906   9.818 -0.4468  0.6597  0.0181
  582MOL0     C80221   3.105   3.051   9.846 -0.5994  0.1305  0.0224
  582MOL0     C80222   3.131   3.070   9.996  0.2190  0.1654  1.0321
  582MOL0    Cl80223   3.138   3.245  10.048 -0.1465 -0.0503  0.2819
  582MOL0     C80224   2.419   2.754   9.433 -0.0803 -0.5965  0.3025
  582MOL0     C80225   2.288   2.719   9.394  0.0192 -0.3779  0.3440
  582MOL0     O80226   2.092   2.496   9.366 -0.2636 -0.2121 -0.0946
  582MOL0     C80227   1.848   2.635   9.157  1.2212  0.6535 -0.3591
  582MOL0     C80228   1.724   2.608   9.108 -0.8723 -0.9852 -0.3342
  582MOL0     N80229   1.110   2.645   8.874  0.3546 -0.3615  0.1655
  582MOL0     N80230   1.103   2.775   8.880 -0.1961 -0.2374  0.0060
  582MOL0     C80231   1.799   3.311   9.148 -0.0298  0.3037  0.0448
  582MOL0     C80232   1.911   3.392   9.146 -0.2123  0.0058 -0.5555
  582MOL0     C80233   2.253   3.634   9.398  0.3222  0.7042 -0.5770
  582MOL0     C80234   2.242   3.746   9.312  0.4666 -0.7049 -0.3101
  582MOL0     C80235   2.298   3.867   9.353 -0.2616 -0.2445  0.2545
  582MOL0     C80236   2.384   3.874   9.456  0.9071 -0.1316 -0.7492
  582MOL0     O80237   2.439   3.995   9.475  0.4657  0.0375 -0.4258
  582MOL0     C80238   2.539   4.017   9.570  0.6197 -0.3485  0.3800
  582MOL0     C80239   2.621   4.133   9.519 -0.6562  0.0840 -0.4478
  582MOL0     C80240   2.767   4.129   9.578  0.4277 -0.1951 -0.6610
  582MOL0     C80241   2.846   4.257   9.554 -0.4181  0.1977 -0.1071
  582MOL0     C80242   2.962   4.274   9.646  0.4222  0.4703  0.2408
  582MOL0     C80243   3.057   4.275   9.717  0.0917 -0.6097 -0.5416
  582MOL0     C80244   2.396   3.769   9.544 -0.8501 -0.6451  0.1412
  582MOL0     C80245   2.342   3.643   9.521 -0.5891  0.5017  0.4159
  582MOL0     C80246   2.354   3.535   9.623 -0.1884 -0.5425  0.2966
  582MOL0     H80247   1.951   3.432   9.479 -0.1239  0.8485 -0.7055
  582MOL0     H80248   1.748   3.276   9.487  0.5693  0.5734 -0.1978
  582MOL0     H80249   1.540   3.041   9.372 -0.6094 -1.6150 -1.1093
  582MOL0     H80250   1.712   3.070   9.418 -1.5826  0.9117  1.5132
  582MOL0     H80251   1.801   2.977   9.234  0.3089  1.0373  1.9930
  582MOL0     H80252   1.680   2.855   9.287 -2.1959 -0.4435 -0.7177
  582MOL0     H80253   1.626   3.046   9.046  0.6981 -0.5700 -2.4228
  582MOL0     H80254   1.692   2.884   9.028 -1.0268 -0.8980 -0.3493
  582MOL0     H80255   1.494   2.790   9.152  3.4479  0.1110 -0.5084
  582MOL0     H80256   1.436   2.958   9.178 -2.2089  0.0477 -2.8295
  582MOL0     H80257   1.324   2.837   9.009  0.4323  1.2801  1.2353
  582MOL0     H80258   1.479   2.815   8.912  2.1452 -1.4546  1.8538
  582MOL0     H80259   1.339   3.081   8.967  0.5489 -0.6846  0.5921
  582MOL0     H80260   1.494   3.062   8.889  1.1974 -1.8584  0.5824
  582MOL0     H80261   1.428   2.927   8.709  2.1649  0.2818  0.7928
  582MOL0     H80262   1.368   3.086   8.699  1.7409 -1.1320 -0.7760
  582MOL0     H80263   1.158   3.008   8.835  0.1992 -1.2578  1.3175
  582MOL0     H80264   1.175   3.002   8.656 -1.5713 -1.0802  0.1314
  582MOL0     H80265   1.313   2.712   8.630  0.6662  0.9577 -0.3125
  582MOL0     H80266   1.240   2.439   8.639 -0.4584 -0.0852  0.2597
  582MOL0     H80267   1.158   2.406   8.791 -0.3924  1.7649  3.8304
  582MOL0     H80268   1.429   2.382   8.736  0.2439 -0.2266  0.4382
  582MOL0     H80269   1.430   2.533   8.826  3.7282 -1.7173 -1.1431
  582MOL0     H80270   1.311   2.414   9.012 -0.5285 -2.4952 -0.2887
  582MOL0     H80271   1.317   2.264   8.908 -1.5628 -0.5518 -0.4910
  582MOL0     H80272   1.489   2.269   9.104  0.8307 -0.0389  0.6164
  582MOL0     H80273   1.560   2.269   8.939 -1.4822  1.2490 -2.1101
  582MOL0     H80274   1.712   2.278   9.142  1.0022 -1.2592 -0.5698
  582MOL0     H80275   1.916   2.186   9.195  1.4516 -1.1726 -0.9972
  582MOL0     H80276   1.970   2.259   9.352  1.0833 -0.1846 -0.9688
  582MOL0     H80277   2.059   2.277   9.199 -0.1467 -0.1354 -0.0653
  582MOL0     H80278   2.341   2.656   9.073 -1.1229  1.9069 -0.9639
  582MOL0     H80279   2.563   2.706   9.128  1.0946 -3.2488  0.8493
  582MOL0     H80280   2.576   2.976   9.412 -2.7779 -2.3108  1.2018
  582MOL0     H80281   2.646   2.887   9.542  1.9733 -0.3887 -0.6191
  582MOL0     H80282   2.816   3.009   9.312 -0.1130 -0.5003 -0.2082
  582MOL0     H80283   2.794   3.091   9.454  1.5355  0.9709 -1.7583
  582MOL0     H80284   3.009   2.938   9.409  1.0865  0.3282  1.3652
  582MOL0     H80285   2.905   2.804   9.451 -0.1874 -0.6899  1.8658
  582MOL0     H80286   2.865   2.923   9.687  1.7430 -0.8885 -0.2518
  582MOL0     H80287   2.959   3.052   9.624  1.3113  0.1451  3.6286
  582MOL0     H80288   3.050   2.775   9.654  3.2128 -0.5878  0.6806
  582MOL0     H80289   3.149   2.926   9.617  0.1415 -0.8403  0.0290
  582MOL0     H80290   3.147   2.841   9.859 -0.6181  0.1231 -0.4960
  582MOL0     H80291   2.974   2.876   9.861  0.8134 -1.7783  1.2856
  582MOL0     H80292   3.028   3.123   9.817  0.4246  0.7176 -1.3196
  582MOL0     H80293   3.197   3.074   9.791  0.1388  0.3243  1.2915
  582MOL0     H80294   3.224   3.020  10.022 -0.6349 -1.0856  1.7945
  582MOL0     H80295   3.055   3.010  10.048  1.2217 -0.0199  2.3119
  582MOL0     H80296   2.452   2.765   9.536  0.6443 -0.3717  0.0553
  582MOL0     H80297   2.204   2.713   9.463 -1.5625 -1.9638 -1.5952
  582MOL0     H80298   1.886   2.736   9.161  0.7292  0.8421 -0.2980
  582MOL0     H80299   1.652   2.678   9.067 -3.4289 -2.2836  1.6408
  582MOL0     H80300   1.760   3.291   9.048  0.2917  0.2632 -0.0715
  582MOL0     H80301   1.961   3.428   9.056  1.4203 -2.6716 -0.8597
  582MOL0     H80302   2.178   3.751   9.224 -2.4793 -0.4256  1.7004
  582MOL0     H80303   2.283   3.957   9.295 -2.9696 -0.9566 -0.3090
  582MOL0     H80304   2.503   4.031   9.672  1.2143  2.2828  0.3122
  582MOL0     H80305   2.605   3.930   9.565  0.1706 -0.7407  1.1191
  582MOL0     H80306   2.574   4.230   9.541  1.1631  0.2959  3.3464
  582MOL0     H80307   2.634   4.127   9.411 -3.4604  1.8970 -0.9839
  582MOL0     H80308   2.763   4.093   9.681  0.1155 -1.4082 -1.0857
  582MOL0     H80309   2.822   4.049   9.529 -1.3385 -1.9142  0.0296
  582MOL0     H80310   2.778   4.339   9.580  1.0286  1.9551 -1.6374
  582MOL0     H80311   2.876   4.268   9.450 -0.2120 -1.4658 -0.2543
  582MOL0     H80312   3.136   4.261   9.787 -1.8551  1.5609  2.3387
  582MOL0     H80313   2.473   3.795   9.617 -0.1325 -1.1638 -0.4101
  582MOL0     H80314   2.391   3.442   9.579  2.2059  0.7626 -0.6547
  582MOL0     H80315   2.428   3.562   9.698  0.6256  1.7546 -1.2278
  582MOL0     H80316   2.258   3.534   9.676 -0.8479 -1.6630 -0.8603
  583MOL0     O80317   2.061  10.162   2.767 -0.0918  0.1530  0.4708
  583MOL0     C80318   1.983  10.165   2.858 -0.4358 -0.0549 -0.7608
  583MOL0     O80319   2.020  10.197   2.981  0.7830  0.2456 -0.0531
  583MOL0     C80320   2.134  10.268   2.998  0.0683 -0.1543 -0.7835
  583MOL0     C80321   2.135  10.402   2.973  0.1022 -0.4813  0.8651
  583MOL0     C80322   2.248  10.483   2.988 -0.0399 -0.2662 -0.0128
  583MOL0     C80323   2.362  10.427   3.034  0.2908  0.5255 -0.1842
  583MOL0     O80324   2.475  10.504   3.057 -0.2157  0.3798 -0.4568
  583MOL0     C80325   2.454  10.626   3.133 -0.1995 -0.3469  0.1008
  583MOL0     C80326   2.594  10.701   3.143  0.7727 -0.7854 -0.2148
  583MOL0     C80327   2.694  10.608   3.211 -0.0081  0.3149 -0.4681
  583MOL0     C80328   2.825  10.694   3.236 -0.5062 -0.0851 -0.7519
  583MOL0     C80329   2.943  10.606   3.267 -0.0461 -0.1129 -0.2521
  583MOL0     C80330   3.058  10.690   3.304 -0.2350  0.2550  0.2222
  583MOL0     C80331   3.065  10.741   3.453 -0.0528 -0.3307 -0.2863
  583MOL0     C80332   3.182  10.832   3.466 -0.4318  0.4472  0.3365
  583MOL0     N80333   3.210  10.864   3.611 -0.0545  0.9889  0.1023
  583MOL0     C80334   3.321  10.909   3.669  0.0242 -0.3225  0.1414
  583MOL0     C80335   3.294  10.923   3.802  0.4048  0.0961  0.0228
  583MOL0     C80336   3.387  10.967   3.909 -0.7549  0.5757 -0.3525
  583MOL0     C80337   3.382  11.127   3.915  0.1222  1.1271  0.6210
  583MOL0     C80338   3.487  11.184   4.007 -0.2126 -0.0133 -0.5285
  583MOL0     C80339   3.465  11.331   4.041  0.0021  0.3581 -0.0855
  583MOL0     O80340   3.545  11.411   3.946  0.6159 -0.2370  0.0316
  583MOL0     C80341   3.671  11.442   3.979  0.7102  0.4339 -0.0211
  583MOL0     C80342   3.732  11.408   4.104  0.1703 -1.0523  0.4862
  583MOL0     C80343   3.867  11.441   4.118  0.0054 -0.2669  1.1009
  583MOL0     C80344   3.935  11.384   4.235 -0.5122  0.4116 -0.2126
  583MOL0     C80345   3.927  11.531   4.021  0.2028  0.2502 -0.2873
  583MOL0     C80346   4.076  11.566   4.030 -0.2038  0.1127 -0.0506
  583MOL0     O80347   4.105  11.649   3.931  0.8412 -0.4303  0.8379
  583MOL0     C80348   4.239  11.694   3.926 -0.2136 -0.0784  1.4051
  583MOL0     C80349   4.265  11.827   3.928 -0.1940 -0.3823 -0.7426
  583MOL0     C80350   4.390  11.878   3.939 -0.5520 -0.7621  0.0735
  583MOL0     C80351   4.499  11.792   3.948 -0.6356  0.5160 -1.3386
  583MOL0     O80352   4.632  11.824   3.950  0.1241  0.5574 -0.0387
  583MOL0     C80353   4.662  11.960   3.995 -1.1774  0.8665  0.2572
  583MOL0     C80354   4.811  11.990   4.012  0.0089  0.7358 -0.9907
  583MOL0     C80355   4.879  11.985   3.876  0.6948  0.1428 -0.2240
  583MOL0     C80356   5.025  12.033   3.896  1.0895 -0.2149 -0.0630
  583MOL0     C80357   5.119  11.981   3.786 -0.6342 -1.2603 -0.4458
  583MOL0     C80358   5.249  12.061   3.800  0.8894 -0.1039 -0.1260
  583MOL0     C80359   5.351  11.998   3.707  0.3804  0.0689 -0.2388
  583MOL0     C80360   5.485  12.059   3.718  0.4709  1.3727 -0.2877
  583MOL0    Cl80361   5.609  11.961   3.623  0.2146  0.5138  0.2691
  583MOL0     C80362   4.479  11.655   3.938 -0.0264 -0.9121  0.2448
  583MOL0     C80363   4.354  11.608   3.915  0.1684 -0.1764 -0.1336
  583MOL0     O80364   4.150  11.529   4.122 -0.1664  0.5119 -0.2654
  583MOL0     C80365   3.853  11.578   3.915 -0.5549 -0.1771 -0.3811
  583MOL0     C80366   3.733  11.520   3.880  0.2559 -0.4909  0.0054
  583MOL0     N80367   3.161  10.881   3.821 -0.3871  0.4215  0.4129
  583MOL0     N80368   3.116  10.846   3.706  0.4842  0.2117 -0.3846
  583MOL0     C80369   2.376  10.292   3.061  0.6913 -0.3372 -0.1825
  583MOL0     C80370   2.256  10.215   3.042  0.0503  0.2287 -1.3903
  583MOL0     C80371   1.835  10.112   2.839 -0.5626  0.4024 -0.0895
  583MOL0     C80372   1.774  10.153   2.714 -0.9989  0.3563  0.5054
  583MOL0     C80373   1.642  10.117   2.696  0.7962  0.7889 -0.5475
  583MOL0     C80374   1.573  10.032   2.783 -0.3303  0.7523  0.0489
  583MOL0     O80375   1.442  10.011   2.744 -0.3930  0.1303  0.4024
  583MOL0     C80376   1.365   9.911   2.809  0.0240 -0.2537 -0.2286
  583MOL0     C80377   1.229   9.882   2.738  0.5094 -0.0479  0.6348
  583MOL0     C80378   1.138   9.787   2.816  0.0549 -0.4021 -0.8382
  583MOL0     C80379   1.005   9.737   2.742  0.0444 -0.0084  0.1641
  583MOL0     C80380   0.904   9.842   2.746  0.7854 -0.0819 -0.9984
  583MOL0     C80381   0.817   9.926   2.750  0.7284 -0.2768 -0.4079
  583MOL0     C80382   1.637   9.988   2.896  0.9483  0.5290  0.7521
  583MOL0     C80383   1.765  10.039   2.935  0.3161 -0.5618 -0.0491
  583MOL0     C80384   1.814   9.989   3.073  0.3556 -0.1386  0.3774
  583MOL0     H80385   2.041  10.453   2.954  1.9578  3.4771  1.5228
  583MOL0     H80386   2.245  10.589   2.964  0.4538  0.1050  1.4527
  583MOL0     H80387   2.420  10.591   3.231 -0.6583 -5.0140 -1.4366
  583MOL0     H80388   2.381  10.692   3.086 -3.4676 -2.9808  1.0656
  583MOL0     H80389   2.622  10.724   3.040 -0.0476  1.6607  0.0552
  583MOL0     H80390   2.594  10.798   3.193 -1.3731 -0.1355 -1.3686
  583MOL0     H80391   2.650  10.571   3.304  0.7162 -1.6231 -0.8562
  583MOL0     H80392   2.708  10.516   3.153 -2.9417 -2.0948  2.2622
  583MOL0     H80393   2.848  10.748   3.144 -0.4617 -0.5982 -1.0469
  583MOL0     H80394   2.811  10.762   3.321  0.3464 -0.1507 -0.5485
  583MOL0     H80395   2.971  10.546   3.180  2.6477  1.6698 -0.7298
  583MOL0     H80396   2.915  10.547   3.355  0.7255 -1.3708 -0.8227
  583MOL0     H80397   3.146  10.628   3.284  0.0343  0.6055  0.3166
  583MOL0     H80398   3.068  10.775   3.236  1.6052  0.6627  0.9403
  583MOL0     H80399   3.083  10.650   3.512 -2.9097  0.2660  1.7187
  583MOL0     H80400   2.983  10.804   3.487  1.2502  2.0749 -1.4177
  583MOL0     H80401   3.268  10.783   3.419 -1.8150 -2.0095  0.1874
  583MOL0     H80402   3.159  10.924   3.412 -0.0579  1.3308  1.6470
  583MOL0     H80403   3.414  10.936   3.620  0.7786 -0.1052  1.6151
  583MOL0     H80404   3.487  10.936   3.877  0.3531  0.4866  2.8744
  583MOL0     H80405   3.359  10.911   3.998  0.5980  0.7640  0.2072
  583MOL0     H80406   3.408  11.177   3.821 -1.7463  0.6461 -0.2151
  583MOL0     H80407   3.278  11.155   3.934 -1.2183 -2.0604 -1.1355
  583MOL0     H80408   3.465  11.139   4.104  0.2689 -0.2698 -0.5367
  583MOL0     H80409   3.590  11.163   3.976  0.8905 -1.8461  3.6609
  583MOL0     H80410   3.358  11.355   4.032  0.3142  1.1572 -2.2614
  583MOL0     H80411   3.493  11.346   4.146 -1.5620 -4.9925  1.4094
  583MOL0     H80412   3.693  11.326   4.165 -0.4349 -1.5937 -0.5902
  583MOL0     H80413   3.963  11.458   4.311 -0.1277 -1.7297  1.8716
  583MOL0     H80414   4.031  11.349   4.196 -0.4363  2.4186 -1.9771
  583MOL0     H80415   3.880  11.306   4.289  0.8943  1.9492  3.8317
  583MOL0     H80416   4.190  11.905   3.932  0.7047  0.5027 -0.5719
  583MOL0     H80417   4.404  11.984   3.957 -2.3547 -0.2066 -1.5349
  583MOL0     H80418   4.620  12.033   3.925 -2.1665  0.2064  0.1340
  583MOL0     H80419   4.624  11.981   4.095 -0.0037  0.2402  0.8583
  583MOL0     H80420   4.810  12.088   4.061 -3.0667 -0.6113  2.0355
  583MOL0     H80421   4.854  11.915   4.078 -2.3686 -0.4988 -0.7228
  583MOL0     H80422   4.824  12.054   3.812  2.0275  0.9549 -0.5420
  583MOL0     H80423   4.872  11.885   3.832 -0.7170 -0.5214  1.3716
  583MOL0     H80424   5.066  12.013   3.995  0.0239  2.6867  1.0746
  583MOL0     H80425   5.012  12.142   3.895  0.6451 -0.1811  2.7559
  583MOL0     H80426   5.149  11.877   3.800  2.3946 -0.5228 -0.6845
  583MOL0     H80427   5.084  11.989   3.683 -0.3411 -1.6959 -0.5832
  583MOL0     H80428   5.273  12.061   3.907 -1.6395  1.3703  0.5411
  583MOL0     H80429   5.240  12.169   3.781 -0.0647 -0.3416 -1.0942
  583MOL0     H80430   5.313  11.995   3.605  1.0139  0.7473 -0.5025
  583MOL0     H80431   5.363  11.891   3.725 -1.3716 -0.5208 -2.1926
  583MOL0     H80432   5.529  12.065   3.819  2.1936 -0.4248 -0.8699
  583MOL0     H80433   5.477  12.157   3.670  2.4484  0.2384 -3.1543
  583MOL0     H80434   4.564  11.588   3.931 -0.5650 -1.4103 -2.8701
  583MOL0     H80435   4.329  11.503   3.920  3.4255 -1.0797 -0.5153
  583MOL0     H80436   3.902  11.655   3.857  0.2748  0.9331  1.7163
  583MOL0     H80437   3.666  11.561   3.805 -2.6496 -0.8519  2.2309
  583MOL0     H80438   2.476  10.262   3.088  1.6643  1.4812 -1.5249
  583MOL0     H80439   2.276  10.109   3.054  1.2707  0.6544  1.0024
  583MOL0     H80440   1.833  10.216   2.649 -0.7857 -1.8355 -1.5896
  583MOL0     H80441   1.604  10.140   2.597 -0.1427  1.9684  0.0557
  583MOL0     H80442   1.423   9.818   2.810  1.1439  0.3675 -1.9721
  583MOL0     H80443   1.349   9.941   2.913  1.3989  2.2041 -0.6633
  583MOL0     H80444   1.260   9.846   2.639 -1.0336 -2.0614  0.8045
  583MOL0     H80445   1.174   9.976   2.727 -1.4821 -1.2611 -0.4766
  583MOL0     H80446   1.202   9.701   2.840  1.1543 -0.4283 -3.4206
  583MOL0     H80447   1.118   9.831   2.914  0.5620  0.7447 -1.2296
  583MOL0     H80448   0.974   9.640   2.781 -1.0788 -0.3421 -1.4525
  583MOL0     H80449   1.018   9.712   2.636 -0.2613  2.7937 -0.6207
  583MOL0     H80450   0.735   9.995   2.753  1.8960  1.2727 -2.3118
  583MOL0     H80451   1.581   9.927   2.966 -0.7068 -1.1090 -1.8311
  583MOL0     H80452   1.915   9.947   3.063 -0.3089 -1.2794 -2.2019
  583MOL0     H80453   1.823  10.067   3.150  0.8785 -1.2854  1.5262
  583MOL0     H80454   1.760   9.904   3.116 -1.4474  1.7272  1.9645
  584MOL0     O80455   3.415   3.473   8.651 -0.8256  0.0939 -0.0886
  584MOL0     C80456   3.330   3.482   8.739 -0.1814 -0.2140 -0.3307
  584MOL0     O80457   3.363   3.512   8.863 -0.5005  0.1438 -0.6130
  584MOL0     C80458   3.496   3.519   8.901  0.2002 -0.3172  0.1457
  584MOL0     C80459   3.541   3.415   8.983 -0.2460  0.5258 -0.1898
  584MOL0     C80460   3.680   3.422   9.027  0.6332  0.3378 -0.4684
  584MOL0     C80461   3.763   3.533   8.993 -0.2522  1.1854 -0.3198
  584MOL0     O80462   3.895   3.525   9.040  0.0351 -0.1933  0.3389
  584MOL0     C80463   3.985   3.626   8.993  0.0268 -0.1349  0.9197
  584MOL0     C80464   4.130   3.583   9.027  0.0303  0.4819 -1.0564
  584MOL0     C80465   4.239   3.685   9.055 -0.1326 -0.2385 -0.5956
  584MOL0     C80466   4.382   3.625   9.068  1.1363 -0.2043  0.1811
  584MOL0     C80467   4.501   3.718   9.123 -0.4981  0.0276  0.1522
  584MOL0     C80468   4.468   3.786   9.250 -0.3701  0.3085 -0.7273
  584MOL0     C80469   4.594   3.840   9.313  0.3659 -0.9168  0.0486
  584MOL0     C80470   4.586   3.989   9.355 -0.2474 -0.1837  1.0437
  584MOL0     N80471   4.480   4.034   9.448  0.5402 -1.1386  0.2981
  584MOL0     C80472   4.495   4.067   9.583 -0.2248  0.3628 -0.1581
  584MOL0     C80473   4.389   4.134   9.622 -0.3814 -0.5359 -0.1053
  584MOL0     C80474   4.353   4.197   9.757  0.4819 -0.2678 -0.2963
  584MOL0     C80475   4.228   4.138   9.819 -0.1031 -0.1688 -0.7638
  584MOL0     C80476   4.234   3.986   9.843  0.0988 -0.0090 -0.5252
  584MOL0     C80477   4.361   3.922   9.905 -0.2918 -0.0028 -0.4383
  584MOL0     O80478   4.450   3.872   9.806  0.2245  0.2164  0.5447
  584MOL0     C80479   4.563   3.802   9.844 -0.5564  0.6781 -0.4096
  584MOL0     C80480   4.653   3.764   9.746 -0.5528 -0.2420 -0.2248
  584MOL0     C80481   4.774   3.698   9.774 -0.0822 -0.1386 -0.8537
  584MOL0     C80482   4.863   3.659   9.660 -0.1155  0.1864  0.9202
  584MOL0     C80483   4.793   3.655   9.902  0.4732  0.4036  0.0552
  584MOL0     C80484   4.926   3.604   9.931 -0.5157  0.4695 -0.0124
  584MOL0     O80485   5.041   3.681   9.929  0.5249  0.3267 -0.2464
  584MOL0     C80486   5.157   3.613   9.949 -1.4229 -0.2063 -1.2697
  584MOL0     C80487   5.239   3.573   9.847  0.6332 -0.2149  0.2536
  584MOL0     C80488   5.350   3.491   9.866  0.7712  0.2888  0.7072
  584MOL0     C80489   5.393   3.453   9.993  0.0473 -1.1093  0.1264
  584MOL0     O80490   5.490   3.359  10.015 -0.1945 -0.7345 -0.4744
  584MOL0     C80491   5.532   3.279   9.904 -0.3898 -0.0457  0.4808
  584MOL0     C80492   5.631   3.176   9.949  0.5147 -0.6514  0.6048
  584MOL0     C80493   5.756   3.239   9.989  0.0721 -0.2376  0.2086
  584MOL0     C80494   5.846   3.130  10.041  0.0805 -0.4964  1.0348
  584MOL0     C80495   5.978   3.169  10.105  0.0800  0.0298 -0.3038
  584MOL0     C80496   6.088   3.199  10.008 -0.0059  0.0516  0.5553
  584MOL0     C80497   6.233   3.182  10.068 -0.4686  0.5971  0.0964
  584MOL0     C80498   6.344   3.233   9.983  0.3721 -0.4444  0.8941
  584MOL0    Cl80499   6.324   3.407   9.943 -0.2746  0.0822  0.0964
  584MOL0     C80500   5.322   3.509  10.102  0.0451 -0.3730 -0.7954
  584MOL0     C80501   5.213   3.598  10.078  0.6199  0.0408 -0.0876
  584MOL0     O80502   4.921   3.488   9.950  0.6061  0.1048  0.6312
  584MOL0     C80503   4.705   3.684  10.011 -0.2509 -0.4166 -0.0467
  584MOL0     C80504   4.590   3.761   9.980 -0.2479  0.8208 -1.2492
  584MOL0     N80505   4.307   4.148   9.516  0.3661 -0.4494 -0.0120
  584MOL0     N80506   4.355   4.081   9.413  0.2489  0.0252  0.0182
  584MOL0     C80507   3.710   3.630   8.912 -0.7214 -0.4196  0.3985
  584MOL0     C80508   3.574   3.626   8.874  0.5015 -0.5176  0.1446
  584MOL0     C80509   3.183   3.445   8.717 -0.8131  1.1243  0.6233
  584MOL0     C80510   3.113   3.378   8.822 -0.7017  0.1388 -0.2342
  584MOL0     C80511   2.979   3.344   8.819  0.0566 -0.1075  0.2735
  584MOL0     C80512   2.906   3.372   8.711 -0.1472  0.9458  0.4844
  584MOL0     O80513   2.774   3.326   8.711 -0.2920 -1.0255 -0.6424
  584MOL0     C80514   2.691   3.377   8.604 -2.4856 -0.1601 -0.4366
  584MOL0     C80515   2.548   3.326   8.612 -0.3687 -0.3852 -0.1733
  584MOL0     C80516   2.519   3.219   8.717  0.3165  0.2978  0.6394
  584MOL0     C80517   2.556   3.073   8.668  0.0835 -0.0129 -0.6019
  584MOL0     C80518   2.535   2.974   8.775  0.7589  0.2813  0.1157
  584MOL0     C80519   2.514   2.910   8.878 -0.2683  0.0504  0.3931
  584MOL0     C80520   2.967   3.436   8.607 -0.2325  0.3414  0.1311
  584MOL0     C80521   3.103   3.462   8.602  1.1971 -0.6314 -0.3703
  584MOL0     C80522   3.161   3.530   8.483 -0.4137 -0.0684  0.2980
  584MOL0     H80523   3.482   3.327   9.005  3.0219 -1.8316 -0.0520
  584MOL0     H80524   3.719   3.331   9.072 -1.5776 -0.4859 -0.1004
  584MOL0     H80525   3.956   3.722   9.037 -2.6982  0.7760 -2.4062
  584MOL0     H80526   3.977   3.644   8.885 -2.3121 -1.4999  0.8123
  584MOL0     H80527   4.111   3.523   9.116 -2.8209 -0.1832 -2.0074
  584MOL0     H80528   4.157   3.521   8.941 -2.2891 -2.6594  0.3037
  584MOL0     H80529   4.236   3.759   8.975 -1.1684  1.9339  1.3335
  584MOL0     H80530   4.205   3.741   9.143 -1.2157  1.6038 -2.1208
  584MOL0     H80531   4.366   3.544   9.140 -0.7409 -0.1349 -0.1297
  584MOL0     H80532   4.406   3.573   8.975  1.1791 -2.3967  1.3429
  584MOL0     H80533   4.532   3.796   9.054 -2.5085  1.0005  0.2855
  584MOL0     H80534   4.582   3.650   9.151 -1.1139 -0.5852  0.5168
  584MOL0     H80535   4.390   3.861   9.237  1.8249  2.4622 -2.3866
  584MOL0     H80536   4.432   3.704   9.313  1.2582  0.1079 -0.0209
  584MOL0     H80537   4.683   3.819   9.252  1.8059  0.7672  1.4810
  584MOL0     H80538   4.614   3.786   9.406  2.1510 -0.0440  0.2286
  584MOL0     H80539   4.680   4.022   9.399 -0.3151  1.4134  0.0507
  584MOL0     H80540   4.567   4.051   9.267 -0.6914 -1.0014  0.5473
  584MOL0     H80541   4.575   4.036   9.649 -1.3578 -1.9349  0.2519
  584MOL0     H80542   4.354   4.305   9.744  2.6934  0.1532  2.3887
  584MOL0     H80543   4.444   4.190   9.818  0.1466  0.3934  0.2856
  584MOL0     H80544   4.204   4.192   9.911  0.5621 -1.3414  0.1196
  584MOL0     H80545   4.141   4.154   9.753 -1.1958 -1.8518  0.2029
  584MOL0     H80546   4.155   3.950   9.910 -0.9389  1.1011 -1.1200
  584MOL0     H80547   4.196   3.944   9.750 -4.5108  1.0687  0.5921
  584MOL0     H80548   4.407   3.991   9.976  0.2782 -0.7195 -0.1008
  584MOL0     H80549   4.336   3.842   9.975 -1.8856  2.8211  2.4810
  584MOL0     H80550   4.618   3.784   9.645  0.0746 -2.9022 -1.0698
  584MOL0     H80551   4.960   3.710   9.661  0.6253 -0.8214 -3.2027
  584MOL0     H80552   4.818   3.692   9.566 -2.1682  2.4836  2.5692
  584MOL0     H80553   4.882   3.552   9.666 -1.7148 -0.0473  2.9813
  584MOL0     H80554   5.205   3.609   9.750  1.0990 -1.7530 -0.5059
  584MOL0     H80555   5.390   3.453   9.773 -0.2679 -0.1836  0.4413
  584MOL0     H80556   5.451   3.220   9.860 -0.1877  1.1337 -1.6464
  584MOL0     H80557   5.575   3.338   9.822 -1.3603 -0.0021 -0.0111
  584MOL0     H80558   5.584   3.113  10.025 -1.5667 -0.3208 -0.3666
  584MOL0     H80559   5.647   3.115   9.859  0.8806 -1.1062  0.9677
  584MOL0     H80560   5.743   3.304  10.076  1.3416 -0.9490  0.9531
  584MOL0     H80561   5.809   3.288   9.907 -1.0661  1.3969  0.4073
  584MOL0     H80562   5.867   3.055   9.963  0.3043  2.9128 -2.4831
  584MOL0     H80563   5.794   3.082  10.124  2.0827  0.4210  2.9432
  584MOL0     H80564   5.962   3.258  10.167  0.2567  1.2951 -1.9800
  584MOL0     H80565   6.016   3.085  10.163  2.9640  0.7793 -0.9599
  584MOL0     H80566   6.083   3.298   9.964  2.2655 -0.1927 -0.4160
  584MOL0     H80567   6.080   3.135   9.920  0.3809  0.4851  0.2000
  584MOL0     H80568   6.243   3.074  10.081 -2.4632  0.0657 -2.0824
  584MOL0     H80569   6.245   3.239  10.161 -0.3849  3.0169 -1.3165
  584MOL0     H80570   6.343   3.166   9.896  2.3023 -1.2560  1.4610
  584MOL0     H80571   6.446   3.219  10.020  1.1873  3.8319  0.7484
  584MOL0     H80572   5.333   3.487  10.208  0.9569  3.6154  0.0727
  584MOL0     H80573   5.153   3.631  10.161  2.2332  2.7475  0.1103
  584MOL0     H80574   4.728   3.668  10.116 -1.3477  3.2911  0.9020
  584MOL0     H80575   4.528   3.801  10.059  0.5396  0.1184 -0.2613
  584MOL0     H80576   3.767   3.719   8.887 -2.8037  1.0377  0.5967
  584MOL0     H80577   3.531   3.704   8.812 -1.1691  0.0178  1.8811
  584MOL0     H80578   3.172   3.358   8.911  2.4576  2.9143 -1.4797
  584MOL0     H80579   2.923   3.287   8.893 -2.7950 -1.1425 -2.4889
  584MOL0     H80580   2.691   3.486   8.598 -1.5711 -0.2288 -2.5534
  584MOL0     H80581   2.741   3.341   8.514 -1.0075  0.8828 -0.0699
  584MOL0     H80582   2.524   3.285   8.514  3.2172  0.6850 -1.6919
  584MOL0     H80583   2.482   3.411   8.629  0.8612  0.5205  0.1867
  584MOL0     H80584   2.562   3.246   8.814  0.2572  0.3069  0.6625
  584MOL0     H80585   2.411   3.208   8.730  0.5293 -2.3463  0.7510
  584MOL0     H80586   2.662   3.067   8.644  0.5322  0.0957  1.1929
  584MOL0     H80587   2.494   3.050   8.580  2.2743  0.7833 -2.4235
  584MOL0     H80588   2.477   2.852   8.961  0.9999 -0.8334  0.3794
  584MOL0     H80589   2.914   3.471   8.520  0.5206  0.9545 -0.0983
  584MOL0     H80590   3.239   3.477   8.428  2.2831  4.1127 -0.3442
  584MOL0     H80591   3.091   3.562   8.406  2.7752  0.1026 -2.7304
  584MOL0     H80592   3.210   3.619   8.524 -0.4334 -0.4268  1.1268
  585MOL0     O80593  10.720   8.108   4.333  0.1293 -0.2615  0.5630
  585MOL0     C80594  10.740   8.164   4.434 -0.5054  0.3356  0.5154
  585MOL0     O80595  10.836   8.251   4.454  0.1629 -0.1436 -0.5900
  585MOL0     C80596  10.965   8.250   4.404 -0.3094  0.2913 -0.0917
  585MOL0     C80597  11.034   8.149   4.333  0.2436 -0.1267  0.6561
  585MOL0     C80598  11.161   8.157   4.296  0.2271 -0.5250 -0.3800
  585MOL0     C80599  11.233   8.274   4.332  1.3987 -0.5273 -0.0820
  585MOL0     O80600  11.366   8.308   4.304  0.4225  0.0841  0.0641
  585MOL0     C80601  11.433   8.216   4.217 -0.1104 -0.0629  1.4066
  585MOL0     C80602  11.575   8.275   4.198  0.3961  0.3510 -0.4209
  585MOL0     C80603  11.649   8.190   4.095 -0.1985  1.1187 -0.3348
  585MOL0     C80604  11.789   8.234   4.079  0.6032 -1.0977 -0.4577
  585MOL0     C80605  11.861   8.147   3.975 -0.5713  0.9195  0.0790
  585MOL0     C80606  11.938   8.228   3.873  0.4771  0.7029 -0.1667
  585MOL0     C80607  12.061   8.317   3.903 -0.1259 -0.8175  0.6567
  585MOL0     C80608  12.136   8.365   3.774 -0.3119  0.3201  0.1298
  585MOL0     N80609  12.168   8.249   3.694  0.0948 -0.8660  0.2402
  585MOL0     C80610  12.263   8.148   3.712 -0.0401  0.8073  0.4008
  585MOL0     C80611  12.256   8.074   3.590  1.0604  0.0381 -1.3725
  585MOL0     C80612  12.334   7.952   3.570 -0.4213 -0.2881  0.2810
  585MOL0     C80613  12.296   7.835   3.656  0.0640 -0.3851 -0.0493
  585MOL0     C80614  12.363   7.694   3.626 -0.0245 -1.2206 -0.0837
  585MOL0     C80615  12.316   7.628   3.491  0.7059  0.7155 -0.4791
  585MOL0     O80616  12.188   7.571   3.513 -0.0579  0.4112  1.0437
  585MOL0     C80617  12.175   7.431   3.502 -0.0069 -0.9782  0.5247
  585MOL0     C80618  12.046   7.381   3.520 -0.6936 -0.4969  0.2487
  585MOL0     C80619  12.014   7.240   3.504 -0.1605  0.2516  0.0514
  585MOL0     C80620  11.866   7.201   3.496 -0.2740  0.4673  0.4818
  585MOL0     C80621  12.125   7.153   3.483 -0.7313 -0.3722  0.1698
  585MOL0     C80622  12.111   7.012   3.458 -0.7476  0.3758  0.5072
  585MOL0     O80623  11.995   6.948   3.415  0.9986 -0.5283 -0.5899
  585MOL0     C80624  12.007   6.808   3.403  0.5112 -0.1671  0.0328
  585MOL0     C80625  11.988   6.719   3.511  0.7499 -0.1653  0.9459
  585MOL0     C80626  11.989   6.577   3.487  0.1910 -0.5771  0.0495
  585MOL0     C80627  12.015   6.528   3.360 -0.1836  0.4306 -1.2811
  585MOL0     O80628  12.011   6.395   3.335  0.0944  0.2814  0.4519
  585MOL0     C80629  12.000   6.300   3.442  0.0983 -0.8709  0.5552
  585MOL0     C80630  11.986   6.152   3.398  0.6864  0.2521  0.0929
  585MOL0     C80631  11.948   6.073   3.520 -0.3512  0.6256 -1.0985
  585MOL0     C80632  12.058   6.075   3.631  0.5402  0.2258 -0.0427
  585MOL0     C80633  12.016   5.976   3.744 -0.1272 -0.5388 -0.6669
  585MOL0     C80634  12.055   5.830   3.724 -0.3805  0.2885 -0.0911
  585MOL0     C80635  12.203   5.802   3.686 -0.1130  0.0498  1.1256
  585MOL0     C80636  12.235   5.658   3.728 -0.1212 -0.4183 -0.6515
  585MOL0    Cl80637  12.395   5.608   3.670  0.3775  0.0070  0.5308
  585MOL0     C80638  12.031   6.611   3.252 -0.1513 -0.0921  1.0859
  585MOL0     C80639  12.041   6.746   3.279 -0.7038  0.2615  0.2506
  585MOL0     O80640  12.215   6.946   3.482  0.0171  0.1194  0.2354
  585MOL0     C80641  12.259   7.203   3.490 -0.5941  0.2473 -0.4365
  585MOL0     C80642  12.281   7.339   3.492 -0.3493 -0.5784 -0.3186
  585MOL0     N80643  12.158   8.124   3.509 -0.8052 -0.2907  0.0411
  585MOL0     N80644  12.112   8.232   3.568  0.2519 -0.2474  0.0031
  585MOL0     C80645  11.167   8.374   4.405 -0.2150 -0.4684  0.5302
  585MOL0     C80646  11.036   8.360   4.449 -0.2819 -0.3046  0.5221
  585MOL0     C80647  10.634   8.156   4.549 -0.3242  0.3408  0.2149
  585MOL0     C80648  10.655   8.233   4.664  0.4336  0.6497 -0.1680
  585MOL0     C80649  10.561   8.228   4.765  0.3065  0.9252  0.1984
  585MOL0     C80650  10.449   8.144   4.755  0.8508 -0.6534  0.1918
  585MOL0     O80651  10.346   8.156   4.846  0.0270  0.8318 -0.6923
  585MOL0     C80652  10.229   8.079   4.846 -0.4557  0.5928  0.6889
  585MOL0     C80653  10.153   8.102   4.979 -0.3412  0.1712 -0.2603
  585MOL0     C80654  10.107   8.243   5.002  0.5140 -0.0574  0.4111
  585MOL0     C80655   9.964   8.263   5.066  0.5715 -0.6361  0.8258
  585MOL0     C80656   9.928   8.406   5.051 -0.2906  0.3042 -0.0801
  585MOL0     C80657   9.908   8.522   5.037  0.1929 -0.2035 -0.0870
  585MOL0     C80658  10.428   8.074   4.649  0.1186 -0.5250  0.1448
  585MOL0     C80659  10.512   8.083   4.537 -0.1870 -0.1661 -0.2727
  585MOL0     C80660  10.466   8.005   4.417 -0.6887  0.0706  0.7124
  585MOL0     H80661  10.986   8.058   4.300  0.7869 -0.2040  0.0644
  585MOL0     H80662  11.206   8.077   4.239  0.6161 -0.3908 -0.2673
  585MOL0     H80663  11.381   8.210   4.121  2.2423  0.0786  0.0350
  585MOL0     H80664  11.424   8.117   4.262  0.9601 -0.5462  0.6047
  585MOL0     H80665  11.562   8.377   4.161 -2.6874  0.9824  1.9812
  585MOL0     H80666  11.626   8.271   4.294 -1.3075 -1.5247  0.4935
  585MOL0     H80667  11.650   8.084   4.122  1.4601  2.0252  4.0281
  585MOL0     H80668  11.598   8.203   3.999  0.4316 -0.9209 -0.9931
  585MOL0     H80669  11.789   8.332   4.030 -1.2786 -0.4819  0.6897
  585MOL0     H80670  11.846   8.236   4.172 -2.9592 -0.3460  1.8683
  585MOL0     H80671  11.787   8.088   3.920 -1.0061  0.1362  1.4647
  585MOL0     H80672  11.929   8.079   4.026 -0.5239 -2.4569 -3.9788
  585MOL0     H80673  11.966   8.140   3.814 -0.1100 -0.0388  0.6296
  585MOL0     H80674  11.873   8.295   3.816  1.4156  0.4613 -1.5645
  585MOL0     H80675  12.133   8.257   3.960 -1.2141  0.7931  4.0097
  585MOL0     H80676  12.030   8.402   3.964  1.5386  0.6684 -0.4710
  585MOL0     H80677  12.066   8.431   3.722  0.0238  0.5747  0.0016
  585MOL0     H80678  12.224   8.425   3.797 -1.4552  2.0158  0.2353
  585MOL0     H80679  12.331   8.117   3.791  0.4877 -0.1786 -0.4265
  585MOL0     H80680  12.437   7.983   3.591  0.4267  0.0876 -3.7366
  585MOL0     H80681  12.329   7.940   3.462 -1.6166  1.3925  0.1259
  585MOL0     H80682  12.311   7.871   3.759 -2.6945 -2.3025  1.1524
  585MOL0     H80683  12.188   7.827   3.647 -0.6580  4.7442  0.8041
  585MOL0     H80684  12.472   7.701   3.626  0.2289 -3.2917 -3.5381
  585MOL0     H80685  12.326   7.632   3.709 -2.3247  1.0644  0.7387
  585MOL0     H80686  12.306   7.694   3.404 -3.6281  1.9429  0.7286
  585MOL0     H80687  12.398   7.564   3.459  2.4937  1.5483  2.0667
  585MOL0     H80688  11.973   7.459   3.536 -0.3289 -0.2442  0.7220
  585MOL0     H80689  11.855   7.139   3.586 -0.5271 -0.1430  0.0365
  585MOL0     H80690  11.833   7.142   3.410  2.4771  0.4071 -0.6091
  585MOL0     H80691  11.804   7.290   3.488 -1.9579 -0.5606  1.3878
  585MOL0     H80692  11.957   6.752   3.609  0.4761  2.4568  0.0521
  585MOL0     H80693  11.972   6.515   3.575  1.0594  0.9877  1.3616
  585MOL0     H80694  12.093   6.308   3.500  0.9608  3.3571 -1.0051
  585MOL0     H80695  11.913   6.323   3.503  0.2629 -0.3025  0.5842
  585MOL0     H80696  11.909   6.151   3.319  1.3556 -0.4368 -0.5767
  585MOL0     H80697  12.073   6.105   3.351  1.2468  1.4867 -0.1402
  585MOL0     H80698  11.948   5.968   3.490  0.8802 -0.3220  1.8836
  585MOL0     H80699  11.846   6.095   3.552 -0.2353 -0.1728 -0.1216
  585MOL0     H80700  12.057   6.177   3.672 -0.1516  0.0656  0.3433
  585MOL0     H80701  12.160   6.049   3.601  0.9457 -0.5960  1.8518
  585MOL0     H80702  12.074   6.009   3.830 -0.4727 -0.9356 -0.2788
  585MOL0     H80703  11.912   6.001   3.767 -0.4518 -0.8530 -1.7473
  585MOL0     H80704  11.989   5.781   3.652 -0.9576 -1.6555  1.6547
  585MOL0     H80705  12.030   5.786   3.821 -0.0893  1.9775  0.7876
  585MOL0     H80706  12.277   5.872   3.725  2.0305 -0.9238 -0.9202
  585MOL0     H80707  12.220   5.816   3.579 -0.6609 -1.8108  0.7520
  585MOL0     H80708  12.160   5.587   3.690 -0.2414 -1.4190  1.3366
  585MOL0     H80709  12.221   5.636   3.834 -2.5739 -0.1509 -0.8635
  585MOL0     H80710  12.044   6.575   3.150  0.0412  1.0620  0.6833
  585MOL0     H80711  12.080   6.814   3.204  2.6336  0.2194  1.7701
  585MOL0     H80712  12.352   7.146   3.483 -1.5129 -1.1754 -1.6518
  585MOL0     H80713  12.384   7.376   3.489 -0.9585  1.2858  0.3448
  585MOL0     H80714  11.210   8.467   4.441 -0.4277 -0.1348 -0.0791
  585MOL0     H80715  11.000   8.440   4.512 -0.1534 -1.3791  2.0035
  585MOL0     H80716  10.724   8.317   4.671  0.1837  0.9972 -1.5370
  585MOL0     H80717  10.579   8.295   4.848  1.4999 -0.7065  1.3129
  585MOL0     H80718  10.161   8.115   4.770  1.2065  3.0491  0.2618
  585MOL0     H80719  10.258   7.975   4.828  0.5025  0.9815 -0.1600
  585MOL0     H80720  10.221   8.087   5.063  0.1104  2.0098 -0.2530
  585MOL0     H80721  10.068   8.034   4.987 -0.0264 -0.2151 -0.2083
  585MOL0     H80722  10.174   8.297   5.069 -1.4064  2.7999  0.1939
  585MOL0     H80723  10.110   8.292   4.905  0.5204 -0.0943  0.3929
  585MOL0     H80724   9.962   8.226   5.169  2.9170  0.3768  1.3163
  585MOL0     H80725   9.881   8.214   5.015  2.7130 -3.2891 -0.3251
  585MOL0     H80726   9.888   8.627   5.036 -2.9497 -0.7136 -0.8510
  585MOL0     H80727  10.333   8.022   4.638 -0.6054  1.2090 -3.2601
  585MOL0     H80728  10.500   8.039   4.319 -2.4516 -0.9283 -0.2859
  585MOL0     H80729  10.505   7.903   4.419  1.3154  0.7480 -0.5141
  585MOL0     H80730  10.359   7.997   4.401 -0.1693 -2.5219 -2.6418
  586MOL0     O80731  10.101   7.376   8.093 -0.0978  0.5380  0.0986
  586MOL0     C80732   9.982   7.349   8.081 -0.1141 -0.3204 -0.0550
  586MOL0     O80733   9.930   7.231   8.114 -0.0814  0.4074  0.9031
  586MOL0     C80734  10.013   7.134   8.139 -0.2281 -0.1357 -0.4429
  586MOL0     C80735  10.018   7.030   8.052 -0.6044 -0.7061 -0.8303
  586MOL0     C80736  10.084   6.913   8.082  0.0293  0.3216 -0.1592
  586MOL0     C80737  10.147   6.892   8.210  0.0593 -0.8731 -0.0607
  586MOL0     O80738  10.207   6.768   8.233 -0.4182 -0.3101 -0.6466
  586MOL0     C80739  10.346   6.774   8.259  0.0202  0.5370 -0.4409
  586MOL0     C80740  10.412   6.670   8.171 -0.2098 -1.0341  0.4910
  586MOL0     C80741  10.572   6.685   8.165  0.0323  0.1045 -0.2178
  586MOL0     C80742  10.635   6.542   8.149  0.6004 -0.8731  0.1494
  586MOL0     C80743  10.776   6.559   8.106  0.1225 -0.4167 -0.4393
  586MOL0     C80744  10.850   6.430   8.080 -0.5080  0.1023  0.1555
  586MOL0     C80745  10.997   6.469   8.057 -0.2603 -0.0056  0.0891
  586MOL0     C80746  11.087   6.340   8.057  0.1543  0.3098  0.3703
  586MOL0     N80747  11.136   6.308   8.199 -0.2281  0.0145  0.0228
  586MOL0     C80748  11.270   6.294   8.230  0.1678 -0.8981  0.7658
  586MOL0     C80749  11.274   6.239   8.352 -0.0050  0.0683  0.6756
  586MOL0     C80750  11.393   6.180   8.437 -0.3839  0.1437 -0.1378
  586MOL0     C80751  11.484   6.087   8.357  0.9254  0.5235 -0.5858
  586MOL0     C80752  11.606   6.030   8.439  0.3545 -0.8892 -0.6330
  586MOL0     C80753  11.726   5.987   8.360 -0.8499  0.0144 -0.4283
  586MOL0     O80754  11.775   6.105   8.293 -0.0672 -0.9401 -0.3895
  586MOL0     C80755  11.898   6.103   8.227  0.1802  0.0367  0.2286
  586MOL0     C80756  11.942   5.995   8.146 -0.2925 -0.2006 -0.9937
  586MOL0     C80757  12.066   6.006   8.072  0.0850  0.1542 -0.4790
  586MOL0     C80758  12.102   5.889   7.982 -0.3518  0.0579 -0.3433
  586MOL0     C80759  12.139   6.133   8.075  0.2180 -0.4041  0.8656
  586MOL0     C80760  12.273   6.161   7.994  0.2561 -1.0520  0.1222
  586MOL0     O80761  12.320   6.284   8.017 -0.3767  0.2572  0.4824
  586MOL0     C80762  12.421   6.330   7.937 -0.3870 -0.2818  0.3006
  586MOL0     C80763  12.551   6.296   7.973  0.3241 -0.1496  0.3465
  586MOL0     C80764  12.658   6.322   7.885  0.3201 -0.0227 -0.5220
  586MOL0     C80765  12.636   6.386   7.762  0.0175 -0.1523  0.5446
  586MOL0     O80766  12.734   6.446   7.684 -0.1188  0.3919  0.5218
  586MOL0     C80767  12.873   6.410   7.700  0.8328 -0.4827  0.3365
  586MOL0     C80768  12.943   6.426   7.576 -0.5191  0.1893  0.1678
  586MOL0     C80769  13.097   6.466   7.577  0.1996  0.2113  0.6587
  586MOL0     C80770  13.185   6.417   7.462  1.0684 -1.0985  0.6202
  586MOL0     C80771  13.336   6.411   7.495  0.0767 -0.7884 -0.6767
  586MOL0     C80772  13.414   6.345   7.390  0.2506 -0.7845 -0.1656
  586MOL0     C80773  13.563   6.317   7.429  1.2472  0.3184  1.2872
  586MOL0     C80774  13.635   6.447   7.463 -0.2536  0.2013 -1.1953
  586MOL0    Cl80775  13.800   6.409   7.466 -0.5935 -0.3604 -0.0985
  586MOL0     C80776  12.509   6.404   7.714  0.2661  0.6308 -1.2373
  586MOL0     C80777  12.398   6.385   7.808  0.5301  0.0760  0.5450
  586MOL0     O80778  12.324   6.073   7.925  0.3988 -0.1871 -0.1963
  586MOL0     C80779  12.093   6.234   8.161  0.3469  0.0965  0.8123
  586MOL0     C80780  11.981   6.220   8.246  0.5340 -0.5398 -0.4316
  586MOL0     N80781  11.147   6.231   8.398  0.8892 -0.6147 -0.1116
  586MOL0     N80782  11.061   6.281   8.312 -0.2296 -0.0733 -0.4532
  586MOL0     C80783  10.142   6.999   8.303  0.1299  0.9204  0.0345
  586MOL0     C80784  10.075   7.118   8.270 -0.1314 -0.1989 -0.3729
  586MOL0     C80785   9.878   7.452   8.053 -1.0359 -0.8494 -0.2599
  586MOL0     C80786   9.741   7.412   8.047  0.2528 -0.4315 -0.1097
  586MOL0     C80787   9.641   7.501   8.006  0.2807  0.1187 -0.4115
  586MOL0     C80788   9.669   7.637   7.988  0.1452  0.6233  0.2026
  586MOL0     O80789   9.581   7.740   7.974 -0.3779  0.2495 -0.0794
  586MOL0     C80790   9.443   7.732   8.005 -0.6356 -0.2957 -0.2436
  586MOL0     C80791   9.358   7.866   8.014 -0.9012  0.8494 -0.2355
  586MOL0     C80792   9.210   7.853   8.049 -0.4050 -0.6429  0.3163
  586MOL0     C80793   9.173   7.795   8.182  0.0915  0.3445 -0.1522
  586MOL0     C80794   9.227   7.873   8.295 -0.8594 -0.1864  0.8803
  586MOL0     C80795   9.264   7.940   8.388  0.0030  0.2449  0.3181
  586MOL0     C80796   9.803   7.681   7.982 -0.1017 -0.1727 -0.3877
  586MOL0     C80797   9.912   7.586   8.005 -0.3932 -0.4604  0.7127
  586MOL0     C80798  10.047   7.639   7.971 -0.4390 -1.1247 -0.2919
  586MOL0     H80799   9.955   7.029   7.963  0.1031 -2.9029 -1.3574
  586MOL0     H80800  10.078   6.835   8.007  0.8530 -0.8417  0.9381
  586MOL0     H80801  10.372   6.772   8.365  0.0052 -2.9311 -0.4007
  586MOL0     H80802  10.383   6.875   8.238 -2.0923  1.9005  1.9142
  586MOL0     H80803  10.399   6.568   8.208  2.9395 -1.9215 -0.4494
  586MOL0     H80804  10.374   6.688   8.070  0.2738  0.9047  0.6231
  586MOL0     H80805  10.591   6.739   8.072 -1.1374  0.4941 -0.2524
  586MOL0     H80806  10.609   6.733   8.257  2.9685 -1.5559 -0.4053
  586MOL0     H80807  10.627   6.489   8.245  1.4115  0.9163  1.2591
  586MOL0     H80808  10.585   6.476   8.078  1.5663  0.1690 -1.5492
  586MOL0     H80809  10.821   6.632   8.174  0.6161 -0.6687 -0.4883
  586MOL0     H80810  10.782   6.625   8.019  0.7255  1.7255  1.1317
  586MOL0     H80811  10.858   6.373   8.174  1.8775 -1.4808 -0.8833
  586MOL0     H80812  10.817   6.381   7.988  2.2852 -0.3837 -0.6978
  586MOL0     H80813  11.048   6.542   8.119  1.2886 -0.0233 -1.0948
  586MOL0     H80814  10.999   6.500   7.952 -1.0838  1.1929  0.4045
  586MOL0     H80815  11.023   6.253   8.036  1.0342 -0.3969  0.5356
  586MOL0     H80816  11.165   6.362   7.984  0.2530  0.8913  0.6475
  586MOL0     H80817  11.358   6.318   8.171 -0.5711 -1.0799 -0.4557
  586MOL0     H80818  11.366   6.129   8.530 -0.8025 -0.2339 -0.4629
  586MOL0     H80819  11.453   6.269   8.461 -0.6775  1.2748 -3.1354
  586MOL0     H80820  11.426   5.997   8.333  1.2393 -1.2321  4.1441
  586MOL0     H80821  11.521   6.140   8.269 -1.2384  1.4224 -1.0305
  586MOL0     H80822  11.636   6.100   8.518  2.4237 -1.4213 -0.8930
  586MOL0     H80823  11.570   5.935   8.480 -0.9792 -1.1300 -2.2438
  586MOL0     H80824  11.800   5.950   8.431 -1.2594  3.3442  1.9322
  586MOL0     H80825  11.690   5.913   8.288 -0.4191 -0.8563  0.2384
  586MOL0     H80826  11.889   5.900   8.136  1.1814 -0.8200 -4.3974
  586MOL0     H80827  12.107   5.926   7.879  0.6518  1.0509  0.0407
  586MOL0     H80828  12.038   5.801   7.996 -0.2998  0.4398  2.9207
  586MOL0     H80829  12.198   5.845   8.009  0.5622  1.3941 -1.2738
  586MOL0     H80830  12.563   6.255   8.073  1.8443 -0.2588  0.1381
  586MOL0     H80831  12.762   6.316   7.916  1.7097  1.8333 -4.2054
  586MOL0     H80832  12.903   6.485   7.775 -1.7404  3.1608 -1.9142
  586MOL0     H80833  12.896   6.307   7.726  0.0953 -1.2048 -1.7047
  586MOL0     H80834  12.945   6.326   7.532  0.4162  0.6152 -0.8244
  586MOL0     H80835  12.885   6.495   7.513  0.2860 -0.7988 -1.7260
  586MOL0     H80836  13.131   6.418   7.669  0.1788  0.8508  1.0050
  586MOL0     H80837  13.108   6.575   7.585 -1.9038  0.4422  0.7694
  586MOL0     H80838  13.164   6.487   7.380 -3.0067 -0.6481  1.8493
  586MOL0     H80839  13.153   6.323   7.417  2.7158 -0.9352 -1.0149
  586MOL0     H80840  13.364   6.510   7.531 -0.1680 -0.3872 -1.5870
  586MOL0     H80841  13.350   6.347   7.583  1.5831 -2.0851 -1.7972
  586MOL0     H80842  13.421   6.411   7.304 -1.0267  0.1759  0.4436
  586MOL0     H80843  13.364   6.251   7.363  0.4334 -0.9434  0.0475
  586MOL0     H80844  13.608   6.256   7.350 -0.7171  0.4692 -0.0178
  586MOL0     H80845  13.573   6.259   7.521 -1.6789 -1.5270  0.5916
  586MOL0     H80846  13.609   6.479   7.564 -0.3401 -0.0219 -1.1464
  586MOL0     H80847  13.621   6.539   7.405  1.2342  2.0224  1.1630
  586MOL0     H80848  12.485   6.443   7.616 -2.7099  1.0387 -0.4690
  586MOL0     H80849  12.299   6.425   7.789  0.8734  1.2041  1.0623
  586MOL0     H80850  12.145   6.329   8.158 -1.2700  1.0011 -0.4725
  586MOL0     H80851  11.955   6.314   8.293 -1.2253  0.7722 -3.7338
  586MOL0     H80852  10.179   6.978   8.403 -0.3126 -0.1233 -0.0100
  586MOL0     H80853  10.072   7.195   8.346  0.1112 -1.0000  0.4740
  586MOL0     H80854   9.713   7.309   8.063 -0.7275 -0.4888 -1.8994
  586MOL0     H80855   9.538   7.472   7.988 -0.0747  1.4938 -0.7124
  586MOL0     H80856   9.403   7.662   7.931  1.4375 -1.3033 -0.4960
  586MOL0     H80857   9.432   7.685   8.103  1.0304  1.4332  0.8408
  586MOL0     H80858   9.361   7.921   7.919 -1.2391 -1.5406 -1.7317
  586MOL0     H80859   9.410   7.930   8.085  0.2803 -0.2901 -0.0417
  586MOL0     H80860   9.172   7.955   8.035  2.7760  0.6579  0.2932
  586MOL0     H80861   9.151   7.795   7.978 -2.6757  0.2458  1.3633
  586MOL0     H80862   9.214   7.694   8.174  2.9000  1.5123 -2.3473
  586MOL0     H80863   9.065   7.794   8.196  0.0938 -0.0790 -0.1534
  586MOL0     H80864   9.314   7.975   8.476 -0.6975  0.3436  0.6864
  586MOL0     H80865   9.813   7.783   7.948 -1.8264  1.0109  2.3010
  586MOL0     H80866  10.116   7.560   7.938  1.1597 -0.3929  1.1737
  586MOL0     H80867  10.046   7.712   7.889 -1.4015 -0.7116  0.0819
  586MOL0     H80868  10.091   7.689   8.058 -0.1656  0.5589 -1.3545
  587MOL0     O80869   5.658   0.888   4.843 -0.1377 -0.6890 -0.3212
  587MOL0     C80870   5.679   0.876   4.724 -0.2104  0.8726 -0.1174
  587MOL0     O80871   5.606   0.805   4.638 -0.5036 -0.0934  0.0200
  587MOL0     C80872   5.523   0.703   4.688 -1.1203  0.0595 -0.0640
  587MOL0     C80873   5.400   0.733   4.737 -0.0594  0.2713 -0.6267
  587MOL0     C80874   5.315   0.624   4.767 -0.0546 -0.6735 -0.4423
  587MOL0     C80875   5.355   0.495   4.748  0.3281 -0.3037  0.2061
  587MOL0     O80876   5.290   0.382   4.770  0.0288  0.1791  0.0153
  587MOL0     C80877   5.197   0.385   4.878 -0.2820 -0.9832  0.0943
  587MOL0     C80878   5.178   0.242   4.930 -0.3440  0.5367 -0.7705
  587MOL0     C80879   5.075   0.235   5.041  0.1028 -0.4891 -0.0926
  587MOL0     C80880   5.065   0.097   5.108  0.0938  0.7632 -0.0658
  587MOL0     C80881   4.950   0.062   5.206  0.2968  0.0578 -0.5878
  587MOL0     C80882   4.923  -0.080   5.261 -0.8019  0.3366 -0.1888
  587MOL0     C80883   5.049  -0.130   5.340 -1.5237  0.8392  0.1665
  587MOL0     C80884   5.015  -0.261   5.411 -0.0318  0.0823 -0.1841
  587MOL0     N80885   5.133  -0.320   5.484  0.2825  0.4438 -0.1240
  587MOL0     C80886   5.227  -0.406   5.433  0.1003 -0.1038 -0.3329
  587MOL0     C80887   5.315  -0.422   5.529 -0.8850 -0.7905 -0.7108
  587MOL0     C80888   5.442  -0.506   5.526 -0.7668  0.0436 -0.2589
  587MOL0     C80889   5.430  -0.661   5.519 -0.4447 -0.1949  0.3214
  587MOL0     C80890   5.357  -0.717   5.643 -0.1179 -0.4160 -0.0751
  587MOL0     C80891   5.428  -0.660   5.771 -0.5530 -0.1397  0.3821
  587MOL0     O80892   5.570  -0.686   5.766  0.9069 -0.7673 -0.2412
  587MOL0     C80893   5.649  -0.635   5.866 -0.2374 -0.6786  0.5448
  587MOL0     C80894   5.605  -0.582   5.991 -0.2114  0.2377  0.8234
  587MOL0     C80895   5.691  -0.529   6.081 -0.6881  0.6751 -0.5834
  587MOL0     C80896   5.644  -0.481   6.215 -0.4360 -0.5929 -0.1639
  587MOL0     C80897   5.832  -0.527   6.043  0.1791 -0.8375 -0.9823
  587MOL0     C80898   5.935  -0.478   6.131 -0.3188  0.2847  0.2850
  587MOL0     O80899   6.058  -0.545   6.121 -0.0231 -0.6070  0.8397
  587MOL0     C80900   6.162  -0.488   6.189  0.3359  0.2897 -0.6601
  587MOL0     C80901   6.196  -0.367   6.160  0.1847  0.0927 -0.1794
  587MOL0     C80902   6.310  -0.309   6.200 -0.5374 -0.1323  0.4321
  587MOL0     C80903   6.404  -0.380   6.281  0.9256 -0.0257 -0.5634
  587MOL0     O80904   6.526  -0.307   6.295 -0.5958  0.2036  0.2209
  587MOL0     C80905   6.628  -0.385   6.356  0.0269  0.0763 -0.4671
  587MOL0     C80906   6.746  -0.277   6.374  0.7768  0.4375 -0.3073
  587MOL0     C80907   6.863  -0.335   6.455 -0.1512  1.1174  0.3956
  587MOL0     C80908   6.942  -0.222   6.512  0.6098 -0.4604 -0.2403
  587MOL0     C80909   7.081  -0.268   6.533 -0.4619 -0.4623 -0.6438
  587MOL0     C80910   7.184  -0.156   6.562  0.0214 -0.9270 -0.3742
  587MOL0     C80911   7.322  -0.220   6.586 -0.2379  0.4119  0.0422
  587MOL0     C80912   7.438  -0.116   6.579  0.8955  0.0283  0.6880
  587MOL0    Cl80913   7.593  -0.199   6.594 -0.2443 -0.0803 -0.3343
  587MOL0     C80914   6.369  -0.513   6.322  0.1835  0.1302  0.2064
  587MOL0     C80915   6.246  -0.569   6.271 -0.2011  0.1345  0.2378
  587MOL0     O80916   5.913  -0.386   6.215  0.3168  0.6514 -0.0062
  587MOL0     C80917   5.875  -0.595   5.930  0.5085 -0.3021  0.2013
  587MOL0     C80918   5.783  -0.652   5.839  0.0653 -0.3772 -0.1232
  587MOL0     N80919   5.271  -0.349   5.644  0.1214  0.2884 -0.3692
  587MOL0     N80920   5.163  -0.288   5.609  0.2649  0.5348 -0.1528
  587MOL0     C80921   5.485   0.461   4.706  0.0469 -0.9411  0.0886
  587MOL0     C80922   5.572   0.564   4.677 -0.2886 -0.3393 -0.6452
  587MOL0     C80923   5.798   0.933   4.656 -0.2862 -0.1704 -0.5280
  587MOL0     C80924   5.842   0.868   4.541 -0.1583  0.0587  0.4384
  587MOL0     C80925   5.962   0.897   4.486  0.1875 -0.0350 -0.7394
  587MOL0     C80926   6.044   0.996   4.536 -0.2742  0.4308  0.0599
  587MOL0     O80927   6.160   1.032   4.466 -0.6344  0.7774  0.2340
  587MOL0     C80928   6.131   1.085   4.336 -0.5885 -0.5590  0.5478
  587MOL0     C80929   6.220   1.204   4.303  0.3582  0.5431 -0.6251
  587MOL0     C80930   6.372   1.156   4.309  0.5645 -0.1057  0.5038
  587MOL0     C80931   6.456   1.280   4.279  0.2339  0.2761 -0.0140
  587MOL0     C80932   6.502   1.354   4.399  0.3844  0.1384 -0.2912
  587MOL0     C80933   6.536   1.420   4.501 -0.4933 -0.0960  0.9502
  587MOL0     C80934   5.996   1.066   4.643  0.4714  0.4118 -0.0498
  587MOL0     C80935   5.874   1.040   4.710 -0.4361 -0.7235 -0.0935
  587MOL0     C80936   5.842   1.149   4.807  0.1227  0.3503 -0.5452
  587MOL0     H80937   5.357   0.832   4.750 -1.6708 -0.3036 -1.3130
  587MOL0     H80938   5.211   0.624   4.798  0.6107  2.1060  2.2508
  587MOL0     H80939   5.103   0.410   4.827  1.1850  0.4548 -2.0518
  587MOL0     H80940   5.209   0.459   4.957 -1.7310  0.8148 -1.2769
  587MOL0     H80941   5.146   0.192   4.838  0.3468  0.3474 -0.9111
  587MOL0     H80942   5.272   0.200   4.967 -0.8372 -0.3600 -0.5028
  587MOL0     H80943   5.102   0.299   5.126 -0.5185 -1.3856  0.7984
  587MOL0     H80944   4.977   0.273   5.012  1.0330  3.9565  1.6215
  587MOL0     H80945   5.065   0.021   5.029  2.2276  1.0410 -0.4110
  587MOL0     H80946   5.156   0.067   5.161 -1.4788 -1.1906  1.7139
  587MOL0     H80947   4.853   0.100   5.172 -1.0213 -1.8749  0.8041
  587MOL0     H80948   4.963   0.125   5.294 -1.6797  0.9744 -0.9091
  587MOL0     H80949   4.831  -0.086   5.319 -0.4630 -0.2687  0.3004
  587MOL0     H80950   4.918  -0.156   5.182  2.8379 -2.4945  1.9647
  587MOL0     H80951   5.086  -0.058   5.414  1.6887 -1.4880  1.0069
  587MOL0     H80952   5.135  -0.136   5.273  1.1130  2.8576  3.0758
  587MOL0     H80953   4.931  -0.241   5.478 -0.7970  1.2859 -1.4187
  587MOL0     H80954   4.987  -0.334   5.335  1.9512 -0.3109 -0.5700
  587MOL0     H80955   5.229  -0.448   5.332 -0.7101 -0.7796 -0.0817
  587MOL0     H80956   5.511  -0.484   5.607 -0.1120 -4.4440  0.6429
  587MOL0     H80957   5.500  -0.484   5.436 -0.6484 -1.3458 -0.5395
  587MOL0     H80958   5.374  -0.688   5.429 -0.1682  1.9872 -0.5629
  587MOL0     H80959   5.533  -0.699   5.517 -0.4596 -0.2105 -0.2040
  587MOL0     H80960   5.253  -0.685   5.639  0.2957  0.8953 -1.9699
  587MOL0     H80961   5.349  -0.826   5.641 -0.5577 -0.4138  1.1659
  587MOL0     H80962   5.416  -0.552   5.787  2.8604  0.5778 -1.0830
  587MOL0     H80963   5.398  -0.707   5.865 -0.2424 -1.3465 -0.1095
  587MOL0     H80964   5.500  -0.587   6.018 -1.3377 -1.0960 -3.0971
  587MOL0     H80965   5.544  -0.519   6.238 -1.4515 -0.3506 -3.6613
  587MOL0     H80966   5.642  -0.372   6.207 -1.0334 -0.4517  1.5195
  587MOL0     H80967   5.715  -0.519   6.289 -1.4378  1.4766  2.0039
  587MOL0     H80968   6.131  -0.311   6.094 -1.5129 -1.3991  0.1543
  587MOL0     H80969   6.328  -0.205   6.174 -0.7581 -0.3706 -0.7325
  587MOL0     H80970   6.612  -0.424   6.457  0.8368  0.9144 -0.0053
  587MOL0     H80971   6.669  -0.463   6.292  2.0285 -0.1392  1.0056
  587MOL0     H80972   6.761  -0.241   6.272 -2.5375  0.3086 -0.9349
  587MOL0     H80973   6.718  -0.190   6.433 -1.3963 -0.4699  0.0904
  587MOL0     H80974   6.923  -0.387   6.380 -2.5580 -1.1748 -0.0911
  587MOL0     H80975   6.832  -0.402   6.536  0.7381  1.7860  1.3053
  587MOL0     H80976   6.895  -0.185   6.604 -0.0634 -1.9544  0.0502
  587MOL0     H80977   6.932  -0.131   6.451 -1.0181 -0.3250  0.1556
  587MOL0     H80978   7.081  -0.343   6.613  2.1085 -2.5278 -2.4420
  587MOL0     H80979   7.119  -0.325   6.448  0.9900  0.0265 -0.3403
  587MOL0     H80980   7.155  -0.114   6.658  0.8878 -2.8788  0.7938
  587MOL0     H80981   7.180  -0.078   6.485 -0.9704  0.8169  1.3767
  587MOL0     H80982   7.326  -0.290   6.502 -3.1904  0.4438 -0.2397
  587MOL0     H80983   7.308  -0.274   6.680  0.5664 -0.5529 -0.3765
  587MOL0     H80984   7.422  -0.028   6.642  0.1486  1.0454 -0.8725
  587MOL0     H80985   7.432  -0.084   6.475 -3.3678  1.4724  1.1573
  587MOL0     H80986   6.443  -0.568   6.380 -0.6209 -0.1973  0.9313
  587MOL0     H80987   6.209  -0.669   6.290 -0.3470 -0.3032 -2.0251
  587MOL0     H80988   5.979  -0.605   5.902  0.5062 -0.4305  0.2391
  587MOL0     H80989   5.817  -0.696   5.746  0.8118 -2.2155  0.9729
  587MOL0     H80990   5.515   0.359   4.688  0.3939 -0.9253  0.5357
  587MOL0     H80991   5.673   0.550   4.640 -0.8791  0.6812 -2.8026
  587MOL0     H80992   5.785   0.791   4.489  0.2048  0.4212 -0.5090
  587MOL0     H80993   5.991   0.845   4.395 -1.0346  1.1901 -1.8867
  587MOL0     H80994   6.147   1.007   4.260 -0.5479  0.0168 -0.0423
  587MOL0     H80995   6.027   1.118   4.323  0.0362  1.3029 -0.0165
  587MOL0     H80996   6.196   1.283   4.375 -1.5484  0.0903 -0.7132
  587MOL0     H80997   6.208   1.234   4.199  2.1988  2.7863 -0.2614
  587MOL0     H80998   6.396   1.100   4.400 -1.7636 -1.6984  0.2296
  587MOL0     H80999   6.379   1.091   4.221  0.6174 -0.7751  0.9946
  587MOL0     H81000   6.409   1.347   4.206  0.8980 -0.0055 -0.7055
  587MOL0     H81001   6.546   1.259   4.220  0.0548  1.5213 -0.7670
  587MOL0     H81002   6.578   1.479   4.579  0.4757  0.1145  0.2890
  587MOL0     H81003   6.042   1.154   4.688  0.4273  0.8646 -0.8629
  587MOL0     H81004   5.748   1.126   4.858 -0.3413  3.1153  0.0271
  587MOL0     H81005   5.918   1.145   4.886 -0.4144 -1.1626 -0.0769
  587MOL0     H81006   5.832   1.246   4.757  3.6424  0.7952 -0.6075
  588MOL0     O81007   8.469   2.954   2.884 -0.1184 -0.4697 -0.5332
  588MOL0     C81008   8.580   2.984   2.928 -1.2875  1.1174  0.6761
  588MOL0     O81009   8.685   3.017   2.841 -0.0202  0.2085 -0.0587
  588MOL0     C81010   8.658   3.026   2.711 -0.6401  0.3054  0.1864
  588MOL0     C81011   8.620   3.141   2.646 -0.1012  0.1488  0.4225
  588MOL0     C81012   8.600   3.135   2.507  0.0681 -0.3145  0.5317
  588MOL0     C81013   8.610   3.011   2.438  0.0425 -0.1220  0.9155
  588MOL0     O81014   8.577   2.995   2.307 -0.4794  0.1913  0.1704
  588MOL0     C81015   8.486   3.084   2.254  0.8192  0.4416  0.7095
  588MOL0     C81016   8.427   3.026   2.118  0.1248 -0.2794  0.0804
  588MOL0     C81017   8.443   2.875   2.085  0.9703  0.8589 -0.3761
  588MOL0     C81018   8.376   2.827   1.959 -1.4028  0.0022 -0.5127
  588MOL0     C81019   8.392   2.671   1.939  0.6582 -0.3009  0.1092
  588MOL0     C81020   8.531   2.630   1.896  0.2787  0.1768  0.2428
  588MOL0     C81021   8.532   2.473   1.865 -0.5851  0.2943  0.4914
  588MOL0     C81022   8.667   2.424   1.820  0.3539 -0.3495 -0.3918
  588MOL0     N81023   8.690   2.434   1.679 -0.2474  0.3746 -0.6127
  588MOL0     C81024   8.718   2.323   1.598  0.3672 -0.2200  0.0017
  588MOL0     C81025   8.799   2.374   1.500 -0.2285  0.2261  0.3365
  588MOL0     C81026   8.863   2.296   1.392 -0.5269  0.0777 -0.3373
  588MOL0     C81027   8.796   2.154   1.364  0.1062 -0.1704  0.0738
  588MOL0     C81028   8.880   2.071   1.261 -0.6052  1.0080 -0.8926
  588MOL0     C81029   9.028   2.047   1.289  0.2546 -0.3240 -0.2193
  588MOL0     O81030   9.039   2.003   1.429 -0.2921 -0.3168  0.2822
  588MOL0     C81031   9.165   1.949   1.458  0.0620 -0.2603 -0.1195
  588MOL0     C81032   9.178   1.872   1.570  0.5060  0.5294 -0.9101
  588MOL0     C81033   9.298   1.813   1.617 -0.5461 -0.6111  0.1568
  588MOL0     C81034   9.282   1.714   1.721  0.0139 -0.0291  0.0724
  588MOL0     C81035   9.417   1.840   1.542  0.9327  0.2610  0.0031
  588MOL0     C81036   9.543   1.776   1.570  0.0062  0.2762 -0.2718
  588MOL0     O81037   9.570   1.758   1.701  0.2977  0.1431  0.0858
  588MOL0     C81038   9.690   1.701   1.739  0.0800  0.1212 -0.6418
  588MOL0     C81039   9.806   1.783   1.769  0.1509 -0.4188 -0.3371
  588MOL0     C81040   9.926   1.725   1.816  0.7345  0.1281 -0.2508
  588MOL0     C81041   9.932   1.586   1.826 -1.2355  1.0488  0.2019
  588MOL0     O81042  10.044   1.510   1.860 -0.2080 -1.0512  0.1578
  588MOL0     C81043  10.149   1.580   1.920  0.0594  0.4575 -0.2805
  588MOL0     C81044  10.243   1.487   1.990  0.6804  0.4284 -0.0539
  588MOL0     C81045  10.167   1.407   2.096  0.5337  0.2993  0.8467
  588MOL0     C81046  10.266   1.321   2.177  0.3965 -0.1530 -0.0615
  588MOL0     C81047  10.198   1.195   2.251  0.0272 -0.0998  0.6601
  588MOL0     C81048  10.203   1.069   2.166  0.3632  0.2696 -0.0234
  588MOL0     C81049  10.143   0.954   2.247  0.0633  0.6501  0.0017
  588MOL0     C81050  10.125   0.837   2.156  0.2026 -0.2372  0.1144
  588MOL0    Cl81051   9.999   0.720   2.214  0.3404  0.0790 -0.1034
  588MOL0     C81052   9.823   1.506   1.785  0.2840  0.9295 -0.4306
  588MOL0     C81053   9.694   1.561   1.760 -0.1365 -0.1984  0.6789
  588MOL0     O81054   9.620   1.767   1.478  0.3735 -0.0844 -0.0235
  588MOL0     C81055   9.404   1.907   1.418 -0.2913  0.8454  1.0578
  588MOL0     C81056   9.281   1.969   1.382 -0.0110 -0.3696 -0.2057
  588MOL0     N81057   8.811   2.512   1.523 -1.2132 -0.3204 -0.7008
  588MOL0     N81058   8.759   2.535   1.636  0.2060 -0.0883  0.6506
  588MOL0     C81059   8.645   2.898   2.505 -0.3793 -0.9729  0.2687
  588MOL0     C81060   8.667   2.905   2.642  0.3136  1.0973  0.4156
  588MOL0     C81061   8.613   2.987   3.076  0.1184  0.2808  0.8102
  588MOL0     C81062   8.727   3.046   3.128 -0.3032  0.5093  0.0926
  588MOL0     C81063   8.751   3.065   3.267 -0.3436  0.9226  0.0215
  588MOL0     C81064   8.663   3.020   3.361  0.3627 -0.5934 -0.2937
  588MOL0     O81065   8.682   3.042   3.496  0.3837  0.4573 -0.5156
  588MOL0     C81066   8.761   3.145   3.546  0.2312 -0.4280 -0.4615
  588MOL0     C81067   8.714   3.288   3.513 -0.2150 -0.8802 -0.3745
  588MOL0     C81068   8.768   3.388   3.621  0.6310  0.1548 -0.1501
  588MOL0     C81069   8.845   3.501   3.559  0.0126 -0.3796  0.4715
  588MOL0     C81070   8.924   3.573   3.656 -0.1670 -0.1141  0.0445
  588MOL0     C81071   8.977   3.625   3.747  0.7266  0.0994 -0.3610
  588MOL0     C81072   8.551   2.958   3.307 -0.4576 -0.2402  0.3418
  588MOL0     C81073   8.530   2.933   3.175 -0.1615 -0.2511  0.5121
  588MOL0     C81074   8.416   2.832   3.146 -0.0059  0.4126  0.1694
  588MOL0     H81075   8.609   3.232   2.704 -0.9299 -0.1075  0.6744
  588MOL0     H81076   8.586   3.226   2.449  1.6673 -1.1130 -1.2230
  588MOL0     H81077   8.534   3.181   2.236 -0.8440  1.1803  0.1065
  588MOL0     H81078   8.401   3.098   2.321  0.1512  0.3749 -0.1128
  588MOL0     H81079   8.318   3.034   2.118  0.0658 -0.4924 -1.6768
  588MOL0     H81080   8.470   3.085   2.037  1.5347  0.5876  1.4169
  588MOL0     H81081   8.551   2.860   2.082  1.4577  3.5341  0.7877
  588MOL0     H81082   8.392   2.821   2.166 -1.9149  3.8351  0.0109
  588MOL0     H81083   8.269   2.849   1.965 -1.0754  2.7718 -2.5963
  588MOL0     H81084   8.409   2.880   1.869  1.6743  2.5423  1.8825
  588MOL0     H81085   8.323   2.642   1.859  2.8841 -1.6042 -1.4249
  588MOL0     H81086   8.361   2.621   2.032 -1.5720 -0.5188 -0.6889
  588MOL0     H81087   8.553   2.687   1.805  2.9124  1.5251  1.6173
  588MOL0     H81088   8.607   2.658   1.968  1.5866 -1.9624 -0.2051
  588MOL0     H81089   8.451   2.444   1.797  1.4208  0.4342 -2.1293
  588MOL0     H81090   8.516   2.427   1.963 -0.4308  1.1544  0.9318
  588MOL0     H81091   8.732   2.487   1.881  1.8394 -1.5267 -0.7145
  588MOL0     H81092   8.679   2.323   1.859  0.7954  0.8017  2.7485
  588MOL0     H81093   8.694   2.218   1.615  1.0400 -0.5671 -1.0709
  588MOL0     H81094   8.965   2.279   1.427  0.0271  1.6895 -1.0989
  588MOL0     H81095   8.876   2.347   1.296  1.9831 -2.8478 -1.7407
  588MOL0     H81096   8.798   2.100   1.459  3.8682 -0.6002 -0.1007
  588MOL0     H81097   8.693   2.159   1.327  0.6130  1.0779 -1.2606
  588MOL0     H81098   8.829   1.975   1.255 -2.5955  1.9097  0.4437
  588MOL0     H81099   8.882   2.129   1.168 -3.4505  0.5164 -1.3657
  588MOL0     H81100   9.063   1.970   1.219 -1.9023 -0.2681 -1.4612
  588MOL0     H81101   9.074   2.145   1.272  1.4165 -0.3490  2.3327
  588MOL0     H81102   9.080   1.858   1.615  1.5530 -0.7639  1.1003
  588MOL0     H81103   9.319   1.617   1.687 -0.1516 -0.0275 -0.1129
  588MOL0     H81104   9.176   1.700   1.745 -0.0753 -0.0726 -0.3395
  588MOL0     H81105   9.331   1.741   1.815 -2.7622 -0.3356  1.7282
  588MOL0     H81106   9.798   1.891   1.761 -1.4762 -0.2606  2.2820
  588MOL0     H81107  10.009   1.790   1.840  1.0547 -0.1649 -0.5628
  588MOL0     H81108  10.198   1.633   1.837 -0.3436  1.2768 -0.0024
  588MOL0     H81109  10.108   1.657   1.985 -1.4575 -0.2042 -0.4186
  588MOL0     H81110  10.274   1.411   1.917 -1.6419  0.1284 -0.8003
  588MOL0     H81111  10.333   1.529   2.036  1.1671  0.3629 -0.9083
  588MOL0     H81112  10.099   1.340   2.043  3.1146 -1.3321 -0.5846
  588MOL0     H81113  10.112   1.473   2.164 -1.3638  0.0126 -0.3637
  588MOL0     H81114  10.308   1.391   2.249 -0.6580  0.4211  0.0139
  588MOL0     H81115  10.346   1.290   2.109  0.0900  3.0187 -2.0889
  588MOL0     H81116  10.259   1.165   2.337 -0.0727 -2.1178  0.0750
  588MOL0     H81117  10.099   1.222   2.290 -0.6013 -0.8012 -0.3881
  588MOL0     H81118  10.310   1.054   2.149  0.4080  1.7883 -1.2720
  588MOL0     H81119  10.150   1.075   2.070  0.5298 -2.0291 -0.3035
  588MOL0     H81120  10.041   0.985   2.270  0.7611  2.1046  1.3718
  588MOL0     H81121  10.200   0.926   2.337 -0.8308  0.6865  0.5876
  588MOL0     H81122  10.225   0.792   2.145  0.4798 -0.0153  1.5896
  588MOL0     H81123  10.091   0.860   2.054  0.5566  0.6435  0.1831
  588MOL0     H81124   9.834   1.398   1.792 -2.8127  0.4783 -0.8191
  588MOL0     H81125   9.607   1.499   1.741 -1.2532  1.5211  0.0451
  588MOL0     H81126   9.487   1.929   1.351 -2.3588  0.5475 -1.8029
  588MOL0     H81127   9.268   2.029   1.293 -0.1756  0.2332  0.2146
  588MOL0     H81128   8.650   2.802   2.454  0.4060 -0.1005 -1.3898
  588MOL0     H81129   8.700   2.814   2.691 -1.3996 -0.1192 -0.5532
  588MOL0     H81130   8.802   3.091   3.064 -0.6925  1.3143  0.1961
  588MOL0     H81131   8.850   3.106   3.286  1.0017 -2.5966  1.2881
  588MOL0     H81132   8.768   3.136   3.655 -0.6747 -1.1116 -0.4527
  588MOL0     H81133   8.861   3.136   3.501  0.4895  1.9405 -0.4864
  588MOL0     H81134   8.605   3.294   3.508 -0.1184  0.0883 -3.5774
  588MOL0     H81135   8.755   3.322   3.418  1.7348 -0.5356  0.5433
  588MOL0     H81136   8.684   3.422   3.681 -0.3436 -2.9313  0.4440
  588MOL0     H81137   8.836   3.335   3.688 -1.2226  1.2656  2.7892
  588MOL0     H81138   8.777   3.574   3.515 -0.2058 -0.2613  0.9982
  588MOL0     H81139   8.919   3.467   3.487 -1.8335 -1.0870 -1.1758
  588MOL0     H81140   9.049   3.664   3.816  0.9739 -3.6434  1.7233
  588MOL0     H81141   8.485   2.914   3.382  2.8530 -1.4535  2.7921
  588MOL0     H81142   8.460   2.742   3.102  1.6245  1.2427  0.0538
  588MOL0     H81143   8.362   2.813   3.239 -2.2532 -1.9007 -1.4638
  588MOL0     H81144   8.343   2.867   3.071  0.6061 -1.1201 -1.2201
  589MOL0     O81145   2.611   4.067   0.732 -0.2992  0.9072  0.9147
  589MOL0     C81146   2.543   4.068   0.627  0.3505 -0.6638 -0.6692
  589MOL0     O81147   2.558   4.162   0.524  0.4590  0.5124  0.4859
  589MOL0     C81148   2.663   4.230   0.505 -0.0004 -0.0826 -0.2763
  589MOL0     C81149   2.725   4.199   0.380  0.1228  1.0297 -0.7032
  589MOL0     C81150   2.837   4.278   0.345 -0.2629  0.1699 -0.1984
  589MOL0     C81151   2.891   4.375   0.431  1.1694 -0.1272  0.8577
  589MOL0     O81152   2.981   4.461   0.369 -0.1354  1.3911 -0.1058
  589MOL0     C81153   3.021   4.580   0.439 -0.7494  0.3541  1.1942
  589MOL0     C81154   3.112   4.672   0.350  0.1510  0.3035  0.0749
  589MOL0     C81155   3.050   4.735   0.226 -0.2013  0.4654 -0.1955
  589MOL0     C81156   3.062   4.650   0.101  0.0722 -0.2478  0.2632
  589MOL0     C81157   2.936   4.574   0.058  0.3090 -0.8948 -0.2685
  589MOL0     C81158   2.971   4.508  -0.079  0.4858 -0.5199 -0.0800
  589MOL0     C81159   2.852   4.418  -0.125 -0.2660  0.3494 -0.5468
  589MOL0     C81160   2.751   4.499  -0.215  0.0223 -0.5209 -0.0066
  589MOL0     N81161   2.631   4.425  -0.250 -0.5263 -0.5890 -0.2614
  589MOL0     C81162   2.569   4.419  -0.368  0.0921  0.3855  0.6144
  589MOL0     C81163   2.439   4.370  -0.351  0.3690  0.4893 -0.4061
  589MOL0     C81164   2.333   4.349  -0.455 -0.6438 -0.0644 -1.0123
  589MOL0     C81165   2.194   4.375  -0.408 -0.1884 -1.0863  0.4437
  589MOL0     C81166   2.094   4.327  -0.511  0.2069 -0.0700 -0.1507
  589MOL0     C81167   1.953   4.340  -0.462  0.2283  0.0167  0.2961
  589MOL0     O81168   1.930   4.466  -0.417 -0.8699 -0.3344 -0.2842
  589MOL0     C81169   1.804   4.498  -0.382 -1.1926  0.9554  0.8512
  589MOL0     C81170   1.782   4.616  -0.323 -0.1218 -0.4957  0.5445
  589MOL0     C81171   1.663   4.667  -0.266  0.7033  0.0431  0.0358
  589MOL0     C81172   1.660   4.807  -0.198  0.9601  0.7291  0.4080
  589MOL0     C81173   1.550   4.583  -0.283  0.2857 -0.6167 -1.1533
  589MOL0     C81174   1.413   4.622  -0.240 -0.5810  0.0889 -0.7906
  589MOL0     O81175   1.311   4.539  -0.286  0.3427 -0.4966 -0.0759
  589MOL0     C81176   1.173   4.572  -0.263 -0.4018 -0.1620 -0.1599
  589MOL0     C81177   1.127   4.623  -0.140 -0.6639 -0.7986  0.0954
  589MOL0     C81178   0.995   4.649  -0.118 -0.0849  0.1727  0.2069
  589MOL0     C81179   0.903   4.627  -0.219 -0.4419 -0.0314  0.8475
  589MOL0     O81180   0.774   4.660  -0.202 -0.2501 -0.5210 -0.7343
  589MOL0     C81181   0.697   4.616  -0.082  0.3149  0.5156 -0.1712
  589MOL0     C81182   0.546   4.620  -0.116  0.6709  0.2566  0.4363
  589MOL0     C81183   0.504   4.768  -0.152 -0.3529  0.2901  0.1596
  589MOL0     C81184   0.368   4.772  -0.209  0.6775  0.2490 -0.9043
  589MOL0     C81185   0.265   4.727  -0.101 -0.5027 -0.2738 -0.6156
  589MOL0     C81186   0.122   4.745  -0.155  0.7400 -0.2526  0.3557
  589MOL0     C81187   0.024   4.689  -0.055  1.9936  0.1250 -0.2339
  589MOL0     C81188  -0.129   4.694  -0.091  0.2090 -0.0778  0.8524
  589MOL0    Cl81189  -0.159   4.561  -0.222  0.0729  0.2479 -0.1341
  589MOL0     C81190   0.951   4.592  -0.345  0.0579  0.1337  0.7364
  589MOL0     C81191   1.084   4.560  -0.372  0.2901  0.2314  0.3583
  589MOL0     O81192   1.392   4.726  -0.167 -0.8938  0.1824 -0.2903
  589MOL0     C81193   1.568   4.457  -0.342  0.1442 -0.0140 -0.5620
  589MOL0     C81194   1.695   4.414  -0.393  0.2466 -0.0363  0.4168
  589MOL0     N81195   2.431   4.342  -0.211 -0.4696 -0.8212  0.0641
  589MOL0     N81196   2.552   4.367  -0.156 -1.1202  0.0107 -0.3734
  589MOL0     C81197   2.823   4.391   0.557 -0.6238 -0.0034 -0.1782
  589MOL0     C81198   2.716   4.318   0.604  0.5039 -0.5836  0.3167
  589MOL0     C81199   2.420   3.980   0.605  0.1295  0.2371  0.0250
  589MOL0     C81200   2.332   4.025   0.507  0.1791  0.2485  0.1717
  589MOL0     C81201   2.220   3.960   0.479 -0.2976 -1.3258  0.0896
  589MOL0     C81202   2.191   3.833   0.539  0.4705 -0.3936 -0.6493
  589MOL0     O81203   2.073   3.774   0.502  0.4111 -0.3852  0.1703
  589MOL0     C81204   2.035   3.656   0.585 -0.5886 -0.1270  0.1708
  589MOL0     C81205   1.949   3.693   0.702 -0.5686 -0.4136  0.7087
  589MOL0     C81206   1.793   3.710   0.676  0.0267 -0.5050  0.2738
  589MOL0     C81207   1.715   3.747   0.804  0.8984 -0.4561  0.8932
  589MOL0     C81208   1.569   3.745   0.783  0.0989  0.6986  1.0495
  589MOL0     C81209   1.451   3.753   0.758 -0.1682 -0.3480 -0.2551
  589MOL0     C81210   2.279   3.793   0.643 -0.5699 -0.0325 -0.1643
  589MOL0     C81211   2.387   3.868   0.687  0.3844  0.6973 -0.0094
  589MOL0     C81212   2.478   3.808   0.803  0.2280  0.7439 -0.2535
  589MOL0     H81213   2.682   4.118   0.322  2.9783  0.5081 -2.2861
  589MOL0     H81214   2.887   4.254   0.252  2.3278 -1.4083  1.4785
  589MOL0     H81215   3.086   4.552   0.522  2.9665  0.4012 -1.4592
  589MOL0     H81216   2.940   4.641   0.479 -0.9353  1.0893 -0.2489
  589MOL0     H81217   3.157   4.759   0.399 -1.6275  1.3363 -0.0512
  589MOL0     H81218   3.194   4.617   0.304 -0.1614 -0.8799  0.8921
  589MOL0     H81219   2.945   4.755   0.249 -0.2106  1.2601 -0.9206
  589MOL0     H81220   3.106   4.829   0.222  1.0057 -0.1069  1.6847
  589MOL0     H81221   3.077   4.715   0.015 -2.4236 -1.2750 -1.0719
  589MOL0     H81222   3.142   4.576   0.096 -0.7870 -1.1083 -3.6758
  589MOL0     H81223   2.854   4.645   0.045  0.1556 -1.5512 -3.9194
  589MOL0     H81224   2.918   4.504   0.140  0.9622  1.5881  2.1229
  589MOL0     H81225   3.002   4.567  -0.165 -0.8679 -0.9211 -0.8708
  589MOL0     H81226   3.052   4.435  -0.064 -0.2088 -1.5240 -1.0659
  589MOL0     H81227   2.797   4.389  -0.035  2.2993  1.9721  1.7439
  589MOL0     H81228   2.892   4.325  -0.165  2.1705 -0.5059  3.3103
  589MOL0     H81229   2.711   4.596  -0.184  3.5210  0.6653  1.2506
  589MOL0     H81230   2.805   4.524  -0.307 -1.0501 -0.7879 -0.7303
  589MOL0     H81231   2.610   4.450  -0.463  0.1127 -0.8964  0.1867
  589MOL0     H81232   2.348   4.247  -0.490  0.9838 -0.5801  1.0257
  589MOL0     H81233   2.351   4.419  -0.538  1.9739 -1.5547 -1.8270
  589MOL0     H81234   2.173   4.311  -0.322 -0.7480 -0.1155  1.0570
  589MOL0     H81235   2.172   4.479  -0.380  0.2481 -0.0589 -2.6621
  589MOL0     H81236   2.103   4.390  -0.600  0.6556  1.5265  0.9836
  589MOL0     H81237   2.112   4.224  -0.543  0.4253  0.2905 -1.2339
  589MOL0     H81238   1.880   4.328  -0.543  0.7992  4.1181 -1.0199
  589MOL0     H81239   1.945   4.269  -0.379 -2.5185  0.0828  0.2019
  589MOL0     H81240   1.864   4.687  -0.321 -0.8467  0.4367 -1.2426
  589MOL0     H81241   1.644   4.781  -0.093 -0.8092  0.4692  0.1095
  589MOL0     H81242   1.574   4.863  -0.235  0.7651  0.0132 -0.2593
  589MOL0     H81243   1.757   4.854  -0.218  0.9800  0.2927 -0.5833
  589MOL0     H81244   1.199   4.646  -0.062  0.3886 -0.1051 -1.0615
  589MOL0     H81245   0.978   4.712  -0.031 -0.8710  1.8858 -1.1299
  589MOL0     H81246   0.716   4.510  -0.063  1.6570  0.8614  0.5342
  589MOL0     H81247   0.722   4.672   0.008 -0.3635 -1.0670  1.0508
  589MOL0     H81248   0.524   4.549  -0.196 -2.7312 -0.8068  2.1182
  589MOL0     H81249   0.489   4.589  -0.028  0.1519 -1.8691 -0.5688
  589MOL0     H81250   0.567   4.827  -0.220 -1.8630  1.3870 -0.3408
  589MOL0     H81251   0.504   4.826  -0.059 -2.4240 -2.0409  1.7272
  589MOL0     H81252   0.355   4.717  -0.302  1.1136  1.3022 -1.5956
  589MOL0     H81253   0.340   4.875  -0.232  0.5532  0.6207  0.7274
  589MOL0     H81254   0.273   4.619  -0.085 -1.2790 -0.4708 -1.4485
  589MOL0     H81255   0.277   4.787  -0.011  0.7098 -1.2850 -0.0704
  589MOL0     H81256   0.118   4.688  -0.248  1.3359  2.6082 -1.5584
  589MOL0     H81257   0.096   4.848  -0.181 -3.3432 -1.1423  0.3060
  589MOL0     H81258   0.034   4.752   0.035 -1.0911  2.7901 -1.5221
  589MOL0     H81259   0.043   4.587  -0.022 -2.7538 -0.3193  2.0093
  589MOL0     H81260  -0.159   4.793  -0.126  2.1713  0.8568  1.6446
  589MOL0     H81261  -0.185   4.672   0.000 -1.9729  1.2965 -0.0925
  589MOL0     H81262   0.876   4.576  -0.422 -1.3692 -0.5391  2.2052
  589MOL0     H81263   1.113   4.510  -0.464  0.2187  0.1916  0.3574
  589MOL0     H81264   1.489   4.384  -0.356 -0.6104  0.6141  0.3064
  589MOL0     H81265   1.702   4.311  -0.424 -1.2460 -0.6034  1.8364
  589MOL0     H81266   2.868   4.461   0.627 -0.1800 -1.2203  0.7943
  589MOL0     H81267   2.668   4.338   0.700  2.1065  4.8512  0.2976
  589MOL0     H81268   2.355   4.116   0.452 -1.4966  0.1854 -0.6788
  589MOL0     H81269   2.165   4.004   0.396  1.6296  1.1923  0.0465
  589MOL0     H81270   1.979   3.585   0.524 -0.6734 -0.3484  0.5055
  589MOL0     H81271   2.125   3.600   0.614 -0.9343 -0.8057 -0.0492
  589MOL0     H81272   1.989   3.787   0.740  0.9684 -0.3107 -1.0492
  589MOL0     H81273   1.958   3.627   0.790 -2.2809  0.5040  1.6363
  589MOL0     H81274   1.779   3.800   0.616  0.5016 -1.0216 -0.6423
  589MOL0     H81275   1.755   3.622   0.623 -0.1582 -1.3451  1.7360
  589MOL0     H81276   1.745   3.849   0.830 -0.2878 -0.1298  1.0267
  589MOL0     H81277   1.741   3.678   0.885 -3.5001 -0.3878  2.6497
  589MOL0     H81278   1.347   3.736   0.738 -0.0614 -2.0439  0.4958
  589MOL0     H81279   2.264   3.710   0.712  1.7981  1.3892  2.2569
  589MOL0     H81280   2.455   3.704   0.828  1.1740  0.9887  1.8669
  589MOL0     H81281   2.582   3.806   0.771 -0.5416 -2.9060 -3.1939
  589MOL0     H81282   2.451   3.863   0.894 -3.6019 -0.9895 -0.1483
  590MOL0     O81283   1.543   8.194   7.640  0.3673 -0.1115  0.0565
  590MOL0     C81284   1.534   8.252   7.531 -0.3587 -0.5854 -0.3996
  590MOL0     O81285   1.643   8.305   7.462  0.0104 -0.2791 -0.1044
  590MOL0     C81286   1.778   8.293   7.506 -0.1876  0.2805  0.2291
  590MOL0     C81287   1.835   8.309   7.636 -0.0495 -1.1219 -0.0216
  590MOL0     C81288   1.968   8.273   7.655 -0.5836  0.0005  0.3635
  590MOL0     C81289   2.063   8.236   7.559 -0.5382 -0.8849  0.4426
  590MOL0     O81290   2.199   8.232   7.583  0.1121 -0.2966 -0.0209
  590MOL0     C81291   2.243   8.261   7.724  0.3326  0.1837 -0.1205
  590MOL0     C81292   2.395   8.242   7.716 -0.4312  0.0932 -1.1249
  590MOL0     C81293   2.459   8.266   7.858  0.0643 -0.4338 -0.8604
  590MOL0     C81294   2.605   8.313   7.850  0.3301 -0.6696 -0.2932
  590MOL0     C81295   2.678   8.290   7.980 -0.1886 -0.5324 -0.6506
  590MOL0     C81296   2.817   8.352   7.964 -0.1326 -0.3654 -0.0211
  590MOL0     C81297   2.905   8.349   8.092 -0.1843  0.2478 -0.5200
  590MOL0     C81298   3.062   8.364   8.084 -0.0043  0.1858  0.0744
  590MOL0     N81299   3.091   8.494   8.027  0.0879 -0.2054  0.5881
  590MOL0     C81300   3.101   8.514   7.889  0.1231 -1.0597  0.6839
  590MOL0     C81301   3.113   8.649   7.875 -0.0678  0.2273 -1.2237
  590MOL0     C81302   3.119   8.736   7.760  0.4321 -0.4736  0.0289
  590MOL0     C81303   3.227   8.690   7.661  0.1876 -0.0129  0.6252
  590MOL0     C81304   3.367   8.729   7.692 -0.2972 -0.3474 -0.0414
  590MOL0     C81305   3.390   8.878   7.673  0.2141  1.4298 -0.4468
  590MOL0     O81306   3.366   8.910   7.537  0.6255 -0.1016 -0.1208
  590MOL0     C81307   3.461   8.893   7.439 -0.2510 -0.3319  0.1286
  590MOL0     C81308   3.598   8.855   7.446  0.1253 -0.3090 -0.3153
  590MOL0     C81309   3.689   8.858   7.341  0.0169 -0.1041 -0.1316
  590MOL0     C81310   3.839   8.818   7.366 -0.8608 -0.5498 -0.1423
  590MOL0     C81311   3.642   8.922   7.219  0.0010  0.7403 -0.2703
  590MOL0     C81312   3.719   8.953   7.089  0.2252  0.2155 -0.7809
  590MOL0     O81313   3.655   9.021   6.995 -0.0504  0.2467 -1.1017
  590MOL0     C81314   3.706   9.032   6.866  0.1615  0.7890  0.0495
  590MOL0     C81315   3.786   9.133   6.839 -0.8425 -0.3664  0.1333
  590MOL0     C81316   3.835   9.150   6.709 -0.1530 -0.1218 -0.5859
  590MOL0     C81317   3.810   9.063   6.598  0.1295  0.0698 -0.1219
  590MOL0     O81318   3.855   9.074   6.474 -0.6268 -0.3715  0.2858
  590MOL0     C81319   3.936   9.187   6.435  0.1350  0.5120  0.1691
  590MOL0     C81320   3.951   9.180   6.287  0.8952 -0.0782 -0.3488
  590MOL0     C81321   4.034   9.063   6.241 -0.1834 -0.0949 -0.0879
  590MOL0     C81322   4.041   9.043   6.095 -1.1588  0.3156 -0.5609
  590MOL0     C81323   4.145   8.932   6.045 -1.0292 -0.1057  0.1014
  590MOL0     C81324   4.127   8.780   6.085 -0.7460 -0.2236 -0.5880
  590MOL0     C81325   4.171   8.675   5.988  0.2254  0.5211 -0.2515
  590MOL0     C81326   4.232   8.563   6.059 -0.4870 -0.0331 -0.8333
  590MOL0    Cl81327   4.401   8.606   6.088  0.0890 -0.0495  0.1669
  590MOL0     C81328   3.735   8.951   6.634  0.3093  0.4650  0.3995
  590MOL0     C81329   3.679   8.942   6.761 -0.1867  0.3079 -1.0141
  590MOL0     O81330   3.826   8.910   7.073 -0.7033  0.4286  0.2236
  590MOL0     C81331   3.500   8.958   7.215 -0.4518  0.7261  0.7342
  590MOL0     C81332   3.414   8.940   7.320  0.1943 -0.3428 -0.2261
  590MOL0     N81333   3.108   8.706   7.995  0.2540 -0.5547 -0.3658
  590MOL0     N81334   3.090   8.617   8.088  1.3261  0.0014 -0.3871
  590MOL0     C81335   2.011   8.238   7.429 -0.1104 -0.2324 -0.1153
  590MOL0     C81336   1.870   8.262   7.406 -0.5304 -0.2020 -0.0082
  590MOL0     C81337   1.401   8.290   7.476 -0.6422 -0.2604  0.0578
  590MOL0     C81338   1.388   8.326   7.338  0.1353  1.0920 -0.0563
  590MOL0     C81339   1.262   8.341   7.268 -0.3398  0.3579 -0.3422
  590MOL0     C81340   1.147   8.317   7.347  0.2092 -0.0389  0.3411
  590MOL0     O81341   1.021   8.334   7.289 -0.3459  0.0007 -0.2524
  590MOL0     C81342   0.903   8.314   7.365 -0.2150  0.8161 -0.2367
  590MOL0     C81343   0.789   8.355   7.281  0.3952 -0.0862 -0.1576
  590MOL0     C81344   0.654   8.324   7.345  0.3946  0.6643 -0.4024
  590MOL0     C81345   0.528   8.350   7.248 -0.1984  0.1415  0.2734
  590MOL0     C81346   0.418   8.273   7.295  0.3567 -0.5740 -0.9287
  590MOL0     C81347   0.328   8.214   7.359 -0.6409 -1.0526 -0.7084
  590MOL0     C81348   1.157   8.301   7.479  0.1830  0.5050 -0.8662
  590MOL0     C81349   1.273   8.277   7.546 -0.7298 -0.0245  0.1479
  590MOL0     C81350   1.269   8.251   7.694  0.1611 -0.0008  0.1929
  590MOL0     H81351   1.774   8.332   7.723  1.3838  1.1903  0.4488
  590MOL0     H81352   1.989   8.274   7.761 -2.3760  0.5255  0.7544
  590MOL0     H81353   2.200   8.190   7.796 -2.6287  2.0044  0.0760
  590MOL0     H81354   2.227   8.368   7.742  0.1565  1.2318 -5.2023
  590MOL0     H81355   2.414   8.136   7.700 -0.2964  0.0194 -0.4617
  590MOL0     H81356   2.441   8.306   7.640 -0.1145 -0.2771 -1.2458
  590MOL0     H81357   2.414   8.345   7.918  0.3583 -0.8954 -0.0127
  590MOL0     H81358   2.447   8.176   7.919 -2.9965 -0.3514 -1.1784
  590MOL0     H81359   2.650   8.265   7.763 -1.2086  2.0160 -2.7472
  590MOL0     H81360   2.604   8.418   7.818 -0.1252 -0.8444 -0.8663
  590MOL0     H81361   2.674   8.181   7.981  0.2143 -0.5446 -0.3475
  590MOL0     H81362   2.629   8.332   8.069  1.5088  1.0719 -0.3992
  590MOL0     H81363   2.878   8.306   7.885  2.0364 -2.0679  2.4356
  590MOL0     H81364   2.802   8.457   7.941  0.0581  0.6208  3.7359
  590MOL0     H81365   2.883   8.251   8.137  1.5308 -0.0164 -0.2067
  590MOL0     H81366   2.871   8.438   8.145  0.4061  0.7240 -0.9413
  590MOL0     H81367   3.101   8.350   8.186 -3.6095 -0.4355  1.5026
  590MOL0     H81368   3.101   8.280   8.025 -2.6155 -2.7268  2.1248
  590MOL0     H81369   3.099   8.445   7.805  1.0789 -0.2865  0.0066
  590MOL0     H81370   3.145   8.837   7.793 -0.5092 -0.6218  1.3229
  590MOL0     H81371   3.017   8.738   7.722 -0.3602  1.2551  2.0186
  590MOL0     H81372   3.227   8.581   7.667  0.1559  0.0352  1.8836
  590MOL0     H81373   3.202   8.715   7.558 -1.0916  1.2474  1.2006
  590MOL0     H81374   3.389   8.694   7.793 -0.0825 -2.2848 -0.7112
  590MOL0     H81375   3.432   8.671   7.625 -1.5413 -4.3533  1.8923
  590MOL0     H81376   3.322   8.931   7.740  0.6316  1.6900 -0.2282
  590MOL0     H81377   3.491   8.904   7.705 -0.2757 -0.1597  2.8597
  590MOL0     H81378   3.640   8.807   7.534  1.6751  0.8249 -0.4020
  590MOL0     H81379   3.914   8.890   7.334 -0.8667  1.5468  3.9498
  590MOL0     H81380   3.854   8.720   7.318 -0.0712  0.6078 -2.4031
  590MOL0     H81381   3.859   8.807   7.473  0.7168  1.2961 -0.1964
  590MOL0     H81382   3.814   9.215   6.904 -0.4318 -0.4875  0.1096
  590MOL0     H81383   3.906   9.232   6.701  0.5240 -0.4239  1.6040
  590MOL0     H81384   3.877   9.274   6.465 -0.9841 -0.9162  2.4556
  590MOL0     H81385   4.036   9.187   6.479 -0.0301 -1.2361  0.6428
  590MOL0     H81386   3.851   9.165   6.245  0.4998  1.2683  0.0643
  590MOL0     H81387   3.979   9.275   6.240 -1.3975  1.7352  1.6767
  590MOL0     H81388   4.003   8.966   6.282  1.3505 -0.8014 -0.5029
  590MOL0     H81389   4.136   9.074   6.279  0.1279 -3.1158  0.1638
  590MOL0     H81390   4.064   9.143   6.057 -0.2314  1.8757  3.5763
  590MOL0     H81391   3.943   9.019   6.054 -0.3777 -1.4091 -1.5398
  590MOL0     H81392   4.148   8.924   5.936  1.2727  1.0979  0.0073
  590MOL0     H81393   4.248   8.956   6.074 -1.1697  0.8958 -0.1806
  590MOL0     H81394   4.019   8.764   6.099 -0.8740  0.1946 -1.0661
  590MOL0     H81395   4.176   8.772   6.182  1.2402 -2.9784 -1.6958
  590MOL0     H81396   4.249   8.705   5.918  1.1986 -6.3769 -2.9099
  590MOL0     H81397   4.087   8.650   5.923 -0.1389  0.2407  0.3138
  590MOL0     H81398   4.221   8.470   6.003 -0.9922 -0.7510  0.4200
  590MOL0     H81399   4.188   8.553   6.159  0.5752  3.0941  0.0609
  590MOL0     H81400   3.724   8.866   6.567 -0.5983  0.6816  0.2619
  590MOL0     H81401   3.614   8.857   6.777 -1.5983  1.5613  0.2449
  590MOL0     H81402   3.464   9.014   7.129  0.4620  1.7863  1.0150
  590MOL0     H81403   3.311   8.973   7.311  0.5633  0.8268 -0.3722
  590MOL0     H81404   2.074   8.222   7.342  1.0898  2.0869  0.2392
  590MOL0     H81405   1.828   8.255   7.306  2.3951  0.2358 -1.3587
  590MOL0     H81406   1.473   8.346   7.274  0.1304 -1.5598 -0.9824
  590MOL0     H81407   1.250   8.382   7.168 -1.1953  0.1581 -0.3279
  590MOL0     H81408   0.898   8.207   7.388  0.6063  0.8649  0.2272
  590MOL0     H81409   0.902   8.383   7.450  0.8199  2.4375 -1.4577
  590MOL0     H81410   0.797   8.301   7.186  1.9419  0.2323 -0.2384
  590MOL0     H81411   0.793   8.460   7.252 -2.9708 -0.7156 -3.8537
  590MOL0     H81412   0.659   8.218   7.374  0.5898  0.7472 -0.1362
  590MOL0     H81413   0.641   8.394   7.428  0.1857 -0.1835  0.2939
  590MOL0     H81414   0.544   8.317   7.145  0.3421 -0.2068  0.4640
  590MOL0     H81415   0.499   8.455   7.258  0.8221  0.3797  0.9776
  590MOL0     H81416   0.252   8.163   7.414  0.6815 -0.1228  2.1587
  590MOL0     H81417   1.065   8.284   7.534  1.4962 -2.2879  0.6466
  590MOL0     H81418   1.344   8.305   7.753  0.6244  1.2092 -1.4278
  590MOL0     H81419   1.172   8.286   7.730  0.9871  2.5284  0.1997
  590MOL0     H81420   1.274   8.144   7.715  0.1427 -0.3712 -1.5225
  591MOL0     O81421   3.260   9.269   4.407  0.0223  0.1271  0.1009
  591MOL0     C81422   3.294   9.382   4.448  0.6659  0.1303 -0.7080
  591MOL0     O81423   3.413   9.421   4.496  0.7268  0.3532  0.8447
  591MOL0     C81424   3.528   9.380   4.445  1.0036  0.1449 -0.4174
  591MOL0     C81425   3.558   9.313   4.329  0.5462  0.7010 -0.4130
  591MOL0     C81426   3.686   9.260   4.306 -0.2230 -0.5466  0.4633
  591MOL0     C81427   3.788   9.282   4.396 -0.5134  0.8413  0.2243
  591MOL0     O81428   3.906   9.216   4.382  0.7909 -0.6116 -0.4396
  591MOL0     C81429   3.969   9.180   4.502 -0.0147  0.0430 -0.4359
  591MOL0     C81430   4.069   9.072   4.462  0.6321  0.1998  0.6716
  591MOL0     C81431   4.167   9.046   4.580 -0.8388  0.1126  0.9359
  591MOL0     C81432   4.261   8.926   4.530  0.4287 -0.3164 -0.0382
  591MOL0     C81433   4.356   8.859   4.635 -0.1661  0.1972 -0.4814
  591MOL0     C81434   4.431   8.744   4.579  0.1121  0.5718 -0.7603
  591MOL0     C81435   4.533   8.658   4.654  0.3072 -0.2311  0.1276
  591MOL0     C81436   4.507   8.629   4.807 -0.3639  0.2395  0.3764
  591MOL0     N81437   4.605   8.533   4.862 -0.5394  0.0124 -0.2730
  591MOL0     C81438   4.618   8.398   4.827 -0.4142 -0.1354  0.6296
  591MOL0     C81439   4.700   8.345   4.915 -0.3360 -0.6586  0.1384
  591MOL0     C81440   4.744   8.199   4.914  0.5944 -0.0717 -0.2869
  591MOL0     C81441   4.875   8.179   4.834  1.3369  0.5717  0.9150
  591MOL0     C81442   4.886   8.044   4.775  0.0910  0.2627  0.1527
  591MOL0     C81443   5.013   8.035   4.694 -0.8155  0.1673 -0.4384
  591MOL0     O81444   5.119   8.059   4.788  0.4106 -0.3716  0.3235
  591MOL0     C81445   5.252   8.025   4.760 -0.2223  0.9818  0.6321
  591MOL0     C81446   5.338   8.059   4.863 -0.1562  0.6924  0.1179
  591MOL0     C81447   5.474   8.018   4.861  0.7108 -0.2480  0.0533
  591MOL0     C81448   5.555   8.060   4.980  0.3995 -0.4864  0.2613
  591MOL0     C81449   5.531   7.948   4.745 -0.1290 -0.2681 -0.1855
  591MOL0     C81450   5.674   7.913   4.733 -0.0151 -0.1322 -0.3540
  591MOL0     O81451   5.725   7.906   4.608 -0.1635 -0.2780  0.7674
  591MOL0     C81452   5.858   7.909   4.601 -1.0768  0.0689 -0.6246
  591MOL0     C81453   5.914   7.788   4.562  0.4974  0.1798 -0.0437
  591MOL0     C81454   6.050   7.783   4.549  0.9497  0.4435 -0.8779
  591MOL0     C81455   6.132   7.884   4.590 -0.0387  0.5184 -0.1923
  591MOL0     O81456   6.270   7.859   4.570 -0.4036  0.5714 -0.3235
  591MOL0     C81457   6.337   7.950   4.487  0.3519  0.4257 -0.2848
  591MOL0     C81458   6.428   8.042   4.560 -0.0352  0.6366  0.1395
  591MOL0     C81459   6.506   8.131   4.480 -0.4146 -0.1927 -0.4105
  591MOL0     C81460   6.589   8.228   4.568  0.4264 -0.7670  0.0424
  591MOL0     C81461   6.678   8.295   4.470 -0.4323  0.1142  0.2544
  591MOL0     C81462   6.763   8.403   4.548  0.2475  0.5322  0.5019
  591MOL0     C81463   6.875   8.362   4.633  0.2076  0.4415  0.1557
  591MOL0     C81464   6.954   8.470   4.686 -0.6380 -0.8881  0.0622
  591MOL0    Cl81465   7.092   8.400   4.772 -0.0696 -0.0225 -0.1283
  591MOL0     C81466   6.076   8.001   4.635 -0.0302  0.5664 -0.0394
  591MOL0     C81467   5.939   8.009   4.647  0.1876 -1.6877 -0.0988
  591MOL0     O81468   5.722   7.869   4.839  0.0693 -0.4582  0.8758
  591MOL0     C81469   5.437   7.916   4.641 -0.3331  0.3220  0.2171
  591MOL0     C81470   5.301   7.961   4.644 -0.5694  0.4892 -0.5461
  591MOL0     N81471   4.736   8.437   5.012  0.0574  0.4195  0.6763
  591MOL0     N81472   4.672   8.552   4.980 -0.2171  0.5231 -0.0771
  591MOL0     C81473   3.758   9.365   4.505  0.0110 -0.4328 -0.2599
  591MOL0     C81474   3.629   9.412   4.526  0.0710  0.0690 -0.1856
  591MOL0     C81475   3.182   9.469   4.500 -0.5351  0.2117 -0.8713
  591MOL0     C81476   3.191   9.531   4.628  0.0473  0.1701 -0.2816
  591MOL0     C81477   3.096   9.622   4.668 -0.7350  0.7304  0.4110
  591MOL0     C81478   2.991   9.665   4.587  0.8190  0.4740 -0.6332
  591MOL0     O81479   2.900   9.760   4.638  0.5836 -0.0392  0.9140
  591MOL0     C81480   2.771   9.785   4.574  0.6183 -0.3624 -1.2163
  591MOL0     C81481   2.709   9.897   4.656 -0.7207 -0.1679 -0.0687
  591MOL0     C81482   2.680   9.851   4.798  0.7175 -0.6208  0.2421
  591MOL0     C81483   2.563   9.749   4.816  0.2486  0.7213 -0.0075
  591MOL0     C81484   2.430   9.793   4.768  1.0185 -0.2036  0.2617
  591MOL0     C81485   2.324   9.831   4.723  0.5116 -0.4292  0.1918
  591MOL0     C81486   2.968   9.589   4.476 -0.7077 -0.0631  0.2128
  591MOL0     C81487   3.064   9.499   4.428 -0.5147 -0.4304  0.2738
  591MOL0     C81488   3.044   9.455   4.284  0.1758  0.2491 -0.2933
  591MOL0     H81489   3.478   9.273   4.267  0.6379  2.4406 -1.7265
  591MOL0     H81490   3.703   9.203   4.215 -3.9240  0.5822 -1.1333
  591MOL0     H81491   3.894   9.130   4.565 -1.5786  2.9569  0.2285
  591MOL0     H81492   4.021   9.260   4.556  2.8685 -0.1170 -2.7531
  591MOL0     H81493   4.017   8.981   4.432  0.7391  1.3892 -3.6847
  591MOL0     H81494   4.132   9.100   4.377 -2.2317 -1.4491 -2.1661
  591MOL0     H81495   4.214   9.141   4.607 -4.2399  1.0374  4.4635
  591MOL0     H81496   4.114   9.012   4.669 -0.5550  0.7653  1.3592
  591MOL0     H81497   4.191   8.844   4.510 -1.9401  0.8729  2.6565
  591MOL0     H81498   4.322   8.961   4.446  1.2449 -1.1957  0.1610
  591MOL0     H81499   4.297   8.813   4.715 -2.3644 -0.2924 -2.2657
  591MOL0     H81500   4.432   8.930   4.670  1.7269  0.4238 -4.4617
  591MOL0     H81501   4.354   8.671   4.553  0.7654 -0.3238 -0.2038
  591MOL0     H81502   4.484   8.777   4.489 -1.0394  0.3513 -1.5521
  591MOL0     H81503   4.635   8.697   4.650 -1.0487  3.9839  1.6181
  591MOL0     H81504   4.534   8.562   4.601 -3.8488  0.0975 -0.8664
  591MOL0     H81505   4.503   8.719   4.870 -0.6799 -1.4368  2.8657
  591MOL0     H81506   4.409   8.581   4.810  0.1498 -0.9843 -1.2550
  591MOL0     H81507   4.582   8.336   4.746  0.8469  0.8507 -0.7324
  591MOL0     H81508   4.663   8.149   4.860  1.7885 -1.0893 -1.1860
  591MOL0     H81509   4.755   8.164   5.018  2.4105  0.2033 -0.3586
  591MOL0     H81510   4.876   8.244   4.746  2.4122  0.7474  1.0526
  591MOL0     H81511   4.952   8.210   4.905 -0.3305  0.6175  2.7997
  591MOL0     H81512   4.886   7.974   4.859 -2.6926  0.5676  0.5171
  591MOL0     H81513   4.805   8.028   4.704  1.4365  0.4235 -1.4694
  591MOL0     H81514   5.014   7.933   4.653  2.0239  0.9802 -2.6897
  591MOL0     H81515   5.016   8.104   4.609  0.3113  0.6879  0.0206
  591MOL0     H81516   5.301   8.121   4.944  0.3831 -0.2594  1.1324
  591MOL0     H81517   5.648   8.095   4.934  0.7407 -4.6093 -2.8156
  591MOL0     H81518   5.566   7.969   5.040 -0.9450 -0.9195 -0.1068
  591MOL0     H81519   5.513   8.143   5.037 -0.0743  0.3107 -1.1930
  591MOL0     H81520   5.860   7.703   4.523  1.1657 -0.7910  1.0849
  591MOL0     H81521   6.094   7.693   4.506  1.2057 -0.7111  1.6283
  591MOL0     H81522   6.395   7.888   4.418  0.5350  1.9074 -1.5200
  591MOL0     H81523   6.260   8.004   4.430 -1.9287 -0.5817  1.6887
  591MOL0     H81524   6.359   8.100   4.623  0.5607 -1.2985  2.7340
  591MOL0     H81525   6.491   7.981   4.625  0.6355 -1.0323 -2.0037
  591MOL0     H81526   6.447   8.199   4.418 -0.5320  0.6663  0.6150
  591MOL0     H81527   6.574   8.067   4.424 -1.3675 -1.1907 -0.4510
  591MOL0     H81528   6.641   8.175   4.648 -1.1371 -1.5027  0.6124
  591MOL0     H81529   6.510   8.290   4.612  1.7424  0.2078  1.1215
  591MOL0     H81530   6.738   8.221   4.416 -1.6081  0.1423 -1.1672
  591MOL0     H81531   6.618   8.359   4.404 -0.2622 -0.0833 -0.0962
  591MOL0     H81532   6.694   8.465   4.606  1.0732  0.2468  1.8273
  591MOL0     H81533   6.804   8.471   4.473  3.2539 -3.3346 -1.7648
  591MOL0     H81534   6.934   8.296   4.568  0.9990  2.8191 -1.6708
  591MOL0     H81535   6.829   8.305   4.714 -2.3335  0.2441 -1.3080
  591MOL0     H81536   6.880   8.530   4.741  1.6820  0.9516  1.3591
  591MOL0     H81537   6.999   8.529   4.606 -1.0162  0.4715  0.8185
  591MOL0     H81538   6.147   8.081   4.657 -1.5881  2.5402 -1.7896
  591MOL0     H81539   5.897   8.100   4.686  0.4536 -1.6573  0.1195
  591MOL0     H81540   5.474   7.863   4.554  1.4122 -0.1959  1.2335
  591MOL0     H81541   5.232   7.933   4.566  1.1497  0.3527 -2.0830
  591MOL0     H81542   3.835   9.404   4.572  1.7597 -2.6039 -0.8692
  591MOL0     H81543   3.601   9.472   4.612 -1.9998 -0.9265 -0.0920
  591MOL0     H81544   3.275   9.526   4.697 -3.5625 -1.5180  4.5848
  591MOL0     H81545   3.130   9.679   4.753  6.2084 -1.8548 -0.0134
  591MOL0     H81546   2.778   9.839   4.479 -1.9317  0.0630 -1.2225
  591MOL0     H81547   2.719   9.689   4.575 -0.5119  0.2067  1.0612
  591MOL0     H81548   2.626   9.949   4.607 -0.1366  0.3968 -0.4666
  591MOL0     H81549   2.781   9.979   4.656  0.1003 -0.8335  1.7197
  591MOL0     H81550   2.766   9.799   4.840 -0.1456 -1.8609  0.5414
  591MOL0     H81551   2.660   9.945   4.850 -0.8864  0.8691 -2.7630
  591MOL0     H81552   2.537   9.718   4.918 -2.0691 -1.6592 -1.1844
  591MOL0     H81553   2.580   9.652   4.768 -0.4412  1.2304 -1.3261
  591MOL0     H81554   2.223   9.858   4.700  0.9053 -0.2410 -1.4134
  591MOL0     H81555   2.880   9.609   4.417  0.2342  0.1262 -1.1844
  591MOL0     H81556   3.098   9.360   4.275  1.8325  1.2165 -0.9663
  591MOL0     H81557   2.939   9.429   4.266  0.1368 -0.1180  0.4081
  591MOL0     H81558   3.077   9.526   4.207  0.7079 -0.9805 -1.2287
  592MOL0     O81559   6.773   5.843   0.141 -0.2163 -0.5011 -0.5500
  592MOL0     C81560   6.842   5.802   0.235 -0.2143  0.1559  0.0200
  592MOL0     O81561   6.968   5.764   0.226 -0.2213  0.1774  0.0628
  592MOL0     C81562   7.036   5.764   0.104 -0.2266 -0.7058 -0.3823
  592MOL0     C81563   7.150   5.838   0.090 -1.1774  0.6756 -0.5208
  592MOL0     C81564   7.234   5.819  -0.026 -0.5392  0.0525 -0.5648
  592MOL0     C81565   7.198   5.718  -0.112  0.1267 -0.2437 -0.1193
  592MOL0     O81566   7.291   5.694  -0.214  0.4428  0.2854 -0.0170
  592MOL0     C81567   7.306   5.549  -0.227 -0.3817 -0.0780  0.6613
  592MOL0     C81568   7.422   5.509  -0.322 -0.7921  1.1103 -0.1503
  592MOL0     C81569   7.389   5.526  -0.465 -0.1375 -0.0823  1.0305
  592MOL0     C81570   7.508   5.531  -0.559 -0.6204  1.0489  0.9086
  592MOL0     C81571   7.453   5.542  -0.703  0.9045 -0.0880 -0.4373
  592MOL0     C81572   7.568   5.540  -0.803 -0.3164 -0.4572  0.4271
  592MOL0     C81573   7.630   5.683  -0.825  0.3907  0.0477  0.4982
  592MOL0     C81574   7.716   5.690  -0.952 -0.4941 -0.0954  0.9865
  592MOL0     N81575   7.845   5.626  -0.941 -0.2703 -0.1216 -0.1519
  592MOL0     C81576   7.941   5.654  -0.849 -0.0799 -0.8403  0.7201
  592MOL0     C81577   8.030   5.554  -0.867  0.2393  0.8071 -0.0537
  592MOL0     C81578   8.158   5.526  -0.803 -0.6810 -0.9870  0.5330
  592MOL0     C81579   8.215   5.640  -0.709  0.3069 -0.8125  0.5029
  592MOL0     C81580   8.133   5.654  -0.572  0.2913  0.0628 -0.7914
  592MOL0     C81581   8.136   5.786  -0.497 -0.1669 -0.7360 -0.3620
  592MOL0     O81582   8.092   5.895  -0.581  0.5936  0.3389 -0.1001
  592MOL0     C81583   7.955   5.910  -0.580 -0.6589 -0.5702 -0.0707
  592MOL0     C81584   7.876   5.885  -0.461  0.3319  0.0039  0.6535
  592MOL0     C81585   7.741   5.899  -0.472  0.6121 -0.8072 -0.9678
  592MOL0     C81586   7.655   5.847  -0.352 -1.0324  0.0939  0.0910
  592MOL0     C81587   7.682   5.956  -0.579  0.6115 -0.5280 -0.1340
  592MOL0     C81588   7.537   5.986  -0.588 -0.2861  0.0840  0.2039
  592MOL0     O81589   7.490   6.059  -0.490  0.1785  0.4625  0.6712
  592MOL0     C81590   7.358   6.061  -0.455  0.1748  0.2764 -0.6010
  592MOL0     C81591   7.292   6.192  -0.428  0.9329 -0.3745  1.3406
  592MOL0     C81592   7.161   6.206  -0.385  0.1878 -1.0726 -0.1988
  592MOL0     C81593   7.083   6.085  -0.367 -0.0080 -0.2119  0.0379
  592MOL0     O81594   6.954   6.083  -0.318  0.2595  0.5477 -0.0253
  592MOL0     C81595   6.946   6.141  -0.183  0.1471 -0.4881  0.3842
  592MOL0     C81596   6.844   6.062  -0.098 -0.6538  0.6169  0.5216
  592MOL0     C81597   6.699   6.078  -0.161 -0.2510 -0.1183  0.2116
  592MOL0     C81598   6.584   6.029  -0.066 -0.4454  0.3951 -0.0677
  592MOL0     C81599   6.448   6.080  -0.120 -0.3350 -0.4847 -0.0314
  592MOL0     C81600   6.347   6.070  -0.003  0.0391 -1.0384  0.4120
  592MOL0     C81601   6.211   6.120  -0.060 -0.4867 -0.0092  0.2403
  592MOL0     C81602   6.107   6.138   0.050 -0.2063 -0.2230 -0.3955
  592MOL0    Cl81603   6.160   6.247   0.180 -0.0979 -0.1796 -0.2430
  592MOL0     C81604   7.142   5.969  -0.408  0.1093 -0.2557 -0.4962
  592MOL0     C81605   7.274   5.952  -0.442  0.3678 -0.0386  0.4572
  592MOL0     O81606   7.466   5.943  -0.679  0.0373  0.2015  0.5773
  592MOL0     C81607   7.761   5.985  -0.692 -0.0088  0.0210  0.4511
  592MOL0     C81608   7.897   5.961  -0.693 -0.1667 -1.0630 -0.3871
  592MOL0     N81609   7.982   5.468  -0.960  0.3665  0.2003  0.7815
  592MOL0     N81610   7.877   5.518  -1.015  0.5351  0.8052 -0.4696
  592MOL0     C81611   7.077   5.658  -0.111  0.6234  0.1544 -1.2302
  592MOL0     C81612   6.994   5.686   0.005  0.0701  0.3938 -0.2722
  592MOL0     C81613   6.758   5.765   0.348 -1.7602  0.0444 -0.4532
  592MOL0     C81614   6.796   5.648   0.422 -0.0900  0.1984 -0.0398
  592MOL0     C81615   6.713   5.595   0.521 -0.0517 -0.5055  0.0122
  592MOL0     C81616   6.592   5.654   0.553 -0.5657  0.0875  0.1829
  592MOL0     O81617   6.521   5.596   0.649  0.2686  0.5094  0.4053
  592MOL0     C81618   6.402   5.663   0.694  0.6663  0.3886 -1.4438
  592MOL0     C81619   6.318   5.551   0.764  0.0816  0.0877 -1.0590
  592MOL0     C81620   6.391   5.487   0.889  0.0278 -0.1559  1.1426
  592MOL0     C81621   6.288   5.410   0.975  0.8773 -0.2792 -0.0540
  592MOL0     C81622   6.234   5.294   0.906 -0.7160  0.8355  0.1187
  592MOL0     C81623   6.181   5.187   0.858 -0.4210 -0.7919  0.0586
  592MOL0     C81624   6.565   5.776   0.494  0.0787 -0.4843  0.3570
  592MOL0     C81625   6.645   5.835   0.390  0.8518  0.3210  1.0096
  592MOL0     C81626   6.599   5.958   0.338  0.3301  0.0937 -0.5062
  592MOL0     H81627   7.183   5.893   0.178 -1.0066 -0.4485  0.1535
  592MOL0     H81628   7.327   5.875  -0.039 -1.2918  0.7431 -3.9146
  592MOL0     H81629   7.207   5.511  -0.254 -1.5901  3.1456  0.1023
  592MOL0     H81630   7.338   5.518  -0.127 -0.6429  2.0139  1.4365
  592MOL0     H81631   7.501   5.583  -0.305 -0.8762  1.0112  0.6923
  592MOL0     H81632   7.448   5.406  -0.295 -1.2708  1.4957  1.8805
  592MOL0     H81633   7.312   5.457  -0.502  0.1521  0.5336 -0.8366
  592MOL0     H81634   7.336   5.622  -0.471 -1.2562 -0.6871  0.8195
  592MOL0     H81635   7.563   5.625  -0.555 -0.8801  1.3206 -1.0408
  592MOL0     H81636   7.581   5.450  -0.545  1.3303  2.6521  0.4601
  592MOL0     H81637   7.381   5.623  -0.713 -2.8360 -2.9458  1.1398
  592MOL0     H81638   7.397   5.453  -0.734  0.3497  0.4051 -0.8554
  592MOL0     H81639   7.648   5.472  -0.773 -1.2553 -1.5811  0.4116
  592MOL0     H81640   7.528   5.499  -0.896  0.1504  1.0107 -0.4548
  592MOL0     H81641   7.685   5.711  -0.735 -0.9825  2.7639  0.6145
  592MOL0     H81642   7.548   5.753  -0.846 -0.3193 -1.4436 -2.2314
  592MOL0     H81643   7.669   5.649  -1.043  1.3563  1.6969 -0.8783
  592MOL0     H81644   7.741   5.794  -0.971  2.1991 -0.5904  1.4104
  592MOL0     H81645   7.950   5.740  -0.783  0.4716 -0.6780  0.4359
  592MOL0     H81646   8.225   5.515  -0.889 -1.7244  2.3874 -0.8733
  592MOL0     H81647   8.141   5.435  -0.744  0.4451 -1.3636  0.3012
  592MOL0     H81648   8.316   5.604  -0.688 -0.2667 -3.6413 -1.0946
  592MOL0     H81649   8.206   5.738  -0.758 -2.3808 -0.1837  2.0356
  592MOL0     H81650   8.026   5.631  -0.581 -0.9394  4.4483  0.1688
  592MOL0     H81651   8.169   5.572  -0.510 -0.5358 -2.3017 -3.2559
  592MOL0     H81652   8.093   5.776  -0.397 -3.3748  6.1677 -0.4802
  592MOL0     H81653   8.244   5.802  -0.486  0.1831 -1.2898 -2.5507
  592MOL0     H81654   7.929   5.864  -0.369  0.1043 -1.5318  0.4588
  592MOL0     H81655   7.577   5.780  -0.390 -2.6713  0.5082  2.4800
  592MOL0     H81656   7.608   5.926  -0.293  0.8442  0.3073  1.3625
  592MOL0     H81657   7.717   5.793  -0.280  1.2778  1.2484 -0.9125
  592MOL0     H81658   7.354   6.279  -0.446 -0.2314  0.3525  0.7155
  592MOL0     H81659   7.112   6.301  -0.366  1.3387 -0.4913 -0.0721
  592MOL0     H81660   7.035   6.127  -0.121 -0.4682 -2.0731  0.9438
  592MOL0     H81661   6.929   6.249  -0.185  1.8568 -0.1708  1.2536
  592MOL0     H81662   6.887   5.963  -0.079  2.2461  2.1552  2.9448
  592MOL0     H81663   6.842   6.112  -0.001 -0.6288  0.2021  0.7409
  592MOL0     H81664   6.676   6.022  -0.253 -0.0308 -0.1892  0.2002
  592MOL0     H81665   6.687   6.186  -0.174 -2.4405 -0.4128 -0.7663
  592MOL0     H81666   6.609   6.065   0.034  2.1683 -1.2342 -0.0263
  592MOL0     H81667   6.576   5.920  -0.069 -1.4987  0.4537  0.2141
  592MOL0     H81668   6.468   6.185  -0.141  3.7131 -1.1036  0.0687
  592MOL0     H81669   6.422   6.033  -0.215  0.3287  4.2346 -2.8170
  592MOL0     H81670   6.374   6.119   0.091 -0.0023 -3.4950  1.8145
  592MOL0     H81671   6.345   5.962   0.015  0.9271 -1.1413 -0.0697
  592MOL0     H81672   6.178   6.047  -0.135  2.3612 -1.0896 -0.0866
  592MOL0     H81673   6.216   6.220  -0.103 -2.6621  0.7813  1.6422
  592MOL0     H81674   6.087   6.038   0.091  0.8304 -0.5916 -0.7605
  592MOL0     H81675   6.013   6.173   0.006 -0.6816 -0.9373  0.0257
  592MOL0     H81676   7.083   5.880  -0.386  0.5402 -0.5153 -0.3694
  592MOL0     H81677   7.302   5.848  -0.460 -0.9475 -0.0068 -2.2246
  592MOL0     H81678   7.712   6.027  -0.779  1.4086  0.0044 -0.4034
  592MOL0     H81679   7.954   5.979  -0.784  0.6974  1.9577  0.6203
  592MOL0     H81680   7.036   5.602  -0.194  1.0607 -0.7061 -0.8813
  592MOL0     H81681   6.898   5.636   0.020  0.2709  0.3694  1.0181
  592MOL0     H81682   6.880   5.588   0.388 -1.9855 -0.2223 -4.7809
  592MOL0     H81683   6.738   5.503   0.573  1.0088  0.0065  0.4414
  592MOL0     H81684   6.425   5.750   0.757 -2.8917 -1.3362  2.7645
  592MOL0     H81685   6.343   5.696   0.607 -0.8242  0.1324 -0.5743
  592MOL0     H81686   6.304   5.462   0.702 -0.9447 -0.6134  0.1346
  592MOL0     H81687   6.223   5.601   0.786  0.5521  0.9623 -0.9598
  592MOL0     H81688   6.465   5.414   0.855  2.3593  3.4208 -2.1997
  592MOL0     H81689   6.434   5.564   0.954 -1.5157  2.6529 -0.9417
  592MOL0     H81690   6.212   5.486   0.997  0.9849 -0.4256  0.8226
  592MOL0     H81691   6.334   5.367   1.064 -0.2069 -0.2483  0.5277
  592MOL0     H81692   6.133   5.095   0.829 -0.5545 -0.4142 -0.9627
  592MOL0     H81693   6.474   5.825   0.528  0.3175  0.6243 -0.5501
  592MOL0     H81694   6.520   5.943   0.264  0.4760  1.9625 -1.0932
  592MOL0     H81695   6.556   6.022   0.416 -3.1254 -1.9149 -0.5405
  592MOL0     H81696   6.669   6.016   0.278 -1.8150  2.8409 -0.5760
  593MOL0     O81697   9.848   6.098   9.853  0.2463 -0.2818  0.0478
  593MOL0     C81698   9.784   6.070   9.952  0.3807 -0.1927 -0.9210
  593MOL0     O81699   9.832   6.014  10.059  0.0425 -0.2022  0.6665
  593MOL0     C81700   9.965   5.984  10.079 -0.1502 -0.6529 -0.0401
  593MOL0     C81701  10.063   5.969   9.978  0.1637  0.2602 -0.1168
  593MOL0     C81702  10.193   5.915  10.001  0.4226  0.5157 -0.1198
  593MOL0     C81703  10.228   5.890  10.136  0.3909 -1.0665  0.8593
  593MOL0     O81704  10.347   5.864  10.184 -0.7408  0.1812  0.9202
  593MOL0     C81705  10.458   5.832  10.100 -0.4539  0.5074 -0.0527
  593MOL0     C81706  10.583   5.816  10.178 -1.0851  0.8251 -0.6773
  593MOL0     C81707  10.643   5.956  10.224 -0.2406 -0.0039 -1.3052
  593MOL0     C81708  10.774   5.945  10.313  0.2700 -0.0067 -0.4099
  593MOL0     C81709  10.805   6.081  10.379  0.3330 -0.2533  0.0209
  593MOL0     C81710  10.933   6.076  10.460 -0.8498 -0.2504 -0.7800
  593MOL0     C81711  10.958   6.215  10.518 -0.7463 -0.3756 -0.9922
  593MOL0     C81712  11.092   6.221  10.596 -0.1941 -0.9022  0.4987
  593MOL0     N81713  11.141   6.358  10.625  0.0771  0.5978 -0.9066
  593MOL0     C81714  11.102   6.472  10.566  1.3031 -0.3213 -0.3731
  593MOL0     C81715  11.171   6.568  10.641 -0.6798 -0.1840  0.1184
  593MOL0     C81716  11.177   6.725  10.625 -0.3874  0.4218 -0.9123
  593MOL0     C81717  11.291   6.756  10.533 -0.6673 -0.8262  0.8344
  593MOL0     C81718  11.423   6.734  10.610 -0.2100 -0.0842 -0.1887
  593MOL0     C81719  11.541   6.798  10.532  0.3706 -0.0264 -0.1927
  593MOL0     O81720  11.664   6.776  10.599 -0.5979  0.2648 -0.5808
  593MOL0     C81721  11.776   6.829  10.545 -0.6833  0.1965  0.3176
  593MOL0     C81722  11.792   6.887  10.424 -0.4929  0.3185  0.3738
  593MOL0     C81723  11.915   6.924  10.370 -0.0722 -1.1220  0.3966
  593MOL0     C81724  11.908   6.965  10.218  0.3750  0.1711 -1.1213
  593MOL0     C81725  12.029   6.919  10.453  0.0204  0.8517 -0.2239
  593MOL0     C81726  12.162   6.964  10.415 -0.1457  0.2801 -0.3936
  593MOL0     O81727  12.274   6.909  10.469  0.4996 -0.4951 -0.3358
  593MOL0     C81728  12.393   6.969  10.444  0.0599  0.1370 -0.3186
  593MOL0     C81729  12.461   6.967  10.319 -0.0314  0.4647 -1.1602
  593MOL0     C81730  12.585   7.033  10.297 -0.9731  0.1985 -0.0692
  593MOL0     C81731  12.659   7.084  10.398  0.2120 -0.3756 -0.3145
  593MOL0     O81732  12.779   7.148  10.372 -0.2829  0.8641 -0.7632
  593MOL0     C81733  12.865   7.186  10.482  0.6727 -0.2185  0.0150
  593MOL0     C81734  12.998   7.229  10.426  0.8822  0.0423 -0.5708
  593MOL0     C81735  13.109   7.269  10.528 -1.5516 -0.6730  0.1567
  593MOL0     C81736  13.237   7.299  10.454  0.1301 -0.0821 -1.2328
  593MOL0     C81737  13.361   7.282  10.557 -0.0838 -0.0842 -1.1346
  593MOL0     C81738  13.490   7.353  10.518 -1.0636  0.4858 -0.5039
  593MOL0     C81739  13.567   7.342  10.645  0.3312 -0.7850  0.3951
  593MOL0     C81740  13.720   7.360  10.642 -0.2526  0.0243  0.0495
  593MOL0    Cl81741  13.775   7.508  10.549  0.4351  0.0219  0.0085
  593MOL0     C81742  12.593   7.091  10.526 -0.1402 -0.4570 -0.4941
  593MOL0     C81743  12.472   7.036  10.547  0.3536 -0.5898  0.3604
  593MOL0     O81744  12.158   7.068  10.343 -0.6695  0.5214  0.6265
  593MOL0     C81745  12.017   6.855  10.578  0.0954 -0.2538  0.2199
  593MOL0     C81746  11.890   6.819  10.631 -0.2282  0.1520  0.5792
  593MOL0     N81747  11.240   6.503  10.745  0.8285  0.8215  0.7183
  593MOL0     N81748  11.223   6.381  10.727  0.4289  0.3517 -0.6801
  593MOL0     C81749  10.129   5.912  10.230 -0.7336  0.5130 -0.0373
  593MOL0     C81750   9.999   5.943  10.206 -0.4708  0.3698 -0.4105
  593MOL0     C81751   9.651   6.144   9.954  0.2412  0.4663  0.0600
  593MOL0     C81752   9.642   6.268   9.875 -0.6362  0.3489  0.0655
  593MOL0     C81753   9.523   6.333   9.875  0.6725  0.0204  0.5884
  593MOL0     C81754   9.410   6.293   9.946 -0.6667 -0.1636  0.5966
  593MOL0     O81755   9.307   6.380   9.947  0.5451  0.1152  0.1497
  593MOL0     C81756   9.173   6.332   9.963  1.1851 -0.4368 -0.6860
  593MOL0     C81757   9.071   6.439   9.900  0.3518  0.1479 -0.2224
  593MOL0     C81758   9.117   6.444   9.752  0.0913 -1.0752  0.9711
  593MOL0     C81759   9.030   6.538   9.671  0.5171  0.0228 -0.6632
  593MOL0     C81760   9.066   6.522   9.535 -0.3352  0.4296  0.4001
  593MOL0     C81761   9.084   6.509   9.416 -0.0899  0.0845  0.0762
  593MOL0     C81762   9.420   6.178  10.014 -0.5821  0.5306  0.0747
  593MOL0     C81763   9.534   6.093  10.009 -0.0370 -0.5762 -0.0384
  593MOL0     C81764   9.522   5.949  10.062  0.0055  0.6426  0.4176
  593MOL0     H81765  10.036   5.995   9.876  0.8740  0.7591 -0.1890
  593MOL0     H81766  10.269   5.923   9.924 -1.6501 -1.2850 -2.5241
  593MOL0     H81767  10.471   5.913  10.027  0.5397  2.9688  2.6524
  593MOL0     H81768  10.436   5.736  10.053  0.5407  0.0815  0.3293
  593MOL0     H81769  10.562   5.759  10.269  0.4423  3.0413  1.1833
  593MOL0     H81770  10.652   5.767  10.109 -1.4635 -2.5894  1.1662
  593MOL0     H81771  10.679   5.997  10.128  1.6468 -1.3915 -1.2522
  593MOL0     H81772  10.568   6.018  10.274 -2.8990 -3.9711  0.0262
  593MOL0     H81773  10.761   5.869  10.390 -0.4961 -0.6998 -1.2022
  593MOL0     H81774  10.864   5.915  10.258  2.1718  2.9893  0.7848
  593MOL0     H81775  10.724   6.101  10.450 -0.6938 -4.0938  0.1412
  593MOL0     H81776  10.819   6.158  10.303  0.4506 -1.0537 -0.7897
  593MOL0     H81777  10.916   5.999  10.535 -0.0031  1.5943  1.4185
  593MOL0     H81778  11.020   6.055  10.398 -2.3053 -1.8189 -2.3959
  593MOL0     H81779  10.874   6.249  10.581 -1.7562 -2.7365 -0.9668
  593MOL0     H81780  10.965   6.274  10.426  0.9464 -0.6243 -1.0496
  593MOL0     H81781  11.075   6.165  10.688 -0.3267  1.6889  2.1189
  593MOL0     H81782  11.171   6.171  10.539 -0.5240 -0.7260 -0.1226
  593MOL0     H81783  11.039   6.498  10.482  3.6647  0.7196 -1.9396
  593MOL0     H81784  11.188   6.782  10.718 -0.8396 -1.2986  0.2481
  593MOL0     H81785  11.080   6.754  10.584 -0.9119 -0.9076 -0.6584
  593MOL0     H81786  11.273   6.697  10.443  0.2909 -0.7177  0.5574
  593MOL0     H81787  11.281   6.864  10.516  0.9830 -0.3803  2.4509
  593MOL0     H81788  11.415   6.782  10.708 -1.5695  0.1569 -0.4007
  593MOL0     H81789  11.448   6.629  10.628  1.8565  0.6084  1.4503
  593MOL0     H81790  11.541   6.745  10.436 -6.3042  1.6943 -1.6990
  593MOL0     H81791  11.517   6.904  10.517 -0.6935 -0.0810  0.9326
  593MOL0     H81792  11.707   6.890  10.356  0.0308 -0.7039 -0.3525
  593MOL0     H81793  11.838   6.902  10.163 -1.4809 -1.1201  2.4329
  593MOL0     H81794  12.008   6.956  10.174 -0.1357 -2.5349 -1.8808
  593MOL0     H81795  11.900   7.074  10.225  1.8333  0.2182  0.4696
  593MOL0     H81796  12.421   6.904  10.240  2.1024 -0.4325 -1.5861
  593MOL0     H81797  12.635   7.025  10.201 -3.2985 -1.2030 -1.2497
  593MOL0     H81798  12.822   7.275  10.529  0.5032  0.1535 -0.8249
  593MOL0     H81799  12.884   7.104  10.552  1.0985 -1.0512 -1.0440
  593MOL0     H81800  13.034   7.156  10.352  0.0061  0.9773 -1.9842
  593MOL0     H81801  12.980   7.319  10.366  2.9743  0.0361 -1.3223
  593MOL0     H81802  13.111   7.185  10.598 -2.6763  1.3330  2.7850
  593MOL0     H81803  13.082   7.361  10.580  1.1909  0.0121  0.4857
  593MOL0     H81804  13.229   7.403  10.420 -0.7316  0.2645 -0.0492
  593MOL0     H81805  13.246   7.228  10.371  2.4421 -0.5148 -0.6880
  593MOL0     H81806  13.329   7.317  10.655 -2.3794 -0.0935 -1.8163
  593MOL0     H81807  13.380   7.176  10.577  0.5474 -0.1343 -1.9340
  593MOL0     H81808  13.477   7.455  10.481  2.1376  0.8331 -0.8933
  593MOL0     H81809  13.547   7.294  10.446 -0.5767 -0.2791  0.4915
  593MOL0     H81810  13.558   7.244  10.693 -1.9900  0.0168  1.7661
  593MOL0     H81811  13.520   7.407  10.720 -2.3351  0.7759 -2.3984
  593MOL0     H81812  13.766   7.276  10.587  0.6503  1.5834 -1.7189
  593MOL0     H81813  13.760   7.359  10.744 -3.1423  0.1585  1.2584
  593MOL0     H81814  12.633   7.142  10.613 -0.4134 -4.2737  2.1026
  593MOL0     H81815  12.423   7.047  10.643  3.0159  0.3955  1.7080
  593MOL0     H81816  12.098   6.847  10.649  3.0608 -2.3993 -3.0778
  593MOL0     H81817  11.883   6.782  10.733 -0.3923  1.7545  1.1852
  593MOL0     H81818  10.161   5.899  10.333  3.2819 -0.8387 -1.2928
  593MOL0     H81819   9.922   5.934  10.282 -1.4201 -3.5347 -1.6018
  593MOL0     H81820   9.721   6.301   9.808 -0.9273 -0.0878 -0.5014
  593MOL0     H81821   9.513   6.426   9.820 -0.7721 -1.4256 -1.7896
  593MOL0     H81822   9.159   6.239   9.907  2.9280 -1.8580  1.0765
  593MOL0     H81823   9.162   6.324  10.071  1.6682  2.1713 -0.3785
  593MOL0     H81824   9.101   6.534   9.945  2.5236 -0.7717  0.3713
  593MOL0     H81825   8.965   6.417   9.919 -0.1503  2.8532  0.6528
  593MOL0     H81826   9.221   6.478   9.741  0.0666 -0.9015  1.2597
  593MOL0     H81827   9.111   6.343   9.710 -0.8454 -0.7732  0.3453
  593MOL0     H81828   9.048   6.645   9.690  0.9311 -0.1060 -0.3061
  593MOL0     H81829   8.924   6.514   9.682  0.1361  1.6357 -0.4658
  593MOL0     H81830   9.115   6.478   9.318 -0.9754  0.0194 -0.1975
  593MOL0     H81831   9.336   6.138  10.068  0.2715 -4.6663 -1.9114
  593MOL0     H81832   9.622   5.909  10.081  1.1480  2.4829 -1.3294
  593MOL0     H81833   9.444   5.930  10.136 -1.8579 -1.7896 -1.9435
  593MOL0     H81834   9.473   5.895   9.981 -2.4290  2.6652  0.4177
  594MOL0     O81835   7.992   3.497   0.697 -0.1400 -0.5600  0.2142
  594MOL0     C81836   7.975   3.507   0.578 -0.4192  0.4777 -0.3348
  594MOL0     O81837   7.891   3.425   0.500  0.0730 -0.1142 -0.1640
  594MOL0     C81838   7.823   3.321   0.559  0.1803  0.0643  0.1815
  594MOL0     C81839   7.758   3.342   0.685  0.2313  0.3687  0.7920
  594MOL0     C81840   7.684   3.238   0.744 -0.1952 -0.8394  0.0417
  594MOL0     C81841   7.660   3.116   0.683  0.8421  0.4575 -0.4258
  594MOL0     O81842   7.580   3.025   0.751  0.4238  0.2529 -0.1593
  594MOL0     C81843   7.513   2.924   0.676  0.0157  0.5622  0.4579
  594MOL0     C81844   7.402   2.986   0.589  0.4207 -0.7366  0.5403
  594MOL0     C81845   7.309   2.874   0.522  0.8277 -0.1964  0.4805
  594MOL0     C81846   7.370   2.803   0.401 -0.2533  0.2463  0.3613
  594MOL0     C81847   7.297   2.674   0.359 -0.3963  0.7578 -0.1768
  594MOL0     C81848   7.337   2.638   0.220 -0.3272 -0.0603  0.6031
  594MOL0     C81849   7.248   2.516   0.173  0.0750  0.1235  0.4614
  594MOL0     C81850   7.322   2.435   0.075  0.7004 -0.3727  0.1500
  594MOL0     N81851   7.231   2.322   0.025  0.1422 -0.0151 -0.1037
  594MOL0     C81852   7.132   2.340  -0.070 -0.5568  0.2916  0.0426
  594MOL0     C81853   7.080   2.215  -0.091  0.5446 -0.1748 -0.6801
  594MOL0     C81854   6.980   2.184  -0.197  0.3354  0.7303 -0.5010
  594MOL0     C81855   6.936   2.045  -0.220  0.0049  0.3233 -0.0152
  594MOL0     C81856   6.833   2.007  -0.113  0.1413  0.2623  0.1554
  594MOL0     C81857   6.811   1.852  -0.109  0.2777  0.6891  0.4846
  594MOL0     O81858   6.768   1.798  -0.237 -0.2621 -0.1690 -0.8124
  594MOL0     C81859   6.644   1.798  -0.294 -0.2803 -0.2302 -0.3212
  594MOL0     C81860   6.620   1.708  -0.400  0.6230  0.2300 -0.0999
  594MOL0     C81861   6.502   1.691  -0.466 -0.1289 -0.0295 -0.9201
  594MOL0     C81862   6.488   1.573  -0.574 -0.2130 -0.2698  0.0079
  594MOL0     C81863   6.391   1.769  -0.427 -0.2024 -0.2817  0.2021
  594MOL0     C81864   6.258   1.776  -0.500  0.2468 -0.9840 -0.5358
  594MOL0     O81865   6.186   1.880  -0.458 -0.5303  0.3418  0.4784
  594MOL0     C81866   6.052   1.889  -0.499 -0.8631 -0.1193 -0.2637
  594MOL0     C81867   5.958   1.797  -0.450  0.4315 -0.2099 -0.0545
  594MOL0     C81868   5.825   1.821  -0.478  0.6797  0.4525  0.1042
  594MOL0     C81869   5.785   1.933  -0.545  0.3692  0.1980  0.0537
  594MOL0     O81870   5.642   1.940  -0.567 -0.7312 -0.3361 -0.2914
  594MOL0     C81871   5.594   2.069  -0.577  0.5636  0.0604  0.0647
  594MOL0     C81872   5.439   2.061  -0.577  0.4318 -0.5678  0.5892
  594MOL0     C81873   5.378   1.965  -0.470  0.3936 -0.1807  0.5266
  594MOL0     C81874   5.218   1.988  -0.463 -0.7153 -0.0657  0.9259
  594MOL0     C81875   5.158   1.874  -0.377  0.2682 -0.2620 -1.3063
  594MOL0     C81876   5.005   1.874  -0.392  0.4168 -0.1791  0.1985
  594MOL0     C81877   4.940   1.797  -0.279  0.0030  0.1274 -0.4969
  594MOL0     C81878   4.800   1.752  -0.297  0.2448  0.4877 -0.0616
  594MOL0    Cl81879   4.741   1.653  -0.159 -0.1069  0.0605 -0.1905
  594MOL0     C81880   5.877   2.027  -0.597 -0.5718  0.1959  0.7755
  594MOL0     C81881   6.010   2.002  -0.568  0.0497  0.0586  0.0002
  594MOL0     O81882   6.221   1.695  -0.580  0.6660  0.5143 -1.0245
  594MOL0     C81883   6.411   1.865  -0.321  0.6164 -0.1741  0.4472
  594MOL0     C81884   6.533   1.878  -0.259  0.4476 -0.2501  0.1707
  594MOL0     N81885   7.160   2.118  -0.026  0.0982  0.3098 -0.4403
  594MOL0     N81886   7.241   2.189   0.044  0.1129  0.5964 -0.0591
  594MOL0     C81887   7.712   3.105   0.545  0.0825 -0.2592 -0.2443
  594MOL0     C81888   7.786   3.208   0.484  0.4536 -0.7775  0.3897
  594MOL0     C81889   8.053   3.611   0.501 -0.4712  0.3532  0.4298
  594MOL0     C81890   7.998   3.638   0.382 -0.2197  0.1437  0.5791
  594MOL0     C81891   8.069   3.723   0.293  0.2185  1.2374 -0.1725
  594MOL0     C81892   8.192   3.783   0.337  0.8867  0.6945  0.5975
  594MOL0     O81893   8.269   3.856   0.256  0.0708 -0.4506  0.3686
  594MOL0     C81894   8.351   3.777   0.172 -0.4806 -1.0411  0.3652
  594MOL0     C81895   8.441   3.881   0.109  0.7951 -0.0455  0.3461
  594MOL0     C81896   8.561   3.814   0.037  0.1119 -0.1959 -0.2106
  594MOL0     C81897   8.674   3.900  -0.013 -0.6238  0.4113  0.3111
  594MOL0     C81898   8.750   3.823  -0.108 -0.4440 -0.4158 -0.0477
  594MOL0     C81899   8.813   3.761  -0.193 -0.4631 -1.2515  0.2325
  594MOL0     C81900   8.248   3.750   0.457  0.0694  0.2397 -0.2934
  594MOL0     C81901   8.179   3.663   0.545  0.0680  0.7584  0.2991
  594MOL0     C81902   8.234   3.641   0.685 -0.5619 -0.1722  0.4862
  594MOL0     H81903   7.784   3.425   0.750  0.8662  2.7027 -2.1806
  594MOL0     H81904   7.650   3.262   0.844  1.1617 -0.1520  0.3751
  594MOL0     H81905   7.466   2.856   0.748  1.9024  2.9500  4.2221
  594MOL0     H81906   7.583   2.861   0.619  0.0521  1.4233 -0.4811
  594MOL0     H81907   7.340   3.059   0.643 -2.3678 -1.7652 -1.0407
  594MOL0     H81908   7.449   3.053   0.518 -1.5305 -0.8163 -0.9171
  594MOL0     H81909   7.270   2.810   0.601  0.0279  0.2698  0.4751
  594MOL0     H81910   7.223   2.921   0.474  2.8646  1.8237 -1.4059
  594MOL0     H81911   7.368   2.873   0.316  0.9687 -0.1455 -0.0173
  594MOL0     H81912   7.477   2.792   0.423  0.3113  4.3830  0.5845
  594MOL0     H81913   7.188   2.681   0.352 -0.6164 -0.7471  1.1987
  594MOL0     H81914   7.326   2.598   0.432  0.6118 -0.9092 -2.1891
  594MOL0     H81915   7.317   2.715   0.145 -2.3660 -0.3316  0.8112
  594MOL0     H81916   7.441   2.605   0.214 -0.9903 -2.0977 -1.3883
  594MOL0     H81917   7.163   2.551   0.114  0.6120 -0.1951 -0.5155
  594MOL0     H81918   7.212   2.449   0.252  0.3506 -0.5015  0.0728
  594MOL0     H81919   7.363   2.496  -0.006 -0.6065  1.9684  1.1623
  594MOL0     H81920   7.415   2.396   0.118 -0.2825  0.0309  2.8600
  594MOL0     H81921   7.086   2.427  -0.116 -3.0957  0.4171  2.4848
  594MOL0     H81922   7.034   2.201  -0.290  1.1388 -1.2992 -0.4387
  594MOL0     H81923   6.892   2.249  -0.187 -0.0640  0.0471  0.5441
  594MOL0     H81924   6.891   2.038  -0.319  0.9676  1.5702 -0.5734
  594MOL0     H81925   7.019   1.975  -0.206  0.1690  0.4079 -0.5431
  594MOL0     H81926   6.868   2.034  -0.013 -0.5894  2.2292 -0.0877
  594MOL0     H81927   6.739   2.061  -0.126 -1.2928 -1.8615  1.1621
  594MOL0     H81928   6.899   1.791  -0.086 -0.2245 -0.0578  0.4893
  594MOL0     H81929   6.741   1.821  -0.031  0.9727 -0.5913  0.6310
  594MOL0     H81930   6.696   1.637  -0.431 -0.8690 -1.5988  0.2565
  594MOL0     H81931   6.407   1.505  -0.545 -1.3095  1.4638  1.2377
  594MOL0     H81932   6.581   1.517  -0.579  0.0759  0.2167 -0.0844
  594MOL0     H81933   6.486   1.612  -0.676  0.9602 -2.4462 -0.9356
  594MOL0     H81934   5.993   1.712  -0.392 -0.0240 -1.9419 -2.1682
  594MOL0     H81935   5.750   1.750  -0.444  0.5953 -0.1671 -1.3129
  594MOL0     H81936   5.622   2.132  -0.492 -1.6485 -1.0224  1.6725
  594MOL0     H81937   5.634   2.115  -0.668 -0.9835 -0.1518 -0.7419
  594MOL0     H81938   5.403   2.164  -0.570  0.0258 -0.6329 -0.3616
  594MOL0     H81939   5.422   2.034  -0.682 -1.1408  0.5936  0.5160
  594MOL0     H81940   5.415   1.987  -0.370 -0.5673 -0.1096  0.8718
  594MOL0     H81941   5.406   1.864  -0.500  1.6620 -0.4055  2.3303
  594MOL0     H81942   5.181   1.993  -0.566  2.9545 -0.8059 -0.5770
  594MOL0     H81943   5.188   2.086  -0.425  1.7133  1.9975 -1.9600
  594MOL0     H81944   5.206   1.777  -0.395  1.6704 -0.3765  2.3152
  594MOL0     H81945   5.185   1.905  -0.276  0.8547  3.8947 -2.5624
  594MOL0     H81946   4.974   1.830  -0.488 -2.7386 -1.7436  1.7608
  594MOL0     H81947   4.974   1.978  -0.395  0.3258 -0.2169 -0.3158
  594MOL0     H81948   4.942   1.862  -0.191  2.5080 -0.4272 -0.0782
  594MOL0     H81949   4.996   1.706  -0.254 -1.5021 -0.2329  1.8070
  594MOL0     H81950   4.804   1.684  -0.383 -0.4891 -2.1617  1.8499
  594MOL0     H81951   4.735   1.833  -0.332  0.4449  0.0346 -1.5765
  594MOL0     H81952   5.850   2.102  -0.671 -0.0608 -1.1146 -0.7903
  594MOL0     H81953   6.081   2.078  -0.597 -0.4924  0.6487  0.2112
  594MOL0     H81954   6.332   1.931  -0.286  1.9676  0.9255  1.5592
  594MOL0     H81955   6.549   1.963  -0.194 -0.2632  0.1349 -0.1557
  594MOL0     H81956   7.706   3.014   0.488 -2.2862  0.4887 -1.3390
  594MOL0     H81957   7.833   3.185   0.390 -0.5475 -0.6030 -0.1726
  594MOL0     H81958   7.898   3.602   0.361 -0.9945  3.1931 -1.6185
  594MOL0     H81959   8.030   3.720   0.192 -2.6561 -2.1867  0.8383
  594MOL0     H81960   8.416   3.705   0.223  1.2479 -1.3331 -2.0893
  594MOL0     H81961   8.293   3.723   0.097  1.5497 -0.4110 -1.7899
  594MOL0     H81962   8.480   3.961   0.172  1.0503 -0.2076  0.3967
  594MOL0     H81963   8.381   3.925   0.029 -1.5172 -0.2574  1.8767
  594MOL0     H81964   8.598   3.738   0.106 -2.0018 -1.2868 -0.1985
  594MOL0     H81965   8.517   3.768  -0.052  0.6324  0.1163 -0.6342
  594MOL0     H81966   8.742   3.923   0.070  2.0914 -2.5634 -0.8759
  594MOL0     H81967   8.639   3.992  -0.060 -3.4940 -0.9671 -0.4568
  594MOL0     H81968   8.860   3.705  -0.271 -0.2390 -3.2840  1.7607
  594MOL0     H81969   8.338   3.802   0.491 -0.4505  1.1353 -0.2423
  594MOL0     H81970   8.179   3.688   0.766 -0.1077  3.0727 -0.9293
  594MOL0     H81971   8.239   3.533   0.705 -2.0399 -0.1377  1.1753
  594MOL0     H81972   8.335   3.682   0.694  0.1882 -1.6794 -0.4528
  595MOL0     O81973   6.101   1.741  10.479 -0.0195  0.4495 -0.3648
  595MOL0     C81974   6.047   1.631  10.454 -1.0596 -0.3173 -0.4599
  595MOL0     O81975   6.114   1.516  10.418  0.0156 -0.2064  0.6801
  595MOL0     C81976   6.253   1.520  10.393  0.1067 -0.1363 -0.2176
  595MOL0     C81977   6.347   1.558  10.493  0.9216  0.4832 -0.1580
  595MOL0     C81978   6.480   1.570  10.453  0.0859 -0.3394 -0.4107
  595MOL0     C81979   6.522   1.552  10.319  0.5412  1.3015 -0.0863
  595MOL0     O81980   6.659   1.543  10.286 -0.2188  0.5665  0.4006
  595MOL0     C81981   6.759   1.619  10.354 -0.9133 -0.5101 -0.1751
  595MOL0     C81982   6.893   1.611  10.287  0.0080  0.0953 -0.4417
  595MOL0     C81983   7.001   1.636  10.397  0.1721  0.5966  0.3062
  595MOL0     C81984   7.147   1.630  10.339 -0.0156 -0.3027  0.1852
  595MOL0     C81985   7.249   1.632  10.461 -0.1178  1.0191 -0.5837
  595MOL0     C81986   7.400   1.606  10.428 -0.3931  0.6076  1.0031
  595MOL0     C81987   7.470   1.718  10.346  0.0890  0.0193 -0.0162
  595MOL0     C81988   7.622   1.676  10.327 -0.2370 -0.7755  1.2568
  595MOL0     N81989   7.699   1.702  10.450  0.6138  0.1441  0.1544
  595MOL0     C81990   7.717   1.825  10.504 -0.1916 -0.6143 -0.2665
  595MOL0     C81991   7.808   1.802  10.602 -0.3450  0.5300 -0.4481
  595MOL0     C81992   7.865   1.913  10.689  0.1279 -0.2783 -0.3633
  595MOL0     C81993   8.017   1.919  10.693 -0.9314 -0.4069 -0.0418
  595MOL0     C81994   8.059   2.015  10.801 -0.5628 -0.1456 -0.2062
  595MOL0     C81995   8.206   2.032  10.835 -0.5293 -0.4884 -0.3731
  595MOL0     O81996   8.218   2.136  10.937 -0.1556 -0.2616  0.0104
  595MOL0     C81997   8.339   2.202  10.946 -0.0817  0.5008 -0.3147
  595MOL0     C81998   8.465   2.173  10.877  0.2198 -0.0699 -0.0225
  595MOL0     C81999   8.591   2.246  10.902  0.3033  0.5834 -0.6427
  595MOL0     C82000   8.710   2.237  10.813 -0.8017  0.1360 -0.8583
  595MOL0     C82001   8.589   2.339  11.010  0.3544 -0.4078 -0.4097
  595MOL0     C82002   8.709   2.431  11.057  0.8927  0.8925 -0.7964
  595MOL0     O82003   8.780   2.489  10.953 -0.1753  0.0042 -0.7378
  595MOL0     C82004   8.896   2.559  10.974  0.0373  0.3562 -0.4850
  595MOL0     C82005   8.942   2.623  11.094  0.6432  0.5652 -0.3982
  595MOL0     C82006   9.067   2.677  11.108  0.4676  0.5340 -1.2600
  595MOL0     C82007   9.162   2.680  11.006 -0.6117  0.0311 -0.0155
  595MOL0     O82008   9.282   2.724  11.037 -0.6275 -0.8090  0.4214
  595MOL0     C82009   9.348   2.780  10.924 -0.1415 -0.9280  0.1139
  595MOL0     C82010   9.445   2.691  10.837  0.2140 -0.4571 -0.8821
  595MOL0     C82011   9.586   2.698  10.888  0.7308  0.1507 -0.0314
  595MOL0     C82012   9.689   2.606  10.825 -0.3198 -1.2215 -0.8589
  595MOL0     C82013   9.837   2.628  10.877  0.9367 -0.3194 -0.3762
  595MOL0     C82014   9.911   2.727  10.790 -0.0039  0.8192  0.3654
  595MOL0     C82015  10.023   2.805  10.850  0.0535 -0.7226 -0.2251
  595MOL0     C82016  10.077   2.909  10.758 -0.7714 -0.2214  0.2924
  595MOL0    Cl82017  10.162   2.827  10.622 -0.0326  0.0465  0.7314
  595MOL0     C82018   9.122   2.617  10.891  0.3271  0.1107  0.2476
  595MOL0     C82019   8.991   2.571  10.872 -0.1514  0.0371 -0.2567
  595MOL0     O82020   8.743   2.423  11.176  0.2549  0.2368  0.1220
  595MOL0     C82021   8.464   2.360  11.083  0.2012 -0.4031  0.1870
  595MOL0     C82022   8.346   2.291  11.053 -1.1765  0.2246 -0.3336
  595MOL0     N82023   7.839   1.661  10.610  0.3091 -1.0458  0.0820
  595MOL0     N82024   7.777   1.612  10.511 -0.3137 -0.4732 -0.5382
  595MOL0     C82025   6.429   1.508  10.224 -0.5781 -0.6050  0.7315
  595MOL0     C82026   6.295   1.491  10.263 -0.2975  0.3407  0.4544
  595MOL0     C82027   5.901   1.630  10.474  0.9765 -0.2777  0.2532
  595MOL0     C82028   5.841   1.710  10.576  0.3018 -0.9428 -0.2563
  595MOL0     C82029   5.706   1.716  10.591 -0.3821  0.0093  0.1825
  595MOL0     C82030   5.624   1.646  10.511  0.0604 -0.2099  0.2545
  595MOL0     O82031   5.487   1.650  10.535  0.2779 -0.1135  0.2289
  595MOL0     C82032   5.400   1.553  10.468  0.2812  0.0368 -0.3816
  595MOL0     C82033   5.371   1.589  10.323  0.6809 -0.2732 -0.4355
  595MOL0     C82034   5.297   1.478  10.250 -0.4229 -0.1626  0.0873
  595MOL0     C82035   5.396   1.399  10.162  0.0428  0.6438 -0.4459
  595MOL0     C82036   5.495   1.312  10.230  0.1946 -0.2769  0.1728
  595MOL0     C82037   5.572   1.242  10.278 -0.0226  0.9760  0.0367
  595MOL0     C82038   5.679   1.565  10.407 -0.8066 -0.2077 -0.1888
  595MOL0     C82039   5.818   1.554  10.385 -0.1429  0.1941  0.7458
  595MOL0     C82040   5.855   1.461  10.264  0.8775  0.4682 -0.1514
  595MOL0     H82041   6.325   1.585  10.596 -0.2386 -3.3455  0.7545
  595MOL0     H82042   6.551   1.592  10.531 -0.7015  1.5740 -0.1813
  595MOL0     H82043   6.772   1.578  10.454 -1.2227 -0.3758 -0.0772
  595MOL0     H82044   6.726   1.724  10.357  0.3291 -0.0588 -1.2248
  595MOL0     H82045   6.902   1.513  10.239 -1.7379  0.2752 -1.2231
  595MOL0     H82046   6.885   1.685  10.208 -2.1501  1.3254  0.8446
  595MOL0     H82047   6.979   1.731  10.448 -5.4794 -1.1077  1.7909
  595MOL0     H82048   7.008   1.549  10.462  2.5942  0.2667 -0.3121
  595MOL0     H82049   7.165   1.533  10.293  3.0155  0.1627  0.1764
  595MOL0     H82050   7.171   1.718  10.278 -4.1543  1.8754  1.3328
  595MOL0     H82051   7.222   1.549  10.526 -0.7759  0.7595 -1.1821
  595MOL0     H82052   7.255   1.718  10.529 -0.3190 -0.5913  1.6016
  595MOL0     H82053   7.452   1.593  10.524 -0.7278  0.6797  1.1966
  595MOL0     H82054   7.411   1.512  10.374 -0.4861  0.8996  0.4711
  595MOL0     H82055   7.457   1.803  10.413  0.7347 -0.1599  0.3482
  595MOL0     H82056   7.423   1.731  10.248 -0.6437  2.6310  0.6237
  595MOL0     H82057   7.628   1.570  10.303 -0.3075 -0.7561  1.1511
  595MOL0     H82058   7.657   1.740  10.245  0.5219 -1.5516  0.9724
  595MOL0     H82059   7.682   1.926  10.485 -0.0638 -0.1608  1.6781
  595MOL0     H82060   7.832   1.899  10.793  2.3526 -2.5041  0.1558
  595MOL0     H82061   7.825   2.005  10.645 -4.0530 -3.6940 -4.7864
  595MOL0     H82062   8.067   1.826  10.721 -3.7968 -2.2654 -0.6182
  595MOL0     H82063   8.056   1.958  10.599 -1.3922  1.6595  0.5636
  595MOL0     H82064   8.013   2.113  10.789 -3.6121 -1.6174 -1.6752
  595MOL0     H82065   8.003   1.984  10.890 -0.9142  2.2069  0.4417
  595MOL0     H82066   8.248   1.936  10.865  2.0905  0.7089  0.0827
  595MOL0     H82067   8.258   2.068  10.746  0.6631  1.3285  0.9753
  595MOL0     H82068   8.463   2.095  10.802 -3.1384 -0.8137  0.6624
  595MOL0     H82069   8.715   2.136  10.771 -0.0696 -1.3508  2.4421
  595MOL0     H82070   8.804   2.246  10.868 -1.5818  1.8786  0.2676
  595MOL0     H82071   8.703   2.310  10.732 -3.3622 -2.0584 -2.7809
  595MOL0     H82072   8.877   2.619  11.181  1.3961 -0.4380  0.1448
  595MOL0     H82073   9.099   2.724  11.200 -0.8273 -0.6549 -0.1407
  595MOL0     H82074   9.266   2.818  10.862 -1.3688  0.4824  2.4774
  595MOL0     H82075   9.410   2.865  10.954 -3.7462  2.4227 -1.0998
  595MOL0     H82076   9.403   2.591  10.827  0.5751 -0.7865  0.5871
  595MOL0     H82077   9.442   2.746  10.743  0.0026  0.3086 -0.4382
  595MOL0     H82078   9.592   2.661  10.991  1.7944 -1.4590 -0.6304
  595MOL0     H82079   9.608   2.805  10.879  0.5964  0.3009  1.2109
  595MOL0     H82080   9.693   2.606  10.716 -0.0838  2.4148 -0.9752
  595MOL0     H82081   9.672   2.503  10.857 -0.7835 -0.3779  1.9111
  595MOL0     H82082   9.837   2.661  10.981  0.9382 -0.9897 -0.1605
  595MOL0     H82083   9.889   2.532  10.877 -0.6822 -1.6718  5.9143
  595MOL0     H82084   9.835   2.798  10.755 -0.1911  0.4019 -0.0828
  595MOL0     H82085   9.956   2.674  10.705 -0.8551  1.4167 -0.4922
  595MOL0     H82086  10.106   2.741  10.883  1.1340  0.9918  0.5103
  595MOL0     H82087   9.979   2.867  10.929  0.3836 -0.5009 -0.2133
  595MOL0     H82088  10.154   2.965  10.812 -0.1208 -0.7163 -0.1126
  595MOL0     H82089  10.002   2.985  10.734 -1.1883  0.6684  3.8025
  595MOL0     H82090   9.194   2.599  10.812  2.7857  2.4594  1.7948
  595MOL0     H82091   8.959   2.533  10.775  0.4212  1.6429 -1.1092
  595MOL0     H82092   8.478   2.434  11.162 -2.0730 -0.2093  0.4549
  595MOL0     H82093   8.260   2.310  11.115 -1.4217 -0.3802 -0.4834
  595MOL0     H82094   6.456   1.470  10.126  0.1933 -1.5731  1.2968
  595MOL0     H82095   6.229   1.451  10.186  0.2235  1.7215 -0.7675
  595MOL0     H82096   5.902   1.761  10.650 -1.4189  0.5759  0.1816
  595MOL0     H82097   5.691   1.790  10.670  1.6580 -0.7352  1.3242
  595MOL0     H82098   5.427   1.447  10.475  1.2864  0.2127 -1.2601
  595MOL0     H82099   5.307   1.550  10.524 -0.3996  1.6959 -1.3633
  595MOL0     H82100   5.459   1.628  10.272  0.3040 -2.3677 -2.9055
  595MOL0     H82101   5.300   1.671  10.338  0.1364 -1.0931  1.9513
  595MOL0     H82102   5.253   1.408  10.322  1.3436 -2.0144 -0.5097
  595MOL0     H82103   5.210   1.510  10.192 -0.2207 -1.3519 -0.9228
  595MOL0     H82104   5.452   1.474  10.107 -1.0752  1.8135 -0.0350
  595MOL0     H82105   5.336   1.344  10.089  0.3281 -2.7203  1.6158
  595MOL0     H82106   5.653   1.183  10.315 -1.1345  1.1934  3.0674
  595MOL0     H82107   5.615   1.511  10.338 -0.5251 -0.8724  0.0689
  595MOL0     H82108   5.963   1.449  10.250  1.0334  2.7275 -1.1593
  595MOL0     H82109   5.813   1.360  10.272  0.6268  0.3998 -2.0266
  595MOL0     H82110   5.805   1.502  10.176 -1.7304  2.4253  2.0859
  596MOL0     O82111  10.838   7.795   7.652 -0.4896  0.9122 -0.0776
  596MOL0     C82112  10.764   7.775   7.562 -0.2808  0.0243  0.5527
  596MOL0     O82113  10.642   7.724   7.584  0.4502  0.5126 -1.0578
  596MOL0     C82114  10.597   7.736   7.716  0.5011  0.5183  0.8027
  596MOL0     C82115  10.532   7.848   7.754 -0.6688 -0.8982  0.3094
  596MOL0     C82116  10.479   7.868   7.885 -0.2602  0.1650 -0.0380
  596MOL0     C82117  10.517   7.773   7.985 -0.0185  1.1196 -0.2416
  596MOL0     O82118  10.478   7.782   8.119 -0.0219 -0.6757 -0.1020
  596MOL0     C82119  10.353   7.855   8.133 -0.4096  0.0017 -0.2428
  596MOL0     C82120  10.302   7.873   8.282  0.1939 -0.6054 -0.1913
  596MOL0     C82121  10.252   7.755   8.362 -0.0731  0.4252 -0.1142
  596MOL0     C82122  10.338   7.630   8.344 -0.3150 -0.5075 -0.2640
  596MOL0     C82123  10.290   7.524   8.434 -0.0032  0.2479  0.9892
  596MOL0     C82124  10.312   7.546   8.587 -0.1298  0.4790 -0.4827
  596MOL0     C82125  10.298   7.403   8.651  0.3954  0.1585 -0.5283
  596MOL0     C82126  10.264   7.409   8.799 -0.4427 -0.2307  0.5118
  596MOL0     N82127  10.374   7.443   8.883 -0.1215  0.3249  0.3631
  596MOL0     C82128  10.422   7.572   8.906 -0.9303 -0.0489  0.9175
  596MOL0     C82129  10.544   7.551   8.961  0.3971  0.1782 -0.0853
  596MOL0     C82130  10.637   7.659   8.989  0.6950 -0.3608 -0.1054
  596MOL0     C82131  10.753   7.670   8.888 -0.5811 -0.0252  0.2698
  596MOL0     C82132  10.849   7.775   8.938 -0.0682 -0.2083 -0.0651
  596MOL0     C82133  10.949   7.821   8.828 -0.0744  0.3094  1.0795
  596MOL0     O82134  11.058   7.895   8.888 -1.1278 -0.1394 -0.2756
  596MOL0     C82135  11.186   7.905   8.836 -0.6890 -0.2006 -0.6595
  596MOL0     C82136  11.218   7.865   8.710  0.2841  0.4596  0.1044
  596MOL0     C82137  11.345   7.884   8.654 -0.2739  0.3857 -0.5570
  596MOL0     C82138  11.365   7.853   8.505  1.2999 -0.0699 -0.1355
  596MOL0     C82139  11.448   7.937   8.743 -0.1622  0.4630  0.6663
  596MOL0     C82140  11.590   7.957   8.703  0.0204  0.0316 -0.3113
  596MOL0     O82141  11.626   7.906   8.584  0.7299 -0.7246  0.3314
  596MOL0     C82142  11.747   7.929   8.534  1.0970  0.4680 -0.0827
  596MOL0     C82143  11.792   8.061   8.510  0.0181  0.8117 -0.6848
  596MOL0     C82144  11.911   8.075   8.439  0.9118  0.1194  0.3197
  596MOL0     C82145  11.989   7.960   8.391 -0.8230 -0.9923  0.1363
  596MOL0     O82146  12.112   7.965   8.322  0.2276  0.1181 -0.1516
  596MOL0     C82147  12.194   8.075   8.361  0.2751 -0.9859 -0.3697
  596MOL0     C82148  12.330   8.013   8.400 -0.3984 -0.5233  0.2251
  596MOL0     C82149  12.440   8.120   8.448  0.3870  0.4788  0.5687
  596MOL0     C82150  12.565   8.037   8.483  0.1014 -0.0783  0.6390
  596MOL0     C82151  12.665   8.142   8.547 -0.4653  0.1770  0.2237
  596MOL0     C82152  12.804   8.082   8.560  0.3355 -0.2080 -0.2973
  596MOL0     C82153  12.900   8.183   8.611  0.1881 -0.0683  0.9185
  596MOL0     C82154  13.033   8.120   8.636 -0.8082  0.3860  0.0113
  596MOL0    Cl82155  13.076   8.027   8.499  0.0104  0.0236 -0.0009
  596MOL0     C82156  11.922   7.839   8.399 -0.7398 -0.0458  0.2222
  596MOL0     C82157  11.803   7.824   8.465  1.1109 -0.2950  0.0946
  596MOL0     O82158  11.665   7.999   8.796 -0.7124  0.2195  0.5674
  596MOL0     C82159  11.404   7.975   8.880  0.4811  1.1823 -0.1952
  596MOL0     C82160  11.278   7.958   8.932  0.3292 -0.2894  0.4193
  596MOL0     N82161  10.565   7.419   8.993 -0.2128  0.1340  0.5884
  596MOL0     N82162  10.460   7.358   8.943  0.2911 -0.2301 -0.1609
  596MOL0     C82163  10.587   7.658   7.943 -0.2428  0.2797 -0.0215
  596MOL0     C82164  10.611   7.638   7.809 -0.2974  0.1322 -0.5365
  596MOL0     C82165  10.802   7.776   7.415  0.4883  0.6137  0.0065
  596MOL0     C82166  10.710   7.731   7.311 -0.0125  0.3294  0.4855
  596MOL0     C82167  10.746   7.720   7.173 -0.4222 -1.1475 -0.2206
  596MOL0     C82168  10.879   7.749   7.136  0.4643 -1.0793  0.0718
  596MOL0     O82169  10.903   7.739   7.004  0.3170  0.6725  0.4061
  596MOL0     C82170  11.037   7.772   6.949  0.0206 -0.0346 -0.5580
  596MOL0     C82171  11.028   7.795   6.795  0.2935  0.2151  0.2690
  596MOL0     C82172  11.012   7.671   6.708  0.7160  0.5302 -0.2876
  596MOL0     C82173  10.986   7.703   6.565  0.0844  0.7960  0.5844
  596MOL0     C82174  11.098   7.769   6.504  1.1722 -0.6578  0.3392
  596MOL0     C82175  11.194   7.830   6.451 -0.2466  0.4970 -0.0961
  596MOL0     C82176  10.972   7.795   7.234 -0.2353  0.3092  0.0420
  596MOL0     C82177  10.938   7.797   7.371  0.8669 -0.2111  0.1485
  596MOL0     C82178  11.046   7.829   7.472 -0.2401 -0.8734 -0.5870
  596MOL0     H82179  10.530   7.923   7.676  0.8267 -0.3368  0.7816
  596MOL0     H82180  10.432   7.965   7.900  1.4540  1.4933 -2.5019
  596MOL0     H82181  10.271   7.803   8.084 -1.7839  1.3546  0.5540
  596MOL0     H82182  10.365   7.959   8.101  0.5370  1.0086  2.9881
  596MOL0     H82183  10.385   7.919   8.338 -0.4380 -0.5277  0.7179
  596MOL0     H82184  10.228   7.953   8.287 -2.7539 -3.1612  4.2623
  596MOL0     H82185  10.249   7.778   8.469 -0.5674 -0.8252  0.1557
  596MOL0     H82186  10.152   7.727   8.329  0.0952  1.8497 -2.0059
  596MOL0     H82187  10.325   7.589   8.244  0.5783  0.4946 -0.8076
  596MOL0     H82188  10.444   7.652   8.361 -0.3859 -0.8048  0.6629
  596MOL0     H82189  10.352   7.440   8.400 -1.6319 -0.3039 -0.8612
  596MOL0     H82190  10.185   7.500   8.411  0.7036  1.2605 -5.1879
  596MOL0     H82191  10.413   7.584   8.607 -0.4518  1.3947 -0.5736
  596MOL0     H82192  10.248   7.616   8.641  1.3667  2.7427 -1.4944
  596MOL0     H82193  10.385   7.341   8.630  2.6897  2.1362  2.3278
  596MOL0     H82194  10.211   7.353   8.607  0.6115 -2.1844  1.5144
  596MOL0     H82195  10.195   7.493   8.816  0.2496  0.2453  1.0130
  596MOL0     H82196  10.212   7.318   8.830 -0.9708 -0.3205 -0.6134
  596MOL0     H82197  10.381   7.663   8.862  1.2633 -0.3109 -1.9833
  596MOL0     H82198  10.668   7.646   9.093  2.0468  0.2040 -0.4165
  596MOL0     H82199  10.592   7.758   8.979 -0.9444 -1.1919 -1.4959
  596MOL0     H82200  10.794   7.568   8.886 -0.3691  0.0410  0.8851
  596MOL0     H82201  10.710   7.690   8.790 -2.4295  0.7585  1.1952
  596MOL0     H82202  10.794   7.864   8.971  0.5140 -0.2522  1.0594
  596MOL0     H82203  10.911   7.731   9.017  2.0081 -1.0552 -2.0293
  596MOL0     H82204  10.983   7.732   8.775  0.9342  0.9934  0.5386
  596MOL0     H82205  10.892   7.874   8.751  0.1736 -1.1060 -0.1125
  596MOL0     H82206  11.133   7.830   8.651  1.6355  0.8547 -2.2101
  596MOL0     H82207  11.369   7.947   8.449 -1.0802 -0.4812 -1.1120
  596MOL0     H82208  11.271   7.809   8.470 -0.4484  2.5841  0.8477
  596MOL0     H82209  11.447   7.784   8.485  1.3826 -0.1437  0.4647
  596MOL0     H82210  11.724   8.139   8.544 -1.2404 -0.4965 -0.1314
  596MOL0     H82211  11.944   8.177   8.423  0.6639  0.6544  2.7900
  596MOL0     H82212  12.186   8.149   8.281  1.6741 -2.6266 -2.1442
  596MOL0     H82213  12.156   8.125   8.450  0.4004  1.6421 -1.7138
  596MOL0     H82214  12.314   7.936   8.476 -2.9352 -0.5271 -0.2157
  596MOL0     H82215  12.365   7.964   8.309 -1.5469  0.4770 -0.7822
  596MOL0     H82216  12.399   8.177   8.532 -2.7797  1.2712 -1.3585
  596MOL0     H82217  12.467   8.191   8.370  2.5076 -1.5114 -0.6443
  596MOL0     H82218  12.600   7.996   8.388  0.4792 -0.0645  0.7700
  596MOL0     H82219  12.550   7.948   8.545  1.5554 -1.1324 -0.4468
  596MOL0     H82220  12.666   8.233   8.487 -1.0715 -0.1840 -0.3577
  596MOL0     H82221  12.624   8.178   8.642 -1.1106 -1.1998  0.4989
  596MOL0     H82222  12.837   8.044   8.463  2.2342  0.4905  0.0361
  596MOL0     H82223  12.796   7.998   8.629 -0.1089 -1.0126 -1.2985
  596MOL0     H82224  12.859   8.249   8.688 -1.9554 -0.1018 -0.1312
  596MOL0     H82225  12.917   8.239   8.518  0.0095 -2.4001 -0.5827
  596MOL0     H82226  13.028   8.061   8.728  1.0029 -0.3726 -0.3525
  596MOL0     H82227  13.114   8.192   8.650  2.0801 -2.7181  0.5576
  596MOL0     H82228  11.982   7.761   8.353 -0.8071  0.2201 -0.3265
  596MOL0     H82229  11.758   7.725   8.467  4.8676 -2.2191 -1.6603
  596MOL0     H82230  11.474   8.013   8.954 -0.4643 -1.5823  2.3675
  596MOL0     H82231  11.247   7.978   9.034 -1.5018 -0.2815 -0.1099
  596MOL0     H82232  10.615   7.582   8.015 -2.4981 -2.2068 -1.5791
  596MOL0     H82233  10.663   7.552   7.767  3.5224  1.2663  1.3420
  596MOL0     H82234  10.606   7.706   7.327  0.1828 -0.6067  0.3631
  596MOL0     H82235  10.664   7.698   7.106 -0.2163 -2.6432 -0.0398
  596MOL0     H82236  11.073   7.862   6.999  2.2563 -0.7256 -0.8427
  596MOL0     H82237  11.098   7.682   6.952 -0.0064 -0.0993 -1.4438
  596MOL0     H82238  11.122   7.838   6.759 -0.4247  2.1884  0.6018
  596MOL0     H82239  10.953   7.872   6.775 -1.8343 -1.7661  0.1974
  596MOL0     H82240  11.101   7.611   6.729  0.6883 -0.3500 -2.3943
  596MOL0     H82241  10.926   7.614   6.745 -0.4612  2.9558  0.8929
  596MOL0     H82242  10.899   7.769   6.564  0.9091  1.9184 -0.3769
  596MOL0     H82243  10.965   7.613   6.507 -0.0324  0.1260  1.6426
  596MOL0     H82244  11.269   7.891   6.406  0.4150 -0.0173  0.2859
  596MOL0     H82245  11.072   7.825   7.205 -0.3038  3.3024  2.3312
  596MOL0     H82246  11.138   7.865   7.425  0.6303 -3.4909 -1.0381
  596MOL0     H82247  11.012   7.906   7.541  2.3139 -1.7790  1.8736
  596MOL0     H82248  11.076   7.740   7.528  1.9626 -0.2862 -0.7066
  597MOL0     O82249   9.708   4.611   5.155  0.2671 -0.1831  0.5251
  597MOL0     C82250   9.705   4.519   5.077 -0.0672  0.3854 -0.3889
  597MOL0     O82251   9.798   4.488   4.981  0.2753  0.5833  0.3907
  597MOL0     C82252   9.903   4.575   4.969  0.7448  0.7921  1.0497
  597MOL0     C82253  10.022   4.553   5.039 -0.4757 -0.9252 -0.0145
  597MOL0     C82254  10.126   4.659   5.027 -0.0195 -1.0005  0.2223
  597MOL0     C82255  10.104   4.775   4.945  0.5882 -0.1434  0.1669
  597MOL0     O82256  10.188   4.881   4.924 -0.5531  0.6947 -0.4898
  597MOL0     C82257  10.282   4.908   5.028 -1.2868  0.7805  1.0029
  597MOL0     C82258  10.408   4.970   4.973  0.2919 -0.9463 -0.8213
  597MOL0     C82259  10.381   5.121   4.933 -1.1164 -0.9198  0.2222
  597MOL0     C82260  10.515   5.189   4.888  0.6747  0.3908 -0.3670
  597MOL0     C82261  10.559   5.158   4.747  0.1821 -0.5668 -0.1483
  597MOL0     C82262  10.711   5.168   4.744 -0.2268 -0.0265  0.2073
  597MOL0     C82263  10.772   5.140   4.611  0.0455  0.4548  0.2219
  597MOL0     C82264  10.920   5.183   4.587  0.0600  0.0490  0.0623
  597MOL0     N82265  11.010   5.130   4.690  0.1229 -0.0914 -0.5249
  597MOL0     C82266  11.035   4.996   4.727 -0.3373  1.0907 -0.5777
  597MOL0     C82267  11.096   5.001   4.853 -0.2846 -1.1775 -0.5894
  597MOL0     C82268  11.145   4.880   4.936 -0.2583 -0.3433  0.3629
  597MOL0     C82269  11.303   4.866   4.951 -0.0323  0.4174 -0.1328
  597MOL0     C82270  11.325   4.733   5.033  0.4044  0.5987  0.5008
  597MOL0     C82271  11.468   4.719   5.090  0.1671 -0.2347  0.3206
  597MOL0     O82272  11.551   4.690   4.975  0.3889  0.4249 -0.4689
  597MOL0     C82273  11.683   4.664   4.996 -0.3390  0.8932 -0.5086
  597MOL0     C82274  11.751   4.616   4.892  0.1081 -0.0737 -0.0029
  597MOL0     C82275  11.873   4.560   4.910  0.3333 -0.0169  0.7141
  597MOL0     C82276  11.933   4.504   4.781  0.0909  1.5077 -0.5211
  597MOL0     C82277  11.938   4.554   5.038  0.6043  0.5417 -0.5594
  597MOL0     C82278  12.080   4.511   5.058 -0.3415 -0.1780 -0.8052
  597MOL0     O82279  12.138   4.590   5.150 -1.0511 -0.0543  0.3515
  597MOL0     C82280  12.253   4.547   5.207 -0.0817  0.4679 -0.6207
  597MOL0     C82281  12.326   4.644   5.280 -0.0453 -0.4393 -0.5649
  597MOL0     C82282  12.433   4.603   5.357 -0.2667  0.2153 -1.1564
  597MOL0     C82283  12.483   4.470   5.356  1.0071  0.3302 -0.0045
  597MOL0     O82284  12.598   4.442   5.418 -0.1435  0.0824 -0.5196
  597MOL0     C82285  12.714   4.535   5.396 -0.4617  1.4791 -0.4050
  597MOL0     C82286  12.826   4.498   5.499 -0.1336 -0.6550 -0.2223
  597MOL0     C82287  12.954   4.570   5.495 -0.1231 -0.0173  0.0969
  597MOL0     C82288  13.039   4.523   5.377  0.0847 -0.2625 -0.2545
  597MOL0     C82289  13.149   4.620   5.344  0.3028  0.4408  0.2159
  597MOL0     C82290  13.228   4.665   5.473  0.1416  1.0875 -0.4375
  597MOL0     C82291  13.305   4.541   5.521  0.0412 -0.0262 -0.1755
  597MOL0     C82292  13.434   4.520   5.434  0.0857 -0.1823  0.4455
  597MOL0    Cl82293  13.557   4.654   5.471 -0.0718  0.1688 -0.0708
  597MOL0     C82294  12.407   4.370   5.292  0.3923 -0.0843  0.9088
  597MOL0     C82295  12.300   4.405   5.217 -0.2724 -0.0903 -0.3312
  597MOL0     O82296  12.140   4.431   4.990 -0.3841 -0.5930  0.1379
  597MOL0     C82297  11.867   4.605   5.145 -0.6364 -0.4333  0.0569
  597MOL0     C82298  11.742   4.668   5.127  0.4688 -0.7501  0.4497
  597MOL0     N82299  11.124   5.133   4.882  0.0757 -0.3415 -0.2978
  597MOL0     N82300  11.067   5.205   4.789  0.0502  0.8062  0.0085
  597MOL0     C82301   9.995   4.763   4.854 -0.6422  0.1268  0.0221
  597MOL0     C82302   9.885   4.674   4.870  0.7901  0.3327  0.2346
  597MOL0     C82303   9.597   4.419   5.105 -0.4211 -0.5604  0.6030
  597MOL0     C82304   9.552   4.358   4.992 -0.0008  0.1562 -0.7560
  597MOL0     C82305   9.438   4.282   5.001  0.0352 -0.4441  0.5196
  597MOL0     C82306   9.379   4.250   5.121  0.3229 -0.0835 -0.0491
  597MOL0     O82307   9.265   4.174   5.113 -0.0356  0.0896  0.0448
  597MOL0     C82308   9.191   4.141   5.230 -0.0109 -0.0908  0.0432
  597MOL0     C82309   9.053   4.071   5.205 -0.3500 -0.8241  0.2488
  597MOL0     C82310   8.974   4.171   5.129  0.2855 -0.4748  0.7492
  597MOL0     C82311   8.843   4.097   5.098 -0.3266 -0.2861  0.1901
  597MOL0     C82312   8.745   4.190   5.016  0.5013  0.3977 -0.8587
  597MOL0     C82313   8.672   4.254   4.948 -0.0198  0.3627  0.1824
  597MOL0     C82314   9.433   4.308   5.236  0.3848  0.4475 -0.8210
  597MOL0     C82315   9.537   4.398   5.230 -0.8300 -0.4642 -0.2371
  597MOL0     C82316   9.594   4.450   5.357  0.5579 -0.5544 -0.3171
  597MOL0     H82317  10.037   4.471   5.108  0.2997  0.5450  1.6606
  597MOL0     H82318  10.223   4.654   5.074  1.9568  0.4876 -3.3471
  597MOL0     H82319  10.309   4.818   5.085 -1.4045 -1.2022 -1.8544
  597MOL0     H82320  10.241   4.974   5.105 -0.0591  0.5897  1.8587
  597MOL0     H82321  10.487   4.960   5.048 -0.8367  1.3510  0.8292
  597MOL0     H82322  10.437   4.918   4.882  0.1814  0.9119 -1.9818
  597MOL0     H82323  10.298   5.126   4.863 -0.9037  1.6751  0.0675
  597MOL0     H82324  10.344   5.174   5.021 -0.8871  1.9710 -1.3235
  597MOL0     H82325  10.489   5.295   4.892  0.3732  0.2746  1.5668
  597MOL0     H82326  10.596   5.175   4.959  1.5413  1.3744 -1.1372
  597MOL0     H82327  10.519   5.237   4.683 -2.9992 -1.9672 -0.0660
  597MOL0     H82328  10.534   5.062   4.699 -1.0660 -0.3452  0.0311
  597MOL0     H82329  10.744   5.264   4.786 -1.7209  0.3341  0.6006
  597MOL0     H82330  10.747   5.085   4.805 -0.1984 -0.7930 -0.8364
  597MOL0     H82331  10.715   5.193   4.534 -0.6915  1.5568  1.4766
  597MOL0     H82332  10.757   5.032   4.604  2.2224  0.1807 -0.9578
  597MOL0     H82333  10.945   5.152   4.485 -1.4583  1.3874 -0.7460
  597MOL0     H82334  10.926   5.292   4.584 -0.4288  0.0610 -0.4801
  597MOL0     H82335  11.007   4.902   4.681  0.9784  0.1856  0.3884
  597MOL0     H82336  11.112   4.792   4.880  0.9977 -0.5624 -0.0759
  597MOL0     H82337  11.100   4.880   5.036 -0.1224 -2.8266  0.4779
  597MOL0     H82338  11.358   4.856   4.857 -0.3198  2.0684 -0.5033
  597MOL0     H82339  11.332   4.951   5.013 -2.4917  0.1498  1.5068
  597MOL0     H82340  11.249   4.726   5.112 -1.1702 -2.0571 -1.0950
  597MOL0     H82341  11.304   4.646   4.969 -1.1982  2.3833 -1.5851
  597MOL0     H82342  11.497   4.817   5.128 -0.1062  0.1857 -0.5238
  597MOL0     H82343  11.479   4.633   5.157 -2.3027  2.1914  4.2563
  597MOL0     H82344  11.689   4.603   4.804  1.0095 -4.0279 -0.2271
  597MOL0     H82345  11.898   4.553   4.690  0.4864 -1.2364 -2.2513
  597MOL0     H82346  11.934   4.395   4.789 -0.7781  1.5346  0.1134
  597MOL0     H82347  12.035   4.539   4.794  1.2764 -1.9323  0.5168
  597MOL0     H82348  12.286   4.745   5.272 -0.4955 -0.3848  1.6824
  597MOL0     H82349  12.471   4.668   5.435  0.4511 -2.5242  0.9173
  597MOL0     H82350  12.749   4.522   5.293  0.3484  0.6534 -0.0356
  597MOL0     H82351  12.682   4.639   5.410 -0.5097  1.2184  1.7344
  597MOL0     H82352  12.793   4.501   5.603  1.4764  0.5466  0.2956
  597MOL0     H82353  12.862   4.396   5.479  1.9779  0.2521 -1.3272
  597MOL0     H82354  13.002   4.565   5.593  2.2335  1.4374 -0.8955
  597MOL0     H82355  12.924   4.674   5.482 -3.2183 -0.8950 -0.6739
  597MOL0     H82356  12.972   4.506   5.293 -2.5318  2.1084  1.1922
  597MOL0     H82357  13.076   4.423   5.405  1.0525  0.3039  0.5842
  597MOL0     H82358  13.216   4.565   5.278  1.5359 -1.2985  2.7417
  597MOL0     H82359  13.105   4.710   5.299 -0.9863  0.2111  0.9581
  597MOL0     H82360  13.157   4.706   5.546 -2.0052 -0.7884 -1.3603
  597MOL0     H82361  13.298   4.744   5.442  1.3027 -0.0428 -0.7640
  597MOL0     H82362  13.252   4.446   5.508  0.9734 -0.4380 -1.0065
  597MOL0     H82363  13.334   4.556   5.626  1.5812  0.8099 -0.6947
  597MOL0     H82364  13.412   4.522   5.327  0.1969 -0.2650  0.4222
  597MOL0     H82365  13.473   4.424   5.468 -0.7453 -0.6954 -0.0336
  597MOL0     H82366  12.431   4.264   5.295 -1.5012 -0.5583  0.4267
  597MOL0     H82367  12.256   4.314   5.177 -1.0015  0.5334 -0.9839
  597MOL0     H82368  11.907   4.593   5.245 -3.5201 -1.1178  1.2188
  597MOL0     H82369  11.693   4.723   5.207 -0.1504  1.8795 -1.5763
  597MOL0     H82370   9.985   4.850   4.791  2.5873  1.1837  0.7460
  597MOL0     H82371   9.793   4.692   4.815  0.9471 -0.8884 -0.4577
  597MOL0     H82372   9.596   4.385   4.897  0.7732  3.4603  0.3946
  597MOL0     H82373   9.396   4.242   4.909 -3.0280  1.7395  0.8066
  597MOL0     H82374   9.241   4.065   5.291 -1.9547 -0.4804  1.2293
  597MOL0     H82375   9.188   4.228   5.295  1.1605 -0.8035  1.0890
  597MOL0     H82376   9.005   4.046   5.300  1.7959 -2.6130  0.9651
  597MOL0     H82377   9.063   3.980   5.145 -2.7800  0.1769 -1.8494
  597MOL0     H82378   8.952   4.260   5.188 -0.4127  1.0467 -1.6644
  597MOL0     H82379   9.017   4.203   5.034 -0.0162  1.7984  1.3237
  597MOL0     H82380   8.796   4.064   5.191 -0.0314 -0.3684  0.3093
  597MOL0     H82381   8.872   4.019   5.027  1.5371  0.5507 -0.0373
  597MOL0     H82382   8.611   4.308   4.878  0.4600 -0.2957 -0.7610
  597MOL0     H82383   9.392   4.283   5.333  2.2612  0.6143  0.0540
  597MOL0     H82384   9.701   4.427   5.365  0.6181  0.0895  0.9687
  597MOL0     H82385   9.586   4.559   5.359 -2.8241 -0.7146  0.2378
  597MOL0     H82386   9.531   4.423   5.442 -1.0709  0.9081 -1.0014
  598MOL0     O82387   4.467  11.281   9.666 -0.0663  0.4248  0.1032
  598MOL0     C82388   4.424  11.393   9.690  0.1721 -0.8816  0.0833
  598MOL0     O82389   4.433  11.467   9.809  0.0900  0.8930 -0.3230
  598MOL0     C82390   4.510  11.408   9.907  0.9301  0.1506 -0.5692
  598MOL0     C82391   4.444  11.320   9.998 -0.2022 -0.1351 -0.3595
  598MOL0     C82392   4.525  11.257  10.098 -0.0287  0.3284  0.3848
  598MOL0     C82393   4.662  11.298  10.117 -0.3670  0.0141 -0.7506
  598MOL0     O82394   4.752  11.240  10.207 -0.7495 -0.8083  0.0511
  598MOL0     C82395   4.699  11.209  10.330 -0.9875  0.0067  0.0782
  598MOL0     C82396   4.817  11.185  10.437  0.2635 -1.5631  0.0369
  598MOL0     C82397   4.873  11.047  10.414  0.9584  0.3588  0.2184
  598MOL0     C82398   4.938  11.006  10.544  0.2144  0.8065  0.4452
  598MOL0     C82399   4.996  10.868  10.519 -0.2909 -0.4101  0.0070
  598MOL0     C82400   5.069  10.807  10.642 -0.5689 -0.4808  0.3306
  598MOL0     C82401   5.183  10.705  10.609 -0.0055  0.5911 -0.1896
  598MOL0     C82402   5.241  10.655  10.745 -0.0557  0.9523 -0.1818
  598MOL0     N82403   5.346  10.731  10.807 -0.4240  0.3202 -0.6250
  598MOL0     C82404   5.471  10.739  10.745  1.0024  0.4480  0.2807
  598MOL0     C82405   5.537  10.824  10.827  0.4777 -0.1561 -0.0498
  598MOL0     C82406   5.687  10.864  10.805 -0.4113 -0.5132 -0.6860
  598MOL0     C82407   5.784  10.747  10.764 -0.0662 -0.8062 -0.8501
  598MOL0     C82408   5.925  10.770  10.815  0.3020  0.2647 -0.1322
  598MOL0     C82409   6.009  10.643  10.803 -0.3211 -0.0322 -0.1078
  598MOL0     O82410   6.030  10.615  10.662 -0.3598  0.3594  0.5783
  598MOL0     C82411   6.121  10.515  10.625 -0.2649  0.6006 -0.1376
  598MOL0     C82412   6.147  10.515  10.491 -0.4966 -0.9776  0.3496
  598MOL0     C82413   6.245  10.439  10.435  0.0911 -0.3427 -0.4814
  598MOL0     C82414   6.254  10.448  10.285  0.1528 -1.0725 -0.2976
  598MOL0     C82415   6.321  10.339  10.521  0.2380  0.0548  0.0013
  598MOL0     C82416   6.421  10.249  10.472  0.4047 -0.2313 -0.6201
  598MOL0     O82417   6.467  10.150  10.560  0.2119  0.2915  0.3590
  598MOL0     C82418   6.549  10.054  10.501 -1.0917  0.5832  0.0405
  598MOL0     C82419   6.542   9.919  10.547  0.2694  0.0628 -0.3695
  598MOL0     C82420   6.627   9.821  10.498  0.6033 -0.3459 -0.2632
  598MOL0     C82421   6.724   9.846  10.402 -0.1596  0.5121 -0.3059
  598MOL0     O82422   6.808   9.760  10.352 -0.4807  0.4893  0.2701
  598MOL0     C82423   6.758   9.633  10.311  0.4357 -0.3589 -0.0278
  598MOL0     C82424   6.836   9.589  10.183  0.2392 -0.2159  0.8053
  598MOL0     C82425   6.846   9.706  10.082  1.1401  0.2398  0.3337
  598MOL0     C82426   6.891   9.648   9.946  0.0240 -0.3483  0.1880
  598MOL0     C82427   7.040   9.651   9.922 -0.1469  0.1613  0.0458
  598MOL0     C82428   7.085   9.799   9.908 -0.0418  0.0575 -0.4074
  598MOL0     C82429   7.232   9.809   9.867 -0.3993  0.0443 -1.1064
  598MOL0     C82430   7.281   9.951   9.855  0.8948 -0.5746 -0.1335
  598MOL0    Cl82431   7.346   9.992  10.012  0.6842 -0.5507 -0.2554
  598MOL0     C82432   6.744   9.975  10.361 -1.1064  0.6482 -0.1082
  598MOL0     C82433   6.657  10.078  10.409 -0.3591 -0.1330  0.5314
  598MOL0     O82434   6.453  10.265  10.358 -0.3075 -0.2499 -0.2375
  598MOL0     C82435   6.291  10.336  10.662  0.1195 -0.6455 -0.4804
  598MOL0     C82436   6.192  10.423  10.708 -0.2584 -0.1446 -0.6954
  598MOL0     N82437   5.453  10.877  10.920 -0.1843  0.9118 -0.9034
  598MOL0     N82438   5.338  10.822  10.911 -0.2003 -0.4764 -0.3090
  598MOL0     C82439   4.715  11.386  10.026  0.3481  0.4226 -0.4794
  598MOL0     C82440   4.640  11.430   9.919  0.1819 -1.1470  1.1118
  598MOL0     C82441   4.361  11.469   9.578 -0.0055  0.5465  0.1293
  598MOL0     C82442   4.245  11.408   9.524 -0.0790 -0.5594  0.3912
  598MOL0     C82443   4.173  11.486   9.432 -0.4424  0.0169  0.4355
  598MOL0     C82444   4.228  11.609   9.388 -0.2385 -0.1492  0.6061
  598MOL0     O82445   4.158  11.699   9.311 -0.2160 -0.5262 -0.0621
  598MOL0     C82446   4.019  11.677   9.295 -0.0263 -0.2357 -0.8129
  598MOL0     C82447   3.950  11.795   9.235  0.1364 -0.1866  0.3044
  598MOL0     C82448   3.796  11.770   9.252 -0.1589  0.3230  0.7147
  598MOL0     C82449   3.708  11.885   9.180  0.2705 -1.1815  0.0073
  598MOL0     C82450   3.692  12.007   9.258  0.7913 -0.2671 -0.0655
  598MOL0     C82451   3.698  12.117   9.301 -0.3381 -0.2361 -0.3466
  598MOL0     C82452   4.348  11.662   9.436  0.4634  0.6369 -0.0400
  598MOL0     C82453   4.416  11.588   9.531  0.3382 -0.1127  0.7524
  598MOL0     C82454   4.536  11.649   9.589 -0.3291 -0.1197  0.0680
  598MOL0     H82455   4.340  11.291  10.000  0.0935 -1.2711  1.7098
  598MOL0     H82456   4.475  11.189  10.166  1.6967  2.0949  3.7282
  598MOL0     H82457   4.638  11.119  10.322 -0.1562 -0.4836 -1.0435
  598MOL0     H82458   4.640  11.296  10.363 -2.0091 -0.3757 -0.7003
  598MOL0     H82459   4.892  11.264  10.436  1.4645 -2.6749 -0.6822
  598MOL0     H82460   4.774  11.188  10.537 -1.4634 -4.3689 -0.5015
  598MOL0     H82461   4.797  10.976  10.380  1.0225 -0.2539  1.2815
  598MOL0     H82462   4.942  11.040  10.329 -0.5647 -0.3462 -1.0107
  598MOL0     H82463   5.014  11.078  10.575  2.6823 -2.0949  1.6120
  598MOL0     H82464   4.866  10.989  10.625 -1.1771 -0.5703 -1.0019
  598MOL0     H82465   5.065  10.877  10.434  0.0867  2.2602  0.5121
  598MOL0     H82466   4.910  10.814  10.478 -1.2559  2.0033 -1.3781
  598MOL0     H82467   5.113  10.888  10.702  1.9077 -2.0381  0.7656
  598MOL0     H82468   5.000  10.764  10.714  3.5967 -4.2176  2.6058
  598MOL0     H82469   5.260  10.743  10.542 -0.0952 -1.3003 -1.4631
  598MOL0     H82470   5.139  10.625  10.549  2.5282  0.6906 -2.3745
  598MOL0     H82471   5.165  10.654  10.824 -1.3491  0.4368 -1.3840
  598MOL0     H82472   5.274  10.553  10.721 -1.1637  1.0638 -2.4555
  598MOL0     H82473   5.531  10.685  10.673  2.5532  1.1225  0.9960
  598MOL0     H82474   5.716  10.907  10.902  0.4137  0.2298 -1.2425
  598MOL0     H82475   5.702  10.943  10.730  0.6024 -1.3172 -1.3578
  598MOL0     H82476   5.755  10.647  10.800  0.9007 -1.0735 -0.7995
  598MOL0     H82477   5.786  10.733  10.655 -0.8450 -0.2204 -0.9502
  598MOL0     H82478   5.979  10.852  10.766  0.5849 -0.2932 -0.7528
  598MOL0     H82479   5.914  10.795  10.921 -0.2739  0.1394 -0.1600
  598MOL0     H82480   6.107  10.654  10.849  0.9400  0.7484 -2.7648
  598MOL0     H82481   5.960  10.559  10.852  0.7444 -1.6540 -1.6983
  598MOL0     H82482   6.097  10.586  10.427  3.9265 -0.9657 -3.6348
  598MOL0     H82483   6.351  10.477  10.243 -0.3528 -0.8449 -1.3289
  598MOL0     H82484   6.189  10.522  10.238  1.1122 -0.4784 -0.7390
  598MOL0     H82485   6.228  10.348  10.250  1.5000 -1.5530  0.0046
  598MOL0     H82486   6.461   9.896  10.615  1.8044 -0.7713  1.2790
  598MOL0     H82487   6.619   9.721  10.539 -1.1713 -0.2767 -0.3638
  598MOL0     H82488   6.758   9.553  10.386  0.0049 -1.9009 -1.5998
  598MOL0     H82489   6.651   9.644  10.289  0.1024  1.1099  2.0520
  598MOL0     H82490   6.939   9.564  10.210  0.3265 -0.8416 -0.0502
  598MOL0     H82491   6.794   9.494  10.149 -1.1927  0.0828  1.6362
  598MOL0     H82492   6.910   9.790  10.111 -1.0744  1.7360  1.1626
  598MOL0     H82493   6.745   9.745  10.067 -0.2689 -3.2946 -0.5313
  598MOL0     H82494   6.840   9.694   9.861 -0.0702  0.5915  0.7361
  598MOL0     H82495   6.855   9.545   9.935 -0.4945 -0.0859 -0.6452
  598MOL0     H82496   7.093   9.597  10.000  0.5068 -2.6148 -2.1643
  598MOL0     H82497   7.069   9.590   9.836  1.0591 -1.2487  1.3963
  598MOL0     H82498   7.069   9.857   9.999 -0.6768  0.6531 -0.8876
  598MOL0     H82499   7.039   9.857   9.828  1.2229  0.9384 -0.5292
  598MOL0     H82500   7.238   9.747   9.777 -2.8138 -2.2782  0.1666
  598MOL0     H82501   7.297   9.756   9.937  1.7990  2.1736 -1.4067
  598MOL0     H82502   7.195  10.013   9.827  1.7557  1.4110  1.3481
  598MOL0     H82503   7.360   9.955   9.779  0.5162  0.4390 -0.4969
  598MOL0     H82504   6.822   9.992  10.287 -1.5435 -0.3481 -0.8154
  598MOL0     H82505   6.680  10.179  10.376  1.8093 -0.2830  1.4045
  598MOL0     H82506   6.343  10.260  10.720  0.8087 -1.5326 -2.1774
  598MOL0     H82507   6.168  10.414  10.813 -1.4143  0.0084 -0.9296
  598MOL0     H82508   4.823  11.397  10.031  0.1769  1.8595  3.6233
  598MOL0     H82509   4.685  11.479   9.834 -1.8282 -0.2369  0.5009
  598MOL0     H82510   4.213  11.310   9.557 -0.0062 -0.5221  0.5753
  598MOL0     H82511   4.072  11.467   9.398 -0.5470  1.2630 -0.0079
  598MOL0     H82512   4.001  11.589   9.232  0.0970 -2.5350  2.0973
  598MOL0     H82513   3.969  11.656   9.391  1.4704 -0.0977  0.0279
  598MOL0     H82514   3.961  11.819   9.129 -2.0926  2.7690  0.6046
  598MOL0     H82515   3.976  11.888   9.287 -0.7766 -1.8978  4.1803
  598MOL0     H82516   3.783  11.671   9.207  1.0663 -0.0347  1.1116
  598MOL0     H82517   3.775  11.774   9.359 -1.1501  1.1236  0.5001
  598MOL0     H82518   3.615  11.841   9.143 -0.0005 -0.6481  0.0308
  598MOL0     H82519   3.765  11.919   9.093 -0.0121 -2.1718 -0.5821
  598MOL0     H82520   3.692  12.214   9.347  2.3354  0.7292 -1.8146
  598MOL0     H82521   4.372  11.767   9.418 -0.0423  0.3300 -2.9321
  598MOL0     H82522   4.618  11.576   9.591  1.7170  2.0840  1.0840
  598MOL0     H82523   4.573  11.730   9.526 -2.2233 -1.8729 -3.6878
  598MOL0     H82524   4.519  11.684   9.691  3.6810  2.0585  0.1605
  599MOL0     O82525   3.940   7.223   9.548 -0.3146  0.3757 -0.1154
  599MOL0     C82526   3.971   7.142   9.466 -0.5516  0.0465  0.2673
  599MOL0     O82527   4.051   7.161   9.363  0.3339  0.2598  0.1859
  599MOL0     C82528   4.097   7.288   9.320 -0.0787  0.8769  0.5884
  599MOL0     C82529   4.202   7.286   9.216  0.8410 -0.3482 -0.5724
  599MOL0     C82530   4.230   7.405   9.149 -0.6694 -0.0299  0.5544
  599MOL0     C82531   4.181   7.530   9.195 -0.1386  1.1434  0.6884
  599MOL0     O82532   4.218   7.645   9.139 -0.6123  0.4696  0.6354
  599MOL0     C82533   4.334   7.647   9.048  0.4897  0.4650  1.0721
  599MOL0     C82534   4.370   7.784   8.993 -0.6697  0.1711 -0.2478
  599MOL0     C82535   4.279   7.831   8.875  0.1282  0.4922 -1.1223
  599MOL0     C82536   4.256   7.983   8.875 -1.0734 -0.3279 -0.1503
  599MOL0     C82537   4.152   8.016   8.771 -0.2882 -0.4165  0.5255
  599MOL0     C82538   4.007   8.008   8.835 -0.4058  0.2470  0.8268
  599MOL0     C82539   3.900   8.040   8.734 -0.0076  0.4076  0.1777
  599MOL0     C82540   3.861   7.921   8.643 -0.1889  0.0904  0.1437
  599MOL0     N82541   3.959   7.872   8.550 -0.1954  0.3044 -0.2689
  599MOL0     C82542   4.023   7.939   8.444 -0.1476 -0.9741  0.2723
  599MOL0     C82543   4.111   7.841   8.388  0.4280 -1.8451 -0.3612
  599MOL0     C82544   4.205   7.872   8.275 -0.5271 -0.3437 -0.2891
  599MOL0     C82545   4.131   7.885   8.153  1.2646  0.0683  0.5577
  599MOL0     C82546   4.209   7.952   8.039  0.3174  0.6533 -0.4211
  599MOL0     C82547   4.349   7.888   8.013 -0.6637  0.1694 -0.1711
  599MOL0     O82548   4.355   7.753   7.964  0.0416  0.2109 -1.0134
  599MOL0     C82549   4.359   7.726   7.830  0.2446  0.5229 -0.6819
  599MOL0     C82550   4.355   7.590   7.797  0.1020 -0.1546  0.8399
  599MOL0     C82551   4.348   7.540   7.657  0.2882 -0.1324 -0.3180
  599MOL0     C82552   4.338   7.389   7.632 -0.1743 -0.2015 -0.9094
  599MOL0     C82553   4.354   7.637   7.545  0.7678  1.0483 -0.2195
  599MOL0     C82554   4.334   7.606   7.405  0.7811 -0.8757  0.3052
  599MOL0     O82555   4.408   7.504   7.355  1.0157 -0.2658 -0.3537
  599MOL0     C82556   4.411   7.483   7.221  0.4385  0.0233  0.4993
  599MOL0     C82557   4.403   7.355   7.168  0.2232 -0.4982 -0.2230
  599MOL0     C82558   4.410   7.343   7.034 -0.1125 -0.1327  0.3368
  599MOL0     C82559   4.435   7.449   6.945  0.6115  0.7909 -0.2699
  599MOL0     O82560   4.441   7.425   6.809  0.1790  0.1655 -0.5367
  599MOL0     C82561   4.341   7.333   6.764  0.3778  0.1448 -0.1228
  599MOL0     C82562   4.307   7.377   6.619 -0.1778  0.1532  0.0581
  599MOL0     C82563   4.207   7.291   6.553  0.2958  0.1002 -0.1362
  599MOL0     C82564   4.173   7.337   6.414 -0.7263  0.0226  0.2365
  599MOL0     C82565   4.069   7.243   6.340  0.4603 -0.2228 -0.0058
  599MOL0     C82566   4.113   7.100   6.333  0.5480 -0.0719  0.5782
  599MOL0     C82567   4.014   7.020   6.248  0.2406  0.0785 -0.7314
  599MOL0     C82568   4.015   7.057   6.109  0.0729 -0.2766  0.4461
  599MOL0    Cl82569   3.894   7.185   6.061  0.0872  0.3537  0.2826
  599MOL0     C82570   4.465   7.568   7.003  0.0177 -0.2991  0.1572
  599MOL0     C82571   4.448   7.594   7.138  1.1365 -0.1923  0.2303
  599MOL0     O82572   4.237   7.661   7.349 -1.1521  0.2079 -0.4694
  599MOL0     C82573   4.360   7.768   7.586  0.6293  0.7026 -0.5119
  599MOL0     C82574   4.352   7.811   7.715 -0.0997  0.0984  0.4366
  599MOL0     N82575   4.100   7.730   8.468 -0.3647  0.8425 -0.8888
  599MOL0     N82576   4.013   7.749   8.564 -0.4832 -0.3172 -0.0160
  599MOL0     C82577   4.086   7.528   9.298  0.4614  0.1488  0.0793
  599MOL0     C82578   4.034   7.411   9.359 -0.4622  0.3728  0.6621
  599MOL0     C82579   3.911   7.010   9.467 -0.2644  0.0200 -0.2092
  599MOL0     C82580   3.990   6.900   9.508 -0.1581 -0.2515 -0.0442
  599MOL0     C82581   3.947   6.766   9.496 -0.1145 -0.0649 -0.3462
  599MOL0     C82582   3.815   6.740   9.449  0.2818  0.3195 -0.8756
  599MOL0     O82583   3.762   6.616   9.465 -0.4482  0.4102  0.2430
  599MOL0     C82584   3.636   6.589   9.436  0.2676 -0.6708 -0.8391
  599MOL0     C82585   3.596   6.456   9.500  0.2063  0.2774 -0.2667
  599MOL0     C82586   3.684   6.338   9.455  0.9738  1.0298 -0.2354
  599MOL0     C82587   3.640   6.202   9.520 -0.3204 -0.8005  0.0756
  599MOL0     C82588   3.728   6.084   9.502 -0.1509  0.6550 -0.3892
  599MOL0     C82589   3.806   5.987   9.484 -1.0474 -0.6837 -0.6027
  599MOL0     C82590   3.743   6.852   9.407  0.4457 -1.1395 -0.4579
  599MOL0     C82591   3.785   6.986   9.409  0.5617  0.4153 -0.7131
  599MOL0     C82592   3.699   7.108   9.345  0.0593  0.5691 -0.8299
  599MOL0     H82593   4.249   7.195   9.182  1.1564 -0.9800  1.4118
  599MOL0     H82594   4.291   7.394   9.060  0.9503  2.3056  1.2787
  599MOL0     H82595   4.311   7.586   8.960 -0.6785  2.6458 -0.2430
  599MOL0     H82596   4.412   7.602   9.110 -2.3456 -1.4355  3.5675
  599MOL0     H82597   4.361   7.845   9.084 -2.1080 -1.2303  0.6058
  599MOL0     H82598   4.474   7.792   8.960 -1.4893  1.0186 -2.8660
  599MOL0     H82599   4.316   7.788   8.782 -2.2058 -0.9346 -1.4752
  599MOL0     H82600   4.183   7.780   8.889  0.3312  0.7300  2.0458
  599MOL0     H82601   4.234   8.012   8.978 -0.2029  0.0388 -0.0612
  599MOL0     H82602   4.351   8.033   8.854 -1.1228  0.5748  1.5688
  599MOL0     H82603   4.167   7.947   8.688 -1.0329  2.6014 -2.3547
  599MOL0     H82604   4.167   8.118   8.733  1.3636 -0.4644  0.9603
  599MOL0     H82605   3.976   7.910   8.875 -2.6425  0.8141  0.6161
  599MOL0     H82606   4.000   8.084   8.913  4.2826  0.8729  0.8869
  599MOL0     H82607   3.935   8.133   8.689 -0.0049  0.3543  0.0693
  599MOL0     H82608   3.805   8.070   8.780  1.2596  2.6073  1.4808
  599MOL0     H82609   3.810   7.839   8.695 -1.4237 -0.7016 -2.1581
  599MOL0     H82610   3.782   7.962   8.579  0.5316 -0.2202 -0.9761
  599MOL0     H82611   3.993   8.033   8.400 -0.6110 -0.5278  1.5131
  599MOL0     H82612   4.270   7.784   8.270 -0.7713 -0.5904  0.6799
  599MOL0     H82613   4.263   7.964   8.289 -1.4659 -0.0450  2.0631
  599MOL0     H82614   4.095   7.790   8.111 -0.7159  1.4986 -1.1636
  599MOL0     H82615   4.042   7.944   8.177  1.8628  0.3790  2.1010
  599MOL0     H82616   4.151   7.950   7.947  0.2687  0.0628 -0.3764
  599MOL0     H82617   4.222   8.056   8.073 -0.4838  0.8015 -0.5462
  599MOL0     H82618   4.403   7.958   7.947  1.6291  1.4005  2.7318
  599MOL0     H82619   4.406   7.911   8.103  0.7008 -1.0649 -0.6798
  599MOL0     H82620   4.363   7.518   7.878  0.9433 -0.4229  0.5255
  599MOL0     H82621   4.437   7.347   7.655 -0.1659  0.2581 -0.0708
  599MOL0     H82622   4.321   7.356   7.529 -1.0344 -0.8836 -0.5643
  599MOL0     H82623   4.265   7.349   7.702  0.4590 -1.7339 -1.0921
  599MOL0     H82624   4.385   7.276   7.240 -0.0352  0.9158  1.3287
  599MOL0     H82625   4.407   7.243   6.992 -0.3374 -1.0089  2.3374
  599MOL0     H82626   4.381   7.231   6.764 -0.0911 -0.0700  1.7881
  599MOL0     H82627   4.244   7.335   6.814 -1.1342 -0.6292 -2.7940
  599MOL0     H82628   4.280   7.483   6.613  2.0453  0.6908 -1.7431
  599MOL0     H82629   4.403   7.383   6.565  1.1746 -2.7045  1.9006
  599MOL0     H82630   4.116   7.284   6.613  1.2723 -1.8028  1.2161
  599MOL0     H82631   4.253   7.192   6.543 -2.4703 -1.1566 -1.7679
  599MOL0     H82632   4.257   7.331   6.345  0.0045 -1.4883  1.2032
  599MOL0     H82633   4.145   7.442   6.413  0.3804  0.3306  0.4475
  599MOL0     H82634   3.970   7.238   6.386  1.2860 -3.4372  1.6810
  599MOL0     H82635   4.073   7.285   6.239  3.8438  2.8224  1.1804
  599MOL0     H82636   4.121   7.062   6.435  1.3615 -0.2323  0.4608
  599MOL0     H82637   4.211   7.105   6.285  0.8776  3.0333  1.3456
  599MOL0     H82638   3.917   7.014   6.298  2.7466  0.0150  4.9333
  599MOL0     H82639   4.043   6.915   6.262  0.2122  0.1181 -0.3658
  599MOL0     H82640   3.994   6.972   6.044 -1.1027 -0.9380  1.6539
  599MOL0     H82641   4.112   7.097   6.077 -0.3564 -0.3310 -1.0133
  599MOL0     H82642   4.495   7.633   6.921 -3.6421 -1.0872 -2.0690
  599MOL0     H82643   4.473   7.693   7.173  1.7478 -0.1111 -0.3980
  599MOL0     H82644   4.362   7.847   7.512  0.9797  2.5194  1.3375
  599MOL0     H82645   4.347   7.919   7.731 -0.8045  0.1591 -0.1037
  599MOL0     H82646   4.043   7.624   9.326  1.6265  0.9276 -0.7150
  599MOL0     H82647   3.951   7.421   9.428 -0.7319  2.0281  0.1412
  599MOL0     H82648   4.086   6.908   9.558  0.1868  2.0932 -0.9460
  599MOL0     H82649   4.011   6.687   9.535 -2.6660 -2.5868 -0.9152
  599MOL0     H82650   3.571   6.661   9.487  1.6934  1.1217 -1.4010
  599MOL0     H82651   3.609   6.587   9.330 -1.2374  0.9858 -0.5413
  599MOL0     H82652   3.494   6.433   9.467 -0.1682  1.5145 -0.0474
  599MOL0     H82653   3.611   6.458   9.608  0.2058 -0.5632 -0.2456
  599MOL0     H82654   3.671   6.330   9.347 -1.0779  0.6475  0.0027
  599MOL0     H82655   3.790   6.356   9.476  1.8282 -2.5461 -0.8339
  599MOL0     H82656   3.543   6.172   9.479 -0.4958  1.5710 -1.4385
  599MOL0     H82657   3.630   6.212   9.628  2.0790  0.3658  0.2615
  599MOL0     H82658   3.870   5.906   9.457 -0.3239 -0.3328  0.0107
  599MOL0     H82659   3.640   6.846   9.373 -0.9596 -0.3801  3.1089
  599MOL0     H82660   3.655   7.166   9.427  0.3582  0.1253 -0.3487
  599MOL0     H82661   3.755   7.183   9.288  0.6057  1.8136  1.2465
  599MOL0     H82662   3.619   7.049   9.298 -1.0032  0.4679  1.0104
  600MOL0     O82663   5.321   5.664   7.971  0.0351  0.0698 -1.0202
  600MOL0     C82664   5.287   5.600   7.871  1.0549 -0.5001 -0.3233
  600MOL0     O82665   5.358   5.501   7.815 -0.5543 -0.6549 -0.2765
  600MOL0     C82666   5.458   5.447   7.902  0.7571 -0.6580  0.1869
  600MOL0     C82667   5.429   5.342   7.986  1.0008 -0.7439  0.3098
  600MOL0     C82668   5.533   5.300   8.069 -0.3871  0.3202  0.5293
  600MOL0     C82669   5.667   5.340   8.065  0.3425  0.2942 -0.2282
  600MOL0     O82670   5.767   5.282   8.146  0.4005  0.1293 -0.1916
  600MOL0     C82671   5.904   5.310   8.123  0.2649  0.9427 -0.5721
  600MOL0     C82672   5.990   5.225   8.216 -0.2733  0.3213 -0.6299
  600MOL0     C82673   6.008   5.088   8.154  0.1454 -0.6035  0.7124
  600MOL0     C82674   6.068   4.993   8.259  0.5215  0.5042 -0.7716
  600MOL0     C82675   6.098   4.851   8.211 -0.3264  0.6209  0.1737
  600MOL0     C82676   6.212   4.846   8.109 -1.0810 -0.9696 -0.0328
  600MOL0     C82677   6.267   4.707   8.098  0.8099 -0.4880 -0.6763
  600MOL0     C82678   6.396   4.701   8.015  0.5999  0.1829  0.1406
  600MOL0     N82679   6.420   4.567   7.977  0.0530  0.3135  0.7376
  600MOL0     C82680   6.465   4.470   8.059 -0.7330 -0.1022 -0.1638
  600MOL0     C82681   6.450   4.348   8.001  0.0667  0.1321  0.5152
  600MOL0     C82682   6.472   4.210   8.054  0.0173 -0.4415 -0.1412
  600MOL0     C82683   6.556   4.199   8.185  0.2895  0.2907 -1.1499
  600MOL0     C82684   6.587   4.049   8.202  0.5466 -0.4905  0.4878
  600MOL0     C82685   6.714   4.033   8.285  0.0734 -0.4436 -0.0330
  600MOL0     O82686   6.697   4.113   8.406  0.1839 -0.1210 -0.1724
  600MOL0     C82687   6.802   4.164   8.483  0.6226 -0.1649 -0.6951
  600MOL0     C82688   6.939   4.163   8.445 -0.6301 -0.0824  0.1590
  600MOL0     C82689   7.039   4.207   8.523 -0.3206 -0.4713 -0.9386
  600MOL0     C82690   7.184   4.208   8.477 -0.5236  0.3776 -0.0917
  600MOL0     C82691   7.008   4.265   8.651  0.2628 -0.5838 -0.8748
  600MOL0     C82692   7.110   4.325   8.752 -0.6007 -0.3969 -0.3807
  600MOL0     O82693   7.064   4.351   8.879  0.2802 -0.2034  0.4051
  600MOL0     C82694   7.136   4.424   8.967  0.0351 -0.5326  0.1394
  600MOL0     C82695   7.079   4.533   9.035  0.5494 -0.3327 -0.0977
  600MOL0     C82696   7.157   4.612   9.115 -0.1395  0.0338 -0.2578
  600MOL0     C82697   7.284   4.582   9.155  0.1611  0.4172  0.7751
  600MOL0     O82698   7.335   4.656   9.255  0.2200 -0.3213 -0.1400
  600MOL0     C82699   7.469   4.632   9.289 -0.1608  0.7614  0.1238
  600MOL0     C82700   7.557   4.689   9.181 -0.0870  0.7389  0.3178
  600MOL0     C82701   7.701   4.661   9.203 -0.2866 -0.1795  0.1644
  600MOL0     C82702   7.788   4.729   9.091 -0.4279 -0.0002  0.6675
  600MOL0     C82703   7.938   4.730   9.131  0.0838 -0.0731 -0.7276
  600MOL0     C82704   7.999   4.595   9.165 -0.6214 -0.8733  0.1633
  600MOL0     C82705   8.146   4.610   9.217  0.4957 -0.1321 -0.3871
  600MOL0     C82706   8.205   4.472   9.251 -0.8733  0.3826  0.6047
  600MOL0    Cl82707   8.374   4.484   9.310 -0.0244 -0.2129 -0.7445
  600MOL0     C82708   7.336   4.467   9.093  0.4105 -0.1616 -0.0372
  600MOL0     C82709   7.268   4.393   8.996  0.4785  1.0032  0.0303
  600MOL0     O82710   7.217   4.367   8.714  0.2391  0.3266 -0.3766
  600MOL0     C82711   6.879   4.263   8.694 -0.1174 -1.3214 -0.1316
  600MOL0     C82712   6.778   4.211   8.610  0.4500  0.3027  0.1786
  600MOL0     N82713   6.373   4.368   7.889 -0.5385 -0.0680 -0.5519
  600MOL0     N82714   6.350   4.499   7.884  0.0594  0.7943  0.1533
  600MOL0     C82715   5.691   5.448   7.981 -0.1185 -1.3021  0.0927
  600MOL0     C82716   5.589   5.501   7.908 -0.8851 -0.6927  0.4718
  600MOL0     C82717   5.165   5.648   7.793 -0.6614  0.2869  0.0701
  600MOL0     C82718   5.173   5.663   7.650 -0.4392  0.3294 -0.1546
  600MOL0     C82719   5.070   5.717   7.576  0.8900  0.0570 -0.0659
  600MOL0     C82720   4.958   5.764   7.650 -0.3512  0.7263 -0.5298
  600MOL0     O82721   4.869   5.838   7.573  0.2364  0.1828  0.6664
  600MOL0     C82722   4.740   5.867   7.626  0.3165 -0.9925 -0.7780
  600MOL0     C82723   4.654   5.743   7.610 -0.4701 -0.0710 -0.5737
  600MOL0     C82724   4.601   5.730   7.467  0.5768  0.4577  0.4406
  600MOL0     C82725   4.480   5.626   7.460 -0.1938  0.4416  0.0938
  600MOL0     C82726   4.428   5.632   7.329  0.5074  0.9152  0.0473
  600MOL0     C82727   4.378   5.631   7.224 -0.1095  0.0290  0.3762
  600MOL0     C82728   4.946   5.744   7.785 -0.1569  0.3618 -0.4583
  600MOL0     C82729   5.041   5.674   7.855  0.0465  0.2867 -0.1361
  600MOL0     C82730   5.008   5.654   7.991  0.0186  0.2952  0.0282
  600MOL0     H82731   5.331   5.296   7.990  1.0460 -0.7475  1.8757
  600MOL0     H82732   5.515   5.225   8.145 -1.6446  0.9463  0.8822
  600MOL0     H82733   5.921   5.416   8.144  0.8825  1.3071 -2.6015
  600MOL0     H82734   5.936   5.289   8.020 -0.2629 -0.6692 -0.4418
  600MOL0     H82735   6.085   5.277   8.233 -1.8225  2.4991  2.1884
  600MOL0     H82736   5.943   5.228   8.315  1.7499 -2.5953  0.5485
  600MOL0     H82737   5.910   5.051   8.124 -0.0727  0.9721 -0.6309
  600MOL0     H82738   6.073   5.097   8.066 -0.2622 -0.9879  0.3681
  600MOL0     H82739   6.152   5.026   8.321  0.6298 -1.6111  0.3032
  600MOL0     H82740   5.985   4.980   8.329 -0.8435 -0.5590 -2.4984
  600MOL0     H82741   6.004   4.819   8.164 -0.3567 -0.2230  0.7848
  600MOL0     H82742   6.117   4.783   8.295  1.2859  1.8119  0.8280
  600MOL0     H82743   6.192   4.892   8.012  0.4494  0.9032  0.4790
  600MOL0     H82744   6.289   4.913   8.149 -2.6519  1.7031 -1.2297
  600MOL0     H82745   6.191   4.652   8.042 -0.7666  1.2920 -0.3948
  600MOL0     H82746   6.277   4.664   8.198 -0.1133  5.1914  2.2534
  600MOL0     H82747   6.389   4.774   7.934  2.6345 -0.5575 -0.7609
  600MOL0     H82748   6.487   4.732   8.067 -0.1322 -0.1412  1.6601
  600MOL0     H82749   6.527   4.488   8.147 -0.0573  0.3695 -0.7238
  600MOL0     H82750   6.520   4.148   7.977  2.0220  0.9028 -0.0395
  600MOL0     H82751   6.373   4.170   8.080  0.0052  0.0857  0.6674
  600MOL0     H82752   6.656   4.245   8.179 -0.7072  2.4699 -1.9444
  600MOL0     H82753   6.503   4.244   8.269 -3.3044  1.6089 -3.8332
  600MOL0     H82754   6.499   4.004   8.249 -0.3913  1.9351  1.2281
  600MOL0     H82755   6.601   4.004   8.103  1.6096 -1.4351  1.0378
  600MOL0     H82756   6.708   3.927   8.312 -3.2313 -0.0571  1.2578
  600MOL0     H82757   6.794   4.063   8.218 -1.5223 -0.2036 -1.9112
  600MOL0     H82758   6.964   4.129   8.345 -0.1149 -3.8907  1.4217
  600MOL0     H82759   7.207   4.167   8.377  0.1789 -0.6675  0.4725
  600MOL0     H82760   7.240   4.138   8.540  1.1397 -0.5579 -2.4510
  600MOL0     H82761   7.227   4.308   8.487  0.4157  0.0133 -0.3177
  600MOL0     H82762   6.981   4.571   9.009 -0.5490 -3.4814 -1.0164
  600MOL0     H82763   7.112   4.698   9.162  0.6622  1.8879 -2.7114
  600MOL0     H82764   7.494   4.687   9.380 -0.5514 -0.7056  1.1495
  600MOL0     H82765   7.494   4.530   9.320  2.0484  1.3162  0.2926
  600MOL0     H82766   7.536   4.641   9.084  1.1750  1.8393 -0.5240
  600MOL0     H82767   7.534   4.794   9.163 -0.0829  0.5358 -0.9887
  600MOL0     H82768   7.704   4.552   9.205 -1.9169 -0.2393  1.1417
  600MOL0     H82769   7.736   4.694   9.301  0.4040 -0.1611 -0.0834
  600MOL0     H82770   7.756   4.830   9.064 -3.0449 -0.3315  2.1705
  600MOL0     H82771   7.778   4.674   8.997  2.2806 -0.4329  0.5594
  600MOL0     H82772   7.991   4.786   9.054 -2.1778  2.4831 -0.5818
  600MOL0     H82773   7.947   4.795   9.218 -0.9644 -0.0570 -0.6100
  600MOL0     H82774   7.993   4.530   9.077  1.1014 -2.7289  1.3271
  600MOL0     H82775   7.938   4.555   9.247  1.6847  0.2974  2.6059
  600MOL0     H82776   8.155   4.678   9.302 -1.4130 -0.5577  0.2075
  600MOL0     H82777   8.211   4.661   9.145 -0.7622 -0.8822 -2.1166
  600MOL0     H82778   8.212   4.411   9.161  0.9225  1.2984  0.0842
  600MOL0     H82779   8.144   4.426   9.330  0.7768  0.0997  1.7614
  600MOL0     H82780   7.433   4.432   9.126  0.4846  1.2216  1.3744
  600MOL0     H82781   7.312   4.304   8.953 -1.5681  0.7812 -1.7972
  600MOL0     H82782   6.841   4.312   8.784 -2.2834  2.2664 -2.7272
  600MOL0     H82783   6.676   4.206   8.645  0.5464 -0.9213  0.3379
  600MOL0     H82784   5.785   5.500   7.969 -1.2303  0.2919 -2.5926
  600MOL0     H82785   5.615   5.597   7.864  0.9030  0.5831  3.9214
  600MOL0     H82786   5.260   5.627   7.596  0.5800 -1.2829  2.3454
  600MOL0     H82787   5.071   5.723   7.467  1.5222 -0.6168 -0.1093
  600MOL0     H82788   4.737   5.901   7.729 -1.7392  0.5268 -1.2678
  600MOL0     H82789   4.698   5.957   7.579 -0.0384 -0.5639  0.3329
  600MOL0     H82790   4.564   5.752   7.672  1.4340  1.3623  2.1526
  600MOL0     H82791   4.696   5.648   7.646 -2.2635 -0.5448  0.4148
  600MOL0     H82792   4.564   5.827   7.432 -2.2425 -0.7927 -0.3636
  600MOL0     H82793   4.685   5.702   7.403 -0.9718 -1.3849 -0.9400
  600MOL0     H82794   4.402   5.664   7.527 -0.8217 -0.8348  0.1237
  600MOL0     H82795   4.514   5.528   7.494  0.5539  0.4307 -0.6677
  600MOL0     H82796   4.344   5.609   7.125  1.7808 -1.4922  0.0183
  600MOL0     H82797   4.856   5.768   7.841  0.7457 -0.3050  1.3639
  600MOL0     H82798   4.902   5.669   8.012 -0.1837 -0.0863 -0.6888
  600MOL0     H82799   5.023   5.550   8.021 -0.3993  1.0131  2.9560
  600MOL0     H82800   5.068   5.709   8.065  0.2172  1.0365 -0.6575
  601MOL0     O82801   7.221   6.174   6.513 -0.2318 -0.0555 -0.1055
  601MOL0     C82802   7.148   6.078   6.513 -0.9021 -0.1060  0.1267
  601MOL0     O82803   7.184   5.945   6.498  0.4896 -0.5036  0.3785
  601MOL0     C82804   7.313   5.906   6.469  0.5121 -0.2549  0.0764
  601MOL0     C82805   7.343   5.774   6.506  0.6109 -0.5204  1.1893
  601MOL0     C82806   7.464   5.716   6.499  0.1268 -0.6026  0.0290
  601MOL0     C82807   7.575   5.787   6.444  0.4215  0.5524 -0.0686
  601MOL0     O82808   7.695   5.735   6.485  0.3674 -0.2259 -0.3441
  601MOL0     C82809   7.805   5.823   6.481 -0.5079 -0.8523 -0.2771
  601MOL0     C82810   7.865   5.790   6.339 -0.3706 -0.3312 -0.2558
  601MOL0     C82811   7.993   5.869   6.308 -0.2940  0.9017 -0.4115
  601MOL0     C82812   8.098   5.845   6.423 -0.1060 -0.1107 -1.2160
  601MOL0     C82813   8.235   5.844   6.354  0.0279  0.2328 -0.4620
  601MOL0     C82814   8.278   5.978   6.279  1.1483 -0.7169 -0.2955
  601MOL0     C82815   8.365   6.055   6.379 -0.6691 -0.5728 -0.2833
  601MOL0     C82816   8.399   6.194   6.339 -0.1365  0.2765  0.3180
  601MOL0     N82817   8.505   6.208   6.233  0.4747  0.3962 -0.1780
  601MOL0     C82818   8.493   6.173   6.092  0.5559  0.2711  0.1303
  601MOL0     C82819   8.607   6.227   6.043 -0.6080 -0.4943 -0.6797
  601MOL0     C82820   8.649   6.211   5.905 -0.3782 -0.0353 -0.6311
  601MOL0     C82821   8.625   6.339   5.806  0.1434 -0.1537 -0.0472
  601MOL0     C82822   8.481   6.342   5.741 -0.1630  0.1668  0.3496
  601MOL0     C82823   8.356   6.384   5.810  0.3923 -0.7034  0.7859
  601MOL0     O82824   8.363   6.513   5.881 -0.2568  0.0727 -0.1454
  601MOL0     C82825   8.260   6.536   5.965 -0.0304  0.2434  0.0782
  601MOL0     C82826   8.281   6.635   6.063 -0.4346  1.0093  0.1717
  601MOL0     C82827   8.183   6.654   6.157 -0.4408  1.1989  0.2242
  601MOL0     C82828   8.218   6.749   6.266  0.3630  0.2989 -0.4621
  601MOL0     C82829   8.057   6.590   6.148  0.9390 -0.0511 -0.2964
  601MOL0     C82830   7.939   6.604   6.244  0.6529  0.5258 -0.6235
  601MOL0     O82831   7.834   6.514   6.237 -0.8415  0.1894  0.2590
  601MOL0     C82832   7.749   6.502   6.336  0.9311 -0.5593  0.3209
  601MOL0     C82833   7.714   6.373   6.367  0.6082 -0.1529 -1.0073
  601MOL0     C82834   7.638   6.338   6.490  0.0058 -0.2080  0.7296
  601MOL0     C82835   7.590   6.433   6.565  0.0527  0.1825 -0.6430
  601MOL0     O82836   7.521   6.397   6.681 -0.9143 -0.2204  0.1777
  601MOL0     C82837   7.422   6.490   6.725  0.1380  0.4934 -0.1116
  601MOL0     C82838   7.340   6.429   6.832 -0.4168  0.2170 -0.5851
  601MOL0     C82839   7.223   6.507   6.890  0.3527  0.4915 -0.1043
  601MOL0     C82840   7.155   6.424   7.001 -0.6187  0.4131 -0.0023
  601MOL0     C82841   7.008   6.458   7.029  0.8721  0.0723  0.4320
  601MOL0     C82842   6.981   6.417   7.173 -0.7891 -0.3558  0.0206
  601MOL0     C82843   6.838   6.439   7.220  0.2048 -0.3671 -0.7649
  601MOL0     C82844   6.824   6.470   7.372 -0.3211  0.2592  0.8258
  601MOL0    Cl82845   6.891   6.334   7.474  0.0471 -0.0672 -0.3544
  601MOL0     C82846   7.617   6.564   6.538 -0.3757  0.4202  0.3385
  601MOL0     C82847   7.705   6.602   6.431  0.4084  0.6013 -0.4986
  601MOL0     O82848   7.961   6.677   6.341  0.1074 -0.0720  0.4612
  601MOL0     C82849   8.036   6.493   6.048 -0.9179 -0.3005  0.3024
  601MOL0     C82850   8.134   6.464   5.961  0.1669 -0.6696 -0.5042
  601MOL0     N82851   8.691   6.287   6.144  0.5842  0.7984 -0.2378
  601MOL0     N82852   8.625   6.268   6.249 -0.1040 -0.4712  0.0605
  601MOL0     C82853   7.556   5.919   6.407 -0.6931 -0.3440 -0.1175
  601MOL0     C82854   7.426   5.976   6.422 -0.0931 -0.6255  0.7327
  601MOL0     C82855   7.001   6.087   6.534 -0.8097 -0.4634  0.2296
  601MOL0     C82856   6.917   5.994   6.467 -0.4738 -0.2206 -0.0967
  601MOL0     C82857   6.780   5.990   6.474 -0.1222  0.5885  0.1056
  601MOL0     C82858   6.722   6.090   6.560  0.5842 -0.1487  0.7372
  601MOL0     O82859   6.586   6.101   6.591 -0.0371 -0.1198 -0.4602
  601MOL0     C82860   6.494   6.008   6.538 -0.4332  0.3949 -0.0164
  601MOL0     C82861   6.465   6.031   6.392 -0.7309 -0.3875  0.3400
  601MOL0     C82862   6.380   5.921   6.326  0.1920  0.3128  0.3399
  601MOL0     C82863   6.232   5.953   6.352 -0.3217 -0.0025  0.3330
  601MOL0     C82864   6.149   5.851   6.293  0.2262 -0.7846  1.0908
  601MOL0     C82865   6.076   5.765   6.249 -0.4370  0.0545  0.0477
  601MOL0     C82866   6.798   6.180   6.621 -0.5023 -0.0244  0.4174
  601MOL0     C82867   6.938   6.180   6.620 -0.4993 -0.0867 -0.1513
  601MOL0     C82868   7.005   6.284   6.703 -0.3473  0.1531  0.2564
  601MOL0     H82869   7.262   5.719   6.553 -0.4552  0.5528  0.6694
  601MOL0     H82870   7.483   5.617   6.542  1.4255  0.3017  1.6848
  601MOL0     H82871   7.890   5.807   6.549 -0.8359  0.5078  0.4813
  601MOL0     H82872   7.784   5.929   6.495  0.0637 -0.4468 -2.2621
  601MOL0     H82873   7.880   5.683   6.326 -0.6137 -0.3536 -0.3659
  601MOL0     H82874   7.792   5.817   6.262 -0.7429  1.2226  0.6048
  601MOL0     H82875   8.029   5.827   6.213  0.6195 -0.3402  0.4486
  601MOL0     H82876   7.984   5.977   6.295  3.6496  1.6700  1.7434
  601MOL0     H82877   8.094   5.928   6.494  2.2543  1.0537 -2.3159
  601MOL0     H82878   8.079   5.745   6.463 -0.1009  0.2987 -0.1682
  601MOL0     H82879   8.227   5.760   6.284 -0.5893  1.4422 -1.9082
  601MOL0     H82880   8.303   5.812   6.433 -3.8155  0.4675  3.3019
  601MOL0     H82881   8.350   5.951   6.202 -0.8739  1.0374 -2.9848
  601MOL0     H82882   8.205   6.036   6.222  1.7597 -1.4002 -1.8341
  601MOL0     H82883   8.458   6.000   6.395 -1.1266 -0.6375  3.0053
  601MOL0     H82884   8.325   6.056   6.481  1.1194 -0.2741  0.4508
  601MOL0     H82885   8.309   6.244   6.304 -1.3040 -0.8344  1.6162
  601MOL0     H82886   8.443   6.243   6.427  2.0258 -0.2977 -0.3659
  601MOL0     H82887   8.416   6.122   6.036  0.5656 -0.9399  1.1821
  601MOL0     H82888   8.585   6.129   5.873  2.8863 -2.7649 -0.6428
  601MOL0     H82889   8.752   6.176   5.899 -0.4799 -0.6971  0.9797
  601MOL0     H82890   8.635   6.428   5.869 -0.6100 -0.5406  0.6384
  601MOL0     H82891   8.705   6.330   5.732 -1.6478 -0.9145 -1.9872
  601MOL0     H82892   8.493   6.389   5.643 -0.6743 -2.3719 -1.0280
  601MOL0     H82893   8.462   6.238   5.713  0.3382 -0.2714  1.5365
  601MOL0     H82894   8.287   6.387   5.726  1.9600 -2.4620 -0.6480
  601MOL0     H82895   8.322   6.306   5.879  1.4000  0.3207  2.5036
  601MOL0     H82896   8.371   6.695   6.047 -1.1439  1.7292 -1.3005
  601MOL0     H82897   8.206   6.702   6.364  1.6099 -3.0062 -1.7655
  601MOL0     H82898   8.136   6.821   6.255 -1.1681 -0.9627  1.8023
  601MOL0     H82899   8.317   6.792   6.250  0.7747 -0.6724 -0.5889
  601MOL0     H82900   7.747   6.285   6.314 -1.3146 -1.7753  0.3365
  601MOL0     H82901   7.606   6.237   6.512  0.2770 -0.5389 -0.3164
  601MOL0     H82902   7.475   6.574   6.770 -0.4653  0.7250  0.1778
  601MOL0     H82903   7.356   6.520   6.643 -1.7930  0.2200  1.2667
  601MOL0     H82904   7.312   6.327   6.804  1.5985 -0.1047 -1.6210
  601MOL0     H82905   7.412   6.422   6.913 -0.6920  1.0237 -0.2667
  601MOL0     H82906   7.153   6.530   6.809 -1.1958  3.0455  1.7735
  601MOL0     H82907   7.262   6.596   6.941  2.1832 -0.1870 -0.2563
  601MOL0     H82908   7.223   6.440   7.084  0.5183  1.4150 -1.0768
  601MOL0     H82909   7.166   6.316   6.991  2.0761  0.5455  0.8667
  601MOL0     H82910   6.976   6.563   7.021 -3.2529 -1.0041  0.8104
  601MOL0     H82911   6.962   6.410   6.943 -1.6026  4.0243 -0.7339
  601MOL0     H82912   7.049   6.455   7.249  0.5067 -2.6910  0.1359
  601MOL0     H82913   6.999   6.309   7.170  1.4665 -0.0021 -1.3083
  601MOL0     H82914   6.771   6.353   7.211 -1.7315  0.7432  1.6435
  601MOL0     H82915   6.797   6.530   7.175 -0.3251  1.9600  3.8266
  601MOL0     H82916   6.719   6.479   7.402 -0.8006 -2.8156  0.4404
  601MOL0     H82917   6.877   6.563   7.394 -0.0251  0.8449 -1.9221
  601MOL0     H82918   7.570   6.639   6.600 -0.3678 -0.0112  0.8794
  601MOL0     H82919   7.714   6.710   6.424 -0.8782  0.8047  0.6520
  601MOL0     H82920   7.944   6.437   6.030  0.1083 -1.5198 -1.4556
  601MOL0     H82921   8.123   6.387   5.885 -0.3377 -0.6467 -0.4569
  601MOL0     H82922   7.641   5.976   6.369  0.4154 -0.4635  2.0422
  601MOL0     H82923   7.415   6.078   6.386 -4.1995 -1.9760 -2.7226
  601MOL0     H82924   6.954   5.920   6.397  1.6133 -0.8425  1.5744
  601MOL0     H82925   6.726   5.925   6.405  0.4444  0.4684 -0.2338
  601MOL0     H82926   6.538   5.910   6.557  1.9993  1.4088  0.0341
  601MOL0     H82927   6.397   6.000   6.587  0.0020  0.0689  0.8180
  601MOL0     H82928   6.557   6.036   6.333 -0.3728 -2.1707  0.6899
  601MOL0     H82929   6.417   6.129   6.384  1.6164  0.7872 -0.4652
  601MOL0     H82930   6.396   5.919   6.217  1.6790 -2.3297  0.5259
  601MOL0     H82931   6.413   5.827   6.371  1.5296  1.3349  1.6002
  601MOL0     H82932   6.202   6.048   6.309  0.4920  0.9483  1.7798
  601MOL0     H82933   6.213   5.961   6.459 -3.7284 -0.4905 -0.1341
  601MOL0     H82934   6.025   5.691   6.191  1.7166  0.0737 -2.0095
  601MOL0     H82935   6.757   6.251   6.692 -3.1532  1.8570 -2.6972
  601MOL0     H82936   7.033   6.230   6.794 -0.8479  1.5867  1.2897
  601MOL0     H82937   7.091   6.335   6.657  0.0359  1.4939  2.3199
  601MOL0     H82938   6.926   6.354   6.730  0.0581  0.2295  1.2969
  602MOL0     O82939   7.642   5.758   0.478 -0.3043 -1.0142  0.2054
  602MOL0     C82940   7.588   5.800   0.582 -0.4154 -0.1533  0.1950
  602MOL0     O82941   7.655   5.826   0.697 -0.1268 -0.1834  0.3993
  602MOL0     C82942   7.789   5.836   0.710 -0.7959 -1.1624  1.1346
  602MOL0     C82943   7.874   5.874   0.605  0.7268 -0.5037  0.1698
  602MOL0     C82944   8.008   5.882   0.625  0.4709  0.0088  0.7484
  602MOL0     C82945   8.072   5.858   0.744  0.2270 -0.6358 -0.3939
  602MOL0     O82946   8.207   5.866   0.746 -0.1279  0.0852  1.0354
  602MOL0     C82947   8.270   5.838   0.868  0.6474 -0.4833  0.1947
  602MOL0     C82948   8.418   5.816   0.860 -0.4661 -0.5268 -0.4855
  602MOL0     C82949   8.493   5.885   0.988 -0.9607 -0.6186 -0.2358
  602MOL0     C82950   8.641   5.932   0.958  1.0742  0.8605  0.5309
  602MOL0     C82951   8.733   5.864   1.049 -1.0153  0.4599 -0.9266
  602MOL0     C82952   8.875   5.926   1.041 -0.9775  0.4978  0.4837
  602MOL0     C82953   8.991   5.838   1.110  1.6259 -0.3192  0.3089
  602MOL0     C82954   9.130   5.856   1.052 -0.2566 -0.6293 -1.0470
  602MOL0     N82955   9.219   5.745   1.061  0.4010  0.5162 -0.9868
  602MOL0     C82956   9.219   5.620   0.999  0.3180  0.5178 -0.4691
  602MOL0     C82957   9.347   5.579   1.020  0.2359  0.7754 -0.3989
  602MOL0     C82958   9.400   5.463   0.964  0.6532  0.6461  0.5081
  602MOL0     C82959   9.314   5.338   0.983  0.1586  0.1680  0.6148
  602MOL0     C82960   9.361   5.209   0.903 -1.3718 -1.0598 -0.2463
  602MOL0     C82961   9.348   5.231   0.753  0.0279  0.5312  1.0730
  602MOL0     O82962   9.388   5.124   0.662  0.0927 -0.0198 -0.4067
  602MOL0     C82963   9.517   5.136   0.617 -1.1326  0.7996 -0.6049
  602MOL0     C82964   9.535   5.077   0.489 -0.5831  0.3716 -0.2605
  602MOL0     C82965   9.659   5.072   0.416  0.3335  0.1479 -0.6283
  602MOL0     C82966   9.661   5.022   0.274  0.1004 -0.3848 -0.3661
  602MOL0     C82967   9.774   5.133   0.484 -0.4851  0.9970 -0.2874
  602MOL0     C82968   9.904   5.122   0.423  0.0157  0.3883 -0.3950
  602MOL0     O82969   9.949   5.000   0.386  0.8633 -1.0497  0.1065
  602MOL0     C82970  10.077   4.966   0.388 -1.6326 -0.1728 -0.5933
  602MOL0     C82971  10.115   4.879   0.288  1.1144  0.3137 -0.4984
  602MOL0     C82972  10.239   4.818   0.279 -0.4478  0.4638 -0.1100
  602MOL0     C82973  10.330   4.859   0.377 -0.1770  0.3008  0.2795
  602MOL0     O82974  10.458   4.802   0.384 -0.4028 -0.6322  1.2355
  602MOL0     C82975  10.565   4.895   0.386 -0.1452 -0.0127  0.2037
  602MOL0     C82976  10.658   4.867   0.504  0.9544  1.0466 -0.0144
  602MOL0     C82977  10.678   4.720   0.522 -0.8170  0.2934 -0.6285
  602MOL0     C82978  10.827   4.694   0.547  0.0671 -0.3954  1.2895
  602MOL0     C82979  10.852   4.543   0.544 -0.7406  0.1572  0.3591
  602MOL0     C82980  10.979   4.507   0.622 -0.7626 -0.9557  0.4296
  602MOL0     C82981  10.969   4.354   0.644  0.2377  0.6147  0.4529
  602MOL0     C82982  11.107   4.295   0.685 -0.0636  0.5474 -0.2171
  602MOL0    Cl82983  11.118   4.114   0.667  0.0753 -0.0201 -0.5588
  602MOL0     C82984  10.295   4.935   0.492  0.1208 -0.0124  1.2584
  602MOL0     C82985  10.167   4.991   0.496  0.1200  0.0430 -0.3239
  602MOL0     O82986   9.972   5.220   0.429 -0.5285  0.5973 -0.9018
  602MOL0     C82987   9.759   5.175   0.622 -0.6214 -0.6397  1.2916
  602MOL0     C82988   9.631   5.179   0.689  0.0448  0.2393 -0.4424
  602MOL0     N82989   9.424   5.674   1.098 -0.4547  0.1498  0.4005
  602MOL0     N82990   9.340   5.767   1.124  0.4950 -0.0528  0.3080
  602MOL0     C82991   7.991   5.836   0.857 -0.1902  0.8939  0.6399
  602MOL0     C82992   7.849   5.815   0.831  0.0158  0.1094 -0.2528
  602MOL0     C82993   7.441   5.820   0.596 -0.8717 -0.2120  0.3569
  602MOL0     C82994   7.383   5.860   0.717  0.5536 -0.3438  0.3401
  602MOL0     C82995   7.247   5.876   0.717 -0.0306  0.0281 -0.0975
  602MOL0     C82996   7.162   5.844   0.619 -0.5549 -0.1093  0.6631
  602MOL0     O82997   7.025   5.836   0.625  0.4221  0.3878 -0.1162
  602MOL0     C82998   6.964   5.839   0.747 -0.0948 -0.8560  0.1831
  602MOL0     C82999   6.956   5.708   0.805 -0.1698  0.6957  0.0434
  602MOL0     C83000   6.872   5.692   0.940 -1.3061  0.2364 -1.3731
  602MOL0     C83001   6.719   5.673   0.925 -0.6336  0.7196  0.7824
  602MOL0     C83002   6.642   5.721   1.048  0.2152  1.0042  0.3301
  602MOL0     C83003   6.586   5.758   1.152 -0.1992 -0.1171  0.8513
  602MOL0     C83004   7.215   5.794   0.500  0.2289 -0.4368 -0.1720
  602MOL0     C83005   7.357   5.786   0.486 -0.8931  0.1471 -0.3448
  602MOL0     C83006   7.404   5.749   0.349 -0.2728 -0.5803  0.3074
  602MOL0     H83007   7.828   5.891   0.509 -0.1191 -2.9145  0.0668
  602MOL0     H83008   8.068   5.903   0.537  0.0359  1.1576  0.7036
  602MOL0     H83009   8.230   5.747   0.914  1.0004 -1.0003 -0.5155
  602MOL0     H83010   8.256   5.921   0.938 -1.3244  1.4992 -2.3839
  602MOL0     H83011   8.437   5.709   0.862 -3.2353 -1.1029 -0.3733
  602MOL0     H83012   8.450   5.859   0.765 -0.8858 -0.0171 -0.4058
  602MOL0     H83013   8.440   5.972   1.029  2.7343  2.4912 -1.5037
  602MOL0     H83014   8.488   5.807   1.065 -0.6436 -1.3673 -0.9646
  602MOL0     H83015   8.673   5.910   0.856  1.0959  0.4965  0.6163
  602MOL0     H83016   8.642   6.040   0.974 -3.7694  1.4248 -1.3513
  602MOL0     H83017   8.743   5.760   1.016  0.3080  0.5595 -0.9015
  602MOL0     H83018   8.698   5.866   1.153 -1.1194  2.0826 -0.9670
  602MOL0     H83019   8.906   5.927   0.936 -0.8761  1.2091  0.5148
  602MOL0     H83020   8.878   6.029   1.079  0.2542  0.3385  0.8677
  602MOL0     H83021   8.974   5.731   1.104  1.7308 -0.2713 -1.2914
  602MOL0     H83022   8.996   5.869   1.214  1.1854  1.9429 -0.2830
  602MOL0     H83023   9.124   5.875   0.944  0.4299  6.7402 -0.3007
  602MOL0     H83024   9.170   5.946   1.099  0.7326 -0.4617 -2.1523
  602MOL0     H83025   9.148   5.565   0.937  1.8617 -1.2830 -0.7249
  602MOL0     H83026   9.499   5.443   1.004  0.5050  0.9997  1.0655
  602MOL0     H83027   9.414   5.474   0.856  2.9701  1.0119  0.7971
  602MOL0     H83028   9.296   5.311   1.087 -1.4713 -1.1560  0.0393
  602MOL0     H83029   9.218   5.357   0.936  1.1979  1.6457 -1.0456
  602MOL0     H83030   9.468   5.199   0.923 -0.0109  1.7090 -4.6459
  602MOL0     H83031   9.303   5.127   0.945 -1.3677  0.3502  2.7962
  602MOL0     H83032   9.243   5.246   0.729  0.6127  0.6837 -1.6931
  602MOL0     H83033   9.403   5.320   0.719  1.0189 -0.0828  1.0249
  602MOL0     H83034   9.453   5.026   0.442  0.5495 -0.9879 -0.8136
  602MOL0     H83035   9.572   5.033   0.212  0.6281  0.8117 -0.9537
  602MOL0     H83036   9.677   4.914   0.280  2.7641 -0.0879 -0.6789
  602MOL0     H83037   9.741   5.069   0.215 -2.2729  1.5387 -2.2598
  602MOL0     H83038  10.040   4.848   0.216  0.0338  0.3133  0.6037
  602MOL0     H83039  10.257   4.739   0.208  0.9449  0.2364  0.4575
  602MOL0     H83040  10.625   4.871   0.297  0.3806  2.3486 -0.1464
  602MOL0     H83041  10.551   5.003   0.379  0.4910 -0.0214 -3.5491
  602MOL0     H83042  10.752   4.917   0.484 -0.5911  3.8089 -0.8792
  602MOL0     H83043  10.604   4.907   0.590 -2.3694 -0.8609 -0.9912
  602MOL0     H83044  10.664   4.671   0.425 -2.0678  0.7028 -0.6714
  602MOL0     H83045  10.617   4.676   0.602 -1.7608 -1.3837 -2.1960
  602MOL0     H83046  10.874   4.742   0.634  0.8783  1.8466 -0.2914
  602MOL0     H83047  10.880   4.741   0.463 -0.2820 -0.7735  0.8527
  602MOL0     H83048  10.767   4.499   0.598 -0.8238 -2.1651 -1.5144
  602MOL0     H83049  10.847   4.496   0.445 -0.8247 -0.5743  0.7016
  602MOL0     H83050  10.980   4.561   0.717  0.0392 -0.0725 -0.0752
  602MOL0     H83051  11.067   4.536   0.565 -0.5432 -1.2395  0.6214
  602MOL0     H83052  10.939   4.300   0.554  1.9744 -0.6012  0.5512
  602MOL0     H83053  10.891   4.317   0.711 -0.5034 -2.8588 -2.0774
  602MOL0     H83054  11.131   4.315   0.790  1.2849 -0.5984 -0.2774
  602MOL0     H83055  11.190   4.338   0.629  0.6777 -1.5770 -0.8227
  602MOL0     H83056  10.366   4.947   0.573 -1.3760  1.7650  2.3961
  602MOL0     H83057  10.140   5.046   0.586 -2.2529  0.4834 -1.2191
  602MOL0     H83058   9.850   5.204   0.675 -0.1380  0.8712 -0.2914
  602MOL0     H83059   9.623   5.223   0.788  0.7578 -0.7546  0.0854
  602MOL0     H83060   8.030   5.820   0.957 -0.0528  0.5178  0.5278
  602MOL0     H83061   7.799   5.803   0.926  0.6692 -0.7948 -0.0093
  602MOL0     H83062   7.437   5.878   0.809 -0.7117  0.5920  0.9381
  602MOL0     H83063   7.209   5.900   0.816  1.7287 -2.1211  1.1883
  602MOL0     H83064   6.999   5.913   0.819 -0.3061 -1.7915  1.2787
  602MOL0     H83065   6.861   5.864   0.719  1.3089  1.7197 -3.3276
  602MOL0     H83066   7.057   5.666   0.808 -0.2276  0.3268 -1.9714
  602MOL0     H83067   6.914   5.643   0.727  3.0824 -0.0870 -1.2248
  602MOL0     H83068   6.906   5.608   1.001  0.8126  1.2622 -1.0450
  602MOL0     H83069   6.883   5.778   1.008  0.4790 -0.3264 -0.8839
  602MOL0     H83070   6.679   5.576   0.893  1.2583 -0.5618  2.0983
  602MOL0     H83071   6.694   5.738   0.841 -0.5349 -1.2876 -0.8534
  602MOL0     H83072   6.526   5.801   1.230 -0.4886 -1.3955  1.3508
  602MOL0     H83073   7.143   5.768   0.423 -0.1042  1.7074 -0.6373
  602MOL0     H83074   7.459   5.832   0.303 -2.0890  0.5175 -0.0002
  602MOL0     H83075   7.474   5.665   0.351  1.5612  0.8273 -0.9503
  602MOL0     H83076   7.321   5.724   0.283 -1.4297  0.3091  1.3634
  603MOL0     O83077   4.114   8.605   5.060 -0.0407  0.0460 -0.2555
  603MOL0     C83078   4.018   8.586   4.986  0.1589 -0.4401  0.1347
  603MOL0     O83079   3.989   8.470   4.915 -0.1714  0.2630  0.1658
  603MOL0     C83080   4.077   8.369   4.912 -1.1794 -0.0100  0.5510
  603MOL0     C83081   4.028   8.240   4.894  0.2905 -0.3257  0.2534
  603MOL0     C83082   4.114   8.128   4.909  0.3736  0.7420 -0.6846
  603MOL0     C83083   4.258   8.136   4.930  0.0712  0.1315 -0.3039
  603MOL0     O83084   4.356   8.040   4.949  0.6946 -0.6747  0.3966
  603MOL0     C83085   4.309   7.907   4.966 -0.6405  0.4885  0.2960
  603MOL0     C83086   4.416   7.810   4.940  0.1588  0.1519  0.4015
  603MOL0     C83087   4.524   7.806   5.057  0.2434  1.0574  0.4481
  603MOL0     C83088   4.630   7.694   5.045  0.1822  0.8140 -0.9449
  603MOL0     C83089   4.737   7.728   4.951 -0.3033  0.1541 -0.0494
  603MOL0     C83090   4.855   7.630   4.945 -0.4392 -0.6267  0.1101
  603MOL0     C83091   4.967   7.690   4.863  0.2071  0.7632  0.6687
  603MOL0     C83092   5.053   7.571   4.795  0.3836 -1.0236  0.2424
  603MOL0     N83093   4.988   7.503   4.692  0.1680  0.2133 -0.5485
  603MOL0     C83094   5.029   7.510   4.559 -0.4131  0.4824 -0.1709
  603MOL0     C83095   4.961   7.417   4.498  0.2149  0.4300  0.5342
  603MOL0     C83096   4.964   7.374   4.352 -0.7139  0.5555 -0.1925
  603MOL0     C83097   5.079   7.287   4.307  0.0668 -0.6190  0.1248
  603MOL0     C83098   5.081   7.153   4.364  1.0227  0.5976  0.7677
  603MOL0     C83099   4.972   7.053   4.305 -0.6219 -0.2979  0.1086
  603MOL0     O83100   4.978   6.925   4.371 -0.4333 -0.1948 -0.3721
  603MOL0     C83101   4.865   6.848   4.362 -0.3840  0.3328 -0.7042
  603MOL0     C83102   4.840   6.756   4.466  0.4143 -0.7028 -0.6437
  603MOL0     C83103   4.734   6.669   4.473 -0.2078 -0.3482 -0.1056
  603MOL0     C83104   4.715   6.575   4.588 -0.4959 -0.7369 -0.2345
  603MOL0     C83105   4.637   6.676   4.373 -0.1285  0.1713 -1.1905
  603MOL0     C83106   4.519   6.587   4.361 -0.0433  0.6686 -0.4143
  603MOL0     O83107   4.406   6.658   4.334 -0.2165  0.1778  0.5885
  603MOL0     C83108   4.320   6.586   4.261  0.1826  0.3262 -0.2611
  603MOL0     C83109   4.348   6.513   4.143 -0.5144 -0.4356 -0.5209
  603MOL0     C83110   4.251   6.436   4.083  0.0768 -0.0582 -0.1138
  603MOL0     C83111   4.122   6.425   4.132 -0.3074 -0.0749  0.9151
  603MOL0     O83112   4.011   6.374   4.059  0.0241  0.1202 -0.6746
  603MOL0     C83113   4.029   6.358   3.919 -0.2251  0.6969  0.2071
  603MOL0     C83114   3.893   6.307   3.866  1.0891 -0.4459  0.7129
  603MOL0     C83115   3.839   6.183   3.927 -0.1409  0.1508  0.1768
  603MOL0     C83116   3.690   6.169   3.908 -0.4930  0.6191 -0.1369
  603MOL0     C83117   3.606   6.060   3.987  0.4944 -0.1656  0.4522
  603MOL0     C83118   3.585   5.935   3.904 -0.1249 -0.0578 -0.4050
  603MOL0     C83119   3.515   5.832   3.990 -0.4253  0.5651 -0.3554
  603MOL0     C83120   3.471   5.703   3.918 -1.0914 -0.8659  0.2545
  603MOL0    Cl83121   3.379   5.599   4.030 -0.6134  0.1222  0.0101
  603MOL0     C83122   4.093   6.495   4.243 -0.5873 -0.1721  0.2790
  603MOL0     C83123   4.193   6.563   4.314  0.6732 -0.6660 -0.5865
  603MOL0     O83124   4.516   6.473   4.389 -0.6128  0.6740  0.4642
  603MOL0     C83125   4.648   6.776   4.271 -0.7551  0.0453 -0.4300
  603MOL0     C83126   4.763   6.856   4.264 -0.5228  0.4564  0.3584
  603MOL0     N83127   4.881   7.350   4.590 -0.1862  0.2294  0.1317
  603MOL0     N83128   4.899   7.400   4.708 -0.2918 -0.2462 -0.3827
  603MOL0     C83129   4.296   8.269   4.929  0.0791  0.9508  0.3032
  603MOL0     C83130   4.213   8.380   4.915  0.7576  0.2948  0.2467
  603MOL0     C83131   3.923   8.693   4.973 -0.2272  0.1240 -0.4026
  603MOL0     C83132   3.971   8.824   4.952 -0.3745  0.5518 -1.0126
  603MOL0     C83133   3.888   8.921   4.916  0.6339 -0.4074 -0.5687
  603MOL0     C83134   3.754   8.902   4.906 -0.1224 -1.0732  0.0810
  603MOL0     O83135   3.668   9.004   4.875  0.2880 -0.8454  0.1569
  603MOL0     C83136   3.727   9.137   4.859 -0.0819 -0.8748  0.3860
  603MOL0     C83137   3.625   9.250   4.826 -0.2311 -0.1839 -0.1047
  603MOL0     C83138   3.513   9.250   4.935 -0.0131  0.4547 -0.1972
  603MOL0     C83139   3.389   9.331   4.895 -0.8549 -0.6234 -0.5803
  603MOL0     C83140   3.404   9.474   4.935  0.3239  0.2172 -0.2753
  603MOL0     C83141   3.408   9.587   4.995 -0.2152  0.1049  0.2983
  603MOL0     C83142   3.699   8.776   4.937 -0.3275 -0.6197  0.0623
  603MOL0     C83143   3.784   8.667   4.969  0.2787  0.1614  0.4424
  603MOL0     C83144   3.714   8.534   4.991 -1.2207 -0.2826 -0.2235
  603MOL0     H83145   3.921   8.230   4.883  0.0150  0.9266  1.3852
  603MOL0     H83146   4.069   8.032   4.888  1.2840  1.1022 -5.1159
  603MOL0     H83147   4.224   7.889   4.900 -0.7419  0.4802  0.4292
  603MOL0     H83148   4.273   7.904   5.069 -0.3760  1.3380  0.4189
  603MOL0     H83149   4.373   7.709   4.933 -0.7300  0.4624  1.1939
  603MOL0     H83150   4.469   7.833   4.847  1.6868  1.1157  1.4715
  603MOL0     H83151   4.570   7.905   5.063  3.1790 -0.2070  0.7104
  603MOL0     H83152   4.470   7.785   5.150  0.9152 -2.4381  0.1713
  603MOL0     H83153   4.681   7.684   5.141 -1.6068  0.0573 -0.0246
  603MOL0     H83154   4.577   7.599   5.030 -1.8949  1.5027  1.3893
  603MOL0     H83155   4.766   7.827   4.988  0.8041 -1.1443  2.8188
  603MOL0     H83156   4.687   7.743   4.854  1.1724 -0.0404 -0.8632
  603MOL0     H83157   4.895   7.593   5.040  0.0823 -1.1795 -0.3145
  603MOL0     H83158   4.813   7.540   4.899 -2.8191  0.7525 -0.5759
  603MOL0     H83159   5.024   7.765   4.918  2.3407  0.6788 -1.2496
  603MOL0     H83160   4.930   7.744   4.775  1.0731 -2.2066 -1.6981
  603MOL0     H83161   5.149   7.613   4.763  2.0174 -3.3155  1.8330
  603MOL0     H83162   5.095   7.494   4.860  0.0726 -0.1430  1.5294
  603MOL0     H83163   5.102   7.577   4.514 -1.7492  1.3415 -1.1165
  603MOL0     H83164   4.957   7.458   4.282  1.7906  0.9257 -0.0685
  603MOL0     H83165   4.867   7.325   4.337 -1.8783  2.3586  1.0992
  603MOL0     H83166   5.063   7.291   4.199 -0.3656  2.5571  0.2279
  603MOL0     H83167   5.173   7.333   4.340  1.3922 -3.2312  0.3297
  603MOL0     H83168   5.170   7.098   4.331 -1.8232 -2.6866 -2.3840
  603MOL0     H83169   5.077   7.152   4.473  3.3943 -2.4072  0.9801
  603MOL0     H83170   4.875   7.100   4.328 -0.3959 -1.3592  3.8385
  603MOL0     H83171   4.977   7.041   4.196  0.6440 -0.0938  0.1302
  603MOL0     H83172   4.908   6.756   4.551  0.5805 -3.9744 -0.6715
  603MOL0     H83173   4.781   6.490   4.569  2.1793  0.8864  1.2429
  603MOL0     H83174   4.614   6.544   4.615  0.0206 -0.6848  1.9232
  603MOL0     H83175   4.758   6.627   4.674  4.4374  2.5997 -4.1407
  603MOL0     H83176   4.453   6.503   4.118 -0.2492 -3.7662  1.3557
  603MOL0     H83177   4.281   6.378   3.997  0.8070 -1.4865  1.0589
  603MOL0     H83178   4.055   6.453   3.873  2.7934  0.6443  1.5480
  603MOL0     H83179   4.110   6.287   3.900  1.3391  2.4224  0.0975
  603MOL0     H83180   3.826   6.390   3.891  0.6418 -0.2645 -0.9626
  603MOL0     H83181   3.895   6.296   3.757  0.3807  2.8603  0.2670
  603MOL0     H83182   3.846   6.191   4.036 -1.0145 -1.0050  0.3342
  603MOL0     H83183   3.892   6.094   3.892 -1.2438 -0.1467 -0.7788
  603MOL0     H83184   3.671   6.148   3.803  1.0791 -1.2534 -0.0993
  603MOL0     H83185   3.649   6.266   3.939 -3.0583  0.0579 -1.5309
  603MOL0     H83186   3.664   6.038   4.077 -1.8902 -1.8128  1.7318
  603MOL0     H83187   3.505   6.093   4.013  0.0524 -1.8236  1.0053
  603MOL0     H83188   3.687   5.896   3.893 -1.0809 -2.3824 -2.0120
  603MOL0     H83189   3.540   5.947   3.805  1.3579 -3.1472 -1.6133
  603MOL0     H83190   3.425   5.878   4.033  0.5015  1.2693  0.8982
  603MOL0     H83191   3.580   5.817   4.077  1.5132  3.1447 -1.2108
  603MOL0     H83192   3.571   5.662   3.901 -1.3922 -1.5916  0.2034
  603MOL0     H83193   3.416   5.733   3.828  1.9753 -1.1696 -1.8866
  603MOL0     H83194   3.996   6.480   4.288 -0.6955 -2.1639 -0.5077
  603MOL0     H83195   4.176   6.600   4.414 -1.8976 -0.5242 -0.9926
  603MOL0     H83196   4.577   6.804   4.193  0.1408  1.2875 -0.8334
  603MOL0     H83197   4.766   6.918   4.175 -3.5156 -2.8014 -2.3427
  603MOL0     H83198   4.403   8.282   4.942  0.0062  0.8837  1.0099
  603MOL0     H83199   4.259   8.478   4.911  2.7010 -0.5854 -0.1604
  603MOL0     H83200   4.077   8.844   4.966 -0.0145 -2.0534  0.7672
  603MOL0     H83201   3.933   9.019   4.914 -0.5409  0.1339 -1.0551
  603MOL0     H83202   3.787   9.170   4.945  1.3300  0.1342 -0.9436
  603MOL0     H83203   3.789   9.147   4.769 -1.0019 -0.6830 -0.2347
  603MOL0     H83204   3.584   9.219   4.729 -1.8673  1.3920  0.0279
  603MOL0     H83205   3.665   9.351   4.830 -3.0889  1.0139  1.2308
  603MOL0     H83206   3.481   9.146   4.946 -3.2699  1.5397  1.8225
  603MOL0     H83207   3.560   9.289   5.025 -1.7879  0.7327  0.6597
  603MOL0     H83208   3.301   9.289   4.945 -0.6923 -0.2405  0.0391
  603MOL0     H83209   3.374   9.328   4.787  0.5187  3.7540 -1.1160
  603MOL0     H83210   3.426   9.682   5.041 -2.2793  1.0672 -0.7602
  603MOL0     H83211   3.595   8.747   4.927 -0.1819 -1.3187  0.5578
  603MOL0     H83212   3.605   8.544   4.993 -1.2984 -1.0545  1.6592
  603MOL0     H83213   3.758   8.460   4.922  0.3727 -1.1819  1.6532
  603MOL0     H83214   3.747   8.495   5.088 -0.0109 -0.4254 -0.6697
  604MOL0     O83215   3.357   1.355   6.398 -0.3180  1.1446 -0.0256
  604MOL0     C83216   3.353   1.232   6.365  0.0160  0.7196  0.0648
  604MOL0     O83217   3.452   1.161   6.309  0.3239  0.5398 -0.3046
  604MOL0     C83218   3.566   1.243   6.286 -0.1407 -0.1391  0.7218
  604MOL0     C83219   3.607   1.278   6.153 -0.3951  0.8013  1.0381
  604MOL0     C83220   3.715   1.364   6.125  0.2808 -1.1424 -0.8793
  604MOL0     C83221   3.794   1.412   6.231  0.1453 -0.6621  0.4182
  604MOL0     O83222   3.913   1.483   6.218 -0.1012 -0.2099  0.3991
  604MOL0     C83223   3.919   1.576   6.109 -0.6429  0.7881  1.0575
  604MOL0     C83224   4.061   1.638   6.091  0.4244  0.4571 -0.3230
  604MOL0     C83225   4.158   1.525   6.057 -0.0455  0.3767  0.0044
  604MOL0     C83226   4.286   1.582   6.002 -0.2125  0.1521  0.7082
  604MOL0     C83227   4.389   1.479   5.961 -0.6060 -0.1486  0.1426
  604MOL0     C83228   4.519   1.536   5.907  0.4905 -0.4138  0.3808
  604MOL0     C83229   4.607   1.427   5.853 -0.3810 -0.0300 -0.1443
  604MOL0     C83230   4.730   1.481   5.780  0.7411  0.1623 -0.2307
  604MOL0     N83231   4.844   1.387   5.800 -0.0625 -0.1019 -0.5217
  604MOL0     C83232   4.977   1.423   5.787  0.7302  0.3919 -0.8572
  604MOL0     C83233   5.049   1.311   5.770 -0.8734  1.0175 -1.1099
  604MOL0     C83234   5.193   1.303   5.774 -0.7480  0.0398 -0.6279
  604MOL0     C83235   5.253   1.248   5.637  0.6168 -1.0616 -0.2616
  604MOL0     C83236   5.264   1.369   5.546 -0.2944  0.3962  0.6723
  604MOL0     C83237   5.306   1.314   5.402 -0.7004 -1.3240  0.6216
  604MOL0     O83238   5.440   1.282   5.387 -0.1235 -0.3935  0.5687
  604MOL0     C83239   5.524   1.387   5.400 -0.3800  0.1009 -0.6890
  604MOL0     C83240   5.507   1.500   5.314  1.0708  0.8589  0.5593
  604MOL0     C83241   5.578   1.617   5.332  0.5120  0.2071  0.7135
  604MOL0     C83242   5.551   1.730   5.236 -0.8107  0.4574 -0.1306
  604MOL0     C83243   5.685   1.623   5.425  0.0600 -0.2601 -0.8603
  604MOL0     C83244   5.783   1.739   5.451  0.3984  0.7217  0.2937
  604MOL0     O83245   5.879   1.708   5.555  0.6345 -0.2022 -0.5600
  604MOL0     C83246   5.991   1.786   5.597 -0.1113 -0.2436 -0.3023
  604MOL0     C83247   6.098   1.720   5.670 -0.3498 -0.0796 -0.0840
  604MOL0     C83248   6.216   1.786   5.698 -0.5081  0.2936 -0.0033
  604MOL0     C83249   6.229   1.915   5.671  0.0099 -0.3197  0.4513
  604MOL0     O83250   6.324   1.990   5.732 -0.1898  0.5742 -0.5159
  604MOL0     C83251   6.445   1.976   5.666  0.5315  0.4930 -0.3507
  604MOL0     C83252   6.547   2.023   5.761  0.9490  0.7807  0.3002
  604MOL0     C83253   6.683   2.012   5.705  0.3135  0.0205 -0.3898
  604MOL0     C83254   6.786   2.050   5.817  0.3446 -0.1217 -0.3731
  604MOL0     C83255   6.929   2.091   5.769 -0.6669 -0.2426  0.4491
  604MOL0     C83256   6.943   2.208   5.664  0.0513  0.2094  0.0387
  604MOL0     C83257   7.095   2.250   5.650 -0.1406 -0.2417  0.3555
  604MOL0     C83258   7.108   2.325   5.517 -0.8504 -0.0589  0.3071
  604MOL0    Cl83259   7.280   2.357   5.488  0.3494 -0.1418 -0.3293
  604MOL0     C83260   6.118   1.987   5.620 -0.1283 -0.4245  0.0834
  604MOL0     C83261   6.004   1.925   5.579  0.1983 -0.1183  0.4968
  604MOL0     O83262   5.783   1.837   5.383 -0.6810 -0.7350  0.2372
  604MOL0     C83263   5.696   1.510   5.512 -0.5405  0.6487  0.2629
  604MOL0     C83264   5.619   1.394   5.499  0.1376 -0.6914  0.5669
  604MOL0     N83265   4.953   1.207   5.767 -0.4733  0.5115 -0.0810
  604MOL0     N83266   4.841   1.251   5.794  0.1218 -0.2303  0.4840
  604MOL0     C83267   3.766   1.375   6.358  0.3808  0.2771  0.9257
  604MOL0     C83268   3.645   1.303   6.384 -0.8721  0.6779  0.4454
  604MOL0     C83269   3.234   1.157   6.417  0.4246 -0.3081 -0.0224
  604MOL0     C83270   3.247   1.030   6.474 -0.3041 -0.0376 -1.3324
  604MOL0     C83271   3.141   0.957   6.511  0.0958  0.5332  0.2493
  604MOL0     C83272   3.015   1.010   6.498  0.3590  0.0192  0.2624
  604MOL0     O83273   2.914   0.926   6.533  0.6920 -0.4661  0.1788
  604MOL0     C83274   2.779   0.934   6.476  0.0546  0.7796 -0.5976
  604MOL0     C83275   2.686   0.818   6.523  0.5633 -0.4680 -0.4923
  604MOL0     C83276   2.730   0.678   6.487 -0.3647 -0.2331 -0.4206
  604MOL0     C83277   2.635   0.570   6.557 -0.2774 -0.1517  0.8053
  604MOL0     C83278   2.489   0.596   6.565  0.1234  0.0739 -0.0836
  604MOL0     C83279   2.369   0.595   6.592 -0.9975 -0.4550  0.4933
  604MOL0     C83280   2.991   1.140   6.447 -0.5635 -0.0912 -0.0746
  604MOL0     C83281   3.103   1.210   6.402 -0.3427 -0.2522  0.1786
  604MOL0     C83282   3.071   1.345   6.344 -0.2448  0.1368  0.4721
  604MOL0     H83283   3.549   1.233   6.072  0.7502 -1.6358  1.4716
  604MOL0     H83284   3.740   1.385   6.021 -0.9781  1.5067 -0.7244
  604MOL0     H83285   3.855   1.663   6.123 -2.6525 -0.2518 -0.9791
  604MOL0     H83286   3.889   1.523   6.018  1.0472 -0.7196  1.3108
  604MOL0     H83287   4.055   1.713   6.012 -2.0791  1.0926  0.3762
  604MOL0     H83288   4.088   1.691   6.182 -0.6921 -1.3015  1.1008
  604MOL0     H83289   4.181   1.455   6.138 -2.4218 -3.7871 -2.5824
  604MOL0     H83290   4.100   1.460   5.990 -0.3351 -0.1489  0.7527
  604MOL0     H83291   4.258   1.649   5.920 -1.1534  0.4197  1.2377
  604MOL0     H83292   4.332   1.651   6.073 -0.4803 -0.3091  1.3297
  604MOL0     H83293   4.340   1.409   5.892 -0.5808  0.9360 -1.0132
  604MOL0     H83294   4.413   1.432   6.057  2.7251  0.0151 -0.5000
  604MOL0     H83295   4.479   1.614   5.842 -0.3187  0.1762  1.5565
  604MOL0     H83296   4.562   1.587   5.994 -2.1625 -0.5448  1.8966
  604MOL0     H83297   4.556   1.368   5.776  1.8234  0.5780 -2.1935
  604MOL0     H83298   4.640   1.366   5.938  2.6263  0.3526 -0.8930
  604MOL0     H83299   4.717   1.482   5.672  0.2314  1.8297 -0.1920
  604MOL0     H83300   4.754   1.583   5.814 -0.4459  0.3391  0.1331
  604MOL0     H83301   5.026   1.518   5.805 -1.1801  1.0317  1.5712
  604MOL0     H83302   5.214   1.239   5.861  0.5998 -1.7325 -2.1598
  604MOL0     H83303   5.243   1.397   5.796 -1.1389  0.5917 -1.9942
  604MOL0     H83304   5.347   1.200   5.664  0.5489 -1.6524 -1.0320
  604MOL0     H83305   5.180   1.173   5.605 -1.7709 -0.0845  2.4241
  604MOL0     H83306   5.165   1.413   5.530 -1.1335 -1.9564 -1.1602
  604MOL0     H83307   5.336   1.443   5.583  0.1428  0.7131 -0.7645
  604MOL0     H83308   5.243   1.230   5.371  0.2383 -1.2562 -1.6036
  604MOL0     H83309   5.272   1.382   5.323 -0.4385 -2.1083 -0.1793
  604MOL0     H83310   5.445   1.490   5.225 -0.8975  0.1504  1.9360
  604MOL0     H83311   5.446   1.731   5.204 -1.1105 -5.3965 -0.5313
  604MOL0     H83312   5.608   1.716   5.143  0.2228 -0.4965  0.6176
  604MOL0     H83313   5.575   1.828   5.278  6.4332 -0.2232 -1.3957
  604MOL0     H83314   6.093   1.615   5.700 -2.3526 -0.2554 -0.9212
  604MOL0     H83315   6.285   1.731   5.762 -1.2834 -0.1724  0.4551
  604MOL0     H83316   6.458   1.871   5.639  0.5424  0.4224 -0.0723
  604MOL0     H83317   6.434   2.029   5.571 -1.5772 -3.1001 -2.3491
  604MOL0     H83318   6.520   2.123   5.795  0.7679  2.0042 -3.0279
  604MOL0     H83319   6.542   1.956   5.848  1.6882 -1.8214 -1.5217
  604MOL0     H83320   6.683   2.083   5.622 -2.2460  0.4993 -0.0450
  604MOL0     H83321   6.705   1.915   5.658 -2.4623 -0.1606 -1.4657
  604MOL0     H83322   6.797   1.967   5.887  1.2397  0.1162 -0.2287
  604MOL0     H83323   6.746   2.133   5.877  1.2483  1.3597 -1.7355
  604MOL0     H83324   6.975   2.118   5.865  1.1476 -0.9158 -0.2002
  604MOL0     H83325   6.989   2.008   5.732 -0.3664 -0.4078  1.2754
  604MOL0     H83326   6.886   2.289   5.712  1.7985  0.6099  1.5523
  604MOL0     H83327   6.898   2.191   5.566 -1.0462 -0.3961  0.6266
  604MOL0     H83328   7.164   2.166   5.646  0.8795  0.6023 -2.4091
  604MOL0     H83329   7.124   2.307   5.740 -2.2122 -0.8433  1.4535
  604MOL0     H83330   7.050   2.417   5.534  0.4486  0.5439  1.7272
  604MOL0     H83331   7.076   2.258   5.437  1.1298  0.6075 -1.1067
  604MOL0     H83332   6.121   2.092   5.594 -2.6334 -0.7031 -1.6242
  604MOL0     H83333   5.930   1.990   5.534 -0.9143 -0.9308  1.1012
  604MOL0     H83334   5.774   1.509   5.588  0.8104 -3.3226 -0.9156
  604MOL0     H83335   5.617   1.315   5.574 -2.4238 -1.0902  0.1852
  604MOL0     H83336   3.832   1.407   6.438  1.6047 -0.6609  0.3210
  604MOL0     H83337   3.618   1.293   6.489 -0.0970 -1.2308  0.5046
  604MOL0     H83338   3.343   0.980   6.472  0.2065  0.9256 -1.6291
  604MOL0     H83339   3.166   0.858   6.546  0.1077  1.4374  3.0281
  604MOL0     H83340   2.747   1.032   6.512 -0.5133 -0.4015  2.3321
  604MOL0     H83341   2.792   0.926   6.367 -0.5770  0.8682 -0.6810
  604MOL0     H83342   2.585   0.836   6.485  0.6098  4.2468  1.0179
  604MOL0     H83343   2.691   0.827   6.632  0.1790  1.4327 -0.6053
  604MOL0     H83344   2.710   0.673   6.380 -0.8759  1.5788 -0.4401
  604MOL0     H83345   2.836   0.668   6.512 -0.3006 -0.2723 -0.7100
  604MOL0     H83346   2.686   0.557   6.653 -0.9127  1.1552  1.3416
  604MOL0     H83347   2.652   0.479   6.499  2.4520  0.4536  0.4864
  604MOL0     H83348   2.266   0.603   6.617 -0.6346 -0.5751  2.0998
  604MOL0     H83349   2.891   1.182   6.451  0.2914  2.0327  0.7572
  604MOL0     H83350   3.129   1.357   6.252 -0.7107 -2.0342 -0.1752
  604MOL0     H83351   2.965   1.347   6.316  0.0167 -1.0048 -0.7280
  604MOL0     H83352   3.095   1.412   6.427  1.3357 -1.2894  1.2080
  605MOL0     O83353   5.768   1.801   7.929 -0.4849 -0.3519  0.2536
  605MOL0     C83354   5.764   1.874   8.031 -0.0099  0.1838  0.5392
  605MOL0     O83355   5.835   1.987   8.056  0.1082 -0.4766  0.5595
  605MOL0     C83356   5.931   2.024   7.962  0.0495 -1.6099  0.0400
  605MOL0     C83357   6.068   2.037   8.004 -0.3186  1.0624  0.9334
  605MOL0     C83358   6.172   2.051   7.914 -0.2427  0.0303  0.4943
  605MOL0     C83359   6.131   2.085   7.781 -0.4065 -0.0860  0.3416
  605MOL0     O83360   6.239   2.103   7.698 -0.5831 -0.2021  0.3721
  605MOL0     C83361   6.221   2.125   7.555  0.1190 -0.2445 -0.5875
  605MOL0     C83362   6.355   2.175   7.515  0.2024  0.4096 -0.7095
  605MOL0     C83363   6.359   2.213   7.365 -0.0310 -0.4897  0.0525
  605MOL0     C83364   6.497   2.269   7.331 -0.1789  0.2533  0.3285
  605MOL0     C83365   6.519   2.296   7.178  0.0668  0.5258 -1.2265
  605MOL0     C83366   6.663   2.353   7.151 -0.2440 -0.4627 -0.1403
  605MOL0     C83367   6.695   2.350   6.999  0.0758  0.7187 -0.0930
  605MOL0     C83368   6.711   2.208   6.944  0.1121 -0.2202  0.6447
  605MOL0     N83369   6.853   2.154   6.952  0.2874 -0.9322 -0.7155
  605MOL0     C83370   6.878   2.027   6.980 -0.0584  0.1797 -0.4133
  605MOL0     C83371   7.009   2.010   6.961 -0.2080  0.1946 -0.4063
  605MOL0     C83372   7.088   1.883   6.985  0.7652 -0.2586  0.5236
  605MOL0     C83373   7.127   1.869   7.134 -0.3302  0.3892  0.7570
  605MOL0     C83374   7.211   1.743   7.164 -0.1082 -0.0097 -0.8287
  605MOL0     C83375   7.129   1.617   7.176  0.2266  0.1009  0.6713
  605MOL0     O83376   7.038   1.623   7.286  0.3957 -0.2605  0.2765
  605MOL0     C83377   7.096   1.634   7.406  0.0456  0.1873 -0.1034
  605MOL0     C83378   7.031   1.722   7.498  0.2159 -0.1314  0.0981
  605MOL0     C83379   7.073   1.728   7.630 -0.4941  0.6562  0.2558
  605MOL0     C83380   7.002   1.824   7.712  0.1330 -0.2242 -0.4021
  605MOL0     C83381   7.195   1.662   7.675  0.5244 -0.6855  0.1835
  605MOL0     C83382   7.266   1.678   7.805 -0.4312 -0.4957 -0.0723
  605MOL0     O83383   7.393   1.619   7.822 -0.1910  0.6209  0.1530
  605MOL0     C83384   7.444   1.608   7.949  0.4456 -0.2897  0.8211
  605MOL0     C83385   7.527   1.709   8.007  0.2899  0.2027 -0.4323
  605MOL0     C83386   7.573   1.693   8.134  1.3994 -0.2446  0.0189
  605MOL0     C83387   7.564   1.571   8.211  0.5322 -0.1876  0.1836
  605MOL0     O83388   7.616   1.540   8.342 -0.4338 -0.2050  0.2885
  605MOL0     C83389   7.741   1.602   8.385 -0.4860  0.6664 -1.3321
  605MOL0     C83390   7.708   1.725   8.471 -0.2139 -0.5849  0.9304
  605MOL0     C83391   7.835   1.813   8.494  0.7562  1.2400 -0.0842
  605MOL0     C83392   7.822   1.938   8.572  0.3576  0.0496 -0.4282
  605MOL0     C83393   7.827   1.913   8.727  0.1693  0.3715  0.7814
  605MOL0     C83394   7.706   1.842   8.784 -0.7007  0.2656 -0.3088
  605MOL0     C83395   7.565   1.891   8.746 -0.2591 -0.0423  0.0566
  605MOL0     C83396   7.454   1.892   8.861 -0.6253  0.1305  0.7936
  605MOL0    Cl83397   7.498   2.016   8.984  0.2363  0.3629 -0.0991
  605MOL0     C83398   7.475   1.473   8.154 -0.2277  0.5102 -0.3907
  605MOL0     C83399   7.416   1.493   8.023 -0.2228 -0.1009  0.1318
  605MOL0     O83400   7.209   1.744   7.891  0.1294 -0.2488  0.2402
  605MOL0     C83401   7.247   1.574   7.581  0.0261 -0.0983  0.0451
  605MOL0     C83402   7.209   1.567   7.446  0.0427 -0.1840 -0.7626
  605MOL0     N83403   7.064   2.135   6.914  0.5406  0.9187 -0.2655
  605MOL0     N83404   6.961   2.218   6.907  0.2341  0.2815 -0.2760
  605MOL0     C83405   6.002   2.077   7.740  0.2479  0.4789 -0.2424
  605MOL0     C83406   5.898   2.052   7.826 -0.0449  0.2340  0.0811
  605MOL0     C83407   5.656   1.836   8.132  0.4182 -0.1043 -1.5695
  605MOL0     C83408   5.640   1.919   8.242 -0.6355 -0.2699 -0.2992
  605MOL0     C83409   5.541   1.902   8.339  0.2343  0.3757 -0.4965
  605MOL0     C83410   5.454   1.792   8.330  0.3615 -0.0434  0.0477
  605MOL0     O83411   5.359   1.775   8.433 -0.3581 -0.1759 -0.1253
  605MOL0     C83412   5.236   1.729   8.387  0.0614  0.6160  0.3334
  605MOL0     C83413   5.219   1.575   8.405 -0.1675  0.2471  0.2345
  605MOL0     C83414   5.251   1.542   8.545 -0.2070  1.0929  0.1829
  605MOL0     C83415   5.169   1.440   8.620 -0.0943 -0.5313 -0.5540
  605MOL0     C83416   5.029   1.486   8.629  0.9079 -0.9718  0.2506
  605MOL0     C83417   4.914   1.526   8.644 -0.8317 -0.0539  0.1241
  605MOL0     C83418   5.474   1.706   8.220  0.3031 -0.3940 -0.1299
  605MOL0     C83419   5.570   1.724   8.125 -0.3097 -0.7793 -0.3175
  605MOL0     C83420   5.559   1.633   8.002 -0.1613  0.4463  0.0787
  605MOL0     H83421   6.093   2.015   8.107  1.4666  0.9287  0.5035
  605MOL0     H83422   6.271   2.059   7.957 -1.1665 -1.5605  3.1894
  605MOL0     H83423   6.163   2.216   7.535  1.4450  1.7658  3.5003
  605MOL0     H83424   6.175   2.043   7.498 -1.8341 -0.3591  1.0580
  605MOL0     H83425   6.389   2.258   7.578  1.7764 -1.6025  1.2255
  605MOL0     H83426   6.426   2.096   7.537 -2.1857 -1.6756 -0.0286
  605MOL0     H83427   6.344   2.127   7.299  0.9149 -2.8940  2.7879
  605MOL0     H83428   6.287   2.295   7.362  2.1416  1.6139  1.9448
  605MOL0     H83429   6.516   2.359   7.390  2.0566  1.5177 -2.1017
  605MOL0     H83430   6.580   2.204   7.361  0.2824 -0.3135 -1.9875
  605MOL0     H83431   6.437   2.361   7.147 -0.5497  1.9174  2.7386
  605MOL0     H83432   6.513   2.198   7.131 -0.3702 -0.5478  0.9195
  605MOL0     H83433   6.676   2.457   7.183 -2.6906  0.9738 -3.2461
  605MOL0     H83434   6.733   2.293   7.210 -0.7651  0.1630  1.1471
  605MOL0     H83435   6.787   2.407   6.983  0.4595  0.6959  1.8181
  605MOL0     H83436   6.613   2.401   6.947  1.4658  1.7548 -1.3570
  605MOL0     H83437   6.631   2.141   6.977  0.1482 -1.0822 -0.8998
  605MOL0     H83438   6.700   2.220   6.836 -0.0022 -2.7447  0.3044
  605MOL0     H83439   6.810   1.943   6.994  0.6235 -1.1066 -3.7836
  605MOL0     H83440   7.175   1.882   6.918 -0.3516  2.6668 -1.1154
  605MOL0     H83441   7.026   1.800   6.949 -0.1786  1.3498 -1.8095
  605MOL0     H83442   7.187   1.958   7.158 -0.2057  1.2795 -2.3459
  605MOL0     H83443   7.044   1.885   7.203  0.2352  4.7539  0.7460
  605MOL0     H83444   7.280   1.732   7.079 -0.2274 -1.6832 -0.7425
  605MOL0     H83445   7.277   1.755   7.251 -0.6219  1.6476 -0.6356
  605MOL0     H83446   7.077   1.598   7.082  1.3443 -0.6908  0.1863
  605MOL0     H83447   7.199   1.533   7.186 -2.1912 -2.0037  1.1094
  605MOL0     H83448   6.958   1.796   7.466 -0.5608 -1.3658 -1.0540
  605MOL0     H83449   7.067   1.911   7.728  1.1642 -0.8912 -0.8211
  605MOL0     H83450   6.989   1.787   7.814 -1.1643  0.9360 -0.1300
  605MOL0     H83451   6.902   1.853   7.680  0.5537  1.7053 -0.0627
  605MOL0     H83452   7.556   1.788   7.939 -3.3690  0.4377 -1.9931
  605MOL0     H83453   7.635   1.770   8.179  0.1436  0.8796 -0.1130
  605MOL0     H83454   7.789   1.521   8.441 -1.5212  1.2505  0.4858
  605MOL0     H83455   7.809   1.628   8.303  1.7765  1.2157  0.6199
  605MOL0     H83456   7.622   1.775   8.425 -0.4162 -0.1703  1.7336
  605MOL0     H83457   7.672   1.680   8.564 -0.6285 -1.1549  0.5017
  605MOL0     H83458   7.870   1.841   8.395 -1.1404  1.1146 -0.8304
  605MOL0     H83459   7.914   1.753   8.541  1.6550 -0.0066 -2.9684
  605MOL0     H83460   7.724   1.978   8.544  1.0498  1.0363 -1.4964
  605MOL0     H83461   7.908   2.000   8.544 -0.5051  1.8533  0.7106
  605MOL0     H83462   7.919   1.865   8.761  2.8435  1.3003 -4.0944
  605MOL0     H83463   7.832   2.013   8.771  1.4259  0.1697  1.1399
  605MOL0     H83464   7.711   1.849   8.893 -1.8389 -1.9491 -0.0523
  605MOL0     H83465   7.717   1.737   8.757  1.8998  0.6459 -0.9852
  605MOL0     H83466   7.533   1.849   8.651  0.4486  1.4330 -0.8701
  605MOL0     H83467   7.561   1.997   8.718 -0.1449 -0.3033 -0.9640
  605MOL0     H83468   7.449   1.791   8.902 -0.3889 -0.9470 -1.6327
  605MOL0     H83469   7.355   1.914   8.820 -0.9886  1.5574  2.3147
  605MOL0     H83470   7.460   1.374   8.195  0.0597  0.6238 -0.0122
  605MOL0     H83471   7.348   1.421   7.977 -1.4892  1.3220 -0.3051
  605MOL0     H83472   7.330   1.510   7.609  0.4362  1.2183  2.1102
  605MOL0     H83473   7.258   1.487   7.391 -1.2639 -0.3488 -1.7403
  605MOL0     H83474   5.976   2.094   7.637  0.0765 -0.3600 -0.3468
  605MOL0     H83475   5.795   2.043   7.792 -0.2954  0.6017  0.7245
  605MOL0     H83476   5.706   2.003   8.259 -1.1364 -0.0593  0.6375
  605MOL0     H83477   5.532   1.970   8.422 -0.5476 -1.1719  0.7343
  605MOL0     H83478   5.161   1.777   8.451  2.2874  2.3411  1.7805
  605MOL0     H83479   5.210   1.767   8.288  2.7127  0.2916 -0.5635
  605MOL0     H83480   5.287   1.527   8.334 -0.2014 -1.7763  1.5022
  605MOL0     H83481   5.117   1.541   8.384  0.6436 -1.0933 -1.9484
  605MOL0     H83482   5.356   1.509   8.550 -1.3595 -3.0499  0.7333
  605MOL0     H83483   5.232   1.633   8.602  2.1174  0.6331  1.8647
  605MOL0     H83484   5.215   1.434   8.719 -0.9107 -1.2925 -0.2060
  605MOL0     H83485   5.178   1.343   8.569  0.6907  0.3318 -2.1444
  605MOL0     H83486   4.808   1.542   8.655 -0.9404  0.0873 -1.0657
  605MOL0     H83487   5.405   1.626   8.195  0.0321 -0.3572  0.4811
  605MOL0     H83488   5.503   1.544   8.033  0.3758 -0.2240 -0.8390
  605MOL0     H83489   5.499   1.674   7.921 -1.2799 -0.4817  0.4075
  605MOL0     H83490   5.657   1.602   7.966  0.2723  1.1930  0.5866
  606MOL0     O83491   9.475   9.730   5.480 -0.3409 -0.5187  0.5225
  606MOL0     C83492   9.402   9.737   5.375 -0.9033 -0.4683  0.0193
  606MOL0     O83493   9.453   9.757   5.250  0.8276 -0.2753 -0.6509
  606MOL0     C83494   9.589   9.777   5.231 -0.7254 -0.3387 -0.4323
  606MOL0     C83495   9.654   9.888   5.280 -0.9793 -0.4846 -0.5142
  606MOL0     C83496   9.798   9.897   5.281  0.3750 -0.2032 -0.1329
  606MOL0     C83497   9.871   9.802   5.213  0.6157 -0.8334  0.7360
  606MOL0     O83498  10.008   9.825   5.216  0.8251  0.0111  0.2327
  606MOL0     C83499  10.080   9.711   5.250 -0.5379  0.1081 -0.6298
  606MOL0     C83500  10.226   9.752   5.246  0.0714 -0.0455 -0.5602
  606MOL0     C83501  10.280   9.781   5.104  0.3232  0.1138 -1.7979
  606MOL0     C83502  10.382   9.684   5.052 -0.2713 -0.2375  0.8966
  606MOL0     C83503  10.459   9.747   4.926 -0.4687  0.4468 -0.6436
  606MOL0     C83504  10.604   9.703   4.922  0.0337 -0.3793  0.2205
  606MOL0     C83505  10.699   9.757   4.820  0.0027  0.0432  0.4388
  606MOL0     C83506  10.742   9.894   4.850 -0.4795 -1.2310  0.6184
  606MOL0     N83507  10.829   9.944   4.737 -0.1519 -0.9174  0.5231
  606MOL0     C83508  10.932   9.874   4.671 -0.2341 -1.0854 -1.1572
  606MOL0     C83509  10.958   9.927   4.550 -0.2908  0.1793 -0.2023
  606MOL0     C83510  11.058   9.876   4.452  0.2834  0.0251 -0.6998
  606MOL0     C83511  11.200   9.915   4.485  0.5374 -0.0884 -0.7520
  606MOL0     C83512  11.293   9.865   4.374 -0.5965 -0.1309  0.1348
  606MOL0     C83513  11.433   9.863   4.435 -0.2485 -0.6649 -0.7392
  606MOL0     O83514  11.536   9.827   4.333  0.5131  0.2942 -0.6943
  606MOL0     C83515  11.662   9.869   4.361 -0.4644  0.3683 -0.3539
  606MOL0     C83516  11.718   9.863   4.491  1.1211  0.6619 -1.0135
  606MOL0     C83517  11.853   9.894   4.510 -0.1450 -0.5144 -0.8409
  606MOL0     C83518  11.908   9.856   4.650  0.6083 -0.0393 -0.6767
  606MOL0     C83519  11.934   9.941   4.410  0.0066  0.5136  0.2739
  606MOL0     C83520  12.073   9.989   4.430  0.0734  1.4619 -0.3152
  606MOL0     O83521  12.140  10.023   4.320 -0.2797  0.2362 -0.0562
  606MOL0     C83522  12.256  10.083   4.326  0.2116 -0.0278 -0.3259
  606MOL0     C83523  12.349  10.039   4.236 -0.1470  0.7556  0.0215
  606MOL0     C83524  12.474  10.095   4.233  0.3773 -0.3368 -0.1796
  606MOL0     C83525  12.510  10.193   4.331  0.3763  0.7922  0.1247
  606MOL0     O83526  12.632  10.235   4.337  0.3891 -0.0525 -0.0111
  606MOL0     C83527  12.671  10.339   4.431  0.4518  0.2293  0.2233
  606MOL0     C83528  12.811  10.396   4.380  0.1698  0.2615  1.4260
  606MOL0     C83529  12.844  10.540   4.406 -0.9190  0.0525  1.0388
  606MOL0     C83530  12.953  10.580   4.304  0.4266 -0.1677 -0.1027
  606MOL0     C83531  13.076  10.481   4.304 -0.0150 -0.1463 -0.4756
  606MOL0     C83532  13.187  10.534   4.219 -0.3328 -0.6985  1.3641
  606MOL0     C83533  13.136  10.563   4.076 -1.0805  0.2259  0.3149
  606MOL0     C83534  13.253  10.564   3.986 -0.4520 -0.3029 -0.3322
  606MOL0    Cl83535  13.188  10.630   3.827 -0.2575  0.3103 -0.6051
  606MOL0     C83536  12.410  10.239   4.419 -0.1779  0.5370 -0.5674
  606MOL0     C83537  12.282  10.188   4.415  0.6310  0.7160 -0.6595
  606MOL0     O83538  12.118   9.988   4.547  0.2257 -0.5596 -0.3011
  606MOL0     C83539  11.875   9.966   4.284  0.1048 -0.6502  0.1328
  606MOL0     C83540  11.751   9.918   4.259  0.4657 -0.3172 -1.2060
  606MOL0     N83541  10.878  10.031   4.545 -0.2945 -1.0792 -0.1041
  606MOL0     N83542  10.807  10.052   4.655 -0.2339 -0.1663 -0.1103
  606MOL0     C83543   9.800   9.700   5.144  0.0178  0.4561  0.0337
  606MOL0     C83544   9.663   9.685   5.152  0.8651  0.2373  0.4044
  606MOL0     C83545   9.259   9.760   5.390 -1.4675  1.1932  0.1766
  606MOL0     C83546   9.210   9.803   5.515 -0.2744 -0.8087 -0.5226
  606MOL0     C83547   9.074   9.823   5.530 -0.0258 -0.1096 -0.1219
  606MOL0     C83548   8.981   9.790   5.434  0.0763 -0.0882  0.8970
  606MOL0     O83549   8.839   9.824   5.425  0.1320  0.3644 -0.7877
  606MOL0     C83550   8.789   9.949   5.464 -0.9106  0.0420  0.1281
  606MOL0     C83551   8.759   9.953   5.613 -0.7020  0.6521  0.2114
  606MOL0     C83552   8.702  10.076   5.672 -0.0990 -0.3361  0.3827
  606MOL0     C83553   8.795  10.202   5.667  0.4073  0.1264 -0.3211
  606MOL0     C83554   8.797  10.281   5.544 -0.1824 -0.7035  1.1616
  606MOL0     C83555   8.797  10.352   5.443  0.7376 -1.5292 -0.0440
  606MOL0     C83556   9.032   9.743   5.313 -0.8127  1.0131  0.5850
  606MOL0     C83557   9.171   9.716   5.291  0.0749  0.1069 -0.1293
  606MOL0     C83558   9.205   9.651   5.162  0.2715  0.6225  0.3045
  606MOL0     H83559   9.605   9.972   5.328 -3.2559 -1.4403 -1.0196
  606MOL0     H83560   9.851   9.981   5.323  0.1447  0.2359 -0.6992
  606MOL0     H83561  10.057   9.617   5.199  1.4435 -0.8848  0.2409
  606MOL0     H83562  10.065   9.690   5.356 -1.0997  0.8390 -0.5548
  606MOL0     H83563  10.228   9.851   5.291  1.2927 -0.5755  0.6343
  606MOL0     H83564  10.296   9.681   5.293  1.5479 -1.4713 -4.4958
  606MOL0     H83565  10.198   9.777   5.033 -2.3419 -1.4756  1.1203
  606MOL0     H83566  10.308   9.887   5.104  0.3903  0.0944 -2.1548
  606MOL0     H83567  10.456   9.668   5.131  1.0511 -0.0400 -0.2568
  606MOL0     H83568  10.343   9.586   5.025 -0.5069 -0.1003  0.7349
  606MOL0     H83569  10.453   9.856   4.935  0.9615  0.3651  2.5587
  606MOL0     H83570  10.420   9.708   4.831 -0.1764  0.3996 -0.7468
  606MOL0     H83571  10.644   9.726   5.021  0.2040  0.6447 -0.0762
  606MOL0     H83572  10.626   9.596   4.922  1.6588 -0.0802  1.1941
  606MOL0     H83573  10.648   9.755   4.723 -0.2774 -1.2318  0.5887
  606MOL0     H83574  10.785   9.689   4.811  1.8985  2.4073 -0.2426
  606MOL0     H83575  10.656   9.962   4.851  1.7092  1.7215  1.1899
  606MOL0     H83576  10.796   9.901   4.945  2.0243  0.1428 -0.7970
  606MOL0     H83577  10.967   9.781   4.714 -1.0406 -0.8668  0.0390
  606MOL0     H83578  11.040   9.897   4.346 -1.4620 -1.9540 -0.8651
  606MOL0     H83579  11.041   9.768   4.461 -2.5772  0.5641  1.9049
  606MOL0     H83580  11.204  10.024   4.487  0.4579 -0.0248 -2.6990
  606MOL0     H83581  11.231   9.876   4.583  0.8486 -1.9987 -1.5588
  606MOL0     H83582  11.282   9.764   4.334  0.9593  0.0656 -0.8804
  606MOL0     H83583  11.300   9.937   4.292  2.6853  0.7349  1.0038
  606MOL0     H83584  11.443   9.964   4.476 -0.3594 -1.9858  2.8494
  606MOL0     H83585  11.434   9.799   4.524 -2.0824 -2.2298 -1.7800
  606MOL0     H83586  11.653   9.820   4.567  2.5947  0.4158  0.1539
  606MOL0     H83587  11.939   9.952   4.694 -2.8835  0.8304  0.1847
  606MOL0     H83588  11.994   9.792   4.629 -0.5356 -1.0942 -2.3757
  606MOL0     H83589  11.834   9.806   4.713  0.2125 -0.1035 -1.1862
  606MOL0     H83590  12.324   9.959   4.167 -0.5528  3.2875 -2.9904
  606MOL0     H83591  12.558  10.052   4.178  1.1056 -1.1191  1.4733
  606MOL0     H83592  12.602  10.423   4.442 -0.5804 -0.5184 -0.2605
  606MOL0     H83593  12.693  10.276   4.518 -0.3414 -0.5889 -0.1408
  606MOL0     H83594  12.880  10.349   4.450  0.2757  0.4869  1.4711
  606MOL0     H83595  12.838  10.363   4.279  0.0555  0.3636  1.3620
  606MOL0     H83596  12.891  10.561   4.503  0.7482 -1.7849  0.6974
  606MOL0     H83597  12.750  10.593   4.389 -2.3726 -3.2857 -2.8493
  606MOL0     H83598  12.986  10.682   4.328 -1.3331  0.7615 -1.4438
  606MOL0     H83599  12.905  10.578   4.206  1.5402  1.7939 -0.7565
  606MOL0     H83600  13.117  10.481   4.406  1.1448 -1.7106 -0.8966
  606MOL0     H83601  13.045  10.385   4.261  0.6146 -0.3666 -0.4512
  606MOL0     H83602  13.263  10.456   4.229 -1.1232 -1.6450  0.2769
  606MOL0     H83603  13.224  10.631   4.256 -2.3216  1.5550 -2.0009
  606MOL0     H83604  13.092  10.663   4.078  1.6052  1.4851  1.4957
  606MOL0     H83605  13.065  10.483   4.055 -0.9314  0.6907 -2.2291
  606MOL0     H83606  13.306  10.469   3.975  1.3359  0.3574  1.7207
  606MOL0     H83607  13.311  10.648   4.026 -1.9919  0.7587 -0.2248
  606MOL0     H83608  12.437  10.311   4.495  0.5559 -1.0743  0.7499
  606MOL0     H83609  12.215  10.228   4.490  0.7048  1.6585 -1.0809
  606MOL0     H83610  11.923  10.010   4.197  0.3534 -2.4580 -0.6771
  606MOL0     H83611  11.718   9.907   4.157 -0.1325  1.8579 -1.2835
  606MOL0     H83612   9.862   9.631   5.088  0.3293  0.7093  0.0683
  606MOL0     H83613   9.613   9.599   5.106  0.7413  1.5765 -2.1556
  606MOL0     H83614   9.266   9.818   5.607 -0.1632  1.7895 -0.9377
  606MOL0     H83615   9.038   9.862   5.625  0.0011  0.7380 -0.4553
  606MOL0     H83616   8.853  10.025   5.417  2.5066 -3.3772 -1.3379
  606MOL0     H83617   8.694   9.957   5.411  0.4107  0.9934 -2.2668
  606MOL0     H83618   8.848   9.925   5.671 -0.4787  0.6702 -0.1212
  606MOL0     H83619   8.685   9.875   5.635 -1.2390  0.0873 -3.0535
  606MOL0     H83620   8.613  10.100   5.612  1.6217 -0.1706 -2.2636
  606MOL0     H83621   8.683  10.051   5.777  1.0957  2.2850  1.3083
  606MOL0     H83622   8.901  10.175   5.673 -0.0164 -1.5781  0.0294
  606MOL0     H83623   8.779  10.266   5.753  0.8488 -2.3480  1.7235
  606MOL0     H83624   8.805  10.411   5.354  0.7714 -2.5520 -0.7334
  606MOL0     H83625   8.956   9.730   5.236 -0.7251 -0.1355  0.6680
  606MOL0     H83626   9.127   9.577   5.142  0.5281  0.4686 -0.1428
  606MOL0     H83627   9.206   9.720   5.077  0.6242  1.5198  1.0204
  606MOL0     H83628   9.304   9.605   5.166 -1.2936 -3.0502  0.4998
  607MOL0     O83629   9.923   2.136   0.707  0.2456 -0.3709  0.8991
  607MOL0     C83630   9.985   2.190   0.798 -0.5909 -0.9353  1.2829
  607MOL0     O83631  10.102   2.150   0.859 -0.4880  0.2772 -0.2511
  607MOL0     C83632  10.126   2.011   0.887  0.1939  0.0161  0.0422
  607MOL0     C83633  10.223   1.974   0.983  0.3592 -0.5430 -0.2525
  607MOL0     C83634  10.233   1.847   1.029  0.3966 -0.4021 -0.5166
  607MOL0     C83635  10.156   1.747   0.980  0.2783  0.6014  0.0696
  607MOL0     O83636  10.156   1.623   1.049  0.5709  0.4107 -0.0986
  607MOL0     C83637  10.104   1.512   0.974  0.0636  0.3452  0.7711
  607MOL0     C83638  10.121   1.381   1.049  0.1823 -0.0102 -1.3199
  607MOL0     C83639  10.267   1.344   1.049  0.2672 -0.7319  0.3963
  607MOL0     C83640  10.276   1.208   1.130 -0.8036 -0.0465 -0.6321
  607MOL0     C83641  10.416   1.155   1.152 -0.5740  0.2650  0.3463
  607MOL0     C83642  10.455   1.066   1.034  0.9653 -0.0587  0.8577
  607MOL0     C83643  10.608   1.047   1.019 -0.9152  0.2376 -0.4707
  607MOL0     C83644  10.671   0.964   1.140 -0.1742 -0.7994  0.0193
  607MOL0     N83645  10.809   0.927   1.125 -0.4411  0.3383  0.1403
  607MOL0     C83646  10.913   1.002   1.061  0.3336  1.5023  0.8012
  607MOL0     C83647  11.028   0.927   1.073 -0.4488  0.0644 -0.5989
  607MOL0     C83648  11.171   0.975   1.042  0.5657  0.2430 -0.0935
  607MOL0     C83649  11.260   0.970   1.172 -0.4507  0.7004  1.2602
  607MOL0     C83650  11.402   1.007   1.140 -0.2976  1.3240  0.8319
  607MOL0     C83651  11.484   0.879   1.097  0.5240  0.2186 -1.5023
  607MOL0     O83652  11.584   0.900   0.995 -0.1615  0.0742 -0.2259
  607MOL0     C83653  11.713   0.920   1.038 -0.0620  0.8651  0.1987
  607MOL0     C83654  11.761   0.967   1.161  0.8643  0.0257 -0.0962
  607MOL0     C83655  11.899   0.988   1.196  1.1513 -0.0371  0.1790
  607MOL0     C83656  11.929   1.019   1.337  0.6786  0.2154  0.1004
  607MOL0     C83657  11.989   0.974   1.093  0.6401  0.2317 -0.1615
  607MOL0     C83658  12.128   1.007   1.111 -0.4233  0.0120 -0.6220
  607MOL0     O83659  12.206   0.889   1.132 -0.3969  0.1305  0.4471
  607MOL0     C83660  12.341   0.905   1.118  0.2122 -0.5340  0.3925
  607MOL0     C83661  12.422   0.859   1.220 -0.5275  0.9130 -0.5577
  607MOL0     C83662  12.564   0.874   1.226  0.0543 -0.2772 -0.2997
  607MOL0     C83663  12.612   0.940   1.108 -0.3569  0.9696 -0.4256
  607MOL0     O83664  12.750   0.971   1.096  0.4155  0.5802  0.5611
  607MOL0     C83665  12.838   0.927   1.193 -0.1779 -0.1074 -0.2062
  607MOL0     C83666  12.984   0.954   1.154 -0.2433  0.0861 -0.1058
  607MOL0     C83667  13.086   0.925   1.264  0.2729  1.0645 -0.3283
  607MOL0     C83668  13.219   0.924   1.203 -0.5880 -0.2725  0.7530
  607MOL0     C83669  13.300   0.890   1.326 -0.4420 -0.1856 -0.0919
  607MOL0     C83670  13.446   0.893   1.284 -0.1370 -0.6562  0.0573
  607MOL0     C83671  13.544   0.889   1.398 -0.9205  0.2740  0.5086
  607MOL0     C83672  13.689   0.911   1.350  0.2131 -0.5538 -0.8725
  607MOL0    Cl83673  13.800   0.892   1.493 -0.1126  0.1842 -0.0917
  607MOL0     C83674  12.536   0.981   1.002 -0.1410  0.0657  0.4650
  607MOL0     C83675  12.395   0.956   1.001 -0.8711 -0.2519  0.1030
  607MOL0     O83676  12.161   1.126   1.108 -0.2433 -0.4310  0.1425
  607MOL0     C83677  11.950   0.921   0.970 -0.6319  0.7010  0.1390
  607MOL0     C83678  11.816   0.892   0.947  0.5873 -0.4934  0.0869
  607MOL0     N83679  10.986   0.812   1.142 -0.3002 -0.5821 -0.2533
  607MOL0     N83680  10.860   0.809   1.165  0.0505  0.4183 -0.7669
  607MOL0     C83681  10.074   1.769   0.878  0.3948  0.0687  0.1827
  607MOL0     C83682  10.050   1.905   0.845  0.0189  0.8190 -0.7570
  607MOL0     C83683   9.927   2.326   0.841 -0.5129  0.7349  0.3905
  607MOL0     C83684   9.999   2.390   0.945 -0.2908  0.4308 -0.0205
  607MOL0     C83685   9.963   2.510   0.998  0.3474 -0.4020 -0.0236
  607MOL0     C83686   9.844   2.577   0.955  0.2899 -0.0348 -0.9253
  607MOL0     O83687   9.798   2.704   1.002  0.8274  0.1604 -0.1977
  607MOL0     C83688   9.847   2.753   1.119 -0.5262  0.7193 -0.9283
  607MOL0     C83689   9.802   2.898   1.134  0.5496 -0.3981  0.1204
  607MOL0     C83690   9.673   2.913   1.209 -0.6389 -1.0303 -0.7278
  607MOL0     C83691   9.633   3.067   1.214 -0.6319  0.5690  0.4795
  607MOL0     C83692   9.504   3.063   1.276 -0.3264 -0.3773 -0.0843
  607MOL0     C83693   9.388   3.078   1.320  0.1002  0.4424 -0.3533
  607MOL0     C83694   9.780   2.517   0.839 -0.7333 -0.2073 -0.3326
  607MOL0     C83695   9.821   2.396   0.782  0.4825 -0.2101 -0.4974
  607MOL0     C83696   9.746   2.369   0.652 -0.5966  0.9423 -0.9226
  607MOL0     H83697  10.284   2.045   1.039 -1.2612  0.8122 -0.1045
  607MOL0     H83698  10.293   1.833   1.118 -0.6019  0.9798  0.4219
  607MOL0     H83699  10.149   1.507   0.875  0.0698  0.6145  0.7614
  607MOL0     H83700   9.997   1.518   0.951  0.1662 -2.1709 -0.7199
  607MOL0     H83701  10.086   1.402   1.151  1.6851 -0.0829 -0.7653
  607MOL0     H83702  10.059   1.300   1.008 -2.6602  0.6256  1.3595
  607MOL0     H83703  10.303   1.331   0.947  1.1903  0.1089  0.6066
  607MOL0     H83704  10.334   1.412   1.102  0.5129 -1.5392  1.1424
  607MOL0     H83705  10.255   1.221   1.237  1.9208  0.9116 -0.1131
  607MOL0     H83706  10.204   1.135   1.093 -1.8259  0.6107  0.0265
  607MOL0     H83707  10.414   1.101   1.247 -2.1080  1.1051  0.8364
  607MOL0     H83708  10.474   1.247   1.162 -0.4834  0.3560 -0.8938
  607MOL0     H83709  10.423   0.963   1.056  3.9574 -1.6776 -1.4855
  607MOL0     H83710  10.422   1.093   0.933  3.0246 -0.0058  0.1550
  607MOL0     H83711  10.649   1.148   1.014 -1.0210  0.2259 -2.1278
  607MOL0     H83712  10.646   0.999   0.928  1.6942  1.2836 -0.0398
  607MOL0     H83713  10.668   1.026   1.230  0.9140  0.3616 -0.7130
  607MOL0     H83714  10.613   0.873   1.154  0.2668 -1.1393 -0.3528
  607MOL0     H83715  10.901   1.094   1.005 -1.7980 -0.2772 -1.9559
  607MOL0     H83716  11.172   1.077   1.003  0.2552  1.0754  1.9779
  607MOL0     H83717  11.224   0.906   0.976  0.8513 -0.5710  0.9576
  607MOL0     H83718  11.220   1.037   1.249 -1.3769  0.2914  1.1529
  607MOL0     H83719  11.244   0.867   1.205  0.2085  0.1459 -0.0582
  607MOL0     H83720  11.403   1.083   1.061 -0.6236 -0.4356 -0.9483
  607MOL0     H83721  11.442   1.046   1.234 -0.2954 -1.9725  2.3411
  607MOL0     H83722  11.520   0.830   1.188 -0.4165  3.1672  0.6206
  607MOL0     H83723  11.422   0.803   1.049  2.0443 -1.0010 -1.5839
  607MOL0     H83724  11.687   0.975   1.240  0.5711  1.4430 -0.4852
  607MOL0     H83725  12.027   0.976   1.362  0.7767 -0.7557 -1.8086
  607MOL0     H83726  11.853   0.987   1.409 -0.3303  0.1093 -0.9854
  607MOL0     H83727  11.921   1.128   1.342 -0.4417  0.1115  1.0332
  607MOL0     H83728  12.366   0.801   1.293  1.4594  0.8804  1.0171
  607MOL0     H83729  12.609   0.838   1.318 -2.4441 -1.2393  0.6321
  607MOL0     H83730  12.813   0.975   1.288  1.5034 -3.4495  2.1030
  607MOL0     H83731  12.827   0.821   1.214  2.5986 -0.3201  0.6496
  607MOL0     H83732  12.996   0.890   1.066 -1.5439  0.2981 -0.4723
  607MOL0     H83733  12.997   1.059   1.126  0.4353 -0.2436 -1.0595
  607MOL0     H83734  13.064   0.824   1.301  0.0878  1.3516  0.3687
  607MOL0     H83735  13.086   0.993   1.350 -0.4535  0.6163  0.0443
  607MOL0     H83736  13.240   1.021   1.158 -1.1628 -0.4700  0.0384
  607MOL0     H83737  13.223   0.845   1.127  1.1565  1.6142 -1.2674
  607MOL0     H83738  13.287   0.971   1.399 -2.0031 -1.8615  1.5864
  607MOL0     H83739  13.270   0.793   1.366 -1.1269 -1.2865 -2.9922
  607MOL0     H83740  13.462   0.985   1.226  3.1260 -0.4509  1.0827
  607MOL0     H83741  13.470   0.815   1.211 -0.3105 -0.3600 -0.3213
  607MOL0     H83742  13.535   0.792   1.449  1.1830 -0.6263 -0.7101
  607MOL0     H83743  13.528   0.963   1.477 -1.8569 -0.4333  0.9978
  607MOL0     H83744  13.705   1.011   1.309  0.2345 -0.1974 -0.0051
  607MOL0     H83745  13.710   0.844   1.266 -3.8745  0.3798 -2.9467
  607MOL0     H83746  12.578   1.033   0.917 -4.1931  0.0781 -1.7672
  607MOL0     H83747  12.350   0.998   0.912  1.6092  2.4518 -0.0278
  607MOL0     H83748  12.019   0.904   0.888 -0.3645 -0.1858  0.5386
  607MOL0     H83749  11.790   0.846   0.852  3.1700 -5.4691  1.4492
  607MOL0     H83750  10.003   1.696   0.839 -0.3165  0.7815  0.1312
  607MOL0     H83751   9.968   1.913   0.774  0.6601 -0.4326 -1.6665
  607MOL0     H83752  10.086   2.346   0.995  0.7642 -1.3251 -3.1508
  607MOL0     H83753  10.014   2.550   1.086 -2.4004  0.8164  1.1339
  607MOL0     H83754   9.813   2.692   1.204  0.2156  3.3900  1.4560
  607MOL0     H83755   9.956   2.746   1.113 -0.5694  1.2724 -4.6270
  607MOL0     H83756   9.786   2.938   1.034  2.2652 -0.5756 -0.2534
  607MOL0     H83757   9.882   2.955   1.183  1.2603 -0.7705 -0.5817
  607MOL0     H83758   9.595   2.858   1.156 -2.0843 -0.2178  0.4705
  607MOL0     H83759   9.687   2.864   1.305  0.1363 -1.0113 -0.8249
  607MOL0     H83760   9.620   3.115   1.117 -2.6115  0.4369  0.6325
  607MOL0     H83761   9.704   3.123   1.276 -0.2661  2.9805 -1.9276
  607MOL0     H83762   9.289   3.094   1.357  0.3695 -0.7448  0.9493
  607MOL0     H83763   9.695   2.569   0.799 -0.7930  0.9364  1.1897
  607MOL0     H83764   9.700   2.270   0.661  1.3463 -0.1635 -2.3761
  607MOL0     H83765   9.682   2.455   0.631 -0.2422  2.0494  2.0748
  607MOL0     H83766   9.828   2.353   0.581  2.2391  4.6979  1.1577
  608MOL0     O83767   1.289   4.529   7.321  0.5927 -0.4255  0.3469
  608MOL0     C83768   1.225   4.618   7.383  0.0665 -0.0020 -0.0590
  608MOL0     O83769   1.277   4.728   7.439 -0.1506 -0.1611  1.4616
  608MOL0     C83770   1.411   4.753   7.421  1.0428  0.4851 -0.4906
  608MOL0     C83771   1.508   4.656   7.473  0.0636 -0.9687  0.6414
  608MOL0     C83772   1.646   4.670   7.455 -0.2578 -0.2968  0.6207
  608MOL0     C83773   1.692   4.779   7.374  0.9340 -0.2651 -1.1187
  608MOL0     O83774   1.823   4.821   7.355 -0.4351  0.1628 -1.0703
  608MOL0     C83775   1.934   4.731   7.395  0.3681  0.2329 -0.0166
  608MOL0     C83776   2.072   4.780   7.345  0.4229 -0.0008  0.2357
  608MOL0     C83777   2.060   4.794   7.185 -0.3350 -0.1799  0.1808
  608MOL0     C83778   2.044   4.655   7.117  0.0815 -0.9597  0.4085
  608MOL0     C83779   2.042   4.660   6.962 -0.1037 -0.6919 -0.6140
  608MOL0     C83780   2.185   4.699   6.901  0.6438  0.5209  0.3350
  608MOL0     C83781   2.287   4.590   6.937  0.1419 -0.2873  0.0679
  608MOL0     C83782   2.404   4.587   6.841  0.0065  0.0263  0.9519
  608MOL0     N83783   2.511   4.507   6.895 -0.5241  0.1177 -0.6729
  608MOL0     C83784   2.626   4.551   6.957 -0.0758 -0.2519 -0.3089
  608MOL0     C83785   2.686   4.434   6.988  0.8401 -0.2961 -0.7873
  608MOL0     C83786   2.818   4.437   7.066 -0.0689  0.9657 -0.1928
  608MOL0     C83787   2.848   4.306   7.149 -0.2062 -0.3704 -0.3039
  608MOL0     C83788   2.956   4.313   7.262 -0.2615 -0.8600  1.0870
  608MOL0     C83789   3.093   4.361   7.219  0.0299 -0.0765  0.7343
  608MOL0     O83790   3.172   4.338   7.339  0.4880  0.2278  0.1211
  608MOL0     C83791   3.307   4.320   7.328 -0.8705  0.5822  0.8383
  608MOL0     C83792   3.386   4.344   7.216  0.1892  1.3577  0.4823
  608MOL0     C83793   3.532   4.340   7.221  0.0062 -0.2419 -0.9218
  608MOL0     C83794   3.605   4.358   7.088  0.2789 -0.4570 -0.1846
  608MOL0     C83795   3.595   4.318   7.344  0.1910 -0.0377 -0.0968
  608MOL0     C83796   3.744   4.303   7.356 -0.9580  0.9824 -0.6858
  608MOL0     O83797   3.837   4.345   7.267  0.3547  0.0185 -0.3508
  608MOL0     C83798   3.964   4.329   7.309 -0.8493  0.2964 -0.4902
  608MOL0     C83799   4.037   4.205   7.278  0.1847 -0.4662  0.2029
  608MOL0     C83800   4.166   4.191   7.331  0.1765 -0.1899  0.3412
  608MOL0     C83801   4.229   4.294   7.394  0.7952  0.9426 -1.1969
  608MOL0     O83802   4.347   4.276   7.463  0.7814 -0.5024  0.2679
  608MOL0     C83803   4.464   4.266   7.380  0.4731  0.7675 -0.8286
  608MOL0     C83804   4.589   4.338   7.435  0.4621  0.3649 -0.4315
  608MOL0     C83805   4.706   4.340   7.333 -0.3749  0.2296 -0.6754
  608MOL0     C83806   4.722   4.472   7.260  0.8532  0.3735  0.8174
  608MOL0     C83807   4.834   4.454   7.155  0.1684 -0.2191 -0.0647
  608MOL0     C83808   4.773   4.378   7.027 -0.9214 -1.0899  0.6261
  608MOL0     C83809   4.867   4.316   6.930 -0.0015 -0.3820 -0.0162
  608MOL0     C83810   4.930   4.416   6.827  0.0052  0.7790 -0.6100
  608MOL0    Cl83811   4.807   4.466   6.715 -0.5082 -0.1772  0.1772
  608MOL0     C83812   4.167   4.403   7.425  0.3108 -0.0348 -0.0705
  608MOL0     C83813   4.037   4.425   7.388  0.1076  0.1291  0.3402
  608MOL0     O83814   3.776   4.242   7.461  0.0582 -0.2037 -0.0487
  608MOL0     C83815   3.509   4.308   7.462  0.0308  0.6403  0.8970
  608MOL0     C83816   3.370   4.302   7.452  0.1135  0.3575  0.0391
  608MOL0     N83817   2.612   4.326   6.945 -0.4138  0.9230 -0.1792
  608MOL0     N83818   2.503   4.372   6.896 -0.8479 -0.3696 -0.9393
  608MOL0     C83819   1.596   4.872   7.320 -0.7303 -0.2821  0.5075
  608MOL0     C83820   1.461   4.863   7.350 -0.8350 -0.6115 -0.6351
  608MOL0     C83821   1.084   4.604   7.368  0.4640 -0.2637 -0.1803
  608MOL0     C83822   1.025   4.525   7.270  0.2058  0.1003  0.2435
  608MOL0     C83823   0.883   4.509   7.255  1.2324  0.7997 -0.1545
  608MOL0     C83824   0.796   4.584   7.336  0.4433  0.4502  0.8346
  608MOL0     O83825   0.663   4.574   7.314  0.3888  0.0187  0.3018
  608MOL0     C83826   0.588   4.467   7.258  0.0869  0.6395  0.1818
  608MOL0     C83827   0.437   4.473   7.303  1.0065 -0.0346 -0.3595
  608MOL0     C83828   0.372   4.607   7.266 -0.3457 -0.0271  0.7142
  608MOL0     C83829   0.380   4.639   7.112  0.1733  1.1165  0.1306
  608MOL0     C83830   0.303   4.539   7.029 -0.0161  0.6626  0.2059
  608MOL0     C83831   0.243   4.458   6.955 -0.8953  0.0047  0.5958
  608MOL0     C83832   0.847   4.659   7.443 -0.7325  0.4774  0.3648
  608MOL0     C83833   0.992   4.664   7.459  0.1904  0.3036  0.1921
  608MOL0     C83834   1.031   4.706   7.600  0.3370 -0.5657  0.5777
  608MOL0     H83835   1.467   4.587   7.546 -1.0154 -1.2309 -0.1869
  608MOL0     H83836   1.720   4.609   7.505  2.8003  3.5723  1.2682
  608MOL0     H83837   1.903   4.628   7.371  0.3952  0.6649 -2.0689
  608MOL0     H83838   1.952   4.739   7.502  1.5076  0.5899 -0.2190
  608MOL0     H83839   2.098   4.881   7.377  2.9167  0.7173 -3.4607
  608MOL0     H83840   2.150   4.708   7.369  2.0746  2.1428  1.6596
  608MOL0     H83841   1.977   4.860   7.159 -2.1836 -2.1498  0.7366
  608MOL0     H83842   2.146   4.849   7.148 -0.7226  1.4590  1.5905
  608MOL0     H83843   2.121   4.594   7.164  1.4565  0.9158  0.7447
  608MOL0     H83844   1.943   4.622   7.140 -0.8886  0.1414 -1.9207
  608MOL0     H83845   1.969   4.736   6.933  1.2587  1.2471  0.8128
  608MOL0     H83846   2.006   4.561   6.930 -0.4114 -0.8721  0.2637
  608MOL0     H83847   2.180   4.715   6.793 -0.9178  1.3926  0.5087
  608MOL0     H83848   2.226   4.797   6.926  0.4870  1.1549 -1.6551
  608MOL0     H83849   2.251   4.489   6.961  1.0377 -0.3207  1.3557
  608MOL0     H83850   2.327   4.630   7.030  0.7317  2.2756 -1.2169
  608MOL0     H83851   2.373   4.538   6.748 -2.3431  0.1211  1.6092
  608MOL0     H83852   2.427   4.691   6.818 -2.2291 -0.2319 -3.6580
  608MOL0     H83853   2.659   4.649   6.990 -0.0888 -0.1717 -0.5353
  608MOL0     H83854   2.822   4.522   7.134  1.0106  1.3765 -0.7513
  608MOL0     H83855   2.891   4.455   6.987 -1.6014  3.1511 -1.1878
  608MOL0     H83856   2.761   4.263   7.199  1.0991 -2.6683  0.1358
  608MOL0     H83857   2.876   4.230   7.075 -1.3171  0.4822 -1.6263
  608MOL0     H83858   2.922   4.378   7.343  1.1962 -0.0526  1.0876
  608MOL0     H83859   2.964   4.207   7.288 -1.6363 -1.1841  0.2770
  608MOL0     H83860   3.128   4.299   7.136  0.0006  0.6705  0.1558
  608MOL0     H83861   3.090   4.465   7.186  1.9668 -0.5704 -1.2575
  608MOL0     H83862   3.337   4.361   7.120  2.0789  0.1598 -0.7696
  608MOL0     H83863   3.665   4.449   7.095 -0.2716 -0.2280  2.6979
  608MOL0     H83864   3.537   4.371   7.003  0.6757  0.5110 -0.3622
  608MOL0     H83865   3.657   4.263   7.070 -1.0470 -0.8859 -2.1615
  608MOL0     H83866   3.986   4.135   7.213 -1.1357  0.4665  0.1909
  608MOL0     H83867   4.217   4.098   7.307  1.7142  0.3735  1.2781
  608MOL0     H83868   4.490   4.165   7.348  0.0485  0.8978 -1.6100
  608MOL0     H83869   4.434   4.316   7.287 -0.8015  0.6138 -0.5176
  608MOL0     H83870   4.551   4.436   7.464  1.4559  0.8682 -0.7766
  608MOL0     H83871   4.624   4.282   7.522  1.3718  2.4565  0.6070
  608MOL0     H83872   4.710   4.259   7.259  0.0183 -0.2139 -0.1825
  608MOL0     H83873   4.798   4.326   7.391 -0.2467  3.4950  0.0498
  608MOL0     H83874   4.752   4.554   7.327  0.9424  1.6322 -0.6990
  608MOL0     H83875   4.631   4.502   7.208  1.5302  0.0976 -0.5960
  608MOL0     H83876   4.882   4.548   7.127 -0.1945  0.8765  2.6998
  608MOL0     H83877   4.912   4.393   7.201 -1.7518 -1.7055  1.3750
  608MOL0     H83878   4.723   4.458   6.971 -0.4055 -0.1780  1.4286
  608MOL0     H83879   4.695   4.306   7.055 -0.6692 -1.4863  0.3209
  608MOL0     H83880   4.820   4.229   6.884  1.3480 -1.3736  0.4252
  608MOL0     H83881   4.948   4.273   6.990  1.3098  0.7735 -0.8947
  608MOL0     H83882   5.019   4.380   6.773 -0.5652 -0.7642 -0.5831
  608MOL0     H83883   4.961   4.506   6.881  4.3763 -0.4950 -0.5483
  608MOL0     H83884   4.229   4.486   7.459 -0.3028 -0.5165  2.4179
  608MOL0     H83885   3.998   4.519   7.424  1.5177  0.5121  0.9256
  608MOL0     H83886   3.558   4.300   7.558  1.3416  1.7510  0.3462
  608MOL0     H83887   3.307   4.294   7.540 -0.8559  1.9937 -0.4689
  608MOL0     H83888   1.638   4.947   7.254 -2.3223  1.0592  0.9558
  608MOL0     H83889   1.393   4.942   7.319  1.5489  0.5207 -3.4052
  608MOL0     H83890   1.083   4.470   7.196 -3.5971 -3.5505 -0.4163
  608MOL0     H83891   0.837   4.441   7.185 -0.0422  1.5655 -0.0866
  608MOL0     H83892   0.585   4.469   7.149 -1.4187  1.3240  0.2073
  608MOL0     H83893   0.636   4.372   7.285  0.3273  0.1015 -1.9366
  608MOL0     H83894   0.443   4.465   7.412 -0.6425  2.3289 -0.0121
  608MOL0     H83895   0.390   4.380   7.271 -0.1644  0.4670 -0.1430
  608MOL0     H83896   0.265   4.607   7.288 -0.2308 -0.1319  1.2849
  608MOL0     H83897   0.425   4.684   7.322  0.6390  1.1495 -1.7080
  608MOL0     H83898   0.479   4.656   7.068 -0.6256 -0.1095 -2.3534
  608MOL0     H83899   0.324   4.731   7.095 -2.2629 -0.5657 -1.7192
  608MOL0     H83900   0.199   4.381   6.894  1.1410  0.3880 -1.5165
  608MOL0     H83901   0.784   4.704   7.519 -2.9293  0.2257 -1.2132
  608MOL0     H83902   0.946   4.692   7.668 -0.5658  2.3494  0.1622
  608MOL0     H83903   1.119   4.652   7.637 -0.7575 -1.3919  2.1023
  608MOL0     H83904   1.064   4.811   7.599  0.4223 -0.5845 -1.6816
  609MOL0     O83905   4.307  11.200  11.202 -0.3597  0.2567 -0.1064
  609MOL0     C83906   4.184  11.193  11.212 -0.6945 -0.2753  0.5565
  609MOL0     O83907   4.108  11.170  11.323  0.3138 -0.3258 -0.7702
  609MOL0     C83908   4.166  11.129  11.443  0.6437  0.6347  0.5584
  609MOL0     C83909   4.262  11.195  11.522 -0.1417 -0.0386  1.0232
  609MOL0     C83910   4.306  11.149  11.648  0.4873 -0.3923  0.5519
  609MOL0     C83911   4.273  11.020  11.696  0.2024  0.0137  0.5080
  609MOL0     O83912   4.313  10.963  11.819 -0.2846  0.5263  0.2660
  609MOL0     C83913   4.383  11.037  11.924 -0.3356 -0.3377 -0.4040
  609MOL0     C83914   4.345  10.976  12.060  0.1985  0.3560  0.1673
  609MOL0     C83915   4.417  10.837  12.070 -0.0133  0.3440  0.3135
  609MOL0     C83916   4.390  10.780  12.200 -0.2911  0.5770 -0.3463
  609MOL0     C83917   4.431  10.629  12.222  0.1215 -0.4444  0.0419
  609MOL0     C83918   4.367  10.540  12.119  0.7527 -0.3919 -0.0911
  609MOL0     C83919   4.396  10.388  12.152 -0.2019 -0.3116  0.4759
  609MOL0     C83920   4.315  10.300  12.055 -0.1271  0.0416  0.3797
  609MOL0     N83921   4.361  10.318  11.914  0.3316  1.1991 -0.9497
  609MOL0     C83922   4.452  10.240  11.853  0.0446  0.8725 -0.3677
  609MOL0     C83923   4.458  10.280  11.725  0.3561 -0.2359 -0.5663
  609MOL0     C83924   4.535  10.215  11.615 -1.0150  0.5738  0.2631
  609MOL0     C83925   4.468  10.090  11.567 -0.3666  0.1193 -0.2169
  609MOL0     C83926   4.563  10.006  11.485 -0.8495 -0.6780 -0.3378
  609MOL0     C83927   4.520   9.851  11.484  0.0378 -0.7704  0.1130
  609MOL0     O83928   4.550   9.801  11.620  0.4358 -0.0753  0.3346
  609MOL0     C83929   4.675   9.797  11.659 -0.1682 -0.6812  0.0650
  609MOL0     C83930   4.691   9.823  11.791  0.1943 -0.5846 -0.0576
  609MOL0     C83931   4.812   9.827  11.859  0.2543 -0.1237  0.1200
  609MOL0     C83932   4.817   9.877  12.004  0.6388  0.1451  0.4215
  609MOL0     C83933   4.927   9.794  11.784  0.7327  0.4724  0.5462
  609MOL0     C83934   5.064   9.772  11.835  0.1270  0.1794 -0.4044
  609MOL0     O83935   5.168   9.737  11.749 -0.2511  0.2952  0.7067
  609MOL0     C83936   5.292   9.710  11.795 -0.4092 -0.6993 -0.8166
  609MOL0     C83937   5.402   9.799  11.790  0.2258 -0.0284 -0.7663
  609MOL0     C83938   5.523   9.765  11.839 -0.5872  0.4756  0.1357
  609MOL0     C83939   5.546   9.637  11.887 -1.0056  0.6384  0.0537
  609MOL0     O83940   5.669   9.599  11.929 -0.1618  0.8695  0.8810
  609MOL0     C83941   5.744   9.693  11.999  0.7210 -0.2129 -0.2669
  609MOL0     C83942   5.862   9.594  12.043 -0.2016  0.0213 -0.1751
  609MOL0     C83943   5.978   9.661  12.107 -0.5881  0.1656  0.1351
  609MOL0     C83944   6.051   9.773  12.036 -0.3826 -0.2516 -0.0433
  609MOL0     C83945   6.187   9.798  12.106  0.8507 -0.3143  0.5215
  609MOL0     C83946   6.255   9.929  12.049  0.1472  1.1126 -0.1914
  609MOL0     C83947   6.194  10.056  12.108 -0.9641  1.0176  0.2497
  609MOL0     C83948   6.285  10.172  12.098  0.0808 -0.3751  0.4214
  609MOL0    Cl83949   6.419  10.150  12.214 -0.4309 -0.5138  0.1380
  609MOL0     C83950   5.440   9.549  11.895 -0.5747  0.0460 -0.0313
  609MOL0     C83951   5.309   9.589  11.859 -0.5745 -0.1252 -0.8921
  609MOL0     O83952   5.089   9.789  11.959 -0.0617  0.0245  0.2148
  609MOL0     C83953   4.909   9.776  11.641 -0.5762 -0.4266 -0.3252
  609MOL0     C83954   4.784   9.774  11.580  0.3244 -0.0717 -0.4430
  609MOL0     N83955   4.359  10.373  11.705 -0.1197  0.6063  0.9289
  609MOL0     N83956   4.304  10.393  11.822 -0.5369 -0.6955 -0.2633
  609MOL0     C83957   4.172  10.950  11.622  0.3264 -0.3721  0.2489
  609MOL0     C83958   4.104  11.013  11.509 -0.2808  0.0444 -0.0433
  609MOL0     C83959   4.117  11.228  11.091  0.0802 -0.9627  0.4309
  609MOL0     C83960   4.012  11.145  11.042 -0.1940 -0.2766 -0.8211
  609MOL0     C83961   3.945  11.166  10.925  0.3472  0.1472  0.2127
  609MOL0     C83962   3.991  11.267  10.845  0.1707  0.4897  0.0556
  609MOL0     O83963   3.920  11.271  10.729  0.0935 -0.0843  0.8911
  609MOL0     C83964   3.984  11.345  10.618  0.1981  0.2676 -1.3659
  609MOL0     C83965   3.894  11.352  10.506  0.1895 -0.2177 -0.5867
  609MOL0     C83966   3.773  11.425  10.543  0.0536  1.5277  0.0272
  609MOL0     C83967   3.720  11.493  10.427 -0.3462 -0.2642 -1.0316
  609MOL0     C83968   3.577  11.468  10.417 -1.2207  0.1285 -0.7342
  609MOL0     C83969   3.465  11.432  10.425  0.4647  0.0804 -0.0002
  609MOL0     C83970   4.104  11.347  10.887 -0.3447  0.1284 -0.2552
  609MOL0     C83971   4.171  11.332  11.006  0.3452  0.1374 -0.1956
  609MOL0     C83972   4.289  11.418  11.026 -0.5741  0.0677 -0.0579
  609MOL0     H83973   4.313  11.289  11.503  1.1897 -0.5467  1.9312
  609MOL0     H83974   4.379  11.207  11.703  2.1150  0.0893 -1.9661
  609MOL0     H83975   4.349  11.141  11.925 -1.1732 -0.5751  1.5228
  609MOL0     H83976   4.490  11.041  11.902 -0.3576  2.2875 -0.3537
  609MOL0     H83977   4.374  11.031  12.150  0.5273  0.4030  0.0343
  609MOL0     H83978   4.237  10.973  12.074  0.4920  1.0469  3.2751
  609MOL0     H83979   4.390  10.778  11.983  2.3503 -1.4614  0.6965
  609MOL0     H83980   4.526  10.848  12.073 -0.2513  4.0879  0.2416
  609MOL0     H83981   4.444  10.835  12.277  3.3003 -0.9375 -1.5920
  609MOL0     H83982   4.282  10.780  12.219 -1.0469 -0.8260 -3.8023
  609MOL0     H83983   4.392  10.601  12.320 -3.7993  2.0796 -0.5901
  609MOL0     H83984   4.540  10.632  12.229  0.0409  1.6872  1.4587
  609MOL0     H83985   4.261  10.564  12.125  0.8062 -0.3919  0.9675
  609MOL0     H83986   4.411  10.544  12.018  0.6183 -2.4282 -0.2827
  609MOL0     H83987   4.373  10.366  12.256 -0.6381  3.6371  1.4042
  609MOL0     H83988   4.501  10.365  12.130  0.2001  1.9962 -0.3517
  609MOL0     H83989   4.310  10.196  12.089  0.3653 -0.2495 -0.4266
  609MOL0     H83990   4.214  10.342  12.061  0.6614  2.3017 -1.0501
  609MOL0     H83991   4.523  10.169  11.893  0.8850  1.2928 -1.0680
  609MOL0     H83992   4.638  10.195  11.644 -1.5490 -1.6699  0.7818
  609MOL0     H83993   4.545  10.281  11.527 -0.8742  0.7234  0.3904
  609MOL0     H83994   4.444  10.040  11.661 -0.2076  0.0941 -0.1896
  609MOL0     H83995   4.383  10.112  11.502 -0.5462 -0.4138 -0.1628
  609MOL0     H83996   4.547  10.037  11.382  1.7241 -0.1567 -0.6262
  609MOL0     H83997   4.670  10.017  11.501 -0.4205 -2.4024 -1.6701
  609MOL0     H83998   4.414   9.831  11.471  0.3733 -3.6066  0.9484
  609MOL0     H83999   4.572   9.807  11.399 -3.1206  0.1117 -2.4690
  609MOL0     H84000   4.605   9.855  11.849  0.4492  2.9173 -1.3404
  609MOL0     H84001   4.824   9.794  12.074 -0.5313 -0.5200 -0.2025
  609MOL0     H84002   4.731   9.942  12.022  1.1784  1.1817 -0.6091
  609MOL0     H84003   4.904   9.942  12.008  2.1513 -1.3770 -3.0511
  609MOL0     H84004   5.384   9.896  11.744  1.9565  0.9252  0.4525
  609MOL0     H84005   5.599   9.841  11.847 -2.4717  2.3420  1.8745
  609MOL0     H84006   5.777   9.773  11.932  0.6735 -0.0627 -0.1119
  609MOL0     H84007   5.698   9.733  12.090 -0.9445  1.7389 -1.8467
  609MOL0     H84008   5.824   9.513  12.106  2.8398 -0.3303  1.4319
  609MOL0     H84009   5.909   9.545  11.957  1.4023 -0.1604  0.7675
  609MOL0     H84010   6.045   9.583  12.145 -1.1400 -0.7074 -0.6213
  609MOL0     H84011   5.948   9.698  12.206  0.4669 -0.2754  0.6444
  609MOL0     H84012   5.995   9.867  12.033  0.4471  0.4283  2.9416
  609MOL0     H84013   6.070   9.742  11.932  0.0299 -0.0812 -0.0196
  609MOL0     H84014   6.178   9.805  12.214 -0.5303 -3.9138  0.7848
  609MOL0     H84015   6.251   9.710  12.091 -3.0602 -3.3057 -0.3618
  609MOL0     H84016   6.269   9.914  11.942 -1.2692 -0.6754 -0.1631
  609MOL0     H84017   6.361   9.911  12.073  0.4116 -2.5378 -3.1007
  609MOL0     H84018   6.172  10.041  12.214  0.2506 -0.4747  0.3385
  609MOL0     H84019   6.104  10.070  12.048 -1.8632 -2.9754  0.3476
  609MOL0     H84020   6.226  10.263  12.105  1.6503  0.8583 -1.2754
  609MOL0     H84021   6.324  10.192  11.997 -0.9774  1.0605  0.2725
  609MOL0     H84022   5.447   9.447  11.931 -2.3480 -0.5279 -1.1772
  609MOL0     H84023   5.223   9.524  11.873 -0.8039 -0.3895 -3.1016
  609MOL0     H84024   4.986   9.761  11.565 -0.9410  1.0396 -1.0192
  609MOL0     H84025   4.775   9.756  11.473  2.5813 -2.8246 -0.2935
  609MOL0     H84026   4.133  10.856  11.658 -2.1737 -0.2502 -1.8460
  609MOL0     H84027   4.026  10.969  11.449  2.2643  0.3543 -3.9328
  609MOL0     H84028   3.972  11.082  11.120 -0.9432 -0.9562 -1.7433
  609MOL0     H84029   3.861  11.102  10.897  1.4446 -1.5449  0.6200
  609MOL0     H84030   4.005  11.449  10.645  1.1374 -0.4235  0.7928
  609MOL0     H84031   4.076  11.291  10.595  0.5093  0.2584 -0.1874
  609MOL0     H84032   3.867  11.254  10.465 -3.3913  1.1957 -2.0843
  609MOL0     H84033   3.945  11.409  10.428  0.3015 -1.0392 -1.1240
  609MOL0     H84034   3.709  11.356  10.598  2.1193 -1.1143 -0.6669
  609MOL0     H84035   3.790  11.507  10.613 -3.7606  3.0731 -0.6010
  609MOL0     H84036   3.772  11.475  10.333  0.1369 -2.3178 -0.4257
  609MOL0     H84037   3.728  11.602  10.433 -0.4335 -0.1483 -2.7180
  609MOL0     H84038   3.363  11.401  10.412  1.0987 -2.2681  0.0927
  609MOL0     H84039   4.141  11.413  10.810  2.6540  0.5544  1.3881
  609MOL0     H84040   4.282  11.513  10.973  1.3785  0.3144  0.0414
  609MOL0     H84041   4.312  11.441  11.131  4.3244  2.8164 -1.4168
  609MOL0     H84042   4.381  11.369  10.993 -0.2019 -0.1844  1.2562
  610MOL0     O84043   4.259   8.829   8.393  0.0011  0.4141  0.1483
  610MOL0     C84044   4.240   8.839   8.515  1.2442 -0.3176  0.9819
  610MOL0     O84045   4.238   8.735   8.599 -0.0179 -0.6362 -0.2465
  610MOL0     C84046   4.272   8.611   8.556  0.2692  0.1893  1.0761
  610MOL0     C84047   4.405   8.588   8.515 -0.4473 -0.2384  0.6680
  610MOL0     C84048   4.446   8.453   8.479  0.0617 -0.4494 -0.6892
  610MOL0     C84049   4.356   8.344   8.484  0.4211  0.2134 -0.2275
  610MOL0     O84050   4.383   8.216   8.447 -0.0203 -0.4171 -0.0185
  610MOL0     C84051   4.516   8.177   8.413  0.6920  0.3077  0.1512
  610MOL0     C84052   4.514   8.028   8.395 -0.5365  0.9403  0.6164
  610MOL0     C84053   4.458   7.959   8.525 -0.1532  0.5363  0.3178
  610MOL0     C84054   4.489   7.806   8.534 -0.5386 -0.1257 -0.5813
  610MOL0     C84055   4.636   7.773   8.573  0.5505  0.3699 -0.3485
  610MOL0     C84056   4.648   7.783   8.726  0.0369  0.3709  0.2036
  610MOL0     C84057   4.792   7.779   8.765 -0.4235  0.2784  0.1073
  610MOL0     C84058   4.821   7.835   8.914 -0.7156 -0.5170  0.4112
  610MOL0     N84059   4.964   7.815   8.953  0.6414  1.5311  0.8933
  610MOL0     C84060   5.069   7.876   8.889  0.2421 -0.0645  0.5275
  610MOL0     C84061   5.181   7.815   8.944 -0.4435 -0.3145  0.7802
  610MOL0     C84062   5.324   7.853   8.917  0.3457 -0.2438  1.1919
  610MOL0     C84063   5.436   7.868   9.022  0.7213 -0.5711  0.8574
  610MOL0     C84064   5.476   7.726   9.073 -0.5406  0.1404 -0.6084
  610MOL0     C84065   5.592   7.724   9.165 -0.2973  0.2632  0.0003
  610MOL0     O84066   5.706   7.758   9.084  0.4625 -0.6713  0.2192
  610MOL0     C84067   5.837   7.735   9.131 -0.0277 -0.1115 -0.0463
  610MOL0     C84068   5.946   7.726   9.041  0.1847  0.4969  0.4996
  610MOL0     C84069   6.077   7.689   9.078  0.3736 -0.1768  0.8552
  610MOL0     C84070   6.191   7.704   8.983 -0.0605  0.4385 -0.1083
  610MOL0     C84071   6.098   7.646   9.212  0.6368  1.1976 -0.2699
  610MOL0     C84072   6.227   7.584   9.260 -0.0734  0.4578  0.5891
  610MOL0     O84073   6.335   7.572   9.179 -0.0037 -0.5079  0.6237
  610MOL0     C84074   6.466   7.549   9.222  0.2660  0.4365  0.7473
  610MOL0     C84075   6.514   7.533   9.355  0.1028  0.7330  0.5903
  610MOL0     C84076   6.637   7.468   9.376 -0.3967  0.2192 -0.0769
  610MOL0     C84077   6.727   7.441   9.268  0.3946 -0.3653 -0.1192
  610MOL0     O84078   6.856   7.397   9.293  0.1852  0.4108 -0.2703
  610MOL0     C84079   6.849   7.271   9.370  0.3124 -0.7677  0.3971
  610MOL0     C84080   6.992   7.212   9.397 -0.6798  0.5437 -0.3955
  610MOL0     C84081   7.069   7.286   9.513  0.1139  0.0970 -0.1365
  610MOL0     C84082   7.210   7.236   9.520  0.1903  0.5540 -0.8130
  610MOL0     C84083   7.310   7.314   9.608  0.5357 -0.1844  0.0884
  610MOL0     C84084   7.440   7.232   9.626 -0.0283 -0.8393 -0.5692
  610MOL0     C84085   7.565   7.315   9.664 -0.0658  0.5366 -0.2682
  610MOL0     C84086   7.692   7.235   9.701  0.2642  0.0676  0.9896
  610MOL0    Cl84087   7.727   7.123   9.562  0.0239  0.1208  0.1825
  610MOL0     C84088   6.686   7.463   9.136 -0.0993 -0.0518 -0.8263
  610MOL0     C84089   6.558   7.521   9.123  0.0110  0.1745  0.1523
  610MOL0     O84090   6.231   7.542   9.376  0.3419 -0.6715  0.1280
  610MOL0     C84091   5.991   7.656   9.300  0.6811  0.2944 -1.1675
  610MOL0     C84092   5.858   7.694   9.261 -0.0698 -0.7539  0.6940
  610MOL0     N84093   5.136   7.713   9.026  0.2764 -0.4553 -0.3967
  610MOL0     N84094   5.004   7.715   9.038 -0.7031  0.4624  0.5533
  610MOL0     C84095   4.223   8.371   8.523 -0.0128 -0.7709 -0.4245
  610MOL0     C84096   4.178   8.504   8.554 -0.6634 -0.1896 -0.6220
  610MOL0     C84097   4.178   8.973   8.558  0.0066  0.2742 -0.4290
  610MOL0     C84098   4.145   8.978   8.694 -0.2329  0.0196 -0.8218
  610MOL0     C84099   4.081   9.092   8.746  0.2335  0.3839 -0.8671
  610MOL0     C84100   4.053   9.202   8.662 -0.2329 -0.8825 -0.0586
  610MOL0     O84101   3.981   9.318   8.693  0.6264  1.7237 -0.2683
  610MOL0     C84102   3.868   9.298   8.786 -0.8438 -0.0767 -0.8830
  610MOL0     C84103   3.792   9.432   8.824 -0.3417  0.0973  0.2550
  610MOL0     C84104   3.684   9.400   8.935  0.6649  0.3155 -0.5080
  610MOL0     C84105   3.637   9.528   9.004  0.1862 -0.7044  0.0551
  610MOL0     C84106   3.522   9.581   8.929  0.4829  0.3068  0.4763
  610MOL0     C84107   3.424   9.626   8.874 -0.0366  1.4308 -0.5150
  610MOL0     C84108   4.101   9.197   8.530 -0.1451 -0.5054  0.4063
  610MOL0     C84109   4.157   9.085   8.475 -0.5507 -0.6424 -0.9035
  610MOL0     C84110   4.202   9.095   8.334 -0.7283  0.6929 -0.0132
  610MOL0     H84111   4.477   8.669   8.504  3.7487 -3.7638 -1.0742
  610MOL0     H84112   4.545   8.428   8.443  0.8334 -2.3293  2.4085
  610MOL0     H84113   4.577   8.202   8.500  0.9575 -3.5527  1.2464
  610MOL0     H84114   4.551   8.222   8.319 -4.0931  4.2804 -0.1427
  610MOL0     H84115   4.465   8.003   8.300 -1.5125  0.3866  1.2441
  610MOL0     H84116   4.617   8.003   8.368 -0.7345  1.5667 -0.8373
  610MOL0     H84117   4.492   8.006   8.618 -0.9075  2.9424 -0.5527
  610MOL0     H84118   4.349   7.964   8.519 -0.2558 -1.0961  0.3231
  610MOL0     H84119   4.437   7.751   8.613  2.0330 -0.3194  1.0739
  610MOL0     H84120   4.460   7.760   8.439  0.5066 -1.3903 -0.3114
  610MOL0     H84121   4.713   7.843   8.537  1.8894  0.9655  3.1925
  610MOL0     H84122   4.662   7.670   8.547 -1.0367  0.4125 -2.2577
  610MOL0     H84123   4.613   7.878   8.765  1.4159  1.3746 -0.8928
  610MOL0     H84124   4.598   7.703   8.781  2.6562 -1.1429  0.5514
  610MOL0     H84125   4.849   7.844   8.697 -1.4977  0.0541 -1.0523
  610MOL0     H84126   4.826   7.677   8.743 -1.6954  0.0140 -0.7416
  610MOL0     H84127   4.799   7.940   8.937  1.3954  0.3072 -1.1162
  610MOL0     H84128   4.750   7.782   8.978 -3.2264 -1.1612 -2.6375
  610MOL0     H84129   5.071   7.961   8.822  2.0385  0.4916  1.2324
  610MOL0     H84130   5.327   7.948   8.863  2.8598 -2.1048 -2.3156
  610MOL0     H84131   5.351   7.784   8.836 -0.1100 -1.0782  1.7301
  610MOL0     H84132   5.510   7.923   8.964 -0.2366  0.1825  0.3306
  610MOL0     H84133   5.401   7.931   9.104 -2.3356 -0.0734 -0.6955
  610MOL0     H84134   5.396   7.698   9.143  0.6145  2.5873  1.8908
  610MOL0     H84135   5.493   7.653   8.994 -0.3789 -1.1129  0.5574
  610MOL0     H84136   5.588   7.802   9.242 -1.7225  0.2015  0.0235
  610MOL0     H84137   5.608   7.627   9.213  1.5502 -0.4262 -1.8482
  610MOL0     H84138   5.919   7.725   8.936  1.2260  2.9875  0.1323
  610MOL0     H84139   6.212   7.602   8.949 -1.3492  0.4227 -0.9659
  610MOL0     H84140   6.279   7.752   9.024  1.2061 -2.8153  1.3450
  610MOL0     H84141   6.157   7.772   8.904  0.3633  0.5682 -0.1806
  610MOL0     H84142   6.450   7.543   9.442  0.7232 -0.1893  1.1773
  610MOL0     H84143   6.652   7.441   9.480 -1.1228 -2.5730 -0.5939
  610MOL0     H84144   6.806   7.292   9.468  0.6438 -0.1338  0.4136
  610MOL0     H84145   6.790   7.197   9.315  0.2275 -0.1203 -0.4025
  610MOL0     H84146   6.983   7.110   9.435  0.7126  1.1387  1.7026
  610MOL0     H84147   7.055   7.199   9.309 -0.9667  0.0648 -0.5338
  610MOL0     H84148   7.017   7.257   9.605  0.7907 -0.6361  0.0293
  610MOL0     H84149   7.068   7.392   9.488  3.3009  0.1975 -0.2977
  610MOL0     H84150   7.263   7.227   9.424  1.1724  0.3891 -0.2668
  610MOL0     H84151   7.206   7.135   9.561  2.5997 -0.1319 -2.0689
  610MOL0     H84152   7.324   7.416   9.571 -2.9355  0.2937 -0.1889
  610MOL0     H84153   7.273   7.329   9.710  1.7860 -1.5398  0.7872
  610MOL0     H84154   7.450   7.169   9.537  0.6961 -0.6189 -0.6518
  610MOL0     H84155   7.411   7.172   9.712  1.5352  0.5951  1.0389
  610MOL0     H84156   7.529   7.383   9.741  0.4713  1.6654 -0.9918
  610MOL0     H84157   7.578   7.378   9.576 -1.0776  2.1758  0.6985
  610MOL0     H84158   7.673   7.176   9.792 -0.3946 -1.1123  0.1293
  610MOL0     H84159   7.779   7.298   9.716 -1.0339  1.4565  3.2065
  610MOL0     H84160   6.740   7.432   9.047  1.7376 -3.1593  1.1705
  610MOL0     H84161   6.517   7.531   9.023 -2.2094 -1.2231  0.8584
  610MOL0     H84162   5.999   7.624   9.403 -0.2073 -0.1709 -1.2349
  610MOL0     H84163   5.787   7.685   9.342  1.0861 -0.5464  1.7606
  610MOL0     H84164   4.154   8.288   8.516 -1.4121  0.3676 -0.6156
  610MOL0     H84165   4.073   8.516   8.577 -1.3680 -1.5706 -2.7548
  610MOL0     H84166   4.178   8.900   8.762  2.3034  0.9264 -0.8900
  610MOL0     H84167   4.045   9.079   8.847  2.2426  1.9418  0.1286
  610MOL0     H84168   3.806   9.222   8.738  2.1998 -2.7597 -0.8832
  610MOL0     H84169   3.908   9.255   8.878 -4.5480 -1.0214  0.5057
  610MOL0     H84170   3.744   9.472   8.735  1.1273 -1.2484 -1.2040
  610MOL0     H84171   3.853   9.512   8.867 -1.1305  1.2116 -0.6451
  610MOL0     H84172   3.607   9.342   8.884  1.7679 -1.3240 -0.4088
  610MOL0     H84173   3.735   9.324   8.995  3.5709  0.8246 -2.1274
  610MOL0     H84174   3.716   9.604   9.003 -0.3748 -0.0801  1.1740
  610MOL0     H84175   3.618   9.493   9.107  5.0307  1.3050  1.9621
  610MOL0     H84176   3.331   9.655   8.828 -0.4123 -0.4630 -1.0353
  610MOL0     H84177   4.091   9.289   8.473 -1.6259  0.0764  1.5510
  610MOL0     H84178   4.209   9.193   8.286 -0.8116 -0.5560 -2.7611
  610MOL0     H84179   4.304   9.058   8.322 -0.9791  0.0662 -0.2369
  610MOL0     H84180   4.133   9.043   8.267  1.0953 -0.5492 -1.0136
  611MOL0     O84181  11.090   3.901   2.364  0.0374  0.6140  0.3799
  611MOL0     C84182  10.985   3.909   2.297 -0.0810 -1.2238 -0.1405
  611MOL0     O84183  10.899   3.802   2.277 -1.0610 -0.2682 -0.4432
  611MOL0     C84184  10.925   3.687   2.347  0.6479  0.2748  0.2025
  611MOL0     C84185  10.972   3.575   2.274 -0.7788  0.3897  0.1052
  611MOL0     C84186  11.012   3.459   2.333  0.2792  0.2656 -0.0174
  611MOL0     C84187  11.012   3.450   2.469 -0.1351 -0.1302 -0.2752
  611MOL0     O84188  11.066   3.340   2.522  0.1393 -0.5374  0.0659
  611MOL0     C84189  11.145   3.343   2.639  0.4013  0.3760 -0.5891
  611MOL0     C84190  11.081   3.292   2.761  0.4310 -0.7205  0.0368
  611MOL0     C84191  11.157   3.315   2.898  0.5090  0.3162 -0.2309
  611MOL0     C84192  11.275   3.220   2.908  1.0111 -0.8423 -0.5057
  611MOL0     C84193  11.382   3.257   3.013 -0.6037  0.4423  0.3933
  611MOL0     C84194  11.525   3.205   2.978  0.8813 -0.1392 -1.0169
  611MOL0     C84195  11.623   3.291   3.062 -0.4130  0.1922  0.8150
  611MOL0     C84196  11.751   3.214   3.098  0.0671  0.0630  0.4718
  611MOL0     N84197  11.836   3.205   2.979 -0.0371  0.5057  0.2505
  611MOL0     C84198  11.928   3.302   2.947  0.1503  0.2261  1.0051
  611MOL0     C84199  11.979   3.258   2.830  0.7107 -0.2429  0.0989
  611MOL0     C84200  12.082   3.334   2.753 -0.0107 -0.5559 -0.4859
  611MOL0     C84201  12.223   3.334   2.823  0.0927 -0.0509 -0.8554
  611MOL0     C84202  12.330   3.243   2.759 -0.5024  0.0845 -0.1348
  611MOL0     C84203  12.286   3.107   2.740  0.5506  0.1511 -0.2396
  611MOL0     O84204  12.232   3.033   2.859  0.3991 -0.2026 -0.4461
  611MOL0     C84205  12.308   3.025   2.972  0.1514  0.4995  0.5620
  611MOL0     C84206  12.449   3.018   2.977 -0.3656  0.6468  0.0306
  611MOL0     C84207  12.518   2.993   3.099 -0.1982  0.2237  0.4478
  611MOL0     C84208  12.654   2.948   3.082  0.6439 -0.2863 -1.0389
  611MOL0     C84209  12.446   2.977   3.218  0.4370  0.5986  0.2697
  611MOL0     C84210  12.511   2.969   3.351  0.2776  0.6814  0.2970
  611MOL0     O84211  12.431   2.955   3.460 -0.2339  0.5719 -0.0729
  611MOL0     C84212  12.487   2.935   3.587  0.3437  0.3399 -0.0536
  611MOL0     C84213  12.590   3.019   3.649 -0.4679 -0.1443 -0.1863
  611MOL0     C84214  12.636   2.991   3.777  0.1000  0.7622 -0.5619
  611MOL0     C84215  12.568   2.895   3.852 -0.6686  0.2348 -0.2782
  611MOL0     O84216  12.611   2.879   3.981  0.0469 -0.4197 -0.0825
  611MOL0     C84217  12.665   2.748   4.019  0.6708 -0.3479 -0.5072
  611MOL0     C84218  12.795   2.718   3.946  1.2649 -0.3112 -0.7728
  611MOL0     C84219  12.906   2.809   3.994 -0.1094 -0.1589 -0.3064
  611MOL0     C84220  13.038   2.777   3.913 -1.1186 -0.8165 -0.5888
  611MOL0     C84221  13.168   2.855   3.976  0.1988 -0.0699  0.5280
  611MOL0     C84222  13.192   2.846   4.126  0.2760 -0.3676  0.0543
  611MOL0     C84223  13.337   2.888   4.151 -0.8005  0.1618 -1.3458
  611MOL0     C84224  13.374   2.879   4.305  0.3313 -0.7880 -0.3491
  611MOL0    Cl84225  13.259   2.987   4.414  0.0983  0.1830 -0.3199
  611MOL0     C84226  12.463   2.820   3.797  0.1170  0.0329  0.5610
  611MOL0     C84227  12.425   2.835   3.663 -0.0536 -0.3073  0.0416
  611MOL0     O84228  12.631   2.988   3.357  0.6181 -0.0674  0.1054
  611MOL0     C84229  12.311   2.992   3.214  0.6566 -0.5238  1.3671
  611MOL0     C84230  12.242   3.009   3.093  0.0548  0.0206  0.3554
  611MOL0     N84231  11.921   3.135   2.796  0.9934 -0.1121  0.3128
  611MOL0     N84232  11.842   3.098   2.890 -0.6368 -0.1445 -0.4762
  611MOL0     C84233  10.935   3.546   2.545 -0.2604 -0.2883 -0.1837
  611MOL0     C84234  10.899   3.677   2.480 -0.6189 -0.1296 -0.2433
  611MOL0     C84235  10.947   4.046   2.252 -0.9902 -0.5514  0.1311
  611MOL0     C84236  10.808   4.068   2.245  0.0031 -0.0185 -0.4174
  611MOL0     C84237  10.746   4.198   2.212 -0.3071  0.6385  0.2208
  611MOL0     C84238  10.834   4.307   2.182 -0.2426 -0.0972 -0.5278
  611MOL0     O84239  10.797   4.433   2.139 -0.8393 -0.1300 -0.3176
  611MOL0     C84240  10.667   4.463   2.136  0.7676  0.2854  0.0131
  611MOL0     C84241  10.666   4.616   2.143  0.1861  0.3563  0.5615
  611MOL0     C84242  10.532   4.676   2.102 -0.1134 -0.0302 -0.2616
  611MOL0     C84243  10.510   4.818   2.160  0.9253  0.7986 -0.6328
  611MOL0     C84244  10.600   4.920   2.107 -0.3185 -0.4553 -0.2276
  611MOL0     C84245  10.676   5.014   2.079 -0.1823  0.0766  0.2974
  611MOL0     C84246  10.976   4.281   2.184  0.3428 -0.4676  0.1228
  611MOL0     C84247  11.032   4.160   2.226  0.3324  0.2988  1.2739
  611MOL0     C84248  11.179   4.139   2.225 -0.4053 -1.2911 -0.6859
  611MOL0     H84249  10.982   3.560   2.167 -2.5171 -1.6107  0.1508
  611MOL0     H84250  11.065   3.381   2.279 -0.5688  0.0671 -0.5796
  611MOL0     H84251  11.199   3.439   2.641  1.3108 -0.1153 -1.0207
  611MOL0     H84252  11.230   3.276   2.620 -0.7330 -1.7648  1.5570
  611MOL0     H84253  10.986   3.346   2.772  1.9617  2.0215  0.6861
  611MOL0     H84254  11.058   3.188   2.735 -0.7387 -0.7558  1.1285
  611MOL0     H84255  11.197   3.416   2.912 -0.0910  0.8368 -2.1217
  611MOL0     H84256  11.086   3.283   2.975  0.9561 -0.7237 -0.2285
  611MOL0     H84257  11.243   3.117   2.922 -1.8454 -0.2658 -2.1357
  611MOL0     H84258  11.320   3.216   2.808 -1.4816 -0.4933 -1.7078
  611MOL0     H84259  11.350   3.222   3.112 -1.5151  1.8355  0.6345
  611MOL0     H84260  11.384   3.366   3.026 -2.2712  0.6556 -0.8142
  611MOL0     H84261  11.546   3.099   2.995  3.4023  0.3640 -0.5154
  611MOL0     H84262  11.543   3.230   2.873 -1.5002 -0.0105 -1.4436
  611MOL0     H84263  11.573   3.307   3.158 -2.5816  1.0263 -0.3756
  611MOL0     H84264  11.638   3.382   3.003 -3.3352  0.1204 -0.2495
  611MOL0     H84265  11.805   3.254   3.184  2.8065 -2.3767  0.0240
  611MOL0     H84266  11.723   3.115   3.135 -0.7954  0.6965  1.5984
  611MOL0     H84267  11.953   3.398   2.990 -0.8521  1.5501 -1.2000
  611MOL0     H84268  12.054   3.436   2.724 -1.5527 -0.1302  2.1028
  611MOL0     H84269  12.097   3.289   2.655  0.0495  2.0292 -1.7399
  611MOL0     H84270  12.249   3.440   2.819 -1.2540  0.3075 -0.7256
  611MOL0     H84271  12.210   3.311   2.929  1.5143  0.1834 -0.6065
  611MOL0     H84272  12.364   3.276   2.660  1.3051 -0.0263  0.4174
  611MOL0     H84273  12.423   3.240   2.816  0.2587 -1.1668 -1.3730
  611MOL0     H84274  12.201   3.112   2.671 -0.8419  2.3952  1.4680
  611MOL0     H84275  12.360   3.044   2.690  1.6382  2.0361 -1.0882
  611MOL0     H84276  12.505   3.008   2.885  0.9299 -2.1366  0.9954
  611MOL0     H84277  12.726   3.028   3.102  2.0922 -2.2189  2.2637
  611MOL0     H84278  12.670   2.912   2.980  1.1030  0.1898 -1.1425
  611MOL0     H84279  12.675   2.873   3.159 -4.3652  0.5268  1.5614
  611MOL0     H84280  12.648   3.090   3.591 -0.2347  2.2057  2.6972
  611MOL0     H84281  12.721   3.045   3.818  0.8296 -0.5907 -0.2422
  611MOL0     H84282  12.684   2.765   4.125  1.3876 -0.5488 -0.5992
  611MOL0     H84283  12.586   2.674   4.000 -0.1002  0.4161 -0.3431
  611MOL0     H84284  12.815   2.612   3.960  1.7449 -0.4739 -2.4759
  611MOL0     H84285  12.783   2.742   3.840 -1.1040  0.2596 -0.4361
  611MOL0     H84286  12.922   2.807   4.102 -1.1098 -1.0028 -0.1545
  611MOL0     H84287  12.880   2.911   3.962 -0.2647  0.3741  1.4527
  611MOL0     H84288  13.030   2.817   3.812 -2.8826  3.2430  0.9150
  611MOL0     H84289  13.060   2.670   3.919  1.6803 -0.2841 -0.0555
  611MOL0     H84290  13.254   2.803   3.935 -0.8868 -1.9894  0.5378
  611MOL0     H84291  13.166   2.959   3.943  4.8494  0.1341  0.3623
  611MOL0     H84292  13.188   2.744   4.164  1.1297  0.3792  2.3024
  611MOL0     H84293  13.123   2.904   4.188 -0.3471  1.5429 -2.2411
  611MOL0     H84294  13.361   2.988   4.115  1.4082  2.7389  5.5951
  611MOL0     H84295  13.395   2.810   4.100 -0.3885 -1.2530  1.0719
  611MOL0     H84296  13.480   2.908   4.305  0.3619 -0.8689 -1.2386
  611MOL0     H84297  13.363   2.779   4.349 -0.3658 -0.8791 -0.7228
  611MOL0     H84298  12.421   2.739   3.857  0.2863 -0.2595  0.2902
  611MOL0     H84299  12.351   2.773   3.614  0.0568  0.6526 -1.3913
  611MOL0     H84300  12.239   2.999   3.295 -4.0356  1.6906 -2.4935
  611MOL0     H84301  12.134   2.999   3.092 -0.0454  0.3083 -2.8634
  611MOL0     H84302  10.901   3.518   2.644 -3.2541 -0.8568 -1.2841
  611MOL0     H84303  10.848   3.759   2.530 -0.7812 -0.5531  0.2960
  611MOL0     H84304  10.752   3.982   2.277  0.5546 -0.9407 -1.8190
  611MOL0     H84305  10.638   4.207   2.207 -0.2153  0.8286 -2.9551
  611MOL0     H84306  10.628   4.424   2.041  2.0879  2.7350 -1.6492
  611MOL0     H84307  10.600   4.421   2.212  1.9226 -0.3626  0.6846
  611MOL0     H84308  10.738   4.656   2.071 -0.8400  0.1252 -0.6433
  611MOL0     H84309  10.709   4.651   2.238  1.4368  1.5261 -0.3902
  611MOL0     H84310  10.535   4.699   1.995 -1.8527  1.4210 -0.0498
  611MOL0     H84311  10.445   4.610   2.112 -1.0389  1.1421 -0.3108
  611MOL0     H84312  10.526   4.825   2.267  0.0582  0.6327 -0.4782
  611MOL0     H84313  10.405   4.847   2.144  0.3187  1.8504  4.0023
  611MOL0     H84314  10.751   5.089   2.064  0.5642  0.1441  3.5638
  611MOL0     H84315  11.043   4.360   2.151  0.2595 -0.6276 -0.4334
  611MOL0     H84316  11.223   4.231   2.186 -1.4238 -0.8693 -0.8699
  611MOL0     H84317  11.221   4.119   2.324 -0.5723  2.0684  0.1648
  611MOL0     H84318  11.216   4.046   2.182 -2.9971 -1.6144 -2.4190
  612MOL0     O84319   0.514   5.341   4.322 -0.1248 -0.4941 -0.2593
  612MOL0     C84320   0.585   5.290   4.242 -0.0795  0.4507  0.9226
  612MOL0     O84321   0.707   5.235   4.266 -0.7616 -0.6301  0.3365
  612MOL0     C84322   0.758   5.241   4.392 -1.1627 -0.0726 -0.1139
  612MOL0     C84323   0.835   5.346   4.431  0.2619  0.5020 -0.0277
  612MOL0     C84324   0.888   5.357   4.560 -0.7230 -0.8867  0.3575
  612MOL0     C84325   0.857   5.263   4.664 -0.2298  1.4907  1.0609
  612MOL0     O84326   0.906   5.245   4.795 -0.0627  0.2283 -0.0414
  612MOL0     C84327   1.000   5.347   4.828 -0.6318  0.7830 -0.1934
  612MOL0     C84328   1.072   5.302   4.956  0.3685 -0.6921  0.0111
  612MOL0     C84329   1.139   5.422   5.041  0.2423  0.5869 -0.2493
  612MOL0     C84330   1.172   5.374   5.184  0.3148 -0.1793  0.4150
  612MOL0     C84331   1.259   5.476   5.247 -0.0141  0.2568 -0.5506
  612MOL0     C84332   1.252   5.492   5.399  0.1635  0.0518 -0.8940
  612MOL0     C84333   1.322   5.371   5.453 -0.9456 -0.4868  0.3683
  612MOL0     C84334   1.283   5.340   5.600 -0.7528 -0.4047  0.9936
  612MOL0     N84335   1.322   5.450   5.687 -0.1842 -0.1363 -0.3159
  612MOL0     C84336   1.252   5.506   5.789  0.8393 -1.7123 -0.3861
  612MOL0     C84337   1.324   5.624   5.823 -0.2817  0.7468  0.3142
  612MOL0     C84338   1.283   5.725   5.931  0.2780  0.1647  0.2582
  612MOL0     C84339   1.379   5.743   6.048 -0.0979 -0.0341 -0.4167
  612MOL0     C84340   1.420   5.600   6.085 -0.4084  0.0988  0.6624
  612MOL0     C84341   1.458   5.580   6.237 -1.9492 -0.1822 -0.2759
  612MOL0     O84342   1.604   5.614   6.261  0.3839 -0.8358 -0.7567
  612MOL0     C84343   1.709   5.522   6.261  0.3063  1.7127  0.0270
  612MOL0     C84344   1.716   5.411   6.178 -0.4386 -0.2532 -0.2032
  612MOL0     C84345   1.825   5.313   6.177  0.2223 -0.3846  0.1187
  612MOL0     C84346   1.834   5.240   6.050 -1.0167  0.1420  0.3905
  612MOL0     C84347   1.922   5.326   6.271 -0.6255  0.4399  0.4743
  612MOL0     C84348   2.038   5.226   6.282  0.0741  0.3762 -0.1841
  612MOL0     O84349   2.109   5.225   6.403  0.9352 -0.0010 -0.0062
  612MOL0     C84350   2.204   5.132   6.437 -0.1955 -0.0179  0.3870
  612MOL0     C84351   2.190   5.064   6.556  0.4048 -0.7089 -0.0407
  612MOL0     C84352   2.288   4.982   6.606  0.5053 -0.5515  0.3432
  612MOL0     C84353   2.402   4.959   6.522  0.3183  0.2555 -0.0395
  612MOL0     O84354   2.486   4.867   6.573  0.0493 -0.4502 -0.3876
  612MOL0     C84355   2.614   4.856   6.529 -0.5452 -0.0269  0.5117
  612MOL0     C84356   2.678   4.737   6.607 -0.3939 -0.1531  0.7458
  612MOL0     C84357   2.831   4.719   6.567  0.8491  0.2724 -1.0589
  612MOL0     C84358   2.866   4.715   6.420 -0.2196 -0.1634 -0.4367
  612MOL0     C84359   2.812   4.584   6.356  0.2755  0.1559  0.2808
  612MOL0     C84360   2.847   4.558   6.209  0.4934  0.2325  0.3621
  612MOL0     C84361   2.764   4.458   6.115 -0.1158 -0.4725  0.5840
  612MOL0     C84362   2.832   4.452   5.986  0.1587  0.2460  0.0390
  612MOL0    Cl84363   2.775   4.307   5.917 -0.0601  0.1748 -0.3883
  612MOL0     C84364   2.411   5.027   6.402  0.3509  0.9378  0.4871
  612MOL0     C84365   2.319   5.118   6.362 -0.8273  0.9329 -0.0860
  612MOL0     O84366   2.052   5.148   6.188 -0.1108  0.2362 -0.3125
  612MOL0     C84367   1.916   5.437   6.354  0.2140  0.6349 -0.0353
  612MOL0     C84368   1.807   5.523   6.352 -0.9017  0.0821  0.7873
  612MOL0     N84369   1.422   5.633   5.737 -0.6438 -0.2169  0.3423
  612MOL0     N84370   1.434   5.530   5.662  0.1387  0.2003 -0.3744
  612MOL0     C84371   0.760   5.164   4.632  0.1347 -0.5400 -0.0348
  612MOL0     C84372   0.722   5.148   4.496 -0.3648  0.1476  0.2167
  612MOL0     C84373   0.523   5.279   4.115 -0.1878 -0.9369  1.1583
  612MOL0     C84374   0.391   5.224   4.107 -0.0288  0.4094  0.0630
  612MOL0     C84375   0.335   5.224   3.975  0.1599 -0.2184  0.2140
  612MOL0     C84376   0.400   5.275   3.862  0.6301 -0.7578  0.8513
  612MOL0     O84377   0.345   5.266   3.728 -0.0971 -0.5079  0.0439
  612MOL0     C84378   0.209   5.231   3.697 -0.2067 -0.6370 -0.5524
  612MOL0     C84379   0.120   5.346   3.723 -0.4480 -0.5439 -0.2084
  612MOL0     C84380   0.138   5.475   3.640  1.4320  0.2723  0.1212
  612MOL0     C84381   0.161   5.458   3.494 -0.4647 -0.0837 -0.3103
  612MOL0     C84382   0.074   5.372   3.415  0.4157  1.0456  0.1650
  612MOL0     C84383  -0.011   5.313   3.344  0.4082 -0.1869  0.2890
  612MOL0     C84384   0.525   5.323   3.870  0.2092  1.1599 -0.0208
  612MOL0     C84385   0.586   5.326   3.997 -0.2417  0.3930 -0.3084
  612MOL0     C84386   0.731   5.375   3.999 -0.6227 -0.3404 -0.0608
  612MOL0     H84387   0.865   5.419   4.356 -0.3474  1.5185  0.6825
  612MOL0     H84388   0.941   5.441   4.603 -2.4591  0.7395 -0.5314
  612MOL0     H84389   0.943   5.439   4.843 -1.2464  0.1135  1.7865
  612MOL0     H84390   1.075   5.366   4.750  2.0656 -1.6568  1.5967
  612MOL0     H84391   1.004   5.254   5.027 -0.5967 -3.5464 -2.5914
  612MOL0     H84392   1.146   5.223   4.936 -1.2436 -3.0881  2.7082
  612MOL0     H84393   1.226   5.453   4.982  0.0601 -0.0389 -0.8587
  612MOL0     H84394   1.074   5.510   5.044 -2.4033 -1.2920  0.3914
  612MOL0     H84395   1.082   5.365   5.246 -0.2412  0.2220 -0.3243
  612MOL0     H84396   1.224   5.278   5.193  0.9742  0.0058 -1.1461
  612MOL0     H84397   1.225   5.574   5.213 -0.0786  1.0647  1.6977
  612MOL0     H84398   1.365   5.463   5.223  0.0372  0.6519 -0.5458
  612MOL0     H84399   1.302   5.585   5.426  0.1220 -0.3850  0.7660
  612MOL0     H84400   1.148   5.492   5.434  0.0614 -1.6338 -1.0836
  612MOL0     H84401   1.429   5.377   5.430 -0.8287 -0.5301  0.8949
  612MOL0     H84402   1.288   5.282   5.399 -0.3281  0.4777 -1.7410
  612MOL0     H84403   1.175   5.330   5.615 -1.0696 -0.3755 -0.9707
  612MOL0     H84404   1.340   5.251   5.627 -0.2949 -0.2443  0.5758
  612MOL0     H84405   1.166   5.477   5.849  0.3118 -0.2305 -0.3867
  612MOL0     H84406   1.186   5.690   5.966 -0.6338  0.9159 -1.4322
  612MOL0     H84407   1.284   5.821   5.879  1.8906 -0.5026 -1.0146
  612MOL0     H84408   1.471   5.799   6.025  1.2747 -1.5208  1.1508
  612MOL0     H84409   1.332   5.791   6.135  3.2357 -0.1633  1.6469
  612MOL0     H84410   1.340   5.528   6.068 -2.5712  1.7026  3.1879
  612MOL0     H84411   1.498   5.564   6.018 -0.3422 -0.9400  1.2743
  612MOL0     H84412   1.399   5.642   6.306 -2.8493 -0.4624 -0.7869
  612MOL0     H84413   1.451   5.475   6.267  5.7999 -1.0337  0.6224
  612MOL0     H84414   1.652   5.410   6.091  1.3009  0.4944 -1.5580
  612MOL0     H84415   1.838   5.132   6.063 -0.6937  0.2984  1.8008
  612MOL0     H84416   1.925   5.270   5.997  0.6609  0.5233  3.2627
  612MOL0     H84417   1.743   5.254   5.991 -1.5388 -1.0515  0.8916
  612MOL0     H84418   2.097   5.086   6.608 -0.9790 -0.0553 -2.6281
  612MOL0     H84419   2.266   4.937   6.702  1.4298  0.5453  1.1034
  612MOL0     H84420   2.620   4.841   6.421  0.3214 -0.9071  0.6712
  612MOL0     H84421   2.679   4.942   6.551  1.2081 -1.3323  0.6510
  612MOL0     H84422   2.654   4.765   6.711 -1.2604  1.0650  0.2443
  612MOL0     H84423   2.618   4.650   6.580  1.8450 -2.8824  3.7046
  612MOL0     H84424   2.863   4.624   6.610  1.8222  0.3289 -1.6065
  612MOL0     H84425   2.886   4.801   6.614  0.7159 -0.5201  0.5321
  612MOL0     H84426   2.974   4.707   6.410 -0.0079  0.3383  1.1185
  612MOL0     H84427   2.834   4.805   6.366 -0.9289 -1.0707 -1.5608
  612MOL0     H84428   2.846   4.500   6.417 -2.1996 -2.5709 -1.7772
  612MOL0     H84429   2.703   4.589   6.368  0.4299  1.2328  1.3975
  612MOL0     H84430   2.945   4.511   6.223  2.0522  3.5352  1.5096
  612MOL0     H84431   2.843   4.652   6.153 -0.6113 -0.2225 -0.3675
  612MOL0     H84432   2.666   4.499   6.089  0.1766  0.2366  0.5561
  612MOL0     H84433   2.748   4.361   6.162  0.5247 -0.7300  0.2673
  612MOL0     H84434   2.941   4.453   5.991  0.1895 -1.4160  0.4023
  612MOL0     H84435   2.807   4.532   5.915 -0.1432 -0.4757 -0.6839
  612MOL0     H84436   2.495   5.007   6.336 -1.5651 -2.2301 -1.2081
  612MOL0     H84437   2.335   5.186   6.278 -1.7144  1.9160  0.5060
  612MOL0     H84438   1.986   5.451   6.436 -1.3776 -0.4384  1.5997
  612MOL0     H84439   1.821   5.606   6.420  2.2701 -0.6190  1.1523
  612MOL0     H84440   0.726   5.106   4.717  1.6053  0.6638  1.4168
  612MOL0     H84441   0.676   5.054   4.469 -2.0990  0.1659  2.7131
  612MOL0     H84442   0.340   5.171   4.187 -0.9729  1.3763  0.1251
  612MOL0     H84443   0.242   5.172   3.956  1.3868 -2.1717 -0.7311
  612MOL0     H84444   0.209   5.194   3.594 -0.8842 -0.6704 -0.5410
  612MOL0     H84445   0.172   5.148   3.759  0.2462  0.5631  1.4233
  612MOL0     H84446   0.126   5.376   3.827  2.7624  0.0673 -0.4789
  612MOL0     H84447   0.017   5.312   3.707 -0.8231  0.1404  0.6619
  612MOL0     H84448   0.052   5.542   3.652  2.1958  1.6851 -1.6796
  612MOL0     H84449   0.221   5.529   3.687  1.4936 -1.5203  2.2342
  612MOL0     H84450   0.262   5.416   3.484  0.7296  0.9567  4.7581
  612MOL0     H84451   0.166   5.552   3.439  2.8104 -0.8431 -1.5333
  612MOL0     H84452  -0.083   5.258   3.286  0.6049  0.2362 -0.3639
  612MOL0     H84453   0.574   5.350   3.777 -0.3713 -1.0519 -1.0354
  612MOL0     H84454   0.778   5.363   3.900  2.6778  3.2990  0.8444
  612MOL0     H84455   0.734   5.480   4.029  1.2620 -0.8331  1.7264
  612MOL0     H84456   0.792   5.319   4.071  0.1398  3.4193  2.4822
  613MOL0     O84457   1.170  10.984   3.450 -0.3074 -0.0091  0.1994
  613MOL0     C84458   1.127  11.089   3.400 -0.9333 -0.0012 -1.1391
  613MOL0     O84459   1.194  11.170   3.325  0.8698  0.3534  0.0694
  613MOL0     C84460   1.331  11.154   3.322 -0.7180  0.2801  0.1723
  613MOL0     C84461   1.417  11.122   3.423 -0.2310  0.7559 -0.0180
  613MOL0     C84462   1.557  11.139   3.405  0.1558 -0.0342 -0.4567
  613MOL0     C84463   1.616  11.182   3.285 -0.3137 -0.9236  0.7065
  613MOL0     O84464   1.752  11.192   3.264 -0.8514 -0.4467  0.5582
  613MOL0     C84465   1.829  11.219   3.386 -0.4809  0.9627  0.7560
  613MOL0     C84466   1.966  11.265   3.344  0.1282 -0.2230  0.1251
  613MOL0     C84467   2.045  11.311   3.463 -0.1702  0.0295  0.9974
  613MOL0     C84468   2.187  11.338   3.410  0.5938 -0.3877 -0.5796
  613MOL0     C84469   2.293  11.399   3.506  0.2090 -0.6797  0.1617
  613MOL0     C84470   2.308  11.323   3.641 -0.2634 -1.2517 -0.1217
  613MOL0     C84471   2.435  11.370   3.704  0.4126 -0.4148 -0.2878
  613MOL0     C84472   2.477  11.283   3.823 -0.0169 -0.3858 -0.1409
  613MOL0     N84473   2.594  11.322   3.894  0.3379 -0.2519 -0.5748
  613MOL0     C84474   2.703  11.231   3.922 -0.0037  0.5513 -0.4851
  613MOL0     C84475   2.793  11.298   3.999 -0.0604  0.2920 -0.0271
  613MOL0     C84476   2.928  11.244   4.045  0.6070 -0.4940 -0.1771
  613MOL0     C84477   2.911  11.192   4.190  0.6978  0.4438 -0.1140
  613MOL0     C84478   3.045  11.134   4.248 -0.5148 -0.0563 -0.0187
  613MOL0     C84479   3.158  11.236   4.273 -0.1369  0.2409 -0.3607
  613MOL0     O84480   3.253  11.170   4.363 -0.5914  0.5039 -0.2140
  613MOL0     C84481   3.357  11.247   4.409  0.1321  0.8640 -0.1464
  613MOL0     C84482   3.471  11.176   4.459  0.2457 -0.0921 -0.2143
  613MOL0     C84483   3.587  11.240   4.501 -0.5186 -0.2454 -0.5349
  613MOL0     C84484   3.677  11.147   4.576 -0.0557  0.6364  0.3754
  613MOL0     C84485   3.599  11.372   4.483  0.8432 -0.2235 -1.1440
  613MOL0     C84486   3.712  11.456   4.529  0.9029  0.6580  0.4472
  613MOL0     O84487   3.746  11.430   4.660 -0.2687  0.4816 -0.7447
  613MOL0     C84488   3.863  11.485   4.695  0.2063 -0.5266  0.0166
  613MOL0     C84489   3.985  11.441   4.637 -0.2487  0.5741  0.0556
  613MOL0     C84490   4.106  11.486   4.689 -0.2034  0.5854  0.0077
  613MOL0     C84491   4.114  11.556   4.808  0.0348 -0.0639  0.1484
  613MOL0     O84492   4.233  11.599   4.871  0.6916  0.3810 -0.0492
  613MOL0     C84493   4.360  11.615   4.801 -0.2429  0.1513  1.0953
  613MOL0     C84494   4.455  11.679   4.894 -0.6960 -0.1458 -0.1827
  613MOL0     C84495   4.575  11.741   4.821 -0.6132 -0.0399 -0.4105
  613MOL0     C84496   4.660  11.852   4.900 -0.1593  0.1036 -0.7866
  613MOL0     C84497   4.776  11.906   4.822  0.1808  1.1720 -0.2261
  613MOL0     C84498   4.831  12.047   4.872  0.5065  0.5367  0.2786
  613MOL0     C84499   4.877  12.048   5.024  0.0897  0.5720  0.8660
  613MOL0     C84500   4.910  12.189   5.069  0.2083  0.1543  0.9546
  613MOL0    Cl84501   5.075  12.231   4.995  0.4239  0.1726  0.1737
  613MOL0     C84502   3.998  11.596   4.873 -0.0054 -0.2648  0.5017
  613MOL0     C84503   3.875  11.553   4.815  0.1627 -0.2595  0.2613
  613MOL0     O84504   3.746  11.550   4.457 -0.1652  0.2258  0.0884
  613MOL0     C84505   3.500  11.444   4.410  0.1074  0.3645  1.3096
  613MOL0     C84506   3.378  11.381   4.382  0.2194 -1.1246  0.2711
  613MOL0     N84507   2.736  11.425   4.017 -0.0843 -0.3121 -0.0782
  613MOL0     N84508   2.618  11.430   3.970  0.4326  0.3946  0.4442
  613MOL0     C84509   1.531  11.226   3.186 -0.7324 -0.6014 -0.7328
  613MOL0     C84510   1.396  11.209   3.207  1.0156  0.4102  1.0406
  613MOL0     C84511   0.982  11.112   3.408  0.4790 -0.7453 -0.1216
  613MOL0     C84512   0.941  11.241   3.426  0.0273  0.2941 -0.6701
  613MOL0     C84513   0.813  11.278   3.441  0.8076 -0.6310 -0.2214
  613MOL0     C84514   0.709  11.177   3.450 -0.2918  1.1411  1.6748
  613MOL0     O84515   0.589  11.234   3.463 -0.4016 -0.0101  0.4053
  613MOL0     C84516   0.483  11.147   3.498  0.1160  0.5694 -0.6606
  613MOL0     C84517   0.389  11.235   3.569  0.3684 -0.6059 -0.5779
  613MOL0     C84518   0.260  11.158   3.597 -0.0582 -0.6337  0.3117
  613MOL0     C84519   0.267  11.084   3.732  0.9910 -0.0678 -0.7246
  613MOL0     C84520   0.136  11.033   3.789 -0.4464 -0.4979 -0.5765
  613MOL0     C84521   0.022  11.006   3.821  0.5807 -0.1357 -0.3214
  613MOL0     C84522   0.752  11.041   3.430  0.5882  0.2314  0.3942
  613MOL0     C84523   0.886  11.007   3.406  0.4637  1.0659 -0.3926
  613MOL0     C84524   0.918  10.859   3.379  0.4519  0.0271 -0.0804
  613MOL0     H84525   1.381  11.078   3.515  1.6110  0.6668  0.6997
  613MOL0     H84526   1.622  11.105   3.486  1.7762  2.4958 -0.5792
  613MOL0     H84527   1.847  11.136   3.455  3.0131  1.5572  0.7563
  613MOL0     H84528   1.783  11.301   3.441  1.6639  1.5739  1.7655
  613MOL0     H84529   2.021  11.179   3.302  0.0972 -0.9132  1.4474
  613MOL0     H84530   1.962  11.342   3.267 -2.7335 -2.4765 -2.2715
  613MOL0     H84531   1.988  11.398   3.498 -0.0251 -0.1097  1.5892
  613MOL0     H84532   2.050  11.227   3.533 -1.8330 -0.9657  0.0013
  613MOL0     H84533   2.226  11.241   3.379 -1.0556 -1.3987  0.3853
  613MOL0     H84534   2.177  11.410   3.328  0.2508  1.8764  1.3431
  613MOL0     H84535   2.271  11.505   3.525 -1.9372 -1.1116  0.4315
  613MOL0     H84536   2.389  11.394   3.455  0.0419 -1.6974 -0.0702
  613MOL0     H84537   2.221  11.347   3.703  0.3402  0.9534 -0.0474
  613MOL0     H84538   2.314  11.215   3.628  0.5842 -1.6680  2.8749
  613MOL0     H84539   2.418  11.473   3.737 -3.1293 -0.8675 -0.2484
  613MOL0     H84540   2.512  11.368   3.627  1.9699 -0.1008  1.2096
  613MOL0     H84541   2.393  11.292   3.892 -1.6385 -0.3498 -2.0297
  613MOL0     H84542   2.484  11.178   3.792 -0.8707 -1.1688  2.1373
  613MOL0     H84543   2.705  11.127   3.889 -3.2036  0.5553 -1.0151
  613MOL0     H84544   2.999  11.328   4.043 -1.3562  1.4985  3.4762
  613MOL0     H84545   2.961  11.163   3.979  0.3205  0.6675 -1.7968
  613MOL0     H84546   2.875  11.268   4.260  2.8005  1.3194  0.0917
  613MOL0     H84547   2.838  11.110   4.193  1.0500  0.1486  1.3275
  613MOL0     H84548   3.006  11.089   4.339 -0.5096 -1.4940 -0.6941
  613MOL0     H84549   3.089  11.061   4.179  0.4085  0.3050  0.1712
  613MOL0     H84550   3.206  11.265   4.179  2.6055  0.7739  1.1000
  613MOL0     H84551   3.128  11.331   4.317  1.2052 -0.0255  1.2522
  613MOL0     H84552   3.480  11.068   4.465  1.7844 -0.0002 -0.4383
  613MOL0     H84553   3.683  11.052   4.523  3.1718  1.3432 -0.7446
  613MOL0     H84554   3.651  11.133   4.682  2.3749 -1.1301  0.8103
  613MOL0     H84555   3.780  11.183   4.586 -0.4902  1.7239  1.3092
  613MOL0     H84556   3.984  11.373   4.552  2.0477  2.5736 -1.7320
  613MOL0     H84557   4.196  11.456   4.636 -0.6372 -1.9601  0.5576
  613MOL0     H84558   4.391  11.515   4.768 -2.0874 -0.2811  0.5806
  613MOL0     H84559   4.341  11.679   4.714 -0.2029  4.1317  3.7911
  613MOL0     H84560   4.401  11.764   4.938 -3.6281 -2.0937  0.2587
  613MOL0     H84561   4.488  11.612   4.974  0.5132  1.3376  0.6333
  613MOL0     H84562   4.542  11.787   4.728 -2.9182 -1.7885 -0.5486
  613MOL0     H84563   4.647  11.665   4.790  0.1895  0.1867  0.8403
  613MOL0     H84564   4.691  11.820   5.000  1.0009 -1.6669 -1.6554
  613MOL0     H84565   4.587  11.931   4.920  0.0115  0.6575 -2.2674
  613MOL0     H84566   4.858  11.834   4.828  0.7737  1.9600  2.0528
  613MOL0     H84567   4.754  11.925   4.716  2.6061 -0.7817 -1.1793
  613MOL0     H84568   4.747  12.115   4.855  1.4990  1.9681  0.8925
  613MOL0     H84569   4.906  12.088   4.803  2.5888 -0.9231  1.5386
  613MOL0     H84570   4.967  11.988   5.037 -1.2803 -1.8815 -0.1992
  613MOL0     H84571   4.801  12.005   5.090  0.7984 -0.3047  1.1258
  613MOL0     H84572   4.915  12.189   5.178 -0.5114 -3.2913  1.1148
  613MOL0     H84573   4.834  12.259   5.034 -1.0326 -0.5111  2.2188
  613MOL0     H84574   4.011  11.663   4.957  1.2532  0.9573 -0.6212
  613MOL0     H84575   3.799  11.588   4.884  1.7707  2.8394  0.6538
  613MOL0     H84576   3.511  11.546   4.375  2.6329 -0.7140 -1.5716
  613MOL0     H84577   3.306  11.436   4.322  1.3346 -0.2747 -0.3281
  613MOL0     H84578   1.584  11.261   3.098  1.0645 -4.5930 -1.5011
  613MOL0     H84579   1.317  11.238   3.138  1.9106 -0.9073 -0.6001
  613MOL0     H84580   1.016  11.319   3.426 -1.2071  1.5767  1.4777
  613MOL0     H84581   0.792  11.384   3.435  4.1080  0.1248  0.0206
  613MOL0     H84582   0.452  11.087   3.413  2.5586 -2.4781  0.4147
  613MOL0     H84583   0.520  11.079   3.575  0.8899  1.3287 -0.3460
  613MOL0     H84584   0.364  11.322   3.508 -0.0052 -1.5822 -1.8417
  613MOL0     H84585   0.438  11.278   3.658  1.7416  0.1685 -1.6673
  613MOL0     H84586   0.176  11.229   3.593 -0.9182 -1.6318  0.1098
  613MOL0     H84587   0.239  11.078   3.526  2.1520 -2.2798  1.3742
  613MOL0     H84588   0.319  11.147   3.804  3.0432 -2.3810 -0.0178
  613MOL0     H84589   0.333  10.997   3.715  1.7257  0.5052 -0.8558
  613MOL0     H84590  -0.083  10.989   3.833 -0.0574  2.0083 -2.0810
  613MOL0     H84591   0.686  10.956   3.415 -1.0281  1.6265 -0.8278
  613MOL0     H84592   0.985  10.862   3.293  0.0693  0.6207 -0.3642
  613MOL0     H84593   0.969  10.804   3.458  0.7752 -1.9165 -1.5501
  613MOL0     H84594   0.832  10.801   3.345  1.5591 -1.1180 -1.0329
  614MOL0     O84595   4.978   5.115   3.463 -0.0028 -0.4159 -0.4213
  614MOL0     C84596   4.968   5.121   3.587 -0.4449  0.4502 -0.1076
  614MOL0     O84597   5.071   5.118   3.669 -0.0209  0.2432  0.6648
  614MOL0     C84598   5.197   5.143   3.620  0.3252  0.5513  0.2365
  614MOL0     C84599   5.239   5.266   3.577 -0.3571  0.2596  0.6650
  614MOL0     C84600   5.375   5.291   3.542  0.3123  0.7568  0.0057
  614MOL0     C84601   5.479   5.200   3.562  0.8938 -0.5954  0.6568
  614MOL0     O84602   5.600   5.232   3.515 -0.0886  0.0940 -0.1572
  614MOL0     C84603   5.706   5.131   3.534 -0.1433  0.2745  0.3834
  614MOL0     C84604   5.762   5.133   3.670 -0.1190 -1.0331  0.2251
  614MOL0     C84605   5.828   4.995   3.702 -0.5468 -0.6221 -1.5929
  614MOL0     C84606   5.925   4.999   3.830  0.5968 -1.0185  0.3039
  614MOL0     C84607   6.071   5.021   3.789 -0.2022  0.3494  0.5411
  614MOL0     C84608   6.172   5.013   3.909 -0.0169 -0.1797 -0.5126
  614MOL0     C84609   6.321   5.038   3.852  0.6678 -0.1072  0.6730
  614MOL0     C84610   6.421   5.024   3.973  0.9444  0.1624 -0.8214
  614MOL0     N84611   6.556   5.056   3.930  0.3263 -1.3085 -0.0742
  614MOL0     C84612   6.617   5.018   3.817  0.3318 -0.1849  0.0091
  614MOL0     C84613   6.737   5.086   3.802  0.0562  0.0245 -0.4445
  614MOL0     C84614   6.837   5.069   3.691 -0.2726  0.5475 -0.4274
  614MOL0     C84615   6.913   5.193   3.666 -0.4815 -0.4494  0.2532
  614MOL0     C84616   6.986   5.190   3.528 -0.1324 -0.7393  0.2585
  614MOL0     C84617   6.976   5.331   3.462 -0.6212 -0.1983  0.4359
  614MOL0     O84618   7.035   5.434   3.538 -0.4354  0.3663  0.7324
  614MOL0     C84619   7.160   5.480   3.511 -1.1572  0.6155 -0.3314
  614MOL0     C84620   7.241   5.463   3.391  0.0544  0.3045  0.6858
  614MOL0     C84621   7.364   5.537   3.367 -0.1678  0.0829  0.3228
  614MOL0     C84622   7.438   5.514   3.238  0.2410  0.6852  0.1160
  614MOL0     C84623   7.407   5.627   3.469  0.0112 -0.1867  0.7133
  614MOL0     C84624   7.531   5.716   3.455  0.4706  0.0798 -0.1364
  614MOL0     O84625   7.530   5.833   3.532  0.3231 -0.3631  0.1535
  614MOL0     C84626   7.625   5.923   3.513 -0.4900  0.0065  0.0009
  614MOL0     C84627   7.731   5.938   3.611  0.2866  0.0322  0.5122
  614MOL0     C84628   7.834   6.024   3.595  0.4350 -0.0008  0.4095
  614MOL0     C84629   7.827   6.114   3.489 -0.0460 -0.0655 -0.8200
  614MOL0     O84630   7.909   6.219   3.500 -0.2361 -0.1676 -0.1095
  614MOL0     C84631   7.937   6.279   3.379 -0.3721 -0.3339 -0.3863
  614MOL0     C84632   8.067   6.366   3.399 -0.5276  0.0401 -0.3955
  614MOL0     C84633   8.197   6.301   3.454  0.3385  0.3371 -0.1260
  614MOL0     C84634   8.321   6.400   3.430  0.4966  0.3150 -0.5946
  614MOL0     C84635   8.445   6.351   3.517  0.0715  0.0343  0.2055
  614MOL0     C84636   8.570   6.370   3.435  0.0051 -0.5357  0.3282
  614MOL0     C84637   8.694   6.376   3.526  0.0188  0.3512  0.3090
  614MOL0     C84638   8.824   6.354   3.439  0.1725  0.1099  0.2471
  614MOL0    Cl84639   8.960   6.350   3.552  0.0290 -0.2095  0.5702
  614MOL0     C84640   7.726   6.101   3.397  0.0211  0.4737  0.1472
  614MOL0     C84641   7.627   6.001   3.400  0.3584 -0.4916  0.7143
  614MOL0     O84642   7.632   5.679   3.387  0.2095 -0.0056  0.2559
  614MOL0     C84643   7.317   5.645   3.577 -0.0728 -0.2931  0.0681
  614MOL0     C84644   7.199   5.579   3.599  0.2578 -0.3984 -0.8159
  614MOL0     N84645   6.736   5.168   3.909  0.4472 -0.5237 -0.0734
  614MOL0     N84646   6.638   5.154   3.985  0.3405  0.4843  0.0939
  614MOL0     C84647   5.437   5.078   3.618 -0.0086 -0.4087  0.7084
  614MOL0     C84648   5.301   5.050   3.643  0.6484 -0.5841  0.5522
  614MOL0     C84649   4.825   5.134   3.643 -0.0788 -0.1108  0.3356
  614MOL0     C84650   4.817   5.143   3.784  0.6439 -0.9031  0.3971
  614MOL0     C84651   4.693   5.142   3.846 -0.0333 -0.0807 -0.1396
  614MOL0     C84652   4.578   5.138   3.777 -0.3942 -1.0748  0.5251
  614MOL0     O84653   4.467   5.142   3.861 -0.0879  0.5625 -0.4231
  614MOL0     C84654   4.333   5.119   3.807 -0.0658  0.5816 -0.0740
  614MOL0     C84655   4.315   4.980   3.745  0.5634 -0.8025 -0.8646
  614MOL0     C84656   4.351   4.867   3.844 -0.1548  0.0055 -0.4618
  614MOL0     C84657   4.362   4.727   3.776 -0.3926  1.0486 -0.3413
  614MOL0     C84658   4.262   4.687   3.674 -0.6140 -0.7138  0.5123
  614MOL0     C84659   4.173   4.664   3.599  0.9094 -0.5913 -0.8000
  614MOL0     C84660   4.585   5.150   3.643  0.8639 -0.3983  0.4936
  614MOL0     C84661   4.704   5.150   3.569 -0.9534  0.4201 -0.0804
  614MOL0     C84662   4.703   5.155   3.420  0.2294 -0.3412 -0.0448
  614MOL0     H84663   5.176   5.353   3.561  0.2755  1.2090  2.9112
  614MOL0     H84664   5.402   5.385   3.495  0.9774  0.0805 -1.0305
  614MOL0     H84665   5.795   5.158   3.477  0.4755 -0.2168  1.0846
  614MOL0     H84666   5.663   5.031   3.523 -0.1025  0.0592  1.8852
  614MOL0     H84667   5.831   5.218   3.681  0.5741 -1.7213  1.4138
  614MOL0     H84668   5.676   5.142   3.737 -1.8533 -4.5365 -1.2759
  614MOL0     H84669   5.755   4.918   3.724  0.1642 -0.3334  2.4128
  614MOL0     H84670   5.889   4.961   3.617  1.6250  0.0237 -0.3826
  614MOL0     H84671   5.889   5.076   3.899 -2.6136 -2.1806  0.1215
  614MOL0     H84672   5.916   4.900   3.876 -2.2430 -1.5280 -1.1237
  614MOL0     H84673   6.073   5.117   3.735 -0.0170  1.1179  1.8849
  614MOL0     H84674   6.102   4.946   3.716 -0.0787  3.1301 -2.5087
  614MOL0     H84675   6.147   5.085   3.988  0.3455 -2.4218  1.7575
  614MOL0     H84676   6.175   4.914   3.954  4.3649 -0.8659 -1.8608
  614MOL0     H84677   6.322   5.135   3.801  1.2138 -0.8530 -0.7929
  614MOL0     H84678   6.320   4.961   3.775 -1.1928  0.0195  0.5166
  614MOL0     H84679   6.382   5.093   4.048 -1.0576 -0.8274 -0.8871
  614MOL0     H84680   6.409   4.918   3.999 -0.2634  0.4843  0.0208
  614MOL0     H84681   6.583   4.948   3.742  2.2634  1.2249 -2.3634
  614MOL0     H84682   6.780   5.045   3.600  2.0028  2.1087 -2.4076
  614MOL0     H84683   6.904   4.988   3.722 -2.1800 -0.7439  0.5250
  614MOL0     H84684   6.837   5.272   3.661 -0.4686 -0.4358  0.2688
  614MOL0     H84685   6.978   5.215   3.751 -0.1297  0.6888 -0.2925
  614MOL0     H84686   7.093   5.180   3.549  0.0256 -0.3986 -0.3611
  614MOL0     H84687   6.963   5.110   3.458  2.0312  1.0847 -2.8289
  614MOL0     H84688   7.020   5.331   3.362 -3.2242  0.0429 -0.7872
  614MOL0     H84689   6.872   5.359   3.443 -0.7508 -1.4812 -0.9450
  614MOL0     H84690   7.213   5.399   3.308  1.1472  1.9074 -0.9730
  614MOL0     H84691   7.463   5.608   3.188 -1.3830  1.5975  0.9466
  614MOL0     H84692   7.375   5.461   3.167  0.5522 -0.1168  0.4272
  614MOL0     H84693   7.536   5.465   3.241 -0.1860 -0.2030 -0.1431
  614MOL0     H84694   7.732   5.873   3.698  2.2418  0.4703  0.8633
  614MOL0     H84695   7.920   6.024   3.662  1.1758 -1.6715 -0.5069
  614MOL0     H84696   7.950   6.202   3.303 -0.5194  0.2606 -1.0204
  614MOL0     H84697   7.857   6.349   3.351 -0.2105 -0.2101 -0.5321
  614MOL0     H84698   8.084   6.426   3.309  0.1339 -0.3276 -0.5221
  614MOL0     H84699   8.028   6.439   3.471  1.5347 -1.5079  2.5095
  614MOL0     H84700   8.202   6.211   3.393  0.3440  1.7171 -2.2523
  614MOL0     H84701   8.172   6.286   3.559 -1.2955  1.1399 -0.3777
  614MOL0     H84702   8.294   6.497   3.472  1.7142  0.2192  0.4777
  614MOL0     H84703   8.331   6.400   3.321 -3.2245 -0.8271 -1.0943
  614MOL0     H84704   8.455   6.406   3.612  5.0423 -2.5296  1.5387
  614MOL0     H84705   8.427   6.247   3.543 -0.2270 -0.9255 -3.3616
  614MOL0     H84706   8.564   6.466   3.384  2.1461 -1.3191 -1.5521
  614MOL0     H84707   8.588   6.298   3.354  1.2101 -0.0247  0.1223
  614MOL0     H84708   8.694   6.292   3.596 -1.8842 -0.3371 -0.4360
  614MOL0     H84709   8.705   6.473   3.576  2.1367  0.6807 -0.7111
  614MOL0     H84710   8.844   6.433   3.366  0.5335 -1.2339 -1.1636
  614MOL0     H84711   8.813   6.261   3.383  1.2274 -0.3754  0.8156
  614MOL0     H84712   7.718   6.163   3.308  0.2320 -1.4136 -1.2484
  614MOL0     H84713   7.548   5.994   3.326  0.1006  1.0223  0.8118
  614MOL0     H84714   7.333   5.725   3.648 -2.5475  1.1920 -0.9037
  614MOL0     H84715   7.140   5.619   3.681  0.1178 -0.8113 -0.7125
  614MOL0     H84716   5.505   5.000   3.651  0.5831  0.3008  1.1959
  614MOL0     H84717   5.277   4.951   3.680 -1.2159 -0.0400  0.9249
  614MOL0     H84718   4.906   5.141   3.846  1.1999 -2.6197 -0.4109
  614MOL0     H84719   4.695   5.143   3.955  0.6125 -0.4154 -0.1427
  614MOL0     H84720   4.269   5.123   3.896 -0.0369 -3.1570  0.2700
  614MOL0     H84721   4.309   5.196   3.733  4.5737 -0.2994 -2.9012
  614MOL0     H84722   4.371   4.976   3.651  1.1818  0.6242 -0.5814
  614MOL0     H84723   4.209   4.966   3.721 -0.0815 -0.2212  1.4177
  614MOL0     H84724   4.449   4.895   3.883  0.4949 -2.5732 -0.0160
  614MOL0     H84725   4.278   4.861   3.925  0.3568 -4.9243 -0.0613
  614MOL0     H84726   4.379   4.653   3.855  0.0076  1.6072  0.1045
  614MOL0     H84727   4.456   4.720   3.720 -0.1986 -0.3517  0.1171
  614MOL0     H84728   4.082   4.644   3.547 -1.3135 -2.3042  3.2328
  614MOL0     H84729   4.493   5.151   3.585  1.3814  0.3425 -0.3293
  614MOL0     H84730   4.755   5.241   3.376  0.4496  0.1653  1.1782
  614MOL0     H84731   4.743   5.061   3.382 -0.8671 -0.8330 -0.0133
  614MOL0     H84732   4.600   5.175   3.389  0.5953  0.0828 -1.0444
  615MOL0     O84733   5.853   4.900   3.337  0.4350  0.9209  0.3121
  615MOL0     C84734   5.828   4.789   3.395 -0.1168 -0.3744 -0.0270
  615MOL0     O84735   5.934   4.698   3.424  0.6151  0.4687 -0.0437
  615MOL0     C84736   6.067   4.728   3.399 -0.4665  0.2739 -0.0292
  615MOL0     C84737   6.162   4.714   3.499  0.3371  0.5927 -0.6949
  615MOL0     C84738   6.295   4.741   3.469  0.1458  0.0193 -0.0571
  615MOL0     C84739   6.336   4.770   3.338  0.0907  0.3073  0.3883
  615MOL0     O84740   6.465   4.801   3.311 -0.5564  0.2335 -0.4529
  615MOL0     C84741   6.521   4.746   3.194 -0.3250 -0.5945 -0.1897
  615MOL0     C84742   6.667   4.709   3.207  0.0966 -0.0489  0.4490
  615MOL0     C84743   6.759   4.830   3.216 -0.4253  0.2187 -0.3190
  615MOL0     C84744   6.893   4.766   3.236 -0.8505 -0.2968 -0.2227
  615MOL0     C84745   7.012   4.868   3.256 -0.1666  1.0833 -0.5306
  615MOL0     C84746   7.153   4.798   3.293 -0.0188  0.3901 -0.1244
  615MOL0     C84747   7.279   4.873   3.308 -0.7779 -0.2985  0.9856
  615MOL0     C84748   7.269   5.003   3.398  1.4959  0.3320  0.7874
  615MOL0     N84749   7.391   5.076   3.382  0.2328  0.1725 -0.0438
  615MOL0     C84750   7.478   5.107   3.483 -0.7535  0.6813 -0.4067
  615MOL0     C84751   7.581   5.179   3.424 -0.1827  0.6810 -0.1796
  615MOL0     C84752   7.699   5.216   3.505  0.8340  0.2636  0.3941
  615MOL0     C84753   7.754   5.348   3.451 -0.3175 -0.1919 -0.2788
  615MOL0     C84754   7.887   5.369   3.523  0.1808 -0.8316  0.2111
  615MOL0     C84755   7.966   5.489   3.446  0.0679 -0.3697  0.3090
  615MOL0     O84756   8.087   5.495   3.521 -0.0143 -0.1742  0.0389
  615MOL0     C84757   8.175   5.597   3.481 -0.3558  0.0788 -0.3444
  615MOL0     C84758   8.156   5.698   3.393  0.4838 -1.1182 -0.4568
  615MOL0     C84759   8.253   5.791   3.350  0.7659 -0.6739 -0.0169
  615MOL0     C84760   8.213   5.905   3.258 -0.0675  0.2773  0.4004
  615MOL0     C84761   8.384   5.775   3.395  0.3400 -0.1064 -0.0863
  615MOL0     C84762   8.496   5.860   3.351 -0.3801 -0.5608  0.3458
  615MOL0     O84763   8.595   5.799   3.276 -0.2421 -0.6730  0.0853
  615MOL0     C84764   8.702   5.884   3.243  0.1486 -0.1932  0.3371
  615MOL0     C84765   8.799   5.910   3.340 -0.4047 -0.0230 -0.4511
  615MOL0     C84766   8.906   5.983   3.298  0.8616 -0.3986 -0.3464
  615MOL0     C84767   8.918   6.031   3.170 -0.3702 -0.4782  0.9121
  615MOL0     O84768   9.022   6.105   3.125 -0.1158  0.2280  0.0821
  615MOL0     C84769   9.149   6.043   3.120 -0.0054  0.5119 -0.8408
  615MOL0     C84770   9.211   6.061   2.985 -0.7402 -0.8584 -0.3819
  615MOL0     C84771   9.130   6.017   2.863  0.2132 -0.4125  0.2600
  615MOL0     C84772   9.110   5.865   2.854  0.2419  0.0560 -0.1161
  615MOL0     C84773   9.042   5.830   2.726  0.0024 -0.1288  0.4430
  615MOL0     C84774   8.889   5.843   2.735 -1.1669 -0.4274  0.4221
  615MOL0     C84775   8.819   5.793   2.604 -0.1286 -0.0087 -0.2196
  615MOL0     C84776   8.669   5.796   2.626 -0.6103 -0.1077 -0.7825
  615MOL0    Cl84777   8.620   5.949   2.698 -0.3183  0.1341 -0.0055
  615MOL0     C84778   8.827   5.997   3.074  0.7985  0.0539 -0.1299
  615MOL0     C84779   8.712   5.928   3.111  0.3845 -0.1023  0.0029
  615MOL0     O84780   8.493   5.980   3.377 -0.4793  0.3939 -0.0415
  615MOL0     C84781   8.413   5.678   3.499  0.2164 -0.8531  0.0895
  615MOL0     C84782   8.307   5.600   3.540  0.9092 -0.1790  0.5891
  615MOL0     N84783   7.547   5.188   3.293 -0.0686  0.3559  0.3726
  615MOL0     N84784   7.432   5.130   3.266  0.4287  0.4865  0.5456
  615MOL0     C84785   6.241   4.790   3.239  0.1352  0.0778 -0.0502
  615MOL0     C84786   6.111   4.753   3.267  0.3067 -0.0558 -0.0622
  615MOL0     C84787   5.685   4.762   3.440  0.0589 -1.1149 -0.0969
  615MOL0     C84788   5.672   4.672   3.548  0.4849  0.3437  0.1178
  615MOL0     C84789   5.546   4.636   3.598 -0.1407 -0.2070 -1.1894
  615MOL0     C84790   5.426   4.697   3.552 -0.9140 -0.2624 -0.3800
  615MOL0     O84791   5.303   4.681   3.604  0.0316  0.7008  0.8264
  615MOL0     C84792   5.215   4.636   3.493 -0.6255  0.5230 -0.6078
  615MOL0     C84793   5.075   4.587   3.553  0.9558  0.7290 -0.1347
  615MOL0     C84794   5.006   4.705   3.613  0.0165 -0.2763  0.0111
  615MOL0     C84795   4.881   4.651   3.695  1.1578 -0.6061  0.2034
  615MOL0     C84796   4.839   4.749   3.796 -0.4524  0.2827 -0.1451
  615MOL0     C84797   4.783   4.820   3.880 -0.5980 -0.5700  0.2825
  615MOL0     C84798   5.441   4.800   3.453  0.4614  0.1029  0.6476
  615MOL0     C84799   5.562   4.819   3.389  0.7231  0.4724  0.9538
  615MOL0     C84800   5.556   4.916   3.270 -1.2070  0.0990 -0.2374
  615MOL0     H84801   6.122   4.691   3.597  2.1147  2.5138  0.5575
  615MOL0     H84802   6.373   4.737   3.545 -2.6174  1.8142  3.1407
  615MOL0     H84803   6.505   4.806   3.104  2.4909 -2.4395 -2.0889
  615MOL0     H84804   6.466   4.652   3.183 -3.3799  0.4625  3.7218
  615MOL0     H84805   6.679   4.647   3.296  2.5464  0.4140  0.5335
  615MOL0     H84806   6.699   4.643   3.125  0.1648 -0.4222  0.7742
  615MOL0     H84807   6.762   4.879   3.119 -3.0784 -1.3400 -1.2754
  615MOL0     H84808   6.749   4.905   3.296  1.7706  2.7941 -2.2558
  615MOL0     H84809   6.894   4.697   3.321 -1.3197  1.3331  1.1522
  615MOL0     H84810   6.910   4.694   3.154  1.2143  1.0537 -1.0625
  615MOL0     H84811   7.001   4.939   3.338  5.0922  2.1373 -0.3518
  615MOL0     H84812   7.024   4.928   3.165 -0.9555  1.2739 -0.5148
  615MOL0     H84813   7.124   4.746   3.385  0.3364 -2.0830 -1.3499
  615MOL0     H84814   7.183   4.726   3.217  2.8286 -1.3241  2.4060
  615MOL0     H84815   7.312   4.900   3.207 -0.5122 -0.0220  1.1431
  615MOL0     H84816   7.360   4.815   3.352  1.2532  2.0837  0.5857
  615MOL0     H84817   7.188   5.066   3.360  0.1493  0.1225  3.1375
  615MOL0     H84818   7.239   4.985   3.501 -1.8418  0.9130  0.0528
  615MOL0     H84819   7.470   5.091   3.590  1.1500  0.1072 -0.3114
  615MOL0     H84820   7.780   5.142   3.505  1.6862  1.1161  2.3336
  615MOL0     H84821   7.669   5.234   3.609 -3.5921 -3.0689 -0.0294
  615MOL0     H84822   7.767   5.327   3.344 -1.3302 -2.0327 -0.0854
  615MOL0     H84823   7.693   5.434   3.478 -0.8058 -0.2592 -1.1175
  615MOL0     H84824   7.873   5.391   3.629 -1.1585 -0.6591  0.0132
  615MOL0     H84825   7.954   5.284   3.509 -0.3676 -1.0554 -1.3497
  615MOL0     H84826   7.992   5.459   3.344 -0.0834  2.5360 -0.6674
  615MOL0     H84827   7.909   5.581   3.430 -1.4464 -0.5365  3.7744
  615MOL0     H84828   8.053   5.718   3.365  1.1978  4.8229 -0.0815
  615MOL0     H84829   8.282   5.900   3.173 -0.4034 -2.4633  0.2033
  615MOL0     H84830   8.244   6.003   3.296  4.7985 -1.2803  1.0992
  615MOL0     H84831   8.111   5.914   3.219 -1.3877  0.5560  3.6259
  615MOL0     H84832   8.799   5.859   3.436  3.9180 -0.9063 -0.6798
  615MOL0     H84833   8.975   6.000   3.380  0.7808 -2.8121  0.2992
  615MOL0     H84834   9.222   6.065   3.198  0.9101 -0.3530 -1.4208
  615MOL0     H84835   9.139   5.934   3.124  2.1723  0.3125  0.5461
  615MOL0     H84836   9.225   6.167   2.962 -3.6068 -0.7453 -2.1690
  615MOL0     H84837   9.313   6.021   2.983  0.2005  1.2972  0.5564
  615MOL0     H84838   9.185   6.050   2.774  2.2160  2.3871  2.3615
  615MOL0     H84839   9.030   6.061   2.853  0.4283  0.1666  0.6306
  615MOL0     H84840   9.064   5.836   2.948  0.2572  0.3583 -0.0120
  615MOL0     H84841   9.211   5.825   2.869  0.9362  1.8905  0.4873
  615MOL0     H84842   9.078   5.891   2.642 -1.0580  1.0574  0.8171
  615MOL0     H84843   9.069   5.726   2.705 -1.0889  0.0743 -2.5564
  615MOL0     H84844   8.866   5.948   2.754 -1.5620 -0.1194 -1.5561
  615MOL0     H84845   8.864   5.795   2.830  0.7740 -0.2966  1.0498
  615MOL0     H84846   8.849   5.689   2.586  3.9198  0.1319  3.8983
  615MOL0     H84847   8.846   5.852   2.516  0.4624  3.3918  2.0622
  615MOL0     H84848   8.638   5.713   2.689 -1.0954  0.8926  0.3470
  615MOL0     H84849   8.625   5.771   2.529  0.4561  0.2571 -1.3837
  615MOL0     H84850   8.842   6.005   2.967 -0.1781 -2.9180 -0.5946
  615MOL0     H84851   8.630   5.900   3.045  1.9455 -5.1885 -0.2250
  615MOL0     H84852   8.510   5.673   3.548  0.5453  1.3608 -0.2418
  615MOL0     H84853   8.319   5.519   3.611  0.5892 -1.1198 -0.3829
  615MOL0     H84854   6.267   4.826   3.140  3.7296  3.0094  1.6704
  615MOL0     H84855   6.041   4.756   3.184 -1.4147  1.2685  1.3765
  615MOL0     H84856   5.762   4.644   3.600 -0.1650  0.4739  1.3559
  615MOL0     H84857   5.534   4.576   3.688  3.1353 -1.2110 -1.2867
  615MOL0     H84858   5.203   4.705   3.410  1.0071 -0.8209 -2.0273
  615MOL0     H84859   5.263   4.555   3.438  2.5031  0.2657  2.1949
  615MOL0     H84860   5.103   4.522   3.637  2.1513  0.4821 -0.7108
  615MOL0     H84861   5.017   4.528   3.482  1.2463  0.4865 -0.1732
  615MOL0     H84862   5.073   4.765   3.674 -1.3316 -0.0655  1.3257
  615MOL0     H84863   4.973   4.761   3.525  2.1229  2.8739  1.0533
  615MOL0     H84864   4.894   4.554   3.744 -0.7109 -0.9080  0.1807
  615MOL0     H84865   4.798   4.632   3.625 -0.3752 -1.0717  2.0767
  615MOL0     H84866   4.738   4.890   3.947  1.8719  1.1772  0.2522
  615MOL0     H84867   5.350   4.833   3.405  0.4706 -2.1070 -1.0833
  615MOL0     H84868   5.456   4.909   3.225 -0.1657 -1.9512 -2.4799
  615MOL0     H84869   5.582   5.018   3.298  1.6609 -0.3763 -0.8645
  615MOL0     H84870   5.626   4.888   3.190 -0.9458 -0.0405  0.0379
  616MOL0     O84871   8.271   4.248   7.647  0.2662  0.6943  0.0209
  616MOL0     C84872   8.249   4.133   7.674 -0.7293  0.7198 -0.9601
  616MOL0     O84873   8.276   4.020   7.588  0.3175 -1.1601 -0.1762
  616MOL0     C84874   8.344   4.053   7.474 -0.1709 -0.6890  0.0508
  616MOL0     C84875   8.486   4.055   7.468 -0.5424  0.7749  0.6459
  616MOL0     C84876   8.547   4.065   7.350 -0.3211 -0.1441 -0.2139
  616MOL0     C84877   8.475   4.098   7.226 -0.3606  0.1038 -1.0343
  616MOL0     O84878   8.543   4.139   7.110 -0.0794 -0.0948 -0.1616
  616MOL0     C84879   8.682   4.129   7.106 -0.1753  0.2531  0.5437
  616MOL0     C84880   8.730   4.193   6.968  0.7930  0.1841 -0.0898
  616MOL0     C84881   8.873   4.237   6.965 -0.3352 -0.5201  0.3844
  616MOL0     C84882   8.969   4.121   6.997  0.5676 -0.4559 -0.3650
  616MOL0     C84883   9.111   4.152   6.980 -0.2742  0.0839 -0.0045
  616MOL0     C84884   9.164   4.171   6.840 -0.2240  0.3489  0.0268
  616MOL0     C84885   9.145   4.027   6.765 -1.1040  0.0158 -0.0025
  616MOL0     C84886   9.204   4.019   6.619  0.2713 -0.3836 -0.4648
  616MOL0     N84887   9.346   4.042   6.632  0.1911  0.0270  0.2998
  616MOL0     C84888   9.434   3.934   6.645 -0.7056 -0.6719 -0.0012
  616MOL0     C84889   9.556   3.987   6.621 -0.8084  0.4701  0.4463
  616MOL0     C84890   9.685   3.912   6.618  1.2783 -0.0385 -0.5553
  616MOL0     C84891   9.687   3.807   6.733  1.0946 -0.4139  0.6592
  616MOL0     C84892   9.824   3.740   6.743  0.8317 -0.9863  0.7943
  616MOL0     C84893   9.838   3.632   6.634 -0.3635 -0.2842 -0.5507
  616MOL0     O84894   9.893   3.689   6.518 -0.2909 -0.9385 -0.4592
  616MOL0     C84895  10.025   3.723   6.527  1.0261  0.0682 -0.0613
  616MOL0     C84896  10.124   3.678   6.607  0.6709 -0.4552  0.0890
  616MOL0     C84897  10.253   3.700   6.573 -0.3932  0.7322 -0.0253
  616MOL0     C84898  10.359   3.633   6.659 -0.3035  0.0550 -0.0613
  616MOL0     C84899  10.286   3.781   6.465  0.1917 -0.3923  0.6405
  616MOL0     C84900  10.422   3.830   6.422  0.6606 -0.2433 -0.1404
  616MOL0     O84901  10.419   3.949   6.352 -0.5336  0.6982  0.1566
  616MOL0     C84902  10.541   4.010   6.313  0.0462  0.3444 -1.0753
  616MOL0     C84903  10.642   3.942   6.241 -1.2109 -0.6101  0.3666
  616MOL0     C84904  10.761   4.013   6.204 -0.2749  0.1934  0.9177
  616MOL0     C84905  10.792   4.140   6.255 -0.3579  0.0481  0.4574
  616MOL0     O84906  10.923   4.181   6.238 -0.1748  0.7459  0.7448
  616MOL0     C84907  10.977   4.241   6.353 -0.2869 -0.5182  0.2445
  616MOL0     C84908  11.133   4.239   6.343  0.6805 -0.4583  0.4751
  616MOL0     C84909  11.186   4.344   6.244 -0.1830 -0.2431 -0.2876
  616MOL0     C84910  11.317   4.304   6.195 -0.4295  0.2040 -0.6963
  616MOL0     C84911  11.349   4.364   6.056 -0.2554 -0.0176 -0.9194
  616MOL0     C84912  11.364   4.516   6.059  0.5518  0.6516  0.0881
  616MOL0     C84913  11.415   4.562   5.920  0.2460  0.0119  0.3336
  616MOL0     C84914  11.420   4.711   5.901 -0.3912 -0.2862  0.3727
  616MOL0    Cl84915  11.251   4.784   5.911 -0.3353  0.5256 -0.0513
  616MOL0     C84916  10.687   4.198   6.332  0.3279 -0.0236 -0.0645
  616MOL0     C84917  10.566   4.132   6.364 -0.5200 -0.5723  0.2279
  616MOL0     O84918  10.524   3.769   6.454 -0.2028 -0.4923  0.6487
  616MOL0     C84919  10.177   3.833   6.387 -0.5279 -0.5548  0.3302
  616MOL0     C84920  10.045   3.812   6.430 -0.2712  0.0376  0.0195
  616MOL0     N84921   9.537   4.120   6.590  0.4993  0.2660  1.3263
  616MOL0     N84922   9.413   4.159   6.603  0.7270 -0.5448  1.0865
  616MOL0     C84923   8.338   4.097   7.229  0.1744  0.1178 -0.6952
  616MOL0     C84924   8.271   4.074   7.347 -0.1669 -0.1849  0.2010
  616MOL0     C84925   8.190   4.098   7.812  0.2651 -0.1675  0.5141
  616MOL0     C84926   8.184   3.964   7.848 -0.4069 -1.3588 -0.4066
  616MOL0     C84927   8.114   3.932   7.968 -0.4266 -0.1958  0.4078
  616MOL0     C84928   8.086   4.030   8.064  0.5743  0.0749  0.1811
  616MOL0     O84929   8.038   3.993   8.186 -0.0057  0.4562  0.2764
  616MOL0     C84930   8.037   4.087   8.297 -0.4381  0.6179  0.7770
  616MOL0     C84931   7.906   4.162   8.301 -0.0271 -0.0173 -0.0198
  616MOL0     C84932   7.852   4.160   8.441 -0.9021 -1.1790 -0.6377
  616MOL0     C84933   7.802   4.024   8.484 -0.8174 -0.6124 -0.8941
  616MOL0     C84934   7.661   4.033   8.511  0.6762  0.2038 -0.0479
  616MOL0     C84935   7.542   4.016   8.525 -0.2847 -0.7974  0.4852
  616MOL0     C84936   8.119   4.164   8.035 -0.0174  0.4585 -0.5013
  616MOL0     C84937   8.151   4.205   7.909 -0.4958  0.5389 -0.2482
  616MOL0     C84938   8.155   4.347   7.873 -0.2473  0.0100 -0.1026
  616MOL0     H84939   8.548   4.045   7.556 -0.5425  1.3708  0.7207
  616MOL0     H84940   8.653   4.047   7.364 -0.8109 -1.7826  1.9719
  616MOL0     H84941   8.713   4.025   7.098 -0.4100  0.1637  0.7919
  616MOL0     H84942   8.744   4.179   7.181  1.9355 -1.5667  0.1041
  616MOL0     H84943   8.711   4.126   6.883  2.5956  2.0476 -2.1082
  616MOL0     H84944   8.661   4.274   6.943 -0.7352 -1.1142 -0.2524
  616MOL0     H84945   8.890   4.285   6.868  2.9979 -0.7238  0.7424
  616MOL0     H84946   8.882   4.319   7.038  1.9244 -0.8654  0.5567
  616MOL0     H84947   8.951   4.097   7.102  3.0285 -0.1052  0.1897
  616MOL0     H84948   8.936   4.031   6.945  0.3317 -0.1235 -0.8056
  616MOL0     H84949   9.167   4.078   7.038 -1.1835  0.3285  1.2310
  616MOL0     H84950   9.134   4.249   7.024  0.1800  0.6116 -1.3436
  616MOL0     H84951   9.108   4.246   6.784  1.7553  0.8304 -1.4425
  616MOL0     H84952   9.267   4.208   6.834  1.1714 -3.0973  0.1624
  616MOL0     H84953   9.037   4.008   6.757 -0.5107 -3.1288 -3.4587
  616MOL0     H84954   9.195   3.950   6.824  2.6566  1.1473 -1.4315
  616MOL0     H84955   9.188   3.918   6.580  0.1480 -0.2074 -0.8742
  616MOL0     H84956   9.158   4.091   6.551 -0.5611 -0.1459  0.3194
  616MOL0     H84957   9.396   3.835   6.670 -1.9287 -0.3376 -0.4536
  616MOL0     H84958   9.769   3.982   6.626 -0.4364  2.1577 -0.7178
  616MOL0     H84959   9.690   3.853   6.526 -0.8831 -1.7283  0.3498
  616MOL0     H84960   9.679   3.858   6.829 -1.2556 -1.9463  1.3579
  616MOL0     H84961   9.606   3.735   6.718 -0.3978  1.8017 -4.1039
  616MOL0     H84962   9.897   3.821   6.744 -0.4796  0.2661  2.5383
  616MOL0     H84963   9.836   3.678   6.832  0.2247  0.5966  2.0390
  616MOL0     H84964   9.906   3.555   6.671  1.0127  1.9267  1.8017
  616MOL0     H84965   9.743   3.587   6.606 -0.3162 -0.0336 -1.1270
  616MOL0     H84966  10.097   3.607   6.685 -1.2358  0.0498 -0.0533
  616MOL0     H84967  10.435   3.584   6.598 -0.1296 -1.7260  1.4857
  616MOL0     H84968  10.317   3.547   6.712 -1.7250  1.2311  0.8144
  616MOL0     H84969  10.396   3.692   6.743  0.2942 -0.7847  0.2824
  616MOL0     H84970  10.633   3.842   6.198  1.0790  0.5889 -3.3338
  616MOL0     H84971  10.832   3.960   6.142 -1.0534 -0.4811  0.5843
  616MOL0     H84972  10.941   4.341   6.376  0.0474 -1.0888  3.7109
  616MOL0     H84973  10.957   4.187   6.446 -0.6781 -0.9087 -0.0670
  616MOL0     H84974  11.177   4.245   6.442 -4.1909  0.5683  2.9165
  616MOL0     H84975  11.174   4.146   6.304 -0.6090 -0.6728 -0.4419
  616MOL0     H84976  11.204   4.432   6.307 -0.3532  0.0083 -0.5953
  616MOL0     H84977  11.119   4.376   6.165 -0.7083 -2.0126 -0.6065
  616MOL0     H84978  11.323   4.197   6.174 -0.2871  0.5220 -2.3973
  616MOL0     H84979  11.394   4.322   6.271  0.5880 -2.1575 -1.1017
  616MOL0     H84980  11.436   4.313   6.012 -0.1543 -0.5258 -0.1396
  616MOL0     H84981  11.262   4.346   5.993 -1.0356  1.6344 -0.3808
  616MOL0     H84982  11.424   4.556   6.141 -0.6592 -2.5141  2.7463
  616MOL0     H84983  11.261   4.551   6.071 -0.6143 -2.4835  0.0411
  616MOL0     H84984  11.363   4.503   5.844  2.6020 -4.4785  1.8511
  616MOL0     H84985  11.517   4.523   5.909  0.4781  0.0846  1.9347
  616MOL0     H84986  11.453   4.723   5.798 -2.6911  0.5648 -0.3118
  616MOL0     H84987  11.498   4.747   5.970  0.0931 -0.3264 -0.1468
  616MOL0     H84988  10.692   4.301   6.363 -0.6910 -0.1559  0.5792
  616MOL0     H84989  10.497   4.186   6.428 -0.6432 -0.4883  0.0231
  616MOL0     H84990  10.189   3.900   6.303 -3.0658 -2.5403 -1.7923
  616MOL0     H84991   9.963   3.856   6.374  0.3139  0.0866 -0.8176
  616MOL0     H84992   8.291   4.124   7.135 -0.2476  0.5616 -0.3541
  616MOL0     H84993   8.164   4.061   7.352 -0.8387  3.7848 -0.0459
  616MOL0     H84994   8.216   3.889   7.776  0.9086 -1.2077  0.0017
  616MOL0     H84995   8.099   3.830   8.003  2.6139 -0.4578  1.2683
  616MOL0     H84996   8.058   4.026   8.385 -0.4017 -0.0951  0.2892
  616MOL0     H84997   8.113   4.165   8.288 -0.3847  0.6820  1.7420
  616MOL0     H84998   7.828   4.114   8.240  3.2884 -3.2628 -2.1188
  616MOL0     H84999   7.920   4.266   8.273 -0.7255  0.1037  0.0580
  616MOL0     H85000   7.926   4.189   8.516 -1.4276  0.0378 -0.5627
  616MOL0     H85001   7.771   4.233   8.445  0.3706  0.2638 -0.1097
  616MOL0     H85002   7.850   3.990   8.576 -0.0326  1.3904 -0.5053
  616MOL0     H85003   7.826   3.953   8.404 -0.9184 -0.8205 -0.7392
  616MOL0     H85004   7.436   4.003   8.531 -0.1265 -1.5920  1.8702
  616MOL0     H85005   8.110   4.247   8.104  2.1955  1.1178 -0.9179
  616MOL0     H85006   8.077   4.379   7.803 -3.1668 -2.0046  1.9381
  616MOL0     H85007   8.156   4.411   7.962  1.3162 -1.3655  0.9294
  616MOL0     H85008   8.247   4.375   7.822 -2.4395  1.2911 -3.6897
  617MOL0     O85009   9.343   9.398   5.524 -0.1644  0.9740 -0.5575
  617MOL0     C85010   9.345   9.277   5.489 -0.2807 -0.8723  0.1270
  617MOL0     O85011   9.453   9.201   5.453  0.1536 -0.3075  0.7367
  617MOL0     C85012   9.581   9.257   5.440 -0.4713  0.3622  0.3866
  617MOL0     C85013   9.684   9.173   5.479 -0.0532 -0.3554 -0.5081
  617MOL0     C85014   9.817   9.209   5.463  0.0216 -0.5022 -0.3745
  617MOL0     C85015   9.851   9.330   5.405  0.2754  0.2089  0.4110
  617MOL0     O85016   9.977   9.378   5.386 -0.0613  0.5726  0.1402
  617MOL0     C85017  10.089   9.291   5.414 -0.7087  0.5624 -0.1140
  617MOL0     C85018  10.188   9.337   5.308 -0.1378  0.5791 -0.6054
  617MOL0     C85019  10.289   9.220   5.281 -0.2189 -1.2478 -0.5568
  617MOL0     C85020  10.400   9.254   5.190 -0.4660  0.5379  0.0507
  617MOL0     C85021  10.515   9.334   5.248 -0.5321  0.3604  0.2182
  617MOL0     C85022  10.635   9.345   5.156  0.0433 -0.4422 -0.4691
  617MOL0     C85023  10.709   9.472   5.191 -0.6514 -0.4850 -0.6085
  617MOL0     C85024  10.859   9.468   5.162  0.5211  0.2480 -0.7107
  617MOL0     N85025  10.906   9.493   5.023  0.4159  0.1053  0.5179
  617MOL0     C85026  10.887   9.401   4.918  0.2628 -0.6677 -0.0766
  617MOL0     C85027  10.977   9.448   4.829  0.2374  0.0844 -0.2215
  617MOL0     C85028  11.003   9.393   4.696  0.0949  1.1811 -0.8618
  617MOL0     C85029  11.084   9.488   4.605  0.5636  1.3348  0.2996
  617MOL0     C85030  11.110   9.432   4.462 -0.1085  0.6287 -0.0562
  617MOL0     C85031  11.219   9.330   4.479 -0.6343  0.1024  0.3300
  617MOL0     O85032  11.250   9.268   4.354  0.1291 -0.0298 -0.1657
  617MOL0     C85033  11.322   9.335   4.264  0.1204  0.0262  0.8460
  617MOL0     C85034  11.344   9.264   4.142  1.4671  0.0351  0.3410
  617MOL0     C85035  11.414   9.317   4.038 -0.9852 -0.2704  0.5734
  617MOL0     C85036  11.447   9.236   3.915  0.3133  0.3402 -0.6841
  617MOL0     C85037  11.458   9.460   4.052  0.2019  0.7250 -0.2289
  617MOL0     C85038  11.540   9.529   3.950 -0.2265 -1.0731 -0.5952
  617MOL0     O85039  11.664   9.556   3.998 -0.1172  0.4074  0.5232
  617MOL0     C85040  11.744   9.659   3.944 -0.0928  0.3002 -0.2230
  617MOL0     C85041  11.858   9.662   4.027  0.1759 -0.6732  0.0850
  617MOL0     C85042  11.960   9.750   3.997 -1.1393  0.0950 -0.6221
  617MOL0     C85043  11.955   9.831   3.883 -0.3097  0.6617  0.7082
  617MOL0     O85044  12.049   9.925   3.851  0.0306 -0.5569  0.4425
  617MOL0     C85045  12.180   9.933   3.904  0.1990 -0.6027  0.5773
  617MOL0     C85046  12.266   9.990   3.792  0.1963 -0.4751 -0.7481
  617MOL0     C85047  12.398  10.041   3.849 -0.1628 -0.6710 -0.0582
  617MOL0     C85048  12.475  10.126   3.744 -0.3202  0.1692  0.4306
  617MOL0     C85049  12.618  10.130   3.789 -1.4741 -0.0038 -0.1688
  617MOL0     C85050  12.648  10.232   3.899  0.1891  0.0903  1.2211
  617MOL0     C85051  12.796  10.244   3.908 -0.3433 -0.6528 -0.6555
  617MOL0     C85052  12.859  10.338   3.808 -0.1860 -0.6458 -0.3225
  617MOL0    Cl85053  13.040  10.322   3.805 -0.2711 -0.1554  0.3245
  617MOL0     C85054  11.839   9.829   3.804  0.1970  0.2701 -0.0052
  617MOL0     C85055  11.734   9.748   3.835 -0.3058  0.3688  0.1998
  617MOL0     O85056  11.499   9.553   3.844 -0.0392 -0.5911  0.2906
  617MOL0     C85057  11.433   9.529   4.175  0.1488  0.4461  0.4564
  617MOL0     C85058  11.374   9.468   4.282  0.1099  1.0354 -0.4906
  617MOL0     N85059  11.024   9.567   4.866  0.8622 -0.0695 -0.5247
  617MOL0     N85060  10.981   9.596   4.987 -0.3633  0.2812  0.6916
  617MOL0     C85061   9.746   9.415   5.361 -0.0131 -0.4647  0.0150
  617MOL0     C85062   9.610   9.380   5.374  0.2024 -0.0055 -0.7133
  617MOL0     C85063   9.214   9.208   5.501 -0.3090  0.6287 -1.2651
  617MOL0     C85064   9.222   9.080   5.567 -0.4337 -0.1103 -0.5222
  617MOL0     C85065   9.104   9.009   5.602  0.8078 -0.8044  0.2547
  617MOL0     C85066   8.992   9.057   5.560  0.0122 -0.1100 -0.0573
  617MOL0     O85067   8.881   8.974   5.573 -0.5874 -0.0785 -0.2412
  617MOL0     C85068   8.756   9.039   5.607 -0.2146 -0.0116 -1.0336
  617MOL0     C85069   8.678   8.953   5.715  0.2378 -0.6658 -0.0487
  617MOL0     C85070   8.770   8.923   5.834 -0.2802  0.2364  0.4451
  617MOL0     C85071   8.689   8.854   5.942  0.8444  1.1899  0.2068
  617MOL0     C85072   8.633   8.730   5.888  0.6719 -0.0671  0.3775
  617MOL0     C85073   8.571   8.625   5.849  0.2489 -0.7119 -0.2638
  617MOL0     C85074   8.980   9.182   5.488  0.7586  0.2394  0.1523
  617MOL0     C85075   9.091   9.261   5.463  0.4845 -0.2961 -0.5988
  617MOL0     C85076   9.075   9.395   5.393 -0.4111 -0.1493 -0.3248
  617MOL0     H85077   9.653   9.091   5.542  2.4544  1.3441  3.3081
  617MOL0     H85078   9.892   9.141   5.502 -1.5055 -2.0555 -0.0103
  617MOL0     H85079  10.073   9.185   5.391  2.2230  0.5406 -2.6786
  617MOL0     H85080  10.125   9.292   5.517 -0.3000  1.2130 -0.2565
  617MOL0     H85081  10.141   9.368   5.214  0.7381 -1.8697 -1.9323
  617MOL0     H85082  10.236   9.424   5.351 -0.1994  0.7879 -0.9533
  617MOL0     H85083  10.333   9.190   5.376  0.2131  1.3209  0.1232
  617MOL0     H85084  10.235   9.134   5.239  1.6531 -2.8988  0.2709
  617MOL0     H85085  10.435   9.165   5.136  0.2058  0.0113  1.2883
  617MOL0     H85086  10.350   9.305   5.107 -3.2796 -1.5560  0.3071
  617MOL0     H85087  10.552   9.284   5.338 -0.5327 -0.9108 -0.4568
  617MOL0     H85088  10.467   9.426   5.283  3.7209  1.7034  3.2718
  617MOL0     H85089  10.706   9.261   5.159  2.7283  1.6995  0.7570
  617MOL0     H85090  10.590   9.357   5.057 -2.8961 -0.2410  0.7967
  617MOL0     H85091  10.685   9.505   5.292  0.4682 -0.8809 -0.1960
  617MOL0     H85092  10.674   9.544   5.117  1.0741  1.0398 -0.0127
  617MOL0     H85093  10.914   9.538   5.226  1.6022 -0.8743 -0.3808
  617MOL0     H85094  10.900   9.371   5.192 -2.0334 -1.1282 -1.3493
  617MOL0     H85095  10.839   9.304   4.912 -1.0716 -0.1305  1.2955
  617MOL0     H85096  10.912   9.361   4.645  0.1916  0.2414 -0.4818
  617MOL0     H85097  11.064   9.305   4.720  2.4061  2.5576 -1.3259
  617MOL0     H85098  11.038   9.587   4.595 -1.3821  0.7594  2.5946
  617MOL0     H85099  11.173   9.496   4.668  1.4839 -0.1046 -0.7706
  617MOL0     H85100  11.014   9.396   4.423 -0.8386 -0.0322  2.1493
  617MOL0     H85101  11.137   9.510   4.391  1.5145 -1.6210 -2.0433
  617MOL0     H85102  11.307   9.370   4.530 -1.7589  1.5367  1.2551
  617MOL0     H85103  11.178   9.256   4.549 -2.2976  1.2162  0.6016
  617MOL0     H85104  11.301   9.167   4.121  2.3382 -0.3850  0.4803
  617MOL0     H85105  11.466   9.307   3.833  0.0467  2.9798  1.3874
  617MOL0     H85106  11.363   9.172   3.890  0.6191  0.2016 -1.3839
  617MOL0     H85107  11.532   9.167   3.926  0.2195  0.0350 -1.7623
  617MOL0     H85108  11.853   9.611   4.123  2.8627  1.4376  1.4887
  617MOL0     H85109  12.032   9.762   4.077 -2.5208 -0.7476  0.7894
  617MOL0     H85110  12.187  10.009   3.982  0.4938 -0.0387  0.0092
  617MOL0     H85111  12.213   9.838   3.948 -0.6426 -1.2649 -0.1922
  617MOL0     H85112  12.279   9.908   3.720 -1.0665 -2.2034  0.8832
  617MOL0     H85113  12.208  10.067   3.741 -4.0172 -3.3335 -0.7830
  617MOL0     H85114  12.452   9.950   3.878  1.3599 -0.1367 -1.0958
  617MOL0     H85115  12.380  10.102   3.938  1.4103  0.8839 -0.7476
  617MOL0     H85116  12.425  10.223   3.755 -1.1083  0.3143 -3.3153
  617MOL0     H85117  12.459  10.082   3.645  1.2808 -0.8544  0.6064
  617MOL0     H85118  12.659  10.031   3.810 -2.3687 -0.4719 -0.5607
  617MOL0     H85119  12.690  10.156   3.711  1.0607 -1.3114  1.5963
  617MOL0     H85120  12.591  10.216   3.991 -0.4773  0.5005  0.8818
  617MOL0     H85121  12.615  10.329   3.862 -1.7566 -0.9333  0.1610
  617MOL0     H85122  12.834  10.141   3.904 -1.1237 -0.9147 -2.7012
  617MOL0     H85123  12.820  10.283   4.008  0.0537 -3.0132  0.2423
  617MOL0     H85124  12.834  10.440   3.840 -0.8238 -1.2012  0.9910
  617MOL0     H85125  12.819  10.328   3.707 -0.3003  2.3251 -0.6678
  617MOL0     H85126  11.842   9.898   3.721 -1.0809  4.6108  3.2098
  617MOL0     H85127  11.651   9.758   3.765 -0.2199  1.8592  0.2782
  617MOL0     H85128  11.460   9.634   4.179  2.0118  0.0085  0.4147
  617MOL0     H85129  11.363   9.522   4.375 -1.1600 -1.6873  1.0853
  617MOL0     H85130   9.773   9.510   5.314 -1.2569 -0.6156 -1.0606
  617MOL0     H85131   9.540   9.452   5.335  0.2025  0.5398  0.2646
  617MOL0     H85132   9.318   9.035   5.592  0.0152  2.4282  3.0699
  617MOL0     H85133   9.099   8.906   5.636  1.8045 -1.0898 -0.4253
  617MOL0     H85134   8.766   9.134   5.660  0.4068 -0.9015  0.5059
  617MOL0     H85135   8.696   9.050   5.516 -0.1805 -0.2521 -1.0855
  617MOL0     H85136   8.644   8.865   5.661  1.8743 -0.2417 -1.8654
  617MOL0     H85137   8.593   9.012   5.749  1.7621  0.5153  1.9608
  617MOL0     H85138   8.858   8.868   5.799  0.0374  0.6844  0.5264
  617MOL0     H85139   8.812   9.012   5.882  0.8808  0.2209 -0.4953
  617MOL0     H85140   8.605   8.915   5.978  2.0199  1.7867  2.1029
  617MOL0     H85141   8.752   8.847   6.032 -1.4446 -3.4067  1.7210
  617MOL0     H85142   8.516   8.543   5.808  0.9894 -0.7263 -1.2805
  617MOL0     H85143   8.890   9.221   5.442  0.0187 -0.0896  1.2807
  617MOL0     H85144   9.136   9.397   5.301  0.6537  2.7790  0.3339
  617MOL0     H85145   8.975   9.428   5.363 -0.3144 -0.2802 -0.8122
  617MOL0     H85146   9.109   9.472   5.462 -3.2058 -1.0132  2.2390
  618MOL0     O85147   8.654   8.146   7.622 -0.4590 -0.3130  0.5048
  618MOL0     C85148   8.621   8.262   7.588  0.0217  0.6956  0.0038
  618MOL0     O85149   8.693   8.376   7.589  0.2281 -0.3551 -0.4674
  618MOL0     C85150   8.824   8.347   7.636  0.5740 -0.1566 -0.0033
  618MOL0     C85151   8.933   8.328   7.554 -0.4314  0.6556 -1.1564
  618MOL0     C85152   9.065   8.310   7.593  0.1011  0.6807 -0.1174
  618MOL0     C85153   9.093   8.311   7.732 -0.4815 -0.2048 -0.5707
  618MOL0     O85154   9.221   8.291   7.771 -0.0408  0.1045  0.6496
  618MOL0     C85155   9.236   8.255   7.914  0.9459 -0.3477  0.1738
  618MOL0     C85156   9.386   8.232   7.936 -0.6345 -0.2172 -0.0455
  618MOL0     C85157   9.474   8.355   7.938 -0.8888  0.3185 -0.0132
  618MOL0     C85158   9.613   8.317   7.877 -0.2033  0.4960 -0.2610
  618MOL0     C85159   9.693   8.212   7.958 -0.1492  0.2369  0.5687
  618MOL0     C85160   9.797   8.122   7.875 -0.0969  0.5012  0.0080
  618MOL0     C85161   9.923   8.205   7.819 -0.6526 -0.8411  0.4912
  618MOL0     C85162  10.019   8.117   7.729 -0.1074  0.1527 -0.5618
  618MOL0     N85163  10.155   8.166   7.718  0.7191  0.2302 -0.3014
  618MOL0     C85164  10.201   8.258   7.630  0.0286  0.1856 -0.0200
  618MOL0     C85165  10.334   8.266   7.646  1.1054  0.0377  0.9509
  618MOL0     C85166  10.424   8.350   7.553 -0.6692  0.1607 -0.3389
  618MOL0     C85167  10.564   8.300   7.531  0.4021 -0.3106 -1.5682
  618MOL0     C85168  10.561   8.167   7.462  0.0103 -0.9853  0.8262
  618MOL0     C85169  10.707   8.112   7.462 -0.0390 -0.3186  0.8790
  618MOL0     O85170  10.813   8.194   7.400  0.3021  0.1545  0.0544
  618MOL0     C85171  10.866   8.164   7.275  0.5194  0.0777 -0.7160
  618MOL0     C85172  10.997   8.158   7.271  0.0860 -0.1975  0.6863
  618MOL0     C85173  11.063   8.172   7.148  0.6998 -0.1174 -0.0716
  618MOL0     C85174  11.215   8.176   7.156  0.7666  0.9075 -0.4655
  618MOL0     C85175  10.990   8.153   7.027 -0.1389  0.9558  0.4259
  618MOL0     C85176  11.054   8.154   6.888  0.1028  0.1319 -0.3232
  618MOL0     O85177  10.972   8.183   6.783 -0.0488 -0.8512 -0.1497
  618MOL0     C85178  11.028   8.188   6.652  0.1016 -0.0621  0.3186
  618MOL0     C85179  10.961   8.136   6.538  0.4546  0.1669 -0.5843
  618MOL0     C85180  11.019   8.143   6.405  0.3508 -0.2661  0.7666
  618MOL0     C85181  11.136   8.223   6.385  1.2439  0.2121  0.2550
  618MOL0     O85182  11.180   8.226   6.255  0.5390 -0.6615  0.3254
  618MOL0     C85183  11.315   8.203   6.226  0.3969 -0.1085 -0.1088
  618MOL0     C85184  11.323   8.169   6.082 -0.0700 -0.0796 -0.6368
  618MOL0     C85185  11.288   8.296   6.009  0.8466 -0.1127 -0.2043
  618MOL0     C85186  11.326   8.272   5.859  0.1053 -0.5768  0.1513
  618MOL0     C85187  11.266   8.370   5.760 -0.1225  0.0940 -0.4264
  618MOL0     C85188  11.297   8.516   5.794 -0.5510  0.5940  0.5789
  618MOL0     C85189  11.204   8.612   5.716  0.1400 -0.4754 -0.2490
  618MOL0     C85190  11.217   8.761   5.738 -0.4796  0.7166 -0.5027
  618MOL0    Cl85191  11.177   8.810   5.902  0.0378  0.2096  0.0752
  618MOL0     C85192  11.191   8.299   6.493  0.3127 -0.0576 -0.2839
  618MOL0     C85193  11.141   8.280   6.624 -0.1712  0.2337 -0.2650
  618MOL0     O85194  11.166   8.116   6.878 -0.2392  0.2746  0.0828
  618MOL0     C85195  10.855   8.160   7.038  1.4083  0.0798  0.0568
  618MOL0     C85196  10.789   8.163   7.158 -0.1383  0.1037 -0.4615
  618MOL0     N85197  10.365   8.179   7.752 -0.3217  0.6447 -0.1798
  618MOL0     N85198  10.252   8.126   7.798 -0.7492  0.0285  0.1187
  618MOL0     C85199   8.988   8.358   7.819  0.1829  0.3711 -0.1788
  618MOL0     C85200   8.856   8.377   7.770  0.2633 -0.0559 -0.4690
  618MOL0     C85201   8.479   8.278   7.533  0.3360 -0.8622 -0.2197
  618MOL0     C85202   8.431   8.409   7.508 -0.3073 -0.3558 -0.1771
  618MOL0     C85203   8.314   8.441   7.447  0.7202 -0.2105  0.2540
  618MOL0     C85204   8.220   8.337   7.430  0.9491 -1.0501 -0.0758
  618MOL0     O85205   8.101   8.351   7.368  0.3302  0.1641  0.0139
  618MOL0     C85206   8.017   8.463   7.382 -0.0929 -0.9697  0.5106
  618MOL0     C85207   7.897   8.421   7.460  0.3907 -0.7683  0.4289
  618MOL0     C85208   7.815   8.551   7.501 -0.5714 -0.1982 -0.4129
  618MOL0     C85209   7.698   8.506   7.599 -0.6652 -0.0499 -0.1267
  618MOL0     C85210   7.601   8.405   7.551  0.8909  0.9954 -0.1965
  618MOL0     C85211   7.515   8.324   7.521 -0.0664  0.1812 -0.0100
  618MOL0     C85212   8.259   8.202   7.460 -0.6048  0.1028 -0.0626
  618MOL0     C85213   8.390   8.171   7.507  0.7155 -0.1302  0.6395
  618MOL0     C85214   8.417   8.027   7.533 -0.1118 -0.4295  0.1692
  618MOL0     H85215   8.930   8.339   7.446 -0.1832  1.3608 -1.0981
  618MOL0     H85216   9.133   8.296   7.510  0.7833 -0.8640  0.6641
  618MOL0     H85217   9.174   8.171   7.947  0.5380 -0.0357  0.1992
  618MOL0     H85218   9.205   8.339   7.977  0.9438 -0.6742  0.6115
  618MOL0     H85219   9.385   8.195   8.039 -0.9654 -1.9145 -0.6260
  618MOL0     H85220   9.422   8.153   7.870 -1.0049 -0.4163 -0.0165
  618MOL0     H85221   9.421   8.441   7.896 -3.0848 -1.2220 -0.5619
  618MOL0     H85222   9.492   8.375   8.044  2.7591 -3.4553  0.3121
  618MOL0     H85223   9.596   8.290   7.772  0.7172  3.0192 -1.1279
  618MOL0     H85224   9.672   8.408   7.867 -2.1003  1.9676  1.2140
  618MOL0     H85225   9.618   8.138   7.985 -0.4729 -0.4892 -2.0575
  618MOL0     H85226   9.733   8.250   8.053 -1.0482  1.2351  0.5715
  618MOL0     H85227   9.834   8.045   7.943 -0.4952  1.6662  1.5882
  618MOL0     H85228   9.742   8.073   7.794 -2.7218  0.9194  1.4402
  618MOL0     H85229   9.977   8.245   7.905 -1.6365 -1.2129  1.2987
  618MOL0     H85230   9.876   8.278   7.753 -3.2185 -1.5592  1.4051
  618MOL0     H85231  10.025   8.026   7.790  0.8535  1.3911  1.2902
  618MOL0     H85232   9.972   8.092   7.634 -1.5697  2.1559 -0.4166
  618MOL0     H85233  10.157   8.323   7.555 -2.5009  0.1467  1.3061
  618MOL0     H85234  10.421   8.443   7.611 -3.5188  0.7866 -1.3274
  618MOL0     H85235  10.365   8.366   7.462 -0.5055 -1.2011 -0.7166
  618MOL0     H85236  10.625   8.374   7.480  0.9937 -0.7192 -1.4657
  618MOL0     H85237  10.616   8.300   7.627 -0.1535  1.9480 -1.2276
  618MOL0     H85238  10.486   8.101   7.506  0.6173 -2.1472  0.1390
  618MOL0     H85239  10.532   8.175   7.357  1.4209  0.2873  0.5055
  618MOL0     H85240  10.730   8.109   7.569  0.2594  2.2958  0.9504
  618MOL0     H85241  10.722   8.009   7.425 -2.2119 -1.6587  3.3930
  618MOL0     H85242  11.056   8.166   7.361  1.7797  1.5775 -0.4916
  618MOL0     H85243  11.259   8.248   7.087  2.0893  0.3631 -0.2277
  618MOL0     H85244  11.241   8.072   7.132 -4.3172 -1.1742  1.4788
  618MOL0     H85245  11.254   8.203   7.254  1.8208 -2.3108  0.1406
  618MOL0     H85246  10.882   8.062   6.550  1.1873 -0.2646  2.7170
  618MOL0     H85247  10.969   8.094   6.323  1.5490  0.6095 -0.5332
  618MOL0     H85248  11.371   8.294   6.251  2.0410 -1.1878  0.3302
  618MOL0     H85249  11.353   8.132   6.300  1.9986  2.1734  1.3928
  618MOL0     H85250  11.428   8.141   6.068  0.1271  0.5747 -0.5066
  618MOL0     H85251  11.258   8.088   6.050  0.1096 -0.5715  0.2282
  618MOL0     H85252  11.356   8.371   6.050  2.0181  0.0720 -2.3087
  618MOL0     H85253  11.185   8.327   6.025  0.3466 -2.9140  2.9694
  618MOL0     H85254  11.303   8.170   5.829  0.4123 -0.1293 -1.6760
  618MOL0     H85255  11.435   8.280   5.853 -0.0198  0.1784 -1.8454
  618MOL0     H85256  11.291   8.336   5.659  0.1083 -0.7463 -0.0933
  618MOL0     H85257  11.158   8.360   5.773 -0.2733  1.3446 -0.6434
  618MOL0     H85258  11.402   8.540   5.771 -0.5832 -1.3833 -2.1867
  618MOL0     H85259  11.274   8.545   5.897 -2.6709  0.5899  0.1389
  618MOL0     H85260  11.100   8.591   5.743  1.0219 -1.7928  2.5111
  618MOL0     H85261  11.218   8.593   5.610  0.9421  0.1061 -0.2629
  618MOL0     H85262  11.169   8.811   5.653 -0.4174 -0.8032 -1.4754
  618MOL0     H85263  11.325   8.778   5.739 -0.1486 -1.1664  0.1439
  618MOL0     H85264  11.265   8.371   6.461 -0.1788  0.7269  0.2973
  618MOL0     H85265  11.189   8.330   6.707  1.1509 -0.5367 -0.5468
  618MOL0     H85266  10.799   8.154   6.945  0.3559 -2.1759  0.7639
  618MOL0     H85267  10.680   8.164   7.163 -0.2175  1.1603 -1.9619
  618MOL0     H85268   9.008   8.391   7.920 -0.1886 -1.6711  0.5989
  618MOL0     H85269   8.781   8.420   7.835  1.2705  0.0917  0.6460
  618MOL0     H85270   8.491   8.497   7.532  2.8321 -2.5481  0.5591
  618MOL0     H85271   8.295   8.546   7.432  1.5059  0.0582  1.0497
  618MOL0     H85272   8.070   8.547   7.428 -2.3692  3.3894 -3.9124
  618MOL0     H85273   7.996   8.516   7.289 -1.5409  0.2222  1.4680
  618MOL0     H85274   7.936   8.373   7.550 -0.7158 -1.2086  0.6838
  618MOL0     H85275   7.837   8.352   7.400  1.6178 -0.5906 -1.0606
  618MOL0     H85276   7.872   8.625   7.558 -2.3482  0.1201  1.0567
  618MOL0     H85277   7.788   8.600   7.408 -0.5372  1.4768  0.4237
  618MOL0     H85278   7.649   8.599   7.631  2.7000  1.1305  2.1737
  618MOL0     H85279   7.733   8.474   7.698  0.3673  1.5360  0.0722
  618MOL0     H85280   7.452   8.245   7.484  2.5913 -2.0269 -0.1708
  618MOL0     H85281   8.180   8.128   7.462  1.0738 -1.7642 -0.2554
  618MOL0     H85282   8.343   7.963   7.484 -1.7122 -0.8492  2.9075
  618MOL0     H85283   8.514   7.987   7.501 -0.5947 -0.7328 -0.9702
  618MOL0     H85284   8.417   8.023   7.642 -1.4807  4.5456  0.5866
  619MOL0     O85285   9.389   9.144   1.868 -0.3357 -0.1174 -0.6285
  619MOL0     C85286   9.352   9.049   1.936  0.6328 -0.0158  0.5520
  619MOL0     O85287   9.229   9.044   2.002  0.1770 -0.3151 -0.6320
  619MOL0     C85288   9.130   9.137   1.980  0.4454  0.8138 -0.8787
  619MOL0     C85289   9.056   9.186   2.088  0.6508 -0.7336  0.2462
  619MOL0     C85290   8.936   9.252   2.069 -0.3511 -0.9818  0.3094
  619MOL0     C85291   8.911   9.310   1.941  0.3325  0.5002  0.3715
  619MOL0     O85292   8.800   9.399   1.926 -0.1061 -1.0760 -0.2655
  619MOL0     C85293   8.720   9.386   1.804 -0.3961 -0.7993  0.0530
  619MOL0     C85294   8.585   9.438   1.841  0.6535  0.1678  0.7832
  619MOL0     C85295   8.488   9.433   1.725 -0.8722  0.6553  0.3300
  619MOL0     C85296   8.356   9.511   1.758 -0.1484  0.2927 -0.3449
  619MOL0     C85297   8.286   9.549   1.628  0.3032 -0.3535  0.2294
  619MOL0     C85298   8.258   9.423   1.539  0.5916  0.5822 -0.1701
  619MOL0     C85299   8.173   9.467   1.419  0.0512 -0.4847  0.2210
  619MOL0     C85300   8.029   9.510   1.438  0.0447  0.2399 -0.2133
  619MOL0     N85301   7.946   9.427   1.532  0.3420  0.6216 -0.0013
  619MOL0     C85302   7.918   9.298   1.509  0.6235 -0.0112 -0.3201
  619MOL0     C85303   7.829   9.255   1.607 -0.0424  0.4429  0.8707
  619MOL0     C85304   7.762   9.120   1.615 -0.2051 -0.0271  0.0934
  619MOL0     C85305   7.780   9.064   1.752 -0.0019 -0.5216 -0.3211
  619MOL0     C85306   7.719   8.929   1.773 -0.1447 -0.4740 -0.4906
  619MOL0     C85307   7.788   8.805   1.701  0.5951 -0.2209  0.1853
  619MOL0     O85308   7.911   8.782   1.768  0.5190  0.1573  0.1652
  619MOL0     C85309   8.023   8.737   1.699  0.9475 -1.4704  0.1388
  619MOL0     C85310   8.014   8.665   1.581 -0.0526  0.3520  1.3844
  619MOL0     C85311   8.129   8.612   1.510  0.3526  0.3853 -0.0995
  619MOL0     C85312   8.115   8.545   1.381  0.0129  0.9161  0.4545
  619MOL0     C85313   8.253   8.637   1.565 -0.2169 -0.4338  0.2791
  619MOL0     C85314   8.369   8.588   1.508  0.5193  0.9361 -0.4582
  619MOL0     O85315   8.409   8.463   1.557  0.1286 -0.0894  0.1985
  619MOL0     C85316   8.520   8.401   1.504 -0.3139 -0.3989 -0.5577
  619MOL0     C85317   8.518   8.268   1.488 -0.5995 -0.8353 -0.0457
  619MOL0     C85318   8.636   8.202   1.448 -0.1200 -0.1695 -0.3983
  619MOL0     C85319   8.760   8.268   1.437  1.1333  0.6941  0.1594
  619MOL0     O85320   8.864   8.194   1.394  0.3367 -0.5519 -0.2156
  619MOL0     C85321   8.998   8.251   1.400  0.5396 -0.0412 -0.1002
  619MOL0     C85322   9.118   8.162   1.358  0.2181  0.0754  0.4028
  619MOL0     C85323   9.255   8.222   1.368 -0.8855 -0.2679 -0.3978
  619MOL0     C85324   9.366   8.142   1.294 -0.0421  0.3709  0.1834
  619MOL0     C85325   9.491   8.226   1.271  0.6519  0.7883  0.2652
  619MOL0     C85326   9.554   8.253   1.409 -0.4518 -0.4819  0.5108
  619MOL0     C85327   9.678   8.342   1.394  0.1451 -0.3119 -0.4067
  619MOL0     C85328   9.742   8.382   1.526 -0.0336  0.6790 -0.0888
  619MOL0    Cl85329   9.622   8.478   1.609 -0.2261  0.8529  0.0119
  619MOL0     C85330   8.756   8.405   1.452 -0.5237  0.9083  0.3827
  619MOL0     C85331   8.641   8.467   1.491  0.2540 -0.1227  1.0027
  619MOL0     O85332   8.422   8.657   1.416  0.1679  0.4461 -0.1242
  619MOL0     C85333   8.255   8.711   1.695  0.1122 -0.1935 -0.6718
  619MOL0     C85334   8.140   8.758   1.753 -0.6577 -0.1280 -0.4207
  619MOL0     N85335   7.791   9.369   1.683 -0.8439 -0.4865  0.2179
  619MOL0     N85336   7.867   9.468   1.641 -0.7207 -0.4197 -0.5375
  619MOL0     C85337   8.986   9.267   1.831 -0.4606 -0.0838  0.3622
  619MOL0     C85338   9.095   9.182   1.853 -0.7982 -0.7230 -0.8070
  619MOL0     C85339   9.438   8.928   1.950  0.4824 -0.9413 -0.9826
  619MOL0     C85340   9.425   8.847   2.073 -0.1878 -0.3743  1.0050
  619MOL0     C85341   9.509   8.739   2.095  0.4373 -0.0545 -0.5389
  619MOL0     C85342   9.594   8.693   1.999  0.5501 -0.3105  0.2670
  619MOL0     O85343   9.677   8.580   2.005 -0.2351  0.0035  0.2506
  619MOL0     C85344   9.617   8.466   2.065 -0.0328  0.0653  0.3737
  619MOL0     C85345   9.545   8.372   1.966  0.0771 -1.1356  0.2907
  619MOL0     C85346   9.429   8.429   1.887 -0.7999 -0.0105 -0.0073
  619MOL0     C85347   9.367   8.328   1.781 -0.2660  0.3844 -0.9751
  619MOL0     C85348   9.228   8.369   1.753  0.6796  0.4266 -0.3237
  619MOL0     C85349   9.109   8.390   1.720  0.4314 -0.3615  0.6784
  619MOL0     C85350   9.609   8.769   1.887  0.3462  0.3797 -0.2051
  619MOL0     C85351   9.542   8.889   1.865 -0.3011 -0.2360  0.2414
  619MOL0     C85352   9.577   8.956   1.735  0.5659  0.1753 -0.3174
  619MOL0     H85353   9.087   9.147   2.185  0.6470 -2.3793 -0.3725
  619MOL0     H85354   8.868   9.289   2.145  1.2926  2.3971  0.3215
  619MOL0     H85355   8.714   9.282   1.770 -0.0968 -0.5901 -0.6654
  619MOL0     H85356   8.769   9.450   1.730  1.0246 -0.4784  1.2459
  619MOL0     H85357   8.540   9.379   1.921  0.7432  2.2160  2.4379
  619MOL0     H85358   8.597   9.540   1.879  0.9060  0.4679 -0.0719
  619MOL0     H85359   8.534   9.473   1.634 -0.6697  1.4576  0.7762
  619MOL0     H85360   8.466   9.330   1.696  0.5469 -0.2122  2.1495
  619MOL0     H85361   8.291   9.454   1.826 -3.3926  2.4080 -1.4484
  619MOL0     H85362   8.378   9.601   1.815 -1.1076  0.9125 -0.9185
  619MOL0     H85363   8.351   9.609   1.563 -3.1403  0.5662 -2.7078
  619MOL0     H85364   8.190   9.593   1.655 -0.0585 -1.6536  1.1060
  619MOL0     H85365   8.351   9.377   1.505  1.5058  1.3739  1.1586
  619MOL0     H85366   8.199   9.353   1.599  0.4930  0.3971 -0.4814
  619MOL0     H85367   8.167   9.379   1.353  4.3982 -1.5767  0.9766
  619MOL0     H85368   8.224   9.536   1.351 -0.7334 -2.6720 -2.8257
  619MOL0     H85369   8.040   9.614   1.467  4.8445  0.4093 -1.8811
  619MOL0     H85370   7.973   9.501   1.344  1.3922  1.6446 -1.1905
  619MOL0     H85371   7.969   9.240   1.433  2.3251 -0.5340  1.1568
  619MOL0     H85372   7.806   9.050   1.543  0.7601  0.7548 -0.0915
  619MOL0     H85373   7.654   9.120   1.596 -0.0358  1.2173 -1.0486
  619MOL0     H85374   7.887   9.060   1.772 -0.0956 -2.1847 -0.0109
  619MOL0     H85375   7.750   9.140   1.824 -0.0943  1.0689 -1.9738
  619MOL0     H85376   7.719   8.905   1.879 -2.0162  0.4782 -0.2230
  619MOL0     H85377   7.611   8.920   1.755 -0.4781 -3.4286  2.1316
  619MOL0     H85378   7.729   8.714   1.704  0.3859 -0.0946 -0.0103
  619MOL0     H85379   7.794   8.823   1.593 -1.4923  0.5956  0.1521
  619MOL0     H85380   7.919   8.648   1.531  0.5133  0.9453  0.0633
  619MOL0     H85381   8.096   8.620   1.304  1.3071  0.5720 -0.2148
  619MOL0     H85382   8.029   8.477   1.381  1.6494 -1.2818 -0.7045
  619MOL0     H85383   8.199   8.487   1.342 -2.5434 -2.4303 -0.6478
  619MOL0     H85384   8.428   8.208   1.497  0.6075 -2.4578  2.2354
  619MOL0     H85385   8.626   8.098   1.418 -2.4783 -0.0750 -0.0723
  619MOL0     H85386   9.005   8.336   1.331  3.3494 -0.2794 -0.2025
  619MOL0     H85387   9.021   8.292   1.499 -1.9393  1.2031  0.0472
  619MOL0     H85388   9.111   8.064   1.406  0.6202  0.0082  0.3253
  619MOL0     H85389   9.095   8.150   1.252  1.2193  5.6336 -0.7213
  619MOL0     H85390   9.285   8.215   1.473 -0.9709 -2.2532 -0.4649
  619MOL0     H85391   9.242   8.321   1.323 -0.1384  0.9367  1.8795
  619MOL0     H85392   9.318   8.103   1.204 -0.0878 -4.0639  1.8813
  619MOL0     H85393   9.392   8.050   1.348 -0.7397 -1.9594 -3.0956
  619MOL0     H85394   9.552   8.161   1.207 -0.3835 -0.3416  0.3974
  619MOL0     H85395   9.489   8.320   1.214 -0.1296  0.0601 -0.9478
  619MOL0     H85396   9.581   8.165   1.468 -0.4966  0.0662  1.3765
  619MOL0     H85397   9.488   8.310   1.476  0.2623  2.1698 -0.9108
  619MOL0     H85398   9.660   8.431   1.331  2.3339  0.4919  0.0147
  619MOL0     H85399   9.748   8.276   1.342 -1.3292 -2.3945  0.1037
  619MOL0     H85400   9.835   8.436   1.507  0.7719  0.0207  1.6741
  619MOL0     H85401   9.779   8.289   1.570  1.8258 -0.2264 -3.2385
  619MOL0     H85402   8.846   8.466   1.450  0.1866 -0.0766  1.4304
  619MOL0     H85403   8.652   8.574   1.504  2.0406  0.0306 -1.0877
  619MOL0     H85404   8.355   8.724   1.734  0.3127 -2.6258 -0.2016
  619MOL0     H85405   8.147   8.804   1.852 -4.6306  2.2466 -1.0618
  619MOL0     H85406   8.972   9.305   1.730  0.6961  1.3243  0.6875
  619MOL0     H85407   9.154   9.144   1.770  3.4958 -2.5483  2.6943
  619MOL0     H85408   9.349   8.878   2.145 -2.1725 -0.8861 -0.7665
  619MOL0     H85409   9.504   8.697   2.195  0.4299  2.7361  0.7362
  619MOL0     H85410   9.706   8.416   2.105 -1.4044 -2.8673  0.0211
  619MOL0     H85411   9.561   8.497   2.153  0.5551  1.9655  0.1237
  619MOL0     H85412   9.526   8.282   2.025  1.8740 -2.3798 -0.8985
  619MOL0     H85413   9.622   8.338   1.896  3.0366  3.1887  1.0720
  619MOL0     H85414   9.354   8.459   1.961  2.0309 -1.1403  3.5906
  619MOL0     H85415   9.453   8.527   1.845 -3.2500  1.7843  2.4280
  619MOL0     H85416   9.357   8.227   1.822  0.3064  1.3856  1.8529
  619MOL0     H85417   9.425   8.305   1.691  1.7248 -2.9862  0.9800
  619MOL0     H85418   9.005   8.411   1.707  0.6068 -0.6227 -1.5185
  619MOL0     H85419   9.676   8.731   1.810  0.0911  0.0269 -0.2556
  619MOL0     H85420   9.491   8.957   1.668  1.6823 -2.5284 -1.9714
  619MOL0     H85421   9.612   9.054   1.766 -1.5839  1.0826 -0.5736
  619MOL0     H85422   9.662   8.917   1.678 -1.9275  1.3808 -5.4419
  620MOL0     O85423   3.797   9.135   0.031 -0.4576  0.1224  0.8288
  620MOL0     C85424   3.747   9.146   0.142  0.4341  0.2536 -0.2840
  620MOL0     O85425   3.804   9.094   0.253  0.1473  0.0868 -0.4789
  620MOL0     C85426   3.924   9.039   0.257 -0.2021 -0.3127  0.1272
  620MOL0     C85427   3.933   8.926   0.337  0.0000  0.0214  0.3521
  620MOL0     C85428   4.067   8.878   0.360 -0.4726 -0.0797 -1.0054
  620MOL0     C85429   4.183   8.928   0.296 -0.0203  0.2208 -0.2762
  620MOL0     O85430   4.302   8.869   0.325  0.1392  1.0866 -0.0740
  620MOL0     C85431   4.424   8.940   0.310 -0.1476 -0.2681 -0.0801
  620MOL0     C85432   4.527   8.867   0.395  0.2192  0.1765 -0.8791
  620MOL0     C85433   4.647   8.959   0.430 -0.0289 -0.6459 -0.5031
  620MOL0     C85434   4.728   8.878   0.528 -0.4063 -0.1787  0.9210
  620MOL0     C85435   4.875   8.919   0.511  0.2588 -0.2851  0.2551
  620MOL0     C85436   4.956   8.886   0.634  0.1868 -1.1489 -0.8492
  620MOL0     C85437   5.111   8.901   0.612  0.6137 -0.0486  0.6248
  620MOL0     C85438   5.163   9.043   0.572 -0.1235 -0.0805 -0.1842
  620MOL0     N85439   5.307   9.067   0.573  0.1327  1.2380 -0.6142
  620MOL0     C85440   5.402   8.975   0.599  1.0210 -0.4294 -0.7623
  620MOL0     C85441   5.515   9.040   0.615  0.1692 -0.8224 -0.2896
  620MOL0     C85442   5.650   8.980   0.644  0.4890 -0.7309 -0.0866
  620MOL0     C85443   5.706   9.019   0.772 -0.1268 -0.0757 -0.0098
  620MOL0     C85444   5.863   9.023   0.775 -0.0158 -0.0639  0.0283
  620MOL0     C85445   5.919   9.138   0.685 -0.9359  0.0513  0.1874
  620MOL0     O85446   6.043   9.188   0.747  0.1551 -0.5011 -0.1221
  620MOL0     C85447   6.123   9.273   0.679 -0.2583 -0.6853  0.2214
  620MOL0     C85448   6.080   9.339   0.557  0.5060  0.1788  0.6194
  620MOL0     C85449   6.157   9.423   0.480 -0.6621  0.1035  0.0000
  620MOL0     C85450   6.106   9.471   0.350 -0.6305  0.3327 -0.2064
  620MOL0     C85451   6.290   9.461   0.532 -0.0026  0.3153  0.0934
  620MOL0     C85452   6.385   9.561   0.474 -0.7231 -0.0632  0.4231
  620MOL0     O85453   6.515   9.545   0.524 -0.4386 -0.3064  0.1997
  620MOL0     C85454   6.602   9.647   0.480  0.4240  0.4559 -1.0244
  620MOL0     C85455   6.696   9.620   0.383 -0.5398 -0.1701  0.5170
  620MOL0     C85456   6.790   9.711   0.355 -0.3433  0.8525 -0.2426
  620MOL0     C85457   6.780   9.839   0.405  0.0736  0.3060  0.2202
  620MOL0     O85458   6.862   9.935   0.354 -0.3964  0.4910 -0.1598
  620MOL0     C85459   7.000   9.893   0.363 -0.0026 -0.1760  0.1793
  620MOL0     C85460   7.082  10.028   0.369 -0.6830  0.0324 -1.2219
  620MOL0     C85461   7.214  10.010   0.427  0.0918 -0.0416 -0.2874
  620MOL0     C85462   7.203  10.006   0.581 -0.9028 -0.7339  0.2738
  620MOL0     C85463   7.335   9.951   0.635  1.1854 -0.3595 -0.2202
  620MOL0     C85464   7.445  10.053   0.609 -0.3250 -0.6354 -0.1685
  620MOL0     C85465   7.577   9.991   0.571  0.6546 -0.0467  0.1804
  620MOL0     C85466   7.678  10.099   0.525  0.6618  0.6185  0.3501
  620MOL0    Cl85467   7.844  10.024   0.494  0.0099 -0.0988 -0.4033
  620MOL0     C85468   6.689   9.865   0.503  0.3854 -0.0132 -0.9940
  620MOL0     C85469   6.606   9.765   0.546  0.0753  0.6322  0.3876
  620MOL0     O85470   6.351   9.650   0.392  0.7655 -0.0304 -0.1984
  620MOL0     C85471   6.327   9.403   0.661  0.1677  0.5161 -0.2112
  620MOL0     C85472   6.245   9.317   0.731  0.5477 -0.1290  0.2331
  620MOL0     N85473   5.491   9.182   0.593  0.3979 -0.7585 -0.1282
  620MOL0     N85474   5.373   9.188   0.568 -0.0077  0.3873  0.0130
  620MOL0     C85475   4.165   9.042   0.215  0.6626 -0.5025 -0.1280
  620MOL0     C85476   4.043   9.101   0.205  0.7071 -0.1053 -0.1954
  620MOL0     C85477   3.621   9.225   0.156 -0.3560  0.5258  0.8196
  620MOL0     C85478   3.540   9.209   0.269  0.0930  0.3172 -0.2172
  620MOL0     C85479   3.425   9.294   0.289  0.2328  0.5401  0.4187
  620MOL0     C85480   3.373   9.374   0.191  0.4995 -0.8019 -0.5491
  620MOL0     O85481   3.265   9.443   0.228  0.4213 -0.0951  0.1568
  620MOL0     C85482   3.143   9.436   0.143 -0.2669  1.4083 -0.2799
  620MOL0     C85483   3.136   9.564   0.065  0.5619  0.2548  0.6970
  620MOL0     C85484   3.026   9.573  -0.045  0.0591  0.6289 -0.1355
  620MOL0     C85485   2.895   9.484  -0.014 -0.5764  0.6530 -0.3768
  620MOL0     C85486   2.821   9.523   0.106  0.7264  0.7331  0.7372
  620MOL0     C85487   2.763   9.535   0.207 -1.1302 -0.2041  0.0121
  620MOL0     C85488   3.447   9.388   0.082 -0.8567  0.8445  0.4450
  620MOL0     C85489   3.572   9.323   0.059  0.1392  0.1508 -0.2844
  620MOL0     C85490   3.669   9.383  -0.043 -0.4086  0.3874  0.5091
  620MOL0     H85491   3.850   8.881   0.390  1.3202 -1.4402  1.2752
  620MOL0     H85492   4.085   8.791   0.423 -1.3437  2.7833  3.6588
  620MOL0     H85493   4.403   9.039   0.352  1.6114 -0.9638  2.7150
  620MOL0     H85494   4.441   8.949   0.203 -0.4935  0.6888 -0.0603
  620MOL0     H85495   4.479   8.830   0.486  0.9521 -1.8320 -1.2476
  620MOL0     H85496   4.564   8.785   0.332  3.0295  0.3751  0.3331
  620MOL0     H85497   4.703   8.979   0.338  3.2860 -0.2217  1.4692
  620MOL0     H85498   4.621   9.052   0.480  3.4640 -0.0377  0.3940
  620MOL0     H85499   4.689   8.900   0.628 -3.4577  0.6485 -0.3249
  620MOL0     H85500   4.719   8.770   0.514  1.1189 -0.0533 -1.6555
  620MOL0     H85501   4.881   9.026   0.489 -2.4959 -0.3777 -1.5236
  620MOL0     H85502   4.926   8.860   0.434  1.0334 -1.5577  1.7023
  620MOL0     H85503   4.932   8.939   0.726  2.9685 -1.1806 -0.0000
  620MOL0     H85504   4.941   8.778   0.649 -0.8038 -1.1959 -2.0373
  620MOL0     H85505   5.146   8.837   0.531  0.4892  1.0035 -0.2837
  620MOL0     H85506   5.163   8.867   0.702 -2.0543 -1.4504  1.7770
  620MOL0     H85507   5.123   9.068   0.473  2.0655 -2.7969 -1.8855
  620MOL0     H85508   5.117   9.104   0.651 -3.5287  2.1418 -3.5705
  620MOL0     H85509   5.388   8.870   0.623 -2.1621 -0.3351 -1.6608
  620MOL0     H85510   5.726   9.020   0.576  0.4117 -0.2157  0.1260
  620MOL0     H85511   5.648   8.872   0.625  0.9567 -1.4019  3.0627
  620MOL0     H85512   5.667   9.118   0.795 -0.6436 -0.3417  0.3025
  620MOL0     H85513   5.670   8.957   0.854 -0.0486 -0.7947 -0.5047
  620MOL0     H85514   5.894   9.030   0.880 -2.4505 -0.3723  0.8216
  620MOL0     H85515   5.903   8.925   0.747  0.7725  0.0943  0.5500
  620MOL0     H85516   5.931   9.102   0.583  1.5210  0.7433  0.1800
  620MOL0     H85517   5.850   9.223   0.685 -0.2546  0.6123  0.4926
  620MOL0     H85518   5.981   9.314   0.520  0.3563  0.9450  0.5010
  620MOL0     H85519   6.151   9.428   0.260 -2.8236 -0.8174 -0.8472
  620MOL0     H85520   6.118   9.580   0.350  0.0142  0.2655  0.0464
  620MOL0     H85521   6.000   9.446   0.335 -0.5659  0.6582 -1.3578
  620MOL0     H85522   6.705   9.525   0.331  0.6687  0.4575 -0.5043
  620MOL0     H85523   6.862   9.684   0.279  0.7424 -0.2445  1.1140
  620MOL0     H85524   7.022   9.829   0.449 -0.0350 -0.3667  0.0456
  620MOL0     H85525   7.029   9.839   0.272  2.2310  0.2244  0.5979
  620MOL0     H85526   7.075  10.093   0.281 -2.2097  1.6347  0.0131
  620MOL0     H85527   7.022  10.088   0.439  0.2408  0.9860 -1.2337
  620MOL0     H85528   7.275  10.094   0.391  1.5600 -0.7400  0.4821
  620MOL0     H85529   7.244   9.914   0.385 -0.3473 -0.3747  0.1550
  620MOL0     H85530   7.131   9.934   0.622 -1.4182  1.3094  3.2347
  620MOL0     H85531   7.179  10.101   0.630  0.6209 -0.4346  0.4859
  620MOL0     H85532   7.325   9.927   0.741  0.3905 -4.5086 -1.0484
  620MOL0     H85533   7.350   9.859   0.576  2.8400  1.4447 -2.8493
  620MOL0     H85534   7.454  10.111   0.701 -0.3752 -0.6256 -0.1695
  620MOL0     H85535   7.421  10.125   0.530  0.5483 -0.2217 -0.0681
  620MOL0     H85536   7.557   9.928   0.483 -1.7710  1.5870 -0.5425
  620MOL0     H85537   7.622   9.927   0.647 -2.6118 -1.5917  0.9826
  620MOL0     H85538   7.690  10.181   0.597 -2.1954  1.8369 -0.4041
  620MOL0     H85539   7.655  10.143   0.427  1.7800 -1.5440 -0.9360
  620MOL0     H85540   6.683   9.969   0.535  1.6058 -0.4057  0.6317
  620MOL0     H85541   6.545   9.768   0.636 -4.3968  0.7993 -2.3527
  620MOL0     H85542   6.423   9.421   0.707  0.2121 -1.0487  0.3608
  620MOL0     H85543   6.288   9.285   0.826  0.6798  1.2175  0.6455
  620MOL0     H85544   4.248   9.090   0.164  0.1724  2.3212  1.4937
  620MOL0     H85545   4.021   9.198   0.161  2.6700  1.4947  2.0570
  620MOL0     H85546   3.557   9.136   0.348 -0.8821  1.6781  1.3254
  620MOL0     H85547   3.376   9.296   0.387 -1.2231  0.7349 -0.2826
  620MOL0     H85548   3.158   9.347   0.080  0.9757  2.0049 -0.8671
  620MOL0     H85549   3.061   9.426   0.215  1.2440 -2.0735  1.2103
  620MOL0     H85550   3.233   9.571   0.015 -0.1799  1.1651 -0.6799
  620MOL0     H85551   3.116   9.648   0.132 -0.9923 -0.4387  1.1352
  620MOL0     H85552   3.008   9.679  -0.064  2.9333  0.6371 -4.2601
  620MOL0     H85553   3.074   9.528  -0.132  3.3187  0.6518  1.5170
  620MOL0     H85554   2.919   9.380   0.011  1.4432  0.9110 -1.0552
  620MOL0     H85555   2.829   9.478  -0.101  0.2406 -0.5659 -0.9495
  620MOL0     H85556   2.701   9.544   0.294 -0.6697  1.1956  0.2213
  620MOL0     H85557   3.419   9.478   0.028 -0.8864  1.3174  1.2384
  620MOL0     H85558   3.644   9.480  -0.088 -0.5172  0.1160 -0.0236
  620MOL0     H85559   3.774   9.390  -0.015  0.2008  2.2359 -1.9405
  620MOL0     H85560   3.658   9.309  -0.122 -5.1910 -0.4760  1.6153
  621MOL0     O85561   4.232   4.747   0.811  0.6429 -0.4506 -0.4218
  621MOL0     C85562   4.269   4.812   0.910 -0.2457 -0.7527  0.0469
  621MOL0     O85563   4.368   4.909   0.907 -0.1769 -0.4292 -0.1943
  621MOL0     C85564   4.424   4.946   0.791 -0.4314 -0.3641  0.3993
  621MOL0     C85565   4.347   5.012   0.686  0.4045  0.3970 -0.9732
  621MOL0     C85566   4.405   5.093   0.590  0.0414  0.1439 -0.2380
  621MOL0     C85567   4.545   5.101   0.590  0.2154 -0.4237 -0.3115
  621MOL0     O85568   4.617   5.182   0.505  0.1183 -0.0251 -0.6708
  621MOL0     C85569   4.546   5.226   0.387  0.4748  0.1287 -0.9781
  621MOL0     C85570   4.643   5.310   0.299  0.6452  0.2052  0.0113
  621MOL0     C85571   4.555   5.365   0.188 -0.8706 -0.1064 -0.3201
  621MOL0     C85572   4.645   5.400   0.067 -0.1876 -0.1019 -0.2628
  621MOL0     C85573   4.569   5.447  -0.057 -0.2898 -0.0471 -0.8566
  621MOL0     C85574   4.622   5.366  -0.179 -0.0100 -0.3686 -0.4543
  621MOL0     C85575   4.600   5.453  -0.304 -0.6517 -0.2566  0.1337
  621MOL0     C85576   4.568   5.362  -0.428 -0.4715  0.0028  1.0288
  621MOL0     N85577   4.665   5.259  -0.450 -0.2427 -0.0569  0.2073
  621MOL0     C85578   4.788   5.280  -0.487 -0.6264 -0.2589 -0.1554
  621MOL0     C85579   4.839   5.158  -0.503  0.9472  0.0525  0.0908
  621MOL0     C85580   4.973   5.117  -0.542 -1.2218  0.4341  0.0507
  621MOL0     C85581   5.041   5.024  -0.432 -0.5969 -0.3146  0.2573
  621MOL0     C85582   5.132   5.099  -0.333 -0.1875 -0.0658  0.2320
  621MOL0     C85583   5.170   4.997  -0.217 -0.8920 -1.0379 -0.7507
  621MOL0     O85584   5.242   4.888  -0.281 -0.7819 -0.9713  0.4703
  621MOL0     C85585   5.375   4.907  -0.335 -0.3851 -0.6688 -0.4984
  621MOL0     C85586   5.415   4.830  -0.436  0.2191  1.0105  0.2049
  621MOL0     C85587   5.546   4.830  -0.484  0.5293  0.2592  0.0195
  621MOL0     C85588   5.577   4.745  -0.617  0.4583  0.5280  0.5176
  621MOL0     C85589   5.648   4.917  -0.430  0.8852  0.1707  0.0133
  621MOL0     C85590   5.793   4.937  -0.481  0.1536  0.6452 -0.4388
  621MOL0     O85591   5.874   5.024  -0.413  0.2119 -0.2774 -0.0288
  621MOL0     C85592   6.014   5.034  -0.441  0.7049 -0.4715  0.3725
  621MOL0     C85593   6.095   4.930  -0.487  0.1349  0.0149 -0.3916
  621MOL0     C85594   6.235   4.939  -0.495 -0.2137  0.3531  0.2428
  621MOL0     C85595   6.291   5.057  -0.468  0.0037 -0.2614  0.2218
  621MOL0     O85596   6.428   5.064  -0.475  0.0788  0.4509 -0.1514
  621MOL0     C85597   6.487   5.189  -0.521 -0.0824  0.8601 -0.0694
  621MOL0     C85598   6.637   5.167  -0.543 -0.1228 -0.4797 -0.5095
  621MOL0     C85599   6.666   5.080  -0.665  0.2614 -0.4356  0.6619
  621MOL0     C85600   6.818   5.072  -0.693  0.8764 -0.2544 -0.2500
  621MOL0     C85601   6.847   5.037  -0.843 -0.2185  0.4969  0.6368
  621MOL0     C85602   6.793   4.902  -0.896 -0.6148  0.1196  0.7076
  621MOL0     C85603   6.842   4.786  -0.813  0.1785  0.4947  0.3972
  621MOL0     C85604   6.808   4.648  -0.874 -0.4743 -0.3259  0.5312
  621MOL0    Cl85605   6.906   4.589  -1.028  0.1581 -0.0596 -0.1754
  621MOL0     C85606   6.203   5.176  -0.437 -0.3978 -0.4898  0.1996
  621MOL0     C85607   6.075   5.163  -0.413  0.6949  0.0171 -0.1701
  621MOL0     O85608   5.829   4.880  -0.581 -0.3430 -0.0368  0.3766
  621MOL0     C85609   5.601   5.000  -0.329 -0.2489  0.3410 -0.2003
  621MOL0     C85610   5.469   4.985  -0.267 -0.8921  0.2244 -0.4584
  621MOL0     N85611   4.736   5.067  -0.491  0.3952  0.2179  0.2793
  621MOL0     N85612   4.634   5.129  -0.444 -0.6865 -0.1402  0.6681
  621MOL0     C85613   4.625   5.043   0.686 -0.3297 -0.1359 -0.7491
  621MOL0     C85614   4.559   4.966   0.788  0.1572  0.4179 -0.3258
  621MOL0     C85615   4.244   4.748   1.042  0.3186 -0.1054  0.0966
  621MOL0     C85616   4.357   4.738   1.115 -0.4664 -0.1256 -0.6916
  621MOL0     C85617   4.352   4.691   1.248  0.1897 -0.3749  0.3274
  621MOL0     C85618   4.227   4.644   1.302  0.5842 -0.9898 -0.6964
  621MOL0     O85619   4.213   4.609   1.435  0.8407  0.2857 -0.2716
  621MOL0     C85620   4.321   4.527   1.490 -0.1209  0.6482  0.0301
  621MOL0     C85621   4.274   4.468   1.620  0.0518 -0.0092  0.0715
  621MOL0     C85622   4.152   4.380   1.607  0.6824  0.0642 -0.4326
  621MOL0     C85623   4.100   4.320   1.735  0.4802  0.1687  0.7460
  621MOL0     C85624   4.198   4.225   1.789 -0.1891  0.5725 -0.2866
  621MOL0     C85625   4.273   4.147   1.845  0.2868 -0.3351 -0.6165
  621MOL0     C85626   4.115   4.654   1.222 -0.2013  1.0394 -0.4212
  621MOL0     C85627   4.119   4.709   1.093 -1.1988  0.7804  0.4107
  621MOL0     C85628   3.991   4.725   1.017 -0.1113 -0.5899  0.2380
  621MOL0     H85629   4.239   5.011   0.690  0.4114 -1.7360 -0.3673
  621MOL0     H85630   4.344   5.126   0.507  1.7751 -0.0450 -1.6583
  621MOL0     H85631   4.466   5.294   0.416  0.2599  0.1781 -1.6802
  621MOL0     H85632   4.515   5.141   0.326  1.2275 -0.8627 -0.0334
  621MOL0     H85633   4.695   5.396   0.342  4.0636 -0.3529 -2.5569
  621MOL0     H85634   4.722   5.241   0.269 -1.0406 -1.8336  0.0455
  621MOL0     H85635   4.481   5.299   0.142  0.5136  0.1182 -3.1172
  621MOL0     H85636   4.501   5.454   0.221  0.3703  0.1446  1.1397
  621MOL0     H85637   4.712   5.476   0.108 -1.2189 -1.1359  3.8343
  621MOL0     H85638   4.709   5.317   0.036  0.1343  0.3316 -0.7634
  621MOL0     H85639   4.593   5.553  -0.075  0.7542 -0.3746 -1.5199
  621MOL0     H85640   4.461   5.437  -0.048 -0.5346  2.7897  0.6634
  621MOL0     H85641   4.730   5.356  -0.171 -0.2977 -3.6773  0.8204
  621MOL0     H85642   4.566   5.273  -0.187 -1.7818  0.5408  0.5854
  621MOL0     H85643   4.693   5.504  -0.331 -1.4770  0.0132 -2.5028
  621MOL0     H85644   4.521   5.527  -0.286  2.6099  3.5639  0.1296
  621MOL0     H85645   4.467   5.320  -0.420 -0.0234 -1.0076  1.5610
  621MOL0     H85646   4.577   5.432  -0.512  0.8675  1.0299  2.0050
  621MOL0     H85647   4.830   5.376  -0.513 -1.6980  0.1881 -0.2611
  621MOL0     H85648   5.042   5.202  -0.553  0.4422 -0.5564  1.9973
  621MOL0     H85649   4.970   5.074  -0.642  2.8166 -1.5133  0.5720
  621MOL0     H85650   4.963   4.966  -0.381  0.7378 -1.7716  0.7430
  621MOL0     H85651   5.108   4.952  -0.480  0.0942  0.7840 -0.4502
  621MOL0     H85652   5.222   5.129  -0.388 -0.3773 -2.9166 -1.8441
  621MOL0     H85653   5.080   5.185  -0.288  2.4734 -0.1814  4.0648
  621MOL0     H85654   5.234   5.055  -0.148 -2.7612  2.0963 -1.4761
  621MOL0     H85655   5.082   4.968  -0.159  0.5401 -0.4729  1.8691
  621MOL0     H85656   5.343   4.764  -0.483  0.8674 -0.3586  1.0986
  621MOL0     H85657   5.482   4.713  -0.661  1.4232 -0.3288 -1.0442
  621MOL0     H85658   5.632   4.660  -0.576 -0.2470  0.2385  0.8801
  621MOL0     H85659   5.629   4.801  -0.696  0.7611 -0.6994 -0.1861
  621MOL0     H85660   6.055   4.830  -0.505  1.8480 -0.8156  0.1726
  621MOL0     H85661   6.286   4.851  -0.533 -1.6387 -0.5318  0.2836
  621MOL0     H85662   6.452   5.221  -0.620  0.4538 -1.3659 -1.0523
  621MOL0     H85663   6.482   5.268  -0.446 -0.2637  0.9825 -0.2096
  621MOL0     H85664   6.685   5.265  -0.556  1.1711 -0.9430  0.4573
  621MOL0     H85665   6.673   5.113  -0.455 -1.7358 -2.2285 -0.8624
  621MOL0     H85666   6.611   5.118  -0.751 -1.6735  4.7187  3.7154
  621MOL0     H85667   6.629   4.980  -0.639  1.1023 -0.4935  1.7290
  621MOL0     H85668   6.872   5.007  -0.624 -0.3523 -2.0039 -0.8666
  621MOL0     H85669   6.862   5.172  -0.691  2.9033 -1.1020  0.2467
  621MOL0     H85670   6.819   5.121  -0.908 -1.1281  0.0231  0.3970
  621MOL0     H85671   6.954   5.036  -0.863 -0.4626  1.5383 -0.9161
  621MOL0     H85672   6.823   4.894  -1.001 -0.7163 -0.6927  0.7264
  621MOL0     H85673   6.685   4.916  -0.910 -0.2026  1.0181 -2.1400
  621MOL0     H85674   6.793   4.801  -0.716  1.0567 -0.0024  0.9271
  621MOL0     H85675   6.949   4.789  -0.792  0.3169 -1.5216  0.1514
  621MOL0     H85676   6.701   4.645  -0.898 -0.7745 -0.3015  1.8375
  621MOL0     H85677   6.827   4.585  -0.787 -1.6028 -1.5019 -0.0414
  621MOL0     H85678   6.247   5.275  -0.435  2.5843 -1.7378  0.9321
  621MOL0     H85679   6.021   5.252  -0.382  1.3771  0.8807 -1.3674
  621MOL0     H85680   5.676   5.059  -0.278 -0.7479  0.5912  0.2506
  621MOL0     H85681   5.446   5.044  -0.179 -0.9835  0.0186 -0.3444
  621MOL0     H85682   4.733   5.045   0.672 -0.0199 -3.0552  0.3765
  621MOL0     H85683   4.621   4.914   0.860  1.6667 -3.3103 -3.9259
  621MOL0     H85684   4.456   4.761   1.077 -0.5061  0.5855 -0.3808
  621MOL0     H85685   4.448   4.691   1.297 -0.2498  0.3187  1.2138
  621MOL0     H85686   4.365   4.451   1.424 -2.0196  0.5094 -1.1643
  621MOL0     H85687   4.404   4.591   1.519  1.1571 -1.5782  1.6652
  621MOL0     H85688   4.246   4.547   1.691 -1.6687 -0.4141 -0.1218
  621MOL0     H85689   4.351   4.401   1.659 -1.2653 -2.0865 -0.7650
  621MOL0     H85690   4.075   4.442   1.559 -0.6819  1.6160  3.4008
  621MOL0     H85691   4.179   4.292   1.548  3.8420 -0.8001  2.0466
  621MOL0     H85692   3.995   4.289   1.730 -0.5963  3.5834 -1.6746
  621MOL0     H85693   4.082   4.403   1.805 -0.2215  2.2427 -1.7584
  621MOL0     H85694   4.323   4.091   1.921  2.0882  1.9642  0.0038
  621MOL0     H85695   4.024   4.627   1.273 -0.8819  2.5231 -0.7962
  621MOL0     H85696   3.934   4.633   1.036  1.5318 -1.5871  0.4940
  621MOL0     H85697   3.938   4.813   1.054  2.9844  1.2756  0.5117
  621MOL0     H85698   4.001   4.733   0.908  0.3151 -4.1291 -0.1247
  622MOL0     O85699   6.074   7.048   7.521 -0.3412 -0.0865 -0.2664
  622MOL0     C85700   6.059   6.985   7.414 -0.3452 -0.1514 -0.5379
  622MOL0     O85701   6.162   6.961   7.320 -0.9351  0.3996  0.3487
  622MOL0     C85702   6.283   7.026   7.340 -0.2498  0.0324 -0.3152
  622MOL0     C85703   6.397   6.960   7.386 -0.2685  0.2810 -0.2026
  622MOL0     C85704   6.517   7.028   7.406  0.1976 -0.7021  0.5224
  622MOL0     C85705   6.530   7.160   7.363  0.5993 -0.5669 -1.0412
  622MOL0     O85706   6.649   7.222   7.341 -0.7687 -0.3935  0.3761
  622MOL0     C85707   6.650   7.370   7.333 -0.3129 -0.6284  0.1871
  622MOL0     C85708   6.791   7.424   7.355 -0.5938 -0.0371 -0.0465
  622MOL0     C85709   6.794   7.576   7.334  0.6489 -0.4649  0.5209
  622MOL0     C85710   6.918   7.634   7.391  0.5857  0.0813  0.7521
  622MOL0     C85711   6.941   7.777   7.336  0.2493 -0.0600  0.3827
  622MOL0     C85712   7.083   7.821   7.371  0.2156  1.2572  0.3647
  622MOL0     C85713   7.120   7.829   7.521 -0.6411 -0.4946  0.0493
  622MOL0     C85714   7.252   7.763   7.552  0.3371 -0.0207 -0.5630
  622MOL0     N85715   7.362   7.865   7.553  0.4411  0.0740 -0.1801
  622MOL0     C85716   7.492   7.841   7.505 -0.3321  0.3653 -0.8833
  622MOL0     C85717   7.563   7.945   7.570  0.4265  0.1573  0.1546
  622MOL0     C85718   7.712   7.964   7.562  0.0388 -0.7094  0.6477
  622MOL0     C85719   7.783   8.038   7.677  0.8076 -0.2652  0.0441
  622MOL0     C85720   7.933   8.053   7.636 -0.0363 -0.0662  0.1994
  622MOL0     C85721   8.024   8.072   7.758 -0.2745 -0.4147 -0.6271
  622MOL0     O85722   7.985   8.182   7.843  0.4318 -0.3814  0.9215
  622MOL0     C85723   8.095   8.270   7.852  0.2654  0.4564 -0.7627
  622MOL0     C85724   8.223   8.231   7.893 -0.6904 -0.6786  0.4704
  622MOL0     C85725   8.337   8.317   7.906  1.2910 -0.0929  0.0199
  622MOL0     C85726   8.462   8.248   7.939  0.2272  0.0961  0.3222
  622MOL0     C85727   8.323   8.458   7.882  0.4346  0.8335 -0.2335
  622MOL0     C85728   8.437   8.555   7.889  0.3027  0.7963 -0.3265
  622MOL0     O85729   8.562   8.509   7.926 -0.2584 -0.2385 -0.0754
  622MOL0     C85730   8.655   8.599   7.973  0.1531 -0.7295 -0.8382
  622MOL0     C85731   8.715   8.698   7.880 -0.6565  0.1675  0.0756
  622MOL0     C85732   8.830   8.771   7.934 -0.1865  0.2312  0.3942
  622MOL0     C85733   8.868   8.748   8.066 -0.1384  0.2709  0.0221
  622MOL0     O85734   8.984   8.807   8.118  0.3313  0.1308 -0.0641
  622MOL0     C85735   9.112   8.774   8.062  0.1734  0.2835 -0.5745
  622MOL0     C85736   9.189   8.677   8.154 -0.0463 -0.3685  0.2531
  622MOL0     C85737   9.312   8.622   8.089  0.3324  0.4705  0.3245
  622MOL0     C85738   9.409   8.744   8.067 -0.3447  0.9297  0.9613
  622MOL0     C85739   9.556   8.681   8.039  0.8988  0.0053 -0.3755
  622MOL0     C85740   9.667   8.785   8.041 -0.0354 -0.0426  0.0902
  622MOL0     C85741   9.803   8.720   8.032 -0.4325 -0.0384  0.0397
  622MOL0     C85742   9.918   8.804   7.992  0.2986 -0.3978  0.2703
  622MOL0    Cl85743   9.970   8.898   8.137 -0.4703  0.2021 -0.2808
  622MOL0     C85744   8.793   8.676   8.156 -0.5225  0.9909 -0.5853
  622MOL0     C85745   8.684   8.599   8.107  0.1932 -0.9119 -0.8214
  622MOL0     O85746   8.402   8.673   7.872  0.0179  0.2849 -0.6463
  622MOL0     C85747   8.186   8.499   7.858 -0.2437 -0.5482 -0.0093
  622MOL0     C85748   8.081   8.408   7.839  0.3266  0.2326  0.3463
  622MOL0     N85749   7.483   8.016   7.654 -0.7206  0.5866 -0.3515
  622MOL0     N85750   7.365   7.974   7.634 -0.0136  0.4439 -0.7784
  622MOL0     C85751   6.416   7.229   7.329  0.6260 -0.4570  0.6290
  622MOL0     C85752   6.298   7.159   7.309 -0.0545  1.3953  0.3789
  622MOL0     C85753   5.933   6.904   7.403  0.4134 -0.4018 -0.0980
  622MOL0     C85754   5.809   6.952   7.460 -0.6504  0.3946  0.3840
  622MOL0     C85755   5.694   6.886   7.436  0.1634 -0.1091  0.4644
  622MOL0     C85756   5.694   6.772   7.360 -0.0661  0.3917 -0.0957
  622MOL0     O85757   5.576   6.700   7.328 -0.9858 -0.1283 -0.1462
  622MOL0     C85758   5.452   6.769   7.328  0.0850 -0.6409 -0.5656
  622MOL0     C85759   5.359   6.707   7.233 -0.4545  0.1204 -0.7896
  622MOL0     C85760   5.337   6.555   7.256  0.0757 -0.1962 -0.1121
  622MOL0     C85761   5.228   6.489   7.171  0.5295 -0.4779  0.2300
  622MOL0     C85762   5.104   6.556   7.186  0.5825  0.1863 -0.5997
  622MOL0     C85763   5.000   6.617   7.198  0.0917  0.1044 -0.3995
  622MOL0     C85764   5.809   6.717   7.318 -0.6699  0.2760  0.2096
  622MOL0     C85765   5.934   6.779   7.335 -1.0447  1.6216 -0.5690
  622MOL0     C85766   6.048   6.689   7.279  0.1708 -0.2201  0.1005
  622MOL0     H85767   6.385   6.855   7.411 -0.9459  0.2320 -0.7347
  622MOL0     H85768   6.608   6.975   7.433 -0.0963 -0.4942  1.9764
  622MOL0     H85769   6.583   7.411   7.409 -2.4682 -1.7532 -0.9960
  622MOL0     H85770   6.614   7.408   7.237 -1.6009 -1.5245  0.2981
  622MOL0     H85771   6.818   7.405   7.459  1.5638 -1.1320 -0.7500
  622MOL0     H85772   6.862   7.380   7.284 -1.4970  1.8252 -2.2552
  622MOL0     H85773   6.781   7.581   7.225 -1.4338 -4.2514  0.4187
  622MOL0     H85774   6.719   7.627   7.395  0.3909 -0.3529  0.1175
  622MOL0     H85775   6.930   7.626   7.499  1.3301  0.5090  0.7079
  622MOL0     H85776   7.001   7.578   7.347  0.4422  1.1480 -0.9727
  622MOL0     H85777   6.868   7.845   7.382  2.1751  1.8877  0.7248
  622MOL0     H85778   6.929   7.777   7.227  0.9335 -0.9346  0.3019
  622MOL0     H85779   7.144   7.740   7.329 -0.9962 -0.3865  1.6247
  622MOL0     H85780   7.087   7.919   7.323 -1.7337  0.4769 -1.5333
  622MOL0     H85781   7.042   7.781   7.581 -0.7874 -1.8828 -1.1932
  622MOL0     H85782   7.126   7.932   7.558  0.1978  0.5320 -2.7154
  622MOL0     H85783   7.245   7.725   7.655 -0.7034  0.4392 -0.4519
  622MOL0     H85784   7.272   7.672   7.494  0.5084  1.1199 -2.3491
  622MOL0     H85785   7.539   7.758   7.452  1.3162  1.1491 -0.7044
  622MOL0     H85786   7.727   8.014   7.466  0.3350 -0.1055  1.0013
  622MOL0     H85787   7.767   7.870   7.547 -0.1215 -0.9408  1.4606
  622MOL0     H85788   7.750   8.138   7.708  1.2796 -1.1678  3.9254
  622MOL0     H85789   7.775   7.981   7.770 -0.8663  0.6336  0.4971
  622MOL0     H85790   7.955   7.965   7.575 -1.8435  0.2785 -1.0492
  622MOL0     H85791   7.928   8.149   7.583 -1.5808  0.4551  1.2229
  622MOL0     H85792   8.028   7.976   7.811  0.0440  0.9840  2.0926
  622MOL0     H85793   8.125   8.075   7.717 -0.5191  0.4391 -1.1801
  622MOL0     H85794   8.241   8.131   7.930  0.2261 -0.3112  1.0568
  622MOL0     H85795   8.434   8.143   7.955 -0.4846  0.4360  1.4100
  622MOL0     H85796   8.504   8.283   8.034 -0.9456 -0.2246  0.9855
  622MOL0     H85797   8.544   8.254   7.867  1.1953 -0.8642  1.3174
  622MOL0     H85798   8.692   8.695   7.774 -0.8105  0.5088  0.0971
  622MOL0     H85799   8.873   8.840   7.862 -3.1903  1.4120 -0.4173
  622MOL0     H85800   9.089   8.735   7.962 -0.0442  1.0816 -0.8382
  622MOL0     H85801   9.167   8.868   8.050 -0.2501  0.3396 -2.5420
  622MOL0     H85802   9.223   8.738   8.239 -1.2599  0.4102  0.2033
  622MOL0     H85803   9.122   8.597   8.189  0.3559 -0.5222  0.6937
  622MOL0     H85804   9.278   8.564   8.003  0.6063  1.8379 -0.7326
  622MOL0     H85805   9.353   8.554   8.164  3.2608  1.7681  0.0064
  622MOL0     H85806   9.416   8.807   8.157  1.7679 -1.7319  2.8217
  622MOL0     H85807   9.381   8.806   7.982 -0.0650 -1.3177 -0.8589
  622MOL0     H85808   9.576   8.613   8.122  2.6249  0.3950 -0.4533
  622MOL0     H85809   9.560   8.621   7.948  0.5692 -0.7734  0.1105
  622MOL0     H85810   9.665   8.841   8.135  0.4307 -0.1317  0.1585
  622MOL0     H85811   9.654   8.851   7.955  3.5009 -1.0775 -1.4421
  622MOL0     H85812   9.795   8.644   7.954  3.0629 -0.6546  0.1075
  622MOL0     H85813   9.828   8.658   8.118  1.0689 -0.0494 -0.3724
  622MOL0     H85814   9.901   8.873   7.908 -0.0869  0.8695  1.3518
  622MOL0     H85815  10.002   8.736   7.977 -2.0610 -3.3111 -0.7178
  622MOL0     H85816   8.817   8.676   8.262  1.7714 -2.5100 -0.9522
  622MOL0     H85817   8.640   8.527   8.175  0.1645 -0.4107 -0.2950
  622MOL0     H85818   8.172   8.606   7.842 -1.2735 -0.4699  1.2106
  622MOL0     H85819   7.980   8.443   7.820  0.2603  0.1411  0.5261
  622MOL0     H85820   6.421   7.329   7.286  1.1083 -1.3847 -1.6369
  622MOL0     H85821   6.216   7.216   7.266 -1.7405 -2.7618 -2.6249
  622MOL0     H85822   5.787   7.044   7.513 -2.5149  0.6484 -0.7333
  622MOL0     H85823   5.601   6.928   7.471 -0.7000  0.7504 -2.5623
  622MOL0     H85824   5.417   6.780   7.431  0.2600  1.9340 -0.7170
  622MOL0     H85825   5.459   6.873   7.296  0.1544 -0.6486 -0.5755
  622MOL0     H85826   5.396   6.722   7.131  3.5154 -1.2267  0.2584
  622MOL0     H85827   5.268   6.765   7.249  0.5077  1.1701  1.1536
  622MOL0     H85828   5.434   6.506   7.254  0.6320  0.7159  2.0353
  622MOL0     H85829   5.308   6.537   7.360 -0.7271 -1.1588 -0.4843
  622MOL0     H85830   5.210   6.385   7.196 -0.7219 -0.5117 -0.6967
  622MOL0     H85831   5.264   6.500   7.068  0.3033 -0.4550  0.1519
  622MOL0     H85832   4.918   6.679   7.230 -0.5206 -0.7841 -0.1915
  622MOL0     H85833   5.805   6.621   7.268 -0.3752 -0.6226  1.8531
  622MOL0     H85834   6.078   6.712   7.176  0.3942  0.0730  0.2292
  622MOL0     H85835   6.144   6.698   7.331  1.6853 -1.1366 -2.3596
  622MOL0     H85836   6.015   6.585   7.283  0.6079 -0.4984 -2.0941
  623MOL0     O85837   1.738   9.584   7.469  0.2201 -0.0565 -0.4564
  623MOL0     C85838   1.759   9.663   7.380  0.7632  0.3160  0.2773
  623MOL0     O85839   1.877   9.726   7.359  0.9239 -0.7861 -0.3137
  623MOL0     C85840   1.993   9.691   7.426 -0.0702  0.8745  1.1737
  623MOL0     C85841   2.035   9.756   7.538  0.1090  0.0555 -0.2371
  623MOL0     C85842   2.160   9.730   7.597  0.6977 -0.7594 -0.0735
  623MOL0     C85843   2.244   9.634   7.534  0.2492  0.4163 -0.6461
  623MOL0     O85844   2.362   9.613   7.590  0.6079  0.0247 -0.2020
  623MOL0     C85845   2.359   9.517   7.692 -0.2424 -0.7463  0.0829
  623MOL0     C85846   2.368   9.362   7.643 -0.5430 -0.0721 -0.2661
  623MOL0     C85847   2.515   9.307   7.642  0.1600  0.4816  1.2980
  623MOL0     C85848   2.532   9.193   7.538 -0.4508 -0.1694 -0.7954
  623MOL0     C85849   2.512   9.239   7.396 -0.5854  1.2282  0.3535
  623MOL0     C85850   2.551   9.124   7.297 -0.0122 -0.8277 -0.5140
  623MOL0     C85851   2.626   9.181   7.177 -0.4473  0.0615  0.0903
  623MOL0     C85852   2.557   9.280   7.081  0.2598 -0.9619  0.4452
  623MOL0     N85853   2.604   9.301   6.946 -0.1771 -0.7597 -0.8538
  623MOL0     C85854   2.608   9.211   6.838  0.0299  0.6893 -0.3461
  623MOL0     C85855   2.686   9.263   6.742  0.1036 -0.5613 -0.8513
  623MOL0     C85856   2.699   9.213   6.596  1.0284 -0.6127  0.4786
  623MOL0     C85857   2.610   9.286   6.495  0.4296 -0.4575  0.0216
  623MOL0     C85858   2.669   9.281   6.362  0.6939  0.4182  0.3912
  623MOL0     C85859   2.717   9.148   6.317  0.2766  0.0192  0.3617
  623MOL0     O85860   2.631   9.036   6.330 -0.6258 -0.2124 -0.4849
  623MOL0     C85861   2.694   8.920   6.305  0.5581 -0.1187  0.1648
  623MOL0     C85862   2.754   8.884   6.184 -0.3589  0.1818 -0.0702
  623MOL0     C85863   2.817   8.761   6.155  0.7330 -0.2682 -0.8309
  623MOL0     C85864   2.872   8.730   6.025 -0.7496  0.0367  0.5290
  623MOL0     C85865   2.815   8.661   6.258 -1.2593 -0.1435  0.4999
  623MOL0     C85866   2.881   8.530   6.255 -1.0724  0.5272  0.3517
  623MOL0     O85867   2.950   8.471   6.357 -0.1022 -0.6894  0.1728
  623MOL0     C85868   2.892   8.370   6.433  0.2312 -0.2999  0.5213
  623MOL0     C85869   2.757   8.331   6.421  1.0609  0.7020 -0.3376
  623MOL0     C85870   2.701   8.243   6.511  0.1127  0.6061  0.4283
  623MOL0     C85871   2.780   8.186   6.608  0.2141 -0.6850  0.0057
  623MOL0     O85872   2.714   8.108   6.696  0.0151  0.6148  0.6518
  623MOL0     C85873   2.780   8.056   6.810  0.3525 -0.3835  1.0237
  623MOL0     C85874   2.822   8.156   6.917  0.3563  0.1714  0.2566
  623MOL0     C85875   2.704   8.244   6.964 -0.5273 -0.9899  0.3637
  623MOL0     C85876   2.735   8.300   7.107 -0.6262 -1.2985 -0.2889
  623MOL0     C85877   2.612   8.382   7.150 -0.4196 -0.4570  0.3771
  623MOL0     C85878   2.633   8.475   7.276 -0.9194  0.8725  0.0683
  623MOL0     C85879   2.528   8.581   7.287  0.1014 -0.1238  0.5434
  623MOL0     C85880   2.526   8.663   7.411 -1.0490 -0.3320 -0.3096
  623MOL0    Cl85881   2.557   8.570   7.567  0.5121 -0.8718  0.1240
  623MOL0     C85882   2.920   8.206   6.604  0.2054  0.1463 -0.3226
  623MOL0     C85883   2.972   8.305   6.524 -0.5233 -0.2465 -0.1543
  623MOL0     O85884   2.880   8.475   6.144  0.7966  0.7013 -0.5926
  623MOL0     C85885   2.751   8.695   6.381 -0.0883 -0.1257 -0.2520
  623MOL0     C85886   2.691   8.823   6.402  1.1178  0.2348  0.3865
  623MOL0     N85887   2.719   9.389   6.789  0.0144 -0.5742 -0.0708
  623MOL0     N85888   2.674   9.410   6.907 -0.0185 -0.3592 -0.0676
  623MOL0     C85889   2.202   9.560   7.425 -0.4020 -1.0496  0.5915
  623MOL0     C85890   2.079   9.593   7.367  0.6602 -0.1063 -0.0020
  623MOL0     C85891   1.656   9.686   7.264 -0.1643 -0.7834 -0.6301
  623MOL0     C85892   1.662   9.808   7.190 -0.6405  0.4355  0.1323
  623MOL0     C85893   1.589   9.827   7.076 -0.0588  0.3006 -0.0056
  623MOL0     C85894   1.492   9.727   7.034 -0.7968 -0.7549  0.0790
  623MOL0     O85895   1.413   9.755   6.929  0.1599  0.0202 -0.9307
  623MOL0     C85896   1.283   9.692   6.902 -0.9291  0.1348  0.7292
  623MOL0     C85897   1.185   9.714   7.014  0.0977  0.2420  0.2257
  623MOL0     C85898   1.050   9.660   6.965 -0.7421 -0.0412 -0.2815
  623MOL0     C85899   0.946   9.692   7.061  0.2367 -0.2786  0.1443
  623MOL0     C85900   0.819   9.694   6.991  0.4160  0.1976 -0.3082
  623MOL0     C85901   0.710   9.684   6.939 -0.1696  0.2102  0.1448
  623MOL0     C85902   1.476   9.617   7.110  0.1195  0.5742 -0.3968
  623MOL0     C85903   1.552   9.599   7.229  0.4622  1.1841  0.7466
  623MOL0     C85904   1.515   9.473   7.303  0.0572  0.4348 -0.7132
  623MOL0     H85905   1.965   9.828   7.579 -0.8055 -0.4888 -0.7962
  623MOL0     H85906   2.206   9.786   7.678  0.4040  1.2891 -1.2640
  623MOL0     H85907   2.269   9.537   7.752 -1.4449  0.3689 -1.9718
  623MOL0     H85908   2.437   9.550   7.762 -1.1077  1.2262  0.1894
  623MOL0     H85909   2.321   9.300   7.720  0.0003 -1.3191 -0.9095
  623MOL0     H85910   2.311   9.343   7.552 -2.5304 -1.2756  1.1570
  623MOL0     H85911   2.586   9.390   7.634  1.8800 -1.0717 -0.3748
  623MOL0     H85912   2.506   9.255   7.737 -1.9468  2.6614  2.4121
  623MOL0     H85913   2.629   9.144   7.551 -0.9252 -0.6780  1.2293
  623MOL0     H85914   2.459   9.112   7.545  0.9218 -1.3712  0.1057
  623MOL0     H85915   2.575   9.325   7.373 -1.7827  3.1131  3.4163
  623MOL0     H85916   2.409   9.266   7.371 -0.5622 -0.6495 -2.0745
  623MOL0     H85917   2.612   9.052   7.354 -1.6053 -0.4710  1.7985
  623MOL0     H85918   2.461   9.068   7.269 -0.1348 -1.2632  0.6890
  623MOL0     H85919   2.647   9.091   7.119  4.2764  1.6105 -1.0627
  623MOL0     H85920   2.724   9.220   7.208 -0.2125 -1.0537  0.7969
  623MOL0     H85921   2.452   9.249   7.078  0.4830 -1.7485  0.4793
  623MOL0     H85922   2.565   9.380   7.125 -3.4679 -0.8515  1.2076
  623MOL0     H85923   2.574   9.109   6.825 -0.1568  0.7754 -0.5218
  623MOL0     H85924   2.669   9.108   6.601 -1.1833  0.0222  1.9338
  623MOL0     H85925   2.802   9.210   6.557  0.4838 -0.1669 -1.0726
  623MOL0     H85926   2.510   9.242   6.490 -0.0317  0.4003  1.2457
  623MOL0     H85927   2.592   9.389   6.526 -3.3496 -0.5280 -1.4334
  623MOL0     H85928   2.588   9.312   6.295 -1.2572 -1.8535  1.5552
  623MOL0     H85929   2.735   9.367   6.352  1.6945 -0.0737  2.2453
  623MOL0     H85930   2.749   9.158   6.213  0.1834 -1.6580  0.1382
  623MOL0     H85931   2.807   9.124   6.374 -0.4370 -0.3852  1.3567
  623MOL0     H85932   2.735   8.962   6.112 -1.8859  1.4941  1.6409
  623MOL0     H85933   2.808   8.653   5.981 -1.6425  1.7712 -1.3529
  623MOL0     H85934   2.979   8.707   6.037 -0.5915 -0.9857 -2.1619
  623MOL0     H85935   2.872   8.813   5.954 -1.1676  1.8048  2.5014
  623MOL0     H85936   2.697   8.365   6.338 -1.3064 -0.3794  0.8428
  623MOL0     H85937   2.597   8.211   6.508 -0.0365  1.1092  0.2308
  623MOL0     H85938   2.709   7.985   6.854  1.8328 -3.1037 -0.6819
  623MOL0     H85939   2.863   7.997   6.770  2.1006  1.6874  1.4311
  623MOL0     H85940   2.858   8.091   6.998  0.2816 -2.2702 -1.5685
  623MOL0     H85941   2.904   8.207   6.867 -1.1318  0.3788 -2.1428
  623MOL0     H85942   2.613   8.184   6.970 -1.9160  0.7793 -1.6225
  623MOL0     H85943   2.675   8.319   6.890 -0.9512 -0.5978  0.9120
  623MOL0     H85944   2.823   8.364   7.103  0.7346 -2.8375  2.3433
  623MOL0     H85945   2.763   8.221   7.177 -0.6682  0.1151  1.3840
  623MOL0     H85946   2.600   8.452   7.066  0.7360  1.0220  1.4031
  623MOL0     H85947   2.519   8.326   7.165 -0.0512 -1.0085  0.6314
  623MOL0     H85948   2.735   8.514   7.267 -0.8517  0.9525  1.0560
  623MOL0     H85949   2.626   8.420   7.370  2.4513  2.3968  1.3732
  623MOL0     H85950   2.434   8.527   7.274  0.6074 -0.6609 -1.1882
  623MOL0     H85951   2.533   8.653   7.205  2.3239  0.9415  1.5472
  623MOL0     H85952   2.438   8.728   7.420 -0.0306  1.0145  0.2046
  623MOL0     H85953   2.610   8.733   7.410 -1.1832  0.1458  3.8686
  623MOL0     H85954   2.988   8.143   6.662  2.5361  0.9867 -1.9744
  623MOL0     H85955   3.077   8.333   6.520 -0.9054  1.1357 -1.5410
  623MOL0     H85956   2.753   8.623   6.462  2.6787 -1.0031 -0.9786
  623MOL0     H85957   2.643   8.840   6.497 -0.0595  3.0122 -0.5853
  623MOL0     H85958   2.279   9.503   7.373  0.9061  0.6158  0.6376
  623MOL0     H85959   2.045   9.546   7.276 -0.9698  0.6278  0.1974
  623MOL0     H85960   1.731   9.886   7.220 -2.8769  3.0863 -1.2756
  623MOL0     H85961   1.595   9.922   7.024  0.9175  0.0301 -0.4046
  623MOL0     H85962   1.252   9.741   6.809 -0.4593  1.0761  1.0615
  623MOL0     H85963   1.283   9.583   6.899  1.2166  0.0770  1.0689
  623MOL0     H85964   1.178   9.819   7.044 -1.8511  0.2638 -0.1549
  623MOL0     H85965   1.215   9.654   7.101  1.2215  0.1627 -0.2008
  623MOL0     H85966   1.034   9.704   6.866 -1.1278 -0.3243 -0.3437
  623MOL0     H85967   1.061   9.551   6.959  1.8411  0.0070  1.6300
  623MOL0     H85968   0.962   9.790   7.107  1.1310 -0.4855  0.2929
  623MOL0     H85969   0.935   9.625   7.147 -1.1360  3.4352  3.1611
  623MOL0     H85970   0.609   9.672   6.904  0.7622 -2.6650 -1.9651
  623MOL0     H85971   1.397   9.547   7.084  0.4388 -0.0458  0.2694
  623MOL0     H85972   1.599   9.418   7.345 -1.6663  0.6484  3.5921
  623MOL0     H85973   1.444   9.498   7.383 -1.6406 -1.7107 -1.4473
  623MOL0     H85974   1.464   9.395   7.245  0.1825 -0.6771  0.6074
  624MOL0     O85975   0.040   3.755   9.680 -1.0110  0.6293 -0.5850
  624MOL0     C85976  -0.027   3.802   9.767  0.9416  0.0257  0.2003
  624MOL0     O85977  -0.059   3.934   9.787  0.8912  0.0414  0.4909
  624MOL0     C85978   0.013   4.025   9.712 -0.6241 -0.8277 -0.1270
  624MOL0     C85979   0.150   4.024   9.674 -0.2704  0.6333  0.3594
  624MOL0     C85980   0.206   4.123   9.588  0.2761 -0.9477  0.6079
  624MOL0     C85981   0.126   4.232   9.556  0.0327  0.1853  0.2791
  624MOL0     O85982   0.190   4.322   9.482  0.2948  0.0486 -0.0371
  624MOL0     C85983   0.129   4.450   9.432 -0.5586 -0.3104 -0.3402
  624MOL0     C85984   0.125   4.577   9.533  0.4663  0.4890 -0.4492
  624MOL0     C85985   0.266   4.604   9.591 -0.1873 -0.7237 -0.1369
  624MOL0     C85986   0.365   4.674   9.503  0.1372  0.2795  0.6131
  624MOL0     C85987   0.503   4.632   9.558  0.0128 -0.0134  0.5929
  624MOL0     C85988   0.605   4.688   9.462 -0.6029  0.0968  0.9570
  624MOL0     C85989   0.748   4.664   9.529  0.1599 -0.0626  0.3836
  624MOL0     C85990   0.859   4.738   9.462  0.2405  0.5329  0.5515
  624MOL0     N85991   0.869   4.710   9.312  0.1497  0.3762  1.3518
  624MOL0     C85992   0.852   4.810   9.225  0.7940 -0.0905 -0.3703
  624MOL0     C85993   0.891   4.769   9.098  0.7755  0.5599  0.2207
  624MOL0     C85994   0.913   4.853   8.965  0.5295  0.0958 -0.8164
  624MOL0     C85995   0.840   4.985   8.939 -0.3198 -0.0646  0.0906
  624MOL0     C85996   0.878   5.108   9.031 -0.0986  0.1640 -0.7662
  624MOL0     C85997   1.023   5.154   8.991  0.8651  0.5287 -1.0225
  624MOL0     O85998   1.059   5.273   9.064 -0.1231  0.5936 -0.0509
  624MOL0     C85999   1.191   5.306   9.060 -0.9583 -0.0390 -0.7402
  624MOL0     C86000   1.283   5.264   8.967  0.6050  0.6175  0.7625
  624MOL0     C86001   1.418   5.312   8.978  0.6612 -0.4841  0.2401
  624MOL0     C86002   1.513   5.307   8.860  0.0275  0.0459  0.3743
  624MOL0     C86003   1.457   5.399   9.083  0.2499  0.0453  0.0025
  624MOL0     C86004   1.599   5.445   9.103 -0.2705  0.3351 -0.5017
  624MOL0     O86005   1.613   5.561   9.185 -0.9877 -0.0713  0.0924
  624MOL0     C86006   1.734   5.605   9.225  0.6078 -0.5459  0.4930
  624MOL0     C86007   1.761   5.738   9.205 -0.3570  0.3512 -0.1058
  624MOL0     C86008   1.878   5.786   9.264  0.9645 -0.3967 -0.1273
  624MOL0     C86009   1.962   5.710   9.347 -0.1190 -0.5321 -0.8196
  624MOL0     O86010   2.059   5.776   9.416 -0.5880 -0.3505 -0.1112
  624MOL0     C86011   2.178   5.700   9.448 -0.1536 -0.0372 -0.0193
  624MOL0     C86012   2.238   5.766   9.575 -0.7296  0.1027 -0.8070
  624MOL0     C86013   2.324   5.887   9.544  0.0493  0.0375 -0.2325
  624MOL0     C86014   2.375   5.955   9.665  0.1545 -0.0897 -0.6995
  624MOL0     C86015   2.517   6.007   9.628  0.6294  0.2827 -1.3251
  624MOL0     C86016   2.608   6.035   9.751  0.0194 -0.3570  0.4122
  624MOL0     C86017   2.754   6.040   9.702  0.4747  0.0840  0.0249
  624MOL0     C86018   2.842   6.043   9.827  0.3204  0.6654  0.2302
  624MOL0    Cl86019   2.831   6.188   9.923 -0.0100  0.3531 -0.5658
  624MOL0     C86020   1.926   5.571   9.365 -0.5360 -0.1129  0.4622
  624MOL0     C86021   1.819   5.521   9.298  0.2168  0.3016  0.4438
  624MOL0     O86022   1.691   5.370   9.074 -0.1053  0.1007  0.1728
  624MOL0     C86023   1.357   5.436   9.172 -0.6242  0.2021 -0.7057
  624MOL0     C86024   1.226   5.398   9.159 -0.1994  0.4856  0.6822
  624MOL0     N86025   0.912   4.627   9.119  0.3701 -0.0858  0.4224
  624MOL0     N86026   0.904   4.595   9.243  1.0031 -1.6042  0.1558
  624MOL0     C86027  -0.003   4.241   9.610  0.1994 -1.1215  0.0253
  624MOL0     C86028  -0.062   4.136   9.685  0.4094  0.2014  1.2731
  624MOL0     C86029  -0.094   3.715   9.867 -0.6111 -1.3408  0.2544
  624MOL0     C86030  -0.180   3.772   9.966  1.3505  0.1764  0.0003
  624MOL0     C86031  -0.252   3.695  10.057 -0.5747 -0.1227  0.4242
  624MOL0     C86032  -0.236   3.557  10.056  0.3036 -0.0313 -0.2762
  624MOL0     O86033  -0.321   3.488  10.140 -0.1004 -0.5708  0.1335
  624MOL0     C86034  -0.422   3.412  10.077  0.0976 -0.6783 -0.9384
  624MOL0     C86035  -0.493   3.334  10.195 -0.1108  0.0777 -0.0208
  624MOL0     C86036  -0.550   3.422  10.304 -0.8679  0.7034  0.8444
  624MOL0     C86037  -0.652   3.344  10.390 -0.5422 -0.4299  0.8300
  624MOL0     C86038  -0.599   3.242  10.476 -0.6482  0.9420  0.2511
  624MOL0     C86039  -0.553   3.150  10.536  0.1756 -0.7679 -0.0189
  624MOL0     C86040  -0.161   3.504   9.956  0.0847 -0.1972  0.7391
  624MOL0     C86041  -0.088   3.581   9.859 -0.2991 -0.0959  1.0182
  624MOL0     C86042   0.003   3.489   9.771 -0.2299 -0.2967  0.0846
  624MOL0     H86043   0.211   3.937   9.694  1.2355  1.1119 -1.7711
  624MOL0     H86044   0.301   4.109   9.537  0.5179  1.1806  0.4026
  624MOL0     H86045   0.027   4.430   9.399 -0.9505 -0.2829  0.8105
  624MOL0     H86046   0.185   4.467   9.339  0.3640 -1.1984  0.0323
  624MOL0     H86047   0.084   4.667   9.486  2.4399  2.1021  0.7342
  624MOL0     H86048   0.047   4.555   9.606 -1.1891 -0.6864 -2.4428
  624MOL0     H86049   0.258   4.681   9.668  0.1843  2.4789 -3.0080
  624MOL0     H86050   0.310   4.510   9.623  0.8369 -1.2603 -2.8318
  624MOL0     H86051   0.349   4.638   9.401 -0.8556 -2.9069  1.7798
  624MOL0     H86052   0.362   4.783   9.491  0.8587 -0.0197 -4.5133
  624MOL0     H86053   0.517   4.524   9.553 -0.3191 -0.0510 -3.9309
  624MOL0     H86054   0.525   4.680   9.654 -0.2225  1.9321 -0.2626
  624MOL0     H86055   0.601   4.641   9.364  3.4421 -1.0044  1.1363
  624MOL0     H86056   0.582   4.795   9.456 -0.1250  0.2025  0.9459
  624MOL0     H86057   0.763   4.556   9.536 -0.7868 -0.2161  0.2422
  624MOL0     H86058   0.736   4.707   9.629 -1.9273  0.4192 -0.0229
  624MOL0     H86059   0.853   4.844   9.490  0.4466  0.1190  2.2588
  624MOL0     H86060   0.958   4.715   9.502  0.4085 -2.2973 -1.2381
  624MOL0     H86061   0.820   4.912   9.241  3.1068  0.7307 -0.5143
  624MOL0     H86062   0.902   4.781   8.884  1.0117 -0.6451 -0.2345
  624MOL0     H86063   1.018   4.882   8.955 -0.2094  3.3621 -0.1946
  624MOL0     H86064   0.851   5.036   8.843  1.4418  1.0786  0.8526
  624MOL0     H86065   0.733   4.979   8.962  0.0860  2.0590  3.2864
  624MOL0     H86066   0.806   5.189   9.016 -0.8282 -0.5248 -1.0457
  624MOL0     H86067   0.868   5.099   9.140  3.5530 -0.2450 -0.3505
  624MOL0     H86068   1.095   5.076   9.015  0.5027  0.1610 -1.1189
  624MOL0     H86069   1.033   5.175   8.884 -1.3131  0.4983 -1.2731
  624MOL0     H86070   1.251   5.198   8.887 -1.2820  0.4211  1.6307
  624MOL0     H86071   1.611   5.267   8.885  0.0510  1.1375  2.1617
  624MOL0     H86072   1.529   5.408   8.821  0.0004 -0.4341 -0.9303
  624MOL0     H86073   1.480   5.241   8.779  0.0276 -0.3364  0.6823
  624MOL0     H86074   1.683   5.793   9.154 -1.2821 -0.9521 -0.1534
  624MOL0     H86075   1.908   5.889   9.247 -1.6468  0.5709  0.6930
  624MOL0     H86076   2.179   5.592   9.459  3.0746  0.0233  1.4048
  624MOL0     H86077   2.250   5.721   9.368 -2.6007 -2.8610 -3.2794
  624MOL0     H86078   2.157   5.803   9.638  0.5428 -0.5270  1.2888
  624MOL0     H86079   2.301   5.695   9.630 -2.0733 -0.6547 -0.2013
  624MOL0     H86080   2.250   5.949   9.492 -2.0913 -3.5159 -1.8026
  624MOL0     H86081   2.396   5.865   9.464 -1.5047 -1.9961 -1.1658
  624MOL0     H86082   2.392   5.889   9.751  1.9181  1.8163  0.5080
  624MOL0     H86083   2.313   6.033   9.709  0.4451  0.0622 -0.5572
  624MOL0     H86084   2.568   5.932   9.567  2.0361  0.4830 -0.4525
  624MOL0     H86085   2.492   6.094   9.567 -2.7234 -0.7834 -1.6340
  624MOL0     H86086   2.595   5.954   9.823 -4.2616  1.3023  1.8282
  624MOL0     H86087   2.588   6.130   9.801  1.7128  0.3807 -0.2400
  624MOL0     H86088   2.770   6.133   9.646 -2.2010  0.7312  0.2070
  624MOL0     H86089   2.780   5.954   9.639 -0.2902  2.0360 -3.2089
  624MOL0     H86090   2.946   6.034   9.796 -0.0978 -2.5892 -0.6310
  624MOL0     H86091   2.825   5.954   9.889  1.3537  1.7897  2.2113
  624MOL0     H86092   1.980   5.498   9.423  1.6984 -0.9090 -2.3971
  624MOL0     H86093   1.789   5.421   9.329  0.9833  1.1927  4.6976
  624MOL0     H86094   1.379   5.504   9.254  2.2499 -0.6853 -0.6273
  624MOL0     H86095   1.152   5.434   9.230  0.9779 -1.0371  2.7758
  624MOL0     H86096  -0.054   4.336   9.598 -0.4877 -1.3689  0.8683
  624MOL0     H86097  -0.160   4.137   9.732 -0.7896  0.3948 -1.1036
  624MOL0     H86098  -0.206   3.876   9.981 -1.9730 -0.7341  1.4960
  624MOL0     H86099  -0.321   3.750  10.121 -2.0898  2.8122 -3.3849
  624MOL0     H86100  -0.490   3.484  10.030 -3.5720 -1.2491  2.9559
  624MOL0     H86101  -0.377   3.344  10.003  2.2743 -0.6622  0.2720
  624MOL0     H86102  -0.424   3.259  10.234 -0.7861 -1.2418 -1.2729
  624MOL0     H86103  -0.572   3.284  10.138  1.1953  0.7389 -2.5893
  624MOL0     H86104  -0.478   3.462  10.375  0.2763 -1.8797  1.2682
  624MOL0     H86105  -0.607   3.500  10.253  1.4485  1.0596 -1.3988
  624MOL0     H86106  -0.725   3.286  10.333 -0.0249  1.8376 -2.3699
  624MOL0     H86107  -0.708   3.422  10.443 -0.1759  0.8293 -0.5789
  624MOL0     H86108  -0.527   3.072  10.605  1.4282  0.5980  1.1412
  624MOL0     H86109  -0.149   3.396   9.954  1.5855 -0.0572  1.1676
  624MOL0     H86110   0.109   3.496   9.800  0.3044 -3.9621 -0.4780
  624MOL0     H86111  -0.004   3.380   9.781  3.5244 -0.9218 -2.0867
  624MOL0     H86112  -0.025   3.510   9.667 -0.2913  0.1961  0.1967
  625MOL0     O86113   1.304   6.154  10.969 -0.6046  0.2594  0.1710
  625MOL0     C86114   1.285   6.247  11.038  0.3133  0.4914  0.0105
  625MOL0     O86115   1.362   6.355  11.050  0.6157  0.3087  0.2411
  625MOL0     C86116   1.479   6.356  10.970  0.2062 -0.3943  0.2112
  625MOL0     C86117   1.608   6.322  11.023 -0.3672 -0.4775 -0.0656
  625MOL0     C86118   1.726   6.338  10.947 -0.3666  0.5047  0.7503
  625MOL0     C86119   1.726   6.382  10.813 -0.3620  0.8283 -0.5398
  625MOL0     O86120   1.843   6.385  10.747  0.5475  0.2725  0.6282
  625MOL0     C86121   1.850   6.502  10.655 -0.4015  0.4353  0.8357
  625MOL0     C86122   1.989   6.521  10.599 -0.4921 -0.4849  0.0367
  625MOL0     C86123   2.081   6.564  10.715 -0.7983  0.1826 -0.0024
  625MOL0     C86124   2.231   6.558  10.678 -1.1073 -0.1287 -0.3867
  625MOL0     C86125   2.325   6.648  10.772  0.0243 -0.4688  1.0517
  625MOL0     C86126   2.308   6.797  10.747  0.0441 -0.1550 -0.1864
  625MOL0     C86127   2.319   6.849  10.601 -0.2536 -1.3133 -0.0932
  625MOL0     C86128   2.248   6.987  10.589 -0.1499  0.0620  0.1357
  625MOL0     N86129   2.112   6.961  10.569  0.7947  0.3118 -0.5869
  625MOL0     C86130   2.066   6.944  10.440 -0.7973  0.4396 -0.1498
  625MOL0     C86131   1.935   6.919  10.456 -0.1811  0.4761  0.0033
  625MOL0     C86132   1.813   6.905  10.366 -0.2921  0.0862 -0.7777
  625MOL0     C86133   1.809   6.786  10.279  0.4258 -0.2343 -0.7951
  625MOL0     C86134   1.691   6.775  10.178 -0.6690  0.0726  0.2156
  625MOL0     C86135   1.676   6.632  10.108  0.8895  0.0978 -0.1611
  625MOL0     O86136   1.577   6.629  10.004  0.0474 -0.7164  0.0917
  625MOL0     C86137   1.443   6.633  10.035  0.4733  0.2404 -0.7619
  625MOL0     C86138   1.351   6.672   9.941  0.4025 -0.0527  0.3144
  625MOL0     C86139   1.211   6.666   9.965  0.6483 -0.5352  1.0224
  625MOL0     C86140   1.128   6.740   9.867 -0.4020  0.0080 -0.2933
  625MOL0     C86141   1.165   6.619  10.092  1.6291 -0.1288 -0.7048
  625MOL0     C86142   1.014   6.624  10.128 -0.2005  0.0488  0.3617
  625MOL0     O86143   0.914   6.653  10.028 -0.5095 -0.9176 -0.0746
  625MOL0     C86144   0.784   6.640  10.052  0.5363 -0.0353  0.8984
  625MOL0     C86145   0.702   6.584   9.950  0.8457  0.0854  0.6166
  625MOL0     C86146   0.570   6.545   9.963  0.4011  0.8591 -0.3187
  625MOL0     C86147   0.519   6.565  10.097  0.6594  0.0564  0.3197
  625MOL0     O86148   0.392   6.511  10.119 -0.5026  0.0479  0.2183
  625MOL0     C86149   0.326   6.505  10.243  0.4602  0.0891 -0.1400
  625MOL0     C86150   0.366   6.384  10.333  0.8918  0.0056 -0.1296
  625MOL0     C86151   0.405   6.253  10.265 -0.3676  0.1399  0.5986
  625MOL0     C86152   0.508   6.170  10.351 -0.8303 -0.6785 -0.3092
  625MOL0     C86153   0.432   6.070  10.436 -0.2238 -0.1370 -0.5397
  625MOL0     C86154   0.521   5.966  10.505  0.8922 -1.2563 -0.1097
  625MOL0     C86155   0.619   6.029  10.607 -0.5577 -0.4264 -0.3721
  625MOL0     C86156   0.750   5.948  10.605  0.2310  1.2590 -0.2022
  625MOL0    Cl86157   0.704   5.774  10.660  0.4578  0.6177 -0.0271
  625MOL0     C86158   0.588   6.647  10.193  0.3571  0.0708  0.6867
  625MOL0     C86159   0.719   6.682  10.167 -0.0080 -0.5373 -0.1823
  625MOL0     O86160   0.985   6.596  10.246  0.3191 -0.8803 -0.1889
  625MOL0     C86161   1.262   6.573  10.187  0.9009  0.8037 -0.3007
  625MOL0     C86162   1.396   6.575  10.158  0.2347 -0.8924  0.5677
  625MOL0     N86163   1.916   6.910  10.589  0.6991  0.7825 -0.3720
  625MOL0     N86164   2.018   6.939  10.663  0.0009 -0.5183  0.5603
  625MOL0     C86165   1.591   6.410  10.764 -1.1021 -1.1789  0.3382
  625MOL0     C86166   1.474   6.395  10.836 -0.3491 -0.5091 -1.0439
  625MOL0     C86167   1.163   6.249  11.117  0.2712  0.5202  0.6577
  625MOL0     C86168   1.159   6.316  11.242  0.3337  0.5022 -0.5471
  625MOL0     C86169   1.057   6.273  11.337 -0.5005 -0.6583  0.7536
  625MOL0     C86170   0.946   6.198  11.300 -0.5964  0.0826 -0.0132
  625MOL0     O86171   0.867   6.158  11.401 -0.1290  0.3298  0.1612
  625MOL0     C86172   0.735   6.120  11.360  0.5072 -0.4543 -0.6011
  625MOL0     C86173   0.657   6.093  11.487  0.0368 -0.5522  0.3735
  625MOL0     C86174   0.511   6.067  11.445 -0.2032  0.1388 -0.7106
  625MOL0     C86175   0.501   5.929  11.401 -0.3163  1.1830 -0.2997
  625MOL0     C86176   0.364   5.891  11.375 -0.5871 -0.0414 -0.2003
  625MOL0     C86177   0.256   5.857  11.349 -1.0260  0.5387  0.3260
  625MOL0     C86178   0.938   6.161  11.166  0.1887 -0.0761  0.7738
  625MOL0     C86179   1.047   6.179  11.071  0.0676  0.7644 -0.5549
  625MOL0     C86180   1.020   6.148  10.930 -0.3203 -0.0716  0.7832
  625MOL0     H86181   1.614   6.286  11.126  1.3971 -0.5709 -0.1737
  625MOL0     H86182   1.815   6.299  10.995 -0.7771 -1.3925  0.0375
  625MOL0     H86183   1.848   6.600  10.702  0.3770  2.6486 -3.3017
  625MOL0     H86184   1.771   6.502  10.579  0.3564 -0.1305  0.0266
  625MOL0     H86185   2.013   6.428  10.547  0.1659  0.5293 -1.5448
  625MOL0     H86186   1.987   6.605  10.528 -0.3464 -1.3927 -1.0693
  625MOL0     H86187   2.069   6.658  10.769  2.0032  0.3094  0.5560
  625MOL0     H86188   2.068   6.486  10.791 -0.8748 -0.8095 -1.0098
  625MOL0     H86189   2.267   6.455  10.685 -0.0830  0.3157  1.3457
  625MOL0     H86190   2.235   6.575  10.570 -2.3127 -0.9671 -0.5841
  625MOL0     H86191   2.432   6.634  10.757  0.3707  2.4332  0.0158
  625MOL0     H86192   2.299   6.626  10.876 -0.8322  2.8102  1.6484
  625MOL0     H86193   2.213   6.823  10.796  0.4722 -0.9528  1.0970
  625MOL0     H86194   2.387   6.844  10.806  0.5632  0.8990 -1.6575
  625MOL0     H86195   2.287   6.786  10.517  0.6971  0.3578 -1.7670
  625MOL0     H86196   2.427   6.858  10.587 -0.6240  2.6092 -1.5993
  625MOL0     H86197   2.259   7.046  10.680  4.3030 -1.3844  0.7828
  625MOL0     H86198   2.282   7.055  10.510 -0.7889  0.0191 -0.1866
  625MOL0     H86199   2.129   6.941  10.352 -1.2449 -0.2173 -0.4535
  625MOL0     H86200   1.799   6.996  10.307  1.2327  1.3409  0.6770
  625MOL0     H86201   1.727   6.897  10.434 -1.5033 -1.4405 -2.4061
  625MOL0     H86202   1.901   6.796  10.221  0.8845  0.9109  0.0798
  625MOL0     H86203   1.796   6.697  10.342  1.1598  0.1812 -0.0492
  625MOL0     H86204   1.598   6.803  10.229 -0.5314 -2.3343  1.9259
  625MOL0     H86205   1.709   6.860  10.111 -0.6705  0.1323  0.2900
  625MOL0     H86206   1.767   6.617  10.049  1.1428 -0.1598  0.2883
  625MOL0     H86207   1.670   6.549  10.180  1.6712 -0.4274 -0.6887
  625MOL0     H86208   1.383   6.720   9.849 -0.7616  1.0585  0.4512
  625MOL0     H86209   1.059   6.814   9.908 -0.4780  0.1050 -0.5900
  625MOL0     H86210   1.059   6.672   9.816  0.4163 -0.7743 -0.3739
  625MOL0     H86211   1.192   6.805   9.806  1.6197 -1.0901  0.5580
  625MOL0     H86212   0.748   6.562   9.854 -0.1538 -1.7865  0.5275
  625MOL0     H86213   0.506   6.484   9.900  2.6856 -1.5286 -0.4605
  625MOL0     H86214   0.326   6.599  10.299 -4.1295  1.6265 -2.1664
  625MOL0     H86215   0.221   6.484  10.219  0.7277 -1.4627 -0.0263
  625MOL0     H86216   0.449   6.395  10.404 -0.1266 -0.6185  1.1855
  625MOL0     H86217   0.274   6.365  10.388  2.0183 -0.8111  1.5559
  625MOL0     H86218   0.448   6.273  10.166 -0.0753 -0.7596  0.5375
  625MOL0     H86219   0.318   6.191  10.244 -1.5938  2.2086 -0.9260
  625MOL0     H86220   0.570   6.236  10.412 -2.2297 -0.4730  0.9447
  625MOL0     H86221   0.573   6.111  10.285 -2.0158 -0.4689 -1.7157
  625MOL0     H86222   0.370   6.125  10.507  0.3353  0.4935 -0.5293
  625MOL0     H86223   0.351   6.018  10.385 -0.9459  1.9114 -1.5875
  625MOL0     H86224   0.583   5.915  10.430  0.6975  0.3926 -1.4245
  625MOL0     H86225   0.462   5.886  10.551  0.8334 -1.0477  0.1803
  625MOL0     H86226   0.566   6.017  10.702  0.9339 -2.4995  0.3042
  625MOL0     H86227   0.648   6.130  10.580  3.8393 -1.1686  0.6593
  625MOL0     H86228   0.817   5.990  10.682 -0.6927 -0.2442  1.4978
  625MOL0     H86229   0.790   5.942  10.504  1.0551 -0.5054  0.1916
  625MOL0     H86230   0.537   6.673  10.286 -0.6259  0.6217  0.0230
  625MOL0     H86231   0.778   6.735  10.241 -1.2915  1.8648 -0.7669
  625MOL0     H86232   1.231   6.537  10.285 -2.3933  2.8458 -0.4399
  625MOL0     H86233   1.467   6.516  10.215  0.6308 -1.2995 -0.3272
  625MOL0     H86234   1.591   6.445  10.661 -0.6150 -0.1347  0.6825
  625MOL0     H86235   1.377   6.410  10.789 -0.7752 -3.1512 -1.1409
  625MOL0     H86236   1.248   6.371  11.268 -1.0579  2.5847  0.0904
  625MOL0     H86237   1.063   6.297  11.442  0.3528 -1.0547  0.8034
  625MOL0     H86238   0.697   6.207  11.305  1.7578  0.3838 -0.2031
  625MOL0     H86239   0.733   6.027  11.303  0.4768 -0.5633 -0.4247
  625MOL0     H86240   0.666   6.179  11.555  4.0320 -0.2807 -0.2578
  625MOL0     H86241   0.706   6.012  11.542  0.1327  0.2958  1.5912
  625MOL0     H86242   0.440   6.089  11.526  0.2830 -1.4387  0.1893
  625MOL0     H86243   0.487   6.136  11.363 -0.9101 -0.1025 -0.7173
  625MOL0     H86244   0.539   5.859  11.476 -1.1165  0.8063 -0.2306
  625MOL0     H86245   0.555   5.915  11.307  2.9629 -1.4483  1.7670
  625MOL0     H86246   0.155   5.827  11.329 -0.8941  0.3504 -0.0548
  625MOL0     H86247   0.857   6.102  11.124  0.2167  0.8870 -0.7261
  625MOL0     H86248   1.079   6.059  10.908 -2.0398 -1.7648  2.6102
  625MOL0     H86249   0.914   6.130  10.913  0.1946 -0.5314 -2.4247
  625MOL0     H86250   1.040   6.232  10.862 -0.4004 -0.4232  0.3233
  626MOL0     O86251   0.752   4.403   0.587  0.0998 -0.3750  0.8237
  626MOL0     C86252   0.730   4.454   0.477  0.1749 -0.7064 -0.6542
  626MOL0     O86253   0.823   4.498   0.384  0.4242  0.2916 -0.7458
  626MOL0     C86254   0.952   4.524   0.422  0.4526 -0.3379  0.4266
  626MOL0     C86255   1.034   4.563   0.311  0.1478  0.1236  0.6646
  626MOL0     C86256   1.173   4.587   0.325 -0.4674 -1.0406 -0.0687
  626MOL0     C86257   1.236   4.569   0.452  0.1809  0.7278  0.9049
  626MOL0     O86258   1.370   4.586   0.476 -0.3978 -0.3569 -1.1767
  626MOL0     C86259   1.450   4.632   0.374 -0.1420  0.1392  0.0043
  626MOL0     C86260   1.505   4.513   0.294 -0.6749  0.7535  0.6468
  626MOL0     C86261   1.648   4.545   0.244  0.0953  0.9858 -0.6052
  626MOL0     C86262   1.695   4.456   0.126  0.5013  0.7648 -0.4242
  626MOL0     C86263   1.820   4.523   0.063 -0.3304  0.7309 -0.1517
  626MOL0     C86264   1.873   4.435  -0.052  0.9519 -0.1196 -0.0904
  626MOL0     C86265   1.942   4.304  -0.005 -0.0742  0.2620 -0.2197
  626MOL0     C86266   2.081   4.327   0.049 -0.7490  0.1362 -0.8150
  626MOL0     N86267   2.151   4.204   0.092 -1.1300 -0.1530  0.2615
  626MOL0     C86268   2.281   4.173   0.051 -0.6974  0.1355 -0.0115
  626MOL0     C86269   2.292   4.048   0.097 -0.4805 -0.0003 -0.6069
  626MOL0     C86270   2.403   3.959   0.083 -0.7522 -0.3032  0.1938
  626MOL0     C86271   2.539   4.018   0.098  0.5289 -0.0986  0.2142
  626MOL0     C86272   2.639   3.906   0.093 -0.6636  0.5061 -0.1371
  626MOL0     C86273   2.773   3.974   0.074  0.7422  0.3982 -0.5713
  626MOL0     O86274   2.878   3.893   0.138  0.5451 -0.5161 -0.8163
  626MOL0     C86275   3.008   3.917   0.115  0.2285 -0.4824 -0.3100
  626MOL0     C86276   3.072   4.033   0.072  1.1070 -0.1101  0.0732
  626MOL0     C86277   3.208   4.035   0.045  0.1276  0.8624  0.3127
  626MOL0     C86278   3.259   4.173   0.025 -0.4145  0.1191  0.5924
  626MOL0     C86279   3.292   3.922   0.051 -0.4347  0.1509  0.6011
  626MOL0     C86280   3.441   3.921   0.049  0.3219 -0.5073  0.2938
  626MOL0     O86281   3.502   3.815   0.116 -0.1160 -0.0043  0.2685
  626MOL0     C86282   3.642   3.791   0.104 -0.2125  0.6967 -0.2095
  626MOL0     C86283   3.671   3.652   0.106  0.0665 -1.1002  0.2307
  626MOL0     C86284   3.806   3.617   0.101 -0.0078  0.3177 -0.0637
  626MOL0     C86285   3.910   3.712   0.122  1.1863 -0.5726  0.1642
  626MOL0     O86286   4.040   3.666   0.111 -0.3457 -0.0101 -0.5953
  626MOL0     C86287   4.150   3.760   0.093 -0.5717  0.2109  0.9976
  626MOL0     C86288   4.276   3.677   0.117  0.3664  0.8694  1.1217
  626MOL0     C86289   4.399   3.765   0.096  0.8747  0.5283  0.2649
  626MOL0     C86290   4.517   3.675   0.071  0.7345  0.1467 -0.1560
  626MOL0     C86291   4.634   3.766   0.061 -0.7827 -0.0350 -0.1880
  626MOL0     C86292   4.773   3.701   0.020 -0.1692 -0.2158  0.1711
  626MOL0     C86293   4.830   3.618   0.132  0.4983  0.0109 -0.6373
  626MOL0     C86294   4.979   3.595   0.122  0.1951  0.2476 -0.0828
  626MOL0    Cl86295   5.077   3.745   0.117 -0.3133  0.0412  0.0597
  626MOL0     C86296   3.878   3.852   0.140  0.3450 -0.7445  0.0117
  626MOL0     C86297   3.741   3.882   0.138  0.5388 -0.5716  0.5035
  626MOL0     O86298   3.492   4.019  -0.001 -0.5976 -0.6991  0.0637
  626MOL0     C86299   3.233   3.801   0.088 -0.2726 -0.9142  0.5077
  626MOL0     C86300   3.089   3.800   0.117 -0.0714  0.1355 -0.2627
  626MOL0     N86301   2.178   4.007   0.164  0.6571  0.1035  0.0588
  626MOL0     N86302   2.090   4.104   0.153  0.3482  0.1672 -0.2574
  626MOL0     C86303   1.157   4.527   0.555 -0.3277 -0.6959 -0.3763
  626MOL0     C86304   1.019   4.497   0.544 -0.6036  0.3735  0.5114
  626MOL0     C86305   0.586   4.466   0.441  0.4631  0.3698  0.6541
  626MOL0     C86306   0.554   4.496   0.302  0.4039 -0.8034 -0.7092
  626MOL0     C86307   0.423   4.510   0.259  0.3412  0.6902  0.4823
  626MOL0     C86308   0.322   4.471   0.336  0.3308 -0.2683 -0.8169
  626MOL0     O86309   0.191   4.502   0.294  0.6560 -0.5529  0.0466
  626MOL0     C86310   0.164   4.639   0.306 -0.0549 -0.0709 -0.0106
  626MOL0     C86311   0.013   4.655   0.335 -0.1145 -0.8525 -0.3274
  626MOL0     C86312  -0.033   4.802   0.356 -0.1284  0.6210 -0.3266
  626MOL0     C86313  -0.170   4.805   0.418  0.0660 -0.4277 -0.5604
  626MOL0     C86314  -0.280   4.772   0.322 -0.3014 -0.2126  0.0989
  626MOL0     C86315  -0.362   4.734   0.244  0.6386 -0.3565 -0.1480
  626MOL0     C86316   0.344   4.419   0.463  0.3102 -0.6699  0.3480
  626MOL0     C86317   0.472   4.424   0.520  0.2120  0.1790 -0.2028
  626MOL0     C86318   0.483   4.382   0.662  0.2740  0.0016 -0.7142
  626MOL0     H86319   0.993   4.568   0.211 -1.0655 -4.4509  0.7032
  626MOL0     H86320   1.231   4.610   0.236 -0.3939  1.3750  0.5437
  626MOL0     H86321   1.532   4.683   0.426 -0.7460  0.6942  0.4189
  626MOL0     H86322   1.394   4.707   0.317  1.0250 -0.4498 -2.0484
  626MOL0     H86323   1.522   4.424   0.355 -1.5560 -0.5513 -0.9560
  626MOL0     H86324   1.433   4.491   0.215 -1.8920 -2.0016  2.3620
  626MOL0     H86325   1.641   4.643   0.196 -2.6413  1.2020  0.0441
  626MOL0     H86326   1.715   4.553   0.330 -2.6965 -2.6265  2.2535
  626MOL0     H86327   1.703   4.351   0.154  3.3228  0.9116 -0.3396
  626MOL0     H86328   1.614   4.460   0.053  0.5801 -0.6561 -0.6260
  626MOL0     H86329   1.900   4.539   0.136  0.1678  0.6234 -0.6631
  626MOL0     H86330   1.787   4.615   0.014  0.2982  0.0220 -1.9928
  626MOL0     H86331   1.798   4.410  -0.128  1.4450 -2.7584  0.1750
  626MOL0     H86332   1.941   4.500  -0.108 -0.0441  0.8331 -0.2128
  626MOL0     H86333   1.948   4.240  -0.093  0.1420  2.1763 -1.6576
  626MOL0     H86334   1.886   4.254   0.075  0.7556 -1.5014 -0.7010
  626MOL0     H86335   2.125   4.365  -0.044 -0.7489  0.3578 -0.7268
  626MOL0     H86336   2.078   4.396   0.133  0.6738  1.1581 -1.5414
  626MOL0     H86337   2.347   4.233  -0.011  0.6107 -2.1778 -0.9813
  626MOL0     H86338   2.406   3.914  -0.016  2.6286  0.6146 -0.2509
  626MOL0     H86339   2.383   3.886   0.163 -2.6415  2.1019  2.1133
  626MOL0     H86340   2.556   4.086   0.015 -0.5927  0.7762  0.6745
  626MOL0     H86341   2.539   4.070   0.195  2.2294  2.4644 -1.0455
  626MOL0     H86342   2.637   3.838   0.179 -1.4647  0.3199 -0.2994
  626MOL0     H86343   2.626   3.848   0.001 -0.5929 -0.4334  0.4318
  626MOL0     H86344   2.794   3.993  -0.031 -0.9824  1.2163 -0.7991
  626MOL0     H86345   2.770   4.067   0.131 -3.7966 -0.8713  1.7366
  626MOL0     H86346   3.016   4.125   0.063 -0.2771 -0.8958  0.3647
  626MOL0     H86347   3.344   4.197   0.090  0.0847 -1.1154  0.4256
  626MOL0     H86348   3.175   4.242   0.039 -0.7449  0.2985 -1.8577
  626MOL0     H86349   3.297   4.180  -0.077  2.9369 -1.2248  1.6073
  626MOL0     H86350   3.587   3.583   0.096 -3.0233  2.5307 -1.7589
  626MOL0     H86351   3.832   3.512   0.104 -1.0986  0.0473  0.1822
  626MOL0     H86352   4.157   3.801  -0.008  1.5740 -1.6311  0.3155
  626MOL0     H86353   4.146   3.850   0.155 -0.4363  0.2670  0.9252
  626MOL0     H86354   4.266   3.629   0.215 -0.0882 -0.0237  0.6444
  626MOL0     H86355   4.276   3.592   0.049 -0.9783 -0.6495  2.9082
  626MOL0     H86356   4.416   3.841   0.172 -0.6326  2.3137 -1.0696
  626MOL0     H86357   4.372   3.821   0.006 -4.0681 -0.2438  0.9827
  626MOL0     H86358   4.517   3.626  -0.027  1.6468  3.1928 -1.8150
  626MOL0     H86359   4.523   3.609   0.158  0.3672 -1.2155 -1.1292
  626MOL0     H86360   4.621   3.845  -0.015  1.3407  2.5122  1.9026
  626MOL0     H86361   4.652   3.807   0.160 -0.6298 -1.4669  0.3922
  626MOL0     H86362   4.845   3.783   0.013 -0.5094 -0.0383 -1.7690
  626MOL0     H86363   4.764   3.656  -0.079 -0.3403 -1.1062  0.5802
  626MOL0     H86364   4.788   3.517   0.128  0.4303 -0.0226  0.4751
  626MOL0     H86365   4.804   3.668   0.226  2.4705  0.6557 -0.3894
  626MOL0     H86366   4.982   3.550   0.022 -1.2979  0.5433 -0.2856
  626MOL0     H86367   5.023   3.519   0.186 -0.6169 -1.6581 -1.6611
  626MOL0     H86368   3.955   3.928   0.147 -1.8567  1.5516  1.3847
  626MOL0     H86369   3.714   3.983   0.166 -2.0660 -1.5967  2.0228
  626MOL0     H86370   3.294   3.711   0.092  2.9689  0.8831 -2.5157
  626MOL0     H86371   3.047   3.702   0.139  1.6978 -0.6246 -0.1360
  626MOL0     H86372   1.191   4.518   0.658 -1.7683  0.5686  0.2571
  626MOL0     H86373   0.973   4.465   0.638  1.2854 -1.1106  0.9924
  626MOL0     H86374   0.625   4.550   0.240 -1.6899  2.8525 -0.2374
  626MOL0     H86375   0.401   4.567   0.169  1.1157 -0.2298 -0.3154
  626MOL0     H86376   0.217   4.691   0.387 -2.3329 -2.7257  3.4924
  626MOL0     H86377   0.192   4.683   0.210  2.4466  1.1680  1.2039
  626MOL0     H86378  -0.016   4.593   0.419  1.6316 -0.3297  0.7077
  626MOL0     H86379  -0.044   4.614   0.250  0.9707  0.4567 -1.7491
  626MOL0     H86380   0.043   4.851   0.417  1.3255  0.1139 -1.6626
  626MOL0     H86381  -0.036   4.867   0.268 -2.1158  2.1757  0.8129
  626MOL0     H86382  -0.178   4.909   0.451  1.0397 -0.7966  0.9661
  626MOL0     H86383  -0.183   4.743   0.508  1.5986  1.0474  0.7594
  626MOL0     H86384  -0.440   4.708   0.175 -1.1083  1.6541  0.9370
  626MOL0     H86385   0.263   4.393   0.530  0.0940 -1.9455 -0.3830
  626MOL0     H86386   0.505   4.275   0.674  0.6501  0.3769  3.4060
  626MOL0     H86387   0.569   4.430   0.708  1.5232 -1.0661 -1.8323
  626MOL0     H86388   0.393   4.404   0.720 -0.0227 -0.5700 -0.9435
  627MOL0     O86389  11.226   2.631   2.187 -0.3313 -0.5054  0.6969
  627MOL0     C86390  11.159   2.567   2.108  0.9084  0.3163 -0.5383
  627MOL0     O86391  11.209   2.489   2.006 -0.3323  0.4422  0.3747
  627MOL0     C86392  11.345   2.463   2.013  0.5803  0.1421 -0.0775
  627MOL0     C86393  11.439   2.539   1.934 -0.2575 -0.3060  1.0318
  627MOL0     C86394  11.580   2.522   1.968 -0.1685 -0.3603  0.7195
  627MOL0     C86395  11.621   2.444   2.080 -1.3187 -0.3321  0.2891
  627MOL0     O86396  11.758   2.450   2.120  0.3353  0.3663  0.2682
  627MOL0     C86397  11.791   2.399   2.252  0.0828 -0.0204  0.2478
  627MOL0     C86398  11.928   2.452   2.271 -0.2040 -0.2276 -0.2181
  627MOL0     C86399  11.999   2.421   2.401  0.5817  0.6411  0.5906
  627MOL0     C86400  12.080   2.537   2.455 -0.3974  0.5870 -0.6297
  627MOL0     C86401  12.143   2.497   2.592 -0.3593 -0.1189  0.2112
  627MOL0     C86402  12.242   2.600   2.649 -0.1021  0.1055  0.5028
  627MOL0     C86403  12.276   2.566   2.786 -0.6861 -0.1450 -0.8639
  627MOL0     C86404  12.354   2.683   2.849  0.5731  0.1544  0.3851
  627MOL0     N86405  12.419   2.638   2.973 -0.9121 -0.3465 -0.5106
  627MOL0     C86406  12.357   2.626   3.095 -0.0803  0.0246 -0.3369
  627MOL0     C86407  12.460   2.617   3.177 -0.0240 -0.0783  0.1511
  627MOL0     C86408  12.463   2.603   3.334  0.2753 -0.0613  1.1371
  627MOL0     C86409  12.382   2.480   3.385 -0.3940 -0.2082 -0.9119
  627MOL0     C86410  12.363   2.466   3.536 -0.6935 -1.0227 -0.4510
  627MOL0     C86411  12.485   2.436   3.611  0.2178 -0.1130 -0.2511
  627MOL0     O86412  12.575   2.549   3.619  0.1500  0.3353  0.2595
  627MOL0     C86413  12.703   2.518   3.616  0.1848  0.3383 -0.3875
  627MOL0     C86414  12.757   2.392   3.650  0.2447  0.7157 -0.2298
  627MOL0     C86415  12.890   2.362   3.659 -0.2180  0.9318  0.1349
  627MOL0     C86416  12.926   2.221   3.694  0.2416 -0.0143  0.0545
  627MOL0     C86417  12.984   2.466   3.625 -0.7911 -0.1918 -0.4321
  627MOL0     C86418  13.129   2.458   3.646 -1.1189  0.9553 -0.1874
  627MOL0     O86419  13.189   2.573   3.671  0.1504 -0.2273  0.5112
  627MOL0     C86420  13.315   2.581   3.723 -0.8423  0.1380  0.6231
  627MOL0     C86421  13.387   2.482   3.799  0.8178 -0.1209 -0.0490
  627MOL0     C86422  13.516   2.488   3.837 -0.1961 -0.4470  0.2924
  627MOL0     C86423  13.584   2.603   3.805 -0.1062  0.3151 -0.1162
  627MOL0     O86424  13.707   2.634   3.854 -0.4621  0.8061 -0.1573
  627MOL0     C86425  13.801   2.527   3.857  0.4560 -0.4596  0.6303
  627MOL0     C86426  13.940   2.593   3.836 -0.6661  1.0150 -0.7554
  627MOL0     C86427  13.979   2.694   3.938  1.2635  1.3334 -0.1331
  627MOL0     C86428  14.119   2.753   3.911  0.3398 -0.9539  0.6127
  627MOL0     C86429  14.160   2.844   4.034 -0.0847  0.9334  0.5390
  627MOL0     C86430  14.291   2.921   4.020 -0.6732 -0.9476 -0.3235
  627MOL0     C86431  14.312   3.018   4.128  0.2973 -0.7360  0.7588
  627MOL0     C86432  14.344   2.967   4.263 -0.0544  0.4979 -0.3403
  627MOL0    Cl86433  14.354   3.101   4.387 -0.2670  0.2178 -0.0132
  627MOL0     C86434  13.520   2.709   3.742  0.2790 -0.9495 -0.4356
  627MOL0     C86435  13.386   2.693   3.702  0.4999 -0.0733 -0.2320
  627MOL0     O86436  13.186   2.345   3.637  0.5047 -0.2623  0.3591
  627MOL0     C86437  12.933   2.598   3.595  0.9938  0.6849 -0.4640
  627MOL0     C86438  12.795   2.627   3.602  0.5590 -0.1122  0.6739
  627MOL0     N86439  12.584   2.619   3.109 -0.1432  0.9565 -0.1730
  627MOL0     N86440  12.563   2.627   2.984  0.5361  0.0477  0.2131
  627MOL0     C86441  11.525   2.379   2.156  0.9727 -0.0645 -0.8060
  627MOL0     C86442  11.388   2.386   2.114 -0.9350  0.6703 -0.3283
  627MOL0     C86443  11.012   2.560   2.122 -0.1920 -0.0482 -0.7107
  627MOL0     C86444  10.953   2.599   2.247  0.0358 -0.1298  0.1624
  627MOL0     C86445  10.811   2.594   2.264  0.4835  0.0825 -0.1462
  627MOL0     C86446  10.722   2.554   2.164 -0.4152  0.3452 -0.1516
  627MOL0     O86447  10.590   2.532   2.181  0.7827 -0.2269 -0.1386
  627MOL0     C86448  10.543   2.529   2.318  0.5736  0.1189 -0.0261
  627MOL0     C86449  10.424   2.431   2.315  0.8434  0.2038 -0.4875
  627MOL0     C86450  10.472   2.286   2.285  1.9677  0.6376 -0.1193
  627MOL0     C86451  10.360   2.185   2.286 -0.3402 -0.4451  0.7704
  627MOL0     C86452  10.347   2.114   2.415  0.1405  0.0463  0.3557
  627MOL0     C86453  10.351   2.056   2.526 -0.1973 -0.4645  0.2656
  627MOL0     C86454  10.782   2.504   2.044 -0.9522  0.8722  1.0032
  627MOL0     C86455  10.924   2.504   2.023  0.0143 -0.3403  0.4640
  627MOL0     C86456  10.958   2.451   1.891  1.0780 -0.3994 -0.7307
  627MOL0     H86457  11.416   2.590   1.841 -1.7690 -0.9395  1.0249
  627MOL0     H86458  11.651   2.574   1.906 -1.2279 -0.3182 -0.4956
  627MOL0     H86459  11.792   2.290   2.254 -0.1713 -0.0067  1.2545
  627MOL0     H86460  11.724   2.441   2.328 -0.4057  0.2355 -0.3107
  627MOL0     H86461  11.996   2.410   2.197  1.3407 -0.9019  1.5099
  627MOL0     H86462  11.927   2.561   2.255  0.5429  0.3952  3.2505
  627MOL0     H86463  11.926   2.397   2.478  0.6525 -0.2430  0.3897
  627MOL0     H86464  12.060   2.334   2.375 -2.5587 -1.5594  0.0995
  627MOL0     H86465  12.159   2.557   2.381 -1.1592  2.0937 -1.0728
  627MOL0     H86466  12.026   2.631   2.469  0.0765  0.6038  1.3617
  627MOL0     H86467  12.197   2.404   2.568  0.5164  0.3919  0.1609
  627MOL0     H86468  12.064   2.470   2.662  0.9008  0.9019  2.1000
  627MOL0     H86469  12.334   2.609   2.590  0.5542 -2.7218  0.9402
  627MOL0     H86470  12.204   2.702   2.645  0.0875  0.1671  0.2478
  627MOL0     H86471  12.330   2.471   2.799  0.0422 -0.1254 -3.2225
  627MOL0     H86472  12.183   2.563   2.844 -0.8728 -2.2744 -1.1598
  627MOL0     H86473  12.430   2.732   2.787 -0.7092  0.5555 -0.9395
  627MOL0     H86474  12.282   2.765   2.862  0.6465  0.1803  0.6182
  627MOL0     H86475  12.250   2.631   3.110  0.0582  3.0592  0.1492
  627MOL0     H86476  12.437   2.702   3.372  0.6395  0.0057  1.2198
  627MOL0     H86477  12.571   2.594   3.352  0.6304  1.7848  0.1735
  627MOL0     H86478  12.292   2.505   3.329  0.7649  0.3107 -2.6645
  627MOL0     H86479  12.432   2.391   3.346  1.1743  0.0532  0.3982
  627MOL0     H86480  12.325   2.562   3.572  2.7878  0.3174 -0.0286
  627MOL0     H86481  12.296   2.382   3.559 -1.6071 -0.0435  0.5990
  627MOL0     H86482  12.445   2.418   3.711  1.6816  1.9237  0.7899
  627MOL0     H86483  12.528   2.350   3.561  1.3327 -0.8029  1.7590
  627MOL0     H86484  12.693   2.308   3.675  4.1056 -1.7689  2.5434
  627MOL0     H86485  12.979   2.183   3.606 -0.9514  1.0131 -1.1698
  627MOL0     H86486  12.841   2.154   3.715 -1.0107  1.1201 -1.1864
  627MOL0     H86487  13.001   2.223   3.773 -0.9525  2.2712  1.2429
  627MOL0     H86488  13.364   2.382   3.834  3.3682 -0.3164  1.3443
  627MOL0     H86489  13.567   2.410   3.892 -1.3851 -0.5517  1.2736
  627MOL0     H86490  13.809   2.476   3.954  1.4311  1.9765  1.9130
  627MOL0     H86491  13.782   2.451   3.780  3.7101 -0.4078 -0.3580
  627MOL0     H86492  14.013   2.513   3.854 -0.2210  2.0841  3.1026
  627MOL0     H86493  13.955   2.639   3.738  0.9351  0.9085 -0.5837
  627MOL0     H86494  13.973   2.661   4.042  1.0124 -0.0121 -0.5644
  627MOL0     H86495  13.907   2.776   3.942 -1.5390 -0.9224 -1.2046
  627MOL0     H86496  14.118   2.807   3.816  2.5476 -3.4609 -0.9737
  627MOL0     H86497  14.187   2.670   3.891  1.2080 -0.3498  1.0144
  627MOL0     H86498  14.079   2.917   4.043  0.4681  2.0992 -2.4563
  627MOL0     H86499  14.153   2.785   4.125  0.8646 -0.2787 -0.1318
  627MOL0     H86500  14.288   2.974   3.925 -3.9048 -3.3818 -1.7877
  627MOL0     H86501  14.377   2.857   4.000 -0.3803  0.0737 -2.6771
  627MOL0     H86502  14.216   3.068   4.144 -0.4041 -1.1300 -1.7954
  627MOL0     H86503  14.391   3.088   4.100 -2.0377  1.8749  0.2023
  627MOL0     H86504  14.444   2.924   4.255  0.5998  1.4850  1.7462
  627MOL0     H86505  14.263   2.896   4.283 -0.3735  0.3113 -2.1200
  627MOL0     H86506  13.572   2.799   3.715 -0.0345 -0.2178  1.2495
  627MOL0     H86507  13.341   2.779   3.654 -0.9479  0.8358  2.5436
  627MOL0     H86508  12.989   2.688   3.569 -0.0269  0.7799 -2.5791
  627MOL0     H86509  12.757   2.726   3.578 -3.2533 -1.2284  1.4294
  627MOL0     H86510  11.546   2.330   2.250  1.2648 -0.5959 -1.1374
  627MOL0     H86511  11.310   2.350   2.180 -0.4849  0.9223  0.3618
  627MOL0     H86512  11.000   2.625   2.341 -0.8411 -1.9173  1.1351
  627MOL0     H86513  10.789   2.628   2.365  0.1745  1.7537 -0.7434
  627MOL0     H86514  10.615   2.499   2.395  0.0627  2.0772  1.2911
  627MOL0     H86515  10.502   2.626   2.346 -0.4962 -0.0228 -1.0305
  627MOL0     H86516  10.339   2.468   2.257 -1.7036 -0.9928  2.2015
  627MOL0     H86517  10.381   2.418   2.415 -2.4399 -1.2630 -1.9216
  627MOL0     H86518  10.508   2.276   2.182 -0.4969 -3.3933 -0.8193
  627MOL0     H86519  10.548   2.254   2.356  3.3527  2.5133 -0.6818
  627MOL0     H86520  10.392   2.100   2.224 -3.1266 -0.7023 -0.4605
  627MOL0     H86521  10.261   2.224   2.262 -0.2730  1.6168  3.4282
  627MOL0     H86522  10.345   2.011   2.623  1.2417 -0.5602  0.3243
  627MOL0     H86523  10.713   2.461   1.972  1.9853 -0.2002 -1.3724
  627MOL0     H86524  11.035   2.373   1.891  2.2288  0.6737  0.2147
  627MOL0     H86525  10.870   2.404   1.848  0.3520  1.7991 -1.7634
  627MOL0     H86526  10.990   2.529   1.821 -3.0132 -1.5652 -4.3497
  628MOL0     O86527   7.736   3.968   4.352 -0.0533 -0.0490 -0.3882
  628MOL0     C86528   7.729   3.871   4.283 -0.7063  0.1190 -0.3780
  628MOL0     O86529   7.836   3.779   4.273  0.0831 -0.3633  0.5109
  628MOL0     C86530   7.939   3.780   4.366  1.5224  0.0385  0.1558
  628MOL0     C86531   8.072   3.769   4.328  1.2935  0.0428  1.0885
  628MOL0     C86532   8.174   3.756   4.425  0.8261 -0.2365  0.3416
  628MOL0     C86533   8.152   3.742   4.561  0.8433  0.5440 -0.5634
  628MOL0     O86534   8.249   3.721   4.661 -0.4958 -0.1910 -0.5659
  628MOL0     C86535   8.392   3.731   4.627 -0.7300  0.5545  0.8454
  628MOL0     C86536   8.457   3.599   4.559  0.2281 -0.6643 -0.1548
  628MOL0     C86537   8.479   3.492   4.660 -0.1188 -0.5653 -0.5513
  628MOL0     C86538   8.531   3.368   4.604 -0.3746 -0.5820 -0.9054
  628MOL0     C86539   8.685   3.376   4.594 -0.8482  0.3917  0.2491
  628MOL0     C86540   8.737   3.239   4.527  0.1039 -0.5731 -0.2684
  628MOL0     C86541   8.890   3.255   4.501  0.0236  0.1250 -0.0839
  628MOL0     C86542   8.949   3.131   4.429 -0.0743 -0.3974 -0.1111
  628MOL0     N86543   9.089   3.100   4.460 -0.6860 -0.7826  0.3842
  628MOL0     C86544   9.137   2.990   4.540 -0.1170 -0.1573 -0.2786
  628MOL0     C86545   9.271   2.998   4.532  0.2643 -0.7004  0.4428
  628MOL0     C86546   9.356   2.910   4.624 -0.1028 -0.5358  0.1675
  628MOL0     C86547   9.457   2.828   4.547 -0.1151  0.8266  0.6335
  628MOL0     C86548   9.585   2.917   4.545 -0.2667  0.0153  0.2463
  628MOL0     C86549   9.701   2.867   4.461  0.7228  0.5083 -0.4116
  628MOL0     O86550   9.777   2.983   4.431  0.0717  0.6101 -0.4696
  628MOL0     C86551   9.891   2.967   4.362 -1.0017 -0.8043 -0.1485
  628MOL0     C86552   9.931   2.853   4.297  0.5389  0.6363 -0.9410
  628MOL0     C86553  10.038   2.842   4.220  0.3645  0.0133 -0.2299
  628MOL0     C86554  10.065   2.707   4.169  0.1168 -0.0310  0.2230
  628MOL0     C86555  10.123   2.960   4.201  0.1811  0.9303 -0.2481
  628MOL0     C86556  10.243   2.969   4.121 -0.1341  0.0894  0.2178
  628MOL0     O86557  10.326   3.078   4.136 -0.0511 -0.1454  0.1223
  628MOL0     C86558  10.440   3.073   4.061  0.2398 -0.0277  0.5882
  628MOL0     C86559  10.437   3.143   3.945 -0.0716 -1.0631 -0.0542
  628MOL0     C86560  10.545   3.144   3.864 -0.0239  0.4230 -0.2915
  628MOL0     C86561  10.669   3.070   3.888 -0.2035  0.1800  0.4184
  628MOL0     O86562  10.777   3.053   3.808  0.1509  0.2580 -0.1871
  628MOL0     C86563  10.827   3.173   3.740  0.7495 -1.0234 -0.2446
  628MOL0     C86564  10.944   3.129   3.654  0.5332  0.8921  0.6788
  628MOL0     C86565  11.077   3.190   3.705 -0.5761 -0.8174  0.3153
  628MOL0     C86566  11.191   3.115   3.633  0.7447  0.0720  0.6817
  628MOL0     C86567  11.323   3.184   3.656 -0.4053  0.2705  0.8790
  628MOL0     C86568  11.438   3.105   3.586  0.1505  0.0415 -0.3220
  628MOL0     C86569  11.581   3.172   3.605 -0.3316  0.2008 -0.0764
  628MOL0     C86570  11.688   3.105   3.510 -0.8332  0.4521 -0.2707
  628MOL0    Cl86571  11.821   3.220   3.508  0.0662 -0.0588 -0.6967
  628MOL0     C86572  10.663   2.996   4.005  0.1835  0.0465 -0.7164
  628MOL0     C86573  10.555   3.002   4.097 -0.5483 -0.0983 -0.1478
  628MOL0     O86574  10.245   2.887   4.028 -0.1548  0.1641  0.0613
  628MOL0     C86575  10.092   3.085   4.273  0.2855 -0.6076  0.1615
  628MOL0     C86576   9.971   3.079   4.350  0.1760 -0.4620 -0.0234
  628MOL0     N86577   9.306   3.111   4.466 -0.1821 -0.3068  0.6426
  628MOL0     N86578   9.205   3.164   4.412 -0.4406  0.3685  0.2498
  628MOL0     C86579   8.021   3.748   4.605 -0.0899 -0.4072  0.2302
  628MOL0     C86580   7.916   3.778   4.509 -0.6657  0.9188  0.6558
  628MOL0     C86581   7.619   3.847   4.194  0.5799 -0.0121  0.5099
  628MOL0     C86582   7.584   3.713   4.153 -0.5253 -0.1286  1.2821
  628MOL0     C86583   7.484   3.688   4.065 -0.9431  0.2387 -0.4231
  628MOL0     C86584   7.413   3.795   4.010 -0.0886 -0.6342  0.4186
  628MOL0     O86585   7.304   3.795   3.926 -0.4668 -0.3775  0.2159
  628MOL0     C86586   7.263   3.667   3.868 -0.3361 -0.8883 -0.1133
  628MOL0     C86587   7.149   3.687   3.762  0.3735 -1.0479  0.1553
  628MOL0     C86588   7.020   3.716   3.834  0.1644 -0.2086  0.1477
  628MOL0     C86589   6.896   3.725   3.741 -0.2157 -0.3311 -0.2891
  628MOL0     C86590   6.850   3.590   3.701  0.3669 -0.0791 -0.4310
  628MOL0     C86591   6.824   3.472   3.676  0.6280  0.1261 -0.0457
  628MOL0     C86592   7.447   3.927   4.038  0.1109  0.9445  0.0418
  628MOL0     C86593   7.544   3.952   4.138  0.1489 -0.9814  0.8943
  628MOL0     C86594   7.554   4.094   4.192 -0.0056 -0.0238  0.2501
  628MOL0     H86595   8.107   3.757   4.226 -0.3967  4.0201 -0.1315
  628MOL0     H86596   8.270   3.734   4.379  0.3423 -1.8727  0.0403
  628MOL0     H86597   8.448   3.752   4.719  1.5274  0.5207 -0.4503
  628MOL0     H86598   8.409   3.817   4.562  1.4087 -0.3823  0.0673
  628MOL0     H86599   8.392   3.556   4.482  1.2129 -0.3355 -1.1858
  628MOL0     H86600   8.550   3.625   4.509  1.1841 -1.3208  1.1957
  628MOL0     H86601   8.538   3.528   4.745 -1.2722 -1.2132  0.5473
  628MOL0     H86602   8.381   3.467   4.702  0.3770 -0.7144  0.5631
  628MOL0     H86603   8.509   3.292   4.679 -0.5960  1.2946  1.0165
  628MOL0     H86604   8.491   3.354   4.503 -0.9616  0.9934 -0.9230
  628MOL0     H86605   8.726   3.392   4.694 -1.3773  2.1192  0.2346
  628MOL0     H86606   8.705   3.467   4.536 -1.3482  0.8605  0.8032
  628MOL0     H86607   8.729   3.152   4.592 -0.1128 -2.0582 -2.1809
  628MOL0     H86608   8.694   3.204   4.433  3.0253 -2.3268 -1.1122
  628MOL0     H86609   8.930   3.272   4.601  1.4299  2.6387 -0.9868
  628MOL0     H86610   8.911   3.346   4.444 -2.1146 -0.6207 -2.2056
  628MOL0     H86611   8.890   3.040   4.448  2.5326 -2.8005 -2.4155
  628MOL0     H86612   8.918   3.143   4.325 -3.2239 -0.2616  0.7357
  628MOL0     H86613   9.085   2.904   4.581  0.5889  0.7118  2.6693
  628MOL0     H86614   9.285   2.848   4.678  1.0666 -1.8389  0.2505
  628MOL0     H86615   9.403   2.968   4.704 -0.3354  1.4958 -1.0816
  628MOL0     H86616   9.470   2.731   4.596  0.9951  1.5410  1.8159
  628MOL0     H86617   9.415   2.804   4.449 -0.0445  1.6067  0.4105
  628MOL0     H86618   9.559   3.019   4.515  1.1799 -0.0442 -1.3561
  628MOL0     H86619   9.639   2.936   4.638  1.6720  1.2795 -1.0685
  628MOL0     H86620   9.759   2.784   4.502 -0.3607 -1.0895 -1.9976
  628MOL0     H86621   9.653   2.829   4.371 -1.2739  1.1920  0.3063
  628MOL0     H86622   9.870   2.764   4.302  0.7546  0.4331 -1.7200
  628MOL0     H86623  10.174   2.699   4.183  0.4734  1.8249 -1.0630
  628MOL0     H86624  10.044   2.700   4.061  1.7050 -0.1271 -0.1074
  628MOL0     H86625  10.009   2.626   4.217  1.0746 -1.0922 -0.3868
  628MOL0     H86626  10.346   3.192   3.912  1.1047  1.2272 -0.0835
  628MOL0     H86627  10.534   3.198   3.770  0.4881 -0.0180 -0.6139
  628MOL0     H86628  10.757   3.229   3.678 -0.9700 -0.6082  1.9312
  628MOL0     H86629  10.851   3.243   3.821  0.1262 -0.7783 -0.2599
  628MOL0     H86630  10.946   3.021   3.637 -0.7544  0.9418  0.1447
  628MOL0     H86631  10.919   3.168   3.556 -0.8492  1.1325  1.1021
  628MOL0     H86632  11.085   3.179   3.814 -1.1215 -0.2754  0.4202
  628MOL0     H86633  11.072   3.295   3.675 -0.6405 -1.0290 -0.4259
  628MOL0     H86634  11.164   3.111   3.527 -0.5157  1.7633  0.8883
  628MOL0     H86635  11.198   3.010   3.662  0.9229 -0.1875 -0.2911
  628MOL0     H86636  11.317   3.286   3.617 -0.0034  0.2426  0.7402
  628MOL0     H86637  11.336   3.193   3.765 -0.9555  1.5380  0.8575
  628MOL0     H86638  11.415   3.090   3.480 -0.8996  1.3064 -0.3012
  628MOL0     H86639  11.437   3.003   3.624 -1.2078 -1.6141 -4.2429
  628MOL0     H86640  11.614   3.158   3.708  1.0182  0.4828 -0.4480
  628MOL0     H86641  11.581   3.279   3.581  2.8518 -0.3804 -3.6861
  628MOL0     H86642  11.648   3.089   3.410 -2.6120 -1.8741  0.7297
  628MOL0     H86643  11.725   3.008   3.545 -1.1981 -0.1202 -1.4218
  628MOL0     H86644  10.748   2.933   4.029  0.1269  0.7190  1.4513
  628MOL0     H86645  10.558   2.945   4.189 -3.3206  0.9885  0.7053
  628MOL0     H86646  10.151   3.176   4.273 -0.7827  0.1085  0.8016
  628MOL0     H86647   9.932   3.161   4.408  0.2808 -0.2045 -0.3153
  628MOL0     H86648   8.004   3.740   4.712 -1.4599 -1.6557 -0.0452
  628MOL0     H86649   7.811   3.787   4.535 -1.4056 -0.4620 -1.6387
  628MOL0     H86650   7.632   3.624   4.193 -1.8965 -1.2924  0.4174
  628MOL0     H86651   7.457   3.583   4.052 -0.7991 -0.0394  1.2444
  628MOL0     H86652   7.353   3.626   3.820 -0.3820 -1.5750  0.3808
  628MOL0     H86653   7.234   3.604   3.952  2.2098 -2.1631 -0.0670
  628MOL0     H86654   7.123   3.597   3.705  0.9328 -0.0931 -1.6862
  628MOL0     H86655   7.170   3.768   3.692 -1.2142  0.0071  0.8394
  628MOL0     H86656   6.996   3.632   3.900 -2.3635 -0.6421 -1.1988
  628MOL0     H86657   7.031   3.804   3.899 -0.5162  0.0230 -0.0350
  628MOL0     H86658   6.930   3.777   3.651  2.4353 -1.6425 -0.1342
  628MOL0     H86659   6.826   3.784   3.802  2.2488  1.0477  1.4172
  628MOL0     H86660   6.833   3.369   3.650  2.1766 -1.2336  4.8244
  628MOL0     H86661   7.396   4.010   3.992 -1.1144 -2.2506 -5.1402
  628MOL0     H86662   7.481   4.161   4.145  0.8763  0.3137 -0.6856
  628MOL0     H86663   7.531   4.097   4.299 -2.0040  1.3878 -0.1529
  628MOL0     H86664   7.653   4.135   4.170  0.3332 -0.5931  0.7026
  629MOL0     O86665   7.755   4.401   6.248 -0.3664 -0.6039 -0.2047
  629MOL0     C86666   7.652   4.340   6.203  0.0068 -0.1142 -0.6398
  629MOL0     O86667   7.649   4.285   6.079 -0.7899 -0.7352  0.1582
  629MOL0     C86668   7.766   4.243   6.014 -0.1589 -0.0837 -0.7548
  629MOL0     C86669   7.755   4.207   5.880  0.1716  0.5819 -0.1418
  629MOL0     C86670   7.862   4.169   5.798  0.9300  0.5860  0.0238
  629MOL0     C86671   7.990   4.156   5.855  0.3607  0.4558 -0.2606
  629MOL0     O86672   8.110   4.111   5.797 -0.5918 -0.1876  0.0624
  629MOL0     C86673   8.096   4.068   5.661 -0.5143  0.1834  0.9272
  629MOL0     C86674   8.229   4.009   5.624  0.4309  0.5697 -0.2166
  629MOL0     C86675   8.251   3.870   5.687  0.1146 -0.3937 -0.5869
  629MOL0     C86676   8.345   3.788   5.608 -0.1017 -1.1133  0.1789
  629MOL0     C86677   8.491   3.818   5.618  0.8695  0.5823 -0.2807
  629MOL0     C86678   8.580   3.758   5.509  0.0750 -0.0936 -0.2341
  629MOL0     C86679   8.731   3.776   5.536 -1.1283 -0.7995 -0.6071
  629MOL0     C86680   8.792   3.917   5.521 -0.3636 -0.7569  0.0771
  629MOL0     N86681   8.931   3.917   5.565 -0.5205  0.1084 -0.0254
  629MOL0     C86682   8.969   3.986   5.672  0.3031  0.1259 -0.1149
  629MOL0     C86683   9.107   3.978   5.673 -0.6230  0.9745  0.2411
  629MOL0     C86684   9.203   4.005   5.785 -0.5095 -0.0223  0.3071
  629MOL0     C86685   9.303   4.108   5.751  0.2837 -0.0007  0.6043
  629MOL0     C86686   9.229   4.241   5.715 -0.4435  0.3178 -0.0045
  629MOL0     C86687   9.190   4.332   5.835 -0.0174  0.0742 -0.0064
  629MOL0     O86688   9.290   4.370   5.919 -0.5922  0.0135  0.0332
  629MOL0     C86689   9.404   4.426   5.864 -1.5386 -0.2745 -0.4460
  629MOL0     C86690   9.516   4.398   5.939 -0.1108  0.8261 -0.2979
  629MOL0     C86691   9.645   4.436   5.903  0.6009 -0.3971 -0.7416
  629MOL0     C86692   9.759   4.385   5.990  0.5517  0.3149 -0.0438
  629MOL0     C86693   9.659   4.511   5.787  0.2472 -0.4432  0.4342
  629MOL0     C86694   9.790   4.550   5.721 -0.5663 -1.0470 -0.8213
  629MOL0     O86695   9.798   4.570   5.584  0.2931 -0.0742 -0.6206
  629MOL0     C86696   9.917   4.595   5.514  0.5824 -0.1276 -0.3404
  629MOL0     C86697  10.026   4.519   5.537  0.0950 -0.4948  0.1504
  629MOL0     C86698  10.148   4.547   5.479  0.8513 -0.4090  1.0282
  629MOL0     C86699  10.164   4.657   5.389 -0.2711  0.3995  0.1174
  629MOL0     O86700  10.281   4.695   5.328  0.1571  0.7516 -0.4846
  629MOL0     C86701  10.388   4.599   5.348 -0.0416 -0.1818 -0.0865
  629MOL0     C86702  10.515   4.629   5.262  0.1129 -0.1465 -0.5802
  629MOL0     C86703  10.657   4.605   5.320  1.1730 -0.5928  0.3597
  629MOL0     C86704  10.687   4.461   5.345 -0.1085 -0.1735 -0.6291
  629MOL0     C86705  10.822   4.445   5.407  0.0872  0.6563  0.2527
  629MOL0     C86706  10.943   4.478   5.314 -0.0913  0.1617  0.4333
  629MOL0     C86707  11.061   4.390   5.360 -0.1203 -0.8993  0.5198
  629MOL0     C86708  11.183   4.407   5.276 -0.0052 -0.1018  0.0353
  629MOL0    Cl86709  11.169   4.349   5.112  0.4879  0.6420 -0.4106
  629MOL0     C86710  10.046   4.732   5.362 -0.5088 -0.2265  0.3239
  629MOL0     C86711   9.923   4.701   5.424  0.0538  0.3077  1.3121
  629MOL0     O86712   9.889   4.564   5.793  0.5993  0.3814  0.9136
  629MOL0     C86713   9.539   4.548   5.712 -0.0503  0.7292 -0.8900
  629MOL0     C86714   9.414   4.502   5.747 -1.0349 -0.5132 -1.0715
  629MOL0     N86715   9.142   3.916   5.552  0.6043 -0.6428 -0.4728
  629MOL0     N86716   9.038   3.880   5.491  0.6079 -0.5801  0.6882
  629MOL0     C86717   7.998   4.191   5.989  1.0681  0.2406 -0.2731
  629MOL0     C86718   7.892   4.227   6.072  0.1542 -0.2257  1.0984
  629MOL0     C86719   7.532   4.340   6.290 -0.0242 -0.4303 -0.9391
  629MOL0     C86720   7.536   4.419   6.404 -0.3407 -0.3757  0.1931
  629MOL0     C86721   7.427   4.434   6.491  0.1134 -0.0028 -0.1784
  629MOL0     C86722   7.313   4.349   6.480  0.5928  0.8369  0.1642
  629MOL0     O86723   7.220   4.338   6.573 -0.5123  0.0623  0.1929
  629MOL0     C86724   7.206   4.441   6.667 -0.5442  0.1884 -0.4984
  629MOL0     C86725   7.104   4.399   6.779  1.1687  0.0047 -0.1626
  629MOL0     C86726   7.179   4.335   6.892  0.1891  0.2245 -0.2763
  629MOL0     C86727   7.100   4.251   6.994 -0.5099  0.4334 -0.0674
  629MOL0     C86728   7.178   4.207   7.108 -0.5816  0.2765  0.1052
  629MOL0     C86729   7.267   4.173   7.184  0.0102  0.9187  0.0644
  629MOL0     C86730   7.309   4.273   6.366 -0.0837 -0.2057  0.2785
  629MOL0     C86731   7.410   4.271   6.267 -0.4662  0.3883 -0.6286
  629MOL0     C86732   7.390   4.171   6.157 -0.9034 -0.7210 -0.3657
  629MOL0     H86733   7.655   4.219   5.839 -0.1603  0.5731  0.6430
  629MOL0     H86734   7.850   4.157   5.691 -0.1701 -1.8043  0.3643
  629MOL0     H86735   8.077   4.159   5.604 -0.3391  0.0939  0.7254
  629MOL0     H86736   8.012   3.998   5.654 -0.2662 -0.2423  2.0106
  629MOL0     H86737   8.231   4.007   5.515 -0.9516  0.8993 -0.2726
  629MOL0     H86738   8.298   4.090   5.650  0.5241 -0.5365  3.4708
  629MOL0     H86739   8.265   3.874   5.796  2.7478 -1.7811 -0.7951
  629MOL0     H86740   8.149   3.830   5.680 -1.1654  1.9998  2.3046
  629MOL0     H86741   8.339   3.689   5.656  0.1245 -0.7043  1.0714
  629MOL0     H86742   8.311   3.772   5.505 -0.3149  0.7948 -0.0743
  629MOL0     H86743   8.527   3.780   5.714 -2.3121  0.3069  0.9146
  629MOL0     H86744   8.501   3.927   5.621 -1.4177  0.8493 -0.5119
  629MOL0     H86745   8.559   3.651   5.495 -0.9598  0.2749 -1.6697
  629MOL0     H86746   8.559   3.817   5.420 -3.0889  0.1628  0.5530
  629MOL0     H86747   8.802   3.733   5.465  1.9091  2.6461 -0.0220
  629MOL0     H86748   8.747   3.740   5.638 -1.0843  1.2208  0.1534
  629MOL0     H86749   8.794   3.955   5.418 -2.2116  0.9209  0.6117
  629MOL0     H86750   8.731   3.981   5.585  2.4652 -0.8156  3.1086
  629MOL0     H86751   8.903   4.021   5.751  0.9108  0.7505  0.1324
  629MOL0     H86752   9.260   3.913   5.800  1.8692  1.1340 -0.9865
  629MOL0     H86753   9.152   4.028   5.879 -2.2448 -0.1813 -0.5635
  629MOL0     H86754   9.368   4.133   5.836  0.0910  0.2792  0.6728
  629MOL0     H86755   9.354   4.091   5.656 -1.0498  1.3628 -0.4011
  629MOL0     H86756   9.286   4.308   5.650 -1.9653  2.5603  0.8186
  629MOL0     H86757   9.130   4.219   5.674 -0.9443 -3.3769  2.6671
  629MOL0     H86758   9.144   4.428   5.809  0.8618  0.8316  1.1267
  629MOL0     H86759   9.115   4.281   5.897  0.0510 -0.0719 -0.0421
  629MOL0     H86760   9.504   4.335   6.027 -1.5058  1.2135 -0.1908
  629MOL0     H86761   9.742   4.302   6.059  1.2695  1.6531  1.8499
  629MOL0     H86762   9.798   4.462   6.057  0.2200  0.8147 -0.4215
  629MOL0     H86763   9.841   4.360   5.922  1.1873  3.9663 -0.8160
  629MOL0     H86764  10.031   4.436   5.607  3.2951 -0.3342  0.2885
  629MOL0     H86765  10.233   4.484   5.499  2.6714  0.3355 -3.2673
  629MOL0     H86766  10.432   4.618   5.446 -2.0474  4.3921  0.1669
  629MOL0     H86767  10.368   4.493   5.330  1.0154 -0.3025 -0.6631
  629MOL0     H86768  10.504   4.581   5.164 -0.1913 -0.2118 -0.5151
  629MOL0     H86769  10.488   4.733   5.239 -3.0123 -0.9012 -0.6979
  629MOL0     H86770  10.662   4.668   5.410  1.9130  0.2433 -0.2475
  629MOL0     H86771  10.732   4.627   5.243 -0.5411 -2.7718 -2.1075
  629MOL0     H86772  10.676   4.411   5.249  2.1279  0.9211 -1.5204
  629MOL0     H86773  10.612   4.417   5.412 -0.5964  3.6066  1.6082
  629MOL0     H86774  10.824   4.509   5.495  1.1977  0.9967 -0.0021
  629MOL0     H86775  10.811   4.341   5.439 -0.0081  0.0331 -1.6294
  629MOL0     H86776  10.975   4.580   5.332  0.8922  0.0307 -0.4691
  629MOL0     H86777  10.925   4.462   5.207 -3.2002 -0.6133  0.9576
  629MOL0     H86778  11.024   4.287   5.355  0.3127 -1.0343 -4.1314
  629MOL0     H86779  11.086   4.424   5.461 -0.0831 -0.1504  0.2658
  629MOL0     H86780  11.267   4.363   5.330  0.2015  0.8427  0.5227
  629MOL0     H86781  11.210   4.513   5.288  2.4120 -0.9288  3.1129
  629MOL0     H86782  10.073   4.812   5.293  1.2978  0.4624  1.7442
  629MOL0     H86783   9.834   4.763   5.415 -1.4676 -1.6882  1.8455
  629MOL0     H86784   9.541   4.608   5.621 -0.9292  1.3697 -0.5130
  629MOL0     H86785   9.323   4.536   5.698 -1.9183 -0.8370  0.2947
  629MOL0     H86786   8.095   4.189   6.038  0.4710 -1.1644  0.9075
  629MOL0     H86787   7.908   4.232   6.179 -0.2479  0.5300  1.1324
  629MOL0     H86788   7.626   4.475   6.429 -0.0830 -0.2142 -1.0564
  629MOL0     H86789   7.446   4.508   6.568 -0.4079 -0.9634  0.8899
  629MOL0     H86790   7.295   4.486   6.713 -1.4586  0.4411  1.1141
  629MOL0     H86791   7.168   4.522   6.605  0.4698 -0.8586 -2.5772
  629MOL0     H86792   7.023   4.341   6.734 -0.3439  2.3374 -0.6424
  629MOL0     H86793   7.051   4.490   6.808  0.3169 -0.9307  1.3302
  629MOL0     H86794   7.256   4.269   6.851  0.5980 -0.0278  0.8627
  629MOL0     H86795   7.236   4.419   6.933  0.6587  0.4788 -1.4018
  629MOL0     H86796   7.052   4.163   6.950 -2.5807  1.1898  0.5458
  629MOL0     H86797   7.024   4.307   7.050 -0.6846 -1.7392  2.0188
  629MOL0     H86798   7.326   4.128   7.261 -0.9304 -0.4779  0.0048
  629MOL0     H86799   7.221   4.209   6.358  0.4994 -1.0234  0.3174
  629MOL0     H86800   7.386   4.222   6.060  0.6326  1.1332  0.4673
  629MOL0     H86801   7.471   4.098   6.162  0.2375  0.5820  1.9237
  629MOL0     H86802   7.304   4.106   6.173 -0.8312 -0.9109 -0.7336
  630MOL0     O86803   9.049   6.441   5.615 -0.9040  0.2091 -0.9664
  630MOL0     C86804   9.043   6.319   5.629  0.2930  0.4111 -0.0882
  630MOL0     O86805   9.084   6.249   5.734  0.1858  0.0055 -0.0265
  630MOL0     C86806   9.182   6.299   5.816 -0.2590 -0.0757 -0.7311
  630MOL0     C86807   9.143   6.330   5.946 -0.0155 -0.4724 -0.3267
  630MOL0     C86808   9.237   6.390   6.041 -0.4854  0.9959  1.3253
  630MOL0     C86809   9.377   6.384   6.006  0.9138  0.8395  1.2010
  630MOL0     O86810   9.485   6.421   6.086  0.2292  0.5587 -0.0240
  630MOL0     C86811   9.461   6.420   6.229  0.0196  0.0565 -0.0479
  630MOL0     C86812   9.568   6.463   6.322 -0.4822  0.2134  0.5931
  630MOL0     C86813   9.542   6.574   6.423  0.0883  0.0166  0.0788
  630MOL0     C86814   9.427   6.528   6.521  0.0269  0.2423 -0.0145
  630MOL0     C86815   9.440   6.594   6.661  0.7373 -0.4493  0.6108
  630MOL0     C86816   9.319   6.563   6.749 -0.0976  1.0744 -0.3258
  630MOL0     C86817   9.316   6.421   6.785 -0.0451  0.1532 -0.4317
  630MOL0     C86818   9.440   6.376   6.874 -0.2852 -0.3332 -0.4572
  630MOL0     N86819   9.415   6.273   6.973  0.4519 -0.2193 -0.1149
  630MOL0     C86820   9.384   6.145   6.959 -0.4877  0.2097  0.1725
  630MOL0     C86821   9.387   6.087   7.089 -0.9713 -0.3981 -0.3236
  630MOL0     C86822   9.397   5.944   7.123  0.2786 -0.4001 -0.3604
  630MOL0     C86823   9.408   5.904   7.272 -0.6806  0.3340  0.0856
  630MOL0     C86824   9.551   5.929   7.320 -0.1138 -0.0997 -0.0412
  630MOL0     C86825   9.585   5.877   7.469  0.3889  0.4897  0.1382
  630MOL0     O86826   9.505   5.953   7.561 -0.1041 -0.1685  0.5011
  630MOL0     C86827   9.408   5.878   7.623  0.2095  0.6597  0.3224
  630MOL0     C86828   9.435   5.771   7.708 -0.2987 -0.4195 -0.2350
  630MOL0     C86829   9.335   5.712   7.785 -0.0650 -0.0522  0.4610
  630MOL0     C86830   9.372   5.607   7.895 -0.2086 -1.0652  0.2280
  630MOL0     C86831   9.200   5.743   7.756  0.0185 -0.4301 -0.3525
  630MOL0     C86832   9.088   5.669   7.818 -0.3544 -1.2208 -0.3494
  630MOL0     O86833   8.996   5.751   7.873  0.4442  0.1299 -0.3402
  630MOL0     C86834   8.890   5.697   7.952 -0.1016  0.1919  0.4379
  630MOL0     C86835   8.817   5.587   7.908 -0.3391  0.0822  0.3143
  630MOL0     C86836   8.698   5.550   7.974 -0.1965  0.7215 -0.6402
  630MOL0     C86837   8.656   5.618   8.082 -0.4071 -0.3170  0.3074
  630MOL0     O86838   8.532   5.579   8.138  0.0156  0.1036 -0.1212
  630MOL0     C86839   8.518   5.603   8.279  0.3462  0.0357 -0.5507
  630MOL0     C86840   8.393   5.528   8.328 -0.1902 -0.7145 -0.7933
  630MOL0     C86841   8.267   5.584   8.259  1.0112  0.0307 -0.2180
  630MOL0     C86842   8.135   5.548   8.332  0.1803  0.1547 -0.8168
  630MOL0     C86843   8.008   5.602   8.264 -0.1439  0.2146  0.0090
  630MOL0     C86844   7.892   5.614   8.365  0.2608 -0.3116 -0.4608
  630MOL0     C86845   7.772   5.691   8.308  0.8627 -0.4134  0.1296
  630MOL0     C86846   7.638   5.646   8.371  0.1584 -0.1251  0.1303
  630MOL0    Cl86847   7.645   5.641   8.560 -0.1451  0.4816 -0.0393
  630MOL0     C86848   8.731   5.723   8.130  0.5117 -0.7698 -0.2908
  630MOL0     C86849   8.854   5.756   8.069 -0.0464  0.2899  0.0926
  630MOL0     O86850   9.074   5.559   7.774 -0.0407  0.3469  0.3721
  630MOL0     C86851   9.172   5.851   7.672 -0.0860  0.4129 -1.0498
  630MOL0     C86852   9.274   5.921   7.611 -0.6504  0.1776 -0.4240
  630MOL0     N86853   9.408   6.199   7.171  0.8257  0.2294 -0.0323
  630MOL0     N86854   9.421   6.308   7.102  0.2166 -0.3294 -0.3571
  630MOL0     C86855   9.403   6.352   5.873 -0.3925 -0.8375  0.9544
  630MOL0     C86856   9.308   6.310   5.780  0.0735  0.1937  0.4602
  630MOL0     C86857   8.959   6.235   5.538  0.1609  0.8421  0.4911
  630MOL0     C86858   8.926   6.103   5.573 -0.1572  0.1878 -0.2897
  630MOL0     C86859   8.817   6.033   5.516 -0.3585  0.4498  0.9664
  630MOL0     C86860   8.748   6.084   5.404 -0.0754 -0.5151  0.0329
  630MOL0     O86861   8.627   6.025   5.373 -0.1354 -0.1038  0.3839
  630MOL0     C86862   8.548   6.087   5.274  0.9764 -0.0930  1.1935
  630MOL0     C86863   8.412   6.004   5.255 -0.3777 -0.2324  0.5098
  630MOL0     C86864   8.336   6.010   5.390  0.3512  1.1431 -0.1846
  630MOL0     C86865   8.197   5.967   5.376 -0.0094  0.5337  0.1573
  630MOL0     C86866   8.107   5.999   5.495  0.0978  0.3323 -0.1318
  630MOL0     C86867   8.042   6.001   5.596  0.4802 -0.6159 -0.3255
  630MOL0     C86868   8.797   6.214   5.356  0.2449  0.1087 -0.8084
  630MOL0     C86869   8.898   6.288   5.421  0.3793  0.0588 -0.4563
  630MOL0     C86870   8.912   6.428   5.362  0.3788  0.2003 -0.7148
  630MOL0     H86871   9.038   6.310   5.963  0.7099 -3.5188  1.4239
  630MOL0     H86872   9.201   6.423   6.138 -1.7858  3.2335  0.1738
  630MOL0     H86873   9.435   6.319   6.262  1.3981 -0.1497  0.4859
  630MOL0     H86874   9.379   6.488   6.251  0.2709 -0.2401  1.9992
  630MOL0     H86875   9.602   6.379   6.383 -0.3658 -0.3417 -0.2184
  630MOL0     H86876   9.655   6.485   6.260 -0.9223 -0.7366 -0.4115
  630MOL0     H86877   9.633   6.600   6.478  0.4743 -0.6723 -0.2228
  630MOL0     H86878   9.498   6.664   6.379  1.1486  1.6856  2.2192
  630MOL0     H86879   9.324   6.537   6.483 -0.6083  0.1186  1.6183
  630MOL0     H86880   9.436   6.420   6.533  1.1651  0.3709  0.3571
  630MOL0     H86881   9.441   6.702   6.640 -0.0379 -0.4425  0.5674
  630MOL0     H86882   9.536   6.558   6.698  1.6416  0.5280 -0.6582
  630MOL0     H86883   9.304   6.612   6.845 -3.3598  1.3116 -0.8455
  630MOL0     H86884   9.239   6.591   6.680  0.0011  0.9086 -0.5095
  630MOL0     H86885   9.310   6.349   6.703 -0.2751 -1.3591  0.8632
  630MOL0     H86886   9.222   6.405   6.838  0.9899 -2.2477  0.8590
  630MOL0     H86887   9.517   6.340   6.805 -0.4640 -1.7053  0.0466
  630MOL0     H86888   9.482   6.461   6.928 -0.8266  0.6210 -1.4761
  630MOL0     H86889   9.367   6.094   6.865 -0.5661  2.6167 -1.1902
  630MOL0     H86890   9.480   5.907   7.063  1.7417  0.1581  1.2595
  630MOL0     H86891   9.304   5.900   7.084 -1.6045  1.9943  1.0889
  630MOL0     H86892   9.326   5.955   7.325 -1.0404 -0.6332  0.4767
  630MOL0     H86893   9.410   5.795   7.279 -2.7582  0.0764 -2.1541
  630MOL0     H86894   9.622   5.893   7.246  3.3868  2.2782  1.8639
  630MOL0     H86895   9.573   6.036   7.313 -0.9074  0.0798  0.0330
  630MOL0     H86896   9.554   5.772   7.466  2.1020 -0.0291 -1.1198
  630MOL0     H86897   9.693   5.878   7.487  0.4411  0.8169 -0.1968
  630MOL0     H86898   9.539   5.742   7.719  0.2981  1.0496 -1.5695
  630MOL0     H86899   9.414   5.654   7.984 -1.9512  1.6545 -0.2563
  630MOL0     H86900   9.446   5.539   7.851  0.0506 -0.4634 -0.2800
  630MOL0     H86901   9.282   5.552   7.927 -1.7019  0.8511 -0.4755
  630MOL0     H86902   8.853   5.524   7.827  0.6855 -0.0185  0.8324
  630MOL0     H86903   8.637   5.467   7.942  0.0706 -0.7073  2.2433
  630MOL0     H86904   8.607   5.572   8.334  0.7406  0.4183 -0.9623
  630MOL0     H86905   8.501   5.709   8.299 -2.4883 -0.1191 -1.6843
  630MOL0     H86906   8.406   5.428   8.286 -3.3538 -0.6928 -2.0908
  630MOL0     H86907   8.396   5.522   8.438 -0.2552  0.5001 -0.7079
  630MOL0     H86908   8.265   5.551   8.155  1.5254 -1.8333  0.3242
  630MOL0     H86909   8.262   5.693   8.258 -1.0615 -0.0212 -1.3105
  630MOL0     H86910   8.147   5.601   8.427  0.9789  0.9974 -1.3639
  630MOL0     H86911   8.140   5.440   8.343  2.3299  0.2564 -0.4754
  630MOL0     H86912   8.025   5.693   8.205 -2.1914 -1.2703 -3.1040
  630MOL0     H86913   7.972   5.540   8.182 -1.8564  0.3456  0.6329
  630MOL0     H86914   7.928   5.665   8.454 -1.4085 -0.8930  0.5930
  630MOL0     H86915   7.855   5.517   8.401  0.8226 -0.1707  0.5241
  630MOL0     H86916   7.761   5.685   8.200 -3.8742  2.4141  0.1865
  630MOL0     H86917   7.779   5.796   8.339  2.8130  0.2623 -2.2940
  630MOL0     H86918   7.604   5.549   8.332 -0.7190 -0.5124  1.7634
  630MOL0     H86919   7.553   5.706   8.339 -1.8413 -1.0478  3.2582
  630MOL0     H86920   8.700   5.780   8.217  0.6064  1.0747 -1.4195
  630MOL0     H86921   8.918   5.837   8.101  0.8486  0.2544 -1.5114
  630MOL0     H86922   9.068   5.872   7.646  0.3576  1.5225 -2.0565
  630MOL0     H86923   9.258   6.015   7.558  0.4647 -0.0356 -1.1805
  630MOL0     H86924   9.502   6.364   5.831 -2.0537  0.5010 -3.1274
  630MOL0     H86925   9.324   6.313   5.672 -0.4391  1.6805  0.4000
  630MOL0     H86926   8.972   6.042   5.649 -0.9957 -2.5455 -1.8349
  630MOL0     H86927   8.781   5.935   5.545  0.9839  0.5756  3.3395
  630MOL0     H86928   8.531   6.193   5.297 -1.4767  0.1709 -1.3196
  630MOL0     H86929   8.593   6.075   5.175 -1.9900 -3.8984  0.0545
  630MOL0     H86930   8.438   5.900   5.238  0.3157  0.0290 -0.1146
  630MOL0     H86931   8.347   6.042   5.176  0.1793  0.9211  0.5858
  630MOL0     H86932   8.392   5.946   5.459 -0.4656  0.6251  0.0111
  630MOL0     H86933   8.333   6.112   5.429 -3.2731  1.4339 -0.8600
  630MOL0     H86934   8.201   5.861   5.348  1.7540  0.6353 -0.0783
  630MOL0     H86935   8.155   6.023   5.292  0.1397 -0.3715 -0.5398
  630MOL0     H86936   7.978   5.995   5.682  0.3099 -3.6439 -0.5698
  630MOL0     H86937   8.745   6.247   5.267 -0.0018 -1.5983 -1.3457
  630MOL0     H86938   9.020   6.438   5.343  0.5152 -1.6908 -1.1062
  630MOL0     H86939   8.853   6.438   5.271  1.5318  2.0769 -1.3236
  630MOL0     H86940   8.886   6.503   5.438  1.6349 -0.3704  0.3323
  631MOL0     O86941  11.195   2.010   7.120  0.2802 -0.0232 -0.3593
  631MOL0     C86942  11.134   2.114   7.106 -0.5330  0.7119 -0.2326
  631MOL0     O86943  11.031   2.132   7.017  0.4131  0.6528  0.1213
  631MOL0     C86944  10.985   2.021   6.945  0.1224  1.1792  0.6765
  631MOL0     C86945  10.873   1.948   6.987 -0.5275  1.1375 -0.6713
  631MOL0     C86946  10.828   1.837   6.915  0.2349  0.3880  0.8385
  631MOL0     C86947  10.877   1.811   6.782 -0.0634  0.0011  0.2728
  631MOL0     O86948  10.850   1.719   6.689 -0.5831 -0.6859  0.1580
  631MOL0     C86949  10.768   1.610   6.726  0.0891 -0.1039 -0.3418
  631MOL0     C86950  10.755   1.501   6.607 -0.3025  0.0158 -0.4456
  631MOL0     C86951  10.762   1.575   6.476  0.6942  0.3066 -0.5767
  631MOL0     C86952  10.775   1.476   6.356  0.3554 -0.2126  0.0949
  631MOL0     C86953  10.749   1.533   6.224 -0.5146 -0.5594  0.8460
  631MOL0     C86954  10.872   1.627   6.190 -0.5133 -0.6258  0.6278
  631MOL0     C86955  10.877   1.684   6.055 -0.3730 -0.2657  0.0675
  631MOL0     C86956  10.902   1.603   5.930 -0.2260  0.3516 -0.2014
  631MOL0     N86957  11.041   1.568   5.906 -0.4153  0.0887 -0.0163
  631MOL0     C86958  11.120   1.479   5.985  0.1856 -0.6955 -0.0445
  631MOL0     C86959  11.249   1.490   5.934 -0.1212  0.6737 -0.1191
  631MOL0     C86960  11.371   1.411   5.986 -1.1815 -0.6153 -0.3949
  631MOL0     C86961  11.503   1.469   5.942  1.0007 -0.7817  0.8522
  631MOL0     C86962  11.602   1.361   5.953 -0.6058 -0.1964 -0.2800
  631MOL0     C86963  11.739   1.409   5.911  0.3088 -0.7240  0.2834
  631MOL0     O86964  11.781   1.513   5.998 -0.4535  0.1097 -1.1921
  631MOL0     C86965  11.918   1.543   6.010 -0.8165 -0.6978  0.1591
  631MOL0     C86966  11.956   1.656   6.087 -0.3582  0.5544 -1.2990
  631MOL0     C86967  12.095   1.692   6.095  0.5122  0.6616 -0.1856
  631MOL0     C86968  12.126   1.814   6.180  0.2979 -0.8207  0.1371
  631MOL0     C86969  12.200   1.618   6.036  0.0822  0.8830  0.0160
  631MOL0     C86970  12.349   1.633   6.051 -0.1597 -0.1839  0.2387
  631MOL0     O86971  12.432   1.560   5.964  1.0086  0.6906  1.1587
  631MOL0     C86972  12.569   1.581   5.955 -0.5507 -0.5744 -0.1984
  631MOL0     C86973  12.634   1.704   5.965 -0.1689  0.5221 -0.5696
  631MOL0     C86974  12.777   1.716   5.983 -0.3646  0.3020 -0.2976
  631MOL0     C86975  12.855   1.603   5.961  0.1822 -1.0010  0.1829
  631MOL0     O86976  12.990   1.608   5.965 -0.3493  0.0100  0.1372
  631MOL0     C86977  13.061   1.683   6.056  0.7399 -0.1577  0.3891
  631MOL0     C86978  13.131   1.591   6.155  0.5500 -0.5822 -0.7006
  631MOL0     C86979  13.189   1.458   6.107  0.0832 -0.6105 -0.0097
  631MOL0     C86980  13.255   1.380   6.218  0.3801  0.3866  0.2632
  631MOL0     C86981  13.394   1.426   6.251 -0.2946  0.2061 -0.3291
  631MOL0     C86982  13.430   1.546   6.335  0.3837 -0.2566 -0.5088
  631MOL0     C86983  13.358   1.572   6.474 -0.0146 -0.5103 -0.0048
  631MOL0     C86984  13.374   1.720   6.516  0.1441  0.6990 -0.6530
  631MOL0    Cl86985  13.542   1.753   6.572 -0.0861  0.3447  0.4156
  631MOL0     C86986  12.791   1.481   5.934  0.4785 -0.7336  0.7286
  631MOL0     C86987  12.655   1.475   5.933 -0.1025  0.2902  0.0777
  631MOL0     O86988  12.390   1.706   6.138 -0.0348 -0.1931 -0.0936
  631MOL0     C86989  12.152   1.510   5.958 -1.2809  0.1142 -0.3832
  631MOL0     C86990  12.021   1.470   5.947 -1.7589  0.0998 -0.3381
  631MOL0     N86991  11.237   1.575   5.823  0.2210  0.1449 -0.1863
  631MOL0     N86992  11.113   1.621   5.804  0.0320 -0.6823 -0.2009
  631MOL0     C86993  10.971   1.901   6.728 -1.7074 -0.2437 -0.5902
  631MOL0     C86994  11.031   1.995   6.815 -0.1502  0.2916  0.2858
  631MOL0     C86995  11.151   2.218   7.210  1.0272 -0.1034  1.2915
  631MOL0     C86996  11.039   2.302   7.238 -0.8198  0.0587 -0.9892
  631MOL0     C86997  11.061   2.405   7.339 -0.2232 -0.0900  0.1975
  631MOL0     C86998  11.186   2.419   7.400  0.9480  0.9680 -0.2222
  631MOL0     O86999  11.199   2.503   7.504 -0.3020 -0.5644 -0.3011
  631MOL0     C87000  11.231   2.642   7.466 -0.9600  0.7368  0.0247
  631MOL0     C87001  11.108   2.717   7.440  1.2281 -0.5029 -0.2149
  631MOL0     C87002  11.012   2.702   7.553  0.1161 -0.1810  1.0898
  631MOL0     C87003  10.908   2.813   7.563  0.6555  0.3587  0.9543
  631MOL0     C87004  10.827   2.788   7.690 -0.1256  0.3559 -0.4409
  631MOL0     C87005  10.767   2.777   7.800  0.5335 -0.5965  0.0414
  631MOL0     C87006  11.289   2.338   7.369  0.3655 -0.0597 -0.8920
  631MOL0     C87007  11.276   2.239   7.274 -0.5591  0.2805  0.2177
  631MOL0     C87008  11.402   2.151   7.268 -0.3775  0.6531  0.6706
  631MOL0     H87009  10.834   1.961   7.087 -3.7085 -0.2592 -1.6016
  631MOL0     H87010  10.752   1.770   6.955 -0.5237  0.6272 -0.1481
  631MOL0     H87011  10.667   1.648   6.744  0.5880  2.2757 -2.1762
  631MOL0     H87012  10.804   1.579   6.824  0.2894  1.4461  0.0977
  631MOL0     H87013  10.826   1.419   6.611 -0.8806 -0.5500 -1.3739
  631MOL0     H87014  10.657   1.453   6.609  0.5408 -1.8235 -1.2137
  631MOL0     H87015  10.668   1.629   6.463  0.0841 -0.5731  0.0501
  631MOL0     H87016  10.843   1.648   6.466 -1.9754  4.1996  2.7491
  631MOL0     H87017  10.872   1.425   6.356  0.3279 -0.2632  0.3167
  631MOL0     H87018  10.701   1.399   6.380  0.5013  0.2137  2.0023
  631MOL0     H87019  10.652   1.582   6.208 -1.9937 -2.4614  3.3093
  631MOL0     H87020  10.756   1.456   6.147 -2.1566 -1.0445  1.1501
  631MOL0     H87021  10.877   1.711   6.260  0.8881  0.8759 -1.1849
  631MOL0     H87022  10.970   1.579   6.197  1.1932  2.5137  0.0877
  631MOL0     H87023  10.942   1.772   6.057  3.4555 -2.8502 -0.7501
  631MOL0     H87024  10.773   1.720   6.048 -0.7995 -1.3231  0.7778
  631MOL0     H87025  10.858   1.504   5.942  3.0418 -1.1297  0.3343
  631MOL0     H87026  10.866   1.661   5.844  0.8755  0.5098 -0.5727
  631MOL0     H87027  11.097   1.423   6.075  0.2417  1.5139  1.4313
  631MOL0     H87028  11.369   1.303   5.968 -1.8895 -1.3606  3.3089
  631MOL0     H87029  11.357   1.423   6.094  0.2765  0.3810 -0.2945
  631MOL0     H87030  11.496   1.515   5.842  0.7278  1.6457  1.9155
  631MOL0     H87031  11.526   1.556   6.003 -0.5283 -0.6397  1.2695
  631MOL0     H87032  11.616   1.321   6.054  0.5647  0.6895 -0.0668
  631MOL0     H87033  11.569   1.276   5.893 -2.9389 -0.2908  1.0292
  631MOL0     H87034  11.811   1.326   5.919  2.5444  1.1596  0.7336
  631MOL0     H87035  11.723   1.432   5.806 -0.8751 -0.1422  0.5791
  631MOL0     H87036  11.872   1.717   6.121 -0.9703 -0.5657 -0.7516
  631MOL0     H87037  12.185   1.883   6.119 -0.2780  1.1073  1.6566
  631MOL0     H87038  12.191   1.760   6.251  1.0742 -2.9998 -2.0901
  631MOL0     H87039  12.042   1.871   6.221 -0.1922 -2.1123  0.9900
  631MOL0     H87040  12.572   1.792   5.976 -1.4966 -0.4919  0.5674
  631MOL0     H87041  12.822   1.813   6.002  0.2222  0.2053 -1.1313
  631MOL0     H87042  13.136   1.729   5.990 -0.0992  1.1446  0.3148
  631MOL0     H87043  13.009   1.770   6.098 -0.3866  0.0474 -1.3264
  631MOL0     H87044  13.206   1.658   6.197  0.3035 -0.6302 -0.1778
  631MOL0     H87045  13.059   1.558   6.231 -2.6008 -1.1704 -3.6937
  631MOL0     H87046  13.255   1.479   6.023 -0.8907  2.2328 -0.1810
  631MOL0     H87047  13.110   1.394   6.067 -1.2308 -0.7261  2.5701
  631MOL0     H87048  13.269   1.275   6.191  1.2313  0.0355  1.9200
  631MOL0     H87049  13.191   1.389   6.306  0.7912 -0.4348  0.6587
  631MOL0     H87050  13.437   1.351   6.318  2.2215  0.9257 -1.0084
  631MOL0     H87051  13.452   1.442   6.160 -0.1200  0.5806 -0.1573
  631MOL0     H87052  13.418   1.629   6.264 -0.6834 -0.9607 -1.1941
  631MOL0     H87053  13.535   1.540   6.363  1.0983  2.0695 -2.2889
  631MOL0     H87054  13.401   1.516   6.558  3.8771 -1.8478 -2.5955
  631MOL0     H87055  13.253   1.544   6.462  0.1602 -0.8831 -0.7045
  631MOL0     H87056  13.312   1.733   6.605  2.6476  1.2650  1.1085
  631MOL0     H87057  13.346   1.794   6.440 -2.5868  1.2177  0.7336
  631MOL0     H87058  12.844   1.397   5.891  0.0768  0.5418 -2.5957
  631MOL0     H87059  12.604   1.380   5.923  0.8896 -0.2711  0.2172
  631MOL0     H87060  12.222   1.446   5.906 -2.5818 -1.1440 -0.6556
  631MOL0     H87061  12.002   1.382   5.887  4.6957 -1.1329 -1.2825
  631MOL0     H87062  11.006   1.906   6.625  2.0834  1.9485  0.6067
  631MOL0     H87063  11.109   2.061   6.779  1.4038 -1.4157  0.3712
  631MOL0     H87064  10.941   2.277   7.198 -1.2438 -1.6758  0.9358
  631MOL0     H87065  10.978   2.471   7.363 -0.8274 -0.8449  0.2424
  631MOL0     H87066  11.284   2.686   7.551 -1.3429  0.1462  0.5744
  631MOL0     H87067  11.291   2.641   7.374 -1.9339 -0.3248 -0.6322
  631MOL0     H87068  11.052   2.685   7.352 -0.8614 -1.4173  1.3421
  631MOL0     H87069  11.138   2.822   7.441 -0.4469  0.0095  0.5050
  631MOL0     H87070  10.953   2.612   7.535  0.6330  0.0532 -2.7134
  631MOL0     H87071  11.068   2.694   7.647  2.7644 -2.2711 -0.5058
  631MOL0     H87072  10.839   2.817   7.478  0.4327 -0.5326  1.0829
  631MOL0     H87073  10.956   2.911   7.571  1.1920  0.1065  0.8115
  631MOL0     H87074  10.717   2.767   7.895 -0.9600 -0.0881 -0.6510
  631MOL0     H87075  11.377   2.336   7.432 -0.6089  1.7835  0.6311
  631MOL0     H87076  11.428   2.116   7.167 -0.5195 -1.2687  1.2655
  631MOL0     H87077  11.494   2.202   7.300  0.3030  1.7907 -2.6600
  631MOL0     H87078  11.388   2.058   7.323  0.1243  0.8511  1.1430
  632MOL0     O87079  11.306   7.546   8.456 -0.4801  0.0088 -0.2877
  632MOL0     C87080  11.313   7.424   8.481 -0.1138  0.0295 -0.1079
  632MOL0     O87081  11.425   7.345   8.462  0.4378 -0.0923 -0.4294
  632MOL0     C87082  11.547   7.408   8.434 -0.9671 -0.0920  0.3378
  632MOL0     C87083  11.648   7.365   8.508  0.2307 -0.3899 -0.0847
  632MOL0     C87084  11.775   7.396   8.479 -1.0568 -0.0023 -0.5712
  632MOL0     C87085  11.814   7.464   8.369  0.8415 -0.7198 -0.2321
  632MOL0     O87086  11.940   7.489   8.340 -0.5145  0.2230 -0.1984
  632MOL0     C87087  12.034   7.500   8.443  0.0984 -0.5712 -1.0733
  632MOL0     C87088  12.158   7.569   8.388 -0.3378  0.3994 -0.6010
  632MOL0     C87089  12.283   7.486   8.369 -1.0594  0.0959 -0.4312
  632MOL0     C87090  12.402   7.576   8.333  0.1569  0.3423 -0.4158
  632MOL0     C87091  12.542   7.520   8.330  0.7082 -0.8682  0.4148
  632MOL0     C87092  12.639   7.636   8.312  0.3327  0.0184  0.3515
  632MOL0     C87093  12.769   7.560   8.292  0.0654 -1.0471 -0.4150
  632MOL0     C87094  12.886   7.651   8.287 -0.9996  0.0066  0.0430
  632MOL0     N87095  12.873   7.756   8.189  0.4549  0.7416  0.0721
  632MOL0     C87096  12.848   7.736   8.061 -0.6447  1.4361  0.6560
  632MOL0     C87097  12.843   7.858   8.008  0.4359  0.1159  0.2970
  632MOL0     C87098  12.814   7.884   7.863  0.1459  0.1251 -0.1785
  632MOL0     C87099  12.934   7.847   7.782 -0.4310 -0.0221 -0.3504
  632MOL0     C87100  13.057   7.931   7.812  1.2609 -0.3200 -0.2225
  632MOL0     C87101  13.165   7.943   7.713 -0.1607  0.1771  0.4186
  632MOL0     O87102  13.230   7.815   7.699 -0.1249  0.4815 -0.6613
  632MOL0     C87103  13.354   7.816   7.638  0.0598  0.2499 -0.5958
  632MOL0     C87104  13.439   7.712   7.656 -0.3851  0.5106 -0.1844
  632MOL0     C87105  13.567   7.700   7.605 -0.4196 -0.4049  0.2074
  632MOL0     C87106  13.654   7.588   7.660  0.8471 -0.5522 -0.1370
  632MOL0     C87107  13.612   7.812   7.527 -0.2369  0.1095 -0.6941
  632MOL0     C87108  13.753   7.810   7.483 -0.4382  0.7655 -0.0355
  632MOL0     O87109  13.798   7.930   7.449 -0.6987 -0.8680  0.0497
  632MOL0     C87110  13.931   7.943   7.409 -0.3405 -0.1942  0.8621
  632MOL0     C87111  13.963   7.935   7.268  0.5897 -0.2730  0.6826
  632MOL0     C87112  14.097   7.925   7.231 -0.4361 -0.1227  0.3803
  632MOL0     C87113  14.208   7.931   7.318 -0.2933 -0.0034 -0.0008
  632MOL0     O87114  14.333   7.906   7.266  0.0093  1.0301  0.5245
  632MOL0     C87115  14.409   7.828   7.361  0.6760 -0.1605 -0.1958
  632MOL0     C87116  14.512   7.742   7.290  0.1321  0.8057  0.8103
  632MOL0     C87117  14.457   7.623   7.207 -0.4496 -0.8567 -0.5293
  632MOL0     C87118  14.426   7.659   7.061 -0.0524  0.2111 -0.6140
  632MOL0     C87119  14.361   7.525   7.001  0.0306  0.1838  0.2784
  632MOL0     C87120  14.366   7.499   6.849  0.2003 -0.0341  0.5762
  632MOL0     C87121  14.509   7.498   6.785 -0.2432  0.1086  0.4521
  632MOL0     C87122  14.503   7.511   6.630  0.2166  0.2331 -0.4832
  632MOL0    Cl87123  14.666   7.502   6.564 -0.0439 -0.2424  0.1051
  632MOL0     C87124  14.174   7.955   7.452 -0.1432  0.1163 -1.1633
  632MOL0     C87125  14.042   7.958   7.495  1.4446 -0.5311  0.3495
  632MOL0     O87126  13.813   7.706   7.462 -0.1151 -0.4271  1.1024
  632MOL0     C87127  13.521   7.914   7.496  0.6763  0.1030  0.1208
  632MOL0     C87128  13.391   7.913   7.555 -0.6447  0.2617  0.6021
  632MOL0     N87129  12.871   7.951   8.092 -0.3581  0.0308  0.7196
  632MOL0     N87130  12.895   7.891   8.208 -0.6690  0.0295 -0.1244
  632MOL0     C87131  11.709   7.514   8.287  0.0294 -0.1298 -0.1860
  632MOL0     C87132  11.573   7.496   8.326 -0.4689  0.2210  0.1984
  632MOL0     C87133  11.195   7.361   8.563  0.3225 -0.1187 -0.3762
  632MOL0     C87134  11.209   7.224   8.597  0.7029  0.3216  0.6179
  632MOL0     C87135  11.126   7.160   8.684 -0.5604 -0.5268  0.8132
  632MOL0     C87136  11.002   7.217   8.726  0.1383 -0.5807 -0.2360
  632MOL0     O87137  10.924   7.150   8.821  0.1503  0.4330 -0.5099
  632MOL0     C87138  10.786   7.186   8.839  0.2842  0.4593  0.9498
  632MOL0     C87139  10.703   7.071   8.893  0.4162  0.2677 -0.7772
  632MOL0     C87140  10.710   7.072   9.048 -0.3065  0.3278  0.3136
  632MOL0     C87141  10.640   6.942   9.098 -0.3402 -0.9173  0.4236
  632MOL0     C87142  10.670   6.918   9.241 -0.2815 -0.0253  0.4578
  632MOL0     C87143  10.698   6.889   9.360  0.2145 -0.1779  0.3665
  632MOL0     C87144  10.981   7.352   8.691  0.2920  0.2630  0.5117
  632MOL0     C87145  11.066   7.418   8.594  0.5665  0.0794 -0.4283
  632MOL0     C87146  11.019   7.556   8.532  0.6632  0.3334 -0.1700
  632MOL0     H87147  11.626   7.298   8.591  4.5418 -1.2876  0.5898
  632MOL0     H87148  11.851   7.352   8.542  1.4325  1.2429 -2.4774
  632MOL0     H87149  12.071   7.406   8.484 -2.5367 -1.1213  0.1746
  632MOL0     H87150  11.993   7.555   8.528  0.1113  1.9595 -2.6019
  632MOL0     H87151  12.125   7.600   8.289 -5.1749 -5.1225 -1.2320
  632MOL0     H87152  12.187   7.647   8.460 -0.8337 -0.1697  0.2281
  632MOL0     H87153  12.307   7.433   8.462 -1.9040 -2.1997 -1.4340
  632MOL0     H87154  12.268   7.409   8.292  1.3079  0.6471 -1.5424
  632MOL0     H87155  12.380   7.620   8.235 -1.3560 -3.3050 -1.8883
  632MOL0     H87156  12.403   7.659   8.405  0.3717 -1.1138  1.3231
  632MOL0     H87157  12.566   7.439   8.261 -0.5070 -0.0585 -1.0262
  632MOL0     H87158  12.552   7.474   8.429 -2.7051 -2.5563  0.0966
  632MOL0     H87159  12.607   7.702   8.231  1.1870 -0.2992 -0.2643
  632MOL0     H87160  12.643   7.694   8.404  0.2785  1.8739 -0.7736
  632MOL0     H87161  12.782   7.515   8.193  2.9351 -0.4615 -0.3716
  632MOL0     H87162  12.783   7.483   8.368  2.6219  1.1463  1.4822
  632MOL0     H87163  12.897   7.695   8.387 -2.7075 -0.1839  0.3363
  632MOL0     H87164  12.976   7.593   8.263 -1.9486 -1.8339  0.7245
  632MOL0     H87165  12.814   7.643   8.017 -1.6275  2.1701 -0.1917
  632MOL0     H87166  12.788   7.989   7.844  2.1358  0.4299 -1.5394
  632MOL0     H87167  12.736   7.812   7.838  2.7319 -3.6300  1.6760
  632MOL0     H87168  12.959   7.741   7.785  1.4045  0.2506 -2.9317
  632MOL0     H87169  12.909   7.875   7.679 -1.0077  0.0351 -0.1979
  632MOL0     H87170  13.019   8.032   7.827 -0.9887 -1.2355  0.7777
  632MOL0     H87171  13.099   7.888   7.904  2.1900 -1.3509 -1.1127
  632MOL0     H87172  13.122   7.979   7.619 -2.2493 -0.3089  1.1411
  632MOL0     H87173  13.230   8.019   7.758  3.5039 -0.6403 -2.9089
  632MOL0     H87174  13.411   7.640   7.731 -1.1326  0.8395 -0.1450
  632MOL0     H87175  13.597   7.519   7.724  1.9736 -3.2897 -1.9261
  632MOL0     H87176  13.728   7.641   7.720  0.6507  0.2744 -0.6075
  632MOL0     H87177  13.694   7.529   7.578  1.8614  0.3075 -0.2886
  632MOL0     H87178  13.877   7.929   7.202 -0.5145 -0.6928  2.1116
  632MOL0     H87179  14.125   7.909   7.128  1.0306 -0.0711  0.7448
  632MOL0     H87180  14.461   7.881   7.442  1.9471 -0.4594 -0.8002
  632MOL0     H87181  14.340   7.759   7.411  0.6631 -0.3414 -0.4647
  632MOL0     H87182  14.562   7.815   7.226 -0.4586  1.1674  0.7494
  632MOL0     H87183  14.583   7.707   7.365  1.4544  0.2384 -0.6589
  632MOL0     H87184  14.362   7.597   7.256 -0.4892  0.9401  0.4276
  632MOL0     H87185  14.519   7.533   7.220 -2.0529 -1.8014  1.1747
  632MOL0     H87186  14.520   7.686   7.012  0.5051  3.1814  1.7545
  632MOL0     H87187  14.353   7.741   7.054  0.6146  0.6608 -3.4979
  632MOL0     H87188  14.412   7.442   7.049  0.7744  0.2064 -0.4500
  632MOL0     H87189  14.260   7.512   7.041  0.5709 -0.8336  1.3380
  632MOL0     H87190  14.307   7.577   6.799 -0.8113 -0.0736  1.6645
  632MOL0     H87191  14.319   7.401   6.832  1.7201 -0.6862 -0.0090
  632MOL0     H87192  14.563   7.405   6.803  0.9034  0.5680 -0.4847
  632MOL0     H87193  14.565   7.584   6.822  0.8533  0.7911 -2.5012
  632MOL0     H87194  14.448   7.601   6.599  0.2118 -0.0874 -1.4469
  632MOL0     H87195  14.454   7.421   6.592 -1.9065  0.6844  1.0008
  632MOL0     H87196  14.253   7.984   7.520  0.5004 -0.4622 -1.6471
  632MOL0     H87197  14.027   7.979   7.601 -1.0999  3.3299 -0.5497
  632MOL0     H87198  13.558   7.991   7.429  0.4409  1.3235  1.3753
  632MOL0     H87199  13.326   7.996   7.528 -2.1317 -0.0433  2.9724
  632MOL0     H87200  11.739   7.573   8.201  1.6173  1.1096  1.1658
  632MOL0     H87201  11.487   7.514   8.263 -0.3087 -3.5481 -1.3740
  632MOL0     H87202  11.295   7.171   8.559 -0.8263 -2.3201  0.6133
  632MOL0     H87203  11.143   7.058   8.718  1.9754 -0.7140 -0.7646
  632MOL0     H87204  10.789   7.278   8.897  3.2965  0.3339  1.1476
  632MOL0     H87205  10.740   7.205   8.741  2.5764 -2.3987 -0.8479
  632MOL0     H87206  10.749   6.980   8.853  0.3490  0.9292 -2.4038
  632MOL0     H87207  10.597   7.068   8.864  0.2057 -0.5938  0.0268
  632MOL0     H87208  10.816   7.076   9.075 -0.1033 -0.2461 -0.3535
  632MOL0     H87209  10.669   7.166   9.084  0.4289  0.1769  1.6129
  632MOL0     H87210  10.675   6.861   9.033 -4.0487 -0.3137 -2.6397
  632MOL0     H87211  10.535   6.965   9.079  0.0445  1.4536  0.8709
  632MOL0     H87212  10.728   6.864   9.460 -0.5399  2.3539  1.2849
  632MOL0     H87213  10.884   7.394   8.719 -0.9177 -1.0463 -1.4939
  632MOL0     H87214  11.034   7.563   8.424  0.3571 -0.1324 -0.2412
  632MOL0     H87215  10.913   7.574   8.550  0.3816 -1.4734  0.1557
  632MOL0     H87216  11.077   7.634   8.582  0.3386 -1.2707  2.9606
  633MOL0     O87217   9.128  10.706   1.591  0.0235 -0.6460 -0.0790
  633MOL0     C87218   9.037  10.766   1.641  1.0335  1.0632  0.3436
  633MOL0     O87219   9.029  10.905   1.649  0.3313 -0.2886 -0.2920
  633MOL0     C87220   9.137  10.979   1.601  0.5582  0.9525 -0.0172
  633MOL0     C87221   9.270  10.957   1.647  0.0156 -0.0782 -0.3593
  633MOL0     C87222   9.367  11.039   1.592 -0.2152 -0.0769 -0.1500
  633MOL0     C87223   9.332  11.133   1.492 -0.4383 -0.2682  0.6715
  633MOL0     O87224   9.432  11.203   1.429  0.0808 -0.6085 -0.0694
  633MOL0     C87225   9.463  11.161   1.293  0.2407 -0.2902  0.1996
  633MOL0     C87226   9.495  11.288   1.219  0.1146 -0.3921 -0.2085
  633MOL0     C87227   9.380  11.384   1.190 -0.3571 -0.2679 -0.3055
  633MOL0     C87228   9.445  11.516   1.126  0.2049  0.4665  0.0020
  633MOL0     C87229   9.335  11.619   1.090 -0.1887  0.3999 -0.7130
  633MOL0     C87230   9.270  11.670   1.215  0.1897  0.5994  0.0978
  633MOL0     C87231   9.179  11.781   1.189 -0.1707 -0.1332  0.0812
  633MOL0     C87232   9.241  11.908   1.136 -0.0352 -0.4066 -0.0873
  633MOL0     N87233   9.257  11.997   1.256 -0.1410  0.0459 -0.6865
  633MOL0     C87234   9.379  12.019   1.306 -0.4335 -1.1986 -1.1266
  633MOL0     C87235   9.360  12.131   1.386  0.1706  0.3241  0.3135
  633MOL0     C87236   9.464  12.197   1.477 -1.4292 -0.1308  0.3028
  633MOL0     C87237   9.605  12.190   1.423 -0.6273  1.1050  0.8940
  633MOL0     C87238   9.706  12.274   1.495 -0.7296 -0.1625  0.4792
  633MOL0     C87239   9.857  12.251   1.460  0.4833  0.6804  0.3481
  633MOL0     O87240   9.902  12.115   1.446 -0.0656  0.4444 -0.3832
  633MOL0     C87241  10.039  12.117   1.444  0.6326  1.0105 -0.5045
  633MOL0     C87242  10.108  12.003   1.497 -0.7068 -0.1038  1.0257
  633MOL0     C87243  10.248  11.982   1.503  0.1216  0.0688 -0.1543
  633MOL0     C87244  10.294  11.857   1.572 -0.1364 -0.2162  0.5044
  633MOL0     C87245  10.326  12.094   1.452  0.4595  0.3439  0.4010
  633MOL0     C87246  10.473  12.090   1.447 -0.4129 -0.1628  0.6968
  633MOL0     O87247  10.526  11.961   1.435  0.0532  0.3351 -0.1327
  633MOL0     C87248  10.651  11.941   1.496  0.0754 -0.5795 -0.9193
  633MOL0     C87249  10.759  12.010   1.443  0.5924 -0.3395 -0.0898
  633MOL0     C87250  10.892  11.988   1.486 -0.0371 -0.4898 -0.7175
  633MOL0     C87251  10.914  11.888   1.582  0.5488  0.0198  0.2354
  633MOL0     O87252  11.049  11.894   1.625 -0.2946  0.0682  1.0647
  633MOL0     C87253  11.108  11.768   1.651 -1.4794  0.1988 -0.2030
  633MOL0     C87254  11.250  11.795   1.704 -0.4436  0.2032  0.0432
  633MOL0     C87255  11.336  11.868   1.601 -0.4540 -0.6892  0.0302
  633MOL0     C87256  11.458  11.904   1.684 -0.9394 -0.9840  0.4832
  633MOL0     C87257  11.564  11.979   1.612  0.1648 -0.2263  0.7953
  633MOL0     C87258  11.513  12.115   1.562 -0.8497 -0.0155  0.2806
  633MOL0     C87259  11.516  12.228   1.669 -0.0164  0.5854  0.5828
  633MOL0     C87260  11.567  12.360   1.616  0.2202  0.1976 -0.8148
  633MOL0    Cl87261  11.453  12.443   1.510  0.3005 -0.3853  0.1397
  633MOL0     C87262  10.814  11.810   1.637 -0.3499 -1.3248  0.5142
  633MOL0     C87263  10.677  11.841   1.599 -0.9866  0.0524 -0.3634
  633MOL0     O87264  10.540  12.197   1.462  0.4849  0.5701 -0.9514
  633MOL0     C87265  10.264  12.198   1.396  0.1825 -0.0732  0.0571
  633MOL0     C87266  10.120  12.212   1.386 -0.4213 -0.1420 -0.7817
  633MOL0     N87267   9.230  12.167   1.372 -1.1996 -0.4394  0.1833
  633MOL0     N87268   9.169  12.093   1.295 -0.2115  0.4154  0.8884
  633MOL0     C87269   9.199  11.159   1.455 -0.3665 -0.2875  0.3400
  633MOL0     C87270   9.103  11.083   1.512  0.2207  0.4068  0.1269
  633MOL0     C87271   8.917  10.685   1.686 -1.7403  0.0160 -1.5558
  633MOL0     C87272   8.804  10.755   1.725 -0.0370  0.4469  0.0760
  633MOL0     C87273   8.680  10.686   1.740  0.3169 -0.2061  0.0226
  633MOL0     C87274   8.674  10.555   1.750  0.1337  1.3164 -0.1724
  633MOL0     O87275   8.565  10.482   1.782  0.1635 -0.4097 -0.1319
  633MOL0     C87276   8.432  10.540   1.779  0.3538  0.2290  0.1491
  633MOL0     C87277   8.325  10.443   1.834  0.2660  0.0208  1.0825
  633MOL0     C87278   8.181  10.462   1.800  0.6622 -0.2099  0.4833
  633MOL0     C87279   8.090  10.343   1.824  0.2643  1.0684  0.0605
  633MOL0     C87280   7.949  10.369   1.808  0.1176 -0.0174 -0.5189
  633MOL0     C87281   7.836  10.394   1.788 -0.4248 -0.2693  0.4898
  633MOL0     C87282   8.787  10.484   1.717 -0.0786  0.3087 -0.1404
  633MOL0     C87283   8.903  10.542   1.666  0.0776 -0.4622 -0.9625
  633MOL0     C87284   9.002  10.440   1.627 -0.6171 -0.7665 -0.2608
  633MOL0     H87285   9.291  10.891   1.731 -2.0289 -0.1868  0.1086
  633MOL0     H87286   9.473  11.028   1.612 -0.0549 -0.2197 -1.0358
  633MOL0     H87287   9.388  11.112   1.230 -0.3830  3.2956 -2.1112
  633MOL0     H87288   9.555  11.101   1.297 -0.4127 -1.3970 -0.7784
  633MOL0     H87289   9.566  11.338   1.284  0.4352  1.0164 -1.5832
  633MOL0     H87290   9.546  11.253   1.128 -1.3452  0.4731 -1.4078
  633MOL0     H87291   9.312  11.333   1.121 -1.4345 -2.3738  2.1276
  633MOL0     H87292   9.324  11.405   1.282 -0.2706  0.0011 -0.3134
  633MOL0     H87293   9.514  11.554   1.202 -1.1470 -1.9683  2.6357
  633MOL0     H87294   9.507  11.480   1.043  0.7032 -0.5392  0.7790
  633MOL0     H87295   9.264  11.568   1.024 -0.1992  1.7509 -1.7832
  633MOL0     H87296   9.359  11.709   1.033 -1.2030  1.9691  1.2601
  633MOL0     H87297   9.224  11.597   1.282 -1.3770  1.0770 -0.4096
  633MOL0     H87298   9.352  11.713   1.273 -1.1916  3.6333  0.0072
  633MOL0     H87299   9.132  11.808   1.284  0.7259  0.9320  0.2388
  633MOL0     H87300   9.098  11.755   1.120 -2.8437  1.7998  2.2875
  633MOL0     H87301   9.335  11.908   1.081 -0.4287  3.1127 -1.0409
  633MOL0     H87302   9.158  11.955   1.082  0.6023  1.2248  0.2665
  633MOL0     H87303   9.476  11.977   1.280 -0.8165 -0.3307 -4.3788
  633MOL0     H87304   9.471  12.150   1.576 -0.3641 -1.5487 -0.4034
  633MOL0     H87305   9.434  12.302   1.481 -0.6519  0.0559  2.4303
  633MOL0     H87306   9.633  12.084   1.430 -2.2397  0.5426 -0.3677
  633MOL0     H87307   9.608  12.214   1.316  0.5371  1.7095  1.0515
  633MOL0     H87308   9.679  12.380   1.492 -2.0569 -0.4472  1.7245
  633MOL0     H87309   9.692  12.239   1.597  0.9148  2.8455  1.8749
  633MOL0     H87310   9.866  12.283   1.356  0.9251  0.0022  0.1755
  633MOL0     H87311   9.924  12.312   1.522  0.2576  0.7053  0.5670
  633MOL0     H87312  10.042  11.923   1.531 -2.3333 -0.8555 -3.1996
  633MOL0     H87313  10.215  11.800   1.620 -0.4608  1.0943  1.5944
  633MOL0     H87314  10.369  11.880   1.648  1.2511  1.3207 -1.2100
  633MOL0     H87315  10.338  11.796   1.492  2.0140  3.2688 -1.2613
  633MOL0     H87316  10.746  12.083   1.363  2.0348 -3.7888 -3.8394
  633MOL0     H87317  10.977  12.048   1.455 -0.1294 -2.0508 -4.5782
  633MOL0     H87318  11.063  11.713   1.734  1.4033 -0.9661  0.7228
  633MOL0     H87319  11.111  11.705   1.562 -0.1958 -0.9260  0.5966
  633MOL0     H87320  11.244  11.852   1.797 -2.7062 -2.6777  1.8262
  633MOL0     H87321  11.298  11.699   1.726 -0.8221  0.0234  0.0744
  633MOL0     H87322  11.278  11.955   1.569 -1.3620 -0.7603  1.4062
  633MOL0     H87323  11.356  11.799   1.519  0.0520  1.7467 -2.0271
  633MOL0     H87324  11.512  11.815   1.718  0.2309 -0.1650  0.8238
  633MOL0     H87325  11.431  11.964   1.771 -1.2710 -1.5478  0.7782
  633MOL0     H87326  11.655  11.994   1.671  3.0909 -3.4030 -2.4912
  633MOL0     H87327  11.598  11.919   1.527 -1.8960  1.7522 -1.5796
  633MOL0     H87328  11.409  12.100   1.533 -0.6256 -2.4822  0.5290
  633MOL0     H87329  11.570  12.155   1.478 -2.1082 -0.2322 -0.6937
  633MOL0     H87330  11.570  12.188   1.756 -1.7132 -3.3208  0.0338
  633MOL0     H87331  11.414  12.237   1.708  0.5706 -1.0967  2.7048
  633MOL0     H87332  11.669  12.347   1.577  1.3229  1.0286  1.5716
  633MOL0     H87333  11.588  12.428   1.699  1.0632 -2.1998  1.0584
  633MOL0     H87334  10.842  11.744   1.718  1.0052 -1.7406 -0.2755
  633MOL0     H87335  10.596  11.778   1.633 -1.7395  0.5103 -1.2867
  633MOL0     H87336  10.334  12.271   1.357 -1.9669  2.7167  1.0732
  633MOL0     H87337  10.086  12.305   1.341 -0.0438 -1.6628 -4.6099
  633MOL0     H87338   9.175  11.240   1.387 -2.9673 -1.3542 -0.1081
  633MOL0     H87339   8.998  11.111   1.505  0.2936  0.9524  1.0458
  633MOL0     H87340   8.814  10.862   1.712  2.1310 -0.0183 -3.5121
  633MOL0     H87341   8.600  10.759   1.752  0.3914 -0.2064  0.5656
  633MOL0     H87342   8.426  10.630   1.841 -2.2308 -0.8179  1.6129
  633MOL0     H87343   8.403  10.568   1.678 -3.4180  0.3515  1.1235
  633MOL0     H87344   8.333  10.451   1.943  1.0864  0.4847  0.9937
  633MOL0     H87345   8.338  10.338   1.806 -1.5774 -0.3122  1.3800
  633MOL0     H87346   8.142  10.539   1.867 -1.6437 -0.1017 -0.8818
  633MOL0     H87347   8.156  10.510   1.705 -0.3283 -2.4837 -0.5048
  633MOL0     H87348   8.109  10.307   1.926 -0.0896 -1.5174 -0.6991
  633MOL0     H87349   8.116  10.255   1.764  2.5156  0.6769  1.4729
  633MOL0     H87350   7.735  10.418   1.760 -0.3633 -0.2255  0.3041
  633MOL0     H87351   8.777  10.377   1.730  0.6197  0.4283  1.7083
  633MOL0     H87352   8.949  10.346   1.613 -3.4794 -0.3559  5.0068
  633MOL0     H87353   9.046  10.475   1.533 -0.7188 -0.5364 -0.2233
  633MOL0     H87354   9.086  10.422   1.695 -1.2577  2.3527  1.5891
  634MOL0     O87355   0.806   8.857   5.853 -0.1995  0.7425  0.2907
  634MOL0     C87356   0.872   8.840   5.954  0.3986 -1.5712 -0.5343
  634MOL0     O87357   1.002   8.885   5.969  0.3168  1.0469  0.5100
  634MOL0     C87358   1.043   8.967   5.865  0.0959  0.2058  0.2544
  634MOL0     C87359   1.107   8.921   5.743  0.5161  0.3240  0.5818
  634MOL0     C87360   1.138   9.009   5.642  0.4521 -0.0281 -0.5764
  634MOL0     C87361   1.123   9.146   5.655 -0.3307  0.1646 -0.2251
  634MOL0     O87362   1.155   9.244   5.570  0.2957 -0.3529 -1.1655
  634MOL0     C87363   1.261   9.216   5.475  0.6331  0.3622 -0.4796
  634MOL0     C87364   1.351   9.337   5.455  0.0353  0.1391  0.8649
  634MOL0     C87365   1.433   9.360   5.577  0.4677  0.2663 -0.9399
  634MOL0     C87366   1.526   9.477   5.556 -0.4464  0.3708  0.3544
  634MOL0     C87367   1.568   9.554   5.679 -0.0110 -0.1100  0.3965
  634MOL0     C87368   1.630   9.685   5.639  0.3349  0.2225  0.8585
  634MOL0     C87369   1.530   9.801   5.637 -0.2171  0.1046 -0.3444
  634MOL0     C87370   1.566   9.924   5.557 -1.3883 -0.0154  0.1245
  634MOL0     N87371   1.707   9.971   5.563 -0.2803  0.1168 -0.1520
  634MOL0     C87372   1.816   9.937   5.481  0.4516  0.8964 -0.1471
  634MOL0     C87373   1.916  10.016   5.513  0.3644 -0.0671 -0.0377
  634MOL0     C87374   2.057  10.006   5.463 -0.1618 -0.1703  0.7578
  634MOL0     C87375   2.160   9.999   5.573 -0.3813 -0.0619  0.0277
  634MOL0     C87376   2.303  10.011   5.515 -0.5629 -0.3591  0.2211
  634MOL0     C87377   2.402   9.990   5.624 -0.0972 -0.2303  1.0663
  634MOL0     O87378   2.391   9.850   5.665  0.0818  0.4406 -0.2913
  634MOL0     C87379   2.452   9.826   5.785  0.3566 -0.0920 -0.5430
  634MOL0     C87380   2.424   9.698   5.838 -0.4582 -0.1353 -0.5353
  634MOL0     C87381   2.484   9.651   5.952  0.4068 -0.2998  0.0495
  634MOL0     C87382   2.435   9.515   5.991 -0.1682 -0.6130 -0.3564
  634MOL0     C87383   2.578   9.731   6.028 -1.2176  0.3202  0.6508
  634MOL0     C87384   2.654   9.683   6.149  0.2796 -0.1082  0.4350
  634MOL0     O87385   2.701   9.775   6.237 -0.0603 -0.4657  0.2174
  634MOL0     C87386   2.789   9.729   6.330  0.3422 -0.2373  0.4568
  634MOL0     C87387   2.927   9.750   6.311 -0.3523  0.1729 -0.5581
  634MOL0     C87388   3.024   9.697   6.403  0.3170 -0.9303  0.1563
  634MOL0     C87389   2.984   9.618   6.508 -0.3486  0.6636  0.1123
  634MOL0     O87390   3.073   9.557   6.589  0.1811  0.2654 -0.5740
  634MOL0     C87391   3.046   9.439   6.657  0.1134  0.3821 -1.2584
  634MOL0     C87392   3.166   9.364   6.646  0.0294  0.3842 -0.1341
  634MOL0     C87393   3.159   9.225   6.689 -0.0458 -0.2186 -0.7379
  634MOL0     C87394   3.300   9.149   6.661  1.0261 -0.4110  0.2424
  634MOL0     C87395   3.299   9.003   6.665 -0.7170 -0.4813 -0.0889
  634MOL0     C87396   3.262   8.945   6.799 -0.5431  0.2260  0.6960
  634MOL0     C87397   3.246   8.792   6.768 -0.0170  0.2204 -0.4009
  634MOL0     C87398   3.111   8.766   6.702 -0.1534  0.2321  0.6926
  634MOL0    Cl87399   3.105   8.585   6.670 -0.1071 -0.4887  0.2439
  634MOL0     C87400   2.843   9.607   6.534 -0.8218  0.7554  0.1366
  634MOL0     C87401   2.750   9.671   6.451  0.1815  1.1769 -0.8936
  634MOL0     O87402   2.693   9.565   6.136  0.0820 -0.5653 -0.0934
  634MOL0     C87403   2.596   9.864   5.978 -0.0162  0.4561  0.4847
  634MOL0     C87404   2.541   9.905   5.857  0.4944 -0.4713 -0.9450
  634MOL0     N87405   1.877  10.101   5.621  0.6213  0.0735  0.9105
  634MOL0     N87406   1.746  10.076   5.642 -0.1876 -0.8198 -0.1867
  634MOL0     C87407   1.058   9.194   5.776 -0.5525 -0.3000  0.7783
  634MOL0     C87408   1.025   9.108   5.874 -0.3005  1.2399 -0.4678
  634MOL0     C87409   0.801   8.766   6.064 -0.0451  0.0820 -0.0720
  634MOL0     C87410   0.885   8.727   6.178  0.2466  0.5536  0.1596
  634MOL0     C87411   0.840   8.647   6.282 -0.5251 -0.3719 -0.6531
  634MOL0     C87412   0.707   8.615   6.287  0.8251 -0.2198  0.0280
  634MOL0     O87413   0.650   8.546   6.399  0.3946  0.0753  0.5462
  634MOL0     C87414   0.750   8.480   6.482 -0.1841  0.0983 -0.7057
  634MOL0     C87415   0.680   8.397   6.586  0.1975  0.5995 -0.0465
  634MOL0     C87416   0.767   8.276   6.617 -0.5702 -0.2024  0.5880
  634MOL0     C87417   0.724   8.202   6.748  0.3756 -0.1254 -0.1434
  634MOL0     C87418   0.594   8.136   6.725  0.1870  0.7790 -0.9124
  634MOL0     C87419   0.489   8.091   6.697  0.0295 -1.0462  0.0086
  634MOL0     C87420   0.623   8.658   6.183 -0.0151  0.9192  0.2029
  634MOL0     C87421   0.667   8.735   6.070  0.4374  1.3944  0.3174
  634MOL0     C87422   0.563   8.770   5.970  0.3758 -0.1675 -0.0962
  634MOL0     H87423   1.114   8.814   5.728 -0.2818  0.3477  0.0374
  634MOL0     H87424   1.169   8.966   5.547 -0.8240 -3.9096  0.5404
  634MOL0     H87425   1.204   9.177   5.390  1.1086 -0.6973 -0.3287
  634MOL0     H87426   1.325   9.140   5.520 -0.1901 -0.9673 -1.5018
  634MOL0     H87427   1.413   9.326   5.366 -2.5169  2.7931 -1.4275
  634MOL0     H87428   1.281   9.418   5.437 -0.5594 -0.5140  0.1442
  634MOL0     H87429   1.372   9.391   5.662 -0.4204 -2.6684 -0.3951
  634MOL0     H87430   1.484   9.266   5.598 -1.5891 -0.7130 -0.1165
  634MOL0     H87431   1.620   9.437   5.518 -0.4489 -0.5753  1.3137
  634MOL0     H87432   1.477   9.545   5.485 -3.2512 -2.5178 -0.7119
  634MOL0     H87433   1.638   9.492   5.736 -0.3701  1.3541  2.5399
  634MOL0     H87434   1.481   9.580   5.740 -1.5028  0.9605 -2.0447
  634MOL0     H87435   1.713   9.699   5.709  0.0573 -2.1493  1.7704
  634MOL0     H87436   1.667   9.670   5.537 -1.3600 -0.6780  0.3403
  634MOL0     H87437   1.508   9.833   5.740 -0.5356  0.1354 -0.4208
  634MOL0     H87438   1.431   9.770   5.605 -0.7773 -0.7665  1.9868
  634MOL0     H87439   1.536   9.928   5.452 -1.0067  3.9527  0.0330
  634MOL0     H87440   1.504  10.006   5.593 -2.4299 -1.0739  0.8241
  634MOL0     H87441   1.816   9.847   5.421 -1.4694 -1.6650  3.3334
  634MOL0     H87442   2.072  10.081   5.386  1.5697 -3.3270 -2.2349
  634MOL0     H87443   2.083   9.912   5.413  1.6396 -0.4042  2.0448
  634MOL0     H87444   2.142  10.085   5.638  0.7586  1.2729 -1.3397
  634MOL0     H87445   2.149   9.909   5.634  2.1408  0.6040  1.6104
  634MOL0     H87446   2.314   9.933   5.440 -2.2979  0.3166 -0.8029
  634MOL0     H87447   2.320  10.103   5.458 -0.1277 -0.7581 -0.2991
  634MOL0     H87448   2.505  10.011   5.595 -0.7374  1.8379  0.0728
  634MOL0     H87449   2.375  10.062   5.702 -2.0747 -0.4958  0.6792
  634MOL0     H87450   2.353   9.637   5.782  0.3267 -1.6747  0.0738
  634MOL0     H87451   2.514   9.443   5.965  0.8297  0.3606 -0.1148
  634MOL0     H87452   2.355   9.475   5.928  0.8347 -0.2734 -1.9226
  634MOL0     H87453   2.413   9.521   6.098  2.1245  2.0110  0.1067
  634MOL0     H87454   2.953   9.811   6.226  1.5526  4.1598  2.5253
  634MOL0     H87455   3.131   9.694   6.387  0.1894 -2.0574 -0.5831
  634MOL0     H87456   3.016   9.454   6.761 -0.0656 -0.9823 -1.0954
  634MOL0     H87457   2.960   9.384   6.616 -0.2535 -1.7839  2.0872
  634MOL0     H87458   3.184   9.351   6.539 -0.5240 -2.7367  0.0457
  634MOL0     H87459   3.239   9.414   6.711 -1.6268  1.1928  1.2026
  634MOL0     H87460   3.084   9.169   6.632  2.1344 -0.5023 -3.5856
  634MOL0     H87461   3.142   9.224   6.797 -0.1508 -4.8817 -0.5960
  634MOL0     H87462   3.380   9.171   6.732 -0.3720 -1.3207  2.1729
  634MOL0     H87463   3.326   9.185   6.561  2.3291  0.7413  0.9580
  634MOL0     H87464   3.214   8.985   6.597 -0.6261  0.0543 -0.3550
  634MOL0     H87465   3.395   8.965   6.630  0.8182  1.0438  2.2233
  634MOL0     H87466   3.175   8.987   6.850 -2.9248 -0.1331 -2.7241
  634MOL0     H87467   3.353   8.941   6.859  0.7878  0.1984 -1.2242
  634MOL0     H87468   3.261   8.746   6.866  3.1253 -0.6543 -1.1931
  634MOL0     H87469   3.333   8.760   6.711  1.2903  0.6650  1.2530
  634MOL0     H87470   3.101   8.804   6.600 -0.6363  0.5583  0.8629
  634MOL0     H87471   3.029   8.795   6.767 -1.2848  1.6441 -1.2373
  634MOL0     H87472   2.792   9.552   6.613  1.2337 -3.0937 -0.9772
  634MOL0     H87473   2.645   9.666   6.479  0.4378 -1.1762 -0.1657
  634MOL0     H87474   2.659   9.933   6.034  1.1943 -0.0800 -0.1555
  634MOL0     H87475   2.566  10.004   5.820  1.8607 -0.6405 -0.5450
  634MOL0     H87476   1.031   9.298   5.790 -1.5170 -0.7540  2.4786
  634MOL0     H87477   0.980   9.134   5.969 -2.1671 -0.4207 -0.8577
  634MOL0     H87478   0.989   8.755   6.161  0.2165  0.1964 -0.6709
  634MOL0     H87479   0.912   8.626   6.360 -1.4342  0.7689  0.5215
  634MOL0     H87480   0.809   8.412   6.419 -0.6833  0.8552 -2.0455
  634MOL0     H87481   0.826   8.534   6.538  0.1385  1.8630 -2.7158
  634MOL0     H87482   0.579   8.373   6.553  0.2790 -1.1227  0.8447
  634MOL0     H87483   0.666   8.447   6.682  0.8851  0.9346 -0.1153
  634MOL0     H87484   0.780   8.206   6.534 -0.8132  1.5708 -1.0174
  634MOL0     H87485   0.865   8.320   6.637 -0.9948  0.1958  1.8747
  634MOL0     H87486   0.713   8.277   6.827 -1.3808  0.5421 -0.9673
  634MOL0     H87487   0.795   8.122   6.772 -0.0883  0.2179  2.7920
  634MOL0     H87488   0.392   8.054   6.671 -1.1922  0.6673  1.9096
  634MOL0     H87489   0.517   8.643   6.197 -0.3676  1.7862 -1.2932
  634MOL0     H87490   0.485   8.697   5.989 -1.9829  2.1857 -0.1315
  634MOL0     H87491   0.525   8.872   5.980  0.3561  0.0486 -2.0684
  634MOL0     H87492   0.599   8.771   5.867  0.1898  1.1640 -0.1738
  635MOL0     O87493   0.934  10.295   5.544 -0.2605  0.5219  0.2022
  635MOL0     C87494   0.844  10.259   5.461  0.1996 -0.1973  0.0003
  635MOL0     O87495   0.869  10.185   5.350 -0.0920  0.7719 -0.0806
  635MOL0     C87496   0.990  10.146   5.318  0.8581  0.1951 -0.3188
  635MOL0     C87497   1.076  10.059   5.394  0.7039 -0.2545 -0.0593
  635MOL0     C87498   1.204  10.014   5.350 -0.3800 -0.4838 -0.1354
  635MOL0     C87499   1.238  10.047   5.222 -0.3403  0.0288  0.1125
  635MOL0     O87500   1.356   9.985   5.180  0.7285  0.0760 -0.0029
  635MOL0     C87501   1.390   9.980   5.039  0.1476 -0.0907 -0.2844
  635MOL0     C87502   1.491  10.087   4.990 -1.0110 -0.0188 -0.2327
  635MOL0     C87503   1.635  10.056   5.046 -0.1575  0.0910  0.0640
  635MOL0     C87504   1.736  10.153   4.988  0.1087 -0.6138  0.4071
  635MOL0     C87505   1.885  10.122   5.027  0.0115  0.2655 -0.1478
  635MOL0     C87506   1.983  10.229   4.995 -0.0887 -0.4432  0.5608
  635MOL0     C87507   1.950  10.370   5.054 -1.2045 -0.0400 -0.2123
  635MOL0     C87508   1.933  10.371   5.205 -0.1566  0.8139 -0.2181
  635MOL0     N87509   2.060  10.367   5.270  0.2893  0.2017 -0.1744
  635MOL0     C87510   2.111  10.472   5.357 -0.2301  0.6457 -1.2392
  635MOL0     C87511   2.240  10.437   5.385 -0.4069 -0.2118 -0.1116
  635MOL0     C87512   2.346  10.503   5.461 -0.1771  0.2810 -1.3329
  635MOL0     C87513   2.429  10.400   5.538 -0.7257 -0.4025 -0.9362
  635MOL0     C87514   2.546  10.470   5.622  0.2624 -0.1641  0.3822
  635MOL0     C87515   2.617  10.368   5.705 -0.3511  0.8045 -0.2939
  635MOL0     O87516   2.692  10.273   5.624  0.6191 -0.0507 -0.7048
  635MOL0     C87517   2.785  10.189   5.684  0.5048 -1.4918  0.0176
  635MOL0     C87518   2.797  10.172   5.824 -0.3960 -0.0758  0.4832
  635MOL0     C87519   2.889  10.087   5.880  0.0593  0.5706  0.7010
  635MOL0     C87520   2.892  10.087   6.031 -0.1736 -0.4482 -0.8509
  635MOL0     C87521   2.973  10.014   5.790 -0.5607 -0.2264  0.7740
  635MOL0     C87522   3.084   9.927   5.828  0.0052 -0.3617 -0.2010
  635MOL0     O87523   3.137   9.845   5.734  0.2758 -0.3439 -0.5851
  635MOL0     C87524   3.263   9.784   5.754  1.2363  0.5164 -1.0892
  635MOL0     C87525   3.369   9.841   5.831 -0.0436 -0.6728 -0.9137
  635MOL0     C87526   3.480   9.761   5.854  0.0715 -0.3919 -0.8747
  635MOL0     C87527   3.490   9.630   5.806  0.5423  0.1305 -0.1633
  635MOL0     O87528   3.610   9.570   5.845 -0.1197  0.1635 -0.5190
  635MOL0     C87529   3.613   9.421   5.838  0.1674  0.3884  0.2664
  635MOL0     C87530   3.532   9.354   5.950  0.8318  0.3573 -0.4139
  635MOL0     C87531   3.573   9.410   6.082 -0.4310  0.2452  0.3023
  635MOL0     C87532   3.510   9.344   6.208  0.8219 -0.1032  0.1263
  635MOL0     C87533   3.588   9.411   6.327 -0.9631  0.1928  0.0172
  635MOL0     C87534   3.548   9.358   6.466  0.2878 -0.0665 -0.1998
  635MOL0     C87535   3.629   9.431   6.578  0.4343  0.9442 -0.0793
  635MOL0     C87536   3.580   9.575   6.614 -0.0417 -0.4652 -0.4657
  635MOL0    Cl87537   3.674   9.636   6.756  0.0200  0.5359 -0.3762
  635MOL0     C87538   3.387   9.589   5.718  0.1006 -0.8031 -0.0998
  635MOL0     C87539   3.280   9.662   5.697  0.5312  0.5377 -0.6203
  635MOL0     O87540   3.113   9.926   5.949  0.8773 -0.1859  0.5868
  635MOL0     C87541   2.949  10.024   5.653  0.4851  0.5781  1.0310
  635MOL0     C87542   2.867  10.120   5.594 -0.1619  0.4769 -1.0887
  635MOL0     N87543   2.271  10.312   5.318 -0.2725  0.2765  0.0768
  635MOL0     N87544   2.164  10.273   5.264 -0.0657  0.3884  0.2376
  635MOL0     C87545   1.155  10.126   5.137  0.2161  1.0236 -0.0570
  635MOL0     C87546   1.034  10.177   5.184  0.1738  0.0786  0.2847
  635MOL0     C87547   0.702  10.304   5.481 -0.7777 -0.8963 -0.0424
  635MOL0     C87548   0.610  10.223   5.418  1.5516  0.6113  0.6585
  635MOL0     C87549   0.477  10.236   5.427  0.2675 -0.0598  0.5278
  635MOL0     C87550   0.427  10.341   5.509  0.2503 -0.3476  0.2087
  635MOL0     O87551   0.291  10.338   5.521  0.1512 -0.4100 -0.3367
  635MOL0     C87552   0.230  10.460   5.570  0.0749 -0.4209 -0.7013
  635MOL0     C87553   0.075  10.442   5.585  0.7071  0.3151 -0.0718
  635MOL0     C87554  -0.006  10.551   5.511 -0.9223 -0.1826  0.2656
  635MOL0     C87555  -0.152  10.527   5.511  0.2994 -0.5544  0.4207
  635MOL0     C87556  -0.218  10.513   5.638 -0.4277 -0.2552  0.2049
  635MOL0     C87557  -0.277  10.489   5.743  0.4612 -0.0900  0.7390
  635MOL0     C87558   0.519  10.432   5.580  0.9955 -0.0660  0.0069
  635MOL0     C87559   0.656  10.416   5.559  0.5177  0.2589  0.4035
  635MOL0     C87560   0.748  10.524   5.616  0.0472 -0.0421  0.1530
  635MOL0     H87561   1.041  10.036   5.494 -4.4739  0.6209 -1.4041
  635MOL0     H87562   1.265   9.951   5.414 -0.8089 -0.2197  0.5451
  635MOL0     H87563   1.297   9.989   4.982  0.6926  1.3793 -0.9841
  635MOL0     H87564   1.422   9.876   5.030 -2.1878 -1.0015  1.1072
  635MOL0     H87565   1.495  10.079   4.881 -2.7648 -1.7698 -0.2118
  635MOL0     H87566   1.457  10.189   5.012  0.6319  0.4615  0.2264
  635MOL0     H87567   1.634  10.078   5.153 -0.5911  0.4915 -0.0204
  635MOL0     H87568   1.653   9.950   5.027 -3.1521 -0.3729 -0.6377
  635MOL0     H87569   1.722  10.158   4.880  0.5576 -1.2293  0.3122
  635MOL0     H87570   1.711  10.253   5.023  4.0937  1.2359 -1.3202
  635MOL0     H87571   1.927  10.041   4.967  3.2135  1.4159  0.3406
  635MOL0     H87572   1.896  10.094   5.133  0.4373 -1.7682 -0.6822
  635MOL0     H87573   2.085  10.199   5.021  0.1031 -2.6087 -2.2069
  635MOL0     H87574   1.991  10.238   4.887  2.2531 -2.0739  0.5261
  635MOL0     H87575   1.853  10.404   5.016 -1.9249  1.3056  2.5599
  635MOL0     H87576   2.028  10.438   5.020 -0.2662 -2.0412 -2.3485
  635MOL0     H87577   1.870  10.458   5.227  0.2402  0.8971  0.6441
  635MOL0     H87578   1.867  10.296   5.250 -0.5295  2.2942  1.8763
  635MOL0     H87579   2.053  10.555   5.397  1.7708  1.9620 -0.9533
  635MOL0     H87580   2.305  10.578   5.530  0.6101  1.0830 -1.7105
  635MOL0     H87581   2.410  10.553   5.387 -1.1599  0.3089 -2.1934
  635MOL0     H87582   2.364  10.354   5.612 -1.6773 -0.5449 -1.8350
  635MOL0     H87583   2.469  10.328   5.466 -0.1893 -1.2766  0.2127
  635MOL0     H87584   2.621  10.522   5.561 -0.7853  1.8105  0.7098
  635MOL0     H87585   2.492  10.539   5.687 -0.0700 -1.0703  1.0948
  635MOL0     H87586   2.688  10.407   5.779 -0.0351 -2.5480  1.3817
  635MOL0     H87587   2.540  10.320   5.765 -0.1944  0.9669  0.0390
  635MOL0     H87588   2.728  10.220   5.892 -0.6788  0.1020  0.0714
  635MOL0     H87589   2.964  10.159   6.071 -0.3571 -0.2088 -0.9452
  635MOL0     H87590   2.917   9.990   6.073  0.5949  0.5968  1.2616
  635MOL0     H87591   2.799  10.115   6.082  0.6628  3.9298 -1.2960
  635MOL0     H87592   3.373   9.934   5.887  0.2833 -1.9061  1.2075
  635MOL0     H87593   3.562   9.800   5.913 -0.9335  2.1534 -1.0164
  635MOL0     H87594   3.592   9.392   5.734  0.7486  0.9757 -0.0263
  635MOL0     H87595   3.717   9.393   5.855 -0.0161 -0.5711 -0.1331
  635MOL0     H87596   3.428   9.371   5.920  1.7225 -0.2353 -4.3175
  635MOL0     H87597   3.554   9.247   5.950 -0.7682  0.0001 -1.3894
  635MOL0     H87598   3.549   9.517   6.078  1.8242  0.8252 -3.8819
  635MOL0     H87599   3.682   9.401   6.088 -0.1409 -2.1467 -4.1375
  635MOL0     H87600   3.533   9.237   6.215  1.2649  0.0383  1.0219
  635MOL0     H87601   3.402   9.354   6.223  0.7031  2.8586 -1.8659
  635MOL0     H87602   3.697   9.403   6.320 -1.1278 -0.9307 -4.4546
  635MOL0     H87603   3.576   9.520   6.324  0.7231  0.3986 -2.0295
  635MOL0     H87604   3.564   9.250   6.458 -3.3834 -0.6149 -2.6282
  635MOL0     H87605   3.443   9.374   6.492  0.1520  0.4868 -1.0750
  635MOL0     H87606   3.729   9.427   6.535  0.4491  1.8380 -0.1395
  635MOL0     H87607   3.614   9.364   6.663 -2.0497  2.5336  0.8600
  635MOL0     H87608   3.473   9.583   6.634  0.0296  0.2514 -0.3503
  635MOL0     H87609   3.595   9.641   6.529 -1.8046  0.4979 -0.0691
  635MOL0     H87610   3.395   9.497   5.660  1.9662  0.2048 -1.5722
  635MOL0     H87611   3.197   9.637   5.632 -0.1615  1.8853 -0.2901
  635MOL0     H87612   3.022   9.981   5.585  0.8259  2.1703  0.3626
  635MOL0     H87613   2.860  10.132   5.487 -1.7656 -1.8119 -1.3224
  635MOL0     H87614   1.193  10.143   5.037  0.1110 -1.9729 -0.7246
  635MOL0     H87615   0.970  10.240   5.123  0.8887 -0.6966 -1.3253
  635MOL0     H87616   0.640  10.134   5.363  1.7910  0.5116  0.9503
  635MOL0     H87617   0.402  10.165   5.391 -1.1984  1.2521  0.8663
  635MOL0     H87618   0.266  10.488   5.669 -1.8013 -0.8756  0.1585
  635MOL0     H87619   0.235  10.549   5.506 -7.7862  2.0505  0.9998
  635MOL0     H87620   0.053  10.439   5.692 -1.2706  2.5919 -0.3391
  635MOL0     H87621   0.056  10.346   5.536 -2.6903  0.2828  1.0932
  635MOL0     H87622   0.013  10.645   5.564  1.1950 -0.4193  0.0132
  635MOL0     H87623   0.029  10.555   5.408 -0.6188  2.8598  0.3995
  635MOL0     H87624  -0.168  10.430   5.462  2.2680 -1.0505  0.6884
  635MOL0     H87625  -0.195  10.613   5.458  0.2416  1.0953  2.9749
  635MOL0     H87626  -0.322  10.467   5.838  0.7975 -2.9134  0.3221
  635MOL0     H87627   0.490  10.518   5.639  2.3273  0.7576 -0.4988
  635MOL0     H87628   0.839  10.529   5.555 -2.1524  1.1402 -3.2987
  635MOL0     H87629   0.695  10.618   5.598  0.7698  0.2558 -0.4904
  635MOL0     H87630   0.754  10.505   5.724  0.6024 -0.5660  0.0382
  636MOL0     O87631   2.996   1.896   4.535 -0.9639 -0.2379  0.3009
  636MOL0     C87632   2.900   1.960   4.497  0.4262  0.9171  0.9450
  636MOL0     O87633   2.899   2.080   4.434  0.1001 -0.6100 -0.1357
  636MOL0     C87634   3.008   2.163   4.457 -0.1795  0.6167 -0.3074
  636MOL0     C87635   3.035   2.246   4.347 -0.9302  0.6133 -0.2668
  636MOL0     C87636   3.148   2.326   4.342  0.4965 -0.0431  1.2149
  636MOL0     C87637   3.233   2.340   4.449 -0.1098 -0.2875 -1.0537
  636MOL0     O87638   3.343   2.417   4.450 -0.0763 -0.3598  0.3533
  636MOL0     C87639   3.435   2.408   4.338 -0.1726 -0.4230  1.1097
  636MOL0     C87640   3.544   2.509   4.360 -0.1551 -0.6930  0.7077
  636MOL0     C87641   3.670   2.483   4.267 -0.5621  0.6125 -0.6247
  636MOL0     C87642   3.792   2.572   4.293  0.0804 -0.7442  0.0423
  636MOL0     C87643   3.917   2.524   4.221 -0.2596 -0.4971  0.1276
  636MOL0     C87644   4.053   2.556   4.285  0.1968  0.0404 -0.0221
  636MOL0     C87645   4.166   2.482   4.219  0.1770 -0.6510  1.5958
  636MOL0     C87646   4.286   2.484   4.306 -0.1556  0.0657 -0.2790
  636MOL0     N87647   4.393   2.409   4.237  0.1134 -0.8649 -0.4541
  636MOL0     C87648   4.512   2.465   4.197  0.4975 -0.9166 -0.0854
  636MOL0     C87649   4.597   2.349   4.190 -0.3209 -0.0044 -0.3872
  636MOL0     C87650   4.724   2.338   4.115  0.1114  0.5539  0.3475
  636MOL0     C87651   4.838   2.422   4.171  0.0848  0.1836  0.1869
  636MOL0     C87652   4.969   2.406   4.091 -0.2741 -0.7785  0.1590
  636MOL0     C87653   5.088   2.489   4.160 -0.1119 -0.2053  0.7056
  636MOL0     O87654   5.211   2.498   4.086 -0.6078  0.1734  0.1685
  636MOL0     C87655   5.315   2.536   4.153  0.5101 -0.3500  0.1844
  636MOL0     C87656   5.309   2.569   4.290  0.2133 -0.5156 -0.0706
  636MOL0     C87657   5.428   2.618   4.354  0.4296  1.3123  0.4879
  636MOL0     C87658   5.408   2.629   4.509 -0.5216  0.2902  0.0533
  636MOL0     C87659   5.556   2.621   4.288  0.5033 -0.1958  0.2274
  636MOL0     C87660   5.691   2.647   4.359  0.2033  0.8809  0.9422
  636MOL0     O87661   5.804   2.624   4.291 -0.0448 -0.0272  0.2742
  636MOL0     C87662   5.925   2.630   4.359 -0.8858  0.8060  0.6456
  636MOL0     C87663   6.038   2.655   4.278 -0.3230  0.2052  0.7289
  636MOL0     C87664   6.168   2.643   4.330 -0.9353 -0.7735 -0.0964
  636MOL0     C87665   6.194   2.631   4.473 -0.0424 -0.1095 -0.0326
  636MOL0     O87666   6.326   2.629   4.521  0.2637 -0.3931 -0.5335
  636MOL0     C87667   6.361   2.535   4.625  0.6456 -0.1847  0.6005
  636MOL0     C87668   6.511   2.544   4.660  0.6520 -0.9013 -0.5878
  636MOL0     C87669   6.597   2.441   4.591 -0.2158  0.0260  0.1574
  636MOL0     C87670   6.746   2.479   4.612  0.6502  1.2862  0.2665
  636MOL0     C87671   6.851   2.387   4.538 -0.8055  0.2065  1.1150
  636MOL0     C87672   6.993   2.437   4.561 -0.6223  0.1907  0.6566
  636MOL0     C87673   7.099   2.353   4.495 -0.9541 -0.4208  0.3000
  636MOL0     C87674   7.123   2.221   4.550 -0.5957  0.4064 -0.2254
  636MOL0    Cl87675   7.227   2.240   4.704 -0.1191 -0.3577 -0.4508
  636MOL0     C87676   6.078   2.620   4.550  0.2527 -0.8893 -0.5816
  636MOL0     C87677   5.954   2.614   4.499 -0.0314  0.7689  0.1476
  636MOL0     O87678   5.684   2.694   4.471  0.1995 -0.6468  0.0196
  636MOL0     C87679   5.561   2.571   4.155 -0.9000  0.8844  0.6728
  636MOL0     C87680   5.439   2.540   4.089 -0.8961 -0.0203  0.5599
  636MOL0     N87681   4.525   2.240   4.236 -0.1888  0.9220 -0.3413
  636MOL0     N87682   4.408   2.280   4.261 -0.2893 -0.1019 -0.6616
  636MOL0     C87683   3.203   2.272   4.567 -0.3304  0.3563 -0.2318
  636MOL0     C87684   3.092   2.179   4.569 -0.1507  0.3312 -0.2864
  636MOL0     C87685   2.779   1.881   4.477 -0.4987 -0.3061  0.9745
  636MOL0     C87686   2.789   1.744   4.458  0.4829  0.8742  0.3616
  636MOL0     C87687   2.680   1.659   4.419 -0.6221  0.1013 -0.2854
  636MOL0     C87688   2.558   1.716   4.415 -0.2875  0.7375  0.0318
  636MOL0     O87689   2.441   1.643   4.396 -0.6106  0.5404  0.8184
  636MOL0     C87690   2.439   1.509   4.355 -1.2687  0.6245 -0.6810
  636MOL0     C87691   2.316   1.491   4.269  0.1517  0.3687  0.2567
  636MOL0     C87692   2.296   1.356   4.220 -0.2446  0.1193 -0.7702
  636MOL0     C87693   2.255   1.252   4.330 -0.0826 -0.8893 -0.0536
  636MOL0     C87694   2.123   1.297   4.385 -0.2093 -0.3507  0.5237
  636MOL0     C87695   2.019   1.337   4.446 -0.1313 -0.1976  0.1478
  636MOL0     C87696   2.547   1.854   4.421 -0.1070 -0.0045  0.1414
  636MOL0     C87697   2.654   1.944   4.457 -0.0349  0.1357 -0.5322
  636MOL0     C87698   2.618   2.085   4.471  0.6426 -1.0802 -0.1808
  636MOL0     H87699   2.977   2.247   4.255 -0.5160  0.1381 -0.5399
  636MOL0     H87700   3.165   2.375   4.246  1.3813 -3.8197 -0.7998
  636MOL0     H87701   3.401   2.424   4.235 -0.1138  0.3005  1.2023
  636MOL0     H87702   3.472   2.304   4.335  1.1895  0.0604 -1.0660
  636MOL0     H87703   3.501   2.607   4.336 -0.0020 -0.4159  1.5351
  636MOL0     H87704   3.570   2.511   4.466  3.9423  0.5853 -0.1571
  636MOL0     H87705   3.696   2.378   4.283  3.2583  0.8786 -3.5965
  636MOL0     H87706   3.635   2.511   4.168  0.6275  2.2864 -0.6211
  636MOL0     H87707   3.786   2.678   4.265  0.8679 -0.6393  0.2537
  636MOL0     H87708   3.803   2.562   4.401 -0.8164  0.9361  0.3140
  636MOL0     H87709   3.922   2.570   4.122 -1.5516  2.9385  1.4994
  636MOL0     H87710   3.910   2.415   4.213  0.0850 -0.5621  0.6154
  636MOL0     H87711   4.064   2.665   4.282 -0.2355  0.2419 -5.6972
  636MOL0     H87712   4.045   2.524   4.389  0.5509  1.7677  0.5627
  636MOL0     H87713   4.193   2.527   4.123  0.9004 -0.0826  2.0527
  636MOL0     H87714   4.133   2.378   4.205  2.5287 -1.1478 -1.3948
  636MOL0     H87715   4.305   2.591   4.313  0.0225  0.2274 -2.4382
  636MOL0     H87716   4.255   2.444   4.403 -1.8400 -0.0559 -0.8409
  636MOL0     H87717   4.541   2.564   4.161  0.6883 -0.4945  1.1678
  636MOL0     H87718   4.711   2.373   4.012  0.6796 -1.8084 -0.5845
  636MOL0     H87719   4.750   2.232   4.125 -1.6818  0.1822  1.5756
  636MOL0     H87720   4.810   2.528   4.171  3.7887  1.3225 -1.4913
  636MOL0     H87721   4.856   2.400   4.276 -1.5344  2.7150  1.0838
  636MOL0     H87722   5.001   2.301   4.088 -0.9759 -0.9801 -0.5886
  636MOL0     H87723   4.943   2.447   3.993 -1.2080  0.8473  1.0541
  636MOL0     H87724   5.055   2.589   4.190  3.6337  0.3043  3.9363
  636MOL0     H87725   5.107   2.442   4.257  2.6697  0.7634  0.7168
  636MOL0     H87726   5.221   2.572   4.354  0.3344 -1.2561  0.1429
  636MOL0     H87727   5.483   2.576   4.569 -0.5613 -2.7377 -2.3146
  636MOL0     H87728   5.309   2.588   4.529 -2.0993  3.2373 -1.1173
  636MOL0     H87729   5.408   2.732   4.545  1.7805  0.7307 -1.0463
  636MOL0     H87730   6.032   2.666   4.170  2.5844 -2.3009  0.1990
  636MOL0     H87731   6.246   2.672   4.260 -1.8651  1.4526 -0.2769
  636MOL0     H87732   6.307   2.570   4.713 -1.2665 -0.5859 -0.3460
  636MOL0     H87733   6.326   2.436   4.594 -2.4350  0.2049  2.4442
  636MOL0     H87734   6.549   2.647   4.653 -3.4994  0.8440 -0.1910
  636MOL0     H87735   6.515   2.525   4.768 -1.6967  1.3086  0.0070
  636MOL0     H87736   6.563   2.451   4.488  1.0121 -0.6890 -0.3402
  636MOL0     H87737   6.592   2.343   4.639  2.0103  0.2428  0.9613
  636MOL0     H87738   6.780   2.482   4.716 -1.1353 -2.8561  1.1952
  636MOL0     H87739   6.756   2.573   4.557 -0.4534  2.0245  1.2719
  636MOL0     H87740   6.837   2.284   4.571  1.4996 -1.1329 -1.6877
  636MOL0     H87741   6.826   2.371   4.433 -2.8691  0.7437  1.4628
  636MOL0     H87742   7.014   2.434   4.669  1.4440 -1.7889  0.2908
  636MOL0     H87743   7.005   2.539   4.523 -0.5770 -1.0913 -3.1251
  636MOL0     H87744   7.187   2.417   4.504 -3.5053  3.1152  2.6370
  636MOL0     H87745   7.082   2.333   4.389  0.9197  0.0033 -0.1195
  636MOL0     H87746   7.188   2.177   4.473 -1.2455  1.9407 -1.7318
  636MOL0     H87747   7.034   2.164   4.576 -0.4882  0.5559  0.4776
  636MOL0     H87748   6.084   2.614   4.658 -1.5739 -0.2139 -0.4113
  636MOL0     H87749   5.870   2.595   4.564 -1.0935  0.8077 -1.1672
  636MOL0     H87750   5.653   2.533   4.111 -0.7808  0.7436  1.0359
  636MOL0     H87751   5.442   2.505   3.987 -0.9013  0.3474  0.4332
  636MOL0     H87752   3.260   2.284   4.659 -0.0135  1.1376 -0.5314
  636MOL0     H87753   3.075   2.122   4.660  1.2372  1.0070  0.4228
  636MOL0     H87754   2.886   1.698   4.469  0.4973  0.5585 -0.9171
  636MOL0     H87755   2.690   1.552   4.405  1.2201  0.0524  0.9761
  636MOL0     H87756   2.532   1.481   4.305 -1.3056  1.2245 -1.1069
  636MOL0     H87757   2.426   1.438   4.437  1.0958 -1.5676 -2.0586
  636MOL0     H87758   2.324   1.557   4.182 -1.0604  2.6825  1.7878
  636MOL0     H87759   2.229   1.518   4.329 -0.0274 -0.7643  0.5288
  636MOL0     H87760   2.213   1.362   4.149  0.2717  0.9271 -1.3267
  636MOL0     H87761   2.384   1.317   4.168  0.1475  0.2039 -0.1708
  636MOL0     H87762   2.325   1.246   4.413  0.8800 -0.0099 -0.7835
  636MOL0     H87763   2.247   1.153   4.284 -0.4637 -0.4528 -0.9815
  636MOL0     H87764   1.929   1.358   4.500  0.0781  1.9785 -0.2523
  636MOL0     H87765   2.451   1.891   4.385  0.2015  0.6797  0.0090
  636MOL0     H87766   2.510   2.102   4.477  0.5902 -1.6694  1.0124
  636MOL0     H87767   2.662   2.125   4.563  1.2915 -0.8722 -0.5744
  636MOL0     H87768   2.657   2.146   4.389  2.4963  1.4495  2.3843
  637MOL0     O87769   5.380  10.014   6.829 -0.3172 -0.1920  0.1461
  637MOL0     C87770   5.346   9.896   6.806 -0.2093 -0.0802  0.2731
  637MOL0     O87771   5.421   9.797   6.746  0.0371  0.3286 -0.1509
  637MOL0     C87772   5.555   9.838   6.743  0.1090 -0.1333  0.0666
  637MOL0     C87773   5.632   9.808   6.849  0.0362  0.3558  0.5723
  637MOL0     C87774   5.769   9.836   6.848 -0.2295 -1.3515 -0.0357
  637MOL0     C87775   5.830   9.867   6.723 -0.3980 -0.6884  0.3971
  637MOL0     O87776   5.965   9.884   6.698 -0.0342  0.6511 -0.0538
  637MOL0     C87777   6.049   9.851   6.810 -0.3396 -0.9604  0.1017
  637MOL0     C87778   6.194   9.834   6.763  0.0978 -0.2728 -0.5944
  637MOL0     C87779   6.291   9.814   6.871 -0.3623  1.0615 -0.1458
  637MOL0     C87780   6.288   9.668   6.921  0.4850 -0.2884  0.2520
  637MOL0     C87781   6.392   9.641   7.030  0.2205 -0.1663  0.0616
  637MOL0     C87782   6.536   9.646   6.980 -0.2113 -0.2257  0.5554
  637MOL0     C87783   6.639   9.605   7.084 -0.6983  0.3125  0.1343
  637MOL0     C87784   6.699   9.726   7.154  0.0941 -1.0753  1.0174
  637MOL0     N87785   6.836   9.700   7.198 -0.1280 -0.2706 -0.5764
  637MOL0     C87786   6.872   9.611   7.297 -0.0006 -0.1329 -0.7554
  637MOL0     C87787   6.990   9.649   7.336 -0.6917 -0.6971 -0.1581
  637MOL0     C87788   7.065   9.573   7.447  0.2350 -0.6814  0.6127
  637MOL0     C87789   7.216   9.543   7.402 -0.9372  0.3522 -0.4343
  637MOL0     C87790   7.238   9.489   7.259  0.4659  0.7291 -0.4490
  637MOL0     C87791   7.188   9.339   7.245 -0.2472  0.5617  0.0687
  637MOL0     O87792   7.279   9.255   7.323  0.6708 -0.2480  0.8557
  637MOL0     C87793   7.418   9.256   7.287 -0.4304  0.1399  0.3914
  637MOL0     C87794   7.457   9.261   7.147  0.1558 -0.3747  0.8834
  637MOL0     C87795   7.598   9.256   7.109  0.8306  0.3055 -0.3086
  637MOL0     C87796   7.635   9.270   6.964  1.2263 -0.6382 -0.5108
  637MOL0     C87797   7.691   9.259   7.220 -0.7260 -0.8466 -0.2380
  637MOL0     C87798   7.839   9.275   7.204 -0.5089  0.1275  0.6791
  637MOL0     O87799   7.910   9.248   7.320  0.1272 -0.1460  0.1786
  637MOL0     C87800   8.043   9.277   7.320 -0.3103 -0.7093  0.4040
  637MOL0     C87801   8.132   9.190   7.272 -1.1371 -0.1876  0.5290
  637MOL0     C87802   8.272   9.219   7.284 -1.1329 -0.5073 -0.3250
  637MOL0     C87803   8.311   9.342   7.346  0.9399  0.5927  0.1580
  637MOL0     O87804   8.444   9.374   7.369 -0.1613 -0.0272 -0.7899
  637MOL0     C87805   8.548   9.314   7.294 -0.4022 -0.6554 -0.0675
  637MOL0     C87806   8.686   9.343   7.360  0.4584 -0.5905 -0.2742
  637MOL0     C87807   8.706   9.490   7.382 -0.4609 -0.2883 -0.0424
  637MOL0     C87808   8.855   9.512   7.409  0.4247 -0.0872  0.4936
  637MOL0     C87809   8.871   9.653   7.455 -0.2618 -0.2802  0.3713
  637MOL0     C87810   9.006   9.687   7.498 -0.5864  0.0188 -0.5205
  637MOL0     C87811   9.001   9.826   7.562 -0.6196  0.2522 -0.6139
  637MOL0     C87812   9.100   9.841   7.681 -1.2440  0.0147 -0.0153
  637MOL0    Cl87813   9.277   9.810   7.627 -0.3348 -0.5112  0.3484
  637MOL0     C87814   8.212   9.429   7.392  0.1072  1.3092 -0.1616
  637MOL0     C87815   8.079   9.403   7.370 -0.5996  0.3843 -0.4623
  637MOL0     O87816   7.890   9.302   7.095  0.6209  0.3356  0.6764
  637MOL0     C87817   7.651   9.258   7.356 -0.4291 -0.0052  0.6188
  637MOL0     C87818   7.518   9.242   7.385  0.7058 -0.2395  1.0524
  637MOL0     N87819   7.036   9.766   7.267 -0.1867 -0.0940  0.1516
  637MOL0     N87820   6.941   9.789   7.180  0.1056 -0.6678 -0.2875
  637MOL0     C87821   5.750   9.889   6.607  0.5152 -0.7243  0.2328
  637MOL0     C87822   5.602   9.872   6.616 -1.5707  0.9313  0.1059
  637MOL0     C87823   5.209   9.854   6.844 -0.1098 -0.0153 -0.0282
  637MOL0     C87824   5.132   9.791   6.743 -0.2529 -0.6526  0.6221
  637MOL0     C87825   5.009   9.733   6.776 -0.7094 -0.3258  0.9283
  637MOL0     C87826   4.951   9.751   6.903 -0.6626  0.3011  0.0393
  637MOL0     O87827   4.839   9.688   6.940  0.5520 -0.1179  0.1538
  637MOL0     C87828   4.779   9.575   6.871 -0.0578 -0.5468  0.6251
  637MOL0     C87829   4.687   9.591   6.755  0.7665  0.0198  0.0687
  637MOL0     C87830   4.609   9.470   6.714  0.1403 -0.4230 -0.3796
  637MOL0     C87831   4.714   9.378   6.655 -0.6215 -0.1765 -0.8618
  637MOL0     C87832   4.654   9.244   6.658 -0.4668  1.6256 -0.7428
  637MOL0     C87833   4.625   9.127   6.652  0.6444 -0.7974 -0.2782
  637MOL0     C87834   5.020   9.829   6.999  0.2034  0.7521  0.6203
  637MOL0     C87835   5.144   9.881   6.970  0.3977  0.1571  0.0151
  637MOL0     C87836   5.208   9.986   7.067 -0.4352 -0.3228 -0.1582
  637MOL0     H87837   5.587   9.769   6.940  1.3476 -0.7533  0.7779
  637MOL0     H87838   5.809   9.821   6.948 -3.1449  0.5102  1.5319
  637MOL0     H87839   6.024   9.770   6.879  2.9369 -0.7741  1.6965
  637MOL0     H87840   6.054   9.934   6.881  1.8886 -1.1304  0.2139
  637MOL0     H87841   6.204   9.750   6.695  2.3879 -1.6578  1.3009
  637MOL0     H87842   6.219   9.923   6.703 -1.0165  1.6683  1.6257
  637MOL0     H87843   6.395   9.828   6.843 -0.0599  0.9845  0.8825
  637MOL0     H87844   6.280   9.883   6.956  0.4655 -1.3645  2.0603
  637MOL0     H87845   6.192   9.639   6.964 -0.5995 -0.1276 -1.9102
  637MOL0     H87846   6.305   9.597   6.840 -1.6115 -2.5386  1.6795
  637MOL0     H87847   6.355   9.547   7.071 -1.6870 -0.3312 -1.8863
  637MOL0     H87848   6.378   9.707   7.116  2.6127  1.3040 -0.5980
  637MOL0     H87849   6.549   9.566   6.907 -1.8336 -1.5960  1.7151
  637MOL0     H87850   6.561   9.739   6.928 -2.3453  1.1607  1.8695
  637MOL0     H87851   6.719   9.563   7.023 -1.8609 -0.3470 -0.9896
  637MOL0     H87852   6.599   9.529   7.152 -1.0056  0.0358 -0.3544
  637MOL0     H87853   6.694   9.808   7.082 -3.3322 -1.4625  0.6339
  637MOL0     H87854   6.634   9.758   7.236  0.3534  1.0779  0.4320
  637MOL0     H87855   6.814   9.523   7.322 -1.8903  1.1394 -0.4081
  637MOL0     H87856   7.010   9.481   7.472 -1.2254  0.4462  1.8023
  637MOL0     H87857   7.074   9.643   7.531 -5.8326  1.0684  0.2901
  637MOL0     H87858   7.272   9.637   7.412 -3.3752  1.8034  0.5756
  637MOL0     H87859   7.251   9.475   7.480  0.7354  3.1133  1.4108
  637MOL0     H87860   7.181   9.555   7.194  0.0954  0.8875  0.0303
  637MOL0     H87861   7.346   9.495   7.239  0.3040  1.4968 -1.1286
  637MOL0     H87862   7.088   9.329   7.286  0.1451 -1.6171  0.6408
  637MOL0     H87863   7.181   9.308   7.140 -3.3771  1.1254  0.0214
  637MOL0     H87864   7.384   9.260   7.066  2.3433 -1.6192 -1.1971
  637MOL0     H87865   7.730   9.228   6.930  2.5164  1.9296 -0.3246
  637MOL0     H87866   7.639   9.377   6.941  0.3049 -0.0468  1.7833
  637MOL0     H87867   7.553   9.235   6.901 -1.2327  2.0932  0.9204
  637MOL0     H87868   8.104   9.090   7.239 -1.0206  0.2991 -1.1519
  637MOL0     H87869   8.338   9.142   7.247 -2.6632 -1.5126 -1.0959
  637MOL0     H87870   8.535   9.206   7.281 -1.0115 -0.6153  0.1991
  637MOL0     H87871   8.542   9.354   7.192  0.9981  0.5624  0.2796
  637MOL0     H87872   8.700   9.294   7.457  0.5233  0.1503  0.0962
  637MOL0     H87873   8.755   9.309   7.282  0.8330 -1.7297  0.5319
  637MOL0     H87874   8.651   9.524   7.471  2.0043  0.0257  1.4385
  637MOL0     H87875   8.680   9.543   7.289  1.5101 -1.1127 -1.1244
  637MOL0     H87876   8.917   9.497   7.321 -1.6592 -0.2955 -1.0183
  637MOL0     H87877   8.885   9.439   7.485 -1.3810  0.9149  2.2504
  637MOL0     H87878   8.840   9.718   7.373 -0.8793  0.2624  1.0237
  637MOL0     H87879   8.801   9.672   7.537 -0.1520 -0.3220  0.4753
  637MOL0     H87880   9.084   9.694   7.422  1.2636  0.1853  1.3013
  637MOL0     H87881   9.033   9.617   7.577  1.9156 -0.9680 -2.1214
  637MOL0     H87882   8.908   9.854   7.611  0.7909 -1.1186  3.2364
  637MOL0     H87883   9.018   9.908   7.492  0.5434 -2.3128 -3.5591
  637MOL0     H87884   9.088   9.757   7.750  2.1567 -1.6844 -1.2519
  637MOL0     H87885   9.085   9.940   7.723  0.2389  0.6031 -0.7892
  637MOL0     H87886   8.246   9.514   7.451 -1.3929  0.2414  2.4073
  637MOL0     H87887   8.004   9.472   7.406 -4.3119 -4.0070  1.2459
  637MOL0     H87888   7.717   9.269   7.442 -0.9174  1.1337  0.8711
  637MOL0     H87889   7.491   9.238   7.490  0.9099  0.9787  1.1697
  637MOL0     H87890   5.806   9.907   6.516  3.2685  0.0616  1.9658
  637MOL0     H87891   5.537   9.874   6.529 -0.5487 -0.7716 -0.7517
  637MOL0     H87892   5.174   9.784   6.643 -0.8048  0.0850  0.3222
  637MOL0     H87893   4.961   9.692   6.688  1.8934  0.9803 -1.2748
  637MOL0     H87894   4.866   9.515   6.842  0.2968  0.6537 -0.9281
  637MOL0     H87895   4.719   9.512   6.938  1.6157 -0.5016  2.2402
  637MOL0     H87896   4.746   9.635   6.673 -0.8929  0.3258 -0.9963
  637MOL0     H87897   4.614   9.668   6.783  2.8221  1.7678  0.9442
  637MOL0     H87898   4.551   9.427   6.796 -0.0839 -0.6157 -0.6370
  637MOL0     H87899   4.541   9.495   6.632 -0.8269  3.4478  1.4228
  637MOL0     H87900   4.805   9.360   6.713 -2.9843 -1.8390  2.7667
  637MOL0     H87901   4.726   9.407   6.551 -2.0246  2.0171 -0.4834
  637MOL0     H87902   4.609   9.021   6.646 -2.5107 -0.8319  4.0487
  637MOL0     H87903   4.964   9.853   7.088 -1.0791 -0.4934  0.1860
  637MOL0     H87904   5.312   9.953   7.078 -0.6645 -0.3611  2.5238
  637MOL0     H87905   5.213  10.086   7.024  3.7128 -1.0320 -1.7298
  637MOL0     H87906   5.152   9.977   7.161  0.9853  0.4935  0.8066
  638MOL0     O87907  11.132   7.524   2.166 -0.0635  0.1735  0.1275
  638MOL0     C87908  11.096   7.638   2.133  1.0796  1.2151 -0.6913
  638MOL0     O87909  11.177   7.736   2.084  0.1228 -0.1923 -0.5047
  638MOL0     C87910  11.317   7.739   2.088 -0.1673 -0.1348  0.7139
  638MOL0     C87911  11.399   7.667   2.178 -0.5022  0.0753  0.2275
  638MOL0     C87912  11.543   7.688   2.175 -1.1620 -0.6879 -0.0156
  638MOL0     C87913  11.609   7.759   2.076  0.8598 -0.4031 -0.1618
  638MOL0     O87914  11.744   7.765   2.073  0.1518  0.2517 -0.4731
  638MOL0     C87915  11.818   7.753   1.948  0.7214 -0.1735 -0.6748
  638MOL0     C87916  11.816   7.607   1.895 -0.3328  0.4456  0.2662
  638MOL0     C87917  11.937   7.582   1.794 -0.0662 -0.2761 -0.4432
  638MOL0     C87918  11.954   7.684   1.676  0.9285  0.0412 -0.9660
  638MOL0     C87919  12.053   7.624   1.584  0.1252 -0.2335 -0.4764
  638MOL0     C87920  12.059   7.696   1.454  0.7634 -0.1072 -0.8746
  638MOL0     C87921  12.171   7.627   1.364  0.3321 -0.0111  0.2574
  638MOL0     C87922  12.130   7.500   1.293 -0.6729  0.5117 -0.6766
  638MOL0     N87923  12.241   7.422   1.227  0.3521 -0.4126 -0.9613
  638MOL0     C87924  12.335   7.472   1.141 -0.1968 -0.4375  0.7415
  638MOL0     C87925  12.404   7.361   1.105 -0.2248 -0.3425  0.6308
  638MOL0     C87926  12.509   7.350   1.007  0.8121  0.0173 -0.5577
  638MOL0     C87927  12.655   7.372   1.060  1.3953  0.0516 -0.8536
  638MOL0     C87928  12.685   7.516   1.103 -0.2623 -0.4667 -0.0155
  638MOL0     C87929  12.780   7.528   1.217 -0.6793  0.4558 -1.1614
  638MOL0     O87930  12.908   7.494   1.169 -0.0133  0.4179 -0.5526
  638MOL0     C87931  13.003   7.557   1.243 -0.7002 -0.3850 -0.6473
  638MOL0     C87932  13.039   7.693   1.211 -0.4121 -0.3196 -0.7407
  638MOL0     C87933  13.134   7.765   1.290 -0.6048 -0.7563  1.1137
  638MOL0     C87934  13.166   7.898   1.226 -0.3006  0.4796 -0.5376
  638MOL0     C87935  13.201   7.708   1.395 -0.4943  0.0669  0.4407
  638MOL0     C87936  13.317   7.773   1.456  0.5229  0.1391  0.4130
  638MOL0     O87937  13.432   7.697   1.446  0.0386  0.0305 -0.6102
  638MOL0     C87938  13.552   7.753   1.493  0.7400  1.0119  0.2780
  638MOL0     C87939  13.674   7.728   1.429 -0.2411 -0.4287  0.9539
  638MOL0     C87940  13.792   7.780   1.480 -0.0408 -0.4558 -0.8322
  638MOL0     C87941  13.792   7.849   1.604  0.9375  0.4766 -0.2374
  638MOL0     O87942  13.912   7.892   1.647  0.8581 -0.7380  0.3141
  638MOL0     C87943  13.918   8.026   1.705 -1.2631  0.0190  0.4762
  638MOL0     C87944  13.996   8.126   1.612 -0.7350  0.1048 -0.5513
  638MOL0     C87945  13.971   8.273   1.646  1.1280 -0.8018  0.5519
  638MOL0     C87946  14.026   8.357   1.533  0.0006 -0.3119  0.4899
  638MOL0     C87947  13.997   8.501   1.554  0.0689  0.5775 -0.4544
  638MOL0     C87948  14.011   8.582   1.425  0.4717 -0.3952 -0.1483
  638MOL0     C87949  14.031   8.730   1.449  0.1715 -1.4510 -0.3875
  638MOL0     C87950  14.066   8.823   1.323 -0.1025 -0.5193  0.8897
  638MOL0    Cl87951  13.936   8.824   1.207  0.1246  0.2451 -0.3271
  638MOL0     C87952  13.672   7.879   1.660 -0.1309 -0.0059  0.6628
  638MOL0     C87953  13.551   7.822   1.612 -0.0259 -0.1467 -0.2474
  638MOL0     O87954  13.302   7.882   1.506 -0.3312  0.0622  0.0961
  638MOL0     C87955  13.152   7.578   1.433 -0.0561 -0.3531 -0.4358
  638MOL0     C87956  13.063   7.504   1.361  0.3139  0.1428  0.0014
  638MOL0     N87957  12.360   7.250   1.173 -0.2813  0.0414  0.0470
  638MOL0     N87958  12.260   7.293   1.234 -0.4561  0.2925 -0.3937
  638MOL0     C87959  11.525   7.816   1.980  0.0193 -0.1618 -0.8249
  638MOL0     C87960  11.385   7.814   1.994  0.3021 -0.1338  0.2653
  638MOL0     C87961  10.959   7.674   2.169 -0.4678 -0.2163  0.2827
  638MOL0     C87962  10.936   7.776   2.260 -0.5116  0.0899 -0.1363
  638MOL0     C87963  10.811   7.801   2.312  0.2589 -0.4910 -0.5295
  638MOL0     C87964  10.698   7.734   2.269 -0.2755 -0.1155 -0.5966
  638MOL0     O87965  10.588   7.751   2.340 -0.6038  0.3249 -0.0627
  638MOL0     C87966  10.574   7.658   2.453  0.2511 -0.2536 -0.2069
  638MOL0     C87967  10.462   7.559   2.431  0.9644 -0.2007 -0.7038
  638MOL0     C87968  10.328   7.635   2.450 -0.5871  0.3758 -0.2041
  638MOL0     C87969  10.301   7.770   2.396  0.3286  0.7768 -0.0985
  638MOL0     C87970  10.151   7.788   2.412 -0.2643  1.0109 -0.6985
  638MOL0     C87971  10.031   7.815   2.414  0.1406  0.1967  0.8357
  638MOL0     C87972  10.714   7.637   2.170 -0.5254  0.3579 -0.0886
  638MOL0     C87973  10.844   7.615   2.120  0.1948 -0.5633  0.6012
  638MOL0     C87974  10.859   7.529   2.000 -0.6946 -0.6868 -0.4560
  638MOL0     H87975  11.365   7.587   2.243  0.1734  0.2207  0.7751
  638MOL0     H87976  11.611   7.633   2.238  2.0055 -0.4767 -2.9229
  638MOL0     H87977  11.922   7.779   1.968  1.6140 -1.8847 -2.7025
  638MOL0     H87978  11.782   7.830   1.879  0.6939 -1.5466 -2.2589
  638MOL0     H87979  11.820   7.536   1.978 -0.2544 -1.2393 -1.1387
  638MOL0     H87980  11.720   7.595   1.844 -1.0049  1.6301  1.1961
  638MOL0     H87981  12.027   7.586   1.855  0.7937 -1.0602 -1.6229
  638MOL0     H87982  11.924   7.478   1.762  0.6822 -1.0574  1.5927
  638MOL0     H87983  11.854   7.695   1.633 -1.0181  0.8136  3.2186
  638MOL0     H87984  11.993   7.780   1.713  2.0993 -1.1710  1.1108
  638MOL0     H87985  12.023   7.522   1.557 -1.8093  0.7428 -2.3432
  638MOL0     H87986  12.142   7.628   1.647 -1.6482  0.6028  2.1539
  638MOL0     H87987  11.960   7.690   1.407  0.0985  2.4318  0.0134
  638MOL0     H87988  12.078   7.803   1.466  3.5096 -0.7810  1.9782
  638MOL0     H87989  12.269   7.623   1.413 -1.0389 -0.3376  3.2027
  638MOL0     H87990  12.195   7.694   1.281 -1.9469  2.2637  1.2927
  638MOL0     H87991  12.083   7.433   1.365 -1.2812 -0.5415 -2.0103
  638MOL0     H87992  12.050   7.523   1.222 -2.2125  2.8050  1.6351
  638MOL0     H87993  12.344   7.571   1.096 -0.3762 -1.0432 -0.6503
  638MOL0     H87994  12.476   7.421   0.930 -0.4087 -0.9572 -0.9536
  638MOL0     H87995  12.516   7.248   0.969  2.1029 -0.3846  0.6543
  638MOL0     H87996  12.666   7.296   1.138 -3.0657 -0.1173 -0.1690
  638MOL0     H87997  12.722   7.326   0.986  0.6907 -2.7467  0.1261
  638MOL0     H87998  12.746   7.568   1.029  1.8228 -1.9818  0.5341
  638MOL0     H87999  12.593   7.566   1.134  0.7772  2.6296 -1.6135
  638MOL0     H88000  12.776   7.630   1.257 -0.5551 -0.5174  1.5091
  638MOL0     H88001  12.754   7.453   1.292  1.5978 -0.4972 -1.2401
  638MOL0     H88002  12.982   7.736   1.129 -0.4335 -1.9177 -1.6151
  638MOL0     H88003  13.100   7.916   1.141 -1.0638 -0.9096 -0.2768
  638MOL0     H88004  13.268   7.901   1.188 -0.0353  1.2623  0.2203
  638MOL0     H88005  13.163   7.979   1.299 -0.1311  0.8039 -0.8898
  638MOL0     H88006  13.662   7.651   1.353 -2.7240 -0.5828  1.4045
  638MOL0     H88007  13.891   7.765   1.436  1.2557  0.6292  1.5515
  638MOL0     H88008  13.819   8.070   1.725 -1.5137 -0.4146  0.1972
  638MOL0     H88009  13.966   8.017   1.803 -2.1142  0.8847  0.9912
  638MOL0     H88010  14.099   8.090   1.604 -0.7793 -0.3467  0.6363
  638MOL0     H88011  13.955   8.122   1.511 -0.1958  0.6314 -0.7955
  638MOL0     H88012  14.003   8.300   1.747  0.7193  0.1392  0.4327
  638MOL0     H88013  13.862   8.278   1.655  0.8995 -1.8078 -1.2356
  638MOL0     H88014  13.982   8.332   1.436 -1.5735  1.5501  0.6680
  638MOL0     H88015  14.134   8.349   1.517 -0.1652  0.0107 -0.8787
  638MOL0     H88016  13.893   8.503   1.590  0.2350  0.9426  0.0075
  638MOL0     H88017  14.066   8.533   1.633  1.3988 -0.7965 -1.0065
  638MOL0     H88018  13.923   8.565   1.362 -0.1266  0.0647  0.5454
  638MOL0     H88019  14.094   8.541   1.367 -0.7198 -1.6589 -1.0254
  638MOL0     H88020  14.101   8.746   1.532  1.4580 -1.0479 -1.5142
  638MOL0     H88021  13.937   8.779   1.475 -0.5678 -1.3613 -2.9160
  638MOL0     H88022  14.159   8.786   1.279 -1.3709 -1.1009 -1.4761
  638MOL0     H88023  14.078   8.929   1.344 -1.7491  0.0086 -0.5837
  638MOL0     H88024  13.664   7.934   1.753 -1.6412 -0.7766  1.0249
  638MOL0     H88025  13.466   7.833   1.678 -0.7994  1.0757 -1.3789
  638MOL0     H88026  13.194   7.526   1.519 -0.0016 -1.5800 -1.1717
  638MOL0     H88027  13.055   7.401   1.396  1.7561 -0.7346 -2.0301
  638MOL0     H88028  11.572   7.856   1.890  2.1955 -1.2398 -0.2217
  638MOL0     H88029  11.312   7.869   1.935  3.2824 -0.9072 -4.7657
  638MOL0     H88030  11.020   7.837   2.291 -0.0435 -1.5970  2.1158
  638MOL0     H88031  10.799   7.872   2.394  1.9383  0.1409 -0.8041
  638MOL0     H88032  10.664   7.597   2.469  1.3271  1.4504  0.5501
  638MOL0     H88033  10.548   7.723   2.537 -1.2106  0.0977 -0.9026
  638MOL0     H88034  10.473   7.472   2.496  1.8823 -1.4571 -2.4468
  638MOL0     H88035  10.475   7.518   2.330  0.8178  0.2190 -0.8938
  638MOL0     H88036  10.261   7.569   2.393  1.8971  0.1418 -3.1583
  638MOL0     H88037  10.289   7.645   2.551 -3.9885 -0.8121 -1.2668
  638MOL0     H88038  10.327   7.779   2.290 -0.0467  1.6367 -0.1303
  638MOL0     H88039  10.351   7.844   2.460 -0.6819  1.4960 -0.1077
  638MOL0     H88040   9.930   7.850   2.425 -1.3210 -2.6369 -2.0264
  638MOL0     H88041  10.633   7.573   2.135 -0.9921  0.3137  1.0423
  638MOL0     H88042  10.931   7.582   1.936  0.6095  2.2254  3.0643
  638MOL0     H88043  10.902   7.431   2.021 -1.3108 -1.0718 -0.9434
  638MOL0     H88044  10.761   7.512   1.955 -2.7097 -1.3446  3.6935
  639MOL0     O88045   3.199   3.343   3.957 -1.0081  0.3205 -0.2103
  639MOL0     C88046   3.187   3.457   4.006 -0.2424  0.1800  0.2751
  639MOL0     O88047   3.073   3.498   4.064  0.4076 -0.1735 -0.3955
  639MOL0     C88048   2.952   3.438   4.031  0.2881 -0.0145 -0.1746
  639MOL0     C88049   2.929   3.410   3.886  0.1442  0.3697  0.4277
  639MOL0     C88050   2.815   3.355   3.845  0.5345  0.5850  0.9396
  639MOL0     C88051   2.718   3.310   3.937  0.6157 -0.2357 -0.6514
  639MOL0     O88052   2.600   3.259   3.895  0.6562  0.0598 -0.2224
  639MOL0     C88053   2.598   3.195   3.768 -0.1504  0.2409 -0.4072
  639MOL0     C88054   2.478   3.113   3.739  0.7825  0.7304  0.7886
  639MOL0     C88055   2.510   3.014   3.617  0.0832 -0.4831  0.4390
  639MOL0     C88056   2.572   3.085   3.497 -0.5755  0.5756  0.2276
  639MOL0     C88057   2.589   2.999   3.374  0.4699  0.1621  0.2781
  639MOL0     C88058   2.461   2.907   3.340 -0.7025  0.5524  0.4396
  639MOL0     C88059   2.463   2.847   3.197  0.1191 -1.1666  0.2032
  639MOL0     C88060   2.565   2.730   3.169  0.4889 -0.2389  0.1288
  639MOL0     N88061   2.697   2.789   3.154  0.2366 -0.0212 -0.0390
  639MOL0     C88062   2.798   2.755   3.234 -0.0115 -0.1027 -0.3061
  639MOL0     C88063   2.891   2.851   3.212 -0.3036  0.5321  0.5892
  639MOL0     C88064   3.029   2.853   3.281 -0.2534 -0.3130 -0.4159
  639MOL0     C88065   3.122   2.735   3.250  0.0260  0.3975 -0.1116
  639MOL0     C88066   3.137   2.710   3.100  0.1449 -0.6760 -0.6708
  639MOL0     C88067   3.244   2.608   3.069 -0.5603  0.9267  0.1545
  639MOL0     O88068   3.192   2.493   3.136 -0.5666 -0.2230  0.0682
  639MOL0     C88069   3.252   2.376   3.121 -0.3157 -0.6270 -0.4197
  639MOL0     C88070   3.225   2.280   3.212  0.9573 -0.8516  0.4861
  639MOL0     C88071   3.296   2.162   3.217  0.2334  0.6510 -0.0772
  639MOL0     C88072   3.262   2.072   3.334  0.5637 -0.1798 -0.4810
  639MOL0     C88073   3.402   2.139   3.132  0.0045 -0.2564 -0.4089
  639MOL0     C88074   3.486   2.013   3.132  0.0456  0.0535 -0.7622
  639MOL0     O88075   3.579   2.011   3.026  0.0414  0.7965 -0.2115
  639MOL0     C88076   3.688   1.927   3.035 -0.7617 -1.1845  0.0126
  639MOL0     C88077   3.671   1.807   2.971  0.4601 -0.0115 -0.0254
  639MOL0     C88078   3.779   1.714   2.954  0.3327 -0.1824 -1.1297
  639MOL0     C88079   3.909   1.760   2.998  1.2644  0.2514  0.1250
  639MOL0     O88080   4.016   1.681   2.981 -0.6004  0.2957  0.6358
  639MOL0     C88081   4.136   1.693   3.068  0.4416 -0.5944 -0.0666
  639MOL0     C88082   4.199   1.550   3.066  0.4104 -0.7633  0.5368
  639MOL0     C88083   4.333   1.541   3.142 -0.1385 -1.0710 -0.1787
  639MOL0     C88084   4.443   1.504   3.044  0.0700 -0.1055  0.3911
  639MOL0     C88085   4.574   1.461   3.121  0.9889  1.2214 -1.5589
  639MOL0     C88086   4.624   1.566   3.222 -0.1505 -0.0949  0.0061
  639MOL0     C88087   4.768   1.533   3.261  1.0323  0.0623 -0.2467
  639MOL0     C88088   4.873   1.547   3.146 -0.1744  0.6073  1.0619
  639MOL0    Cl88089   5.046   1.549   3.207  0.0051 -0.0789  0.4720
  639MOL0     C88090   3.930   1.888   3.057  0.3905 -0.5151 -0.0356
  639MOL0     C88091   3.816   1.967   3.073  0.1278  0.2930  1.1848
  639MOL0     O88092   3.479   1.935   3.229  0.0114 -0.0924 -0.0416
  639MOL0     C88093   3.430   2.233   3.030 -0.1006  0.3596 -0.2730
  639MOL0     C88094   3.354   2.346   3.027  0.6949 -0.2118 -0.4556
  639MOL0     N88095   2.844   2.936   3.115  0.5425 -0.6231  1.1041
  639MOL0     N88096   2.737   2.892   3.072  0.8984 -0.3569 -0.2158
  639MOL0     C88097   2.729   3.340   4.074 -0.7987 -0.6904 -0.7801
  639MOL0     C88098   2.847   3.411   4.117  0.8867  0.7444 -0.5845
  639MOL0     C88099   3.305   3.539   4.024  0.2341  1.1968  0.2861
  639MOL0     C88100   3.298   3.647   4.117 -0.5232 -0.9011 -0.6021
  639MOL0     C88101   3.415   3.721   4.139 -0.9171  0.2759  0.2435
  639MOL0     C88102   3.538   3.685   4.071  0.0390 -0.1694 -0.9537
  639MOL0     O88103   3.665   3.749   4.088  0.2102 -0.6906  0.2895
  639MOL0     C88104   3.675   3.845   4.193  0.2272  1.5320  0.7757
  639MOL0     C88105   3.814   3.859   4.249  0.0648  0.0284 -0.5604
  639MOL0     C88106   3.901   3.895   4.133 -0.3957  0.0115 -0.2016
  639MOL0     C88107   4.025   3.955   4.186  0.0773  0.5505  0.2280
  639MOL0     C88108   4.121   3.974   4.076  0.1672 -0.2833  0.4764
  639MOL0     C88109   4.197   3.977   3.975  1.6496  0.1788  0.1739
  639MOL0     C88110   3.538   3.584   3.982  0.3624  0.3573 -0.2385
  639MOL0     C88111   3.424   3.508   3.953  0.0957 -1.0634  0.1817
  639MOL0     C88112   3.437   3.411   3.842  0.1226 -0.2130  0.2930
  639MOL0     H88113   2.993   3.447   3.807 -1.4477 -1.7077 -1.9955
  639MOL0     H88114   2.799   3.340   3.739  1.7084 -0.2829  0.8754
  639MOL0     H88115   2.681   3.123   3.770 -0.5650 -0.2981 -1.4934
  639MOL0     H88116   2.596   3.271   3.689 -0.2404 -0.5210 -1.1526
  639MOL0     H88117   2.448   3.055   3.827 -2.2355  0.8369 -0.0433
  639MOL0     H88118   2.392   3.174   3.708 -0.0824 -1.6261 -1.8126
  639MOL0     H88119   2.589   2.946   3.649  0.3677 -0.5585 -0.3931
  639MOL0     H88120   2.424   2.954   3.587  0.8294 -0.5711 -1.7056
  639MOL0     H88121   2.501   3.167   3.488 -0.8853  0.3135  0.2688
  639MOL0     H88122   2.665   3.135   3.523 -0.0121  0.4678 -1.4439
  639MOL0     H88123   2.685   2.950   3.359 -0.7194 -1.2957 -4.3097
  639MOL0     H88124   2.588   3.072   3.292 -0.8194 -0.6364 -0.4543
  639MOL0     H88125   2.456   2.821   3.407 -2.4808 -0.0136 -0.3607
  639MOL0     H88126   2.369   2.965   3.340 -1.9217 -1.2155 -2.0674
  639MOL0     H88127   2.473   2.938   3.138 -5.6341 -0.0806  0.3631
  639MOL0     H88128   2.366   2.811   3.161  0.5612  0.0728 -2.4863
  639MOL0     H88129   2.571   2.646   3.239  4.6773  0.6244  1.0824
  639MOL0     H88130   2.545   2.689   3.070  0.3898  2.7558 -1.2164
  639MOL0     H88131   2.803   2.675   3.308  1.0404  0.8751  0.7267
  639MOL0     H88132   3.014   2.850   3.390 -0.9705  0.4495 -0.4818
  639MOL0     H88133   3.077   2.949   3.263  2.0485 -1.3550 -0.1990
  639MOL0     H88134   3.224   2.755   3.283  1.2905 -1.6182 -2.4941
  639MOL0     H88135   3.082   2.642   3.291 -0.8549  0.5211 -0.6771
  639MOL0     H88136   3.045   2.686   3.048 -1.1223 -0.4828  1.3797
  639MOL0     H88137   3.168   2.811   3.071  0.9106 -0.7680 -0.2322
  639MOL0     H88138   3.250   2.589   2.961 -0.3120 -2.8563  0.6660
  639MOL0     H88139   3.344   2.636   3.103 -0.1347 -0.1602 -0.1616
  639MOL0     H88140   3.151   2.298   3.290 -1.2623 -2.5965 -1.0902
  639MOL0     H88141   3.240   1.969   3.305 -0.8844 -0.7130  2.1983
  639MOL0     H88142   3.168   2.109   3.377  0.7261  0.4379 -0.6547
  639MOL0     H88143   3.343   2.060   3.407 -0.3697 -1.1371  0.4355
  639MOL0     H88144   3.576   1.769   2.935 -1.6583  1.1210  3.8534
  639MOL0     H88145   3.772   1.612   2.917 -0.3398 -1.8610  3.0959
  639MOL0     H88146   4.211   1.765   3.034 -1.1171  1.4008  0.5713
  639MOL0     H88147   4.106   1.727   3.168  1.9086  0.9607 -0.1075
  639MOL0     H88148   4.132   1.482   3.119 -1.5236 -0.1708 -1.0133
  639MOL0     H88149   4.208   1.509   2.965  1.0145 -1.7297  0.9700
  639MOL0     H88150   4.321   1.459   3.213 -3.6677 -3.2611 -2.9672
  639MOL0     H88151   4.358   1.634   3.193  0.7594 -0.9679 -0.7730
  639MOL0     H88152   4.465   1.587   2.976  0.4604  0.6309  1.3982
  639MOL0     H88153   4.398   1.427   2.981 -0.0998  1.1923 -1.1573
  639MOL0     H88154   4.541   1.370   3.172 -0.8709  2.2497 -0.8174
  639MOL0     H88155   4.646   1.440   3.042  0.2621 -2.6422 -1.4006
  639MOL0     H88156   4.562   1.578   3.311 -0.1676  0.2194 -0.0477
  639MOL0     H88157   4.628   1.664   3.174  0.3888  0.4815  1.1910
  639MOL0     H88158   4.759   1.427   3.286 -2.1244  0.6336  1.5212
  639MOL0     H88159   4.799   1.591   3.349 -1.5237  1.7442 -0.3555
  639MOL0     H88160   4.850   1.644   3.101 -3.0937 -0.9865 -1.1938
  639MOL0     H88161   4.856   1.470   3.070  0.9986  0.2461  1.1396
  639MOL0     H88162   4.026   1.915   3.101 -1.1545  0.8376  2.7829
  639MOL0     H88163   3.820   2.060   3.128  0.1131  1.1580 -0.2432
  639MOL0     H88164   3.501   2.229   2.949 -0.2266  0.9459 -0.4193
  639MOL0     H88165   3.381   2.417   2.950  1.5497  0.9818  0.9047
  639MOL0     H88166   2.644   3.326   4.140 -2.9201  3.1644 -2.4126
  639MOL0     H88167   2.855   3.441   4.221  0.4376  0.2127 -0.3921
  639MOL0     H88168   3.202   3.674   4.161 -0.6377  0.5341 -1.6692
  639MOL0     H88169   3.400   3.800   4.212  0.2657  2.4425 -1.7411
  639MOL0     H88170   3.618   3.933   4.161 -0.1083  0.7106 -1.0209
  639MOL0     H88171   3.616   3.814   4.280  3.0122 -0.6372  2.0616
  639MOL0     H88172   3.853   3.771   4.302 -0.5974 -0.6726 -1.2118
  639MOL0     H88173   3.804   3.931   4.330 -3.6831 -2.3200  1.3604
  639MOL0     H88174   3.913   3.811   4.064 -2.3016  2.2408 -3.5323
  639MOL0     H88175   3.854   3.972   4.071  0.4317  0.1142 -0.7245
  639MOL0     H88176   4.080   3.890   4.254  1.3988 -0.2119 -1.4926
  639MOL0     H88177   3.998   4.049   4.235  3.6373  0.6982  2.2119
  639MOL0     H88178   4.256   3.970   3.886  1.3681  0.0514 -0.0023
  639MOL0     H88179   3.625   3.560   3.921  0.9248  0.7899  0.3839
  639MOL0     H88180   3.434   3.305   3.870 -3.9227 -0.9457 -2.0287
  639MOL0     H88181   3.353   3.428   3.774  0.2232 -1.0189 -0.0418
  639MOL0     H88182   3.519   3.430   3.772 -1.2820  1.5375 -0.9700
  640MOL0     O88183   0.424   4.343  11.181  0.0176 -0.2381  0.6986
  640MOL0     C88184   0.382   4.246  11.244 -0.2234 -0.3455 -1.3958
  640MOL0     O88185   0.463   4.159  11.313  0.6939 -0.2803  0.0998
  640MOL0     C88186   0.600   4.179  11.313 -0.1289 -0.5758 -1.0211
  640MOL0     C88187   0.658   4.185  11.437 -1.0388 -0.6031 -0.4865
  640MOL0     C88188   0.796   4.204  11.454 -0.2547  0.6414  0.2660
  640MOL0     C88189   0.884   4.204  11.349 -0.0728  0.2263 -0.2733
  640MOL0     O88190   1.019   4.214  11.350 -0.6063  0.2716  0.2788
  640MOL0     C88191   1.079   4.279  11.461 -0.2658 -0.5120 -0.3547
  640MOL0     C88192   1.231   4.280  11.446  0.2599  0.1523  1.1922
  640MOL0     C88193   1.275   4.137  11.461  0.2474  0.3503 -0.0925
  640MOL0     C88194   1.427   4.140  11.440  0.3924  0.0649 -0.2125
  640MOL0     C88195   1.493   3.999  11.456 -0.1192  0.3364  0.0725
  640MOL0     C88196   1.636   4.008  11.392  0.2688  0.2432  0.2286
  640MOL0     C88197   1.698   3.866  11.369 -0.0375 -0.2720 -0.1063
  640MOL0     C88198   1.852   3.888  11.335  0.2627  1.0301  0.1765
  640MOL0     N88199   1.869   3.925  11.186  1.1743 -0.2891  0.3946
  640MOL0     C88200   1.882   3.840  11.074 -0.1006 -0.2025 -0.1294
  640MOL0     C88201   1.870   3.915  10.965  0.2007 -0.0379  0.4592
  640MOL0     C88202   1.900   3.855  10.828  0.3790  0.2741  0.3005
  640MOL0     C88203   2.033   3.915  10.767  0.8083 -0.7852 -0.5751
  640MOL0     C88204   1.996   4.005  10.647 -1.1465 -0.0846 -0.0322
  640MOL0     C88205   2.111   4.007  10.546 -0.0730 -0.0723  0.3809
  640MOL0     O88206   2.239   4.037  10.618  0.1418  0.2393 -0.5381
  640MOL0     C88207   2.353   4.044  10.544  0.0146 -0.2829  0.3617
  640MOL0     C88208   2.367   4.013  10.406 -0.4637 -0.4206 -0.3449
  640MOL0     C88209   2.490   4.013  10.346 -0.0594 -0.6807  0.5466
  640MOL0     C88210   2.498   3.976  10.201  1.0542  0.6354  0.6802
  640MOL0     C88211   2.604   4.069  10.418  0.3229  0.0873 -0.1544
  640MOL0     C88212   2.751   4.069  10.370 -0.3450 -0.0715 -0.0907
  640MOL0     O88213   2.778   4.002  10.252 -0.4295  0.8739 -0.2545
  640MOL0     C88214   2.908   4.014  10.210  0.6870 -1.1467 -0.0298
  640MOL0     C88215   2.942   4.124  10.130 -0.3020 -0.4503 -0.8275
  640MOL0     C88216   3.075   4.157  10.102 -0.5064  1.0013 -0.0413
  640MOL0     C88217   3.177   4.068  10.146  0.3570  0.4622 -0.4927
  640MOL0     O88218   3.308   4.078  10.112  0.1310  0.0191 -0.1557
  640MOL0     C88219   3.381   4.202  10.106  0.7751 -0.1030 -0.6804
  640MOL0     C88220   3.412   4.225   9.958 -0.1662  0.5631 -0.4548
  640MOL0     C88221   3.463   4.363   9.916  0.3178 -0.1309 -0.3972
  640MOL0     C88222   3.407   4.404   9.775  1.1167  0.3214  0.0081
  640MOL0     C88223   3.389   4.554   9.737 -0.2831  0.2923 -0.9213
  640MOL0     C88224   3.524   4.613   9.725  0.1289  1.0331  0.0658
  640MOL0     C88225   3.595   4.566   9.592  0.7242 -0.1746 -0.0553
  640MOL0     C88226   3.692   4.674   9.544  0.2108  0.4905  0.2563
  640MOL0    Cl88227   3.597   4.831   9.510  0.1076  0.5227  0.1388
  640MOL0     C88228   3.138   3.958  10.228  0.6405  1.0404  0.4921
  640MOL0     C88229   2.999   3.930  10.252 -0.5538 -0.2473 -0.4448
  640MOL0     O88230   2.834   4.119  10.451  0.1646  0.2860  0.2440
  640MOL0     C88231   2.583   4.107  10.549  0.7960  0.4045 -0.8467
  640MOL0     C88232   2.462   4.098  10.607  0.5307  0.3596  0.1166
  640MOL0     N88233   1.848   4.047  11.005 -0.1847  0.2668  0.4962
  640MOL0     N88234   1.839   4.052  11.134  0.3831  0.4423 -0.5411
  640MOL0     C88235   0.831   4.213  11.224 -0.0449 -0.3961  0.0614
  640MOL0     C88236   0.689   4.202  11.205 -0.5278  0.5392  1.3427
  640MOL0     C88237   0.234   4.212  11.265 -0.8096  0.0391  0.6802
  640MOL0     C88238   0.198   4.109  11.354  0.8246 -0.5128 -0.1443
  640MOL0     C88239   0.068   4.098  11.401  0.2458 -0.2062  0.3404
  640MOL0     C88240  -0.036   4.182  11.346 -0.0288  0.0648 -0.1185
  640MOL0     O88241  -0.159   4.159  11.401  0.5852  0.1862  0.0542
  640MOL0     C88242  -0.268   4.247  11.383 -1.2831 -0.0827 -1.0577
  640MOL0     C88243  -0.391   4.193  11.439  0.5889 -0.7476  0.6431
  640MOL0     C88244  -0.501   4.302  11.435  0.6104 -0.1555  0.6877
  640MOL0     C88245  -0.518   4.370  11.574  0.3092  0.2216  0.7563
  640MOL0     C88246  -0.605   4.493  11.554 -0.7288  0.6972  0.3543
  640MOL0     C88247  -0.667   4.594  11.543 -0.2115 -0.1828 -0.1830
  640MOL0     C88248  -0.004   4.258  11.234  0.0589  0.1930  0.1733
  640MOL0     C88249   0.132   4.279  11.201 -0.6171  1.3601 -0.0110
  640MOL0     C88250   0.154   4.388  11.105  0.0841  0.3092  0.0743
  640MOL0     H88251   0.608   4.176  11.532 -2.6228  1.4943 -1.0432
  640MOL0     H88252   0.845   4.197  11.551  1.5315 -1.3982 -0.7032
  640MOL0     H88253   1.056   4.223  11.552 -3.3438 -0.4075 -0.9824
  640MOL0     H88254   1.054   4.385  11.468  0.3317 -0.3495 -0.5422
  640MOL0     H88255   1.266   4.335  11.359 -0.3383  0.3834  1.0919
  640MOL0     H88256   1.268   4.342  11.528  0.5654  4.1001 -1.6549
  640MOL0     H88257   1.247   4.093  11.557  0.7361  0.6589  0.1958
  640MOL0     H88258   1.234   4.071  11.384  1.0926  2.2214 -2.2685
  640MOL0     H88259   1.451   4.180  11.341  0.0279 -0.7967 -0.6575
  640MOL0     H88260   1.470   4.211  11.511  1.6667 -3.1573  2.4514
  640MOL0     H88261   1.439   3.932  11.389  0.7159  0.9425 -1.2376
  640MOL0     H88262   1.481   3.958  11.557  1.1727  0.8363  0.4440
  640MOL0     H88263   1.633   4.065  11.299  2.6548  1.4222  0.7824
  640MOL0     H88264   1.693   4.074  11.459  0.5660 -0.5340  0.7700
  640MOL0     H88265   1.651   3.816  11.284  3.1108 -2.3773 -0.7627
  640MOL0     H88266   1.680   3.806  11.459 -1.0046 -0.2427 -0.2711
  640MOL0     H88267   1.902   3.957  11.404 -0.3563 -0.5576  2.2979
  640MOL0     H88268   1.905   3.793  11.348  3.0597  1.8643 -3.4254
  640MOL0     H88269   1.905   3.734  11.072  1.4826  0.0868  0.8719
  640MOL0     H88270   1.813   3.852  10.761 -0.7354 -0.0286  1.7246
  640MOL0     H88271   1.920   3.748  10.838 -1.4429 -0.0652  0.7537
  640MOL0     H88272   2.091   3.968  10.843 -0.6105  0.1576 -0.1222
  640MOL0     H88273   2.091   3.826  10.740  1.9142  0.4661 -2.6146
  640MOL0     H88274   1.903   3.965  10.606 -0.3194 -0.5385 -1.5288
  640MOL0     H88275   1.985   4.109  10.682  1.1378 -0.0661  0.7914
  640MOL0     H88276   2.122   3.908  10.500  1.5420  0.4840 -0.5045
  640MOL0     H88277   2.093   4.087  10.475 -0.1332  0.2621  0.7689
  640MOL0     H88278   2.278   3.976  10.356 -0.6063 -0.0180 -0.3971
  640MOL0     H88279   2.405   3.983  10.144  1.0235  0.6585  0.7331
  640MOL0     H88280   2.534   3.873  10.192  2.7333  0.8332  3.6068
  640MOL0     H88281   2.567   4.039  10.144 -0.3560  1.7005  0.1033
  640MOL0     H88282   2.860   4.187  10.098 -0.4751  0.3717  1.1055
  640MOL0     H88283   3.105   4.246  10.047  0.1874 -0.6346 -2.4724
  640MOL0     H88284   3.316   4.282  10.142 -1.0235 -1.8824  0.2083
  640MOL0     H88285   3.472   4.197  10.166  1.5029  2.3200 -1.4844
  640MOL0     H88286   3.485   4.145   9.939 -1.3779 -1.0951  1.4000
  640MOL0     H88287   3.316   4.206   9.910  1.4539 -2.0725 -2.9577
  640MOL0     H88288   3.571   4.366   9.905  0.2494  2.1631 -0.8785
  640MOL0     H88289   3.427   4.431   9.995  1.6575  1.3193 -0.9803
  640MOL0     H88290   3.312   4.355   9.753 -0.4961  2.8018  0.9577
  640MOL0     H88291   3.471   4.361   9.697  0.8959 -0.2382  0.1301
  640MOL0     H88292   3.326   4.573   9.650  0.7472 -0.5210 -1.8714
  640MOL0     H88293   3.332   4.609   9.813  0.4218  0.2646 -0.3531
  640MOL0     H88294   3.582   4.587   9.815  2.1433 -1.0462 -1.6920
  640MOL0     H88295   3.506   4.721   9.727 -0.3448  1.0182 -2.0221
  640MOL0     H88296   3.518   4.546   9.518  0.2048  1.5529 -0.0327
  640MOL0     H88297   3.647   4.474   9.618  0.9043 -0.1964 -0.4908
  640MOL0     H88298   3.751   4.653   9.454 -0.3657  3.3799 -0.9217
  640MOL0     H88299   3.758   4.697   9.628  0.9183 -0.9459  0.1147
  640MOL0     H88300   3.210   3.884  10.260 -2.4565 -1.8968  1.2966
  640MOL0     H88301   2.972   3.850  10.321 -0.3018  0.7481  0.8461
  640MOL0     H88302   2.656   4.149  10.617  0.7865 -1.2391  0.2188
  640MOL0     H88303   2.451   4.136  10.708  0.5439 -1.7531  0.9495
  640MOL0     H88304   0.900   4.208  11.141 -0.3504 -0.2614 -0.2042
  640MOL0     H88305   0.649   4.186  11.105  1.0841 -2.3429  1.0364
  640MOL0     H88306   0.256   4.029  11.399  0.5869 -0.8432 -0.4187
  640MOL0     H88307   0.040   4.026  11.477  0.5829 -0.9162 -0.1905
  640MOL0     H88308  -0.238   4.344  11.423 -4.4800  0.6344 -0.1084
  640MOL0     H88309  -0.288   4.279  11.280  3.7371  1.8578 -1.7253
  640MOL0     H88310  -0.383   4.161  11.544  1.5684 -0.4613  0.6592
  640MOL0     H88311  -0.428   4.114  11.372  1.2220  1.9083 -3.1365
  640MOL0     H88312  -0.471   4.364  11.350  0.1630 -1.9616 -0.8644
  640MOL0     H88313  -0.597   4.261  11.402  0.0392  0.6621  1.3012
  640MOL0     H88314  -0.421   4.411  11.605  0.4551 -0.5217  1.3089
  640MOL0     H88315  -0.566   4.301  11.644 -0.6460 -0.8797 -0.8889
  640MOL0     H88316  -0.728   4.681  11.546 -0.3234 -0.2912  1.4197
  640MOL0     H88317  -0.074   4.299  11.161  2.1862  0.9253 -1.5715
  640MOL0     H88318   0.220   4.352  11.026  0.7034  3.1861 -0.8420
  640MOL0     H88319   0.068   4.429  11.052 -0.2455 -0.6035 -0.1144
  640MOL0     H88320   0.214   4.466  11.154 -0.9298  1.7680 -0.9078
  641MOL0     O88321   4.358   1.956   3.605 -0.2121 -0.4840 -0.3894
  641MOL0     C88322   4.342   1.839   3.564 -0.3233 -0.6333  0.8293
  641MOL0     O88323   4.443   1.750   3.569 -0.2517 -0.2437  0.3275
  641MOL0     C88324   4.561   1.780   3.628  0.6449  0.2659 -0.4861
  641MOL0     C88325   4.576   1.786   3.770  0.9680  0.0993  0.0192
  641MOL0     C88326   4.701   1.801   3.818  0.3218  0.2013  0.0288
  641MOL0     C88327   4.813   1.820   3.740 -0.5715  0.2459  0.0478
  641MOL0     O88328   4.922   1.840   3.817  0.6636  0.1533  0.3105
  641MOL0     C88329   5.031   1.915   3.761  0.2341  0.6454 -0.1600
  641MOL0     C88330   5.149   1.916   3.860 -0.2913  0.5183 -0.3659
  641MOL0     C88331   5.295   1.908   3.797 -0.1955 -0.2444 -0.4144
  641MOL0     C88332   5.326   1.773   3.731  0.0238  0.2795 -0.6395
  641MOL0     C88333   5.469   1.758   3.687 -0.1920  0.5755  1.2054
  641MOL0     C88334   5.579   1.777   3.805  0.2967 -0.5496 -0.1638
  641MOL0     C88335   5.701   1.702   3.770 -0.2289  0.8377 -0.0834
  641MOL0     C88336   5.826   1.727   3.867 -0.0761  0.3617 -0.5356
  641MOL0     N88337   5.937   1.633   3.847  0.6686  0.0139  0.3403
  641MOL0     C88338   5.950   1.515   3.916  0.4454 -0.6059  0.1709
  641MOL0     C88339   6.061   1.452   3.859 -0.6767 -1.3484 -0.4406
  641MOL0     C88340   6.132   1.325   3.890 -0.6347 -0.8749  0.6329
  641MOL0     C88341   6.278   1.331   3.857  0.2103 -0.5979  0.1368
  641MOL0     C88342   6.347   1.205   3.913 -1.0362  0.1676  0.3073
  641MOL0     C88343   6.498   1.184   3.849 -0.1314 -0.2449  0.2072
  641MOL0     O88344   6.558   1.318   3.851  0.0650 -0.2057 -1.1996
  641MOL0     C88345   6.682   1.332   3.796  0.3651 -1.0326  0.1002
  641MOL0     C88346   6.721   1.467   3.782 -0.1671  0.4833  0.2646
  641MOL0     C88347   6.840   1.500   3.723 -0.7003  0.1364 -0.2454
  641MOL0     C88348   6.855   1.641   3.684 -0.1575 -1.1993  0.2015
  641MOL0     C88349   6.938   1.395   3.691  0.9825 -0.1949  0.5021
  641MOL0     C88350   7.076   1.418   3.637 -0.0610 -0.3635  0.0029
  641MOL0     O88351   7.119   1.330   3.550  0.0987  0.6218  0.7548
  641MOL0     C88352   7.238   1.360   3.482 -0.1364  1.0686  0.1815
  641MOL0     C88353   7.315   1.248   3.428  0.4443  0.2651 -0.4353
  641MOL0     C88354   7.437   1.263   3.366 -0.0914 -0.0433  0.7730
  641MOL0     C88355   7.486   1.392   3.346 -0.3602  0.3465 -0.9285
  641MOL0     O88356   7.611   1.413   3.296 -0.2534 -0.5021 -0.0799
  641MOL0     C88357   7.710   1.367   3.395  0.6355  0.5935  0.3435
  641MOL0     C88358   7.842   1.439   3.378  0.7117 -0.1563 -0.2690
  641MOL0     C88359   7.883   1.474   3.233  0.2363 -0.5485  0.0069
  641MOL0     C88360   8.002   1.564   3.237 -0.9123  0.8565 -0.1543
  641MOL0     C88361   8.055   1.561   3.096 -0.4050  0.5633 -0.6365
  641MOL0     C88362   8.190   1.636   3.084  1.6172  0.0495  0.3149
  641MOL0     C88363   8.257   1.634   2.945 -1.0225 -0.3858  0.1684
  641MOL0     C88364   8.388   1.702   2.937  0.5427 -0.1229 -0.1859
  641MOL0    Cl88365   8.499   1.580   3.019 -0.3057 -0.2766  0.4358
  641MOL0     C88366   7.408   1.499   3.386 -0.0553  0.2277 -0.0127
  641MOL0     C88367   7.286   1.481   3.452  0.2970 -0.2641 -0.5080
  641MOL0     O88368   7.145   1.514   3.682 -0.0054 -0.4186  0.2684
  641MOL0     C88369   6.903   1.265   3.721  0.1746 -0.5633 -0.1640
  641MOL0     C88370   6.770   1.233   3.765 -0.1325 -0.5225 -0.4122
  641MOL0     N88371   6.120   1.546   3.774 -0.5595 -0.7666  0.4562
  641MOL0     N88372   6.042   1.643   3.762  0.3833 -0.2662  0.1993
  641MOL0     C88373   4.802   1.812   3.598 -0.0509 -0.8354  0.0014
  641MOL0     C88374   4.670   1.789   3.548  0.4761 -0.0951 -0.2788
  641MOL0     C88375   4.209   1.789   3.509  0.5154 -0.2919  0.6747
  641MOL0     C88376   4.209   1.661   3.443 -0.3372  1.2090 -0.0860
  641MOL0     C88377   4.088   1.597   3.404 -0.8111 -0.0393  0.9395
  641MOL0     C88378   3.966   1.660   3.410  0.3222 -0.7024 -1.2809
  641MOL0     O88379   3.856   1.579   3.382 -0.8273  0.2923 -0.4951
  641MOL0     C88380   3.728   1.638   3.359 -0.0526 -0.0466  0.2130
  641MOL0     C88381   3.654   1.543   3.263  0.2105 -0.2217 -0.4064
  641MOL0     C88382   3.507   1.581   3.260  0.3864 -0.6686 -0.0931
  641MOL0     C88383   3.427   1.506   3.159 -0.8807  0.3302  0.1324
  641MOL0     C88384   3.282   1.521   3.171  0.8915 -0.2848  0.4007
  641MOL0     C88385   3.163   1.527   3.170 -0.3980 -0.3485 -0.2439
  641MOL0     C88386   3.970   1.796   3.448  0.9925 -0.6122  0.0828
  641MOL0     C88387   4.084   1.860   3.499  0.2716 -0.7351 -0.7675
  641MOL0     C88388   4.079   2.006   3.540  0.0658 -0.3130 -0.2267
  641MOL0     H88389   4.487   1.783   3.832 -1.5378  1.0094 -3.2309
  641MOL0     H88390   4.717   1.807   3.925 -1.9536 -2.3807  0.6028
  641MOL0     H88391   4.989   2.015   3.751 -0.4210  0.5647  1.4813
  641MOL0     H88392   5.075   1.868   3.673  1.1984  2.5770 -0.7677
  641MOL0     H88393   5.141   2.002   3.928  0.4460  0.3479 -0.0527
  641MOL0     H88394   5.143   1.822   3.916 -1.3421  1.3401  0.9907
  641MOL0     H88395   5.311   1.983   3.720 -2.4930  3.8870  2.7448
  641MOL0     H88396   5.365   1.915   3.880 -0.9647 -0.8319  0.3048
  641MOL0     H88397   5.322   1.688   3.800  0.9401  0.9641  0.2857
  641MOL0     H88398   5.255   1.761   3.648 -0.9061 -0.4650  0.2275
  641MOL0     H88399   5.497   1.819   3.600  0.6806  0.4152  1.3650
  641MOL0     H88400   5.476   1.655   3.653  3.2346  1.3093 -0.8198
  641MOL0     H88401   5.592   1.884   3.824  0.6636 -0.5093 -0.6171
  641MOL0     H88402   5.533   1.731   3.893  1.9487 -1.4336  0.2843
  641MOL0     H88403   5.745   1.744   3.679 -0.7407  1.2001 -0.1670
  641MOL0     H88404   5.678   1.595   3.766 -5.1872  1.6025  1.1975
  641MOL0     H88405   5.864   1.829   3.862 -2.9007  1.4936 -0.5610
  641MOL0     H88406   5.796   1.708   3.970  2.9811  1.7426  0.7198
  641MOL0     H88407   5.886   1.471   3.991  0.3386 -1.0671 -0.1847
  641MOL0     H88408   6.091   1.251   3.820  0.8749 -2.7610  1.6586
  641MOL0     H88409   6.113   1.297   3.994 -4.4776 -0.2880  0.2400
  641MOL0     H88410   6.281   1.348   3.749  0.2823 -0.5708  0.1429
  641MOL0     H88411   6.324   1.419   3.902 -0.5469  0.4781 -1.1092
  641MOL0     H88412   6.351   1.218   4.022 -1.6031 -1.3536  0.5315
  641MOL0     H88413   6.287   1.116   3.897  0.5014 -0.9309  0.4334
  641MOL0     H88414   6.556   1.114   3.910  0.6880 -0.3459 -0.6734
  641MOL0     H88415   6.496   1.153   3.744  1.3586 -1.4350  0.5133
  641MOL0     H88416   6.650   1.540   3.819 -1.2902 -1.8095  3.0536
  641MOL0     H88417   6.959   1.676   3.689 -0.4453 -0.4482  1.2044
  641MOL0     H88418   6.799   1.709   3.749  2.0131 -0.0784  1.0267
  641MOL0     H88419   6.812   1.650   3.584  0.2086 -0.7391  0.0788
  641MOL0     H88420   7.263   1.154   3.447 -2.6972  1.5937 -1.6631
  641MOL0     H88421   7.491   1.174   3.337 -1.3686 -0.0142 -2.0505
  641MOL0     H88422   7.683   1.377   3.500  1.7225 -0.8082  0.7959
  641MOL0     H88423   7.713   1.259   3.375 -2.4005  0.7898 -1.9846
  641MOL0     H88424   7.840   1.528   3.443 -0.5453 -1.1268  1.0747
  641MOL0     H88425   7.914   1.367   3.417  1.5736  0.0530 -1.4041
  641MOL0     H88426   7.799   1.526   3.188 -0.0674 -1.1656 -0.1461
  641MOL0     H88427   7.912   1.383   3.180 -1.8210 -0.3916 -1.4648
  641MOL0     H88428   8.073   1.513   3.303 -3.1377 -1.1215  0.8923
  641MOL0     H88429   7.992   1.668   3.268  1.8114  2.0147 -2.6927
  641MOL0     H88430   8.078   1.456   3.077  2.0631  0.0918  3.6211
  641MOL0     H88431   7.981   1.592   3.022 -1.3024  0.5952  0.2430
  641MOL0     H88432   8.247   1.584   3.163  0.0871 -0.2097  1.2862
  641MOL0     H88433   8.162   1.738   3.110 -3.5630 -0.2565 -2.6418
  641MOL0     H88434   8.187   1.686   2.878 -4.0595 -1.5421  2.1998
  641MOL0     H88435   8.271   1.534   2.900  2.6431  0.5703 -1.1698
  641MOL0     H88436   8.385   1.797   2.991  1.0854 -0.2322  0.0469
  641MOL0     H88437   8.414   1.731   2.835 -2.9006  0.5772 -0.9818
  641MOL0     H88438   7.447   1.600   3.378 -0.1181  0.2854  0.3731
  641MOL0     H88439   7.226   1.566   3.485  2.2304 -0.1085  3.1575
  641MOL0     H88440   6.973   1.184   3.702 -1.4284 -1.6622 -1.7911
  641MOL0     H88441   6.741   1.130   3.780  0.2234 -0.6241 -0.4284
  641MOL0     H88442   4.893   1.813   3.540 -0.0317 -3.1057 -0.1127
  641MOL0     H88443   4.664   1.789   3.439 -1.2457 -0.1331 -0.2108
  641MOL0     H88444   4.295   1.594   3.441 -0.8724  0.5182 -0.2130
  641MOL0     H88445   4.084   1.491   3.380  2.0546 -0.4317  1.8533
  641MOL0     H88446   3.670   1.645   3.452 -3.7102 -0.6289 -1.8186
  641MOL0     H88447   3.735   1.737   3.314 -0.1546 -0.1145  0.0463
  641MOL0     H88448   3.658   1.441   3.302  1.0812  0.4641  1.4088
  641MOL0     H88449   3.694   1.546   3.161  0.2992 -1.9237 -0.4580
  641MOL0     H88450   3.464   1.553   3.357 -0.8883  2.5882  0.4021
  641MOL0     H88451   3.501   1.690   3.250  1.0872 -0.6699 -0.6589
  641MOL0     H88452   3.461   1.403   3.175  0.6309  1.0074  1.5982
  641MOL0     H88453   3.448   1.535   3.056 -0.6200 -0.8138 -0.1580
  641MOL0     H88454   3.056   1.532   3.164 -0.5741  0.2562  2.2732
  641MOL0     H88455   3.879   1.855   3.446  0.8163 -0.7791  1.7187
  641MOL0     H88456   3.980   2.039   3.509  0.8055 -1.1891 -4.0295
  641MOL0     H88457   4.074   2.018   3.648 -2.1417 -1.2623 -0.1760
  641MOL0     H88458   4.155   2.071   3.495 -0.4284  0.7422  0.4161
  642MOL0     O88459   4.786   8.376   4.015  1.1225 -0.0497 -0.0257
  642MOL0     C88460   4.743   8.268   3.969 -0.5065 -0.4313  1.2481
  642MOL0     O88461   4.820   8.151   3.956 -0.4954  0.3502  0.5278
  642MOL0     C88462   4.954   8.175   3.954  0.0025 -0.3739 -0.4026
  642MOL0     C88463   5.017   8.290   3.888  0.0543  0.5561 -0.1206
  642MOL0     C88464   5.150   8.283   3.865 -1.3400 -0.3968 -0.5267
  642MOL0     C88465   5.228   8.177   3.908 -0.0637  0.5139  0.0144
  642MOL0     O88466   5.359   8.190   3.864 -0.0960 -0.2740  0.1015
  642MOL0     C88467   5.450   8.078   3.867  0.0554 -1.0004 -0.0955
  642MOL0     C88468   5.585   8.091   3.799  0.2446 -0.2773  0.9208
  642MOL0     C88469   5.663   8.213   3.840  0.5518 -0.7658  0.7169
  642MOL0     C88470   5.654   8.264   3.988 -0.1638  0.2916  1.2873
  642MOL0     C88471   5.756   8.199   4.084 -0.0190 -0.2510  0.8012
  642MOL0     C88472   5.702   8.063   4.145 -0.0670 -0.4738  0.5654
  642MOL0     C88473   5.761   8.011   4.274  0.2907  0.2942  0.1929
  642MOL0     C88474   5.902   7.957   4.238 -0.0863  0.1770 -0.6571
  642MOL0     N88475   6.013   8.050   4.237  0.5199  0.8031  0.5278
  642MOL0     C88476   6.042   8.142   4.332  0.4974  0.6518  0.4585
  642MOL0     C88477   6.134   8.222   4.283  0.6535 -0.2857 -0.3109
  642MOL0     C88478   6.187   8.350   4.345 -0.4551 -0.4270 -0.0648
  642MOL0     C88479   6.161   8.482   4.266 -0.1736 -0.0402 -0.0845
  642MOL0     C88480   6.217   8.602   4.344  0.2408  0.0124 -0.9096
  642MOL0     C88481   6.171   8.740   4.298 -0.1813  0.1805  0.1763
  642MOL0     O88482   6.219   8.841   4.390  0.0070  0.2494  0.3535
  642MOL0     C88483   6.329   8.918   4.355 -0.7663  0.1313 -0.1245
  642MOL0     C88484   6.375   9.011   4.452  0.2784  0.2687  0.4046
  642MOL0     C88485   6.489   9.092   4.426  0.4892  0.6439  0.2618
  642MOL0     C88486   6.515   9.195   4.536 -0.1451  0.2990 -0.6725
  642MOL0     C88487   6.556   9.089   4.307 -1.1395  0.0184 -0.1541
  642MOL0     C88488   6.681   9.163   4.279  0.2135 -0.6632  0.2016
  642MOL0     O88489   6.781   9.163   4.379  0.0344 -0.9760  0.2648
  642MOL0     C88490   6.900   9.232   4.357  0.5327 -0.3978  0.0045
  642MOL0     C88491   6.961   9.263   4.234 -0.2384 -0.5432 -0.1947
  642MOL0     C88492   7.090   9.316   4.230 -0.2975 -0.4748 -0.2148
  642MOL0     C88493   7.158   9.366   4.338  1.0978 -0.2839 -0.4118
  642MOL0     O88494   7.290   9.420   4.326 -0.8945  0.6852  0.1965
  642MOL0     C88495   7.310   9.492   4.197  0.7141  0.3629  0.2558
  642MOL0     C88496   7.412   9.601   4.226  0.5388  0.3972 -0.4842
  642MOL0     C88497   7.548   9.527   4.242  0.0008  0.8553  0.0188
  642MOL0     C88498   7.667   9.621   4.248  0.2036 -0.0460  0.4674
  642MOL0     C88499   7.791   9.529   4.253  0.1376  0.2813 -0.0822
  642MOL0     C88500   7.923   9.602   4.234  1.2536  0.4064 -0.2293
  642MOL0     C88501   8.044   9.507   4.206 -0.2359  0.6117  0.2221
  642MOL0     C88502   8.152   9.526   4.321  0.6157 -0.3508  1.0758
  642MOL0    Cl88503   8.303   9.438   4.285 -0.8545 -0.2851 -0.3625
  642MOL0     C88504   7.088   9.355   4.460  0.7743  0.0650  0.0900
  642MOL0     C88505   6.970   9.284   4.472 -0.3104 -0.0660  0.4314
  642MOL0     O88506   6.672   9.253   4.192 -0.7365  0.2954 -0.1598
  642MOL0     C88507   6.525   8.998   4.220  0.1144  0.8165  0.0626
  642MOL0     C88508   6.413   8.907   4.238  0.4859  0.2519  0.2215
  642MOL0     N88509   6.160   8.181   4.144 -0.3109 -0.5121 -0.3918
  642MOL0     N88510   6.075   8.082   4.121 -0.2817 -0.0231  0.9854
  642MOL0     C88511   5.159   8.066   3.960 -0.9020 -0.2627 -0.6054
  642MOL0     C88512   5.024   8.063   3.987  0.3123 -0.8519  0.5623
  642MOL0     C88513   4.597   8.255   3.956  0.5874 -0.7020 -0.3168
  642MOL0     C88514   4.542   8.124   3.978  0.1172 -0.5248 -0.2595
  642MOL0     C88515   4.404   8.093   3.956  0.1445 -0.2333  0.4343
  642MOL0     C88516   4.319   8.203   3.924 -0.1305 -0.6279  0.3525
  642MOL0     O88517   4.183   8.193   3.914  0.0643 -0.9181 -0.1082
  642MOL0     C88518   4.102   8.305   3.948  0.2011 -0.4367  0.1766
  642MOL0     C88519   4.020   8.329   3.833  0.1784  0.0187 -0.2960
  642MOL0     C88520   3.949   8.204   3.760 -0.3088 -0.3282 -0.0774
  642MOL0     C88521   3.845   8.256   3.656  0.5717 -0.3755  0.7830
  642MOL0     C88522   3.837   8.150   3.551  0.4947 -0.1939 -0.4519
  642MOL0     C88523   3.839   8.068   3.467 -0.4712  0.1630  0.1442
  642MOL0     C88524   4.382   8.326   3.887  0.0444  0.4991 -0.0477
  642MOL0     C88525   4.518   8.359   3.907 -0.1994 -0.0285 -0.4444
  642MOL0     C88526   4.561   8.501   3.861 -0.3290  0.1840  0.1350
  642MOL0     H88527   4.956   8.365   3.840 -0.7786  0.0870  0.1750
  642MOL0     H88528   5.196   8.373   3.826 -0.5334 -0.5790 -0.0421
  642MOL0     H88529   5.399   8.003   3.806  0.2188  0.9382 -2.8354
  642MOL0     H88530   5.460   8.043   3.970 -1.3357  1.7443  1.0518
  642MOL0     H88531   5.648   8.004   3.818 -0.7462 -2.1400 -3.2415
  642MOL0     H88532   5.567   8.093   3.691  0.0077  2.1499  0.9426
  642MOL0     H88533   5.767   8.191   3.814  0.1499 -2.0426  0.1036
  642MOL0     H88534   5.639   8.294   3.772 -1.1711 -0.6174  1.4527
  642MOL0     H88535   5.676   8.371   3.978  0.4971  0.1304  0.9709
  642MOL0     H88536   5.557   8.262   4.039  0.2882  0.0687  2.1543
  642MOL0     H88537   5.779   8.263   4.170 -1.7601 -1.5176  2.3058
  642MOL0     H88538   5.848   8.187   4.025  1.8041  1.3944  3.0967
  642MOL0     H88539   5.598   8.085   4.170  0.4740  0.4953  2.0882
  642MOL0     H88540   5.708   7.982   4.072 -0.9285  0.3762 -0.4910
  642MOL0     H88541   5.701   7.929   4.315  0.3069  1.6180  3.0871
  642MOL0     H88542   5.772   8.086   4.353  0.5407  1.1917 -0.6637
  642MOL0     H88543   5.928   7.882   4.313 -2.3041  1.3089  1.3787
  642MOL0     H88544   5.892   7.903   4.143 -3.5261 -0.3243 -0.1508
  642MOL0     H88545   6.002   8.151   4.432 -0.5211  0.6998  0.0541
  642MOL0     H88546   6.296   8.354   4.339 -0.5570  1.9666 -1.9495
  642MOL0     H88547   6.157   8.350   4.450  3.1447  2.3714  1.1793
  642MOL0     H88548   6.211   8.482   4.169 -0.1427 -0.2625 -0.0680
  642MOL0     H88549   6.052   8.479   4.257 -0.6755  0.0264  3.9745
  642MOL0     H88550   6.194   8.592   4.451  1.1729  0.9232 -0.5993
  642MOL0     H88551   6.326   8.608   4.349  0.2171  3.2918 -1.6904
  642MOL0     H88552   6.206   8.760   4.197 -0.5986 -1.3411 -0.3005
  642MOL0     H88553   6.062   8.746   4.292 -0.1738 -0.6399 -1.0168
  642MOL0     H88554   6.327   9.019   4.549 -2.2024 -0.9502 -0.6549
  642MOL0     H88555   6.582   9.154   4.612  0.3645  3.3227  0.6152
  642MOL0     H88556   6.422   9.220   4.588  0.8856  0.8360  0.9760
  642MOL0     H88557   6.562   9.288   4.504  0.4090  0.9300  1.7991
  642MOL0     H88558   6.913   9.225   4.145 -0.0478 -1.0976 -0.0686
  642MOL0     H88559   7.143   9.308   4.136  0.4048  1.8669 -0.0680
  642MOL0     H88560   7.350   9.420   4.125 -1.9173  1.0037 -2.0318
  642MOL0     H88561   7.214   9.538   4.169  0.9583 -0.3109 -1.9432
  642MOL0     H88562   7.417   9.675   4.145 -1.4729  0.4422 -0.6008
  642MOL0     H88563   7.381   9.653   4.316  0.8396  0.3421 -0.3479
  642MOL0     H88564   7.570   9.467   4.153  2.3384  0.1745  0.9712
  642MOL0     H88565   7.545   9.471   4.336  0.2738  0.1682 -0.3812
  642MOL0     H88566   7.677   9.688   4.334  0.3634  0.7541 -0.1562
  642MOL0     H88567   7.669   9.681   4.156  1.2245  1.0189  1.1540
  642MOL0     H88568   7.799   9.492   4.356  1.0894  0.2651 -0.1543
  642MOL0     H88569   7.797   9.457   4.172 -3.6706  1.2176 -1.4194
  642MOL0     H88570   7.932   9.668   4.321 -0.7967 -0.2229  0.5367
  642MOL0     H88571   7.910   9.669   4.149 -2.8173  0.8181  0.5124
  642MOL0     H88572   8.078   9.527   4.104  0.8458 -3.4029 -0.3780
  642MOL0     H88573   8.011   9.403   4.198  2.8272 -0.3130 -1.9204
  642MOL0     H88574   8.095   9.499   4.411 -0.2351  0.7638  0.8819
  642MOL0     H88575   8.186   9.629   4.330  0.6520 -0.2718  0.0999
  642MOL0     H88576   7.145   9.387   4.547  1.3699  2.6216 -1.1708
  642MOL0     H88577   6.929   9.275   4.572  0.1483 -2.9740  0.4490
  642MOL0     H88578   6.567   8.989   4.121 -1.4219 -2.4333 -0.4417
  642MOL0     H88579   6.396   8.840   4.155  1.4158  3.1044 -2.4549
  642MOL0     H88580   5.215   7.976   3.983 -1.6625 -0.8718 -1.0801
  642MOL0     H88581   4.980   7.972   4.024  3.1425 -2.2318  0.8039
  642MOL0     H88582   4.604   8.046   4.021 -1.1640 -0.8160  1.1422
  642MOL0     H88583   4.380   7.987   3.970 -0.2009 -0.3291 -0.7824
  642MOL0     H88584   4.024   8.270   4.015  0.5268  0.6282  1.1486
  642MOL0     H88585   4.149   8.393   3.993  1.8147 -2.0400  1.8594
  642MOL0     H88586   4.094   8.369   3.763  0.6651 -0.9617 -0.3541
  642MOL0     H88587   3.944   8.404   3.857  0.9368  0.2706  1.4739
  642MOL0     H88588   4.030   8.151   3.709  0.0352  0.7821 -0.7166
  642MOL0     H88589   3.906   8.129   3.827  2.3002  0.2667  2.4518
  642MOL0     H88590   3.877   8.354   3.620 -0.1676 -0.1754  0.6530
  642MOL0     H88591   3.751   8.267   3.710 -0.5505 -1.7076 -0.8097
  642MOL0     H88592   3.847   7.992   3.391  2.2806 -1.4281  1.8258
  642MOL0     H88593   4.322   8.396   3.830 -0.6964 -3.1454 -4.3433
  642MOL0     H88594   4.648   8.507   3.795  1.2414 -2.2462  1.7887
  642MOL0     H88595   4.475   8.552   3.817 -1.8404 -2.2413  0.0872
  642MOL0     H88596   4.594   8.554   3.951 -0.8405 -1.0543  1.0887
  643MOL0     O88597   8.381   5.646   5.170 -0.3074 -0.0367 -0.0849
  643MOL0     C88598   8.406   5.596   5.279 -0.8062  0.3751  0.2761
  643MOL0     O88599   8.534   5.584   5.328  0.1572  0.5245 -0.0097
  643MOL0     C88600   8.644   5.624   5.254  0.5680  0.1028 -0.2845
  643MOL0     C88601   8.721   5.728   5.304 -0.0971  0.2021 -0.1209
  643MOL0     C88602   8.830   5.783   5.235 -0.2977 -0.0050  0.0805
  643MOL0     C88603   8.863   5.740   5.113 -0.2699  0.3308  0.6993
  643MOL0     O88604   8.963   5.808   5.044 -0.5578  1.1292 -0.0974
  643MOL0     C88605   8.964   5.802   4.896 -1.0265 -0.6996 -0.5396
  643MOL0     C88606   9.071   5.697   4.852  0.0881  0.0177  0.5568
  643MOL0     C88607   9.216   5.759   4.832  0.2971 -0.8405  0.0738
  643MOL0     C88608   9.304   5.663   4.763  0.0972 -0.6727 -0.3136
  643MOL0     C88609   9.349   5.550   4.859 -0.5878  0.5657 -0.6460
  643MOL0     C88610   9.495   5.574   4.924 -0.6376  1.2203 -0.5587
  643MOL0     C88611   9.587   5.454   4.890 -0.2068  0.2871  0.3743
  643MOL0     C88612   9.627   5.454   4.742 -0.5664 -0.9001  0.0785
  643MOL0     N88613   9.721   5.558   4.701 -0.3568  0.0458  0.0891
  643MOL0     C88614   9.752   5.589   4.567 -0.4234 -0.3481 -0.1828
  643MOL0     C88615   9.801   5.719   4.564  0.2444  1.1337 -0.2989
  643MOL0     C88616   9.864   5.809   4.456 -0.4713  0.4920  0.1849
  643MOL0     C88617   9.902   5.730   4.324  0.0396 -0.2781 -0.0211
  643MOL0     C88618   9.993   5.815   4.229 -0.1010  0.7627  0.0413
  643MOL0     C88619  10.074   5.739   4.126  0.1140  0.5430 -0.5195
  643MOL0     O88620  10.139   5.837   4.040  0.1746  1.4387  0.2626
  643MOL0     C88621  10.251   5.902   4.079  0.3081 -0.9897  0.0852
  643MOL0     C88622  10.274   6.025   4.034  0.5753 -0.5634 -0.1025
  643MOL0     C88623  10.392   6.095   4.081 -1.2288  0.2889  0.0933
  643MOL0     C88624  10.409   6.232   4.018 -0.4453 -0.4489  0.1628
  643MOL0     C88625  10.488   6.042   4.162  0.5177  0.5154 -0.0335
  643MOL0     C88626  10.625   6.086   4.190 -0.7920 -0.3420 -0.7667
  643MOL0     O88627  10.690   6.034   4.298 -0.2985 -0.1927 -0.1295
  643MOL0     C88628  10.825   6.043   4.302 -0.5546 -0.3230 -0.4046
  643MOL0     C88629  10.894   6.147   4.357 -0.4005 -0.3699  0.2260
  643MOL0     C88630  11.035   6.148   4.353  0.1635 -0.0942 -0.6198
  643MOL0     C88631  11.114   6.042   4.313  0.2903 -0.8514 -0.4650
  643MOL0     O88632  11.251   6.032   4.320  0.0791 -0.3856 -0.4955
  643MOL0     C88633  11.328   6.159   4.292  0.2535  0.5159 -0.0026
  643MOL0     C88634  11.458   6.118   4.245 -0.0279 -0.4135  0.7663
  643MOL0     C88635  11.571   6.205   4.296  0.4093  0.5183 -0.0589
  643MOL0     C88636  11.692   6.184   4.204 -0.7140 -0.8603  0.0285
  643MOL0     C88637  11.803   6.238   4.285 -0.2704 -0.3718 -0.0162
  643MOL0     C88638  11.936   6.207   4.205 -0.5645 -0.1349  0.8730
  643MOL0     C88639  11.985   6.065   4.196 -0.2524 -0.5643  0.8426
  643MOL0     C88640  12.115   6.062   4.111  0.0477  0.1104 -0.2569
  643MOL0    Cl88641  12.204   5.903   4.105  0.4299  0.1937  0.2384
  643MOL0     C88642  11.044   5.939   4.253  0.0886  0.3298  0.8513
  643MOL0     C88643  10.900   5.940   4.243  0.0152  0.3978 -0.0775
  643MOL0     O88644  10.679   6.159   4.103 -0.1872  0.3503 -0.7741
  643MOL0     C88645  10.450   5.920   4.210  0.3241  0.0892 -0.3762
  643MOL0     C88646  10.343   5.849   4.174 -0.2036 -0.2855  0.2995
  643MOL0     N88647   9.798   5.758   4.694 -1.0596 -0.5030  0.8688
  643MOL0     N88648   9.752   5.670   4.773 -0.5313  0.0340 -0.5854
  643MOL0     C88649   8.798   5.629   5.056  0.9787  0.1162 -0.4660
  643MOL0     C88650   8.693   5.575   5.130  0.4175  0.3444  0.2326
  643MOL0     C88651   8.299   5.568   5.369 -0.5044  0.7233  0.1022
  643MOL0     C88652   8.325   5.582   5.511  0.0498 -0.2918  0.1291
  643MOL0     C88653   8.227   5.547   5.602  0.4096 -0.4231  0.4059
  643MOL0     C88654   8.113   5.479   5.556  0.2089  0.0560 -0.3744
  643MOL0     O88655   8.033   5.431   5.658  0.2413 -0.1762  0.2969
  643MOL0     C88656   7.896   5.407   5.632 -0.5952 -0.3627 -0.1082
  643MOL0     C88657   7.799   5.426   5.749  0.3873  0.4040  0.1332
  643MOL0     C88658   7.834   5.351   5.875 -0.3474  0.5611 -0.1790
  643MOL0     C88659   7.817   5.202   5.872 -1.7931  0.1999 -0.1142
  643MOL0     C88660   7.905   5.148   5.982  0.3153 -0.1203  0.2064
  643MOL0     C88661   7.975   5.115   6.072 -0.2732 -0.0624 -0.5449
  643MOL0     C88662   8.084   5.472   5.423  0.3596  0.7825  0.0004
  643MOL0     C88663   8.180   5.507   5.323  0.4167 -0.2542 -1.0998
  643MOL0     C88664   8.155   5.475   5.179  0.2521 -0.5781 -0.1598
  643MOL0     H88665   8.707   5.767   5.405 -0.6221  1.6747 -0.7277
  643MOL0     H88666   8.885   5.864   5.280 -0.7961 -0.1176  0.9293
  643MOL0     H88667   8.991   5.900   4.853 -1.1347 -1.4318 -2.3895
  643MOL0     H88668   8.862   5.778   4.866 -1.0347 -0.9618 -0.2977
  643MOL0     H88669   9.087   5.624   4.932 -0.6360  0.6324  1.2704
  643MOL0     H88670   9.031   5.649   4.762  1.8875 -3.2205  1.2959
  643MOL0     H88671   9.206   5.845   4.765  1.1010 -1.4727 -0.8906
  643MOL0     H88672   9.251   5.790   4.931  0.0254  2.2668 -0.6865
  643MOL0     H88673   9.235   5.618   4.691  0.4016  0.5607 -1.4147
  643MOL0     H88674   9.389   5.710   4.713  1.2534  0.9311  2.8763
  643MOL0     H88675   9.357   5.456   4.805  0.3267  0.9163 -1.1388
  643MOL0     H88676   9.285   5.550   4.949  0.5807  4.0815  0.3723
  643MOL0     H88677   9.533   5.673   4.898  3.1586 -0.6659 -2.9847
  643MOL0     H88678   9.484   5.572   5.033 -0.1792  1.1417 -0.5133
  643MOL0     H88679   9.536   5.358   4.901 -0.3768 -0.0368 -2.5260
  643MOL0     H88680   9.677   5.465   4.951 -0.0238  1.7308 -0.0991
  643MOL0     H88681   9.670   5.359   4.708 -0.5349 -1.4458  1.5821
  643MOL0     H88682   9.533   5.465   4.686 -1.0020 -0.5371  0.8661
  643MOL0     H88683   9.747   5.525   4.479  0.3312 -3.1691  1.6864
  643MOL0     H88684   9.960   5.837   4.501  0.4566 -3.8722  1.4997
  643MOL0     H88685   9.802   5.893   4.426 -1.0230  0.1912  0.4804
  643MOL0     H88686   9.963   5.653   4.371  0.3045  0.4439  0.8496
  643MOL0     H88687   9.818   5.685   4.272 -1.1165  0.7453  0.9054
  643MOL0     H88688   9.922   5.879   4.176 -1.1909 -1.8987 -1.9438
  643MOL0     H88689  10.066   5.872   4.287  0.8657  0.3920 -0.7699
  643MOL0     H88690  10.145   5.673   4.176  1.6269  1.3018 -1.5936
  643MOL0     H88691  10.006   5.671   4.075 -0.3717  1.1043 -0.6422
  643MOL0     H88692  10.204   6.065   3.961 -1.2549 -1.6197  1.0111
  643MOL0     H88693  10.494   6.223   3.950  0.5004 -0.5423  1.3031
  643MOL0     H88694  10.410   6.318   4.085 -1.9228  1.4774 -2.1395
  643MOL0     H88695  10.320   6.253   3.959  0.4158 -2.2692 -1.9327
  643MOL0     H88696  10.831   6.232   4.378 -1.3576 -0.5172 -1.7798
  643MOL0     H88697  11.080   6.235   4.400 -0.2443  0.6825 -1.6152
  643MOL0     H88698  11.275   6.219   4.217 -1.3153  1.0433  1.4696
  643MOL0     H88699  11.344   6.216   4.384 -0.8320  0.2168  0.3792
  643MOL0     H88700  11.482   6.022   4.291  2.4125  0.9607  2.6322
  643MOL0     H88701  11.458   6.113   4.135  0.6920 -2.5059  0.8149
  643MOL0     H88702  11.597   6.166   4.395  1.1067  2.0382  0.3751
  643MOL0     H88703  11.536   6.308   4.306  1.8603  1.1789 -1.3429
  643MOL0     H88704  11.694   6.233   4.107 -0.1550  1.1069  0.9758
  643MOL0     H88705  11.717   6.078   4.195  1.4210 -0.3376 -0.6742
  643MOL0     H88706  11.783   6.344   4.306 -1.2603 -0.5393 -0.1033
  643MOL0     H88707  11.818   6.183   4.378 -0.0652  1.5467  1.1357
  643MOL0     H88708  12.016   6.261   4.258  0.5775 -1.2031  0.3091
  643MOL0     H88709  11.919   6.248   4.105  0.2859 -1.4574  0.1439
  643MOL0     H88710  11.901   5.999   4.170 -0.8335  0.7189 -0.7187
  643MOL0     H88711  12.023   6.043   4.296  1.8289  2.5339  0.8568
  643MOL0     H88712  12.187   6.134   4.152 -2.4403  2.4691  0.2187
  643MOL0     H88713  12.084   6.100   4.013 -3.4837 -1.0536  0.2887
  643MOL0     H88714  11.108   5.869   4.200  0.3894  1.0094  0.3027
  643MOL0     H88715  10.844   5.863   4.191  1.9062 -1.1312  0.0124
  643MOL0     H88716  10.521   5.869   4.274  0.2324  0.1869 -0.1949
  643MOL0     H88717  10.333   5.750   4.218  1.5817 -1.9349 -2.7026
  643MOL0     H88718   8.831   5.574   4.968 -2.7716  0.0514 -1.9961
  643MOL0     H88719   8.645   5.490   5.081  4.1641 -0.7069 -2.0044
  643MOL0     H88720   8.425   5.616   5.535  0.3154 -1.0893  0.1912
  643MOL0     H88721   8.243   5.550   5.709 -1.0925 -1.8090  0.7079
  643MOL0     H88722   7.855   5.476   5.558  0.6996 -1.5027 -1.9889
  643MOL0     H88723   7.878   5.305   5.596 -0.7427 -0.2114 -0.4556
  643MOL0     H88724   7.699   5.394   5.719  1.5128 -1.6795 -1.6834
  643MOL0     H88725   7.782   5.533   5.766 -1.1027  0.5509 -1.8312
  643MOL0     H88726   7.938   5.379   5.891 -0.4700  2.0735 -1.7211
  643MOL0     H88727   7.773   5.388   5.958 -1.4008  2.6941 -1.7973
  643MOL0     H88728   7.863   5.158   5.783  3.8097  3.2642  0.7672
  643MOL0     H88729   7.716   5.162   5.881 -1.9045  0.0202 -1.8282
  643MOL0     H88730   8.032   5.087   6.158 -0.6473  0.6798 -0.0488
  643MOL0     H88731   7.989   5.425   5.403  1.1224 -1.0982  0.5667
  643MOL0     H88732   8.160   5.564   5.115 -0.7148 -0.4799 -0.1018
  643MOL0     H88733   8.230   5.402   5.147 -1.6214 -2.5320 -0.3114
  643MOL0     H88734   8.057   5.429   5.168 -0.5961  1.5609 -2.8367
  644MOL0     O88735  10.774   2.958  10.825  0.0017  0.1781 -0.3604
  644MOL0     C88736  10.716   2.924  10.926  0.4319 -0.7855  0.0529
  644MOL0     O88737  10.753   2.969  11.056 -0.0876  0.4240 -0.1048
  644MOL0     C88738  10.890   2.977  11.076  0.2220  0.4626 -0.0315
  644MOL0     C88739  10.969   3.093  11.045  0.2666 -0.7768  0.6882
  644MOL0     C88740  11.102   3.078  11.069 -0.2115 -0.5020 -0.0488
  644MOL0     C88741  11.160   2.970  11.119 -0.3020  0.1449  0.6491
  644MOL0     O88742  11.298   2.946  11.126 -0.6456 -0.4050 -0.3178
  644MOL0     C88743  11.392   3.059  11.097  0.8184  0.3355 -0.1410
  644MOL0     C88744  11.390   3.164  11.215 -0.0843  0.5301 -0.0156
  644MOL0     C88745  11.483   3.279  11.199 -0.2771  0.0740  1.0266
  644MOL0     C88746  11.623   3.247  11.262 -1.1904 -0.0197 -0.1288
  644MOL0     C88747  11.705   3.372  11.266 -0.0110  0.2630 -0.4348
  644MOL0     C88748  11.833   3.342  11.343 -0.5489  0.1997  1.6811
  644MOL0     C88749  11.812   3.312  11.495  1.1596  0.3831 -0.4274
  644MOL0     C88750  11.914   3.376  11.583 -0.2497 -0.4599 -1.1560
  644MOL0     N88751  12.056   3.346  11.542 -0.1452  0.3751 -0.5435
  644MOL0     C88752  12.140   3.430  11.480 -0.1434 -0.1832 -1.0024
  644MOL0     C88753  12.253   3.356  11.471 -0.4661  1.0373  0.1649
  644MOL0     C88754  12.385   3.402  11.416 -0.4017 -0.5387 -1.1683
  644MOL0     C88755  12.419   3.322  11.290 -0.0629  0.1426  0.3378
  644MOL0     C88756  12.321   3.339  11.177  0.6018 -0.2657 -0.0279
  644MOL0     C88757  12.359   3.253  11.057  0.2801  0.4040  0.6070
  644MOL0     O88758  12.479   3.308  10.991 -0.0629 -0.5568  0.0170
  644MOL0     C88759  12.541   3.222  10.898  0.0135 -0.3092 -0.1653
  644MOL0     C88760  12.485   3.106  10.850  0.0525 -0.3481  0.7294
  644MOL0     C88761  12.550   3.017  10.758  0.9005 -0.3822 -0.8391
  644MOL0     C88762  12.470   2.890  10.723  0.7818  0.3557  0.0829
  644MOL0     C88763  12.672   3.057  10.704  0.4820 -0.0313 -0.3467
  644MOL0     C88764  12.749   2.962  10.623 -0.5907 -0.0189  1.0255
  644MOL0     O88765  12.697   2.926  10.505  0.0034 -0.0725 -0.0425
  644MOL0     C88766  12.772   2.839  10.430  0.8921 -0.4567 -1.1158
  644MOL0     C88767  12.709   2.731  10.382  0.3224  1.0730 -0.5064
  644MOL0     C88768  12.761   2.639  10.294  0.4983 -0.4561 -0.6195
  644MOL0     C88769  12.882   2.656  10.247  0.4321  0.4942  0.2454
  644MOL0     O88770  12.911   2.580  10.134 -0.1524 -0.3208  0.3675
  644MOL0     C88771  12.992   2.637  10.030  0.5331 -0.1422  0.3279
  644MOL0     C88772  12.987   2.544   9.908  0.3802 -0.6370  0.2147
  644MOL0     C88773  12.874   2.579   9.807  0.3939  0.1497  0.3401
  644MOL0     C88774  12.730   2.564   9.872  0.2124  0.6176 -0.8462
  644MOL0     C88775  12.623   2.578   9.755 -0.0105  0.5808  0.0391
  644MOL0     C88776  12.483   2.556   9.819  0.1667 -0.9143 -0.3962
  644MOL0     C88777  12.362   2.569   9.728  0.9410 -0.9825 -0.6013
  644MOL0     C88778  12.367   2.472   9.619 -0.1601 -0.4635 -0.3327
  644MOL0    Cl88779  12.353   2.303   9.695 -0.1919 -0.0561 -0.3133
  644MOL0     C88780  12.954   2.770  10.287 -0.5075  0.0943 -0.1309
  644MOL0     C88781  12.906   2.854  10.383 -0.5091  0.1215  0.5063
  644MOL0     O88782  12.871   2.959  10.645  0.2269  0.7143 -0.1093
  644MOL0     C88783  12.730   3.181  10.751 -0.3113  0.0752 -0.8176
  644MOL0     C88784  12.665   3.256  10.845 -0.3394 -0.1556  0.2712
  644MOL0     N88785  12.231   3.231  11.528 -0.0435 -0.1559 -1.0859
  644MOL0     N88786  12.108   3.224  11.572 -0.1346 -0.0997  0.3195
  644MOL0     C88787  11.080   2.864  11.158 -0.4436  0.8076 -0.0189
  644MOL0     C88788  10.944   2.871  11.146 -0.5433  0.4280  0.7167
  644MOL0     C88789  10.601   2.827  10.918 -0.1540  0.9232 -0.1840
  644MOL0     C88790  10.520   2.806  11.030  0.1393  0.3669  0.0636
  644MOL0     C88791  10.409   2.717  11.027  0.1289  0.4610  0.3897
  644MOL0     C88792  10.371   2.651  10.906 -0.4282  0.3331 -0.4358
  644MOL0     O88793  10.265   2.568  10.919 -0.0124  0.4830 -0.4229
  644MOL0     C88794  10.226   2.495  10.807  0.6858 -0.2452 -0.5387
  644MOL0     C88795  10.324   2.386  10.775  0.7817  0.7612  0.1832
  644MOL0     C88796  10.344   2.283  10.901  1.6200 -0.1523 -0.3402
  644MOL0     C88797  10.419   2.151  10.874 -0.2937 -0.6046 -0.8552
  644MOL0     C88798  10.548   2.191  10.835 -0.6403 -0.7092  0.3565
  644MOL0     C88799  10.656   2.227  10.800  0.3064  0.0234  0.2789
  644MOL0     C88800  10.448   2.685  10.794  0.5016 -0.6149  1.0899
  644MOL0     C88801  10.552   2.778  10.791  0.4039  0.2612 -0.4291
  644MOL0     C88802  10.626   2.798  10.661 -0.6183  0.0004 -0.7845
  644MOL0     H88803  10.935   3.176  10.983  1.0334  0.2671  1.6149
  644MOL0     H88804  11.155   3.169  11.041 -1.9319  1.2161  1.9364
  644MOL0     H88805  11.359   3.102  11.002  2.3091  1.3273 -0.2404
  644MOL0     H88806  11.490   3.013  11.082  0.2633 -1.7452  1.9323
  644MOL0     H88807  11.293   3.209  11.238  0.3636  0.7179  1.5864
  644MOL0     H88808  11.417   3.108  11.305  1.3248 -0.9232 -1.2815
  644MOL0     H88809  11.490   3.301  11.092  0.1041 -2.8350  0.3605
  644MOL0     H88810  11.442   3.362  11.257  0.2007  0.0171  1.4584
  644MOL0     H88811  11.614   3.227  11.369  3.5578 -0.4307  0.4227
  644MOL0     H88812  11.669   3.164  11.209 -0.3530 -2.0234  3.4391
  644MOL0     H88813  11.653   3.454  11.317 -1.8490 -0.2773 -1.3394
  644MOL0     H88814  11.724   3.410  11.166 -1.2733  1.5584 -0.2271
  644MOL0     H88815  11.889   3.260  11.296 -0.4860  0.6733  0.9086
  644MOL0     H88816  11.890   3.433  11.325 -0.9582  0.1500 -0.0694
  644MOL0     H88817  11.797   3.204  11.510  1.9556  0.2578 -0.5016
  644MOL0     H88818  11.710   3.341  11.523  0.3105 -0.0725 -2.7421
  644MOL0     H88819  11.905   3.485  11.591  2.9399 -0.0371 -2.1009
  644MOL0     H88820  11.897   3.341  11.686  2.6325  1.7819  0.2307
  644MOL0     H88821  12.109   3.520  11.428  3.0885 -0.4463 -3.7385
  644MOL0     H88822  12.460   3.371  11.489 -2.1035  0.2745  1.0461
  644MOL0     H88823  12.388   3.509  11.390 -1.3023 -0.2678 -0.2094
  644MOL0     H88824  12.520   3.341  11.253 -0.1040  0.6090  0.4557
  644MOL0     H88825  12.429   3.216  11.314 -1.1026 -0.2289 -0.7908
  644MOL0     H88826  12.226   3.305  11.219  2.3384 -1.0562  3.6595
  644MOL0     H88827  12.299   3.441  11.145 -2.3739 -1.3090 -1.7968
  644MOL0     H88828  12.359   3.144  11.073 -1.4830 -0.3510 -3.3376
  644MOL0     H88829  12.274   3.264  10.989 -0.8155  0.2557  1.9209
  644MOL0     H88830  12.388   3.070  10.885 -0.2322  0.1475  0.4488
  644MOL0     H88831  12.453   2.834  10.815 -0.2445 -0.4894 -0.5936
  644MOL0     H88832  12.508   2.842  10.632  1.9863  1.1285  0.1634
  644MOL0     H88833  12.371   2.923  10.688  0.1780 -1.0538  0.4077
  644MOL0     H88834  12.608   2.702  10.406  0.6335  1.4293  1.4139
  644MOL0     H88835  12.696   2.557  10.266 -0.5209 -1.2299  3.3943
  644MOL0     H88836  12.973   2.740  10.000 -0.9210 -0.2717  0.7139
  644MOL0     H88837  13.088   2.632  10.082  0.7832 -1.8230 -0.2177
  644MOL0     H88838  13.087   2.533   9.865 -0.3215 -1.8185 -1.2235
  644MOL0     H88839  12.968   2.447   9.954  0.3786  0.4129  2.5874
  644MOL0     H88840  12.876   2.517   9.717 -0.6688 -0.7025  0.8818
  644MOL0     H88841  12.875   2.684   9.774  0.9706  0.3229  0.8815
  644MOL0     H88842  12.703   2.627   9.958  2.6299  0.8221 -0.1733
  644MOL0     H88843  12.711   2.462   9.905 -1.3144  0.3197 -2.4798
  644MOL0     H88844  12.627   2.673   9.701 -1.5647  0.6711  0.0422
  644MOL0     H88845  12.641   2.494   9.688  2.6333  0.8201  0.3132
  644MOL0     H88846  12.471   2.631   9.897 -0.9834 -1.2430 -0.2323
  644MOL0     H88847  12.484   2.459   9.871  2.0009  0.1520  1.7532
  644MOL0     H88848  12.354   2.667   9.681 -2.8293  0.1713  1.9250
  644MOL0     H88849  12.268   2.561   9.784 -0.2140 -0.4965 -2.3742
  644MOL0     H88850  12.458   2.485   9.561  0.3329 -2.0537  0.0370
  644MOL0     H88851  12.282   2.479   9.550 -0.6650 -0.3849  0.2831
  644MOL0     H88852  13.054   2.783  10.247 -0.4361  3.1858  0.7432
  644MOL0     H88853  12.968   2.939  10.408 -0.9532  0.6609 -0.1892
  644MOL0     H88854  12.830   3.210  10.718 -0.7052  4.3252  1.1625
  644MOL0     H88855  12.697   3.353  10.882  0.8450 -0.1704 -0.6701
  644MOL0     H88856  11.133   2.782  11.204  1.6769  1.5157 -1.0293
  644MOL0     H88857  10.879   2.786  11.166 -0.8317  0.7829  1.3070
  644MOL0     H88858  10.544   2.864  11.119 -0.4400  0.7002  0.0060
  644MOL0     H88859  10.347   2.704  11.115 -1.7758  2.1746 -0.6341
  644MOL0     H88860  10.127   2.452  10.824  1.2732 -1.8340 -0.9259
  644MOL0     H88861  10.206   2.559  10.721 -0.1889 -2.8920 -2.4478
  644MOL0     H88862  10.423   2.422  10.745  1.6843 -1.4115  0.3941
  644MOL0     H88863  10.285   2.332  10.688  1.6946  0.7533 -0.2355
  644MOL0     H88864  10.384   2.331  10.990  0.9740 -0.1531 -0.0461
  644MOL0     H88865  10.243   2.246  10.922  1.4863  1.9368  3.5332
  644MOL0     H88866  10.364   2.091  10.800  3.5366 -2.2145 -2.6941
  644MOL0     H88867  10.415   2.088  10.963 -1.0828  3.2574  2.1405
  644MOL0     H88868  10.745   2.263  10.752 -1.3362  0.4508 -2.6250
  644MOL0     H88869  10.422   2.653  10.694  0.7616  0.1015  0.7905
  644MOL0     H88870  10.582   2.729  10.588  2.1708 -1.4437 -1.2423
  644MOL0     H88871  10.618   2.903  10.631 -1.1489  1.1591  2.9252
  644MOL0     H88872  10.733   2.774  10.660 -0.3702  1.0166 -0.1891
  645MOL0     O88873   7.784   2.380   1.031 -0.0792 -1.2615  0.5407
  645MOL0     C88874   7.749   2.500   0.997  0.0236  0.9473  1.0904
  645MOL0     O88875   7.817   2.611   1.037  0.1360  0.1672  0.4782
  645MOL0     C88876   7.955   2.619   1.021 -1.1741  0.7223 -0.3337
  645MOL0     C88877   8.006   2.735   1.073 -0.1173 -0.4066  0.3407
  645MOL0     C88878   8.144   2.767   1.059 -0.5920 -0.4542 -0.1334
  645MOL0     C88879   8.224   2.678   0.994 -0.1094  0.6091 -0.1009
  645MOL0     O88880   8.349   2.714   0.963 -0.5141  0.0434  0.4050
  645MOL0     C88881   8.373   2.826   0.877  0.8623  0.0032 -0.9714
  645MOL0     C88882   8.510   2.814   0.817  1.1433  0.0341 -0.7331
  645MOL0     C88883   8.602   2.914   0.882  0.1051 -0.2109  0.4868
  645MOL0     C88884   8.742   2.911   0.824 -0.1983 -0.1052  0.3656
  645MOL0     C88885   8.804   3.047   0.852 -0.4767 -0.0780  0.8032
  645MOL0     C88886   8.951   3.042   0.805  0.4983  0.1730  0.2637
  645MOL0     C88887   9.014   3.185   0.855 -0.2351  0.2600  0.6649
  645MOL0     C88888   9.170   3.179   0.860  0.2852  0.3536 -0.5367
  645MOL0     N88889   9.244   3.302   0.895  0.0296 -0.1296 -0.0706
  645MOL0     C88890   9.228   3.334   1.030  0.0629 -0.3013  0.6255
  645MOL0     C88891   9.325   3.430   1.045  0.8689  0.5675 -0.3322
  645MOL0     C88892   9.341   3.512   1.170  0.0737  0.3285  0.3301
  645MOL0     C88893   9.458   3.476   1.262 -0.1294 -0.6817 -0.0730
  645MOL0     C88894   9.573   3.582   1.251  0.4999  0.9224  0.2997
  645MOL0     C88895   9.672   3.574   1.130  0.3852 -1.2176 -0.3865
  645MOL0     O88896   9.761   3.464   1.150  0.7180 -0.4636  0.5343
  645MOL0     C88897   9.869   3.478   1.238  0.4997  0.6342 -0.3130
  645MOL0     C88898   9.907   3.598   1.309 -0.0707  1.0601 -0.6006
  645MOL0     C88899  10.022   3.598   1.391  0.4633 -0.9587 -0.1285
  645MOL0     C88900  10.042   3.729   1.461 -0.6951 -0.5902 -1.0752
  645MOL0     C88901  10.110   3.481   1.401  0.2991 -0.3323 -0.6550
  645MOL0     C88902  10.253   3.484   1.453  0.5215  0.1228 -0.7809
  645MOL0     O88903  10.334   3.378   1.418 -0.6900  0.0997 -0.6390
  645MOL0     C88904  10.463   3.356   1.458 -0.2712  0.4431 -0.3371
  645MOL0     C88905  10.549   3.461   1.484  1.0546 -0.3787 -0.1298
  645MOL0     C88906  10.691   3.440   1.513  0.6928  0.9941  0.2334
  645MOL0     C88907  10.734   3.303   1.499 -0.7234  0.6847 -0.3717
  645MOL0     O88908  10.871   3.270   1.526  0.2112  0.3582  0.2804
  645MOL0     C88909  10.904   3.139   1.573  0.3621  0.2375 -0.2869
  645MOL0     C88910  11.055   3.134   1.593  0.1375 -0.2374 -0.9124
  645MOL0     C88911  11.114   3.240   1.693  0.2874  0.3874 -0.2487
  645MOL0     C88912  11.263   3.235   1.700  0.3770  0.7494 -0.4258
  645MOL0     C88913  11.306   3.312   1.833  0.2809 -0.6326 -0.6951
  645MOL0     C88914  11.431   3.258   1.913 -0.4283 -1.2740  0.8571
  645MOL0     C88915  11.478   3.344   2.032  0.1073  0.0246  0.7139
  645MOL0     C88916  11.382   3.352   2.142  1.0252 -0.5950 -1.3374
  645MOL0    Cl88917  11.391   3.209   2.247 -0.2525 -0.3701 -0.1873
  645MOL0     C88918  10.644   3.198   1.470 -0.8020 -0.5674  0.7571
  645MOL0     C88919  10.509   3.226   1.449 -0.2742  0.4584  0.1263
  645MOL0     O88920  10.284   3.576   1.526  0.2538  0.7385 -0.6727
  645MOL0     C88921  10.055   3.364   1.345 -1.1569 -0.1043 -0.0269
  645MOL0     C88922   9.942   3.359   1.266 -0.7125 -0.5166  1.1451
  645MOL0     N88923   9.375   3.456   0.918 -0.3759 -0.3551 -1.1306
  645MOL0     N88924   9.320   3.383   0.828 -0.5322 -0.7318  0.4075
  645MOL0     C88925   8.174   2.555   0.961  0.2598  0.1082  0.5050
  645MOL0     C88926   8.042   2.521   0.974 -0.2591  0.8756 -0.9090
  645MOL0     C88927   7.613   2.505   0.929 -0.0093 -0.5431 -0.7341
  645MOL0     C88928   7.532   2.625   0.942 -0.1730  0.6370 -0.3913
  645MOL0     C88929   7.409   2.634   0.877 -1.2703  0.6063 -0.0701
  645MOL0     C88930   7.357   2.536   0.799  0.0168  0.5095 -0.2474
  645MOL0     O88931   7.231   2.558   0.754 -0.2632 -0.3140  0.6140
  645MOL0     C88932   7.184   2.451   0.666 -0.8109 -0.0110 -0.0144
  645MOL0     C88933   7.040   2.497   0.622 -0.7535 -0.0721 -0.1053
  645MOL0     C88934   6.941   2.486   0.736 -0.7848  0.6998 -0.8586
  645MOL0     C88935   6.856   2.352   0.744 -0.4934  0.4951  0.4992
  645MOL0     C88936   6.761   2.350   0.853  0.6118  0.2932  0.3907
  645MOL0     C88937   6.691   2.349   0.953  0.1210 -0.3493  0.1735
  645MOL0     C88938   7.433   2.419   0.787  0.1062  0.6902  0.0546
  645MOL0     C88939   7.557   2.401   0.851  0.1149  0.6825  0.1338
  645MOL0     C88940   7.638   2.280   0.816  0.2483  0.5915  0.0238
  645MOL0     H88941   7.940   2.810   1.115 -0.4096 -1.0184  0.9807
  645MOL0     H88942   8.192   2.864   1.066  1.1160 -1.2412 -0.1662
  645MOL0     H88943   8.358   2.920   0.931 -2.3535 -0.6778 -0.4693
  645MOL0     H88944   8.305   2.825   0.792  1.0489 -0.2734 -1.1173
  645MOL0     H88945   8.544   2.710   0.812 -1.6637 -0.9725 -0.6349
  645MOL0     H88946   8.494   2.847   0.714 -1.8022 -0.8856 -0.6648
  645MOL0     H88947   8.560   3.012   0.860 -1.1523 -0.4923  1.5093
  645MOL0     H88948   8.608   2.889   0.989  0.9780  0.1035  0.5175
  645MOL0     H88949   8.807   2.829   0.856 -0.6424 -0.5138  0.2383
  645MOL0     H88950   8.747   2.889   0.717 -0.6409  1.8940 -0.1182
  645MOL0     H88951   8.801   3.077   0.957 -3.1224  0.9784  0.4930
  645MOL0     H88952   8.745   3.121   0.798 -2.0845 -1.5303  0.4601
  645MOL0     H88953   9.009   2.961   0.849  1.6011 -0.7563 -2.6225
  645MOL0     H88954   8.967   3.017   0.699 -0.8339  0.7540 -0.1013
  645MOL0     H88955   8.976   3.209   0.954 -2.0414  0.7021 -0.0925
  645MOL0     H88956   8.976   3.259   0.784 -1.3659  1.8623  2.8277
  645MOL0     H88957   9.199   3.103   0.933 -1.0221  1.7899  1.6003
  645MOL0     H88958   9.193   3.154   0.756  3.1295  4.6817 -1.2091
  645MOL0     H88959   9.151   3.304   1.100 -1.3426 -0.6882 -0.9837
  645MOL0     H88960   9.249   3.505   1.229 -0.9318  2.2247 -0.8958
  645MOL0     H88961   9.359   3.612   1.129 -2.9235  1.8526  2.3886
  645MOL0     H88962   9.420   3.476   1.364  0.5811 -3.5628  0.2889
  645MOL0     H88963   9.479   3.369   1.250  1.6240 -0.5648  1.5876
  645MOL0     H88964   9.514   3.673   1.241 -0.5910  0.4295  1.8655
  645MOL0     H88965   9.623   3.600   1.346  2.5006  1.1242 -0.7495
  645MOL0     H88966   9.614   3.558   1.039  0.9905 -0.6611 -0.8716
  645MOL0     H88967   9.734   3.661   1.109 -0.2738 -1.2368 -2.6294
  645MOL0     H88968   9.842   3.684   1.298 -3.1047 -0.9344  0.4135
  645MOL0     H88969  10.003   3.712   1.562  2.1590  0.3642  0.2944
  645MOL0     H88970   9.988   3.816   1.424  2.1554  2.2124  0.8085
  645MOL0     H88971  10.145   3.767   1.461 -1.1893  0.8511 -0.2530
  645MOL0     H88972  10.516   3.564   1.487 -0.8440 -0.9675  2.2585
  645MOL0     H88973  10.762   3.521   1.528  2.5975 -0.8651  1.9027
  645MOL0     H88974  10.859   3.119   1.670 -0.3711 -1.7027 -0.9685
  645MOL0     H88975  10.870   3.064   1.501  2.1184 -0.2282 -0.6804
  645MOL0     H88976  11.074   3.033   1.633 -0.8118  0.4650  1.4889
  645MOL0     H88977  11.106   3.154   1.498 -0.2682  1.1024 -0.8602
  645MOL0     H88978  11.069   3.221   1.791  1.0343 -1.8491 -0.2893
  645MOL0     H88979  11.089   3.341   1.658  0.2536 -0.2205 -2.0644
  645MOL0     H88980  11.308   3.286   1.614 -0.3352  2.7731  0.3704
  645MOL0     H88981  11.303   3.133   1.698 -2.1187 -0.3007 -0.9783
  645MOL0     H88982  11.331   3.412   1.798  2.9593 -0.8494  0.3113
  645MOL0     H88983  11.230   3.314   1.912 -1.0734 -1.3678 -1.9393
  645MOL0     H88984  11.513   3.244   1.841  0.1034 -1.3060  1.4642
  645MOL0     H88985  11.409   3.159   1.955 -1.6808 -1.5831 -0.4393
  645MOL0     H88986  11.517   3.441   1.999  1.9477 -0.3838  1.5489
  645MOL0     H88987  11.565   3.290   2.072  1.9429 -1.0794 -4.0607
  645MOL0     H88988  11.278   3.353   2.107 -0.3557  0.2726  2.3508
  645MOL0     H88989  11.390   3.438   2.208 -4.0089  0.2744 -1.5111
  645MOL0     H88990  10.676   3.098   1.444 -0.8671 -1.0914  2.5963
  645MOL0     H88991  10.428   3.156   1.429  2.4742 -2.8435 -0.3912
  645MOL0     H88992  10.120   3.278   1.358  2.6288  2.4101 -0.5495
  645MOL0     H88993   9.924   3.257   1.234 -0.8437 -1.0607  2.8741
  645MOL0     H88994   8.245   2.486   0.917 -0.1384  0.2984 -0.4670
  645MOL0     H88995   8.011   2.427   0.929 -0.4356  0.2601  0.4297
  645MOL0     H88996   7.584   2.706   0.992  2.8452 -0.3379 -1.7168
  645MOL0     H88997   7.347   2.722   0.888 -2.2483  0.3188 -2.6008
  645MOL0     H88998   7.255   2.442   0.584  1.6137 -2.2412  2.1575
  645MOL0     H88999   7.183   2.353   0.713  0.6543 -0.4596 -0.8599
  645MOL0     H89000   7.004   2.440   0.536  2.1744  0.3415 -1.7201
  645MOL0     H89001   7.045   2.603   0.594  0.7311  0.4940  2.0840
  645MOL0     H89002   6.994   2.507   0.829  1.1985  0.1652 -1.7945
  645MOL0     H89003   6.863   2.562   0.729 -2.1524 -0.2683  2.2103
  645MOL0     H89004   6.921   2.264   0.759  0.1697  0.8464 -0.1950
  645MOL0     H89005   6.814   2.334   0.644  2.0541  2.5825 -1.0940
  645MOL0     H89006   6.636   2.344   1.045 -0.9322 -2.5365 -0.5028
  645MOL0     H89007   7.397   2.333   0.731  0.5316  0.0641  0.7296
  645MOL0     H89008   7.742   2.306   0.797  0.4229 -1.1187 -1.5629
  645MOL0     H89009   7.630   2.197   0.887  0.9757 -2.3134 -3.0651
  645MOL0     H89010   7.612   2.244   0.717  0.6286  2.1786 -0.6805
  646MOL0     O89011   8.105   3.356   7.685  0.2294  0.0502 -0.8021
  646MOL0     C89012   8.104   3.363   7.563  0.0394  0.6283 -0.6798
  646MOL0     O89013   8.146   3.259   7.476  0.0827  0.2957  0.5634
  646MOL0     C89014   8.195   3.143   7.531  0.3488 -0.1973  0.1501
  646MOL0     C89015   8.288   3.140   7.633  0.4918 -0.0383  0.6466
  646MOL0     C89016   8.336   3.025   7.689 -0.3722 -0.6919  1.4423
  646MOL0     C89017   8.307   2.903   7.632 -0.1139  0.4218  0.0976
  646MOL0     O89018   8.375   2.789   7.688  0.0387  0.4818  0.1770
  646MOL0     C89019   8.285   2.688   7.740 -0.1923  0.1725  0.4306
  646MOL0     C89020   8.370   2.577   7.806 -0.4852  0.2401 -0.1130
  646MOL0     C89021   8.445   2.505   7.698  0.0422 -0.0676  0.1909
  646MOL0     C89022   8.469   2.358   7.732  0.2294 -0.3581  1.0709
  646MOL0     C89023   8.517   2.262   7.624  0.5612  1.1160 -0.0583
  646MOL0     C89024   8.668   2.259   7.627  0.5670 -0.6782  0.1038
  646MOL0     C89025   8.725   2.201   7.502  0.0379 -0.4214 -0.4260
  646MOL0     C89026   8.868   2.166   7.518  0.0037  0.8236 -0.4661
  646MOL0     N89027   8.966   2.283   7.532  0.2106  0.2933  0.5965
  646MOL0     C89028   9.047   2.325   7.426  0.0191 -1.0100 -0.4417
  646MOL0     C89029   9.144   2.399   7.483  0.6024  0.0633  0.3238
  646MOL0     C89030   9.246   2.472   7.401  0.3084 -0.8327  0.7254
  646MOL0     C89031   9.368   2.515   7.481  0.5376  0.5248  0.2599
  646MOL0     C89032   9.465   2.576   7.378  0.5663 -0.8562  0.3183
  646MOL0     C89033   9.613   2.578   7.425  0.0877 -0.1521 -0.1455
  646MOL0     O89034   9.683   2.452   7.420  1.2284 -0.0292 -0.2662
  646MOL0     C89035   9.759   2.416   7.311  0.2718 -0.0229  0.1039
  646MOL0     C89036   9.899   2.410   7.338  0.3657 -0.2957  0.3894
  646MOL0     C89037  10.000   2.396   7.243 -0.2858  0.1632  0.2997
  646MOL0     C89038  10.141   2.380   7.289 -0.1401 -0.3477  0.3648
  646MOL0     C89039   9.962   2.373   7.106  0.2173  0.2619  0.0327
  646MOL0     C89040  10.049   2.337   6.991 -0.8983 -0.2672 -0.5842
  646MOL0     O89041   9.985   2.280   6.884  0.5993 -0.3065  0.1042
  646MOL0     C89042  10.046   2.241   6.768  0.4251 -0.2733 -1.1554
  646MOL0     C89043  10.165   2.175   6.762  0.2738 -0.7161  0.3866
  646MOL0     C89044  10.214   2.145   6.635 -0.7024 -0.3297  0.5441
  646MOL0     C89045  10.141   2.176   6.514  0.7780 -0.2982  0.6526
  646MOL0     O89046  10.186   2.139   6.389 -0.0246 -0.6419  0.3725
  646MOL0     C89047  10.321   2.139   6.357 -0.1666 -0.5323 -0.3014
  646MOL0     C89048  10.336   2.113   6.207  0.1074  0.6672  0.2743
  646MOL0     C89049  10.475   2.152   6.154 -0.4531  0.6006 -0.7086
  646MOL0     C89050  10.500   2.083   6.017 -1.1978  0.0098 -1.0033
  646MOL0     C89051  10.592   2.169   5.927  0.6907  0.2661 -0.9355
  646MOL0     C89052  10.518   2.296   5.862 -0.5670 -0.0894  0.0022
  646MOL0     C89053  10.597   2.316   5.734  0.2316  0.6054  0.1862
  646MOL0     C89054  10.535   2.247   5.615  0.5792 -0.3272  0.3204
  646MOL0    Cl89055  10.608   2.292   5.463  0.1339  0.6824  0.1488
  646MOL0     C89056  10.021   2.249   6.528  0.2576 -0.1442 -0.0596
  646MOL0     C89057   9.980   2.278   6.657  0.5070 -0.4018  0.1285
  646MOL0     O89058  10.158   2.397   6.991 -0.5876 -0.3153 -0.1484
  646MOL0     C89059   9.816   2.371   7.086 -0.1476  0.3480  0.5131
  646MOL0     C89060   9.722   2.396   7.185 -0.4330  0.1526 -1.0945
  646MOL0     N89061   9.119   2.404   7.619 -0.0275 -1.1785  0.4090
  646MOL0     N89062   9.020   2.330   7.648 -0.0087 -0.3224  0.0360
  646MOL0     C89063   8.209   2.900   7.531 -0.0885 -1.2026  1.3195
  646MOL0     C89064   8.154   3.017   7.475  0.4141 -1.1386 -0.7452
  646MOL0     C89065   8.052   3.487   7.507 -0.5465 -0.1361  0.7350
  646MOL0     C89066   8.032   3.490   7.366  0.1728 -0.3291  0.9407
  646MOL0     C89067   7.989   3.614   7.303 -0.2321  0.3669 -0.1998
  646MOL0     C89068   7.966   3.732   7.377  0.7100  0.5468  0.2906
  646MOL0     O89069   7.925   3.851   7.340  0.2315  0.7351  1.2765
  646MOL0     C89070   7.884   3.865   7.203  0.6975 -0.2009  0.0715
  646MOL0     C89071   7.802   3.993   7.184  0.0656 -0.3160  0.1005
  646MOL0     C89072   7.884   4.128   7.173  0.6155  1.3019  0.3115
  646MOL0     C89073   7.804   4.227   7.085  0.0535 -0.0186 -0.3184
  646MOL0     C89074   7.838   4.358   7.138  0.2269 -0.6230 -0.9832
  646MOL0     C89075   7.852   4.482   7.153  0.3231  0.6603  0.4762
  646MOL0     C89076   7.990   3.724   7.510  0.2938 -0.7954 -0.4746
  646MOL0     C89077   8.027   3.608   7.578  0.0348  1.2263  0.0177
  646MOL0     C89078   8.066   3.644   7.727  0.0044 -0.0330  0.4206
  646MOL0     H89079   8.321   3.237   7.669 -1.4753  0.4233  1.2914
  646MOL0     H89080   8.400   3.024   7.777  0.2104  1.1123  1.0656
  646MOL0     H89081   8.214   2.657   7.663 -0.8631 -2.2074  1.9100
  646MOL0     H89082   8.234   2.746   7.817  1.4880  1.6458  0.5131
  646MOL0     H89083   8.439   2.620   7.880 -0.9759 -0.1925  0.6122
  646MOL0     H89084   8.304   2.503   7.852  0.4851 -1.7115 -1.6958
  646MOL0     H89085   8.388   2.505   7.605 -1.0190  0.6510  0.8132
  646MOL0     H89086   8.545   2.545   7.679  2.7591 -5.5312  0.9485
  646MOL0     H89087   8.531   2.360   7.821  4.0477  2.8302 -1.3492
  646MOL0     H89088   8.367   2.324   7.753 -0.5653 -0.0974 -1.8346
  646MOL0     H89089   8.483   2.307   7.530 -3.6025  1.0917  1.2540
  646MOL0     H89090   8.479   2.160   7.630 -1.0722  1.5851 -1.4611
  646MOL0     H89091   8.697   2.363   7.642 -0.1600 -0.1039 -2.0917
  646MOL0     H89092   8.695   2.203   7.717 -0.6435  0.7734  1.4308
  646MOL0     H89093   8.710   2.274   7.423 -0.3757 -0.8783 -0.7776
  646MOL0     H89094   8.672   2.110   7.471 -0.8218  0.0387 -0.3515
  646MOL0     H89095   8.876   2.103   7.607  0.0576  4.7577  2.6136
  646MOL0     H89096   8.901   2.121   7.424  2.6101  0.0117  0.7450
  646MOL0     H89097   9.023   2.310   7.321 -3.2012  1.3235 -0.1844
  646MOL0     H89098   9.199   2.554   7.345  1.8835 -0.5856 -0.3055
  646MOL0     H89099   9.270   2.404   7.318 -2.9860 -1.2769 -0.0089
  646MOL0     H89100   9.332   2.589   7.554  2.0724  1.4320  0.1328
  646MOL0     H89101   9.405   2.434   7.544  0.5432 -0.8844 -1.4675
  646MOL0     H89102   9.460   2.533   7.278 -2.3029 -1.7228  0.7451
  646MOL0     H89103   9.431   2.679   7.365 -0.7595 -1.4650 -1.2360
  646MOL0     H89104   9.672   2.653   7.371  0.6033  2.0102  3.1587
  646MOL0     H89105   9.622   2.605   7.530  1.9979 -0.6516 -0.1334
  646MOL0     H89106   9.922   2.408   7.444 -1.7196  0.8616  0.9421
  646MOL0     H89107  10.197   2.473   7.275  0.4153 -0.8764 -1.1379
  646MOL0     H89108  10.199   2.299   7.243  1.4000  0.7297  0.3465
  646MOL0     H89109  10.145   2.356   7.396  3.9183 -1.7591  0.0763
  646MOL0     H89110  10.208   2.149   6.858  1.0069  0.4576  0.3942
  646MOL0     H89111  10.308   2.091   6.626  1.3633  2.8980  1.1223
  646MOL0     H89112  10.371   2.233   6.383 -0.8861 -0.4457  0.8276
  646MOL0     H89113  10.376   2.065   6.415  0.0859 -0.7398 -0.8025
  646MOL0     H89114  10.314   2.007   6.192  1.2833  0.6462 -1.6207
  646MOL0     H89115  10.266   2.160   6.138 -0.4672 -1.9600 -1.0880
  646MOL0     H89116  10.554   2.118   6.222 -2.5542 -1.9543  0.6107
  646MOL0     H89117  10.486   2.261   6.150 -2.5742  1.1147  2.8041
  646MOL0     H89118  10.405   2.066   5.966 -2.8420  0.9769  1.5026
  646MOL0     H89119  10.552   1.990   6.041  0.2888  1.6814  3.3058
  646MOL0     H89120  10.682   2.186   5.988  0.0841 -0.3904  0.1651
  646MOL0     H89121  10.628   2.106   5.845  1.5599  2.1722 -2.0978
  646MOL0     H89122  10.532   2.378   5.932  3.3051  1.6215 -2.4225
  646MOL0     H89123  10.416   2.269   5.833  0.4312 -2.7750 -1.3683
  646MOL0     H89124  10.696   2.268   5.737 -1.2431 -2.9383 -2.0323
  646MOL0     H89125  10.586   2.422   5.709 -1.0823  0.1816 -1.1583
  646MOL0     H89126  10.431   2.281   5.608  0.6356  0.0679  1.2932
  646MOL0     H89127  10.548   2.139   5.626  2.7074 -0.2513 -0.9101
  646MOL0     H89128   9.966   2.277   6.439  0.8047  2.6679  0.3865
  646MOL0     H89129   9.888   2.333   6.667  0.2596 -0.7752 -0.0942
  646MOL0     H89130   9.774   2.347   6.990 -1.3104 -0.8031  1.2871
  646MOL0     H89131   9.617   2.383   7.158 -0.5457 -1.8515  0.0602
  646MOL0     H89132   8.186   2.800   7.496  2.0251 -0.3270 -3.2461
  646MOL0     H89133   8.083   3.023   7.394 -0.5093 -0.0681  0.1077
  646MOL0     H89134   8.032   3.394   7.316 -0.6082 -0.5767  1.4077
  646MOL0     H89135   7.962   3.603   7.198  0.4767 -1.5103 -0.2229
  646MOL0     H89136   7.969   3.871   7.134  0.0790  2.8485 -0.5841
  646MOL0     H89137   7.816   3.784   7.176 -1.0848  1.1482  0.3137
  646MOL0     H89138   7.730   4.011   7.265 -0.2034  0.6010 -0.3258
  646MOL0     H89139   7.744   3.986   7.091 -0.2086  0.6646  0.1856
  646MOL0     H89140   7.894   4.160   7.277  1.8399 -2.5647  1.5611
  646MOL0     H89141   7.985   4.114   7.132 -0.2490  1.4405 -2.0444
  646MOL0     H89142   7.697   4.243   7.101 -0.3698 -0.4361 -2.4148
  646MOL0     H89143   7.832   4.230   6.980 -1.5279  0.2381 -0.7539
  646MOL0     H89144   7.856   4.588   7.168 -1.8953  0.9032 -0.3645
  646MOL0     H89145   7.959   3.808   7.571  2.0270 -1.8995  2.1188
  646MOL0     H89146   8.041   3.552   7.779 -3.3753  0.7588  0.4735
  646MOL0     H89147   8.172   3.670   7.736  0.1136  0.7922 -2.3167
  646MOL0     H89148   7.995   3.712   7.775 -2.1903  0.0694 -2.6482
  647MOL0     O89149   2.676   2.098   1.189  0.1112 -0.0942 -0.0411
  647MOL0     C89150   2.675   1.975   1.201  0.3228 -0.9003  0.2891
  647MOL0     O89151   2.778   1.890   1.175  0.0793 -0.1439  0.2764
  647MOL0     C89152   2.898   1.940   1.138 -0.0001  0.1955  0.9855
  647MOL0     C89153   2.994   1.979   1.230 -0.8882 -0.3874 -0.0485
  647MOL0     C89154   3.129   2.019   1.192  0.9872  0.4637  0.3129
  647MOL0     C89155   3.159   2.017   1.059  0.7385  0.4124  1.1264
  647MOL0     O89156   3.288   2.034   1.024 -0.4598  0.0643  0.3601
  647MOL0     C89157   3.343   1.945   0.925  0.0303  1.4318  0.9101
  647MOL0     C89158   3.470   2.005   0.866 -1.1641  0.9282 -0.1338
  647MOL0     C89159   3.584   1.981   0.968 -1.2552  0.0300  0.0845
  647MOL0     C89160   3.723   2.026   0.906  0.2733  0.4465 -0.2202
  647MOL0     C89161   3.828   1.989   1.009 -0.0573 -1.3090  1.8721
  647MOL0     C89162   3.840   2.103   1.116 -0.7176  0.2234 -0.2921
  647MOL0     C89163   3.934   2.053   1.221  0.1400  0.1268 -0.0456
  647MOL0     C89164   3.867   2.008   1.350  0.0303  0.5671  0.1114
  647MOL0     N89165   3.790   1.879   1.340  0.6643  0.3017  0.3575
  647MOL0     C89166   3.658   1.878   1.314 -0.2267 -0.5480  0.8081
  647MOL0     C89167   3.628   1.744   1.296 -0.2824 -0.6687 -1.0293
  647MOL0     C89168   3.501   1.683   1.260  0.4799  0.1719 -0.9139
  647MOL0     C89169   3.380   1.698   1.359 -0.4058 -1.1153 -0.1656
  647MOL0     C89170   3.423   1.660   1.500 -0.4219 -0.1183 -0.6656
  647MOL0     C89171   3.308   1.697   1.602 -0.2390  0.7753  0.3279
  647MOL0     O89172   3.231   1.577   1.614 -0.0122  0.1181  0.6273
  647MOL0     C89173   3.101   1.594   1.650  0.3376 -0.3349 -0.4832
  647MOL0     C89174   2.994   1.506   1.609 -0.8398  0.5237  0.0532
  647MOL0     C89175   2.865   1.534   1.665 -0.2080 -0.5869  0.4205
  647MOL0     C89176   2.749   1.448   1.606  0.3142  0.0347 -0.0683
  647MOL0     C89177   2.838   1.648   1.744  0.5000 -0.0567  0.1441
  647MOL0     C89178   2.706   1.692   1.794  1.1455 -0.1649  0.3006
  647MOL0     O89179   2.693   1.725   1.927  0.1128  0.3560 -0.3402
  647MOL0     C89180   2.566   1.711   1.978  0.3338  0.0108  0.0602
  647MOL0     C89181   2.512   1.580   1.974 -0.0366 -0.4182  0.2714
  647MOL0     C89182   2.383   1.563   2.027  0.1233  0.3174  0.2176
  647MOL0     C89183   2.310   1.670   2.085 -0.2435  0.2039 -0.0478
  647MOL0     O89184   2.187   1.641   2.133  0.4497  0.3641 -0.0303
  647MOL0     C89185   2.142   1.716   2.247  0.4152 -0.0781  0.0506
  647MOL0     C89186   2.007   1.665   2.280  0.3305  0.9364  0.0578
  647MOL0     C89187   1.941   1.724   2.404 -0.1309 -0.1046  0.7792
  647MOL0     C89188   1.836   1.829   2.368  0.3618 -0.2269  0.1840
  647MOL0     C89189   1.774   1.882   2.497  0.1056 -0.6212  0.3995
  647MOL0     C89190   1.855   2.001   2.562 -0.7688  0.4716  0.3649
  647MOL0     C89191   1.823   2.035   2.704  0.3674 -0.8924  0.4924
  647MOL0     C89192   1.945   2.098   2.773 -0.0500  1.4674 -0.5415
  647MOL0    Cl89193   1.981   2.251   2.695 -0.3165  0.6522  0.0641
  647MOL0     C89194   2.374   1.795   2.087  0.3792 -0.4894  0.1216
  647MOL0     C89195   2.495   1.818   2.030  0.1087 -0.4166 -0.8411
  647MOL0     O89196   2.610   1.702   1.713 -0.3493  0.1375 -0.4118
  647MOL0     C89197   2.945   1.721   1.796  0.5169 -0.3065  0.1965
  647MOL0     C89198   3.069   1.696   1.744  0.1834  0.0083 -0.2507
  647MOL0     N89199   3.736   1.671   1.332 -0.0884  0.2191  1.0473
  647MOL0     N89200   3.837   1.752   1.351  0.5965 -1.0499 -0.1551
  647MOL0     C89201   3.059   1.968   0.970 -0.0804 -0.3254  0.1552
  647MOL0     C89202   2.933   1.932   1.006 -0.4778  0.7581 -0.6586
  647MOL0     C89203   2.556   1.916   1.260  0.6350  0.8190  0.4084
  647MOL0     C89204   2.581   1.827   1.363  0.7114  1.0796 -0.1573
  647MOL0     C89205   2.477   1.757   1.427 -0.3238 -0.6342 -0.0400
  647MOL0     C89206   2.343   1.794   1.402 -0.4611 -0.1036 -0.5427
  647MOL0     O89207   2.233   1.736   1.464 -0.0571 -0.5036  0.2445
  647MOL0     C89208   2.254   1.648   1.574 -0.0263 -0.2355  0.5860
  647MOL0     C89209   2.131   1.630   1.666  0.7967  0.6179  0.1745
  647MOL0     C89210   2.061   1.762   1.705  0.3298  0.5992 -0.0160
  647MOL0     C89211   1.929   1.728   1.778  0.7756 -0.3525 -0.1955
  647MOL0     C89212   1.871   1.845   1.828  0.8354 -0.4831 -0.1469
  647MOL0     C89213   1.804   1.935   1.883  0.7543  0.1561 -0.0971
  647MOL0     C89214   2.325   1.879   1.301  0.3981 -0.1019  0.5578
  647MOL0     C89215   2.424   1.944   1.236 -0.0345 -0.0637 -0.2690
  647MOL0     C89216   2.379   2.049   1.135 -0.7027 -0.5989  0.0038
  647MOL0     H89217   2.964   2.004   1.331 -2.1184 -0.5169 -0.3653
  647MOL0     H89218   3.207   2.053   1.259  0.3192  1.4695  0.6028
  647MOL0     H89219   3.274   1.926   0.842 -0.1085 -2.2050  1.6678
  647MOL0     H89220   3.361   1.845   0.967  4.3947  0.0841 -3.2982
  647MOL0     H89221   3.500   1.955   0.773 -2.8953  1.0026 -0.7583
  647MOL0     H89222   3.455   2.111   0.846  1.5668  1.3146 -0.5362
  647MOL0     H89223   3.572   2.044   1.057  2.0466  0.3639  0.4110
  647MOL0     H89224   3.593   1.875   0.993  1.0362 -0.1856 -1.3994
  647MOL0     H89225   3.729   1.963   0.817 -2.6742 -0.4806  0.1436
  647MOL0     H89226   3.727   2.135   0.891  2.8623  0.6490  1.2892
  647MOL0     H89227   3.926   1.983   0.961 -1.2859 -2.8004 -0.6450
  647MOL0     H89228   3.804   1.894   1.058  1.4895 -0.8760  3.5727
  647MOL0     H89229   3.870   2.194   1.063  4.2865 -0.6947  0.4865
  647MOL0     H89230   3.745   2.134   1.161  0.8594  2.6422  1.7038
  647MOL0     H89231   4.007   2.128   1.255 -0.6541  0.2646  1.4170
  647MOL0     H89232   3.991   1.966   1.187  1.0317  0.7130 -0.0804
  647MOL0     H89233   3.954   1.996   1.416  0.7165  1.0082 -0.6896
  647MOL0     H89234   3.800   2.080   1.397 -2.7189 -0.7125 -1.5523
  647MOL0     H89235   3.598   1.968   1.307  3.8857  2.6878  2.6409
  647MOL0     H89236   3.518   1.575   1.261  2.1345  0.4094  0.2167
  647MOL0     H89237   3.477   1.727   1.163  2.4616 -0.0454 -1.5416
  647MOL0     H89238   3.339   1.799   1.361 -3.8777 -2.3791  2.5151
  647MOL0     H89239   3.295   1.645   1.315 -2.7616  2.1360  0.1178
  647MOL0     H89240   3.451   1.554   1.505  0.9560  0.2773  0.6627
  647MOL0     H89241   3.513   1.714   1.530 -2.8771  5.2669 -1.7925
  647MOL0     H89242   3.345   1.716   1.704 -2.6079 -0.0851  1.4431
  647MOL0     H89243   3.246   1.780   1.568 -2.5923 -0.7772  0.5620
  647MOL0     H89244   3.014   1.425   1.541 -2.6611 -0.8003  1.0123
  647MOL0     H89245   2.789   1.364   1.548 -1.1808  1.3374 -3.2086
  647MOL0     H89246   2.693   1.514   1.539  0.6418 -0.0851 -0.4635
  647MOL0     H89247   2.693   1.401   1.688  1.8176 -2.6755 -0.4711
  647MOL0     H89248   2.562   1.496   1.928  1.4096  0.8176 -0.5065
  647MOL0     H89249   2.336   1.466   2.011 -0.5158  0.8349 -1.1587
  647MOL0     H89250   2.205   1.725   2.336 -0.3577  1.9023  0.4527
  647MOL0     H89251   2.131   1.820   2.215  2.3046  0.8676  2.1736
  647MOL0     H89252   1.950   1.695   2.192 -1.1639 -0.7563  0.4111
  647MOL0     H89253   2.019   1.556   2.286  1.7246  1.0085 -0.7814
  647MOL0     H89254   2.003   1.763   2.486 -0.7754  0.8007  0.8453
  647MOL0     H89255   1.889   1.642   2.456 -1.5329 -0.0124 -0.4362
  647MOL0     H89256   1.761   1.787   2.300 -2.1414  2.8326  0.8247
  647MOL0     H89257   1.881   1.909   2.308  0.0666 -0.0801  0.1591
  647MOL0     H89258   1.675   1.915   2.468  1.5479  1.6579 -2.4065
  647MOL0     H89259   1.771   1.793   2.561 -3.8230  0.0021  1.3378
  647MOL0     H89260   1.838   2.091   2.503 -0.3292 -0.0571 -0.5786
  647MOL0     H89261   1.963   1.984   2.557 -0.9891 -1.2170  0.6654
  647MOL0     H89262   1.786   1.943   2.748 -1.8329 -0.3819 -0.1777
  647MOL0     H89263   1.744   2.109   2.717  0.2340 -0.3520 -2.5363
  647MOL0     H89264   2.035   2.039   2.755 -1.7692 -0.9916 -1.7351
  647MOL0     H89265   1.928   2.116   2.880 -0.0435 -0.5545 -0.1676
  647MOL0     H89266   2.336   1.869   2.156 -0.4982 -1.7104  1.0006
  647MOL0     H89267   2.530   1.920   2.045  0.3956 -0.8734  2.5429
  647MOL0     H89268   2.917   1.803   1.862  2.3147 -0.4242  1.1764
  647MOL0     H89269   3.146   1.759   1.788  0.8657 -0.3393 -0.9317
  647MOL0     H89270   3.076   1.981   0.863  1.3526  0.8269  0.4817
  647MOL0     H89271   2.860   1.890   0.938  0.7574  0.9724 -2.1692
  647MOL0     H89272   2.677   1.791   1.398 -0.6407 -1.6093  1.1256
  647MOL0     H89273   2.489   1.677   1.500 -1.7608  1.1594  2.2931
  647MOL0     H89274   2.289   1.552   1.537  0.9334  0.0521  0.7195
  647MOL0     H89275   2.321   1.692   1.649 -1.4574  2.3581  0.4824
  647MOL0     H89276   2.166   1.582   1.758  0.0418 -1.5737 -0.6065
  647MOL0     H89277   2.063   1.558   1.620 -0.1233  2.5164 -1.5740
  647MOL0     H89278   2.123   1.805   1.784 -1.4256  3.0439  0.1323
  647MOL0     H89279   2.055   1.824   1.616 -2.4215 -0.1627 -0.4607
  647MOL0     H89280   1.947   1.658   1.861  3.9493  0.8819  0.2889
  647MOL0     H89281   1.864   1.675   1.708 -0.9783  3.0099 -1.2783
  647MOL0     H89282   1.752   2.014   1.933  1.6075  0.8993 -0.3637
  647MOL0     H89283   2.223   1.907   1.277  1.0842  0.2983 -2.3655
  647MOL0     H89284   2.374   2.153   1.169  0.3183 -0.3526 -0.5752
  647MOL0     H89285   2.454   2.042   1.055  1.2764 -0.7365  1.7974
  647MOL0     H89286   2.282   2.019   1.093 -1.6006 -0.2014  1.7027
  648MOL0     O89287   9.608   6.074  10.390  0.5012 -0.5942  0.6033
  648MOL0     C89288   9.500   6.008  10.410  0.9328  0.0406 -0.9832
  648MOL0     O89289   9.504   5.888  10.462  0.6114 -0.0120  1.0216
  648MOL0     C89290   9.611   5.815  10.464 -0.1162  0.8653 -0.1946
  648MOL0     C89291   9.620   5.701  10.387  0.1370 -0.1171  0.1066
  648MOL0     C89292   9.725   5.613  10.409  0.4425 -0.2388  0.1442
  648MOL0     C89293   9.829   5.640  10.500 -0.7132 -0.5108  0.7341
  648MOL0     O89294   9.927   5.550  10.502  0.3154  0.1310 -0.3596
  648MOL0     C89295  10.052   5.588  10.566  0.0300  0.2652 -0.4852
  648MOL0     C89296  10.163   5.500  10.511  0.5675 -0.1473 -0.3418
  648MOL0     C89297  10.190   5.387  10.610  0.0789 -0.0937  0.1546
  648MOL0     C89298  10.315   5.308  10.565 -0.6154 -0.7013  1.1405
  648MOL0     C89299  10.337   5.210  10.673  0.1251 -0.3163 -0.0116
  648MOL0     C89300  10.481   5.152  10.684 -1.2271 -0.7404 -0.3480
  648MOL0     C89301  10.513   5.092  10.552 -0.8369 -0.0565  0.8463
  648MOL0     C89302  10.597   4.963  10.565 -0.2859 -0.4864 -0.6039
  648MOL0     N89303  10.731   4.998  10.620 -0.5827  0.1492 -0.2322
  648MOL0     C89304  10.842   5.049  10.562  0.4813  0.4214 -1.2388
  648MOL0     C89305  10.938   5.037  10.661 -1.1808  0.6137 -0.4269
  648MOL0     C89306  11.086   5.070  10.638  0.6318  1.0902  0.8852
  648MOL0     C89307  11.154   4.941  10.581 -0.0620 -0.0094 -0.0121
  648MOL0     C89308  11.276   4.980  10.497 -0.5089 -0.1115 -0.3462
  648MOL0     C89309  11.356   4.858  10.465  0.3832 -0.5975  0.2794
  648MOL0     O89310  11.453   4.895  10.359 -0.2609  0.1823 -0.2802
  648MOL0     C89311  11.570   4.954  10.399  0.0943 -0.1107 -0.4556
  648MOL0     C89312  11.628   4.965  10.531  0.2695  1.1301  0.0457
  648MOL0     C89313  11.747   5.023  10.559  0.2467 -0.0174 -0.0336
  648MOL0     C89314  11.804   5.016  10.697  0.1439  0.1549 -0.1347
  648MOL0     C89315  11.837   5.063  10.448  0.9700  0.7377  0.0404
  648MOL0     C89316  11.975   5.120  10.458  0.5068  0.7674 -0.2243
  648MOL0     O89317  12.018   5.164  10.340  0.4697  0.0311 -0.2969
  648MOL0     C89318  12.144   5.216  10.339  0.6966 -1.0531 -0.9208
  648MOL0     C89319  12.158   5.302  10.224  0.3646 -0.4122 -0.4805
  648MOL0     C89320  12.270   5.386  10.203  0.0873 -0.3374  0.1601
  648MOL0     C89321  12.372   5.387  10.297  0.4236 -0.9252  0.1936
  648MOL0     O89322  12.474   5.475  10.280 -1.5355  0.7256 -0.0626
  648MOL0     C89323  12.595   5.446  10.356 -0.6982 -0.3516 -1.1256
  648MOL0     C89324  12.710   5.545  10.328  0.4820 -0.1797 -0.3709
  648MOL0     C89325  12.668   5.686  10.378  0.3584  0.9421  0.1046
  648MOL0     C89326  12.776   5.788  10.364 -0.6989 -0.0723  0.3961
  648MOL0     C89327  12.774   5.881  10.246  0.5392  0.0036  0.4778
  648MOL0     C89328  12.870   5.847  10.124 -0.2655 -0.6061 -1.2587
  648MOL0     C89329  12.869   5.955  10.012  0.2478  0.1802 -0.0923
  648MOL0     C89330  12.755   5.946   9.911  0.7239  1.0400  0.4348
  648MOL0    Cl89331  12.722   5.760   9.886 -0.1132  0.4023 -0.4700
  648MOL0     C89332  12.360   5.294  10.401  0.1244  0.4661  0.4375
  648MOL0     C89333  12.251   5.203  10.421  0.3606  0.2422  0.4310
  648MOL0     O89334  12.035   5.133  10.572  0.2561  0.1756 -0.3271
  648MOL0     C89335  11.777   5.035  10.320 -0.1184  0.5559 -0.4149
  648MOL0     C89336  11.649   4.986  10.302 -0.3109 -0.1829 -0.6606
  648MOL0     N89337  10.890   4.969  10.767  0.3229 -0.1525  0.2956
  648MOL0     N89338  10.761   4.947  10.744  0.2548 -1.0396  0.6140
  648MOL0     C89339   9.820   5.759  10.566  0.5972  0.4152  0.6818
  648MOL0     C89340   9.715   5.849  10.556  0.5372  0.6861 -0.2335
  648MOL0     C89341   9.368   6.083  10.394 -0.1520 -0.8421  0.1047
  648MOL0     C89342   9.378   6.222  10.369  0.0455  0.3963 -0.5886
  648MOL0     C89343   9.267   6.302  10.357 -0.4722 -0.5546  0.0594
  648MOL0     C89344   9.140   6.236  10.366  0.3109 -0.5227 -0.1471
  648MOL0     O89345   9.020   6.299  10.357 -0.2626  0.2857 -0.1228
  648MOL0     C89346   9.017   6.429  10.414  0.5095 -0.7175 -0.2006
  648MOL0     C89347   8.878   6.478  10.448 -1.1312  0.2228 -0.0838
  648MOL0     C89348   8.795   6.387  10.540 -0.0187 -0.2908  1.2039
  648MOL0     C89349   8.653   6.431  10.549 -0.0947 -0.3251  0.0169
  648MOL0     C89350   8.592   6.435  10.420  0.4303 -0.1851  0.2428
  648MOL0     C89351   8.530   6.432  10.315 -1.0851  0.6794  0.1220
  648MOL0     C89352   9.132   6.102  10.400 -0.1680 -0.4849  0.1871
  648MOL0     C89353   9.244   6.026  10.422 -0.4007  0.3221 -0.6020
  648MOL0     C89354   9.224   5.884  10.460  0.1915 -0.5913  0.3751
  648MOL0     H89355   9.550   5.686  10.306  0.4908  3.2254 -0.9763
  648MOL0     H89356   9.722   5.524  10.347  3.8614 -0.9928  0.8611
  648MOL0     H89357  10.048   5.583  10.675 -1.6714  2.1689 -0.4055
  648MOL0     H89358  10.077   5.693  10.548 -1.3743  0.6638 -0.1715
  648MOL0     H89359  10.136   5.461  10.413 -0.9411 -1.4230  0.5362
  648MOL0     H89360  10.254   5.559  10.500 -0.1445  1.0406 -0.0553
  648MOL0     H89361  10.206   5.426  10.711  1.1025  0.9079 -0.3724
  648MOL0     H89362  10.099   5.327  10.621  0.9943 -1.3886  0.8065
  648MOL0     H89363  10.298   5.261  10.467 -1.0798 -0.0974  0.9200
  648MOL0     H89364  10.400   5.376  10.554 -0.6114 -0.3928  2.8363
  648MOL0     H89365  10.267   5.128  10.654 -2.3755  1.3879  1.2971
  648MOL0     H89366  10.330   5.253  10.773  3.8870  1.4387 -0.3322
  648MOL0     H89367  10.555   5.230  10.705  0.7731 -2.2015 -1.5633
  648MOL0     H89368  10.498   5.076  10.761  1.3902 -0.1197 -0.1916
  648MOL0     H89369  10.560   5.165  10.486 -1.2335 -1.1907 -0.7657
  648MOL0     H89370  10.419   5.068  10.502 -0.6345  1.0030 -0.0893
  648MOL0     H89371  10.550   4.893  10.635  2.9079  0.3386  2.6800
  648MOL0     H89372  10.608   4.911  10.470  0.5872 -0.4329 -0.5384
  648MOL0     H89373  10.858   5.099  10.467  1.8222  1.3292 -0.5834
  648MOL0     H89374  11.130   5.104  10.732 -2.6696  0.2445  2.9077
  648MOL0     H89375  11.101   5.153  10.569  3.1318  1.0379  1.2621
  648MOL0     H89376  11.186   4.885  10.670  2.3698  0.5463 -0.4490
  648MOL0     H89377  11.086   4.893  10.511 -2.1206 -0.2596  2.0376
  648MOL0     H89378  11.235   5.039  10.415 -1.2349  2.3821  1.6673
  648MOL0     H89379  11.337   5.041  10.564 -0.2181  1.1065 -1.6727
  648MOL0     H89380  11.406   4.816  10.552  0.8165 -1.2192 -0.2505
  648MOL0     H89381  11.292   4.782  10.420  0.3027 -1.1782  1.3440
  648MOL0     H89382  11.576   4.925  10.617  1.2348  0.0368  0.1414
  648MOL0     H89383  11.905   4.975  10.687 -0.0285 -0.0680 -1.0677
  648MOL0     H89384  11.738   4.959  10.764 -1.3508  2.8803  0.8915
  648MOL0     H89385  11.815   5.111  10.751 -2.0228  0.7376 -0.6037
  648MOL0     H89386  12.078   5.310  10.150  4.2469  0.6676 -5.0836
  648MOL0     H89387  12.281   5.460  10.125 -1.9103 -1.2223 -1.0621
  648MOL0     H89388  12.562   5.444  10.461  2.2264 -3.0320 -0.1114
  648MOL0     H89389  12.629   5.347  10.326 -1.8275 -1.6087  1.3905
  648MOL0     H89390  12.804   5.516  10.375  0.9861 -0.1177 -1.3133
  648MOL0     H89391  12.731   5.556  10.221 -0.8873  2.2445 -0.4786
  648MOL0     H89392  12.635   5.682  10.482  1.7585  2.5919  0.6518
  648MOL0     H89393  12.581   5.707  10.314 -0.4890 -2.5290 -0.0640
  648MOL0     H89394  12.872   5.738  10.381 -1.1459 -2.7291 -3.6626
  648MOL0     H89395  12.761   5.864  10.442 -1.2214  1.0053 -0.7157
  648MOL0     H89396  12.671   5.897  10.216  0.5553 -0.9927 -0.1668
  648MOL0     H89397  12.828   5.967  10.286  0.5914  1.4553 -2.5130
  648MOL0     H89398  12.849   5.745  10.090  2.0341 -1.9836  1.0917
  648MOL0     H89399  12.974   5.839  10.154  0.0175  1.2531 -1.6492
  648MOL0     H89400  12.960   5.952   9.951  1.3725  0.0407  1.5378
  648MOL0     H89401  12.872   6.055  10.057  0.5159 -0.0186  0.3373
  648MOL0     H89402  12.778   5.988   9.813 -0.8083 -2.1443 -1.4505
  648MOL0     H89403  12.665   5.995   9.950 -0.9426 -0.9156 -0.7673
  648MOL0     H89404  12.423   5.281  10.488 -0.7019 -3.0880  0.6701
  648MOL0     H89405  12.247   5.135  10.506 -2.6688 -0.4648 -0.1832
  648MOL0     H89406  11.837   5.058  10.232  1.0192  0.5994  0.3496
  648MOL0     H89407  11.605   4.977  10.204  0.2379 -2.2775 -0.7846
  648MOL0     H89408   9.890   5.793  10.642 -0.8042  4.1176  0.5167
  648MOL0     H89409   9.723   5.938  10.616 -1.0632  2.7129 -2.8085
  648MOL0     H89410   9.478   6.263  10.356  1.1561 -1.0629  2.3798
  648MOL0     H89411   9.277   6.409  10.338  2.5157  0.2912  4.8532
  648MOL0     H89412   9.079   6.443  10.503  0.3360  0.8715 -0.2858
  648MOL0     H89413   9.056   6.501  10.340  0.5679 -1.6532 -1.1007
  648MOL0     H89414   8.829   6.488  10.351 -0.8079 -1.2329 -0.4102
  648MOL0     H89415   8.897   6.579  10.488  0.0941 -0.6726  1.7368
  648MOL0     H89416   8.799   6.281  10.511  0.3290  0.1386 -0.4346
  648MOL0     H89417   8.850   6.381  10.635  0.7689 -0.0311  0.7805
  648MOL0     H89418   8.629   6.528  10.593 -4.0490 -1.0409 -0.1330
  648MOL0     H89419   8.609   6.352  10.612  0.5321  0.1603  1.0781
  648MOL0     H89420   8.485   6.417  10.220 -4.1145 -1.2222  1.7067
  648MOL0     H89421   9.032   6.062  10.415 -0.8788  0.3571 -1.8572
  648MOL0     H89422   9.270   5.830  10.377 -3.0859 -0.8600 -1.4424
  648MOL0     H89423   9.259   5.871  10.563  0.6494  1.9301  0.6021
  648MOL0     H89424   9.117   5.860  10.454 -0.1568  0.9527  0.0317
  649MOL0     O89425   4.920  10.483   7.217  0.4324  0.5311 -0.2346
  649MOL0     C89426   4.803  10.455   7.181 -0.6432  0.0392  0.0876
  649MOL0     O89427   4.729  10.377   7.255 -0.0855 -0.6198  0.1736
  649MOL0     C89428   4.780  10.304   7.357 -0.1099  1.0182 -0.1187
  649MOL0     C89429   4.706  10.291   7.477  0.3206 -0.2076 -0.4101
  649MOL0     C89430   4.743  10.203   7.572  0.3372 -0.0166  0.7879
  649MOL0     C89431   4.867  10.131   7.563  0.4674 -0.2619  0.0566
  649MOL0     O89432   4.901  10.031   7.650 -0.1153  0.0327  0.3016
  649MOL0     C89433   4.815   9.914   7.659  0.2376 -0.6259  0.0540
  649MOL0     C89434   4.844   9.819   7.778 -0.5427 -0.1921 -0.0605
  649MOL0     C89435   4.979   9.757   7.764  0.5160  0.6405  0.2746
  649MOL0     C89436   5.058   9.720   7.894  0.0679  0.0528  0.7897
  649MOL0     C89437   5.186   9.642   7.854 -0.0090 -0.3234  0.4306
  649MOL0     C89438   5.273   9.602   7.972 -0.2330  0.5770 -0.0976
  649MOL0     C89439   5.398   9.516   7.923 -0.6174  0.0385  0.2863
  649MOL0     C89440   5.467   9.459   8.050  0.3477 -0.0156  0.6151
  649MOL0     N89441   5.556   9.367   7.974  0.3746  0.1944 -0.4634
  649MOL0     C89442   5.695   9.389   7.959  0.5292 -0.6823  0.1017
  649MOL0     C89443   5.738   9.274   7.898  0.2099 -0.4129  0.1985
  649MOL0     C89444   5.872   9.254   7.830  0.7851  0.4855 -0.1242
  649MOL0     C89445   5.994   9.336   7.872 -0.4091 -0.3022  0.2134
  649MOL0     C89446   6.025   9.335   8.022  0.6441  0.1622  0.1571
  649MOL0     C89447   6.137   9.244   8.056 -0.1090  0.2602 -0.5818
  649MOL0     O89448   6.094   9.112   8.036  0.3377 -0.2388 -0.2510
  649MOL0     C89449   6.190   9.033   7.988  1.3804  0.8792 -0.1620
  649MOL0     C89450   6.183   8.998   7.843 -0.9823  0.3154  0.0695
  649MOL0     C89451   6.276   8.915   7.785 -0.1238 -0.5873  0.3627
  649MOL0     C89452   6.261   8.886   7.632  0.6186  0.2776 -0.5019
  649MOL0     C89453   6.382   8.867   7.871 -0.1684  0.0350  0.2446
  649MOL0     C89454   6.480   8.775   7.824 -0.0480  0.5591  0.9361
  649MOL0     O89455   6.507   8.673   7.905  0.2813 -0.5597  0.1113
  649MOL0     C89456   6.604   8.586   7.865 -0.0045 -0.3179  0.6127
  649MOL0     C89457   6.580   8.448   7.872 -0.6206 -0.3107 -0.1619
  649MOL0     C89458   6.684   8.367   7.827  0.6280  0.3970  0.5106
  649MOL0     C89459   6.814   8.401   7.788  1.2599  0.1163  0.1765
  649MOL0     O89460   6.915   8.316   7.760  0.8631  0.1969 -0.4308
  649MOL0     C89461   6.996   8.335   7.648 -0.2069  0.4004 -0.7719
  649MOL0     C89462   7.041   8.198   7.600  0.1555  0.7558 -0.5741
  649MOL0     C89463   7.134   8.216   7.475  1.1855 -0.5140 -0.3778
  649MOL0     C89464   7.067   8.299   7.359 -0.1751 -0.2325  0.0214
  649MOL0     C89465   7.171   8.343   7.245  0.4373  0.1858 -0.4106
  649MOL0     C89466   7.106   8.373   7.111  0.4714 -0.4656 -0.3086
  649MOL0     C89467   7.221   8.388   7.005  0.0212 -0.8235 -0.9060
  649MOL0     C89468   7.171   8.418   6.866 -0.4556  0.3533 -0.0377
  649MOL0    Cl89469   7.065   8.293   6.806  0.2038  0.0170  0.0157
  649MOL0     C89470   6.838   8.538   7.788 -0.1045  0.1743 -0.5348
  649MOL0     C89471   6.738   8.628   7.828  0.1128  1.1318  0.5893
  649MOL0     O89472   6.532   8.800   7.712 -0.6442 -0.4080 -0.6066
  649MOL0     C89473   6.390   8.896   8.006 -0.5299 -0.3481  0.3841
  649MOL0     C89474   6.295   8.987   8.060 -0.0258 -0.3317  0.5653
  649MOL0     N89475   5.636   9.189   7.883  0.4531  0.8054 -0.4850
  649MOL0     N89476   5.523   9.244   7.926 -0.6946 -0.2382  0.3789
  649MOL0     C89477   4.951  10.157   7.448 -0.3897 -0.3273  0.4883
  649MOL0     C89478   4.895  10.224   7.345 -0.6098  0.3205  0.0264
  649MOL0     C89479   4.738  10.515   7.058 -0.0891 -0.1717  0.1449
  649MOL0     C89480   4.623  10.468   7.007  1.1223 -0.2154 -0.0975
  649MOL0     C89481   4.562  10.517   6.886  0.0608 -0.3923  0.4421
  649MOL0     C89482   4.615  10.626   6.812 -0.3520 -0.6089  0.1719
  649MOL0     O89483   4.547  10.666   6.692  0.6160  0.2076 -0.1641
  649MOL0     C89484   4.608  10.755   6.594 -0.7279  0.5156 -0.0308
  649MOL0     C89485   4.497  10.803   6.493 -0.2726 -0.0357  0.1971
  649MOL0     C89486   4.490  10.715   6.365 -0.0171 -0.1797 -0.4069
  649MOL0     C89487   4.400  10.772   6.257 -0.1980  0.3002 -0.1357
  649MOL0     C89488   4.260  10.783   6.295  0.1595 -0.0905 -0.6445
  649MOL0     C89489   4.142  10.791   6.342 -0.5075 -0.1826 -0.2300
  649MOL0     C89490   4.736  10.675   6.869  0.3521 -1.3005  0.2703
  649MOL0     C89491   4.804  10.619   6.978  0.2293  1.3870  0.0226
  649MOL0     C89492   4.927  10.691   7.019  0.3099  0.2693  0.4822
  649MOL0     H89493   4.610  10.340   7.488  1.0429  0.9331  1.1942
  649MOL0     H89494   4.687  10.187   7.664  1.7218  0.4312  1.7409
  649MOL0     H89495   4.812   9.862   7.563  2.1399  1.4653 -1.2301
  649MOL0     H89496   4.716   9.957   7.677 -0.1930 -1.2536 -0.7400
  649MOL0     H89497   4.847   9.888   7.863 -0.9836  0.6427 -0.7092
  649MOL0     H89498   4.762   9.746   7.785 -1.9589  1.2626 -0.8241
  649MOL0     H89499   4.961   9.674   7.695  1.8171  1.9545 -1.7697
  649MOL0     H89500   5.047   9.828   7.716  0.1635 -0.9086 -2.7102
  649MOL0     H89501   5.082   9.809   7.953 -1.5308  1.8683 -1.1447
  649MOL0     H89502   4.992   9.654   7.952 -0.9056  0.8647  0.6314
  649MOL0     H89503   5.246   9.705   7.788  0.9200  1.7113  3.0251
  649MOL0     H89504   5.145   9.552   7.808 -2.0851  2.0519 -2.7591
  649MOL0     H89505   5.300   9.697   8.020  1.7028  1.2360 -2.3218
  649MOL0     H89506   5.208   9.546   8.041 -3.7677  2.3155 -1.7470
  649MOL0     H89507   5.462   9.579   7.861  0.1204 -1.9386 -1.0747
  649MOL0     H89508   5.370   9.427   7.866  0.6502 -1.6199  2.0888
  649MOL0     H89509   5.526   9.527   8.112  0.5634 -0.1519  0.5592
  649MOL0     H89510   5.398   9.416   8.123 -1.4116  1.4585 -0.0865
  649MOL0     H89511   5.755   9.474   7.988  2.7276 -2.5162  1.2540
  649MOL0     H89512   5.855   9.270   7.723 -0.9375  1.0554  0.2086
  649MOL0     H89513   5.882   9.146   7.843  0.4561  0.4243 -0.3551
  649MOL0     H89514   6.078   9.291   7.818  1.2079  2.2547  0.4214
  649MOL0     H89515   5.986   9.438   7.833 -1.1419 -0.5512 -0.3160
  649MOL0     H89516   6.058   9.434   8.054 -0.7519  0.1575  1.7166
  649MOL0     H89517   5.942   9.304   8.085 -0.6530  0.6117 -1.2648
  649MOL0     H89518   6.219   9.270   7.988 -0.8007  0.1409 -1.4784
  649MOL0     H89519   6.163   9.260   8.161  0.7172  2.1753 -1.0179
  649MOL0     H89520   6.098   9.028   7.783 -0.7736 -1.1907 -1.0424
  649MOL0     H89521   6.319   8.952   7.568  1.3028 -1.5250 -1.8439
  649MOL0     H89522   6.155   8.908   7.615  1.2027  2.9413 -1.0175
  649MOL0     H89523   6.274   8.779   7.613  2.3646  0.3151  0.2386
  649MOL0     H89524   6.485   8.410   7.908 -0.4382  0.3807  1.1199
  649MOL0     H89525   6.662   8.261   7.834  1.2293  0.2601  0.4450
  649MOL0     H89526   6.937   8.382   7.569 -1.0039  0.9830  0.1507
  649MOL0     H89527   7.080   8.401   7.673 -0.4730  1.6675 -2.9302
  649MOL0     H89528   7.103   8.142   7.671 -0.7635  1.3957  0.7892
  649MOL0     H89529   6.958   8.129   7.580  1.9636 -1.4053 -1.0281
  649MOL0     H89530   7.151   8.122   7.421  0.3682  0.3931 -2.2825
  649MOL0     H89531   7.233   8.257   7.499  0.4113  0.8528  0.5882
  649MOL0     H89532   7.012   8.392   7.377 -1.9742 -0.6077 -2.8791
  649MOL0     H89533   6.996   8.236   7.305 -2.1198  0.8891  1.1379
  649MOL0     H89534   7.232   8.425   7.283  2.0696 -1.2670  0.2217
  649MOL0     H89535   7.252   8.270   7.245 -0.7181 -1.1774  1.5295
  649MOL0     H89536   7.053   8.468   7.119  0.8501 -0.2922  0.1950
  649MOL0     H89537   7.047   8.287   7.078  2.6249 -2.1317 -0.0468
  649MOL0     H89538   7.282   8.298   6.999 -1.3604 -1.7452 -1.4552
  649MOL0     H89539   7.278   8.478   7.031 -2.4847  0.6248 -0.0607
  649MOL0     H89540   7.261   8.418   6.805  1.3218 -1.4849  2.3636
  649MOL0     H89541   7.126   8.518   6.864  0.4778  0.7869 -1.8300
  649MOL0     H89542   6.940   8.571   7.771  0.4692 -1.7368 -1.0888
  649MOL0     H89543   6.764   8.733   7.826  0.1757  1.1125  0.0458
  649MOL0     H89544   6.478   8.860   8.057  0.3750  2.3927  0.8863
  649MOL0     H89545   6.309   9.017   8.163  0.5864  0.0913  0.3616
  649MOL0     H89546   5.053  10.121   7.447 -0.1039  0.4257 -1.8653
  649MOL0     H89547   4.954  10.250   7.258 -2.4761  1.1484 -1.0423
  649MOL0     H89548   4.574  10.387   7.060 -1.3012 -0.2613 -2.2154
  649MOL0     H89549   4.476  10.465   6.845  1.4889 -3.0313  0.5646
  649MOL0     H89550   4.662  10.836   6.644 -0.4391 -0.4855  1.3401
  649MOL0     H89551   4.694  10.708   6.547  0.2502  3.0763 -1.0053
  649MOL0     H89552   4.524  10.907   6.472  0.3081  0.2967  2.3202
  649MOL0     H89553   4.405  10.798   6.551  0.0890 -3.6759  0.7221
  649MOL0     H89554   4.589  10.700   6.320  0.0738 -1.5287  0.1772
  649MOL0     H89555   4.440  10.621   6.390 -1.6086  1.0662  1.4473
  649MOL0     H89556   4.413  10.715   6.164  1.7653 -0.8922  0.8094
  649MOL0     H89557   4.432  10.874   6.236  2.0406 -0.7267 -2.3625
  649MOL0     H89558   4.040  10.811   6.366 -0.8989 -1.3629 -0.8266
  649MOL0     H89559   4.790  10.761   6.830  1.1460 -2.0242 -0.2402
  649MOL0     H89560   4.941  10.791   6.976  2.0764 -0.7410 -1.5096
  649MOL0     H89561   4.937  10.703   7.127  2.2997 -1.8626  0.6112
  649MOL0     H89562   5.005  10.621   6.987 -1.6374 -1.8997  0.1747
  650MOL0     O89563  10.281   5.075   4.009 -0.0097 -0.8818 -0.8972
  650MOL0     C89564  10.163   5.093   3.970 -0.3435 -0.4222 -0.3972
  650MOL0     O89565  10.110   5.221   3.934 -1.1343  0.9292 -0.0068
  650MOL0     C89566  10.198   5.325   3.920  0.0320  0.4845 -0.3722
  650MOL0     C89567  10.219   5.380   3.789 -0.6568 -0.6908 -0.2459
  650MOL0     C89568  10.304   5.490   3.779  0.9091 -0.8421 -0.3121
  650MOL0     C89569  10.353   5.563   3.891  0.1873  0.7986 -0.5332
  650MOL0     O89570  10.428   5.673   3.868 -0.4165 -0.1496  0.8234
  650MOL0     C89571  10.574   5.669   3.890 -0.0599 -0.9489  0.9992
  650MOL0     C89572  10.624   5.803   3.834 -0.0741 -0.2800 -0.0519
  650MOL0     C89573  10.779   5.816   3.823  0.4302  0.9593 -0.8254
  650MOL0     C89574  10.818   5.960   3.817 -0.1788 -0.3651  0.5252
  650MOL0     C89575  10.937   5.982   3.723  0.1268  0.1230  0.0669
  650MOL0     C89576  10.878   5.969   3.578 -0.2185  0.0648 -0.5500
  650MOL0     C89577  10.939   6.063   3.478  0.4399 -0.5898 -0.0252
  650MOL0     C89578  10.869   6.201   3.475 -0.1484  0.2459  0.1559
  650MOL0     N89579  10.969   6.305   3.433 -0.1963 -0.9550  0.1900
  650MOL0     C89580  11.013   6.327   3.305  0.6356  1.5288  0.0820
  650MOL0     C89581  11.110   6.419   3.320 -0.1503  0.4360  0.6630
  650MOL0     C89582  11.194   6.477   3.208 -0.6761 -0.6860 -0.4386
  650MOL0     C89583  11.122   6.549   3.093 -0.1888  0.2069  0.0500
  650MOL0     C89584  11.208   6.594   2.976 -0.3826  0.0919  0.1597
  650MOL0     C89585  11.122   6.684   2.892 -0.5103 -0.2477  0.1343
  650MOL0     O89586  10.992   6.634   2.849  0.1627 -0.4977 -0.1698
  650MOL0     C89587  10.975   6.526   2.768 -0.1601  0.1189 -0.0079
  650MOL0     C89588  11.065   6.499   2.663 -0.1128 -0.4375  0.6857
  650MOL0     C89589  11.062   6.389   2.583  0.1864  0.2625  0.5788
  650MOL0     C89590  11.179   6.348   2.498  0.7993 -0.2056 -0.0237
  650MOL0     C89591  10.954   6.301   2.603  0.9861  0.5371 -0.6459
  650MOL0     C89592  10.941   6.174   2.543  0.0070 -0.1892 -0.4895
  650MOL0     O89593  10.818   6.156   2.491  0.3544  0.8689 -0.5923
  650MOL0     C89594  10.783   6.022   2.475 -0.1077 -0.0216  0.6198
  650MOL0     C89595  10.810   5.958   2.351 -0.9637 -0.3704 -0.1749
  650MOL0     C89596  10.777   5.823   2.330  1.3801  0.1395  0.6644
  650MOL0     C89597  10.700   5.748   2.426 -0.8243 -0.0460 -0.1288
  650MOL0     O89598  10.647   5.619   2.400 -0.3299 -0.4420  0.0938
  650MOL0     C89599  10.583   5.603   2.272 -0.6332 -0.2966 -0.1777
  650MOL0     C89600  10.451   5.521   2.289  0.0674  0.0002 -0.4405
  650MOL0     C89601  10.466   5.373   2.305  0.4864 -0.7264 -0.3421
  650MOL0     C89602  10.344   5.294   2.346  0.6557  0.2396 -0.5931
  650MOL0     C89603  10.356   5.140   2.356 -0.7278 -0.0989  0.9671
  650MOL0     C89604  10.240   5.072   2.428 -0.9913  0.2113  0.0549
  650MOL0     C89605  10.255   5.102   2.573  0.1288  0.0820 -1.0381
  650MOL0     C89606  10.199   4.988   2.668 -0.4323 -0.2562 -0.3054
  650MOL0    Cl89607  10.021   4.962   2.635 -0.5705  0.4137 -0.1682
  650MOL0     C89608  10.674   5.811   2.548 -0.3635 -1.3686 -0.4310
  650MOL0     C89609  10.714   5.946   2.578  0.2325 -0.2971  0.4847
  650MOL0     O89610  11.035   6.090   2.544  0.5579  0.2042 -0.1527
  650MOL0     C89611  10.856   6.327   2.699 -0.5383  0.2994  0.4615
  650MOL0     C89612  10.863   6.445   2.785  0.6858 -0.0046  0.5011
  650MOL0     N89613  11.127   6.454   3.459  0.4351 -0.2408  0.4555
  650MOL0     N89614  11.039   6.382   3.521  0.1871 -0.0938 -0.7376
  650MOL0     C89615  10.326   5.511   4.026 -0.5961  0.2550 -0.6768
  650MOL0     C89616  10.244   5.394   4.028 -0.1771  0.0365 -0.0330
  650MOL0     C89617  10.069   4.975   3.972 -0.1412  0.4418 -0.3668
  650MOL0     C89618   9.933   5.005   3.969 -0.2843 -1.0385 -0.1600
  650MOL0     C89619   9.837   4.908   3.968 -0.2720 -0.3031 -0.2735
  650MOL0     C89620   9.865   4.775   3.979 -0.2497  0.5253 -0.6027
  650MOL0     O89621   9.767   4.681   3.976  0.0490  0.2750  1.0381
  650MOL0     C89622   9.790   4.542   3.971  0.7920  0.3357 -0.3005
  650MOL0     C89623   9.668   4.459   4.001  0.2795 -0.6560  0.2293
  650MOL0     C89624   9.566   4.471   3.883  0.5486  0.0623 -0.1214
  650MOL0     C89625   9.483   4.349   3.886  0.9426  0.0991  0.0619
  650MOL0     C89626   9.370   4.342   3.784 -0.4671  0.0167 -0.7895
  650MOL0     C89627   9.279   4.312   3.718  0.1991 -0.0689  0.0982
  650MOL0     C89628   9.999   4.743   3.980 -0.0777  0.0222 -1.0704
  650MOL0     C89629  10.104   4.843   3.970 -0.8020 -0.0210 -0.0428
  650MOL0     C89630  10.243   4.797   3.973 -0.3908 -0.1847 -0.8831
  650MOL0     H89631  10.178   5.334   3.700  1.1898  4.9009 -4.5802
  650MOL0     H89632  10.320   5.546   3.688 -1.9316 -0.2721 -0.5570
  650MOL0     H89633  10.625   5.595   3.827  0.0402 -0.1280  0.0897
  650MOL0     H89634  10.600   5.656   3.995  0.1389 -1.4229  0.8969
  650MOL0     H89635  10.584   5.803   3.733 -1.2792 -1.8202  0.3885
  650MOL0     H89636  10.587   5.891   3.886 -0.6856 -0.1417 -0.7104
  650MOL0     H89637  10.825   5.765   3.908 -1.6957  0.6426  0.1848
  650MOL0     H89638  10.817   5.754   3.741  1.7955  0.3157  0.2532
  650MOL0     H89639  10.732   6.009   3.772  1.4100  0.7165 -1.4897
  650MOL0     H89640  10.850   6.011   3.909 -0.7377  0.5769  0.2145
  650MOL0     H89641  11.017   5.909   3.736  0.1072  0.1898  0.5837
  650MOL0     H89642  10.981   6.081   3.739 -0.3465  0.4673 -0.7053
  650MOL0     H89643  10.905   5.873   3.533 -3.6447 -0.1941 -2.3582
  650MOL0     H89644  10.769   5.971   3.572 -0.3117  2.2425  0.7301
  650MOL0     H89645  10.930   6.020   3.378 -1.7822 -2.0442  0.7302
  650MOL0     H89646  11.045   6.075   3.501  0.1986  0.8267  0.4150
  650MOL0     H89647  10.784   6.200   3.406  0.1265 -0.8646 -0.1737
  650MOL0     H89648  10.833   6.224   3.576 -0.5494 -1.2270  0.3726
  650MOL0     H89649  10.987   6.290   3.206 -1.5300 -1.4460  1.5900
  650MOL0     H89650  11.255   6.400   3.161 -1.9362 -3.3298  1.9898
  650MOL0     H89651  11.261   6.553   3.249 -0.6956  0.4709 -2.3730
  650MOL0     H89652  11.051   6.477   3.050 -0.4738  1.9576 -2.6595
  650MOL0     H89653  11.057   6.627   3.135  0.4188 -0.3593  2.1679
  650MOL0     H89654  11.298   6.643   3.013  0.2512 -2.3460  2.1026
  650MOL0     H89655  11.238   6.504   2.920  1.7100  1.2576 -0.6840
  650MOL0     H89656  11.108   6.770   2.958 -0.1543 -0.8036  0.9360
  650MOL0     H89657  11.183   6.715   2.807 -1.0895  1.0980  0.1888
  650MOL0     H89658  11.148   6.567   2.651 -0.3081 -0.0424  1.5122
  650MOL0     H89659  11.222   6.253   2.529  1.5336 -1.2322 -3.6982
  650MOL0     H89660  11.255   6.427   2.495  1.5004 -0.7338  2.2567
  650MOL0     H89661  11.147   6.336   2.394  0.2065 -0.5941  0.1991
  650MOL0     H89662  10.859   6.015   2.273  2.1726 -0.3751  1.6374
  650MOL0     H89663  10.823   5.782   2.241 -0.6438  1.3328 -1.0500
  650MOL0     H89664  10.546   5.696   2.228  1.0164 -0.4162 -1.9329
  650MOL0     H89665  10.652   5.559   2.200  1.5594 -0.2606  1.8017
  650MOL0     H89666  10.404   5.558   2.380  1.0646  2.7135 -0.9359
  650MOL0     H89667  10.382   5.551   2.210 -4.4800  1.1167  3.5224
  650MOL0     H89668  10.549   5.356   2.374 -0.0497 -0.4879  0.3751
  650MOL0     H89669  10.490   5.337   2.204  1.1194 -0.6998 -0.2085
  650MOL0     H89670  10.257   5.312   2.283  0.1597 -2.7157 -0.9035
  650MOL0     H89671  10.312   5.327   2.445  1.4832  0.9865 -0.5663
  650MOL0     H89672  10.360   5.097   2.255 -4.8153 -0.6542  0.8996
  650MOL0     H89673  10.451   5.126   2.408  0.5330  1.8957 -0.6300
  650MOL0     H89674  10.230   4.967   2.399 -1.2680 -0.6327  2.9274
  650MOL0     H89675  10.144   5.110   2.391 -1.0091 -1.2891 -1.5565
  650MOL0     H89676  10.205   5.195   2.601 -0.3047  0.2363 -2.2487
  650MOL0     H89677  10.356   5.124   2.608 -0.5091 -0.5562  1.3809
  650MOL0     H89678  10.204   5.024   2.771 -1.1644 -0.7709 -0.0828
  650MOL0     H89679  10.249   4.891   2.665  0.2216 -0.0462  1.7619
  650MOL0     H89680  10.604   5.752   2.607 -1.2507 -0.9321 -1.0293
  650MOL0     H89681  10.699   5.988   2.677  0.9096 -2.3719  1.5208
  650MOL0     H89682  10.770   6.260   2.693 -1.2837  1.2917 -0.3172
  650MOL0     H89683  10.790   6.465   2.862  0.8176 -1.3810  1.0111
  650MOL0     H89684  10.352   5.559   4.120  0.6059  0.1485 -0.9408
  650MOL0     H89685  10.234   5.348   4.126  1.1928 -0.0579  0.0827
  650MOL0     H89686   9.897   5.108   3.962 -2.1374 -1.6476  0.0016
  650MOL0     H89687   9.736   4.945   3.961  0.7250  2.3143 -3.0712
  650MOL0     H89688   9.816   4.527   3.866 -0.4891 -0.8070 -0.4778
  650MOL0     H89689   9.870   4.507   4.036  0.8440 -0.5611 -0.8355
  650MOL0     H89690   9.618   4.496   4.091 -0.1861  1.7576 -0.9112
  650MOL0     H89691   9.689   4.353   4.015 -1.4356 -0.9467  0.8442
  650MOL0     H89692   9.504   4.559   3.900 -0.6679 -0.9705  1.0862
  650MOL0     H89693   9.616   4.477   3.786 -0.1751  4.8150 -0.3932
  650MOL0     H89694   9.428   4.331   3.979 -3.2601 -0.8932 -2.3437
  650MOL0     H89695   9.541   4.260   3.861  0.1475 -0.3595 -0.1980
  650MOL0     H89696   9.189   4.282   3.668  2.7949 -2.3324 -3.7357
  650MOL0     H89697  10.033   4.641   3.987  3.1831  1.0918  3.2191
  650MOL0     H89698  10.300   4.847   3.894  1.9360 -2.4306 -0.7425
  650MOL0     H89699  10.287   4.823   4.069  0.4722 -0.2286 -1.2617
  650MOL0     H89700  10.254   4.690   3.952  0.0566  0.1531 -2.4840
  651MOL0     O89701   0.954   5.615   6.955  0.7619 -0.1347 -0.0143
  651MOL0     C89702   0.858   5.540   6.978 -0.3715  0.4027 -0.2437
  651MOL0     O89703   0.879   5.409   7.026  0.0744 -0.0826 -0.6934
  651MOL0     C89704   1.001   5.394   7.084 -0.2715  0.2084 -0.6665
  651MOL0     C89705   1.111   5.355   7.008  0.7723 -0.2603 -0.2005
  651MOL0     C89706   1.232   5.331   7.065 -0.0295 -0.1030 -0.1704
  651MOL0     C89707   1.240   5.332   7.200  0.1386 -0.0595 -0.5384
  651MOL0     O89708   1.358   5.306   7.255 -0.6280  0.1380  0.3431
  651MOL0     C89709   1.444   5.417   7.277 -0.3988 -0.6081  0.2054
  651MOL0     C89710   1.566   5.380   7.368  0.4345  0.7619  0.5849
  651MOL0     C89711   1.652   5.263   7.312 -0.3674  0.1605  0.7219
  651MOL0     C89712   1.759   5.212   7.413 -0.1322 -0.0623 -0.1452
  651MOL0     C89713   1.895   5.234   7.359  0.6500  0.1898 -0.6125
  651MOL0     C89714   2.002   5.207   7.468 -0.1999  0.3937 -0.1507
  651MOL0     C89715   2.144   5.216   7.396  0.8377  0.6741 -0.7353
  651MOL0     C89716   2.247   5.239   7.502 -0.4434  0.1637 -0.7344
  651MOL0     N89717   2.382   5.223   7.453 -0.6635 -0.2233 -0.9922
  651MOL0     C89718   2.450   5.332   7.410  0.1473  0.4321 -0.6224
  651MOL0     C89719   2.566   5.278   7.363 -0.0425 -0.4027 -0.0781
  651MOL0     C89720   2.687   5.351   7.311 -0.1166  0.3468 -1.2282
  651MOL0     C89721   2.771   5.394   7.429 -0.4161 -0.0254 -0.8658
  651MOL0     C89722   2.905   5.458   7.374 -0.3393  0.7739  0.2065
  651MOL0     C89723   3.016   5.482   7.475 -0.0034 -0.1857  0.0328
  651MOL0     O89724   3.137   5.534   7.415 -0.3829 -0.3897  1.0020
  651MOL0     C89725   3.226   5.587   7.502 -0.7979  0.1543  0.8487
  651MOL0     C89726   3.334   5.658   7.439 -0.4940 -0.5243 -0.8222
  651MOL0     C89727   3.434   5.732   7.511  0.2250  0.2251  0.0664
  651MOL0     C89728   3.535   5.792   7.431 -0.0636  0.0257  0.3238
  651MOL0     C89729   3.421   5.723   7.656  0.1508 -0.4424  0.1731
  651MOL0     C89730   3.524   5.785   7.751  0.0708 -0.8424 -0.2167
  651MOL0     O89731   3.533   5.730   7.876 -0.6267  0.3396 -0.0321
  651MOL0     C89732   3.611   5.793   7.973  0.1585  0.5005  0.0359
  651MOL0     C89733   3.743   5.824   7.952 -0.1234  0.4076  0.1691
  651MOL0     C89734   3.813   5.888   8.055 -0.0128 -0.3951 -0.8413
  651MOL0     C89735   3.756   5.917   8.182 -0.0680 -0.3717  0.3040
  651MOL0     O89736   3.831   5.949   8.292  0.1051 -0.3265 -0.9178
  651MOL0     C89737   3.786   6.055   8.378 -0.2483 -0.1121  0.2976
  651MOL0     C89738   3.901   6.152   8.394 -0.8858 -0.1651 -0.5074
  651MOL0     C89739   3.956   6.219   8.270  0.5068  0.6702  0.1033
  651MOL0     C89740   4.074   6.295   8.319  1.0674  0.0045 -0.2364
  651MOL0     C89741   4.192   6.196   8.332 -0.1663  1.1650  1.0171
  651MOL0     C89742   4.321   6.277   8.317 -0.6251  0.0474 -0.0536
  651MOL0     C89743   4.433   6.164   8.317  0.9759 -0.4457  0.1749
  651MOL0     C89744   4.574   6.233   8.351 -0.1108  0.3873  0.2762
  651MOL0    Cl89745   4.574   6.295   8.524 -0.4086  0.2493  0.3315
  651MOL0     C89746   3.626   5.879   8.202  0.0114 -0.8261 -0.5824
  651MOL0     C89747   3.555   5.816   8.102  0.0308 -0.3063 -0.2097
  651MOL0     O89748   3.595   5.874   7.712 -0.2535 -0.0775 -0.1465
  651MOL0     C89749   3.312   5.647   7.712  0.6365 -0.6535 -0.2303
  651MOL0     C89750   3.217   5.582   7.636 -0.3720 -0.8235 -0.3821
  651MOL0     N89751   2.559   5.144   7.377 -0.0253 -0.1193 -1.0108
  651MOL0     N89752   2.449   5.108   7.432  0.0399  0.9021 -0.0975
  651MOL0     C89753   1.139   5.382   7.286 -0.0840  0.0586  0.0278
  651MOL0     C89754   1.016   5.412   7.221  0.3265  0.9463  0.1630
  651MOL0     C89755   0.726   5.555   6.908  0.0303 -0.5097 -1.1711
  651MOL0     C89756   0.642   5.443   6.880 -0.3883  0.2080  0.1989
  651MOL0     C89757   0.513   5.445   6.810  0.2048 -0.3305 -0.1147
  651MOL0     C89758   0.468   5.572   6.763 -0.2906  0.1319 -0.7151
  651MOL0     O89759   0.359   5.589   6.685  0.1402  0.6156  0.3628
  651MOL0     C89760   0.334   5.498   6.578 -0.5602  0.6280 -0.1025
  651MOL0     C89761   0.193   5.452   6.584  0.1644 -0.3099 -0.1327
  651MOL0     C89762   0.147   5.370   6.467  0.4298 -0.1280  0.7032
  651MOL0     C89763   0.053   5.462   6.385  0.3598 -0.1144  0.1678
  651MOL0     C89764   0.117   5.585   6.336  0.4004  0.3657  1.0118
  651MOL0     C89765   0.154   5.681   6.282  0.4534 -0.4901  0.7190
  651MOL0     C89766   0.545   5.684   6.796 -0.1299 -1.0498 -0.7846
  651MOL0     C89767   0.677   5.677   6.855  0.3183 -1.4057  0.4066
  651MOL0     C89768   0.765   5.812   6.882  0.2453  0.2986 -0.2859
  651MOL0     H89769   1.102   5.345   6.900 -2.1483 -2.2029  0.1042
  651MOL0     H89770   1.324   5.303   7.015  1.5697  0.8393  2.1128
  651MOL0     H89771   1.381   5.497   7.315 -2.8997 -1.3810 -2.0245
  651MOL0     H89772   1.489   5.461   7.187  1.9306 -0.1786  1.4921
  651MOL0     H89773   1.632   5.467   7.372  2.0524 -0.4498  1.4766
  651MOL0     H89774   1.520   5.351   7.463 -0.0868 -1.3345 -0.2439
  651MOL0     H89775   1.587   5.188   7.265  0.2500 -0.1378  0.3349
  651MOL0     H89776   1.709   5.303   7.228  0.3629 -2.9671 -0.4145
  651MOL0     H89777   1.747   5.263   7.509  1.2508  0.6067 -0.3089
  651MOL0     H89778   1.743   5.108   7.444 -2.3033  0.3686  0.3439
  651MOL0     H89779   1.907   5.336   7.319  1.1775 -0.2980 -1.7542
  651MOL0     H89780   1.918   5.166   7.276 -1.7128 -1.6829  0.1748
  651MOL0     H89781   1.997   5.278   7.551  3.7165  1.0094 -0.2265
  651MOL0     H89782   1.995   5.104   7.505  0.9191 -0.2793 -1.7201
  651MOL0     H89783   2.163   5.290   7.317 -0.2073  0.9873 -0.6998
  651MOL0     H89784   2.159   5.116   7.355 -1.3131  0.0040 -0.0088
  651MOL0     H89785   2.245   5.343   7.537  1.8766 -0.0143  0.0976
  651MOL0     H89786   2.224   5.172   7.584 -0.2441  0.1479 -0.6899
  651MOL0     H89787   2.419   5.436   7.408  0.5979  0.6176 -3.5785
  651MOL0     H89788   2.657   5.435   7.247  2.7230  1.6629 -0.9865
  651MOL0     H89789   2.747   5.278   7.256 -2.0293 -0.0079 -2.9828
  651MOL0     H89790   2.731   5.478   7.485  0.8040  0.4570 -0.6770
  651MOL0     H89791   2.793   5.309   7.494  0.8906 -0.9327 -2.3923
  651MOL0     H89792   2.947   5.391   7.298 -1.1642 -0.4457  0.7929
  651MOL0     H89793   2.892   5.555   7.324 -0.7002  0.6228  0.0039
  651MOL0     H89794   2.970   5.544   7.553  1.2682  1.7237 -0.6810
  651MOL0     H89795   3.051   5.387   7.516 -1.2597  0.0462  1.7559
  651MOL0     H89796   3.349   5.656   7.332 -0.3058  1.4072 -0.8639
  651MOL0     H89797   3.546   5.892   7.473  0.6153 -0.0863  0.4296
  651MOL0     H89798   3.512   5.793   7.324  1.3620  0.4145 -0.0021
  651MOL0     H89799   3.622   5.733   7.462  0.4128  0.3449 -0.3629
  651MOL0     H89800   3.783   5.797   7.855  0.5073 -2.3394  1.1079
  651MOL0     H89801   3.919   5.904   8.038 -0.2310 -1.7919 -4.2189
  651MOL0     H89802   3.708   6.108   8.323  2.5123  2.5267 -1.4001
  651MOL0     H89803   3.757   6.019   8.477 -0.1227  0.3405  0.5016
  651MOL0     H89804   3.860   6.228   8.460 -0.7997 -0.2737 -0.3276
  651MOL0     H89805   3.978   6.088   8.439 -0.4997  1.7235  1.7363
  651MOL0     H89806   3.882   6.286   8.225 -0.4275 -0.0142  0.5868
  651MOL0     H89807   3.981   6.139   8.200 -1.2866  0.3115 -0.1787
  651MOL0     H89808   4.054   6.350   8.411 -0.0711  3.7562 -2.5073
  651MOL0     H89809   4.092   6.366   8.238 -1.5602 -0.0359 -0.9660
  651MOL0     H89810   4.191   6.139   8.426 -1.4941 -4.9552 -2.2107
  651MOL0     H89811   4.182   6.116   8.259 -1.0583  1.7773  0.4367
  651MOL0     H89812   4.335   6.353   8.394  1.1570  0.6077 -0.8599
  651MOL0     H89813   4.318   6.332   8.222  0.3166 -2.0559 -1.3919
  651MOL0     H89814   4.430   6.117   8.219 -2.1166  0.7888 -0.4221
  651MOL0     H89815   4.404   6.090   8.392 -1.0800  0.5172  0.3999
  651MOL0     H89816   4.581   6.307   8.271 -0.4165 -1.8109 -1.9201
  651MOL0     H89817   4.652   6.157   8.341 -3.6250 -3.6715  0.8294
  651MOL0     H89818   3.570   5.884   8.295  2.0324 -0.3488  0.6754
  651MOL0     H89819   3.453   5.783   8.116 -0.1450 -0.6801 -2.1329
  651MOL0     H89820   3.311   5.630   7.819 -0.7958 -0.5923 -0.2228
  651MOL0     H89821   3.147   5.522   7.692 -3.1192  1.8210 -0.7375
  651MOL0     H89822   1.150   5.410   7.390  1.4619 -1.6267  0.3767
  651MOL0     H89823   0.932   5.439   7.284 -1.4634 -1.2404 -1.1060
  651MOL0     H89824   0.686   5.350   6.914  0.9518  0.2586 -1.2678
  651MOL0     H89825   0.457   5.357   6.779  0.7592 -0.5038 -0.6490
  651MOL0     H89826   0.363   5.545   6.483  0.0831  1.3227  0.4187
  651MOL0     H89827   0.391   5.404   6.584 -0.9192  0.5002  2.4722
  651MOL0     H89828   0.127   5.538   6.591  1.4825  0.8411 -1.2038
  651MOL0     H89829   0.181   5.399   6.679 -0.2449 -0.5560 -0.3212
  651MOL0     H89830   0.227   5.325   6.407 -1.2363 -1.1311 -0.8874
  651MOL0     H89831   0.090   5.288   6.511  2.7615 -1.4316  1.4759
  651MOL0     H89832  -0.032   5.495   6.445  0.6972  3.1707 -0.9275
  651MOL0     H89833   0.010   5.405   6.302 -1.0777  1.0049  0.1078
  651MOL0     H89834   0.187   5.770   6.232  4.1510 -1.8766  0.3854
  651MOL0     H89835   0.499   5.778   6.765 -2.9656 -1.8752  0.6289
  651MOL0     H89836   0.818   5.799   6.977  4.1194 -0.8625 -2.4051
  651MOL0     H89837   0.845   5.803   6.808  1.2687 -1.9040  0.9939
  651MOL0     H89838   0.708   5.905   6.876  0.1933  0.4127  1.4451
  652MOL0     O89839   5.751   6.246   9.282 -0.1815  0.0405 -1.0772
  652MOL0     C89840   5.786   6.357   9.321  0.7118  0.1006  0.6579
  652MOL0     O89841   5.915   6.383   9.362 -0.1355 -0.6412 -0.1520
  652MOL0     C89842   6.003   6.279   9.369  0.3793 -0.0305  0.2254
  652MOL0     C89843   5.962   6.163   9.445 -0.2832  0.9716  0.3746
  652MOL0     C89844   6.040   6.052   9.453  1.4095  0.4173  0.4633
  652MOL0     C89845   6.164   6.051   9.392 -0.0476  0.0838  0.6687
  652MOL0     O89846   6.230   5.926   9.390  0.6651 -0.2085 -0.0677
  652MOL0     C89847   6.354   5.914   9.324  0.1086 -0.2370  0.8590
  652MOL0     C89848   6.463   5.917   9.431  0.4351 -0.3601 -1.1949
  652MOL0     C89849   6.432   5.813   9.542 -0.6472  0.1476  0.3091
  652MOL0     C89850   6.561   5.750   9.593  0.0912  0.4094 -0.2921
  652MOL0     C89851   6.614   5.657   9.486  0.1443  0.3020 -1.1608
  652MOL0     C89852   6.761   5.694   9.458 -0.2488  0.6657 -0.5135
  652MOL0     C89853   6.801   5.595   9.347 -0.5993 -0.1587  0.2850
  652MOL0     C89854   6.943   5.591   9.310  0.2366 -0.7337  0.1022
  652MOL0     N89855   7.030   5.539   9.414  0.4432  0.0853  0.0873
  652MOL0     C89856   7.104   5.612   9.505  0.5711 -0.3648  0.1339
  652MOL0     C89857   7.189   5.528   9.568  0.4971 -0.6428  0.0879
  652MOL0     C89858   7.278   5.566   9.679  0.4832  0.7116 -0.2824
  652MOL0     C89859   7.409   5.622   9.634  0.1108  0.5531 -0.4922
  652MOL0     C89860   7.500   5.513   9.571 -0.0005  0.1803  0.3912
  652MOL0     C89861   7.644   5.559   9.550 -0.5537  0.1850 -0.1625
  652MOL0     O89862   7.702   5.469   9.458  0.2703 -0.4191  0.5748
  652MOL0     C89863   7.837   5.462   9.454  0.0491 -0.6443  0.0186
  652MOL0     C89864   7.926   5.538   9.532  0.1142  1.1927  0.3736
  652MOL0     C89865   8.063   5.542   9.498 -0.0130 -0.3433  0.4837
  652MOL0     C89866   8.151   5.623   9.599  0.1098  0.3121 -0.1064
  652MOL0     C89867   8.113   5.479   9.384 -0.2650  0.1992  0.2145
  652MOL0     C89868   8.251   5.495   9.336  0.3806 -0.2644  0.1399
  652MOL0     O89869   8.305   5.390   9.260 -0.2957  0.6316  0.4299
  652MOL0     C89870   8.429   5.391   9.205  0.4232 -0.1122  0.9174
  652MOL0     C89871   8.506   5.274   9.221 -0.7454  0.2871 -0.6732
  652MOL0     C89872   8.626   5.262   9.154 -0.2189 -0.2856 -0.4932
  652MOL0     C89873   8.662   5.353   9.051  0.2500 -0.1226 -0.0115
  652MOL0     O89874   8.777   5.343   8.961  0.5672  0.0830  0.3053
  652MOL0     C89875   8.876   5.246   8.992  0.2042  0.8343 -0.4079
  652MOL0     C89876   8.938   5.211   8.855  0.5947  0.2598  0.1675
  652MOL0     C89877   9.007   5.078   8.863 -0.9446 -0.1446  0.1660
  652MOL0     C89878   9.112   5.071   8.745 -0.1558  0.4677  0.2396
  652MOL0     C89879   9.249   5.127   8.798 -0.7318 -0.0614 -0.5908
  652MOL0     C89880   9.362   5.085   8.703 -0.2933  0.0696  0.6465
  652MOL0     C89881   9.488   5.173   8.725 -0.8274  0.2440 -0.0457
  652MOL0     C89882   9.614   5.125   8.659  0.1314 -1.0729  0.5263
  652MOL0    Cl89883   9.627   5.183   8.492 -0.4612 -0.1645  0.0649
  652MOL0     C89884   8.582   5.467   9.040 -0.2500 -0.2921  0.3120
  652MOL0     C89885   8.460   5.481   9.106 -0.6248 -0.3773 -0.6710
  652MOL0     O89886   8.314   5.600   9.363 -0.3097  0.8998 -0.5287
  652MOL0     C89887   8.028   5.393   9.316  0.1507  0.3027 -0.7093
  652MOL0     C89888   7.893   5.379   9.355 -0.6528  0.5154 -0.0574
  652MOL0     N89889   7.154   5.407   9.522  0.0216 -0.1807 -1.3517
  652MOL0     N89890   7.059   5.404   9.436 -0.3446  0.0376 -0.7087
  652MOL0     C89891   6.223   6.176   9.343  0.2283  0.5310  0.3609
  652MOL0     C89892   6.139   6.287   9.331 -0.3523 -0.2178 -0.8778
  652MOL0     C89893   5.677   6.459   9.323 -0.3662 -0.1776  0.6551
  652MOL0     C89894   5.714   6.589   9.362 -0.5314 -0.3764 -0.1809
  652MOL0     C89895   5.632   6.698   9.353 -0.3540  0.1387  1.3152
  652MOL0     C89896   5.503   6.691   9.320  0.3689 -0.9361 -0.4026
  652MOL0     O89897   5.410   6.796   9.329  0.4236  0.5363  0.2667
  652MOL0     C89898   5.409   6.881   9.440  0.1958 -0.0162 -0.4269
  652MOL0     C89899   5.264   6.885   9.481 -0.3554  0.1225  0.8757
  652MOL0     C89900   5.247   6.944   9.617 -0.3964 -0.4379  0.4369
  652MOL0     C89901   5.313   7.082   9.613  0.3719 -0.8398  0.0909
  652MOL0     C89902   5.441   7.092   9.682  0.0141 -0.3366  0.7097
  652MOL0     C89903   5.547   7.109   9.733 -0.6827  0.6299 -0.5672
  652MOL0     C89904   5.460   6.563   9.271  1.1235  0.1351 -1.3408
  652MOL0     C89905   5.547   6.454   9.263 -0.4128  0.2485  0.2085
  652MOL0     C89906   5.507   6.333   9.191 -0.6127  0.4180 -0.0985
  652MOL0     H89907   5.862   6.157   9.487 -0.4914  4.5199  0.7134
  652MOL0     H89908   6.009   5.953   9.483 -1.2494  0.3709 -2.0300
  652MOL0     H89909   6.369   5.987   9.245  0.5681 -0.3699  0.8186
  652MOL0     H89910   6.351   5.817   9.274  0.4376  1.5577 -2.9388
  652MOL0     H89911   6.559   5.905   9.381  2.0681  5.3914 -0.2402
  652MOL0     H89912   6.464   6.013   9.483  1.7867 -1.0194  0.0417
  652MOL0     H89913   6.385   5.861   9.629  0.8324  2.4862 -0.1007
  652MOL0     H89914   6.362   5.738   9.505  0.4988 -0.4879 -0.6188
  652MOL0     H89915   6.632   5.829   9.620 -0.7699  1.1074 -0.0230
  652MOL0     H89916   6.541   5.700   9.688  1.4287  4.9782  2.7473
  652MOL0     H89917   6.559   5.666   9.392 -0.3525  1.2979 -0.7895
  652MOL0     H89918   6.621   5.559   9.534  1.2742  2.2129  3.0463
  652MOL0     H89919   6.769   5.796   9.419 -0.1601  0.0188 -2.2726
  652MOL0     H89920   6.820   5.685   9.550  0.3650 -3.0157 -1.1042
  652MOL0     H89921   6.738   5.608   9.258 -1.9897  0.7370  1.3508
  652MOL0     H89922   6.771   5.496   9.381 -2.2177  0.0037 -0.5903
  652MOL0     H89923   6.954   5.533   9.219  0.6042 -0.0315 -0.3065
  652MOL0     H89924   6.986   5.688   9.285  2.7894 -1.5968  0.8287
  652MOL0     H89925   7.107   5.720   9.516  1.2873 -0.4532  0.9784
  652MOL0     H89926   7.292   5.479   9.743 -1.4520  2.2245  2.4036
  652MOL0     H89927   7.227   5.637   9.745 -1.2615  0.4919 -1.3291
  652MOL0     H89928   7.400   5.696   9.554 -3.0719  0.3652 -0.4254
  652MOL0     H89929   7.446   5.678   9.720 -2.3097  2.5650 -0.6743
  652MOL0     H89930   7.487   5.426   9.635 -1.3003 -1.5230 -2.0501
  652MOL0     H89931   7.464   5.488   9.472  2.5273 -2.6843  0.0658
  652MOL0     H89932   7.643   5.659   9.506  1.1743  0.3732  0.1495
  652MOL0     H89933   7.691   5.562   9.649 -0.1709 -1.8237 -0.2355
  652MOL0     H89934   7.903   5.596   9.621  2.2847  2.7264  0.0338
  652MOL0     H89935   8.242   5.572   9.631 -0.0422 -0.2161 -0.4946
  652MOL0     H89936   8.093   5.642   9.690  0.6718 -0.8328  0.5101
  652MOL0     H89937   8.177   5.718   9.553  1.9792 -0.4109 -0.6190
  652MOL0     H89938   8.474   5.198   9.291 -3.1143  0.0766 -1.8660
  652MOL0     H89939   8.678   5.170   9.182 -5.0432 -3.2983 -0.2919
  652MOL0     H89940   8.955   5.295   9.050 -1.1165  1.0609  1.2597
  652MOL0     H89941   8.837   5.153   9.032 -0.4910  1.8752  1.4473
  652MOL0     H89942   8.856   5.195   8.784  1.1581  2.7509 -1.1612
  652MOL0     H89943   8.994   5.300   8.825 -0.0401  1.2133  1.6415
  652MOL0     H89944   8.930   5.002   8.849 -0.9972 -0.5756  2.4548
  652MOL0     H89945   9.048   5.065   8.964 -1.1890  1.1823  0.4530
  652MOL0     H89946   9.082   5.111   8.648 -1.1509 -2.3607 -0.7220
  652MOL0     H89947   9.130   4.965   8.724  0.4728  0.5765  0.2232
  652MOL0     H89948   9.246   5.236   8.789  2.5921  0.0325 -2.5034
  652MOL0     H89949   9.272   5.102   8.902 -0.1311  2.1478 -0.1361
  652MOL0     H89950   9.320   5.108   8.604  0.6772  2.1766  0.6686
  652MOL0     H89951   9.396   4.981   8.706 -1.8340 -0.7012 -3.0511
  652MOL0     H89952   9.511   5.173   8.832  0.5518 -1.0207 -0.3090
  652MOL0     H89953   9.475   5.276   8.689  3.4658  0.4205 -1.6824
  652MOL0     H89954   9.624   5.016   8.660  0.0085 -1.1005 -0.3607
  652MOL0     H89955   9.695   5.182   8.705 -2.7833  2.8118  1.3447
  652MOL0     H89956   8.611   5.538   8.963  0.1633 -0.9620 -0.1651
  652MOL0     H89957   8.391   5.561   9.080 -0.2309  0.1641 -0.0919
  652MOL0     H89958   8.056   5.336   9.228 -0.1715 -1.7036  0.4244
  652MOL0     H89959   7.823   5.314   9.303 -3.2671  1.4980  2.0108
  652MOL0     H89960   6.324   6.197   9.311  0.3293  0.7040  0.7826
  652MOL0     H89961   6.182   6.380   9.295  1.6698  0.5447  2.9397
  652MOL0     H89962   5.818   6.609   9.386 -0.5856 -0.1734 -0.1109
  652MOL0     H89963   5.685   6.792   9.367 -0.8706  0.5077  0.8275
  652MOL0     H89964   5.453   6.838   9.530 -2.9134  0.1514  1.2940
  652MOL0     H89965   5.457   6.978   9.425 -0.3464  0.9372  3.1076
  652MOL0     H89966   5.221   6.785   9.487 -1.1559  0.4786  1.1979
  652MOL0     H89967   5.206   6.935   9.404 -0.2658 -2.4264 -0.9840
  652MOL0     H89968   5.140   6.960   9.631 -0.2353  0.8028  0.3634
  652MOL0     H89969   5.294   6.903   9.707  0.3994  0.1360  0.2899
  652MOL0     H89970   5.249   7.157   9.660  0.3704  0.4139 -1.8114
  652MOL0     H89971   5.330   7.114   9.510  1.6753 -3.8506 -0.7368
  652MOL0     H89972   5.635   7.134   9.789  1.0570 -3.3984 -1.1678
  652MOL0     H89973   5.356   6.567   9.241 -0.7516  2.8116  4.2351
  652MOL0     H89974   5.404   6.339   9.155 -0.4067 -1.0422 -1.0192
  652MOL0     H89975   5.562   6.319   9.098  1.5724  0.0943  1.1759
  652MOL0     H89976   5.512   6.250   9.262  1.0398 -0.9529 -1.7240
  653MOL0     O89977   1.119  11.068   0.543 -1.3150  0.2383 -0.0163
  653MOL0     C89978   1.044  11.164   0.546  0.2029  0.0181  1.1195
  653MOL0     O89979   1.083  11.301   0.535 -0.2057  0.4905 -0.0452
  653MOL0     C89980   1.221  11.305   0.510  0.3828  0.5311  0.1613
  653MOL0     C89981   1.320  11.273   0.600 -0.5647  0.0883 -0.3398
  653MOL0     C89982   1.456  11.295   0.557  0.5604  0.6680 -0.3881
  653MOL0     C89983   1.490  11.336   0.427  0.4356 -0.1834 -0.3079
  653MOL0     O89984   1.621  11.332   0.390 -0.3793 -0.8463 -0.1990
  653MOL0     C89985   1.659  11.351   0.253 -1.0386 -0.1268 -0.0876
  653MOL0     C89986   1.660  11.212   0.186 -0.4997 -0.6788  0.3540
  653MOL0     C89987   1.755  11.106   0.251  0.0337 -0.1736 -0.3202
  653MOL0     C89988   1.897  11.120   0.204 -0.3782  0.3458  0.4282
  653MOL0     C89989   1.988  11.010   0.250 -0.1489 -0.0223 -0.5865
  653MOL0     C89990   1.969  10.869   0.200  1.5061 -0.4302  0.3645
  653MOL0     C89991   2.088  10.781   0.222 -0.8336  0.2804 -0.4267
  653MOL0     C89992   2.177  10.768   0.100  0.0845 -0.0917  0.1218
  653MOL0     N89993   2.113  10.673   0.005  0.8437  0.5082  1.1792
  653MOL0     C89994   2.176  10.551  -0.037  0.3019 -1.3054  0.9301
  653MOL0     C89995   2.092  10.495  -0.121  0.0086  0.6013 -0.5352
  653MOL0     C89996   2.125  10.364  -0.170 -0.5196 -0.3437  0.5172
  653MOL0     C89997   2.240  10.359  -0.264  0.7495  0.4764  0.6285
  653MOL0     C89998   2.278  10.212  -0.281 -0.0573  0.4978 -0.1083
  653MOL0     C89999   2.420  10.186  -0.323 -0.5581  0.4558  0.1771
  653MOL0     O90000   2.458  10.259  -0.439 -0.2803  0.1611 -0.1708
  653MOL0     C90001   2.454  10.208  -0.565 -0.3024  0.6728  0.4337
  653MOL0     C90002   2.483  10.075  -0.597  0.0431 -0.3530 -0.6446
  653MOL0     C90003   2.464  10.024  -0.726  0.1459  1.0367 -0.5598
  653MOL0     C90004   2.471   9.879  -0.752  0.3405  0.0746  0.3581
  653MOL0     C90005   2.437  10.108  -0.834  0.4980 -1.6366  1.3164
  653MOL0     C90006   2.394  10.054  -0.971  0.1773 -1.0948 -0.0078
  653MOL0     O90007   2.290  10.125  -1.031  1.0612 -0.4893 -0.3926
  653MOL0     C90008   2.219  10.070  -1.131  0.0043 -0.4278  0.5765
  653MOL0     C90009   2.083  10.111  -1.132 -1.0505  0.0307 -0.0640
  653MOL0     C90010   1.989  10.066  -1.224  0.6539 -0.6823  0.1437
  653MOL0     C90011   2.032   9.976  -1.324  0.6204  1.4903  0.2816
  653MOL0     O90012   1.939   9.926  -1.419  0.0031  0.1016 -0.2068
  653MOL0     C90013   1.795   9.958  -1.410 -0.3264 -0.6492 -0.0205
  653MOL0     C90014   1.732   9.946  -1.549 -0.3176 -0.6524 -0.4279
  653MOL0     C90015   1.711   9.798  -1.593 -0.1448 -0.8434  0.9212
  653MOL0     C90016   1.643   9.776  -1.725  0.1636 -0.4986 -0.7349
  653MOL0     C90017   1.739   9.775  -1.847 -0.3947 -0.2085  1.1714
  653MOL0     C90018   1.829   9.654  -1.856 -0.4150  0.4899  0.2153
  653MOL0     C90019   1.931   9.640  -1.972 -0.3764 -0.1371  0.2437
  653MOL0     C90020   2.066   9.587  -1.936 -1.1495  0.2477 -0.5249
  653MOL0    Cl90021   2.179   9.589  -2.072 -0.0532 -0.1654  0.5183
  653MOL0     C90022   2.167   9.938  -1.328  0.5176  0.0779 -0.3159
  653MOL0     C90023   2.265   9.984  -1.236 -0.0767 -0.1523  0.4529
  653MOL0     O90024   2.462   9.966  -1.021 -0.5612 -0.3879 -0.9059
  653MOL0     C90025   2.426  10.250  -0.804  0.0631 -0.1108  0.0519
  653MOL0     C90026   2.424  10.295  -0.673  0.8909  0.2112 -0.3822
  653MOL0     N90027   1.978  10.572  -0.132  0.4382 -0.4467  0.4114
  653MOL0     N90028   1.996  10.681  -0.065  0.0095 -0.0491  0.3876
  653MOL0     C90029   1.384  11.376   0.343 -0.6819 -0.7216 -0.0626
  653MOL0     C90030   1.252  11.355   0.386  0.5038  0.4127  0.0192
  653MOL0     C90031   0.895  11.149   0.537  0.5693 -0.0939  0.0502
  653MOL0     C90032   0.843  11.014   0.557  0.1100  0.1770 -0.4223
  653MOL0     C90033   0.705  10.985   0.545 -1.1745 -0.0181  0.1240
  653MOL0     C90034   0.617  11.092   0.530 -0.3328  0.1025  0.5947
  653MOL0     O90035   0.488  11.040   0.523 -0.0435 -0.2453  0.2696
  653MOL0     C90036   0.378  11.126   0.548 -0.0462 -1.0512 -0.6516
  653MOL0     C90037   0.266  11.030   0.601 -0.2964 -0.1972 -0.4293
  653MOL0     C90038   0.136  11.107   0.626 -0.5193 -0.9453 -0.2162
  653MOL0     C90039   0.018  11.027   0.683 -1.0001  0.5010  0.4648
  653MOL0     C90040  -0.111  11.089   0.652  0.4676  0.1897  0.8715
  653MOL0     C90041  -0.221  11.141   0.639 -0.5078  0.2559  0.2982
  653MOL0     C90042   0.659  11.230   0.522 -0.9175 -0.1685 -0.2335
  653MOL0     C90043   0.796  11.265   0.507  0.2358  0.5191 -1.2702
  653MOL0     C90044   0.820  11.413   0.487 -0.3786 -0.6411  0.0864
  653MOL0     H90045   1.291  11.229   0.694 -0.2385 -2.5309 -1.3791
  653MOL0     H90046   1.543  11.272   0.617  0.8227 -0.7191 -1.2467
  653MOL0     H90047   1.761  11.391   0.255 -1.7463  1.9531 -1.2477
  653MOL0     H90048   1.594  11.428   0.210 -0.0376  1.3995  1.0288
  653MOL0     H90049   1.560  11.168   0.186 -1.0405  0.5354  0.3942
  653MOL0     H90050   1.696  11.211   0.082 -2.3150 -3.0084 -0.3464
  653MOL0     H90051   1.753  11.115   0.360 -0.3032 -1.7229 -0.1745
  653MOL0     H90052   1.725  11.005   0.222 -2.5648  0.5581 -0.4634
  653MOL0     H90053   1.893  11.133   0.096 -0.8227  3.7040  0.7330
  653MOL0     H90054   1.928  11.221   0.234 -0.7391  1.5606 -2.8697
  653MOL0     H90055   1.961  11.020   0.356  2.4699  1.8542 -0.0047
  653MOL0     H90056   2.093  11.034   0.229  0.6266 -2.8147 -0.2719
  653MOL0     H90057   1.881  10.819   0.242  0.3664  1.8193  0.8200
  653MOL0     H90058   1.941  10.874   0.095  2.4276  0.9020  0.1661
  653MOL0     H90059   2.060  10.678   0.247  0.4675 -0.5130 -2.0328
  653MOL0     H90060   2.148  10.814   0.307 -0.9020  2.5026 -1.1818
  653MOL0     H90061   2.196  10.865   0.053  2.5705 -0.6105 -0.1069
  653MOL0     H90062   2.272  10.726   0.134 -1.1674 -3.2572  0.0534
  653MOL0     H90063   2.273  10.516  -0.003  1.1219 -1.5083 -1.4259
  653MOL0     H90064   2.039  10.336  -0.232  1.4452 -1.9453 -1.6641
  653MOL0     H90065   2.127  10.295  -0.085 -1.0871 -1.3711 -0.2805
  653MOL0     H90066   2.212  10.400  -0.361  1.1572 -0.9764 -0.1330
  653MOL0     H90067   2.330  10.409  -0.225  0.3405  0.3690  1.7439
  653MOL0     H90068   2.262  10.135  -0.204 -3.2096  1.0051 -0.1108
  653MOL0     H90069   2.212  10.170  -0.357  2.1208  0.8439 -2.2966
  653MOL0     H90070   2.479  10.217  -0.236  1.1618  1.3704 -1.2480
  653MOL0     H90071   2.440  10.079  -0.335 -1.3999  0.1555  1.2785
  653MOL0     H90072   2.508  10.005  -0.517 -1.3503  0.5277  0.6162
  653MOL0     H90073   2.471   9.821  -0.660  1.7200  1.0742  1.0246
  653MOL0     H90074   2.558   9.853  -0.813 -0.4874 -2.7801  0.2618
  653MOL0     H90075   2.384   9.840  -0.805  2.2815 -1.0311 -2.2689
  653MOL0     H90076   2.053  10.177  -1.051  1.5900  0.6375  0.5226
  653MOL0     H90077   1.883  10.086  -1.216  0.6497  0.3403 -1.7963
  653MOL0     H90078   1.750   9.888  -1.339  1.7801 -2.1049 -0.0204
  653MOL0     H90079   1.779  10.059  -1.372  0.1861  0.0937 -1.7126
  653MOL0     H90080   1.635   9.996  -1.545  0.3290  0.8632 -2.2557
  653MOL0     H90081   1.796  10.012  -1.608  1.2599 -0.5482  1.3214
  653MOL0     H90082   1.648   9.746  -1.521  1.2486 -5.5038 -0.8550
  653MOL0     H90083   1.813   9.759  -1.582  1.1363  2.2470  1.1034
  653MOL0     H90084   1.555   9.840  -1.740  0.2932 -0.8075 -3.0938
  653MOL0     H90085   1.594   9.680  -1.706 -0.6418  0.2940  1.6756
  653MOL0     H90086   1.675   9.776  -1.936  0.2136 -2.1254  0.6647
  653MOL0     H90087   1.809   9.859  -1.855  0.4805 -1.0451 -0.6944
  653MOL0     H90088   1.774   9.562  -1.835 -0.5689  1.3726  4.6119
  653MOL0     H90089   1.897   9.668  -1.771  0.1937 -2.1339  0.2380
  653MOL0     H90090   1.956   9.741  -2.006  0.3709 -0.0063  1.1279
  653MOL0     H90091   1.881   9.575  -2.044 -0.9831  0.1043  0.4467
  653MOL0     H90092   2.053   9.488  -1.893 -3.8352  0.9509  0.5446
  653MOL0     H90093   2.108   9.651  -1.858 -1.9844 -1.1514  1.1436
  653MOL0     H90094   2.205   9.874  -1.407  0.2190  0.6634 -0.9401
  653MOL0     H90095   2.366   9.957  -1.263 -1.0358 -1.8260 -1.7977
  653MOL0     H90096   2.402  10.322  -0.881  3.5387 -0.7318 -1.8216
  653MOL0     H90097   2.390  10.397  -0.657  0.9445  0.3694 -1.2395
  653MOL0     H90098   1.394  11.413   0.242 -1.1788  1.5717  0.6849
  653MOL0     H90099   1.166  11.374   0.323 -1.1855 -0.7249  1.8514
  653MOL0     H90100   0.899  10.923   0.574 -0.2097 -0.1907 -1.2706
  653MOL0     H90101   0.662  10.890   0.576 -1.0473  0.8565  3.3106
  653MOL0     H90102   0.411  11.201   0.621 -1.6639 -0.5510 -0.3857
  653MOL0     H90103   0.353  11.177   0.454  1.4000  0.4074 -0.2938
  653MOL0     H90104   0.308  10.980   0.688  1.5805 -0.4870 -1.4416
  653MOL0     H90105   0.249  10.949   0.529  1.8020 -1.9509  0.9389
  653MOL0     H90106   0.160  11.186   0.698  1.4756 -0.6814 -1.1100
  653MOL0     H90107   0.100  11.153   0.533 -2.9880  2.0322  2.0200
  653MOL0     H90108   0.036  11.000   0.788 -2.0848 -5.1200 -0.4793
  653MOL0     H90109   0.013  10.925   0.646  0.2995  0.0741  1.3962
  653MOL0     H90110  -0.318  11.186   0.640  0.1316  1.7254 -0.5616
  653MOL0     H90111   0.572  11.292   0.505  0.8633  2.4749 -0.2804
  653MOL0     H90112   0.885  11.454   0.564 -2.7353  1.8528  0.9263
  653MOL0     H90113   0.874  11.424   0.393  2.8883  1.3849  2.0343
  653MOL0     H90114   0.732  11.478   0.480 -1.3899 -1.5445  3.0417
  654MOL0     O90115   5.441   6.583   0.854  0.0708  0.2316 -0.0095
  654MOL0     C90116   5.377   6.516   0.769 -0.1551 -0.2250 -0.9028
  654MOL0     O90117   5.396   6.520   0.629  0.6913  0.5007 -0.2501
  654MOL0     C90118   5.490   6.609   0.569  0.1648  0.1931 -0.2261
  654MOL0     C90119   5.515   6.735   0.622 -0.3710  0.3532 -0.1203
  654MOL0     C90120   5.606   6.825   0.567  0.5483  0.0114 -0.2703
  654MOL0     C90121   5.673   6.796   0.455 -0.0811  0.4758 -0.1026
  654MOL0     O90122   5.758   6.889   0.410  0.5984 -0.1695 -0.6624
  654MOL0     C90123   5.897   6.842   0.410  0.7680 -0.0366 -1.2579
  654MOL0     C90124   5.987   6.953   0.348 -0.3961  0.0237  0.4482
  654MOL0     C90125   6.019   7.065   0.443  0.0567 -0.4600 -0.0293
  654MOL0     C90126   6.139   7.150   0.399  0.1636  0.0080 -0.1292
  654MOL0     C90127   6.137   7.221   0.258 -0.2107 -0.2280  0.2518
  654MOL0     C90128   6.247   7.329   0.244 -0.0761 -0.1410  0.5357
  654MOL0     C90129   6.393   7.268   0.258 -0.3241  0.1592 -0.4237
  654MOL0     C90130   6.427   7.174   0.133  0.0338 -0.0801  0.0251
  654MOL0     N90131   6.561   7.202   0.071  0.5282 -1.2924 -0.0783
  654MOL0     C90132   6.680   7.184   0.129 -0.6983  0.2936 -0.4548
  654MOL0     C90133   6.766   7.199   0.032 -0.0896  0.0458 -0.3349
  654MOL0     C90134   6.913   7.199   0.045  0.4296  0.0221  0.9621
  654MOL0     C90135   6.966   7.062  -0.003  0.2198 -0.3612  0.3062
  654MOL0     C90136   6.917   6.939   0.087 -0.9197 -0.2364  0.6969
  654MOL0     C90137   7.009   6.819   0.072  0.3751 -0.0262  0.3693
  654MOL0     O90138   6.985   6.753  -0.051  0.3078  0.4222 -0.1338
  654MOL0     C90139   7.094   6.703  -0.128 -0.2526  0.1758 -0.4018
  654MOL0     C90140   7.074   6.656  -0.257  0.6443  0.2068  0.3295
  654MOL0     C90141   7.180   6.614  -0.337  0.2177 -0.3775 -0.7692
  654MOL0     C90142   7.148   6.587  -0.478 -0.2854  0.4299 -0.6462
  654MOL0     C90143   7.310   6.593  -0.285  0.1770  0.0213 -0.3623
  654MOL0     C90144   7.431   6.545  -0.357  0.9465 -0.7217  1.0409
  654MOL0     O90145   7.542   6.542  -0.283  0.2595 -0.0195 -0.1213
  654MOL0     C90146   7.660   6.503  -0.343  0.2931 -0.6436 -0.2246
  654MOL0     C90147   7.684   6.377  -0.395  0.3295 -0.4158  0.0157
  654MOL0     C90148   7.813   6.350  -0.446 -0.3196 -0.5068  0.4762
  654MOL0     C90149   7.916   6.442  -0.440  0.0071  0.2706 -0.6101
  654MOL0     O90150   8.041   6.414  -0.473 -0.0909 -0.0408  0.3785
  654MOL0     C90151   8.089   6.275  -0.478  0.5878 -0.1215 -0.2444
  654MOL0     C90152   8.244   6.267  -0.503  0.4553 -0.3875  0.5954
  654MOL0     C90153   8.302   6.124  -0.542 -0.4740  1.0060 -0.8106
  654MOL0     C90154   8.448   6.132  -0.561 -0.5309  0.4291 -0.8475
  654MOL0     C90155   8.525   6.000  -0.550 -0.0849  1.0297 -0.4520
  654MOL0     C90156   8.524   5.934  -0.404 -0.2325 -0.1371  0.3747
  654MOL0     C90157   8.628   5.814  -0.403 -0.4826 -1.4449  0.0416
  654MOL0     C90158   8.566   5.687  -0.453 -0.2481  0.2887 -0.2313
  654MOL0    Cl90159   8.443   5.629  -0.338  0.4191 -0.4318 -0.3272
  654MOL0     C90160   7.885   6.566  -0.388 -0.2525  0.1078 -0.1866
  654MOL0     C90161   7.757   6.601  -0.351 -1.0074  0.1370 -0.6223
  654MOL0     O90162   7.423   6.522  -0.476  0.1066 -0.1479  0.3633
  654MOL0     C90163   7.331   6.632  -0.146 -0.2529  0.4007 -0.0256
  654MOL0     C90164   7.223   6.682  -0.072 -0.5377  1.6883  0.7756
  654MOL0     N90165   6.701   7.241  -0.095 -0.3598  0.0537 -0.3760
  654MOL0     N90166   6.578   7.240  -0.064 -0.0365  0.2439  0.2833
  654MOL0     C90167   5.655   6.663   0.408 -0.6941 -0.7373  0.3140
  654MOL0     C90168   5.570   6.574   0.464 -0.6124 -0.6054  0.4662
  654MOL0     C90169   5.254   6.435   0.812  0.5835 -0.6635  0.0139
  654MOL0     C90170   5.214   6.318   0.737  0.8084 -0.1678 -0.2646
  654MOL0     C90171   5.122   6.225   0.778  0.1238  0.5450  0.4536
  654MOL0     C90172   5.058   6.233   0.899 -0.4245  0.7618  0.5327
  654MOL0     O90173   4.952   6.138   0.919 -0.5543 -0.5855  0.6303
  654MOL0     C90174   4.878   6.148   1.042 -0.0886 -0.0969 -0.2432
  654MOL0     C90175   4.856   6.004   1.090 -0.1056 -0.4273 -0.5823
  654MOL0     C90176   4.724   5.944   1.042  0.1477  0.3443  0.6840
  654MOL0     C90177   4.621   5.971   1.145  0.0795 -0.0162 -0.4846
  654MOL0     C90178   4.492   5.906   1.108 -0.1435  0.1725  0.3629
  654MOL0     C90179   4.394   5.836   1.072 -0.4394 -0.0665 -0.4298
  654MOL0     C90180   5.097   6.344   0.972 -0.4072 -0.1638 -0.5624
  654MOL0     C90181   5.185   6.452   0.937 -0.3001  0.6852 -0.1343
  654MOL0     C90182   5.204   6.560   1.044  0.4278  0.9970 -0.0874
  654MOL0     H90183   5.471   6.769   0.715  3.5110  1.4824  1.4905
  654MOL0     H90184   5.624   6.919   0.617 -0.0459 -1.7505  3.6352
  654MOL0     H90185   5.901   6.755   0.345  1.0822 -2.0391  1.2816
  654MOL0     H90186   5.928   6.802   0.507 -0.9173 -2.6895 -1.7106
  654MOL0     H90187   6.081   6.910   0.311 -0.0213 -1.0461  2.4928
  654MOL0     H90188   5.934   7.004   0.267 -0.2913 -3.3849 -1.9690
  654MOL0     H90189   5.936   7.136   0.446  2.1675  2.2141 -0.0469
  654MOL0     H90190   6.037   7.023   0.543  1.5519 -2.2178 -0.9856
  654MOL0     H90191   6.153   7.228   0.474  0.7743 -0.9016  0.7273
  654MOL0     H90192   6.232   7.094   0.414  0.4059  1.1222  3.3492
  654MOL0     H90193   6.039   7.264   0.237  1.0987  1.7442 -2.4496
  654MOL0     H90194   6.153   7.148   0.179 -0.8639 -1.6302  1.3668
  654MOL0     H90195   6.244   7.385   0.150 -4.3637  0.9019  1.0490
  654MOL0     H90196   6.215   7.398   0.323  1.1690  0.8682  0.1822
  654MOL0     H90197   6.413   7.215   0.352  3.8615 -1.6141 -2.0848
  654MOL0     H90198   6.462   7.353   0.263 -0.4795  0.3313 -1.0744
  654MOL0     H90199   6.424   7.067   0.155 -0.6515 -0.1199 -0.2438
  654MOL0     H90200   6.354   7.200   0.055  1.0463  5.7318  0.5453
  654MOL0     H90201   6.703   7.160   0.233 -1.3069  1.4632 -0.0353
  654MOL0     H90202   6.949   7.205   0.148 -0.1156 -1.0182  1.2285
  654MOL0     H90203   6.954   7.278  -0.018 -0.0618 -0.3374  0.1797
  654MOL0     H90204   6.947   7.044  -0.109 -0.9264  1.4449  0.1506
  654MOL0     H90205   7.075   7.068  -0.002  0.3378 -2.0640 -0.2557
  654MOL0     H90206   6.908   6.967   0.193 -2.7889 -2.1950  1.1280
  654MOL0     H90207   6.818   6.913   0.048 -0.9417  1.7673 -0.6929
  654MOL0     H90208   7.109   6.863   0.073  0.3793 -0.0239 -0.0508
  654MOL0     H90209   6.985   6.742   0.146  2.5088 -0.8853  0.2370
  654MOL0     H90210   6.968   6.662  -0.282  0.1973  1.1298  2.2251
  654MOL0     H90211   7.192   6.491  -0.508  1.7895  0.7335  1.2411
  654MOL0     H90212   7.191   6.663  -0.545  3.7908 -0.3274  0.8328
  654MOL0     H90213   7.041   6.581  -0.502 -0.2843  0.4038 -0.6454
  654MOL0     H90214   7.609   6.300  -0.400  1.3085 -1.3426 -1.1215
  654MOL0     H90215   7.819   6.254  -0.497  2.1765  0.3179 -0.9720
  654MOL0     H90216   8.054   6.222  -0.389 -0.3878 -2.1284 -1.7592
  654MOL0     H90217   8.038   6.229  -0.563  3.5988 -0.2249 -2.1614
  654MOL0     H90218   8.265   6.334  -0.587 -1.8603 -1.3671 -0.8938
  654MOL0     H90219   8.299   6.291  -0.412 -2.8818 -0.7924  2.8999
  654MOL0     H90220   8.258   6.083  -0.634 -1.6019 -0.2954  0.2508
  654MOL0     H90221   8.275   6.037  -0.480  1.6948  2.0409  1.7437
  654MOL0     H90222   8.490   6.196  -0.484 -1.5437  0.6390 -0.4570
  654MOL0     H90223   8.481   6.167  -0.659 -0.7836 -0.2413 -1.1778
  654MOL0     H90224   8.491   5.929  -0.627 -0.4501  1.1126 -0.3721
  654MOL0     H90225   8.629   6.016  -0.579  0.4116 -0.0812  0.6551
  654MOL0     H90226   8.428   5.891  -0.374 -0.8017  1.2332  0.6023
  654MOL0     H90227   8.551   6.000  -0.321 -0.4183 -3.6401  3.5045
  654MOL0     H90228   8.663   5.795  -0.301  1.5832 -1.1156 -0.5711
  654MOL0     H90229   8.709   5.855  -0.464 -1.1172  2.3536  1.4360
  654MOL0     H90230   8.648   5.617  -0.470 -1.6228 -1.1341 -1.3359
  654MOL0     H90231   8.519   5.703  -0.551  0.9392 -1.8388 -1.2012
  654MOL0     H90232   7.953   6.650  -0.401 -1.4365  0.8832 -1.6354
  654MOL0     H90233   7.725   6.701  -0.324  1.0524  0.4752  0.8326
  654MOL0     H90234   7.424   6.604  -0.098 -1.1815 -3.3701 -0.0510
  654MOL0     H90235   7.235   6.696   0.035 -0.4248 -0.5069  1.1024
  654MOL0     H90236   5.707   6.640   0.316  0.4294  3.1472 -0.2210
  654MOL0     H90237   5.572   6.476   0.419  0.4535 -0.6785  0.6496
  654MOL0     H90238   5.258   6.298   0.640 -0.3075  2.3171 -1.3677
  654MOL0     H90239   5.099   6.143   0.711  2.0600  0.3189  0.0111
  654MOL0     H90240   4.919   6.223   1.110 -2.3920  2.5505 -1.5555
  654MOL0     H90241   4.778   6.186   1.019  0.3644  0.4548 -1.3500
  654MOL0     H90242   4.860   5.994   1.199 -4.8550 -1.0356 -0.2712
  654MOL0     H90243   4.929   5.931   1.054  2.0345  0.9915  0.6587
  654MOL0     H90244   4.695   5.993   0.948  0.5822  0.7955  0.7773
  654MOL0     H90245   4.735   5.836   1.029  2.4005  0.7592 -1.8240
  654MOL0     H90246   4.608   6.078   1.162  0.3533 -0.2030  1.1272
  654MOL0     H90247   4.664   5.926   1.235  0.8603 -0.0231 -0.8566
  654MOL0     H90248   4.324   5.770   1.025 -1.8876  0.2133  1.2590
  654MOL0     H90249   5.048   6.356   1.068 -0.5212  0.1931 -0.6615
  654MOL0     H90250   5.192   6.654   0.990 -0.0377  1.8078  1.3581
  654MOL0     H90251   5.131   6.556   1.126 -0.1548 -0.5997 -0.6364
  654MOL0     H90252   5.300   6.549   1.094 -0.4705  1.8992  1.9673
  655MOL0     O90253   8.969   1.854   0.529 -0.3276  0.5867 -0.4767
  655MOL0     C90254   8.945   1.869   0.647 -0.0602  0.2502  0.2414
  655MOL0     O90255   8.848   1.946   0.699 -0.0086  0.3549 -0.0683
  655MOL0     C90256   8.731   1.948   0.627 -0.1472  0.5745  0.2406
  655MOL0     C90257   8.647   1.836   0.597  0.2122  0.0085  0.4005
  655MOL0     C90258   8.535   1.855   0.515  0.0901  0.2320  0.3295
  655MOL0     C90259   8.504   1.983   0.461  0.5168  0.7361 -0.2462
  655MOL0     O90260   8.392   1.996   0.379  0.1817 -0.0314 -0.0968
  655MOL0     C90261   8.287   2.044   0.467 -0.0980  0.6658  0.0072
  655MOL0     C90262   8.185   1.936   0.508  0.0082  0.2707 -0.4913
  655MOL0     C90263   8.110   1.870   0.395 -0.4500 -0.3278 -0.0646
  655MOL0     C90264   8.188   1.798   0.281  0.9905  0.3206  0.1417
  655MOL0     C90265   8.095   1.695   0.214 -0.1370 -0.4682 -0.1111
  655MOL0     C90266   8.162   1.610   0.117  0.0062 -0.0719  0.0922
  655MOL0     C90267   8.216   1.673  -0.009  0.5166 -0.1582  0.1753
  655MOL0     C90268   8.325   1.588  -0.065  0.4213  0.8759  0.6355
  655MOL0     N90269   8.395   1.679  -0.158 -0.4616  0.2715  0.4911
  655MOL0     C90270   8.360   1.706  -0.295 -0.1844  0.3817 -0.2521
  655MOL0     C90271   8.473   1.761  -0.345  0.6311  0.3063 -0.3606
  655MOL0     C90272   8.473   1.821  -0.482  0.5975 -0.6893  0.4986
  655MOL0     C90273   8.614   1.811  -0.553  1.1360  0.0960 -0.1368
  655MOL0     C90274   8.727   1.891  -0.491  0.2518 -0.3028 -0.2612
  655MOL0     C90275   8.864   1.883  -0.561 -0.3719 -0.5272  0.3009
  655MOL0     O90276   8.876   1.943  -0.687  0.2606  0.0959  1.3559
  655MOL0     C90277   8.998   1.955  -0.740 -0.2914 -0.1385  0.0543
  655MOL0     C90278   9.008   2.020  -0.863  0.8648 -0.4873 -0.0912
  655MOL0     C90279   9.125   2.030  -0.941 -0.3653 -0.0400 -0.4034
  655MOL0     C90280   9.117   2.092  -1.076  0.0824 -0.4479  0.7007
  655MOL0     C90281   9.248   1.993  -0.883  0.0543 -0.5878  0.7705
  655MOL0     C90282   9.385   2.010  -0.946  0.1654 -0.7339  0.4531
  655MOL0     O90283   9.394   1.999  -1.086 -0.0359  0.1816  0.6352
  655MOL0     C90284   9.512   2.032  -1.151 -0.2475 -0.5621 -0.1253
  655MOL0     C90285   9.585   2.156  -1.128 -0.6271  0.2236  0.4338
  655MOL0     C90286   9.696   2.192  -1.214  0.2728  0.5791  0.2728
  655MOL0     C90287   9.739   2.103  -1.315  0.4325 -0.3239 -0.3300
  655MOL0     O90288   9.852   2.148  -1.378 -0.0649 -0.0187  0.1086
  655MOL0     C90289   9.919   2.047  -1.455 -0.8081 -0.4115  0.8965
  655MOL0     C90290  10.040   2.121  -1.519  0.2126  0.4267  0.3027
  655MOL0     C90291  10.023   2.256  -1.585  0.4580  0.0593  0.4570
  655MOL0     C90292  10.145   2.344  -1.572 -0.4021  0.3989 -0.7010
  655MOL0     C90293  10.140   2.460  -1.674  0.3614 -0.3677 -0.4063
  655MOL0     C90294  10.269   2.555  -1.673 -0.1051  0.6323 -1.2699
  655MOL0     C90295  10.328   2.570  -1.523  0.4668 -0.0671  0.2234
  655MOL0     C90296  10.451   2.656  -1.540  0.1639 -0.3759 -0.5255
  655MOL0    Cl90297  10.409   2.808  -1.627 -0.2036 -0.0456 -0.2615
  655MOL0     C90298   9.667   1.990  -1.338 -0.3590 -0.2768 -0.4916
  655MOL0     C90299   9.550   1.955  -1.264  0.2777 -0.2311 -0.1199
  655MOL0     O90300   9.479   2.025  -0.870  0.5248  0.0652  0.1766
  655MOL0     C90301   9.241   1.937  -0.752  0.5625 -0.2828  0.5244
  655MOL0     C90302   9.127   1.926  -0.677 -0.5602  0.2711  0.1519
  655MOL0     N90303   8.574   1.763  -0.245  0.3628  0.0372 -0.5207
  655MOL0     N90304   8.520   1.708  -0.141  0.2182  0.0963  0.0726
  655MOL0     C90305   8.598   2.090   0.482  0.2920  0.1701  0.4976
  655MOL0     C90306   8.711   2.074   0.560  1.0342  0.1257  0.0453
  655MOL0     C90307   9.036   1.796   0.741 -0.2321 -0.3947 -0.4592
  655MOL0     C90308   9.020   1.825   0.879  0.9931  0.7106  0.1094
  655MOL0     C90309   9.102   1.755   0.975 -0.3213 -0.8226  0.2337
  655MOL0     C90310   9.205   1.667   0.948  0.6165 -0.5630  0.6571
  655MOL0     O90311   9.288   1.628   1.043  0.3928 -0.0239 -0.5845
  655MOL0     C90312   9.252   1.613   1.179 -0.3658  0.9243 -0.8479
  655MOL0     C90313   9.364   1.523   1.252 -0.3914 -0.4898  0.2456
  655MOL0     C90314   9.318   1.479   1.391 -0.3221  0.4445 -0.3324
  655MOL0     C90315   9.421   1.408   1.475 -0.5760 -0.1020  0.0284
  655MOL0     C90316   9.474   1.280   1.425 -0.5027  1.4751 -0.4289
  655MOL0     C90317   9.525   1.173   1.392 -0.4975 -0.3641 -0.0194
  655MOL0     C90318   9.217   1.643   0.809  0.0632 -0.1690  0.1832
  655MOL0     C90319   9.134   1.697   0.714  0.8988  0.1351 -0.1074
  655MOL0     C90320   9.147   1.648   0.573  0.0131  0.7470  0.6010
  655MOL0     H90321   8.667   1.735   0.633  1.5711  0.9081  2.3423
  655MOL0     H90322   8.474   1.769   0.492  2.6253 -1.2475 -1.3218
  655MOL0     H90323   8.237   2.121   0.408 -2.1943 -0.9097 -0.3575
  655MOL0     H90324   8.315   2.094   0.561 -2.6895  1.4409  0.4561
  655MOL0     H90325   8.228   1.859   0.572  0.2318  0.1202 -0.8186
  655MOL0     H90326   8.128   2.001   0.576 -0.2718  1.3538 -1.7045
  655MOL0     H90327   8.046   1.794   0.441 -1.6740  0.9692  0.4361
  655MOL0     H90328   8.034   1.935   0.351 -0.9525 -1.5408 -1.0698
  655MOL0     H90329   8.228   1.865   0.204 -0.9606  0.6300 -0.6652
  655MOL0     H90330   8.269   1.739   0.326 -1.4187 -2.0270  1.7046
  655MOL0     H90331   8.014   1.747   0.162  0.8892  0.6834 -0.6092
  655MOL0     H90332   8.043   1.628   0.283  0.5418  0.0464  0.9376
  655MOL0     H90333   8.242   1.559   0.171 -0.0893 -2.0506 -1.5247
  655MOL0     H90334   8.079   1.542   0.095 -2.2935  2.4288  0.5185
  655MOL0     H90335   8.257   1.773   0.010 -2.1089  0.8414  1.0987
  655MOL0     H90336   8.135   1.684  -0.082  1.5432  1.5688 -0.7783
  655MOL0     H90337   8.404   1.548  -0.000  1.4239  1.1665 -0.3768
  655MOL0     H90338   8.287   1.502  -0.121  1.9119  1.4257 -1.3192
  655MOL0     H90339   8.264   1.687  -0.343 -1.0734 -1.1627  1.9325
  655MOL0     H90340   8.435   1.924  -0.477 -1.1128 -1.2627 -0.3858
  655MOL0     H90341   8.407   1.773  -0.554  0.2154  0.4363  0.0707
  655MOL0     H90342   8.638   1.704  -0.560 -1.7850 -0.5582 -2.3124
  655MOL0     H90343   8.593   1.853  -0.652  0.4327  3.8705  1.4687
  655MOL0     H90344   8.694   1.994  -0.474 -3.5422 -1.4414  0.2595
  655MOL0     H90345   8.748   1.849  -0.392 -1.2490  0.0301  0.2388
  655MOL0     H90346   8.928   1.942  -0.495 -1.2793 -0.2572  0.9590
  655MOL0     H90347   8.912   1.785  -0.569  1.0442  0.1205  0.6000
  655MOL0     H90348   8.919   2.043  -0.920  1.5448 -0.4305 -1.1425
  655MOL0     H90349   9.024   2.147  -1.086 -1.4141 -2.8162  0.7662
  655MOL0     H90350   9.122   2.009  -1.148  0.3027 -2.7059  3.1683
  655MOL0     H90351   9.204   2.155  -1.097 -2.0548  3.1611  1.8168
  655MOL0     H90352   9.563   2.229  -1.051 -0.3941  0.2007  0.5220
  655MOL0     H90353   9.751   2.285  -1.202  2.7087 -0.7365 -0.0684
  655MOL0     H90354   9.951   1.961  -1.395  1.9629 -1.1535 -1.4251
  655MOL0     H90355   9.851   2.003  -1.529 -0.7812 -0.0551  0.6547
  655MOL0     H90356  10.104   2.138  -1.432  1.0771 -0.3890 -0.1435
  655MOL0     H90357  10.093   2.048  -1.581 -0.7606  1.3045 -1.6563
  655MOL0     H90358   9.941   2.315  -1.543 -1.2135 -2.4342  0.9205
  655MOL0     H90359  10.007   2.241  -1.692  0.8250 -1.8443  0.6264
  655MOL0     H90360  10.230   2.280  -1.598 -1.1676 -0.0328 -2.2719
  655MOL0     H90361  10.156   2.391  -1.474 -1.0353  2.0198 -1.3766
  655MOL0     H90362  10.114   2.418  -1.772 -1.1444 -1.7811  0.5433
  655MOL0     H90363  10.051   2.521  -1.654  0.7772  1.4966 -3.5235
  655MOL0     H90364  10.244   2.651  -1.718 -1.9745  1.5975  1.5494
  655MOL0     H90365  10.336   2.498  -1.738 -0.3432  1.4985 -2.3008
  655MOL0     H90366  10.350   2.471  -1.481 -3.0667  0.5711  4.1773
  655MOL0     H90367  10.253   2.620  -1.462 -0.5976  1.0777 -1.9136
  655MOL0     H90368  10.533   2.603  -1.589  1.5450  0.9132  0.2944
  655MOL0     H90369  10.486   2.683  -1.440  3.5925  1.8711 -2.1215
  655MOL0     H90370   9.696   1.921  -1.417  0.2275  0.1484 -0.6542
  655MOL0     H90371   9.483   1.878  -1.301 -1.5164  1.6569 -1.0161
  655MOL0     H90372   9.333   1.908  -0.704  0.5603  2.3327  2.3194
  655MOL0     H90373   9.145   1.881  -0.580  1.9697  1.1407  0.1579
  655MOL0     H90374   8.583   2.184   0.428 -4.8531 -0.1354  0.9035
  655MOL0     H90375   8.794   2.143   0.574  1.0716  0.8059 -2.9692
  655MOL0     H90376   8.950   1.903   0.905  0.3509 -0.1189  0.9618
  655MOL0     H90377   9.086   1.800   1.072 -0.9901 -2.4451  0.8976
  655MOL0     H90378   9.247   1.715   1.219 -0.7319  0.7182 -0.3486
  655MOL0     H90379   9.156   1.560   1.183 -0.1286  0.5512  1.7965
  655MOL0     H90380   9.455   1.584   1.255 -0.2928 -0.6800  2.0797
  655MOL0     H90381   9.385   1.433   1.193 -0.0753  0.5933 -1.3671
  655MOL0     H90382   9.272   1.566   1.439  0.9546  0.3615  1.1167
  655MOL0     H90383   9.235   1.408   1.387 -0.8966  0.9847  1.2931
  655MOL0     H90384   9.382   1.398   1.577 -2.8053  3.1420 -0.3339
  655MOL0     H90385   9.499   1.484   1.477 -1.4076  0.7792 -0.2165
  655MOL0     H90386   9.585   1.089   1.362  3.7705  2.2094  0.5181
  655MOL0     H90387   9.280   1.557   0.789  0.2477 -1.0301  3.7797
  655MOL0     H90388   9.054   1.625   0.520 -0.0125 -1.4134  1.4960
  655MOL0     H90389   9.208   1.726   0.528  0.3081  0.3713  0.3450
  655MOL0     H90390   9.207   1.557   0.569 -0.6878  0.2699  0.6677
  656MOL0     O90391   4.234  10.166   1.872 -0.3962  0.0954  0.5115
  656MOL0     C90392   4.297  10.268   1.889  0.1859 -1.0166 -0.7869
  656MOL0     O90393   4.406  10.307   1.817  0.3742 -0.1815  0.3722
  656MOL0     C90394   4.453  10.226   1.716  0.5172 -0.6660  0.0836
  656MOL0     C90395   4.526  10.115   1.754  0.6664  0.4831  0.5619
  656MOL0     C90396   4.571  10.017   1.661  0.3441 -0.3702 -0.4737
  656MOL0     C90397   4.544  10.024   1.525 -0.6258 -0.0239 -0.4219
  656MOL0     O90398   4.573   9.931   1.431 -0.4689  0.6254 -0.0146
  656MOL0     C90399   4.488   9.819   1.446  0.0341 -0.2607  0.7459
  656MOL0     C90400   4.524   9.703   1.353  0.1377 -1.1638  0.2541
  656MOL0     C90401   4.680   9.689   1.344 -0.7693  0.0620 -0.4098
  656MOL0     C90402   4.763   9.662   1.468  0.8027  0.0489  0.1560
  656MOL0     C90403   4.700   9.566   1.565 -0.3787  0.2926 -1.2236
  656MOL0     C90404   4.794   9.511   1.682  0.2309  0.0075  0.0545
  656MOL0     C90405   4.800   9.614   1.798 -0.0344  0.0401  0.8589
  656MOL0     C90406   4.881   9.740   1.777  0.1977  0.1102  0.7170
  656MOL0     N90407   4.941   9.794   1.903  0.3480  0.1172 -0.2458
  656MOL0     C90408   5.025   9.730   1.993  0.8961 -0.2796  0.6375
  656MOL0     C90409   5.033   9.821   2.093  0.9608  0.5192  0.5489
  656MOL0     C90410   5.107   9.807   2.227 -0.0071  0.6179  1.2962
  656MOL0     C90411   5.251   9.863   2.236  0.4062 -0.9318  0.0813
  656MOL0     C90412   5.352   9.764   2.183  0.2458  1.0869  0.7643
  656MOL0     C90413   5.497   9.820   2.184 -0.4972 -0.5780  0.7373
  656MOL0     O90414   5.518   9.894   2.306  0.1538 -0.1999 -0.6984
  656MOL0     C90415   5.640   9.959   2.324  0.0313 -0.7275 -0.5267
  656MOL0     C90416   5.640  10.025   2.447 -1.1328 -0.2693  0.2306
  656MOL0     C90417   5.758  10.089   2.494  0.0738  0.2099  0.4720
  656MOL0     C90418   5.756  10.141   2.629 -0.0277  0.6385 -0.3541
  656MOL0     C90419   5.870  10.104   2.406 -0.2347 -0.2556 -0.7318
  656MOL0     C90420   6.001  10.160   2.455 -0.0761  0.0642  0.9185
  656MOL0     O90421   6.112  10.106   2.391  0.4474  0.0608  0.4583
  656MOL0     C90422   6.232  10.170   2.411  0.0165 -0.1158  0.1208
  656MOL0     C90423   6.287  10.172   2.536  0.8287 -0.3604 -0.4158
  656MOL0     C90424   6.412  10.228   2.557  0.1794  0.1198  0.7210
  656MOL0     C90425   6.492  10.270   2.454 -0.2399 -0.5950 -0.0321
  656MOL0     O90426   6.618  10.312   2.497 -0.2843 -0.0413 -0.4105
  656MOL0     C90427   6.717  10.351   2.395  0.9603  1.4654 -0.4096
  656MOL0     C90428   6.833  10.410   2.472  0.2825 -0.3917 -0.0127
  656MOL0     C90429   6.789  10.537   2.545 -0.3805 -0.3860  0.4419
  656MOL0     C90430   6.907  10.624   2.604 -0.1999  0.0874  0.1729
  656MOL0     C90431   6.990  10.552   2.712  1.0796  0.2629  0.0035
  656MOL0     C90432   7.123  10.620   2.745 -0.3876 -0.8097  0.2996
  656MOL0     C90433   7.205  10.660   2.629 -0.9256  0.3857  0.9702
  656MOL0     C90434   7.353  10.678   2.665  0.4203 -0.1448  0.2667
  656MOL0    Cl90435   7.445  10.712   2.513  0.0421 -0.3785 -0.1304
  656MOL0     C90436   6.439  10.265   2.328 -0.5728 -0.1968 -0.4050
  656MOL0     C90437   6.311  10.213   2.304 -0.3305 -0.1965  0.1144
  656MOL0     O90438   6.002  10.249   2.541 -0.2170  0.1180  0.0942
  656MOL0     C90439   5.866  10.048   2.280 -0.2251 -0.8109 -0.1590
  656MOL0     C90440   5.747   9.974   2.238 -0.7760 -0.8551  0.4424
  656MOL0     N90441   4.980   9.941   2.050  0.8093 -0.7326 -0.1605
  656MOL0     N90442   4.923   9.923   1.946 -0.1276  0.6082 -0.4226
  656MOL0     C90443   4.471  10.133   1.482 -0.1566 -0.2712  0.1375
  656MOL0     C90444   4.428  10.233   1.575 -0.6386  0.8118 -0.9063
  656MOL0     C90445   4.263  10.362   2.003  0.2434 -0.1291 -0.0625
  656MOL0     C90446   4.164  10.304   2.088  0.3567 -0.2349 -0.9582
  656MOL0     C90447   4.131  10.374   2.200  0.2159 -0.9687 -0.2472
  656MOL0     C90448   4.185  10.500   2.238 -0.0186  0.3428  0.7063
  656MOL0     O90449   4.140  10.545   2.360 -0.1249 -0.2057 -0.4963
  656MOL0     C90450   4.208  10.661   2.418  0.0078 -0.3720 -0.0618
  656MOL0     C90451   4.145  10.803   2.370 -0.1136  0.4711 -0.1161
  656MOL0     C90452   4.178  10.925   2.456 -0.4537 -0.3359 -0.1022
  656MOL0     C90453   4.094  11.046   2.403 -0.1581  0.1831 -0.0805
  656MOL0     C90454   4.151  11.107   2.277 -0.0271  0.3762 -0.8711
  656MOL0     C90455   4.202  11.146   2.175 -0.0178 -0.1359 -0.1931
  656MOL0     C90456   4.285  10.556   2.149  1.1255  0.3184  0.1043
  656MOL0     C90457   4.323  10.490   2.034  0.6261 -0.6451  1.0531
  656MOL0     C90458   4.411  10.577   1.939 -0.3877  0.7642  0.5294
  656MOL0     H90459   4.551  10.101   1.859 -0.0398 -0.5297  0.6123
  656MOL0     H90460   4.620   9.934   1.709 -0.1386  0.2556  1.1765
  656MOL0     H90461   4.385   9.846   1.420 -0.5213 -2.9678 -0.1816
  656MOL0     H90462   4.499   9.783   1.549 -1.6829 -0.4436  0.8981
  656MOL0     H90463   4.479   9.611   1.391 -0.0653 -1.2209 -0.1115
  656MOL0     H90464   4.488   9.726   1.252  0.0785 -1.7242  0.1476
  656MOL0     H90465   4.703   9.612   1.269  3.2101  1.5181 -0.9358
  656MOL0     H90466   4.720   9.785   1.310 -1.4955  0.1584 -0.9965
  656MOL0     H90467   4.863   9.626   1.439  0.8161 -0.7027  1.0616
  656MOL0     H90468   4.773   9.759   1.517  0.9856 -0.2227  0.6619
  656MOL0     H90469   4.676   9.474   1.511 -0.0341 -1.1258  0.8936
  656MOL0     H90470   4.602   9.607   1.594  0.6296  1.9229  0.0700
  656MOL0     H90471   4.750   9.418   1.718  0.0270  0.3544  0.7191
  656MOL0     H90472   4.892   9.492   1.637 -0.0212  0.7666 -0.8581
  656MOL0     H90473   4.851   9.563   1.879  0.1392 -1.5016 -0.1810
  656MOL0     H90474   4.695   9.645   1.812  0.0946  2.7096 -2.5732
  656MOL0     H90475   4.956   9.734   1.698  1.4459  0.9534  1.7977
  656MOL0     H90476   4.816   9.817   1.735  1.8916  0.2954 -1.7927
  656MOL0     H90477   5.067   9.630   1.983  1.7107  0.2558 -2.4431
  656MOL0     H90478   5.099   9.704   2.262  2.8439 -0.5860 -1.1323
  656MOL0     H90479   5.053   9.874   2.295  0.9441  3.2029 -0.3524
  656MOL0     H90480   5.256   9.958   2.183  1.2180 -0.1907  1.4417
  656MOL0     H90481   5.277   9.881   2.340  0.6224  2.6261 -0.4583
  656MOL0     H90482   5.354   9.677   2.251  3.6994 -1.0097 -1.6845
  656MOL0     H90483   5.324   9.741   2.080  0.2295 -1.3143  1.2336
  656MOL0     H90484   5.574   9.745   2.166  0.7588  1.4705 -3.7496
  656MOL0     H90485   5.500   9.900   2.110 -0.1962 -1.5481 -0.3206
  656MOL0     H90486   5.563  10.012   2.522 -0.0205 -0.9015  1.2939
  656MOL0     H90487   5.850  10.119   2.680 -1.2713  1.2838  2.3787
  656MOL0     H90488   5.677  10.100   2.692 -0.6021  2.4763  0.1701
  656MOL0     H90489   5.738  10.249   2.622 -1.0406  0.5926  1.2118
  656MOL0     H90490   6.233  10.135   2.623  1.7006  1.9889  1.2571
  656MOL0     H90491   6.452  10.219   2.658 -3.0163 -1.7753  1.9451
  656MOL0     H90492   6.744  10.264   2.336 -1.9481  0.5082 -0.4654
  656MOL0     H90493   6.668  10.420   2.326  0.9108  0.5318 -1.3354
  656MOL0     H90494   6.877  10.330   2.533 -1.0744 -0.6228  0.6954
  656MOL0     H90495   6.908  10.451   2.403  0.1156 -0.6158 -0.3305
  656MOL0     H90496   6.711  10.505   2.614 -0.6861  0.3089  0.4259
  656MOL0     H90497   6.732  10.599   2.475  1.7960  1.2086 -0.0072
  656MOL0     H90498   6.850  10.708   2.644 -2.5629 -1.7704  0.9171
  656MOL0     H90499   6.970  10.657   2.522  0.4869 -0.5885  0.4149
  656MOL0     H90500   6.936  10.547   2.807  3.1771 -0.5250  1.2033
  656MOL0     H90501   7.018  10.451   2.680  0.5945  0.8900 -2.6823
  656MOL0     H90502   7.178  10.544   2.801  1.5025 -0.0801 -0.4621
  656MOL0     H90503   7.112  10.704   2.815  0.7589  3.0124 -3.6469
  656MOL0     H90504   7.166  10.751   2.583  1.0999  0.4156 -0.8455
  656MOL0     H90505   7.197  10.586   2.549 -0.1328  0.1672  1.0826
  656MOL0     H90506   7.396  10.593   2.718 -1.7647 -1.6274 -0.1882
  656MOL0     H90507   7.358  10.762   2.736  0.5073  1.4239 -1.5143
  656MOL0     H90508   6.501  10.286   2.241 -1.9665  2.5790 -0.8343
  656MOL0     H90509   6.279  10.192   2.202  0.1474  0.3076 -0.1470
  656MOL0     H90510   5.952  10.071   2.217 -0.6439  3.2311  0.4468
  656MOL0     H90511   5.743   9.935   2.137 -0.1981 -3.3701  1.3145
  656MOL0     H90512   4.456  10.125   1.375  0.8738 -0.2286 -0.0249
  656MOL0     H90513   4.360  10.313   1.547 -1.6835  1.2421  2.4171
  656MOL0     H90514   4.113  10.209   2.078 -1.7232  0.8373 -1.0915
  656MOL0     H90515   4.059  10.336   2.271 -1.6148  2.6645  0.1148
  656MOL0     H90516   4.193  10.659   2.526 -1.4249 -1.0676 -0.2457
  656MOL0     H90517   4.315  10.661   2.394  0.0455  1.2187 -0.0489
  656MOL0     H90518   4.036  10.801   2.357 -0.3884  3.2787  1.1337
  656MOL0     H90519   4.180  10.815   2.267 -0.5077  1.0176 -0.1937
  656MOL0     H90520   4.162  10.894   2.559  2.0374 -2.6417 -0.2752
  656MOL0     H90521   4.285  10.948   2.459 -0.2321 -1.3699  0.3434
  656MOL0     H90522   4.089  11.118   2.486 -1.8990  2.9161 -2.3663
  656MOL0     H90523   3.993  11.019   2.373 -1.2033  2.2980  1.3189
  656MOL0     H90524   4.225  11.174   2.074 -3.0467  0.5414 -0.8021
  656MOL0     H90525   4.316  10.657   2.175 -0.8886  1.6403 -2.2231
  656MOL0     H90526   4.385  10.681   1.961 -4.4724  0.0735 -0.3017
  656MOL0     H90527   4.517  10.551   1.949 -0.2872  0.2812 -1.4548
  656MOL0     H90528   4.361  10.564   1.843 -1.3782  0.0349  1.1270
  657MOL0     O90529   3.781  10.355  10.235 -0.3842 -0.0856  0.1336
  657MOL0     C90530   3.765  10.297  10.343  0.5548 -0.0971  0.3874
  657MOL0     O90531   3.862  10.261  10.434 -0.7533  0.8769 -0.1945
  657MOL0     C90532   3.993  10.260  10.395  0.9742 -0.0366 -0.0425
  657MOL0     C90533   4.062  10.359  10.326 -0.0536  0.2893 -0.1804
  657MOL0     C90534   4.200  10.350  10.301 -1.2068  0.1403 -0.5728
  657MOL0     C90535   4.269  10.228  10.339  0.1203  0.7469 -0.5648
  657MOL0     O90536   4.403  10.219  10.323 -0.3191  0.5386  0.3703
  657MOL0     C90537   4.434  10.247  10.181 -0.7351 -0.3315 -0.1321
  657MOL0     C90538   4.579  10.203  10.168  0.2316 -0.0339 -1.3304
  657MOL0     C90539   4.600  10.054  10.147 -0.4562  1.4193  1.0328
  657MOL0     C90540   4.612   9.965  10.274  0.3305 -0.8794  0.2460
  657MOL0     C90541   4.722   9.994  10.374  1.3249 -0.4761 -0.3167
  657MOL0     C90542   4.859  10.035  10.316  0.4872  0.6049 -0.6534
  657MOL0     C90543   4.956  10.029  10.431 -0.8906  0.2091 -0.3322
  657MOL0     C90544   4.950  10.145  10.535 -0.5002  0.2885  0.3454
  657MOL0     N90545   5.073  10.150  10.613 -0.0288  0.1481 -0.4498
  657MOL0     C90546   5.137  10.269  10.649  0.1735 -0.1103  0.4203
  657MOL0     C90547   5.227  10.227  10.735 -1.0469  1.0272 -0.9272
  657MOL0     C90548   5.332  10.312  10.807  0.3497  0.4167 -0.2268
  657MOL0     C90549   5.438  10.224  10.875  0.2207  0.4477  0.4911
  657MOL0     C90550   5.519  10.299  10.968 -0.4794 -0.6973 -0.5264
  657MOL0     C90551   5.579  10.421  10.903 -0.4001  0.2147 -0.1266
  657MOL0     O90552   5.650  10.407  10.771 -0.4339  0.2070 -0.4504
  657MOL0     C90553   5.756  10.321  10.757 -0.1196 -0.5997  0.1350
  657MOL0     C90554   5.839  10.278  10.855  0.0435 -0.2268  0.2822
  657MOL0     C90555   5.936  10.177  10.827 -0.8182  0.3468 -0.8480
  657MOL0     C90556   6.023  10.139  10.945  0.1263 -0.0045  0.1782
  657MOL0     C90557   5.957  10.120  10.694  0.5441 -0.8528  0.2320
  657MOL0     C90558   6.061  10.026  10.655 -0.1316 -0.3309 -0.7369
  657MOL0     O90559   6.048   9.975  10.531  0.7909 -0.5491  0.5454
  657MOL0     C90560   6.145   9.906  10.461 -0.0444 -1.0127 -0.1212
  657MOL0     C90561   6.245   9.969  10.384 -1.1621 -0.0359 -0.1433
  657MOL0     C90562   6.340   9.889  10.308  0.0607 -0.1931 -0.3815
  657MOL0     C90563   6.328   9.751  10.305 -0.1550  0.5342 -0.2774
  657MOL0     O90564   6.410   9.670  10.224 -0.4439 -0.0076  0.1595
  657MOL0     C90565   6.341   9.554  10.167  0.1238  0.9351 -0.5344
  657MOL0     C90566   6.432   9.517  10.051 -0.5940  0.0614  0.3086
  657MOL0     C90567   6.419   9.366  10.029 -0.3561  0.4308  1.0473
  657MOL0     C90568   6.542   9.329   9.944 -0.1897  1.1518  0.3648
  657MOL0     C90569   6.554   9.178   9.917 -0.4563 -0.1039  0.0399
  657MOL0     C90570   6.662   9.132   9.827  0.4323 -1.0413  0.3785
  657MOL0     C90571   6.706   8.985   9.860 -0.2664 -0.0338 -0.7398
  657MOL0     C90572   6.831   8.947   9.773  0.9595  0.1458  0.1081
  657MOL0    Cl90573   6.982   9.043   9.796 -0.1815 -0.4376  0.1399
  657MOL0     C90574   6.224   9.697  10.383 -0.3406  0.5001  0.0496
  657MOL0     C90575   6.149   9.770  10.465  0.7873  0.5618  0.1831
  657MOL0     O90576   6.160  10.012  10.727 -0.1758  0.7669  0.5481
  657MOL0     C90577   5.864  10.163  10.602 -0.1086  0.3484  0.0710
  657MOL0     C90578   5.773  10.263  10.626  0.3313  0.0709 -0.1784
  657MOL0     N90579   5.217  10.090  10.758  0.3200 -0.6405  0.5579
  657MOL0     N90580   5.128  10.045  10.678  0.3809  0.2388 -0.1197
  657MOL0     C90581   4.204  10.130  10.413 -0.5228 -0.3788  0.5602
  657MOL0     C90582   4.066  10.139  10.435  0.0110 -0.0943 -0.9212
  657MOL0     C90583   3.622  10.297  10.407 -0.1631 -0.1803  0.1990
  657MOL0     C90584   3.605  10.235  10.532 -0.4605 -0.1211 -0.5022
  657MOL0     C90585   3.486  10.234  10.597 -0.5353  0.2559 -0.1770
  657MOL0     C90586   3.376  10.295  10.541  0.4551 -0.3773 -0.6210
  657MOL0     O90587   3.257  10.278  10.605  0.2833  0.2928 -0.1870
  657MOL0     C90588   3.147  10.335  10.546 -0.3493 -0.0861  1.0547
  657MOL0     C90589   3.035  10.329  10.654  0.2925  0.2250  0.2108
  657MOL0     C90590   3.007  10.186  10.693 -0.5025  0.1729 -0.8790
  657MOL0     C90591   2.857  10.168  10.707  0.2354  0.1203 -0.0322
  657MOL0     C90592   2.780  10.171  10.582 -0.9024  0.0479 -0.1306
  657MOL0     C90593   2.730  10.164  10.482  0.3491  0.4886  0.8012
  657MOL0     C90594   3.390  10.366  10.421  0.8133  0.0452  1.0262
  657MOL0     C90595   3.517  10.378  10.358  0.3562 -0.2141 -0.7738
  657MOL0     C90596   3.521  10.457  10.232 -0.2130  0.2762 -0.2431
  657MOL0     H90597   4.017  10.452  10.293 -0.8149 -0.8042 -2.4376
  657MOL0     H90598   4.259  10.430  10.258  0.5987 -0.8351 -0.0231
  657MOL0     H90599   4.427  10.355  10.162 -1.6787 -0.4517 -0.5091
  657MOL0     H90600   4.383  10.179  10.112  1.1936 -1.9346 -0.0622
  657MOL0     H90601   4.624  10.255  10.082  2.3329 -0.3868 -0.5216
  657MOL0     H90602   4.632  10.231  10.260  1.9647  0.0710 -2.3111
  657MOL0     H90603   4.522  10.020  10.078 -0.7186  2.7031  0.6715
  657MOL0     H90604   4.698  10.036  10.102 -0.6042 -0.1259  1.2818
  657MOL0     H90605   4.511   9.944  10.313  0.0292 -0.4861 -0.3049
  657MOL0     H90606   4.639   9.865  10.239 -2.2947 -1.1617 -1.2220
  657MOL0     H90607   4.736   9.899  10.427  0.7775  0.0013  0.7057
  657MOL0     H90608   4.688  10.078  10.435 -2.1780  1.8525 -4.7745
  657MOL0     H90609   4.892   9.970  10.234  1.7711  1.3064 -0.7181
  657MOL0     H90610   4.857  10.134  10.269 -1.0009  1.2620  0.6904
  657MOL0     H90611   5.056  10.028  10.386 -1.7636 -0.6388 -2.3686
  657MOL0     H90612   4.951   9.933  10.482 -3.3728 -0.4927 -1.7331
  657MOL0     H90613   4.937  10.238  10.478  4.0296  1.0926  0.2513
  657MOL0     H90614   4.861  10.140  10.598  0.0276  2.8433  1.4302
  657MOL0     H90615   5.124  10.368  10.607  1.7060 -0.4095 -0.8504
  657MOL0     H90616   5.275  10.353  10.890  1.4469  2.2292 -0.3244
  657MOL0     H90617   5.375  10.385  10.738  3.3946 -2.2099 -1.3863
  657MOL0     H90618   5.388  10.149  10.936 -1.4153 -0.6193 -1.9629
  657MOL0     H90619   5.495  10.176  10.795 -1.6851  0.6030 -1.0468
  657MOL0     H90620   5.470  10.342  11.056  2.7720  2.1061  0.1696
  657MOL0     H90621   5.587  10.219  10.999 -0.5191 -1.0167 -1.2416
  657MOL0     H90622   5.515  10.507  10.882  0.6410  0.3087 -3.4894
  657MOL0     H90623   5.655  10.461  10.970  0.5740  0.3683 -1.2837
  657MOL0     H90624   5.824  10.321  10.954 -2.4587 -0.7544  0.1918
  657MOL0     H90625   6.035  10.030  10.940 -0.4161 -0.3234  3.7607
  657MOL0     H90626   5.976  10.147  11.043  1.9503 -2.5060  1.3729
  657MOL0     H90627   6.120  10.187  10.930  0.2253 -0.3200 -0.2318
  657MOL0     H90628   6.242  10.077  10.376  1.7208  0.0823 -1.1152
  657MOL0     H90629   6.418   9.939  10.252  3.2275 -0.1268  3.6279
  657MOL0     H90630   6.341   9.472  10.239  2.3875 -0.5520 -2.0908
  657MOL0     H90631   6.237   9.569  10.136  0.1191  2.2422  0.0375
  657MOL0     H90632   6.388   9.575   9.970 -1.4218  1.2004  1.5300
  657MOL0     H90633   6.537   9.542  10.069 -0.0970 -0.0103 -2.1119
  657MOL0     H90634   6.332   9.338   9.969  0.5186  0.9361 -0.5205
  657MOL0     H90635   6.414   9.307  10.121 -0.9717 -0.6131  0.3744
  657MOL0     H90636   6.635   9.356   9.995  0.8825  0.4219 -1.1327
  657MOL0     H90637   6.538   9.380   9.847 -0.4856 -0.0122 -0.2580
  657MOL0     H90638   6.575   9.121  10.008  1.0862  0.6104  0.1582
  657MOL0     H90639   6.457   9.147   9.875  0.2239 -1.4502 -0.6003
  657MOL0     H90640   6.742   9.206   9.838  0.2439 -0.8846  0.7035
  657MOL0     H90641   6.624   9.150   9.726 -1.2567  0.7472  1.2541
  657MOL0     H90642   6.632   8.906   9.843 -1.6648  0.9548  0.4733
  657MOL0     H90643   6.736   8.984   9.966 -0.8453 -0.6814 -0.5767
  657MOL0     H90644   6.807   8.946   9.666  0.3833  1.0485  0.2199
  657MOL0     H90645   6.840   8.840   9.797 -1.3497 -0.3564 -0.9127
  657MOL0     H90646   6.200   9.591  10.396 -0.3215  0.4236 -0.5475
  657MOL0     H90647   6.092   9.717  10.541  1.0757  1.0608  0.7513
  657MOL0     H90648   5.864  10.118  10.503 -1.3416 -0.9712  0.6310
  657MOL0     H90649   5.709  10.282  10.540  0.0258  1.2794  0.3045
  657MOL0     H90650   4.257  10.040  10.443 -1.0356 -0.5696  0.8956
  657MOL0     H90651   4.021  10.060  10.494 -0.3734  1.3181  0.7556
  657MOL0     H90652   3.689  10.176  10.568 -1.7259 -2.8125 -1.6545
  657MOL0     H90653   3.483  10.185  10.694 -2.0657  0.2999 -0.1727
  657MOL0     H90654   3.169  10.441  10.526  0.1535 -0.1900  1.0517
  657MOL0     H90655   3.110  10.277  10.462 -3.0618  2.9672 -0.0698
  657MOL0     H90656   2.952  10.376  10.600 -0.0305 -0.9931 -0.3848
  657MOL0     H90657   3.052  10.409  10.727  1.4350  3.2048 -3.0782
  657MOL0     H90658   3.039  10.118  10.613  0.5712 -0.1197 -0.2218
  657MOL0     H90659   3.062  10.169  10.785 -1.7486  2.2821  0.3311
  657MOL0     H90660   2.812  10.246  10.770  0.7696  0.9643 -0.6876
  657MOL0     H90661   2.837  10.073  10.759  2.3030 -1.1278 -1.3721
  657MOL0     H90662   2.684  10.146  10.387 -0.7932  1.1336  1.2105
  657MOL0     H90663   3.310  10.422  10.373  2.7082  0.8341 -1.3950
  657MOL0     H90664   3.427  10.490  10.187  0.2477 -1.0596 -2.3479
  657MOL0     H90665   3.586  10.541  10.256  0.1381 -0.9636  4.1419
  657MOL0     H90666   3.556  10.392  10.151 -3.3457 -0.3336 -1.2494
  658MOL0     O90667   0.797   6.312   1.010  0.5699 -0.6848  0.1355
  658MOL0     C90668   0.879   6.311   1.096  0.2332  0.0549 -0.4429
  658MOL0     O90669   0.851   6.286   1.232 -0.4989 -0.0586  0.1114
  658MOL0     C90670   0.719   6.260   1.266  0.5824  0.4639  1.0803
  658MOL0     C90671   0.674   6.116   1.258  0.7492 -0.0011 -0.1969
  658MOL0     C90672   0.546   6.087   1.308 -0.3182  0.4591  0.1818
  658MOL0     C90673   0.470   6.186   1.378  0.0302  0.6997  0.6444
  658MOL0     O90674   0.347   6.153   1.441  0.6586  1.5587 -0.7801
  658MOL0     C90675   0.336   6.035   1.514 -1.1361 -1.5924  0.2034
  658MOL0     C90676   0.246   6.045   1.633 -0.5890 -0.3768 -0.7286
  658MOL0     C90677   0.288   6.154   1.737 -0.1517  0.4460 -0.4830
  658MOL0     C90678   0.351   6.094   1.852  0.0431 -0.0697  1.0392
  658MOL0     C90679   0.373   6.212   1.947 -0.4453  0.2191  0.1220
  658MOL0     C90680   0.443   6.172   2.076  0.1167  0.5273 -0.4081
  658MOL0     C90681   0.591   6.118   2.075  0.0276  0.3456  0.2982
  658MOL0     C90682   0.682   6.222   1.996 -0.2073  0.2809 -0.8527
  658MOL0     N90683   0.828   6.193   2.021  0.1580  0.1740  0.2792
  658MOL0     C90684   0.904   6.249   2.115  0.3768 -0.2478  0.5329
  658MOL0     C90685   1.026   6.225   2.085  0.5810 -0.6613  0.7075
  658MOL0     C90686   1.142   6.292   2.159  0.0198  0.3285 -0.1050
  658MOL0     C90687   1.182   6.420   2.098 -0.3646 -0.9097  0.4550
  658MOL0     C90688   1.237   6.524   2.193 -0.1189 -0.0947  1.0732
  658MOL0     C90689   1.204   6.658   2.143 -0.1645 -0.6052 -0.3295
  658MOL0     O90690   1.260   6.691   2.021 -0.6711 -0.3862 -0.2572
  658MOL0     C90691   1.381   6.765   2.019  0.4081 -0.3932 -0.5823
  658MOL0     C90692   1.463   6.810   2.128 -0.0848  0.3622 -0.2049
  658MOL0     C90693   1.584   6.881   2.095  0.0592  0.9686 -0.7730
  658MOL0     C90694   1.685   6.901   2.214  0.5067 -0.6385 -0.4261
  658MOL0     C90695   1.616   6.919   1.962 -0.2568  1.2106  0.8651
  658MOL0     C90696   1.749   6.973   1.927  0.0724  0.1113 -0.8997
  658MOL0     O90697   1.811   6.920   1.821 -0.3134  0.4681  0.0137
  658MOL0     C90698   1.941   6.952   1.784 -0.1919  0.5731 -0.2941
  658MOL0     C90699   2.040   6.994   1.876 -0.8340  0.9313  0.4252
  658MOL0     C90700   2.177   6.994   1.843 -0.3255  0.4261  0.4104
  658MOL0     C90701   2.225   6.961   1.712 -0.5899 -0.0525  0.0854
  658MOL0     O90702   2.359   6.955   1.669  0.1919  0.0718 -0.2035
  658MOL0     C90703   2.462   6.899   1.749  0.5946  0.5848  0.8391
  658MOL0     C90704   2.583   6.962   1.689 -0.0941  0.1771  0.3294
  658MOL0     C90705   2.695   6.972   1.788 -0.5983  0.3903 -0.4632
  658MOL0     C90706   2.798   7.080   1.739 -0.4709 -0.4258 -0.4897
  658MOL0     C90707   2.920   7.087   1.846  0.2295  0.9126  0.1154
  658MOL0     C90708   3.005   7.209   1.821  0.2423  0.7668  0.1332
  658MOL0     C90709   3.132   7.207   1.908  0.6727 -0.1006 -0.1671
  658MOL0     C90710   3.234   7.098   1.869  0.3765 -0.5462 -0.4769
  658MOL0    Cl90711   3.298   7.112   1.706 -0.1793 -0.0606  0.2150
  658MOL0     C90712   2.129   6.914   1.620 -0.0588 -0.2332 -0.1603
  658MOL0     C90713   1.985   6.905   1.659 -0.2351  0.1116 -0.7912
  658MOL0     O90714   1.777   7.077   1.986  0.5033 -0.5232  0.0544
  658MOL0     C90715   1.530   6.887   1.865  0.5664  0.2672  1.1500
  658MOL0     C90716   1.416   6.808   1.896 -0.7982  0.2932  0.5382
  658MOL0     N90717   1.024   6.157   1.962  0.9200 -0.0527 -0.4203
  658MOL0     N90718   0.901   6.139   1.927 -0.3203 -0.2902  0.8223
  658MOL0     C90719   0.509   6.316   1.390 -0.0109 -0.5377  0.2428
  658MOL0     C90720   0.625   6.357   1.321  0.5099  0.0685 -0.6423
  658MOL0     C90721   1.021   6.343   1.064 -0.4526 -0.4293  0.5905
  658MOL0     C90722   1.049   6.469   1.017 -0.8353 -0.0712  0.2623
  658MOL0     C90723   1.179   6.505   0.990  0.3679  0.2955 -0.3272
  658MOL0     C90724   1.286   6.422   1.023 -0.0992  0.2718 -0.0886
  658MOL0     O90725   1.417   6.461   0.999  0.1603  0.4630 -0.4967
  658MOL0     C90726   1.462   6.454   0.858  0.1196 -0.4536  0.6825
  658MOL0     C90727   1.594   6.538   0.851  0.3344  0.1217  0.3870
  658MOL0     C90728   1.708   6.473   0.925  0.0535 -0.2410  0.5152
  658MOL0     C90729   1.843   6.494   0.861 -0.1679 -0.2784 -0.2048
  658MOL0     C90730   1.873   6.637   0.839 -0.5225 -0.3607  0.1724
  658MOL0     C90731   1.891   6.753   0.816  0.6686  0.4943  0.0439
  658MOL0     C90732   1.253   6.299   1.076 -0.6298 -0.0208  1.2417
  658MOL0     C90733   1.122   6.261   1.101  0.3994  0.2279 -0.1871
  658MOL0     C90734   1.100   6.126   1.164  0.2746  0.2734 -0.0199
  658MOL0     H90735   0.742   6.043   1.214 -0.3196 -0.8470 -0.4782
  658MOL0     H90736   0.498   5.990   1.301  0.6756  0.0169 -0.7596
  658MOL0     H90737   0.430   6.006   1.562 -0.0045 -0.2468 -1.1013
  658MOL0     H90738   0.310   5.956   1.444  0.3602 -2.5109  0.6241
  658MOL0     H90739   0.149   6.068   1.588 -0.8071  0.3743  0.1013
  658MOL0     H90740   0.238   5.947   1.681  1.2069  0.1680  0.7991
  658MOL0     H90741   0.349   6.225   1.682 -1.3412 -0.4902 -3.2135
  658MOL0     H90742   0.202   6.193   1.794 -0.3817 -2.4443  1.4090
  658MOL0     H90743   0.288   6.018   1.899 -0.3731 -0.9476 -0.8311
  658MOL0     H90744   0.441   6.039   1.826 -1.6113 -1.8275 -1.4153
  658MOL0     H90745   0.275   6.254   1.975 -0.2757  1.4877 -1.0755
  658MOL0     H90746   0.421   6.297   1.899  0.4843 -0.7310 -0.6521
  658MOL0     H90747   0.435   6.250   2.153 -2.0479 -0.9197  0.9508
  658MOL0     H90748   0.385   6.094   2.127 -0.3125  0.7596 -0.5362
  658MOL0     H90749   0.599   6.018   2.031 -0.1705 -1.2851  3.6491
  658MOL0     H90750   0.615   6.110   2.181  0.9633  1.0624  0.1603
  658MOL0     H90751   0.649   6.221   1.892 -1.9849 -1.1512 -0.3246
  658MOL0     H90752   0.661   6.326   2.025  0.5946  1.0493 -2.8369
  658MOL0     H90753   0.870   6.299   2.205 -0.1327 -0.1707  0.3034
  658MOL0     H90754   1.235   6.234   2.163  2.6829  4.1502 -1.5876
  658MOL0     H90755   1.110   6.294   2.264  2.8278 -3.2678  1.0470
  658MOL0     H90756   1.263   6.398   2.028  0.4302  2.3238  0.1801
  658MOL0     H90757   1.103   6.469   2.039  1.1577  2.8984  1.2607
  658MOL0     H90758   1.179   6.500   2.283 -1.5643 -1.4779 -0.1614
  658MOL0     H90759   1.344   6.523   2.215 -0.2286 -3.1287  1.8727
  658MOL0     H90760   1.096   6.647   2.129 -0.5073  0.6867  1.1087
  658MOL0     H90761   1.232   6.731   2.220  0.8328 -2.1063  0.7769
  658MOL0     H90762   1.438   6.776   2.227  0.0805 -1.7112 -0.8256
  658MOL0     H90763   1.767   6.828   2.215 -2.0104 -3.7237  1.4625
  658MOL0     H90764   1.631   6.883   2.308  1.7485  0.6967  0.5838
  658MOL0     H90765   1.727   7.001   2.221 -0.9286 -0.0705  0.3784
  658MOL0     H90766   2.016   7.031   1.976 -0.5051  0.0819  0.8243
  658MOL0     H90767   2.252   7.040   1.906  0.3210  0.9086 -0.6815
  658MOL0     H90768   2.445   6.909   1.857 -1.6317  1.2879  0.4719
  658MOL0     H90769   2.469   6.791   1.732  0.2675  0.2925  2.4045
  658MOL0     H90770   2.618   6.907   1.602  1.0441 -0.5610  1.2258
  658MOL0     H90771   2.561   7.065   1.659  1.3608  0.8852  1.5614
  658MOL0     H90772   2.747   6.877   1.800 -1.5215  0.1149  1.8302
  658MOL0     H90773   2.656   6.999   1.886 -3.2703 -0.8162 -1.0953
  658MOL0     H90774   2.759   7.181   1.725  2.7617  1.0530  0.0520
  658MOL0     H90775   2.840   7.058   1.640 -0.7735  1.0632 -0.9744
  658MOL0     H90776   2.888   7.100   1.950 -0.5670  5.2719 -0.5200
  658MOL0     H90777   2.975   6.993   1.831  1.4657  1.0179  3.2435
  658MOL0     H90778   2.943   7.296   1.843 -1.4095 -0.3351 -0.0262
  658MOL0     H90779   3.025   7.212   1.714 -2.0432  0.2689 -0.3517
  658MOL0     H90780   3.110   7.198   2.014 -0.6847  1.3797 -0.2834
  658MOL0     H90781   3.180   7.305   1.896 -2.6338  1.6486 -0.0504
  658MOL0     H90782   3.193   7.001   1.899 -1.2047  0.5286  0.9792
  658MOL0     H90783   3.321   7.125   1.930 -1.3486  0.9601  1.4459
  658MOL0     H90784   2.156   6.870   1.525  4.5535 -0.4175  1.0059
  658MOL0     H90785   1.928   6.858   1.579  3.0947 -0.1016 -3.2541
  658MOL0     H90786   1.558   6.900   1.761 -0.5826 -1.3645  0.6030
  658MOL0     H90787   1.365   6.765   1.810  0.0118  0.2741  0.0578
  658MOL0     H90788   0.457   6.396   1.442 -0.5356 -0.7341  0.0217
  658MOL0     H90789   0.646   6.464   1.324 -0.8398  0.3420  1.6813
  658MOL0     H90790   0.962   6.530   0.995 -3.8417 -3.3133  2.1167
  658MOL0     H90791   1.213   6.599   0.948  0.8469  1.1099  1.7571
  658MOL0     H90792   1.482   6.352   0.823  2.1628 -0.6381  2.2072
  658MOL0     H90793   1.386   6.498   0.793  2.7163  0.0579 -2.2458
  658MOL0     H90794   1.574   6.633   0.901  2.0081 -0.9968  3.4593
  658MOL0     H90795   1.614   6.551   0.745 -1.1055 -0.2225  0.0630
  658MOL0     H90796   1.726   6.523   1.020  1.1119 -0.5542  0.4980
  658MOL0     H90797   1.697   6.366   0.944 -0.8837 -0.5005 -1.2380
  658MOL0     H90798   1.835   6.448   0.762 -1.9941  0.5648 -0.5064
  658MOL0     H90799   1.922   6.447   0.921  1.0713  1.0790 -0.7247
  658MOL0     H90800   1.917   6.851   0.780  1.3474  1.1057  2.0751
  658MOL0     H90801   1.337   6.236   1.102  0.6411  0.8335 -0.5619
  658MOL0     H90802   1.113   6.122   1.272  0.8035  0.2340 -0.0802
  658MOL0     H90803   1.000   6.085   1.150  0.0876 -0.5466  3.0761
  658MOL0     H90804   1.174   6.063   1.112 -0.3767  0.0780 -0.7247
  659MOL0     O90805  10.693   8.053  10.726 -0.7051 -0.7276  0.5428
  659MOL0     C90806  10.698   8.036  10.851 -0.7715 -0.0517 -0.6152
  659MOL0     O90807  10.807   7.991  10.910 -0.0097 -0.0546 -0.2631
  659MOL0     C90808  10.925   7.966  10.848  0.5532  0.4739 -0.0583
  659MOL0     C90809  10.937   7.852  10.783  0.4866  0.3190  1.0031
  659MOL0     C90810  11.041   7.814  10.704  0.1558  0.3038  0.0831
  659MOL0     C90811  11.150   7.899  10.697  0.6399  0.3192  0.2081
  659MOL0     O90812  11.259   7.868  10.615  0.3934  0.4587  0.8742
  659MOL0     C90813  11.353   7.967  10.586  0.5241 -0.4633 -0.0171
  659MOL0     C90814  11.460   7.925  10.505 -0.0130  0.4720  0.2555
  659MOL0     C90815  11.426   7.842  10.378 -0.2396  0.2869 -0.0996
  659MOL0     C90816  11.538   7.825  10.271 -0.7292  0.6370 -0.0107
  659MOL0     C90817  11.482   7.772  10.138 -0.2276 -0.0050  0.0485
  659MOL0     C90818  11.595   7.695  10.065  0.5945 -0.1307 -0.2072
  659MOL0     C90819  11.706   7.789  10.019 -0.1131  0.4208 -0.3873
  659MOL0     C90820  11.839   7.712  10.000  0.2126 -0.0687 -0.4451
  659MOL0     N90821  11.833   7.597   9.913  1.1332 -0.6336  0.4175
  659MOL0     C90822  11.826   7.466   9.950 -0.4324 -0.1826  0.0768
  659MOL0     C90823  11.799   7.389   9.843  0.6225 -0.4895 -0.2106
  659MOL0     C90824  11.782   7.245   9.837  0.2206 -0.1468  0.2013
  659MOL0     C90825  11.910   7.177   9.791  1.2881 -0.2592  0.7003
  659MOL0     C90826  11.912   7.031   9.799 -0.4547  0.4294  0.1488
  659MOL0     C90827  11.847   6.965   9.677  0.2651  0.4426 -0.3635
  659MOL0     O90828  11.704   6.989   9.672  0.7216  0.7086  0.2751
  659MOL0     C90829  11.607   6.949   9.755 -0.8111 -0.6804  0.1579
  659MOL0     C90830  11.630   6.869   9.874  0.5593 -0.5718  0.4468
  659MOL0     C90831  11.528   6.823   9.960 -0.4782  0.7701 -0.7590
  659MOL0     C90832  11.575   6.715  10.068  0.7632 -0.6951  1.1760
  659MOL0     C90833  11.395   6.868   9.942 -0.2512  0.0695  0.2057
  659MOL0     C90834  11.277   6.835  10.025  0.2636 -0.1350 -0.3365
  659MOL0     O90835  11.293   6.732  10.116  0.1679  0.4192  0.0840
  659MOL0     C90836  11.180   6.668  10.163 -0.0480  1.2076 -0.1902
  659MOL0     C90837  11.154   6.533  10.135  0.0946  0.9754 -0.2552
  659MOL0     C90838  11.045   6.463  10.197  0.8232 -0.4669  0.5786
  659MOL0     C90839  10.944   6.539  10.269  0.3332 -0.6302  1.2789
  659MOL0     O90840  10.839   6.462  10.313 -0.5555  0.0561  0.6452
  659MOL0     C90841  10.722   6.537  10.347 -0.2325 -0.3111 -0.5230
  659MOL0     C90842  10.597   6.449  10.363 -0.0487  0.8075 -0.9244
  659MOL0     C90843  10.570   6.376  10.227 -0.5101 -0.6246  0.2967
  659MOL0     C90844  10.441   6.299  10.224 -0.3872  1.3632  0.3256
  659MOL0     C90845  10.417   6.221  10.094 -0.5854 -0.3911 -0.7805
  659MOL0     C90846  10.362   6.310   9.983  1.5830 -0.3438 -0.5872
  659MOL0     C90847  10.226   6.379  10.029  0.2457 -0.5894 -0.1310
  659MOL0     C90848  10.109   6.349   9.929 -0.1737  0.7295  0.1757
  659MOL0    Cl90849  10.140   6.405   9.764 -0.2831  0.0027 -0.4542
  659MOL0     C90850  10.970   6.671  10.296  0.0747 -1.2437  0.5798
  659MOL0     C90851  11.088   6.725  10.248  0.8027 -0.2994  0.3756
  659MOL0     O90852  11.174   6.905  10.010 -0.0611  0.4211 -0.5859
  659MOL0     C90853  11.381   6.947   9.821 -0.4118  0.0499 -0.3075
  659MOL0     C90854  11.477   6.992   9.732 -0.1100 -0.7966 -0.7537
  659MOL0     N90855  11.783   7.473   9.731  0.4427 -0.1856  0.0509
  659MOL0     N90856  11.809   7.600   9.777  0.5625  0.4360  0.5030
  659MOL0     C90857  11.145   8.017  10.771  0.0087  0.4083  0.6485
  659MOL0     C90858  11.032   8.059  10.842 -0.1462 -0.6773  0.0959
  659MOL0     C90859  10.574   8.061  10.929  0.6283  0.1054 -0.3991
  659MOL0     C90860  10.446   8.064  10.866  0.3826  0.4943 -0.2381
  659MOL0     C90861  10.330   8.088  10.937  0.2856 -0.1532  0.9659
  659MOL0     C90862  10.327   8.112  11.073 -0.5902  0.2312  0.1375
  659MOL0     O90863  10.209   8.143  11.137  0.4099  0.6079  0.9452
  659MOL0     C90864  10.122   8.030  11.163 -0.3354  0.3181  0.2880
  659MOL0     C90865   9.992   8.084  11.230  1.0104  0.0567 -0.3466
  659MOL0     C90866   9.915   8.180  11.135  0.7919 -0.5333  0.3721
  659MOL0     C90867   9.832   8.286  11.204  0.4077  2.2506 -0.7778
  659MOL0     C90868   9.741   8.227  11.310 -0.8372  0.1017 -0.1599
  659MOL0     C90869   9.660   8.195  11.390  0.6471  0.0116 -0.3660
  659MOL0     C90870  10.452   8.100  11.142  0.4235  0.4100  0.5955
  659MOL0     C90871  10.571   8.077  11.075 -0.0528  0.1190 -1.1082
  659MOL0     C90872  10.695   8.078  11.156 -1.1463 -0.0344 -0.7096
  659MOL0     H90873  10.848   7.791  10.799  0.5795  0.4797  2.2376
  659MOL0     H90874  11.036   7.722  10.646  0.6822  0.4322 -0.1832
  659MOL0     H90875  11.385   8.021  10.676  0.8788 -0.2353 -0.2772
  659MOL0     H90876  11.302   8.043  10.526  0.9272 -0.8551 -0.8578
  659MOL0     H90877  11.510   8.012  10.460 -0.5003  0.3070 -0.6422
  659MOL0     H90878  11.535   7.870  10.562  2.7513  1.2024 -2.4008
  659MOL0     H90879  11.386   7.745  10.409 -0.6964  0.7482  0.7945
  659MOL0     H90880  11.341   7.889  10.328 -1.6918 -0.3707  1.6547
  659MOL0     H90881  11.582   7.923  10.252  0.1650  0.5498  1.4663
  659MOL0     H90882  11.614   7.756  10.311 -0.8831  1.4351  1.7586
  659MOL0     H90883  11.429   7.856  10.092 -3.8800 -1.5226  1.0910
  659MOL0     H90884  11.398   7.704  10.149 -0.7903  0.7448  0.4918
  659MOL0     H90885  11.638   7.620  10.132  2.7677  1.1435 -0.0945
  659MOL0     H90886  11.535   7.647   9.987 -3.0703  1.9582  1.0499
  659MOL0     H90887  11.729   7.869  10.091 -0.8391  1.3647 -1.1615
  659MOL0     H90888  11.680   7.841   9.926 -4.3218  0.9911  0.9168
  659MOL0     H90889  11.920   7.778   9.966 -0.3643  1.4497  1.0135
  659MOL0     H90890  11.869   7.687  10.102 -0.6547  0.3330 -0.0851
  659MOL0     H90891  11.839   7.427  10.051  2.0766  1.0544  0.3019
  659MOL0     H90892  11.708   7.220   9.759  2.9527  0.3321 -2.7425
  659MOL0     H90893  11.751   7.212   9.936 -0.5102  4.1430  1.6274
  659MOL0     H90894  11.941   7.205   9.690 -1.4925  1.4907  0.2225
  659MOL0     H90895  11.992   7.212   9.855  1.3098  1.7374 -0.3382
  659MOL0     H90896  12.014   6.992   9.808 -1.1862 -1.3797  1.1172
  659MOL0     H90897  11.871   7.001   9.896  2.3372  2.8469  2.2415
  659MOL0     H90898  11.908   6.992   9.590  1.0407  2.6124  0.7633
  659MOL0     H90899  11.859   6.857   9.689  1.3161  0.0860 -3.5936
  659MOL0     H90900  11.732   6.838   9.896  0.9203  0.3716  0.1525
  659MOL0     H90901  11.519   6.735  10.160 -3.0855  2.0359 -1.4391
  659MOL0     H90902  11.681   6.733  10.093  0.1619  1.8837  2.2534
  659MOL0     H90903  11.555   6.613  10.035  1.1844 -0.2879 -0.4638
  659MOL0     H90904  11.206   6.479  10.057 -2.5207 -0.5152 -1.0888
  659MOL0     H90905  11.032   6.360  10.166  2.4887 -0.1459 -1.3888
  659MOL0     H90906  10.742   6.590  10.441 -1.5910  0.8043 -0.8306
  659MOL0     H90907  10.706   6.619  10.277 -0.2034  2.2549  2.2600
  659MOL0     H90908  10.624   6.381  10.444 -0.8729  3.2868  1.5957
  659MOL0     H90909  10.521   6.518  10.401 -0.7085  2.7263 -5.1695
  659MOL0     H90910  10.652   6.311  10.195  0.1492  1.2367 -2.0866
  659MOL0     H90911  10.586   6.445  10.143  0.1208  0.8220  1.5505
  659MOL0     H90912  10.360   6.366  10.252 -1.8646 -0.4594  0.6644
  659MOL0     H90913  10.438   6.224  10.304 -1.3414  2.2207  1.1209
  659MOL0     H90914  10.511   6.172  10.067 -0.9825 -1.1073 -0.8943
  659MOL0     H90915  10.342   6.145  10.115 -1.1441  0.2207 -0.5292
  659MOL0     H90916  10.356   6.253   9.890  0.3993 -1.5840  0.2161
  659MOL0     H90917  10.438   6.389   9.972 -0.7174  2.2787  1.0396
  659MOL0     H90918  10.241   6.487  10.025  2.6730 -0.9027 -1.6274
  659MOL0     H90919  10.191   6.337  10.124  2.0605 -3.1876 -0.5143
  659MOL0     H90920  10.015   6.388   9.968 -0.0064  1.5987 -0.2710
  659MOL0     H90921  10.097   6.240   9.932  0.3008  0.6975  1.5383
  659MOL0     H90922  10.899   6.744  10.334 -0.6133 -1.8056  0.3942
  659MOL0     H90923  11.092   6.832  10.268 -3.9778  0.2203 -0.3121
  659MOL0     H90924  11.281   6.977   9.792 -0.6196 -1.1000 -0.8485
  659MOL0     H90925  11.459   7.058   9.648  0.8237  0.1307 -0.2583
  659MOL0     H90926  11.224   8.091  10.766 -2.0308  2.6032 -1.1803
  659MOL0     H90927  11.036   8.154  10.894  1.8862  0.4376 -1.9317
  659MOL0     H90928  10.436   8.053  10.758  1.1168 -0.1076 -0.2514
  659MOL0     H90929  10.248   8.091  10.866 -0.2207  1.3893  1.5619
  659MOL0     H90930  10.098   7.977  11.071  0.9455  1.1748 -0.5604
  659MOL0     H90931  10.165   7.960  11.235 -0.9438  0.4112  0.7546
  659MOL0     H90932  10.020   8.127  11.326  0.6588 -0.3554 -0.0556
  659MOL0     H90933   9.926   7.999  11.249 -1.1230  2.0124  1.4531
  659MOL0     H90934   9.982   8.237  11.070 -1.4359  1.1033 -0.6196
  659MOL0     H90935   9.856   8.122  11.063 -0.4277  0.4009  0.5889
  659MOL0     H90936   9.771   8.342  11.132 -0.7138 -2.3526 -3.8611
  659MOL0     H90937   9.901   8.356  11.251  0.3442  1.8832 -0.1260
  659MOL0     H90938   9.608   8.158  11.476  0.4067  3.2392  1.0140
  659MOL0     H90939  10.468   8.125  11.246  0.6992 -0.0065  0.6547
  659MOL0     H90940  10.751   8.165  11.120 -0.4567  0.6004  1.7296
  659MOL0     H90941  10.695   8.102  11.263 -2.9513  0.5311 -0.7958
  659MOL0     H90942  10.745   7.981  11.146 -0.5116  0.0505  1.2808
  660MOL0     O90943   7.674   8.700  10.543 -0.3740  0.3484  0.2002
  660MOL0     C90944   7.663   8.672  10.662 -0.1046 -0.0563 -0.2485
  660MOL0     O90945   7.768   8.634  10.745 -1.0922  0.2247  0.6743
  660MOL0     C90946   7.886   8.693  10.717 -0.8538 -0.1748 -0.0508
  660MOL0     C90947   8.004   8.616  10.702  0.3251  0.3687 -0.9501
  660MOL0     C90948   8.127   8.682  10.686 -0.1266  0.0103  0.1644
  660MOL0     C90949   8.137   8.817  10.693  0.5120 -0.0631  0.0401
  660MOL0     O90950   8.256   8.884  10.674 -0.0578  0.4440  0.3175
  660MOL0     C90951   8.245   9.016  10.607  0.4164  0.8229  0.1850
  660MOL0     C90952   8.364   9.047  10.523  0.7260  0.7169 -0.1038
  660MOL0     C90953   8.362   9.190  10.461 -0.0229 -0.3180  0.0431
  660MOL0     C90954   8.225   9.225  10.406  0.3400 -0.9343 -0.1339
  660MOL0     C90955   8.222   9.355  10.330 -0.5873 -0.3177 -0.1236
  660MOL0     C90956   8.082   9.403  10.314 -0.0063 -0.0706 -0.4586
  660MOL0     C90957   8.020   9.357  10.173  0.3792 -0.8833  0.9136
  660MOL0     C90958   7.880   9.388  10.140  0.2413  0.7918 -0.3719
  660MOL0     N90959   7.841   9.530  10.104  0.3775  0.7235 -0.3118
  660MOL0     C90960   7.721   9.571  10.058 -0.4039 -0.0563  0.7394
  660MOL0     C90961   7.719   9.701  10.078 -0.5523  0.4429 -0.7010
  660MOL0     C90962   7.611   9.786  10.029 -0.2754 -0.0458 -0.0394
  660MOL0     C90963   7.667   9.854   9.906  0.7154  0.1624  0.1454
  660MOL0     C90964   7.761   9.977   9.929 -0.2577 -0.6297 -0.4062
  660MOL0     C90965   7.677  10.099   9.966 -1.8758 -0.1157  0.4057
  660MOL0     O90966   7.761  10.223   9.977 -0.4968 -0.1222  0.8604
  660MOL0     C90967   7.838  10.256  10.089 -0.6684 -0.1301  0.0876
  660MOL0     C90968   7.909  10.381  10.084 -0.0477 -0.4129  1.0939
  660MOL0     C90969   7.990  10.434  10.184  1.4556  0.5094 -0.1820
  660MOL0     C90970   8.052  10.564  10.184 -0.2855  0.3488  0.2930
  660MOL0     C90971   7.997  10.349  10.302  0.1099  0.3810 -0.0695
  660MOL0     C90972   8.056  10.384  10.434 -0.1673 -0.0235 -0.0996
  660MOL0     O90973   8.002  10.348  10.553 -0.3837 -0.8042  0.3983
  660MOL0     C90974   8.061  10.406  10.663  0.1620  0.1154 -0.0038
  660MOL0     C90975   8.199  10.382  10.691 -1.0404 -0.0875  0.3753
  660MOL0     C90976   8.251  10.420  10.815 -0.2122  1.1085 -0.3933
  660MOL0     C90977   8.185  10.510  10.894  0.1007  0.7912  0.0557
  660MOL0     O90978   8.222  10.554  11.014 -0.4517 -0.6489  0.1102
  660MOL0     C90979   8.360  10.591  11.033  0.2767 -0.6335  0.0663
  660MOL0     C90980   8.389  10.733  10.996  0.6623  0.3434 -0.3058
  660MOL0     C90981   8.535  10.768  11.021  0.1630  0.0653 -0.6564
  660MOL0     C90982   8.619  10.723  10.896  0.1769  0.7226 -0.5791
  660MOL0     C90983   8.768  10.749  10.932  0.6630  0.1699  0.9752
  660MOL0     C90984   8.847  10.719  10.807 -0.3606  0.8972  0.4104
  660MOL0     C90985   9.002  10.730  10.829  0.2118  0.4272  0.5598
  660MOL0     C90986   9.074  10.752  10.694  0.6006  0.7215 -0.3938
  660MOL0    Cl90987   9.251  10.793  10.743 -0.3028  0.3595  0.3550
  660MOL0     C90988   8.051  10.530  10.868  0.3718 -0.0806 -0.1335
  660MOL0     C90989   7.987  10.488  10.750  0.1509  0.4384  0.4693
  660MOL0     O90990   8.170  10.430  10.417 -0.1772  0.5154 -0.3703
  660MOL0     C90991   7.942  10.219  10.299  0.5091  0.1725 -0.0392
  660MOL0     C90992   7.874  10.169  10.194  0.5201  0.0626  0.4463
  660MOL0     N90993   7.839   9.741  10.141 -0.2256 -0.6573  0.1247
  660MOL0     N90994   7.907   9.638  10.152 -1.1676 -0.6059 -0.2975
  660MOL0     C90995   8.028   8.890  10.737  0.2754  0.9649  0.3072
  660MOL0     C90996   7.902   8.831  10.729 -0.9720 -0.5817 -0.2605
  660MOL0     C90997   7.521   8.668  10.715  1.0846 -0.3789 -1.2313
  660MOL0     C90998   7.432   8.757  10.681 -0.0329  0.6256  0.0585
  660MOL0     C90999   7.304   8.761  10.738 -0.2381 -0.1918  0.4092
  660MOL0     C91000   7.267   8.673  10.842 -0.4379  0.3439 -0.3995
  660MOL0     O91001   7.150   8.669  10.914  0.4900 -0.4176  0.2891
  660MOL0     C91002   7.029   8.715  10.853  0.7337 -1.1264  0.1489
  660MOL0     C91003   6.920   8.727  10.959 -0.3209  0.2976  0.2326
  660MOL0     C91004   6.973   8.835  11.060  1.0202 -0.3981  0.3782
  660MOL0     C91005   6.868   8.866  11.164 -0.4201  0.2648 -0.1265
  660MOL0     C91006   6.915   8.977  11.255  0.1318 -0.8359  0.0779
  660MOL0     C91007   6.960   9.069  11.316  0.6468  0.0160 -0.0466
  660MOL0     C91008   7.356   8.580  10.875 -0.2247 -0.2777 -0.3872
  660MOL0     C91009   7.486   8.577  10.817 -0.1168 -0.4859  1.0154
  660MOL0     C91010   7.574   8.450  10.851 -0.1654  0.0783 -0.2083
  660MOL0     H91011   8.008   8.507  10.699  1.9829  0.4191 -1.1758
  660MOL0     H91012   8.221   8.632  10.666 -0.0610  0.3647 -0.4356
  660MOL0     H91013   8.241   9.087  10.690 -1.1786  0.9589  0.0214
  660MOL0     H91014   8.150   9.022  10.553 -0.9918  2.1720  2.6005
  660MOL0     H91015   8.456   9.031  10.581  1.9201  0.2483 -2.0185
  660MOL0     H91016   8.367   8.966  10.449 -3.7747  0.5847 -0.3935
  660MOL0     H91017   8.382   9.272  10.531  0.1754  2.5416 -3.0990
  660MOL0     H91018   8.445   9.196  10.390 -0.5603  4.1638 -0.4750
  660MOL0     H91019   8.189   9.138  10.351 -0.4562 -1.8380  1.7327
  660MOL0     H91020   8.157   9.230  10.492  0.2591 -1.5212 -0.1639
  660MOL0     H91021   8.274   9.339  10.235 -2.6226 -0.0827 -1.3427
  660MOL0     H91022   8.286   9.426  10.384  0.8656 -0.2073 -1.8861
  660MOL0     H91023   8.010   9.368  10.389 -1.3677  2.4699 -0.4510
  660MOL0     H91024   8.089   9.512  10.319  3.0088 -0.2365  1.2051
  660MOL0     H91025   8.039   9.251  10.156  0.4351 -0.6482 -0.6755
  660MOL0     H91026   8.078   9.400  10.090 -0.7168  0.9498  1.0488
  660MOL0     H91027   7.861   9.320  10.057 -1.2323 -2.2482  2.2688
  660MOL0     H91028   7.813   9.359  10.221 -0.1721  2.0445 -0.2392
  660MOL0     H91029   7.653   9.508  10.002  0.2704  0.8412 -1.1451
  660MOL0     H91030   7.575   9.855  10.105 -0.0357  1.8679 -1.5878
  660MOL0     H91031   7.524   9.726  10.000 -2.2310  3.3607 -1.8549
  660MOL0     H91032   7.733   9.780   9.860 -0.4277 -1.2577  0.7124
  660MOL0     H91033   7.585   9.879   9.837  1.8540 -1.4383 -1.9257
  660MOL0     H91034   7.844   9.953   9.997  2.2621  1.4740 -2.4913
  660MOL0     H91035   7.806   9.998   9.832 -1.8315 -0.1330 -1.0550
  660MOL0     H91036   7.604  10.128   9.891 -0.6721  0.9491 -0.3918
  660MOL0     H91037   7.633  10.083  10.065  1.0097  1.1499  2.0428
  660MOL0     H91038   7.882  10.440   9.997  4.6678 -1.3243 -1.3368
  660MOL0     H91039   8.159  10.556  10.163 -0.7420 -1.9952 -1.7080
  660MOL0     H91040   8.039  10.627  10.272 -1.8700 -2.5983  2.3713
  660MOL0     H91041   8.010  10.609  10.094  0.2885 -0.8458 -0.5965
  660MOL0     H91042   8.265  10.336  10.619 -1.0870 -2.4310  1.7239
  660MOL0     H91043   8.351  10.381  10.826 -0.8810 -0.2009  1.6803
  660MOL0     H91044   8.381  10.582  11.140  1.8791  0.4579 -0.1169
  660MOL0     H91045   8.439  10.523  10.999  0.7207 -0.4125  0.6210
  660MOL0     H91046   8.368  10.764  10.894  1.6119  3.3696  0.3247
  660MOL0     H91047   8.327  10.793  11.064 -0.2964  0.3891 -1.1873
  660MOL0     H91048   8.570  10.724  11.116 -0.8403  1.7138  0.5204
  660MOL0     H91049   8.528  10.875  11.039 -1.4538 -0.1540  0.2763
  660MOL0     H91050   8.579  10.777  10.809 -2.8592 -0.8776 -0.3176
  660MOL0     H91051   8.603  10.618  10.871  0.3902  0.2594  1.1301
  660MOL0     H91052   8.783  10.848  10.976  1.0161  1.0315 -0.9636
  660MOL0     H91053   8.796  10.669  11.002  0.6735 -2.6859 -2.0522
  660MOL0     H91054   8.825  10.794  10.730  3.3339  2.5869  0.7386
  660MOL0     H91055   8.811  10.623  10.770 -2.2620  1.3422  0.9975
  660MOL0     H91056   9.039  10.644  10.885 -1.4556 -1.4909 -1.1103
  660MOL0     H91057   9.013  10.816  10.895 -4.1234 -0.1447  2.3923
  660MOL0     H91058   9.023  10.829  10.634 -0.6058  1.4807  1.4838
  660MOL0     H91059   9.077  10.653  10.647  0.0731  0.3360  0.3625
  660MOL0     H91060   7.994  10.578  10.947 -0.9538  0.1435 -1.1779
  660MOL0     H91061   7.884  10.510  10.723 -0.1222 -1.0780  0.1641
  660MOL0     H91062   7.950  10.151  10.383 -1.5726 -0.8311 -0.5929
  660MOL0     H91063   7.859  10.062  10.204  3.1422 -0.3981  0.2029
  660MOL0     H91064   8.021   8.997  10.753 -1.7520  1.4329 -2.6908
  660MOL0     H91065   7.814   8.890  10.753 -1.3739 -0.2168 -2.4402
  660MOL0     H91066   7.458   8.828  10.603  0.9714 -3.2699 -3.5563
  660MOL0     H91067   7.236   8.843  10.716  0.0137 -0.1572 -0.2526
  660MOL0     H91068   7.051   8.816  10.816 -0.2122 -1.0452 -0.2308
  660MOL0     H91069   6.997   8.656  10.766 -0.1759  0.5389 -0.7131
  660MOL0     H91070   6.897   8.632  11.007  0.3176 -0.0849 -0.2063
  660MOL0     H91071   6.836   8.771  10.904 -0.5383 -1.5399 -1.0165
  660MOL0     H91072   7.060   8.793  11.112  1.8943 -2.4711 -2.4852
  660MOL0     H91073   7.015   8.924  11.011  2.2212 -0.5493  1.0850
  660MOL0     H91074   6.864   8.774  11.222  1.8091 -1.6906 -2.8065
  660MOL0     H91075   6.772   8.888  11.115 -0.1192  1.4478 -0.2164
  660MOL0     H91076   7.004   9.140  11.383 -2.5593  1.1371  1.0418
  660MOL0     H91077   7.329   8.504  10.947  0.2959  2.0427  2.4598
  660MOL0     H91078   7.667   8.492  10.891 -1.9369  4.1858  0.0709
  660MOL0     H91079   7.523   8.376  10.914 -2.8970 -0.5328 -2.9085
  660MOL0     H91080   7.582   8.383  10.765 -1.2968 -1.7079  1.0114
  661MOL0     O91081   2.577   2.361   5.153 -0.7139  0.2221 -0.3528
  661MOL0     C91082   2.553   2.349   5.030 -0.8351  0.3745  0.4017
  661MOL0     O91083   2.649   2.367   4.928 -0.0590 -1.4353  0.0070
  661MOL0     C91084   2.763   2.426   4.954  0.0374  0.8081 -1.0471
  661MOL0     C91085   2.777   2.562   4.990 -0.3866 -1.0510  0.8482
  661MOL0     C91086   2.900   2.620   5.022 -1.0627  0.7427 -0.2366
  661MOL0     C91087   3.027   2.542   5.015  0.4589 -0.1021 -0.9952
  661MOL0     O91088   3.155   2.579   5.054 -0.4273 -1.0067  0.0389
  661MOL0     C91089   3.172   2.708   5.111 -0.1912 -0.5022  0.1665
  661MOL0     C91090   3.307   2.730   5.177 -0.1651 -0.3928 -0.5491
  661MOL0     C91091   3.427   2.671   5.100 -0.4266  0.6841  0.1551
  661MOL0     C91092   3.564   2.721   5.158  0.1617 -0.3720 -0.0528
  661MOL0     C91093   3.588   2.687   5.314  1.1113 -1.0243  0.0494
  661MOL0     C91094   3.653   2.553   5.337  0.2126 -0.2707 -0.3604
  661MOL0     C91095   3.801   2.547   5.307 -1.0989 -0.4276 -0.1080
  661MOL0     C91096   3.877   2.627   5.415 -0.1562  0.0574 -0.0529
  661MOL0     N91097   4.020   2.601   5.395 -0.3262 -0.0434 -0.7063
  661MOL0     C91098   4.085   2.576   5.277  0.1481  0.4983 -0.0820
  661MOL0     C91099   4.214   2.562   5.312  0.6262  0.0351  0.6437
  661MOL0     C91100   4.337   2.545   5.223  0.0077 -0.9726 -1.3815
  661MOL0     C91101   4.343   2.665   5.116 -0.1037  0.6078  0.0879
  661MOL0     C91102   4.386   2.602   4.985 -0.1353  0.1595  0.4369
  661MOL0     C91103   4.528   2.554   4.999  0.1715 -0.2823 -0.0802
  661MOL0     O91104   4.614   2.663   4.959  0.4577  0.0936 -0.3942
  661MOL0     C91105   4.740   2.641   5.010  0.2098 -1.1701  0.1067
  661MOL0     C91106   4.768   2.647   5.148 -0.3289  0.5049  0.0454
  661MOL0     C91107   4.893   2.632   5.199  0.4092 -1.0159  0.1463
  661MOL0     C91108   4.906   2.636   5.357  0.3007 -0.4189  0.5136
  661MOL0     C91109   5.008   2.624   5.108 -0.0348 -0.2338 -0.8491
  661MOL0     C91110   5.150   2.622   5.147 -0.7277  0.4486  0.2783
  661MOL0     O91111   5.187   2.647   5.278 -0.2489 -0.6132 -0.3260
  661MOL0     C91112   5.325   2.686   5.290 -0.3396  0.4449  0.1221
  661MOL0     C91113   5.435   2.598   5.286  0.0932  1.5423  0.2802
  661MOL0     C91114   5.558   2.636   5.317 -0.2050  0.3300 -0.1382
  661MOL0     C91115   5.578   2.772   5.344  0.1746 -0.2033  1.4111
  661MOL0     O91116   5.705   2.816   5.378  0.3923 -0.0902  0.4253
  661MOL0     C91117   5.812   2.731   5.409  0.3530  0.1705 -0.4802
  661MOL0     C91118   5.939   2.806   5.398  0.2407 -0.9070  0.6467
  661MOL0     C91119   6.057   2.739   5.468  1.2169  0.7613 -0.8701
  661MOL0     C91120   6.164   2.829   5.491  0.0495 -0.1015  0.4050
  661MOL0     C91121   6.300   2.759   5.530  0.3822 -0.3248 -0.0008
  661MOL0     C91122   6.402   2.865   5.566  0.1873  0.1430  0.2645
  661MOL0     C91123   6.395   2.912   5.709  0.1351 -0.2843 -0.4143
  661MOL0     C91124   6.517   2.993   5.744 -0.0004 -0.3515 -0.3902
  661MOL0    Cl91125   6.670   2.896   5.754 -0.8847  0.1878  0.1730
  661MOL0     C91126   5.476   2.865   5.359  1.1118  0.6427 -0.5280
  661MOL0     C91127   5.345   2.821   5.327 -0.0361  0.0155  0.3778
  661MOL0     O91128   5.232   2.604   5.056 -0.4021  0.8664  0.2629
  661MOL0     C91129   4.973   2.624   4.969  0.4812 -0.2970  0.2328
  661MOL0     C91130   4.841   2.630   4.921  0.4370 -0.4982  0.1879
  661MOL0     N91131   4.226   2.578   5.446  0.7265  0.6143  0.1607
  661MOL0     N91132   4.114   2.615   5.497 -0.0009  0.1562  0.0679
  661MOL0     C91133   3.006   2.399   4.991 -0.1948 -0.0071  0.7043
  661MOL0     C91134   2.879   2.346   4.966  0.2619  0.2149  0.5090
  661MOL0     C91135   2.418   2.314   4.978  0.5272  0.3061  1.0777
  661MOL0     C91136   2.316   2.325   5.070  0.9669  0.0735 -0.7848
  661MOL0     C91137   2.187   2.299   5.038  0.7426 -0.1228  1.2343
  661MOL0     C91138   2.148   2.278   4.900 -0.9856  0.6826 -0.2610
  661MOL0     O91139   2.025   2.248   4.854 -0.4729  0.5154 -0.3577
  661MOL0     C91140   1.914   2.258   4.947  0.2278  0.4990  0.0040
  661MOL0     C91141   1.792   2.252   4.858 -0.0074  0.9317 -0.8331
  661MOL0     C91142   1.661   2.277   4.930 -0.8069  0.3570  0.1342
  661MOL0     C91143   1.544   2.250   4.833  1.2057 -0.4428  1.3842
  661MOL0     C91144   1.439   2.177   4.894  0.2435  0.7946 -0.4863
  661MOL0     C91145   1.347   2.111   4.944  0.1699 -0.0725  0.6852
  661MOL0     C91146   2.243   2.271   4.801 -0.0840 -0.0161 -0.2861
  661MOL0     C91147   2.387   2.281   4.839 -0.5877  0.0087 -0.9956
  661MOL0     C91148   2.488   2.266   4.720 -0.4918  0.4382  0.6705
  661MOL0     H91149   2.690   2.625   4.986 -0.5677 -1.3440 -2.3464
  661MOL0     H91150   2.907   2.724   5.054 -2.2566 -0.1394  3.3200
  661MOL0     H91151   3.100   2.716   5.193  0.7021  1.5144  0.8504
  661MOL0     H91152   3.155   2.793   5.044  3.1788  0.8560  0.8062
  661MOL0     H91153   3.325   2.837   5.190 -0.5495 -0.6371  3.1555
  661MOL0     H91154   3.301   2.693   5.280 -1.0333  1.2210  0.0234
  661MOL0     H91155   3.420   2.562   5.105  0.0676  0.5465 -1.5070
  661MOL0     H91156   3.420   2.694   4.993  1.3207 -0.3951 -0.2377
  661MOL0     H91157   3.642   2.661   5.111  1.4054  0.8215  0.4257
  661MOL0     H91158   3.566   2.827   5.133  0.2524  0.6410  3.6107
  661MOL0     H91159   3.499   2.689   5.377  1.5875 -0.2653  0.7118
  661MOL0     H91160   3.653   2.764   5.355 -0.7476  0.8253 -0.3165
  661MOL0     H91161   3.646   2.533   5.444  1.0185  2.7031  0.3438
  661MOL0     H91162   3.591   2.477   5.288  0.0096 -1.3247  1.4491
  661MOL0     H91163   3.822   2.581   5.205  0.2188 -1.7325 -0.3093
  661MOL0     H91164   3.822   2.440   5.312 -0.6259 -0.3042  0.8618
  661MOL0     H91165   3.868   2.733   5.391  1.1306  0.5439  1.4988
  661MOL0     H91166   3.843   2.612   5.518 -0.7721  0.9639 -0.1164
  661MOL0     H91167   4.041   2.562   5.178  1.9962  1.6285 -1.1085
  661MOL0     H91168   4.318   2.445   5.182  0.8112 -1.5167 -0.4800
  661MOL0     H91169   4.431   2.551   5.280 -0.8495 -0.0222 -0.0041
  661MOL0     H91170   4.244   2.711   5.106  0.1545  1.1657  0.0650
  661MOL0     H91171   4.413   2.743   5.147  1.0957 -0.1359 -0.6602
  661MOL0     H91172   4.321   2.522   4.951 -2.3311  0.9497  2.5245
  661MOL0     H91173   4.382   2.675   4.904 -1.3645 -1.5824 -1.1497
  661MOL0     H91174   4.548   2.518   5.101  1.8805  1.2466  0.1791
  661MOL0     H91175   4.553   2.466   4.939  0.7214 -1.3420  1.6039
  661MOL0     H91176   4.683   2.657   5.216 -0.3422 -0.5709  0.1919
  661MOL0     H91177   4.808   2.614   5.401  0.1351  0.7499  0.7535
  661MOL0     H91178   4.942   2.736   5.382  1.3290 -0.3817 -0.9791
  661MOL0     H91179   4.967   2.564   5.412 -1.7889 -1.0463  2.1573
  661MOL0     H91180   5.412   2.495   5.262  0.3062  1.5043  0.2414
  661MOL0     H91181   5.642   2.568   5.315  1.8092  2.6965 -1.6080
  661MOL0     H91182   5.802   2.704   5.514  2.4610  2.9019  0.5470
  661MOL0     H91183   5.826   2.644   5.344 -0.4787  0.7785 -1.5082
  661MOL0     H91184   5.964   2.812   5.292 -0.5654  1.1879  0.5330
  661MOL0     H91185   5.919   2.910   5.425  0.7640 -0.8083  0.6708
  661MOL0     H91186   6.103   2.664   5.403  0.4501 -0.5038 -0.0056
  661MOL0     H91187   6.029   2.688   5.561  1.0295  1.7792 -0.3560
  661MOL0     H91188   6.130   2.892   5.573  1.2197 -1.0083  1.6315
  661MOL0     H91189   6.167   2.896   5.405 -0.6715 -0.9199 -0.2839
  661MOL0     H91190   6.304   2.703   5.624 -0.3411  1.3513  1.0929
  661MOL0     H91191   6.333   2.690   5.453  0.4948 -0.6845  0.3694
  661MOL0     H91192   6.405   2.944   5.490 -0.5181  0.8209  0.9253
  661MOL0     H91193   6.499   2.821   5.542  0.4857  1.1379 -0.4270
  661MOL0     H91194   6.405   2.824   5.773 -2.5427 -1.4576 -1.4801
  661MOL0     H91195   6.310   2.975   5.738 -0.3028 -1.1780  0.2843
  661MOL0     H91196   6.501   3.037   5.842 -0.5322  0.6359 -0.9027
  661MOL0     H91197   6.521   3.074   5.670  0.7541 -1.2574 -1.3807
  661MOL0     H91198   5.502   2.970   5.374 -3.1879  1.9424 -0.8870
  661MOL0     H91199   5.255   2.882   5.324 -1.2039 -1.6513  0.0081
  661MOL0     H91200   5.047   2.615   4.890 -0.8114  1.1175 -1.1885
  661MOL0     H91201   4.815   2.618   4.816 -0.9270 -2.6892  0.7086
  661MOL0     H91202   3.088   2.328   4.994  0.8695  1.1305 -0.4647
  661MOL0     H91203   2.868   2.240   4.946  0.8730  0.4774 -1.4546
  661MOL0     H91204   2.337   2.344   5.174 -3.1011  1.1552  0.0367
  661MOL0     H91205   2.108   2.289   5.112 -1.0009 -2.2818 -0.7609
  661MOL0     H91206   1.922   2.172   5.014  0.7272 -0.7409 -1.5773
  661MOL0     H91207   1.910   2.352   5.004 -0.3796  0.7087 -0.3722
  661MOL0     H91208   1.806   2.149   4.822  3.8799  0.6332  0.9700
  661MOL0     H91209   1.794   2.326   4.778  2.0154  1.0649 -0.7103
  661MOL0     H91210   1.647   2.213   5.017  1.7982 -0.5460 -0.0231
  661MOL0     H91211   1.654   2.377   4.974  0.1313  0.7576 -0.5729
  661MOL0     H91212   1.576   2.185   4.751 -1.7142  1.3608 -1.4329
  661MOL0     H91213   1.501   2.336   4.781 -0.9945 -0.4773  2.9704
  661MOL0     H91214   1.263   2.066   4.993 -1.0923  0.2286 -1.1164
  661MOL0     H91215   2.213   2.246   4.700 -1.1618 -0.8981  0.2413
  661MOL0     H91216   2.531   2.365   4.706 -1.0789  0.8400  1.6684
  661MOL0     H91217   2.562   2.188   4.737  1.4326  2.4952  2.2322
  661MOL0     H91218   2.436   2.236   4.628  2.5102  1.6551 -1.5832
  662MOL0     O91219   8.817   1.081   9.549 -0.3501  0.0809 -0.1341
  662MOL0     C91220   8.790   1.156   9.639 -0.1741 -0.1184 -0.1978
  662MOL0     O91221   8.698   1.129   9.741 -0.1292 -0.3144  0.2270
  662MOL0     C91222   8.602   1.037   9.727  0.4088 -0.1677  0.1153
  662MOL0     C91223   8.551   0.986   9.607  0.2570 -0.1544  0.4003
  662MOL0     C91224   8.441   0.896   9.611 -0.6123 -0.4318 -1.5091
  662MOL0     C91225   8.362   0.876   9.724  0.1146 -0.7303 -0.3965
  662MOL0     O91226   8.269   0.774   9.727 -0.1540 -0.6163 -0.7220
  662MOL0     C91227   8.144   0.814   9.788  0.4837 -0.5231  0.8755
  662MOL0     C91228   8.033   0.731   9.721 -0.9625 -0.2616  0.1854
  662MOL0     C91229   7.894   0.754   9.769 -0.0119  0.5111 -0.1172
  662MOL0     C91230   7.794   0.637   9.759 -0.3257  0.3313  0.0954
  662MOL0     C91231   7.669   0.652   9.837 -0.0191  1.2827 -0.4777
  662MOL0     C91232   7.552   0.566   9.783 -0.0794 -0.7967 -0.0748
  662MOL0     C91233   7.435   0.577   9.878  0.2055  0.7131  0.0462
  662MOL0     C91234   7.329   0.477   9.825 -0.8214 -0.1480  1.0996
  662MOL0     N91235   7.222   0.476   9.922 -0.4798 -0.5421  0.2574
  662MOL0     C91236   7.213   0.435  10.051  0.2084 -0.6793 -1.5460
  662MOL0     C91237   7.085   0.437  10.087 -0.2349  0.4789 -0.5256
  662MOL0     C91238   7.047   0.386  10.216  0.3253  0.1670  0.0805
  662MOL0     C91239   7.008   0.493  10.308 -1.0945  1.0542 -0.0466
  662MOL0     C91240   6.965   0.422  10.442 -0.4316 -0.1056  0.3957
  662MOL0     C91241   7.073   0.457  10.552  0.4447 -0.5347 -0.3922
  662MOL0     O91242   7.205   0.434  10.510  0.1575  0.2664 -0.6732
  662MOL0     C91243   7.281   0.346  10.583  0.2782  0.7373 -0.1357
  662MOL0     C91244   7.408   0.392  10.612  0.7126  0.5849 -0.5645
  662MOL0     C91245   7.497   0.318  10.684  0.2886 -0.0910  0.5397
  662MOL0     C91246   7.633   0.380  10.697  0.2565  0.5045 -0.3918
  662MOL0     C91247   7.466   0.186  10.727  0.0684 -0.2525 -0.0027
  662MOL0     C91248   7.543   0.094  10.815  0.5815  0.3292  0.4801
  662MOL0     O91249   7.488  -0.026  10.848 -0.4248  0.2755  0.9016
  662MOL0     C91250   7.545  -0.087  10.955  0.3248  0.1976 -0.3077
  662MOL0     C91251   7.616  -0.204  10.948 -0.2569  0.4842 -0.0198
  662MOL0     C91252   7.689  -0.248  11.062  0.4711  0.3258  1.0374
  662MOL0     C91253   7.655  -0.203  11.190  0.0690 -1.1123 -0.6587
  662MOL0     O91254   7.707  -0.247  11.311  0.3150  0.2702  0.6249
  662MOL0     C91255   7.787  -0.356  11.308 -0.5125 -0.2452 -1.2141
  662MOL0     C91256   7.800  -0.409  11.456  0.2820  0.7902  0.2279
  662MOL0     C91257   7.903  -0.530  11.462  0.5897 -0.6922 -0.2292
  662MOL0     C91258   8.048  -0.481  11.445 -0.1746  0.0951  0.3304
  662MOL0     C91259   8.151  -0.591  11.427 -0.5425  0.2467  0.2906
  662MOL0     C91260   8.296  -0.533  11.417  0.4655 -0.4125 -0.1198
  662MOL0     C91261   8.388  -0.655  11.424 -0.3918  0.1856  0.0841
  662MOL0     C91262   8.533  -0.614  11.450  0.0917  0.1752  0.4340
  662MOL0    Cl91263   8.576  -0.466  11.345  0.0670  0.1457 -0.0426
  662MOL0     C91264   7.570  -0.085  11.201  0.0539  0.5755 -0.8020
  662MOL0     C91265   7.523  -0.032  11.082 -0.0016  0.1895 -0.0205
  662MOL0     O91266   7.639   0.146  10.865  0.0084 -0.7060 -0.2788
  662MOL0     C91267   7.336   0.141  10.702  0.1474  0.4497  0.1670
  662MOL0     C91268   7.245   0.221  10.639  0.4464 -0.6354 -0.2316
  662MOL0     N91269   7.015   0.492   9.980  0.0311 -1.1783  0.0910
  662MOL0     N91270   7.104   0.523   9.890  0.0573 -0.4331 -0.6627
  662MOL0     C91271   8.406   0.941   9.837 -0.3875 -0.2673 -0.2135
  662MOL0     C91272   8.521   1.025   9.849  0.4527 -0.5925 -0.4536
  662MOL0     C91273   8.860   1.284   9.644 -0.6117  0.2142 -0.1902
  662MOL0     C91274   9.002   1.269   9.620  0.6443  0.2164 -0.2099
  662MOL0     C91275   9.083   1.376   9.635 -0.6657 -0.0224 -0.7547
  662MOL0     C91276   9.035   1.511   9.643  0.0962  0.8723  0.3397
  662MOL0     O91277   9.130   1.607   9.641  0.2232 -0.2444  0.1548
  662MOL0     C91278   9.103   1.747   9.605  0.3895 -0.4979 -0.2339
  662MOL0     C91279   9.080   1.815   9.741 -0.1823 -0.6167  1.0148
  662MOL0     C91280   9.208   1.841   9.816  0.3387 -0.2942 -0.7185
  662MOL0     C91281   9.192   1.903   9.954  1.2009 -0.8264 -0.7998
  662MOL0     C91282   9.113   1.821  10.041  1.3670 -0.3632 -0.3025
  662MOL0     C91283   9.043   1.746  10.103  0.2331  0.7944  0.6439
  662MOL0     C91284   8.889   1.524   9.656  0.0974 -0.5232  0.6731
  662MOL0     C91285   8.801   1.410   9.669 -0.5954 -0.2230  0.3364
  662MOL0     C91286   8.656   1.415   9.700 -0.0386 -0.3984 -0.2584
  662MOL0     H91287   8.601   1.008   9.513  1.5250 -0.0096  1.0999
  662MOL0     H91288   8.420   0.849   9.516  0.2565 -1.3456 -1.2619
  662MOL0     H91289   8.120   0.920   9.779 -0.1262 -0.5732  1.8116
  662MOL0     H91290   8.145   0.797   9.896  0.3353 -1.7427  0.6977
  662MOL0     H91291   8.035   0.758   9.615 -0.5814 -0.2939  0.1871
  662MOL0     H91292   8.062   0.626   9.735 -0.8843 -0.7567 -2.8776
  662MOL0     H91293   7.905   0.783   9.874 -1.8797 -0.8344  0.5072
  662MOL0     H91294   7.852   0.843   9.721 -1.1866 -0.2464 -0.5230
  662MOL0     H91295   7.760   0.640   9.655  0.2139 -1.1995 -0.1477
  662MOL0     H91296   7.841   0.540   9.779 -0.5605  0.7083  2.9810
  662MOL0     H91297   7.640   0.755   9.857  1.7659  1.3332  2.4896
  662MOL0     H91298   7.705   0.619   9.935 -0.1427 -2.7699 -1.6115
  662MOL0     H91299   7.528   0.601   9.682  2.4058  0.6570 -0.2537
  662MOL0     H91300   7.587   0.464   9.769  2.3301  0.0275 -0.5675
  662MOL0     H91301   7.393   0.678   9.875  3.9360  2.4050 -0.5949
  662MOL0     H91302   7.460   0.549   9.981 -1.7130 -0.0359  0.3641
  662MOL0     H91303   7.299   0.508   9.725  2.4104  4.3183  1.2053
  662MOL0     H91304   7.377   0.378   9.826  3.4738  1.7016  0.5842
  662MOL0     H91305   7.293   0.391  10.109 -2.3548 -4.4372 -0.4972
  662MOL0     H91306   7.133   0.339  10.264  0.2457 -0.3248 -0.2494
  662MOL0     H91307   6.960   0.322  10.198 -0.2315  1.6127 -3.1126
  662MOL0     H91308   7.092   0.559  10.329  0.8851 -1.5755  0.9019
  662MOL0     H91309   6.928   0.551  10.260 -0.4453  0.4758 -1.8928
  662MOL0     H91310   6.865   0.451  10.476 -0.9739 -2.9608  1.5368
  662MOL0     H91311   6.955   0.314  10.426 -1.8254  0.0743 -0.0536
  662MOL0     H91312   7.058   0.563  10.572  0.7326 -0.8205  1.5127
  662MOL0     H91313   7.043   0.397  10.638 -1.6039  0.3764 -0.4323
  662MOL0     H91314   7.439   0.475  10.550  2.4840 -2.2700 -3.8785
  662MOL0     H91315   7.656   0.387  10.804  0.1698 -1.2011 -0.2289
  662MOL0     H91316   7.641   0.475  10.644 -1.2404  0.3047 -1.0358
  662MOL0     H91317   7.703   0.323  10.635 -1.4057 -0.6160 -1.3170
  662MOL0     H91318   7.629  -0.264  10.859 -0.9171  0.7207 -0.2788
  662MOL0     H91319   7.750  -0.337  11.054 -0.2027 -0.0477 -0.4101
  662MOL0     H91320   7.739  -0.442  11.261 -0.3768 -1.0543  0.0537
  662MOL0     H91321   7.885  -0.329  11.268 -0.6321  4.1081  0.8304
  662MOL0     H91322   7.839  -0.334  11.524  1.5325 -0.2799  0.7288
  662MOL0     H91323   7.700  -0.434  11.493 -0.2673  0.3298 -1.4744
  662MOL0     H91324   7.867  -0.605  11.390 -0.8167 -2.2504  1.9717
  662MOL0     H91325   7.889  -0.595  11.548 -3.6771  0.0386 -0.1712
  662MOL0     H91326   8.066  -0.419  11.534 -2.6617  0.2849  0.7638
  662MOL0     H91327   8.054  -0.410  11.362 -1.1556 -1.1336 -0.8344
  662MOL0     H91328   8.140  -0.660  11.512 -1.8484  0.4224  0.2861
  662MOL0     H91329   8.118  -0.647  11.339  1.4504 -0.4507 -0.0543
  662MOL0     H91330   8.307  -0.480  11.512 -1.3129 -1.8359  0.9386
  662MOL0     H91331   8.301  -0.465  11.332 -0.4694 -0.9318 -0.5956
  662MOL0     H91332   8.367  -0.713  11.334 -1.6781  0.4050  0.2257
  662MOL0     H91333   8.362  -0.721  11.508 -3.0836 -0.9229 -1.4716
  662MOL0     H91334   8.605  -0.692  11.423  0.2353  0.2995  0.4580
  662MOL0     H91335   8.553  -0.599  11.556  1.0671 -0.1248  0.3067
  662MOL0     H91336   7.542  -0.034  11.293 -0.6951  1.8353 -1.7075
  662MOL0     H91337   7.468   0.061  11.077 -0.0035  0.2747  1.3390
  662MOL0     H91338   7.302   0.043  10.735  1.1273  0.4267  1.1584
  662MOL0     H91339   7.139   0.195  10.636  0.3730 -0.5842  1.3298
  662MOL0     H91340   8.360   0.905   9.928  1.6274 -1.3311  0.4507
  662MOL0     H91341   8.532   1.089   9.936 -4.2126 -0.3821  0.2486
  662MOL0     H91342   9.047   1.170   9.617  1.3845  0.5514 -0.4451
  662MOL0     H91343   9.190   1.364   9.624 -0.4514  0.2570  0.7499
  662MOL0     H91344   9.191   1.786   9.553  0.3893 -0.5631 -0.2835
  662MOL0     H91345   9.014   1.766   9.545  0.7424  4.0152  0.2933
  662MOL0     H91346   9.006   1.749   9.786  0.3864 -3.4751 -1.8490
  662MOL0     H91347   9.038   1.912   9.712  0.4491 -1.0559 -1.6440
  662MOL0     H91348   9.264   1.749   9.833 -2.8912 -2.2332  0.2845
  662MOL0     H91349   9.255   1.914   9.748 -0.6673 -0.6950 -1.8904
  662MOL0     H91350   9.132   1.994   9.945 -1.4787 -1.9503  3.1061
  662MOL0     H91351   9.279   1.939  10.010 -1.3669  0.4266  2.7054
  662MOL0     H91352   8.975   1.684  10.158  0.6249 -3.3010 -2.9184
  662MOL0     H91353   8.855   1.627   9.668  0.2624  0.1438 -3.1050
  662MOL0     H91354   8.600   1.340   9.642  2.3612 -3.9728  1.6507
  662MOL0     H91355   8.642   1.409   9.809  2.2454  3.9851  0.5076
  662MOL0     H91356   8.627   1.515   9.666  0.8331  0.8033  2.2880
  663MOL0     O91357   7.483  10.855   0.333  0.6571  0.0485  0.0805
  663MOL0     C91358   7.546  10.749   0.316  0.0945  0.3951  0.5236
  663MOL0     O91359   7.677  10.724   0.345  0.0939  0.0189  0.3099
  663MOL0     C91360   7.759  10.811   0.415 -0.1306 -0.2423  0.0980
  663MOL0     C91361   7.834  10.754   0.511 -0.6544 -0.6057 -0.3795
  663MOL0     C91362   7.938  10.828   0.565 -0.2359 -0.2595  0.5662
  663MOL0     C91363   7.971  10.958   0.527 -0.5609 -0.0176 -0.8643
  663MOL0     O91364   8.076  11.026   0.593 -0.4264 -0.5449 -0.1837
  663MOL0     C91365   8.088  11.159   0.562  0.5339 -0.3525  0.4346
  663MOL0     C91366   8.207  11.219   0.628  0.0584  0.7757 -0.4854
  663MOL0     C91367   8.329  11.136   0.574  0.1140  0.3451  0.3432
  663MOL0     C91368   8.358  11.183   0.431 -0.4463 -0.3547  0.0675
  663MOL0     C91369   8.517  11.174   0.408  0.1413  0.5784 -0.7231
  663MOL0     C91370   8.566  11.165   0.266  0.2714  0.1291 -0.6477
  663MOL0     C91371   8.535  11.296   0.188 -0.6508  0.4167 -0.0113
  663MOL0     C91372   8.588  11.418   0.262 -0.0187 -0.2482 -0.2577
  663MOL0     N91373   8.554  11.538   0.179 -1.1027 -0.0194 -0.5028
  663MOL0     C91374   8.619  11.555   0.056 -0.2486 -0.2186  0.2983
  663MOL0     C91375   8.546  11.662   0.005 -0.5479 -0.7479 -0.3009
  663MOL0     C91376   8.562  11.723  -0.126  0.3772  1.1658 -0.6140
  663MOL0     C91377   8.692  11.798  -0.128 -0.6451 -0.2223  0.7801
  663MOL0     C91378   8.697  11.884  -0.262  0.3906  0.2602  0.0938
  663MOL0     C91379   8.832  11.951  -0.278 -0.4686  0.3563  0.6594
  663MOL0     O91380   8.924  11.843  -0.319 -0.2511 -0.5394 -0.0124
  663MOL0     C91381   9.056  11.882  -0.298  0.2896 -0.6438  0.6066
  663MOL0     C91382   9.143  11.791  -0.359  0.0097 -0.5882  0.3602
  663MOL0     C91383   9.284  11.812  -0.375 -0.0916 -0.2426  0.1705
  663MOL0     C91384   9.351  11.694  -0.458 -0.9836 -0.3210 -0.4514
  663MOL0     C91385   9.341  11.927  -0.327  0.4061 -0.0922  0.3222
  663MOL0     C91386   9.492  11.965  -0.338  0.2950 -0.3423  0.2460
  663MOL0     O91387   9.573  11.875  -0.405 -0.0029  0.3617 -1.1521
  663MOL0     C91388   9.709  11.897  -0.422  0.4620 -0.2091  0.7387
  663MOL0     C91389   9.765  11.820  -0.527  0.6847 -0.7537  0.9832
  663MOL0     C91390   9.898  11.819  -0.562  0.2160  0.4486  0.2077
  663MOL0     C91391   9.987  11.892  -0.482 -0.1495  0.7466  0.3981
  663MOL0     O91392  10.125  11.900  -0.495 -0.2025  0.2787  0.2072
  663MOL0     C91393  10.179  11.884  -0.620  1.2907  0.9519 -0.1136
  663MOL0     C91394  10.322  11.928  -0.622  0.4612  0.8900  0.2138
  663MOL0     C91395  10.391  11.904  -0.757  0.3337  0.7212  0.0520
  663MOL0     C91396  10.506  12.009  -0.775  0.6986  0.1223  0.8067
  663MOL0     C91397  10.460  12.117  -0.857  0.4797 -0.4622  0.4220
  663MOL0     C91398  10.566  12.224  -0.879 -0.0675 -0.0430 -0.3131
  663MOL0     C91399  10.519  12.336  -0.970  0.0270  0.1576  0.7698
  663MOL0     C91400  10.586  12.472  -0.954  0.1635 -0.6475  0.8820
  663MOL0    Cl91401  10.764  12.464  -0.990  0.3694  0.4525 -0.2483
  663MOL0     C91402   9.937  11.971  -0.379  0.8974 -0.5380 -0.3231
  663MOL0     C91403   9.795  11.971  -0.349 -0.4573 -0.0210 -0.0605
  663MOL0     O91404   9.525  12.069  -0.288 -0.0476 -0.4326  0.0611
  663MOL0     C91405   9.251  12.020  -0.264 -0.0383  0.0055 -0.3324
  663MOL0     C91406   9.119  11.997  -0.251 -0.4482 -0.0647 -0.4084
  663MOL0     N91407   8.468  11.714   0.103 -0.1873  0.7279 -1.0550
  663MOL0     N91408   8.470  11.640   0.210  0.0474 -0.1461  1.2758
  663MOL0     C91409   7.896  11.008   0.419  0.1636 -0.6102  1.0103
  663MOL0     C91410   7.784  10.943   0.368 -0.0516  0.2869 -0.7182
  663MOL0     C91411   7.472  10.629   0.274  0.3205  0.0482  0.2084
  663MOL0     C91412   7.341  10.641   0.221  0.0776  0.1925 -0.4913
  663MOL0     C91413   7.264  10.532   0.191 -0.2099  0.0633  0.3001
  663MOL0     C91414   7.308  10.401   0.208  0.0997 -0.6759  0.2083
  663MOL0     O91415   7.242  10.292   0.170  0.0341  0.4356 -0.5832
  663MOL0     C91416   7.133  10.313   0.082 -0.0111  0.4345  0.0019
  663MOL0     C91417   7.166  10.351  -0.064  0.4432  0.3733  0.1119
  663MOL0     C91418   7.297  10.302  -0.119 -1.3376  0.6894  0.2099
  663MOL0     C91419   7.346  10.351  -0.266 -0.6564 -0.8653  0.2936
  663MOL0     C91420   7.437  10.255  -0.312  0.3360  0.1505  0.6362
  663MOL0     C91421   7.529  10.189  -0.343  0.1756 -0.6208  0.5094
  663MOL0     C91422   7.437  10.384   0.253  0.0489 -0.2579  0.1668
  663MOL0     C91423   7.523  10.493   0.282 -0.2044 -0.4051 -0.2298
  663MOL0     C91424   7.662  10.457   0.334  0.2123  0.2088 -0.3849
  663MOL0     H91425   7.803  10.658   0.552 -2.5943  0.9889  2.1997
  663MOL0     H91426   7.985  10.787   0.654 -0.5059  2.7855  2.2323
  663MOL0     H91427   8.003  11.224   0.583  2.4882  2.3386  0.6009
  663MOL0     H91428   8.097  11.172   0.454 -3.8145  3.0401  0.2382
  663MOL0     H91429   8.212  11.327   0.614  1.5809  0.6871 -0.7869
  663MOL0     H91430   8.205  11.211   0.737 -0.7778  2.0370 -0.3833
  663MOL0     H91431   8.408  11.164   0.644  0.8626 -2.8273  0.9165
  663MOL0     H91432   8.315  11.028   0.580 -3.4772  0.7123  1.2386
  663MOL0     H91433   8.295  11.121   0.366 -0.0627 -0.9642  0.2756
  663MOL0     H91434   8.337  11.288   0.406 -1.9824 -0.5261  0.5333
  663MOL0     H91435   8.545  11.085   0.466  1.6362  3.2563  3.0609
  663MOL0     H91436   8.576  11.249   0.461  0.2612 -0.8886  1.3648
  663MOL0     H91437   8.675  11.151   0.274 -0.1073 -5.2778 -0.8659
  663MOL0     H91438   8.521  11.076   0.221  1.6754 -0.5025 -0.8801
  663MOL0     H91439   8.427  11.308   0.176 -0.5189  2.7591  0.6577
  663MOL0     H91440   8.578  11.282   0.089 -2.7552 -0.3256 -0.8813
  663MOL0     H91441   8.537  11.421   0.359 -1.0289  1.2906 -0.7826
  663MOL0     H91442   8.697  11.418   0.272 -0.1274  3.3510  3.6878
  663MOL0     H91443   8.688  11.482   0.017  0.1740  1.2168 -1.8288
  663MOL0     H91444   8.474  11.784  -0.145  0.0666  0.7283 -0.6122
  663MOL0     H91445   8.546  11.646  -0.203 -2.2163  0.0090  0.9584
  663MOL0     H91446   8.710  11.870  -0.048 -1.0854 -0.2052  0.8618
  663MOL0     H91447   8.773  11.724  -0.124  1.1282  1.5137 -0.8179
  663MOL0     H91448   8.684  11.823  -0.351 -1.1077  2.1448 -1.0642
  663MOL0     H91449   8.620  11.963  -0.264 -0.1764 -0.3032 -0.6961
  663MOL0     H91450   8.820  12.019  -0.363  2.3083 -2.7738 -2.6343
  663MOL0     H91451   8.868  12.003  -0.189  0.8295  0.9809 -0.2008
  663MOL0     H91452   9.111  11.692  -0.391  0.3548 -0.0810 -1.7211
  663MOL0     H91453   9.443  11.669  -0.404 -2.3587  2.7565  3.8433
  663MOL0     H91454   9.375  11.715  -0.562  0.9071 -1.4869 -0.2967
  663MOL0     H91455   9.296  11.599  -0.463 -0.1103 -0.7895 -1.5078
  663MOL0     H91456   9.703  11.749  -0.581 -2.2598  1.2823  1.4363
  663MOL0     H91457   9.930  11.760  -0.648  0.0938  0.6858 -0.0006
  663MOL0     H91458  10.174  11.782  -0.661  0.8130  0.8421  0.2053
  663MOL0     H91459  10.135  11.949  -0.696  2.3775  0.3708 -1.2792
  663MOL0     H91460  10.326  12.033  -0.590  2.0587  0.4427  1.6827
  663MOL0     H91461  10.371  11.868  -0.544 -0.3639  1.2137  1.0001
  663MOL0     H91462  10.317  11.899  -0.837  1.2172  0.6548 -0.7775
  663MOL0     H91463  10.433  11.804  -0.746 -3.2596 -0.6314  3.9405
  663MOL0     H91464  10.592  11.973  -0.832  1.1571 -0.2786  1.7241
  663MOL0     H91465  10.546  12.045  -0.680  1.3904 -0.4138  0.7250
  663MOL0     H91466  10.433  12.077  -0.956 -0.4681  1.0337  0.0411
  663MOL0     H91467  10.365  12.157  -0.822  0.3150 -0.1303 -0.3801
  663MOL0     H91468  10.653  12.178  -0.927  0.6481 -0.6640  1.4883
  663MOL0     H91469  10.606  12.271  -0.788  0.5264 -0.7834 -0.1758
  663MOL0     H91470  10.416  12.359  -0.941 -0.4941  2.4348 -2.3049
  663MOL0     H91471  10.530  12.301  -1.073 -0.4307  0.4858  0.6030
  663MOL0     H91472  10.583  12.514  -0.853  1.5309 -1.4111  1.2647
  663MOL0     H91473  10.537  12.536  -1.027 -1.1905  0.4084  2.6229
  663MOL0     H91474  10.008  12.031  -0.322 -0.6881  0.3051  0.8499
  663MOL0     H91475   9.769  12.030  -0.261  2.8491  0.2470  0.9096
  663MOL0     H91476   9.278  12.122  -0.238  0.1223 -0.5386  1.8447
  663MOL0     H91477   9.058  12.071  -0.200 -0.0561  0.1604 -0.2634
  663MOL0     H91478   7.915  11.101   0.366  1.1247 -0.1059  2.1823
  663MOL0     H91479   7.745  10.967   0.270 -1.1164  0.2934 -0.3048
  663MOL0     H91480   7.305  10.743   0.209  2.6276  1.3051  0.5025
  663MOL0     H91481   7.169  10.552   0.142 -0.4931 -1.7000  0.0646
  663MOL0     H91482   7.085  10.216   0.065 -0.9562  0.9746 -0.4936
  663MOL0     H91483   7.056  10.370   0.135 -1.8430 -2.3410  0.5893
  663MOL0     H91484   7.175  10.460  -0.075  2.5657  0.1612 -0.8406
  663MOL0     H91485   7.086  10.323  -0.133  2.2145  1.0413 -2.3432
  663MOL0     H91486   7.379  10.331  -0.052 -0.7824 -1.8239  0.7342
  663MOL0     H91487   7.288  10.193  -0.120  2.6215  0.1467  2.1750
  663MOL0     H91488   7.398  10.447  -0.256 -2.9392  0.6852 -1.6494
  663MOL0     H91489   7.264  10.351  -0.338  0.4793  0.7148 -1.0636
  663MOL0     H91490   7.622  10.136  -0.350  0.5876 -0.2319  2.4590
  663MOL0     H91491   7.472  10.281   0.254 -4.1114 -1.8556  1.0930
  663MOL0     H91492   7.684  10.350   0.326  1.3019  0.5315 -4.2649
  663MOL0     H91493   7.745  10.498   0.274  0.8472  0.3683  0.5884
  663MOL0     H91494   7.657  10.474   0.441 -1.2822  1.5373 -0.6280
  664MOL0     O91495   2.454   5.989   9.109  0.1650 -0.0608  0.4664
  664MOL0     C91496   2.480   5.871   9.151  0.8660 -0.1463  0.7247
  664MOL0     O91497   2.590   5.839   9.231 -0.4239  0.1719  0.6912
  664MOL0     C91498   2.700   5.925   9.213  0.2959  0.7229  0.8371
  664MOL0     C91499   2.746   5.966   9.084  0.2631  0.7868  0.1214
  664MOL0     C91500   2.856   6.050   9.076 -1.0220  0.2363  0.7308
  664MOL0     C91501   2.905   6.119   9.189  0.5873 -0.3477  0.6572
  664MOL0     O91502   2.991   6.227   9.185  0.4303  0.5333 -0.3570
  664MOL0     C91503   3.005   6.303   9.062 -0.0879  0.5567  0.0073
  664MOL0     C91504   3.112   6.415   9.071 -0.1617  0.2554  0.4044
  664MOL0     C91505   3.100   6.525   8.962 -1.1124  0.4673  0.7318
  664MOL0     C91506   3.157   6.461   8.836  0.6051  0.3088 -0.0413
  664MOL0     C91507   3.196   6.565   8.723  0.8254 -0.1066 -0.5765
  664MOL0     C91508   3.082   6.677   8.710  0.4747 -0.1809 -0.4597
  664MOL0     C91509   3.098   6.765   8.593 -0.4734  0.5547 -0.0632
  664MOL0     C91510   3.234   6.826   8.606 -0.2822 -1.1444  0.2406
  664MOL0     N91511   3.258   6.937   8.507 -0.1503  1.1646 -0.3476
  664MOL0     C91512   3.245   7.065   8.533  0.1073  1.0180  0.8170
  664MOL0     C91513   3.309   7.123   8.431  0.2189  0.1617 -0.1417
  664MOL0     C91514   3.320   7.271   8.433 -0.3865  0.3580 -0.3672
  664MOL0     C91515   3.442   7.318   8.520  0.1573  0.1580 -0.3435
  664MOL0     C91516   3.460   7.465   8.496  0.6081 -0.0205 -0.1274
  664MOL0     C91517   3.505   7.491   8.351 -0.2936 -0.0577 -0.3575
  664MOL0     O91518   3.570   7.616   8.324 -0.3681 -0.6194 -0.3473
  664MOL0     C91519   3.513   7.742   8.339  0.0368  1.0829 -0.0513
  664MOL0     C91520   3.382   7.769   8.384  0.9349  0.1349  0.6483
  664MOL0     C91521   3.333   7.904   8.387  0.4348  1.3928 -0.1439
  664MOL0     C91522   3.183   7.912   8.414 -0.1112 -0.9875 -0.6470
  664MOL0     C91523   3.420   8.008   8.328  0.5921 -0.1379 -0.4708
  664MOL0     C91524   3.384   8.150   8.304 -0.7397  0.4223  0.5100
  664MOL0     O91525   3.481   8.245   8.272 -0.1044 -0.1159 -0.2326
  664MOL0     C91526   3.446   8.383   8.280  0.5102  0.4951  0.2679
  664MOL0     C91527   3.437   8.448   8.158 -0.1776 -0.1698 -0.1685
  664MOL0     C91528   3.437   8.589   8.157  0.0226 -0.4912 -0.0203
  664MOL0     C91529   3.441   8.657   8.280 -0.5986  0.7767 -0.2654
  664MOL0     O91530   3.442   8.789   8.287  0.3963  0.1924 -0.1035
  664MOL0     C91531   3.327   8.862   8.231 -0.3295  0.2632 -0.6176
  664MOL0     C91532   3.378   9.009   8.178 -0.6206  0.8493 -0.4535
  664MOL0     C91533   3.495   8.985   8.094 -0.8009 -0.5130 -0.1202
  664MOL0     C91534   3.539   9.114   8.023 -0.2154  1.0770  0.3425
  664MOL0     C91535   3.657   9.097   7.925 -0.1052 -0.5575  0.2506
  664MOL0     C91536   3.795   9.048   7.976  0.1913 -0.0817 -0.5212
  664MOL0     C91537   3.890   9.163   7.998  0.9455 -0.0884 -1.2230
  664MOL0     C91538   3.907   9.212   8.137 -0.0883 -0.0306  0.1759
  664MOL0    Cl91539   4.020   9.349   8.143 -0.1227 -0.6981  0.3220
  664MOL0     C91540   3.434   8.587   8.406  0.4593  0.7033 -0.1783
  664MOL0     C91541   3.428   8.447   8.402  0.1157 -0.7889 -0.5097
  664MOL0     O91542   3.266   8.180   8.335 -0.0685 -0.0067  0.5717
  664MOL0     C91543   3.557   7.976   8.308  0.0132  0.0993 -0.2049
  664MOL0     C91544   3.602   7.848   8.313 -0.8495  0.0783 -0.5091
  664MOL0     N91545   3.364   7.034   8.343 -0.3809 -0.4067 -0.2899
  664MOL0     N91546   3.319   6.925   8.386 -0.6195  0.5689 -0.4007
  664MOL0     C91547   2.849   6.085   9.314  0.9287 -0.1228 -0.0200
  664MOL0     C91548   2.760   5.979   9.322 -0.1371  0.1411 -0.3448
  664MOL0     C91549   2.392   5.760   9.098  0.8039  1.1737 -0.3524
  664MOL0     C91550   2.448   5.632   9.097  0.0839 -0.3803 -0.2064
  664MOL0     C91551   2.373   5.519   9.060 -0.6152 -0.8494  0.1947
  664MOL0     C91552   2.233   5.526   9.039  0.1407 -0.4175  0.2467
  664MOL0     O91553   2.166   5.402   9.015  0.1905 -0.4281  0.1527
  664MOL0     C91554   2.035   5.415   8.973 -0.1130 -0.1890  0.9189
  664MOL0     C91555   1.991   5.270   8.937  0.2510 -0.5811  0.2117
  664MOL0     C91556   1.895   5.263   8.820  0.4236 -0.1446 -0.0164
  664MOL0     C91557   1.967   5.307   8.684 -0.0013  0.5733  0.7603
  664MOL0     C91558   1.875   5.284   8.579  0.8928  0.4288 -0.3925
  664MOL0     C91559   1.797   5.261   8.483  0.3163  1.0563  0.3253
  664MOL0     C91560   2.180   5.656   9.038 -0.2432 -0.4400  0.7478
  664MOL0     C91561   2.255   5.770   9.065  0.0385 -0.1244 -0.5610
  664MOL0     C91562   2.169   5.899   9.072 -0.1088 -0.3521  0.9145
  664MOL0     H91563   2.689   5.932   8.999 -1.2513  1.9315  0.6374
  664MOL0     H91564   2.902   6.068   8.979 -3.1123  0.6842 -0.2343
  664MOL0     H91565   2.909   6.354   9.048 -1.4434 -1.6655  0.7278
  664MOL0     H91566   3.027   6.233   8.981 -1.5976 -2.2794  1.8666
  664MOL0     H91567   3.099   6.479   9.158 -0.6282  0.8656 -0.0983
  664MOL0     H91568   3.209   6.365   9.083 -0.6720 -0.7041  0.6056
  664MOL0     H91569   2.992   6.540   8.950 -1.5009 -2.8364 -1.4681
  664MOL0     H91570   3.145   6.621   8.989 -1.9649  0.8470  0.8253
  664MOL0     H91571   3.247   6.400   8.854  0.9469  0.6887 -0.4529
  664MOL0     H91572   3.083   6.390   8.799  2.3659 -0.1176 -3.0645
  664MOL0     H91573   3.186   6.508   8.630 -0.0113 -0.9740  0.0177
  664MOL0     H91574   3.295   6.608   8.740  0.8444 -0.6864  0.9641
  664MOL0     H91575   2.978   6.642   8.704  1.2035 -2.3342 -1.5533
  664MOL0     H91576   3.079   6.746   8.796  1.9995 -0.0438 -0.4995
  664MOL0     H91577   3.018   6.839   8.579 -0.1794  0.7970 -0.5071
  664MOL0     H91578   3.094   6.701   8.504  0.0931 -1.0158  1.0075
  664MOL0     H91579   3.262   6.868   8.703 -3.2441  1.6773  0.0464
  664MOL0     H91580   3.306   6.750   8.575 -0.2738 -1.1573  0.2946
  664MOL0     H91581   3.184   7.103   8.614  2.1962 -0.8730  3.4870
  664MOL0     H91582   3.227   7.310   8.476 -0.1395 -1.7592  2.3611
  664MOL0     H91583   3.324   7.308   8.330 -1.3057  1.1388 -0.1339
  664MOL0     H91584   3.423   7.310   8.628  2.6084  0.8350  0.2015
  664MOL0     H91585   3.533   7.261   8.501 -1.0663 -1.3396 -2.0499
  664MOL0     H91586   3.360   7.509   8.503  0.0089 -1.4578  0.8792
  664MOL0     H91587   3.526   7.512   8.570  1.0633  1.2548 -1.3146
  664MOL0     H91588   3.567   7.410   8.313  1.2283  1.1244 -0.4727
  664MOL0     H91589   3.416   7.494   8.288  0.3018  0.4881 -1.1794
  664MOL0     H91590   3.311   7.690   8.406  1.6900 -0.3853  1.2788
  664MOL0     H91591   3.154   7.827   8.476 -0.5889 -0.5682 -0.2903
  664MOL0     H91592   3.131   7.900   8.318 -1.9074  1.7129 -0.1406
  664MOL0     H91593   3.152   8.006   8.461  2.0822 -0.9464  0.8818
  664MOL0     H91594   3.416   8.393   8.067 -0.8837 -0.7932  0.3556
  664MOL0     H91595   3.426   8.642   8.064 -4.0567  0.5752  0.8989
  664MOL0     H91596   3.290   8.813   8.140  0.0183 -0.4199 -0.3940
  664MOL0     H91597   3.248   8.861   8.306  1.7488  2.6985  1.8308
  664MOL0     H91598   3.300   9.053   8.115 -1.7075 -0.8963 -0.4108
  664MOL0     H91599   3.394   9.086   8.254 -0.3291  0.7088 -0.3724
  664MOL0     H91600   3.462   8.920   8.013 -1.2555 -0.5096  0.0581
  664MOL0     H91601   3.580   8.943   8.148 -1.5694 -0.2580  1.3654
  664MOL0     H91602   3.569   9.191   8.094 -0.2708  0.4601  1.0515
  664MOL0     H91603   3.458   9.148   7.958 -1.2792 -2.7943 -0.6323
  664MOL0     H91604   3.623   9.032   7.844 -0.3765  0.7072 -0.6761
  664MOL0     H91605   3.674   9.196   7.882 -0.4954 -0.4432  0.3546
  664MOL0     H91606   3.842   8.983   7.901  1.4472  1.7412 -1.4115
  664MOL0     H91607   3.782   8.993   8.070  2.3230 -2.7344 -1.6421
  664MOL0     H91608   3.880   9.252   7.934  0.3388  2.2184  1.8170
  664MOL0     H91609   3.988   9.121   7.975  0.4599 -1.7272 -0.4706
  664MOL0     H91610   3.941   9.133   8.205  2.5956  0.5432 -0.4039
  664MOL0     H91611   3.811   9.252   8.170 -0.4839 -0.2804 -0.6247
  664MOL0     H91612   3.423   8.653   8.491 -3.2200  3.5977 -2.5417
  664MOL0     H91613   3.433   8.395   8.498  3.7119  0.1575 -0.0460
  664MOL0     H91614   3.616   8.060   8.270 -3.8105  1.6293 -3.5380
  664MOL0     H91615   3.703   7.818   8.288 -0.9171 -1.7577  1.1557
  664MOL0     H91616   2.881   6.134   9.405 -0.2956  0.6626  0.0080
  664MOL0     H91617   2.720   5.954   9.420  4.7594 -1.3622  1.6150
  664MOL0     H91618   2.548   5.614   9.135 -0.7534 -1.8617  1.4570
  664MOL0     H91619   2.423   5.422   9.059  3.0183  0.6959  3.7172
  664MOL0     H91620   1.974   5.463   9.049  1.9563  1.3547  1.6728
  664MOL0     H91621   2.031   5.473   8.880  0.5832  2.0838  2.2574
  664MOL0     H91622   1.966   5.221   9.032  0.7856 -2.3479 -0.5056
  664MOL0     H91623   2.085   5.223   8.906  0.3287  0.5113 -1.3143
  664MOL0     H91624   1.874   5.156   8.817 -1.9763  0.1817  1.7091
  664MOL0     H91625   1.802   5.320   8.833 -0.8508 -1.4906 -2.5321
  664MOL0     H91626   2.052   5.243   8.659  0.5420  0.4280  2.8097
  664MOL0     H91627   1.997   5.412   8.681 -1.8990  1.1924  1.5706
  664MOL0     H91628   1.720   5.240   8.410 -2.0211  1.1015  2.6271
  664MOL0     H91629   2.074   5.672   9.016 -0.4931 -1.7345  0.9587
  664MOL0     H91630   2.066   5.875   9.042  0.5002  0.0643 -1.7160
  664MOL0     H91631   2.174   5.944   9.172  0.8944  0.0092  0.7122
  664MOL0     H91632   2.214   5.966   8.998 -1.6500  0.8703  1.0303
  665MOL0     O91633   1.215  10.479   4.679  0.4769 -0.3468 -0.3106
  665MOL0     C91634   1.200  10.408   4.781  0.3501 -0.1083  0.0394
  665MOL0     O91635   1.293  10.394   4.872  0.3597 -0.6893 -0.3844
  665MOL0     C91636   1.420  10.391   4.832  0.2100 -0.4035 -1.1423
  665MOL0     C91637   1.497  10.504   4.868 -0.0250 -0.2824 -0.4670
  665MOL0     C91638   1.624  10.514   4.817  0.2317 -0.3773 -0.5675
  665MOL0     C91639   1.671  10.434   4.724 -0.3298  0.5856 -0.2185
  665MOL0     O91640   1.806  10.452   4.692  0.1491 -0.2277 -0.3742
  665MOL0     C91641   1.872  10.350   4.612 -0.5479  0.6213  0.3962
  665MOL0     C91642   2.014  10.404   4.580 -1.1969 -0.1516 -0.2066
  665MOL0     C91643   2.121  10.297   4.546 -1.3468 -0.4003  0.1659
  665MOL0     C91644   2.094  10.229   4.409 -0.2428  0.1440 -0.2645
  665MOL0     C91645   2.214  10.148   4.358  0.4669 -1.0157  0.8458
  665MOL0     C91646   2.259  10.043   4.445 -0.0234  1.2984  0.0013
  665MOL0     C91647   2.397   9.994   4.396 -0.0058 -0.0771  0.4172
  665MOL0     C91648   2.402   9.924   4.264 -0.1641  0.4231 -0.2228
  665MOL0     N91649   2.547   9.900   4.234 -0.0753 -0.4255  0.2151
  665MOL0     C91650   2.633   9.977   4.158  0.2537  0.9832 -0.1793
  665MOL0     C91651   2.757   9.921   4.162 -0.0195  0.0832  0.6357
  665MOL0     C91652   2.885   9.973   4.097  0.0235  0.0346 -0.8583
  665MOL0     C91653   2.982   9.858   4.074  1.9111  0.4440  0.2443
  665MOL0     C91654   3.115   9.905   4.020  0.2179 -0.4134 -0.0887
  665MOL0     C91655   3.226   9.806   4.043 -0.2565 -0.1818 -0.0023
  665MOL0     O91656   3.326   9.821   3.946  0.0180  0.1891  0.0900
  665MOL0     C91657   3.428   9.911   3.957  0.6896  0.4067  0.3332
  665MOL0     C91658   3.504   9.941   3.846  0.5815  0.4440 -0.6541
  665MOL0     C91659   3.616  10.023   3.852 -0.2076  0.0048  0.1810
  665MOL0     C91660   3.692  10.049   3.725 -0.4932 -0.0377 -0.5846
  665MOL0     C91661   3.657  10.079   3.977  0.8624  0.8752 -0.0653
  665MOL0     C91662   3.766  10.170   3.989 -0.1704  0.3058 -0.2751
  665MOL0     O91663   3.802  10.201   4.124  0.3878 -0.0869  0.5509
  665MOL0     C91664   3.896  10.289   4.162  0.4682  0.0809  0.0039
  665MOL0     C91665   3.918  10.412   4.101 -0.3362  0.3130 -0.1824
  665MOL0     C91666   4.012  10.507   4.148 -0.8174  1.0521  0.3422
  665MOL0     C91667   4.078  10.484   4.271 -0.2145 -0.4773 -0.5965
  665MOL0     O91668   4.172  10.581   4.309  0.6208  0.6287 -0.8857
  665MOL0     C91669   4.244  10.570   4.437  0.7058  0.2720  0.3304
  665MOL0     C91670   4.173  10.596   4.565  0.5087  0.2593 -0.5491
  665MOL0     C91671   4.123  10.742   4.569  0.3768 -0.1736  0.1345
  665MOL0     C91672   4.032  10.777   4.686 -0.4264 -0.7618  0.1540
  665MOL0     C91673   4.051  10.928   4.716  0.8273  0.1005 -0.6088
  665MOL0     C91674   3.939  10.982   4.806 -0.3369  0.1605  0.9591
  665MOL0     C91675   3.932  10.898   4.934  0.1026  0.3435  0.9539
  665MOL0     C91676   3.819  10.953   5.026 -0.0119  0.1692 -0.2668
  665MOL0    Cl91677   3.654  10.908   4.964  0.1281 -0.4157 -0.0501
  665MOL0     C91678   4.054  10.356   4.332 -0.4436 -1.4946 -0.8740
  665MOL0     C91679   3.973  10.264   4.273  0.2114  0.5688 -1.1134
  665MOL0     O91680   3.816  10.224   3.895  0.0122 -0.2257  0.4444
  665MOL0     C91681   3.572  10.052   4.088 -0.3535 -0.5615  0.7379
  665MOL0     C91682   3.467   9.971   4.081 -0.2287  0.7241  0.7890
  665MOL0     N91683   2.752   9.815   4.243  0.4137  0.6877 -0.3333
  665MOL0     N91684   2.627   9.805   4.284 -0.1115 -0.1583 -0.0154
  665MOL0     C91685   1.594  10.321   4.685 -1.2078  0.5492  0.4079
  665MOL0     C91686   1.470  10.302   4.737 -0.0927  0.4880 -0.3337
  665MOL0     C91687   1.069  10.368   4.820  1.1117  0.7146  0.3674
  665MOL0     C91688   0.969  10.465   4.842 -0.1303 -0.5710  0.0627
  665MOL0     C91689   0.839  10.429   4.846 -1.0081 -0.6292 -0.0572
  665MOL0     C91690   0.800  10.299   4.847  0.0161 -0.5033  0.8535
  665MOL0     O91691   0.667  10.258   4.851  0.5874 -0.1097  0.6082
  665MOL0     C91692   0.624  10.239   4.990 -0.0480  0.1397 -0.3851
  665MOL0     C91693   0.539  10.351   5.053  0.9373 -0.5794  0.0340
  665MOL0     C91694   0.387  10.320   5.053 -0.0619 -0.1664 -0.9072
  665MOL0     C91695   0.307  10.408   5.144 -0.0216 -0.9385 -0.2573
  665MOL0     C91696   0.162  10.372   5.146 -0.9261 -0.2616 -0.4159
  665MOL0     C91697   0.040  10.340   5.156 -0.1627 -0.9083 -0.1960
  665MOL0     C91698   0.892  10.197   4.830  0.2592  0.9623  0.5250
  665MOL0     C91699   1.023  10.228   4.808 -0.2577 -0.4881  0.8778
  665MOL0     C91700   1.125  10.122   4.759 -0.1578  0.6274  0.3351
  665MOL0     H91701   1.452  10.568   4.944 -0.6838 -1.3573  0.0760
  665MOL0     H91702   1.679  10.601   4.852  0.6789 -1.4355  1.5225
  665MOL0     H91703   1.818  10.320   4.522  0.8098  2.5552 -1.1521
  665MOL0     H91704   1.874  10.265   4.680 -4.0078 -1.0758 -1.3505
  665MOL0     H91705   2.006  10.477   4.499  4.2277  1.5715  0.4278
  665MOL0     H91706   2.049  10.470   4.659 -3.2770 -0.7050  1.2733
  665MOL0     H91707   2.222  10.338   4.533 -1.6661 -0.1006 -1.5834
  665MOL0     H91708   2.133  10.225   4.628  0.7174  0.0968  0.3688
  665MOL0     H91709   2.006  10.163   4.408  1.6207 -2.6556 -3.6258
  665MOL0     H91710   2.080  10.307   4.334  2.2100  1.8100  0.8846
  665MOL0     H91711   2.298  10.214   4.333 -1.1213  0.8043  0.1384
  665MOL0     H91712   2.178  10.100   4.267 -3.8349  1.2976  1.0691
  665MOL0     H91713   2.280  10.088   4.543  0.4116  1.4344 -0.1516
  665MOL0     H91714   2.194   9.957   4.461  2.1915 -0.2892  1.1116
  665MOL0     H91715   2.444   9.935   4.475 -1.7203  1.2676  2.5713
  665MOL0     H91716   2.452  10.088   4.384 -2.1924  1.1472 -0.6189
  665MOL0     H91717   2.366   9.822   4.279 -0.3838  0.8967  3.1471
  665MOL0     H91718   2.356   9.980   4.181 -1.4047  0.2254  0.2987
  665MOL0     H91719   2.606  10.067   4.104  1.0795 -0.3214 -2.9632
  665MOL0     H91720   2.934  10.043   4.165 -1.4362 -0.3520  0.6382
  665MOL0     H91721   2.854  10.029   4.008 -1.4939  0.3162 -0.1920
  665MOL0     H91722   2.996   9.804   4.168 -1.7624 -0.3863  0.4826
  665MOL0     H91723   2.947   9.779   4.007  0.5952 -0.8759  2.3370
  665MOL0     H91724   3.108   9.917   3.912 -0.3450 -1.3102 -0.1595
  665MOL0     H91725   3.146  10.001   4.063 -0.3214 -0.1653 -0.2494
  665MOL0     H91726   3.263   9.808   4.146 -0.0577  1.4693 -0.0841
  665MOL0     H91727   3.204   9.701   4.019 -0.1522  0.3765 -2.9703
  665MOL0     H91728   3.475   9.901   3.750 -2.6050 -2.8637  1.4529
  665MOL0     H91729   3.651   9.991   3.641  1.1883 -0.5751 -1.0787
  665MOL0     H91730   3.796  10.020   3.742 -1.2066 -1.1595  2.5894
  665MOL0     H91731   3.691  10.156   3.702 -0.0640  0.2601  0.7243
  665MOL0     H91732   3.854  10.442   4.019  0.3382  0.0862 -0.8052
  665MOL0     H91733   4.030  10.597   4.090 -0.9763  0.3966 -0.7305
  665MOL0     H91734   4.289  10.471   4.445 -0.5415 -0.4092 -0.6461
  665MOL0     H91735   4.320  10.647   4.424  0.1570  0.6617 -0.7100
  665MOL0     H91736   4.095  10.520   4.558  1.7849 -0.9926 -1.7081
  665MOL0     H91737   4.219  10.568   4.660 -1.0941 -0.5454  0.0335
  665MOL0     H91738   4.062  10.759   4.479 -2.4364 -1.4896  1.6616
  665MOL0     H91739   4.202  10.818   4.573 -1.3547  1.7534 -0.7306
  665MOL0     H91740   4.062  10.718   4.773 -1.3736 -2.8906 -0.9098
  665MOL0     H91741   3.927  10.757   4.660 -1.3015  0.6476  2.2503
  665MOL0     H91742   4.150  10.946   4.758  0.6258  1.2754 -0.6024
  665MOL0     H91743   4.038  10.979   4.620  1.1967 -1.2439 -1.3978
  665MOL0     H91744   3.845  10.976   4.750 -0.0688  0.6150  0.4470
  665MOL0     H91745   3.955  11.087   4.833 -1.0116  0.7802 -0.8592
  665MOL0     H91746   4.024  10.873   4.987  1.1350 -0.9277 -1.2543
  665MOL0     H91747   3.900  10.798   4.902  0.6471  1.3737 -3.4479
  665MOL0     H91748   3.829  11.056   5.060  1.2810 -0.7719  2.5874
  665MOL0     H91749   3.828  10.894   5.118  0.2464 -0.8331 -0.9175
  665MOL0     H91750   4.122  10.332   4.413  1.9843 -1.1854 -2.7207
  665MOL0     H91751   3.953  10.173   4.329 -1.2597  1.3797 -0.2598
  665MOL0     H91752   3.588  10.101   4.183 -1.4349 -1.5089  1.4293
  665MOL0     H91753   3.411   9.944   4.170  0.6800 -1.9516  0.6471
  665MOL0     H91754   1.636  10.258   4.607  4.1563  1.9720  1.6853
  665MOL0     H91755   1.405  10.225   4.696  0.4046  0.4778 -1.1293
  665MOL0     H91756   0.991  10.571   4.850  0.3442 -0.6741  0.1671
  665MOL0     H91757   0.762  10.504   4.863  0.2508  0.8166 -0.5537
  665MOL0     H91758   0.571  10.144   5.000 -1.9265  1.2265  0.4708
  665MOL0     H91759   0.714  10.224   5.051  2.0678 -0.3928 -3.4178
  665MOL0     H91760   0.541  10.444   4.995 -0.5470 -1.3607 -1.3574
  665MOL0     H91761   0.571  10.361   5.157 -2.1017  1.6587  0.8849
  665MOL0     H91762   0.353  10.331   4.949  0.0460  0.2658 -0.8986
  665MOL0     H91763   0.375  10.216   5.081  1.9695 -0.3671 -0.6644
  665MOL0     H91764   0.300  10.508   5.101 -0.3489 -1.7703 -2.2535
  665MOL0     H91765   0.355  10.416   5.242  0.3145  0.7291 -0.5313
  665MOL0     H91766  -0.062  10.308   5.165  0.3976 -2.0921  3.2976
  665MOL0     H91767   0.861  10.100   4.793 -0.8854  1.6620 -0.4426
  665MOL0     H91768   1.227  10.160   4.746 -0.5601  1.0616 -2.0628
  665MOL0     H91769   1.140  10.047   4.837  1.4880  0.2358 -0.3249
  665MOL0     H91770   1.088  10.073   4.668  0.4204 -0.5779  0.7279
  666MOL0     O91771   9.874   8.366   9.557 -0.2983  0.0330  0.3372
  666MOL0     C91772   9.818   8.360   9.449 -0.5360  0.8928  0.2057
  666MOL0     O91773   9.881   8.318   9.336  0.0700 -0.2966 -0.2604
  666MOL0     C91774  10.006   8.266   9.355 -0.0383 -0.3957  1.4212
  666MOL0     C91775  10.029   8.137   9.349  0.1616  0.2504  0.1038
  666MOL0     C91776  10.168   8.088   9.361  0.5080 -0.5411 -0.3019
  666MOL0     C91777  10.270   8.177   9.386  0.4719 -0.3272  0.0547
  666MOL0     O91778  10.397   8.144   9.385 -0.9015 -0.6312 -0.1453
  666MOL0     C91779  10.444   8.064   9.272  0.0050  0.2502  0.6171
  666MOL0     C91780  10.593   8.048   9.271  0.7206 -0.4080  0.5745
  666MOL0     C91781  10.634   7.940   9.365 -0.1170  0.6047  0.3174
  666MOL0     C91782  10.789   7.940   9.378  1.0614 -0.1914 -0.5056
  666MOL0     C91783  10.858   7.904   9.244 -0.1037 -0.7668  0.1963
  666MOL0     C91784  11.011   7.886   9.278  0.4395  0.0413 -0.2510
  666MOL0     C91785  11.054   7.742   9.338  0.3455  0.2117 -0.1827
  666MOL0     C91786  11.196   7.755   9.400  0.7888  0.1775  0.1077
  666MOL0     N91787  11.286   7.818   9.299 -0.1001  0.1372  0.9295
  666MOL0     C91788  11.376   7.752   9.217  1.0798 -0.2264 -0.0808
  666MOL0     C91789  11.480   7.839   9.192 -0.2484 -0.0210  0.1876
  666MOL0     C91790  11.600   7.797   9.108 -0.6885  0.5246 -0.3099
  666MOL0     C91791  11.738   7.835   9.173  0.6211  0.8492  0.8795
  666MOL0     C91792  11.849   7.794   9.083 -0.4094 -0.0758 -0.1248
  666MOL0     C91793  11.989   7.801   9.150 -0.7131  0.3882 -0.7345
  666MOL0     O91794  12.002   7.700   9.247 -0.8542  0.7762 -0.1866
  666MOL0     C91795  12.122   7.647   9.293  0.0133 -0.1599 -0.4788
  666MOL0     C91796  12.121   7.576   9.416  0.3029 -0.3235 -0.0088
  666MOL0     C91797  12.238   7.528   9.475 -0.5945 -0.0507  0.8688
  666MOL0     C91798  12.219   7.445   9.596 -0.8399  0.2987 -0.3514
  666MOL0     C91799  12.366   7.536   9.407  1.1296 -0.2348  0.5319
  666MOL0     C91800  12.486   7.481   9.470 -1.2787  0.4312  0.1426
  666MOL0     O91801  12.571   7.424   9.382  0.4895  0.4362  0.2365
  666MOL0     C91802  12.680   7.358   9.426  0.5467 -0.1328  0.4186
  666MOL0     C91803  12.668   7.227   9.488 -0.6064 -0.1435 -0.3217
  666MOL0     C91804  12.778   7.160   9.543  0.7100  0.0308  0.2780
  666MOL0     C91805  12.906   7.209   9.527  0.6184  0.2351  0.9001
  666MOL0     O91806  13.019   7.150   9.574  0.2083  1.1689 -0.3491
  666MOL0     C91807  13.147   7.197   9.533  0.8671 -0.4963  0.3185
  666MOL0     C91808  13.264   7.114   9.590  0.0972 -0.6303  0.6235
  666MOL0     C91809  13.398   7.162   9.535 -0.5229 -0.2491  0.2422
  666MOL0     C91810  13.426   7.130   9.387  0.9238 -0.2209 -0.0732
  666MOL0     C91811  13.559   7.193   9.339 -0.3980  0.6248 -0.9086
  666MOL0     C91812  13.593   7.161   9.196 -0.0069 -0.0581 -0.7418
  666MOL0     C91813  13.717   7.246   9.138 -0.0266 -0.3638 -0.0931
  666MOL0     C91814  13.734   7.191   8.991  0.6898 -0.1085 -0.3499
  666MOL0    Cl91815  13.914   7.183   8.943  0.3459  0.1460  0.1757
  666MOL0     C91816  12.917   7.330   9.461  0.3981 -0.0385  0.4905
  666MOL0     C91817  12.811   7.408   9.411 -0.6224 -0.6895 -0.8304
  666MOL0     O91818  12.503   7.483   9.594  0.4901  0.3591  0.4191
  666MOL0     C91819  12.373   7.612   9.289  0.3228 -0.3925 -0.0555
  666MOL0     C91820  12.253   7.673   9.240 -0.2191 -0.2031  0.2886
  666MOL0     N91821  11.447   7.960   9.248  0.8597  0.4434 -0.2854
  666MOL0     N91822  11.332   7.947   9.311 -0.7363 -0.2650  1.1734
  666MOL0     C91823  10.237   8.308   9.401 -0.4624 -0.5010 -0.3701
  666MOL0     C91824  10.108   8.352   9.371  0.6801  0.7422 -0.2647
  666MOL0     C91825   9.673   8.400   9.432  0.4883 -0.1164  0.4137
  666MOL0     C91826   9.623   8.409   9.303 -0.0429 -0.4060 -0.4167
  666MOL0     C91827   9.484   8.421   9.283 -0.9931 -0.3286 -0.2338
  666MOL0     C91828   9.402   8.432   9.393 -0.6848 -0.3875  0.1906
  666MOL0     O91829   9.265   8.447   9.376 -0.7186  0.0578 -0.1054
  666MOL0     C91830   9.208   8.420   9.242 -0.0484 -0.3855 -0.1669
  666MOL0     C91831   9.054   8.426   9.266 -0.3429 -0.5849  0.3080
  666MOL0     C91832   8.990   8.566   9.296 -0.5324 -0.1660  0.4594
  666MOL0     C91833   8.836   8.566   9.303  0.4082  0.0187 -0.1695
  666MOL0     C91834   8.779   8.462   9.396  0.2921  0.1766  0.4131
  666MOL0     C91835   8.752   8.373   9.471 -0.3970  0.2008 -0.2950
  666MOL0     C91836   9.452   8.438   9.519  0.4382 -0.1365 -0.9080
  666MOL0     C91837   9.585   8.421   9.536  0.8215  0.9412 -1.0583
  666MOL0     C91838   9.632   8.426   9.680  0.8495 -0.9935  0.0489
  666MOL0     H91839   9.939   8.077   9.341 -1.1774  1.8673  1.9820
  666MOL0     H91840  10.183   7.982   9.345 -2.5753 -0.9952 -0.6896
  666MOL0     H91841  10.412   8.107   9.176  1.9423 -0.1319 -0.2517
  666MOL0     H91842  10.404   7.962   9.268  1.4971 -0.3250 -0.2621
  666MOL0     H91843  10.621   8.027   9.168  0.0997  0.2478  0.2556
  666MOL0     H91844  10.637   8.143   9.302 -2.1433  1.0212  0.6531
  666MOL0     H91845  10.602   7.953   9.469  3.5934  0.7072  1.6086
  666MOL0     H91846  10.598   7.846   9.323  0.3333 -0.4667  2.2102
  666MOL0     H91847  10.822   8.037   9.416 -1.2984  1.8058 -3.1746
  666MOL0     H91848  10.818   7.860   9.448  0.9975 -0.2089 -0.4990
  666MOL0     H91849  10.833   7.982   9.171 -3.8455 -1.3360  0.6475
  666MOL0     H91850  10.820   7.810   9.201 -0.8177  1.0455 -3.5640
  666MOL0     H91851  11.067   7.891   9.185  0.8945  0.5518  0.0472
  666MOL0     H91852  11.043   7.962   9.350 -1.1776  1.3536 -0.8538
  666MOL0     H91853  11.059   7.666   9.259  0.4731  1.0311 -0.9914
  666MOL0     H91854  10.982   7.721   9.417 -0.9938 -1.2676 -1.7048
  666MOL0     H91855  11.197   7.825   9.485  0.7619  0.2763  0.0267
  666MOL0     H91856  11.228   7.655   9.431  0.6631  0.6010  1.7147
  666MOL0     H91857  11.357   7.650   9.184  1.7429 -0.1184 -0.8260
  666MOL0     H91858  11.598   7.848   9.011 -2.4057  4.1849  1.4339
  666MOL0     H91859  11.603   7.690   9.085  1.5492  0.7496 -1.3689
  666MOL0     H91860  11.752   7.941   9.197  1.2384  1.0000 -0.1167
  666MOL0     H91861  11.735   7.784   9.270 -0.5499  1.5091  1.2214
  666MOL0     H91862  11.827   7.694   9.043 -2.2070 -1.3188  3.5241
  666MOL0     H91863  11.854   7.856   8.994 -0.7794  1.4838  0.9109
  666MOL0     H91864  12.058   7.794   9.066  0.4729 -1.1187  0.2818
  666MOL0     H91865  12.015   7.895   9.200  1.1840  0.5105 -1.8718
  666MOL0     H91866  12.028   7.561   9.469 -1.2915 -0.5523 -2.6993
  666MOL0     H91867  12.273   7.351   9.577  4.2708  2.8292  0.0432
  666MOL0     H91868  12.111   7.436   9.610 -1.3214  2.4276 -2.0699
  666MOL0     H91869  12.266   7.497   9.679 -1.1462  2.2046 -1.3000
  666MOL0     H91870  12.576   7.170   9.498 -0.1917 -0.6017  1.0282
  666MOL0     H91871  12.779   7.064   9.593  4.2892  0.0609  0.5461
  666MOL0     H91872  13.159   7.208   9.424 -2.6839  1.0306 -0.0591
  666MOL0     H91873  13.161   7.294   9.582 -0.4060 -0.0135 -0.2371
  666MOL0     H91874  13.263   7.119   9.699 -1.1405  1.0502  0.5807
  666MOL0     H91875  13.244   7.009   9.567  1.7884 -0.7055 -0.6414
  666MOL0     H91876  13.484   7.124   9.591 -0.0177  2.1143  1.1756
  666MOL0     H91877  13.398   7.271   9.538 -1.5462 -0.0833 -2.8171
  666MOL0     H91878  13.342   7.162   9.326  0.9578 -0.7458 -0.3970
  666MOL0     H91879  13.431   7.022   9.376  3.4742 -0.0143 -2.0947
  666MOL0     H91880  13.533   7.300   9.340 -3.8898 -0.0562 -3.2832
  666MOL0     H91881  13.643   7.150   9.395 -1.3999 -1.4293 -0.9042
  666MOL0     H91882  13.498   7.170   9.142 -1.6916  1.1998  2.1829
  666MOL0     H91883  13.619   7.055   9.187 -0.6646 -0.8421  4.1338
  666MOL0     H91884  13.806   7.222   9.198  0.0836  2.5666  1.0508
  666MOL0     H91885  13.709   7.354   9.145 -0.6749 -0.5036  1.7436
  666MOL0     H91886  13.688   7.252   8.913  2.2677 -0.3522 -1.5392
  666MOL0     H91887  13.699   7.089   8.974  1.0762 -0.3183  0.1018
  666MOL0     H91888  13.010   7.378   9.434 -0.4180  2.1065  1.2943
  666MOL0     H91889  12.833   7.509   9.376 -0.3090 -1.0027 -1.5661
  666MOL0     H91890  12.465   7.610   9.230  0.6617 -0.8477  0.4812
  666MOL0     H91891  12.264   7.739   9.154 -0.6947 -0.5979 -0.0858
  666MOL0     H91892  10.307   8.379   9.444  0.3578 -1.7798  0.5069
  666MOL0     H91893  10.076   8.455   9.385  1.4167  0.6920  2.1478
  666MOL0     H91894   9.675   8.391   9.210  1.5092  1.6947 -0.0265
  666MOL0     H91895   9.446   8.425   9.181  0.0138 -0.6888 -0.6345
  666MOL0     H91896   9.228   8.500   9.170  0.5256  2.1274  2.6029
  666MOL0     H91897   9.235   8.319   9.207 -0.7137 -0.8360  0.5768
  666MOL0     H91898   9.028   8.356   9.346 -0.3283  1.0546  1.8117
  666MOL0     H91899   9.006   8.381   9.179  2.0489 -1.8118 -0.4517
  666MOL0     H91900   9.033   8.598   9.391 -0.1934  1.6701 -0.2704
  666MOL0     H91901   9.020   8.640   9.221  3.0669  1.3696  3.1131
  666MOL0     H91902   8.788   8.551   9.206  0.7141  0.6853 -0.4274
  666MOL0     H91903   8.796   8.660   9.342  1.8631  1.0775 -1.1104
  666MOL0     H91904   8.711   8.289   9.524  1.5936 -0.6742 -0.0859
  666MOL0     H91905   9.378   8.450   9.597  1.5783 -0.2096  0.2005
  666MOL0     H91906   9.658   8.321   9.699  1.4544 -0.9163 -0.3342
  666MOL0     H91907   9.715   8.494   9.700 -0.4170 -0.0948  2.6967
  666MOL0     H91908   9.551   8.450   9.749  1.1196 -2.5702  0.9693
  667MOL0     O91909   0.709   6.275  10.828 -0.4022  0.2400 -0.3469
  667MOL0     C91910   0.657   6.355  10.903  0.1405 -0.4108  0.0663
  667MOL0     O91911   0.709   6.479  10.953  0.7100  0.7010  0.0828
  667MOL0     C91912   0.822   6.514  10.891 -0.6496  0.8797 -0.0229
  667MOL0     C91913   0.947   6.495  10.951  0.6179 -0.1272 -0.3807
  667MOL0     C91914   1.066   6.519  10.881 -0.6814 -0.4307  0.3136
  667MOL0     C91915   1.064   6.575  10.752  0.4346  0.0712  1.4572
  667MOL0     O91916   1.178   6.588  10.691 -0.5753 -0.7267  0.3972
  667MOL0     C91917   1.177   6.678  10.579  0.4222  0.5357  0.1379
  667MOL0     C91918   1.311   6.680  10.501 -0.2891 -0.7934 -0.2208
  667MOL0     C91919   1.407   6.784  10.569  0.3547  0.2234  0.3292
  667MOL0     C91920   1.466   6.723  10.695  0.6391 -0.0449  0.0411
  667MOL0     C91921   1.581   6.800  10.756  0.1191  0.1205  0.5349
  667MOL0     C91922   1.596   6.768  10.904 -0.0264  0.0085 -0.2387
  667MOL0     C91923   1.723   6.827  10.955 -0.0809 -0.5430 -0.3989
  667MOL0     C91924   1.746   6.789  11.108  0.3985 -1.3227  0.0579
  667MOL0     N91925   1.835   6.886  11.170  0.2628 -0.0577 -0.6831
  667MOL0     C91926   1.965   6.897  11.148  0.5303 -0.4939  0.1701
  667MOL0     C91927   2.005   7.001  11.227  0.1875 -0.2579 -0.0470
  667MOL0     C91928   2.141   7.052  11.222  0.6749 -0.2075  0.2606
  667MOL0     C91929   2.175   7.140  11.346 -0.3591  0.0642 -0.2675
  667MOL0     C91930   2.311   7.215  11.323 -0.7875 -0.8030 -0.4738
  667MOL0     C91931   2.294   7.335  11.236 -0.3129 -0.4064 -0.9253
  667MOL0     O91932   2.424   7.402  11.233  0.0316 -0.3813 -0.1123
  667MOL0     C91933   2.456   7.468  11.123 -0.7075 -1.0887 -0.2487
  667MOL0     C91934   2.586   7.516  11.112  0.6898  0.4013 -0.4518
  667MOL0     C91935   2.639   7.567  10.998 -0.1909 -0.4019 -0.4506
  667MOL0     C91936   2.783   7.577  10.991  0.4902  0.4711  0.1715
  667MOL0     C91937   2.559   7.593  10.886  0.2296 -0.5010  0.4577
  667MOL0     C91938   2.611   7.628  10.757 -0.4227 -0.7548 -0.1609
  667MOL0     O91939   2.547   7.737  10.699  0.2542  0.8754 -0.7052
  667MOL0     C91940   2.611   7.792  10.590  0.6970 -1.6002 -0.2626
  667MOL0     C91941   2.687   7.911  10.608 -0.2335 -0.6032 -0.4738
  667MOL0     C91942   2.770   7.971  10.504 -0.8215 -0.5272 -0.5027
  667MOL0     C91943   2.777   7.899  10.385  0.5320  0.0891  0.0713
  667MOL0     O91944   2.846   7.967  10.286  0.1688 -0.0654  0.1169
  667MOL0     C91945   2.979   7.918  10.263 -0.2867  0.9462  0.4254
  667MOL0     C91946   3.060   8.007  10.167 -0.4427  0.0230 -0.8229
  667MOL0     C91947   2.989   8.034  10.038  0.1658 -0.4606 -0.4827
  667MOL0     C91948   3.072   8.121   9.945 -0.6404 -0.8733 -0.3801
  667MOL0     C91949   3.155   8.048   9.841  0.1409 -0.3562 -0.4303
  667MOL0     C91950   3.285   8.129   9.810  0.7131 -0.3243  0.5577
  667MOL0     C91951   3.371   8.047   9.710 -0.2169 -0.2770 -0.2692
  667MOL0     C91952   3.503   8.112   9.680 -0.0001 -1.0216  0.1842
  667MOL0    Cl91953   3.613   8.117   9.819  0.4466 -0.2443  0.4427
  667MOL0     C91954   2.703   7.782  10.369 -0.0452 -0.5113 -1.7610
  667MOL0     C91955   2.614   7.729  10.470 -0.0801 -1.4623  0.5652
  667MOL0     O91956   2.699   7.555  10.703  0.3404 -0.4756 -0.3869
  667MOL0     C91957   2.420   7.564  10.901 -0.0489  0.1458  0.6382
  667MOL0     C91958   2.373   7.503  11.015  0.0949  0.7501 -0.7792
  667MOL0     N91959   1.893   7.058  11.287  0.6333  1.1241 -0.8918
  667MOL0     N91960   1.795   6.984  11.255  0.0780  0.2478  0.6983
  667MOL0     C91961   0.939   6.603  10.686  0.1540  0.0906  0.5977
  667MOL0     C91962   0.828   6.560  10.760 -0.3850  0.4797 -0.1719
  667MOL0     C91963   0.516   6.322  10.939 -0.5391  0.4918 -0.7916
  667MOL0     C91964   0.505   6.219  11.035  0.5106 -0.3965 -1.0474
  667MOL0     C91965   0.378   6.183  11.098 -0.1338 -0.6441  0.8362
  667MOL0     C91966   0.266   6.259  11.049 -0.2749  1.6526  0.4855
  667MOL0     O91967   0.134   6.240  11.106 -0.6618 -0.0453 -0.4761
  667MOL0     C91968   0.111   6.137  11.201 -0.2191  0.4281  0.0948
  667MOL0     C91969  -0.039   6.115  11.214 -0.6259  0.5448  0.7148
  667MOL0     C91970  -0.090   6.048  11.091  0.6721 -0.7028 -0.0694
  667MOL0     C91971  -0.238   6.062  11.099  0.1450 -0.1910  0.5247
  667MOL0     C91972  -0.300   5.959  11.178  0.0307 -0.6535  0.6829
  667MOL0     C91973  -0.339   5.867  11.241 -1.8233  0.0671 -0.9049
  667MOL0     C91974   0.277   6.349  10.943 -0.0550  0.7827  0.1719
  667MOL0     C91975   0.397   6.384  10.889 -0.5886  0.3239  0.0525
  667MOL0     C91976   0.402   6.493  10.783  0.1663  0.3174 -0.7926
  667MOL0     H91977   0.950   6.471  11.057 -0.7955 -0.7415 -0.4557
  667MOL0     H91978   1.163   6.504  10.928 -0.3678 -1.0514 -0.4965
  667MOL0     H91979   1.138   6.771  10.622 -0.6609 -0.2185  0.8411
  667MOL0     H91980   1.105   6.636  10.508 -1.4360  3.5750  0.0511
  667MOL0     H91981   1.362   6.585  10.484  2.2399  0.5492 -0.4873
  667MOL0     H91982   1.291   6.710  10.397 -0.0392 -1.0934 -0.3555
  667MOL0     H91983   1.490   6.807  10.502  0.1143 -1.0268 -0.4230
  667MOL0     H91984   1.351   6.877  10.584 -5.3823 -1.7070 -4.8766
  667MOL0     H91985   1.393   6.723  10.777 -0.4336  3.0315 -0.7698
  667MOL0     H91986   1.505   6.626  10.665  2.2045  0.8635 -0.9833
  667MOL0     H91987   1.580   6.909  10.744  0.7449  0.0904  0.1923
  667MOL0     H91988   1.666   6.768  10.695 -1.8697 -1.5300 -1.5482
  667MOL0     H91989   1.512   6.806  10.963  0.7445  2.2462 -0.4872
  667MOL0     H91990   1.601   6.661  10.924  1.9769  0.4920  2.2763
  667MOL0     H91991   1.714   6.935  10.939  1.6274 -0.4287 -0.8000
  667MOL0     H91992   1.807   6.795  10.892  0.5869 -1.4406  0.9005
  667MOL0     H91993   1.652   6.784  11.163 -0.2350 -3.1728 -1.0959
  667MOL0     H91994   1.790   6.689  11.110  0.4352 -1.3162 -0.4323
  667MOL0     H91995   2.008   6.841  11.066 -3.5602 -1.7368 -1.3531
  667MOL0     H91996   2.151   7.103  11.126  0.2360 -3.2559 -1.5234
  667MOL0     H91997   2.212   6.969  11.219 -0.0450 -0.8083 -0.8094
  667MOL0     H91998   2.095   7.211  11.368 -0.5202 -0.6009  1.4584
  667MOL0     H91999   2.191   7.076  11.433  1.9813 -0.3735 -0.9430
  667MOL0     H92000   2.350   7.243  11.421  1.8535  1.0717 -1.9137
  667MOL0     H92001   2.380   7.145  11.276  0.2083 -0.2128  0.0716
  667MOL0     H92002   2.264   7.319  11.132  1.5218 -0.2995 -1.5106
  667MOL0     H92003   2.221   7.396  11.290 -2.4770 -4.2561  0.8840
  667MOL0     H92004   2.642   7.496  11.204 -0.1155 -1.0779 -0.2455
  667MOL0     H92005   2.817   7.514  10.908 -0.6973 -0.7829  0.5864
  667MOL0     H92006   2.833   7.544  11.082 -1.7478  1.5889  1.9258
  667MOL0     H92007   2.815   7.679  10.967  0.2051  0.0835 -2.0674
  667MOL0     H92008   2.693   7.954  10.707  0.4387 -2.4567  0.3359
  667MOL0     H92009   2.821   8.066  10.520  1.2768 -1.9875  2.4070
  667MOL0     H92010   3.037   7.903  10.354  0.2712 -1.7295 -0.2718
  667MOL0     H92011   2.978   7.824  10.207  1.1219  0.5018  1.0978
  667MOL0     H92012   3.079   8.101  10.221 -2.0026  0.0985 -0.3268
  667MOL0     H92013   3.159   7.963  10.154  0.5252  1.1531  1.9369
  667MOL0     H92014   2.900   8.093  10.062  2.0291  1.2238  3.1324
  667MOL0     H92015   2.944   7.940  10.004 -2.1400  0.2602  0.3783
  667MOL0     H92016   3.136   8.189  10.001 -0.5288 -1.9784  0.8840
  667MOL0     H92017   3.013   8.194   9.890  2.0043  0.7727 -1.2074
  667MOL0     H92018   3.178   7.949   9.883 -1.6660 -0.8458 -0.4994
  667MOL0     H92019   3.099   8.032   9.748  0.4449  2.2663 -1.1236
  667MOL0     H92020   3.349   8.157   9.894  1.6973  0.6880 -0.4892
  667MOL0     H92021   3.246   8.218   9.760  0.6896 -2.0900 -2.8414
  667MOL0     H92022   3.314   8.018   9.621  1.4188 -2.0153 -0.8199
  667MOL0     H92023   3.399   7.954   9.762  1.2149 -0.9105 -2.0747
  667MOL0     H92024   3.475   8.208   9.637 -1.7368 -1.6376 -0.1048
  667MOL0     H92025   3.563   8.058   9.606  0.4056 -0.8316  0.3714
  667MOL0     H92026   2.700   7.732  10.273  0.1717 -0.5676 -1.7403
  667MOL0     H92027   2.551   7.643  10.451 -0.5962 -0.7389 -1.2551
  667MOL0     H92028   2.361   7.595  10.815  0.2246 -0.8037  0.0995
  667MOL0     H92029   2.266   7.487  11.014 -0.2386  2.7304 -1.4701
  667MOL0     H92030   0.927   6.639  10.585 -1.0034 -1.1522  0.2732
  667MOL0     H92031   0.723   6.555  10.732 -0.0007 -2.6755 -1.4888
  667MOL0     H92032   0.595   6.180  11.082 -0.5384 -2.4521 -0.6295
  667MOL0     H92033   0.385   6.112  11.180  1.1121 -2.8939 -1.0797
  667MOL0     H92034   0.156   6.044  11.165  0.7925  0.6983  0.6273
  667MOL0     H92035   0.166   6.164  11.291  0.6191  1.6701 -0.7520
  667MOL0     H92036  -0.086   6.210  11.243  0.3089  0.9997  0.7974
  667MOL0     H92037  -0.058   6.044  11.295  1.9116 -0.4106  0.5746
  667MOL0     H92038  -0.069   6.106  11.001 -1.7268  1.0413  0.3640
  667MOL0     H92039  -0.071   5.943  11.070  1.1529 -0.4921 -0.7058
  667MOL0     H92040  -0.272   6.056  10.995 -2.3027  1.7576  1.1034
  667MOL0     H92041  -0.265   6.161  11.136  0.2838  0.7907 -1.8262
  667MOL0     H92042  -0.360   5.797  11.320  0.6464 -0.5714 -0.7305
  667MOL0     H92043   0.195   6.391  10.886  2.1181  0.3222 -3.6426
  667MOL0     H92044   0.304   6.504  10.734  0.1432 -0.8513 -1.0508
  667MOL0     H92045   0.433   6.584  10.834  0.6737  0.5628 -1.5335
  667MOL0     H92046   0.470   6.466  10.702  0.5585 -0.3722 -0.2480
  668MOL0     O92047   4.271   7.890   5.405  0.0431 -0.0764  0.0395
  668MOL0     C92048   4.203   7.826   5.482  0.8613  0.5379 -0.0658
  668MOL0     O92049   4.248   7.727   5.570 -0.0054  0.4997  1.0292
  668MOL0     C92050   4.374   7.665   5.544  0.2110 -0.4885  0.2759
  668MOL0     C92051   4.391   7.579   5.439  0.7293 -0.6699 -0.4437
  668MOL0     C92052   4.510   7.527   5.393 -0.0860  0.3008  0.6762
  668MOL0     C92053   4.622   7.566   5.459 -0.2537  0.3545  0.2013
  668MOL0     O92054   4.747   7.522   5.415  0.6914  0.2117  0.9455
  668MOL0     C92055   4.828   7.470   5.517 -0.2824 -0.4338 -0.2449
  668MOL0     C92056   4.928   7.575   5.587 -0.0672  0.7905  0.5709
  668MOL0     C92057   5.008   7.654   5.475  0.0379 -0.1845 -1.0580
  668MOL0     C92058   5.105   7.572   5.387 -0.1296 -0.2853  0.1866
  668MOL0     C92059   5.230   7.653   5.335 -0.5229  0.1814 -0.2392
  668MOL0     C92060   5.199   7.700   5.191 -0.0369 -0.0964  0.2167
  668MOL0     C92061   5.305   7.778   5.109  0.1710  0.4729 -0.3038
  668MOL0     C92062   5.435   7.692   5.095 -0.2028 -0.6517  0.4068
  668MOL0     N92063   5.426   7.588   4.995 -0.9773  0.7594 -0.3160
  668MOL0     C92064   5.368   7.467   5.014  1.0447  0.5575  0.3040
  668MOL0     C92065   5.386   7.411   4.887  0.1732  0.5054 -0.5055
  668MOL0     C92066   5.365   7.264   4.870  0.7247 -0.0356  0.6175
  668MOL0     C92067   5.213   7.239   4.843  1.1583 -0.4103  0.4293
  668MOL0     C92068   5.185   7.089   4.851 -0.2167  0.4055 -0.1360
  668MOL0     C92069   5.041   7.049   4.822 -0.2224 -0.6376 -0.1220
  668MOL0     O92070   4.975   6.950   4.912 -0.4086  0.0068 -0.1182
  668MOL0     C92071   4.840   6.913   4.889 -0.4570 -0.4519  0.1160
  668MOL0     C92072   4.780   6.832   4.979 -0.8292  1.1597 -0.0278
  668MOL0     C92073   4.651   6.786   4.966 -0.2577  0.2629  0.3627
  668MOL0     C92074   4.600   6.702   5.084  0.0372  0.2470  0.3004
  668MOL0     C92075   4.576   6.822   4.851  0.6932  0.2218  0.0158
  668MOL0     C92076   4.441   6.780   4.838  0.1909 -0.0959  0.6735
  668MOL0     O92077   4.401   6.659   4.879  0.2197 -0.0835 -0.0359
  668MOL0     C92078   4.269   6.627   4.846  0.3803 -0.8408 -0.2652
  668MOL0     C92079   4.152   6.671   4.905 -0.7642  0.9678 -1.0592
  668MOL0     C92080   4.021   6.647   4.857 -0.3493  0.7847 -0.4086
  668MOL0     C92081   4.004   6.567   4.742  0.1804 -0.5493  0.4431
  668MOL0     O92082   3.878   6.541   4.699  0.3274  0.3345  0.5837
  668MOL0     C92083   3.860   6.425   4.616 -1.5348  0.6977  0.1971
  668MOL0     C92084   3.714   6.394   4.581  0.2799 -0.4045 -0.2655
  668MOL0     C92085   3.717   6.285   4.470 -0.6644  0.4316  0.3511
  668MOL0     C92086   3.747   6.139   4.517  0.8343 -0.2592  0.7543
  668MOL0     C92087   3.749   6.043   4.397  0.0936  0.6606  0.0362
  668MOL0     C92088   3.737   5.892   4.435 -0.0660  0.4304 -0.2242
  668MOL0     C92089   3.865   5.826   4.493  0.6750 -0.4624  0.8299
  668MOL0     C92090   3.839   5.682   4.521 -0.0624  0.5586  0.1871
  668MOL0    Cl92091   3.991   5.579   4.553  0.0075  0.1859  0.2133
  668MOL0     C92092   4.123   6.527   4.672  0.0716  0.0339 -0.2049
  668MOL0     C92093   4.246   6.557   4.721 -0.9191 -0.2036  0.0253
  668MOL0     O92094   4.373   6.863   4.780  0.1369  0.0182  0.0847
  668MOL0     C92095   4.643   6.892   4.750 -0.7715 -0.2111  0.3494
  668MOL0     C92096   4.771   6.947   4.775 -0.6887 -0.0096  0.0751
  668MOL0     N92097   5.431   7.499   4.802 -0.0884 -0.2683  0.4268
  668MOL0     N92098   5.457   7.606   4.866 -0.3022  0.0318 -0.1641
  668MOL0     C92099   4.611   7.665   5.563 -0.2095  0.2161 -0.3065
  668MOL0     C92100   4.486   7.708   5.610 -1.0741  0.0339  1.2262
  668MOL0     C92101   4.055   7.854   5.486  0.3722 -0.1108  0.8828
  668MOL0     C92102   3.976   7.759   5.554  0.2562 -0.9823 -0.1161
  668MOL0     C92103   3.839   7.776   5.573  0.1309  0.5211  0.7123
  668MOL0     C92104   3.772   7.881   5.516 -0.4711  0.2648  0.5397
  668MOL0     O92105   3.638   7.898   5.522 -0.0957 -0.5354 -0.1717
  668MOL0     C92106   3.564   7.796   5.590  0.7321 -0.2280  0.4221
  668MOL0     C92107   3.414   7.848   5.580  0.1611  0.4310  0.4342
  668MOL0     C92108   3.365   7.911   5.714  0.0421  0.4543 -0.3479
  668MOL0     C92109   3.217   7.956   5.706  0.3749 -0.4821  0.1811
  668MOL0     C92110   3.133   7.837   5.703  0.6084 -0.3663  0.4939
  668MOL0     C92111   3.067   7.736   5.710 -0.1513  0.2210 -0.2132
  668MOL0     C92112   3.846   7.978   5.453  0.1981  0.0709 -0.1827
  668MOL0     C92113   3.984   7.969   5.436 -0.4475  0.9779  0.2719
  668MOL0     C92114   4.064   8.090   5.371 -0.3389 -0.3053 -0.3827
  668MOL0     H92115   4.293   7.567   5.395 -0.2914  4.7018 -0.2805
  668MOL0     H92116   4.530   7.465   5.306  1.8178 -1.8732  2.5024
  668MOL0     H92117   4.892   7.392   5.475  0.1286  0.9566 -2.3294
  668MOL0     H92118   4.763   7.423   5.592 -0.8539  1.5848  0.5875
  668MOL0     H92119   4.872   7.642   5.653 -1.1953  0.6487 -0.2165
  668MOL0     H92120   5.007   7.527   5.645 -0.1248  0.8503  0.6997
  668MOL0     H92121   4.952   7.705   5.396  0.7252  0.0313 -1.4175
  668MOL0     H92122   5.071   7.729   5.525 -2.0152  1.7771 -1.2699
  668MOL0     H92123   5.147   7.488   5.443  0.9574 -0.5066 -0.8973
  668MOL0     H92124   5.041   7.531   5.308 -1.6335 -2.4042  2.3657
  668MOL0     H92125   5.317   7.588   5.338  0.8098  1.9397  2.2148
  668MOL0     H92126   5.250   7.741   5.396 -2.1813  2.1536 -2.3400
  668MOL0     H92127   5.163   7.613   5.136 -1.8488 -0.8806  2.4323
  668MOL0     H92128   5.110   7.764   5.189  0.4979  0.7223  1.4400
  668MOL0     H92129   5.335   7.859   5.175  2.8494 -1.9915  1.7262
  668MOL0     H92130   5.274   7.803   5.007  0.0994  2.9183  0.2529
  668MOL0     H92131   5.511   7.764   5.063 -3.0894  1.6985 -1.7253
  668MOL0     H92132   5.474   7.663   5.193  1.0454  1.1177  0.4888
  668MOL0     H92133   5.329   7.417   5.102 -4.1350  2.2606 -0.6666
  668MOL0     H92134   5.394   7.203   4.956  2.3029 -3.3299 -1.9909
  668MOL0     H92135   5.428   7.227   4.788  0.1109  1.2808 -0.4795
  668MOL0     H92136   5.152   7.285   4.921 -1.6730 -2.4883 -0.4019
  668MOL0     H92137   5.178   7.290   4.752 -0.9009 -0.1711  1.3103
  668MOL0     H92138   5.251   7.045   4.775  1.6876  2.4590  0.2128
  668MOL0     H92139   5.216   7.060   4.952  0.1634  1.6412  0.1276
  668MOL0     H92140   4.982   7.141   4.817 -2.9941 -2.3590 -1.6475
  668MOL0     H92141   5.044   7.009   4.721 -0.0477 -0.2901 -0.2574
  668MOL0     H92142   4.846   6.802   5.060 -2.3946  1.6686  1.4955
  668MOL0     H92143   4.578   6.599   5.054  2.2072 -0.7111  1.7840
  668MOL0     H92144   4.517   6.758   5.129  1.2743 -1.1834  4.9178
  668MOL0     H92145   4.673   6.691   5.164  1.2679  1.8645 -0.5618
  668MOL0     H92146   4.178   6.734   4.989 -0.0518  2.3892 -2.2960
  668MOL0     H92147   3.939   6.695   4.909  0.2700 -1.8831  3.3938
  668MOL0     H92148   3.915   6.445   4.524  0.0739  0.9974  1.1913
  668MOL0     H92149   3.897   6.335   4.665 -1.0377  2.0667  2.4653
  668MOL0     H92150   3.669   6.356   4.673 -0.7873  1.4580  0.0261
  668MOL0     H92151   3.647   6.477   4.557 -2.6928 -2.0321  1.7897
  668MOL0     H92152   3.796   6.304   4.397 -0.2620  0.5890  0.8139
  668MOL0     H92153   3.621   6.293   4.420 -0.9556 -1.6766  0.4671
  668MOL0     H92154   3.669   6.105   4.587 -1.3035 -0.4824 -1.5787
  668MOL0     H92155   3.848   6.131   4.557  1.4821 -1.3229 -1.0001
  668MOL0     H92156   3.654   6.069   4.350 -1.4670 -0.3401  2.4950
  668MOL0     H92157   3.836   6.063   4.333  0.4101  1.3164  0.6615
  668MOL0     H92158   3.715   5.836   4.343 -0.1164 -1.3118  0.7995
  668MOL0     H92159   3.658   5.886   4.510 -0.1430  0.2041 -0.3212
  668MOL0     H92160   3.892   5.877   4.586  1.6880  4.6117 -1.8787
  668MOL0     H92161   3.946   5.825   4.419 -1.1663 -2.0500 -1.2945
  668MOL0     H92162   3.783   5.637   4.438 -2.3288 -0.4865  2.1233
  668MOL0     H92163   3.781   5.666   4.613 -0.0051 -0.2533  0.0928
  668MOL0     H92164   4.116   6.475   4.577  0.1847 -0.1556 -0.1095
  668MOL0     H92165   4.334   6.527   4.665 -1.6854  0.1378 -1.4075
  668MOL0     H92166   4.595   6.904   4.653 -1.7748  2.8871  1.1199
  668MOL0     H92167   4.828   6.987   4.692  0.9984 -2.2269  0.1051
  668MOL0     H92168   4.703   7.700   5.608 -0.7030  0.3146  0.6415
  668MOL0     H92169   4.483   7.779   5.691 -0.8403  1.3192  0.1338
  668MOL0     H92170   4.020   7.669   5.597  1.2278 -0.0622  0.8726
  668MOL0     H92171   3.791   7.689   5.617 -1.1999 -0.5117 -2.4985
  668MOL0     H92172   3.572   7.703   5.533  0.0751  1.6993 -3.0654
  668MOL0     H92173   3.613   7.784   5.687  1.9123  1.3464  0.0594
  668MOL0     H92174   3.341   7.771   5.555  0.9331 -0.4743  0.9262
  668MOL0     H92175   3.406   7.915   5.493 -0.7030 -1.3287 -0.9066
  668MOL0     H92176   3.364   7.835   5.792 -0.6622  0.2965 -0.5015
  668MOL0     H92177   3.433   7.992   5.742 -0.1347  1.0641 -1.6174
  668MOL0     H92178   3.201   8.020   5.618  0.5419  2.3157  2.0771
  668MOL0     H92179   3.190   8.012   5.795  3.2147  0.6547  0.4429
  668MOL0     H92180   3.010   7.645   5.709 -0.7211  0.5392  1.2695
  668MOL0     H92181   3.798   8.068   5.419 -0.5741 -0.7383 -1.3006
  668MOL0     H92182   4.108   8.066   5.274 -0.4575  1.7216 -1.0000
  668MOL0     H92183   3.999   8.178   5.364  0.3774  0.5000  2.0577
  668MOL0     H92184   4.144   8.125   5.437 -1.9943 -0.9524  2.1243
  669MOL0     O92185   7.160  10.448   8.466 -0.0394  0.0240 -0.4393
  669MOL0     C92186   7.223  10.489   8.366  0.0062  0.0893  0.2245
  669MOL0     O92187   7.351  10.523   8.372  0.9352 -0.2856  0.6390
  669MOL0     C92188   7.431  10.508   8.479  0.8941 -0.2254 -0.1280
  669MOL0     C92189   7.417  10.430   8.592  0.4099  0.6236 -0.4720
  669MOL0     C92190   7.517  10.434   8.695 -0.4997  0.2045  0.4623
  669MOL0     C92191   7.628  10.515   8.678  0.3198 -0.0096  0.9942
  669MOL0     O92192   7.724  10.516   8.771  0.2044  0.5475 -0.8303
  669MOL0     C92193   7.859  10.490   8.738 -0.7449  0.7175  0.2468
  669MOL0     C92194   7.916  10.396   8.838 -0.1923 -0.0540 -0.8692
  669MOL0     C92195   7.861  10.254   8.846  0.1469  0.0726  0.7316
  669MOL0     C92196   7.812  10.218   8.989  0.3561  0.7326  0.3201
  669MOL0     C92197   7.701  10.118   8.991 -0.1045  0.1007  0.2012
  669MOL0     C92198   7.683  10.065   9.135  0.8667 -0.4794  0.1440
  669MOL0     C92199   7.551   9.989   9.132  0.0943  0.1895  0.7366
  669MOL0     C92200   7.523   9.926   9.266 -0.0405  0.7919 -0.3311
  669MOL0     N92201   7.503  10.017   9.378 -0.7200 -0.2010 -0.5288
  669MOL0     C92202   7.398  10.109   9.378  1.1662  0.0414  0.3997
  669MOL0     C92203   7.379  10.147   9.505 -0.3449  0.3180  0.6063
  669MOL0     C92204   7.269  10.242   9.554  0.6559 -0.0033  0.1171
  669MOL0     C92205   7.331  10.367   9.629 -0.0964  0.3800  0.2147
  669MOL0     C92206   7.263  10.498   9.598  0.2565 -0.4715 -0.1963
  669MOL0     C92207   7.348  10.624   9.618 -0.8058 -0.7867 -0.3718
  669MOL0     O92208   7.293  10.740   9.553 -0.2999  0.2760  0.0187
  669MOL0     C92209   7.195  10.814   9.609  1.1918 -0.4775  0.2632
  669MOL0     C92210   7.117  10.789   9.722  0.0369 -0.4167 -0.1836
  669MOL0     C92211   7.002  10.862   9.760 -0.8708 -1.1735 -0.8562
  669MOL0     C92212   6.938  10.819   9.894  0.6176 -0.8166  0.1168
  669MOL0     C92213   6.952  10.970   9.675  0.0989  1.3929  0.3187
  669MOL0     C92214   6.823  11.034   9.693  1.3954  0.0332 -0.2397
  669MOL0     O92215   6.798  11.138   9.615 -0.5735 -0.0736 -0.0969
  669MOL0     C92216   6.667  11.191   9.597 -0.6469  0.2975 -0.1739
  669MOL0     C92217   6.630  11.204   9.465 -0.0360  0.5817  0.0474
  669MOL0     C92218   6.500  11.229   9.425 -0.1077  0.0114 -0.2601
  669MOL0     C92219   6.392  11.230   9.519  0.1774  0.7776  0.3531
  669MOL0     O92220   6.262  11.250   9.490 -0.6761  0.1437  0.1796
  669MOL0     C92221   6.224  11.285   9.357  0.2119 -0.5140 -0.3881
  669MOL0     C92222   6.076  11.309   9.347 -0.0260 -0.1167  0.0246
  669MOL0     C92223   6.040  11.322   9.197  0.4142 -0.6371  0.3485
  669MOL0     C92224   5.909  11.408   9.191 -0.0622  0.0406 -0.3262
  669MOL0     C92225   5.857  11.447   9.053 -0.6082 -0.0654  0.4647
  669MOL0     C92226   5.787  11.330   8.988  0.0120 -0.5663  0.4023
  669MOL0     C92227   5.703  11.373   8.866  0.1548  0.3898 -0.5306
  669MOL0     C92228   5.562  11.412   8.906  0.2732  0.4802 -0.1262
  669MOL0    Cl92229   5.441  11.414   8.780 -0.2429 -0.6347  0.4452
  669MOL0     C92230   6.430  11.228   9.659 -0.9178  0.3241 -0.4776
  669MOL0     C92231   6.564  11.200   9.692 -0.1154 -0.4454  0.2964
  669MOL0     O92232   6.739  10.984   9.764 -0.4573 -0.7036 -0.2169
  669MOL0     C92233   7.038  11.010   9.571  0.3631  0.0596  0.1783
  669MOL0     C92234   7.161  10.936   9.545  0.4522  0.1773 -0.0854
  669MOL0     N92235   7.488  10.096   9.573 -0.3212 -0.2456  0.0616
  669MOL0     N92236   7.559  10.020   9.505  0.3188 -0.5691  0.1225
  669MOL0     C92237   7.643  10.599   8.561  0.1369  0.0801 -0.0987
  669MOL0     C92238   7.546  10.590   8.457  0.6640 -0.1571 -0.8279
  669MOL0     C92239   7.160  10.525   8.232 -0.1823  0.0840  0.3898
  669MOL0     C92240   7.223  10.623   8.148 -0.6167  0.1855  0.9228
  669MOL0     C92241   7.172  10.650   8.015 -0.2086  0.1641 -0.9087
  669MOL0     C92242   7.067  10.578   7.967  0.6369  0.6839 -0.6989
  669MOL0     O92243   7.012  10.587   7.842 -0.0179  0.3027 -0.2382
  669MOL0     C92244   7.084  10.663   7.733  0.1425 -0.1885 -0.7160
  669MOL0     C92245   7.034  10.612   7.598  0.1769 -0.4519  0.2137
  669MOL0     C92246   6.880  10.648   7.566  0.1655 -1.0174 -0.1060
  669MOL0     C92247   6.800  10.516   7.566  0.0525  0.1700  0.4054
  669MOL0     C92248   6.812  10.434   7.695 -0.4136 -0.1776 -0.5485
  669MOL0     C92249   6.832  10.343   7.770  0.4468 -0.5210  0.4567
  669MOL0     C92250   7.011  10.478   8.053  0.2769 -0.9690 -0.0544
  669MOL0     C92251   7.060  10.440   8.178 -0.0085  0.1039 -0.5636
  669MOL0     C92252   6.990  10.330   8.249  0.6416  0.8052 -0.2330
  669MOL0     H92253   7.326  10.373   8.607 -1.3649  3.1230 -1.0684
  669MOL0     H92254   7.512  10.365   8.779 -1.6736  0.4115  0.5852
  669MOL0     H92255   7.914  10.585   8.737  1.3061 -0.4012  0.4350
  669MOL0     H92256   7.862  10.439   8.641 -2.6723 -1.7228  1.3756
  669MOL0     H92257   8.017  10.378   8.799 -0.5809  1.1313 -2.5509
  669MOL0     H92258   7.924  10.457   8.928  1.1161 -1.3869 -0.0311
  669MOL0     H92259   7.774  10.252   8.779  1.7104  0.2200 -1.4294
  669MOL0     H92260   7.932  10.188   8.795 -4.0415 -2.3984 -2.6276
  669MOL0     H92261   7.894  10.182   9.051 -1.6068 -1.0332  2.0291
  669MOL0     H92262   7.768  10.304   9.039 -1.2668  0.2193 -0.1780
  669MOL0     H92263   7.719  10.044   8.913 -0.8747 -0.4567  0.5430
  669MOL0     H92264   7.605  10.167   8.972  0.1632  1.4224  1.9517
  669MOL0     H92265   7.759   9.988   9.152  1.2494 -0.1293  0.0365
  669MOL0     H92266   7.680  10.134   9.219 -1.3952 -0.1112 -0.1836
  669MOL0     H92267   7.570   9.905   9.064 -0.9766 -1.5967  2.5487
  669MOL0     H92268   7.471  10.050   9.090  0.8620 -0.9651 -2.8026
  669MOL0     H92269   7.438   9.857   9.262  0.5524 -0.1004  1.4212
  669MOL0     H92270   7.607   9.866   9.302 -1.0003 -0.5676 -0.2687
  669MOL0     H92271   7.330  10.133   9.297  0.7871  1.6457  1.1508
  669MOL0     H92272   7.198  10.188   9.619 -0.4399  0.4814 -0.6457
  669MOL0     H92273   7.215  10.277   9.466  0.0359 -2.7298 -0.6700
  669MOL0     H92274   7.331  10.360   9.738 -2.1846 -2.8954  0.1448
  669MOL0     H92275   7.437  10.372   9.604 -0.1045  0.1059  0.1163
  669MOL0     H92276   7.229  10.491   9.494  0.1520 -3.7565 -0.0469
  669MOL0     H92277   7.173  10.503   9.660  0.9192 -2.1071  0.9672
  669MOL0     H92278   7.337  10.651   9.723  0.2980 -0.2883 -0.3690
  669MOL0     H92279   7.451  10.601   9.590 -1.0131 -1.2343 -0.8009
  669MOL0     H92280   7.134  10.709   9.793  1.3239 -1.0612 -1.1905
  669MOL0     H92281   6.845  10.765   9.873 -0.2858  0.7938 -0.2021
  669MOL0     H92282   6.908  10.905   9.954  1.4800 -0.2269 -0.2826
  669MOL0     H92283   7.007  10.774   9.966  1.3906 -1.1500 -0.8099
  669MOL0     H92284   6.721  11.206   9.406 -0.0477 -1.1962 -0.0866
  669MOL0     H92285   6.484  11.245   9.319 -0.2539 -2.0962 -0.5993
  669MOL0     H92286   6.279  11.372   9.320  0.8957 -0.8573 -0.1911
  669MOL0     H92287   6.252  11.206   9.285 -0.5293  0.8743 -2.2908
  669MOL0     H92288   6.012  11.227   9.383 -0.1223  0.6675  1.7439
  669MOL0     H92289   6.049  11.407   9.388 -0.4748  0.3811 -1.4000
  669MOL0     H92290   6.017  11.222   9.158  0.6679  0.2030 -2.1181
  669MOL0     H92291   6.130  11.353   9.143 -0.1591 -1.0016 -0.8628
  669MOL0     H92292   5.943  11.503   9.233  1.3015 -0.2872 -0.6454
  669MOL0     H92293   5.840  11.353   9.257  0.8117 -0.4604  0.1926
  669MOL0     H92294   5.785  11.530   9.054 -0.2652  0.2441  0.1214
  669MOL0     H92295   5.933  11.492   8.988 -2.2288  2.8739  0.4399
  669MOL0     H92296   5.728  11.277   9.064  0.9577 -2.5867 -0.1844
  669MOL0     H92297   5.853  11.252   8.947 -0.6807 -1.6678  1.3234
  669MOL0     H92298   5.693  11.291   8.793 -1.3570 -0.8800  1.0315
  669MOL0     H92299   5.748  11.460   8.818  0.1471  1.8091  1.9168
  669MOL0     H92300   5.553  11.513   8.948 -0.1806  0.2936  0.2385
  669MOL0     H92301   5.526  11.335   8.975  1.2609 -0.3979 -0.5670
  669MOL0     H92302   6.355  11.234   9.737  0.9882 -2.3220  1.7230
  669MOL0     H92303   6.591  11.208   9.797  0.6631  3.1748 -0.0798
  669MOL0     H92304   7.014  11.091   9.504 -0.9739 -0.1840  0.3376
  669MOL0     H92305   7.221  10.974   9.463 -1.3278  1.3054 -0.9221
  669MOL0     H92306   7.730  10.663   8.558  1.1964 -1.3609 -2.4605
  669MOL0     H92307   7.568  10.645   8.366  1.9900 -0.1819 -0.5456
  669MOL0     H92308   7.312  10.674   8.184  1.5834 -2.4572 -0.3976
  669MOL0     H92309   7.217  10.730   7.959  1.0210  1.2946  1.5255
  669MOL0     H92310   7.053  10.768   7.735 -1.1416 -0.5536 -0.0957
  669MOL0     H92311   7.191  10.647   7.745  0.5207  1.7827 -1.1346
  669MOL0     H92312   7.060  10.505   7.593  0.0199 -0.4963  0.3509
  669MOL0     H92313   7.098  10.661   7.524  2.7115 -1.2880  1.7063
  669MOL0     H92314   6.854  10.724   7.640  4.2367 -1.5281  2.1342
  669MOL0     H92315   6.863  10.703   7.473 -1.4133  3.4786  2.5506
  669MOL0     H92316   6.823  10.451   7.482 -2.6870  0.6331 -0.8193
  669MOL0     H92317   6.698  10.547   7.539 -0.5945 -1.2842  1.0503
  669MOL0     H92318   6.850  10.272   7.848 -1.9991  0.3299  1.9226
  669MOL0     H92319   6.932  10.415   8.013 -1.3490 -1.5375  3.6930
  669MOL0     H92320   6.908  10.285   8.191  1.0074 -0.4231  0.1897
  669MOL0     H92321   7.062  10.251   8.269 -0.4392 -0.9063 -2.5867
  669MOL0     H92322   6.952  10.372   8.343  1.8184 -2.9622  2.1460
  670MOL0     O92323   2.163   4.447   3.712 -0.8791 -0.0324 -0.2745
  670MOL0     C92324   2.221   4.351   3.670  0.0341  0.1623  0.2612
  670MOL0     O92325   2.352   4.336   3.677 -0.5875  0.1499  0.0121
  670MOL0     C92326   2.425   4.422   3.753  0.5888 -0.0701  0.8410
  670MOL0     C92327   2.485   4.532   3.683  0.4032 -0.1660  0.8018
  670MOL0     C92328   2.553   4.626   3.763 -0.5488 -0.1829  0.0887
  670MOL0     C92329   2.563   4.617   3.901 -0.3678 -0.7772  0.0469
  670MOL0     O92330   2.647   4.702   3.981  0.1966  0.2729  0.6374
  670MOL0     C92331   2.738   4.797   3.924 -0.0420  0.0825 -1.5200
  670MOL0     C92332   2.861   4.729   3.874 -0.2726  0.6380  0.1021
  670MOL0     C92333   2.931   4.644   3.979  0.2835 -0.2454  0.2945
  670MOL0     C92334   3.027   4.555   3.905 -0.8389  0.5338 -0.5929
  670MOL0     C92335   3.164   4.622   3.871  0.7684 -0.6173  0.2671
  670MOL0     C92336   3.258   4.521   3.802 -0.1147 -0.4144 -0.2779
  670MOL0     C92337   3.391   4.587   3.762 -0.0352  0.1828  0.1598
  670MOL0     C92338   3.490   4.486   3.715 -0.2519  0.1909  0.3943
  670MOL0     N92339   3.601   4.550   3.642  0.1212  0.1637  0.3499
  670MOL0     C92340   3.597   4.578   3.509 -0.1214 -0.2562  0.5404
  670MOL0     C92341   3.723   4.593   3.468  0.2865 -0.2583 -0.0229
  670MOL0     C92342   3.762   4.600   3.322 -0.3664 -0.9797 -0.2803
  670MOL0     C92343   3.909   4.623   3.302 -0.0623  0.0371  0.6836
  670MOL0     C92344   3.943   4.615   3.155 -0.9037 -0.1457 -1.0037
  670MOL0     C92345   4.096   4.572   3.140 -0.2445 -0.1551 -1.0946
  670MOL0     O92346   4.184   4.658   3.216  0.1960  0.3488 -0.2290
  670MOL0     C92347   4.312   4.617   3.225  0.8573 -0.9143  0.3502
  670MOL0     C92348   4.380   4.696   3.312  0.3676 -0.7078 -0.2120
  670MOL0     C92349   4.517   4.681   3.335  0.4728 -0.1526 -0.1376
  670MOL0     C92350   4.581   4.782   3.437  0.2264 -0.2328  0.3201
  670MOL0     C92351   4.589   4.589   3.253 -0.3315 -0.2108 -0.0732
  670MOL0     C92352   4.733   4.563   3.258  0.1540 -0.1049  0.0478
  670MOL0     O92353   4.787   4.475   3.166 -0.1209  0.4543  0.4408
  670MOL0     C92354   4.915   4.424   3.192  0.4569 -1.3161  0.2424
  670MOL0     C92355   4.932   4.330   3.290  0.5370  0.0301  0.4610
  670MOL0     C92356   5.050   4.261   3.302 -0.0177 -0.8771  0.1797
  670MOL0     C92357   5.160   4.293   3.214 -0.0031 -0.8156  0.8511
  670MOL0     O92358   5.276   4.220   3.238  0.7802 -0.0621  0.1223
  670MOL0     C92359   5.403   4.250   3.179 -0.1663  0.5806  0.1458
  670MOL0     C92360   5.459   4.387   3.209  0.3360 -0.0905 -0.1101
  670MOL0     C92361   5.604   4.407   3.193 -0.7011 -0.6639 -0.2500
  670MOL0     C92362   5.652   4.361   3.054  0.0605  0.0928  0.3892
  670MOL0     C92363   5.801   4.387   3.054  0.0518 -0.4892 -0.8253
  670MOL0     C92364   5.846   4.410   2.921 -0.4065 -0.0567  0.0637
  670MOL0     C92365   5.987   4.485   2.915 -0.3953 -0.4122 -0.1894
  670MOL0     C92366   6.096   4.447   3.014 -0.5436 -0.3384  0.2387
  670MOL0    Cl92367   6.220   4.576   2.975  0.0800 -0.2040 -0.2175
  670MOL0     C92368   5.142   4.398   3.128  0.1685  0.3890  1.0611
  670MOL0     C92369   5.020   4.466   3.117  1.2369 -0.4201  0.4179
  670MOL0     O92370   4.801   4.628   3.335 -0.1126  0.4906  0.1370
  670MOL0     C92371   4.517   4.508   3.162 -0.3670  0.1640  0.3967
  670MOL0     C92372   4.376   4.516   3.144 -0.0358 -0.3457 -0.4157
  670MOL0     N92373   3.803   4.580   3.579  0.0037  0.4605 -0.2054
  670MOL0     N92374   3.729   4.562   3.681  0.5275 -0.1582  1.1845
  670MOL0     C92375   2.498   4.507   3.968  0.2418  0.1717 -0.9645
  670MOL0     C92376   2.434   4.412   3.888  0.2438 -0.3404 -0.8458
  670MOL0     C92377   2.147   4.242   3.614  0.0215  0.1387  0.2789
  670MOL0     C92378   2.002   4.234   3.648 -0.5347 -0.1190 -0.3638
  670MOL0     C92379   1.925   4.121   3.614  0.3229  0.1627  0.4695
  670MOL0     C92380   1.979   4.016   3.533  0.4037 -0.9691  0.3829
  670MOL0     O92381   1.901   3.912   3.497  0.6345 -0.0233 -0.7096
  670MOL0     C92382   1.891   3.872   3.361 -0.3213  0.1458  0.9786
  670MOL0     C92383   1.861   3.723   3.351 -0.1981 -0.1819  0.1928
  670MOL0     C92384   1.707   3.697   3.373 -0.6618 -0.1561 -0.0923
  670MOL0     C92385   1.661   3.556   3.312  0.8112  0.1725  0.3644
  670MOL0     C92386   1.718   3.454   3.400 -0.6640  0.9680 -0.6988
  670MOL0     C92387   1.796   3.394   3.468 -0.2127 -0.7733 -0.8354
  670MOL0     C92388   2.110   4.025   3.499  0.2693 -1.2064 -0.5807
  670MOL0     C92389   2.192   4.130   3.537 -0.5029  0.5422  0.4654
  670MOL0     C92390   2.334   4.133   3.486  0.5938 -0.1678  0.3313
  670MOL0     H92391   2.487   4.546   3.575  2.9565  0.4020  0.8699
  670MOL0     H92392   2.607   4.702   3.707  0.7719 -2.0680 -1.3513
  670MOL0     H92393   2.771   4.876   3.993 -1.5416  0.2676 -0.9687
  670MOL0     H92394   2.684   4.850   3.844 -3.3252 -1.2048 -0.3190
  670MOL0     H92395   2.846   4.673   3.781 -0.7766  0.2819  0.3940
  670MOL0     H92396   2.935   4.806   3.849 -0.7467  0.4702 -2.0203
  670MOL0     H92397   2.985   4.711   4.047  0.3948 -0.5472  0.5032
  670MOL0     H92398   2.856   4.588   4.035  0.0838 -0.3087 -0.0343
  670MOL0     H92399   3.041   4.475   3.978 -1.3471  0.0197 -1.0520
  670MOL0     H92400   2.987   4.517   3.811 -1.6969  0.9558 -0.4066
  670MOL0     H92401   3.211   4.676   3.953  1.0264  1.1912 -1.0238
  670MOL0     H92402   3.140   4.695   3.794  1.2044  0.1262  0.8224
  670MOL0     H92403   3.279   4.437   3.868  1.6684 -0.8732 -1.3705
  670MOL0     H92404   3.206   4.478   3.716 -4.0387 -3.4806  3.2015
  670MOL0     H92405   3.454   4.639   3.834  0.1945  0.9799 -0.5993
  670MOL0     H92406   3.366   4.653   3.678 -2.7136 -2.0733 -0.9701
  670MOL0     H92407   3.525   4.438   3.807 -3.0907 -0.9795  0.9853
  670MOL0     H92408   3.444   4.408   3.653  0.9451 -2.1836  2.3304
  670MOL0     H92409   3.517   4.570   3.436 -0.4577 -1.2660  0.9958
  670MOL0     H92410   3.700   4.682   3.285 -3.7244 -2.0806  2.3140
  670MOL0     H92411   3.733   4.510   3.268 -1.3865  1.4313 -4.1664
  670MOL0     H92412   3.942   4.717   3.348  1.6257 -0.5103  0.6471
  670MOL0     H92413   3.968   4.543   3.347  1.6809 -1.4532 -3.7357
  670MOL0     H92414   3.883   4.535   3.111 -1.0858  0.1620 -1.3199
  670MOL0     H92415   3.917   4.705   3.099  1.0269  0.5988 -0.7912
  670MOL0     H92416   4.110   4.471   3.180  0.1270  0.8269  1.3646
  670MOL0     H92417   4.114   4.576   3.032 -0.8879 -0.4348 -1.2215
  670MOL0     H92418   4.326   4.773   3.366  2.0099  1.6711 -1.7369
  670MOL0     H92419   4.504   4.852   3.470 -0.1873 -0.5376  0.0155
  670MOL0     H92420   4.664   4.830   3.386 -0.3024  3.2031  2.3919
  670MOL0     H92421   4.620   4.730   3.525  3.0514  1.0595 -0.0729
  670MOL0     H92422   4.843   4.311   3.348 -1.6947 -0.7317 -2.9368
  670MOL0     H92423   5.072   4.169   3.356  3.7138 -0.9460 -1.1739
  670MOL0     H92424   5.470   4.169   3.211 -1.0018 -0.3518 -0.3860
  670MOL0     H92425   5.395   4.230   3.072  0.4427 -3.5982  0.6898
  670MOL0     H92426   5.404   4.462   3.151 -2.3749  0.7193  3.1548
  670MOL0     H92427   5.441   4.415   3.314  0.0064 -1.9544  0.3561
  670MOL0     H92428   5.659   4.351   3.269 -0.9509 -0.1488  0.3144
  670MOL0     H92429   5.630   4.510   3.219  0.0671 -1.4344  2.2622
  670MOL0     H92430   5.605   4.424   2.979  0.1859  0.0010  0.2305
  670MOL0     H92431   5.628   4.257   3.029  2.3921 -0.2436 -0.7661
  670MOL0     H92432   5.823   4.480   3.107  1.3310 -0.2618 -1.7011
  670MOL0     H92433   5.857   4.307   3.104 -2.1022 -1.0937  0.7706
  670MOL0     H92434   5.779   4.470   2.858 -1.6067 -0.1001  1.2489
  670MOL0     H92435   5.852   4.315   2.866 -0.4377  0.8077 -1.4714
  670MOL0     H92436   5.961   4.588   2.941 -0.4722 -0.9457  2.0442
  670MOL0     H92437   6.026   4.484   2.813 -4.3454  0.4019 -1.8587
  670MOL0     H92438   6.136   4.347   2.995  0.9722  0.2214  0.3430
  670MOL0     H92439   6.075   4.454   3.121  3.2519  0.0204  1.1163
  670MOL0     H92440   5.225   4.421   3.063 -1.3818  2.2880 -0.3550
  670MOL0     H92441   5.004   4.549   3.048  1.0869 -0.4786  0.3820
  670MOL0     H92442   4.560   4.434   3.095 -3.5922 -0.3579 -1.3032
  670MOL0     H92443   4.321   4.455   3.073 -3.5306 -0.8461  2.4355
  670MOL0     H92444   2.515   4.495   4.074 -2.5978  1.6866 -0.2389
  670MOL0     H92445   2.400   4.322   3.937  0.2726 -1.2283 -2.4173
  670MOL0     H92446   1.959   4.315   3.705  3.3806  2.7098 -1.0323
  670MOL0     H92447   1.822   4.121   3.647 -0.0926 -0.4389 -0.7824
  670MOL0     H92448   1.809   3.930   3.319 -0.6282 -1.0768 -0.1645
  670MOL0     H92449   1.978   3.894   3.298 -0.5285  0.4821  0.8135
  670MOL0     H92450   1.923   3.671   3.425 -0.6021  1.3432  1.6652
  670MOL0     H92451   1.887   3.697   3.248 -4.7342  2.9559 -2.0646
  670MOL0     H92452   1.690   3.710   3.481 -2.8450  0.8244 -0.4929
  670MOL0     H92453   1.644   3.771   3.323  0.6760 -0.5770 -2.5177
  670MOL0     H92454   1.706   3.539   3.213 -3.0113  0.6517 -1.6448
  670MOL0     H92455   1.552   3.554   3.313  0.7863  0.9465 -0.1948
  670MOL0     H92456   1.857   3.336   3.535 -0.9213 -1.2284 -0.5788
  670MOL0     H92457   2.142   3.938   3.443 -1.0260 -0.9917 -1.7028
  670MOL0     H92458   2.409   4.118   3.563 -0.4621 -0.6204  1.2926
  670MOL0     H92459   2.346   4.056   3.409  0.5749  0.9312 -0.8213
  670MOL0     H92460   2.355   4.232   3.443  0.6066 -1.3909 -2.7644
  671MOL0     O92461   4.500   5.833   5.426 -0.1248  0.3235  0.2401
  671MOL0     C92462   4.394   5.865   5.377 -0.6281  0.1951 -0.0497
  671MOL0     O92463   4.348   5.994   5.352 -0.1176 -0.4617 -0.7152
  671MOL0     C92464   4.435   6.097   5.320  0.2687  1.2897  0.0423
  671MOL0     C92465   4.564   6.064   5.283  0.2194  0.1643  0.6394
  671MOL0     C92466   4.652   6.165   5.241  0.5826 -0.0175 -0.7449
  671MOL0     C92467   4.606   6.296   5.237 -0.5787 -0.1719  0.8814
  671MOL0     O92468   4.690   6.403   5.199  0.4148  0.2820  0.5703
  671MOL0     C92469   4.819   6.372   5.151  0.3026 -0.1813 -0.5541
  671MOL0     C92470   4.881   6.506   5.091 -0.0001  0.6437  0.6280
  671MOL0     C92471   5.026   6.481   5.057 -0.4968  0.1913 -0.3754
  671MOL0     C92472   5.086   6.590   4.979  0.5174 -0.7655 -0.7130
  671MOL0     C92473   5.223   6.553   4.918  0.0141 -0.4502 -0.3515
  671MOL0     C92474   5.274   6.665   4.830 -0.4724 -0.1259  0.4661
  671MOL0     C92475   5.334   6.791   4.904 -0.2613  0.4564  0.1662
  671MOL0     C92476   5.463   6.759   4.991 -0.2186  1.2014  0.2173
  671MOL0     N92477   5.575   6.785   4.904  0.1455 -0.1298 -0.4495
  671MOL0     C92478   5.639   6.908   4.907 -0.9378  0.4947 -0.5477
  671MOL0     C92479   5.755   6.871   4.839 -0.6146  0.3507  0.2377
  671MOL0     C92480   5.871   6.956   4.787  0.9260  0.2720  0.9101
  671MOL0     C92481   6.000   6.948   4.884  1.1613  0.0423 -0.3130
  671MOL0     C92482   5.977   7.013   5.019  0.1359  0.3648  0.6176
  671MOL0     C92483   6.108   7.028   5.085 -0.2597  0.2259 -0.3008
  671MOL0     O92484   6.176   6.903   5.106 -0.2749  0.9364  0.1834
  671MOL0     C92485   6.298   6.916   5.156  0.0029 -0.0929 -0.6694
  671MOL0     C92486   6.361   7.034   5.200 -0.3883  0.1171 -0.4456
  671MOL0     C92487   6.482   7.031   5.275  0.6408  0.4016  0.2846
  671MOL0     C92488   6.533   7.162   5.314  0.6608 -0.4341 -0.6442
  671MOL0     C92489   6.550   6.907   5.293 -0.7073  0.7569 -0.2411
  671MOL0     C92490   6.688   6.885   5.353  0.5454 -0.6605  0.3738
  671MOL0     O92491   6.741   6.758   5.354  0.3465  0.1085 -0.0497
  671MOL0     C92492   6.868   6.752   5.399  0.6366  0.3042  1.0383
  671MOL0     C92493   6.885   6.742   5.534  0.6893  0.2633 -0.1341
  671MOL0     C92494   7.016   6.737   5.588  0.4464  1.0209 -0.4005
  671MOL0     C92495   7.126   6.754   5.500 -0.3850 -0.7356 -0.0979
  671MOL0     O92496   7.254   6.751   5.547  0.0516  0.0739  0.0905
  671MOL0     C92497   7.269   6.749   5.693 -1.0862  0.1869  0.1767
  671MOL0     C92498   7.425   6.729   5.722 -0.1685  0.3411  1.0669
  671MOL0     C92499   7.467   6.592   5.688 -1.0640  0.5454  0.7468
  671MOL0     C92500   7.621   6.583   5.708 -0.2932 -0.1828  0.2037
  671MOL0     C92501   7.683   6.444   5.708 -0.9068 -0.0431  0.0490
  671MOL0     C92502   7.721   6.402   5.563 -0.4988 -0.3874  0.1570
  671MOL0     C92503   7.816   6.285   5.577 -0.6325  0.5190 -1.1290
  671MOL0     C92504   7.960   6.334   5.594  0.0804  0.3867 -0.6374
  671MOL0    Cl92505   8.023   6.332   5.432  0.1066  0.2125  0.0358
  671MOL0     C92506   7.105   6.781   5.372  0.1301 -0.4538  0.2292
  671MOL0     C92507   6.980   6.766   5.312 -0.1637 -0.0205  0.0088
  671MOL0     O92508   6.749   6.984   5.388 -0.8400 -0.3664  0.7239
  671MOL0     C92509   6.484   6.789   5.250 -0.6956 -0.2088  0.1169
  671MOL0     C92510   6.359   6.797   5.184 -0.1981 -0.4375 -0.3133
  671MOL0     N92511   5.751   6.734   4.799  0.1982  0.0087 -0.8378
  671MOL0     N92512   5.648   6.687   4.845 -0.0962  0.3703 -0.2762
  671MOL0     C92513   4.480   6.336   5.279 -0.3118 -0.5842 -0.0203
  671MOL0     C92514   4.398   6.230   5.319  0.1298 -0.5453  0.4689
  671MOL0     C92515   4.302   5.760   5.335  0.0658  0.0133  0.0030
  671MOL0     C92516   4.164   5.792   5.329  0.3957  0.4928 -0.0472
  671MOL0     C92517   4.070   5.695   5.285  0.3873 -1.0133 -0.2900
  671MOL0     C92518   4.107   5.564   5.252 -0.0283  1.1431 -0.0783
  671MOL0     O92519   4.029   5.458   5.204  0.0726  0.1243  0.1779
  671MOL0     C92520   3.888   5.464   5.238 -0.2693  0.0613  0.8207
  671MOL0     C92521   3.830   5.327   5.204 -0.4578 -0.2072  0.2943
  671MOL0     C92522   3.687   5.292   5.236 -0.2271  0.1279 -0.0580
  671MOL0     C92523   3.667   5.140   5.260 -0.2140  0.2948 -0.0272
  671MOL0     C92524   3.526   5.113   5.277 -0.6741  0.3481  0.7632
  671MOL0     C92525   3.416   5.077   5.267  0.1723  0.8485  0.1419
  671MOL0     C92526   4.247   5.537   5.251  0.2958 -0.1202 -0.8907
  671MOL0     C92527   4.340   5.630   5.290  0.3106 -0.5198 -0.3751
  671MOL0     C92528   4.483   5.582   5.285  0.5381  0.6795  0.4148
  671MOL0     H92529   4.610   5.967   5.265 -0.2113  0.3627 -1.9973
  671MOL0     H92530   4.753   6.142   5.207  1.4669  1.8287  0.5293
  671MOL0     H92531   4.800   6.303   5.069 -1.6162  0.3257 -0.5815
  671MOL0     H92532   4.879   6.328   5.231 -0.6825 -1.5534 -0.5335
  671MOL0     H92533   4.827   6.550   5.007 -0.2601 -1.6521 -0.5150
  671MOL0     H92534   4.869   6.575   5.174  3.1166  0.1943  1.5675
  671MOL0     H92535   5.089   6.468   5.146  1.4048  1.9436 -1.3843
  671MOL0     H92536   5.051   6.394   4.995  4.1994  3.4426 -3.8021
  671MOL0     H92537   5.015   6.628   4.905  0.2553 -2.6001 -1.4437
  671MOL0     H92538   5.107   6.674   5.047  2.6715 -0.5389 -1.5583
  671MOL0     H92539   5.197   6.470   4.851 -1.3842  0.9634 -1.6700
  671MOL0     H92540   5.286   6.507   4.995 -0.0207  0.8803  0.4890
  671MOL0     H92541   5.347   6.626   4.759  0.7541 -0.1106  1.6810
  671MOL0     H92542   5.190   6.705   4.773 -0.6964  0.2024  1.0257
  671MOL0     H92543   5.265   6.835   4.977  2.6394 -0.7102  3.9217
  671MOL0     H92544   5.352   6.872   4.833  0.0124  1.4364  1.3329
  671MOL0     H92545   5.471   6.821   5.082 -0.7601 -2.0315  2.6408
  671MOL0     H92546   5.465   6.654   5.021  1.0644  1.1309 -0.0925
  671MOL0     H92547   5.608   7.006   4.941  1.0108  1.4256 -1.2731
  671MOL0     H92548   5.846   7.061   4.773  3.2607  0.6509 -1.1521
  671MOL0     H92549   5.908   6.915   4.692  1.3021  0.1360  1.1135
  671MOL0     H92550   6.037   6.846   4.890  1.9900  0.3994  0.9115
  671MOL0     H92551   6.080   7.004   4.833  0.0352  1.3738 -0.6729
  671MOL0     H92552   5.927   7.110   5.014 -0.5747  0.0480  1.3300
  671MOL0     H92553   5.908   6.945   5.070  0.3123 -1.3918 -1.3513
  671MOL0     H92554   6.168   7.098   5.027  1.3163  1.5525  2.6768
  671MOL0     H92555   6.093   7.062   5.188  1.7686 -1.6176  0.7037
  671MOL0     H92556   6.319   7.133   5.182 -2.4618 -0.8855 -1.4873
  671MOL0     H92557   6.614   7.144   5.385 -0.3493 -1.2127  0.3514
  671MOL0     H92558   6.463   7.223   5.372  1.2201 -0.0887 -0.3245
  671MOL0     H92559   6.571   7.223   5.232 -1.7873  0.5554 -1.1499
  671MOL0     H92560   6.804   6.725   5.605  1.4020  1.5756  1.0572
  671MOL0     H92561   7.027   6.723   5.695 -1.3794 -0.1255 -0.3236
  671MOL0     H92562   7.251   6.847   5.738  4.9893  0.4386  3.1327
  671MOL0     H92563   7.209   6.673   5.743 -2.4836  1.0436 -0.1565
  671MOL0     H92564   7.484   6.808   5.674  1.2584  0.4319  2.8424
  671MOL0     H92565   7.445   6.731   5.830  3.7359 -3.8249  0.7346
  671MOL0     H92566   7.438   6.569   5.585 -0.9128  2.5202  0.2348
  671MOL0     H92567   7.413   6.521   5.752 -0.7020  1.5176  2.1761
  671MOL0     H92568   7.645   6.629   5.804 -0.9610  2.0251 -0.6299
  671MOL0     H92569   7.664   6.648   5.631 -1.6647 -0.9134 -1.2531
  671MOL0     H92570   7.775   6.451   5.767 -2.3176 -3.2422  2.9483
  671MOL0     H92571   7.612   6.367   5.740  0.1591 -1.0009  0.2097
  671MOL0     H92572   7.772   6.486   5.515 -1.1657  0.7897  1.4324
  671MOL0     H92573   7.633   6.375   5.504 -0.4567  1.8808 -1.0330
  671MOL0     H92574   7.815   6.218   5.491  3.8336  1.3439 -2.0785
  671MOL0     H92575   7.792   6.232   5.669  0.9493  0.3178 -0.7952
  671MOL0     H92576   8.026   6.263   5.645 -0.7777  0.1663  0.1937
  671MOL0     H92577   7.976   6.427   5.648 -0.6176 -1.0515  2.2215
  671MOL0     H92578   7.201   6.794   5.322 -0.0053  0.6200  0.2349
  671MOL0     H92579   6.950   6.770   5.208 -1.0892  0.1383  0.2754
  671MOL0     H92580   6.524   6.688   5.255 -1.6985 -0.5844  0.6221
  671MOL0     H92581   6.309   6.708   5.150  0.8917 -1.5474  0.8906
  671MOL0     H92582   4.450   6.439   5.294  0.7782 -0.3452  0.5803
  671MOL0     H92583   4.297   6.242   5.355  0.3741  0.6877  0.7920
  671MOL0     H92584   4.118   5.885   5.360 -1.1285 -0.8634  2.1346
  671MOL0     H92585   3.964   5.718   5.285  0.9773  2.2647  0.8110
  671MOL0     H92586   3.881   5.487   5.345 -1.7107  2.0218  0.3532
  671MOL0     H92587   3.829   5.537   5.183 -1.3468 -2.5184 -1.7227
  671MOL0     H92588   3.889   5.252   5.258  2.0941  0.9865 -0.6893
  671MOL0     H92589   3.845   5.306   5.098 -1.0549  2.5842 -0.4140
  671MOL0     H92590   3.665   5.350   5.326  0.8144  2.9597 -1.4993
  671MOL0     H92591   3.616   5.330   5.163 -0.5799  0.8960  0.6715
  671MOL0     H92592   3.718   5.104   5.349  0.1115 -2.9339 -1.3807
  671MOL0     H92593   3.706   5.094   5.168 -0.9665  2.1733 -1.3550
  671MOL0     H92594   3.319   5.035   5.249  0.2699  1.2643 -1.5372
  671MOL0     H92595   4.285   5.438   5.227 -0.0258 -0.8134  1.2692
  671MOL0     H92596   4.552   5.659   5.250  1.7429 -0.6213 -0.1560
  671MOL0     H92597   4.513   5.560   5.388  1.2250  0.5239  0.1889
  671MOL0     H92598   4.502   5.498   5.217  1.7762  2.6491 -1.8199
  672MOL0     O92599   1.548   0.852   3.031  1.2427 -0.0044 -0.0589
  672MOL0     C92600   1.566   0.785   2.929  0.8574 -0.4715 -0.5653
  672MOL0     O92601   1.680   0.728   2.888  0.1207 -0.1781 -0.5311
  672MOL0     C92602   1.793   0.750   2.964 -0.2429  0.0985  0.4071
  672MOL0     C92603   1.868   0.864   2.957 -0.4205  0.9983 -0.4907
  672MOL0     C92604   1.991   0.869   3.025 -0.0087 -0.0434  0.8400
  672MOL0     C92605   2.028   0.770   3.112  0.3546  0.5965 -0.4256
  672MOL0     O92606   2.156   0.783   3.172 -0.7703 -0.0693 -1.1874
  672MOL0     C92607   2.185   0.704   3.294 -0.7393 -0.3043  0.1733
  672MOL0     C92608   2.298   0.771   3.376  0.9355 -0.8456  0.5619
  672MOL0     C92609   2.431   0.774   3.295 -0.4325 -0.2098 -0.9406
  672MOL0     C92610   2.543   0.822   3.388  0.1498  0.5528  0.2847
  672MOL0     C92611   2.673   0.802   3.319 -0.6023  0.5099  0.0409
  672MOL0     C92612   2.704   0.924   3.235 -0.4529  0.5718  0.8648
  672MOL0     C92613   2.833   0.901   3.162 -1.2381  0.1165 -0.5254
  672MOL0     C92614   2.880   1.030   3.095  0.2214 -0.4484  0.4433
  672MOL0     N92615   2.955   1.109   3.179 -0.5836 -0.2006 -1.0489
  672MOL0     C92616   3.091   1.103   3.176  0.4593  0.6876 -0.4529
  672MOL0     C92617   3.118   1.174   3.285  0.2075  0.3972 -0.6328
  672MOL0     C92618   3.252   1.204   3.340  0.0640  0.2493  0.6087
  672MOL0     C92619   3.334   1.086   3.385 -0.5669  0.5145 -0.3291
  672MOL0     C92620   3.463   1.139   3.452 -0.5825  0.5324 -0.2559
  672MOL0     C92621   3.561   1.022   3.478 -0.6612  0.7768  0.6852
  672MOL0     O92622   3.646   1.042   3.592 -0.0666 -0.4179  0.0388
  672MOL0     C92623   3.778   1.092   3.566 -0.5198 -0.0249 -0.2404
  672MOL0     C92624   3.868   1.093   3.679  0.6550  0.5139  0.6101
  672MOL0     C92625   4.005   1.116   3.660  0.2832 -0.4022  0.6512
  672MOL0     C92626   4.086   1.121   3.780  0.3801  0.6802 -0.2224
  672MOL0     C92627   4.056   1.148   3.534 -0.8532  0.1609 -0.0985
  672MOL0     C92628   4.199   1.177   3.503 -0.0962  1.1780 -0.1824
  672MOL0     O92629   4.297   1.153   3.598  0.4925 -0.3141 -0.1689
  672MOL0     C92630   4.417   1.221   3.571 -0.3208  0.3766  0.5135
  672MOL0     C92631   4.537   1.143   3.574  0.5438 -0.2119  0.4154
  672MOL0     C92632   4.656   1.213   3.575 -0.7349  0.0411  0.1585
  672MOL0     C92633   4.668   1.357   3.584  0.5956  0.5655  0.0645
  672MOL0     O92634   4.789   1.427   3.594  0.0450  0.0803  0.3667
  672MOL0     C92635   4.917   1.364   3.610 -0.7997  0.7950 -0.1240
  672MOL0     C92636   5.029   1.466   3.573 -0.0431  0.1034  0.1972
  672MOL0     C92637   5.167   1.398   3.538  0.7836 -0.1804 -0.3952
  672MOL0     C92638   5.288   1.499   3.525  1.2358  0.9106  0.1053
  672MOL0     C92639   5.376   1.430   3.414 -0.5091 -0.0642 -0.3454
  672MOL0     C92640   5.463   1.323   3.482 -0.4169 -0.0857  0.5962
  672MOL0     C92641   5.560   1.271   3.371 -1.2064 -0.4882 -0.2429
  672MOL0     C92642   5.649   1.173   3.428 -0.3356  0.1305  0.4074
  672MOL0    Cl92643   5.768   1.220   3.545  0.2179 -0.1114 -0.4655
  672MOL0     C92644   4.542   1.422   3.582 -0.1419  0.2757  1.0741
  672MOL0     C92645   4.418   1.360   3.568  0.5324  1.0813  0.3478
  672MOL0     O92646   4.224   1.209   3.392 -0.2744 -0.1022  0.6558
  672MOL0     C92647   3.964   1.148   3.425  1.0193  0.0172 -0.2490
  672MOL0     C92648   3.828   1.137   3.444  0.1696 -0.1279 -0.0271
  672MOL0     N92649   3.001   1.227   3.352  0.2892  0.9971  0.1509
  672MOL0     N92650   2.905   1.188   3.277  0.3436 -0.0427 -0.3300
  672MOL0     C92651   1.947   0.657   3.127  0.4666 -0.1050  0.0222
  672MOL0     C92652   1.828   0.641   3.051 -0.2278 -0.1796 -0.2002
  672MOL0     C92653   1.453   0.775   2.825 -0.8832 -0.3400 -0.4914
  672MOL0     C92654   1.486   0.759   2.689  0.4810  0.0765 -0.4812
  672MOL0     C92655   1.392   0.741   2.588 -1.0734  0.3215 -0.2952
  672MOL0     C92656   1.255   0.755   2.614 -0.8729  0.2923 -0.4833
  672MOL0     O92657   1.164   0.720   2.512  0.0736  0.0768 -0.4341
  672MOL0     C92658   1.128   0.823   2.423 -0.1052  1.2449 -0.1892
  672MOL0     C92659   1.006   0.785   2.350  0.7205  0.5984  0.4522
  672MOL0     C92660   0.892   0.886   2.370  0.7005  0.8372  0.4077
  672MOL0     C92661   0.826   0.932   2.244 -0.3581 -0.1127 -0.8825
  672MOL0     C92662   0.923   0.989   2.149 -0.6717  0.8810 -0.4615
  672MOL0     C92663   0.995   1.035   2.067 -0.4271 -0.1292  0.1101
  672MOL0     C92664   1.216   0.768   2.749 -0.7193 -0.3016 -0.6399
  672MOL0     C92665   1.314   0.787   2.848 -0.6198  0.7323  0.0995
  672MOL0     C92666   1.260   0.798   2.990  0.3126 -0.4078 -0.2925
  672MOL0     H92667   1.831   0.948   2.899 -0.3740  0.4121 -1.3836
  672MOL0     H92668   2.049   0.958   3.002  0.6100  0.0218  2.4940
  672MOL0     H92669   2.214   0.602   3.269 -0.9909 -0.1367 -0.8114
  672MOL0     H92670   2.097   0.708   3.359 -0.8636  0.6005 -0.0331
  672MOL0     H92671   2.269   0.873   3.405 -3.4463 -2.0134  0.9973
  672MOL0     H92672   2.317   0.713   3.467 -0.5173 -0.7990  0.9125
  672MOL0     H92673   2.466   0.672   3.275  0.9309 -0.3086  1.4524
  672MOL0     H92674   2.422   0.833   3.204  0.5619  0.7488 -0.4393
  672MOL0     H92675   2.523   0.923   3.425 -2.1441  0.5169 -0.7232
  672MOL0     H92676   2.541   0.762   3.480  0.5193  0.2189  0.0792
  672MOL0     H92677   2.665   0.716   3.252 -1.3116  0.4349  0.2180
  672MOL0     H92678   2.753   0.786   3.392 -0.0638  1.1871 -0.3833
  672MOL0     H92679   2.626   0.943   3.160 -0.8220  0.3302  1.1808
  672MOL0     H92680   2.720   1.011   3.299  3.8672  1.7318 -1.4242
  672MOL0     H92681   2.824   0.821   3.089  0.8544 -1.2176  0.5922
  672MOL0     H92682   2.911   0.870   3.233 -1.1616  0.6943 -0.3474
  672MOL0     H92683   2.942   1.008   3.007  3.2080  2.1738  1.6594
  672MOL0     H92684   2.797   1.090   3.057  2.4337  1.6849 -1.4172
  672MOL0     H92685   3.147   1.062   3.092 -1.3407  2.2176 -2.5007
  672MOL0     H92686   3.241   1.264   3.431  4.0714  0.2840  1.2290
  672MOL0     H92687   3.311   1.265   3.272  1.4152  0.1850  1.6811
  672MOL0     H92688   3.279   1.028   3.460  0.7590 -0.7327 -0.2688
  672MOL0     H92689   3.355   1.020   3.300  0.3635 -1.1211  1.1195
  672MOL0     H92690   3.506   1.217   3.389 -0.7042  1.2021  0.4759
  672MOL0     H92691   3.442   1.179   3.552 -1.6979 -3.0282  1.0969
  672MOL0     H92692   3.495   0.939   3.506 -1.4181  1.5187  1.1470
  672MOL0     H92693   3.614   0.987   3.389 -3.1418  0.2331 -0.6476
  672MOL0     H92694   3.832   1.074   3.779 -2.2967  0.5611 -0.3691
  672MOL0     H92695   4.026   1.130   3.871  0.7275  0.7144  0.0022
  672MOL0     H92696   4.155   1.205   3.783  0.5986  0.5274  3.4093
  672MOL0     H92697   4.139   1.026   3.792 -1.9138 -0.7045 -0.3704
  672MOL0     H92698   4.533   1.035   3.573 -0.0859 -0.2373  2.1013
  672MOL0     H92699   4.749   1.157   3.573  2.0621  4.1852 -2.9107
  672MOL0     H92700   4.925   1.331   3.714 -1.9542 -1.5966 -0.7201
  672MOL0     H92701   4.933   1.272   3.553  0.0983  0.4749  0.6208
  672MOL0     H92702   4.987   1.516   3.485  1.7113 -1.5080 -1.6698
  672MOL0     H92703   5.048   1.546   3.645  2.7702  1.3239 -1.7086
  672MOL0     H92704   5.150   1.335   3.450 -1.1429 -1.9115  1.1128
  672MOL0     H92705   5.196   1.329   3.618  1.7145  2.0517  1.2871
  672MOL0     H92706   5.339   1.503   3.622  1.0058 -0.1009  0.2812
  672MOL0     H92707   5.268   1.599   3.488 -0.1556  0.7536  0.3702
  672MOL0     H92708   5.315   1.381   3.338  1.4511 -1.6594 -0.9850
  672MOL0     H92709   5.440   1.503   3.365 -0.6302  0.3601  0.1154
  672MOL0     H92710   5.397   1.251   3.531  0.4119  0.6676  2.9915
  672MOL0     H92711   5.512   1.373   3.567  1.7837 -1.4989  0.2465
  672MOL0     H92712   5.624   1.352   3.335  2.1007 -1.9624  1.7921
  672MOL0     H92713   5.516   1.229   3.280  0.8457  2.1877 -2.6457
  672MOL0     H92714   5.708   1.141   3.342  0.7683  2.2978  0.2882
  672MOL0     H92715   5.593   1.089   3.470 -1.0959 -0.1175 -1.0526
  672MOL0     H92716   4.547   1.528   3.559 -0.0188 -0.1885 -1.4150
  672MOL0     H92717   4.331   1.424   3.557  1.0802  1.4981 -1.9555
  672MOL0     H92718   3.998   1.159   3.323  2.7942  0.1999  0.3334
  672MOL0     H92719   3.762   1.145   3.358  2.2499 -2.7513 -2.0309
  672MOL0     H92720   1.987   0.589   3.201  1.2795  0.3156 -0.0198
  672MOL0     H92721   1.757   0.559   3.057 -1.5818  0.7978 -1.7969
  672MOL0     H92722   1.588   0.751   2.654  0.5540  1.9317 -0.7799
  672MOL0     H92723   1.410   0.709   2.486 -0.5418 -0.8582  0.1570
  672MOL0     H92724   1.101   0.910   2.484 -4.4576 -0.3244  0.4494
  672MOL0     H92725   1.211   0.835   2.353  1.7959 -3.1087  1.0217
  672MOL0     H92726   0.963   0.688   2.378 -1.2306  1.9950  2.6738
  672MOL0     H92727   1.021   0.769   2.242 -2.3068 -3.5455  0.3929
  672MOL0     H92728   0.820   0.843   2.441  0.7925  3.0662  1.9236
  672MOL0     H92729   0.925   0.969   2.432 -0.6909  0.0787  2.2711
  672MOL0     H92730   0.736   0.993   2.258  1.3283  1.8358  3.1121
  672MOL0     H92731   0.779   0.845   2.198 -0.9859  0.3927 -1.2001
  672MOL0     H92732   1.039   1.083   1.981 -1.6957 -2.6290 -2.0753
  672MOL0     H92733   1.108   0.772   2.762 -0.7698 -0.7330 -0.9148
  672MOL0     H92734   1.296   0.889   3.037 -2.4043  0.6492 -0.1004
  672MOL0     H92735   1.151   0.797   2.987  0.3181 -0.1291 -0.6133
  672MOL0     H92736   1.282   0.703   3.040 -0.4446  0.6160  2.1162
  673MOL0     O92737   2.225  10.497   3.340 -0.1734 -0.1972 -0.3710
  673MOL0     C92738   2.140  10.515   3.427  0.7168 -0.2615 -0.1917
  673MOL0     O92739   2.144  10.611   3.526  0.5878 -0.2240  0.0980
  673MOL0     C92740   2.250  10.701   3.532  0.2523 -0.1766 -0.0290
  673MOL0     C92741   2.384  10.669   3.540  0.2741  0.0257  0.2738
  673MOL0     C92742   2.492  10.765   3.543 -0.1123 -0.0517 -0.3831
  673MOL0     C92743   2.451  10.895   3.526 -0.5884  1.0132  0.1320
  673MOL0     O92744   2.548  10.994   3.521 -0.0828  0.6322 -0.0167
  673MOL0     C92745   2.682  10.994   3.573  0.2423 -0.1501  0.3039
  673MOL0     C92746   2.732  11.138   3.546  1.0517  0.1574  0.4079
  673MOL0     C92747   2.850  11.171   3.634  0.5961 -1.0836 -0.2970
  673MOL0     C92748   2.983  11.171   3.558 -0.2231 -0.0448  0.4998
  673MOL0     C92749   3.108  11.202   3.636 -0.2011 -0.2867 -0.7440
  673MOL0     C92750   3.110  11.354   3.682  1.0433  0.3633 -0.1471
  673MOL0     C92751   3.235  11.401   3.755  1.0522  0.6433  0.2391
  673MOL0     C92752   3.239  11.550   3.740  0.0848 -0.4335 -0.1217
  673MOL0     N92753   3.342  11.592   3.637  0.1015  0.2007 -0.2615
  673MOL0     C92754   3.349  11.571   3.501  0.9769  0.4086 -0.0741
  673MOL0     C92755   3.466  11.622   3.461 -0.2737 -0.0011  0.0361
  673MOL0     C92756   3.518  11.649   3.317 -0.3992 -0.1123 -0.2035
  673MOL0     C92757   3.551  11.793   3.293 -0.9147  0.3406  0.1147
  673MOL0     C92758   3.629  11.829   3.171  0.0758  0.0665  0.0050
  673MOL0     C92759   3.760  11.766   3.166  0.3888  0.0925  0.1991
  673MOL0     O92760   3.828  11.835   3.075 -0.0792 -0.1426  0.5408
  673MOL0     C92761   3.964  11.795   3.066  0.8785  0.0173  0.0312
  673MOL0     C92762   4.053  11.891   3.025 -0.1029 -0.7801 -0.9213
  673MOL0     C92763   4.191  11.875   3.009 -0.1435 -0.4781  0.9708
  673MOL0     C92764   4.263  12.000   2.976 -0.9294  0.3796  0.2520
  673MOL0     C92765   4.244  11.746   3.029  0.0785  0.2410 -0.3791
  673MOL0     C92766   4.382  11.707   3.004 -1.2334 -0.2822 -0.2988
  673MOL0     O92767   4.430  11.595   3.072  0.0473  0.1961 -0.3816
  673MOL0     C92768   4.557  11.570   3.054  0.9357  0.5428  0.5152
  673MOL0     C92769   4.659  11.626   3.128 -0.0300 -0.0837  0.2333
  673MOL0     C92770   4.777  11.560   3.148 -1.0062  0.0647 -0.5881
  673MOL0     C92771   4.802  11.439   3.075  0.0547 -0.1688 -0.0474
  673MOL0     O92772   4.914  11.363   3.096 -0.4170  0.2290 -0.1936
  673MOL0     C92773   5.044  11.431   3.124  0.4954 -0.3660  0.0045
  673MOL0     C92774   5.145  11.317   3.130 -0.1190  0.0206 -0.0963
  673MOL0     C92775   5.133  11.224   3.256 -0.5686  0.0041  0.0389
  673MOL0     C92776   5.263  11.148   3.285 -0.4686 -0.1910 -0.4409
  673MOL0     C92777   5.254  11.037   3.395 -0.0727 -0.7382  0.6126
  673MOL0     C92778   5.392  11.021   3.459 -0.9571  0.6273 -0.5105
  673MOL0     C92779   5.410  10.910   3.569  0.9923  0.4800  0.2999
  673MOL0     C92780   5.336  10.956   3.693  0.0625 -0.4782  0.1685
  673MOL0    Cl92781   5.414  11.108   3.771  0.1623  0.2643  0.1574
  673MOL0     C92782   4.710  11.405   2.975  0.4621 -1.1826  0.2110
  673MOL0     C92783   4.586  11.471   2.964 -1.1976  0.2281  0.2601
  673MOL0     O92784   4.435  11.764   2.905  0.2979  0.4627 -0.1028
  673MOL0     C92785   4.158  11.638   3.058 -0.1213  0.7026  0.0343
  673MOL0     C92786   4.023  11.664   3.084 -0.0781 -0.1912  0.1908
  673MOL0     N92787   3.534  11.652   3.572 -0.3181 -0.8474  0.2372
  673MOL0     N92788   3.462  11.630   3.681  0.3294 -0.0521  0.0511
  673MOL0     C92789   2.315  10.934   3.506 -0.3817 -0.5171  0.8394
  673MOL0     C92790   2.223  10.835   3.509 -0.9159 -0.5296  0.7302
  673MOL0     C92791   2.021  10.435   3.404  1.1238 -1.0369 -0.1130
  673MOL0     C92792   1.986  10.415   3.268 -0.0909  0.2820  0.9124
  673MOL0     C92793   1.870  10.353   3.229  0.7223  0.2973  0.6132
  673MOL0     C92794   1.780  10.305   3.327 -0.2085  0.1638  0.9043
  673MOL0     O92795   1.657  10.239   3.293  0.1383  0.3492 -0.0930
  673MOL0     C92796   1.573  10.189   3.399 -0.9244  0.6276  0.1244
  673MOL0     C92797   1.487  10.080   3.338  1.0267 -0.9945 -0.0438
  673MOL0     C92798   1.382  10.129   3.236 -0.1276  0.3789 -0.2154
  673MOL0     C92799   1.269  10.030   3.216  0.2218 -0.4431 -0.5242
  673MOL0     C92800   1.174  10.063   3.109  0.4635  0.0507  0.0917
  673MOL0     C92801   1.094  10.092   3.020  0.9679 -0.4843 -0.6647
  673MOL0     C92802   1.826  10.311   3.461  1.0102  0.6933  0.6286
  673MOL0     C92803   1.938  10.377   3.499 -0.1258 -1.1329 -0.2507
  673MOL0     C92804   1.966  10.390   3.656 -1.0038  0.5601 -0.7038
  673MOL0     H92805   2.414  10.566   3.558 -2.4284 -1.2778 -1.9280
  673MOL0     H92806   2.598  10.743   3.547 -0.4479 -2.1393 -1.4695
  673MOL0     H92807   2.748  10.922   3.524 -1.2084 -0.0114 -1.9969
  673MOL0     H92808   2.678  10.965   3.678 -1.3293 -0.0129  0.2980
  673MOL0     H92809   2.769  11.135   3.443  0.4099 -4.2489  0.0966
  673MOL0     H92810   2.649  11.209   3.553  0.8289  0.0192 -0.5824
  673MOL0     H92811   2.832  11.271   3.676  0.7257 -0.9206 -0.6292
  673MOL0     H92812   2.877  11.106   3.718 -0.6513  0.7320  1.6103
  673MOL0     H92813   2.993  11.068   3.524 -1.1243  0.2767 -0.8401
  673MOL0     H92814   2.978  11.244   3.477 -0.2558 -0.7791 -0.1668
  673MOL0     H92815   3.198  11.194   3.574 -0.4192 -2.1587 -0.8558
  673MOL0     H92816   3.128  11.139   3.723  1.2337 -0.5714 -1.2548
  673MOL0     H92817   3.089  11.407   3.589 -0.2233 -2.6896 -1.7651
  673MOL0     H92818   3.019  11.366   3.742  0.5812 -1.1615 -0.4940
  673MOL0     H92819   3.322  11.356   3.707  0.7646 -0.4549  0.7253
  673MOL0     H92820   3.236  11.366   3.859 -1.3587  0.3611  0.2206
  673MOL0     H92821   3.151  11.605   3.705  2.4577  3.9571  0.0529
  673MOL0     H92822   3.266  11.596   3.835  0.5150  1.6334 -1.1790
  673MOL0     H92823   3.266  11.534   3.442  2.7459  2.9203 -4.6721
  673MOL0     H92824   3.454  11.608   3.238  1.0845 -0.1976 -1.4092
  673MOL0     H92825   3.610  11.593   3.296  1.2496  1.8800  1.3165
  673MOL0     H92826   3.452  11.838   3.285 -1.1656 -0.2177  0.1112
  673MOL0     H92827   3.605  11.836   3.379  3.6968 -2.3705 -1.0507
  673MOL0     H92828   3.571  11.802   3.083  1.1303  1.0468 -1.0386
  673MOL0     H92829   3.649  11.937   3.173 -0.5028  0.2522  4.1985
  673MOL0     H92830   3.805  11.775   3.266 -1.1681  0.1260  0.9271
  673MOL0     H92831   3.759  11.659   3.146  1.0966 -0.3392  2.2410
  673MOL0     H92832   4.018  11.992   3.006  1.6043  0.2388  0.9575
  673MOL0     H92833   4.209  12.095   2.984  0.7288  1.4025 -0.0769
  673MOL0     H92834   4.294  11.991   2.871 -2.3519 -1.2875 -0.0630
  673MOL0     H92835   4.349  11.995   3.044 -0.0909 -1.3478 -0.8623
  673MOL0     H92836   4.651  11.715   3.191 -1.8869 -1.3408  1.9120
  673MOL0     H92837   4.858  11.596   3.211  0.3087 -2.8861 -0.4504
  673MOL0     H92838   5.087  11.494   3.045 -1.3199  4.5863  2.5188
  673MOL0     H92839   5.052  11.487   3.217  1.1538 -1.1038  0.4029
  673MOL0     H92840   5.136  11.245   3.048  1.1956  1.1786 -1.3396
  673MOL0     H92841   5.247  11.357   3.123 -0.2403  0.2603 -0.5620
  673MOL0     H92842   5.048  11.159   3.236  0.4283 -0.6163 -2.6139
  673MOL0     H92843   5.118  11.290   3.342 -1.5076  0.2185 -0.2807
  673MOL0     H92844   5.333  11.226   3.316 -1.0117 -0.5154  1.7927
  673MOL0     H92845   5.292  11.102   3.190  0.9712 -2.6932  1.0843
  673MOL0     H92846   5.182  11.078   3.466 -2.4699 -1.6766 -1.1245
  673MOL0     H92847   5.218  10.950   3.340  1.8779  0.4644 -2.9125
  673MOL0     H92848   5.417  11.112   3.513  0.4138  0.9277 -1.6016
  673MOL0     H92849   5.461  10.984   3.383 -0.2684 -0.6549  0.6768
  673MOL0     H92850   5.518  10.907   3.584  1.4298  1.4658 -2.1647
  673MOL0     H92851   5.370  10.813   3.536  1.7536  1.0125 -2.4105
  673MOL0     H92852   5.340  10.873   3.764  0.0675 -2.0342 -1.5656
  673MOL0     H92853   5.230  10.976   3.673  0.5834  0.2225 -2.1592
  673MOL0     H92854   4.729  11.317   2.914 -1.1105 -1.9256  0.7128
  673MOL0     H92855   4.515  11.452   2.885 -0.0626  1.0700 -1.0085
  673MOL0     H92856   4.193  11.537   3.076  1.3420  0.9295 -1.3037
  673MOL0     H92857   3.963  11.579   3.115  1.7689 -2.9432 -3.1531
  673MOL0     H92858   2.290  11.039   3.495 -1.7944 -0.8579  0.4510
  673MOL0     H92859   2.121  10.862   3.483 -0.4498  1.7057  0.9872
  673MOL0     H92860   2.046  10.471   3.198 -1.8967 -1.0008 -1.8326
  673MOL0     H92861   1.838  10.344   3.125  2.0996 -0.9029  0.2601
  673MOL0     H92862   1.636  10.137   3.472  0.9362  0.6688 -1.3638
  673MOL0     H92863   1.499  10.254   3.446 -2.5494 -0.2128 -1.1518
  673MOL0     H92864   1.442  10.024   3.421  2.0064  1.4538  2.2552
  673MOL0     H92865   1.559  10.020   3.282 -0.4993 -0.2499 -3.0244
  673MOL0     H92866   1.333  10.218   3.277 -0.0126 -1.2817  3.8868
  673MOL0     H92867   1.432  10.144   3.140  1.8406 -1.2405  0.4880
  673MOL0     H92868   1.214  10.035   3.310  1.4293 -1.9033  0.2935
  673MOL0     H92869   1.298   9.925   3.215  0.7924 -0.2993  0.2437
  673MOL0     H92870   1.033  10.114   2.934 -0.5389 -0.8191  0.2830
  673MOL0     H92871   1.763  10.279   3.543 -0.3016 -2.0368 -1.2691
  673MOL0     H92872   2.048  10.328   3.692 -0.9893  1.0602  0.1503
  673MOL0     H92873   1.990  10.493   3.684  1.2605 -0.3891  1.1337
  673MOL0     H92874   1.878  10.359   3.714 -3.1057  1.6904 -3.0583
  674MOL0     O92875   5.868   1.436   1.438  0.0269 -0.2839  0.2167
  674MOL0     C92876   5.797   1.466   1.533  0.4218  0.1311  0.3943
  674MOL0     O92877   5.840   1.535   1.642  0.1913  0.5867 -0.0777
  674MOL0     C92878   5.972   1.545   1.656 -0.3475  0.0047 -0.0331
  674MOL0     C92879   6.071   1.449   1.686  0.1272 -0.1139 -0.1843
  674MOL0     C92880   6.208   1.492   1.688  0.4206 -0.1624  0.6008
  674MOL0     C92881   6.247   1.627   1.669 -0.2633  0.0165  0.7712
  674MOL0     O92882   6.382   1.660   1.657 -0.8945 -0.0836 -0.2393
  674MOL0     C92883   6.420   1.781   1.719  0.1492  0.3045 -0.1692
  674MOL0     C92884   6.567   1.778   1.759 -0.5182  0.6189 -0.3218
  674MOL0     C92885   6.626   1.917   1.779  0.4058  0.9862 -0.1949
  674MOL0     C92886   6.780   1.917   1.790 -0.3259 -0.6237 -0.0710
  674MOL0     C92887   6.841   2.047   1.848 -0.9420  0.4963 -0.2496
  674MOL0     C92888   6.994   2.033   1.859  0.1983  0.0572 -0.5549
  674MOL0     C92889   7.041   2.148   1.953  0.4110 -0.2445  1.2158
  674MOL0     C92890   7.042   2.278   1.876 -0.4398 -0.7564  0.5489
  674MOL0     N92891   7.117   2.300   1.750  0.5506  0.4950 -1.0644
  674MOL0     C92892   7.250   2.281   1.721 -0.1613 -0.2005  0.9761
  674MOL0     C92893   7.263   2.297   1.585 -0.0475  1.0129  0.0135
  674MOL0     C92894   7.390   2.266   1.506 -0.9975 -0.7654 -0.4909
  674MOL0     C92895   7.359   2.190   1.379  0.5344  0.5120 -0.5582
  674MOL0     C92896   7.476   2.170   1.284 -0.1698  0.4225  0.7204
  674MOL0     C92897   7.445   2.128   1.141  0.6635 -0.0448 -0.4855
  674MOL0     O92898   7.368   2.005   1.140  0.1238 -0.4099  0.2655
  674MOL0     C92899   7.255   1.995   1.068  0.0940  0.3904 -0.5370
  674MOL0     C92900   7.240   1.879   1.008  0.0522  1.0383  0.1869
  674MOL0     C92901   7.118   1.843   0.948  0.0901  0.3695  0.1298
  674MOL0     C92902   7.115   1.707   0.886  0.4216 -0.1746  0.8040
  674MOL0     C92903   7.011   1.946   0.944 -0.3349  0.2544  0.5579
  674MOL0     C92904   6.889   1.938   0.852  0.1757 -0.1592 -0.3051
  674MOL0     O92905   6.785   2.016   0.890 -0.0552  0.1862 -1.2198
  674MOL0     C92906   6.670   2.020   0.816  0.9633 -0.5369 -0.2252
  674MOL0     C92907   6.549   1.992   0.881  0.4919  0.1052  0.9744
  674MOL0     C92908   6.425   1.981   0.814 -0.2068 -0.2544 -0.1022
  674MOL0     C92909   6.426   2.013   0.674 -0.9139  1.0445 -0.1956
  674MOL0     O92910   6.315   2.010   0.590 -0.2042 -0.2447 -0.2653
  674MOL0     C92911   6.187   2.028   0.656  1.1713 -0.3320  0.5546
  674MOL0     C92912   6.071   2.029   0.563 -0.3871  0.0903  0.1492
  674MOL0     C92913   6.065   2.170   0.497  0.0544 -0.6388 -0.4702
  674MOL0     C92914   5.947   2.187   0.406 -0.2365  0.3287  0.3982
  674MOL0     C92915   5.921   2.327   0.358 -0.1602  0.1669 -0.3085
  674MOL0     C92916   6.046   2.372   0.282 -0.5402 -0.8773  0.5382
  674MOL0     C92917   6.028   2.504   0.198 -0.0029 -0.2682  0.6079
  674MOL0     C92918   6.158   2.589   0.198 -0.5473 -0.6817 -0.1381
  674MOL0    Cl92919   6.285   2.527   0.091 -0.3249 -0.2648  0.0233
  674MOL0     C92920   6.545   2.053   0.614 -0.3154 -0.5884 -0.1850
  674MOL0     C92921   6.670   2.054   0.684  0.2678  0.3181 -0.1690
  674MOL0     O92922   6.888   1.852   0.762  0.3142 -0.3961  0.3086
  674MOL0     C92923   7.042   2.072   1.000 -0.2218  0.5854  0.1419
  674MOL0     C92924   7.161   2.093   1.068  0.2339 -0.1388 -0.1546
  674MOL0     N92925   7.135   2.323   1.540 -0.5163 -0.1455  0.3062
  674MOL0     N92926   7.049   2.329   1.633  0.1353  0.0700 -0.2972
  674MOL0     C92927   6.149   1.718   1.648  0.3306 -0.1115  1.0200
  674MOL0     C92928   6.011   1.676   1.647 -0.6491 -0.0704 -0.0926
  674MOL0     C92929   5.660   1.402   1.542 -0.9776 -0.3841 -0.6726
  674MOL0     C92930   5.588   1.423   1.665 -0.1673  0.3514  0.3025
  674MOL0     C92931   5.453   1.379   1.677  0.4511 -0.9212 -0.4344
  674MOL0     C92932   5.392   1.307   1.575 -0.3982  0.7510  0.2018
  674MOL0     O92933   5.270   1.256   1.588  0.2346 -0.3185  0.3921
  674MOL0     C92934   5.200   1.265   1.707 -0.2350  0.3543 -0.2371
  674MOL0     C92935   5.077   1.173   1.697  0.1731 -0.3913  0.1437
  674MOL0     C92936   4.965   1.219   1.600 -0.0979  0.5813 -0.4351
  674MOL0     C92937   4.869   1.311   1.669  0.5934  0.2830 -0.1838
  674MOL0     C92938   4.793   1.357   1.548  0.7979 -0.3352 -0.1039
  674MOL0     C92939   4.737   1.408   1.451 -0.1804  0.2258 -1.3199
  674MOL0     C92940   5.468   1.283   1.457  0.6981  0.0893 -0.8914
  674MOL0     C92941   5.593   1.334   1.434  0.7029  0.3607 -0.3829
  674MOL0     C92942   5.656   1.316   1.299  0.6681 -0.4220  0.8403
  674MOL0     H92943   6.045   1.344   1.696  0.8032 -0.0716  3.0558
  674MOL0     H92944   6.281   1.411   1.681 -0.7581 -1.2837  1.0199
  674MOL0     H92945   6.352   1.800   1.802  0.6331  0.8620  0.1100
  674MOL0     H92946   6.416   1.864   1.648  1.1384 -0.4822 -1.1907
  674MOL0     H92947   6.590   1.718   1.848 -3.1118  1.5471  1.0618
  674MOL0     H92948   6.616   1.725   1.677  1.1297 -0.5361  1.3055
  674MOL0     H92949   6.591   1.985   1.700 -0.9152 -0.8869 -1.3072
  674MOL0     H92950   6.583   1.956   1.872 -0.8768 -0.5474 -0.0874
  674MOL0     H92951   6.805   1.838   1.862  3.6632  0.5571  0.0906
  674MOL0     H92952   6.830   1.902   1.694  1.1392  0.4752  0.4845
  674MOL0     H92953   6.799   2.064   1.947  2.5156 -0.4525  1.5410
  674MOL0     H92954   6.809   2.127   1.781 -0.2965 -0.1384 -1.3467
  674MOL0     H92955   7.018   1.936   1.904  4.7560  0.8926 -0.7380
  674MOL0     H92956   7.031   2.050   1.758  1.1028 -0.0858 -0.2573
  674MOL0     H92957   7.146   2.129   1.977  0.8486  1.2675  0.6375
  674MOL0     H92958   6.977   2.151   2.041 -0.0158  0.3675  0.8892
  674MOL0     H92959   6.941   2.303   1.843 -1.4956 -1.2622  3.1090
  674MOL0     H92960   7.073   2.361   1.941  0.8968  1.7915 -3.0325
  674MOL0     H92961   7.319   2.245   1.796  0.8900 -0.4365 -0.0776
  674MOL0     H92962   7.451   2.198   1.567 -2.3596  0.3178  2.2115
  674MOL0     H92963   7.438   2.360   1.479 -1.6586 -0.8032 -1.9198
  674MOL0     H92964   7.306   2.096   1.394 -0.4026  1.1526  0.2882
  674MOL0     H92965   7.286   2.257   1.333 -0.6421 -0.1826  0.2516
  674MOL0     H92966   7.525   2.265   1.262  0.9609  0.0174  1.3722
  674MOL0     H92967   7.554   2.100   1.317 -1.5852 -0.2415  2.8322
  674MOL0     H92968   7.386   2.216   1.113 -0.2438 -1.4528 -3.3799
  674MOL0     H92969   7.521   2.118   1.064 -0.3319  1.3952 -1.7218
  674MOL0     H92970   7.322   1.808   1.008  1.8333  2.9503  2.2426
  674MOL0     H92971   7.020   1.679   0.840 -1.1784  2.5564  2.1510
  674MOL0     H92972   7.138   1.631   0.961 -0.0100  0.0179  1.1350
  674MOL0     H92973   7.189   1.707   0.806  1.4741  2.6265  1.6533
  674MOL0     H92974   6.542   1.975   0.988 -2.7278 -0.5798  0.7609
  674MOL0     H92975   6.332   1.942   0.854 -1.5915  0.4610 -2.4095
  674MOL0     H92976   6.150   1.942   0.713 -4.0060  2.4048  1.9275
  674MOL0     H92977   6.192   2.113   0.725  2.6510 -1.2886  1.6987
  674MOL0     H92978   6.092   1.946   0.494 -2.3824 -0.3022 -0.0383
  674MOL0     H92979   5.979   2.001   0.616 -0.9135 -0.6060 -1.1049
  674MOL0     H92980   6.156   2.177   0.436  0.2985 -2.1454 -0.3257
  674MOL0     H92981   6.071   2.244   0.577  3.1380 -0.2554 -0.9172
  674MOL0     H92982   5.855   2.150   0.453 -0.0557 -0.0724  0.4394
  674MOL0     H92983   5.977   2.126   0.320  0.6146 -0.6455  1.3542
  674MOL0     H92984   5.838   2.338   0.287 -0.5614  2.4074  0.4039
  674MOL0     H92985   5.901   2.397   0.440 -0.5377  1.9020 -1.8075
  674MOL0     H92986   6.085   2.292   0.217  1.8954  0.5775  0.0649
  674MOL0     H92987   6.118   2.403   0.359 -1.4794  2.4690  0.2311
  674MOL0     H92988   5.946   2.564   0.239  1.0382  1.3053  0.4740
  674MOL0     H92989   6.001   2.487   0.093  0.8648  1.5158  0.0660
  674MOL0     H92990   6.201   2.593   0.298  2.2309  0.8092 -1.2770
  674MOL0     H92991   6.134   2.690   0.162 -0.8449 -0.3731  0.8911
  674MOL0     H92992   6.546   2.074   0.508 -0.1523  1.0338  0.1132
  674MOL0     H92993   6.758   2.085   0.629  0.4992  2.4245  1.2473
  674MOL0     H92994   6.961   2.144   0.991 -2.5784 -2.1657 -2.9861
  674MOL0     H92995   7.173   2.189   1.115 -2.6761  0.9205 -1.3738
  674MOL0     H92996   6.167   1.824   1.638  3.7846 -0.6684  0.0372
  674MOL0     H92997   5.938   1.750   1.618  0.9458  0.8812 -1.8958
  674MOL0     H92998   5.629   1.465   1.756 -0.1912 -0.6699  0.8084
  674MOL0     H92999   5.399   1.400   1.769 -1.0261 -0.4288 -1.3859
  674MOL0     H93000   5.270   1.224   1.780  0.8646 -0.3256 -1.6143
  674MOL0     H93001   5.165   1.366   1.732  1.6555  0.8667  0.5412
  674MOL0     H93002   5.031   1.164   1.796 -0.8624 -1.0714 -0.3806
  674MOL0     H93003   5.113   1.075   1.666  2.1894 -0.1627  1.5764
  674MOL0     H93004   5.000   1.261   1.505 -0.0394 -0.9242 -1.1156
  674MOL0     H93005   4.909   1.129   1.571 -1.1778  1.5974 -1.5878
  674MOL0     H93006   4.925   1.402   1.693  0.1655  1.7132 -3.9406
  674MOL0     H93007   4.825   1.267   1.759  0.5525  1.0095  0.1628
  674MOL0     H93008   4.679   1.452   1.373 -1.6620 -2.7025 -2.0199
  674MOL0     H93009   5.428   1.216   1.381 -0.2907 -1.3820  0.8663
  674MOL0     H93010   5.688   1.416   1.266 -0.4442 -0.1286  0.6286
  674MOL0     H93011   5.750   1.261   1.306 -0.2552 -1.8964  2.6482
  674MOL0     H93012   5.588   1.267   1.230 -0.9098 -0.2597  2.2077
  675MOL0     O93013   8.006   5.794   6.778 -0.2148  0.5399 -0.1567
  675MOL0     C93014   8.056   5.706   6.847 -0.1086 -0.6927 -0.5345
  675MOL0     O93015   7.987   5.607   6.910  0.1570 -0.1462 -0.5513
  675MOL0     C93016   7.852   5.622   6.922 -0.3709 -1.1613  0.0949
  675MOL0     C93017   7.760   5.572   6.827  0.5907  0.0149  0.0002
  675MOL0     C93018   7.622   5.581   6.839 -0.3702 -0.5592 -0.2985
  675MOL0     C93019   7.574   5.634   6.963 -0.7533  0.1158  0.3736
  675MOL0     O93020   7.437   5.649   6.976  0.1697  0.1760 -0.0234
  675MOL0     C93021   7.373   5.625   7.099 -0.3711 -0.8184  0.8963
  675MOL0     C93022   7.224   5.613   7.071  0.9777  0.1625  0.2676
  675MOL0     C93023   7.150   5.553   7.188  0.5236  0.4159 -0.9371
  675MOL0     C93024   7.009   5.506   7.168  0.5071 -1.0320  0.1982
  675MOL0     C93025   6.924   5.620   7.130 -0.2779 -0.1200 -0.4655
  675MOL0     C93026   6.782   5.586   7.068 -0.4534 -0.1125 -0.2438
  675MOL0     C93027   6.690   5.492   7.143  0.0023  1.1243 -0.6949
  675MOL0     C93028   6.656   5.532   7.285  0.7548  0.7397 -0.1999
  675MOL0     N93029   6.572   5.425   7.345 -0.7700 -0.4934  0.1427
  675MOL0     C93030   6.440   5.423   7.293  0.1340 -0.0781 -0.6097
  675MOL0     C93031   6.406   5.298   7.328 -0.5505 -0.0580  0.1285
  675MOL0     C93032   6.269   5.243   7.324  0.0368  0.0860  0.1893
  675MOL0     C93033   6.230   5.199   7.179  0.3436  0.6600 -1.1772
  675MOL0     C93034   6.266   5.054   7.141 -0.2613  0.0571 -1.0417
  675MOL0     C93035   6.232   5.009   6.994  0.3416 -0.3376 -0.5194
  675MOL0     O93036   6.328   5.059   6.897 -0.0924 -0.4314  0.5734
  675MOL0     C93037   6.437   4.982   6.855  0.3404 -0.7765 -0.2824
  675MOL0     C93038   6.539   5.056   6.786 -0.7260  0.0647  0.3408
  675MOL0     C93039   6.658   5.005   6.738  0.2431  0.2742  0.9238
  675MOL0     C93040   6.750   5.097   6.664  0.2479 -0.0301  0.2441
  675MOL0     C93041   6.682   4.866   6.751  0.8284  0.2949 -0.4265
  675MOL0     C93042   6.800   4.796   6.702  0.2029 -1.1518 -0.4054
  675MOL0     O93043   6.918   4.834   6.772 -0.0751 -0.0363 -0.4760
  675MOL0     C93044   7.034   4.801   6.720 -0.9172 -0.5414  0.4274
  675MOL0     C93045   7.134   4.745   6.806  0.4238 -0.2762 -1.1991
  675MOL0     C93046   7.269   4.732   6.756 -0.2785 -0.5626 -0.5797
  675MOL0     C93047   7.303   4.766   6.626  0.5770  0.6363 -0.3746
  675MOL0     O93048   7.427   4.745   6.574 -0.2272 -0.4902  0.1473
  675MOL0     C93049   7.495   4.868   6.539 -0.0913 -0.2314  0.1867
  675MOL0     C93050   7.626   4.831   6.464 -0.2314 -0.1120  0.0934
  675MOL0     C93051   7.616   4.800   6.318  0.3038  0.4167  0.3838
  675MOL0     C93052   7.758   4.806   6.256 -1.2710  0.0727 -0.2231
  675MOL0     C93053   7.769   4.743   6.121  1.0976  0.2583  0.0171
  675MOL0     C93054   7.912   4.739   6.068  0.9324  0.2245 -0.2982
  675MOL0     C93055   7.927   4.669   5.933 -0.4109  0.3906 -0.8246
  675MOL0     C93056   8.056   4.588   5.934 -0.4394 -0.0091 -0.8087
  675MOL0    Cl93057   8.066   4.467   5.799  0.3883  0.3273 -0.2218
  675MOL0     C93058   7.202   4.824   6.539  0.4168 -0.0708 -0.3617
  675MOL0     C93059   7.071   4.844   6.590 -0.9786  0.0145 -0.4444
  675MOL0     O93060   6.783   4.725   6.603 -0.2449 -0.5887  0.7066
  675MOL0     C93061   6.587   4.794   6.820  0.9911  0.7004  0.5347
  675MOL0     C93062   6.467   4.851   6.875  0.0957  0.1660 -0.0807
  675MOL0     N93063   6.516   5.226   7.379 -0.4099  0.0592 -0.1802
  675MOL0     N93064   6.613   5.306   7.394 -0.2879  0.2542 -0.4628
  675MOL0     C93065   7.662   5.678   7.061 -0.5729  0.4752 -0.2742
  675MOL0     C93066   7.797   5.675   7.038 -0.4047 -0.4717 -0.3249
  675MOL0     C93067   8.200   5.705   6.897 -0.3158  0.4613 -0.2080
  675MOL0     C93068   8.240   5.592   6.966  0.4491 -0.0828  0.9744
  675MOL0     C93069   8.362   5.590   7.037  0.5237 -0.0023 -0.1266
  675MOL0     C93070   8.449   5.701   7.035 -0.5085 -0.0865 -0.8364
  675MOL0     O93071   8.567   5.680   7.095  0.2556 -0.7106 -0.3951
  675MOL0     C93072   8.634   5.776   7.164 -1.0715 -0.2028 -0.1288
  675MOL0     C93073   8.598   5.786   7.315  0.4407  0.0323  1.2026
  675MOL0     C93074   8.662   5.908   7.377 -0.0774 -0.2112 -0.1928
  675MOL0     C93075   8.775   5.864   7.471  0.1686 -0.1706  0.4689
  675MOL0     C93076   8.715   5.841   7.601  0.2238  0.5723 -1.1666
  675MOL0     C93077   8.665   5.820   7.711 -0.2693 -0.2885  0.2293
  675MOL0     C93078   8.421   5.801   6.949  0.9941  0.2881  0.3086
  675MOL0     C93079   8.292   5.814   6.887 -0.5729  0.1521  0.0045
  675MOL0     C93080   8.269   5.950   6.825  0.7047 -0.1214 -0.5809
  675MOL0     H93081   7.809   5.523   6.743  2.2314  2.4457 -0.5572
  675MOL0     H93082   7.554   5.549   6.760 -0.2171  0.0837 -0.7015
  675MOL0     H93083   7.386   5.710   7.167 -0.1394  0.3482 -0.5472
  675MOL0     H93084   7.426   5.540   7.144 -0.1341  0.2408  2.7047
  675MOL0     H93085   7.189   5.713   7.045 -0.8632 -0.7391 -0.9091
  675MOL0     H93086   7.200   5.534   6.999 -1.3391  0.7382  0.3564
  675MOL0     H93087   7.195   5.460   7.222 -1.3052 -0.1489  0.0803
  675MOL0     H93088   7.157   5.622   7.273 -0.3042 -2.6629  1.8341
  675MOL0     H93089   7.015   5.432   7.089  3.6411  1.7607 -2.5146
  675MOL0     H93090   6.973   5.464   7.262  0.5005 -0.3108  0.5311
  675MOL0     H93091   6.966   5.680   7.049  0.0335 -0.9217 -0.9129
  675MOL0     H93092   6.918   5.678   7.222  1.6156 -1.5458  0.6499
  675MOL0     H93093   6.726   5.676   7.043 -0.9884  0.3721  2.4352
  675MOL0     H93094   6.805   5.531   6.976 -3.2887 -1.6031 -0.1596
  675MOL0     H93095   6.744   5.397   7.139 -2.4727 -0.3837 -0.1778
  675MOL0     H93096   6.589   5.476   7.105 -0.3254  1.0166  0.2090
  675MOL0     H93097   6.753   5.555   7.332  1.7743  1.8040 -2.6464
  675MOL0     H93098   6.600   5.626   7.294 -0.7775 -0.2332  0.8895
  675MOL0     H93099   6.386   5.493   7.231  0.3101 -1.1109 -1.9695
  675MOL0     H93100   6.198   5.322   7.350 -2.8594 -1.2113 -2.9845
  675MOL0     H93101   6.260   5.164   7.400 -0.5143  1.2529  1.3656
  675MOL0     H93102   6.123   5.210   7.163  0.3881  0.9451 -1.2811
  675MOL0     H93103   6.283   5.275   7.119 -1.5756  1.3189 -2.1066
  675MOL0     H93104   6.369   5.030   7.169  0.2254 -0.7090 -3.2785
  675MOL0     H93105   6.203   4.994   7.208 -0.7406  0.7997 -0.8217
  675MOL0     H93106   6.227   4.900   6.991  1.7464 -0.4322 -0.4536
  675MOL0     H93107   6.135   5.039   6.956  1.1852  2.0577 -0.9476
  675MOL0     H93108   6.523   5.163   6.789  1.8338  0.5230 -0.3778
  675MOL0     H93109   6.799   5.152   6.744  0.0001 -1.2490  1.2752
  675MOL0     H93110   6.699   5.168   6.599 -1.1414 -1.3109 -0.1194
  675MOL0     H93111   6.829   5.048   6.606 -0.8785  0.1129 -1.4944
  675MOL0     H93112   7.109   4.721   6.909  0.8253 -2.1463 -1.5142
  675MOL0     H93113   7.346   4.684   6.816 -0.6984 -1.0530 -0.4234
  675MOL0     H93114   7.455   4.935   6.462  1.1615 -1.3407 -1.5251
  675MOL0     H93115   7.509   4.921   6.633  1.4494 -0.0392 -0.1238
  675MOL0     H93116   7.695   4.911   6.491 -0.8157  0.3794  0.1396
  675MOL0     H93117   7.667   4.747   6.521  1.9574 -0.7438 -2.2063
  675MOL0     H93118   7.553   4.865   6.256 -0.7921 -1.2585 -0.3321
  675MOL0     H93119   7.583   4.696   6.309  0.9349  0.1676  0.9049
  675MOL0     H93120   7.821   4.751   6.326 -1.0285  1.2846  0.5466
  675MOL0     H93121   7.797   4.908   6.252  0.1356 -0.3846  0.8248
  675MOL0     H93122   7.734   4.640   6.134 -0.8607  1.0753  1.8129
  675MOL0     H93123   7.710   4.799   6.049  2.8227  0.5646 -1.2269
  675MOL0     H93124   7.975   4.687   6.141 -1.1347 -2.5629 -0.3514
  675MOL0     H93125   7.952   4.841   6.070  0.3946  0.4361  1.5905
  675MOL0     H93126   7.934   4.741   5.851  0.8625 -1.5582 -2.5205
  675MOL0     H93127   7.837   4.609   5.920 -0.9712  0.8509  0.6865
  675MOL0     H93128   8.067   4.529   6.025 -1.7396  2.0402  0.7583
  675MOL0     H93129   8.135   4.663   5.927 -0.6300  0.3948  0.8442
  675MOL0     H93130   7.222   4.858   6.438 -3.4560  0.5844 -1.0661
  675MOL0     H93131   6.994   4.893   6.532  0.7228  1.4620 -1.6178
  675MOL0     H93132   6.602   4.686   6.821  2.2997  0.8482 -0.6031
  675MOL0     H93133   6.394   4.793   6.931 -0.7672 -0.3323 -1.6778
  675MOL0     H93134   7.625   5.698   7.161  2.3183 -2.0099  1.4615
  675MOL0     H93135   7.865   5.714   7.113 -1.1573 -1.9271  1.1635
  675MOL0     H93136   8.180   5.503   6.978 -0.0651  0.0040 -0.7970
  675MOL0     H93137   8.387   5.502   7.095 -2.8629 -1.3923 -0.5326
  675MOL0     H93138   8.742   5.758   7.170 -0.7370  1.9829  2.5541
  675MOL0     H93139   8.633   5.873   7.115  3.3693  1.1864  1.9993
  675MOL0     H93140   8.609   5.689   7.364  1.9406 -0.9538 -0.9536
  675MOL0     H93141   8.490   5.805   7.316 -0.2116 -3.0439 -0.0775
  675MOL0     H93142   8.692   5.987   7.307 -0.1140  0.9660  1.0827
  675MOL0     H93143   8.590   5.962   7.439  0.7749 -0.8506  1.4083
  675MOL0     H93144   8.849   5.943   7.483  0.7073 -0.9642  2.7304
  675MOL0     H93145   8.822   5.772   7.433  0.2987  0.3450 -0.6739
  675MOL0     H93146   8.635   5.815   7.814 -0.0993 -3.2122  0.1964
  675MOL0     H93147   8.499   5.873   6.923 -0.0648  1.6777  0.8380
  675MOL0     H93148   8.286   6.031   6.896 -0.4927 -1.1743  0.9617
  675MOL0     H93149   8.342   5.965   6.745  1.8884 -1.6990  0.1318
  675MOL0     H93150   8.165   5.975   6.800  0.5260 -0.3145 -0.0428
  676MOL0     O93151   3.629   5.607   1.637  0.1947 -0.4736 -0.7962
  676MOL0     C93152   3.586   5.723   1.657  0.3820  0.5314  0.5620
  676MOL0     O93153   3.650   5.837   1.618 -0.1456  0.4079 -0.2993
  676MOL0     C93154   3.783   5.829   1.622 -0.3871  0.0382  0.5823
  676MOL0     C93155   3.851   5.790   1.735  0.5297 -0.7006  0.0440
  676MOL0     C93156   3.991   5.772   1.737  0.0892 -0.4131 -0.3454
  676MOL0     C93157   4.066   5.778   1.625  0.9704 -0.1314 -0.4164
  676MOL0     O93158   4.199   5.769   1.642  1.1371  0.0427 -0.1307
  676MOL0     C93159   4.252   5.899   1.636  0.3987 -0.6058  0.2854
  676MOL0     C93160   4.392   5.896   1.699  0.3907 -0.4753 -0.8283
  676MOL0     C93161   4.455   6.031   1.687  0.7295 -0.4128 -0.1215
  676MOL0     C93162   4.513   6.078   1.551 -0.2504 -0.1093  0.1561
  676MOL0     C93163   4.547   6.227   1.541  0.0728 -0.2177  0.3179
  676MOL0     C93164   4.672   6.261   1.612 -1.2051 -1.6955  0.1936
  676MOL0     C93165   4.789   6.249   1.515 -0.1810  0.8740 -0.0917
  676MOL0     C93166   4.912   6.273   1.592  0.0518 -0.4626  0.2433
  676MOL0     N93167   5.025   6.312   1.500  0.1689  0.2639 -0.3385
  676MOL0     C93168   5.153   6.316   1.539 -0.7857  1.0351 -0.3208
  676MOL0     C93169   5.217   6.323   1.422  0.0441  0.2748  0.9492
  676MOL0     C93170   5.369   6.321   1.405  0.3604  0.0740  0.1946
  676MOL0     C93171   5.427   6.462   1.408  0.4489 -0.4163 -0.4050
  676MOL0     C93172   5.573   6.468   1.454  0.0632 -0.6250  0.4572
  676MOL0     C93173   5.665   6.392   1.368  0.5806  0.2112  0.2935
  676MOL0     O93174   5.661   6.249   1.416  0.3057 -0.3932  0.2972
  676MOL0     C93175   5.728   6.150   1.344  0.5956 -1.1207 -0.9479
  676MOL0     C93176   5.811   6.180   1.240  0.0583  0.3299 -0.7119
  676MOL0     C93177   5.897   6.078   1.197  0.7893 -0.1605  0.2140
  676MOL0     C93178   6.007   6.115   1.099  0.2335  0.5994  0.0658
  676MOL0     C93179   5.887   5.953   1.254 -0.5474  0.2789  0.6451
  676MOL0     C93180   5.978   5.837   1.218  1.1719  0.0118 -0.9757
  676MOL0     O93181   5.908   5.721   1.198 -0.0740  0.9385  0.2370
  676MOL0     C93182   5.963   5.594   1.212  1.0256 -0.3321  0.7999
  676MOL0     C93183   6.073   5.557   1.294 -0.2041  0.2128 -0.1144
  676MOL0     C93184   6.105   5.423   1.303 -0.9329 -0.6312 -0.0574
  676MOL0     C93185   6.039   5.324   1.230  0.0226 -0.0663 -0.5163
  676MOL0     O93186   6.074   5.193   1.239 -0.5402  0.4574  0.1456
  676MOL0     C93187   6.125   5.141   1.367 -0.0957  0.4220 -0.5080
  676MOL0     C93188   6.131   4.990   1.352 -0.6885  0.7954  0.1492
  676MOL0     C93189   6.001   4.936   1.300  0.3432 -0.3937  0.6214
  676MOL0     C93190   5.980   4.787   1.332 -0.3389  1.1393 -0.2514
  676MOL0     C93191   5.841   4.741   1.304  0.8226 -0.6537 -0.6858
  676MOL0     C93192   5.834   4.586   1.318 -0.2303  0.2941 -0.4146
  676MOL0     C93193   5.691   4.539   1.298  0.4304  0.1274  0.4754
  676MOL0     C93194   5.600   4.574   1.417 -0.0495  0.8822  0.3177
  676MOL0    Cl93195   5.673   4.534   1.576  0.4323  0.0861  0.1529
  676MOL0     C93196   5.923   5.357   1.159 -0.0495  0.3845 -0.6213
  676MOL0     C93197   5.888   5.487   1.148  0.2286 -0.5615 -0.3863
  676MOL0     O93198   6.100   5.843   1.225  0.2526  0.2039  0.5369
  676MOL0     C93199   5.803   5.918   1.361 -0.6230  0.3268 -0.1313
  676MOL0     C93200   5.712   6.016   1.401 -0.3016 -0.5673 -0.3776
  676MOL0     N93201   5.129   6.326   1.313 -0.4064  0.3590 -0.1958
  676MOL0     N93202   5.012   6.310   1.361  0.2228  0.0190 -0.1487
  676MOL0     C93203   4.002   5.802   1.495  0.2820 -1.0878 -0.5351
  676MOL0     C93204   3.861   5.826   1.497  0.6376 -0.9344 -0.5680
  676MOL0     C93205   3.444   5.728   1.691  0.4850 -0.5303 -0.3699
  676MOL0     C93206   3.377   5.851   1.663  0.0313  1.1533 -0.6508
  676MOL0     C93207   3.245   5.866   1.691  0.0049  0.5902  0.1351
  676MOL0     C93208   3.166   5.761   1.743 -0.3569 -0.3783  0.3429
  676MOL0     O93209   3.035   5.774   1.758 -0.3170  0.5910  0.2050
  676MOL0     C93210   2.954   5.719   1.650 -0.5092  0.0533  0.3119
  676MOL0     C93211   2.911   5.574   1.685 -0.7854 -0.1825 -0.3417
  676MOL0     C93212   2.800   5.535   1.590  0.4408 -0.5604 -0.2644
  676MOL0     C93213   2.713   5.413   1.643  0.3924 -0.2609  0.4677
  676MOL0     C93214   2.582   5.396   1.583  0.2161 -0.1540 -0.0851
  676MOL0     C93215   2.470   5.369   1.546  0.0131  0.2498  0.7099
  676MOL0     C93216   3.227   5.638   1.769 -0.4489 -1.0535  0.0496
  676MOL0     C93217   3.366   5.619   1.748 -0.6444 -0.4567 -0.1923
  676MOL0     C93218   3.416   5.487   1.799 -0.0612 -0.2862 -0.4005
  676MOL0     H93219   3.789   5.765   1.820  2.4356 -3.0714  0.8406
  676MOL0     H93220   4.036   5.734   1.828 -0.2787 -0.4067 -0.1597
  676MOL0     H93221   4.184   5.971   1.683  0.4093  0.5123 -1.3252
  676MOL0     H93222   4.250   5.917   1.528 -2.6463 -3.1782 -0.2210
  676MOL0     H93223   4.387   5.861   1.802  1.1951  1.1916 -0.1890
  676MOL0     H93224   4.460   5.822   1.654 -2.1398 -4.1003  0.7951
  676MOL0     H93225   4.376   6.102   1.715  2.1906  0.5509  1.7694
  676MOL0     H93226   4.539   6.039   1.756  0.5557  0.9141 -0.0301
  676MOL0     H93227   4.603   6.025   1.518 -0.9955 -1.0026 -0.4697
  676MOL0     H93228   4.438   6.055   1.475 -2.2064  3.2333  0.8775
  676MOL0     H93229   4.466   6.292   1.575  0.0680  0.3282 -0.6853
  676MOL0     H93230   4.537   6.258   1.436 -2.9605  1.2151  0.9136
  676MOL0     H93231   4.668   6.366   1.644  0.4640 -1.6040  0.1676
  676MOL0     H93232   4.687   6.198   1.700  0.9124  0.1800  1.2592
  676MOL0     H93233   4.774   6.334   1.448 -1.6659  0.0670 -0.8434
  676MOL0     H93234   4.786   6.154   1.461 -1.7903  0.4219  0.7216
  676MOL0     H93235   4.896   6.360   1.656  0.8030  0.8814 -1.3203
  676MOL0     H93236   4.950   6.181   1.638  2.2903  0.7873  1.0758
  676MOL0     H93237   5.189   6.302   1.640 -2.6854 -1.7754  0.0743
  676MOL0     H93238   5.397   6.275   1.310 -3.9709 -1.0124 -0.7862
  676MOL0     H93239   5.409   6.266   1.491  3.6467  1.9515  0.0282
  676MOL0     H93240   5.424   6.510   1.310  2.7768  3.0679  1.0431
  676MOL0     H93241   5.366   6.527   1.472 -3.6809 -1.3267 -2.9792
  676MOL0     H93242   5.601   6.574   1.451 -3.0174  0.2408 -1.2099
  676MOL0     H93243   5.580   6.437   1.559  0.1492  0.0020  0.6431
  676MOL0     H93244   5.633   6.409   1.265 -0.4828 -0.9723  0.4061
  676MOL0     H93245   5.766   6.430   1.386  0.5482  0.4849 -0.0952
  676MOL0     H93246   5.810   6.281   1.201 -4.4025 -0.2751 -2.8554
  676MOL0     H93247   6.007   6.048   1.012 -0.0354 -0.9084  1.1990
  676MOL0     H93248   6.100   6.101   1.155 -0.3999  1.3233  1.3349
  676MOL0     H93249   5.991   6.219   1.069  3.6159  1.0426 -0.6719
  676MOL0     H93250   6.117   5.642   1.345 -0.8912  1.8710 -2.1209
  676MOL0     H93251   6.195   5.396   1.359 -1.3828  0.2390  1.1160
  676MOL0     H93252   6.226   5.177   1.389  0.1665  0.2829 -1.4765
  676MOL0     H93253   6.061   5.168   1.452  0.1080 -0.8897  0.0846
  676MOL0     H93254   6.221   4.968   1.293 -1.0298  1.2317 -0.5395
  676MOL0     H93255   6.154   4.948   1.450 -0.0230 -1.3268 -0.8358
  676MOL0     H93256   5.988   4.937   1.191  0.3863  1.5906  0.5988
  676MOL0     H93257   5.919   4.989   1.349  1.0169 -1.5378  3.1437
  676MOL0     H93258   6.003   4.775   1.438  2.7990 -1.3151 -1.0584
  676MOL0     H93259   6.047   4.717   1.281 -0.4354  0.2548  0.8057
  676MOL0     H93260   5.773   4.783   1.380  1.3958 -2.9004  1.1807
  676MOL0     H93261   5.805   4.768   1.204 -1.7804 -2.2717 -0.2816
  676MOL0     H93262   5.867   4.550   1.416 -3.0701  0.7395  0.8013
  676MOL0     H93263   5.884   4.541   1.231 -1.8839  0.4734 -1.4971
  676MOL0     H93264   5.701   4.431   1.285  0.3170  0.2400 -0.5646
  676MOL0     H93265   5.644   4.580   1.208  1.1928 -1.7153 -0.8232
  676MOL0     H93266   5.500   4.532   1.397 -0.7758  2.4507  0.5075
  676MOL0     H93267   5.575   4.681   1.412 -0.9758  0.7666  1.7782
  676MOL0     H93268   5.869   5.273   1.116  2.4115 -1.6344  0.0095
  676MOL0     H93269   5.795   5.508   1.095 -0.5282  0.1489  1.1509
  676MOL0     H93270   5.818   5.819   1.402  0.4840 -0.1420 -1.5799
  676MOL0     H93271   5.637   6.010   1.480 -0.9859 -4.6753 -1.1246
  676MOL0     H93272   4.064   5.797   1.406  1.4041  2.0939 -0.0772
  676MOL0     H93273   3.804   5.827   1.404 -0.0387  1.4381 -0.2087
  676MOL0     H93274   3.438   5.934   1.629  0.8454  0.4251 -1.0194
  676MOL0     H93275   3.194   5.956   1.658 -0.0388  0.4853 -0.0878
  676MOL0     H93276   2.865   5.784   1.650 -0.2168  0.5273  2.8663
  676MOL0     H93277   3.011   5.716   1.556  0.2596 -1.1994  0.8075
  676MOL0     H93278   2.874   5.572   1.788 -0.8487 -0.8250 -0.3735
  676MOL0     H93279   2.998   5.508   1.687  1.2184  2.2885  2.2326
  676MOL0     H93280   2.739   5.625   1.578  3.8875  2.4437  2.4635
  676MOL0     H93281   2.834   5.514   1.488 -0.1955  1.1981 -0.8671
  676MOL0     H93282   2.693   5.426   1.750  0.7129 -2.6306  0.8603
  676MOL0     H93283   2.772   5.323   1.624  0.4931 -0.0368 -0.3119
  676MOL0     H93284   2.370   5.341   1.521  0.1823  0.6050 -0.4047
  676MOL0     H93285   3.165   5.555   1.803  0.8158 -2.6276 -1.3144
  676MOL0     H93286   3.444   5.430   1.710 -2.0788  0.7514 -1.7933
  676MOL0     H93287   3.498   5.505   1.868 -3.0242  2.4463  2.7986
  676MOL0     H93288   3.342   5.421   1.846  0.0449 -2.0535 -2.5317
  677MOL0     O93289   9.604   5.709   2.984  0.5353  0.1918 -0.2574
  677MOL0     C93290   9.553   5.607   2.937  0.1057  0.1331  0.8892
  677MOL0     O93291   9.618   5.507   2.868 -1.5596  0.0053  0.2332
  677MOL0     C93292   9.762   5.507   2.865  1.3947  1.1292  0.2934
  677MOL0     C93293   9.828   5.431   2.960  0.4249 -0.2184  0.0024
  677MOL0     C93294   9.969   5.420   2.955  0.8899 -0.2247 -0.0953
  677MOL0     C93295  10.050   5.480   2.868 -0.0434 -0.9053  0.5982
  677MOL0     O93296  10.185   5.452   2.878  0.4086 -0.7996  0.8272
  677MOL0     C93297  10.284   5.495   2.778  0.6484 -0.1342  0.5664
  677MOL0     C93298  10.401   5.570   2.850  0.1143 -0.6285 -0.0958
  677MOL0     C93299  10.346   5.673   2.951 -0.5414 -0.7006 -0.6502
  677MOL0     C93300  10.273   5.798   2.895  0.5730  0.5874  0.7718
  677MOL0     C93301  10.149   5.831   2.980  0.4410  0.4659 -0.2021
  677MOL0     C93302  10.081   5.966   2.940  0.1916 -0.1790 -0.0306
  677MOL0     C93303   9.976   6.009   3.046  0.3691 -0.7801 -0.1515
  677MOL0     C93304   9.899   6.137   3.030  0.0725 -0.0561  0.2418
  677MOL0     N93305   9.809   6.128   2.911 -0.3944  0.3530 -0.2307
  677MOL0     C93306   9.712   6.026   2.881 -0.1833 -0.4829 -0.0607
  677MOL0     C93307   9.654   6.068   2.765 -0.4134  0.2389  0.8490
  677MOL0     C93308   9.521   6.017   2.703 -0.6515  0.1341 -0.4584
  677MOL0     C93309   9.545   5.880   2.625  0.2632  0.0521 -0.3583
  677MOL0     C93310   9.413   5.806   2.598  0.4976  0.7961  0.6081
  677MOL0     C93311   9.441   5.671   2.530 -0.0186  0.4236 -0.6001
  677MOL0     O93312   9.322   5.601   2.527  0.2726 -0.4090  0.0051
  677MOL0     C93313   9.305   5.477   2.460  0.1406  0.3318 -0.8262
  677MOL0     C93314   9.187   5.405   2.483 -0.6035  0.5525  0.1698
  677MOL0     C93315   9.162   5.278   2.427  0.3603  0.4255 -0.1029
  677MOL0     C93316   9.016   5.230   2.447 -0.0024 -0.6982 -0.5527
  677MOL0     C93317   9.259   5.209   2.367  0.1028 -0.3512  0.8388
  677MOL0     C93318   9.257   5.063   2.328  0.6930  0.5166  0.1237
  677MOL0     O93319   9.371   5.019   2.271 -0.2988 -0.0821 -0.6708
  677MOL0     C93320   9.374   4.891   2.226 -0.3735 -0.2968  0.9690
  677MOL0     C93321   9.418   4.786   2.306 -0.3571  0.0673  0.5885
  677MOL0     C93322   9.394   4.653   2.256  0.3973 -0.5593  0.0501
  677MOL0     C93323   9.357   4.628   2.127 -0.8379 -0.0480 -0.1897
  677MOL0     O93324   9.338   4.501   2.093  0.5343  0.2563 -0.9514
  677MOL0     C93325   9.367   4.465   1.962  0.6009 -0.3642 -0.7377
  677MOL0     C93326   9.403   4.317   1.952 -0.0384 -0.0708 -0.4534
  677MOL0     C93327   9.466   4.289   1.814  0.6590  0.0442  0.5767
  677MOL0     C93328   9.522   4.149   1.807  0.2127  0.2785 -0.4804
  677MOL0     C93329   9.533   4.096   1.664 -0.3722 -0.6597  1.2829
  677MOL0     C93330   9.626   3.976   1.637  0.3888  0.1278 -0.3515
  677MOL0     C93331   9.580   3.864   1.731 -0.2855  0.3127 -0.4058
  677MOL0     C93332   9.436   3.822   1.693  0.4408 -0.0951 -0.6237
  677MOL0    Cl93333   9.397   3.816   1.529  0.1247  0.6275 -0.3783
  677MOL0     C93334   9.323   4.739   2.045 -0.8539  1.4947  0.0985
  677MOL0     C93335   9.335   4.865   2.098  0.0156 -0.5204  0.2417
  677MOL0     O93336   9.155   4.997   2.343 -0.5604 -0.3406 -0.1522
  677MOL0     C93337   9.377   5.279   2.346 -0.7435 -0.8023 -0.3784
  677MOL0     C93338   9.402   5.415   2.380 -0.3790  0.2065 -0.0803
  677MOL0     N93339   9.723   6.180   2.723  1.2243  0.3426 -0.1412
  677MOL0     N93340   9.818   6.209   2.797 -0.7456 -0.0754  0.5647
  677MOL0     C93341   9.977   5.551   2.768 -0.1210  0.2946 -0.5579
  677MOL0     C93342   9.838   5.570   2.761  0.1593  0.3465  0.1339
  677MOL0     C93343   9.411   5.592   2.967 -0.3878 -0.5605  0.6535
  677MOL0     C93344   9.324   5.535   2.871  0.2224  0.1154 -0.7257
  677MOL0     C93345   9.181   5.526   2.890 -0.0434 -0.1341 -1.0488
  677MOL0     C93346   9.128   5.573   3.016 -0.3838 -0.1167  0.2588
  677MOL0     O93347   8.989   5.574   3.022 -0.4988 -0.0448  0.2049
  677MOL0     C93348   8.924   5.568   3.152 -1.1048  0.0993 -0.7671
  677MOL0     C93349   8.944   5.430   3.216  1.0972 -0.2183 -0.5159
  677MOL0     C93350   8.870   5.400   3.347 -0.3038  0.2588  0.2607
  677MOL0     C93351   8.721   5.432   3.344 -0.3387  0.0483  0.7033
  677MOL0     C93352   8.648   5.431   3.467 -0.3130  0.5141 -0.9008
  677MOL0     C93353   8.601   5.441   3.581 -0.4029 -0.8861 -0.3077
  677MOL0     C93354   9.215   5.616   3.114 -0.5165 -0.9613 -0.0597
  677MOL0     C93355   9.352   5.622   3.095 -0.4493 -0.1567 -0.4350
  677MOL0     C93356   9.437   5.674   3.211  0.1079  0.8503 -0.1056
  677MOL0     H93357   9.768   5.379   3.034 -0.0716 -1.2662 -1.1015
  677MOL0     H93358  10.000   5.358   3.038 -1.2616 -1.7356 -0.3323
  677MOL0     H93359  10.247   5.563   2.700 -0.8396  0.5748  1.8355
  677MOL0     H93360  10.319   5.403   2.730  2.8262  2.2323 -2.9137
  677MOL0     H93361  10.457   5.493   2.904  1.2341  1.1192  1.3400
  677MOL0     H93362  10.467   5.630   2.787 -2.4458  1.2000 -1.2268
  677MOL0     H93363  10.273   5.629   3.020 -0.2488  0.9384  0.7640
  677MOL0     H93364  10.431   5.700   3.015 -0.4836  1.5575 -1.5612
  677MOL0     H93365  10.338   5.886   2.889 -3.4552  3.7430 -4.1316
  677MOL0     H93366  10.242   5.772   2.793  0.6094 -0.1862  0.9486
  677MOL0     H93367  10.183   5.835   3.084 -0.2824  0.1699  0.0536
  677MOL0     H93368  10.068   5.757   2.982  0.3261  0.5202 -1.8066
  677MOL0     H93369  10.151   6.042   2.903 -0.5274 -0.4357 -2.0265
  677MOL0     H93370  10.031   5.942   2.846 -2.6222 -0.8668  1.5385
  677MOL0     H93371  10.030   6.015   3.141 -1.8927 -1.2953  1.2322
  677MOL0     H93372   9.910   5.922   3.052  0.0226 -0.6469 -1.6551
  677MOL0     H93373   9.836   6.155   3.117  0.5466 -1.3688  0.8719
  677MOL0     H93374   9.970   6.221   3.024  0.4511 -0.2946  1.2900
  677MOL0     H93375   9.677   5.939   2.936 -1.0905  0.0042  0.1577
  677MOL0     H93376   9.475   6.093   2.640  2.6238  0.5729 -2.5713
  677MOL0     H93377   9.458   6.005   2.792 -1.3657 -0.5688 -1.0414
  677MOL0     H93378   9.601   5.892   2.532 -1.6728 -0.2459 -1.6237
  677MOL0     H93379   9.607   5.821   2.693 -1.4257 -0.3992  0.8798
  677MOL0     H93380   9.350   5.788   2.685 -1.4818 -0.6060 -1.0152
  677MOL0     H93381   9.340   5.859   2.535 -3.9568 -1.7647  3.1562
  677MOL0     H93382   9.493   5.687   2.436  2.1425  0.6710  0.5817
  677MOL0     H93383   9.516   5.617   2.588  0.5286  0.9175 -0.8429
  677MOL0     H93384   9.114   5.455   2.547 -0.0807  3.5958 -1.4059
  677MOL0     H93385   8.961   5.260   2.358 -1.0375  0.8854  0.5514
  677MOL0     H93386   8.965   5.278   2.532 -0.7687 -1.3410 -0.6479
  677MOL0     H93387   8.997   5.124   2.461 -2.7591 -0.1976  0.0654
  677MOL0     H93388   9.465   4.803   2.403  1.4949  2.1575 -0.5964
  677MOL0     H93389   9.400   4.574   2.329  3.1590 -0.6620 -0.1724
  677MOL0     H93390   9.277   4.486   1.904 -0.1565 -0.7497  0.2737
  677MOL0     H93391   9.441   4.529   1.913 -1.4593  1.7946 -1.1817
  677MOL0     H93392   9.482   4.302   2.026 -0.5258 -1.6776 -0.2240
  677MOL0     H93393   9.314   4.254   1.965  0.3569 -0.9930 -1.9727
  677MOL0     H93394   9.542   4.362   1.785  0.0883 -0.1984 -1.7059
  677MOL0     H93395   9.382   4.301   1.745 -0.6350  2.4979  2.4452
  677MOL0     H93396   9.448   4.083   1.853  0.2735 -0.2264 -1.1002
  677MOL0     H93397   9.617   4.148   1.861 -0.9377 -0.9007  1.6430
  677MOL0     H93398   9.439   4.087   1.610 -1.2409 -0.1023  2.6410
  677MOL0     H93399   9.582   4.179   1.612  0.8155 -0.5364  2.5299
  677MOL0     H93400   9.725   4.007   1.671  0.0537  0.0631  0.7466
  677MOL0     H93401   9.632   3.944   1.533  2.8436 -0.0496 -0.2011
  677MOL0     H93402   9.583   3.896   1.836 -0.4591  1.2280 -0.6683
  677MOL0     H93403   9.639   3.773   1.717 -1.4783 -0.8945  1.8217
  677MOL0     H93404   9.378   3.902   1.740  0.4885  0.2955 -1.2183
  677MOL0     H93405   9.416   3.724   1.737  0.8434  0.2817  0.4330
  677MOL0     H93406   9.306   4.732   1.939  0.5121  2.3044 -0.2118
  677MOL0     H93407   9.313   4.949   2.033 -2.5262 -1.0139  0.3492
  677MOL0     H93408   9.467   5.230   2.310 -0.3119  0.3089 -0.8553
  677MOL0     H93409   9.500   5.457   2.358  0.4649 -1.8832 -0.6295
  677MOL0     H93410  10.041   5.609   2.702 -0.1010 -1.0019 -1.7400
  677MOL0     H93411   9.783   5.631   2.690  2.4197  0.7979 -1.3091
  677MOL0     H93412   9.368   5.480   2.789  0.9997  2.3683 -1.9068
  677MOL0     H93413   9.124   5.485   2.807  0.3586 -0.8925 -0.9605
  677MOL0     H93414   8.973   5.639   3.220 -1.3708  0.5504 -1.0414
  677MOL0     H93415   8.819   5.591   3.130 -1.2581  0.7181  0.5333
  677MOL0     H93416   9.048   5.404   3.238  0.7625 -1.1949 -0.0762
  677MOL0     H93417   8.894   5.362   3.147  0.0263 -0.0960  0.1097
  677MOL0     H93418   8.897   5.294   3.358  1.9332  0.8221  0.7570
  677MOL0     H93419   8.924   5.448   3.429  2.0339 -0.8301 -0.5346
  677MOL0     H93420   8.680   5.353   3.280  0.3506  0.2314  0.0304
  677MOL0     H93421   8.701   5.529   3.297 -0.9986 -0.3330  0.1762
  677MOL0     H93422   8.550   5.443   3.675 -3.6443 -2.2192 -1.8842
  677MOL0     H93423   9.182   5.627   3.216  1.7271 -1.6516  0.8015
  677MOL0     H93424   9.529   5.614   3.217  1.1675  2.0603 -2.7112
  677MOL0     H93425   9.455   5.781   3.199 -2.8432  2.0411  3.9728
  677MOL0     H93426   9.385   5.661   3.306 -0.0659 -0.4034 -0.3485
  678MOL0     O93427  10.145   7.092   1.321  0.0294 -1.0590 -0.2864
  678MOL0     C93428  10.162   7.196   1.266  0.8913  0.2790  0.1052
  678MOL0     O93429  10.237   7.300   1.319 -0.1528 -0.0299  0.2560
  678MOL0     C93430  10.315   7.268   1.427 -1.0137 -0.1241  0.1284
  678MOL0     C93431  10.295   7.343   1.549 -0.3351 -0.0726  0.5088
  678MOL0     C93432  10.362   7.317   1.668  0.2186  0.4094 -0.2762
  678MOL0     C93433  10.462   7.215   1.665  0.5520  0.2350  0.0576
  678MOL0     O93434  10.531   7.204   1.787 -0.5099  0.5640 -0.1572
  678MOL0     C93435  10.464   7.105   1.863 -0.0954  1.1693  0.1954
  678MOL0     C93436  10.458   7.130   2.012  0.1419  0.2017 -0.3989
  678MOL0     C93437  10.591   7.134   2.078 -1.2649 -0.7301 -0.1292
  678MOL0     C93438  10.589   7.215   2.210  0.6090  0.1252  1.4475
  678MOL0     C93439  10.727   7.225   2.272  0.3666 -0.7791  0.4507
  678MOL0     C93440  10.751   7.321   2.393  0.1033  0.5279 -0.1564
  678MOL0     C93441  10.894   7.310   2.447 -0.6021 -0.3377  0.1150
  678MOL0     C93442  10.905   7.346   2.597  0.5440 -0.7164  0.2136
  678MOL0     N93443  10.914   7.491   2.614 -0.5422  0.1752 -0.4521
  678MOL0     C93444  11.023   7.551   2.567 -0.2090 -0.5860 -0.0292
  678MOL0     C93445  11.005   7.678   2.612  0.4169 -0.1735  0.0883
  678MOL0     C93446  11.096   7.793   2.599 -0.6707  0.0792  0.7875
  678MOL0     C93447  11.224   7.775   2.522  0.2946  0.2711  0.6177
  678MOL0     C93448  11.360   7.772   2.600 -0.3655 -0.4841 -0.2217
  678MOL0     C93449  11.383   7.646   2.672 -0.4327 -0.1527 -0.9224
  678MOL0     O93450  11.393   7.537   2.578  0.0940 -0.8189 -0.2419
  678MOL0     C93451  11.513   7.472   2.580  0.1569  0.0729 -0.1471
  678MOL0     C93452  11.507   7.332   2.576  0.0924  0.0088 -0.5729
  678MOL0     C93453  11.614   7.246   2.581  0.4591 -0.5185  0.2112
  678MOL0     C93454  11.582   7.107   2.603 -0.6444 -0.2819 -0.5486
  678MOL0     C93455  11.745   7.309   2.589 -0.3831 -0.3771  0.3146
  678MOL0     C93456  11.876   7.238   2.596  0.0730  0.8351 -1.0479
  678MOL0     O93457  11.976   7.312   2.581 -0.1431 -0.4477  0.3030
  678MOL0     C93458  12.103   7.249   2.582  0.8390  0.1724  0.3141
  678MOL0     C93459  12.159   7.199   2.459 -0.2134  0.9622 -0.2239
  678MOL0     C93460  12.285   7.138   2.454 -0.3848 -0.1494  0.4360
  678MOL0     C93461  12.354   7.134   2.579 -0.5144  0.0343 -0.0490
  678MOL0     O93462  12.491   7.122   2.570  0.8512  0.0225  0.3710
  678MOL0     C93463  12.568   7.236   2.621 -0.3194  0.3105 -0.8977
  678MOL0     C93464  12.582   7.345   2.510  0.5205  0.4197  0.2923
  678MOL0     C93465  12.706   7.442   2.522  0.7194 -0.0810  0.4445
  678MOL0     C93466  12.671   7.528   2.630 -0.0666  0.2690 -0.9288
  678MOL0     C93467  12.775   7.636   2.669 -0.5231 -0.6157 -0.1557
  678MOL0     C93468  12.894   7.580   2.743  0.3732 -1.1620  0.3856
  678MOL0     C93469  12.863   7.539   2.882  0.6837  0.9014 -0.3320
  678MOL0     C93470  13.000   7.524   2.949  0.3932 -0.7611 -0.3970
  678MOL0    Cl93471  13.098   7.395   2.877  0.1139  0.5475  0.0583
  678MOL0     C93472  12.303   7.176   2.700  0.5544  0.0309 -0.4928
  678MOL0     C93473  12.176   7.239   2.708 -0.3404 -0.4311 -0.2141
  678MOL0     O93474  11.873   7.112   2.620 -0.3120 -0.5159  0.0501
  678MOL0     C93475  11.753   7.450   2.583  0.3858  0.9244 -0.1694
  678MOL0     C93476  11.636   7.526   2.592  1.0990 -0.4189  0.3667
  678MOL0     N93477  10.886   7.689   2.680  0.2393 -0.3418  0.5620
  678MOL0     N93478  10.832   7.573   2.681 -0.3947 -0.3633 -0.6960
  678MOL0     C93479  10.482   7.136   1.550  0.2525 -0.4507  0.7991
  678MOL0     C93480  10.416   7.164   1.430 -0.1724  0.2167 -0.2501
  678MOL0     C93481  10.082   7.220   1.136 -0.8228 -0.3707  0.3684
  678MOL0     C93482  10.098   7.349   1.073 -0.1531  0.5658 -0.2958
  678MOL0     C93483  10.032   7.381   0.958  0.3245  0.3166  0.5532
  678MOL0     C93484   9.938   7.298   0.901  0.1927  0.8044  0.4456
  678MOL0     O93485   9.876   7.345   0.785 -0.2507 -0.8124  0.0035
  678MOL0     C93486   9.775   7.276   0.720  0.3034 -0.1098  0.2979
  678MOL0     C93487   9.632   7.303   0.772 -0.1512 -0.4848 -0.5681
  678MOL0     C93488   9.577   7.425   0.705  0.2870 -0.0432 -0.1113
  678MOL0     C93489   9.442   7.461   0.767  0.8312  0.0210 -0.4398
  678MOL0     C93490   9.403   7.586   0.701 -0.3007 -0.3334 -0.8763
  678MOL0     C93491   9.344   7.684   0.668  0.3100 -0.2937 -0.5115
  678MOL0     C93492   9.926   7.171   0.952  0.0500 -0.1508 -0.2320
  678MOL0     C93493  10.003   7.131   1.066 -0.4399  0.3397  0.1844
  678MOL0     C93494   9.992   6.989   1.109  0.3721  0.4241  0.2593
  678MOL0     H93495  10.229   7.428   1.540  1.0167  0.8699 -1.1841
  678MOL0     H93496  10.342   7.374   1.758  0.0884  1.4055 -0.9199
  678MOL0     H93497  10.519   7.012   1.843 -0.7348  1.7655 -6.2539
  678MOL0     H93498  10.361   7.095   1.830  0.3842  1.0623 -1.3372
  678MOL0     H93499  10.392   7.217   2.021 -1.5104 -0.8741 -1.4202
  678MOL0     H93500  10.406   7.043   2.053  2.9241 -1.4826 -0.1726
  678MOL0     H93501  10.627   7.031   2.088 -0.7363 -0.6965 -1.4908
  678MOL0     H93502  10.663   7.185   2.013 -1.4931  0.1706  0.3005
  678MOL0     H93503  10.551   7.314   2.182  1.3520  0.1657  0.5482
  678MOL0     H93504  10.513   7.164   2.271 -0.5651 -1.4759 -1.1726
  678MOL0     H93505  10.795   7.252   2.191  3.1252 -1.9468  2.2361
  678MOL0     H93506  10.746   7.124   2.308 -1.2956 -0.3651  2.7492
  678MOL0     H93507  10.740   7.423   2.355 -1.0640 -1.1881 -5.2135
  678MOL0     H93508  10.678   7.306   2.472  2.8374 -0.4165  2.3673
  678MOL0     H93509  10.968   7.364   2.387  0.8344 -1.5424  0.7286
  678MOL0     H93510  10.928   7.207   2.430  1.4157  0.0967  1.1084
  678MOL0     H93511  10.818   7.309   2.652  0.0196  0.9262  0.5334
  678MOL0     H93512  11.006   7.324   2.633  2.6764  3.6896 -2.2894
  678MOL0     H93513  11.112   7.512   2.519  1.8364  2.4167  1.0145
  678MOL0     H93514  11.125   7.831   2.698  1.7097 -1.3931  0.7412
  678MOL0     H93515  11.039   7.873   2.551  1.6919  1.4382  0.0648
  678MOL0     H93516  11.213   7.690   2.454 -2.9846 -0.6966  2.1644
  678MOL0     H93517  11.241   7.861   2.456 -1.1374 -0.1770 -0.3784
  678MOL0     H93518  11.449   7.789   2.539  0.2320  1.3668  1.0790
  678MOL0     H93519  11.355   7.846   2.680 -2.1259 -2.1154  1.2862
  678MOL0     H93520  11.474   7.666   2.730 -1.5484  3.3132 -0.1455
  678MOL0     H93521  11.310   7.628   2.751  0.2367 -1.6823 -0.6120
  678MOL0     H93522  11.406   7.293   2.576 -0.5361  1.3127  2.8340
  678MOL0     H93523  11.475   7.090   2.618 -0.9317  0.3550 -1.7276
  678MOL0     H93524  11.642   7.073   2.688  2.1222  4.5128 -0.2469
  678MOL0     H93525  11.613   7.054   2.512  2.2276  3.8295 -2.2819
  678MOL0     H93526  12.107   7.211   2.364 -2.1777 -1.4334  0.4199
  678MOL0     H93527  12.323   7.111   2.356 -1.7589  1.5696 -0.6447
  678MOL0     H93528  12.523   7.283   2.709  1.1558  1.7106 -0.8510
  678MOL0     H93529  12.668   7.195   2.639 -0.0536 -1.3303 -5.0400
  678MOL0     H93530  12.599   7.295   2.414  2.3720  1.3139  0.1262
  678MOL0     H93531  12.483   7.391   2.501 -0.4920 -1.9188 -1.7876
  678MOL0     H93532  12.719   7.506   2.435  2.0380  0.7648  1.2347
  678MOL0     H93533  12.795   7.380   2.539 -0.3963 -2.1738 -0.8206
  678MOL0     H93534  12.652   7.469   2.720 -0.8709  2.5201  0.4695
  678MOL0     H93535  12.572   7.570   2.609  0.4003  0.9352 -1.8832
  678MOL0     H93536  12.802   7.689   2.577 -1.7000  1.9099  0.8375
  678MOL0     H93537  12.730   7.713   2.732 -1.9737 -0.1838 -1.6351
  678MOL0     H93538  12.968   7.661   2.743  1.9185 -2.3921 -2.9795
  678MOL0     H93539  12.936   7.496   2.687 -0.4445  0.1534 -2.3582
  678MOL0     H93540  12.820   7.439   2.878  0.5921  0.9794 -1.4423
  678MOL0     H93541  12.801   7.613   2.934 -1.3303 -2.7278  2.9683
  678MOL0     H93542  12.987   7.498   3.055  0.8229  0.6878  0.0446
  678MOL0     H93543  13.054   7.619   2.955 -1.0943  0.0701  0.4789
  678MOL0     H93544  12.365   7.168   2.789 -2.4762  2.5450  2.0858
  678MOL0     H93545  12.131   7.277   2.799  2.7170 -1.3540  1.8449
  678MOL0     H93546  11.849   7.500   2.582  0.5068  0.6977 -1.2370
  678MOL0     H93547  11.645   7.634   2.592 -1.6481 -0.1007 -1.6773
  678MOL0     H93548  10.562   7.064   1.545 -0.1329 -1.0831  2.9651
  678MOL0     H93549  10.433   7.118   1.333  0.1056 -0.7718  0.2529
  678MOL0     H93550  10.171   7.418   1.116 -0.7244 -0.6348  2.9168
  678MOL0     H93551  10.055   7.473   0.905 -0.9969  0.1150 -0.4359
  678MOL0     H93552   9.759   7.304   0.616 -0.7063 -2.8506 -0.3766
  678MOL0     H93553   9.799   7.169   0.712  0.9841  0.0688 -0.1059
  678MOL0     H93554   9.633   7.308   0.881 -2.2645  0.8231 -0.5629
  678MOL0     H93555   9.568   7.222   0.736 -0.0010  0.5887 -3.5994
  678MOL0     H93556   9.648   7.506   0.724  1.2179  0.0193 -3.2971
  678MOL0     H93557   9.567   7.407   0.598  2.5544 -2.2174 -0.0670
  678MOL0     H93558   9.457   7.469   0.875  2.3069 -0.1386 -0.6108
  678MOL0     H93559   9.359   7.393   0.749 -2.0850  3.1124  0.4496
  678MOL0     H93560   9.293   7.776   0.647 -1.8317 -1.2327  0.3261
  678MOL0     H93561   9.853   7.098   0.920 -1.6932  0.7934  1.3731
  678MOL0     H93562  10.089   6.951   1.143 -0.3436 -0.6300  1.1778
  678MOL0     H93563   9.923   6.971   1.192  0.3439 -1.3829 -0.1052
  678MOL0     H93564   9.969   6.932   1.018  0.5330  0.1193  0.4058
  679MOL0     O93565   7.551   7.036   2.051 -0.1805 -0.4509  0.5493
  679MOL0     C93566   7.512   7.107   1.958 -0.6614  0.2171 -0.2633
  679MOL0     O93567   7.392   7.162   1.955 -0.2119  0.3987  0.5382
  679MOL0     C93568   7.283   7.102   2.016  0.3209  0.0255 -1.6463
  679MOL0     C93569   7.273   7.072   2.160 -0.4020  0.1318  0.3713
  679MOL0     C93570   7.168   7.011   2.223  0.5132 -1.1008 -0.8303
  679MOL0     C93571   7.071   6.953   2.145  0.0435 -0.2097  0.0909
  679MOL0     O93572   6.969   6.897   2.212  0.8019  0.3287 -0.2064
  679MOL0     C93573   6.868   6.799   2.169 -0.0027 -0.2193 -1.0022
  679MOL0     C93574   6.788   6.764   2.290  0.4343  0.3756 -0.3741
  679MOL0     C93575   6.726   6.624   2.295  0.3413  0.2902  0.1773
  679MOL0     C93576   6.588   6.629   2.356  0.5593 -0.3184 -0.2954
  679MOL0     C93577   6.590   6.646   2.509 -0.8565  0.3369 -1.0013
  679MOL0     C93578   6.592   6.795   2.565  1.2128  0.8967  0.1807
  679MOL0     C93579   6.582   6.795   2.723 -0.1383  0.0698  0.4185
  679MOL0     C93580   6.697   6.726   2.792 -0.7479 -0.0005  0.2930
  679MOL0     N93581   6.835   6.758   2.740 -0.2263 -0.7508  0.2059
  679MOL0     C93582   6.913   6.866   2.769  0.5077  0.5329  0.2541
  679MOL0     C93583   7.013   6.859   2.685  0.0157 -0.1430 -0.3921
  679MOL0     C93584   7.140   6.934   2.670  0.3064  0.5413  1.0922
  679MOL0     C93585   7.118   7.078   2.617 -0.8337 -0.1200  0.6192
  679MOL0     C93586   7.262   7.123   2.595  0.8302  0.3079  0.5604
  679MOL0     C93587   7.267   7.266   2.534 -0.3384 -0.0812  1.1248
  679MOL0     O93588   7.207   7.365   2.624  0.4025 -0.0858 -0.1105
  679MOL0     C93589   7.280   7.424   2.719  0.0606 -1.3774 -0.7002
  679MOL0     C93590   7.207   7.503   2.817  0.2644 -0.2902 -0.0106
  679MOL0     C93591   7.264   7.581   2.921 -0.1674  0.9320 -0.7417
  679MOL0     C93592   7.178   7.669   3.007  0.3438  0.0601  0.2503
  679MOL0     C93593   7.401   7.562   2.935  0.0582  0.4690 -0.1958
  679MOL0     C93594   7.472   7.628   3.049  0.9235 -1.2252 -0.4701
  679MOL0     O93595   7.602   7.659   3.040  0.0268  0.8565  1.0273
  679MOL0     C93596   7.677   7.738   3.125  0.2614  0.7850 -0.0870
  679MOL0     C93597   7.630   7.815   3.241  0.1162 -0.4673  0.3544
  679MOL0     C93598   7.727   7.887   3.323  0.6306  0.4577  0.1823
  679MOL0     C93599   7.859   7.901   3.282  0.5250 -0.7278  1.2021
  679MOL0     O93600   7.962   7.967   3.344  0.2453  0.4716 -0.3192
  679MOL0     C93601   7.973   7.970   3.482 -0.5574 -0.0834 -0.8453
  679MOL0     C93602   8.060   7.855   3.529  0.5687 -0.2377  0.1559
  679MOL0     C93603   8.207   7.866   3.486  0.0899  0.1666  0.5399
  679MOL0     C93604   8.277   7.738   3.521 -0.0592 -1.1871 -0.3350
  679MOL0     C93605   8.424   7.740   3.497 -0.2988 -0.4892 -0.4903
  679MOL0     C93606   8.459   7.725   3.353  0.6770  0.1992 -0.0483
  679MOL0     C93607   8.614   7.723   3.326  1.1370 -0.4677  0.6901
  679MOL0     C93608   8.695   7.614   3.402 -0.2595 -0.6274  1.0539
  679MOL0    Cl93609   8.623   7.461   3.355  0.0634  0.1261  0.0330
  679MOL0     C93610   7.899   7.849   3.161 -0.0763 -0.0765 -0.1749
  679MOL0     C93611   7.813   7.762   3.090 -0.2411  0.5548 -0.1289
  679MOL0     O93612   7.411   7.650   3.150 -0.0088 -0.2502 -0.5008
  679MOL0     C93613   7.475   7.478   2.854 -0.4948  0.2099  0.8646
  679MOL0     C93614   7.415   7.403   2.749 -0.1034 -0.8898 -0.0591
  679MOL0     N93615   7.003   6.738   2.610 -0.5210 -0.5974 -0.2189
  679MOL0     N93616   6.895   6.675   2.653  0.8352  0.2686  0.5254
  679MOL0     C93617   7.073   6.964   2.005 -0.1241  0.1811  0.0319
  679MOL0     C93618   7.178   7.043   1.940  0.4208 -0.4787 -0.5786
  679MOL0     C93619   7.618   7.160   1.868  0.8210 -0.2823 -0.0129
  679MOL0     C93620   7.751   7.191   1.909  0.6894  0.0072 -0.4826
  679MOL0     C93621   7.833   7.262   1.828 -0.4292  0.1362  0.5489
  679MOL0     C93622   7.797   7.307   1.703  0.7001 -0.1982 -0.3748
  679MOL0     O93623   7.901   7.359   1.641 -0.8908 -0.8620 -0.1993
  679MOL0     C93624   7.891   7.417   1.505 -0.5669  0.2684 -0.3933
  679MOL0     C93625   8.006   7.501   1.459 -0.1101  0.2699 -0.0452
  679MOL0     C93626   8.144   7.439   1.501 -0.6685 -0.6688 -0.7647
  679MOL0     C93627   8.252   7.530   1.463  0.0513  0.0253 -0.8109
  679MOL0     C93628   8.308   7.510   1.323 -0.8177 -0.4178  0.0718
  679MOL0     C93629   8.373   7.494   1.226  0.4526  0.8198 -0.1696
  679MOL0     C93630   7.671   7.267   1.652 -0.1647 -0.0312  0.2647
  679MOL0     C93631   7.584   7.190   1.732 -0.8928 -1.4845  0.1775
  679MOL0     C93632   7.470   7.136   1.648  0.1410  0.5742  0.0732
  679MOL0     H93633   7.358   7.119   2.206 -0.3501  2.6707 -2.0289
  679MOL0     H93634   7.160   7.020   2.331 -1.6824  1.7443 -1.0997
  679MOL0     H93635   6.919   6.708   2.134 -1.5555 -2.8580  2.9212
  679MOL0     H93636   6.798   6.840   2.096 -0.4419  1.6059  0.3630
  679MOL0     H93637   6.849   6.782   2.378 -0.6986  2.5082  0.0231
  679MOL0     H93638   6.701   6.829   2.287 -0.2469 -0.3896  1.5831
  679MOL0     H93639   6.703   6.600   2.191 -0.2789 -1.1118  0.6108
  679MOL0     H93640   6.798   6.547   2.326  1.7624 -0.7385 -4.7237
  679MOL0     H93641   6.524   6.712   2.326  0.3405  0.3728  1.8754
  679MOL0     H93642   6.534   6.540   2.324 -1.1019  1.1174 -1.6957
  679MOL0     H93643   6.680   6.598   2.548  0.8132  2.2598 -2.3024
  679MOL0     H93644   6.504   6.587   2.543  0.1908 -1.1596 -0.8657
  679MOL0     H93645   6.680   6.847   2.525  1.1341 -0.0134 -1.2280
  679MOL0     H93646   6.505   6.848   2.524  2.0390  0.9807 -1.5625
  679MOL0     H93647   6.489   6.745   2.752  1.3926 -4.2518 -1.2790
  679MOL0     H93648   6.593   6.893   2.771  1.0787  0.3600 -0.4034
  679MOL0     H93649   6.698   6.755   2.898  1.6463 -2.1157  0.9413
  679MOL0     H93650   6.692   6.617   2.793  2.8428 -0.2584  0.5019
  679MOL0     H93651   6.897   6.951   2.835  1.6891  0.5771  0.4959
  679MOL0     H93652   7.211   6.875   2.610 -0.3417  0.4482  0.4044
  679MOL0     H93653   7.197   6.942   2.763  3.1257 -0.3987 -0.4228
  679MOL0     H93654   7.053   7.080   2.529  0.5370 -1.4395 -0.4689
  679MOL0     H93655   7.072   7.139   2.695  1.0323  2.3054 -0.0333
  679MOL0     H93656   7.313   7.118   2.691  1.4150  0.6866  0.2690
  679MOL0     H93657   7.305   7.059   2.517 -0.2918 -1.4356  1.2885
  679MOL0     H93658   7.371   7.289   2.512 -0.8171  2.0455  0.8777
  679MOL0     H93659   7.230   7.275   2.432 -1.6501 -1.8303  1.4117
  679MOL0     H93660   7.100   7.500   2.804  0.1691 -2.1661  0.8925
  679MOL0     H93661   7.223   7.768   3.021 -0.5328  0.7804 -1.7230
  679MOL0     H93662   7.152   7.627   3.105 -0.6950  0.8067  0.3087
  679MOL0     H93663   7.081   7.689   2.961  0.5568  3.5074  1.0400
  679MOL0     H93664   7.529   7.814   3.279  0.3939 -4.4409  1.5223
  679MOL0     H93665   7.698   7.929   3.419  3.6112  0.7348  1.0962
  679MOL0     H93666   8.030   8.056   3.519 -0.3880 -0.5087 -0.1125
  679MOL0     H93667   7.880   7.961   3.540  0.5175 -0.5175  0.9000
  679MOL0     H93668   8.056   7.851   3.638  2.4697  2.7172  0.4492
  679MOL0     H93669   8.016   7.764   3.487 -5.3326  1.2659  2.0982
  679MOL0     H93670   8.254   7.944   3.547  0.4401  1.2854 -1.0894
  679MOL0     H93671   8.216   7.890   3.379 -0.0235 -3.4100 -0.3990
  679MOL0     H93672   8.230   7.663   3.457 -2.0647 -1.4758  1.3845
  679MOL0     H93673   8.249   7.705   3.621 -4.3854  2.5970 -0.0068
  679MOL0     H93674   8.459   7.839   3.528 -2.1806  0.9280 -2.5844
  679MOL0     H93675   8.471   7.655   3.548 -0.4871 -0.2489  0.0938
  679MOL0     H93676   8.415   7.813   3.306  2.6138  1.6386  0.6862
  679MOL0     H93677   8.406   7.642   3.307 -2.9155  0.6897  2.7685
  679MOL0     H93678   8.641   7.825   3.355 -1.1964  1.0812 -2.0397
  679MOL0     H93679   8.623   7.726   3.217 -0.7427  0.2830  0.5099
  679MOL0     H93680   8.692   7.625   3.511 -1.1566 -0.3333  1.0128
  679MOL0     H93681   8.801   7.612   3.376 -0.4410  0.1778  0.1734
  679MOL0     H93682   8.003   7.865   3.133  0.1555  1.6499  1.4746
  679MOL0     H93683   7.852   7.718   2.999  0.2185  0.7661 -0.0371
  679MOL0     H93684   7.579   7.451   2.863 -0.4246 -0.4151 -1.3687
  679MOL0     H93685   7.478   7.340   2.686  1.5244 -1.7455  2.2777
  679MOL0     H93686   7.001   6.910   1.945 -0.7261  0.9636  0.0420
  679MOL0     H93687   7.170   7.047   1.832 -2.2760 -0.1912 -0.4549
  679MOL0     H93688   7.781   7.157   2.007  0.0363 -2.7341 -1.1397
  679MOL0     H93689   7.932   7.287   1.863  0.2055  0.7652 -1.5702
  679MOL0     H93690   7.898   7.330   1.439 -1.1025 -2.2103  2.5744
  679MOL0     H93691   7.798   7.473   1.495 -0.0928  1.4255  1.1606
  679MOL0     H93692   7.988   7.597   1.507 -1.2205  0.1653 -0.2268
  679MOL0     H93693   8.002   7.511   1.350  2.4602 -1.0565 -0.3348
  679MOL0     H93694   8.144   7.441   1.610  0.6360 -2.2709 -0.6840
  679MOL0     H93695   8.155   7.334   1.471 -0.0087 -0.3925 -1.5179
  679MOL0     H93696   8.337   7.526   1.533 -0.8712  4.1872  0.8609
  679MOL0     H93697   8.211   7.631   1.471 -0.1354 -0.0778 -0.4516
  679MOL0     H93698   8.418   7.490   1.129 -0.4212 -0.0362 -0.5540
  679MOL0     H93699   7.645   7.314   1.558 -0.6829 -0.0830  0.3775
  679MOL0     H93700   7.439   7.216   1.580 -0.0286  1.6547  1.3910
  679MOL0     H93701   7.527   7.055   1.601  0.1898 -0.7380  2.2752
  679MOL0     H93702   7.388   7.087   1.702  0.2574 -0.6414 -0.7935
  680MOL0     O93703   9.042   7.405   6.334  0.1382  0.4297 -0.0775
  680MOL0     C93704   9.056   7.283   6.314  0.3230 -0.3484  0.0133
  680MOL0     O93705   9.179   7.219   6.316 -0.2616 -0.2829  0.3172
  680MOL0     C93706   9.288   7.289   6.329  0.0188 -0.4753  0.5092
  680MOL0     C93707   9.339   7.318   6.454 -0.0421  0.0163 -0.3209
  680MOL0     C93708   9.458   7.392   6.463 -0.3802 -0.1551 -0.3769
  680MOL0     C93709   9.527   7.441   6.352 -0.5484 -0.1414 -0.6290
  680MOL0     O93710   9.639   7.529   6.351  0.3720 -0.3920 -0.2238
  680MOL0     C93711   9.689   7.598   6.459 -0.4551 -0.1822 -0.5095
  680MOL0     C93712   9.820   7.658   6.414 -0.7566  0.5533 -0.4553
  680MOL0     C93713   9.931   7.555   6.429  0.3628 -0.4026 -0.6123
  680MOL0     C93714  10.064   7.616   6.396  0.9517 -0.2208 -0.3876
  680MOL0     C93715  10.177   7.518   6.422 -0.0863 -0.4716  1.0938
  680MOL0     C93716  10.311   7.594   6.375 -0.2436  0.7008 -0.4762
  680MOL0     C93717  10.414   7.496   6.334 -0.4537 -0.2014 -0.5484
  680MOL0     C93718  10.545   7.559   6.272  1.1186 -0.2243 -0.0801
  680MOL0     N93719  10.646   7.458   6.254 -0.2724 -0.4642  0.3912
  680MOL0     C93720  10.731   7.416   6.350  0.6216 -0.1332  1.8428
  680MOL0     C93721  10.817   7.334   6.289  0.3314 -1.0695 -0.2291
  680MOL0     C93722  10.919   7.276   6.371 -0.3124 -0.3520 -0.1251
  680MOL0     C93723  10.865   7.161   6.462 -0.0912  0.0967  0.4005
  680MOL0     C93724  10.814   7.030   6.384 -0.3085  0.5108 -1.0352
  680MOL0     C93725  10.710   6.949   6.471  0.1096 -1.2346  0.0788
  680MOL0     O93726  10.753   6.903   6.598  0.8687 -0.0789  0.0875
  680MOL0     C93727  10.662   6.848   6.689 -0.3483  0.3726 -0.6568
  680MOL0     C93728  10.551   6.771   6.653  0.2453  0.0351 -0.0307
  680MOL0     C93729  10.470   6.711   6.749 -0.7699 -0.5578  0.2919
  680MOL0     C93730  10.351   6.625   6.689 -0.5984 -0.0722  0.2735
  680MOL0     C93731  10.500   6.730   6.882 -0.4252 -0.1094  0.0159
  680MOL0     C93732  10.421   6.672   6.999  0.0992 -0.2078 -0.1599
  680MOL0     O93733  10.287   6.678   6.990 -0.9959  0.2386  0.6254
  680MOL0     C93734  10.191   6.625   7.079  0.0964 -0.3909 -0.0785
  680MOL0     C93735  10.059   6.685   7.076 -0.5480 -0.3450 -0.9247
  680MOL0     C93736   9.957   6.624   7.163 -0.2357 -0.0047  0.4522
  680MOL0     C93737   9.969   6.500   7.216 -0.2517  0.6493 -0.4571
  680MOL0     O93738   9.859   6.428   7.268 -0.0353  1.3529  0.0710
  680MOL0     C93739   9.724   6.482   7.264  0.0669  0.2765 -0.3905
  680MOL0     C93740   9.629   6.386   7.334  0.1164  0.2144 -1.7378
  680MOL0     C93741   9.643   6.387   7.488 -0.7784 -0.8051  0.6041
  680MOL0     C93742   9.528   6.314   7.563  0.3775 -0.5459  0.1547
  680MOL0     C93743   9.421   6.407   7.613  0.0881  0.5170  0.3206
  680MOL0     C93744   9.452   6.495   7.737 -0.8472 -1.0715 -1.3441
  680MOL0     C93745   9.336   6.558   7.807 -0.3795 -1.1346  0.1316
  680MOL0     C93746   9.379   6.633   7.938  0.3740 -0.7220  0.8333
  680MOL0    Cl93747   9.448   6.531   8.076  0.3530 -0.0835 -0.0578
  680MOL0     C93748  10.097   6.435   7.206  0.8994  0.4352  0.4131
  680MOL0     C93749  10.206   6.500   7.148  0.4224  0.2849  0.2516
  680MOL0     O93750  10.483   6.641   7.094  0.9133 -0.2688 -0.1236
  680MOL0     C93751  10.616   6.803   6.917  0.3958 -0.5428 -0.3495
  680MOL0     C93752  10.695   6.866   6.820  0.2543  0.1436  0.0993
  680MOL0     N93753  10.778   7.317   6.157  0.0359  0.1840  0.5699
  680MOL0     N93754  10.675   7.401   6.130 -1.0256 -0.3707  0.4803
  680MOL0     C93755   9.471   7.409   6.226 -0.4669 -0.7148 -0.3236
  680MOL0     C93756   9.361   7.326   6.214  0.1118 -0.3455  0.0856
  680MOL0     C93757   8.937   7.200   6.292 -0.0779 -0.1356 -0.4310
  680MOL0     C93758   8.952   7.062   6.306 -0.6544 -0.2146 -0.5560
  680MOL0     C93759   8.855   6.976   6.268 -0.1142  0.3510 -0.5898
  680MOL0     C93760   8.733   7.007   6.222  0.9930 -1.8379  0.1357
  680MOL0     O93761   8.648   6.927   6.163  0.1660  0.0121 -0.1188
  680MOL0     C93762   8.674   6.784   6.164  0.1386  0.0771  1.0408
  680MOL0     C93763   8.766   6.748   6.053 -0.0772 -0.1374  0.0927
  680MOL0     C93764   8.806   6.602   6.052  0.2943 -0.1366  0.0638
  680MOL0     C93765   8.886   6.559   5.928  0.2482  0.7932  0.5857
  680MOL0     C93766   9.012   6.623   5.920  0.6114 -0.1302 -0.1313
  680MOL0     C93767   9.122   6.663   5.932  1.1699  0.1457 -0.2853
  680MOL0     C93768   8.706   7.145   6.212 -0.2419 -0.1144  0.2409
  680MOL0     C93769   8.805   7.247   6.259  0.1893 -1.2148 -0.1078
  680MOL0     C93770   8.766   7.395   6.250 -0.2922 -0.0033  0.1300
  680MOL0     H93771   9.296   7.299   6.551  1.3925  1.3324  0.6296
  680MOL0     H93772   9.495   7.415   6.562  0.7516  1.4424 -1.1283
  680MOL0     H93773   9.710   7.530   6.543  0.8942 -1.8288 -2.0837
  680MOL0     H93774   9.625   7.680   6.490  0.1166  0.3813 -0.8015
  680MOL0     H93775   9.807   7.701   6.314  0.2167  0.2480 -0.7154
  680MOL0     H93776   9.846   7.742   6.479  1.0858  0.3513 -0.8766
  680MOL0     H93777   9.928   7.541   6.537  0.3987  1.0755 -0.3975
  680MOL0     H93778   9.906   7.465   6.373 -2.1501  1.0065 -1.9192
  680MOL0     H93779  10.060   7.656   6.294 -1.0248 -0.7253 -0.5495
  680MOL0     H93780  10.084   7.702   6.460  1.7659  0.0674 -1.0123
  680MOL0     H93781  10.163   7.429   6.360  1.4312  0.0595 -0.0784
  680MOL0     H93782  10.186   7.484   6.525  0.3006 -0.5852  1.0231
  680MOL0     H93783  10.283   7.661   6.293 -1.4661  3.6069  2.1359
  680MOL0     H93784  10.347   7.659   6.455 -3.8355  0.8196  1.2641
  680MOL0     H93785  10.366   7.428   6.262  0.9533 -0.0564 -1.6718
  680MOL0     H93786  10.455   7.444   6.421 -0.6631  0.3226 -0.1372
  680MOL0     H93787  10.530   7.605   6.174  0.3999  1.3499  0.7288
  680MOL0     H93788  10.583   7.634   6.342  0.3198  0.0648  0.0566
  680MOL0     H93789  10.735   7.462   6.448 -1.3977  2.2985  0.9130
  680MOL0     H93790  10.973   7.348   6.433  0.1468 -1.8117  1.2189
  680MOL0     H93791  10.992   7.241   6.298  0.4754  1.3082 -0.1770
  680MOL0     H93792  10.946   7.129   6.527 -0.9339 -2.5259  0.3027
  680MOL0     H93793  10.785   7.203   6.524  0.2327  0.0839  0.8284
  680MOL0     H93794  10.771   7.046   6.284 -2.0657 -0.2915 -0.4480
  680MOL0     H93795  10.903   6.967   6.373  0.1970  0.8576  0.8134
  680MOL0     H93796  10.636   7.030   6.479  2.3390  0.9618 -0.4153
  680MOL0     H93797  10.675   6.870   6.404 -2.7698  0.6763 -0.8716
  680MOL0     H93798  10.517   6.756   6.551  1.1726 -5.1879  0.1887
  680MOL0     H93799  10.261   6.621   6.751 -0.3801  0.2334  0.6174
  680MOL0     H93800  10.373   6.518   6.696  0.3713  0.1863  1.9815
  680MOL0     H93801  10.326   6.657   6.588 -1.0392 -0.2024  0.3411
  680MOL0     H93802  10.046   6.780   7.025 -1.1939 -0.4156 -0.8965
  680MOL0     H93803   9.871   6.690   7.170 -0.0008  0.1962  1.9702
  680MOL0     H93804   9.733   6.585   7.300  0.3209  0.8077 -1.8806
  680MOL0     H93805   9.685   6.484   7.162  0.6251 -1.5660 -0.6786
  680MOL0     H93806   9.524   6.412   7.318 -0.2330 -0.8047 -1.1557
  680MOL0     H93807   9.651   6.289   7.289  1.7281  1.3321 -3.5707
  680MOL0     H93808   9.629   6.488   7.528  4.1394  0.1948  0.4286
  680MOL0     H93809   9.742   6.352   7.520 -0.7218 -0.8689  0.3583
  680MOL0     H93810   9.579   6.262   7.645  0.0991 -1.0284  0.0242
  680MOL0     H93811   9.485   6.238   7.497  3.9235 -0.7582 -2.2141
  680MOL0     H93812   9.384   6.475   7.536 -0.6368 -0.9994 -0.7052
  680MOL0     H93813   9.324   6.363   7.640  0.4405  0.0240  0.8215
  680MOL0     H93814   9.531   6.567   7.717 -1.9218  0.6406  0.2880
  680MOL0     H93815   9.484   6.413   7.802 -1.5717 -1.9245 -2.0272
  680MOL0     H93816   9.252   6.490   7.825  0.3045 -1.6187  1.5921
  680MOL0     H93817   9.297   6.631   7.735 -1.4324 -0.0473  1.7354
  680MOL0     H93818   9.298   6.694   7.979 -0.1170 -0.8238  0.0536
  680MOL0     H93819   9.461   6.696   7.902 -0.6965  0.0612 -0.3129
  680MOL0     H93820  10.118   6.334   7.239 -0.7372 -0.3157 -0.7271
  680MOL0     H93821  10.302   6.450   7.142  0.2845  0.0866 -0.3788
  680MOL0     H93822  10.647   6.812   7.021 -2.2293 -1.4314  0.5824
  680MOL0     H93823  10.784   6.923   6.846 -0.1401  0.0468  1.8175
  680MOL0     H93824   9.525   7.414   6.132 -0.4550 -1.9383 -0.4076
  680MOL0     H93825   9.324   7.315   6.113 -2.4213  2.7652  0.4917
  680MOL0     H93826   9.054   7.026   6.316 -0.6568 -0.1760 -0.3850
  680MOL0     H93827   8.886   6.872   6.279 -4.0028 -0.9784 -0.7800
  680MOL0     H93828   8.700   6.747   6.263 -2.2187  0.7917  2.0084
  680MOL0     H93829   8.578   6.734   6.150  0.1452 -0.4954  2.7897
  680MOL0     H93830   8.847   6.822   6.054 -2.1318  2.2556  0.7793
  680MOL0     H93831   8.708   6.763   5.962 -3.0097 -2.5278  1.4163
  680MOL0     H93832   8.853   6.574   6.146 -0.0816  2.8505  1.2556
  680MOL0     H93833   8.716   6.540   6.048 -0.0641  0.0417  3.2716
  680MOL0     H93834   8.823   6.572   5.839  1.9985  3.7938 -0.3346
  680MOL0     H93835   8.903   6.451   5.923 -0.6783  0.6908 -2.1248
  680MOL0     H93836   9.217   6.699   5.966  1.4327 -0.7093 -0.0755
  680MOL0     H93837   8.617   7.169   6.155  0.2465  1.4575  0.1086
  680MOL0     H93838   8.665   7.430   6.226  0.4385  1.7417 -0.6066
  680MOL0     H93839   8.784   7.442   6.347 -1.9904 -0.6502  0.7932
  680MOL0     H93840   8.838   7.443   6.182  0.5469 -1.8531 -0.3408
  681MOL0     O93841   5.907   1.585   4.589 -0.2382  0.8439  0.3045
  681MOL0     C93842   5.890   1.486   4.515  1.9804  0.0985  0.8505
  681MOL0     O93843   5.965   1.435   4.415  0.3971  0.0615 -0.3291
  681MOL0     C93844   6.084   1.500   4.377  0.1204 -0.3280  0.5036
  681MOL0     C93845   6.169   1.575   4.454  0.5642 -0.2963  0.2973
  681MOL0     C93846   6.269   1.653   4.398  0.3132 -0.2236 -0.0685
  681MOL0     C93847   6.301   1.641   4.265 -0.1930  1.5058  0.4608
  681MOL0     O93848   6.400   1.718   4.219 -0.5238 -0.6528  0.7663
  681MOL0     C93849   6.457   1.685   4.089  0.0909  0.2402  0.6551
  681MOL0     C93850   6.582   1.763   4.053 -1.2794  0.2517  0.1209
  681MOL0     C93851   6.711   1.731   4.135  0.6305  0.0417 -0.3449
  681MOL0     C93852   6.732   1.574   4.137  1.2504 -0.2304 -1.0912
  681MOL0     C93853   6.859   1.539   4.220 -0.3708  0.6229  0.1331
  681MOL0     C93854   6.999   1.586   4.164  0.7916  0.7261  0.8954
  681MOL0     C93855   7.037   1.491   4.052  0.3304 -0.3193  0.7237
  681MOL0     C93856   7.100   1.368   4.113 -0.0973 -0.0502  1.1181
  681MOL0     N93857   7.163   1.283   4.008  0.6715  0.1765 -0.5323
  681MOL0     C93858   7.293   1.303   3.975  0.7240 -1.5323 -0.2788
  681MOL0     C93859   7.313   1.211   3.868 -0.3248 -0.6076  0.4396
  681MOL0     C93860   7.446   1.199   3.794  0.0479  0.3238 -0.0771
  681MOL0     C93861   7.566   1.170   3.882  0.2149  0.3188  1.1397
  681MOL0     C93862   7.697   1.176   3.801 -0.1121  0.5561  0.9445
  681MOL0     C93863   7.699   1.096   3.666 -0.4774  0.2043  0.3266
  681MOL0     O93864   7.843   1.075   3.631  0.1854  0.1422 -0.2566
  681MOL0     C93865   7.914   0.965   3.670  0.7563  0.4324 -0.1477
  681MOL0     C93866   7.865   0.854   3.754  0.6563 -0.4103  0.0265
  681MOL0     C93867   7.949   0.748   3.808  0.2198  0.2160  0.4169
  681MOL0     C93868   7.870   0.642   3.881 -0.9640  0.6930  0.1400
  681MOL0     C93869   8.091   0.754   3.793 -0.4335  0.4036  0.3474
  681MOL0     C93870   8.206   0.687   3.862 -0.4163  1.1754 -0.0071
  681MOL0     O93871   8.182   0.617   3.976 -0.5843  0.3751 -0.9588
  681MOL0     C93872   8.279   0.550   4.051  0.3963  0.1985  0.0791
  681MOL0     C93873   8.322   0.426   4.011  0.3529  0.2432  0.2554
  681MOL0     C93874   8.412   0.350   4.091  0.3704 -0.3989 -0.0914
  681MOL0     C93875   8.468   0.401   4.201 -0.0192  0.7462  0.0314
  681MOL0     O93876   8.552   0.332   4.281  0.5236  0.4241  0.2695
  681MOL0     C93877   8.488   0.242   4.373  0.3477  0.8353 -0.4319
  681MOL0     C93878   8.473   0.305   4.508  0.1758 -0.8348 -0.3562
  681MOL0     C93879   8.357   0.265   4.598  0.4727 -0.2822  1.0828
  681MOL0     C93880   8.220   0.314   4.555 -0.2854 -0.8308 -0.2448
  681MOL0     C93881   8.102   0.242   4.626 -0.9861 -0.5739 -0.2016
  681MOL0     C93882   8.069   0.107   4.557 -0.0797 -0.1327 -0.3532
  681MOL0     C93883   7.923   0.053   4.575 -0.1548 -0.4089 -0.0827
  681MOL0     C93884   7.884   0.004   4.710  0.1406  0.0746  0.5422
  681MOL0    Cl93885   8.009  -0.116   4.751  0.2352  0.6219 -0.0815
  681MOL0     C93886   8.421   0.522   4.255 -0.3305  0.2542 -0.2552
  681MOL0     C93887   8.321   0.593   4.178 -1.1332 -0.1642 -0.3679
  681MOL0     O93888   8.318   0.699   3.810  0.1289 -0.4473  0.0061
  681MOL0     C93889   8.132   0.861   3.707  0.1493  0.4813 -1.1773
  681MOL0     C93890   8.050   0.959   3.650 -0.3022 -0.1811  0.2296
  681MOL0     N93891   7.204   1.132   3.853 -0.3949  0.3116 -0.3804
  681MOL0     N93892   7.114   1.183   3.930 -0.9955 -0.2121 -0.1699
  681MOL0     C93893   6.225   1.547   4.185 -0.0434  0.7998 -0.0060
  681MOL0     C93894   6.118   1.480   4.243 -0.8770 -0.3998 -0.3503
  681MOL0     C93895   5.763   1.406   4.534  0.3723  0.8867 -0.3302
  681MOL0     C93896   5.736   1.292   4.457 -0.7527 -0.6794  0.1746
  681MOL0     C93897   5.623   1.216   4.471  0.4235 -0.1291 -0.1882
  681MOL0     C93898   5.519   1.241   4.566 -0.5356 -1.4923  0.7117
  681MOL0     O93899   5.397   1.180   4.589 -0.9703 -0.9555  0.2890
  681MOL0     C93900   5.358   1.064   4.515  1.0226  1.0701  0.0807
  681MOL0     C93901   5.297   1.129   4.383 -0.3229  0.5059  0.4170
  681MOL0     C93902   5.143   1.155   4.381  0.5007 -0.3372 -1.1467
  681MOL0     C93903   5.105   1.287   4.456 -0.4479 -0.7421  0.4784
  681MOL0     C93904   4.969   1.329   4.438 -0.1415  0.2098  0.1429
  681MOL0     C93905   4.860   1.380   4.427  0.4730  0.2191 -0.0067
  681MOL0     C93906   5.565   1.335   4.656 -0.0402 -0.4978  0.1035
  681MOL0     C93907   5.678   1.426   4.639  0.8701 -0.3432 -0.2744
  681MOL0     C93908   5.687   1.528   4.749 -0.2189  0.0143  1.0512
  681MOL0     H93909   6.160   1.572   4.562  2.2106  0.4031  0.4749
  681MOL0     H93910   6.325   1.718   4.464 -2.0462 -1.1458  3.0450
  681MOL0     H93911   6.383   1.710   4.013  0.9743  2.7484  0.5212
  681MOL0     H93912   6.468   1.576   4.083  0.1874  0.2889 -0.3126
  681MOL0     H93913   6.603   1.764   3.945 -0.3802  2.3031  0.2651
  681MOL0     H93914   6.570   1.871   4.060 -0.0263  0.4294 -0.2157
  681MOL0     H93915   6.800   1.784   4.100  2.0161 -0.9280  1.5208
  681MOL0     H93916   6.687   1.768   4.234  0.7455  0.3255 -0.4208
  681MOL0     H93917   6.644   1.520   4.173 -0.7652  1.7062 -2.7980
  681MOL0     H93918   6.759   1.534   4.039  2.3383 -0.9287 -0.5307
  681MOL0     H93919   6.856   1.431   4.243 -0.7082  0.7465  0.6990
  681MOL0     H93920   6.855   1.591   4.316 -0.3017  0.7852  0.0488
  681MOL0     H93921   6.986   1.686   4.122  2.5450  1.4343  1.9319
  681MOL0     H93922   7.077   1.594   4.240  1.6644  2.7082 -0.1234
  681MOL0     H93923   7.106   1.530   3.976  1.6698 -3.0547  0.3909
  681MOL0     H93924   6.946   1.464   3.998  1.3012 -0.8599 -0.7193
  681MOL0     H93925   7.174   1.402   4.185  1.4551  1.6011 -1.1057
  681MOL0     H93926   7.022   1.307   4.160  0.8145 -0.7556  1.7366
  681MOL0     H93927   7.349   1.389   4.011 -1.8769 -1.3633  4.0016
  681MOL0     H93928   7.472   1.294   3.745  1.3079 -0.5525 -1.1793
  681MOL0     H93929   7.429   1.129   3.712 -0.2152 -2.1195  1.9457
  681MOL0     H93930   7.573   1.241   3.965 -0.4324  1.5823  0.1433
  681MOL0     H93931   7.561   1.065   3.913 -0.7245  0.1294  0.4000
  681MOL0     H93932   7.734   1.276   3.775 -0.9969  0.6535  0.0263
  681MOL0     H93933   7.779   1.133   3.859  0.4225  0.7991  0.3729
  681MOL0     H93934   7.643   1.003   3.682 -0.2121  0.4718  3.3959
  681MOL0     H93935   7.650   1.155   3.588  2.0791  0.2543 -1.3722
  681MOL0     H93936   7.758   0.838   3.761  0.8928 -2.1004  0.3088
  681MOL0     H93937   7.808   0.579   3.816 -0.5926  0.1906  0.2660
  681MOL0     H93938   7.799   0.698   3.942 -0.9767  1.1350 -0.2734
  681MOL0     H93939   7.922   0.569   3.943 -0.7262 -1.2550 -2.2055
  681MOL0     H93940   8.281   0.396   3.916 -0.8816  0.0481  0.8258
  681MOL0     H93941   8.432   0.248   4.059  1.2690  0.0010 -0.8650
  681MOL0     H93942   8.391   0.208   4.336  0.9678 -0.5815 -0.8544
  681MOL0     H93943   8.552   0.153   4.382  0.0949  0.5326 -1.4201
  681MOL0     H93944   8.563   0.274   4.562 -0.8884 -1.6867  1.0066
  681MOL0     H93945   8.456   0.413   4.505 -2.0125 -1.1378 -0.7400
  681MOL0     H93946   8.372   0.281   4.705  1.0992  0.1183  0.9385
  681MOL0     H93947   8.351   0.156   4.596  1.0901 -0.3748  2.9840
  681MOL0     H93948   8.215   0.301   4.446  0.2534 -1.6537 -0.1812
  681MOL0     H93949   8.213   0.419   4.584 -2.1002 -0.4844 -1.7923
  681MOL0     H93950   8.120   0.241   4.734 -0.6218 -1.6213 -0.2602
  681MOL0     H93951   8.012   0.303   4.621 -1.0702 -0.7035 -0.2916
  681MOL0     H93952   8.147   0.036   4.585  1.1662  0.2854 -2.5366
  681MOL0     H93953   8.068   0.120   4.448  1.7670 -3.6031 -0.9106
  681MOL0     H93954   7.914  -0.034   4.509 -0.0017 -2.9545  3.0044
  681MOL0     H93955   7.849   0.128   4.545  2.9776  2.2339 -1.9196
  681MOL0     H93956   7.781  -0.031   4.722 -0.3480  2.1046  3.1930
  681MOL0     H93957   7.901   0.092   4.772 -1.0236  1.1612 -0.6107
  681MOL0     H93958   8.462   0.563   4.347  1.7420 -1.5809 -0.2780
  681MOL0     H93959   8.279   0.683   4.221  0.9447  1.7796 -2.1823
  681MOL0     H93960   8.238   0.868   3.684  0.5938 -4.2127 -1.5305
  681MOL0     H93961   8.103   1.041   3.604  1.7826 -0.9301  1.1854
  681MOL0     H93962   6.252   1.525   4.082 -1.0848  0.1339 -0.1562
  681MOL0     H93963   6.060   1.411   4.182  0.5661  0.5545 -2.9422
  681MOL0     H93964   5.810   1.274   4.380 -0.8826  1.9301 -0.6368
  681MOL0     H93965   5.596   1.138   4.400  1.7125  0.7819 -1.7668
  681MOL0     H93966   5.440   0.992   4.510 -1.5352 -2.3044  2.3095
  681MOL0     H93967   5.283   1.014   4.576 -0.6390  3.0368 -0.2515
  681MOL0     H93968   5.311   1.051   4.308  2.3036  0.7822  0.5281
  681MOL0     H93969   5.355   1.205   4.332 -3.6392  1.0007 -3.0850
  681MOL0     H93970   5.115   1.162   4.275  2.4077  1.1339 -1.6002
  681MOL0     H93971   5.091   1.073   4.432 -1.9043  2.3246  0.9512
  681MOL0     H93972   5.163   1.366   4.409 -0.7591  0.8669  2.6386
  681MOL0     H93973   5.130   1.295   4.562 -2.5680  3.9187  0.8348
  681MOL0     H93974   4.774   1.443   4.417  0.2131  0.1245  1.4255
  681MOL0     H93975   5.513   1.350   4.750  1.2442  0.6032  0.6608
  681MOL0     H93976   5.692   1.628   4.705  0.9833  0.0300  1.1708
  681MOL0     H93977   5.595   1.518   4.808  0.6317 -2.7517  2.0807
  681MOL0     H93978   5.777   1.518   4.811 -0.3617 -0.3973  1.1922
  682MOL0     O93979   1.008   8.614   4.479 -0.2599 -0.7024 -0.5305
  682MOL0     C93980   1.032   8.558   4.589 -0.0110  0.4144  0.4000
  682MOL0     O93981   1.128   8.595   4.678  0.0565 -0.3217  0.4360
  682MOL0     C93982   1.213   8.696   4.653 -0.2669 -0.8108 -0.3031
  682MOL0     C93983   1.180   8.826   4.618 -0.2894  0.0279  0.3746
  682MOL0     C93984   1.281   8.925   4.603  0.8423 -0.2535 -0.2762
  682MOL0     C93985   1.413   8.891   4.621  0.7707  0.2891  0.6303
  682MOL0     O93986   1.504   8.991   4.614 -0.2474 -0.4549  0.5382
  682MOL0     C93987   1.645   8.953   4.609 -0.4698 -0.2733  0.3599
  682MOL0     C93988   1.720   9.086   4.610 -0.1221 -0.8564 -1.0926
  682MOL0     C93989   1.867   9.065   4.631  0.4003  0.8845 -0.5253
  682MOL0     C93990   1.951   9.036   4.508  0.1807 -0.7341 -0.0122
  682MOL0     C93991   2.095   9.019   4.552 -0.4481  0.9408 -0.2658
  682MOL0     C93992   2.168   8.970   4.422 -0.7150 -0.3569 -0.2364
  682MOL0     C93993   2.318   8.995   4.435  0.0404 -0.0338  0.2508
  682MOL0     C93994   2.370   8.992   4.297 -0.1909 -0.1341 -0.2577
  682MOL0     N93995   2.517   8.971   4.298  0.5577 -0.0373  0.4261
  682MOL0     C93996   2.588   8.974   4.175  1.0719  0.7417  0.3962
  682MOL0     C93997   2.718   8.984   4.208  0.0716 -0.6572 -0.5581
  682MOL0     C93998   2.829   9.006   4.112 -0.2172 -0.1504  0.5896
  682MOL0     C93999   2.973   9.000   4.170  0.5135  1.1682  0.6337
  682MOL0     C94000   3.072   9.057   4.064 -0.2783 -0.6559  0.2877
  682MOL0     C94001   3.227   9.060   4.093  0.7077  0.0207 -0.2190
  682MOL0     O94002   3.257   8.924   4.087  0.3140  0.6636  0.2492
  682MOL0     C94003   3.388   8.883   4.087  0.3945  0.2849 -0.4070
  682MOL0     C94004   3.416   8.742   4.108 -1.0509  0.8125  0.1181
  682MOL0     C94005   3.539   8.684   4.115 -0.5446 -0.6480 -0.0616
  682MOL0     C94006   3.551   8.533   4.135  0.7178 -1.2141 -0.4716
  682MOL0     C94007   3.652   8.767   4.094  0.2706 -0.1954  0.0182
  682MOL0     C94008   3.794   8.723   4.108  0.2727 -0.0784  0.7314
  682MOL0     O94009   3.894   8.821   4.128  0.2648  0.3747 -0.3399
  682MOL0     C94010   4.032   8.806   4.125  0.1496  0.1622 -0.2499
  682MOL0     C94011   4.094   8.688   4.117  0.5116  0.5673  0.2969
  682MOL0     C94012   4.234   8.683   4.109  0.8465  0.2210  0.6288
  682MOL0     C94013   4.317   8.796   4.114  0.0011  0.4861  0.2525
  682MOL0     O94014   4.453   8.778   4.105  0.1533  0.2547  0.2266
  682MOL0     C94015   4.528   8.876   4.170  0.0896 -0.6933 -0.0862
  682MOL0     C94016   4.675   8.819   4.164  0.9229 -0.3233 -0.3132
  682MOL0     C94017   4.701   8.680   4.225 -1.4397 -0.0891  0.4782
  682MOL0     C94018   4.849   8.627   4.221  1.1571  0.1916 -0.0361
  682MOL0     C94019   4.861   8.530   4.335  0.1821  0.0384  0.2965
  682MOL0     C94020   5.007   8.473   4.365  1.3426  0.7838 -0.1718
  682MOL0     C94021   5.058   8.386   4.247  0.2484 -0.4337 -0.3431
  682MOL0     C94022   5.190   8.327   4.273  0.3445  0.2135 -0.5919
  682MOL0    Cl94023   5.197   8.189   4.399  0.0990 -0.2668  0.3302
  682MOL0     C94024   4.253   8.921   4.132  0.0746  0.1485 -0.0452
  682MOL0     C94025   4.113   8.924   4.130  1.2585 -0.4210  0.5054
  682MOL0     O94026   3.819   8.607   4.087  0.2614 -0.3793 -0.9886
  682MOL0     C94027   3.630   8.907   4.074 -0.1962  0.2032 -0.9957
  682MOL0     C94028   3.500   8.960   4.068  0.1890  0.2508 -0.2199
  682MOL0     N94029   2.724   8.977   4.346  0.4421 -0.1545 -0.1389
  682MOL0     N94030   2.600   8.968   4.400 -0.7490  0.1304  0.6447
  682MOL0     C94031   1.449   8.754   4.640 -0.0350  0.2992 -0.0920
  682MOL0     C94032   1.346   8.662   4.659  0.1713 -1.5760 -0.4642
  682MOL0     C94033   0.922   8.464   4.635  0.3480 -0.2552 -0.0629
  682MOL0     C94034   0.799   8.520   4.689 -0.1295 -0.2027 -0.0566
  682MOL0     C94035   0.704   8.443   4.741  0.1624 -0.4373  0.6549
  682MOL0     C94036   0.713   8.307   4.741 -0.2491  0.6094  1.2866
  682MOL0     O94037   0.609   8.230   4.787  0.3330 -0.0703  0.2010
  682MOL0     C94038   0.628   8.086   4.769  0.4618 -0.1090  0.4873
  682MOL0     C94039   0.503   8.005   4.814 -0.5512  0.1322  0.6362
  682MOL0     C94040   0.374   8.053   4.752  0.7925 -0.2652 -0.4089
  682MOL0     C94041   0.257   7.951   4.764 -0.1954  0.3191 -0.2671
  682MOL0     C94042   0.143   8.010   4.697 -0.7550 -0.0669  0.1956
  682MOL0     C94043   0.041   8.058   4.653 -0.5218 -0.4526 -0.5044
  682MOL0     C94044   0.833   8.247   4.694 -0.6330  0.1628 -0.4216
  682MOL0     C94045   0.939   8.325   4.646  0.0088 -0.2075  1.1224
  682MOL0     C94046   1.062   8.260   4.578  0.3451  0.5872  0.1070
  682MOL0     H94047   1.076   8.850   4.599  0.0922  2.0551  0.6110
  682MOL0     H94048   1.255   9.026   4.573  0.1720 -0.4626 -0.4181
  682MOL0     H94049   1.671   8.896   4.519  2.0384  1.4253 -0.1016
  682MOL0     H94050   1.663   8.898   4.701 -1.8378 -1.0650  0.1753
  682MOL0     H94051   1.699   9.135   4.515 -1.3517  0.7487 -0.0542
  682MOL0     H94052   1.683   9.142   4.697  0.7418 -2.1241  0.1390
  682MOL0     H94053   1.907   9.153   4.681 -2.4668  2.0654 -0.1261
  682MOL0     H94054   1.882   8.979   4.697  0.3410  2.6126  1.8720
  682MOL0     H94055   1.910   8.951   4.453  2.3468 -1.4296 -0.6607
  682MOL0     H94056   1.944   9.120   4.437  0.4041  0.6422  1.5343
  682MOL0     H94057   2.097   8.946   4.633 -0.0154  0.4558 -0.7005
  682MOL0     H94058   2.133   9.114   4.591  0.7881 -0.1125  1.2135
  682MOL0     H94059   2.149   8.864   4.407 -0.4464 -0.8345  2.3013
  682MOL0     H94060   2.127   9.027   4.338  0.7012  2.4281  0.8373
  682MOL0     H94061   2.375   8.915   4.483  2.0037  0.6788 -0.7609
  682MOL0     H94062   2.345   9.093   4.476 -1.5261  2.2381 -3.5291
  682MOL0     H94063   2.313   8.916   4.244 -4.2281  3.1968 -1.2327
  682MOL0     H94064   2.363   9.088   4.245 -0.1321 -0.6641 -1.2668
  682MOL0     H94065   2.559   8.995   4.073  0.1705 -0.9633  0.2736
  682MOL0     H94066   2.814   9.095   4.051 -2.2961 -0.9907 -0.1885
  682MOL0     H94067   2.829   8.918   4.046  1.0414  1.4870 -1.7215
  682MOL0     H94068   2.978   9.046   4.269  1.8566 -0.5199  1.4109
  682MOL0     H94069   2.994   8.892   4.175 -0.2999  1.0219  1.3068
  682MOL0     H94070   3.057   9.001   3.971 -1.0357 -0.1901  0.1188
  682MOL0     H94071   3.035   9.158   4.046 -1.9567 -0.9361  1.8360
  682MOL0     H94072   3.271   9.133   4.026 -1.7316  0.6813 -1.1965
  682MOL0     H94073   3.219   9.095   4.197  0.3718  0.6592 -0.4555
  682MOL0     H94074   3.330   8.677   4.125 -1.8196  1.6244 -0.5741
  682MOL0     H94075   3.454   8.493   4.167  0.4001  1.5917  2.5393
  682MOL0     H94076   3.618   8.527   4.221 -0.2073  1.7924  0.5679
  682MOL0     H94077   3.583   8.479   4.045 -0.3095 -1.4749 -0.6929
  682MOL0     H94078   4.046   8.591   4.123 -1.4609  1.5455  1.4903
  682MOL0     H94079   4.274   8.583   4.098 -0.1930 -0.2548  1.1065
  682MOL0     H94080   4.528   8.976   4.124  0.2749  0.7951  2.8641
  682MOL0     H94081   4.502   8.885   4.276 -0.2977  0.9803 -0.2852
  682MOL0     H94082   4.703   8.821   4.058  0.9251  2.0879 -0.3406
  682MOL0     H94083   4.730   8.899   4.215  0.7221  1.4852 -2.7149
  682MOL0     H94084   4.650   8.613   4.156  0.5206  1.7963 -3.0691
  682MOL0     H94085   4.669   8.689   4.329 -0.6948  0.4042  0.6786
  682MOL0     H94086   4.915   8.712   4.243  2.1489 -1.1557  2.6197
  682MOL0     H94087   4.872   8.589   4.121 -0.6105  0.9638 -0.7755
  682MOL0     H94088   4.810   8.553   4.429  2.1333 -1.0917  1.7241
  682MOL0     H94089   4.801   8.452   4.288  0.3183  2.2122 -3.9001
  682MOL0     H94090   5.001   8.417   4.459 -0.9691  4.2830  1.9683
  682MOL0     H94091   5.072   8.558   4.387  1.3101  0.1155  2.9617
  682MOL0     H94092   5.067   8.453   4.162  0.0697  2.4313  1.7491
  682MOL0     H94093   4.984   8.310   4.220 -0.8869  1.1200 -1.7860
  682MOL0     H94094   5.254   8.408   4.310 -0.5571  1.1135 -0.9775
  682MOL0     H94095   5.227   8.279   4.181  0.3508  0.2053 -0.5851
  682MOL0     H94096   4.307   9.015   4.129 -2.2345  1.6156  1.0199
  682MOL0     H94097   4.059   9.018   4.125 -0.4960 -1.4296 -4.3235
  682MOL0     H94098   3.715   8.974   4.080 -0.5512  0.5321  1.4806
  682MOL0     H94099   3.488   9.066   4.049 -3.0684  0.1068  0.3571
  682MOL0     H94100   1.549   8.711   4.642 -0.5729 -1.0539 -1.1807
  682MOL0     H94101   1.365   8.557   4.680 -0.5167 -1.7295 -0.5571
  682MOL0     H94102   0.794   8.627   4.674 -1.1494 -0.4684 -1.9755
  682MOL0     H94103   0.613   8.494   4.772  0.6742  1.4002 -0.6653
  682MOL0     H94104   0.650   8.051   4.668  1.3890  0.5997  0.4287
  682MOL0     H94105   0.709   8.039   4.827 -1.7015 -0.5872  3.3484
  682MOL0     H94106   0.490   7.998   4.923 -1.8094 -1.8215  0.4013
  682MOL0     H94107   0.532   7.904   4.784  1.8177  0.9504 -0.0780
  682MOL0     H94108   0.356   8.142   4.814 -1.3128 -0.8997 -0.0407
  682MOL0     H94109   0.392   8.094   4.652  1.3634 -1.4369 -0.8059
  682MOL0     H94110   0.238   7.916   4.866 -1.5256 -1.1062 -0.9723
  682MOL0     H94111   0.294   7.866   4.705 -2.1366 -0.8797  0.1661
  682MOL0     H94112  -0.048   8.105   4.617 -0.2793 -1.2602 -2.2473
  682MOL0     H94113   0.852   8.142   4.715  3.7906  0.8896  0.1761
  682MOL0     H94114   1.162   8.278   4.619  1.6609  0.2978 -2.7315
  682MOL0     H94115   1.049   8.152   4.565 -1.7645  0.7369  0.6094
  682MOL0     H94116   1.059   8.299   4.477 -2.0306 -0.2903 -0.2271
  683MOL0     O94117   5.522   2.105   4.594  0.8344  0.0719 -0.2111
  683MOL0     C94118   5.494   2.215   4.628  0.2006 -0.3497  0.6262
  683MOL0     O94119   5.578   2.318   4.614  0.2573 -0.6424 -0.3828
  683MOL0     C94120   5.706   2.299   4.570 -0.2119  0.3563  1.0797
  683MOL0     C94121   5.739   2.307   4.432 -0.0934  0.0339 -0.2507
  683MOL0     C94122   5.868   2.272   4.386  0.0638  0.3871 -0.1141
  683MOL0     C94123   5.971   2.236   4.479  1.0454 -0.4471 -0.5023
  683MOL0     O94124   6.106   2.206   4.462  0.6603 -0.4105  0.2406
  683MOL0     C94125   6.158   2.232   4.327  0.7031 -0.7390  0.1996
  683MOL0     C94126   6.312   2.246   4.339 -0.3495 -0.2713  0.0428
  683MOL0     C94127   6.377   2.122   4.404 -0.5172  0.0930 -0.1138
  683MOL0     C94128   6.532   2.113   4.373 -0.2805 -0.0720  0.5332
  683MOL0     C94129   6.599   1.991   4.444 -0.2785 -0.1007 -0.3605
  683MOL0     C94130   6.740   1.991   4.395 -0.0165 -0.1537 -0.4818
  683MOL0     C94131   6.836   1.877   4.458  0.5163  0.6305  0.2000
  683MOL0     C94132   6.981   1.895   4.424  0.3876  0.2903  0.0213
  683MOL0     N94133   7.051   1.807   4.508  0.3933  1.1404  0.3406
  683MOL0     C94134   7.132   1.855   4.609 -0.3956 -0.6046 -0.0659
  683MOL0     C94135   7.213   1.754   4.643 -0.8609  0.1638  0.4231
  683MOL0     C94136   7.347   1.756   4.725  0.7892  0.8494 -0.1235
  683MOL0     C94137   7.456   1.827   4.648  0.1958  0.2606  0.0661
  683MOL0     C94138   7.566   1.887   4.734  0.2186 -0.3006  0.5190
  683MOL0     C94139   7.529   1.962   4.868 -0.2986  0.2899 -0.2208
  683MOL0     O94140   7.644   2.039   4.926 -0.2695  0.3238  0.8218
  683MOL0     C94141   7.753   1.993   4.996 -0.6619 -0.0200  1.5837
  683MOL0     C94142   7.838   2.086   5.060 -0.0912  0.4113 -0.0673
  683MOL0     C94143   7.958   2.051   5.128  0.2528  0.7102 -0.0563
  683MOL0     C94144   8.046   2.164   5.192  0.7856  0.1323  0.1760
  683MOL0     C94145   7.989   1.913   5.136 -0.2627  0.9316  0.1351
  683MOL0     C94146   8.113   1.850   5.204 -0.3056  0.2908 -0.3212
  683MOL0     O94147   8.116   1.718   5.234  1.1190  0.0330  0.0182
  683MOL0     C94148   8.233   1.664   5.295  1.4119  0.1781  0.0288
  683MOL0     C94149   8.286   1.547   5.239 -0.1188 -0.0385  0.1974
  683MOL0     C94150   8.393   1.483   5.300 -0.0497  0.3230 -0.3363
  683MOL0     C94151   8.441   1.524   5.427 -0.1971  0.1263  0.3495
  683MOL0     O94152   8.543   1.462   5.489 -0.1896 -0.4840 -0.2183
  683MOL0     C94153   8.548   1.320   5.483  0.5858 -0.8020 -0.9445
  683MOL0     C94154   8.425   1.275   5.568 -0.4586  0.0196  0.6836
  683MOL0     C94155   8.448   1.302   5.720  0.4973  0.6672 -0.5397
  683MOL0     C94156   8.563   1.226   5.792 -0.2232 -0.1712  1.2970
  683MOL0     C94157   8.549   1.235   5.946 -0.6229  0.0206  0.6288
  683MOL0     C94158   8.645   1.133   6.006  0.9427  0.5388  0.3074
  683MOL0     C94159   8.644   1.120   6.165 -0.0917 -0.3769  0.0379
  683MOL0     C94160   8.769   1.196   6.220 -0.2813 -0.5054 -0.5145
  683MOL0    Cl94161   8.760   1.369   6.202  0.5778  0.1794  0.1506
  683MOL0     C94162   8.396   1.647   5.480 -0.0264  1.0003  0.3631
  683MOL0     C94163   8.291   1.712   5.414  0.6802 -0.0539 -0.0657
  683MOL0     O94164   8.209   1.926   5.222 -0.1273 -0.4171  0.2190
  683MOL0     C94165   7.901   1.816   5.081 -0.9935  0.0225 -0.7439
  683MOL0     C94166   7.786   1.859   5.010 -0.0561  0.7250 -0.3825
  683MOL0     N94167   7.188   1.647   4.557  0.1836 -0.6478  0.2230
  683MOL0     N94168   7.089   1.677   4.479  0.3823 -0.1866 -0.3888
  683MOL0     C94169   5.939   2.227   4.616 -0.5303 -0.0734  0.3515
  683MOL0     C94170   5.814   2.251   4.658  0.8637  0.1600  0.1123
  683MOL0     C94171   5.354   2.251   4.664 -0.8490  0.6757  0.2377
  683MOL0     C94172   5.249   2.175   4.602  0.2919 -0.8205 -1.2612
  683MOL0     C94173   5.112   2.202   4.641  0.5865  0.5136  0.1371
  683MOL0     C94174   5.085   2.298   4.745 -0.2015 -0.1532  0.5691
  683MOL0     O94175   4.957   2.329   4.785 -0.3911 -0.1837  0.2193
  683MOL0     C94176   4.846   2.273   4.717  0.4282  0.4670 -0.0849
  683MOL0     C94177   4.804   2.357   4.589 -0.5999 -0.5778 -0.0724
  683MOL0     C94178   4.698   2.289   4.511  1.2610 -0.5110 -0.2023
  683MOL0     C94179   4.548   2.303   4.576 -0.9845  0.1798 -0.8218
  683MOL0     C94180   4.504   2.439   4.608 -1.1078  0.9650 -0.1383
  683MOL0     C94181   4.482   2.553   4.639 -0.4872  0.4217 -0.2581
  683MOL0     C94182   5.189   2.363   4.809 -0.4936  2.4199  0.7035
  683MOL0     C94183   5.319   2.345   4.767  0.2922  0.1482 -0.5788
  683MOL0     C94184   5.426   2.416   4.838  0.0356  0.8194 -0.0599
  683MOL0     H94185   5.667   2.334   4.356 -1.1782 -0.4347  0.5805
  683MOL0     H94186   5.893   2.284   4.281 -0.8812  2.8728 -0.1222
  683MOL0     H94187   6.142   2.333   4.289  2.7259 -0.2752  0.4645
  683MOL0     H94188   6.130   2.152   4.257 -1.3093  1.5074 -1.7661
  683MOL0     H94189   6.348   2.268   4.238  0.2130  0.3251  0.3683
  683MOL0     H94190   6.352   2.334   4.390  0.7467 -0.0064 -1.2140
  683MOL0     H94191   6.350   2.125   4.510 -0.6207  0.7548 -0.1550
  683MOL0     H94192   6.329   2.035   4.360 -3.1286  2.4949 -2.4067
  683MOL0     H94193   6.539   2.107   4.264  1.4521  0.6444  0.5748
  683MOL0     H94194   6.579   2.205   4.410 -0.6101  1.2429 -2.1010
  683MOL0     H94195   6.558   1.898   4.402 -1.1187  1.0490 -2.1736
  683MOL0     H94196   6.589   2.000   4.553 -1.6115 -2.3079 -0.2188
  683MOL0     H94197   6.732   1.976   4.287  0.4378  0.1828 -0.5656
  683MOL0     H94198   6.775   2.094   4.412 -1.0443  0.6376 -2.6858
  683MOL0     H94199   6.800   1.774   4.445 -0.3107  0.3566  3.7170
  683MOL0     H94200   6.836   1.882   4.567  0.8017  1.4700  0.1658
  683MOL0     H94201   7.002   1.870   4.319 -0.5833  0.3155 -0.1883
  683MOL0     H94202   7.016   1.996   4.447 -0.2222  0.4704  0.1643
  683MOL0     H94203   7.121   1.956   4.647  1.9483 -0.1504 -0.4869
  683MOL0     H94204   7.391   1.657   4.744 -2.0816 -0.7070 -1.0514
  683MOL0     H94205   7.320   1.802   4.820 -0.2953 -1.2169  0.6251
  683MOL0     H94206   7.491   1.751   4.577 -2.3020 -0.7977 -0.1211
  683MOL0     H94207   7.413   1.900   4.579  1.7823 -0.3794 -1.6811
  683MOL0     H94208   7.629   1.801   4.756  1.1411  0.8825  2.9230
  683MOL0     H94209   7.623   1.963   4.679  0.1757  1.8127  3.1371
  683MOL0     H94210   7.451   2.033   4.842 -1.5175  1.5721  5.5840
  683MOL0     H94211   7.488   1.897   4.946  2.3485 -0.2520  0.8351
  683MOL0     H94212   7.813   2.191   5.060 -0.0310  0.4440  1.5005
  683MOL0     H94213   8.021   2.261   5.150  0.3852  0.6423  1.5401
  683MOL0     H94214   8.152   2.147   5.173  0.4988 -3.4594  1.0481
  683MOL0     H94215   8.016   2.172   5.297  0.4006  0.6939  0.0291
  683MOL0     H94216   8.251   1.518   5.141  0.4671 -0.6769  0.1700
  683MOL0     H94217   8.449   1.406   5.248 -3.1529 -1.2308 -1.5976
  683MOL0     H94218   8.544   1.277   5.382 -0.5654  0.0992 -1.3108
  683MOL0     H94219   8.644   1.291   5.526 -0.5881 -1.2279  1.5807
  683MOL0     H94220   8.337   1.329   5.534  0.2351  0.3578 -0.6439
  683MOL0     H94221   8.414   1.167   5.556  0.5771 -0.1699  1.2339
  683MOL0     H94222   8.355   1.260   5.760  0.5711 -1.0569 -2.0306
  683MOL0     H94223   8.455   1.410   5.733  1.0486  0.5546  0.2331
  683MOL0     H94224   8.652   1.278   5.754 -0.1261 -0.4950  1.0851
  683MOL0     H94225   8.567   1.120   5.768  3.3807  0.3882 -1.4305
  683MOL0     H94226   8.554   1.333   5.995 -0.2179  0.4145 -0.1795
  683MOL0     H94227   8.448   1.193   5.958 -0.8350  0.3607  0.0959
  683MOL0     H94228   8.746   1.162   5.976  1.4325  0.7570  2.0526
  683MOL0     H94229   8.622   1.032   5.969  0.5663  0.9490 -0.5959
  683MOL0     H94230   8.651   1.014   6.191  3.8089 -0.0603  0.9733
  683MOL0     H94231   8.555   1.163   6.210  0.8810  0.8588  0.8643
  683MOL0     H94232   8.857   1.159   6.166 -0.8918 -2.5722 -0.1386
  683MOL0     H94233   8.769   1.163   6.324 -5.2196  1.0696  0.2451
  683MOL0     H94234   8.452   1.684   5.565  2.7933 -0.0838 -0.8617
  683MOL0     H94235   8.249   1.806   5.448  2.0523  0.5810 -0.0474
  683MOL0     H94236   7.912   1.710   5.102  0.6278 -0.0418 -1.8183
  683MOL0     H94237   7.705   1.793   4.980  2.8667 -2.0893 -2.7291
  683MOL0     H94238   6.014   2.212   4.693 -1.2437  2.6383  1.7080
  683MOL0     H94239   5.798   2.247   4.765  1.7909 -2.3380  0.2222
  683MOL0     H94240   5.275   2.106   4.523 -2.0940 -3.1450 -0.1496
  683MOL0     H94241   5.041   2.140   4.587  0.3161  0.7324  0.2395
  683MOL0     H94242   4.857   2.166   4.699 -1.1464  0.3203 -0.2519
  683MOL0     H94243   4.758   2.276   4.781  1.3102  1.8019  1.1138
  683MOL0     H94244   4.900   2.377   4.540 -0.8435 -0.3953 -0.4792
  683MOL0     H94245   4.764   2.453   4.621 -1.1465 -1.1369  0.9920
  683MOL0     H94246   4.692   2.321   4.407  1.4222 -1.4124 -0.4956
  683MOL0     H94247   4.709   2.180   4.520  0.4567 -0.4646  2.0654
  683MOL0     H94248   4.547   2.242   4.667  0.2792 -2.9263 -2.7324
  683MOL0     H94249   4.471   2.251   4.519 -1.1662 -4.9346  3.3549
  683MOL0     H94250   4.467   2.655   4.669  2.6892  1.0178 -0.3403
  683MOL0     H94251   5.162   2.426   4.893  0.1002  2.0845  1.1486
  683MOL0     H94252   5.386   2.448   4.935 -0.8263 -0.4115  0.0095
  683MOL0     H94253   5.520   2.366   4.862  0.4023  0.9201 -1.2401
  683MOL0     H94254   5.447   2.513   4.792  1.4960  0.6502  0.2086
  684MOL0     O94255   7.684   1.950  10.971 -0.6485  0.3489 -0.3961
  684MOL0     C94256   7.634   1.897  11.066  0.6503 -0.6758  0.8606
  684MOL0     O94257   7.687   1.894  11.195 -0.1530  0.2004  0.3069
  684MOL0     C94258   7.815   1.939  11.228 -0.3206  0.1286  0.7576
  684MOL0     C94259   7.918   1.918  11.140  0.8276  0.5688  0.3556
  684MOL0     C94260   8.046   1.943  11.187  0.1615  0.6225  0.4430
  684MOL0     C94261   8.066   2.001  11.320 -0.5289  0.5705  1.1620
  684MOL0     O94262   8.185   2.040  11.377 -0.2090 -0.4052 -0.1146
  684MOL0     C94263   8.301   2.023  11.297  0.0364  0.4391 -0.3564
  684MOL0     C94264   8.430   2.059  11.377 -0.1089 -0.6950  0.7234
  684MOL0     C94265   8.430   2.197  11.437 -0.8303 -0.3353  0.2466
  684MOL0     C94266   8.566   2.259  11.438 -0.4813 -0.6015 -0.4800
  684MOL0     C94267   8.542   2.408  11.492  0.8494 -0.4320 -0.6426
  684MOL0     C94268   8.677   2.473  11.523  1.4656 -0.0251 -0.1906
  684MOL0     C94269   8.746   2.411  11.650 -1.1710  0.4546 -0.6731
  684MOL0     C94270   8.880   2.466  11.704 -0.9797  0.4936 -0.2371
  684MOL0     N94271   8.971   2.500  11.588 -0.0369  0.6981 -0.3256
  684MOL0     C94272   9.046   2.409  11.509  0.7248  0.4229  0.4248
  684MOL0     C94273   9.127   2.487  11.439 -0.4753 -0.9456  0.3694
  684MOL0     C94274   9.218   2.423  11.337 -1.1977  0.4086  0.2715
  684MOL0     C94275   9.351   2.499  11.304 -0.9800 -0.2175 -1.0833
  684MOL0     C94276   9.442   2.411  11.208 -0.6100  0.0267  0.5744
  684MOL0     C94277   9.496   2.285  11.273 -1.2426 -0.3427  0.1712
  684MOL0     O94278   9.560   2.303  11.405  0.9808  0.4200 -0.4491
  684MOL0     C94279   9.642   2.196  11.449  0.3862  0.9656  1.6922
  684MOL0     C94280   9.721   2.226  11.553 -0.6599  0.1086 -0.6806
  684MOL0     C94281   9.811   2.142  11.612 -0.1203  0.2549  0.2708
  684MOL0     C94282   9.914   2.186  11.718 -1.0146  0.8378 -0.2181
  684MOL0     C94283   9.830   2.021  11.550  0.0327  0.0640 -0.3412
  684MOL0     C94284   9.914   1.917  11.598  0.2958  0.2048 -0.6140
  684MOL0     O94285   9.923   1.900  11.734 -0.1127  0.2504 -0.7072
  684MOL0     C94286  10.030   1.832  11.794  0.5767 -0.4345  0.3040
  684MOL0     C94287  10.064   1.866  11.925  0.2725  1.2771  0.1790
  684MOL0     C94288  10.172   1.804  11.987  0.2295  0.4606  0.3027
  684MOL0     C94289  10.232   1.693  11.935  0.2295  0.0555  0.1678
  684MOL0     O94290  10.335   1.657  12.017  0.2755  0.2156  0.3174
  684MOL0     C94291  10.420   1.551  11.971  0.3179  0.1183 -0.1894
  684MOL0     C94292  10.547   1.538  12.049  0.1655  0.4748 -0.8287
  684MOL0     C94293  10.507   1.530  12.201 -0.5308 -0.0948  0.0312
  684MOL0     C94294  10.628   1.552  12.285 -0.7006  0.7854  0.5181
  684MOL0     C94295  10.700   1.418  12.300  0.4339 -0.8528 -0.2838
  684MOL0     C94296  10.845   1.425  12.347 -0.0344  0.7369 -0.7990
  684MOL0     C94297  10.874   1.522  12.467 -0.3546 -0.2627  1.1297
  684MOL0     C94298  10.802   1.494  12.598 -0.2285 -0.0977 -0.6085
  684MOL0    Cl94299  10.743   1.323  12.611 -0.2608  0.0934  0.0336
  684MOL0     C94300  10.188   1.641  11.811  0.2513  0.6662  0.7022
  684MOL0     C94301  10.085   1.711  11.743  0.0739  0.2128  0.1542
  684MOL0     O94302   9.986   1.867  11.517 -0.4103  1.0352  0.1422
  684MOL0     C94303   9.754   1.978  11.438  0.4531  0.2386  0.2306
  684MOL0     C94304   9.654   2.067  11.395  0.1235 -0.2278  0.0172
  684MOL0     N94305   9.103   2.621  11.464  0.2105 -0.0231  0.5288
  684MOL0     N94306   9.008   2.627  11.550 -0.2475  0.2138 -0.9410
  684MOL0     C94307   7.958   2.029  11.389  0.1259  0.0236  0.0742
  684MOL0     C94308   7.832   2.010  11.347  0.5690  0.1102 -0.0078
  684MOL0     C94309   7.504   1.835  11.062  0.2301  0.3440  0.3885
  684MOL0     C94310   7.420   1.838  11.182  0.2154 -0.4700  0.7041
  684MOL0     C94311   7.288   1.783  11.181 -0.5930  0.0815 -0.4484
  684MOL0     C94312   7.235   1.735  11.060  0.1314  0.3372 -0.1017
  684MOL0     O94313   7.107   1.680  11.074  0.1525  0.5169  0.1934
  684MOL0     C94314   6.995   1.683  10.982 -0.4218  0.7322 -0.0738
  684MOL0     C94315   6.948   1.533  10.953 -0.1212  0.6513 -0.5008
  684MOL0     C94316   7.055   1.454  10.867 -0.0398 -0.1778 -0.2855
  684MOL0     C94317   7.140   1.378  10.969 -0.2253 -0.5835  1.2598
  684MOL0     C94318   7.240   1.317  10.886  0.2183  0.3669  0.2577
  684MOL0     C94319   7.337   1.257  10.832  0.2643 -0.4063  0.1608
  684MOL0     C94320   7.311   1.742  10.940 -0.9512 -0.7585  0.2732
  684MOL0     C94321   7.442   1.796  10.937 -0.1528 -0.7562 -0.4616
  684MOL0     C94322   7.502   1.794  10.803  0.5260 -0.3255 -0.6749
  684MOL0     H94323   7.894   1.876  11.043  1.4900  0.3102  0.2975
  684MOL0     H94324   8.132   1.915  11.128  0.4141  0.1801  1.0144
  684MOL0     H94325   8.294   2.088  11.210  0.1480 -1.3951 -1.8103
  684MOL0     H94326   8.318   1.921  11.260  0.2790  0.4878 -0.3810
  684MOL0     H94327   8.441   1.983  11.456 -0.7684 -0.6314  0.8743
  684MOL0     H94328   8.518   2.043  11.313 -1.4794 -2.2283 -0.8719
  684MOL0     H94329   8.366   2.260  11.374 -2.5796 -2.1806  0.0731
  684MOL0     H94330   8.384   2.194  11.537 -0.8398  1.9528  0.3600
  684MOL0     H94331   8.625   2.198  11.506 -0.9663 -0.4803  0.0572
  684MOL0     H94332   8.606   2.263  11.336  2.2773  4.5415  0.4602
  684MOL0     H94333   8.475   2.417  11.579 -2.7856  2.6971 -3.4148
  684MOL0     H94334   8.487   2.466  11.418 -1.5572 -0.5803  0.9029
  684MOL0     H94335   8.744   2.462  11.437  0.3481 -3.9814 -0.7474
  684MOL0     H94336   8.653   2.576  11.552 -0.0088 -0.6795  1.0385
  684MOL0     H94337   8.771   2.307  11.628  0.4466 -0.1389  3.1856
  684MOL0     H94338   8.670   2.418  11.729  0.6044  1.2223  1.0465
  684MOL0     H94339   8.861   2.556  11.763 -0.8112  0.3923 -0.0278
  684MOL0     H94340   8.923   2.390  11.770  3.0325  0.9347 -2.0102
  684MOL0     H94341   9.037   2.301  11.497  1.3604  0.0772  2.5477
  684MOL0     H94342   9.171   2.394  11.243 -2.1009 -0.1278  0.8642
  684MOL0     H94343   9.247   2.327  11.380  0.6939  1.2787  1.0766
  684MOL0     H94344   9.325   2.597  11.260  3.5164  1.8871  0.3996
  684MOL0     H94345   9.403   2.524  11.397 -0.8714  2.4204 -1.7709
  684MOL0     H94346   9.396   2.386  11.112  0.8961  1.3241 -0.5424
  684MOL0     H94347   9.527   2.475  11.181 -0.3937 -1.6689 -3.3823
  684MOL0     H94348   9.409   2.220  11.288  0.0417 -2.3165 -0.5146
  684MOL0     H94349   9.564   2.236  11.202 -0.6696  1.4770 -0.5970
  684MOL0     H94350   9.714   2.328  11.589  0.6346  0.3802 -1.1157
  684MOL0     H94351  10.011   2.138  11.701 -2.2792 -1.9095 -0.2289
  684MOL0     H94352   9.869   2.161  11.815  1.1898  1.7340  1.1304
  684MOL0     H94353   9.927   2.294  11.710  3.0547  0.5105 -0.3232
  684MOL0     H94354  10.011   1.950  11.968 -2.0478  0.0431 -0.1293
  684MOL0     H94355  10.211   1.847  12.078  1.7582  1.3859 -0.7303
  684MOL0     H94356  10.368   1.455  11.967 -2.0947  1.0245  3.5962
  684MOL0     H94357  10.453   1.580  11.871  1.1075 -1.5210 -0.4279
  684MOL0     H94358  10.605   1.451  12.015 -1.0909  0.0849 -2.0395
  684MOL0     H94359  10.608   1.627  12.031 -1.0017  0.9571 -2.5053
  684MOL0     H94360  10.453   1.438  12.224  0.6063  0.1121  4.3197
  684MOL0     H94361  10.447   1.619  12.222 -1.7562  0.1000 -3.5048
  684MOL0     H94362  10.595   1.577  12.387 -0.0032  1.7842  0.5123
  684MOL0     H94363  10.695   1.635  12.261  2.6025 -0.7660  3.3378
  684MOL0     H94364  10.641   1.359  12.370 -0.5079  2.6492  2.1063
  684MOL0     H94365  10.711   1.363  12.205 -1.1166 -0.2869 -0.8146
  684MOL0     H94366  10.917   1.452  12.269  2.5638  0.9843  1.5090
  684MOL0     H94367  10.879   1.324  12.373  1.5667  1.5656  0.5164
  684MOL0     H94368  10.848   1.625  12.443  1.8570  0.4474  1.4976
  684MOL0     H94369  10.980   1.511  12.495  0.7982  1.6616 -1.9311
  684MOL0     H94370  10.718   1.564  12.596 -0.2119 -0.0739 -2.5429
  684MOL0     H94371  10.857   1.517  12.689 -0.2917 -2.7566  0.1861
  684MOL0     H94372  10.230   1.551  11.766  0.8675  1.9368 -1.3699
  684MOL0     H94373  10.059   1.654  11.654  0.2147 -0.8073  0.7585
  684MOL0     H94374   9.767   1.878  11.399 -0.1814  0.3338 -0.2447
  684MOL0     H94375   9.581   2.024  11.327  0.1198 -0.4329  0.1497
  684MOL0     H94376   7.964   2.070  11.490 -0.2804 -3.8166  1.8294
  684MOL0     H94377   7.743   2.038  11.404  0.7065  0.4891  0.0195
  684MOL0     H94378   7.437   1.884  11.279 -2.0846  1.0706  0.4664
  684MOL0     H94379   7.229   1.779  11.272  0.0766  3.3814  0.2457
  684MOL0     H94380   6.914   1.741  11.027 -2.1121 -0.0420 -1.9649
  684MOL0     H94381   7.033   1.731  10.891  2.4312  1.4046  1.3739
  684MOL0     H94382   6.854   1.528  10.898 -0.0994  1.6992 -0.6636
  684MOL0     H94383   6.930   1.486  11.050 -1.1918  0.1594 -0.9251
  684MOL0     H94384   7.012   1.387  10.793  3.8575 -1.1136 -1.9306
  684MOL0     H94385   7.112   1.525  10.808 -0.6856 -1.7911 -3.0180
  684MOL0     H94386   7.080   1.310  11.030 -2.6747 -1.8205 -2.2307
  684MOL0     H94387   7.179   1.461  11.029 -0.5134  1.1908 -0.8741
  684MOL0     H94388   7.420   1.203  10.792  0.6638  0.7268 -0.5746
  684MOL0     H94389   7.256   1.716  10.849  2.8232  1.3231 -2.9083
  684MOL0     H94390   7.476   1.895  10.771  0.1491  0.1288  0.9544
  684MOL0     H94391   7.610   1.784  10.810  0.7161  2.1532  1.2746
  684MOL0     H94392   7.465   1.712  10.742 -2.4741  0.2829  0.1582
  685MOL0     O94393   3.434   6.306   6.187 -0.1973  0.2138 -0.4505
  685MOL0     C94394   3.331   6.253   6.235  0.1620  0.5913 -0.2685
  685MOL0     O94395   3.341   6.165   6.339 -0.5364 -0.0131 -0.0868
  685MOL0     C94396   3.469   6.135   6.394 -0.2817 -1.5043 -0.2213
  685MOL0     C94397   3.523   6.009   6.358 -0.5154  0.1207 -0.5274
  685MOL0     C94398   3.643   5.973   6.407 -0.0036  0.4201 -0.3369
  685MOL0     C94399   3.715   6.058   6.497  0.1729 -0.7539  0.1350
  685MOL0     O94400   3.837   6.012   6.538 -0.1625 -0.6865  0.2700
  685MOL0     C94401   3.891   6.053   6.667  0.2417  0.3353 -0.3794
  685MOL0     C94402   4.045   6.045   6.677 -1.0112 -0.1613 -0.2470
  685MOL0     C94403   4.108   5.908   6.664  0.4853  0.2839 -0.0269
  685MOL0     C94404   4.257   5.901   6.696 -0.3035  0.3231 -0.1211
  685MOL0     C94405   4.325   5.770   6.717 -0.0430  0.0969 -0.4375
  685MOL0     C94406   4.474   5.793   6.738 -0.2628 -0.1282  0.4625
  685MOL0     C94407   4.552   5.682   6.814 -0.2175  0.1196 -0.4499
  685MOL0     C94408   4.693   5.721   6.825  0.6108 -0.0347  1.0068
  685MOL0     N94409   4.766   5.616   6.889  0.5284 -0.7043  0.5359
  685MOL0     C94410   4.753   5.583   7.023 -0.7135  0.2613 -0.9265
  685MOL0     C94411   4.842   5.483   7.047 -0.0221  0.0664 -0.2876
  685MOL0     C94412   4.887   5.402   7.169 -0.5744 -0.7876  0.0103
  685MOL0     C94413   5.023   5.458   7.203 -0.0429  0.3347 -0.2695
  685MOL0     C94414   5.081   5.417   7.341  0.1659 -0.3486 -0.6707
  685MOL0     C94415   5.232   5.455   7.351 -0.8769 -0.0971 -0.0196
  685MOL0     O94416   5.322   5.379   7.263  0.0648  0.1221 -0.2070
  685MOL0     C94417   5.455   5.411   7.265 -0.1416 -0.3217 -0.1632
  685MOL0     C94418   5.540   5.312   7.223 -1.1697  0.4066  0.1747
  685MOL0     C94419   5.676   5.329   7.222 -0.2805 -0.5055  0.6691
  685MOL0     C94420   5.767   5.221   7.180 -0.0427  0.4292 -0.3549
  685MOL0     C94421   5.726   5.456   7.267  0.9443 -0.5052  0.0115
  685MOL0     C94422   5.870   5.493   7.272  0.0459  0.3198 -0.3180
  685MOL0     O94423   5.902   5.580   7.366 -0.3913  0.0104 -0.3202
  685MOL0     C94424   6.034   5.626   7.367 -0.5164  0.9836 -0.2741
  685MOL0     C94425   6.085   5.694   7.255 -0.5473 -0.5916 -0.0536
  685MOL0     C94426   6.220   5.750   7.258  0.3920  0.1178  0.1857
  685MOL0     C94427   6.299   5.739   7.374  0.5848  0.3718 -0.5638
  685MOL0     O94428   6.421   5.808   7.385  0.5245  0.1760  0.1575
  685MOL0     C94429   6.436   5.918   7.293  0.6126  0.1948  0.1739
  685MOL0     C94430   6.553   6.006   7.334  0.6259 -0.1350 -0.5553
  685MOL0     C94431   6.687   5.942   7.320  0.9089 -1.0152 -0.0607
  685MOL0     C94432   6.798   6.046   7.349  0.3375 -0.2514 -0.7458
  685MOL0     C94433   6.934   5.989   7.340 -1.0621  0.7738  0.0774
  685MOL0     C94434   6.970   5.902   7.472  0.5501  0.1851  0.3231
  685MOL0     C94435   6.975   5.987   7.597 -0.4510 -0.0191 -0.0884
  685MOL0     C94436   6.996   5.896   7.723 -0.1660 -0.1192 -1.0817
  685MOL0    Cl94437   6.842   5.834   7.788 -0.2871  0.1495  0.1406
  685MOL0     C94438   6.242   5.668   7.484 -0.4047 -0.2413 -0.7324
  685MOL0     C94439   6.114   5.612   7.487 -1.0395 -0.5829 -0.2730
  685MOL0     O94440   5.948   5.447   7.193 -0.4186 -0.5584 -0.1587
  685MOL0     C94441   5.638   5.561   7.301 -0.4363  0.9602 -0.3132
  685MOL0     C94442   5.510   5.541   7.303  0.1122  0.4051 -0.2371
  685MOL0     N94443   4.912   5.471   6.932  0.4864 -0.4204  0.3702
  685MOL0     N94444   4.870   5.553   6.834  0.4570  1.3115  0.4007
  685MOL0     C94445   3.663   6.180   6.533  0.4930 -0.1199  0.6960
  685MOL0     C94446   3.538   6.222   6.482  0.4411  0.3953 -0.2366
  685MOL0     C94447   3.206   6.256   6.155  0.0040  0.2396 -0.2085
  685MOL0     C94448   3.105   6.163   6.202  0.0217 -0.4214 -0.2427
  685MOL0     C94449   2.975   6.170   6.142 -0.8839 -0.4719 -0.4793
  685MOL0     C94450   2.944   6.258   6.050  0.0135 -0.3180  0.1758
  685MOL0     O94451   2.809   6.271   6.023 -0.1317  0.5492 -0.6739
  685MOL0     C94452   2.776   6.335   5.910 -0.5787 -0.6223 -0.4168
  685MOL0     C94453   2.628   6.319   5.868 -1.0798 -0.3988  0.7516
  685MOL0     C94454   2.531   6.429   5.919 -0.1165  0.3385 -0.0971
  685MOL0     C94455   2.411   6.431   5.830  1.0188  0.4365  0.0147
  685MOL0     C94456   2.300   6.499   5.899  0.3734  0.6912  0.2921
  685MOL0     C94457   2.214   6.529   5.976  0.2213 -0.3976  0.7225
  685MOL0     C94458   3.044   6.336   5.996  0.5937 -0.2806  0.0545
  685MOL0     C94459   3.171   6.349   6.052 -0.3946  0.2345  0.2433
  685MOL0     C94460   3.261   6.460   6.004  0.4759 -0.9844 -0.0862
  685MOL0     H94461   3.456   5.944   6.302 -1.1740  1.5061 -1.4133
  685MOL0     H94462   3.679   5.878   6.370 -3.3144 -0.3113 -2.0118
  685MOL0     H94463   3.857   5.994   6.752 -1.1995  1.4975 -0.1075
  685MOL0     H94464   3.860   6.153   6.700 -0.0609  0.6143 -1.4678
  685MOL0     H94465   4.090   6.113   6.605 -3.7382  2.5385  0.3679
  685MOL0     H94466   4.069   6.083   6.777 -1.7481  0.3881 -0.2642
  685MOL0     H94467   4.058   5.830   6.722 -0.8732  0.0159 -1.4837
  685MOL0     H94468   4.089   5.879   6.560 -1.0737  0.9901  0.0277
  685MOL0     H94469   4.301   5.955   6.611 -1.6197  5.7041  2.1588
  685MOL0     H94470   4.283   5.975   6.772 -1.1091  1.5706 -1.0047
  685MOL0     H94471   4.313   5.711   6.625  0.6646 -0.3279 -0.2633
  685MOL0     H94472   4.290   5.715   6.804  1.1495  0.9957  0.6408
  685MOL0     H94473   4.516   5.805   6.637 -2.0338 -2.2446 -0.6003
  685MOL0     H94474   4.488   5.887   6.793  2.3103  0.2973 -0.7722
  685MOL0     H94475   4.528   5.587   6.764 -0.6427  0.0318 -0.0909
  685MOL0     H94476   4.508   5.684   6.914  0.5338 -0.4285 -0.0966
  685MOL0     H94477   4.736   5.741   6.726  0.3256 -0.4167  0.8012
  685MOL0     H94478   4.699   5.809   6.890 -2.4684  0.7289  0.4466
  685MOL0     H94479   4.681   5.624   7.093  1.4729  2.0021  0.4462
  685MOL0     H94480   4.900   5.297   7.142 -1.7964 -0.3464 -2.5770
  685MOL0     H94481   4.822   5.395   7.258  3.6431 -2.1138  3.3196
  685MOL0     H94482   5.105   5.417   7.143  0.0377 -1.2906  0.8904
  685MOL0     H94483   5.018   5.565   7.182 -0.5507 -0.2037 -3.5039
  685MOL0     H94484   5.027   5.464   7.424 -0.2644 -2.5191  0.3455
  685MOL0     H94485   5.071   5.314   7.374  1.1477  0.0590  1.0037
  685MOL0     H94486   5.246   5.560   7.326  0.5135 -0.7142 -2.1603
  685MOL0     H94487   5.271   5.445   7.452 -0.5189 -3.4126 -0.3571
  685MOL0     H94488   5.510   5.212   7.194 -0.5243  0.7112 -1.6510
  685MOL0     H94489   5.807   5.170   7.268 -2.8353  0.8177  1.2431
  685MOL0     H94490   5.848   5.252   7.113  0.5341 -0.2155  0.0393
  685MOL0     H94491   5.709   5.148   7.122 -1.1747 -1.2176  2.6166
  685MOL0     H94492   6.012   5.705   7.176 -2.2745 -2.1844  1.2048
  685MOL0     H94493   6.250   5.804   7.170 -1.7398 -1.0405 -1.3557
  685MOL0     H94494   6.450   5.883   7.190  4.1165 -2.0697  1.2183
  685MOL0     H94495   6.345   5.977   7.301 -2.6397 -4.5374  2.5975
  685MOL0     H94496   6.551   6.102   7.281 -0.1892  2.5430  3.8067
  685MOL0     H94497   6.534   6.041   7.436  0.5219  1.0736 -0.9698
  685MOL0     H94498   6.690   5.914   7.215 -1.1060  0.0095 -0.4561
  685MOL0     H94499   6.694   5.859   7.391 -1.8822 -1.1491  0.1626
  685MOL0     H94500   6.775   6.106   7.437  2.7095  1.6675 -1.3306
  685MOL0     H94501   6.789   6.110   7.260  2.1711 -0.5835 -1.2126
  685MOL0     H94502   6.925   5.920   7.256  0.8781  2.1542 -1.3409
  685MOL0     H94503   7.007   6.064   7.309 -0.1573 -0.1935 -0.1711
  685MOL0     H94504   7.072   5.863   7.469  1.1644  1.6926  0.7453
  685MOL0     H94505   6.894   5.824   7.475 -1.6179  1.9749 -2.3485
  685MOL0     H94506   6.885   6.049   7.610  0.3813  0.6431  3.6644
  685MOL0     H94507   7.057   6.059   7.588 -0.0440 -0.4987 -0.2369
  685MOL0     H94508   7.046   5.954   7.801  0.5238 -3.1468  0.9257
  685MOL0     H94509   7.056   5.811   7.690  0.1481 -0.5886  0.5818
  685MOL0     H94510   6.302   5.655   7.573 -1.7335  2.4366  0.6904
  685MOL0     H94511   6.079   5.562   7.576 -1.3245  0.2149  0.0705
  685MOL0     H94512   5.679   5.655   7.336  2.7871 -0.6689  0.6745
  685MOL0     H94513   5.442   5.621   7.330 -0.9010 -0.2761 -0.6997
  685MOL0     H94514   3.701   6.249   6.608 -0.7398  0.0183  1.2115
  685MOL0     H94515   3.489   6.317   6.503  0.5008  0.3318  0.1825
  685MOL0     H94516   3.130   6.089   6.277 -0.8948 -1.4475 -0.9222
  685MOL0     H94517   2.898   6.100   6.171 -0.3978  0.5986  4.1868
  685MOL0     H94518   2.800   6.439   5.936 -0.9333 -1.2183  2.7424
  685MOL0     H94519   2.837   6.297   5.828 -0.9854 -2.7180  0.1873
  685MOL0     H94520   2.609   6.223   5.917  2.4327 -0.8411  1.5196
  685MOL0     H94521   2.632   6.314   5.759  1.6946  1.7846  0.6201
  685MOL0     H94522   2.504   6.396   6.020 -1.1136  0.1322 -0.4203
  685MOL0     H94523   2.574   6.530   5.917  0.9038 -0.0484 -3.5245
  685MOL0     H94524   2.380   6.328   5.809 -0.6212  0.9452 -0.1680
  685MOL0     H94525   2.438   6.479   5.736  2.3845  2.1016  1.2095
  685MOL0     H94526   2.156   6.570   6.056  2.2509  2.9415  0.6941
  685MOL0     H94527   3.028   6.400   5.910 -0.8268 -0.2371  0.3368
  685MOL0     H94528   3.276   6.529   6.087  0.9041 -0.7612 -0.3487
  685MOL0     H94529   3.364   6.428   5.985  1.0397  0.4613  0.4362
  685MOL0     H94530   3.221   6.512   5.916 -0.4106 -0.0183  0.8618
  686MOL0     O94531   5.841   9.740   9.893  0.1739  0.3854  0.0214
  686MOL0     C94532   5.929   9.805   9.957 -0.3102  0.0823  1.1308
  686MOL0     O94533   6.061   9.768   9.943 -0.0725 -0.7281  0.0409
  686MOL0     C94534   6.093   9.673   9.857  0.5342  0.4499 -0.1109
  686MOL0     C94535   6.048   9.541   9.878  0.1199  1.2261 -0.5333
  686MOL0     C94536   6.081   9.440   9.785  0.3470  0.1325 -0.6636
  686MOL0     C94537   6.156   9.470   9.667 -0.0076  0.0685  0.3220
  686MOL0     O94538   6.196   9.380   9.579 -0.2436 -0.0076  0.3250
  686MOL0     C94539   6.210   9.236   9.619  0.1154 -0.3531 -1.3727
  686MOL0     C94540   6.272   9.156   9.504 -0.6850  0.4287  0.2963
  686MOL0     C94541   6.336   9.022   9.545 -0.0019  0.0056  0.2846
  686MOL0     C94542   6.396   8.956   9.415  0.7047 -0.1295  0.3434
  686MOL0     C94543   6.490   8.844   9.448  0.5225 -0.1779 -0.3272
  686MOL0     C94544   6.580   8.810   9.334 -0.3679 -0.8000 -0.6430
  686MOL0     C94545   6.712   8.742   9.369 -0.6553 -0.9817 -0.6048
  686MOL0     C94546   6.701   8.610   9.442 -0.5720 -1.1990  0.4268
  686MOL0     N94547   6.815   8.533   9.446 -0.0024 -0.1209  0.3995
  686MOL0     C94548   6.842   8.430   9.353  0.1412 -0.1571  0.8828
  686MOL0     C94549   6.941   8.358   9.413 -0.0000  0.9217 -0.6054
  686MOL0     C94550   7.014   8.237   9.357  0.7736 -0.8339  0.0641
  686MOL0     C94551   7.157   8.244   9.381 -1.4059  0.2039 -0.2826
  686MOL0     C94552   7.231   8.114   9.341 -0.2095 -0.3085  1.2977
  686MOL0     C94553   7.189   8.077   9.193  0.0786  0.2340  0.1089
  686MOL0     O94554   7.274   7.978   9.136  0.4946 -0.3418 -0.8335
  686MOL0     C94555   7.406   8.008   9.150 -0.2498 -0.1390  0.5085
  686MOL0     C94556   7.468   8.105   9.066 -0.4265  0.3983  0.2106
  686MOL0     C94557   7.601   8.143   9.070 -0.0457 -0.3755 -1.2728
  686MOL0     C94558   7.656   8.242   8.964  0.9155  0.4945  0.8361
  686MOL0     C94559   7.683   8.074   9.167  0.3962 -0.5451  0.2192
  686MOL0     C94560   7.812   8.126   9.214 -0.2696 -0.7525 -0.2994
  686MOL0     O94561   7.874   8.056   9.317  0.1987  0.3267 -0.1824
  686MOL0     C94562   7.981   8.112   9.388  0.2545 -0.0565 -0.3566
  686MOL0     C94563   8.091   8.192   9.341  0.1854 -0.3339  0.1516
  686MOL0     C94564   8.195   8.229   9.430  0.0929 -0.4245  0.7349
  686MOL0     C94565   8.195   8.199   9.563 -0.1609  0.1780 -0.3089
  686MOL0     O94566   8.314   8.236   9.631 -0.6634  0.0076 -0.0312
  686MOL0     C94567   8.313   8.232   9.775 -0.1947 -0.4155  0.2162
  686MOL0     C94568   8.427   8.319   9.835  0.5177 -0.5287  1.1435
  686MOL0     C94569   8.413   8.461   9.774 -0.2775 -0.0434  0.7261
  686MOL0     C94570   8.517   8.548   9.844  0.1712 -0.2671  0.2471
  686MOL0     C94571   8.540   8.675   9.766  0.0086 -0.5470  0.4160
  686MOL0     C94572   8.663   8.750   9.833 -0.4035 -0.2277  0.4678
  686MOL0     C94573   8.701   8.872   9.745 -0.2032  0.1727 -0.7036
  686MOL0     C94574   8.755   8.847   9.601 -0.2219 -0.6175  0.0940
  686MOL0    Cl94575   8.907   8.754   9.609  0.6072  0.1746  0.2285
  686MOL0     C94576   8.074   8.138   9.616 -0.3547 -0.1857 -0.1877
  686MOL0     C94577   7.972   8.092   9.528  0.1490 -0.5584 -0.6658
  686MOL0     O94578   7.854   8.231   9.170 -0.4854 -0.3333 -0.1894
  686MOL0     C94579   7.623   7.974   9.245  0.1602  0.7147 -1.2832
  686MOL0     C94580   7.483   7.946   9.243 -0.5823  0.8235 -0.2473
  686MOL0     N94581   6.978   8.420   9.528 -0.2316  0.1884 -0.4151
  686MOL0     N94582   6.898   8.515   9.544  0.7497  0.4983  0.0395
  686MOL0     C94583   6.200   9.600   9.651 -0.6032  1.3334  0.2054
  686MOL0     C94584   6.170   9.698   9.745 -0.2127  0.3663 -0.8278
  686MOL0     C94585   5.894   9.923  10.034 -0.1461  0.0049 -0.2438
  686MOL0     C94586   5.982   9.973  10.137  0.5018 -0.1247 -0.2401
  686MOL0     C94587   5.952  10.084  10.215  0.0932 -0.6811 -0.6655
  686MOL0     C94588   5.832  10.151  10.204  0.0153 -0.7460 -0.7100
  686MOL0     O94589   5.825  10.268  10.283  0.0944  0.2357 -0.2356
  686MOL0     C94590   5.739  10.372  10.231  0.4569 -0.7974  0.0263
  686MOL0     C94591   5.596  10.371  10.293  0.2544  0.0772  0.0140
  686MOL0     C94592   5.578  10.477  10.403  0.2159  0.0491 -0.4868
  686MOL0     C94593   5.454  10.447  10.485  0.8524 -0.2068  0.3594
  686MOL0     C94594   5.335  10.461  10.402  0.6683  0.7364  0.5962
  686MOL0     C94595   5.226  10.470  10.353 -0.6137  0.5310 -0.4859
  686MOL0     C94596   5.736  10.094  10.115 -0.2400 -0.8684 -0.0734
  686MOL0     C94597   5.769   9.993  10.023 -0.6889 -0.0456 -0.2907
  686MOL0     C94598   5.661   9.954   9.912 -0.2583 -0.8199 -0.2179
  686MOL0     H94599   5.980   9.509   9.956 -0.5487 -0.8425 -1.8999
  686MOL0     H94600   6.040   9.343   9.811 -3.7209  1.3083 -2.0780
  686MOL0     H94601   6.112   9.192   9.638  0.4631 -0.6487 -0.1620
  686MOL0     H94602   6.278   9.223   9.704 -2.0995 -2.7054  0.1738
  686MOL0     H94603   6.197   9.136   9.426 -1.4259  0.1515  1.0714
  686MOL0     H94604   6.344   9.231   9.471 -1.6774  1.0773 -0.4845
  686MOL0     H94605   6.422   9.039   9.611  0.8137  3.0356 -1.3555
  686MOL0     H94606   6.255   8.967   9.593 -2.7414  4.3131  1.1899
  686MOL0     H94607   6.315   8.903   9.364  1.5447 -2.0041  0.8931
  686MOL0     H94608   6.439   9.030   9.347  1.5442 -1.6437 -0.8115
  686MOL0     H94609   6.429   8.762   9.487 -0.4086  1.5554  2.1517
  686MOL0     H94610   6.552   8.872   9.534  1.7763  0.2346 -1.3216
  686MOL0     H94611   6.522   8.753   9.261  1.9372 -1.0209 -2.3987
  686MOL0     H94612   6.601   8.905   9.286 -1.3771  0.3037  0.9833
  686MOL0     H94613   6.777   8.808   9.427  0.6322 -1.6836 -1.2119
  686MOL0     H94614   6.762   8.717   9.275 -0.0624  0.3971 -0.6834
  686MOL0     H94615   6.686   8.637   9.547  0.7190 -0.1741  0.3681
  686MOL0     H94616   6.613   8.558   9.402 -1.9197  0.9932  0.3460
  686MOL0     H94617   6.787   8.418   9.261  2.4907  1.9875 -0.9509
  686MOL0     H94618   6.998   8.246   9.249  1.2926  3.5113  0.1540
  686MOL0     H94619   6.980   8.140   9.395  0.6887 -1.4039 -1.4061
  686MOL0     H94620   7.187   8.337   9.332 -0.4509  0.9019  1.5584
  686MOL0     H94621   7.172   8.256   9.489 -0.3365  0.4329 -0.4502
  686MOL0     H94622   7.335   8.148   9.342  0.1879 -1.4529  0.5486
  686MOL0     H94623   7.217   8.026   9.405  0.3334 -0.8692  0.6554
  686MOL0     H94624   7.082   8.059   9.184 -0.0607  0.4872  1.1879
  686MOL0     H94625   7.213   8.160   9.126 -1.5074  0.1925 -0.5548
  686MOL0     H94626   7.409   8.153   8.988  1.5938  1.5668 -0.6860
  686MOL0     H94627   7.649   8.346   8.998 -2.3898 -0.1271  2.4065
  686MOL0     H94628   7.601   8.212   8.875 -1.9402 -0.6739  2.8612
  686MOL0     H94629   7.760   8.211   8.946  0.2740 -1.0691 -0.4400
  686MOL0     H94630   8.101   8.224   9.237  1.1313  0.0357  0.3473
  686MOL0     H94631   8.268   8.300   9.392 -0.2533  0.5597  1.8721
  686MOL0     H94632   8.217   8.268   9.810 -0.9913 -1.0972 -1.1897
  686MOL0     H94633   8.333   8.129   9.807 -0.0832  0.0360  1.6781
  686MOL0     H94634   8.418   8.328   9.944 -0.8359 -2.9737  1.3090
  686MOL0     H94635   8.525   8.272   9.819  0.9926  1.3816 -2.6003
  686MOL0     H94636   8.305   8.479   9.783 -1.1365 -2.4891 -2.6572
  686MOL0     H94637   8.427   8.455   9.666  1.1491  1.3010  0.7924
  686MOL0     H94638   8.613   8.496   9.853 -1.0864 -2.3491  2.6793
  686MOL0     H94639   8.485   8.573   9.945 -0.1466  0.2637  0.0242
  686MOL0     H94640   8.562   8.658   9.660 -2.8484  1.4151 -0.6272
  686MOL0     H94641   8.456   8.745   9.762  0.9023  0.5116 -0.7232
  686MOL0     H94642   8.751   8.686   9.839 -0.0348 -0.0902 -2.3186
  686MOL0     H94643   8.637   8.785   9.933  0.2661 -1.1307  0.9689
  686MOL0     H94644   8.776   8.931   9.799 -1.5610 -1.1984  3.0337
  686MOL0     H94645   8.612   8.935   9.729 -1.5632 -1.7522 -1.0597
  686MOL0     H94646   8.772   8.947   9.560 -2.6383  0.2334  0.9675
  686MOL0     H94647   8.687   8.804   9.527 -0.4326 -0.1020 -0.0164
  686MOL0     H94648   8.073   8.113   9.721  2.1520  1.7300  0.3734
  686MOL0     H94649   7.892   8.025   9.558  1.4853 -2.0660 -0.2807
  686MOL0     H94650   7.674   7.920   9.324  0.2138 -1.3630 -2.6642
  686MOL0     H94651   7.441   7.865   9.302  1.5651  0.9629  1.6313
  686MOL0     H94652   6.252   9.611   9.557  0.9914  1.3609  1.0400
  686MOL0     H94653   6.204   9.799   9.725  1.0334  0.0520 -0.3618
  686MOL0     H94654   6.076   9.922  10.152  0.5720  0.4471  1.4492
  686MOL0     H94655   6.025  10.119  10.287 -1.6576  3.9238 -0.7649
  686MOL0     H94656   5.785  10.471  10.242  2.2213 -1.0987 -3.3834
  686MOL0     H94657   5.734  10.352  10.124 -3.0250  1.9121 -0.5019
  686MOL0     H94658   5.567  10.272  10.330  1.7052 -0.2332  0.4153
  686MOL0     H94659   5.526  10.387  10.211  0.6291  3.0985  0.1728
  686MOL0     H94660   5.667  10.482  10.466 -0.1717 -4.2104  0.6649
  686MOL0     H94661   5.563  10.576  10.358 -2.3896  0.2573  0.6750
  686MOL0     H94662   5.464  10.517  10.569  3.1120 -1.5176  1.2861
  686MOL0     H94663   5.451  10.343  10.516 -2.7007 -0.8125 -1.5457
  686MOL0     H94664   5.124  10.465  10.320 -2.4296  0.4832  4.2745
  686MOL0     H94665   5.647  10.153  10.095  0.8832  0.2111 -2.2784
  686MOL0     H94666   5.626   9.854   9.942  1.7396 -1.8130 -0.9914
  686MOL0     H94667   5.589  10.034   9.931 -1.3773 -2.2534  2.1459
  686MOL0     H94668   5.709   9.944   9.815  2.1817 -1.3285  0.9762
  687MOL0     O94669   3.530   0.488   8.862 -0.8927  0.3862 -0.5784
  687MOL0     C94670   3.471   0.388   8.828  0.1319  1.0299  0.4334
  687MOL0     O94671   3.514   0.250   8.845  0.0438  0.2495 -0.4016
  687MOL0     C94672   3.643   0.217   8.872 -0.6145 -0.4824 -0.5221
  687MOL0     C94673   3.657   0.091   8.920 -0.3761  0.4196 -0.5716
  687MOL0     C94674   3.785   0.038   8.944 -0.7494 -0.7248  0.1350
  687MOL0     C94675   3.902   0.121   8.935  0.1097 -0.8995  0.3631
  687MOL0     O94676   4.030   0.092   8.949 -0.0601  0.0984  0.5817
  687MOL0     C94677   4.064  -0.021   9.033  0.3177 -0.7674 -0.1943
  687MOL0     C94678   4.215  -0.047   9.049 -0.3528 -0.0316 -1.3384
  687MOL0     C94679   4.256  -0.164   9.139  0.0218 -0.2083 -0.6358
  687MOL0     C94680   4.400  -0.158   9.166 -0.4510  0.2902 -0.0674
  687MOL0     C94681   4.431  -0.277   9.261 -0.2264 -0.2529  0.4610
  687MOL0     C94682   4.577  -0.288   9.285  0.2152 -0.4090 -0.8394
  687MOL0     C94683   4.642  -0.176   9.362  0.7162 -0.0031  0.2303
  687MOL0     C94684   4.788  -0.211   9.390  0.1680 -0.1317 -0.4325
  687MOL0     N94685   4.813  -0.291   9.511  0.0107  1.1739  0.0780
  687MOL0     C94686   4.822  -0.255   9.648 -0.8233  0.3106 -1.0857
  687MOL0     C94687   4.863  -0.365   9.722  0.7186 -0.4320  0.4247
  687MOL0     C94688   4.879  -0.381   9.873 -0.1602 -0.1436  0.3238
  687MOL0     C94689   4.913  -0.525   9.908  0.8024 -1.0634  0.4421
  687MOL0     C94690   4.918  -0.533  10.065  0.0470  0.5656  0.0226
  687MOL0     C94691   4.973  -0.672  10.111  0.4348 -0.4541  0.2248
  687MOL0     O94692   5.093  -0.700  10.034  0.3377 -0.2021  0.1824
  687MOL0     C94693   5.218  -0.655  10.077  0.2469  0.1139 -0.3102
  687MOL0     C94694   5.246  -0.579  10.184 -0.0817 -0.2829  0.0578
  687MOL0     C94695   5.378  -0.565  10.229 -0.3763 -0.6612  0.0864
  687MOL0     C94696   5.406  -0.497  10.368  0.9769 -0.4126 -0.1410
  687MOL0     C94697   5.487  -0.610  10.146 -0.4151  0.0577 -0.8834
  687MOL0     C94698   5.631  -0.578  10.169  1.0366 -0.2760 -0.6875
  687MOL0     O94699   5.721  -0.650  10.106 -0.3342 -0.2278 -0.5367
  687MOL0     C94700   5.851  -0.587  10.104  0.2041  0.8206  0.5273
  687MOL0     C94701   5.862  -0.467  10.030 -0.6362  0.6063 -1.0526
  687MOL0     C94702   5.989  -0.418  10.004 -0.4219 -0.1282 -0.2354
  687MOL0     C94703   6.107  -0.485  10.045  0.2108 -0.8626  0.5650
  687MOL0     O94704   6.223  -0.438  10.006  0.1048  0.2167 -0.4895
  687MOL0     C94705   6.340  -0.479  10.091  0.5161  0.0612 -0.3768
  687MOL0     C94706   6.449  -0.387  10.055  0.4724 -0.9923  0.5999
  687MOL0     C94707   6.407  -0.236  10.078  0.0457  0.2963 -0.0407
  687MOL0     C94708   6.348  -0.197  10.218 -0.3390  0.6298 -0.2076
  687MOL0     C94709   6.325  -0.047  10.221 -0.3430  0.6946  0.1636
  687MOL0     C94710   6.448   0.015  10.282 -0.7524 -0.4285  0.1568
  687MOL0     C94711   6.470   0.157  10.225 -0.2682  0.0529 -0.5960
  687MOL0     C94712   6.621   0.206  10.222  1.0790  0.0661  0.6613
  687MOL0    Cl94713   6.627   0.379  10.192 -0.0453 -0.4148  0.8032
  687MOL0     C94714   6.097  -0.602  10.117  0.0039 -0.8435 -0.0786
  687MOL0     C94715   5.968  -0.644  10.158  0.4239  0.2561  0.0839
  687MOL0     O94716   5.651  -0.478  10.235  0.2884  0.0605 -0.2232
  687MOL0     C94717   5.454  -0.684  10.034 -0.6641 -0.5264 -0.4291
  687MOL0     C94718   5.319  -0.714  10.007 -1.0074 -0.3198  0.0742
  687MOL0     N94719   4.873  -0.466   9.627  0.3058 -0.0811  0.2434
  687MOL0     N94720   4.854  -0.417   9.501  0.2368 -0.2141  0.1547
  687MOL0     C94721   3.886   0.253   8.898 -0.0128  0.3335 -0.7994
  687MOL0     C94722   3.759   0.300   8.866 -1.2477 -0.9814  0.0564
  687MOL0     C94723   3.349   0.389   8.745  0.6907  0.0735  0.1300
  687MOL0     C94724   3.287   0.260   8.718 -0.3417  0.7079  0.6975
  687MOL0     C94725   3.163   0.256   8.664 -0.0577  0.0030  0.3939
  687MOL0     C94726   3.106   0.371   8.610  1.1195 -0.2296  0.1150
  687MOL0     O94727   2.979   0.368   8.564  1.5256 -0.5276  0.1471
  687MOL0     C94728   2.961   0.372   8.425  0.7365  1.5183  0.2626
  687MOL0     C94729   2.969   0.226   8.356 -0.3034  0.9086  0.0159
  687MOL0     C94730   2.920   0.101   8.433  0.6681 -1.5941 -0.3840
  687MOL0     C94731   2.934  -0.024   8.347 -0.2589  0.1619 -0.4869
  687MOL0     C94732   2.830  -0.121   8.376  0.4674  0.5868  0.1067
  687MOL0     C94733   2.744  -0.200   8.395  0.3345 -0.0958  0.3785
  687MOL0     C94734   3.165   0.495   8.627  0.3493 -0.1312 -0.0858
  687MOL0     C94735   3.278   0.506   8.703 -0.0800 -0.3052 -0.3160
  687MOL0     C94736   3.322   0.651   8.735 -0.0868  0.0049  0.0213
  687MOL0     H94737   3.565   0.035   8.934 -1.1373  1.7009 -0.3065
  687MOL0     H94738   3.799  -0.058   8.994  0.4036  1.0378  3.4820
  687MOL0     H94739   4.034  -0.110   8.978  2.2244 -2.5998  1.5594
  687MOL0     H94740   3.999  -0.019   9.121  0.9883  1.1705  0.3233
  687MOL0     H94741   4.278  -0.049   8.959 -0.5595  0.6426 -1.5065
  687MOL0     H94742   4.247   0.043   9.102 -0.2080 -0.2240 -1.0990
  687MOL0     H94743   4.196  -0.152   9.230 -1.0960  0.1316 -1.3943
  687MOL0     H94744   4.215  -0.248   9.084 -0.3104 -1.2596  1.1360
  687MOL0     H94745   4.450  -0.161   9.069  1.5964 -0.4606  0.9656
  687MOL0     H94746   4.413  -0.057   9.207 -1.6088  0.6879 -0.6310
  687MOL0     H94747   4.404  -0.372   9.215  2.9498 -0.0682 -2.0781
  687MOL0     H94748   4.378  -0.261   9.356 -0.0655 -1.1172  0.7049
  687MOL0     H94749   4.603  -0.383   9.333  4.9467  0.8370 -0.3519
  687MOL0     H94750   4.615  -0.289   9.183  4.4133  1.0159  0.4872
  687MOL0     H94751   4.589  -0.150   9.454 -3.1302  2.7476 -2.3947
  687MOL0     H94752   4.634  -0.084   9.302  1.8412 -0.2528 -0.3231
  687MOL0     H94753   4.813  -0.274   9.304 -0.1588 -1.4103  0.3855
  687MOL0     H94754   4.846  -0.119   9.388 -1.0844  0.8293  2.2861
  687MOL0     H94755   4.799  -0.160   9.697  0.3259  0.5953 -1.0563
  687MOL0     H94756   4.787  -0.351   9.925 -2.0072 -1.2613 -2.0583
  687MOL0     H94757   4.960  -0.315   9.903 -1.1062  1.2333 -0.0738
  687MOL0     H94758   4.844  -0.599   9.866  0.5121  0.3902 -1.8280
  687MOL0     H94759   5.005  -0.561   9.861  0.6358  0.2559 -0.9521
  687MOL0     H94760   4.974  -0.450  10.107 -0.8170  3.0568 -3.2940
  687MOL0     H94761   4.817  -0.531  10.106 -0.3415 -1.7820 -0.6345
  687MOL0     H94762   5.000  -0.683  10.216  0.1883  0.9131  0.4447
  687MOL0     H94763   4.900  -0.753  10.101 -0.1842  0.3021 -1.8881
  687MOL0     H94764   5.175  -0.531  10.252  0.7847  1.4747 -0.2106
  687MOL0     H94765   5.310  -0.493  10.420  1.2344 -0.1012  0.3171
  687MOL0     H94766   5.455  -0.400  10.358  0.4537 -0.3530 -2.6340
  687MOL0     H94767   5.475  -0.560  10.425 -1.3661 -1.3462  1.8394
  687MOL0     H94768   5.772  -0.417   9.999 -1.4655 -0.1971 -0.0396
  687MOL0     H94769   6.002  -0.326   9.947  1.6786  0.0817  0.5079
  687MOL0     H94770   6.312  -0.489  10.196 -0.4097  1.7529 -0.4276
  687MOL0     H94771   6.362  -0.581  10.060  1.4259 -0.0314  0.5126
  687MOL0     H94772   6.537  -0.392  10.120 -0.1672  0.1019  1.5817
  687MOL0     H94773   6.494  -0.410   9.958 -0.4115 -3.3846  0.6993
  687MOL0     H94774   6.324  -0.218  10.008 -0.4539  1.4608  0.8154
  687MOL0     H94775   6.482  -0.162  10.050  0.9877 -0.2016  1.1012
  687MOL0     H94776   6.421  -0.235  10.290 -2.0127 -0.6439  0.9044
  687MOL0     H94777   6.259  -0.258  10.239  0.2371 -0.6945 -1.4899
  687MOL0     H94778   6.303  -0.006  10.123 -1.0925  2.2384  0.9524
  687MOL0     H94779   6.240  -0.020  10.284 -1.2128 -0.6199 -0.4053
  687MOL0     H94780   6.543  -0.031  10.255 -1.0948  0.2988 -2.5223
  687MOL0     H94781   6.434   0.020  10.391  0.5385 -2.0119  0.4181
  687MOL0     H94782   6.400   0.218  10.283 -2.2570 -1.5025 -1.2569
  687MOL0     H94783   6.438   0.156  10.121 -2.1630  2.4597 -0.1365
  687MOL0     H94784   6.673   0.156  10.140  1.9276  1.3349  0.4042
  687MOL0     H94785   6.681   0.183  10.311 -1.0086  2.2627  2.7736
  687MOL0     H94786   6.177  -0.668  10.146  0.1201 -1.5589 -1.8785
  687MOL0     H94787   5.957  -0.741  10.204 -0.9080 -0.5031 -1.6974
  687MOL0     H94788   5.530  -0.717   9.964  0.3680  0.7852  0.0323
  687MOL0     H94789   5.296  -0.780   9.924  0.0071 -0.3187 -0.2300
  687MOL0     H94790   3.972   0.321   8.900 -0.2785  0.6691  0.5266
  687MOL0     H94791   3.755   0.402   8.830 -0.4447  0.2787  3.2252
  687MOL0     H94792   3.321   0.162   8.749  1.5782  1.2382  0.3968
  687MOL0     H94793   3.126   0.155   8.652 -1.2017  0.4369  0.1044
  687MOL0     H94794   2.863   0.419   8.413  1.3715  3.7070  2.7683
  687MOL0     H94795   3.037   0.433   8.376  0.7356  1.3840  0.0935
  687MOL0     H94796   3.072   0.210   8.321 -0.3550  0.8084 -0.0896
  687MOL0     H94797   2.920   0.241   8.259 -0.7878 -0.4000  0.0517
  687MOL0     H94798   2.986   0.097   8.520  1.1506  1.4376 -0.4972
  687MOL0     H94799   2.814   0.111   8.458 -0.1807 -1.3349 -3.6312
  687MOL0     H94800   3.033  -0.069   8.358 -0.5115 -0.2746  0.0352
  687MOL0     H94801   2.929   0.007   8.242  2.5549 -0.3267 -0.8439
  687MOL0     H94802   2.673  -0.278   8.377 -0.3085  0.8317 -1.4546
  687MOL0     H94803   3.118   0.592   8.610  0.6175 -0.3198 -2.0770
  687MOL0     H94804   3.422   0.661   8.694  0.2729  0.2237  0.9269
  687MOL0     H94805   3.250   0.724   8.695 -4.3883 -4.8108 -2.2356
  687MOL0     H94806   3.332   0.673   8.842  1.4917 -0.1618 -0.0772
  688MOL0     O94807   3.136   3.947   4.033  0.5848 -0.4657  0.6989
  688MOL0     C94808   3.066   3.973   3.932  0.4871  0.6132  0.4045
  688MOL0     O94809   3.113   4.017   3.812 -0.0068 -0.8155  0.8237
  688MOL0     C94810   3.245   4.008   3.786 -0.0556 -0.5571  0.2881
  688MOL0     C94811   3.301   3.886   3.765 -0.0286 -0.0250  0.3635
  688MOL0     C94812   3.440   3.880   3.730 -0.4980  0.0617 -0.1224
  688MOL0     C94813   3.512   4.000   3.714 -0.2911 -0.6950  0.6499
  688MOL0     O94814   3.643   3.987   3.676 -0.1125  0.5425  0.2015
  688MOL0     C94815   3.734   4.025   3.779  0.5202 -1.0876 -0.1641
  688MOL0     C94816   3.874   4.037   3.727 -0.3656 -0.4572  0.3190
  688MOL0     C94817   3.902   4.158   3.627  0.0164  0.1792 -0.6562
  688MOL0     C94818   4.048   4.177   3.600 -0.2722  0.0658 -0.3135
  688MOL0     C94819   4.088   4.279   3.489 -0.3535  0.1934 -0.2663
  688MOL0     C94820   4.239   4.334   3.493  0.4878  0.8103  0.1429
  688MOL0     C94821   4.340   4.248   3.420  0.6446  0.2959 -0.8194
  688MOL0     C94822   4.485   4.303   3.441  0.1904  0.4787 -0.4475
  688MOL0     N94823   4.531   4.317   3.581  0.0569 -0.1732 -0.4079
  688MOL0     C94824   4.506   4.236   3.692 -0.9982  0.7556  0.7373
  688MOL0     C94825   4.532   4.319   3.796  0.4787  0.6744 -0.4786
  688MOL0     C94826   4.512   4.266   3.944 -0.1031  0.2675  0.3834
  688MOL0     C94827   4.647   4.237   4.013  0.7111  0.4326  0.7702
  688MOL0     C94828   4.748   4.357   4.016 -0.5449  0.5663  0.5723
  688MOL0     C94829   4.698   4.477   4.091  0.0006 -0.3187 -0.1257
  688MOL0     O94830   4.747   4.465   4.224  0.1225 -1.4284 -0.3688
  688MOL0     C94831   4.882   4.502   4.247  0.0982 -0.2282  0.4668
  688MOL0     C94832   4.951   4.463   4.366 -0.3788  0.1500 -0.4308
  688MOL0     C94833   5.085   4.506   4.392 -0.2197  0.7872 -0.4877
  688MOL0     C94834   5.139   4.472   4.529 -0.7205 -0.9315  0.7471
  688MOL0     C94835   5.154   4.585   4.296  0.1658  0.6272  0.0806
  688MOL0     C94836   5.299   4.607   4.309  0.1536  0.0850  0.3654
  688MOL0     O94837   5.391   4.498   4.296 -0.5250 -0.2981 -0.0801
  688MOL0     C94838   5.520   4.509   4.263  0.7044 -0.0661  0.0624
  688MOL0     C94839   5.568   4.432   4.155 -1.1882  0.3236 -0.3170
  688MOL0     C94840   5.701   4.450   4.112  0.0528  0.5029 -0.4076
  688MOL0     C94841   5.780   4.538   4.178  0.2861 -0.0693  0.7268
  688MOL0     O94842   5.909   4.554   4.141 -0.5948 -0.1293  0.1274
  688MOL0     C94843   5.935   4.621   4.016  0.5052 -0.1708  1.0261
  688MOL0     C94844   6.039   4.541   3.928  0.0474  0.1109  0.1112
  688MOL0     C94845   6.195   4.567   3.961 -0.8220 -0.4099 -0.3354
  688MOL0     C94846   6.292   4.509   3.852  0.0175 -0.3761  0.7982
  688MOL0     C94847   6.438   4.516   3.900 -0.0839  0.5113  0.2723
  688MOL0     C94848   6.537   4.530   3.784 -0.2343  0.6783 -0.0415
  688MOL0     C94849   6.677   4.508   3.841 -0.4030  0.3267 -0.7530
  688MOL0     C94850   6.780   4.471   3.738  0.5785  0.3756 -0.3038
  688MOL0    Cl94851   6.819   4.605   3.622  0.0609 -0.0318  0.1409
  688MOL0     C94852   5.741   4.616   4.280  0.4683  0.3019  0.5214
  688MOL0     C94853   5.607   4.602   4.327 -0.4378 -0.6591  0.0138
  688MOL0     O94854   5.334   4.725   4.323 -0.2560  0.0205 -0.2063
  688MOL0     C94855   5.082   4.614   4.183 -0.0903  0.2072 -0.0565
  688MOL0     C94856   4.949   4.582   4.158 -1.0668  0.1506 -0.2896
  688MOL0     N94857   4.564   4.448   3.757 -0.0660  0.2564  0.6090
  688MOL0     N94858   4.556   4.444   3.625 -0.3970 -0.3309  0.4748
  688MOL0     C94859   3.453   4.120   3.731 -0.4523 -0.1272 -0.2694
  688MOL0     C94860   3.319   4.122   3.766 -0.2886  0.8473 -0.4660
  688MOL0     C94861   2.922   3.941   3.942 -0.3121 -0.2330  0.2588
  688MOL0     C94862   2.882   3.817   3.980 -0.4218  0.3502 -0.1977
  688MOL0     C94863   2.754   3.788   4.009 -0.2826 -0.0454  0.1764
  688MOL0     C94864   2.652   3.870   3.970 -0.0384 -1.3464 -0.1034
  688MOL0     O94865   2.528   3.832   4.005  0.0612  0.1392 -0.3755
  688MOL0     C94866   2.416   3.923   3.982 -0.4682  1.0206  0.6072
  688MOL0     C94867   2.351   3.872   3.858 -0.6261  0.5299  0.1454
  688MOL0     C94868   2.215   3.945   3.836  0.6590 -0.3494  0.8835
  688MOL0     C94869   2.100   3.895   3.932 -0.7685 -0.1777  0.0862
  688MOL0     C94870   1.974   3.966   3.929  0.3405 -0.0753 -0.1725
  688MOL0     C94871   1.860   4.025   3.915  1.4803  0.0311 -0.6373
  688MOL0     C94872   2.685   3.995   3.909  0.7744 -0.1989 -0.5418
  688MOL0     C94873   2.821   4.031   3.901 -1.2956 -0.1102 -0.2015
  688MOL0     C94874   2.852   4.177   3.875  0.6920  0.5219  0.4032
  688MOL0     H94875   3.254   3.789   3.778  0.0710 -0.2185 -0.6384
  688MOL0     H94876   3.487   3.783   3.723 -1.3711 -0.4874  1.2532
  688MOL0     H94877   3.730   3.946   3.855  0.2791  1.1058  2.2733
  688MOL0     H94878   3.706   4.120   3.826  0.4057 -1.3484  0.3054
  688MOL0     H94879   3.952   4.047   3.804  0.7747 -0.0201 -0.8602
  688MOL0     H94880   3.890   3.941   3.677  1.9388  0.0501 -0.0614
  688MOL0     H94881   3.849   4.122   3.538  0.1780 -1.2043 -0.2122
  688MOL0     H94882   3.858   4.251   3.665  1.5415  0.3423  0.7872
  688MOL0     H94883   4.102   4.191   3.694 -2.7960 -2.7640  1.7555
  688MOL0     H94884   4.089   4.084   3.560  0.0034  0.3216 -0.6343
  688MOL0     H94885   4.025   4.367   3.503  1.6781  1.5417  0.9158
  688MOL0     H94886   4.079   4.237   3.389  1.2881  0.0845 -0.3996
  688MOL0     H94887   4.226   4.435   3.453  2.0772  0.3224 -1.7534
  688MOL0     H94888   4.267   4.348   3.598 -2.5771 -1.8447  1.5047
  688MOL0     H94889   4.309   4.251   3.315 -1.8126  2.0307 -0.1369
  688MOL0     H94890   4.329   4.150   3.467 -0.6689  1.6894  2.0260
  688MOL0     H94891   4.562   4.240   3.396 -0.0916 -3.6641  4.1545
  688MOL0     H94892   4.490   4.405   3.401  2.1625  0.9869  0.9928
  688MOL0     H94893   4.474   4.132   3.699  1.0613  0.0885  0.8094
  688MOL0     H94894   4.449   4.179   3.923 -0.6187  0.5700  0.6777
  688MOL0     H94895   4.465   4.344   4.005  1.9183  1.6296  0.2776
  688MOL0     H94896   4.621   4.208   4.115  0.9189 -3.2439 -0.0942
  688MOL0     H94897   4.688   4.141   3.979 -1.3894 -0.2136 -0.0402
  688MOL0     H94898   4.834   4.317   4.070  0.0393  0.9008 -0.1031
  688MOL0     H94899   4.764   4.404   3.918  0.1935  5.6332  2.8241
  688MOL0     H94900   4.721   4.565   4.031  2.3168 -2.3808 -2.5303
  688MOL0     H94901   4.589   4.469   4.097  0.2122 -2.9727  3.3510
  688MOL0     H94902   4.900   4.398   4.437  0.8156 -0.4786 -0.1195
  688MOL0     H94903   5.248   4.476   4.536 -0.3871 -0.0789 -2.8781
  688MOL0     H94904   5.117   4.368   4.554  0.9294 -1.2557  0.9853
  688MOL0     H94905   5.103   4.539   4.608 -2.2782 -0.0312 -0.6705
  688MOL0     H94906   5.509   4.364   4.095  0.2974 -0.3813 -1.0490
  688MOL0     H94907   5.742   4.401   4.024  0.9919  0.2958  0.1371
  688MOL0     H94908   5.842   4.625   3.959  0.8617  0.3949  0.4656
  688MOL0     H94909   5.969   4.725   4.023  0.8428 -0.2608  0.7598
  688MOL0     H94910   6.015   4.434   3.927 -3.6105  0.7640  1.7338
  688MOL0     H94911   6.038   4.583   3.827 -1.3576 -0.4296 -0.1289
  688MOL0     H94912   6.215   4.522   4.059 -1.9370  0.3855  0.2655
  688MOL0     H94913   6.222   4.673   3.964  5.0083 -1.5794  1.0455
  688MOL0     H94914   6.275   4.550   3.752  3.4599  0.5153  0.4744
  688MOL0     H94915   6.263   4.404   3.846  2.6558 -1.2794  2.5760
  688MOL0     H94916   6.459   4.603   3.963  0.7873  1.2660 -1.0108
  688MOL0     H94917   6.440   4.428   3.966 -1.7975  0.1659 -0.0900
  688MOL0     H94918   6.533   4.629   3.738 -2.0981  0.0282 -1.3898
  688MOL0     H94919   6.522   4.464   3.699  1.2240 -1.0264  0.9391
  688MOL0     H94920   6.672   4.432   3.919  0.1247 -2.2468 -3.0589
  688MOL0     H94921   6.704   4.599   3.896  0.9456 -0.7257  0.3988
  688MOL0     H94922   6.740   4.389   3.678  1.1772  0.8926 -1.4541
  688MOL0     H94923   6.870   4.429   3.784  0.1456 -1.3714 -0.9596
  688MOL0     H94924   5.818   4.673   4.332  1.5346  0.4533 -1.1676
  688MOL0     H94925   5.562   4.649   4.415  1.4049  0.4178  0.4234
  688MOL0     H94926   5.137   4.673   4.111 -1.1055 -0.8526 -1.7715
  688MOL0     H94927   4.902   4.616   4.067 -0.8516  0.3318 -0.3335
  688MOL0     H94928   3.510   4.212   3.730 -0.5187 -0.0249  1.6990
  688MOL0     H94929   3.271   4.219   3.768 -0.8892  0.6937 -3.7153
  688MOL0     H94930   2.956   3.744   4.013  0.7181  0.8846 -1.4709
  688MOL0     H94931   2.733   3.689   4.048 -1.5685 -1.4148 -3.5716
  688MOL0     H94932   2.350   3.913   4.068 -0.2039  2.9600  1.0857
  688MOL0     H94933   2.441   4.029   3.972  2.2080  0.3434 -0.9311
  688MOL0     H94934   2.321   3.768   3.872 -2.0486  1.0225  0.9583
  688MOL0     H94935   2.415   3.896   3.772  0.9510 -1.8111  0.5779
  688MOL0     H94936   2.232   4.051   3.858  0.9844 -0.1928 -0.0432
  688MOL0     H94937   2.187   3.922   3.733  3.8265 -1.8017  0.2050
  688MOL0     H94938   2.143   3.902   4.032  0.2229  3.1820 -0.4699
  688MOL0     H94939   2.082   3.790   3.908 -2.1217 -0.2276  1.1955
  688MOL0     H94940   1.774   4.082   3.887  0.5227 -1.2032 -0.2950
  688MOL0     H94941   2.604   4.063   3.883  0.6040 -0.4671 -0.7146
  688MOL0     H94942   2.856   4.191   3.766 -2.4131 -1.6344 -0.1157
  688MOL0     H94943   2.769   4.238   3.910 -1.0889 -2.5455  1.9063
  688MOL0     H94944   2.949   4.208   3.914  0.9047  1.9265 -1.1208
  689MOL0     O94945   0.825   4.406   5.926 -0.0487 -0.6086  0.4429
  689MOL0     C94946   0.881   4.491   5.999  0.4483  0.4087  0.2921
  689MOL0     O94947   0.812   4.593   6.064  0.0176  0.0914 -0.9565
  689MOL0     C94948   0.698   4.647   6.009 -0.7658  0.6564  0.9519
  689MOL0     C94949   0.653   4.623   5.873  0.5581  0.4985  0.2597
  689MOL0     C94950   0.533   4.678   5.821 -0.8374 -0.6278  0.1818
  689MOL0     C94951   0.454   4.767   5.896  0.0329 -0.3480 -0.5935
  689MOL0     O94952   0.340   4.825   5.847  0.0353  0.4027 -0.3674
  689MOL0     C94953   0.321   4.966   5.899 -0.7004  0.2717 -0.9782
  689MOL0     C94954   0.198   5.028   5.844 -0.2829 -0.0689  0.2466
  689MOL0     C94955   0.150   5.155   5.933 -0.0010 -0.4645  0.2036
  689MOL0     C94956   0.025   5.210   5.875  0.2189  0.3779 -0.2933
  689MOL0     C94957  -0.064   5.266   5.989 -0.3597  0.0294 -0.8928
  689MOL0     C94958  -0.169   5.156   6.036 -0.8356  0.2768  0.5703
  689MOL0     C94959  -0.293   5.149   5.938 -0.4208  0.6726 -0.0695
  689MOL0     C94960  -0.403   5.251   5.965  1.1873 -0.5137  0.2525
  689MOL0     N94961  -0.510   5.231   5.858  0.4287  0.0396  0.1704
  689MOL0     C94962  -0.647   5.257   5.884 -0.6312 -0.9868  0.4161
  689MOL0     C94963  -0.697   5.230   5.761  0.2836 -0.2755 -0.1278
  689MOL0     C94964  -0.835   5.274   5.722 -0.1649  0.6902 -0.1857
  689MOL0     C94965  -0.870   5.414   5.768  0.8853 -0.2782 -1.7033
  689MOL0     C94966  -0.985   5.396   5.864  0.5540 -0.0607  1.0251
  689MOL0     C94967  -0.944   5.366   6.012  0.7495 -0.8489  0.3850
  689MOL0     O94968  -0.843   5.458   6.065  0.0138 -0.4227  0.4204
  689MOL0     C94969  -0.797   5.427   6.184  0.1279 -0.2822  0.0401
  689MOL0     C94970  -0.865   5.363   6.288 -0.9986 -0.2904  0.0439
  689MOL0     C94971  -0.809   5.324   6.404 -0.2891  0.1957 -0.2445
  689MOL0     C94972  -0.908   5.248   6.494  0.0725  0.2931 -0.7605
  689MOL0     C94973  -0.676   5.363   6.434  0.6691  1.0893 -0.3671
  689MOL0     C94974  -0.608   5.326   6.551 -0.4242  0.0981 -1.2042
  689MOL0     O94975  -0.526   5.427   6.592 -0.8226  0.0767 -1.2394
  689MOL0     C94976  -0.427   5.390   6.681 -0.6067 -0.0660  0.3169
  689MOL0     C94977  -0.293   5.436   6.655 -0.2965 -0.0049  0.8504
  689MOL0     C94978  -0.185   5.392   6.732  0.2999 -0.0002  0.3718
  689MOL0     C94979  -0.207   5.318   6.843 -1.2995  0.4035 -0.0826
  689MOL0     O94980  -0.109   5.270   6.925  0.2486 -0.1964 -0.9611
  689MOL0     C94981   0.011   5.215   6.866  0.1932  0.0936 -0.3787
  689MOL0     C94982   0.124   5.213   6.964  0.5701 -0.0623  0.3355
  689MOL0     C94983   0.253   5.162   6.893  0.3334 -0.4764 -0.0991
  689MOL0     C94984   0.238   5.017   6.849 -0.2633 -0.5026 -0.1122
  689MOL0     C94985   0.359   4.966   6.779  0.1328  0.0605  0.1525
  689MOL0     C94986   0.483   4.947   6.866 -0.0882 -0.1860  0.0377
  689MOL0     C94987   0.599   4.894   6.783 -0.0766  0.8800  0.1158
  689MOL0     C94988   0.721   4.848   6.860 -0.0938 -0.8603  0.1277
  689MOL0    Cl94989   0.700   4.688   6.934 -0.4921  0.2605 -0.6805
  689MOL0     C94990  -0.338   5.271   6.872 -1.0406 -0.6209 -0.6468
  689MOL0     C94991  -0.445   5.304   6.792 -0.8314  0.8827 -0.5597
  689MOL0     O94992  -0.615   5.208   6.591  1.2412 -0.3555 -0.1022
  689MOL0     C94993  -0.610   5.436   6.330  0.4630  0.0101 -0.3599
  689MOL0     C94994  -0.669   5.466   6.210 -0.2810  0.2601  0.0765
  689MOL0     N94995  -0.604   5.177   5.670  0.6312  0.1469  0.2255
  689MOL0     N94996  -0.497   5.171   5.734 -0.1241 -0.4632 -0.6648
  689MOL0     C94997   0.506   4.795   6.026  0.2524  0.4994 -0.1917
  689MOL0     C94998   0.622   4.736   6.078  0.7499 -0.1130 -0.6849
  689MOL0     C94999   1.026   4.485   6.014 -0.4141  0.3473 -0.3888
  689MOL0     C95000   1.085   4.484   6.146  0.3478 -0.2695  0.1865
  689MOL0     C95001   1.218   4.482   6.171 -0.2834 -0.1986  0.0866
  689MOL0     C95002   1.308   4.474   6.068 -0.2904  0.0549 -0.2169
  689MOL0     O95003   1.442   4.477   6.089  0.0617 -0.2279  0.4377
  689MOL0     C95004   1.488   4.388   6.187  0.1163  0.6467 -0.3462
  689MOL0     C95005   1.617   4.328   6.136 -0.5390  0.1811  0.5369
  689MOL0     C95006   1.691   4.238   6.240 -0.0942 -0.0951 -0.3470
  689MOL0     C95007   1.684   4.089   6.205  0.0641 -0.2929 -0.0845
  689MOL0     C95008   1.757   4.060   6.079 -0.0220  0.3901 -0.3506
  689MOL0     C95009   1.809   4.012   5.976 -0.4820  1.0522  0.6854
  689MOL0     C95010   1.258   4.469   5.934  0.9558 -0.1702 -0.7842
  689MOL0     C95011   1.115   4.467   5.904 -0.6418 -0.2259 -0.2014
  689MOL0     C95012   1.071   4.489   5.753  0.1970 -0.0878  0.1588
  689MOL0     H95013   0.707   4.560   5.804 -0.9298  0.4596 -0.9121
  689MOL0     H95014   0.503   4.665   5.717 -2.1797 -1.6713  0.6585
  689MOL0     H95015   0.407   5.031   5.881 -0.0194 -0.4818 -0.5412
  689MOL0     H95016   0.303   4.972   6.006  1.9584 -2.1112 -0.2491
  689MOL0     H95017   0.216   5.048   5.738  2.5049 -2.6750  0.0822
  689MOL0     H95018   0.119   4.952   5.851 -0.6489  0.2240 -0.5538
  689MOL0     H95019   0.130   5.117   6.033 -0.9240  0.8660  0.5575
  689MOL0     H95020   0.231   5.229   5.933 -0.5026  0.1571  2.2432
  689MOL0     H95021   0.052   5.292   5.808 -1.0697 -0.7657 -2.2897
  689MOL0     H95022  -0.030   5.130   5.826 -0.8644  1.3788 -0.7687
  689MOL0     H95023  -0.117   5.359   5.967 -0.9702  0.0410  0.5158
  689MOL0     H95024  -0.004   5.285   6.079 -3.0871 -2.0406  1.5750
  689MOL0     H95025  -0.113   5.062   6.039  0.6920  1.1696  1.1402
  689MOL0     H95026  -0.215   5.169   6.134  1.8363 -3.0420  2.4479
  689MOL0     H95027  -0.333   5.050   5.960 -0.5209  0.2395 -2.0196
  689MOL0     H95028  -0.257   5.147   5.834 -0.0139 -1.8546  0.0539
  689MOL0     H95029  -0.447   5.246   6.065 -3.4152 -0.7219 -1.5017
  689MOL0     H95030  -0.354   5.347   5.952  0.1864 -0.1891 -1.5553
  689MOL0     H95031  -0.693   5.305   5.970  1.9877 -1.2455  2.0671
  689MOL0     H95032  -0.905   5.193   5.745 -0.4241  0.8769 -0.3077
  689MOL0     H95033  -0.829   5.281   5.613 -0.7671  0.3989 -0.2379
  689MOL0     H95034  -0.794   5.467   5.825 -0.6497  1.6472 -1.3438
  689MOL0     H95035  -0.893   5.471   5.678  0.4710 -2.7679 -3.2673
  689MOL0     H95036  -1.037   5.492   5.860  0.9158  0.1585  1.4493
  689MOL0     H95037  -1.060   5.324   5.831  0.6051 -1.0359  2.8945
  689MOL0     H95038  -1.038   5.383   6.066 -0.1371  0.5181 -1.4629
  689MOL0     H95039  -0.913   5.261   6.015  0.0102 -1.1266 -1.0528
  689MOL0     H95040  -0.971   5.345   6.271 -1.5007  0.4234  2.0272
  689MOL0     H95041  -0.991   5.214   6.432 -0.7460  0.2618  0.3370
  689MOL0     H95042  -0.949   5.310   6.574 -0.0222  0.0767 -0.6436
  689MOL0     H95043  -0.869   5.160   6.545  1.0521  0.9963 -0.2520
  689MOL0     H95044  -0.279   5.500   6.568 -1.9896  0.7092  1.0570
  689MOL0     H95045  -0.090   5.430   6.695  0.1116 -0.7704 -0.9707
  689MOL0     H95046  -0.016   5.114   6.835 -3.4825  1.1237 -0.9867
  689MOL0     H95047   0.030   5.273   6.775 -2.1262  0.3128 -0.7979
  689MOL0     H95048   0.147   5.311   7.007  1.4039  0.5147 -1.3192
  689MOL0     H95049   0.100   5.153   7.052  0.1459 -1.0233 -0.4044
  689MOL0     H95050   0.339   5.169   6.960  0.1990  0.6262 -0.0222
  689MOL0     H95051   0.275   5.219   6.802  0.1066 -2.1711 -1.2534
  689MOL0     H95052   0.148   4.990   6.792  0.3779 -1.6240 -0.6153
  689MOL0     H95053   0.225   4.961   6.942  0.6448 -0.2792  0.1509
  689MOL0     H95054   0.336   4.866   6.740  0.0589  0.2211 -0.2138
  689MOL0     H95055   0.379   5.037   6.699 -0.2772  1.1507  0.9832
  689MOL0     H95056   0.471   4.876   6.948  0.4114  0.7673  0.9471
  689MOL0     H95057   0.521   5.044   6.900  0.5640 -1.0695  1.9422
  689MOL0     H95058   0.648   4.967   6.717 -0.0972 -0.9246 -2.0374
  689MOL0     H95059   0.566   4.809   6.723  0.7345  0.2833  0.4922
  689MOL0     H95060   0.746   4.922   6.937  2.3457  2.1244 -3.2162
  689MOL0     H95061   0.809   4.845   6.795 -0.2601  0.1545 -0.1580
  689MOL0     H95062  -0.360   5.214   6.962 -1.2108 -2.3831 -1.7581
  689MOL0     H95063  -0.545   5.278   6.826 -1.5998  1.3786 -2.2996
  689MOL0     H95064  -0.504   5.460   6.339  0.8709 -0.6947 -2.6556
  689MOL0     H95065  -0.612   5.517   6.133  1.4891 -0.7975  0.6464
  689MOL0     H95066   0.452   4.844   6.107  0.3347 -2.2002  1.6210
  689MOL0     H95067   0.647   4.763   6.180 -0.7293  2.3534 -0.9172
  689MOL0     H95068   1.022   4.479   6.234 -0.7814 -0.9532 -0.6308
  689MOL0     H95069   1.246   4.478   6.276 -3.0824  4.3355  1.3181
  689MOL0     H95070   1.517   4.444   6.276  0.9543  1.3592 -1.0504
  689MOL0     H95071   1.421   4.307   6.218  0.0709  1.7212  2.7124
  689MOL0     H95072   1.690   4.392   6.085 -0.3427 -1.3631 -1.2662
  689MOL0     H95073   1.590   4.254   6.060  1.6936 -3.1460  2.6840
  689MOL0     H95074   1.799   4.253   6.242  0.1274 -1.3014  2.5501
  689MOL0     H95075   1.666   4.262   6.344 -0.7971 -1.0342 -0.2779
  689MOL0     H95076   1.579   4.065   6.184  0.6176 -0.5835 -2.8152
  689MOL0     H95077   1.726   4.031   6.287  0.1628 -0.3228 -0.1563
  689MOL0     H95078   1.850   3.959   5.892 -1.5690 -0.7194  1.2104
  689MOL0     H95079   1.336   4.472   5.858  1.2561  1.1509 -0.4506
  689MOL0     H95080   1.088   4.400   5.691  1.3260 -1.9469  2.9121
  689MOL0     H95081   0.968   4.524   5.748 -0.1721 -1.2558 -3.6281
  689MOL0     H95082   1.134   4.571   5.719  0.8659 -0.2343  1.0115
  690MOL0     O95083  10.276   1.018  11.349 -1.2197 -0.4757  0.3998
  690MOL0     C95084  10.196   0.943  11.292  0.8579 -0.4963  0.1937
  690MOL0     O95085  10.221   0.822  11.243  0.1244 -0.3739  0.1227
  690MOL0     C95086  10.350   0.787  11.235 -0.3607  0.3214 -1.0879
  690MOL0     C95087  10.426   0.783  11.121 -0.0797 -0.0179  0.9106
  690MOL0     C95088  10.562   0.744  11.120 -0.6409 -0.0963  0.2295
  690MOL0     C95089  10.620   0.702  11.247 -0.4044 -1.0003  0.4851
  690MOL0     O95090  10.750   0.676  11.269  0.4106  1.0987 -0.4619
  690MOL0     C95091  10.856   0.741  11.195 -0.8300 -0.6855  0.1757
  690MOL0     C95092  10.995   0.682  11.207 -0.4924  0.0318  0.4679
  690MOL0     C95093  11.034   0.664  11.357  0.2998  0.2931  0.3701
  690MOL0     C95094  11.082   0.796  11.420  0.0486  0.3517  1.0199
  690MOL0     C95095  11.235   0.813  11.420 -0.2844 -0.2901 -0.3879
  690MOL0     C95096  11.268   0.915  11.520 -0.5502  0.7171  0.0348
  690MOL0     C95097  11.412   0.932  11.546  0.0545 -0.4146 -0.1218
  690MOL0     C95098  11.485   1.003  11.440 -0.4158 -0.4282 -0.0864
  690MOL0     N95099  11.627   0.990  11.473  0.2890 -0.4247  0.2646
  690MOL0     C95100  11.710   0.885  11.448 -0.2846 -0.5079  0.3245
  690MOL0     C95101  11.834   0.932  11.482 -0.4405  0.8159 -0.7465
  690MOL0     C95102  11.959   0.870  11.428 -0.4017 -0.0628 -0.2524
  690MOL0     C95103  12.068   0.863  11.544 -0.7528 -0.1331 -0.5655
  690MOL0     C95104  12.148   0.727  11.514  0.6189  0.4267 -0.4944
  690MOL0     C95105  12.285   0.734  11.565  0.1389 -0.3479  0.4097
  690MOL0     O95106  12.305   0.728  11.709 -0.4395 -0.1495 -0.0467
  690MOL0     C95107  12.428   0.776  11.749  0.1868  0.9873 -0.1861
  690MOL0     C95108  12.431   0.874  11.850  0.6394 -1.1600  0.9729
  690MOL0     C95109  12.558   0.916  11.896 -0.1588 -0.2739  0.5639
  690MOL0     C95110  12.547   1.022  12.009  0.6111 -0.2933  0.9306
  690MOL0     C95111  12.678   0.872  11.843  0.1318 -1.1187  0.8086
  690MOL0     C95112  12.822   0.919  11.867  0.4568 -0.1506 -0.0890
  690MOL0     O95113  12.927   0.857  11.806 -0.3101 -0.1238 -0.0702
  690MOL0     C95114  13.048   0.879  11.862 -0.2921  0.4975 -1.0884
  690MOL0     C95115  13.105   0.775  11.937 -0.0559  0.0570  0.6633
  690MOL0     C95116  13.246   0.774  11.957 -0.9891  0.2673  0.6952
  690MOL0     C95117  13.319   0.881  11.900  0.1879  0.0036 -0.0706
  690MOL0     O95118  13.458   0.871  11.903 -0.4574  0.5704 -0.1604
  690MOL0     C95119  13.532   0.854  11.778 -0.5805 -0.7899 -0.4900
  690MOL0     C95120  13.624   0.726  11.795  0.3143 -0.4276 -0.2692
  690MOL0     C95121  13.721   0.732  11.668  0.2653  0.5117  0.3437
  690MOL0     C95122  13.773   0.594  11.623  0.1035  0.2088 -0.2685
  690MOL0     C95123  13.880   0.619  11.515 -0.4603  0.7929  0.7694
  690MOL0     C95124  13.933   0.489  11.459 -0.3067 -0.1657  0.6337
  690MOL0     C95125  13.832   0.386  11.393  0.1384 -0.1027 -1.1510
  690MOL0     C95126  13.761   0.459  11.269 -0.2279 -0.3351 -0.1920
  690MOL0    Cl95127  13.660   0.339  11.181  0.3289 -0.6834 -0.1327
  690MOL0     C95128  13.258   0.990  11.837  0.8658  0.3316  0.5996
  690MOL0     C95129  13.119   0.993  11.824  0.0354  1.1406 -0.1416
  690MOL0     O95130  12.834   1.019  11.929 -0.1590  0.2493  0.6133
  690MOL0     C95131  12.673   0.771  11.740  0.2297 -0.2689  0.0208
  690MOL0     C95132  12.550   0.721  11.700  0.9238  0.2520 -1.3125
  690MOL0     N95133  11.822   1.060  11.537  0.2595  0.0705 -0.6132
  690MOL0     N95134  11.697   1.095  11.523  0.4539 -0.2121 -0.5751
  690MOL0     C95135  10.534   0.690  11.352  0.4422 -0.3425 -0.1353
  690MOL0     C95136  10.404   0.738  11.349 -0.6002  0.1143  0.5835
  690MOL0     C95137  10.046   0.978  11.280 -0.0231  0.6531 -0.6451
  690MOL0     C95138   9.944   0.870  11.274  0.6878 -0.1726  0.7072
  690MOL0     C95139   9.807   0.904  11.247  0.3169 -0.4470 -0.0171
  690MOL0     C95140   9.766   1.038  11.229 -0.2342  0.2529  0.7820
  690MOL0     O95141   9.638   1.072  11.203  0.4139 -0.2455  0.1686
  690MOL0     C95142   9.524   0.984  11.209  0.1908  0.7209  0.4432
  690MOL0     C95143   9.398   1.057  11.144 -0.8087 -0.7340 -0.9500
  690MOL0     C95144   9.270   0.981  11.155 -0.3057  0.0890 -0.3762
  690MOL0     C95145   9.219   0.982  11.293  0.7125  0.0697  0.2351
  690MOL0     C95146   9.073   0.975  11.288  0.5943  0.2555 -0.3713
  690MOL0     C95147   8.962   0.937  11.293 -0.0231  0.6554  0.1907
  690MOL0     C95148   9.864   1.138  11.226  0.5513 -0.1273 -0.2541
  690MOL0     C95149   9.998   1.110  11.257  0.2677 -0.1904  0.1932
  690MOL0     C95150  10.083   1.232  11.246 -0.9845 -0.3239  0.7136
  690MOL0     H95151  10.394   0.797  11.019 -1.9138 -2.8198  0.9823
  690MOL0     H95152  10.612   0.745  11.023  1.4339  3.2248  1.1664
  690MOL0     H95153  10.868   0.839  11.241 -1.0985 -0.4943 -0.1595
  690MOL0     H95154  10.838   0.760  11.089  0.2430  2.8897  0.5118
  690MOL0     H95155  10.994   0.586  11.155 -1.9354  0.1534  0.2379
  690MOL0     H95156  11.073   0.743  11.159  3.3015 -3.4285  1.6609
  690MOL0     H95157  10.939   0.634  11.403 -0.7305  1.6184 -0.7863
  690MOL0     H95158  11.110   0.586  11.370  0.7104  1.0979  3.5684
  690MOL0     H95159  11.025   0.882  11.384 -3.3457 -0.7346  3.3503
  690MOL0     H95160  11.069   0.791  11.528 -1.2797 -3.0681  0.8177
  690MOL0     H95161  11.267   0.837  11.318  1.4956 -0.8450  0.0130
  690MOL0     H95162  11.277   0.714  11.441 -1.2439 -0.6013  0.1347
  690MOL0     H95163  11.239   1.013  11.481 -3.2730  0.0880  0.3150
  690MOL0     H95164  11.219   0.914  11.618 -0.3200  0.2885  0.1462
  690MOL0     H95165  11.455   0.836  11.574  0.3892 -0.0182  0.7891
  690MOL0     H95166  11.420   0.996  11.635  4.0346 -0.8517  0.0114
  690MOL0     H95167  11.470   0.958  11.342 -1.2964  1.5654 -0.9056
  690MOL0     H95168  11.455   1.107  11.449  0.4284 -0.2519  0.9477
  690MOL0     H95169  11.671   0.801  11.391 -3.6928  0.2365  1.3646
  690MOL0     H95170  12.013   0.929  11.353  0.4894 -2.2394 -1.4161
  690MOL0     H95171  11.930   0.774  11.386 -2.3386 -0.1038  1.0346
  690MOL0     H95172  12.132   0.952  11.550 -1.2645  0.1296  1.6537
  690MOL0     H95173  12.017   0.852  11.640 -1.5644  1.3736 -0.7937
  690MOL0     H95174  12.098   0.646  11.568  3.3561 -1.0818 -0.0282
  690MOL0     H95175  12.160   0.709  11.407 -1.5676 -1.1074 -0.5406
  690MOL0     H95176  12.345   0.656  11.518 -1.3428  0.1799 -2.5793
  690MOL0     H95177  12.325   0.825  11.518 -2.3452 -0.5295 -2.2937
  690MOL0     H95178  12.342   0.902  11.904 -0.7890 -2.9016 -0.3622
  690MOL0     H95179  12.620   1.009  12.090 -0.1307 -0.0641  1.6487
  690MOL0     H95180  12.454   1.011  12.066 -0.7962  0.1206 -1.1531
  690MOL0     H95181  12.562   1.115  11.953 -2.1602 -0.8050 -0.8478
  690MOL0     H95182  13.046   0.689  11.969  1.6602 -0.3841  2.9591
  690MOL0     H95183  13.275   0.680  12.005 -1.6206  1.3450  3.4157
  690MOL0     H95184  13.462   0.838  11.695 -1.2474  0.2222 -0.1433
  690MOL0     H95185  13.592   0.944  11.758 -2.5390  0.7785  0.4053
  690MOL0     H95186  13.693   0.740  11.879  1.0907 -1.9207 -0.6261
  690MOL0     H95187  13.564   0.634  11.794  4.0324 -3.0740 -1.3809
  690MOL0     H95188  13.806   0.799  11.681  1.8376 -1.2481 -0.4719
  690MOL0     H95189  13.666   0.770  11.581 -0.1814  0.0877  0.4390
  690MOL0     H95190  13.689   0.541  11.577 -0.6584  2.0612 -1.0903
  690MOL0     H95191  13.817   0.539  11.707  0.5434 -0.7223 -1.0875
  690MOL0     H95192  13.834   0.664  11.427  0.9131  0.3577 -0.1979
  690MOL0     H95193  13.957   0.685  11.557 -1.2712  1.1422  1.7635
  690MOL0     H95194  13.999   0.443  11.532  3.1164  0.7140 -1.6706
  690MOL0     H95195  13.995   0.514  11.372 -0.7130 -1.5606 -0.0993
  690MOL0     H95196  13.752   0.371  11.466  0.4264  0.9688 -0.5864
  690MOL0     H95197  13.896   0.301  11.369 -1.1608 -2.1069  1.9038
  690MOL0     H95198  13.833   0.509  11.203 -0.5707 -0.8745 -0.9860
  690MOL0     H95199  13.695   0.534  11.312 -0.2774 -0.9955  0.9171
  690MOL0     H95200  13.318   1.062  11.783 -2.1002  1.1379 -1.9475
  690MOL0     H95201  13.068   1.070  11.767 -4.1980 -1.7726 -0.7710
  690MOL0     H95202  12.761   0.730  11.691  0.0510  1.0756 -1.4970
  690MOL0     H95203  12.554   0.640  11.629 -1.5945 -0.3193 -0.9178
  690MOL0     H95204  10.579   0.679  11.450 -0.9135  0.2712  0.5809
  690MOL0     H95205  10.340   0.743  11.437  1.1384 -0.8078  1.9716
  690MOL0     H95206   9.971   0.765  11.278 -3.1565 -1.3082  0.7527
  690MOL0     H95207   9.738   0.822  11.239 -1.0182  0.5795  0.5727
  690MOL0     H95208   9.569   0.906  11.146  0.9483  0.8952  0.7566
  690MOL0     H95209   9.515   0.953  11.314 -0.8319  0.1647  0.2002
  690MOL0     H95210   9.418   1.061  11.037  1.7189  0.9949 -0.5103
  690MOL0     H95211   9.394   1.158  11.186  0.1720 -0.9833 -0.2017
  690MOL0     H95212   9.195   1.016  11.084 -0.4018 -1.6984 -1.2173
  690MOL0     H95213   9.311   0.886  11.120  2.5375 -0.1217  2.9606
  690MOL0     H95214   9.247   1.080  11.332 -0.2370  2.3404 -4.1329
  690MOL0     H95215   9.256   0.898  11.353  0.3990 -0.1567  0.1161
  690MOL0     H95216   8.859   0.907  11.286  0.1955  0.0044 -0.2269
  690MOL0     H95217   9.836   1.240  11.199  1.3615  0.6346  1.5720
  690MOL0     H95218  10.104   1.276  11.343  1.7005  0.1856 -0.0091
  690MOL0     H95219  10.174   1.195  11.197 -1.2672  0.4170 -0.4054
  690MOL0     H95220  10.044   1.308  11.177  1.0970  0.1420 -0.0499
  691MOL0     O95221   3.446   1.745   2.390 -0.3933  0.2529 -0.5918
  691MOL0     C95222   3.395   1.763   2.275  0.4490  0.1171 -0.6293
  691MOL0     O95223   3.468   1.755   2.161 -0.3930  0.8445 -0.5539
  691MOL0     C95224   3.602   1.719   2.175  0.2106  0.4820 -0.6263
  691MOL0     C95225   3.636   1.609   2.091  0.0502  0.4318 -0.0423
  691MOL0     C95226   3.763   1.549   2.101  0.5026 -0.3608  0.2741
  691MOL0     C95227   3.856   1.595   2.184 -0.2840  0.8328  1.1911
  691MOL0     O95228   3.976   1.527   2.182  0.6229  0.2479 -0.1372
  691MOL0     C95229   4.089   1.614   2.197  0.7785 -0.3361 -0.1374
  691MOL0     C95230   4.204   1.544   2.117 -0.3723  0.3515  0.6464
  691MOL0     C95231   4.262   1.429   2.195  0.3152  0.0822  0.0426
  691MOL0     C95232   4.387   1.367   2.131  0.1256 -0.1831 -0.1438
  691MOL0     C95233   4.462   1.267   2.220 -0.5235  0.2235 -0.7847
  691MOL0     C95234   4.375   1.146   2.274 -0.5856 -0.1790  0.3754
  691MOL0     C95235   4.466   1.047   2.343  0.6711  0.6425 -0.1647
  691MOL0     C95236   4.378   0.944   2.409  0.1019 -0.5184 -0.0095
  691MOL0     N95237   4.469   0.840   2.457 -0.2151  0.6185  0.3985
  691MOL0     C95238   4.538   0.859   2.573  0.7383  0.4752 -0.3929
  691MOL0     C95239   4.599   0.743   2.585 -0.8491  1.3548  0.9425
  691MOL0     C95240   4.690   0.712   2.706  0.0418 -0.4151 -0.7591
  691MOL0     C95241   4.606   0.643   2.820 -0.7086 -0.5556  0.2266
  691MOL0     C95242   4.682   0.602   2.949  0.3556  0.2177 -0.8018
  691MOL0     C95243   4.820   0.541   2.927  0.2714 -0.7831  0.5224
  691MOL0     O95244   4.902   0.657   2.890 -0.6309  0.5710  0.1461
  691MOL0     C95245   5.037   0.628   2.873 -0.5827  0.5282  0.9744
  691MOL0     C95246   5.102   0.508   2.880  0.3178  1.0825  0.5323
  691MOL0     C95247   5.242   0.487   2.853  0.5711 -0.0208 -0.2618
  691MOL0     C95248   5.287   0.341   2.884 -0.2675  0.0222 -0.7544
  691MOL0     C95249   5.324   0.604   2.836  0.2519  0.6082  0.5110
  691MOL0     C95250   5.467   0.600   2.829  0.4113  0.4277  0.2931
  691MOL0     O95251   5.529   0.478   2.809  0.9044 -0.4788  0.3846
  691MOL0     C95252   5.664   0.482   2.793 -0.2731  0.4218  1.0154
  691MOL0     C95253   5.750   0.488   2.901  0.8064  0.3479 -0.0373
  691MOL0     C95254   5.893   0.488   2.887 -0.2029  0.0983 -0.2560
  691MOL0     C95255   5.950   0.484   2.751  0.8403  0.2383 -0.1735
  691MOL0     O95256   6.087   0.514   2.719  0.4574 -0.4382 -0.2662
  691MOL0     C95257   6.190   0.473   2.806 -0.0277 -0.3063  0.8737
  691MOL0     C95258   6.321   0.493   2.740 -0.6963  0.1585  0.2018
  691MOL0     C95259   6.434   0.431   2.817 -0.8445  0.8109  0.2735
  691MOL0     C95260   6.566   0.470   2.756 -0.4488 -0.6324 -0.8935
  691MOL0     C95261   6.675   0.468   2.864  0.6414 -0.3827 -0.1099
  691MOL0     C95262   6.808   0.474   2.799 -0.0580 -0.1910  0.8308
  691MOL0     C95263   6.920   0.399   2.877  1.1104 -0.6118 -0.2544
  691MOL0     C95264   7.040   0.390   2.797 -0.5594  0.2577 -0.7176
  691MOL0    Cl95265   7.171   0.376   2.928 -0.1887 -0.6301 -0.0960
  691MOL0     C95266   5.865   0.489   2.638  0.1583 -0.3302 -0.6742
  691MOL0     C95267   5.724   0.483   2.657 -0.0425  0.2019  0.7059
  691MOL0     O95268   5.523   0.701   2.848  0.3530  0.5185  0.1259
  691MOL0     C95269   5.252   0.726   2.816  0.2578  1.2376  0.2772
  691MOL0     C95270   5.113   0.735   2.833  0.1292 -0.2589  0.1649
  691MOL0     N95271   4.575   0.653   2.476  0.4495 -0.0735 -1.0171
  691MOL0     N95272   4.481   0.708   2.408 -0.0547  0.0852  1.0739
  691MOL0     C95273   3.825   1.709   2.263 -0.5914  0.6882 -0.2012
  691MOL0     C95274   3.698   1.779   2.256 -0.2980 -0.0996  0.2083
  691MOL0     C95275   3.254   1.797   2.261  0.2454  1.2838 -0.1981
  691MOL0     C95276   3.210   1.907   2.187  0.7860  0.2699  0.4274
  691MOL0     C95277   3.085   1.943   2.171 -0.1358  0.4009  0.4414
  691MOL0     C95278   2.986   1.852   2.208  0.8238 -0.0861  0.4650
  691MOL0     O95279   2.855   1.878   2.174  0.2038  0.1785 -0.6139
  691MOL0     C95280   2.754   1.884   2.279 -0.7695 -0.3735  0.0768
  691MOL0     C95281   2.680   2.020   2.274  0.1697  0.6353 -0.4400
  691MOL0     C95282   2.770   2.134   2.341 -0.4256 -0.3547 -0.1837
  691MOL0     C95283   2.703   2.270   2.352  0.1217  1.2146 -0.5122
  691MOL0     C95284   2.785   2.371   2.415 -0.2188 -0.7814 -0.0897
  691MOL0     C95285   2.856   2.463   2.456  0.8096  0.5158 -0.9854
  691MOL0     C95286   3.018   1.746   2.288  0.3217 -0.2926  0.1289
  691MOL0     C95287   3.152   1.713   2.318  0.3995 -0.1242 -0.4072
  691MOL0     C95288   3.174   1.595   2.411  0.0370 -0.2925 -0.1891
  691MOL0     H95289   3.553   1.571   2.032 -1.0202  0.3817  1.4301
  691MOL0     H95290   3.779   1.453   2.053 -1.2064 -0.3579 -0.3735
  691MOL0     H95291   4.112   1.646   2.299 -3.2354  1.3214  0.4448
  691MOL0     H95292   4.067   1.699   2.132 -0.9272 -0.7904 -0.2305
  691MOL0     H95293   4.170   1.513   2.018 -1.3449  0.9501  0.7882
  691MOL0     H95294   4.286   1.616   2.106 -0.0658  0.3847  2.7966
  691MOL0     H95295   4.298   1.465   2.292  1.7125  1.3721 -0.9085
  691MOL0     H95296   4.194   1.344   2.191  0.4022  0.0061  0.1725
  691MOL0     H95297   4.366   1.311   2.039 -0.4875 -0.1569 -0.0275
  691MOL0     H95298   4.441   1.453   2.090 -2.0322  0.7719 -1.1795
  691MOL0     H95299   4.493   1.298   2.320 -2.8377 -1.9348  0.7063
  691MOL0     H95300   4.545   1.242   2.153 -1.0298 -0.2425 -1.2554
  691MOL0     H95301   4.294   1.188   2.334 -2.4786 -2.3339 -0.5077
  691MOL0     H95302   4.328   1.092   2.191  1.7553 -0.7682 -0.6588
  691MOL0     H95303   4.529   1.096   2.418  0.5798  2.8000 -1.4043
  691MOL0     H95304   4.531   1.005   2.266  1.8089  1.5504  0.2684
  691MOL0     H95305   4.320   0.996   2.486  0.7321  0.2296 -0.0317
  691MOL0     H95306   4.305   0.898   2.341 -1.4091  1.9251 -0.1395
  691MOL0     H95307   4.531   0.947   2.636 -3.0399  0.9568 -1.2371
  691MOL0     H95308   4.735   0.803   2.748 -2.4292  0.4719  0.2116
  691MOL0     H95309   4.771   0.651   2.665  0.2359 -1.2310  0.7768
  691MOL0     H95310   4.530   0.717   2.849  0.9136  1.8260 -1.2631
  691MOL0     H95311   4.564   0.551   2.779 -1.6597 -1.0336  2.1309
  691MOL0     H95312   4.698   0.694   3.006  0.0134  2.2011 -3.6938
  691MOL0     H95313   4.621   0.537   3.012 -2.6835  0.9272 -2.8042
  691MOL0     H95314   4.841   0.492   3.023 -0.7192  0.6038  1.4977
  691MOL0     H95315   4.810   0.467   2.847  0.4935 -0.9419  0.6402
  691MOL0     H95316   5.051   0.414   2.900  0.8689 -0.1518 -3.1034
  691MOL0     H95317   5.351   0.333   2.973  0.4338 -2.2819 -1.4144
  691MOL0     H95318   5.342   0.295   2.801 -2.0635 -0.6368 -1.6329
  691MOL0     H95319   5.193   0.285   2.893 -1.9796  2.9953  2.4897
  691MOL0     H95320   5.703   0.488   2.999 -0.6774 -0.2680 -0.7212
  691MOL0     H95321   5.958   0.477   2.973 -0.7873 -0.4218  0.1263
  691MOL0     H95322   6.183   0.539   2.893 -0.6064 -0.2374  0.7843
  691MOL0     H95323   6.169   0.369   2.835 -1.1935 -0.0868  0.8668
  691MOL0     H95324   6.308   0.440   2.645  0.0116 -4.6451  2.4482
  691MOL0     H95325   6.347   0.598   2.724  1.1789 -0.1371  1.0014
  691MOL0     H95326   6.424   0.323   2.832  1.4343  0.1226 -2.2069
  691MOL0     H95327   6.435   0.475   2.916  1.7054 -0.6543  1.0038
  691MOL0     H95328   6.566   0.571   2.714  0.6051 -1.0474 -1.9563
  691MOL0     H95329   6.595   0.401   2.676  1.9870  1.8892 -2.3644
  691MOL0     H95330   6.672   0.558   2.927  0.5224 -1.5612  1.6287
  691MOL0     H95331   6.662   0.390   2.939  0.4188  1.1272  1.5007
  691MOL0     H95332   6.826   0.576   2.764 -1.7634  0.2741  1.2030
  691MOL0     H95333   6.799   0.420   2.705  0.1395 -0.1242  0.7731
  691MOL0     H95334   6.884   0.297   2.894 -2.6546  0.6400  0.2725
  691MOL0     H95335   6.927   0.449   2.974 -1.5703 -2.5607  1.0736
  691MOL0     H95336   7.072   0.482   2.747  1.2156  1.2669  2.0276
  691MOL0     H95337   7.039   0.298   2.738  1.2156 -0.0053 -0.3932
  691MOL0     H95338   5.914   0.508   2.544  2.0943  1.0441  0.5353
  691MOL0     H95339   5.651   0.482   2.576  0.8516 -1.5078 -0.1369
  691MOL0     H95340   5.297   0.822   2.796 -1.3691  1.4659 -2.8249
  691MOL0     H95341   5.052   0.824   2.824  1.2121  0.3699 -1.4189
  691MOL0     H95342   3.892   1.741   2.342 -0.4224 -1.1114  0.4101
  691MOL0     H95343   3.663   1.858   2.322 -0.7535 -0.4823  0.4359
  691MOL0     H95344   3.282   1.974   2.142  0.6894 -0.7452 -1.3217
  691MOL0     H95345   3.053   2.028   2.112 -3.8049  0.2677  1.9476
  691MOL0     H95346   2.675   1.813   2.253 -1.4159  0.7496 -1.1470
  691MOL0     H95347   2.795   1.858   2.377  0.8820 -1.0108 -0.7273
  691MOL0     H95348   2.583   2.010   2.322 -0.2095 -2.9533 -1.6060
  691MOL0     H95349   2.654   2.043   2.170  2.4834  0.2594 -1.1728
  691MOL0     H95350   2.807   2.110   2.440 -0.7698  1.1067  0.3251
  691MOL0     H95351   2.856   2.160   2.279  2.7926 -1.1736  3.5779
  691MOL0     H95352   2.602   2.263   2.395  0.2895  5.1392  0.9896
  691MOL0     H95353   2.695   2.316   2.253  0.8930  1.1887 -0.5907
  691MOL0     H95354   2.915   2.539   2.504  0.4782 -0.7549  1.6177
  691MOL0     H95355   2.943   1.676   2.321  0.2403  0.0950  0.7874
  691MOL0     H95356   3.101   1.596   2.493  1.6246  1.0132  1.2975
  691MOL0     H95357   3.169   1.503   2.353  2.6288  0.8167 -2.4071
  691MOL0     H95358   3.272   1.599   2.461  0.1513  1.5592 -0.4680
  692MOL0     O95359   3.815   3.511   4.510  0.2938  0.3950 -1.0570
  692MOL0     C95360   3.777   3.399   4.549 -0.2018  0.3299  0.3403
  692MOL0     O95361   3.851   3.295   4.602  0.2414 -1.0501  0.3585
  692MOL0     C95362   3.986   3.315   4.633 -0.3966 -0.8043  0.6372
  692MOL0     C95363   4.069   3.368   4.530  0.4606  0.0734 -0.0324
  692MOL0     C95364   4.196   3.409   4.558 -0.2655  0.7701 -0.6398
  692MOL0     C95365   4.255   3.384   4.681 -0.6053 -0.7546 -0.1081
  692MOL0     O95366   4.384   3.424   4.702 -0.2420  1.1396 -0.0837
  692MOL0     C95367   4.470   3.351   4.799 -0.0499  0.3574  1.0506
  692MOL0     C95368   4.506   3.437   4.915  0.8568  0.0084 -0.0847
  692MOL0     C95369   4.576   3.344   5.019 -0.0730  0.3523  0.4508
  692MOL0     C95370   4.685   3.417   5.098 -0.5135 -0.5632  1.2758
  692MOL0     C95371   4.811   3.450   5.021 -0.0566  0.1625  0.1189
  692MOL0     C95372   4.881   3.325   4.984 -0.3264  0.0914  1.1839
  692MOL0     C95373   5.027   3.344   4.944  0.2464  0.0635 -0.0653
  692MOL0     C95374   5.125   3.342   5.065  1.0228 -0.4429  0.2242
  692MOL0     N95375   5.258   3.370   5.015 -0.2737 -0.2892  0.1910
  692MOL0     C95376   5.301   3.459   4.916 -0.4441 -0.2911 -1.0664
  692MOL0     C95377   5.438   3.450   4.927  0.3277  0.4239  0.0861
  692MOL0     C95378   5.526   3.542   4.849  0.2607 -0.6648 -0.5024
  692MOL0     C95379   5.497   3.524   4.699 -0.7330  0.6098  0.2469
  692MOL0     C95380   5.524   3.387   4.640  0.6705  0.7195  0.1939
  692MOL0     C95381   5.656   3.323   4.683 -0.5752 -0.1029  1.1941
  692MOL0     O95382   5.759   3.411   4.633 -0.8509 -0.0741 -0.0512
  692MOL0     C95383   5.889   3.376   4.665  0.3752  0.3776 -0.4400
  692MOL0     C95384   5.995   3.450   4.603 -0.2398 -0.0435 -0.1185
  692MOL0     C95385   6.132   3.431   4.635  0.4922 -0.1804  0.5522
  692MOL0     C95386   6.227   3.514   4.552  0.4671  0.0536 -0.6269
  692MOL0     C95387   6.167   3.336   4.736 -0.9048  0.0344  0.0614
  692MOL0     C95388   6.312   3.314   4.776  0.1256 -0.3005 -0.2284
  692MOL0     O95389   6.328   3.247   4.896 -0.4757 -0.5698 -0.0245
  692MOL0     C95390   6.435   3.244   4.969 -0.0069  0.0789 -0.0816
  692MOL0     C95391   6.430   3.148   5.065 -0.5635  0.1680  0.2508
  692MOL0     C95392   6.548   3.125   5.146  0.6051 -0.4379  0.2477
  692MOL0     C95393   6.662   3.204   5.142  1.1858  0.1850  0.5865
  692MOL0     O95394   6.766   3.180   5.224 -0.0109  0.1380  0.3378
  692MOL0     C95395   6.793   3.298   5.303 -0.8601 -0.3491  0.1962
  692MOL0     C95396   6.765   3.270   5.453  0.3610  0.3019  0.3264
  692MOL0     C95397   6.857   3.167   5.527  0.4299  0.4708 -0.5694
  692MOL0     C95398   7.007   3.205   5.537  0.3794  0.5805  0.2061
  692MOL0     C95399   7.072   3.107   5.635  0.3635  0.9835 -0.8442
  692MOL0     C95400   7.228   3.110   5.621  0.3512 -0.6075  0.3397
  692MOL0     C95401   7.310   3.016   5.714 -0.0632  0.9789 -0.0517
  692MOL0     C95402   7.463   3.040   5.701  0.2431  0.4472  0.1928
  692MOL0    Cl95403   7.500   3.208   5.753 -0.2413 -0.6487 -0.0065
  692MOL0     C95404   6.653   3.312   5.049 -0.0100 -0.6172  0.6722
  692MOL0     C95405   6.548   3.333   4.966  0.4530 -0.2743  0.0031
  692MOL0     O95406   6.397   3.340   4.692  0.2260 -0.0538 -0.4555
  692MOL0     C95407   6.062   3.260   4.786 -0.1838 -0.5130 -0.5376
  692MOL0     C95408   5.928   3.275   4.751 -0.2996  0.5329  1.0498
  692MOL0     N95409   5.470   3.363   5.029  0.1233  0.7192 -0.2221
  692MOL0     N95410   5.363   3.310   5.073 -0.0768  0.1977 -0.2328
  692MOL0     C95411   4.181   3.323   4.783  0.9543 -0.2590 -0.3480
  692MOL0     C95412   4.050   3.274   4.753 -0.4338 -0.3698 -0.6692
  692MOL0     C95413   3.632   3.363   4.546 -0.4916 -0.5888  0.9248
  692MOL0     C95414   3.590   3.249   4.619  0.2217  0.3556 -1.1136
  692MOL0     C95415   3.461   3.207   4.635 -0.1093 -0.2590 -0.2722
  692MOL0     C95416   3.355   3.278   4.571 -0.5385  0.6002 -0.1860
  692MOL0     O95417   3.230   3.231   4.595 -0.4412 -0.1282  0.2981
  692MOL0     C95418   3.108   3.281   4.543  0.3981  0.6342 -0.3433
  692MOL0     C95419   3.081   3.424   4.587 -1.0150 -0.4110  0.9223
  692MOL0     C95420   2.931   3.473   4.563 -1.3351 -0.0522  0.8780
  692MOL0     C95421   2.944   3.624   4.519  0.3266 -0.0050 -0.1990
  692MOL0     C95422   3.004   3.699   4.630 -0.0059 -1.1344  0.0122
  692MOL0     C95423   3.048   3.770   4.722 -0.5192  0.3552 -0.2283
  692MOL0     C95424   3.390   3.380   4.484 -0.0756  0.1498 -0.4629
  692MOL0     C95425   3.526   3.429   4.475  0.7619 -0.1455  0.1864
  692MOL0     C95426   3.550   3.562   4.398  0.0373 -0.7691 -0.9061
  692MOL0     H95427   4.025   3.381   4.432  1.2492 -0.8398 -0.5141
  692MOL0     H95428   4.263   3.462   4.491 -0.2865  1.0026 -0.4745
  692MOL0     H95429   4.559   3.315   4.747  0.6400  2.4752  0.6811
  692MOL0     H95430   4.416   3.266   4.841  0.3682 -0.8626 -0.7640
  692MOL0     H95431   4.561   3.525   4.880 -3.3039  2.5961 -0.8375
  692MOL0     H95432   4.417   3.472   4.968  0.9477  1.2047 -0.7010
  692MOL0     H95433   4.501   3.311   5.091  0.8861  2.2971  2.4310
  692MOL0     H95434   4.620   3.262   4.961  1.0017  3.0480 -2.8851
  692MOL0     H95435   4.628   3.501   5.139 -3.3845 -0.6536 -2.1202
  692MOL0     H95436   4.707   3.357   5.187  1.3609 -1.9166 -0.0392
  692MOL0     H95437   4.877   3.514   5.081 -2.1331  1.9453  0.6567
  692MOL0     H95438   4.790   3.516   4.936  0.3307 -0.3701 -0.3912
  692MOL0     H95439   4.875   3.248   5.061 -0.0471 -3.6731 -2.2173
  692MOL0     H95440   4.832   3.271   4.902 -0.7826 -2.7819  3.2154
  692MOL0     H95441   5.043   3.433   4.883  0.4981 -0.3142 -0.5581
  692MOL0     H95442   5.053   3.255   4.887  0.8248 -1.5059  2.4877
  692MOL0     H95443   5.100   3.434   5.120 -0.2866 -1.3670  1.2261
  692MOL0     H95444   5.113   3.250   5.122 -0.8573 -0.4070 -0.0489
  692MOL0     H95445   5.252   3.529   4.848  0.9648  1.6743 -0.1581
  692MOL0     H95446   5.628   3.520   4.880 -0.0419 -1.5737 -0.1164
  692MOL0     H95447   5.511   3.648   4.869 -3.2145 -0.9380 -1.0167
  692MOL0     H95448   5.393   3.549   4.677 -1.2518 -0.7043  1.0966
  692MOL0     H95449   5.566   3.585   4.639  0.8765  0.2049  1.5957
  692MOL0     H95450   5.442   3.320   4.668  1.3642  0.3483  1.4115
  692MOL0     H95451   5.529   3.385   4.531 -0.1786  1.7418  0.1278
  692MOL0     H95452   5.657   3.315   4.792 -1.1839  1.0297  1.2947
  692MOL0     H95453   5.664   3.225   4.635 -0.6328  0.8842 -0.9577
  692MOL0     H95454   5.970   3.538   4.545 -0.1926  1.6176  2.2073
  692MOL0     H95455   6.292   3.446   4.496 -0.4011 -4.0489  2.7436
  692MOL0     H95456   6.293   3.583   4.606  3.2656 -1.7341 -1.5174
  692MOL0     H95457   6.161   3.570   4.485 -0.3299  0.1025  0.1736
  692MOL0     H95458   6.341   3.087   5.074 -0.0180 -1.0453 -1.8797
  692MOL0     H95459   6.542   3.033   5.204 -1.4069 -0.3831  0.1692
  692MOL0     H95460   6.902   3.305   5.295 -0.9345  0.6710  0.0314
  692MOL0     H95461   6.742   3.390   5.273 -2.6587 -1.8931 -1.7662
  692MOL0     H95462   6.772   3.364   5.508 -1.2216 -0.2395  1.5086
  692MOL0     H95463   6.662   3.235   5.460  0.4090  0.3563  1.3366
  692MOL0     H95464   6.840   3.073   5.474 -0.4227  0.6003 -0.5500
  692MOL0     H95465   6.811   3.147   5.624 -0.8868  0.5169 -1.1578
  692MOL0     H95466   7.015   3.307   5.578 -0.1161  1.0692 -0.8781
  692MOL0     H95467   7.047   3.195   5.436 -0.7926 -0.5961 -0.1603
  692MOL0     H95468   7.034   3.130   5.735  0.9219  1.9214 -0.8354
  692MOL0     H95469   7.036   3.008   5.606 -0.3110  0.5359  1.3611
  692MOL0     H95470   7.255   3.214   5.640  1.5596  0.0040 -3.7553
  692MOL0     H95471   7.254   3.082   5.519  1.4344  0.7453  0.2078
  692MOL0     H95472   7.284   2.911   5.694  0.0371  0.7603  0.9425
  692MOL0     H95473   7.281   3.027   5.819  3.9122 -2.0036  1.6248
  692MOL0     H95474   7.502   3.022   5.600  0.1425 -1.0577  0.3985
  692MOL0     H95475   7.517   2.973   5.769 -2.5355 -0.7438  1.3951
  692MOL0     H95476   6.737   3.381   5.047 -2.1002  2.0474 -0.6940
  692MOL0     H95477   6.552   3.422   4.904  0.8032 -1.5976 -1.9520
  692MOL0     H95478   6.096   3.174   4.844 -0.6742  0.8757  1.9491
  692MOL0     H95479   5.854   3.208   4.793 -0.7096  1.5740  2.0466
  692MOL0     H95480   4.221   3.316   4.883 -0.6163  1.5990  0.4678
  692MOL0     H95481   3.992   3.246   4.840 -0.8712 -0.0633 -0.8570
  692MOL0     H95482   3.650   3.197   4.694 -1.8333 -2.1517 -1.0653
  692MOL0     H95483   3.450   3.127   4.707  1.2289  1.1981  1.6642
  692MOL0     H95484   3.110   3.275   4.433  2.5775 -2.6222 -0.2678
  692MOL0     H95485   3.023   3.223   4.581 -0.5515  0.0055 -3.1638
  692MOL0     H95486   3.153   3.479   4.526 -2.3180 -1.7350 -2.0225
  692MOL0     H95487   3.109   3.444   4.690 -1.8004 -0.3244  1.1229
  692MOL0     H95488   2.888   3.429   4.473  1.5484 -0.8488 -0.2218
  692MOL0     H95489   2.863   3.449   4.646 -0.3022 -0.3525  1.6634
  692MOL0     H95490   2.847   3.668   4.491 -0.9810  1.0720  4.9826
  692MOL0     H95491   3.009   3.630   4.431 -2.1940  0.6046 -2.1681
  692MOL0     H95492   3.076   3.832   4.804 -0.1218 -0.3230  0.1580
  692MOL0     H95493   3.308   3.416   4.423 -1.8206  0.2686  1.7856
  692MOL0     H95494   3.458   3.614   4.369 -0.1096 -0.9362 -0.7385
  692MOL0     H95495   3.602   3.637   4.458 -2.6231 -0.4482  1.2115
  692MOL0     H95496   3.600   3.529   4.307 -1.0637 -2.4198 -0.9531
  693MOL0     O95497   6.374   7.101   4.565  0.3393  0.1787  0.4781
  693MOL0     C95498   6.332   6.992   4.560  0.1711 -0.1233 -0.0937
  693MOL0     O95499   6.393   6.886   4.621  0.4269  0.0555  0.1379
  693MOL0     C95500   6.510   6.914   4.693 -0.0160  0.0928  0.2465
  693MOL0     C95501   6.500   6.933   4.833  0.2933  0.3267 -1.5532
  693MOL0     C95502   6.614   6.950   4.913  0.6367 -0.4539  0.2948
  693MOL0     C95503   6.735   6.967   4.849 -0.4241 -0.3400 -0.2343
  693MOL0     O95504   6.859   6.999   4.900  0.7949  0.0193 -0.1886
  693MOL0     C95505   6.864   7.071   5.028 -0.1093  0.3954 -0.3093
  693MOL0     C95506   6.981   7.162   5.018 -0.1569  0.1942 -0.3589
  693MOL0     C95507   7.034   7.187   5.166  0.1084  1.0712  0.2291
  693MOL0     C95508   7.107   7.318   5.180 -0.7215  0.0119 -0.3299
  693MOL0     C95509   7.012   7.438   5.199  0.4913  0.0929 -0.1938
  693MOL0     C95510   7.001   7.474   5.345  1.3392 -1.0838 -0.8823
  693MOL0     C95511   6.900   7.592   5.362 -0.7681  0.1014  0.1921
  693MOL0     C95512   6.753   7.559   5.349 -0.3116  0.2907 -0.3336
  693MOL0     N95513   6.685   7.509   5.472 -0.3645 -0.3073  0.4174
  693MOL0     C95514   6.700   7.383   5.527 -1.1036 -0.4339  0.3924
  693MOL0     C95515   6.614   7.387   5.632  0.1057 -0.0579 -0.4106
  693MOL0     C95516   6.596   7.284   5.740 -0.2834 -0.5278  0.1776
  693MOL0     C95517   6.443   7.263   5.775  0.8642  0.0321 -0.0304
  693MOL0     C95518   6.392   7.152   5.686 -0.5337  0.0104  0.6953
  693MOL0     C95519   6.271   7.081   5.746 -0.3395  0.6748  0.7196
  693MOL0     O95520   6.158   7.169   5.756  0.3200  1.0898 -0.2613
  693MOL0     C95521   6.064   7.136   5.848 -0.6927  0.5270  0.7999
  693MOL0     C95522   5.965   7.042   5.812  0.2386 -0.1356  0.7435
  693MOL0     C95523   5.870   6.999   5.905 -0.1437 -0.7480 -1.3102
  693MOL0     C95524   5.752   6.915   5.858  0.0135 -0.6610  0.8154
  693MOL0     C95525   5.868   7.058   6.037 -0.4126 -0.1324 -0.0042
  693MOL0     C95526   5.764   7.037   6.149  0.3848  1.4154 -0.3393
  693MOL0     O95527   5.762   7.109   6.263 -0.5514 -0.1348  0.5991
  693MOL0     C95528   5.670   7.069   6.357  0.4933 -0.2475 -0.6992
  693MOL0     C95529   5.546   7.122   6.374  0.1384  0.0762  0.2843
  693MOL0     C95530   5.458   7.101   6.483 -0.2580  0.4432 -0.4279
  693MOL0     C95531   5.499   7.002   6.578  0.0376 -0.2696  0.0778
  693MOL0     O95532   5.405   6.973   6.669  0.4554  0.1183 -0.1380
  693MOL0     C95533   5.359   6.833   6.664 -0.2309 -0.9076 -0.1784
  693MOL0     C95534   5.431   6.739   6.773  0.0077 -0.5419  0.5706
  693MOL0     C95535   5.521   6.793   6.889  0.3319 -0.5288 -0.4270
  693MOL0     C95536   5.614   6.692   6.965 -0.1026 -0.7220 -0.0797
  693MOL0     C95537   5.712   6.621   6.874  0.1665  0.4864  0.5589
  693MOL0     C95538   5.812   6.550   6.968 -1.3249 -1.3341  0.0420
  693MOL0     C95539   5.928   6.500   6.888  0.5302  0.0873  0.1146
  693MOL0     C95540   6.006   6.405   6.977 -1.2807  0.0270 -0.6233
  693MOL0    Cl95541   6.138   6.321   6.880  0.3534  0.5475 -0.1334
  693MOL0     C95542   5.626   6.949   6.570 -0.7187  0.0093  0.3702
  693MOL0     C95543   5.704   6.979   6.459 -0.9212 -1.2720  0.5316
  693MOL0     O95544   5.688   6.938   6.132 -0.5078  0.5030 -0.0295
  693MOL0     C95545   5.978   7.139   6.066 -0.0276  0.3549 -0.8645
  693MOL0     C95546   6.068   7.185   5.978 -0.3647 -0.4228  0.5180
  693MOL0     N95547   6.553   7.515   5.641 -0.1447  0.0103  0.7022
  693MOL0     N95548   6.603   7.589   5.548  0.4743 -0.6945  0.8536
  693MOL0     C95549   6.744   6.942   4.712  0.1943 -1.0023  0.1456
  693MOL0     C95550   6.637   6.916   4.629  0.0024 -0.3393 -1.0554
  693MOL0     C95551   6.208   6.967   4.484  0.1283  0.6732 -0.2133
  693MOL0     C95552   6.194   6.843   4.417 -1.5344 -0.4384  0.6952
  693MOL0     C95553   6.083   6.801   4.351 -0.7538 -0.2357  0.1938
  693MOL0     C95554   5.975   6.888   4.330  0.4798  0.1414  0.2196
  693MOL0     O95555   5.873   6.849   4.255 -0.0478 -0.0628  0.2779
  693MOL0     C95556   5.796   6.727   4.288 -0.0506  0.2071  0.4950
  693MOL0     C95557   5.722   6.738   4.420 -0.5190  0.0314  0.6503
  693MOL0     C95558   5.597   6.821   4.411  0.2555 -0.2085 -0.0915
  693MOL0     C95559   5.526   6.816   4.547 -0.6308  0.8997 -0.5300
  693MOL0     C95560   5.383   6.848   4.537 -0.6163  1.0196 -0.9349
  693MOL0     C95561   5.264   6.868   4.553  0.1333 -0.3102 -0.4790
  693MOL0     C95562   5.981   7.011   4.390 -0.1889 -0.1710 -0.0990
  693MOL0     C95563   6.099   7.049   4.462  0.9381 -0.1453 -0.2600
  693MOL0     C95564   6.093   7.186   4.532 -0.0922  0.0320  0.3234
  693MOL0     H95565   6.406   6.925   4.886  0.0150  4.8705 -0.9615
  693MOL0     H95566   6.606   6.961   5.020  0.8085 -0.7719  0.3396
  693MOL0     H95567   6.886   7.009   5.115 -0.7181  1.4392  0.6256
  693MOL0     H95568   6.778   7.137   5.040 -1.7075 -1.4672 -1.0041
  693MOL0     H95569   7.062   7.124   4.956  0.7333  0.6621  0.4868
  693MOL0     H95570   6.945   7.254   4.971  1.3573  2.1753  2.0930
  693MOL0     H95571   6.953   7.178   5.239  0.0557 -1.5003 -0.0456
  693MOL0     H95572   7.096   7.098   5.181 -2.9237 -1.1381  0.4220
  693MOL0     H95573   7.180   7.312   5.261 -1.3448 -0.0682  0.2361
  693MOL0     H95574   7.171   7.343   5.095  0.1131 -0.8009  0.0323
  693MOL0     H95575   6.910   7.419   5.166  1.2331 -1.3720 -1.8153
  693MOL0     H95576   7.043   7.530   5.149 -1.1457  0.9837  0.3731
  693MOL0     H95577   6.970   7.393   5.412  2.6540  0.7914  2.1912
  693MOL0     H95578   7.097   7.505   5.385  0.0591 -1.0642  2.5054
  693MOL0     H95579   6.930   7.672   5.294  0.9071  0.8748  1.7436
  693MOL0     H95580   6.908   7.648   5.455  0.4268  6.0802 -3.0286
  693MOL0     H95581   6.700   7.648   5.314 -3.2354 -1.0064  0.5084
  693MOL0     H95582   6.742   7.495   5.261  1.7627 -0.6528  0.0289
  693MOL0     H95583   6.778   7.315   5.494  1.0453  2.3039 -0.5577
  693MOL0     H95584   6.648   7.333   5.823 -2.1242  2.2993 -0.2203
  693MOL0     H95585   6.644   7.188   5.721  1.7391  0.6397 -0.9272
  693MOL0     H95586   6.425   7.221   5.874 -3.8902 -2.6466 -1.6924
  693MOL0     H95587   6.382   7.354   5.763 -1.2914 -1.1277  1.5806
  693MOL0     H95588   6.370   7.202   5.591 -2.0683 -1.8052  0.0201
  693MOL0     H95589   6.470   7.076   5.675  1.0829  1.8678 -1.7260
  693MOL0     H95590   6.262   6.993   5.682  1.2844  0.7502  0.3424
  693MOL0     H95591   6.290   7.054   5.851 -0.1054  1.3686  0.8639
  693MOL0     H95592   5.959   6.994   5.715  1.0041 -0.1029  0.6721
  693MOL0     H95593   5.771   6.880   5.756 -4.6747 -4.3249  0.8133
  693MOL0     H95594   5.658   6.972   5.861  0.4950  0.1064  2.1173
  693MOL0     H95595   5.741   6.821   5.913 -0.8799 -0.2415  1.3766
  693MOL0     H95596   5.506   7.198   6.308 -1.9528  0.6589  2.0749
  693MOL0     H95597   5.362   7.150   6.469  0.3336  0.9660 -3.4787
  693MOL0     H95598   5.253   6.827   6.689 -0.1755 -1.1147  0.0123
  693MOL0     H95599   5.365   6.792   6.563  0.8259 -0.6431 -0.2406
  693MOL0     H95600   5.353   6.669   6.806 -2.5882  2.8056  2.0769
  693MOL0     H95601   5.515   6.695   6.717  1.6345  1.6385  1.1439
  693MOL0     H95602   5.456   6.847   6.958 -1.6092 -1.2637 -1.6031
  693MOL0     H95603   5.584   6.869   6.842  1.6998  0.1653  2.2813
  693MOL0     H95604   5.549   6.614   7.006  0.1064 -0.8807 -0.0495
  693MOL0     H95605   5.659   6.757   7.041 -0.7774  3.2195 -2.7376
  693MOL0     H95606   5.658   6.545   6.817  0.1310  1.8648 -1.3370
  693MOL0     H95607   5.765   6.690   6.807  2.1143  0.5460  2.0754
  693MOL0     H95608   5.765   6.468   7.023  1.1445 -3.3128 -0.6102
  693MOL0     H95609   5.860   6.624   7.032  1.9590 -0.2110 -3.3338
  693MOL0     H95610   5.996   6.582   6.863  0.6311  0.2952  1.0340
  693MOL0     H95611   5.884   6.446   6.804 -2.0421 -0.9482  2.0006
  693MOL0     H95612   5.940   6.323   7.005  1.2581 -1.1029  2.7709
  693MOL0     H95613   6.041   6.446   7.072  0.6443 -1.1445 -0.7588
  693MOL0     H95614   5.665   6.884   6.647 -0.3652 -0.3691 -0.1177
  693MOL0     H95615   5.799   6.929   6.465 -0.3772 -0.3224  0.0170
  693MOL0     H95616   5.985   7.183   6.165  1.0910  1.0344 -1.2281
  693MOL0     H95617   6.147   7.249   6.015 -2.1061  1.8338  0.4922
  693MOL0     H95618   6.842   6.940   4.665  0.2518 -0.2875  0.2222
  693MOL0     H95619   6.652   6.885   4.526 -0.7200 -0.8225 -1.0192
  693MOL0     H95620   6.278   6.775   4.413 -0.3768  0.7807  2.4353
  693MOL0     H95621   6.076   6.702   4.307 -1.1365  0.4301 -1.3174
  693MOL0     H95622   5.717   6.713   4.214  0.0708 -1.2732  0.6164
  693MOL0     H95623   5.867   6.644   4.289 -3.1879 -2.7181 -0.6515
  693MOL0     H95624   5.788   6.769   4.502  0.5597 -0.5227  0.0168
  693MOL0     H95625   5.688   6.637   4.444  0.9489 -0.6560 -0.0559
  693MOL0     H95626   5.637   6.921   4.392  1.2523 -0.7254 -0.8166
  693MOL0     H95627   5.529   6.789   4.332 -1.1732  0.7914  0.7021
  693MOL0     H95628   5.579   6.882   4.616 -0.5849  0.8098 -0.4787
  693MOL0     H95629   5.532   6.716   4.591  1.0146  2.0294  2.0594
  693MOL0     H95630   5.159   6.884   4.570  0.5284  1.0499  0.8849
  693MOL0     H95631   5.904   7.086   4.376 -0.0638 -0.1367 -0.6254
  693MOL0     H95632   6.130   7.250   4.452 -2.6852 -0.5023 -1.4148
  693MOL0     H95633   5.988   7.206   4.552 -0.5970 -2.7013  0.9047
  693MOL0     H95634   6.141   7.193   4.630 -2.8090  2.0641  1.6391
  694MOL0     O95635   8.319   8.782   5.678 -0.0094  0.2191  0.4250
  694MOL0     C95636   8.238   8.765   5.585 -0.6574  0.2605 -0.5353
  694MOL0     O95637   8.273   8.746   5.456 -0.2854  0.6152  0.6995
  694MOL0     C95638   8.406   8.749   5.423  0.4927 -0.4098  0.3421
  694MOL0     C95639   8.446   8.842   5.323 -0.8677  0.6662  1.1036
  694MOL0     C95640   8.576   8.835   5.273  0.0854  0.2436 -0.3651
  694MOL0     C95641   8.669   8.752   5.324 -0.5062 -0.2106 -0.6063
  694MOL0     O95642   8.803   8.764   5.297  0.5385  0.6936  0.6675
  694MOL0     C95643   8.848   8.727   5.167  0.4135  0.1371 -0.7332
  694MOL0     C95644   8.908   8.852   5.102  0.0663  0.7096  0.1288
  694MOL0     C95645   8.917   8.820   4.946  0.2410  0.4263 -0.3819
  694MOL0     C95646   9.007   8.697   4.913  0.4607 -0.5748  0.1338
  694MOL0     C95647   9.036   8.683   4.757  0.3817  0.9493  0.6331
  694MOL0     C95648   9.137   8.793   4.707  0.1904 -0.3684  0.6217
  694MOL0     C95649   9.160   8.772   4.553 -0.0526 -0.5277 -0.0697
  694MOL0     C95650   9.030   8.802   4.468 -0.8185  0.5763  1.0546
  694MOL0     N95651   8.964   8.928   4.485  0.4260 -0.0594 -0.1022
  694MOL0     C95652   8.943   9.031   4.395  0.2945  0.1961 -0.0446
  694MOL0     C95653   8.846   9.114   4.450 -0.0254 -0.7602  0.6746
  694MOL0     C95654   8.795   9.247   4.394 -0.1513  0.6520  0.2882
  694MOL0     C95655   8.827   9.374   4.476  0.3155 -0.3157 -0.1114
  694MOL0     C95656   8.800   9.505   4.388 -0.4006  0.2109 -0.2486
  694MOL0     C95657   8.852   9.631   4.456 -0.2993 -0.9726 -0.2205
  694MOL0     O95658   8.991   9.616   4.504  0.4096 -0.2738  0.0884
  694MOL0     C95659   9.089   9.618   4.412 -0.4498  0.7531  0.5838
  694MOL0     C95660   9.213   9.576   4.454 -0.1295 -0.2981  0.0880
  694MOL0     C95661   9.331   9.578   4.370  0.5322 -0.4540 -0.1242
  694MOL0     C95662   9.458   9.544   4.439 -0.8689  0.6413  1.2037
  694MOL0     C95663   9.321   9.632   4.236 -0.7166  0.4133  0.3684
  694MOL0     C95664   9.433   9.654   4.139  0.5918  0.2720  0.4082
  694MOL0     O95665   9.399   9.706   4.018  0.3194 -0.8942  0.0546
  694MOL0     C95666   9.496   9.775   3.950  0.3340  1.3253 -0.0708
  694MOL0     C95667   9.604   9.850   3.992  0.0807 -0.5146 -0.8465
  694MOL0     C95668   9.688   9.907   3.896 -0.0088  0.3930  0.1295
  694MOL0     C95669   9.658   9.914   3.756 -0.1885  0.6227 -0.5343
  694MOL0     O95670   9.726   9.974   3.655  0.0410 -0.1683  0.1364
  694MOL0     C95671   9.666  10.003   3.524  0.4242  0.7141  0.0393
  694MOL0     C95672   9.769  10.045   3.432  0.5120 -0.5423  1.1163
  694MOL0     C95673   9.874   9.932   3.403 -0.4613 -0.3697 -0.7164
  694MOL0     C95674   9.955   9.969   3.275  0.6033 -0.5438 -0.5900
  694MOL0     C95675  10.055   9.867   3.218 -0.4951  0.9847  0.1601
  694MOL0     C95676  10.098   9.904   3.081  0.3675  0.0712  0.9320
  694MOL0     C95677  10.202   9.806   3.015  0.4417  0.5323 -0.1859
  694MOL0     C95678  10.241   9.874   2.884  0.5692  0.5106  0.4330
  694MOL0    Cl95679  10.120   9.831   2.756  0.3146 -0.0420  0.0294
  694MOL0     C95680   9.527   9.860   3.725  0.7923 -0.0418  0.6868
  694MOL0     C95681   9.456   9.788   3.818  0.8304 -0.1118  0.3717
  694MOL0     O95682   9.545   9.632   4.179 -0.3637 -0.2789  0.2792
  694MOL0     C95683   9.187   9.659   4.197 -0.2487  0.8601  0.1305
  694MOL0     C95684   9.082   9.652   4.279 -0.1256 -0.8704 -0.4869
  694MOL0     N95685   8.816   9.070   4.576  0.0578 -0.2666 -0.2036
  694MOL0     N95686   8.883   8.962   4.592  0.1290 -0.3117 -0.4903
  694MOL0     C95687   8.634   8.657   5.422 -0.6327 -0.0012  0.0356
  694MOL0     C95688   8.497   8.651   5.466  0.6058 -0.7085  0.5425
  694MOL0     C95689   8.085   8.781   5.603  0.2166  0.2810 -0.4690
  694MOL0     C95690   8.000   8.805   5.490 -1.2810  0.3895 -0.5291
  694MOL0     C95691   7.861   8.828   5.505  0.1692 -0.2650  0.3190
  694MOL0     C95692   7.800   8.818   5.628  0.0182 -0.2099 -0.3638
  694MOL0     O95693   7.665   8.841   5.649 -0.3297 -0.2494 -0.1181
  694MOL0     C95694   7.568   8.866   5.539 -0.2975 -0.1327 -0.2724
  694MOL0     C95695   7.423   8.879   5.598  0.9470  0.2328 -0.8744
  694MOL0     C95696   7.419   9.002   5.690  0.9698 -0.5368  0.0958
  694MOL0     C95697   7.274   9.059   5.726  0.4478  0.7758  1.3021
  694MOL0     C95698   7.198   9.107   5.605  0.3551 -0.3135 -0.2530
  694MOL0     C95699   7.141   9.167   5.520  0.6386 -1.2016 -0.5490
  694MOL0     C95700   7.878   8.781   5.741 -0.9365 -0.1644  0.5267
  694MOL0     C95701   8.016   8.760   5.731  0.3101 -0.2072 -0.8362
  694MOL0     C95702   8.084   8.722   5.854 -0.3893 -0.8126 -0.3436
  694MOL0     H95703   8.389   8.921   5.274  0.2269  1.4680  1.0992
  694MOL0     H95704   8.603   8.914   5.204 -0.3977  1.9002  1.2581
  694MOL0     H95705   8.774   8.676   5.105 -2.2566  2.3988  0.3503
  694MOL0     H95706   8.931   8.656   5.171  1.5221  1.2221 -2.9226
  694MOL0     H95707   8.846   8.942   5.109  1.5084  1.7752 -0.3931
  694MOL0     H95708   9.009   8.871   5.139  0.4206 -2.7056  1.2701
  694MOL0     H95709   8.817   8.810   4.904 -0.1231  0.6371  0.4263
  694MOL0     H95710   8.969   8.900   4.891 -2.9372  0.5049 -3.6300
  694MOL0     H95711   9.097   8.715   4.972 -1.4777  1.2073  2.7307
  694MOL0     H95712   8.965   8.601   4.945  2.0002 -1.7949 -1.2923
  694MOL0     H95713   8.939   8.679   4.708 -0.8137 -0.4295  2.9114
  694MOL0     H95714   9.092   8.593   4.730  2.3365  2.1421  0.4511
  694MOL0     H95715   9.079   8.883   4.729 -0.4390 -1.1733  2.4064
  694MOL0     H95716   9.233   8.786   4.758  2.3177  0.0351 -2.9694
  694MOL0     H95717   9.191   8.672   4.522 -1.8375 -0.9241 -0.7099
  694MOL0     H95718   9.242   8.840   4.528  0.2166  0.0480  2.1456
  694MOL0     H95719   9.064   8.772   4.368 -2.4721 -2.5706  1.2907
  694MOL0     H95720   8.957   8.723   4.486  1.9733 -2.4327  0.0954
  694MOL0     H95721   8.996   9.049   4.302 -0.6306 -0.8806 -0.8080
  694MOL0     H95722   8.685   9.244   4.398 -0.1035 -0.7225  1.1129
  694MOL0     H95723   8.825   9.254   4.289  0.2348  0.8313  0.4097
  694MOL0     H95724   8.766   9.375   4.567  0.2293  2.0840 -0.1207
  694MOL0     H95725   8.933   9.373   4.502 -0.2555 -4.2441  2.9117
  694MOL0     H95726   8.845   9.486   4.290 -1.5252 -1.8272 -0.4399
  694MOL0     H95727   8.692   9.507   4.372 -0.3128  2.0065 -0.8520
  694MOL0     H95728   8.836   9.720   4.394  1.1107 -1.9309 -2.0550
  694MOL0     H95729   8.799   9.647   4.550  2.9184  0.8528  1.4517
  694MOL0     H95730   9.226   9.565   4.561  0.4587 -0.8172 -0.0331
  694MOL0     H95731   9.502   9.633   4.485 -1.9445  0.5258  2.5161
  694MOL0     H95732   9.523   9.497   4.364 -1.3695  0.5850  0.7958
  694MOL0     H95733   9.445   9.463   4.511  2.1585  0.3150  1.5066
  694MOL0     H95734   9.627   9.852   4.098 -1.2598  0.7084 -0.5549
  694MOL0     H95735   9.778   9.955   3.933  0.3105  0.7019 -0.9945
  694MOL0     H95736   9.610   9.920   3.479 -0.7382  3.2156 -3.5442
  694MOL0     H95737   9.599  10.089   3.527 -0.6477 -0.1317  1.6218
  694MOL0     H95738   9.738  10.089   3.337  1.6542  3.1767  2.3008
  694MOL0     H95739   9.832  10.117   3.485  3.1501 -2.8403  1.3185
  694MOL0     H95740   9.828   9.835   3.380  2.5193 -1.5550 -2.1593
  694MOL0     H95741   9.938   9.923   3.491 -2.3317  0.2659  0.7813
  694MOL0     H95742  10.011  10.059   3.301  0.3977 -1.5362  4.1091
  694MOL0     H95743   9.878   9.996   3.202 -1.9967 -0.7090  1.9215
  694MOL0     H95744  10.139   9.857   3.287 -1.0636  0.1202  0.7428
  694MOL0     H95745  10.011   9.768   3.227  2.4876 -0.3124  1.8067
  694MOL0     H95746  10.138  10.006   3.085  1.9230 -0.4377 -0.6632
  694MOL0     H95747  10.012   9.918   3.015  0.7126 -0.4761  0.3643
  694MOL0     H95748  10.166   9.706   2.992 -2.3897  0.6451  3.0197
  694MOL0     H95749  10.278   9.798   3.094 -0.7901  0.1342  0.9862
  694MOL0     H95750  10.340   9.835   2.857 -1.1777 -3.6175 -0.8063
  694MOL0     H95751  10.238   9.981   2.908 -0.2492  0.3875  0.9307
  694MOL0     H95752   9.484   9.853   3.626  0.4431 -2.2972  0.9400
  694MOL0     H95753   9.363   9.740   3.788  0.3046  1.6214 -0.9395
  694MOL0     H95754   9.163   9.697   4.098 -2.3499  1.9315  0.9790
  694MOL0     H95755   8.989   9.685   4.233 -0.1847 -0.1355  0.1473
  694MOL0     H95756   8.712   8.592   5.462  1.1825  0.7166 -2.0813
  694MOL0     H95757   8.482   8.574   5.541  1.9427 -1.4172  0.1320
  694MOL0     H95758   8.048   8.810   5.392  1.0564  1.8410  0.5942
  694MOL0     H95759   7.802   8.853   5.418 -0.7363 -1.5364  0.5369
  694MOL0     H95760   7.591   8.959   5.487 -2.1082 -0.8212 -2.4811
  694MOL0     H95761   7.568   8.783   5.468  2.1583 -0.4067 -0.0367
  694MOL0     H95762   7.408   8.806   5.678  0.4992  2.2567  0.9710
  694MOL0     H95763   7.344   8.880   5.522 -2.3560  0.0852  2.2959
  694MOL0     H95764   7.462   8.979   5.788  3.3874  2.6849 -0.0620
  694MOL0     H95765   7.482   9.077   5.642  4.0897 -1.6452  2.1248
  694MOL0     H95766   7.297   9.149   5.783  0.9284  0.4064  1.6965
  694MOL0     H95767   7.217   8.984   5.782 -0.0820 -0.2913 -0.5738
  694MOL0     H95768   7.080   9.214   5.445 -0.9820 -4.0591 -1.1643
  694MOL0     H95769   7.830   8.770   5.837 -1.3637  1.4940  0.5407
  694MOL0     H95770   8.146   8.633   5.842  1.2113  0.3161 -0.6942
  694MOL0     H95771   8.135   8.812   5.889 -2.4804  0.3876 -0.1932
  694MOL0     H95772   8.011   8.702   5.933  2.9538  1.4414  3.7157
  695MOL0     O95773   1.912   8.477   1.385  0.8982 -0.1478 -0.4903
  695MOL0     C95774   1.876   8.525   1.274  0.4974 -0.1060 -0.0467
  695MOL0     O95775   1.922   8.647   1.230 -0.2684 -0.2203  0.4066
  695MOL0     C95776   1.978   8.726   1.324  0.4943 -1.0792 -0.9665
  695MOL0     C95777   1.911   8.755   1.448  0.0135 -0.2091  0.3642
  695MOL0     C95778   1.982   8.830   1.542  0.3253 -1.5076 -0.0609
  695MOL0     C95779   2.110   8.881   1.514  0.3844  0.0642 -0.8911
  695MOL0     O95780   2.160   8.965   1.616 -0.1170  0.1479  0.8478
  695MOL0     C95781   2.273   9.049   1.586  0.2080 -0.3260  0.1556
  695MOL0     C95782   2.310   9.113   1.715 -0.1399 -0.5387  0.2823
  695MOL0     C95783   2.451   9.187   1.701  0.0681  0.0817 -1.0779
  695MOL0     C95784   2.426   9.311   1.618 -0.4548 -0.0447  1.1276
  695MOL0     C95785   2.525   9.426   1.620  0.1956  1.0501 -0.1396
  695MOL0     C95786   2.670   9.389   1.585 -0.0358 -0.1670  0.0731
  695MOL0     C95787   2.698   9.351   1.433  0.5590 -0.6378 -0.2270
  695MOL0     C95788   2.696   9.201   1.408  0.5082  1.1571 -0.2403
  695MOL0     N95789   2.795   9.134   1.499  0.1975  0.4140  1.0685
  695MOL0     C95790   2.923   9.182   1.531  0.1494  1.0221  0.4453
  695MOL0     C95791   2.976   9.070   1.600 -0.1068  0.8372 -0.2630
  695MOL0     C95792   3.112   9.046   1.658  0.5010 -0.0977 -0.5720
  695MOL0     C95793   3.185   9.181   1.695 -1.1713  0.4877 -1.0424
  695MOL0     C95794   3.119   9.278   1.790 -0.9613  0.2670  0.5345
  695MOL0     C95795   3.224   9.372   1.848 -0.8531  0.1253 -0.0642
  695MOL0     O95796   3.148   9.453   1.939 -0.4637 -0.1135 -0.1578
  695MOL0     C95797   3.212   9.566   1.985  0.7129 -0.3425 -0.4146
  695MOL0     C95798   3.144   9.643   2.082  0.0333  0.1670  0.1739
  695MOL0     C95799   3.188   9.770   2.126  0.6839  0.4160 -0.5616
  695MOL0     C95800   3.098   9.830   2.227  0.2749  0.1698 -0.7255
  695MOL0     C95801   3.314   9.808   2.099 -0.1886 -0.0193 -0.2830
  695MOL0     C95802   3.380   9.930   2.160 -0.7066 -0.2292 -0.4089
  695MOL0     O95803   3.514   9.947   2.129  0.0437  0.1072 -0.1366
  695MOL0     C95804   3.580  10.061   2.126 -0.2030  0.0714  0.3368
  695MOL0     C95805   3.578  10.136   2.002  0.9725 -0.5762  0.7900
  695MOL0     C95806   3.650  10.252   1.984 -0.3051 -0.0819  0.7029
  695MOL0     C95807   3.729  10.301   2.084 -0.9410 -0.3611  0.5473
  695MOL0     O95808   3.814  10.408   2.062  0.2196  0.7698 -0.2273
  695MOL0     C95809   3.799  10.522   2.160  0.0348 -0.3563  0.8438
  695MOL0     C95810   3.811  10.652   2.079 -0.6189  1.6976 -0.1838
  695MOL0     C95811   3.965  10.688   2.048  0.6288  0.3805 -0.5249
  695MOL0     C95812   3.980  10.808   1.958  0.1087  0.5443 -0.0440
  695MOL0     C95813   3.961  10.939   2.027 -0.1785 -0.1883 -0.2040
  695MOL0     C95814   3.816  10.986   2.045 -0.5231  0.6775  0.0081
  695MOL0     C95815   3.808  11.135   2.079 -0.4111  0.4514 -0.0836
  695MOL0     C95816   3.674  11.184   2.136  0.0516 -0.7763 -0.3484
  695MOL0    Cl95817   3.679  11.354   2.182  0.1508 -0.6985 -0.3541
  695MOL0     C95818   3.731  10.228   2.204 -0.9087  0.3218 -0.4553
  695MOL0     C95819   3.657  10.108   2.231 -0.4286  0.0747  0.5991
  695MOL0     O95820   3.307  10.013   2.224 -1.0005 -0.9917 -0.5328
  695MOL0     C95821   3.382   9.739   2.011  0.1600  0.7091  0.6127
  695MOL0     C95822   3.335   9.619   1.954 -0.1872  0.0813  0.0506
  695MOL0     N95823   2.885   8.963   1.599 -0.1484 -0.8377 -0.3340
  695MOL0     N95824   2.780   9.003   1.544  0.7173  0.5914  0.4966
  695MOL0     C95825   2.170   8.848   1.395  0.1680  0.3949 -0.2416
  695MOL0     C95826   2.104   8.771   1.296 -0.5377 -0.1942 -0.2349
  695MOL0     C95827   1.793   8.444   1.182  0.0666  0.1657 -0.5564
  695MOL0     C95828   1.780   8.476   1.050 -0.1603  0.5368 -0.1391
  695MOL0     C95829   1.697   8.402   0.962 -0.8321 -0.0561  0.6455
  695MOL0     C95830   1.631   8.284   1.002  0.1526 -1.0144  0.0621
  695MOL0     O95831   1.552   8.211   0.921 -0.1988 -1.4119 -0.1004
  695MOL0     C95832   1.534   8.241   0.776 -0.5085  0.5600 -0.4226
  695MOL0     C95833   1.471   8.113   0.714  0.2868  0.1211 -0.7851
  695MOL0     C95834   1.345   8.149   0.636 -0.0395  0.7888  1.1240
  695MOL0     C95835   1.233   8.183   0.731  0.4268 -0.0316  1.0233
  695MOL0     C95836   1.097   8.169   0.670 -0.0600 -0.1791 -0.5896
  695MOL0     C95837   0.986   8.171   0.614  0.3515  0.4726 -0.5305
  695MOL0     C95838   1.640   8.257   1.136 -0.4985  0.1938  0.1655
  695MOL0     C95839   1.712   8.335   1.229 -0.0091  0.4581 -0.3648
  695MOL0     C95840   1.718   8.283   1.365  0.1336  0.6615 -0.7189
  695MOL0     H95841   1.810   8.728   1.475 -0.3591  0.9190  0.1457
  695MOL0     H95842   1.935   8.866   1.632  0.9495  0.4203 -0.4590
  695MOL0     H95843   2.247   9.130   1.516 -1.5857 -0.3328  0.7492
  695MOL0     H95844   2.354   8.986   1.550 -0.1770 -0.2517 -0.8790
  695MOL0     H95845   2.235   9.181   1.756  2.4729  1.1127  2.7759
  695MOL0     H95846   2.316   9.039   1.795 -1.0950 -1.4070 -0.4301
  695MOL0     H95847   2.489   9.211   1.801  0.5713 -0.0590 -1.2285
  695MOL0     H95848   2.520   9.113   1.658  0.7228 -0.0219  0.0877
  695MOL0     H95849   2.425   9.272   1.516  1.0215  0.1305  1.0280
  695MOL0     H95850   2.328   9.353   1.645  0.0949  1.5563  0.6879
  695MOL0     H95851   2.524   9.467   1.722  2.3328 -0.9089  0.7626
  695MOL0     H95852   2.492   9.507   1.554  2.4316  2.4077  0.2769
  695MOL0     H95853   2.735   9.475   1.606  0.5600 -0.0907 -1.8322
  695MOL0     H95854   2.701   9.322   1.666 -0.0170 -1.1913 -0.7649
  695MOL0     H95855   2.788   9.401   1.396  1.3628 -1.2244  0.8762
  695MOL0     H95856   2.606   9.380   1.381 -0.4701 -1.9232  0.7894
  695MOL0     H95857   2.596   9.169   1.439 -0.0411  4.5585  1.9894
  695MOL0     H95858   2.720   9.178   1.304  3.4984 -5.6495  1.3476
  695MOL0     H95859   2.973   9.276   1.507 -1.3591  1.8434  0.4100
  695MOL0     H95860   3.172   8.987   1.589 -0.4460 -3.0540  0.9614
  695MOL0     H95861   3.109   8.985   1.749 -0.6096 -0.5410 -0.8835
  695MOL0     H95862   3.279   9.150   1.743 -1.9051  0.7299  0.6249
  695MOL0     H95863   3.214   9.226   1.600  2.9395 -0.9073 -0.6505
  695MOL0     H95864   3.044   9.339   1.739 -0.0992  2.2870  1.5314
  695MOL0     H95865   3.073   9.222   1.872  1.2571  1.0879  2.4800
  695MOL0     H95866   3.317   9.331   1.886 -1.0455  1.2405  1.7420
  695MOL0     H95867   3.248   9.446   1.771 -1.5115 -1.7917 -2.1949
  695MOL0     H95868   3.065   9.586   2.130  3.4453 -3.1408  2.4008
  695MOL0     H95869   3.000   9.784   2.214 -0.6784  1.0482  2.5323
  695MOL0     H95870   3.086   9.937   2.207 -1.5250  1.0225  3.7219
  695MOL0     H95871   3.138   9.817   2.328 -1.3110 -1.3470 -0.2440
  695MOL0     H95872   3.509  10.100   1.926  1.1327 -2.2856  1.4056
  695MOL0     H95873   3.634  10.303   1.889 -0.1078 -1.0783  0.1257
  695MOL0     H95874   3.704  10.509   2.213  0.2790  0.6234  1.5460
  695MOL0     H95875   3.878  10.514   2.235 -0.4054 -2.5242  1.1336
  695MOL0     H95876   3.761  10.639   1.982  0.6429 -2.3850 -0.4608
  695MOL0     H95877   3.756  10.725   2.140  0.0497  2.2826 -0.2664
  695MOL0     H95878   4.004  10.600   1.996  0.2246 -1.1555  1.6189
  695MOL0     H95879   4.016  10.709   2.142 -1.7105 -0.5514  1.0444
  695MOL0     H95880   3.908  10.799   1.877  0.3641  0.5257 -0.2718
  695MOL0     H95881   4.082  10.799   1.920  0.6215  0.4298  1.3043
  695MOL0     H95882   3.998  10.942   2.130 -2.8171 -2.7424  0.9625
  695MOL0     H95883   4.008  11.016   1.966 -0.5436 -0.0561 -0.3207
  695MOL0     H95884   3.771  10.924   2.123  0.0592 -1.7260 -1.4268
  695MOL0     H95885   3.747  10.979   1.960 -3.2484  3.0210  1.8492
  695MOL0     H95886   3.825  11.181   1.981 -0.3212  0.3639 -0.1086
  695MOL0     H95887   3.888  11.160   2.149 -0.7359 -2.2002  1.3311
  695MOL0     H95888   3.648  11.111   2.213 -2.2153 -0.1687 -0.4796
  695MOL0     H95889   3.603  11.167   2.055  1.7923  2.9679 -2.9514
  695MOL0     H95890   3.804  10.251   2.280  0.5342 -1.1811 -1.3267
  695MOL0     H95891   3.677  10.053   2.323  0.9862 -1.7561 -0.7087
  695MOL0     H95892   3.483   9.763   1.980 -0.8148 -0.1699 -4.0039
  695MOL0     H95893   3.402   9.565   1.888  0.7447 -0.1399  1.1458
  695MOL0     H95894   2.274   8.873   1.378  0.8124 -1.7722  0.1910
  695MOL0     H95895   2.156   8.744   1.204 -1.8354 -4.2495  0.0301
  695MOL0     H95896   1.822   8.567   1.009  0.3606  2.6351  4.4691
  695MOL0     H95897   1.683   8.441   0.862  1.6210 -2.6164 -0.8457
  695MOL0     H95898   1.468   8.328   0.767 -1.9081 -0.2470  1.4682
  695MOL0     H95899   1.629   8.270   0.730 -0.0771 -1.3968 -0.8600
  695MOL0     H95900   1.454   8.047   0.799  4.1253 -0.3586 -0.1861
  695MOL0     H95901   1.541   8.059   0.648  3.0615  0.2047  1.8846
  695MOL0     H95902   1.368   8.232   0.570 -3.1731  0.2857 -0.7913
  695MOL0     H95903   1.330   8.060   0.574  1.4271  0.5518  1.0709
  695MOL0     H95904   1.238   8.288   0.764  1.4570  0.3059 -0.1513
  695MOL0     H95905   1.247   8.110   0.811  2.0663 -2.8322 -1.6349
  695MOL0     H95906   0.883   8.162   0.585 -0.4736  0.5294  2.1299
  695MOL0     H95907   1.588   8.166   1.163  1.2546 -0.2999  2.0610
  695MOL0     H95908   1.651   8.198   1.381 -0.4419  1.3278  0.5863
  695MOL0     H95909   1.820   8.244   1.376 -0.9398 -2.0231  0.7942
  695MOL0     H95910   1.685   8.363   1.432  1.0604  0.6302 -0.1981
  696MOL0     O95911   8.907   3.881   9.276 -0.1891  1.0726  0.3509
  696MOL0     C95912   8.847   3.987   9.253 -1.0661 -0.5387  0.0898
  696MOL0     O95913   8.907   4.100   9.191 -0.0504  0.4786 -0.3592
  696MOL0     C95914   9.036   4.114   9.150 -1.1104 -0.3664 -0.8097
  696MOL0     C95915   9.119   4.007   9.099  0.7136 -0.2132  0.4893
  696MOL0     C95916   9.258   4.023   9.084 -0.8355  0.3850  1.0028
  696MOL0     C95917   9.316   4.151   9.114 -0.5324  0.0758 -0.5135
  696MOL0     O95918   9.453   4.179   9.105 -0.2246 -0.3401  0.2738
  696MOL0     C95919   9.540   4.074   9.134 -0.5471 -0.9148  0.6568
  696MOL0     C95920   9.687   4.116   9.139 -0.3114 -0.2441 -0.1791
  696MOL0     C95921   9.759   4.159   9.013  0.3655 -0.4196 -0.8997
  696MOL0     C95922   9.898   4.215   9.042  0.0187  0.8797  0.2428
  696MOL0     C95923   9.965   4.275   8.916  0.2567 -0.5218  0.3547
  696MOL0     C95924  10.121   4.300   8.930  0.8449 -0.5562  0.5315
  696MOL0     C95925  10.172   4.338   8.791  0.1176  0.5908  0.2869
  696MOL0     C95926  10.329   4.368   8.779 -0.3084 -0.5681  0.0236
  696MOL0     N95927  10.369   4.493   8.854 -0.7321 -0.0006  0.0135
  696MOL0     C95928  10.425   4.483   8.976 -0.2801  0.2280 -0.2808
  696MOL0     C95929  10.494   4.598   9.008 -0.0585  0.0105 -0.0114
  696MOL0     C95930  10.567   4.614   9.134  0.0411  0.0789  0.1732
  696MOL0     C95931  10.637   4.751   9.148 -0.6087 -0.0843 -0.0533
  696MOL0     C95932  10.762   4.732   9.062  0.0692 -0.2119 -1.1721
  696MOL0     C95933  10.840   4.868   9.076 -0.5109 -0.0975  0.0298
  696MOL0     O95934  10.877   4.902   9.209  0.5542  0.4165 -0.0823
  696MOL0     C95935  10.941   5.022   9.244 -0.3703  0.4266  0.9667
  696MOL0     C95936  10.955   5.050   9.378  0.5933  0.5821 -0.9646
  696MOL0     C95937  11.020   5.163   9.432 -0.6144 -0.1250  0.0976
  696MOL0     C95938  11.039   5.175   9.585 -0.0872 -0.1451 -0.1999
  696MOL0     C95939  11.087   5.247   9.337  0.1422  0.4326 -0.1229
  696MOL0     C95940  11.178   5.356   9.374  0.7336  0.3187  0.2015
  696MOL0     O95941  11.226   5.444   9.272 -0.0633  0.7386 -0.0784
  696MOL0     C95942  11.349   5.503   9.301 -0.3489 -0.7597  0.4162
  696MOL0     C95943  11.354   5.631   9.346  0.3915 -0.7785 -1.1926
  696MOL0     C95944  11.482   5.686   9.390  0.6050 -0.0122 -0.1284
  696MOL0     C95945  11.601   5.612   9.387 -0.3700 -0.8287  0.6519
  696MOL0     O95946  11.714   5.657   9.449 -0.3349 -0.4739  0.3768
  696MOL0     C95947  11.745   5.793   9.430 -0.3639 -0.5480  0.1302
  696MOL0     C95948  11.898   5.808   9.407  0.0178  0.3162 -0.8084
  696MOL0     C95949  11.926   5.745   9.270 -0.4614 -0.4928 -0.0330
  696MOL0     C95950  12.079   5.712   9.250 -0.6972  0.4704 -0.8131
  696MOL0     C95951  12.088   5.661   9.109 -0.5280  0.1789  0.0573
  696MOL0     C95952  12.228   5.618   9.076 -0.5417  0.2887  0.2448
  696MOL0     C95953  12.230   5.565   8.927 -0.4639 -0.3445  0.9914
  696MOL0     C95954  12.353   5.524   8.864 -0.3134  0.0007  0.5058
  696MOL0    Cl95955  12.324   5.443   8.716  0.2027 -0.0022 -0.1919
  696MOL0     C95956  11.602   5.476   9.336  0.1888 -0.6404 -0.0317
  696MOL0     C95957  11.472   5.430   9.294 -0.0721 -0.1192  0.0490
  696MOL0     O95958  11.232   5.343   9.484 -0.3230  0.0724 -0.5574
  696MOL0     C95959  11.060   5.226   9.199 -0.3110  0.7868 -0.4368
  696MOL0     C95960  10.984   5.115   9.153  0.6947  0.2361  0.6861
  696MOL0     N95961  10.461   4.681   8.895  0.1689  0.0638  0.3430
  696MOL0     N95962  10.392   4.620   8.808  0.6765 -1.0767  0.6062
  696MOL0     C95963   9.231   4.249   9.157  0.4365  0.0216 -0.4467
  696MOL0     C95964   9.093   4.229   9.180 -0.8334 -0.9757  0.5194
  696MOL0     C95965   8.716   4.005   9.319 -0.2461 -0.4796  0.0781
  696MOL0     C95966   8.676   4.143   9.352 -0.2441  0.4423 -0.7287
  696MOL0     C95967   8.548   4.164   9.405 -0.7350  0.6063  0.1258
  696MOL0     C95968   8.456   4.061   9.419  0.0501 -0.3320  0.4012
  696MOL0     O95969   8.331   4.090   9.471  0.5688 -0.4222 -0.5832
  696MOL0     C95970   8.331   4.127   9.611  0.3735  0.0141  0.1695
  696MOL0     C95971   8.194   4.190   9.644  0.1357 -0.8287  0.2418
  696MOL0     C95972   8.163   4.337   9.603 -0.3932 -0.3625 -0.0305
  696MOL0     C95973   8.007   4.357   9.605 -0.4497  0.6251 -0.4554
  696MOL0     C95974   7.976   4.496   9.562  0.4950 -0.0903 -0.1573
  696MOL0     C95975   7.934   4.606   9.528 -0.0776  0.1212 -0.1734
  696MOL0     C95976   8.501   3.934   9.404 -0.1248  0.3041 -0.1694
  696MOL0     C95977   8.632   3.899   9.359 -0.5570 -0.2027 -0.5168
  696MOL0     C95978   8.674   3.749   9.347  0.3345 -0.8200 -0.1779
  696MOL0     H95979   9.069   3.913   9.076  0.5600  0.0179 -0.1573
  696MOL0     H95980   9.319   3.937   9.058 -2.7929 -0.7387 -0.0545
  696MOL0     H95981   9.530   3.991   9.064 -2.0083  0.3511 -0.7031
  696MOL0     H95982   9.523   4.037   9.236  2.8385 -1.9970  0.9410
  696MOL0     H95983   9.702   4.198   9.209  0.4803  0.2943 -0.9602
  696MOL0     H95984   9.740   4.032   9.185  1.6489  1.3517  0.6034
  696MOL0     H95985   9.757   4.069   8.951 -1.0904  0.5854 -2.4063
  696MOL0     H95986   9.694   4.234   8.967 -0.6266 -0.6836  0.0200
  696MOL0     H95987   9.890   4.291   9.121 -0.2933 -0.2326  1.3078
  696MOL0     H95988   9.967   4.141   9.082 -0.1547  0.2277 -0.6364
  696MOL0     H95989   9.917   4.368   8.884  2.1969  0.6946  0.8467
  696MOL0     H95990   9.949   4.196   8.842  0.1001 -0.6190  0.4905
  696MOL0     H95991  10.145   4.379   9.002  2.1465  3.1556 -3.5037
  696MOL0     H95992  10.169   4.208   8.965 -0.7154 -3.2499 -3.6408
  696MOL0     H95993  10.122   4.431   8.765  1.4708  1.9099  2.1378
  696MOL0     H95994  10.149   4.250   8.730 -0.7623  2.7394 -2.7084
  696MOL0     H95995  10.384   4.278   8.807  1.8659 -0.0227 -2.0890
  696MOL0     H95996  10.338   4.393   8.673 -2.6379 -1.2017 -0.3810
  696MOL0     H95997  10.433   4.395   9.039 -1.7082  0.0572 -0.3038
  696MOL0     H95998  10.632   4.528   9.154  0.3722 -0.4026 -2.6314
  696MOL0     H95999  10.488   4.614   9.210  0.4799  0.1848  0.6381
  696MOL0     H96000  10.578   4.836   9.110  1.2332  0.8669 -0.9020
  696MOL0     H96001  10.653   4.772   9.254  0.3497  1.9644 -0.5412
  696MOL0     H96002  10.832   4.654   9.094 -1.0316 -0.2205  1.4087
  696MOL0     H96003  10.734   4.720   8.957 -1.5989 -1.2066 -0.6488
  696MOL0     H96004  10.932   4.867   9.017 -0.6107 -3.2952 -0.2376
  696MOL0     H96005  10.784   4.956   9.042  1.8470  1.1785 -0.7958
  696MOL0     H96006  10.932   4.975   9.453 -1.4398  1.8034 -0.2802
  696MOL0     H96007  11.018   5.278   9.615 -1.2381 -0.9128  1.8296
  696MOL0     H96008  11.144   5.160   9.612 -0.2683  2.1239  2.0839
  696MOL0     H96009  10.980   5.107   9.648 -2.0662  1.2950 -0.4396
  696MOL0     H96010  11.260   5.685   9.345  0.5989 -0.4185 -2.0166
  696MOL0     H96011  11.478   5.785   9.435 -1.9670 -0.0186 -0.2431
  696MOL0     H96012  11.703   5.850   9.346  2.0975  1.1461 -0.0619
  696MOL0     H96013  11.711   5.844   9.521 -0.2781 -2.9946  1.6100
  696MOL0     H96014  11.939   5.909   9.400  2.1457 -0.3594  0.8790
  696MOL0     H96015  11.951   5.751   9.484 -1.2784  1.7655  1.2664
  696MOL0     H96016  11.878   5.815   9.200  0.7054  2.3555  1.8152
  696MOL0     H96017  11.864   5.656   9.258 -0.4714 -0.3476 -1.2481
  696MOL0     H96018  12.111   5.636   9.322 -0.4741 -1.2789 -2.6702
  696MOL0     H96019  12.126   5.809   9.269 -0.7481  0.0591  1.7623
  696MOL0     H96020  12.025   5.573   9.094 -0.4053  0.0785  0.1250
  696MOL0     H96021  12.057   5.735   9.035 -0.3414  0.8283  0.6200
  696MOL0     H96022  12.261   5.537   9.141 -0.3138  0.3278  0.1810
  696MOL0     H96023  12.299   5.700   9.094  1.9932 -1.0014 -2.8320
  696MOL0     H96024  12.184   5.643   8.866  2.6550 -0.6371 -2.0203
  696MOL0     H96025  12.163   5.478   8.928 -1.1728  0.1572 -0.5818
  696MOL0     H96026  12.398   5.451   8.932  0.7292  0.7940  0.6931
  696MOL0     H96027  12.422   5.605   8.841 -1.8472  0.5712 -2.6992
  696MOL0     H96028  11.685   5.412   9.309  0.5773  0.3573 -1.3134
  696MOL0     H96029  11.471   5.332   9.246  1.0741  0.4708 -1.2292
  696MOL0     H96030  11.094   5.294   9.121 -1.5139  1.3241 -0.5138
  696MOL0     H96031  10.963   5.120   9.047 -1.6943  3.8299  1.1553
  696MOL0     H96032   9.267   4.348   9.185  2.2999 -1.1374  1.5236
  696MOL0     H96033   9.037   4.317   9.209 -1.0244  0.6279 -4.0476
  696MOL0     H96034   8.734   4.227   9.316  0.4614  2.1903  3.7817
  696MOL0     H96035   8.510   4.264   9.420 -0.0161  0.4721  3.5827
  696MOL0     H96036   8.346   4.035   9.669  2.7742  0.4756  0.4028
  696MOL0     H96037   8.412   4.196   9.637  0.7279  0.4761 -1.9384
  696MOL0     H96038   8.180   4.190   9.752 -0.3852 -1.6436  0.1874
  696MOL0     H96039   8.113   4.130   9.602 -0.2534 -0.4921  0.5040
  696MOL0     H96040   8.206   4.403   9.678  0.1002 -1.3842  0.6002
  696MOL0     H96041   8.206   4.356   9.504 -3.2772 -1.4866 -1.6372
  696MOL0     H96042   7.964   4.341   9.704  1.5235  0.4641  0.4199
  696MOL0     H96043   7.947   4.289   9.544 -1.8961 -1.3448  2.8392
  696MOL0     H96044   7.899   4.700   9.490  2.2088  1.1897  0.1764
  696MOL0     H96045   8.430   3.857   9.433  0.4114 -0.9258 -1.9653
  696MOL0     H96046   8.671   3.714   9.244  1.0554 -0.2930 -0.3859
  696MOL0     H96047   8.775   3.724   9.381  0.3321 -4.0008 -2.1416
  696MOL0     H96048   8.601   3.688   9.402  0.2856  1.8782  3.0847
  697MOL0     O96049   3.092   3.681   6.111  0.9286 -0.2542 -0.0939
  697MOL0     C96050   2.970   3.670   6.114  0.3894  0.2135 -0.4343
  697MOL0     O96051   2.908   3.576   6.189 -0.1958  0.2419 -0.2145
  697MOL0     C96052   2.975   3.513   6.283  0.0522  0.4083  0.4324
  697MOL0     C96053   3.072   3.413   6.253  0.4683 -0.6165  0.1804
  697MOL0     C96054   3.157   3.362   6.352  0.5800 -0.4124  0.3196
  697MOL0     C96055   3.122   3.384   6.486 -0.9616  0.0326  1.1676
  697MOL0     O96056   3.191   3.314   6.585  0.6991  0.1021  0.1332
  697MOL0     C96057   3.099   3.239   6.668  0.2991 -0.4974  0.0344
  697MOL0     C96058   3.185   3.122   6.724  0.7727  0.1545  0.3864
  697MOL0     C96059   3.308   3.166   6.788  0.0067 -0.2932  0.5462
  697MOL0     C96060   3.432   3.089   6.718  0.1352 -0.3834 -0.5944
  697MOL0     C96061   3.554   3.144   6.796 -0.1097 -0.1237  0.0931
  697MOL0     C96062   3.599   3.286   6.771 -0.9400  0.3662 -0.3904
  697MOL0     C96063   3.746   3.310   6.790 -0.3156 -0.1279  0.5227
  697MOL0     C96064   3.776   3.459   6.762 -0.6677  0.7165 -0.0435
  697MOL0     N96065   3.913   3.487   6.820  0.4573  0.7992  0.3544
  697MOL0     C96066   4.020   3.410   6.787  1.8660 -0.1447  0.3173
  697MOL0     C96067   4.111   3.444   6.877 -0.0353  0.0930 -0.1689
  697MOL0     C96068   4.248   3.373   6.889  0.4979  0.9030 -1.0734
  697MOL0     C96069   4.324   3.416   7.010 -0.0659  0.2742 -0.0198
  697MOL0     C96070   4.463   3.349   7.002 -0.3640  0.4820  1.2625
  697MOL0     C96071   4.545   3.386   7.123 -0.7589  1.4977 -0.0281
  697MOL0     O96072   4.668   3.304   7.115 -0.1951 -0.0613  1.1374
  697MOL0     C96073   4.779   3.357   7.178 -0.7563  0.1265  0.4640
  697MOL0     C96074   4.874   3.269   7.234 -0.5940 -0.1481  0.3062
  697MOL0     C96075   4.983   3.311   7.312 -0.0361 -0.7894  0.7707
  697MOL0     C96076   5.055   3.195   7.390  0.9726 -0.6087  0.2038
  697MOL0     C96077   5.001   3.452   7.328 -0.2654  0.1572 -0.4651
  697MOL0     C96078   5.117   3.505   7.409 -0.7375  0.6241 -0.0191
  697MOL0     O96079   5.224   3.423   7.429 -0.0800  0.3228 -0.5318
  697MOL0     C96080   5.338   3.451   7.497 -0.0137 -0.5936  0.8027
  697MOL0     C96081   5.449   3.358   7.479  0.0579 -0.6921 -0.0481
  697MOL0     C96082   5.570   3.385   7.528  0.4060 -0.7974  0.4546
  697MOL0     C96083   5.588   3.495   7.614 -0.4745  0.3783  0.9643
  697MOL0     O96084   5.704   3.504   7.680  0.4535  0.4659 -0.6098
  697MOL0     C96085   5.783   3.623   7.671 -0.3455  0.2376  0.3301
  697MOL0     C96086   5.861   3.653   7.792 -0.0089 -0.0019  0.6512
  697MOL0     C96087   5.949   3.532   7.839 -0.2375 -0.1635  0.2528
  697MOL0     C96088   5.971   3.528   7.995 -0.0304 -0.1284 -0.0606
  697MOL0     C96089   6.109   3.471   8.043 -0.1266  0.1659 -0.7778
  697MOL0     C96090   6.226   3.556   8.012  0.1784 -0.6334 -0.2811
  697MOL0     C96091   6.221   3.691   8.093 -0.1809  0.6074  0.5142
  697MOL0     C96092   6.208   3.818   8.013  0.7847 -0.8113 -0.1219
  697MOL0    Cl96093   6.249   3.950   8.131  0.2996  0.1486 -0.2103
  697MOL0     C96094   5.486   3.579   7.656 -0.0525  0.1981 -0.0848
  697MOL0     C96095   5.362   3.557   7.591 -0.5067 -0.1183  0.9420
  697MOL0     O96096   5.102   3.612   7.462  0.1728 -0.1518 -0.4881
  697MOL0     C96097   4.914   3.545   7.271  0.1680  0.8560 -0.2419
  697MOL0     C96098   4.811   3.496   7.186  0.0494 -0.6081 -0.3594
  697MOL0     N96099   4.062   3.543   6.961 -0.4276 -0.5441  0.2165
  697MOL0     N96100   3.950   3.578   6.916  0.0961  0.1193  0.2703
  697MOL0     C96101   3.012   3.469   6.513  0.7433 -1.3629 -0.1999
  697MOL0     C96102   2.945   3.546   6.412 -0.6250 -0.2519 -0.6684
  697MOL0     C96103   2.880   3.754   6.032 -0.5049 -0.3418 -0.7260
  697MOL0     C96104   2.740   3.760   6.071 -1.2462 -0.7242 -0.0856
  697MOL0     C96105   2.650   3.837   6.002 -1.1182  0.7654 -0.1598
  697MOL0     C96106   2.690   3.916   5.896 -0.0118  0.4172  1.6607
  697MOL0     O96107   2.610   4.007   5.832 -0.7525 -0.1642  0.1654
  697MOL0     C96108   2.467   3.983   5.834  0.5312 -0.1769  0.6048
  697MOL0     C96109   2.421   3.857   5.758 -0.9217  0.5337 -0.0873
  697MOL0     C96110   2.275   3.818   5.793  1.0353 -0.0404 -0.3297
  697MOL0     C96111   2.234   3.716   5.686  0.5212  0.3386 -0.6281
  697MOL0     C96112   2.325   3.597   5.665  0.0505  0.2744 -0.6450
  697MOL0     C96113   2.401   3.510   5.643 -0.3643 -0.2801 -0.7267
  697MOL0     C96114   2.822   3.908   5.857 -0.3368  0.3572  0.0512
  697MOL0     C96115   2.916   3.838   5.924  0.2592  0.6399 -0.6540
  697MOL0     C96116   3.057   3.853   5.882 -0.1396 -0.2127 -0.0415
  697MOL0     H96117   3.087   3.388   6.148 -0.5869 -1.0676  0.1314
  697MOL0     H96118   3.235   3.291   6.328 -0.6656 -1.9660  0.6537
  697MOL0     H96119   3.014   3.200   6.611 -1.4135  0.2701  1.9478
  697MOL0     H96120   3.058   3.302   6.748 -1.4394  0.7859 -1.7468
  697MOL0     H96121   3.122   3.071   6.797 -1.2862  0.3171 -1.1818
  697MOL0     H96122   3.202   3.058   6.636  0.9733  2.2564 -1.1874
  697MOL0     H96123   3.323   3.275   6.787  0.4260 -0.3530  0.0514
  697MOL0     H96124   3.293   3.129   6.890 -1.8004 -0.2935  0.3087
  697MOL0     H96125   3.422   2.982   6.735  0.8380 -0.2177  0.9650
  697MOL0     H96126   3.436   3.107   6.610  2.2495  0.5050 -0.4035
  697MOL0     H96127   3.645   3.101   6.752  0.0146 -0.7411  0.9257
  697MOL0     H96128   3.548   3.117   6.902 -0.7126 -1.4761 -0.2780
  697MOL0     H96129   3.569   3.311   6.669 -3.0378 -3.2258 -0.8139
  697MOL0     H96130   3.541   3.352   6.837 -0.3976  2.4817 -1.8952
  697MOL0     H96131   3.805   3.241   6.728  0.5364  0.8988  0.1572
  697MOL0     H96132   3.778   3.278   6.889 -1.6817  0.1258  1.0623
  697MOL0     H96133   3.787   3.485   6.656  2.0817 -1.8026 -0.5053
  697MOL0     H96134   3.695   3.517   6.808 -0.8128  0.5088 -0.0377
  697MOL0     H96135   4.029   3.337   6.708 -0.6680  0.6293 -0.7732
  697MOL0     H96136   4.309   3.400   6.802  1.4207  0.3551 -0.6112
  697MOL0     H96137   4.229   3.266   6.899  0.9076  0.8557 -0.7831
  697MOL0     H96138   4.335   3.524   7.012 -0.9072  0.3568  1.7657
  697MOL0     H96139   4.267   3.396   7.101 -1.4284  2.4845 -0.3320
  697MOL0     H96140   4.455   3.240   7.011  0.2171  0.5943  3.9078
  697MOL0     H96141   4.510   3.386   6.910 -0.0457 -1.3816  0.6276
  697MOL0     H96142   4.556   3.494   7.117 -3.1919  1.9073  1.4999
  697MOL0     H96143   4.505   3.354   7.219  1.2791 -0.2341  0.3412
  697MOL0     H96144   4.859   3.163   7.218  1.6904 -0.0839 -3.4077
  697MOL0     H96145   5.066   3.214   7.497 -0.7452 -0.9320  0.4672
  697MOL0     H96146   5.153   3.176   7.346  0.0436  0.0129 -2.3246
  697MOL0     H96147   5.002   3.100   7.378 -0.4761  0.4884 -3.1544
  697MOL0     H96148   5.424   3.271   7.418 -0.4376 -0.9306  0.4938
  697MOL0     H96149   5.648   3.311   7.515  1.6933  0.2507  1.9328
  697MOL0     H96150   5.849   3.603   7.586  0.6688  0.6882  0.9921
  697MOL0     H96151   5.722   3.712   7.653 -0.1689  0.3572  0.3241
  697MOL0     H96152   5.919   3.743   7.770  0.5536 -0.4089  0.4272
  697MOL0     H96153   5.795   3.678   7.875 -0.7217 -0.7531  0.3320
  697MOL0     H96154   6.032   3.554   7.773 -4.0170  4.1155 -3.8191
  697MOL0     H96155   5.912   3.436   7.803 -1.9682  0.8700 -0.8990
  697MOL0     H96156   5.888   3.461   8.018 -1.1786 -0.9155 -5.3458
  697MOL0     H96157   5.939   3.624   8.038 -2.3863 -0.3225 -1.2220
  697MOL0     H96158   6.102   3.460   8.151 -0.3815  1.4330 -0.6432
  697MOL0     H96159   6.129   3.376   7.993  2.9507  1.9519 -3.3263
  697MOL0     H96160   6.229   3.573   7.904  0.1441  1.5302  0.0102
  697MOL0     H96161   6.324   3.512   8.033 -0.4395 -2.7798 -1.4900
  697MOL0     H96162   6.315   3.698   8.149  0.2348  3.1493 -0.3573
  697MOL0     H96163   6.134   3.697   8.159  0.1678  2.5083  0.8478
  697MOL0     H96164   6.109   3.826   7.965  0.1584  0.5636  1.2961
  697MOL0     H96165   6.284   3.821   7.934 -1.5028 -0.3621 -2.4669
  697MOL0     H96166   5.497   3.656   7.732  2.5311 -1.7553  1.6543
  697MOL0     H96167   5.288   3.629   7.626 -0.5284  0.4149 -0.1574
  697MOL0     H96168   4.933   3.650   7.292  2.2928  0.7648 -1.4053
  697MOL0     H96169   4.752   3.571   7.135  1.7150  1.0057 -0.0212
  697MOL0     H96170   2.963   3.471   6.610  0.8251 -4.1430 -0.0245
  697MOL0     H96171   2.880   3.631   6.427 -0.8905 -0.2670 -1.6617
  697MOL0     H96172   2.701   3.706   6.157  1.6419 -1.8602  0.6248
  697MOL0     H96173   2.547   3.826   6.033 -1.3035 -1.1261 -1.2258
  697MOL0     H96174   2.432   3.981   5.938 -1.5688  1.9348  0.0246
  697MOL0     H96175   2.428   4.079   5.799 -0.4409  0.0880  2.3053
  697MOL0     H96176   2.492   3.781   5.793 -1.6309  0.2913  0.8601
  697MOL0     H96177   2.434   3.878   5.652 -1.7776  0.3238 -0.2382
  697MOL0     H96178   2.268   3.775   5.893 -0.7710 -1.8320 -1.1658
  697MOL0     H96179   2.218   3.912   5.789 -1.7355 -1.6112 -0.2060
  697MOL0     H96180   2.215   3.766   5.590  1.8833  0.6203 -0.7805
  697MOL0     H96181   2.139   3.675   5.719  0.8666  0.1424  0.1475
  697MOL0     H96182   2.464   3.429   5.612 -0.6097 -0.1504 -1.5688
  697MOL0     H96183   2.850   3.969   5.773 -1.4349 -0.0452 -0.6352
  697MOL0     H96184   3.075   3.892   5.781  0.9148 -0.8707 -0.1249
  697MOL0     H96185   3.109   3.921   5.950 -0.5513 -0.5976  0.6729
  697MOL0     H96186   3.106   3.755   5.875  0.3362 -0.0878  1.3419
  698MOL0     O96187   4.843   5.329   2.904  0.5582 -0.5485 -0.1141
  698MOL0     C96188   4.811   5.362   3.018  0.5873  0.9213  1.0143
  698MOL0     O96189   4.902   5.383   3.118  0.4526 -0.1973  0.1868
  698MOL0     C96190   5.036   5.359   3.097  0.0292  0.5971 -0.1334
  698MOL0     C96191   5.103   5.407   2.984  0.1678 -0.0032 -0.2411
  698MOL0     C96192   5.241   5.405   2.982  0.6027 -1.1037  0.6170
  698MOL0     C96193   5.318   5.355   3.087 -0.0618  0.2428  0.7461
  698MOL0     O96194   5.454   5.340   3.060  0.6200 -0.3004  0.2453
  698MOL0     C96195   5.537   5.285   3.160  0.4106  0.2883  0.1195
  698MOL0     C96196   5.684   5.304   3.143 -0.7569  0.3784  0.8361
  698MOL0     C96197   5.733   5.450   3.144  0.4526 -0.7223 -0.1205
  698MOL0     C96198   5.753   5.499   3.288 -0.3104  0.2970 -0.8950
  698MOL0     C96199   5.624   5.572   3.341  0.1371  0.1303 -0.6000
  698MOL0     C96200   5.626   5.728   3.316 -0.2396 -0.2047  0.5030
  698MOL0     C96201   5.522   5.796   3.399  0.1311 -0.1602 -0.0406
  698MOL0     C96202   5.493   5.943   3.366 -0.2114 -0.3676 -0.3000
  698MOL0     N96203   5.364   5.981   3.437  0.3593 -0.2671 -0.1917
  698MOL0     C96204   5.355   5.999   3.575  0.0037 -0.1645 -0.0821
  698MOL0     C96205   5.222   6.033   3.588 -0.7954  0.4014  0.2632
  698MOL0     C96206   5.169   6.080   3.718 -0.1036 -0.3708 -0.4330
  698MOL0     C96207   5.117   5.975   3.805  0.3303  0.1260  0.5370
  698MOL0     C96208   5.042   6.024   3.932 -0.5392 -0.2974 -0.3389
  698MOL0     C96209   5.124   6.138   3.999  0.0042 -0.2455 -0.4548
  698MOL0     O96210   5.248   6.080   4.045  0.2238  0.8396  0.6067
  698MOL0     C96211   5.359   6.158   4.065  0.1712  0.3048 -0.2463
  698MOL0     C96212   5.354   6.299   4.083 -0.7677  0.0431  0.9780
  698MOL0     C96213   5.472   6.367   4.108 -0.8729 -0.8553  0.6586
  698MOL0     C96214   5.468   6.518   4.095  0.3688  0.1769  0.1237
  698MOL0     C96215   5.596   6.300   4.121  0.2613  0.0023  0.6237
  698MOL0     C96216   5.725   6.363   4.146 -0.4142  0.7066  0.1605
  698MOL0     O96217   5.835   6.291   4.116 -0.3271  0.1595 -0.0264
  698MOL0     C96218   5.959   6.340   4.130 -0.2315 -0.5790  0.5893
  698MOL0     C96219   6.027   6.395   4.030 -0.4144 -0.7744  0.3824
  698MOL0     C96220   6.150   6.465   4.059 -0.1731 -0.6708 -0.6828
  698MOL0     C96221   6.204   6.461   4.188 -0.1414  0.5246  0.7314
  698MOL0     O96222   6.331   6.516   4.215  0.1569 -0.2545 -0.3248
  698MOL0     C96223   6.384   6.614   4.120 -0.7137 -0.2698 -0.3048
  698MOL0     C96224   6.512   6.683   4.173  0.7053  0.3985 -0.8731
  698MOL0     C96225   6.618   6.697   4.062 -0.0157 -0.5048  0.1233
  698MOL0     C96226   6.748   6.706   4.125  0.1069 -0.0993  0.0751
  698MOL0     C96227   6.856   6.736   4.029 -0.3078  0.1823  0.6468
  698MOL0     C96228   6.996   6.740   4.097  0.7381  0.0153  0.0656
  698MOL0     C96229   7.109   6.711   3.996 -0.5649 -0.6034  0.1111
  698MOL0     C96230   7.238   6.766   4.036  0.1792 -0.8563 -0.5635
  698MOL0    Cl96231   7.239   6.945   4.027  0.0807 -0.0026 -0.4045
  698MOL0     C96232   6.142   6.396   4.290  1.0412  0.5431 -0.4632
  698MOL0     C96233   6.013   6.341   4.266 -0.2855  0.9614 -0.7319
  698MOL0     O96234   5.721   6.472   4.210  0.1571  1.0223  0.5346
  698MOL0     C96235   5.589   6.160   4.109  0.2649  0.0553  0.2780
  698MOL0     C96236   5.476   6.089   4.078  0.7886  0.7749 -0.1957
  698MOL0     N96237   5.155   6.037   3.464 -0.3761 -0.2236  0.0534
  698MOL0     N96238   5.246   6.012   3.372  0.9807 -0.3675  0.4835
  698MOL0     C96239   5.251   5.292   3.191 -0.1063  0.4845  0.6105
  698MOL0     C96240   5.109   5.308   3.200 -0.6239  0.5446  0.3860
  698MOL0     C96241   4.664   5.384   3.048 -0.1683  0.5424 -0.3274
  698MOL0     C96242   4.635   5.447   3.171 -0.2271  0.2636  0.1027
  698MOL0     C96243   4.503   5.479   3.206  0.2390 -0.3298 -0.0558
  698MOL0     C96244   4.392   5.447   3.126 -0.6576  0.1822 -0.0164
  698MOL0     O96245   4.263   5.471   3.167 -0.1196  0.5833 -0.3512
  698MOL0     C96246   4.182   5.359   3.218 -0.7748 -0.3990  1.1237
  698MOL0     C96247   4.166   5.400   3.365 -0.1156  0.1855 -0.1244
  698MOL0     C96248   4.113   5.287   3.447 -0.8399  0.9097  0.2289
  698MOL0     C96249   3.965   5.254   3.411  0.0269 -0.1365 -0.5261
  698MOL0     C96250   3.940   5.114   3.450 -0.1248 -0.0974  0.1435
  698MOL0     C96251   3.924   5.001   3.498  0.1511  0.0408 -0.0307
  698MOL0     C96252   4.416   5.381   3.011 -1.0060  0.2714  0.6205
  698MOL0     C96253   4.552   5.358   2.966  0.1012 -0.0502  1.1848
  698MOL0     C96254   4.554   5.302   2.825 -0.3265 -0.7250  0.5616
  698MOL0     H96255   5.050   5.454   2.902  2.9198  1.1524 -1.4952
  698MOL0     H96256   5.283   5.445   2.891  0.4005 -0.7403  0.6818
  698MOL0     H96257   5.514   5.178   3.149 -2.4134  0.8411 -0.1209
  698MOL0     H96258   5.515   5.325   3.259  0.8323 -0.3076  0.4609
  698MOL0     H96259   5.729   5.239   3.219 -0.3591 -0.1385  0.1714
  698MOL0     H96260   5.710   5.264   3.045 -2.7211  0.2024  0.3428
  698MOL0     H96261   5.833   5.456   3.099  0.4671 -0.3175 -0.0370
  698MOL0     H96262   5.666   5.511   3.083  0.9759 -0.4164 -0.3957
  698MOL0     H96263   5.780   5.410   3.345  3.1156  1.9958  0.4936
  698MOL0     H96264   5.840   5.566   3.286  0.0814 -0.0777  1.3381
  698MOL0     H96265   5.629   5.548   3.448  0.1781 -1.0538 -0.8537
  698MOL0     H96266   5.542   5.520   3.291  0.5931  1.8516 -3.3645
  698MOL0     H96267   5.722   5.774   3.341 -1.8195  3.3747  0.5358
  698MOL0     H96268   5.607   5.750   3.210  0.8041  1.8056  0.6899
  698MOL0     H96269   5.552   5.795   3.504 -1.1311  1.4039  0.3840
  698MOL0     H96270   5.429   5.739   3.390 -0.9017  1.6238 -1.3835
  698MOL0     H96271   5.576   6.001   3.406 -0.2826 -1.2304  1.1661
  698MOL0     H96272   5.486   5.949   3.257  1.2626 -2.5448 -0.5991
  698MOL0     H96273   5.427   5.999   3.656  3.2303  2.5175 -2.6790
  698MOL0     H96274   5.104   6.167   3.706 -0.3642 -0.7274 -1.8125
  698MOL0     H96275   5.258   6.117   3.770  0.7441 -1.2736 -1.2039
  698MOL0     H96276   5.059   5.906   3.744 -0.0275 -0.4891  1.5590
  698MOL0     H96277   5.213   5.929   3.833  1.3857  2.0175  0.2281
  698MOL0     H96278   4.943   6.061   3.902 -0.4650  1.5570  1.4640
  698MOL0     H96279   5.024   5.942   4.002 -1.0301 -0.2304 -0.3810
  698MOL0     H96280   5.156   6.219   3.932  2.4043 -1.9062 -1.4744
  698MOL0     H96281   5.070   6.187   4.081 -0.1952 -0.0683 -0.6899
  698MOL0     H96282   5.254   6.341   4.082 -1.7938 -2.2580  0.4284
  698MOL0     H96283   5.366   6.549   4.069  0.4567 -1.7310 -3.0379
  698MOL0     H96284   5.527   6.552   4.009 -1.4094 -1.0174 -1.6717
  698MOL0     H96285   5.487   6.560   4.194  1.3243  3.9639 -1.5050
  698MOL0     H96286   5.992   6.414   3.929 -1.5231  0.9612  1.0429
  698MOL0     H96287   6.189   6.533   3.985 -2.7242  3.8460  1.6889
  698MOL0     H96288   6.410   6.553   4.034  0.8284  0.3908 -0.3263
  698MOL0     H96289   6.321   6.698   4.090  2.1085  1.7125 -1.0868
  698MOL0     H96290   6.473   6.779   4.207  0.7571 -0.0428  0.4908
  698MOL0     H96291   6.553   6.628   4.258 -0.3158 -0.4242 -0.9000
  698MOL0     H96292   6.593   6.792   4.014 -2.4222 -0.5412  1.1646
  698MOL0     H96293   6.613   6.611   3.995  0.1740 -1.4492  1.3017
  698MOL0     H96294   6.772   6.608   4.168  2.1387 -0.0004 -0.7433
  698MOL0     H96295   6.750   6.790   4.196 -1.1424  4.1516 -4.3524
  698MOL0     H96296   6.845   6.661   3.950 -0.2330  1.7047 -0.8542
  698MOL0     H96297   6.833   6.834   3.985  2.3980  0.2314 -0.8725
  698MOL0     H96298   7.003   6.654   4.164 -1.0437 -1.4863 -1.5538
  698MOL0     H96299   7.011   6.832   4.153 -2.3253 -0.2302  1.4712
  698MOL0     H96300   7.079   6.758   3.902  1.0216 -0.1271 -0.1776
  698MOL0     H96301   7.117   6.603   3.980  0.0817 -0.3599 -1.3169
  698MOL0     H96302   7.320   6.725   3.976  0.8736  0.6394 -0.6638
  698MOL0     H96303   7.244   6.737   4.141  0.3640  0.7697 -0.0964
  698MOL0     H96304   6.179   6.408   4.392 -1.1638  1.8656  0.2630
  698MOL0     H96305   5.971   6.285   4.348  1.4313  2.4857  1.3074
  698MOL0     H96306   5.671   6.092   4.127  0.6457  0.4790  0.1531
  698MOL0     H96307   5.484   5.983   4.057 -1.8294  0.4913 -0.1126
  698MOL0     H96308   5.298   5.223   3.261  0.4564  2.5374  2.3608
  698MOL0     H96309   5.053   5.260   3.280  0.6420 -2.7348 -0.5527
  698MOL0     H96310   4.707   5.462   3.251 -0.5625  1.0703  0.2589
  698MOL0     H96311   4.494   5.531   3.301  2.0535  0.9998 -0.5473
  698MOL0     H96312   4.086   5.361   3.164  0.5654  0.5602 -1.3708
  698MOL0     H96313   4.236   5.265   3.209  2.6024  1.4495  0.4877
  698MOL0     H96314   4.088   5.477   3.375 -1.5739 -1.2912  0.3097
  698MOL0     H96315   4.260   5.425   3.416 -0.1710  1.5006 -0.6246
  698MOL0     H96316   4.187   5.208   3.428 -1.1026  0.9059 -0.8921
  698MOL0     H96317   4.113   5.319   3.551  0.6068  1.2407  0.1483
  698MOL0     H96318   3.943   5.270   3.305 -1.7290  0.8025 -0.0562
  698MOL0     H96319   3.900   5.314   3.476 -0.4522 -0.5287 -0.6401
  698MOL0     H96320   3.927   4.899   3.530 -2.9619  0.3147  1.4760
  698MOL0     H96321   4.328   5.346   2.958  0.1300  0.3393 -1.4295
  698MOL0     H96322   4.565   5.377   2.747 -0.5028 -0.8540  0.4101
  698MOL0     H96323   4.641   5.237   2.816  0.2371  0.0158  0.6727
  698MOL0     H96324   4.457   5.251   2.816 -0.4906 -0.1999 -0.9630
  699MOL0     O96325  10.786   7.487  11.278 -0.0684  0.1639  0.0550
  699MOL0     C96326  10.729   7.577  11.217 -0.0413  0.5055 -0.9000
  699MOL0     O96327  10.791   7.680  11.149 -0.1196  0.1587 -0.4967
  699MOL0     C96328  10.929   7.675  11.135  0.7093 -0.5682 -0.1160
  699MOL0     C96329  10.984   7.590  11.036  0.1779  0.8397 -0.3856
  699MOL0     C96330  11.125   7.598  11.024 -0.6537  0.5387  1.1853
  699MOL0     C96331  11.203   7.699  11.075 -0.6625 -0.4997  0.0202
  699MOL0     O96332  11.343   7.720  11.062 -0.5183 -0.5507  0.1130
  699MOL0     C96333  11.393   7.661  10.945 -0.2300  0.3023 -0.0911
  699MOL0     C96334  11.530   7.700  10.906 -0.6948  0.1583  0.4678
  699MOL0     C96335  11.634   7.673  11.018  0.5127  0.0422 -0.0014
  699MOL0     C96336  11.784   7.672  10.961 -0.3887 -0.4687  0.5817
  699MOL0     C96337  11.883   7.628  11.070  0.6390  0.1590  0.0896
  699MOL0     C96338  12.040   7.617  11.028  1.5328 -0.0122 -0.0963
  699MOL0     C96339  12.135   7.587  11.147 -0.4465  0.3672 -1.1996
  699MOL0     C96340  12.264   7.519  11.114  0.7801 -0.5792  0.6974
  699MOL0     N96341  12.360   7.588  11.023  0.4330  0.5285  0.4925
  699MOL0     C96342  12.497   7.579  11.034  0.1663  0.2575 -0.1848
  699MOL0     C96343  12.541   7.593  10.904 -0.0548 -0.6000  0.0377
  699MOL0     C96344  12.681   7.579  10.865 -0.0205  0.1614 -0.1013
  699MOL0     C96345  12.742   7.723  10.827  0.0333 -0.5178 -0.8430
  699MOL0     C96346  12.749   7.813  10.955 -0.1516 -0.7287  0.3208
  699MOL0     C96347  12.847   7.924  10.924 -1.8912  0.3531  0.0055
  699MOL0     O96348  12.869   7.999  11.044  1.0439  0.3186 -0.6296
  699MOL0     C96349  12.985   8.077  11.053  0.3879 -0.1609 -0.1475
  699MOL0     C96350  13.006   8.113  11.178 -0.4572  0.2112 -0.4129
  699MOL0     C96351  13.114   8.186  11.215 -1.1648 -0.3144 -1.6011
  699MOL0     C96352  13.149   8.202  11.357 -1.0522 -0.1403  0.5699
  699MOL0     C96353  13.203   8.236  11.121  0.3842 -0.4182 -0.0959
  699MOL0     C96354  13.323   8.323  11.147  0.4343 -1.0481  0.0988
  699MOL0     O96355  13.395   8.362  11.042  0.2603 -0.2762  0.4399
  699MOL0     C96356  13.484   8.463  11.066 -0.2151  0.4296 -0.3507
  699MOL0     C96357  13.616   8.439  11.050 -0.4060  0.2060 -0.6914
  699MOL0     C96358  13.712   8.535  11.078  0.9132  0.7289  0.1291
  699MOL0     C96359  13.680   8.664  11.110  0.0513  0.1732 -0.7201
  699MOL0     O96360  13.780   8.750  11.147 -0.2193 -0.3322  0.1907
  699MOL0     C96361  13.746   8.893  11.142 -0.2596  0.6289 -0.5543
  699MOL0     C96362  13.880   8.962  11.190  0.1940 -0.0161 -0.4507
  699MOL0     C96363  13.870   9.121  11.181  0.0097  0.6617 -0.1107
  699MOL0     C96364  13.990   9.186  11.244  0.0105  0.5448 -0.5896
  699MOL0     C96365  14.001   9.331  11.213  0.2193  0.2554  0.0784
  699MOL0     C96366  13.901   9.419  11.290 -0.4462  0.8288 -0.2085
  699MOL0     C96367  13.939   9.567  11.257  0.0858 -0.6527 -0.6075
  699MOL0     C96368  13.887   9.596  11.124  0.5047 -1.4030  0.9088
  699MOL0    Cl96369  13.856   9.774  11.094  0.2086 -0.4343  0.3518
  699MOL0     C96370  13.538   8.695  11.118 -0.0363  0.4971  0.3701
  699MOL0     C96371  13.445   8.588  11.100  0.2452 -0.0050  0.3713
  699MOL0     O96372  13.343   8.365  11.257  0.2360 -0.4163 -0.5816
  699MOL0     C96373  13.178   8.200  10.984 -0.0003 -0.4063 -0.3171
  699MOL0     C96374  13.068   8.126  10.950  1.0534  0.2873 -1.1482
  699MOL0     N96375  12.433   7.617  10.822  0.6280 -0.1217 -0.7833
  699MOL0     N96376  12.328   7.614  10.895 -0.9022  0.3615 -0.2350
  699MOL0     C96377  11.138   7.789  11.168 -1.0781 -0.2230 -0.2923
  699MOL0     C96378  11.001   7.774  11.200  0.1445  0.3349 -0.3319
  699MOL0     C96379  10.588   7.551  11.204 -0.3133 -0.0482  0.2297
  699MOL0     C96380  10.477   7.693  11.098 -0.0464 -0.2016  0.5302
  699MOL0     C96381  10.277   7.657  11.050 -0.2381  0.1674 -1.3307
  699MOL0     C96382  10.183   7.478  11.113 -0.1703  0.4363 -0.0403
  699MOL0     O96383  10.049   7.454  11.088 -0.1948  0.0324  0.3405
  699MOL0     C96384  10.010   7.348  11.171  0.1070  1.0409 -0.8789
  699MOL0     C96385   9.856   7.324  11.163 -0.0572 -0.4875  0.6394
  699MOL0     C96386   9.811   7.208  11.254 -0.0284  0.1084 -0.8026
  699MOL0     C96387   9.654   7.203  11.267 -0.0182 -0.2547  0.6270
  699MOL0     C96388   9.609   7.120  11.382 -0.8614  0.7242 -0.2888
  699MOL0     C96389   9.542   7.058  11.465 -0.5474  0.9949 -0.9602
  699MOL0     C96390  10.295   7.329  11.217  1.3788  0.0952 -0.1128
  699MOL0     C96391  10.496   7.365  11.266 -0.0753  0.2429 -0.6445
  699MOL0     C96392  10.562   7.260  11.344 -0.0395  1.1621 -0.3501
  699MOL0     H96393  10.917   7.524  10.982  0.1318  1.8154 -1.5602
  699MOL0     H96394  11.167   7.522  10.959 -1.9407  2.4887 -2.1977
  699MOL0     H96395  11.323   7.682  10.864 -3.1154  2.6972  2.7528
  699MOL0     H96396  11.392   7.553  10.961  1.4669  0.3244  0.4699
  699MOL0     H96397  11.556   7.653  10.811  0.7961  2.5116 -0.3644
  699MOL0     H96398  11.518   7.806  10.884 -3.8752 -0.2843 -0.4239
  699MOL0     H96399  11.625   7.753  11.092 -0.5848  1.8975 -2.0150
  699MOL0     H96400  11.615   7.577  11.066  1.9214  0.2253  1.0005
  699MOL0     H96401  11.801   7.612  10.871 -0.9874  1.4059 -0.8611
  699MOL0     H96402  11.806   7.774  10.930  1.0583 -1.1474 -0.7510
  699MOL0     H96403  11.841   7.531  11.101 -1.6324  0.7132 -1.0935
  699MOL0     H96404  11.876   7.698  11.153  4.2717  0.4364  0.3168
  699MOL0     H96405  12.055   7.551  10.943 -0.2464  1.5972 -1.7521
  699MOL0     H96406  12.063   7.719  10.997 -0.5095  0.6031  0.2071
  699MOL0     H96407  12.075   7.532  11.220 -2.3636  2.9125 -0.6908
  699MOL0     H96408  12.152   7.691  11.178 -2.2306  0.3070  0.1586
  699MOL0     H96409  12.317   7.503  11.209  0.0028 -1.9484  0.9217
  699MOL0     H96410  12.248   7.421  11.069  1.1394  0.9035 -2.9390
  699MOL0     H96411  12.555   7.558  11.123 -0.5004  1.9091  0.7008
  699MOL0     H96412  12.687   7.507  10.783  3.0962  0.2035 -0.0345
  699MOL0     H96413  12.742   7.533  10.944 -1.3009 -1.2750  0.0893
  699MOL0     H96414  12.838   7.707  10.776  0.7483 -1.3168  0.6449
  699MOL0     H96415  12.681   7.767  10.749  0.5573 -0.5099 -1.2543
  699MOL0     H96416  12.655   7.850  10.996 -1.1330 -1.2571 -1.3542
  699MOL0     H96417  12.797   7.756  11.034  2.3675  0.7574 -0.0003
  699MOL0     H96418  12.940   7.873  10.899 -3.4552 -2.0192 -1.3693
  699MOL0     H96419  12.804   7.982  10.841  0.0523 -0.9242 -1.9839
  699MOL0     H96420  12.931   8.072  11.245 -0.7206 -0.1409 -0.9084
  699MOL0     H96421  13.080   8.143  11.418 -0.7533 -0.9535  0.1384
  699MOL0     H96422  13.150   8.306  11.393  2.4236 -0.6142  2.3503
  699MOL0     H96423  13.250   8.162  11.373 -0.2359  1.6287  0.0937
  699MOL0     H96424  13.634   8.336  11.021  0.3271 -0.1572  0.8928
  699MOL0     H96425  13.820   8.523  11.074  0.8394  0.4540 -2.0977
  699MOL0     H96426  13.717   8.918  11.039 -0.6998  1.0194 -0.3410
  699MOL0     H96427  13.659   8.925  11.200 -0.7161 -1.0722 -0.2575
  699MOL0     H96428  13.901   8.947  11.296 -0.1923  0.8636 -0.2382
  699MOL0     H96429  13.966   8.930  11.131  0.3805  1.7479 -1.1951
  699MOL0     H96430  13.786   9.144  11.248  1.3455  1.8876  1.2143
  699MOL0     H96431  13.849   9.147  11.077  3.4628  0.9416 -0.8491
  699MOL0     H96432  14.082   9.138  11.207  0.6624  0.5805  0.9122
  699MOL0     H96433  13.987   9.168  11.352 -0.0037  0.7502 -0.5564
  699MOL0     H96434  14.106   9.358  11.225  0.8803 -2.6964  1.8655
  699MOL0     H96435  13.983   9.345  11.106  1.5483  1.9550  0.0175
  699MOL0     H96436  13.914   9.410  11.399 -3.3520  2.3421  0.3621
  699MOL0     H96437  13.796   9.393  11.274 -0.6211  0.9901  0.6236
  699MOL0     H96438  14.045   9.593  11.266 -0.8507  3.9249 -0.5127
  699MOL0     H96439  13.882   9.629  11.326  0.1336  1.5214 -2.4379
  699MOL0     H96440  13.786   9.555  11.112  0.8736 -1.6087 -2.4701
  699MOL0     H96441  13.943   9.559  11.037 -0.1798 -2.3497  0.8511
  699MOL0     H96442  13.494   8.794  11.131 -0.8281  0.3490 -1.0277
  699MOL0     H96443  13.338   8.608  11.099  0.7915  3.6259  0.5108
  699MOL0     H96444  13.244   8.225  10.901 -0.4197  0.6633 -0.3405
  699MOL0     H96445  13.040   8.102  10.848 -2.0243  0.1897 -0.3944
  699MOL0     H96446  11.186   7.869  11.224 -0.7866  1.1540 -2.3755
  699MOL0     H96447  10.950   7.843  11.266  1.5032  0.7654  0.3031
  699MOL0     H96448  10.529   7.783  11.067 -2.2879  1.5739  1.6753
  699MOL0     H96449  10.217   7.738  11.010  0.4015  1.9732  1.1406
  699MOL0     H96450  10.044   7.252  11.130 -2.9192  0.5899 -2.6859
  699MOL0     H96451  10.048   7.360  11.273 -0.8822  1.1732 -0.5087
  699MOL0     H96452   9.826   7.310  11.058  1.7073  1.6114 -0.2409
  699MOL0     H96453   9.806   7.418  11.190 -0.8561 -0.9148  0.6744
  699MOL0     H96454   9.848   7.114  11.211  0.1003 -1.8267  3.0347
  699MOL0     H96455   9.856   7.213  11.354 -0.3561  0.7768 -0.6814
  699MOL0     H96456   9.618   7.171  11.169 -0.8276  0.5884  0.6350
  699MOL0     H96457   9.621   7.306  11.286 -0.5083  0.0045 -1.4214
  699MOL0     H96458   9.490   7.009  11.545  0.8408  3.0573  1.3614
  699MOL0     H96459  10.243   7.237  11.238 -0.2425  1.2540  1.2237
  699MOL0     H96460  10.507   7.167  11.329  0.7387  0.0794  2.6154
  699MOL0     H96461  10.670   7.244  11.331 -0.2414 -0.9810  0.2216
  699MOL0     H96462  10.548   7.280  11.451 -0.2821 -0.5906 -0.0322
  700MOL0     O96463  10.794   1.990   8.283 -0.0907  0.1518 -0.7493
  700MOL0     C96464  10.912   2.022   8.289 -0.4048  0.3959 -0.1637
  700MOL0     O96465  10.972   2.092   8.385 -0.4451 -0.3438  0.5664
  700MOL0     C96466  10.899   2.172   8.464 -0.5336  0.8576 -0.0438
  700MOL0     C96467  10.833   2.123   8.581 -0.1056 -0.5081  0.4902
  700MOL0     C96468  10.752   2.211   8.648 -0.2117  0.1652 -0.3200
  700MOL0     C96469  10.745   2.345   8.622  0.0836  0.0150 -0.6314
  700MOL0     O96470  10.691   2.431   8.710 -0.2574  0.0806 -0.5650
  700MOL0     C96471  10.618   2.542   8.650 -0.6723  0.0664 -0.3754
  700MOL0     C96472  10.522   2.600   8.752 -0.2471  0.0628 -0.3545
  700MOL0     C96473  10.455   2.494   8.846  0.1647  1.0943  0.1665
  700MOL0     C96474  10.351   2.431   8.760  0.5032 -0.0374 -0.6680
  700MOL0     C96475  10.324   2.289   8.806  0.3194  0.2606  0.0146
  700MOL0     C96476  10.203   2.294   8.909 -0.2745  0.6797  0.0977
  700MOL0     C96477  10.158   2.157   8.955 -0.6619 -0.6234  0.2160
  700MOL0     C96478  10.082   2.084   8.833 -0.7905  0.0075  0.0478
  700MOL0     N96479   9.999   1.975   8.888  0.1109  0.5012 -0.0318
  700MOL0     C96480  10.052   1.869   8.959  0.5132  0.5720 -0.2648
  700MOL0     C96481   9.951   1.791   8.986 -0.3822  0.0916  0.4805
  700MOL0     C96482   9.961   1.657   9.050 -0.4257 -0.3020  0.1864
  700MOL0     C96483   9.984   1.543   8.949 -0.1662  0.7013  0.0957
  700MOL0     C96484  10.135   1.539   8.918  0.3089  0.3188  0.1226
  700MOL0     C96485  10.164   1.422   8.821  1.0831  0.3857 -0.1870
  700MOL0     O96486  10.302   1.439   8.791  0.4700  0.6009  0.3497
  700MOL0     C96487  10.372   1.360   8.707  0.2780  0.1459 -0.3104
  700MOL0     C96488  10.508   1.387   8.694  0.7630  0.1618 -0.1871
  700MOL0     C96489  10.604   1.295   8.638  0.0930  0.3366 -0.7077
  700MOL0     C96490  10.739   1.349   8.646  0.0396 -0.7608 -0.6740
  700MOL0     C96491  10.560   1.170   8.591 -1.2341  0.3627  0.2027
  700MOL0     C96492  10.655   1.079   8.530  0.9234  0.0437 -0.4515
  700MOL0     O96493  10.741   1.133   8.447  0.4350  0.0480 -0.1139
  700MOL0     C96494  10.826   1.048   8.371  1.2411 -0.5468 -0.4743
  700MOL0     C96495  10.954   1.097   8.356 -0.0824 -0.5756  0.4932
  700MOL0     C96496  11.061   1.025   8.302  0.2092 -0.1316 -0.2830
  700MOL0     C96497  11.032   0.897   8.257  0.9687 -0.3730  0.2572
  700MOL0     O96498  11.121   0.809   8.209  0.0440  0.0853  0.1695
  700MOL0     C96499  11.258   0.836   8.236  0.6574  0.1190  0.0235
  700MOL0     C96500  11.335   0.719   8.176  1.4769  0.4373  1.1116
  700MOL0     C96501  11.476   0.691   8.221  0.3817 -0.3931 -0.1523
  700MOL0     C96502  11.581   0.799   8.168  0.0467 -0.3744 -0.7439
  700MOL0     C96503  11.721   0.794   8.224  0.0132  0.3347 -0.6931
  700MOL0     C96504  11.784   0.661   8.206 -0.3923 -0.1986  0.2109
  700MOL0     C96505  11.902   0.642   8.313 -0.0120  0.5179  0.3042
  700MOL0     C96506  11.845   0.551   8.428 -0.0636 -0.4020 -0.0174
  700MOL0    Cl96507  11.965   0.510   8.561  0.2089  0.1003  0.2196
  700MOL0     C96508  10.897   0.849   8.265  0.9712 -0.7041  0.0806
  700MOL0     C96509  10.790   0.922   8.325 -1.1114  0.4212 -0.3016
  700MOL0     O96510  10.619   0.963   8.539 -0.3756  0.4364  0.2900
  700MOL0     C96511  10.422   1.139   8.608  0.4830 -0.5086 -0.7652
  700MOL0     C96512  10.332   1.233   8.665  0.1779 -0.3775  0.0730
  700MOL0     N96513   9.835   1.848   8.957 -0.5187 -1.0192 -0.2339
  700MOL0     N96514   9.861   1.954   8.884 -0.8908 -0.1982 -0.8323
  700MOL0     C96515  10.819   2.401   8.517 -0.5789  0.4303  0.2958
  700MOL0     C96516  10.899   2.313   8.436  0.5173 -0.0946  0.2756
  700MOL0     C96517  11.002   1.971   8.177 -0.3120  0.3434  0.1184
  700MOL0     C96518  11.141   2.000   8.189 -1.1981  0.1664  0.0191
  700MOL0     C96519  11.232   1.977   8.089  0.0691  0.3569 -0.7349
  700MOL0     C96520  11.197   1.926   7.968  0.2045  0.0734  1.1610
  700MOL0     O96521  11.276   1.895   7.863  0.2080  0.2077 -0.2348
  700MOL0     C96522  11.400   1.959   7.867 -0.5663 -0.0168  0.6139
  700MOL0     C96523  11.454   1.969   7.720 -0.2749  0.9132 -1.1339
  700MOL0     C96524  11.595   2.033   7.724  0.3215 -0.1749  0.3613
  700MOL0     C96525  11.670   2.016   7.595 -0.1610  0.4908  0.1063
  700MOL0     C96526  11.775   2.116   7.571  0.6141  0.1138  0.4160
  700MOL0     C96527  11.865   2.194   7.539  0.4652  0.3721 -0.8035
  700MOL0     C96528  11.059   1.883   7.958 -0.3142  0.3809 -0.4975
  700MOL0     C96529  10.960   1.899   8.060 -0.1010 -0.3345  0.0861
  700MOL0     C96530  10.820   1.856   8.028  0.0795  0.0653  0.5755
  700MOL0     H96531  10.830   2.017   8.605  0.2760 -1.3466 -2.6871
  700MOL0     H96532  10.703   2.186   8.742 -1.1807  4.2840  0.4638
  700MOL0     H96533  10.572   2.494   8.563  1.4821 -1.3101 -0.8229
  700MOL0     H96534  10.685   2.614   8.603 -1.0349  0.0649 -0.9047
  700MOL0     H96535  10.580   2.664   8.820 -1.0439  0.5148 -0.0860
  700MOL0     H96536  10.448   2.664   8.704  0.8791  1.6471 -0.0780
  700MOL0     H96537  10.530   2.421   8.879 -0.4066  0.8526  0.9758
  700MOL0     H96538  10.410   2.542   8.934  0.2756 -0.3287  1.0470
  700MOL0     H96539  10.257   2.488   8.759 -1.5329 -3.0376 -3.4485
  700MOL0     H96540  10.387   2.420   8.657 -0.8756  0.5712 -1.2412
  700MOL0     H96541  10.411   2.240   8.849  0.6096 -1.2247 -2.0942
  700MOL0     H96542  10.302   2.223   8.721 -0.4415 -0.9628  1.1173
  700MOL0     H96543  10.238   2.353   8.994 -1.2113  0.8711  0.3621
  700MOL0     H96544  10.117   2.346   8.864  0.0527  1.5500  0.4446
  700MOL0     H96545  10.092   2.164   9.042 -0.1846 -2.3158  0.7454
  700MOL0     H96546  10.251   2.109   8.988  0.8777  1.7363 -0.3513
  700MOL0     H96547  10.019   2.158   8.783  0.7587  1.1520 -0.2860
  700MOL0     H96548  10.151   2.048   8.757  1.0343  3.4558 -0.1029
  700MOL0     H96549  10.149   1.836   8.996  0.3345 -0.8436 -1.0053
  700MOL0     H96550   9.872   1.635   9.110 -0.8363 -0.1164 -0.3454
  700MOL0     H96551  10.042   1.663   9.123  1.1333 -0.4555 -1.4798
  700MOL0     H96552   9.956   1.450   8.999  2.7332  0.5534  1.6630
  700MOL0     H96553   9.927   1.557   8.857  0.4057 -0.1916 -0.4092
  700MOL0     H96554  10.166   1.631   8.868  0.8665 -0.6999 -1.4641
  700MOL0     H96555  10.187   1.529   9.014 -2.1674 -0.6804  1.4786
  700MOL0     H96556  10.133   1.322   8.852  0.2769  0.8163  0.4254
  700MOL0     H96557  10.112   1.441   8.727 -0.0363 -0.9867  0.1230
  700MOL0     H96558  10.545   1.480   8.736 -0.4514  0.9906 -0.8873
  700MOL0     H96559  10.749   1.426   8.722 -0.5285 -0.9120 -0.4474
  700MOL0     H96560  10.746   1.411   8.556  0.6972 -2.2824 -1.7174
  700MOL0     H96561  10.824   1.281   8.663  0.4508 -0.1553 -0.2502
  700MOL0     H96562  10.965   1.197   8.398  0.6439  1.4987 -4.0449
  700MOL0     H96563  11.160   1.069   8.306 -0.1185  0.5905  3.3663
  700MOL0     H96564  11.293   0.928   8.189  0.8978  0.3787  0.7058
  700MOL0     H96565  11.277   0.841   8.344  1.0554 -2.3523  0.1321
  700MOL0     H96566  11.273   0.629   8.183  3.8166 -1.3147  0.7270
  700MOL0     H96567  11.326   0.748   8.071 -1.9301  0.5036  1.3030
  700MOL0     H96568  11.504   0.590   8.190  0.0357 -0.5385 -0.0014
  700MOL0     H96569  11.472   0.700   8.330  0.7546  0.6757 -0.2163
  700MOL0     H96570  11.533   0.897   8.166 -1.5488 -1.1248 -0.7437
  700MOL0     H96571  11.592   0.776   8.061  0.1162 -0.2256 -0.7685
  700MOL0     H96572  11.784   0.871   8.180  0.3987  1.6816  1.9959
  700MOL0     H96573  11.702   0.820   8.329  0.8283 -1.2796 -0.1164
  700MOL0     H96574  11.818   0.650   8.103 -0.7463  1.7468 -0.1596
  700MOL0     H96575  11.704   0.587   8.212 -2.8026  1.9179 -2.5696
  700MOL0     H96576  11.935   0.739   8.350  0.7820  0.6621 -0.7204
  700MOL0     H96577  11.983   0.592   8.259  1.3341  1.4150  1.4364
  700MOL0     H96578  11.811   0.457   8.383  0.2851 -0.7724  0.4798
  700MOL0     H96579  11.761   0.599   8.480  0.3139  1.6507 -1.1794
  700MOL0     H96580  10.871   0.749   8.230 -5.3176  0.8538 -0.9990
  700MOL0     H96581  10.698   0.868   8.345  0.7456 -1.8545  2.9625
  700MOL0     H96582  10.383   1.041   8.586 -1.9143  0.6469 -2.0104
  700MOL0     H96583  10.226   1.211   8.680 -0.5858  1.2804 -2.1957
  700MOL0     H96584  10.816   2.507   8.493 -1.9481  0.4978  0.7026
  700MOL0     H96585  10.931   2.361   8.344 -1.7586  1.9694  0.4512
  700MOL0     H96586  11.173   2.052   8.278  1.0979  0.7938 -1.1011
  700MOL0     H96587  11.336   2.000   8.111 -0.9292  1.5236  3.7784
  700MOL0     H96588  11.400   2.065   7.896  2.6456 -0.1347  1.4299
  700MOL0     H96589  11.468   1.902   7.930  0.5398 -1.0729 -1.4250
  700MOL0     H96590  11.379   2.027   7.664 -2.3244 -0.2167  0.3258
  700MOL0     H96591  11.463   1.869   7.676  0.7306  0.6432 -0.3444
  700MOL0     H96592  11.584   2.142   7.732 -0.1576  0.0504 -2.2931
  700MOL0     H96593  11.671   2.001   7.796 -0.0624  0.0425  0.8708
  700MOL0     H96594  11.603   2.019   7.508 -0.7606  1.8864  0.5789
  700MOL0     H96595  11.718   1.918   7.601  0.4632  0.7506 -0.5037
  700MOL0     H96596  11.915   2.281   7.503 -0.8797  0.5187 -2.4443
  700MOL0     H96597  11.027   1.832   7.867  1.5875 -0.8472 -0.5349
  700MOL0     H96598  10.765   1.932   7.972  0.8110 -1.2031 -2.0230
  700MOL0     H96599  10.838   1.771   7.963  1.5529 -1.9366  3.3892
  700MOL0     H96600  10.757   1.813   8.106  0.2180 -0.1947  0.5429
  701MOL0     O96601   1.960  10.970   6.836  0.5226 -0.1583  0.1714
  701MOL0     C96602   2.048  11.044   6.800  0.1393  0.3749  0.5575
  701MOL0     O96603   2.030  11.172   6.743  0.5573  0.6099 -0.1924
  701MOL0     C96604   1.914  11.240   6.749  0.1316 -1.0987 -0.3329
  701MOL0     C96605   1.805  11.232   6.837 -0.4365  0.3944  0.5071
  701MOL0     C96606   1.699  11.320   6.834  0.0097  0.2691  0.7521
  701MOL0     C96607   1.701  11.422   6.739  0.6423 -0.0537 -0.6658
  701MOL0     O96608   1.597  11.508   6.728 -0.2602 -0.0747 -0.4386
  701MOL0     C96609   1.552  11.582   6.847  0.6830  0.1113 -0.2092
  701MOL0     C96610   1.679  11.645   6.915 -0.6442  0.4820 -0.6182
  701MOL0     C96611   1.637  11.742   7.030  0.0585  0.1815  0.4817
  701MOL0     C96612   1.537  11.851   6.998 -0.2400 -0.1689 -0.0709
  701MOL0     C96613   1.555  11.980   7.076  0.2167 -0.3251  0.4323
  701MOL0     C96614   1.657  12.077   7.012 -0.5827 -0.4916  0.3078
  701MOL0     C96615   1.656  12.205   7.097 -0.5188 -0.1482 -0.4637
  701MOL0     C96616   1.724  12.327   7.019  0.7363 -0.1604 -0.5141
  701MOL0     N96617   1.850  12.281   6.955  0.1037  0.7500  0.2329
  701MOL0     C96618   1.972  12.244   7.009 -0.3921 -0.1634 -0.1119
  701MOL0     C96619   2.044  12.186   6.907 -0.1677 -0.2947  0.2152
  701MOL0     C96620   2.181  12.140   6.921 -0.4421  0.5531 -0.8540
  701MOL0     C96621   2.280  12.258   6.904  0.3353  0.9279 -0.3532
  701MOL0     C96622   2.428  12.216   6.928  0.2811 -0.1677  0.3303
  701MOL0     C96623   2.532  12.324   6.904  0.7858 -0.8840 -0.3929
  701MOL0     O96624   2.664  12.269   6.894  0.2370 -0.3340  0.2452
  701MOL0     C96625   2.754  12.343   6.965 -0.6357 -1.3957  0.3062
  701MOL0     C96626   2.789  12.310   7.094 -0.2857 -0.1580 -0.4825
  701MOL0     C96627   2.876  12.388   7.179 -0.3647 -0.7254  0.2313
  701MOL0     C96628   2.916  12.335   7.311  0.1344  0.1124  0.0298
  701MOL0     C96629   2.928  12.508   7.127  0.1183  0.7246 -0.0310
  701MOL0     C96630   3.017  12.602   7.205 -0.0490  0.4338 -0.5883
  701MOL0     O96631   3.124  12.552   7.267  0.2295  0.4366  0.0540
  701MOL0     C96632   3.229  12.639   7.306  0.0258 -1.1903  0.7822
  701MOL0     C96633   3.270  12.659   7.442 -0.0975 -0.3444  0.2597
  701MOL0     C96634   3.381  12.736   7.469  0.1079 -0.8290 -0.1064
  701MOL0     C96635   3.465  12.788   7.371  0.3611 -0.5718  0.1354
  701MOL0     O96636   3.581  12.857   7.408 -0.3851  0.3607 -0.0260
  701MOL0     C96637   3.571  13.000   7.374  0.3055  0.0442  0.8933
  701MOL0     C96638   3.478  13.077   7.470  0.4626 -0.2411  0.4194
  701MOL0     C96639   3.553  13.083   7.601  0.0562 -0.5501  0.2097
  701MOL0     C96640   3.469  13.173   7.708 -0.3874  0.9878 -0.0572
  701MOL0     C96641   3.498  13.319   7.692  0.0435 -0.0569  0.2934
  701MOL0     C96642   3.427  13.413   7.787 -0.2118  0.2221 -0.6649
  701MOL0     C96643   3.277  13.372   7.800 -0.1804  0.9366 -0.3647
  701MOL0     C96644   3.193  13.485   7.864 -1.1726 -0.8585 -0.1463
  701MOL0    Cl96645   3.226  13.482   8.043  0.3513 -0.6519 -0.1415
  701MOL0     C96646   3.433  12.759   7.233  0.1411 -0.9865  0.3711
  701MOL0     C96647   3.315  12.686   7.204  1.0129 -0.2671  0.0919
  701MOL0     O96648   2.981  12.719   7.205  0.6543 -0.5523  0.0864
  701MOL0     C96649   2.899  12.543   6.998  1.1702  0.0910  0.7308
  701MOL0     C96650   2.815  12.467   6.918 -0.3237 -0.1729  0.8040
  701MOL0     N96651   1.975  12.196   6.793  0.4204  0.4905 -0.1732
  701MOL0     N96652   1.856  12.253   6.823  0.2099  0.5172 -0.0366
  701MOL0     C96653   1.805  11.434   6.651 -0.4895 -0.2599 -0.2465
  701MOL0     C96654   1.911  11.348   6.659  0.8937 -0.4578  0.4748
  701MOL0     C96655   2.190  10.995   6.829  0.6149 -0.7725  0.9522
  701MOL0     C96656   2.288  11.091   6.805 -1.1696 -0.2325 -0.2724
  701MOL0     C96657   2.419  11.068   6.842 -0.7116 -0.4573 -0.2223
  701MOL0     C96658   2.461  10.941   6.878 -0.5131  0.0468 -0.3487
  701MOL0     O96659   2.593  10.922   6.898  0.0932  1.2182  0.2368
  701MOL0     C96660   2.647  10.794   6.936  0.5065  0.6509  0.3854
  701MOL0     C96661   2.781  10.810   7.005 -0.7944 -0.0216 -0.2226
  701MOL0     C96662   2.760  10.873   7.140  0.6148  0.6233 -0.1529
  701MOL0     C96663   2.899  10.885   7.213 -0.2245 -0.7144 -0.1754
  701MOL0     C96664   2.955  10.758   7.258  0.6519 -0.4411  0.2162
  701MOL0     C96665   3.007  10.665   7.315  0.6856 -0.1310 -0.3072
  701MOL0     C96666   2.360  10.842   6.886 -0.2491 -0.7753  1.0917
  701MOL0     C96667   2.226  10.860   6.862  0.3792  0.3339  0.4578
  701MOL0     C96668   2.128  10.740   6.862 -0.2626  0.2833 -0.2278
  701MOL0     H96669   1.803  11.157   6.915 -0.7476 -2.3597 -1.9796
  701MOL0     H96670   1.617  11.313   6.904 -0.8598  2.3469  0.0294
  701MOL0     H96671   1.509  11.512   6.919 -1.5825  1.5682 -0.0782
  701MOL0     H96672   1.482  11.655   6.805  1.8915 -1.3127 -5.3439
  701MOL0     H96673   1.736  11.563   6.960 -0.8500  2.7056  4.3820
  701MOL0     H96674   1.735  11.695   6.836  0.6790 -1.6610 -1.1318
  701MOL0     H96675   1.584  11.680   7.103 -0.8596 -0.5857 -0.8123
  701MOL0     H96676   1.734  11.776   7.068  0.6869 -0.1749 -0.7747
  701MOL0     H96677   1.546  11.871   6.891  0.1984 -0.2574 -0.0501
  701MOL0     H96678   1.436  11.816   7.022 -0.4644  0.4859 -0.0532
  701MOL0     H96679   1.576  11.951   7.179 -0.5706 -1.1120  0.3845
  701MOL0     H96680   1.459  12.030   7.086  1.2971  2.2025 -0.7747
  701MOL0     H96681   1.761  12.044   7.008 -0.4277  0.0923 -1.0126
  701MOL0     H96682   1.637  12.097   6.906  0.5599 -0.3547  0.1036
  701MOL0     H96683   1.707  12.176   7.189  1.3459  0.1616 -1.3657
  701MOL0     H96684   1.552  12.238   7.108 -2.0651 -4.3060 -0.7427
  701MOL0     H96685   1.656  12.373   6.947  1.4395 -0.2556 -1.2606
  701MOL0     H96686   1.750  12.404   7.092  0.2675  0.3121 -0.8444
  701MOL0     H96687   2.011  12.250   7.110 -0.9601  0.7440  0.0676
  701MOL0     H96688   2.190  12.057   6.851 -3.1056  1.4603 -2.4173
  701MOL0     H96689   2.199  12.092   7.018  0.2290 -0.8177 -1.6324
  701MOL0     H96690   2.265  12.309   6.808 -0.6220 -0.7192 -1.1138
  701MOL0     H96691   2.255  12.336   6.977  0.2078  2.3273 -1.8212
  701MOL0     H96692   2.447  12.188   7.031  2.1132  1.4244  0.4918
  701MOL0     H96693   2.453  12.128   6.868  2.4366  0.1137  0.7466
  701MOL0     H96694   2.513  12.359   6.802 -1.2288 -1.6969 -0.3453
  701MOL0     H96695   2.530  12.410   6.972  0.0770  0.6084 -2.2217
  701MOL0     H96696   2.741  12.217   7.124 -1.6571  0.8146  0.4985
  701MOL0     H96697   3.024  12.348   7.320  0.2570 -0.1261 -1.0421
  701MOL0     H96698   2.898  12.227   7.317  2.6798 -0.5402 -2.2520
  701MOL0     H96699   2.864  12.393   7.388 -1.8521  0.2195 -1.3169
  701MOL0     H96700   3.221  12.621   7.531 -1.9164 -0.3387 -0.6912
  701MOL0     H96701   3.398  12.757   7.575  0.5519 -3.3027  0.3744
  701MOL0     H96702   3.666  13.051   7.351 -1.8594  3.0857 -2.3169
  701MOL0     H96703   3.525  13.006   7.275 -1.0569 -0.7192  1.4573
  701MOL0     H96704   3.456  13.176   7.428  1.9479  1.1495  2.7582
  701MOL0     H96705   3.384  13.024   7.487  1.1897 -1.9005 -0.4969
  701MOL0     H96706   3.654  13.123   7.589  0.1793  0.1531  2.8719
  701MOL0     H96707   3.545  12.980   7.638 -0.5076 -0.3643  0.6226
  701MOL0     H96708   3.504  13.141   7.807  0.1016 -2.0922 -1.0991
  701MOL0     H96709   3.362  13.150   7.702  0.3749 -3.1891 -1.5296
  701MOL0     H96710   3.606  13.334   7.691  0.5413 -2.4138 -3.7141
  701MOL0     H96711   3.466  13.351   7.592 -2.4944 -1.2189  0.6521
  701MOL0     H96712   3.447  13.517   7.760 -0.4522  0.9631  1.8383
  701MOL0     H96713   3.475  13.389   7.882  0.9581 -0.2704 -1.3609
  701MOL0     H96714   3.263  13.275   7.848  3.1772 -0.3931 -1.7796
  701MOL0     H96715   3.245  13.366   7.696  3.8656  2.1005 -1.8743
  701MOL0     H96716   3.084  13.478   7.856 -1.7293 -0.4456  4.4443
  701MOL0     H96717   3.237  13.577   7.824  1.9261 -1.3263  1.8839
  701MOL0     H96718   3.500  12.799   7.157 -2.5574 -0.8259 -2.0829
  701MOL0     H96719   3.300  12.658   7.100  3.4084 -1.8593  0.1117
  701MOL0     H96720   2.936  12.636   6.956  0.5774  0.8897  1.9488
  701MOL0     H96721   2.798  12.499   6.816 -1.2657 -0.1005  0.9725
  701MOL0     H96722   1.812  11.516   6.580 -1.2083  1.0737  1.1461
  701MOL0     H96723   1.991  11.366   6.588 -1.2252 -1.9369 -2.4747
  701MOL0     H96724   2.264  11.193   6.776 -2.3098 -0.9390 -1.9548
  701MOL0     H96725   2.494  11.147   6.836 -1.6670  0.7947  2.6388
  701MOL0     H96726   2.594  10.740   7.015  0.4411 -1.8795 -1.2841
  701MOL0     H96727   2.677  10.745   6.843  1.1597  3.3057 -0.9111
  701MOL0     H96728   2.841  10.870   6.937 -1.6908 -1.0909 -2.0405
  701MOL0     H96729   2.840  10.719   7.017 -1.1358  0.0746  3.8371
  701MOL0     H96730   2.711  10.969   7.126  1.6972  1.2231  0.0325
  701MOL0     H96731   2.705  10.800   7.200  1.3914 -2.5898 -3.0450
  701MOL0     H96732   2.912  10.956   7.295  1.0431 -2.4310  1.2079
  701MOL0     H96733   2.970  10.935   7.146 -0.9443  1.4351  0.5871
  701MOL0     H96734   3.059  10.581   7.359  2.1989  0.5036 -0.8214
  701MOL0     H96735   2.396  10.741   6.904  1.5505 -0.8977 -2.2912
  701MOL0     H96736   2.051  10.758   6.786  0.0732  2.4529 -0.1099
  701MOL0     H96737   2.177  10.646   6.836 -1.7128 -0.9547  1.3072
  701MOL0     H96738   2.072  10.735   6.956 -0.5928  4.0420 -0.0718
  702MOL0     O96739   4.450  11.264   7.415 -0.3089  0.5462  0.5899
  702MOL0     C96740   4.508  11.290   7.522  1.0897 -0.8025 -0.2060
  702MOL0     O96741   4.458  11.255   7.641  0.2255 -0.5445  0.6919
  702MOL0     C96742   4.352  11.165   7.646 -0.6622 -0.2415  0.0330
  702MOL0     C96743   4.366  11.051   7.724 -0.7173  0.1472 -0.5216
  702MOL0     C96744   4.256  10.965   7.735  0.2238 -0.3485 -0.0286
  702MOL0     C96745   4.138  10.975   7.664 -0.3614  0.5445  0.3684
  702MOL0     O96746   4.052  10.876   7.675  0.2848  0.1613 -0.5065
  702MOL0     C96747   4.008  10.821   7.551 -0.1752 -0.3127 -0.0964
  702MOL0     C96748   3.909  10.703   7.561  0.4705 -0.4953 -0.2320
  702MOL0     C96749   3.991  10.575   7.602 -0.7968 -0.2862 -0.4404
  702MOL0     C96750   4.021  10.573   7.750  0.0832 -0.8107 -0.3014
  702MOL0     C96751   4.010  10.433   7.803 -0.7529 -0.0305  1.1844
  702MOL0     C96752   4.035  10.440   7.952 -0.3614  0.0435  0.1212
  702MOL0     C96753   4.026  10.299   8.014  0.9858  0.7564 -0.4954
  702MOL0     C96754   3.983  10.301   8.164 -0.7802 -0.0293 -0.0365
  702MOL0     N96755   4.086  10.340   8.260  0.7233  0.6131 -0.2439
  702MOL0     C96756   4.228  10.341   8.258  0.6247  0.1297 -0.3039
  702MOL0     C96757   4.271  10.399   8.369  0.6373  0.0158 -0.8479
  702MOL0     C96758   4.412  10.429   8.422 -0.2000  0.0823 -0.0405
  702MOL0     C96759   4.485  10.292   8.468  0.3892 -0.3050  0.3703
  702MOL0     C96760   4.628  10.302   8.520  0.7727  0.0906 -0.2708
  702MOL0     C96761   4.694  10.170   8.571 -0.5952 -0.3332  0.3602
  702MOL0     O96762   4.839  10.198   8.590 -0.0432  0.0281 -0.3098
  702MOL0     C96763   4.921  10.126   8.668  0.3530  0.2797 -0.2096
  702MOL0     C96764   5.057  10.149   8.651 -0.2549  0.2756  0.3865
  702MOL0     C96765   5.155  10.075   8.722  0.7333 -0.2896  1.3329
  702MOL0     C96766   5.307  10.108   8.694 -0.3682  1.2266  0.1922
  702MOL0     C96767   5.112   9.976   8.807 -0.8023 -0.3107 -0.4186
  702MOL0     C96768   5.203   9.909   8.897 -0.0654  0.6939  0.2791
  702MOL0     O96769   5.156   9.777   8.929  0.1372  0.1735  0.3560
  702MOL0     C96770   5.231   9.674   8.985  0.6054 -0.5444 -0.3482
  702MOL0     C96771   5.187   9.544   8.958 -1.1539 -0.2966 -0.8560
  702MOL0     C96772   5.243   9.434   9.023  0.3898  0.1206 -0.0670
  702MOL0     C96773   5.338   9.452   9.126  0.8226  0.2637  0.2011
  702MOL0     O96774   5.386   9.336   9.194 -0.1346 -0.0199 -0.1177
  702MOL0     C96775   5.473   9.353   9.301  0.5920 -0.1290 -0.2163
  702MOL0     C96776   5.500   9.222   9.377 -0.5028 -0.1998 -0.0115
  702MOL0     C96777   5.521   9.104   9.273  0.4381 -0.6648 -0.1118
  702MOL0     C96778   5.569   8.978   9.338  1.1159  0.7008 -0.1584
  702MOL0     C96779   5.611   8.868   9.244 -0.0574  0.4689 -0.3555
  702MOL0     C96780   5.490   8.774   9.211  0.9439 -0.1671 -0.9538
  702MOL0     C96781   5.520   8.663   9.105  0.0726 -0.3033 -0.4821
  702MOL0     C96782   5.493   8.724   8.973  0.7411  0.3821  0.6132
  702MOL0    Cl96783   5.480   8.612   8.835  0.3996 -0.3777 -0.4361
  702MOL0     C96784   5.385   9.584   9.148  0.4449  1.0498 -0.9269
  702MOL0     C96785   5.336   9.690   9.074 -0.2423  0.6880  0.1305
  702MOL0     O96786   5.316   9.944   8.924 -0.9542 -0.0938  0.1869
  702MOL0     C96787   4.971   9.956   8.833  0.3946 -1.0593 -0.4943
  702MOL0     C96788   4.874  10.021   8.753  0.1236  0.3460  0.5720
  702MOL0     N96789   4.164  10.419   8.447 -0.8769  0.5009  0.0035
  702MOL0     N96790   4.052  10.375   8.390 -0.7622 -0.4924 -0.6764
  702MOL0     C96791   4.128  11.091   7.581  0.1315  0.3538  0.4713
  702MOL0     C96792   4.232  11.187   7.573 -0.1467 -0.7236  0.1440
  702MOL0     C96793   4.630  11.374   7.526  0.2896  0.6455  0.4376
  702MOL0     C96794   4.711  11.384   7.645  0.3188  0.3904  0.0614
  702MOL0     C96795   4.834  11.448   7.644 -0.2872  0.1907 -0.2133
  702MOL0     C96796   4.868  11.519   7.539  0.2287 -0.0989  0.6400
  702MOL0     O96797   4.992  11.578   7.532  0.1033 -0.3176  0.2580
  702MOL0     C96798   5.027  11.666   7.433 -1.0370 -0.3029 -0.3963
  702MOL0     C96799   5.158  11.727   7.478 -0.2127  0.2658  0.1757
  702MOL0     C96800   5.278  11.624   7.456 -0.4018  0.2681 -0.5913
  702MOL0     C96801   5.400  11.669   7.530 -0.0732 -0.0082  0.9332
  702MOL0     C96802   5.452  11.788   7.460  0.3035 -0.0497 -0.1714
  702MOL0     C96803   5.518  11.867   7.394 -1.4150 -0.4357 -0.8663
  702MOL0     C96804   4.778  11.522   7.430  0.5709 -0.1081 -0.1721
  702MOL0     C96805   4.666  11.453   7.413  0.3048  0.5326 -0.1719
  702MOL0     C96806   4.579  11.478   7.292 -0.4496  1.2407 -0.4722
  702MOL0     H96807   4.453  11.043   7.788 -0.7080  0.8357 -0.4400
  702MOL0     H96808   4.271  10.877   7.797  0.5888  1.3023  2.3590
  702MOL0     H96809   4.099  10.790   7.498 -1.4269 -0.3749 -2.3233
  702MOL0     H96810   3.957  10.892   7.486  1.1467 -0.3098 -1.1778
  702MOL0     H96811   3.823  10.732   7.622 -0.5776  2.2611 -2.7933
  702MOL0     H96812   3.870  10.673   7.464 -0.7460  0.0422  0.0732
  702MOL0     H96813   3.923  10.491   7.585 -0.9802 -0.1956 -0.1700
  702MOL0     H96814   4.080  10.564   7.540  0.2885 -2.8740  1.4318
  702MOL0     H96815   4.117  10.624   7.761 -0.4327  0.2323 -0.5333
  702MOL0     H96816   3.948  10.638   7.800  1.1194 -1.6525  2.5463
  702MOL0     H96817   4.091  10.378   7.755 -1.6119  0.7254 -1.3036
  702MOL0     H96818   3.911  10.389   7.787 -0.8123  0.5070  0.0007
  702MOL0     H96819   4.140  10.471   7.963 -0.8946  2.6436 -1.4100
  702MOL0     H96820   3.973  10.515   8.001 -1.7939 -0.5778 -0.6923
  702MOL0     H96821   4.125  10.258   7.994  0.7087  0.4291 -1.2586
  702MOL0     H96822   3.951  10.236   7.964  0.2934  0.0308  1.3922
  702MOL0     H96823   3.896  10.364   8.181 -0.5050 -0.7044  5.6936
  702MOL0     H96824   3.970  10.195   8.190 -0.1308 -0.0017  0.4181
  702MOL0     H96825   4.289  10.310   8.174 -0.7524  1.4048 -1.8508
  702MOL0     H96826   4.417  10.502   8.503 -0.2368  0.8610 -0.7173
  702MOL0     H96827   4.465  10.481   8.341 -1.5681  0.1071 -0.9671
  702MOL0     H96828   4.422  10.259   8.551 -0.5986 -0.5998 -0.4692
  702MOL0     H96829   4.477  10.209   8.397  0.7104 -0.8726  0.9923
  702MOL0     H96830   4.697  10.333   8.442  0.0330  1.1928 -0.5019
  702MOL0     H96831   4.632  10.371   8.605 -0.6191  1.4591 -1.2828
  702MOL0     H96832   4.644  10.129   8.659  0.3384 -3.7977 -0.5537
  702MOL0     H96833   4.677  10.088   8.500 -0.4141  1.0412 -1.3340
  702MOL0     H96834   5.093  10.230   8.588 -0.9104  0.9963  0.9282
  702MOL0     H96835   5.319  10.155   8.596  2.0519  1.1134  0.3672
  702MOL0     H96836   5.365  10.018   8.672  0.5424  2.0464 -0.8797
  702MOL0     H96837   5.352  10.165   8.776  3.6771 -1.5497  0.1640
  702MOL0     H96838   5.119   9.541   8.874  1.5406  1.1310 -3.2683
  702MOL0     H96839   5.204   9.333   9.010 -0.2938  0.2597  0.7830
  702MOL0     H96840   5.571   9.394   9.278  0.7185 -0.2172  0.1585
  702MOL0     H96841   5.424   9.416   9.375  3.5029 -0.4219  2.1749
  702MOL0     H96842   5.582   9.232   9.448  0.4566 -0.5299 -1.0302
  702MOL0     H96843   5.419   9.189   9.443 -0.6517  1.9786  0.9565
  702MOL0     H96844   5.599   9.138   9.205 -1.8676 -0.0297 -2.5877
  702MOL0     H96845   5.425   9.088   9.222  0.1694  4.0954 -1.5544
  702MOL0     H96846   5.491   8.950   9.408 -0.4049  1.2558 -1.5628
  702MOL0     H96847   5.656   9.005   9.398  1.3333 -3.0806  1.5084
  702MOL0     H96848   5.650   8.915   9.154  0.2149  0.0179 -0.4786
  702MOL0     H96849   5.670   8.796   9.303 -1.3679  1.0255  1.7526
  702MOL0     H96850   5.400   8.828   9.181  1.5678  0.0488 -2.5602
  702MOL0     H96851   5.475   8.728   9.309  0.9014  0.9653 -0.4220
  702MOL0     H96852   5.455   8.576   9.113 -0.4664  0.1086 -0.2530
  702MOL0     H96853   5.628   8.649   9.104 -0.0386 -1.8565  1.7294
  702MOL0     H96854   5.582   8.787   8.959  1.5351  0.3634  4.5163
  702MOL0     H96855   5.394   8.771   8.968  0.8059  0.3857 -1.0566
  702MOL0     H96856   5.472   9.597   9.212 -0.2564 -1.0812  0.5812
  702MOL0     H96857   5.374   9.791   9.085 -1.5802  0.9499  3.3965
  702MOL0     H96858   4.941   9.894   8.916 -2.5085  0.2768 -0.4465
  702MOL0     H96859   4.769   9.998   8.760 -0.0942  0.6004 -1.3331
  702MOL0     H96860   4.036  11.103   7.525  0.4360 -0.3062 -0.2006
  702MOL0     H96861   4.210  11.272   7.508 -1.1496 -1.7796 -0.9422
  702MOL0     H96862   4.664  11.337   7.730 -2.8363  0.5304 -1.4887
  702MOL0     H96863   4.907  11.448   7.725 -0.1473  0.8786 -0.3331
  702MOL0     H96864   5.029  11.631   7.330 -1.5356 -0.8771 -0.2176
  702MOL0     H96865   4.951  11.744   7.434  0.0817  0.8143  0.0938
  702MOL0     H96866   5.157  11.749   7.585  2.4068 -0.5184  0.4147
  702MOL0     H96867   5.176  11.814   7.413  1.7940  0.4901  0.9717
  702MOL0     H96868   5.260  11.523   7.493  1.2934 -0.3819 -1.4494
  702MOL0     H96869   5.297  11.615   7.348 -1.9220 -3.1664 -0.7063
  702MOL0     H96870   5.477  11.592   7.514 -0.6883 -0.6303  0.9456
  702MOL0     H96871   5.379  11.691   7.635 -1.3677  0.5336  0.5756
  702MOL0     H96872   5.595  11.930   7.354 -1.1638 -1.2453 -1.7061
  702MOL0     H96873   4.810  11.578   7.343 -0.2884  3.4247  1.6155
  702MOL0     H96874   4.476  11.478   7.329 -0.5691 -1.4671 -0.6022
  702MOL0     H96875   4.610  11.565   7.234  1.2532 -0.0221 -1.5669
  702MOL0     H96876   4.576  11.395   7.221 -1.4548 -1.3835  2.4137
  703MOL0     O96877   7.200   2.203   4.029 -0.4927  0.6543 -0.4741
  703MOL0     C96878   7.102   2.148   4.091  0.1533 -1.1848 -0.5161
  703MOL0     O96879   7.099   2.024   4.134  0.0495  0.1931 -0.3257
  703MOL0     C96880   7.183   1.927   4.087 -0.5916  0.7504 -0.4192
  703MOL0     C96881   7.242   1.832   4.177  0.0994 -1.0921  0.0377
  703MOL0     C96882   7.313   1.727   4.119  0.1232 -0.2438 -0.4967
  703MOL0     C96883   7.340   1.713   3.984  0.3944 -0.1465  0.6104
  703MOL0     O96884   7.411   1.605   3.941  0.1876  0.2569  0.0026
  703MOL0     C96885   7.453   1.579   3.802  0.2240 -0.2412  0.6510
  703MOL0     C96886   7.603   1.565   3.801 -0.1426 -0.1595  0.8776
  703MOL0     C96887   7.656   1.628   3.669 -0.8077  0.0071  0.0255
  703MOL0     C96888   7.684   1.781   3.659  0.7947 -0.5621 -0.3134
  703MOL0     C96889   7.804   1.823   3.569 -0.5190  0.3833 -0.4886
  703MOL0     C96890   7.871   1.960   3.614  0.6715  0.7327 -0.7319
  703MOL0     C96891   8.008   1.961   3.548  0.7377 -0.0656 -0.2565
  703MOL0     C96892   8.005   1.969   3.396 -0.7915 -0.1007 -0.5793
  703MOL0     N96893   8.136   2.006   3.345 -1.0563  0.1775  0.2354
  703MOL0     C96894   8.263   1.977   3.409  0.4961  0.0657  0.9814
  703MOL0     C96895   8.347   2.070   3.357  0.7820  0.1660  0.0446
  703MOL0     C96896   8.481   2.113   3.404  0.3845  1.0395 -0.1593
  703MOL0     C96897   8.486   2.130   3.559 -0.6409  0.2048  0.0121
  703MOL0     C96898   8.617   2.189   3.610 -0.3693  0.7025 -0.0823
  703MOL0     C96899   8.603   2.206   3.762  0.2699 -0.3534 -0.2187
  703MOL0     O96900   8.714   2.287   3.813 -0.4602  0.4162  0.2387
  703MOL0     C96901   8.835   2.230   3.829 -0.0392  0.5231  0.0173
  703MOL0     C96902   8.865   2.100   3.793  0.2161  0.1008  0.5220
  703MOL0     C96903   8.987   2.042   3.818  0.1403 -0.3200 -0.1568
  703MOL0     C96904   8.997   1.903   3.773 -0.2733  0.6118  0.1359
  703MOL0     C96905   9.091   2.116   3.884  0.8776 -0.2260  0.3192
  703MOL0     C96906   9.231   2.075   3.902 -0.4891  0.4013 -0.6408
  703MOL0     O96907   9.263   2.046   4.037 -0.3774 -0.2109  0.1772
  703MOL0     C96908   9.397   2.035   4.052  0.5869 -0.3004  0.1724
  703MOL0     C96909   9.447   1.912   4.103 -0.7531  0.2105 -0.6590
  703MOL0     C96910   9.577   1.907   4.149 -0.4214 -1.2305  0.4277
  703MOL0     C96911   9.665   2.016   4.136  0.8798 -0.7866 -0.1867
  703MOL0     O96912   9.788   1.996   4.185  0.3995  0.5201  0.2305
  703MOL0     C96913   9.891   2.089   4.145  0.6205  0.1842  0.4038
  703MOL0     C96914  10.020   2.044   4.212 -0.5927 -0.2655  0.1554
  703MOL0     C96915  10.136   2.158   4.215 -0.1649 -0.2751  0.3426
  703MOL0     C96916  10.267   2.117   4.270 -0.5004  0.6156 -0.6945
  703MOL0     C96917  10.363   2.235   4.316  0.4172  0.3894 -0.0232
  703MOL0     C96918  10.444   2.203   4.437  0.2515 -0.4974  0.1965
  703MOL0     C96919  10.564   2.111   4.410 -0.4262 -0.4657 -0.2779
  703MOL0     C96920  10.667   2.161   4.308  1.0630  0.3703  0.5377
  703MOL0    Cl96921  10.795   2.046   4.272 -0.3961  0.0768  0.1677
  703MOL0     C96922   9.615   2.129   4.063  0.4637 -0.0861 -0.4197
  703MOL0     C96923   9.480   2.137   4.026 -0.1053 -0.9084 -0.2018
  703MOL0     O96924   9.302   2.060   3.808 -0.6770  0.0773  0.0583
  703MOL0     C96925   9.056   2.249   3.917 -0.6550 -0.6057  0.7583
  703MOL0     C96926   8.932   2.305   3.890 -0.1852 -0.6280 -0.3673
  703MOL0     N96927   8.280   2.132   3.254 -0.4686 -1.0235 -0.0031
  703MOL0     N96928   8.159   2.097   3.245  0.6785 -0.6481  0.3815
  703MOL0     C96929   7.281   1.808   3.898 -0.5542 -0.9776 -0.0164
  703MOL0     C96930   7.200   1.913   3.952 -0.2516 -0.4994 -0.3120
  703MOL0     C96931   6.971   2.218   4.098 -0.5088  0.8068  0.1955
  703MOL0     C96932   6.858   2.140   4.086 -0.1515 -0.1212  0.3678
  703MOL0     C96933   6.729   2.208   4.099  0.4032  0.3423 -0.0086
  703MOL0     C96934   6.716   2.339   4.136  0.2686 -0.2715  0.2411
  703MOL0     O96935   6.584   2.386   4.135  0.1687 -0.1287  0.2878
  703MOL0     C96936   6.545   2.512   4.179  0.4144  1.0774 -0.3649
  703MOL0     C96937   6.481   2.601   4.069 -0.1361  0.6246  0.6694
  703MOL0     C96938   6.342   2.546   4.024 -0.7518 -0.3613  0.6989
  703MOL0     C96939   6.267   2.643   3.936  0.0890 -0.0880 -0.0458
  703MOL0     C96940   6.309   2.645   3.799  1.2797  0.4892  0.5261
  703MOL0     C96941   6.344   2.640   3.686 -0.2264  0.0717  0.4327
  703MOL0     C96942   6.834   2.417   4.140  0.2555  0.7333 -0.6295
  703MOL0     C96943   6.956   2.355   4.122  0.4410 -0.3400  0.3772
  703MOL0     C96944   7.074   2.455   4.117 -0.2653  0.3314 -1.3248
  703MOL0     H96945   7.232   1.842   4.284  0.3038  0.1323 -0.0396
  703MOL0     H96946   7.361   1.655   4.185  0.2025  0.6299  0.4377
  703MOL0     H96947   7.407   1.645   3.728  2.2142 -1.6803 -2.0252
  703MOL0     H96948   7.412   1.484   3.768 -0.8000  0.6203 -0.6236
  703MOL0     H96949   7.644   1.626   3.882 -3.6024  0.0834  2.6110
  703MOL0     H96950   7.631   1.460   3.815  1.7220 -0.0937 -1.7333
  703MOL0     H96951   7.751   1.581   3.642  0.6156  2.9839 -0.4888
  703MOL0     H96952   7.594   1.609   3.581 -0.8175  1.5417 -0.3170
  703MOL0     H96953   7.598   1.831   3.614  0.1432 -1.2959  0.0684
  703MOL0     H96954   7.700   1.822   3.759  0.9754 -0.2594 -0.4680
  703MOL0     H96955   7.775   1.826   3.463 -1.4615 -1.7502 -0.3440
  703MOL0     H96956   7.873   1.738   3.573  1.1840  1.5580 -2.4699
  703MOL0     H96957   7.801   2.042   3.599 -3.3962 -2.6360 -2.0154
  703MOL0     H96958   7.883   1.959   3.723  1.6381  0.5292 -0.8308
  703MOL0     H96959   8.057   1.863   3.555  2.0204 -0.1525 -5.6504
  703MOL0     H96960   8.069   2.039   3.594 -0.4248  0.8561 -0.2469
  703MOL0     H96961   7.988   1.872   3.349  2.1064 -0.4138 -1.2047
  703MOL0     H96962   7.932   2.048   3.379  1.0626  1.8168 -0.0021
  703MOL0     H96963   8.287   1.913   3.493  1.6119 -1.7166 -0.6230
  703MOL0     H96964   8.511   2.196   3.338  1.6707 -0.2677 -1.2980
  703MOL0     H96965   8.549   2.034   3.371 -1.7420 -0.1874 -1.7909
  703MOL0     H96966   8.406   2.196   3.593 -1.8253 -0.1382 -1.9218
  703MOL0     H96967   8.476   2.029   3.600  3.7811  0.1278  1.4078
  703MOL0     H96968   8.703   2.124   3.592  1.1468  2.5809  0.0653
  703MOL0     H96969   8.635   2.289   3.571 -1.7301  1.1682  0.4303
  703MOL0     H96970   8.511   2.255   3.796  0.7821 -1.7283  3.5656
  703MOL0     H96971   8.591   2.111   3.815 -0.2162  2.0908  4.6860
  703MOL0     H96972   8.779   2.045   3.755  1.8490 -1.0289 -1.7328
  703MOL0     H96973   9.058   1.897   3.682 -1.2305 -1.4410 -0.4531
  703MOL0     H96974   8.898   1.859   3.760 -0.0790  0.2567 -0.1775
  703MOL0     H96975   9.056   1.837   3.838 -0.0974 -1.8070 -2.2660
  703MOL0     H96976   9.369   1.842   4.128  1.8295 -1.8267  2.5624
  703MOL0     H96977   9.612   1.814   4.192  1.6368 -0.1490  1.2079
  703MOL0     H96978   9.893   2.091   4.036 -1.8515 -1.3632  0.2615
  703MOL0     H96979   9.867   2.187   4.186  2.7700  1.8519 -1.9784
  703MOL0     H96980   9.999   2.020   4.316  0.2385  0.8332  0.5911
  703MOL0     H96981  10.048   1.954   4.157 -0.4873 -2.8686  4.1258
  703MOL0     H96982  10.097   2.247   4.265 -1.6533 -0.1217 -1.0211
  703MOL0     H96983  10.158   2.185   4.111  2.0642 -3.6129 -0.2206
  703MOL0     H96984  10.332   2.066   4.198  1.7011  0.7537  1.0962
  703MOL0     H96985  10.245   2.051   4.354 -1.6795 -0.7957 -2.0428
  703MOL0     H96986  10.418   2.276   4.231 -1.8701  1.3037 -1.1435
  703MOL0     H96987  10.304   2.324   4.337  0.2589 -0.1073  1.7955
  703MOL0     H96988  10.368   2.174   4.512 -2.7970  1.0676 -2.0628
  703MOL0     H96989  10.475   2.304   4.465  1.2735 -0.4665 -0.9742
  703MOL0     H96990  10.522   2.016   4.375 -0.4314 -0.3239 -0.6562
  703MOL0     H96991  10.624   2.102   4.502 -1.3686 -0.8192  0.3223
  703MOL0     H96992  10.720   2.252   4.337 -0.1167  1.3952 -0.3976
  703MOL0     H96993  10.613   2.188   4.217 -0.7512 -0.5330  1.2975
  703MOL0     H96994   9.673   2.219   4.045 -0.4412  0.7668  0.7212
  703MOL0     H96995   9.453   2.239   3.998  4.1857  0.4457 -0.0916
  703MOL0     H96996   9.126   2.305   3.978  0.2769  4.0963 -3.9679
  703MOL0     H96997   8.906   2.406   3.918 -2.5935 -1.2833  0.0241
  703MOL0     H96998   7.295   1.808   3.790  1.0723 -1.0725  0.1692
  703MOL0     H96999   7.142   1.970   3.880 -0.5220 -2.8735 -2.1165
  703MOL0     H97000   6.852   2.035   4.059  1.2504 -0.3507  0.9056
  703MOL0     H97001   6.651   2.144   4.059  1.6776  0.0713 -2.2833
  703MOL0     H97002   6.469   2.493   4.255 -0.0496 -0.0288 -1.0807
  703MOL0     H97003   6.624   2.572   4.227  0.1971 -0.5916  2.3268
  703MOL0     H97004   6.558   2.597   3.991  0.9166  2.0602  1.5928
  703MOL0     H97005   6.474   2.702   4.109  3.3061  0.1554  2.9041
  703MOL0     H97006   6.341   2.449   3.973 -1.2729 -0.9450  1.7758
  703MOL0     H97007   6.276   2.519   4.107 -0.3465 -0.9590  0.8329
  703MOL0     H97008   6.276   2.743   3.980 -0.6725  0.0197 -0.1121
  703MOL0     H97009   6.162   2.614   3.925 -0.0377  0.8369 -1.6454
  703MOL0     H97010   6.365   2.636   3.581  1.6159 -0.0100  0.7616
  703MOL0     H97011   6.829   2.525   4.148 -1.7479  0.6884 -0.7556
  703MOL0     H97012   7.151   2.436   4.193 -0.9932  0.5253 -0.5175
  703MOL0     H97013   7.116   2.438   4.018 -0.7649 -0.5190 -1.3990
  703MOL0     H97014   7.042   2.560   4.115  1.0806  0.8573  0.7690
  704MOL0     O97015   0.052   1.509   8.298  0.3865 -0.1703 -0.3992
  704MOL0     C97016  -0.036   1.427   8.333  0.0262  0.3518  0.0521
  704MOL0     O97017  -0.017   1.289   8.323  0.4442 -0.1237  0.0385
  704MOL0     C97018   0.113   1.255   8.313 -0.3879  0.2391  0.0785
  704MOL0     C97019   0.171   1.205   8.202 -0.6753 -0.2970 -0.1612
  704MOL0     C97020   0.309   1.166   8.202 -0.4208 -0.3579  0.4037
  704MOL0     C97021   0.394   1.187   8.315 -0.1167  0.1255  0.1449
  704MOL0     O97022   0.525   1.137   8.325  0.2597  0.5049  0.5025
  704MOL0     C97023   0.600   1.098   8.207  0.1231 -0.4858 -0.3301
  704MOL0     C97024   0.735   1.038   8.245  1.1858 -0.6317 -0.3101
  704MOL0     C97025   0.722   0.889   8.270 -0.5681  0.5101  1.0339
  704MOL0     C97026   0.850   0.840   8.323  0.0143  0.5104 -0.4675
  704MOL0     C97027   0.828   0.698   8.367  0.2180 -0.5170  1.1148
  704MOL0     C97028   0.950   0.626   8.412  0.8982 -0.5760  0.3180
  704MOL0     C97029   0.896   0.488   8.445 -0.6412 -0.9967 -0.6530
  704MOL0     C97030   1.012   0.413   8.507  0.6904 -0.8437 -0.5198
  704MOL0     N97031   1.128   0.380   8.419 -0.7109  0.1360  0.0166
  704MOL0     C97032   1.139   0.258   8.359  0.0170 -0.0854  0.5220
  704MOL0     C97033   1.244   0.278   8.280 -0.1780  0.0297  0.4714
  704MOL0     C97034   1.313   0.176   8.189  0.5915  1.3754  0.5111
  704MOL0     C97035   1.243   0.154   8.054  0.2736  0.6073  0.4773
  704MOL0     C97036   1.244   0.266   7.952 -0.6774 -0.5617 -0.4117
  704MOL0     C97037   1.379   0.303   7.916 -0.4313  0.8341  0.0497
  704MOL0     O97038   1.397   0.410   7.825  0.3754 -0.1196  0.2190
  704MOL0     C97039   1.524   0.460   7.827 -0.4987  0.0771  0.4515
  704MOL0     C97040   1.531   0.603   7.826  0.3453 -0.2004 -0.0755
  704MOL0     C97041   1.653   0.678   7.818 -0.2528 -0.0466  0.7570
  704MOL0     C97042   1.647   0.829   7.802  0.0974  0.2038  0.0620
  704MOL0     C97043   1.776   0.601   7.811 -0.2066  0.2917  0.3757
  704MOL0     C97044   1.916   0.658   7.797  0.2252 -0.2473 -0.8288
  704MOL0     O97045   2.016   0.576   7.742  0.0892 -0.6544  0.2830
  704MOL0     C97046   2.143   0.625   7.719 -0.0815 -0.0650 -0.6204
  704MOL0     C97047   2.219   0.684   7.820 -0.7049  0.5737  0.4950
  704MOL0     C97048   2.345   0.741   7.791  0.3866  0.1139 -0.4547
  704MOL0     C97049   2.404   0.719   7.662  0.8695 -0.2642 -0.5468
  704MOL0     O97050   2.539   0.755   7.657  0.4351 -0.9299 -0.5868
  704MOL0     C97051   2.630   0.687   7.575 -0.4744  0.3570 -0.4273
  704MOL0     C97052   2.768   0.738   7.590 -0.5679  0.9288 -0.4348
  704MOL0     C97053   2.821   0.748   7.735 -0.3863 -0.0437 -0.1732
  704MOL0     C97054   2.962   0.807   7.759 -0.2840 -0.9335  0.5495
  704MOL0     C97055   2.953   0.960   7.736  0.7159 -0.6437 -0.7762
  704MOL0     C97056   3.089   1.021   7.796  0.7316 -0.1431 -0.1917
  704MOL0     C97057   3.078   1.169   7.813 -0.0110  0.7984  0.1638
  704MOL0     C97058   3.204   1.231   7.875  0.4610  0.0728  1.2149
  704MOL0    Cl97059   3.220   1.397   7.807 -0.5113  0.1783  0.0921
  704MOL0     C97060   2.332   0.661   7.565  0.1108  0.9793  0.2660
  704MOL0     C97061   2.207   0.612   7.591  1.1574 -0.7069  0.6240
  704MOL0     O97062   1.936   0.776   7.818 -1.0196  0.6316 -0.3461
  704MOL0     C97063   1.770   0.456   7.817  0.0491 -0.7138  0.1960
  704MOL0     C97064   1.645   0.395   7.814 -0.1079  0.4552 -0.2131
  704MOL0     N97065   1.304   0.396   8.297  0.6900 -0.3916 -0.3191
  704MOL0     N97066   1.235   0.463   8.389  0.4344  0.7472  0.9204
  704MOL0     C97067   0.332   1.248   8.422 -1.5885  0.8243 -0.1089
  704MOL0     C97068   0.198   1.277   8.427 -0.0343  1.1132 -0.7950
  704MOL0     C97069  -0.163   1.474   8.390 -0.6530  0.4438 -0.2424
  704MOL0     C97070  -0.218   1.420   8.510 -0.3155  0.4176 -0.1398
  704MOL0     C97071  -0.340   1.461   8.553  0.7150  0.1785  0.0010
  704MOL0     C97072  -0.413   1.570   8.494  0.0204 -0.2441  0.5925
  704MOL0     O97073  -0.537   1.596   8.536  0.7532 -0.4729  0.0312
  704MOL0     C97074  -0.618   1.699   8.474  0.0407 -0.3422  0.0496
  704MOL0     C97075  -0.745   1.706   8.552 -0.0147 -0.0972  0.3256
  704MOL0     C97076  -0.851   1.795   8.478  0.6925 -0.2076 -0.0744
  704MOL0     C97077  -0.983   1.801   8.555 -0.5553 -0.4526 -0.5973
  704MOL0     C97078  -0.972   1.886   8.678 -0.2407  0.1443  0.6529
  704MOL0     C97079  -0.972   1.967   8.768 -0.5490 -0.2398 -0.4934
  704MOL0     C97080  -0.354   1.632   8.380  0.0475  0.4168  0.1395
  704MOL0     C97081  -0.235   1.579   8.321 -0.3152  0.3593 -0.5274
  704MOL0     C97082  -0.181   1.638   8.199  0.1061 -0.8996 -0.4038
  704MOL0     H97083   0.106   1.175   8.121 -1.6310 -1.2017  0.9108
  704MOL0     H97084   0.342   1.119   8.110 -1.5973  0.3147 -0.3973
  704MOL0     H97085   0.624   1.188   8.149  0.7851  0.4635  1.3543
  704MOL0     H97086   0.541   1.025   8.150  0.5559 -1.1268  0.0256
  704MOL0     H97087   0.813   1.053   8.170  2.0577  2.4692  1.0547
  704MOL0     H97088   0.776   1.088   8.332  2.4587 -0.8686 -0.7572
  704MOL0     H97089   0.647   0.878   8.349 -2.1121  3.3810  0.1352
  704MOL0     H97090   0.690   0.833   8.182 -1.1774  1.7021  0.4652
  704MOL0     H97091   0.928   0.841   8.247  0.7899  2.4436  0.2698
  704MOL0     H97092   0.867   0.897   8.416 -2.5565 -0.2709  0.5681
  704MOL0     H97093   0.786   0.643   8.282  1.6088  0.7628 -0.4816
  704MOL0     H97094   0.758   0.701   8.451  4.0230  0.9232  4.5175
  704MOL0     H97095   1.009   0.621   8.320  0.7572  3.4965 -0.1948
  704MOL0     H97096   0.991   0.673   8.501 -0.8895 -1.3717  1.6188
  704MOL0     H97097   0.859   0.440   8.354  0.1952  0.9746 -2.1097
  704MOL0     H97098   0.810   0.492   8.513  0.0819 -1.9230  0.3477
  704MOL0     H97099   1.060   0.466   8.589  0.2830  0.8343 -1.3163
  704MOL0     H97100   0.972   0.319   8.545  1.0843 -1.6902 -2.0976
  704MOL0     H97101   1.070   0.174   8.363 -0.0153 -0.0305  1.1609
  704MOL0     H97102   1.311   0.079   8.240  1.3422  0.5061 -1.0432
  704MOL0     H97103   1.416   0.207   8.169  0.9209  0.6164  0.9968
  704MOL0     H97104   1.280   0.058   8.016  0.7321  0.2834  1.7131
  704MOL0     H97105   1.136   0.136   8.068  0.1018  1.3452  0.1481
  704MOL0     H97106   1.184   0.226   7.869 -1.1911  0.5509 -0.5928
  704MOL0     H97107   1.188   0.351   7.991 -2.4101 -1.5982 -0.5200
  704MOL0     H97108   1.421   0.328   8.014  0.0020  0.0346  0.0806
  704MOL0     H97109   1.428   0.213   7.877  1.3372  1.5027  0.6202
  704MOL0     H97110   1.439   0.661   7.826  1.4040  1.5383 -0.4206
  704MOL0     H97111   1.687   0.862   7.706  0.7546  0.1124  0.3021
  704MOL0     H97112   1.693   0.875   7.889 -1.0708  1.4915  0.0282
  704MOL0     H97113   1.541   0.854   7.800 -0.3134 -1.4405 -1.2445
  704MOL0     H97114   2.180   0.704   7.920 -2.3987 -0.6251  0.1045
  704MOL0     H97115   2.403   0.801   7.861 -0.7735  1.1981 -0.3963
  704MOL0     H97116   2.635   0.583   7.609  0.3079  0.6340  0.3226
  704MOL0     H97117   2.601   0.685   7.469 -0.7284 -1.8781 -0.3766
  704MOL0     H97118   2.832   0.670   7.532  0.6641  1.8522 -0.1997
  704MOL0     H97119   2.766   0.842   7.556 -2.6686  0.8861 -0.5638
  704MOL0     H97120   2.827   0.645   7.772 -1.5929  0.3231  1.1235
  704MOL0     H97121   2.751   0.806   7.796 -0.4969 -0.5099  0.1506
  704MOL0     H97122   3.040   0.757   7.700 -0.3288 -0.9265  0.4842
  704MOL0     H97123   2.985   0.789   7.864 -0.6996 -3.3377  0.2855
  704MOL0     H97124   2.955   0.986   7.629  0.2483 -0.3530 -0.7190
  704MOL0     H97125   2.860   0.994   7.783 -0.0889 -3.3570 -0.2506
  704MOL0     H97126   3.177   1.001   7.734 -0.7996 -0.8358 -2.2455
  704MOL0     H97127   3.107   0.984   7.897 -0.8349  2.5613  1.2111
  704MOL0     H97128   2.993   1.196   7.876 -0.1188  0.3681  0.2012
  704MOL0     H97129   3.065   1.205   7.711  0.6908 -3.1875 -1.5156
  704MOL0     H97130   3.300   1.184   7.849 -1.5845 -3.4349 -0.7966
  704MOL0     H97131   3.202   1.223   7.984  0.2472 -0.8964  1.1500
  704MOL0     H97132   2.375   0.652   7.466 -2.2612 -0.4973 -0.7304
  704MOL0     H97133   2.150   0.562   7.513 -0.0706  0.8792  0.4291
  704MOL0     H97134   1.860   0.395   7.814 -1.6057 -3.5491  2.7958
  704MOL0     H97135   1.649   0.286   7.812 -0.2761  0.3964 -3.3577
  704MOL0     H97136   0.389   1.264   8.514 -3.3636  0.6577  1.0614
  704MOL0     H97137   0.144   1.319   8.512 -3.8792 -1.9717 -1.3947
  704MOL0     H97138  -0.157   1.346   8.562  0.7140  1.0522 -0.4160
  704MOL0     H97139  -0.403   1.419   8.631  2.0298 -1.4205  0.2450
  704MOL0     H97140  -0.565   1.794   8.481 -1.8313  0.6333  3.4139
  704MOL0     H97141  -0.637   1.680   8.368  3.0926 -2.2419 -0.2836
  704MOL0     H97142  -0.718   1.749   8.649 -1.5002  0.0194  0.7095
  704MOL0     H97143  -0.784   1.606   8.573 -1.1462  0.2130 -0.2053
  704MOL0     H97144  -0.805   1.894   8.472  1.1933  0.0835  4.6263
  704MOL0     H97145  -0.876   1.762   8.377  0.2614  0.4200 -0.1778
  704MOL0     H97146  -1.002   1.696   8.576 -2.0873 -0.2444 -0.8650
  704MOL0     H97147  -1.069   1.843   8.503 -0.4010 -0.4377 -0.8408
  704MOL0     H97148  -0.975   2.033   8.853  0.7001 -0.6458 -0.1128
  704MOL0     H97149  -0.411   1.705   8.323 -0.3128 -0.5958 -0.8277
  704MOL0     H97150  -0.263   1.682   8.142  2.2681  3.9943 -0.2501
  704MOL0     H97151  -0.118   1.719   8.236  0.4469 -1.3305 -0.0435
  704MOL0     H97152  -0.116   1.583   8.131  1.7454 -0.5742  0.8504
  705MOL0     O97153   9.624   1.756   8.499 -0.7745 -0.3114  1.0025
  705MOL0     C97154   9.626   1.681   8.594 -0.5487 -0.0229 -0.6182
  705MOL0     O97155   9.725   1.596   8.620 -0.2741 -0.1880  0.4314
  705MOL0     C97156   9.845   1.609   8.554 -0.0003  0.7152  0.6947
  705MOL0     C97157   9.890   1.509   8.469  1.0274  0.8427  0.1072
  705MOL0     C97158  10.023   1.502   8.419  0.4336  0.3202 -0.4920
  705MOL0     C97159  10.114   1.597   8.467 -0.0291 -0.9894  0.3557
  705MOL0     O97160  10.244   1.589   8.437 -0.5648  0.2166 -0.1525
  705MOL0     C97161  10.306   1.465   8.403  0.4676  0.5014 -0.3886
  705MOL0     C97162  10.360   1.479   8.260 -0.2182  0.2211 -0.4107
  705MOL0     C97163  10.489   1.394   8.231  0.6190  0.3566 -0.5762
  705MOL0     C97164  10.611   1.484   8.262  0.7007  0.6842 -0.6488
  705MOL0     C97165  10.744   1.432   8.207  0.2590  0.2434 -0.2455
  705MOL0     C97166  10.755   1.450   8.052 -0.1355  0.5886  0.6600
  705MOL0     C97167  10.898   1.434   8.005 -0.0794  0.2381  0.2476
  705MOL0     C97168  10.905   1.463   7.856 -0.2756  0.8050  0.1077
  705MOL0     N97169  11.033   1.439   7.790  0.6167 -0.0673 -0.9084
  705MOL0     C97170  11.136   1.535   7.794 -0.3081 -1.5667 -0.1877
  705MOL0     C97171  11.220   1.509   7.691 -0.3171 -0.3118  0.0510
  705MOL0     C97172  11.347   1.588   7.658  0.2629  0.2905  0.4002
  705MOL0     C97173  11.469   1.530   7.716 -0.1670  0.6447  0.7059
  705MOL0     C97174  11.464   1.510   7.870  0.2793  0.0641 -0.1781
  705MOL0     C97175  11.605   1.470   7.921 -0.1924 -0.1267 -0.5057
  705MOL0     O97176  11.705   1.571   7.889  0.7756  0.2957  0.1499
  705MOL0     C97177  11.833   1.549   7.934  0.4838 -0.0883 -0.2989
  705MOL0     C97178  11.937   1.587   7.851  1.0648  0.2773 -0.0518
  705MOL0     C97179  12.069   1.557   7.893 -0.4947  0.0841  0.1535
  705MOL0     C97180  12.186   1.566   7.796  0.2581 -0.0703 -0.2781
  705MOL0     C97181  12.104   1.492   8.017  0.5113  0.7055 -0.2268
  705MOL0     C97182  12.238   1.460   8.073  0.6412 -0.1573  0.3059
  705MOL0     O97183  12.251   1.351   8.167 -0.2380  0.0320  0.3329
  705MOL0     C97184  12.372   1.318   8.224  0.6354  0.9962 -0.0615
  705MOL0     C97185  12.378   1.278   8.360  0.4762 -0.6323 -0.6951
  705MOL0     C97186  12.507   1.250   8.416  0.0535 -0.0107 -0.6368
  705MOL0     C97187  12.627   1.252   8.342  0.5139  0.0915 -0.5747
  705MOL0     O97188  12.748   1.229   8.394  0.0025  0.4050  0.6583
  705MOL0     C97189  12.800   1.285   8.512 -0.1515  0.3553  0.2960
  705MOL0     C97190  12.949   1.261   8.534 -0.2471 -0.3106 -0.4934
  705MOL0     C97191  13.037   1.319   8.427 -0.4438  0.3932  1.3527
  705MOL0     C97192  13.020   1.472   8.401 -0.2634 -0.3310 -0.5195
  705MOL0     C97193  13.080   1.550   8.528 -0.1220 -0.0383  0.6369
  705MOL0     C97194  13.091   1.706   8.500 -0.1280 -0.5560  0.2367
  705MOL0     C97195  13.171   1.754   8.383 -0.5872  0.6225 -0.7681
  705MOL0     C97196  13.203   1.901   8.399 -0.8717  0.1080  0.3184
  705MOL0    Cl97197  13.319   1.948   8.278 -0.1268  0.3394  0.2296
  705MOL0     C97198  12.614   1.274   8.201  0.1185 -0.0412  0.1784
  705MOL0     C97199  12.490   1.309   8.145 -0.0929  0.0290  0.7196
  705MOL0     O97200  12.335   1.528   8.041 -0.2891  0.5055 -0.0212
  705MOL0     C97201  11.993   1.461   8.102 -0.4423 -0.2579 -0.0657
  705MOL0     C97202  11.859   1.486   8.057 -0.5691 -0.1156  0.2868
  705MOL0     N97203  11.158   1.402   7.619 -0.7747 -0.1589 -0.0129
  705MOL0     N97204  11.047   1.365   7.681 -0.3897  0.5453 -0.1418
  705MOL0     C97205  10.066   1.699   8.547  0.1652 -0.1636  0.1608
  705MOL0     C97206   9.933   1.703   8.596 -0.5010  0.3697 -0.0715
  705MOL0     C97207   9.523   1.690   8.705  0.2359  0.7246  0.8032
  705MOL0     C97208   9.569   1.674   8.839 -1.0475 -0.2356 -0.1781
  705MOL0     C97209   9.484   1.685   8.948  0.1030  0.4377  0.5385
  705MOL0     C97210   9.348   1.703   8.930 -0.1678 -0.5117  0.1072
  705MOL0     O97211   9.269   1.720   9.045  0.5226 -0.0827  0.1643
  705MOL0     C97212   9.137   1.788   9.025 -0.1308  0.1497  0.1657
  705MOL0     C97213   9.078   1.815   9.169 -0.2942 -0.3436  0.0833
  705MOL0     C97214   8.931   1.852   9.155 -0.1420 -0.4591  1.4345
  705MOL0     C97215   8.849   1.886   9.279  0.0467  0.0309  0.6408
  705MOL0     C97216   8.901   2.008   9.338  0.2702  0.1121  0.0528
  705MOL0     C97217   8.945   2.097   9.397  0.5007 -0.6627  0.4800
  705MOL0     C97218   9.308   1.726   8.793 -0.8780  0.6263 -0.1362
  705MOL0     C97219   9.390   1.721   8.684  0.3325 -0.1430 -0.2903
  705MOL0     C97220   9.333   1.750   8.554 -0.4100 -0.0924 -0.1922
  705MOL0     H97221   9.817   1.434   8.442  1.3382  0.8016 -0.6519
  705MOL0     H97222  10.057   1.428   8.346 -0.8343  0.3012 -1.0916
  705MOL0     H97223  10.237   1.380   8.407 -0.4853  1.1852 -1.5308
  705MOL0     H97224  10.389   1.444   8.471 -1.4895  1.1807  2.3677
  705MOL0     H97225  10.283   1.444   8.192  0.2261 -2.6682  0.4503
  705MOL0     H97226  10.384   1.584   8.240  3.2216 -0.4743 -0.6238
  705MOL0     H97227  10.499   1.293   8.272  0.6332  0.8856  0.7475
  705MOL0     H97228  10.486   1.386   8.122  0.0635  4.1386 -0.9799
  705MOL0     H97229  10.590   1.582   8.220 -0.5500  1.6478  1.9967
  705MOL0     H97230  10.622   1.507   8.369  0.8135  1.9383 -0.9222
  705MOL0     H97231  10.766   1.332   8.245  0.1040  0.1520 -0.4008
  705MOL0     H97232  10.818   1.501   8.250 -0.0633  0.4322  0.0109
  705MOL0     H97233  10.696   1.366   8.014  0.6574  0.6787 -0.8477
  705MOL0     H97234  10.726   1.552   8.027 -1.5236  1.0118  3.5676
  705MOL0     H97235  10.944   1.338   8.030  0.0848  0.9156  2.8453
  705MOL0     H97236  10.948   1.523   8.045 -0.4445  1.7172 -2.3387
  705MOL0     H97237  10.840   1.401   7.794  1.1242  2.5990 -3.4321
  705MOL0     H97238  10.880   1.563   7.820 -0.2316 -0.8173 -5.2034
  705MOL0     H97239  11.141   1.621   7.859 -1.7815 -0.6692 -1.1919
  705MOL0     H97240  11.326   1.685   7.703  1.6648  0.4481  0.7671
  705MOL0     H97241  11.365   1.599   7.550  1.2658 -1.0050  0.4087
  705MOL0     H97242  11.482   1.429   7.675  1.1668  1.5669 -1.3146
  705MOL0     H97243  11.554   1.582   7.670 -2.0436  2.0829 -1.3839
  705MOL0     H97244  11.420   1.599   7.917  1.4344 -0.1658  1.4331
  705MOL0     H97245  11.394   1.428   7.886 -1.2611  0.8512 -2.4295
  705MOL0     H97246  11.589   1.460   8.028 -0.4485 -2.8295 -0.7203
  705MOL0     H97247  11.609   1.367   7.885 -0.8548  0.0295 -1.0383
  705MOL0     H97248  11.911   1.619   7.751  2.0606 -0.1533 -0.4565
  705MOL0     H97249  12.239   1.661   7.810 -0.6954  0.3805  0.3452
  705MOL0     H97250  12.139   1.564   7.697 -1.2996  1.5521  0.3778
  705MOL0     H97251  12.263   1.489   7.811  1.6637  0.8607 -2.1897
  705MOL0     H97252  12.289   1.268   8.421  1.0779 -3.3650 -0.1434
  705MOL0     H97253  12.521   1.225   8.521  1.3114  0.1703 -0.7513
  705MOL0     H97254  12.774   1.391   8.515  0.6423  0.6131 -1.1286
  705MOL0     H97255  12.756   1.239   8.601  1.5395  2.9145  2.6523
  705MOL0     H97256  12.980   1.307   8.628  3.4034 -4.2239  0.5013
  705MOL0     H97257  12.963   1.153   8.542 -0.5100 -0.3013  0.1389
  705MOL0     H97258  13.013   1.271   8.331  1.2268 -0.2085  1.1972
  705MOL0     H97259  13.145   1.304   8.437 -0.0434  0.2263 -2.0219
  705MOL0     H97260  12.918   1.507   8.388  0.1075  0.2944 -2.1169
  705MOL0     H97261  13.077   1.518   8.319  0.4172  2.0646  1.1761
  705MOL0     H97262  13.025   1.532   8.620  0.0597 -0.4366  0.6688
  705MOL0     H97263  13.183   1.519   8.551 -0.2762  0.0703  1.5291
  705MOL0     H97264  13.152   1.734   8.587  2.5608 -2.7389 -0.7791
  705MOL0     H97265  12.994   1.757   8.499 -0.0041 -0.1166 -3.5547
  705MOL0     H97266  13.115   1.746   8.289  0.2778 -2.5987 -1.1319
  705MOL0     H97267  13.262   1.699   8.356 -1.0889  0.1483 -1.5651
  705MOL0     H97268  13.235   1.928   8.501  0.8783 -2.2243  0.4547
  705MOL0     H97269  13.110   1.954   8.375 -2.2025 -1.7769  1.0336
  705MOL0     H97270  12.698   1.250   8.137 -0.3920 -0.2520 -0.4247
  705MOL0     H97271  12.489   1.324   8.038  0.7971 -1.6431  0.4464
  705MOL0     H97272  12.001   1.415   8.200 -3.1189 -0.7110  0.0300
  705MOL0     H97273  11.775   1.461   8.121 -1.9260  0.6386 -1.1261
  705MOL0     H97274  10.141   1.773   8.574  1.0714 -1.6032  1.8218
  705MOL0     H97275   9.897   1.776   8.667 -0.2449  1.0855 -0.6738
  705MOL0     H97276   9.673   1.647   8.856 -0.6249  1.8318  0.9113
  705MOL0     H97277   9.527   1.683   9.048  0.2928 -1.8072  0.4776
  705MOL0     H97278   9.134   1.877   8.961 -0.2851  0.9345  1.2485
  705MOL0     H97279   9.067   1.720   8.976 -1.2631 -0.3742  2.3872
  705MOL0     H97280   9.136   1.887   9.227  1.3148 -2.1894  0.8794
  705MOL0     H97281   9.080   1.730   9.238  0.9696 -0.2927  0.1386
  705MOL0     H97282   8.914   1.932   9.083 -2.3955 -2.1955 -0.1122
  705MOL0     H97283   8.886   1.766   9.105 -2.4439  1.1408  0.6026
  705MOL0     H97284   8.851   1.807   9.354  2.3620 -0.3644  0.2463
  705MOL0     H97285   8.748   1.891   9.237  1.5873  0.4732 -3.4284
  705MOL0     H97286   8.983   2.192   9.428 -0.0373 -0.1766 -0.3069
  705MOL0     H97287   9.203   1.750   8.784 -1.0894 -0.1029  0.2750
  705MOL0     H97288   9.356   1.672   8.481  0.4682  0.2751 -0.3161
  705MOL0     H97289   9.223   1.752   8.554 -0.4281 -0.6347  0.4116
  705MOL0     H97290   9.374   1.840   8.507  0.9235 -0.1078  0.8748
  706MOL0     O97291   1.870   2.281   0.008 -0.4656 -0.3197  0.3039
  706MOL0     C97292   1.751   2.282   0.048 -0.5225  0.4327 -0.0716
  706MOL0     O97293   1.704   2.337   0.164 -0.0207  0.0508 -0.0148
  706MOL0     C97294   1.781   2.410   0.251 -0.5167 -0.0473  1.3476
  706MOL0     C97295   1.718   2.509   0.316  0.0748 -0.0653 -0.2911
  706MOL0     C97296   1.785   2.574   0.428 -0.6275 -0.0050 -0.0978
  706MOL0     C97297   1.919   2.567   0.446 -0.8249 -0.6142 -0.5514
  706MOL0     O97298   1.974   2.627   0.555  0.8834  0.3172  0.1621
  706MOL0     C97299   2.119   2.622   0.573 -0.4389 -0.3102  0.4324
  706MOL0     C97300   2.172   2.752   0.642 -0.5858 -0.1721  1.0602
  706MOL0     C97301   2.318   2.765   0.659 -0.9530 -0.3232 -0.4371
  706MOL0     C97302   2.398   2.834   0.545  1.2242  0.0695  0.0623
  706MOL0     C97303   2.538   2.794   0.564  0.2410  0.4566 -0.1833
  706MOL0     C97304   2.621   2.861   0.462 -0.2022 -0.5439  0.1698
  706MOL0     C97305   2.771   2.847   0.505 -0.7692 -0.0587 -0.6700
  706MOL0     C97306   2.858   2.941   0.419 -0.7863 -0.2403  0.5973
  706MOL0     N97307   3.001   2.904   0.397  0.3898  0.3009  0.7227
  706MOL0     C97308   3.042   2.799   0.314 -0.0281 -0.2606 -0.2091
  706MOL0     C97309   3.174   2.779   0.328  0.4915 -0.3744 -0.9902
  706MOL0     C97310   3.256   2.686   0.247  0.4951 -0.7264  0.1285
  706MOL0     C97311   3.403   2.693   0.263  0.0895  0.1284  0.4606
  706MOL0     C97312   3.446   2.622   0.391 -0.6315 -0.2714  0.0388
  706MOL0     C97313   3.588   2.561   0.374 -0.1490  0.2148  0.5618
  706MOL0     O97314   3.646   2.529   0.499 -0.2721  0.7249  0.3556
  706MOL0     C97315   3.776   2.476   0.504 -0.5977 -0.9564 -0.0281
  706MOL0     C97316   3.820   2.413   0.624 -0.8013  0.6398 -1.2822
  706MOL0     C97317   3.950   2.362   0.641 -0.3287 -0.6034 -0.4967
  706MOL0     C97318   3.980   2.294   0.778  0.2028  0.6973  0.9199
  706MOL0     C97319   4.046   2.364   0.529  0.8421 -0.2957  0.1834
  706MOL0     C97320   4.178   2.304   0.529  0.2855 -0.3049  0.8917
  706MOL0     O97321   4.254   2.300   0.647  0.0589  0.0635  0.2524
  706MOL0     C97322   4.374   2.230   0.653  0.2959 -0.1110 -0.1981
  706MOL0     C97323   4.415   2.115   0.578  0.7318 -0.1114 -1.1416
  706MOL0     C97324   4.530   2.049   0.623 -0.1214 -0.0533 -1.2712
  706MOL0     C97325   4.619   2.094   0.717  0.3046  0.1632  0.0015
  706MOL0     O97326   4.740   2.017   0.721  0.3080 -0.3141 -0.2907
  706MOL0     C97327   4.849   2.079   0.787 -1.0067 -0.1579 -0.2156
  706MOL0     C97328   4.975   2.025   0.727 -1.1380  0.5746  0.1178
  706MOL0     C97329   5.093   2.077   0.808 -0.5660 -0.6127 -0.3325
  706MOL0     C97330   5.236   2.076   0.740  0.4936  0.0260 -0.4105
  706MOL0     C97331   5.343   2.101   0.841 -0.6727  0.2817 -0.7475
  706MOL0     C97332   5.482   2.071   0.790 -1.0002  0.3593  0.7890
  706MOL0     C97333   5.579   2.072   0.909  0.0012 -0.4864 -0.6322
  706MOL0     C97334   5.709   2.009   0.872  0.5615  0.0185 -0.1056
  706MOL0    Cl97335   5.797   2.118   0.763  0.2601  0.3688 -0.0453
  706MOL0     C97336   4.588   2.210   0.781 -0.4480 -0.4550  0.2077
  706MOL0     C97337   4.469   2.273   0.753  0.6687  0.1685  0.3072
  706MOL0     O97338   4.215   2.271   0.419 -0.3875 -0.8538  0.4799
  706MOL0     C97339   3.993   2.419   0.413 -0.3648  0.0991 -0.5587
  706MOL0     C97340   3.864   2.470   0.398 -0.2329  0.3665  0.8217
  706MOL0     N97341   3.210   2.878   0.424  0.4999 -0.6422 -0.1647
  706MOL0     N97342   3.107   2.953   0.460 -0.2966  0.1450 -0.0461
  706MOL0     C97343   1.989   2.473   0.365  0.2093 -0.8343 -0.3763
  706MOL0     C97344   1.918   2.390   0.278 -1.5567  0.3575  0.3389
  706MOL0     C97345   1.655   2.230  -0.052  0.9674  0.5765  0.8414
  706MOL0     C97346   1.537   2.303  -0.054 -0.0808 -0.6445 -0.0188
  706MOL0     C97347   1.438   2.278  -0.148  0.1732  0.4242 -0.1978
  706MOL0     C97348   1.464   2.188  -0.258 -0.7306 -0.3352  0.0442
  706MOL0     O97349   1.360   2.176  -0.350 -0.4012  0.6374  0.5657
  706MOL0     C97350   1.395   2.109  -0.474  0.1201 -0.3570  0.2427
  706MOL0     C97351   1.484   2.204  -0.552  0.5485  0.3944  0.6686
  706MOL0     C97352   1.417   2.335  -0.602 -0.5856 -0.5891  0.0501
  706MOL0     C97353   1.313   2.305  -0.706 -0.1972 -0.0622 -0.4940
  706MOL0     C97354   1.280   2.442  -0.754 -0.0705 -0.0634  0.7496
  706MOL0     C97355   1.247   2.548  -0.793  0.8330 -0.2551 -0.2911
  706MOL0     C97356   1.579   2.119  -0.258 -0.1319  0.3423  0.4161
  706MOL0     C97357   1.680   2.137  -0.155 -0.8486  0.4538  0.2431
  706MOL0     C97358   1.806   2.062  -0.152 -0.3161 -0.0866 -0.8334
  706MOL0     H97359   1.613   2.511   0.289 -0.4741 -1.3352  1.5258
  706MOL0     H97360   1.721   2.639   0.487 -0.3862  0.4202 -0.2975
  706MOL0     H97361   2.179   2.621   0.482 -0.3667 -1.2446  0.4815
  706MOL0     H97362   2.135   2.532   0.633 -1.0499 -1.0625 -0.5111
  706MOL0     H97363   2.133   2.840   0.591 -2.8294 -1.9430 -0.4928
  706MOL0     H97364   2.126   2.770   0.740  1.5206  0.9066  1.9140
  706MOL0     H97365   2.332   2.830   0.745 -1.2739 -0.5768 -0.1907
  706MOL0     H97366   2.358   2.669   0.692 -0.8427  0.2250  1.0579
  706MOL0     H97367   2.356   2.806   0.448  1.3259 -2.0026  0.5750
  706MOL0     H97368   2.378   2.941   0.547 -2.0551 -0.4590  0.9379
  706MOL0     H97369   2.534   2.685   0.552 -1.0338  0.2575  1.5612
  706MOL0     H97370   2.563   2.819   0.668  1.4577  1.7037 -0.7541
  706MOL0     H97371   2.620   2.826   0.359 -0.3160  5.2713 -2.1550
  706MOL0     H97372   2.603   2.969   0.463 -0.7571 -0.6320 -0.2904
  706MOL0     H97373   2.792   2.740   0.511 -3.2078 -0.5991 -0.6116
  706MOL0     H97374   2.795   2.878   0.607  1.2490 -0.5598 -0.9482
  706MOL0     H97375   2.808   2.962   0.323 -0.9824 -2.1276  0.2332
  706MOL0     H97376   2.864   3.035   0.474 -1.8125  1.1940 -1.5725
  706MOL0     H97377   2.986   2.738   0.244  1.0204 -1.0369 -0.3893
  706MOL0     H97378   3.231   2.716   0.145 -0.0954 -1.3065  0.0969
  706MOL0     H97379   3.217   2.586   0.268 -2.4770  0.2566 -0.2372
  706MOL0     H97380   3.440   2.629   0.183  2.4558  1.3320  0.5139
  706MOL0     H97381   3.452   2.790   0.269  1.4692 -0.4303 -1.0594
  706MOL0     H97382   3.445   2.696   0.472  2.4985 -0.1677  0.1149
  706MOL0     H97383   3.378   2.545   0.429  1.3228 -1.8491  0.5183
  706MOL0     H97384   3.590   2.469   0.315 -1.2019  0.2420  0.4757
  706MOL0     H97385   3.654   2.635   0.326 -3.0651  2.2286 -0.6554
  706MOL0     H97386   3.746   2.407   0.703 -0.6673 -1.8137 -1.2684
  706MOL0     H97387   4.044   2.206   0.771 -3.2124 -2.1261  2.3072
  706MOL0     H97388   3.884   2.260   0.820  0.0186  0.3757  0.2486
  706MOL0     H97389   4.015   2.364   0.855 -1.8675 -0.3759  2.9464
  706MOL0     H97390   4.357   2.070   0.498 -0.2358  1.1128 -1.1543
  706MOL0     H97391   4.559   1.951   0.584 -3.2745 -3.1995  3.2114
  706MOL0     H97392   4.854   2.187   0.775  4.3469 -0.1788 -0.7765
  706MOL0     H97393   4.852   2.046   0.892  0.8840  1.3858  0.2810
  706MOL0     H97394   4.967   1.917   0.744  1.0751  0.8302  4.0093
  706MOL0     H97395   4.983   2.053   0.622  3.2059 -4.1046 -1.2360
  706MOL0     H97396   5.096   2.016   0.899  2.1148  0.8244  0.6571
  706MOL0     H97397   5.088   2.182   0.840  2.8132  0.3229 -2.4301
  706MOL0     H97398   5.250   2.158   0.669 -4.9424  2.6625  1.0410
  706MOL0     H97399   5.262   1.978   0.697  0.5113  0.6145 -1.8158
  706MOL0     H97400   5.335   2.202   0.883  0.9256  0.0602  0.1809
  706MOL0     H97401   5.334   2.038   0.930  1.3224  0.9598 -0.0162
  706MOL0     H97402   5.516   2.146   0.718  2.0896 -1.2345  0.4663
  706MOL0     H97403   5.499   1.977   0.737 -0.0199 -1.4569  4.0364
  706MOL0     H97404   5.548   2.033   1.007 -1.4342  2.5748  0.2470
  706MOL0     H97405   5.590   2.177   0.936 -2.4633 -0.4486  0.5292
  706MOL0     H97406   5.688   1.912   0.826 -1.5961 -0.4240  1.6594
  706MOL0     H97407   5.770   1.979   0.957 -0.0169 -1.7331 -0.2703
  706MOL0     H97408   4.658   2.268   0.841 -1.5373 -0.0047  1.0896
  706MOL0     H97409   4.444   2.362   0.810  1.6023  1.9193 -1.8388
  706MOL0     H97410   4.061   2.422   0.328 -0.2355  0.5273 -0.4452
  706MOL0     H97411   3.843   2.507   0.298  1.2768  2.0375  1.0731
  706MOL0     H97412   2.095   2.450   0.375  0.3928 -0.3386 -1.1229
  706MOL0     H97413   1.980   2.311   0.238 -0.9133  0.3104  1.4153
  706MOL0     H97414   1.516   2.388   0.011 -1.8547 -0.2668 -0.9954
  706MOL0     H97415   1.344   2.331  -0.137  0.7021  1.4491 -0.5000
  706MOL0     H97416   1.443   2.013  -0.457 -0.5902 -0.7042  0.3467
  706MOL0     H97417   1.306   2.084  -0.533 -0.7799 -0.6404  1.6809
  706MOL0     H97418   1.528   2.151  -0.637  0.3370  1.8690 -0.3971
  706MOL0     H97419   1.571   2.241  -0.496  1.2081 -0.6433  0.3601
  706MOL0     H97420   1.371   2.387  -0.518 -0.6539 -1.4922  0.5845
  706MOL0     H97421   1.492   2.405  -0.640  0.6648 -1.8313  0.1582
  706MOL0     H97422   1.229   2.254  -0.656  0.5461 -2.0755 -1.1867
  706MOL0     H97423   1.359   2.246  -0.785  2.0569  1.7705 -0.6384
  706MOL0     H97424   1.214   2.642  -0.831 -0.5435  0.0104  1.4302
  706MOL0     H97425   1.608   2.043  -0.329  1.4549 -0.1644  1.5284
  706MOL0     H97426   1.811   1.980  -0.224 -0.5944  0.1983 -1.1845
  706MOL0     H97427   1.891   2.121  -0.187 -1.1878  1.5729 -0.2821
  706MOL0     H97428   1.812   2.032  -0.047  1.9586  1.7575 -0.3555
  707MOL0     O97429   3.102  10.472   5.366  0.6138  0.0258  0.2379
  707MOL0     C97430   3.117  10.551   5.275 -0.3216 -0.0618  0.3461
  707MOL0     O97431   3.238  10.592   5.229  0.4481  0.4294  0.4964
  707MOL0     C97432   3.345  10.508   5.254 -0.0259 -1.3250 -0.1481
  707MOL0     C97433   3.417  10.538   5.369 -0.1721  0.0277  0.4172
  707MOL0     C97434   3.533  10.462   5.409  0.6536 -0.1599 -0.2843
  707MOL0     C97435   3.568  10.356   5.322 -0.2010 -0.2306  0.2355
  707MOL0     O97436   3.672  10.267   5.353  0.5068 -0.2934  0.1730
  707MOL0     C97437   3.665  10.141   5.304  0.7854  0.3381  0.0079
  707MOL0     C97438   3.781  10.063   5.361 -0.0243  0.5041 -0.4908
  707MOL0     C97439   3.831   9.949   5.263  0.4100 -0.2495  0.2537
  707MOL0     C97440   3.906   9.836   5.336 -0.1755 -0.2329 -0.9324
  707MOL0     C97441   3.937   9.734   5.235 -0.4488  0.5179  0.6642
  707MOL0     C97442   3.962   9.592   5.300  0.3068  0.8529 -0.5001
  707MOL0     C97443   4.013   9.486   5.199 -1.1493  0.0280 -0.8471
  707MOL0     C97444   4.070   9.353   5.263  0.2455  0.3050  0.1009
  707MOL0     N97445   4.140   9.280   5.156 -0.3960  0.7827  0.2500
  707MOL0     C97446   4.275   9.281   5.126  0.2640  0.0769 -0.4008
  707MOL0     C97447   4.295   9.189   5.028  0.2133 -0.1505  0.2709
  707MOL0     C97448   4.426   9.145   4.965  0.3193  0.0693 -0.0952
  707MOL0     C97449   4.426   8.996   4.971 -0.0186 -0.0279 -0.0660
  707MOL0     C97450   4.418   8.937   5.116 -0.0073  0.8251  0.7234
  707MOL0     C97451   4.515   9.005   5.212  0.4671  0.6903 -0.1017
  707MOL0     O97452   4.644   9.025   5.156 -0.4303 -0.3656 -0.5850
  707MOL0     C97453   4.748   8.934   5.164  0.5668  0.0894 -0.5799
  707MOL0     C97454   4.864   8.976   5.099  0.4203 -0.0545 -0.7589
  707MOL0     C97455   4.973   8.889   5.089  0.6346 -0.1246 -0.5686
  707MOL0     C97456   5.095   8.963   5.039  0.8323 -1.0686 -0.7932
  707MOL0     C97457   4.963   8.757   5.143 -0.1064  0.6784 -0.3688
  707MOL0     C97458   5.079   8.673   5.141 -0.1456  0.7599 -0.9116
  707MOL0     O97459   5.057   8.566   5.228 -0.4930 -0.3090  0.2145
  707MOL0     C97460   5.164   8.480   5.256  0.3476 -0.0791  0.8927
  707MOL0     C97461   5.289   8.522   5.305  0.2765 -0.4867  0.6182
  707MOL0     C97462   5.388   8.414   5.314  0.1952  0.6085 -0.1181
  707MOL0     C97463   5.363   8.279   5.293  0.0712  0.7094  0.1196
  707MOL0     O97464   5.455   8.179   5.325 -0.3217 -0.0355 -0.2808
  707MOL0     C97465   5.494   8.153   5.455  0.1507  0.0063  0.7103
  707MOL0     C97466   5.576   8.028   5.454 -0.4471 -0.1195  1.6977
  707MOL0     C97467   5.715   8.037   5.381  0.7864 -0.3491 -0.5218
  707MOL0     C97468   5.758   7.884   5.385  0.2951 -0.1152 -0.5501
  707MOL0     C97469   5.892   7.859   5.331 -0.2522  0.4442  0.6184
  707MOL0     C97470   5.902   7.893   5.184 -0.2005  0.2777  1.2524
  707MOL0     C97471   6.039   7.860   5.123 -0.1689  0.0029 -0.8180
  707MOL0     C97472   6.052   7.898   4.977 -0.7619  0.0179  0.4023
  707MOL0    Cl97473   6.117   8.071   4.975 -0.0612 -0.1152  0.0150
  707MOL0     C97474   5.238   8.240   5.247  0.4963 -0.0180 -0.4336
  707MOL0     C97475   5.144   8.344   5.228  0.0188  0.2734  0.1189
  707MOL0     O97476   5.172   8.693   5.068 -0.4361  0.3907  0.3993
  707MOL0     C97477   4.845   8.724   5.208  0.2763  0.3006  1.0268
  707MOL0     C97478   4.736   8.804   5.219  1.4002  0.0457  0.6008
  707MOL0     N97479   4.170   9.140   4.995  0.4738  0.6849  0.3999
  707MOL0     N97480   4.080   9.185   5.078 -0.1364  0.6170 -0.4230
  707MOL0     C97481   3.502  10.341   5.198  0.8205 -0.0442 -0.2537
  707MOL0     C97482   3.385  10.405   5.164 -0.2420 -0.7594 -0.0562
  707MOL0     C97483   2.992  10.608   5.204 -0.7541 -0.7509  0.9036
  707MOL0     C97484   3.018  10.718   5.123  0.3479  0.4265  0.5343
  707MOL0     C97485   2.911  10.798   5.077  0.9954 -0.5121 -0.3179
  707MOL0     C97486   2.778  10.761   5.112 -0.6572 -0.3798 -0.8249
  707MOL0     O97487   2.683  10.849   5.077  0.2551 -0.4196  1.0266
  707MOL0     C97488   2.542  10.834   5.104  0.0429 -0.4630 -0.3230
  707MOL0     C97489   2.525  10.878   5.252  0.1167  0.0271 -0.3328
  707MOL0     C97490   2.377  10.871   5.288 -0.0783 -0.1138  0.3971
  707MOL0     C97491   2.351  10.861   5.434  0.7126 -0.2636  1.1533
  707MOL0     C97492   2.208  10.842   5.463 -0.4559 -0.6033  0.8070
  707MOL0     C97493   2.085  10.822   5.472 -0.2059  0.1959 -0.5630
  707MOL0     C97494   2.760  10.647   5.184 -0.0917  0.0296 -0.0110
  707MOL0     C97495   2.861  10.557   5.221 -0.1710 -0.1527 -0.0751
  707MOL0     C97496   2.823  10.417   5.281  0.2161 -1.0234  0.4973
  707MOL0     H97497   3.387  10.621   5.434  2.3027 -0.9691  3.0784
  707MOL0     H97498   3.580  10.476   5.506 -1.1863 -0.3720  0.6758
  707MOL0     H97499   3.673  10.140   5.195 -1.9537 -2.1210 -0.3122
  707MOL0     H97500   3.567  10.099   5.330  0.0875  2.2021  0.5666
  707MOL0     H97501   3.855  10.139   5.389  0.1819 -0.2956  1.2825
  707MOL0     H97502   3.742  10.023   5.455 -1.9285  1.4667 -0.8300
  707MOL0     H97503   3.743   9.915   5.208 -0.2451  3.6038 -1.3750
  707MOL0     H97504   3.894   9.998   5.189 -1.3456  1.1058 -0.4217
  707MOL0     H97505   3.991   9.872   5.394 -2.2430  4.5085 -0.3509
  707MOL0     H97506   3.834   9.807   5.413  0.2105 -0.2542 -0.5765
  707MOL0     H97507   4.032   9.749   5.184 -1.9288 -0.0645 -2.5048
  707MOL0     H97508   3.856   9.716   5.164 -0.9905 -0.1764  1.4253
  707MOL0     H97509   4.036   9.600   5.381 -0.6695 -0.7808  0.6007
  707MOL0     H97510   3.875   9.545   5.344  3.5261 -3.0260  2.4769
  707MOL0     H97511   4.092   9.539   5.145  0.4878 -0.2997  1.1099
  707MOL0     H97512   3.931   9.473   5.127 -0.9136 -0.8982 -0.9541
  707MOL0     H97513   4.143   9.376   5.342  0.8419 -2.4660  0.4437
  707MOL0     H97514   3.991   9.288   5.301  1.9413 -3.7080 -2.6318
  707MOL0     H97515   4.344   9.346   5.179 -0.1276  0.3774 -0.2551
  707MOL0     H97516   4.507   9.190   5.022  0.9210  1.3881 -1.8814
  707MOL0     H97517   4.437   9.190   4.865  2.2905  0.0941  0.0989
  707MOL0     H97518   4.347   8.958   4.905  0.4968 -1.1181 -0.0821
  707MOL0     H97519   4.515   8.966   4.915 -0.7858 -0.4194 -1.1168
  707MOL0     H97520   4.313   8.933   5.146  0.3892 -3.3533  2.3164
  707MOL0     H97521   4.446   8.831   5.113 -1.2192  0.4793  0.8721
  707MOL0     H97522   4.470   9.099   5.244 -1.8271 -0.0307 -0.9589
  707MOL0     H97523   4.518   8.944   5.303  0.1253 -1.5099 -1.4730
  707MOL0     H97524   4.870   9.076   5.056 -0.5483  0.7161  0.8135
  707MOL0     H97525   5.138   8.901   4.959  3.0092 -1.6128  0.6930
  707MOL0     H97526   5.170   8.985   5.116  2.0782  1.1998 -2.5192
  707MOL0     H97527   5.069   9.060   4.995  2.5474 -0.8331 -1.3906
  707MOL0     H97528   5.309   8.622   5.343 -0.9558 -1.2711  3.6443
  707MOL0     H97529   5.487   8.441   5.348 -0.1190  0.6130  0.7978
  707MOL0     H97530   5.541   8.239   5.505 -2.4228  0.8082  1.9453
  707MOL0     H97531   5.404   8.137   5.514  1.0944 -1.0563  1.9171
  707MOL0     H97532   5.595   7.993   5.556 -0.7856 -0.5754  1.6074
  707MOL0     H97533   5.508   7.952   5.413 -1.3164  0.9244  1.1469
  707MOL0     H97534   5.793   8.096   5.430  0.3296  1.0686 -1.4413
  707MOL0     H97535   5.694   8.077   5.281 -1.7418  3.0103  1.1857
  707MOL0     H97536   5.689   7.822   5.327  0.5683  0.9571 -2.0950
  707MOL0     H97537   5.763   7.852   5.489 -1.2024  0.4852 -0.2680
  707MOL0     H97538   5.961   7.925   5.385 -1.1443  0.0690  2.3089
  707MOL0     H97539   5.914   7.751   5.331  1.4173  0.7318  1.8079
  707MOL0     H97540   5.886   7.996   5.150 -1.5149 -0.8920 -2.0821
  707MOL0     H97541   5.825   7.838   5.129  0.3785  1.8253 -1.2603
  707MOL0     H97542   6.055   7.752   5.128  1.6481  0.2708 -0.2866
  707MOL0     H97543   6.120   7.898   5.185 -0.9333  0.5308 -0.1226
  707MOL0     H97544   5.957   7.893   4.923 -0.1632  0.3479 -0.7207
  707MOL0     H97545   6.121   7.828   4.929 -0.4333  0.2889  0.4735
  707MOL0     H97546   5.204   8.138   5.255  1.1644 -0.0925  3.6216
  707MOL0     H97547   5.047   8.319   5.188  0.8283  0.2107 -1.8968
  707MOL0     H97548   4.823   8.620   5.232 -0.7249  0.7941  2.3168
  707MOL0     H97549   4.647   8.768   5.269  2.1574  2.3987  3.9776
  707MOL0     H97550   3.531  10.265   5.126 -3.6071 -1.0574 -1.2608
  707MOL0     H97551   3.329  10.384   5.074  0.8707  0.2322 -1.0197
  707MOL0     H97552   3.119  10.755   5.106  0.4572  1.9495  3.7073
  707MOL0     H97553   2.925  10.891   5.023  0.5197  0.1591  0.6826
  707MOL0     H97554   2.486  10.903   5.041  0.5051  1.5956  1.3906
  707MOL0     H97555   2.509  10.731   5.088 -2.1957  0.0843  0.4064
  707MOL0     H97556   2.557  10.978   5.281 -2.4999  0.5964  0.8925
  707MOL0     H97557   2.579  10.810   5.319  2.0905 -0.1874 -2.0434
  707MOL0     H97558   2.317  10.944   5.233  2.4631  1.6044 -0.2907
  707MOL0     H97559   2.339  10.774   5.257 -1.3700  0.4100  0.2983
  707MOL0     H97560   2.392  10.957   5.469 -0.8654  1.4850 -1.4511
  707MOL0     H97561   2.418  10.782   5.469  2.5636  1.6455  2.1557
  707MOL0     H97562   1.980  10.809   5.457 -0.3986  0.7187  0.2511
  707MOL0     H97563   2.659  10.611   5.201  0.5457 -0.6464  2.9506
  707MOL0     H97564   2.822  10.401   5.389 -0.2538  0.6825  0.7902
  707MOL0     H97565   2.724  10.402   5.237  1.3061 -0.0324 -2.5726
  707MOL0     H97566   2.887  10.346   5.229 -0.5745 -0.8518 -0.7564
  708MOL0     O97567   1.198   2.076   8.569 -0.1982  1.2325  0.2428
  708MOL0     C97568   1.182   2.068   8.689 -0.5864  0.1111  0.7117
  708MOL0     O97569   1.280   2.025   8.779  0.7929 -0.5823  0.0103
  708MOL0     C97570   1.416   2.032   8.760 -1.1101 -1.2741 -0.0917
  708MOL0     C97571   1.486   1.931   8.833  0.3107 -0.2828  0.3195
  708MOL0     C97572   1.624   1.929   8.838  0.2514  0.0483 -0.4361
  708MOL0     C97573   1.700   2.032   8.766  0.2623  0.3447  0.2088
  708MOL0     O97574   1.838   2.046   8.759 -1.0727  0.2602 -0.5052
  708MOL0     C97575   1.934   1.944   8.818  0.4821 -0.2821  0.4502
  708MOL0     C97576   2.073   1.942   8.745  0.6734  1.1141  0.5072
  708MOL0     C97577   2.141   2.085   8.751  0.1100  0.5995  0.4547
  708MOL0     C97578   2.167   2.129   8.898  0.0104  0.3082  0.0772
  708MOL0     C97579   2.272   2.241   8.906 -0.5026  0.3375  0.2798
  708MOL0     C97580   2.236   2.379   8.851  0.0163 -0.4437 -0.5248
  708MOL0     C97581   2.095   2.431   8.892 -0.0893 -0.6981  0.8295
  708MOL0     C97582   2.056   2.564   8.824 -0.6158 -0.2319 -0.0121
  708MOL0     N97583   2.032   2.561   8.682 -0.6587 -0.2981  0.3876
  708MOL0     C97584   1.969   2.455   8.626  0.3483  0.3863  0.6423
  708MOL0     C97585   1.995   2.462   8.497  0.7506  1.0532 -1.1644
  708MOL0     C97586   1.967   2.364   8.384  0.3773 -0.7895  0.0476
  708MOL0     C97587   2.102   2.301   8.337  0.6792 -0.1540  0.5233
  708MOL0     C97588   2.208   2.249   8.439 -0.1544 -0.8679  0.1233
  708MOL0     C97589   2.338   2.233   8.361  0.6406  0.0831 -0.3108
  708MOL0     O97590   2.445   2.184   8.458  0.7878  0.2472 -0.3984
  708MOL0     C97591   2.506   2.270   8.547  0.1696  0.1969  0.2392
  708MOL0     C97592   2.477   2.410   8.569 -0.0621  0.6203 -0.1283
  708MOL0     C97593   2.527   2.476   8.677  0.4493 -0.1846  0.1161
  708MOL0     C97594   2.493   2.619   8.698  0.0464 -0.3515  0.1986
  708MOL0     C97595   2.627   2.410   8.755  0.1157  0.3191 -0.9005
  708MOL0     C97596   2.708   2.487   8.857  0.3068  0.5981 -0.5218
  708MOL0     O97597   2.758   2.603   8.806 -0.5100 -0.0043  0.4446
  708MOL0     C97598   2.823   2.699   8.876 -0.6811  0.1910  0.0687
  708MOL0     C97599   2.823   2.717   9.020 -0.3917  0.0856  0.4559
  708MOL0     C97600   2.901   2.825   9.079  0.5004  0.6321  0.0357
  708MOL0     C97601   2.972   2.905   8.985 -0.5438  0.1684  0.3992
  708MOL0     O97602   3.055   3.007   9.018 -0.7410  0.2917 -0.3872
  708MOL0     C97603   3.089   3.019   9.157 -0.2016 -0.1055  1.1341
  708MOL0     C97604   3.194   3.123   9.173  0.7264 -0.0362  0.0829
  708MOL0     C97605   3.231   3.147   9.315  0.2523  0.4216 -0.1288
  708MOL0     C97606   3.314   3.034   9.368  0.1726 -0.3755 -0.0513
  708MOL0     C97607   3.378   3.081   9.494  0.3260  0.7446 -0.0914
  708MOL0     C97608   3.442   2.963   9.563  0.0741 -0.6018 -1.2304
  708MOL0     C97609   3.524   3.008   9.690  0.0771  0.3630 -0.6695
  708MOL0     C97610   3.563   2.893   9.792 -0.2673 -0.4123 -0.2359
  708MOL0    Cl97611   3.433   2.774   9.838  0.0133  0.3552 -0.2177
  708MOL0     C97612   2.977   2.878   8.843 -1.4698  0.3280 -0.2950
  708MOL0     C97613   2.908   2.773   8.796  0.5570  0.0762 -0.1517
  708MOL0     O97614   2.726   2.446   8.972  0.6824  0.5865 -0.6036
  708MOL0     C97615   2.652   2.276   8.733  0.6662  0.0416  0.1013
  708MOL0     C97616   2.593   2.210   8.634  0.4414  0.1334  0.1685
  708MOL0     N97617   2.081   2.565   8.482 -0.0246  0.5896 -0.5101
  708MOL0     N97618   2.094   2.634   8.590 -0.4437  0.3811 -0.1008
  708MOL0     C97619   1.633   2.114   8.679  0.5652 -0.4901 -0.7567
  708MOL0     C97620   1.492   2.120   8.676  0.4070 -0.8131 -0.6962
  708MOL0     C97621   1.041   2.091   8.744  0.7740  0.0655  0.7945
  708MOL0     C97622   0.999   2.043   8.868  0.7816  0.0656 -0.0428
  708MOL0     C97623   0.868   2.068   8.913 -0.1745 -0.5323  1.3751
  708MOL0     C97624   0.775   2.139   8.842 -0.2170 -1.2088 -0.1188
  708MOL0     O97625   0.650   2.168   8.879 -0.7086  0.0713 -0.4412
  708MOL0     C97626   0.601   2.105   9.000 -0.3174  0.5910 -0.0022
  708MOL0     C97627   0.451   2.130   9.024  0.4364  0.9284  0.1304
  708MOL0     C97628   0.364   2.088   8.907  0.9459 -0.6914  0.4380
  708MOL0     C97629   0.335   1.934   8.884  0.1698 -0.1466  0.4480
  708MOL0     C97630   0.299   1.864   9.009 -0.0030 -0.6630  0.0123
  708MOL0     C97631   0.272   1.815   9.117  0.7981  0.3379 -0.2595
  708MOL0     C97632   0.804   2.177   8.710  1.4872  0.0203 -0.5932
  708MOL0     C97633   0.938   2.157   8.658 -0.1787  0.6155 -0.3695
  708MOL0     C97634   0.950   2.194   8.512  0.4119  0.2499 -0.6702
  708MOL0     H97635   1.431   1.856   8.888  0.1557 -2.5719 -2.7055
  708MOL0     H97636   1.677   1.844   8.881  3.1695  0.8792 -2.0453
  708MOL0     H97637   1.885   1.847   8.812  2.2616 -1.3336  1.8363
  708MOL0     H97638   1.945   1.964   8.925 -1.6205 -2.0506  1.0540
  708MOL0     H97639   2.131   1.867   8.799 -0.1794 -1.4855 -1.9128
  708MOL0     H97640   2.061   1.917   8.639  0.4673  2.2885  0.2428
  708MOL0     H97641   2.238   2.086   8.700 -0.7163  4.7417 -1.4317
  708MOL0     H97642   2.074   2.154   8.700 -1.7692  0.0774  2.1039
  708MOL0     H97643   2.077   2.147   8.958  0.1703 -0.9318  0.7307
  708MOL0     H97644   2.206   2.040   8.949  0.1114  1.1047  1.4495
  708MOL0     H97645   2.362   2.212   8.850 -3.6702 -2.6425 -3.9904
  708MOL0     H97646   2.274   2.263   9.013 -1.4926 -0.1703  0.4124
  708MOL0     H97647   2.316   2.445   8.885 -2.1177  1.9311  0.1871
  708MOL0     H97648   2.240   2.384   8.742 -0.6413 -0.7997 -0.5698
  708MOL0     H97649   2.095   2.441   9.001 -0.3492 -1.8590  0.9461
  708MOL0     H97650   2.023   2.353   8.867  1.7143 -2.6910  1.5587
  708MOL0     H97651   1.960   2.596   8.865  0.1043 -0.1590  1.6854
  708MOL0     H97652   2.138   2.631   8.849  1.1716 -2.4902  0.4993
  708MOL0     H97653   1.913   2.380   8.680 -1.0258  1.9774  1.5361
  708MOL0     H97654   1.922   2.425   8.305  0.0123 -0.0422  0.8162
  708MOL0     H97655   1.889   2.296   8.420 -0.8330  1.1746  1.3798
  708MOL0     H97656   2.063   2.214   8.283  0.3299 -0.3808  1.1324
  708MOL0     H97657   2.151   2.374   8.272 -3.0107  2.7080  0.6160
  708MOL0     H97658   2.208   2.328   8.515 -0.8232  0.7540 -1.4817
  708MOL0     H97659   2.180   2.153   8.483 -1.4128 -0.6831 -0.2308
  708MOL0     H97660   2.328   2.153   8.288  0.1859 -2.2770  2.1787
  708MOL0     H97661   2.367   2.331   8.320  0.3581 -0.3703 -1.6241
  708MOL0     H97662   2.430   2.459   8.484  3.3512  0.9404 -2.0025
  708MOL0     H97663   2.484   2.637   8.806 -1.8064 -0.5578  0.0951
  708MOL0     H97664   2.394   2.638   8.657  0.3394 -0.2257 -0.4680
  708MOL0     H97665   2.567   2.687   8.654 -3.0562  1.8340 -1.9921
  708MOL0     H97666   2.765   2.658   9.090  1.5053  0.9472  2.8639
  708MOL0     H97667   2.881   2.859   9.180  0.9464 -0.1077  0.3907
  708MOL0     H97668   3.000   3.055   9.210 -0.4612 -0.7349  1.1359
  708MOL0     H97669   3.118   2.925   9.205 -0.2250  0.4500  2.2854
  708MOL0     H97670   3.285   3.102   9.115  0.6860  0.4689 -0.1682
  708MOL0     H97671   3.153   3.211   9.122  0.6635 -0.4466 -0.5851
  708MOL0     H97672   3.138   3.164   9.370 -0.4773 -2.7776 -0.1410
  708MOL0     H97673   3.291   3.237   9.334  2.1929 -1.4460  4.1894
  708MOL0     H97674   3.393   3.006   9.298  1.1237  0.3430  0.7250
  708MOL0     H97675   3.248   2.950   9.395  0.8031 -0.5818  0.8893
  708MOL0     H97676   3.437   3.170   9.472 -0.6884  1.0979 -1.5125
  708MOL0     H97677   3.305   3.116   9.567 -0.4322 -1.5460  0.3140
  708MOL0     H97678   3.511   2.911   9.496  1.9609 -0.4555  0.4991
  708MOL0     H97679   3.353   2.905   9.588 -1.5984  1.2648 -2.5524
  708MOL0     H97680   3.474   3.087   9.747  2.0706  1.6360 -0.5845
  708MOL0     H97681   3.615   3.051   9.649  0.9476  1.0644  1.8365
  708MOL0     H97682   3.591   2.949   9.881 -1.6601  1.1792 -0.7362
  708MOL0     H97683   3.647   2.830   9.762 -0.6940 -0.6561 -0.9678
  708MOL0     H97684   3.044   2.939   8.783  0.1464  1.6475  2.6441
  708MOL0     H97685   2.908   2.737   8.693 -1.1123 -4.2468  1.1487
  708MOL0     H97686   2.719   2.215   8.793 -1.2172 -3.1006 -0.7566
  708MOL0     H97687   2.600   2.105   8.606 -2.4017 -0.6038  1.8312
  708MOL0     H97688   1.688   2.190   8.625  0.5803 -1.7902 -2.7076
  708MOL0     H97689   1.439   2.192   8.615  1.8845  0.5452 -0.4532
  708MOL0     H97690   1.077   1.992   8.923  0.3242 -0.2755  0.2885
  708MOL0     H97691   0.836   2.028   9.009 -1.3511 -0.9405  0.8206
  708MOL0     H97692   0.611   1.997   8.993  1.9787  0.8614 -1.8972
  708MOL0     H97693   0.640   2.139   9.096 -3.1449 -2.7886  2.6377
  708MOL0     H97694   0.438   2.239   9.027 -0.0421  0.9911 -2.2277
  708MOL0     H97695   0.425   2.080   9.117  2.7799 -2.3612 -0.8039
  708MOL0     H97696   0.266   2.137   8.904  0.9089 -0.7752  0.2282
  708MOL0     H97697   0.404   2.145   8.823 -3.3287  0.2297 -1.2661
  708MOL0     H97698   0.415   1.868   8.849  0.0677 -1.5826  2.7018
  708MOL0     H97699   0.250   1.933   8.816  1.6666 -0.0804 -1.5207
  708MOL0     H97700   0.226   1.767   9.200 -1.8293  1.2777 -1.0883
  708MOL0     H97701   0.720   2.221   8.656 -0.1610  0.1475  1.9199
  708MOL0     H97702   1.041   2.252   8.498  0.8676 -0.2233  0.2411
  708MOL0     H97703   0.962   2.110   8.443  1.8552  1.6220 -2.1461
  708MOL0     H97704   0.863   2.255   8.484  0.6312  0.7901 -0.1864
  709MOL0     O97705   6.828  10.747   8.927 -0.2855  0.7011  0.5728
  709MOL0     C97706   6.859  10.672   8.830  0.4508  0.3366 -0.3286
  709MOL0     O97707   6.964  10.586   8.838  0.4075 -0.2280 -0.1600
  709MOL0     C97708   7.043  10.586   8.954 -0.3150 -0.6450  0.0957
  709MOL0     C97709   7.179  10.564   8.930 -0.2429  0.4106 -0.3970
  709MOL0     C97710   7.277  10.558   9.037  0.0401  0.3480  0.1099
  709MOL0     C97711   7.233  10.549   9.177  0.0210  0.1885  1.1817
  709MOL0     O97712   7.313  10.514   9.286  0.5062 -0.5531  0.2206
  709MOL0     C97713   7.456  10.484   9.271  0.6811 -0.3545 -0.4576
  709MOL0     C97714   7.537  10.613   9.284 -0.8318 -0.4443 -0.3536
  709MOL0     C97715   7.662  10.608   9.199  0.7149 -0.2063 -0.2636
  709MOL0     C97716   7.755  10.733   9.234  0.0182  0.5037 -0.6377
  709MOL0     C97717   7.885  10.731   9.147  1.9154  0.2843  0.1081
  709MOL0     C97718   7.981  10.849   9.166 -0.5103  0.0755  1.2947
  709MOL0     C97719   8.074  10.852   9.047 -0.6747  0.3624 -0.3647
  709MOL0     C97720   8.194  10.934   9.076  1.2891  0.3198  0.2999
  709MOL0     N97721   8.282  10.935   8.963 -0.6302 -0.6149  0.0980
  709MOL0     C97722   8.355  10.828   8.908  0.6749  0.1023 -0.0568
  709MOL0     C97723   8.397  10.880   8.793 -0.5553  0.2777  1.1083
  709MOL0     C97724   8.495  10.821   8.696  0.9469 -0.7628  0.7149
  709MOL0     C97725   8.414  10.728   8.606 -0.2635 -0.3618 -0.1605
  709MOL0     C97726   8.303  10.787   8.514  0.1975 -0.1414 -0.8945
  709MOL0     C97727   8.350  10.881   8.410 -0.4463  0.7052 -0.3714
  709MOL0     O97728   8.478  10.843   8.349  0.0012  0.1896  0.1364
  709MOL0     C97729   8.474  10.757   8.246  0.1141  0.3396  0.8339
  709MOL0     C97730   8.597  10.726   8.192  0.3120 -0.4534 -0.2278
  709MOL0     C97731   8.611  10.642   8.085  0.2042  0.8187  0.4690
  709MOL0     C97732   8.752  10.624   8.032  0.0099  0.3338 -0.4129
  709MOL0     C97733   8.494  10.585   8.017 -0.6159  1.2222  0.6445
  709MOL0     C97734   8.500  10.493   7.899 -0.2777 -0.1371  0.3149
  709MOL0     O97735   8.609  10.402   7.893  0.1849 -0.3345 -0.1287
  709MOL0     C97736   8.613  10.318   7.788  0.7730  1.1213  0.5818
  709MOL0     C97737   8.681  10.346   7.674 -0.7107  0.4518  0.6320
  709MOL0     C97738   8.697  10.250   7.575  0.0507 -0.0103 -1.0244
  709MOL0     C97739   8.654  10.118   7.592  0.1537  0.4155  0.3756
  709MOL0     O97740   8.665  10.020   7.492 -0.2747 -0.6728  0.1899
  709MOL0     C97741   8.631  10.045   7.356  0.0785  0.2569  0.6297
  709MOL0     C97742   8.556   9.918   7.297  0.1744  0.6219  0.2530
  709MOL0     C97743   8.472   9.839   7.395  0.3590  1.0364  0.3061
  709MOL0     C97744   8.349   9.919   7.441 -0.8299  0.3191 -0.0870
  709MOL0     C97745   8.240   9.844   7.524 -0.9348  1.2032  0.7342
  709MOL0     C97746   8.272   9.830   7.672 -0.1312  0.8351  0.4884
  709MOL0     C97747   8.152   9.772   7.754  0.2820 -0.1578 -0.2855
  709MOL0     C97748   8.141   9.620   7.746 -0.2827 -0.4849 -0.8987
  709MOL0    Cl97749   8.282   9.543   7.812 -0.0613  0.3801 -0.1179
  709MOL0     C97750   8.573  10.085   7.702 -0.1642  0.0912  0.4445
  709MOL0     C97751   8.548  10.186   7.795  0.3964 -0.2072  0.1198
  709MOL0     O97752   8.414  10.505   7.814  0.1365  0.6234 -0.2513
  709MOL0     C97753   8.373  10.617   8.076  0.0351  0.1892  0.0697
  709MOL0     C97754   8.363  10.696   8.190  0.5170 -0.2614  0.3688
  709MOL0     N97755   8.353  11.007   8.774 -0.5331 -0.9380 -0.2436
  709MOL0     N97756   8.290  11.041   8.884 -0.1542  0.3687 -0.2467
  709MOL0     C97757   7.095  10.560   9.198 -0.1563 -0.5789  1.3487
  709MOL0     C97758   7.003  10.578   9.091 -0.2309  0.4410  0.2119
  709MOL0     C97759   6.785  10.679   8.700  0.5831 -0.1270  0.2132
  709MOL0     C97760   6.831  10.609   8.597  0.1831  0.3805  0.6098
  709MOL0     C97761   6.783  10.624   8.467  0.8846 -0.2011  0.3442
  709MOL0     C97762   6.667  10.704   8.445 -0.6249 -0.2643  0.4334
  709MOL0     O97763   6.598  10.714   8.324  0.3849  0.1398 -0.3315
  709MOL0     C97764   6.648  10.652   8.205 -0.6587 -1.3252  0.4555
  709MOL0     C97765   6.599  10.502   8.188  0.1132  0.3033 -0.8010
  709MOL0     C97766   6.604  10.451   8.041 -0.0434  0.1840  0.1515
  709MOL0     C97767   6.572  10.300   8.037  0.2048 -0.2680  1.0435
  709MOL0     C97768   6.568  10.244   7.898 -0.5127 -0.6392 -0.9230
  709MOL0     C97769   6.557  10.194   7.789 -0.7272  0.4348  0.1299
  709MOL0     C97770   6.607  10.771   8.545  0.3201 -0.3201 -0.4107
  709MOL0     C97771   6.665  10.757   8.677 -0.1088 -0.5396 -0.4185
  709MOL0     C97772   6.591  10.815   8.794  0.4107  0.3171 -0.7661
  709MOL0     H97773   7.203  10.556   8.824  0.4951  0.7822 -0.2680
  709MOL0     H97774   7.381  10.531   9.022 -0.3446 -2.5282  1.6810
  709MOL0     H97775   7.484  10.430   9.180  0.7848 -1.3703  0.1599
  709MOL0     H97776   7.480  10.417   9.354 -1.3071 -1.3280 -0.6083
  709MOL0     H97777   7.462  10.690   9.262  0.0234  0.1711 -1.1745
  709MOL0     H97778   7.581  10.620   9.384  0.1643  0.4996 -0.8451
  709MOL0     H97779   7.708  10.511   9.223 -0.5508 -0.8643 -0.3904
  709MOL0     H97780   7.631  10.613   9.094  0.4921 -4.4573 -0.5787
  709MOL0     H97781   7.698  10.827   9.230  2.4145  2.1814  1.5851
  709MOL0     H97782   7.788  10.727   9.338 -3.2460  3.1390  0.7529
  709MOL0     H97783   7.840  10.733   9.047  2.0562  0.7526  0.0504
  709MOL0     H97784   7.945  10.642   9.165  2.1529  0.4169 -0.0205
  709MOL0     H97785   7.924  10.942   9.179 -1.1785 -0.3520  1.4792
  709MOL0     H97786   8.049  10.844   9.252  2.2086  0.4321 -0.7014
  709MOL0     H97787   8.022  10.909   8.969 -0.0763  0.8993 -0.3713
  709MOL0     H97788   8.109  10.750   9.029  5.0842  1.3345  2.9965
  709MOL0     H97789   8.157  11.035   9.098 -1.4851 -0.7321  0.8604
  709MOL0     H97790   8.250  10.903   9.164  1.3296  0.6097  0.3786
  709MOL0     H97791   8.382  10.736   8.959 -1.1110 -0.3056  0.2176
  709MOL0     H97792   8.564  10.756   8.752  1.1943  0.9207  2.4741
  709MOL0     H97793   8.555  10.901   8.654 -1.0657  1.0770  1.1487
  709MOL0     H97794   8.484  10.657   8.562  2.7696  1.5671  1.1844
  709MOL0     H97795   8.351  10.670   8.674 -2.4313  4.3050  2.3414
  709MOL0     H97796   8.250  10.701   8.472  1.1158 -1.8981  1.3163
  709MOL0     H97797   8.236  10.845   8.576 -1.7189 -2.2390 -0.8812
  709MOL0     H97798   8.276  10.892   8.330  1.7074 -0.3536 -2.6651
  709MOL0     H97799   8.364  10.979   8.454 -0.4109 -0.5981  2.7598
  709MOL0     H97800   8.690  10.754   8.240  1.1598  1.5054 -2.7349
  709MOL0     H97801   8.788  10.532   8.078 -1.4886 -0.4729 -0.8163
  709MOL0     H97802   8.835  10.695   8.045  0.1874  0.0743 -0.1086
  709MOL0     H97803   8.738  10.619   7.924  0.5767 -3.6583 -0.4220
  709MOL0     H97804   8.723  10.445   7.659 -0.3373  0.1649 -0.3327
  709MOL0     H97805   8.750  10.264   7.482 -4.0598 -2.2562 -4.0254
  709MOL0     H97806   8.565  10.131   7.340  0.3353  1.0748  3.3911
  709MOL0     H97807   8.723  10.053   7.297 -0.1310  2.0711  0.4975
  709MOL0     H97808   8.490   9.950   7.216  0.2508  2.1149  0.7290
  709MOL0     H97809   8.631   9.852   7.253 -1.6760  0.0109 -2.1839
  709MOL0     H97810   8.532   9.795   7.476  1.3876  0.1724 -0.8658
  709MOL0     H97811   8.442   9.752   7.335  4.3681  2.0909 -3.8183
  709MOL0     H97812   8.295   9.957   7.354  1.4374  1.2684 -1.1719
  709MOL0     H97813   8.379  10.003   7.504 -1.5619 -0.6232  1.5850
  709MOL0     H97814   8.146   9.897   7.504 -1.7253 -0.8831 -1.5612
  709MOL0     H97815   8.242   9.745   7.477 -2.2203  0.8783  1.3519
  709MOL0     H97816   8.299   9.928   7.711 -0.1142 -0.6431  4.6494
  709MOL0     H97817   8.356   9.763   7.694 -0.0516 -0.3379 -2.8654
  709MOL0     H97818   8.069   9.826   7.709  2.6783  2.6677 -1.7024
  709MOL0     H97819   8.175   9.809   7.854  2.0142 -0.6750 -0.4543
  709MOL0     H97820   8.144   9.584   7.643  1.2315  0.0669 -1.0733
  709MOL0     H97821   8.055   9.574   7.796  2.3077 -4.0413  0.6860
  709MOL0     H97822   8.526   9.993   7.734 -0.0006  0.2293  1.0841
  709MOL0     H97823   8.487  10.175   7.885  0.5346  1.7565  0.4956
  709MOL0     H97824   8.280  10.575   8.042  0.7314 -2.7283  1.4333
  709MOL0     H97825   8.269  10.719   8.238  2.0194  0.3569  3.2049
  709MOL0     H97826   7.064  10.560   9.302 -2.5484 -0.4390  0.7140
  709MOL0     H97827   6.895  10.587   9.103 -0.0482  1.8834  0.9406
  709MOL0     H97828   6.911  10.537   8.609 -0.6855 -0.5655  0.8542
  709MOL0     H97829   6.815  10.557   8.388 -0.5196  1.3603 -1.6386
  709MOL0     H97830   6.621  10.723   8.125 -0.4906 -0.8397  0.8247
  709MOL0     H97831   6.757  10.651   8.193 -0.7704 -2.1974 -0.6547
  709MOL0     H97832   6.497  10.482   8.223  0.7334 -1.6922 -0.0278
  709MOL0     H97833   6.664  10.443   8.252  0.8649  3.1532  1.2588
  709MOL0     H97834   6.537  10.509   7.976  0.0465 -1.1707 -1.2097
  709MOL0     H97835   6.709  10.456   8.008  0.2622 -2.3684  0.5112
  709MOL0     H97836   6.474  10.273   8.078  0.4758 -0.1743  1.7739
  709MOL0     H97837   6.645  10.249   8.100  0.1348  0.4033  1.6878
  709MOL0     H97838   6.542  10.166   7.687 -1.2691 -1.6234  0.7335
  709MOL0     H97839   6.512  10.820   8.526  0.0685 -1.1828 -1.4608
  709MOL0     H97840   6.575  10.737   8.869  0.7578 -2.0486 -3.0079
  709MOL0     H97841   6.649  10.897   8.837  0.4513  0.0548 -0.3152
  709MOL0     H97842   6.500  10.868   8.763  0.8242  1.1007 -0.6703
  710MOL0     O97843  11.363   3.071   0.109 -0.5157 -0.2281 -0.0013
  710MOL0     C97844  11.325   3.178   0.156  0.2523  0.4891 -0.0588
  710MOL0     O97845  11.388   3.242   0.259  0.8505 -0.0489 -0.5455
  710MOL0     C97846  11.485   3.167   0.323  0.1012 -0.4158 -0.2674
  710MOL0     C97847  11.605   3.245   0.357  0.5032  0.3446  0.1775
  710MOL0     C97848  11.712   3.193   0.429  0.5626  0.2196  1.5848
  710MOL0     C97849  11.704   3.052   0.459 -0.5666  1.0182  0.1984
  710MOL0     O97850  11.797   2.987   0.537 -0.0074 -0.3896  0.6000
  710MOL0     C97851  11.904   3.069   0.592 -0.1772 -0.4207  0.7190
  710MOL0     C97852  11.974   2.979   0.687  1.1694 -0.1699  0.1131
  710MOL0     C97853  11.905   2.999   0.828 -0.0132 -0.0539 -0.6512
  710MOL0     C97854  11.952   2.894   0.924 -0.1359 -0.2707 -0.1682
  710MOL0     C97855  12.104   2.911   0.958 -0.2573  0.6625  0.5116
  710MOL0     C97856  12.119   3.028   1.055  0.2205 -0.4194 -0.8049
  710MOL0     C97857  12.274   3.054   1.077  0.7519  0.2913  1.0639
  710MOL0     C97858  12.286   3.176   1.177  0.0931 -0.0233 -0.6031
  710MOL0     N97859  12.274   3.311   1.120 -0.0474 -0.2195 -0.5620
  710MOL0     C97860  12.383   3.393   1.084 -0.2683  0.7293  0.5000
  710MOL0     C97861  12.328   3.513   1.046 -0.5973 -0.8308  0.3348
  710MOL0     C97862  12.412   3.627   0.987  0.0109 -0.0872  0.0392
  710MOL0     C97863  12.484   3.595   0.850  0.5119  0.3640 -0.1535
  710MOL0     C97864  12.386   3.557   0.740 -0.2381 -1.1277 -0.4011
  710MOL0     C97865  12.449   3.542   0.601 -0.3596 -0.5457  0.0444
  710MOL0     O97866  12.564   3.467   0.600 -0.1541  0.1037  0.5157
  710MOL0     C97867  12.661   3.479   0.507  0.5169 -0.8128 -0.5097
  710MOL0     C97868  12.640   3.525   0.375 -0.4432 -0.4119  0.5691
  710MOL0     C97869  12.743   3.551   0.291 -0.1118  0.5972  0.6175
  710MOL0     C97870  12.698   3.591   0.140 -0.1862  0.4785 -0.2330
  710MOL0     C97871  12.882   3.544   0.329 -0.3977 -0.6057 -0.1832
  710MOL0     C97872  13.009   3.561   0.249  0.3723  0.1242 -0.6480
  710MOL0     O97873  13.132   3.585   0.309  0.2172 -0.0019  0.0657
  710MOL0     C97874  13.244   3.585   0.222  0.1699  0.4229 -0.7436
  710MOL0     C97875  13.276   3.494   0.122 -0.4353  0.4710 -0.2754
  710MOL0     C97876  13.399   3.489   0.053 -0.4587 -0.2564 -0.2111
  710MOL0     C97877  13.491   3.590   0.084  0.2543 -0.0101 -0.2492
  710MOL0     O97878  13.607   3.615   0.015  0.3800 -0.6210  0.3508
  710MOL0     C97879  13.628   3.538  -0.100  0.5780 -0.2002  0.4957
  710MOL0     C97880  13.749   3.591  -0.178 -0.2405  0.6218  0.0738
  710MOL0     C97881  13.886   3.517  -0.142  0.1455  0.7010  0.1915
  710MOL0     C97882  13.918   3.547   0.007 -0.6129 -0.1480  0.0297
  710MOL0     C97883  14.029   3.458   0.055  0.0694  0.7014  0.9453
  710MOL0     C97884  14.090   3.503   0.178 -0.8316 -0.3478 -0.2141
  710MOL0     C97885  14.223   3.431   0.203  0.5388  0.2747  0.1221
  710MOL0     C97886  14.203   3.341   0.330  0.3755 -0.1929  0.5361
  710MOL0    Cl97887  14.065   3.217   0.289 -0.3467 -0.0312  0.0168
  710MOL0     C97888  13.460   3.690   0.183  0.2758 -0.0929  0.1742
  710MOL0     C97889  13.334   3.686   0.248 -0.0000  0.1099  0.6416
  710MOL0     O97890  12.986   3.558   0.131 -0.5496 -0.2812 -0.8747
  710MOL0     C97891  12.905   3.499   0.462 -0.3453 -0.4017 -0.8637
  710MOL0     C97892  12.796   3.466   0.546  0.0698 -0.6026  0.1961
  710MOL0     N97893  12.188   3.501   1.048  0.6344  0.2721 -0.1568
  710MOL0     N97894  12.158   3.380   1.097  0.2247  0.2073  0.1603
  710MOL0     C97895  11.587   2.977   0.427 -0.0516 -0.4198 -0.1142
  710MOL0     C97896  11.481   3.033   0.366  0.3341 -0.5293  0.3406
  710MOL0     C97897  11.199   3.245   0.102 -0.3157  0.7952  0.0315
  710MOL0     C97898  11.200   3.383   0.094 -0.6629 -0.9422  0.5753
  710MOL0     C97899  11.080   3.457   0.058 -0.7825  0.3767 -0.8972
  710MOL0     C97900  10.966   3.389   0.033  0.9579 -0.8669  0.8041
  710MOL0     O97901  10.864   3.468  -0.015  0.4747  0.6336 -0.6986
  710MOL0     C97902  10.758   3.418  -0.098  0.2899  0.0354 -0.0558
  710MOL0     C97903  10.648   3.358  -0.001  0.0969 -0.3745  0.3090
  710MOL0     C97904  10.541   3.472   0.016  0.1346  0.7387  0.2274
  710MOL0     C97905  10.421   3.425   0.107  0.0832  0.5182 -0.8235
  710MOL0     C97906  10.299   3.505   0.076 -0.1353  0.2254  0.2652
  710MOL0     C97907  10.195   3.564   0.047 -0.3753 -0.6187 -0.4349
  710MOL0     C97908  10.969   3.253   0.048  0.2682  0.0079  0.6998
  710MOL0     C97909  11.080   3.177   0.085  0.7637  0.7930 -0.7240
  710MOL0     C97910  11.048   3.030   0.101 -0.2539  0.0682 -0.8760
  710MOL0     H97911  11.617   3.346   0.320  0.1187 -0.1529 -1.3647
  710MOL0     H97912  11.789   3.266   0.450 -0.2328  2.0623 -1.3770
  710MOL0     H97913  11.866   3.160   0.639 -2.5190 -0.7456 -0.3663
  710MOL0     H97914  11.978   3.103   0.519 -1.2550  0.8771  0.2022
  710MOL0     H97915  11.955   2.873   0.666 -3.5346  0.3855  0.4073
  710MOL0     H97916  12.081   2.994   0.669  1.0775 -1.4293 -1.7612
  710MOL0     H97917  11.931   3.095   0.873  1.7149 -1.3107  1.1571
  710MOL0     H97918  11.796   2.995   0.815 -0.9585  3.3368  3.6441
  710MOL0     H97919  11.906   2.907   1.022  3.5763 -0.2866  1.7432
  710MOL0     H97920  11.929   2.795   0.882 -0.7841 -0.7563  1.2552
  710MOL0     H97921  12.157   2.927   0.864  1.7377  1.6122  1.7129
  710MOL0     H97922  12.147   2.823   1.007 -0.1288  0.0950 -0.5851
  710MOL0     H97923  12.063   3.114   1.016  0.0332 -0.0037  0.3585
  710MOL0     H97924  12.068   3.005   1.148 -0.3905  0.3757 -0.9270
  710MOL0     H97925  12.315   3.073   0.978  2.0859  0.6780  1.6684
  710MOL0     H97926  12.320   2.968   1.125 -1.5745 -0.9929  1.1674
  710MOL0     H97927  12.199   3.168   1.243  0.8778  0.4397  0.5100
  710MOL0     H97928  12.371   3.167   1.245  0.4381  4.0571 -0.2547
  710MOL0     H97929  12.483   3.351   1.091 -0.9844 -1.2549 -0.4171
  710MOL0     H97930  12.487   3.658   1.060  1.8950 -1.1170 -1.3751
  710MOL0     H97931  12.342   3.705   0.956 -0.3590 -1.8552 -4.2252
  710MOL0     H97932  12.528   3.689   0.818  1.5179 -0.8252 -2.4940
  710MOL0     H97933  12.562   3.518   0.860  0.8231  0.6023 -0.7127
  710MOL0     H97934  12.356   3.454   0.761  0.2649 -1.1435  0.2793
  710MOL0     H97935  12.301   3.626   0.733  1.3373  0.9391 -0.1641
  710MOL0     H97936  12.376   3.499   0.532 -0.1315 -1.4281  0.3439
  710MOL0     H97937  12.471   3.647   0.580  1.7590  0.3648  5.1412
  710MOL0     H97938  12.541   3.523   0.329  0.2309 -1.2395 -0.9152
  710MOL0     H97939  12.770   3.667   0.108  0.7787  1.2740  3.4521
  710MOL0     H97940  12.605   3.647   0.152  1.3017  2.9731  0.4217
  710MOL0     H97941  12.710   3.508   0.069  0.7770  0.3739  0.0470
  710MOL0     H97942  13.213   3.406   0.109 -1.0676  0.9249 -0.3125
  710MOL0     H97943  13.409   3.409  -0.019  0.2048  1.9285 -2.6891
  710MOL0     H97944  13.642   3.433  -0.072 -2.0565  0.1442  3.7272
  710MOL0     H97945  13.542   3.548  -0.166  0.0346 -2.1520  0.8355
  710MOL0     H97946  13.740   3.561  -0.283  0.0437  1.8070 -0.3004
  710MOL0     H97947  13.756   3.699  -0.191 -2.0166  0.9391  1.4539
  710MOL0     H97948  13.969   3.556  -0.201  2.1911 -1.8013  1.2348
  710MOL0     H97949  13.881   3.409  -0.160 -0.4248  0.6362  0.7171
  710MOL0     H97950  13.834   3.533   0.076 -0.6564 -0.4467 -0.0824
  710MOL0     H97951  13.966   3.645   0.009 -0.2879 -0.3152  0.5592
  710MOL0     H97952  13.997   3.357   0.083  1.5693 -0.0121  0.2164
  710MOL0     H97953  14.104   3.440  -0.024 -0.9401  0.0262  0.1131
  710MOL0     H97954  14.020   3.495   0.262  0.7017 -0.5748  1.0909
  710MOL0     H97955  14.118   3.607   0.161 -0.4012 -0.5360 -0.6865
  710MOL0     H97956  14.305   3.499   0.227  0.6728 -0.0493  0.5893
  710MOL0     H97957  14.252   3.376   0.113 -3.0720 -2.7841  0.5719
  710MOL0     H97958  14.174   3.414   0.406  1.3705  0.9479 -0.1454
  710MOL0     H97959  14.296   3.298   0.369 -0.0291 -1.4255  0.1879
  710MOL0     H97960  13.536   3.766   0.198  2.2752 -2.0390  0.3995
  710MOL0     H97961  13.309   3.769   0.313  1.9325  1.3445 -0.0947
  710MOL0     H97962  13.006   3.479   0.496 -0.3411  0.0990 -0.5708
  710MOL0     H97963  12.819   3.433   0.647 -1.3182  0.4010  0.8826
  710MOL0     H97964  11.598   2.869   0.428  2.9562 -0.2072  0.0389
  710MOL0     H97965  11.406   2.959   0.345  0.1432 -0.3437  0.3628
  710MOL0     H97966  11.287   3.442   0.120 -1.6926  1.1706 -0.4767
  710MOL0     H97967  11.090   3.565   0.047  0.4600  0.5204  1.1470
  710MOL0     H97968  10.712   3.501  -0.151  0.1261 -0.0193  0.0014
  710MOL0     H97969  10.802   3.348  -0.170  3.3984  0.4910  1.2393
  710MOL0     H97970  10.681   3.340   0.102 -1.5119  2.8125  1.5494
  710MOL0     H97971  10.614   3.264  -0.045  1.4557 -0.2136 -1.1463
  710MOL0     H97972  10.585   3.564   0.058  0.7951 -0.8517  3.3757
  710MOL0     H97973  10.506   3.489  -0.086  0.7707 -1.0059 -0.3134
  710MOL0     H97974  10.450   3.435   0.212 -1.5332  1.8621 -0.4537
  710MOL0     H97975  10.416   3.320   0.079 -0.0400 -0.1909  1.6115
  710MOL0     H97976  10.107   3.625   0.038  0.8135  0.9985 -1.7500
  710MOL0     H97977  10.879   3.195   0.029 -1.2075  2.9646 -2.6328
  710MOL0     H97978  10.952   3.019   0.152 -0.6621 -1.1779 -1.8613
  710MOL0     H97979  11.047   2.976   0.006  1.5133 -1.9845  0.2058
  710MOL0     H97980  11.120   2.988   0.171 -1.1701  0.6248  0.4356
  711MOL0     O97981   9.223  11.346   4.580 -0.8051 -0.1672 -0.9461
  711MOL0     C97982   9.178  11.419   4.492  0.1348 -0.0037  0.2057
  711MOL0     O97983   9.227  11.433   4.367 -0.0337 -0.4261 -0.2638
  711MOL0     C97984   9.316  11.342   4.330 -0.3026  0.7522 -0.7314
  711MOL0     C97985   9.266  11.223   4.284  0.1001 -0.0238 -1.4490
  711MOL0     C97986   9.351  11.125   4.239 -0.1032  0.0166  0.5463
  711MOL0     C97987   9.488  11.146   4.235 -0.2714 -0.5756 -0.3212
  711MOL0     O97988   9.558  11.039   4.190 -0.3855  0.1247 -0.7101
  711MOL0     C97989   9.694  11.001   4.230 -0.0883 -0.3357 -0.5661
  711MOL0     C97990   9.745  10.880   4.147  0.2092  0.0296  0.4063
  711MOL0     C97991   9.858  10.792   4.205  0.4407 -0.5121 -0.2439
  711MOL0     C97992   9.995  10.867   4.204  0.4810  0.8680 -0.2942
  711MOL0     C97993  10.095  10.786   4.281 -0.0363  0.7171  0.1498
  711MOL0     C97994  10.239  10.824   4.252  0.0324  0.0407 -0.1105
  711MOL0     C97995  10.281  10.975   4.244  0.0115 -0.2106  0.9143
  711MOL0     C97996  10.426  10.999   4.217 -0.5276 -0.4281 -0.0492
  711MOL0     N97997  10.484  11.111   4.287 -0.1188 -1.0986 -0.0302
  711MOL0     C97998  10.449  11.243   4.265 -0.0676  0.4739  0.7039
  711MOL0     C97999  10.527  11.312   4.350 -0.1297  0.2518 -1.0272
  711MOL0     C98000  10.549  11.457   4.342 -0.0153 -0.0896 -0.3257
  711MOL0     C98001  10.453  11.540   4.429  0.5370  1.0368  0.4328
  711MOL0     C98002  10.520  11.680   4.457 -0.8309  0.4668 -0.1990
  711MOL0     C98003  10.493  11.709   4.600 -0.4680 -0.3728  0.3207
  711MOL0     O98004  10.353  11.744   4.599  0.1431 -0.3842  0.2076
  711MOL0     C98005  10.281  11.750   4.718 -0.8445 -0.6176  0.1501
  711MOL0     C98006  10.362  11.774   4.839  0.3531 -0.1243  0.6461
  711MOL0     C98007  10.297  11.814   4.951 -0.8119 -0.3548  0.5037
  711MOL0     C98008  10.395  11.846   5.059  0.3074  0.0112 -0.1539
  711MOL0     C98009  10.154  11.818   4.963 -0.7288 -0.5583 -0.5993
  711MOL0     C98010  10.078  11.865   5.080  0.8122  0.2833 -0.4191
  711MOL0     O98011   9.948  11.828   5.071  0.0704 -0.2429 -1.1802
  711MOL0     C98012   9.875  11.866   5.178 -0.3240 -0.2594  0.0526
  711MOL0     C98013   9.863  11.798   5.293  0.3023 -0.4729 -0.7359
  711MOL0     C98014   9.783  11.847   5.397  0.4688 -0.2214 -0.4791
  711MOL0     C98015   9.710  11.966   5.380 -0.3377  0.4790  0.3170
  711MOL0     O98016   9.631  12.021   5.475  0.0661 -0.3807 -0.0564
  711MOL0     C98017   9.582  11.931   5.579 -0.0651  0.3467  0.3277
  711MOL0     C98018   9.501  11.815   5.527  0.5872 -0.2106 -0.2447
  711MOL0     C98019   9.353  11.863   5.496 -0.2601  0.5033 -0.4432
  711MOL0     C98020   9.275  11.753   5.418  0.4531  0.6675  0.3988
  711MOL0     C98021   9.173  11.811   5.321 -0.3115  0.2070 -0.4495
  711MOL0     C98022   9.233  11.899   5.210 -0.2826 -0.4343  0.2142
  711MOL0     C98023   9.127  11.959   5.119 -0.8449  0.3088 -0.0655
  711MOL0     C98024   9.106  12.106   5.165  0.6317 -0.7541 -0.1228
  711MOL0    Cl98025   8.994  12.188   5.051  0.1321 -0.0557 -0.2436
  711MOL0     C98026   9.713  12.035   5.258  0.4526 -0.1043 -0.1039
  711MOL0     C98027   9.803  11.984   5.173  0.6736 -0.2860 -0.1574
  711MOL0     O98028  10.126  11.939   5.164  0.3172 -0.3295 -0.5450
  711MOL0     C98029  10.077  11.784   4.845 -0.6217  0.6030 -0.5553
  711MOL0     C98030  10.142  11.748   4.721 -0.3100 -0.6272 -0.6662
  711MOL0     N98031  10.602  11.227   4.422 -0.0090 -0.2111  0.0069
  711MOL0     N98032  10.579  11.106   4.383  0.6450  0.1130  0.8118
  711MOL0     C98033   9.541  11.267   4.290 -0.2350 -0.0410 -0.3692
  711MOL0     C98034   9.456  11.365   4.339  0.7244  0.5495 -0.4809
  711MOL0     C98035   9.073  11.518   4.529 -0.0482 -0.6285  0.9788
  711MOL0     C98036   9.098  11.588   4.646 -0.4416 -1.1589  0.2803
  711MOL0     C98037   9.015  11.697   4.684 -1.0785 -0.0450 -0.0748
  711MOL0     C98038   8.893  11.724   4.610 -0.9823 -0.2050 -0.1090
  711MOL0     O98039   8.795  11.814   4.635 -0.0983  0.1293  0.1129
  711MOL0     C98040   8.828  11.920   4.723 -0.0266 -0.3577 -0.0735
  711MOL0     C98041   8.748  12.043   4.675 -0.2395 -0.1916  0.4678
  711MOL0     C98042   8.680  12.137   4.778  0.4174  0.7550 -0.0308
  711MOL0     C98043   8.610  12.245   4.702  0.0137  0.2898  0.3579
  711MOL0     C98044   8.496  12.202   4.625 -0.6812 -0.2206  0.1826
  711MOL0     C98045   8.396  12.155   4.561  0.0775  0.6254  0.2209
  711MOL0     C98046   8.870  11.650   4.498 -0.2747  0.8248  0.1200
  711MOL0     C98047   8.957  11.538   4.457 -0.2159 -0.5092  0.7970
  711MOL0     C98048   8.927  11.462   4.331  0.3343  0.7328 -0.0713
  711MOL0     H98049   9.159  11.207   4.274 -0.0502  0.7786 -1.1515
  711MOL0     H98050   9.319  11.028   4.203  3.0746 -0.6598 -0.8329
  711MOL0     H98051   9.690  10.988   4.339 -0.5842  0.4483 -0.4810
  711MOL0     H98052   9.758  11.086   4.207  0.6447 -0.6535  0.2420
  711MOL0     H98053   9.669  10.801   4.142  1.9283 -1.6905 -0.0141
  711MOL0     H98054   9.773  10.908   4.045  0.4304  0.3108  0.5442
  711MOL0     H98055   9.836  10.776   4.311 -1.1492 -2.1783 -0.7720
  711MOL0     H98056   9.857  10.691   4.163 -3.1275 -0.1578 -1.3028
  711MOL0     H98057  10.029  10.876   4.101 -0.7175  0.3700 -0.7599
  711MOL0     H98058   9.998  10.966   4.249  1.2497  0.7680 -0.1198
  711MOL0     H98059  10.091  10.689   4.231  2.1007  0.1342  0.9955
  711MOL0     H98060  10.073  10.764   4.386  3.5621  3.6574  1.7318
  711MOL0     H98061  10.298  10.783   4.334  1.7725  1.6829 -0.4769
  711MOL0     H98062  10.271  10.784   4.154  2.4498  1.7797 -0.1270
  711MOL0     H98063  10.260  11.031   4.336  0.2608 -0.4928  1.1427
  711MOL0     H98064  10.221  11.023   4.167  0.4895  0.4805  0.9627
  711MOL0     H98065  10.477  10.907   4.247 -0.5000  0.1264  1.7170
  711MOL0     H98066  10.462  11.016   4.115  1.0268  0.0543  0.5475
  711MOL0     H98067  10.375  11.284   4.198 -2.8673 -3.5326  1.0385
  711MOL0     H98068  10.554  11.488   4.237 -0.6005 -0.5592 -0.4935
  711MOL0     H98069  10.648  11.471   4.388  0.2390 -1.3043 -0.4840
  711MOL0     H98070  10.352  11.547   4.387 -1.0315 -4.8843  2.1994
  711MOL0     H98071  10.432  11.492   4.525 -2.1537  3.0094  0.9511
  711MOL0     H98072  10.626  11.685   4.432 -0.4068 -0.4828  1.3145
  711MOL0     H98073  10.464  11.753   4.397 -2.0985 -1.7612 -1.8704
  711MOL0     H98074  10.502  11.624   4.668 -2.4838 -0.9068 -0.0417
  711MOL0     H98075  10.564  11.783   4.640 -2.4470  0.2460  2.9970
  711MOL0     H98076  10.470  11.779   4.844  0.2970  0.1692  1.5921
  711MOL0     H98077  10.352  11.859   5.159 -1.3157  0.2851 -0.8489
  711MOL0     H98078  10.468  11.925   5.040  1.4663 -0.8294  0.6758
  711MOL0     H98079  10.454  11.755   5.072  0.8536  0.5446  1.1916
  711MOL0     H98080   9.934  11.719   5.313  2.2974  0.8058 -2.4749
  711MOL0     H98081   9.783  11.792   5.491  0.1928  0.0297 -0.3319
  711MOL0     H98082   9.664  11.893   5.640  0.2648  3.1528  1.7740
  711MOL0     H98083   9.519  11.979   5.654 -2.0612  1.4360 -1.8921
  711MOL0     H98084   9.554  11.780   5.438 -0.5016  1.6799 -1.7123
  711MOL0     H98085   9.501  11.734   5.600 -0.0730  0.1939  0.2258
  711MOL0     H98086   9.372  11.959   5.447 -1.8084  0.3813 -1.3232
  711MOL0     H98087   9.302  11.873   5.592  1.3746 -2.2661  0.8336
  711MOL0     H98088   9.215  11.701   5.493  1.0235  1.7002  1.6251
  711MOL0     H98089   9.342  11.690   5.358  0.4157  0.5722  0.4582
  711MOL0     H98090   9.116  11.728   5.278  0.9428  0.6709 -3.1950
  711MOL0     H98091   9.111  11.879   5.380  1.2244 -0.4380  2.0630
  711MOL0     H98092   9.293  11.829   5.152 -3.4777 -1.5392 -2.0271
  711MOL0     H98093   9.299  11.979   5.247 -1.3035  0.3449  0.4029
  711MOL0     H98094   9.038  11.895   5.117 -0.3053 -0.5073  1.0352
  711MOL0     H98095   9.165  11.944   5.017 -3.6249 -3.3138 -0.7759
  711MOL0     H98096   9.200  12.160   5.175  0.0145 -0.1161  3.8377
  711MOL0     H98097   9.048  12.112   5.258 -3.2091  0.2011 -2.3279
  711MOL0     H98098   9.657  12.125   5.241 -0.8742 -0.9845 -0.5533
  711MOL0     H98099   9.805  12.031   5.076 -1.7578 -1.0607 -0.6548
  711MOL0     H98100   9.969  11.781   4.841 -0.5770  0.4028 -2.2320
  711MOL0     H98101  10.090  11.717   4.631 -0.8173 -0.6423 -0.3715
  711MOL0     H98102   9.647  11.285   4.286 -0.0866 -0.9908 -1.2725
  711MOL0     H98103   9.483  11.460   4.384  1.7834  0.1666 -0.2710
  711MOL0     H98104   9.183  11.563   4.709 -0.1421  2.2997  1.4774
  711MOL0     H98105   9.042  11.762   4.766  1.5921  0.3773 -1.1876
  711MOL0     H98106   8.803  11.907   4.828  0.9915  2.8035  0.6482
  711MOL0     H98107   8.932  11.952   4.714 -0.2810  0.7167  0.7142
  711MOL0     H98108   8.670  12.009   4.605 -1.0299  1.1003  0.6798
  711MOL0     H98109   8.816  12.111   4.623 -0.1626 -0.1311  0.6502
  711MOL0     H98110   8.611  12.081   4.841  1.7818 -2.0228 -0.8651
  711MOL0     H98111   8.762  12.183   4.834  0.2984  1.1184 -0.1469
  711MOL0     H98112   8.682  12.296   4.637 -1.0637  1.4022 -0.0125
  711MOL0     H98113   8.565  12.318   4.770  0.8478 -0.1231  1.3781
  711MOL0     H98114   8.311  12.103   4.522 -0.0198 -0.8657  2.2960
  711MOL0     H98115   8.773  11.675   4.457 -0.6730 -0.2874  0.3300
  711MOL0     H98116   8.821  11.480   4.307  0.9737  1.4443 -2.5863
  711MOL0     H98117   8.992  11.502   4.253  0.4636 -0.3645 -0.5426
  711MOL0     H98118   8.945  11.356   4.346 -1.6667  0.3455 -0.0767
  712MOL0     O98119   7.901   7.072   2.653 -0.4163  1.1687  0.0801
  712MOL0     C98120   7.991   7.062   2.561 -0.7398 -1.0596  0.1672
  712MOL0     O98121   7.987   6.972   2.460  0.3248  0.9146  0.0963
  712MOL0     C98122   7.867   6.899   2.443 -0.2205 -0.3455 -0.3159
  712MOL0     C98123   7.807   6.910   2.314  0.0922 -0.2785  0.0065
  712MOL0     C98124   7.700   6.821   2.279  0.1511  0.5864  0.1214
  712MOL0     C98125   7.641   6.752   2.382  0.3324  0.4469 -0.1147
  712MOL0     O98126   7.529   6.676   2.363  0.5509  0.5913  0.3905
  712MOL0     C98127   7.406   6.741   2.365 -0.9199 -0.5394  0.7445
  712MOL0     C98128   7.288   6.642   2.335 -0.3574 -1.0514  0.4254
  712MOL0     C98129   7.269   6.543   2.449 -0.6212  0.0883  0.3658
  712MOL0     C98130   7.143   6.464   2.420  0.6557 -0.1247  0.0551
  712MOL0     C98131   7.080   6.404   2.540 -0.2718  0.4381 -0.1442
  712MOL0     C98132   6.954   6.329   2.510  0.1036  1.0555 -0.4432
  712MOL0     C98133   6.917   6.229   2.621  0.5042 -0.9415 -0.1936
  712MOL0     C98134   6.808   6.130   2.589  0.4146 -0.3868 -1.0693
  712MOL0     N98135   6.681   6.194   2.545 -0.3883  0.1945 -0.4056
  712MOL0     C98136   6.567   6.233   2.627 -0.2426 -0.3548 -0.3893
  712MOL0     C98137   6.473   6.283   2.550  0.5658  0.0137  0.6347
  712MOL0     C98138   6.329   6.316   2.586  1.2918 -0.4932 -0.3371
  712MOL0     C98139   6.274   6.240   2.706 -0.0777 -0.6657 -0.3749
  712MOL0     C98140   6.126   6.273   2.724  0.4597 -0.1552  0.0009
  712MOL0     C98141   6.070   6.233   2.852  0.0968  0.1356 -0.9525
  712MOL0     O98142   6.144   6.298   2.968 -0.9155 -0.1373  0.4985
  712MOL0     C98143   6.226   6.227   3.053 -0.1866  0.0043  0.8717
  712MOL0     C98144   6.240   6.276   3.183  0.0297  0.0975  0.0956
  712MOL0     C98145   6.322   6.216   3.278  0.4177 -0.1228  0.0289
  712MOL0     C98146   6.355   6.293   3.409 -0.6664 -0.3843 -0.5086
  712MOL0     C98147   6.378   6.087   3.245 -1.1233 -0.0208 -0.2656
  712MOL0     C98148   6.461   5.999   3.329  0.4632 -0.6775  0.1838
  712MOL0     O98149   6.477   6.044   3.453  0.4218  0.0310  0.4979
  712MOL0     C98150   6.598   6.026   3.513  0.1058  0.9638 -0.0635
  712MOL0     C98151   6.706   6.096   3.459  0.5915 -0.2013 -0.8004
  712MOL0     C98152   6.835   6.105   3.526  0.1024 -0.6695  0.4577
  712MOL0     C98153   6.852   6.026   3.636 -0.3022  0.0691 -0.2158
  712MOL0     O98154   6.983   6.021   3.682 -0.0189  0.0644  0.1239
  712MOL0     C98155   7.009   5.902   3.752  0.2831  0.5251  0.0683
  712MOL0     C98156   7.165   5.893   3.766  0.2495  0.5397  0.4970
  712MOL0     C98157   7.245   5.996   3.853  0.2976  0.5366 -0.7352
  712MOL0     C98158   7.397   5.962   3.845  0.8162 -0.1951  0.1604
  712MOL0     C98159   7.487   6.074   3.894 -0.6910 -0.6902  0.1060
  712MOL0     C98160   7.486   6.199   3.801 -0.2600  0.0383  1.1716
  712MOL0     C98161   7.594   6.289   3.822 -0.2993 -0.6036  0.5318
  712MOL0     C98162   7.597   6.420   3.743  0.7109 -0.0714  0.0915
  712MOL0    Cl98163   7.482   6.540   3.804  0.4608  0.2860 -0.2197
  712MOL0     C98164   6.743   5.948   3.689 -0.0074 -0.3187 -0.5749
  712MOL0     C98165   6.615   5.949   3.624 -0.1981  0.0895 -0.3191
  712MOL0     O98166   6.507   5.898   3.282 -0.1894 -0.0621 -0.1888
  712MOL0     C98167   6.350   6.038   3.122 -0.2901 -0.2940  0.5904
  712MOL0     C98168   6.272   6.103   3.029  0.3434  0.5525  0.1466
  712MOL0     N98169   6.530   6.279   2.418  0.0825 -0.3772 -0.4834
  712MOL0     N98170   6.653   6.237   2.424 -0.3926 -0.3575  0.5542
  712MOL0     C98171   7.694   6.754   2.516 -0.3518  0.2824  0.7163
  712MOL0     C98172   7.814   6.825   2.547  0.8846 -0.2403  0.0988
  712MOL0     C98173   8.108   7.143   2.574  0.2192  0.7704 -0.1657
  712MOL0     C98174   8.160   7.159   2.705  0.2608  0.0480 -0.4933
  712MOL0     C98175   8.278   7.231   2.732  0.5929  0.3603  0.0348
  712MOL0     C98176   8.365   7.271   2.617  0.4635  0.4280 -0.2449
  712MOL0     O98177   8.489   7.330   2.616 -0.5383  0.6665 -0.1056
  712MOL0     C98178   8.536   7.385   2.738  0.4629  0.6857  0.3350
  712MOL0     C98179   8.675   7.437   2.730 -0.3457  0.2764  0.2840
  712MOL0     C98180   8.720   7.511   2.852 -0.2974 -0.1401 -0.1877
  712MOL0     C98181   8.842   7.451   2.927 -0.4264 -0.2931  0.4345
  712MOL0     C98182   8.962   7.482   2.842 -0.8884 -0.2500  0.4095
  712MOL0     C98183   9.077   7.482   2.788  0.6531 -1.4832 -0.0087
  712MOL0     C98184   8.309   7.255   2.490  0.5189 -0.2149 -0.3349
  712MOL0     C98185   8.180   7.194   2.468 -0.3388 -0.9200  0.1442
  712MOL0     C98186   8.120   7.207   2.330 -0.3748  0.1075  0.0721
  712MOL0     H98187   7.861   6.974   2.245  0.9976  0.2208  1.1387
  712MOL0     H98188   7.658   6.806   2.180  2.6617 -1.8171 -0.6933
  712MOL0     H98189   7.413   6.826   2.297  2.1070 -1.4195 -0.2407
  712MOL0     H98190   7.385   6.781   2.464  0.4556 -2.0430  1.6905
  712MOL0     H98191   7.193   6.694   2.320  1.1434  2.1538  1.1737
  712MOL0     H98192   7.312   6.586   2.244 -0.2220 -2.3869  1.2614
  712MOL0     H98193   7.348   6.468   2.436 -3.3638 -2.6282 -2.2790
  712MOL0     H98194   7.263   6.593   2.546  0.8762 -2.0464  1.6589
  712MOL0     H98195   7.069   6.532   2.375 -0.5830  0.7146  3.1154
  712MOL0     H98196   7.165   6.381   2.352 -0.1230  0.5380 -1.0492
  712MOL0     H98197   7.059   6.482   2.614  0.5990 -0.9716  1.6614
  712MOL0     H98198   7.153   6.335   2.584 -1.0729 -0.5300 -0.2916
  712MOL0     H98199   6.866   6.393   2.497 -1.0723 -0.5360 -0.6139
  712MOL0     H98200   6.974   6.270   2.420  0.9248  0.4572  0.1114
  712MOL0     H98201   6.891   6.285   2.711 -0.3271  0.5765 -1.3349
  712MOL0     H98202   6.999   6.159   2.642 -0.3453 -1.0335  3.5902
  712MOL0     H98203   6.837   6.043   2.528  3.6098 -1.2200  1.3729
  712MOL0     H98204   6.780   6.080   2.682 -1.4489 -2.3773 -2.5860
  712MOL0     H98205   6.564   6.203   2.731 -0.6856 -0.1610 -0.3398
  712MOL0     H98206   6.263   6.296   2.501 -2.7780  1.7494  2.0127
  712MOL0     H98207   6.328   6.425   2.596 -1.6761 -0.4880  0.2943
  712MOL0     H98208   6.304   6.135   2.694 -2.0254 -1.4898  1.3647
  712MOL0     H98209   6.333   6.278   2.790  2.8910 -2.5019 -1.4561
  712MOL0     H98210   6.097   6.378   2.712  2.5632  0.2886 -1.8407
  712MOL0     H98211   6.083   6.216   2.642 -1.2387 -0.8909  1.3563
  712MOL0     H98212   5.963   6.255   2.864  0.3853  1.8554 -1.3247
  712MOL0     H98213   6.087   6.124   2.851 -0.6606  0.0129 -1.1172
  712MOL0     H98214   6.179   6.363   3.206  3.2194  2.3705  0.5262
  712MOL0     H98215   6.316   6.247   3.500  1.2010 -0.9180  0.0455
  712MOL0     H98216   6.316   6.395   3.398 -1.0463 -0.3915  0.6804
  712MOL0     H98217   6.464   6.296   3.412 -0.6651  0.5570 -1.1146
  712MOL0     H98218   6.689   6.164   3.376  0.0225  1.6711  0.7667
  712MOL0     H98219   6.913   6.163   3.478 -0.9120  0.0069 -0.4268
  712MOL0     H98220   6.953   5.897   3.846  1.6583 -2.1904  0.8689
  712MOL0     H98221   6.980   5.815   3.692  3.2623 -0.9945  0.6269
  712MOL0     H98222   7.187   5.793   3.804  1.7472  0.9564  0.7969
  712MOL0     H98223   7.200   5.899   3.662 -1.5011  2.0824 -0.0568
  712MOL0     H98224   7.224   5.982   3.959  1.0028 -0.9205 -0.7610
  712MOL0     H98225   7.221   6.096   3.817 -1.6309  0.8116  1.1083
  712MOL0     H98226   7.419   5.938   3.740  2.2070 -0.1421  0.4122
  712MOL0     H98227   7.422   5.868   3.895 -0.5391 -1.2694 -1.0685
  712MOL0     H98228   7.466   6.097   3.999  1.5453  0.7697  0.3092
  712MOL0     H98229   7.586   6.026   3.887  0.5726  1.7440  0.3563
  712MOL0     H98230   7.391   6.254   3.800 -0.5947 -0.0129 -4.3427
  712MOL0     H98231   7.495   6.159   3.699  1.1399  3.5272 -0.2477
  712MOL0     H98232   7.693   6.244   3.804  0.4452  0.2639  2.2276
  712MOL0     H98233   7.600   6.321   3.927  0.1855  1.4021 -0.0607
  712MOL0     H98234   7.595   6.410   3.634  1.9905  0.1768  0.0247
  712MOL0     H98235   7.692   6.469   3.768  0.5093  0.7074 -0.6403
  712MOL0     H98236   6.752   5.871   3.765  2.8614  1.2642  0.8729
  712MOL0     H98237   6.530   5.886   3.651 -0.3958  1.0866  1.5671
  712MOL0     H98238   6.391   5.943   3.088  1.3432  0.3713  0.6327
  712MOL0     H98239   6.261   6.058   2.930  1.7017 -1.6232  0.9142
  712MOL0     H98240   7.669   6.681   2.592  5.3314 -2.5204  0.4786
  712MOL0     H98241   7.855   6.830   2.647  0.9780  2.0166 -0.0052
  712MOL0     H98242   8.099   7.125   2.789  3.4475 -3.7693  0.5918
  712MOL0     H98243   8.311   7.246   2.834 -0.1707  3.6001 -0.0795
  712MOL0     H98244   8.478   7.474   2.763 -2.1903 -0.1452 -2.3396
  712MOL0     H98245   8.537   7.302   2.810 -0.9243  0.6466  0.3383
  712MOL0     H98246   8.678   7.506   2.646  0.0608 -1.9451 -1.6444
  712MOL0     H98247   8.738   7.350   2.706 -1.1279 -0.0918 -0.5154
  712MOL0     H98248   8.747   7.609   2.813 -1.7179  0.1827 -0.4150
  712MOL0     H98249   8.634   7.519   2.919 -1.9563  1.9383 -2.3905
  712MOL0     H98250   8.821   7.343   2.925 -4.0488  0.2939  0.1011
  712MOL0     H98251   8.869   7.487   3.027  2.4810 -1.7854  0.2858
  712MOL0     H98252   9.176   7.470   2.748  0.3004  0.9901 -1.8290
  712MOL0     H98253   8.356   7.307   2.407  0.4023  1.9959  0.9234
  712MOL0     H98254   8.189   7.152   2.266 -0.9113  0.5262 -0.8952
  712MOL0     H98255   8.018   7.169   2.316 -0.8332  1.0105  0.8713
  712MOL0     H98256   8.119   7.310   2.293 -1.3706 -0.1729 -0.7485
  713MOL0     O98257   5.058   5.346  10.069  0.2360  0.3060 -0.4328
  713MOL0     C98258   4.963   5.283  10.022 -0.3290 -0.0356  0.4624
  713MOL0     O98259   4.968   5.162   9.957 -0.7794  0.8005  0.8740
  713MOL0     C98260   5.086   5.103   9.922  0.0880 -0.3469  0.2513
  713MOL0     C98261   5.153   5.016  10.008  0.4314  0.0035 -0.8599
  713MOL0     C98262   5.266   4.952   9.972  0.4491  1.0638 -0.3027
  713MOL0     C98263   5.327   4.974   9.852  1.0763 -1.1889 -0.7557
  713MOL0     O98264   5.445   4.911   9.834  0.5851  0.4217  0.2251
  713MOL0     C98265   5.531   4.921   9.721 -0.3531 -0.4086  0.3729
  713MOL0     C98266   5.652   4.834   9.759  0.2537  0.6912 -0.4872
  713MOL0     C98267   5.699   4.833   9.900  0.3189 -0.5197 -1.1550
  713MOL0     C98268   5.848   4.831   9.935  0.3967 -0.0635  0.7085
  713MOL0     C98269   5.898   4.687   9.911 -0.1623 -0.2091  1.6456
  713MOL0     C98270   6.041   4.662   9.960  0.1818 -0.4082  0.5303
  713MOL0     C98271   6.144   4.749   9.900  0.1232  0.4656 -1.0278
  713MOL0     C98272   6.281   4.726   9.977  0.2937  0.4006  0.0024
  713MOL0     N98273   6.343   4.595   9.955  0.2591  0.1855 -0.6419
  713MOL0     C98274   6.448   4.554   9.876  0.7001  0.0829 -0.6564
  713MOL0     C98275   6.470   4.425   9.901 -0.3028  0.1748  1.6201
  713MOL0     C98276   6.566   4.346   9.809  0.0688 -0.3885  0.1669
  713MOL0     C98277   6.700   4.314   9.879  0.3732  1.2560 -0.8164
  713MOL0     C98278   6.801   4.434   9.880 -0.8967  0.3842 -0.5730
  713MOL0     C98279   6.923   4.424   9.970 -0.1801 -0.5651  0.3412
  713MOL0     O98280   6.999   4.307   9.932 -0.6078 -0.3536  0.3680
  713MOL0     C98281   7.114   4.290  10.011 -0.8638  0.3388 -0.2538
  713MOL0     C98282   7.233   4.352   9.976 -1.0339  0.5340 -0.4203
  713MOL0     C98283   7.348   4.331  10.056 -0.4572 -1.1442 -0.6577
  713MOL0     C98284   7.479   4.415  10.027  0.6157 -0.8601 -0.1036
  713MOL0     C98285   7.349   4.240  10.161 -0.2809  0.2522  0.3447
  713MOL0     C98286   7.470   4.223  10.245  0.1620 -0.2324 -0.0462
  713MOL0     O98287   7.491   4.091  10.269 -0.1219  0.2734 -0.2627
  713MOL0     C98288   7.590   4.051  10.353  0.0593 -0.1108 -0.4737
  713MOL0     C98289   7.722   4.080  10.333  0.2222  0.0542  0.3537
  713MOL0     C98290   7.823   4.039  10.427 -0.6589  0.0476 -0.8301
  713MOL0     C98291   7.784   3.974  10.542 -0.8010 -0.0707 -0.6077
  713MOL0     O98292   7.867   3.928  10.644  0.9490  0.1639  0.4152
  713MOL0     C98293   7.990   4.003  10.661  0.4399  0.6141 -0.1786
  713MOL0     C98294   8.039   3.944  10.797 -0.0372  0.6011 -0.1880
  713MOL0     C98295   8.175   3.984  10.853  0.5595  0.4144  1.1368
  713MOL0     C98296   8.221   3.908  10.966  0.1129  0.9189  0.6474
  713MOL0     C98297   8.348   3.973  11.031  0.1744  0.5537 -0.5248
  713MOL0     C98298   8.466   4.000  10.943 -0.8630  0.7037 -0.4506
  713MOL0     C98299   8.530   3.872  10.876  0.5156  0.7432  0.1132
  713MOL0     C98300   8.575   3.763  10.965 -0.5842  0.2057 -0.8302
  713MOL0    Cl98301   8.613   3.634  10.869  0.4968  0.3806  0.3797
  713MOL0     C98302   7.646   3.946  10.566 -1.1563  1.0260  0.0564
  713MOL0     C98303   7.554   3.977  10.472  0.0813 -0.5818 -0.3379
  713MOL0     O98304   7.529   4.319  10.300  0.3529 -0.0256 -0.3076
  713MOL0     C98305   7.225   4.167  10.185 -0.7283 -0.2877  0.5863
  713MOL0     C98306   7.114   4.196  10.115  0.5015 -0.0537  0.1998
  713MOL0     N98307   6.373   4.381   9.989  0.0359  0.6243  0.3746
  713MOL0     N98308   6.307   4.487  10.033 -0.1578  0.2200 -0.1672
  713MOL0     C98309   5.264   5.069   9.769  1.0636  0.4788  0.8740
  713MOL0     C98310   5.143   5.127   9.799 -0.1104  0.5794 -0.6571
  713MOL0     C98311   4.823   5.342  10.044 -0.2146  0.1648  0.0380
  713MOL0     C98312   4.789   5.408  10.168 -0.8690  0.2735 -1.0305
  713MOL0     C98313   4.661   5.463  10.195  0.5884 -0.1326  0.1286
  713MOL0     C98314   4.560   5.448  10.106  0.5423 -0.7509 -0.6941
  713MOL0     O98315   4.438   5.494  10.139 -0.2746 -0.1364 -0.3327
  713MOL0     C98316   4.326   5.515  10.047 -0.4599  0.1019 -0.6089
  713MOL0     C98317   4.367   5.604   9.926 -0.5523  0.1332  0.0837
  713MOL0     C98318   4.266   5.601   9.812  0.3290  0.1471  0.5803
  713MOL0     C98319   4.134   5.683   9.833 -0.0572 -1.4535 -0.0357
  713MOL0     C98320   4.051   5.647   9.948  0.4510  0.5326  0.8845
  713MOL0     C98321   3.983   5.629  10.048  0.1805  0.1713 -0.2209
  713MOL0     C98322   4.594   5.379   9.984  0.0850 -0.2534 -0.4581
  713MOL0     C98323   4.714   5.321   9.960 -0.6541 -0.3341  1.2121
  713MOL0     C98324   4.728   5.248   9.829 -0.2912 -0.2940 -0.1881
  713MOL0     H98325   5.095   4.986  10.095 -2.1289 -1.6794 -2.9707
  713MOL0     H98326   5.303   4.880  10.044  1.5850 -0.3630 -2.1953
  713MOL0     H98327   5.564   5.025   9.709  1.5188 -0.9335  0.6547
  713MOL0     H98328   5.487   4.887   9.627 -0.7009  2.8884 -0.7715
  713MOL0     H98329   5.635   4.730   9.730  1.3108  0.7271 -1.2793
  713MOL0     H98330   5.737   4.866   9.698  2.0676 -0.0302  1.5164
  713MOL0     H98331   5.662   4.922   9.953 -0.3211 -2.6148  2.1901
  713MOL0     H98332   5.646   4.748   9.943 -1.0274  0.7598 -0.1939
  713MOL0     H98333   5.900   4.902   9.869 -0.8009 -1.1869 -1.5353
  713MOL0     H98334   5.869   4.858  10.039  2.7599 -1.1455  0.5736
  713MOL0     H98335   5.884   4.666   9.804 -0.5040  1.8307  1.2569
  713MOL0     H98336   5.835   4.620   9.969  0.5376  1.0745  3.9997
  713MOL0     H98337   6.049   4.666  10.069  2.9513  3.2006  0.3561
  713MOL0     H98338   6.051   4.555   9.939 -3.2161 -1.2884  2.4341
  713MOL0     H98339   6.105   4.851   9.904  0.3413  0.5514 -1.0807
  713MOL0     H98340   6.165   4.747   9.793  0.3107  0.0609 -0.9870
  713MOL0     H98341   6.354   4.803   9.952  0.3788  1.2479  2.6453
  713MOL0     H98342   6.251   4.740  10.081 -2.2889  0.1062 -0.6119
  713MOL0     H98343   6.504   4.615   9.806  3.2999  0.8583  1.8832
  713MOL0     H98344   6.582   4.393   9.711 -3.0137  2.4221  0.8178
  713MOL0     H98345   6.516   4.250   9.793 -0.7302  0.0365  0.0219
  713MOL0     H98346   6.688   4.278   9.982  2.0406 -0.9895 -1.3057
  713MOL0     H98347   6.752   4.231   9.830  2.5033  1.3894  0.9968
  713MOL0     H98348   6.835   4.453   9.778  2.4592  2.5575  0.7883
  713MOL0     H98349   6.749   4.524   9.915  0.4720  0.6401  0.8965
  713MOL0     H98350   6.986   4.513   9.957  0.9523 -1.6604 -2.3949
  713MOL0     H98351   6.900   4.406  10.075  3.4685 -0.5144  1.3027
  713MOL0     H98352   7.231   4.416   9.889  2.4767  1.3125 -0.0656
  713MOL0     H98353   7.473   4.481   9.940 -2.2539  0.6694  1.1162
  713MOL0     H98354   7.567   4.352  10.019  1.2948  0.2422 -2.1102
  713MOL0     H98355   7.485   4.475  10.118 -1.2320 -1.2010  0.2842
  713MOL0     H98356   7.735   4.127  10.236 -3.6770 -0.6346 -0.6935
  713MOL0     H98357   7.929   4.060  10.410 -0.5571 -0.1312 -0.4203
  713MOL0     H98358   8.056   3.972  10.579  2.0955  1.2460  0.8733
  713MOL0     H98359   7.978   4.111  10.670  0.6169  0.4440  3.5951
  713MOL0     H98360   7.963   3.960  10.873  0.7558 -0.1709  0.8033
  713MOL0     H98361   8.044   3.836  10.778 -3.3201  0.4876 -1.0667
  713MOL0     H98362   8.179   4.089  10.884 -0.6018  0.3709  1.4822
  713MOL0     H98363   8.256   3.979  10.780  0.3181 -0.2002  0.9008
  713MOL0     H98364   8.241   3.803  10.943 -3.0874  0.3147  0.2572
  713MOL0     H98365   8.146   3.909  11.045  2.6043  1.4696  3.1899
  713MOL0     H98366   8.308   4.071  11.056 -0.6017  0.5590 -1.7134
  713MOL0     H98367   8.364   3.940  11.134 -1.7765  0.8896 -0.0754
  713MOL0     H98368   8.546   4.043  11.004  1.2855 -2.4450 -0.7935
  713MOL0     H98369   8.454   4.073  10.863  2.1185  3.0697  1.0740
  713MOL0     H98370   8.607   3.900  10.805  2.4431 -0.9337  1.4199
  713MOL0     H98371   8.448   3.825  10.821  1.6635 -1.3732  0.1211
  713MOL0     H98372   8.489   3.744  11.030  0.4450  2.3489  1.3175
  713MOL0     H98373   8.658   3.789  11.031 -0.9258 -4.7503  2.0384
  713MOL0     H98374   7.632   3.880  10.651  1.6904 -0.6873 -0.6757
  713MOL0     H98375   7.454   3.938  10.489 -0.6551  0.5575 -1.9034
  713MOL0     H98376   7.227   4.099  10.270  1.0254  1.8780  2.4127
  713MOL0     H98377   7.019   4.144  10.122  0.1224  0.6907  0.7466
  713MOL0     H98378   5.312   5.091   9.674 -1.3760 -0.1612 -0.6210
  713MOL0     H98379   5.096   5.204   9.738 -1.6249 -0.9538 -1.4865
  713MOL0     H98380   4.874   5.416  10.234 -0.6152 -3.6480 -0.6020
  713MOL0     H98381   4.631   5.519  10.283  0.5414  0.6539 -0.3764
  713MOL0     H98382   4.278   5.421  10.016 -1.0880 -0.2973  1.4520
  713MOL0     H98383   4.240   5.562  10.095 -1.7995 -3.8987  1.3360
  713MOL0     H98384   4.464   5.575   9.885  1.4319  3.3045  2.0989
  713MOL0     H98385   4.381   5.707   9.961 -1.0851  0.5180 -0.7979
  713MOL0     H98386   4.315   5.642   9.723  0.9514 -2.3634 -0.3396
  713MOL0     H98387   4.241   5.501   9.775 -3.5343  2.0210 -2.6929
  713MOL0     H98388   4.072   5.677   9.743  0.4206  0.3515 -0.5137
  713MOL0     H98389   4.169   5.786   9.842  0.3197 -1.5435 -0.4380
  713MOL0     H98390   3.937   5.621  10.144  1.5608 -1.6563  0.3489
  713MOL0     H98391   4.514   5.366   9.912 -0.9975  1.1092  0.4172
  713MOL0     H98392   4.807   5.299   9.774  0.0131  1.9128  2.1449
  713MOL0     H98393   4.760   5.145   9.849  1.6529 -0.2948 -2.7709
  713MOL0     H98394   4.632   5.236   9.778 -1.7094  0.4807  2.1657
  714MOL0     O98395   0.849   8.605   8.510  0.1347  0.5657  0.3699
  714MOL0     C98396   0.822   8.521   8.600  0.3715 -0.7572 -0.1539
  714MOL0     O98397   0.904   8.461   8.690 -0.5695  0.5362  0.6650
  714MOL0     C98398   1.039   8.500   8.702  0.2512 -0.6370 -0.1413
  714MOL0     C98399   1.130   8.495   8.605 -0.0932  0.3074  0.6565
  714MOL0     C98400   1.263   8.538   8.618  0.3769  0.1472 -0.9032
  714MOL0     C98401   1.324   8.553   8.745 -0.5816 -0.2653  0.1237
  714MOL0     O98402   1.454   8.578   8.748 -0.2693 -1.3537  0.2833
  714MOL0     C98403   1.525   8.504   8.853  0.6278 -0.5361  0.6250
  714MOL0     C98404   1.674   8.512   8.827  0.5078 -0.5121  0.0540
  714MOL0     C98405   1.763   8.460   8.942  0.2515  0.3746 -0.0139
  714MOL0     C98406   1.907   8.442   8.879 -0.0377 -0.2786  0.5158
  714MOL0     C98407   1.997   8.382   8.980 -0.4878  0.7967 -0.2176
  714MOL0     C98408   2.100   8.487   9.023 -0.1243  0.5337 -0.0796
  714MOL0     C98409   2.207   8.438   9.128  0.4312  0.7812  0.5007
  714MOL0     C98410   2.291   8.323   9.071  0.7961  0.1070 -0.6398
  714MOL0     N98411   2.403   8.300   9.152  0.3472  0.0959 -0.0796
  714MOL0     C98412   2.504   8.391   9.195 -0.2223  0.7946 -0.1365
  714MOL0     C98413   2.589   8.310   9.272  1.3245 -0.4231  0.5917
  714MOL0     C98414   2.711   8.363   9.325 -0.7623 -0.7598 -0.4951
  714MOL0     C98415   2.789   8.251   9.406 -0.3012 -0.1404  0.0387
  714MOL0     C98416   2.924   8.306   9.448  0.3297  0.7744 -0.3030
  714MOL0     C98417   3.008   8.201   9.527 -0.0186 -1.1179  0.2366
  714MOL0     O98418   3.066   8.105   9.439 -0.3478  0.1889  0.4439
  714MOL0     C98419   3.192   8.130   9.391  0.2089  0.2598  0.8896
  714MOL0     C98420   3.258   8.013   9.340 -0.1283  1.0155 -0.4261
  714MOL0     C98421   3.384   8.033   9.279  0.5835  0.2923 -0.3594
  714MOL0     C98422   3.439   7.903   9.219  1.0397 -0.3998  0.3117
  714MOL0     C98423   3.447   8.156   9.280  0.4790  0.0185  0.4634
  714MOL0     C98424   3.576   8.176   9.213 -0.2934 -0.4786 -0.1241
  714MOL0     O98425   3.594   8.294   9.140 -0.9855  0.1089  0.1784
  714MOL0     C98426   3.727   8.329   9.115 -1.0885  0.0867  0.2769
  714MOL0     C98427   3.828   8.328   9.218 -0.0991 -1.0944 -0.5153
  714MOL0     C98428   3.961   8.348   9.186  0.3300  0.6636 -0.5317
  714MOL0     C98429   4.001   8.369   9.054  0.2482  0.7845  0.5880
  714MOL0     O98430   4.125   8.430   9.039 -0.0314 -0.1005  0.3028
  714MOL0     C98431   4.196   8.371   8.925 -0.1610 -0.3654 -0.0794
  714MOL0     C98432   4.337   8.408   8.883 -0.9377  0.9441 -0.2038
  714MOL0     C98433   4.433   8.412   9.006  0.4142  0.7909  0.9549
  714MOL0     C98434   4.564   8.491   8.975  0.4646 -0.6190 -0.1837
  714MOL0     C98435   4.680   8.458   9.076  0.4048 -0.1646  0.0517
  714MOL0     C98436   4.654   8.539   9.197  0.4161  0.5361 -0.6362
  714MOL0     C98437   4.750   8.496   9.322 -0.6361  0.3869 -0.3777
  714MOL0     C98438   4.690   8.555   9.454 -0.2773  0.5285  0.3665
  714MOL0    Cl98439   4.715   8.727   9.447  0.1988 -0.1277 -0.0480
  714MOL0     C98440   3.906   8.362   8.951  0.4541  0.4793  0.1639
  714MOL0     C98441   3.769   8.339   8.982  0.3406  0.4639  0.6086
  714MOL0     O98442   3.661   8.091   9.215  0.4436  1.3563 -0.1489
  714MOL0     C98443   3.376   8.263   9.334 -0.9738  0.2697  0.4082
  714MOL0     C98444   3.247   8.260   9.395 -1.1224 -0.7452 -0.1930
  714MOL0     N98445   2.539   8.188   9.288  0.0762 -0.7171  0.1578
  714MOL0     N98446   2.427   8.185   9.224 -0.2280  0.6533  0.7633
  714MOL0     C98447   1.231   8.540   8.852 -0.1395  0.8100 -0.0762
  714MOL0     C98448   1.088   8.532   8.832 -0.8119 -0.7730 -0.0922
  714MOL0     C98449   0.685   8.486   8.602  1.3992  0.2064  0.0046
  714MOL0     C98450   0.608   8.479   8.479  0.6611  0.0385 -0.8220
  714MOL0     C98451   0.465   8.455   8.485 -0.2018  0.4392 -0.6586
  714MOL0     C98452   0.400   8.429   8.605 -0.2732 -0.4041  0.7358
  714MOL0     O98453   0.264   8.404   8.599 -0.4433  0.0314  0.4289
  714MOL0     C98454   0.185   8.380   8.715  0.1094 -0.5941 -0.3766
  714MOL0     C98455   0.046   8.330   8.674  0.9205  0.9135  0.1083
  714MOL0     C98456  -0.060   8.320   8.786  0.0861  0.7323 -0.6706
  714MOL0     C98457  -0.200   8.271   8.732 -0.0048 -0.3165 -0.1061
  714MOL0     C98458  -0.261   8.366   8.641  0.2010 -0.1288  0.4687
  714MOL0     C98459  -0.325   8.433   8.564 -0.1435 -0.6682 -0.2005
  714MOL0     C98460   0.476   8.421   8.723  0.0732 -0.2335  0.6573
  714MOL0     C98461   0.616   8.448   8.721  0.1625 -0.2050  0.4310
  714MOL0     C98462   0.690   8.468   8.853 -0.2710  0.5160 -0.3199
  714MOL0     H98463   1.090   8.481   8.505 -0.9162  0.7271  0.9119
  714MOL0     H98464   1.326   8.555   8.531  0.1349  1.1134 -0.9058
  714MOL0     H98465   1.497   8.398   8.855  3.5920 -1.4077  0.2246
  714MOL0     H98466   1.510   8.552   8.950 -1.0295 -0.9105  0.5874
  714MOL0     H98467   1.684   8.445   8.742 -0.7379  1.7771 -2.0217
  714MOL0     H98468   1.710   8.612   8.800 -1.8182 -0.4480 -3.3220
  714MOL0     H98469   1.758   8.542   9.015 -1.0500  1.5296 -1.3404
  714MOL0     H98470   1.722   8.366   8.980  0.4334  0.4110  0.2808
  714MOL0     H98471   1.900   8.368   8.799  0.8179  1.3442 -1.1487
  714MOL0     H98472   1.943   8.538   8.840  0.6415  0.1081  2.0148
  714MOL0     H98473   2.051   8.293   8.946 -0.5621  0.9304 -0.6915
  714MOL0     H98474   1.937   8.364   9.069  2.8567 -0.3602  2.0074
  714MOL0     H98475   2.156   8.522   8.936 -1.0057  1.7403 -0.1955
  714MOL0     H98476   2.034   8.565   9.063 -0.7038 -0.7512  1.6196
  714MOL0     H98477   2.154   8.398   9.215  2.4902  2.1299  2.4940
  714MOL0     H98478   2.274   8.518   9.161 -0.3086  2.1337 -1.1222
  714MOL0     H98479   2.234   8.230   9.071  1.1851 -0.1766  1.1054
  714MOL0     H98480   2.337   8.351   8.976  0.1469  1.1825 -0.6547
  714MOL0     H98481   2.530   8.487   9.152  2.7549  1.5695  3.0061
  714MOL0     H98482   2.685   8.452   9.383  0.2187 -1.0699  0.4750
  714MOL0     H98483   2.774   8.399   9.243  0.5214  0.4108  0.9389
  714MOL0     H98484   2.732   8.217   9.493 -2.2176 -2.2576 -1.9226
  714MOL0     H98485   2.797   8.156   9.352 -0.1193  0.3404 -0.7889
  714MOL0     H98486   2.975   8.342   9.358  0.9475 -1.6866 -1.0394
  714MOL0     H98487   2.897   8.389   9.513 -2.1780 -0.0167 -0.2290
  714MOL0     H98488   3.086   8.255   9.583 -0.4754  0.4469 -0.5802
  714MOL0     H98489   2.940   8.147   9.594 -2.2602  0.4389 -0.6789
  714MOL0     H98490   3.213   7.914   9.336  0.8270  0.5967 -1.3360
  714MOL0     H98491   3.390   7.816   9.263 -0.0131 -0.6639 -1.3076
  714MOL0     H98492   3.546   7.884   9.234  1.8175  1.0530 -2.6016
  714MOL0     H98493   3.413   7.905   9.113  0.7331  0.9077  0.3891
  714MOL0     H98494   3.807   8.307   9.322  2.1485  1.7798  0.6682
  714MOL0     H98495   4.045   8.365   9.253  3.2173 -1.2718 -3.3608
  714MOL0     H98496   4.183   8.267   8.953 -0.3790 -0.5539 -0.8715
  714MOL0     H98497   4.144   8.377   8.829 -1.0978  0.3558  0.4506
  714MOL0     H98498   4.378   8.338   8.810 -0.8120 -1.8055  2.2970
  714MOL0     H98499   4.341   8.511   8.846 -0.1692  1.2983  0.8179
  714MOL0     H98500   4.455   8.306   9.024  0.0409  0.9220  2.2894
  714MOL0     H98501   4.387   8.439   9.101  1.4689  0.5549  1.5394
  714MOL0     H98502   4.533   8.595   8.992 -0.7017 -1.2262  1.7680
  714MOL0     H98503   4.602   8.480   8.873 -0.0480  0.7097 -0.5458
  714MOL0     H98504   4.668   8.352   9.102 -2.8976  0.1508  0.1228
  714MOL0     H98505   4.777   8.480   9.030  1.3522 -1.8569  1.1273
  714MOL0     H98506   4.557   8.497   9.226  0.2150  1.4416  0.0359
  714MOL0     H98507   4.641   8.647   9.186 -0.5362  0.6019  0.8563
  714MOL0     H98508   4.852   8.535   9.307  0.2591 -1.3011  1.0031
  714MOL0     H98509   4.760   8.387   9.323 -1.7686  0.2714 -0.5189
  714MOL0     H98510   4.736   8.523   9.548 -0.5776  0.9134  0.6464
  714MOL0     H98511   4.586   8.522   9.461  0.8290 -4.0005 -1.2733
  714MOL0     H98512   3.941   8.383   8.850  3.0872  1.2169  1.1672
  714MOL0     H98513   3.696   8.355   8.902 -0.4684  2.5427  1.6969
  714MOL0     H98514   3.422   8.360   9.315  4.1361 -1.9237  0.1552
  714MOL0     H98515   3.205   8.346   9.446 -0.2478 -0.3604 -0.1069
  714MOL0     H98516   1.275   8.541   8.951  0.4351 -1.3914 -0.2470
  714MOL0     H98517   1.018   8.534   8.916 -0.0101  1.5319  0.6118
  714MOL0     H98518   0.657   8.478   8.382  0.8743 -0.9144 -0.7202
  714MOL0     H98519   0.410   8.463   8.391  1.5734  1.0904 -1.6829
  714MOL0     H98520   0.225   8.322   8.798  2.3767  2.0906  0.5427
  714MOL0     H98521   0.157   8.474   8.764 -0.4970 -1.7236  1.5362
  714MOL0     H98522   0.049   8.238   8.616 -0.9505  1.0408 -0.2427
  714MOL0     H98523   0.000   8.400   8.603  1.5817  0.2749 -0.9686
  714MOL0     H98524  -0.034   8.259   8.873  0.6603 -0.7113 -1.8076
  714MOL0     H98525  -0.070   8.421   8.827 -2.7518  0.7353 -1.1755
  714MOL0     H98526  -0.260   8.242   8.818 -1.0890  3.4318  0.5397
  714MOL0     H98527  -0.186   8.179   8.673  0.3619  0.3436 -1.0779
  714MOL0     H98528  -0.396   8.486   8.503 -0.8856  0.5431  1.6289
  714MOL0     H98529   0.431   8.411   8.822 -2.8320  1.6767 -0.3601
  714MOL0     H98530   0.623   8.479   8.939  2.5721 -0.0154  2.1046
  714MOL0     H98531   0.754   8.381   8.869 -0.4258  0.7882  2.0631
  714MOL0     H98532   0.749   8.560   8.855 -1.9017  1.6180 -0.6436
  715MOL0     O98533  10.394   3.906   2.888 -0.6269 -0.7929 -0.2758
  715MOL0     C98534  10.289   3.850   2.883  0.9239  1.7596 -0.9543
  715MOL0     O98535  10.261   3.741   2.805  0.2382 -0.1216  0.7338
  715MOL0     C98536  10.364   3.666   2.751  0.2608  0.2602 -1.1203
  715MOL0     C98537  10.431   3.713   2.639 -0.0377  0.6652  0.1186
  715MOL0     C98538  10.516   3.628   2.570 -0.6831  0.8475  0.4958
  715MOL0     C98539  10.538   3.494   2.616  0.5754  0.2498  0.7705
  715MOL0     O98540  10.617   3.413   2.538 -0.2152 -0.6246 -0.7071
  715MOL0     C98541  10.581   3.276   2.524 -0.2034 -0.4471 -0.3275
  715MOL0     C98542  10.619   3.233   2.379 -1.2019 -0.4065 -0.1031
  715MOL0     C98543  10.758   3.265   2.323 -0.4352 -0.1685  0.3986
  715MOL0     C98544  10.780   3.189   2.187 -0.3966  0.0590 -0.2656
  715MOL0     C98545  10.930   3.184   2.147  0.8745 -0.2513 -0.3524
  715MOL0     C98546  10.951   3.072   2.052 -0.0699  0.1648 -0.2567
  715MOL0     C98547  11.100   3.046   2.028 -0.5771  0.1287 -0.0583
  715MOL0     C98548  11.120   2.923   1.950  0.4379 -0.5990  0.4691
  715MOL0     N98549  11.262   2.882   1.926  0.6968 -0.2344  0.0378
  715MOL0     C98550  11.350   2.869   2.026  0.4056 -0.1833  0.0552
  715MOL0     C98551  11.468   2.897   1.972 -0.0120 -0.0748  0.9133
  715MOL0     C98552  11.603   2.909   2.043  0.6805  0.1866  0.6497
  715MOL0     C98553  11.597   2.882   2.191  0.0899  0.7320 -0.4196
  715MOL0     C98554  11.602   2.732   2.208 -0.1451  0.3248 -0.2570
  715MOL0     C98555  11.579   2.701   2.357 -0.0384  0.3977  0.9537
  715MOL0     O98556  11.694   2.743   2.433 -0.0085 -0.4965  0.1819
  715MOL0     C98557  11.713   2.703   2.563  0.0832 -0.4396  1.7003
  715MOL0     C98558  11.655   2.596   2.631  0.3772  0.3216 -0.1933
  715MOL0     C98559  11.674   2.579   2.767 -0.6067 -0.4138 -0.2603
  715MOL0     C98560  11.611   2.465   2.826  0.1668 -0.4761 -0.5125
  715MOL0     C98561  11.768   2.665   2.837 -0.5632 -0.5350 -0.2368
  715MOL0     C98562  11.793   2.660   2.992 -0.3556 -0.3808  0.4953
  715MOL0     O98563  11.844   2.778   3.043  0.3535 -0.3516 -0.3288
  715MOL0     C98564  11.873   2.786   3.174  0.7148  0.0838 -0.7745
  715MOL0     C98565  11.768   2.787   3.278  0.2260  0.9915  0.2816
  715MOL0     C98566  11.805   2.759   3.412  0.2568 -0.6633  0.6066
  715MOL0     C98567  11.936   2.768   3.452 -0.4118  0.0208  0.1195
  715MOL0     O98568  11.968   2.748   3.585  0.1260 -0.4854 -0.4189
  715MOL0     C98569  11.948   2.615   3.622 -0.5096  0.1174 -0.5024
  715MOL0     C98570  11.897   2.614   3.764  1.0300 -1.3183  0.6006
  715MOL0     C98571  11.920   2.474   3.827  0.3511  0.2337 -0.0716
  715MOL0     C98572  11.856   2.473   3.965 -0.8624  0.2809 -0.3846
  715MOL0     C98573  11.862   2.343   4.035 -0.6304  0.8596 -0.3856
  715MOL0     C98574  11.995   2.305   4.098  0.5111 -0.4243 -0.3347
  715MOL0     C98575  12.115   2.292   4.001 -0.2198  0.6706  0.2606
  715MOL0     C98576  12.238   2.220   4.060 -0.4747 -0.1531 -0.4903
  715MOL0    Cl98577  12.217   2.046   4.032 -0.5182  0.0729 -0.0164
  715MOL0     C98578  12.038   2.785   3.353  0.6569  0.2912  0.2960
  715MOL0     C98579  12.004   2.795   3.214  1.2895 -0.6254 -0.5908
  715MOL0     O98580  11.769   2.557   3.056 -0.4257  0.1929  0.4459
  715MOL0     C98581  11.831   2.768   2.758 -0.1295 -0.9501  0.2594
  715MOL0     C98582  11.800   2.782   2.629  0.5795 -0.5206 -0.1997
  715MOL0     N98583  11.444   2.924   1.834 -0.1853 -0.3017  0.9238
  715MOL0     N98584  11.318   2.910   1.804  0.0692  0.2154 -0.1281
  715MOL0     C98585  10.468   3.448   2.729 -0.9944 -0.0246 -0.3448
  715MOL0     C98586  10.379   3.531   2.797  0.2465 -0.3084  0.0701
  715MOL0     C98587  10.175   3.891   2.966 -0.0051 -0.3368 -0.0494
  715MOL0     C98588  10.202   4.003   3.041 -0.2696  0.6275 -0.2090
  715MOL0     C98589  10.111   4.054   3.135 -0.0031  1.0676  1.1644
  715MOL0     C98590   9.981   3.992   3.138 -0.2685  0.6664  0.6738
  715MOL0     O98591   9.900   4.036   3.233 -0.2903  0.1053  0.6092
  715MOL0     C98592   9.757   4.017   3.227  0.4479  0.2125  0.5252
  715MOL0     C98593   9.664   4.112   3.312 -0.2162 -0.0495  0.4357
  715MOL0     C98594   9.680   4.121   3.466 -0.4862 -0.0619  0.6323
  715MOL0     C98595   9.577   4.208   3.537  0.1916 -1.0907 -0.4113
  715MOL0     C98596   9.567   4.347   3.479  0.7854 -0.2921  0.0885
  715MOL0     C98597   9.541   4.465   3.443  0.6145 -0.1165  0.0455
  715MOL0     C98598   9.945   3.897   3.039 -0.4553 -0.7710  0.6204
  715MOL0     C98599  10.039   3.843   2.959 -0.5458 -0.9761  0.1049
  715MOL0     C98600   9.975   3.735   2.881 -0.6360 -0.8440 -0.2135
  715MOL0     H98601  10.413   3.808   2.590  2.7401  1.0296 -0.3202
  715MOL0     H98602  10.573   3.677   2.491  0.4804  1.6921  1.8044
  715MOL0     H98603  10.473   3.258   2.529 -0.2129  0.0058  2.5620
  715MOL0     H98604  10.644   3.220   2.594  1.6587 -0.9037 -2.2423
  715MOL0     H98605  10.604   3.125   2.381 -3.8401 -0.1057  2.4652
  715MOL0     H98606  10.559   3.274   2.297 -0.2112  0.3982 -0.4508
  715MOL0     H98607  10.763   3.372   2.299  2.3860 -0.9533 -3.4893
  715MOL0     H98608  10.834   3.245   2.400 -0.9768  0.8061  1.2190
  715MOL0     H98609  10.751   3.086   2.211 -0.1494  0.7219  3.6373
  715MOL0     H98610  10.711   3.231   2.114 -0.8190  0.0221  0.1048
  715MOL0     H98611  10.995   3.166   2.233  2.0275  0.1843 -1.1101
  715MOL0     H98612  10.967   3.276   2.101 -1.9247  0.8958 -0.4966
  715MOL0     H98613  10.912   2.981   2.098 -0.9259  0.1059 -1.0697
  715MOL0     H98614  10.902   3.092   1.956  3.4241  2.4868 -1.7558
  715MOL0     H98615  11.149   3.027   2.124 -0.8513 -0.0187  0.0551
  715MOL0     H98616  11.153   3.135   1.992 -0.3242  0.7398  1.7075
  715MOL0     H98617  11.061   2.844   1.997  3.3658 -3.5060 -0.3216
  715MOL0     H98618  11.074   2.933   1.851  2.0257  2.0607 -0.0958
  715MOL0     H98619  11.320   2.852   2.129  0.5212  1.3101  0.3473
  715MOL0     H98620  11.656   3.004   2.027  0.8458 -0.0940 -0.5547
  715MOL0     H98621  11.662   2.831   1.995  1.4509  1.3220 -0.3244
  715MOL0     H98622  11.682   2.933   2.236  1.5483 -2.9592  1.4724
  715MOL0     H98623  11.507   2.923   2.238  0.7491  2.5447 -0.6800
  715MOL0     H98624  11.519   2.686   2.153  0.1575 -0.5096 -0.0199
  715MOL0     H98625  11.704   2.698   2.189  0.8993  3.4454 -0.8274
  715MOL0     H98626  11.488   2.752   2.392 -0.5022  0.6765 -0.5926
  715MOL0     H98627  11.560   2.594   2.370 -2.8700  0.8123  0.9465
  715MOL0     H98628  11.606   2.515   2.579  0.3809 -0.9859  1.7152
  715MOL0     H98629  11.574   2.485   2.927 -0.6749 -1.8056 -0.5246
  715MOL0     H98630  11.674   2.375   2.833 -1.5604 -2.0298 -3.2831
  715MOL0     H98631  11.531   2.432   2.758 -0.5668  1.4851 -0.6442
  715MOL0     H98632  11.662   2.777   3.255  0.5749 -1.6504 -0.5105
  715MOL0     H98633  11.727   2.743   3.485  1.9784  1.7389  3.1860
  715MOL0     H98634  11.884   2.549   3.562  0.9955 -1.8577 -0.0564
  715MOL0     H98635  12.044   2.563   3.621 -0.2881  0.5364 -1.1488
  715MOL0     H98636  11.942   2.697   3.819  0.7856  1.2409 -2.7014
  715MOL0     H98637  11.791   2.641   3.761  1.2652 -0.4020  0.2866
  715MOL0     H98638  12.026   2.448   3.827  0.1117 -1.1019  2.3305
  715MOL0     H98639  11.863   2.400   3.770 -0.1147 -1.5283  2.4591
  715MOL0     H98640  11.749   2.496   3.970 -1.1036 -0.8934  3.6553
  715MOL0     H98641  11.913   2.554   4.012  2.2733 -0.0573 -3.2540
  715MOL0     H98642  11.789   2.345   4.117 -2.0750 -0.2318 -1.5812
  715MOL0     H98643  11.828   2.264   3.967  1.0871 -0.6768  0.4558
  715MOL0     H98644  11.986   2.209   4.150  1.0634 -1.4219 -2.0283
  715MOL0     H98645  12.011   2.379   4.177 -0.0046 -1.2347  0.5501
  715MOL0     H98646  12.147   2.392   3.970 -0.6648  0.8674  0.4294
  715MOL0     H98647  12.085   2.239   3.910  2.7755  0.6284 -0.8032
  715MOL0     H98648  12.246   2.238   4.167  1.5234 -0.5304 -0.5376
  715MOL0     H98649  12.338   2.245   4.025  0.0420  1.5058  1.9595
  715MOL0     H98650  12.136   2.806   3.393  0.3983  1.7145  0.2332
  715MOL0     H98651  12.087   2.796   3.144  2.1845  1.1079  0.4364
  715MOL0     H98652  11.896   2.837   2.811  2.1178 -2.6871 -0.1021
  715MOL0     H98653  11.846   2.859   2.568 -1.6219  0.5374 -0.5983
  715MOL0     H98654  10.453   3.342   2.747 -0.4649 -0.1727 -0.7709
  715MOL0     H98655  10.316   3.499   2.879  1.2094 -0.5721  0.7278
  715MOL0     H98656  10.299   4.051   3.034  0.5046 -0.7723  0.7006
  715MOL0     H98657  10.132   4.135   3.204  2.1331  0.3370  1.4680
  715MOL0     H98658   9.729   4.039   3.124  1.6604  2.3242  0.5750
  715MOL0     H98659   9.734   3.914   3.255  0.5187 -0.7746 -2.7020
  715MOL0     H98660   9.563   4.078   3.285  1.0842 -3.2246 -0.8812
  715MOL0     H98661   9.665   4.214   3.271 -0.8161 -0.2518 -0.0950
  715MOL0     H98662   9.674   4.017   3.499  0.9870 -0.6498 -0.8607
  715MOL0     H98663   9.772   4.157   3.512 -2.2268  2.3076  2.5937
  715MOL0     H98664   9.593   4.219   3.644 -1.7882 -0.4729 -0.1372
  715MOL0     H98665   9.482   4.156   3.526  0.8164 -1.9818 -1.8966
  715MOL0     H98666   9.517   4.566   3.419 -1.2324 -0.9645 -2.0653
  715MOL0     H98667   9.849   3.847   3.050  0.9050 -3.5560  0.6206
  715MOL0     H98668  10.002   3.649   2.942  1.8357  1.6582  2.5035
  715MOL0     H98669   9.866   3.741   2.865 -0.8940  1.0731  1.8096
  715MOL0     H98670  10.021   3.733   2.782 -0.2189  3.2971 -0.2881
  716MOL0     O98671   0.437  11.377   8.943 -0.3305  0.2894 -0.1806
  716MOL0     C98672   0.369  11.299   9.006 -0.3724 -0.6704  0.3687
  716MOL0     O98673   0.419  11.177   9.052 -0.0113  0.6432 -0.2602
  716MOL0     C98674   0.556  11.166   9.027 -0.2149  0.5408  0.0420
  716MOL0     C98675   0.600  11.120   8.905 -0.7801  0.0582 -1.0880
  716MOL0     C98676   0.740  11.111   8.876  0.4974  0.7611 -0.5524
  716MOL0     C98677   0.837  11.170   8.969 -0.3963 -0.3242 -0.0391
  716MOL0     O98678   0.976  11.173   8.956  0.6258  0.2295  0.1393
  716MOL0     C98679   1.038  11.091   8.851  0.3625 -0.5376 -0.2320
  716MOL0     C98680   1.072  10.946   8.877  0.3463  0.6595  0.4060
  716MOL0     C98681   1.131  10.891   8.745  0.1348 -0.2791 -0.1418
  716MOL0     C98682   1.248  10.960   8.683 -0.8868 -1.2983  0.1318
  716MOL0     C98683   1.300  10.881   8.555  0.2724 -0.2966  0.1491
  716MOL0     C98684   1.430  10.937   8.498 -0.1407  0.1973  0.1179
  716MOL0     C98685   1.439  11.081   8.460  0.3585 -0.4912  0.6228
  716MOL0     C98686   1.314  11.127   8.386 -0.2614  0.1877  0.3298
  716MOL0     N98687   1.299  11.083   8.243  0.3449 -0.8513  0.0543
  716MOL0     C98688   1.394  11.062   8.148 -0.3955  0.1443 -1.0533
  716MOL0     C98689   1.334  11.008   8.038 -0.6723 -0.8296  0.2320
  716MOL0     C98690   1.403  10.954   7.913 -0.3712 -0.2425  0.7078
  716MOL0     C98691   1.329  11.010   7.787  0.1737  0.0393  0.8993
  716MOL0     C98692   1.341  11.166   7.782 -0.6282  0.1478 -0.2911
  716MOL0     C98693   1.262  11.224   7.662 -0.0318  0.2881  0.0294
  716MOL0     O98694   1.275  11.368   7.663 -0.1566 -0.2134  0.2541
  716MOL0     C98695   1.384  11.420   7.592  0.2498 -0.6213 -0.7347
  716MOL0     C98696   1.479  11.357   7.514  0.2542 -0.0125  0.9293
  716MOL0     C98697   1.571  11.433   7.444 -0.3918  0.1503 -0.4429
  716MOL0     C98698   1.643  11.350   7.350 -0.2765  0.2907 -0.2482
  716MOL0     C98699   1.589  11.573   7.459 -0.1305 -0.0792 -0.6101
  716MOL0     C98700   1.682  11.666   7.385  0.2719  0.7501 -0.2749
  716MOL0     O98701   1.681  11.797   7.425  0.1061 -0.2862  0.1630
  716MOL0     C98702   1.774  11.890   7.395  0.6021  0.9101 -0.5685
  716MOL0     C98703   1.760  12.008   7.464 -0.7939  0.3307 -0.3020
  716MOL0     C98704   1.861  12.111   7.458  0.8475  0.1511  0.8505
  716MOL0     C98705   1.969  12.100   7.368  0.4041 -0.0610 -1.1008
  716MOL0     O98706   2.065  12.195   7.344  0.9774 -0.4703  0.4877
  716MOL0     C98707   2.036  12.335   7.379  0.5358  0.1797 -0.1906
  716MOL0     C98708   2.127  12.426   7.299 -0.1530 -0.4410 -0.1747
  716MOL0     C98709   2.274  12.409   7.333  0.5880 -0.4426  0.2775
  716MOL0     C98710   2.361  12.518   7.270  0.8770  0.7758 -0.8181
  716MOL0     C98711   2.508  12.504   7.306 -0.3170 -0.1687 -0.7452
  716MOL0     C98712   2.549  12.609   7.411  0.7951 -0.0582  0.3155
  716MOL0     C98713   2.705  12.618   7.411  0.1387 -0.2108 -0.2134
  716MOL0     C98714   2.759  12.755   7.453 -0.6770  0.6916 -0.0462
  716MOL0    Cl98715   2.707  12.797   7.628  0.0169 -0.0926 -0.0126
  716MOL0     C98716   1.971  11.982   7.291 -0.1012 -0.6759 -0.0691
  716MOL0     C98717   1.879  11.876   7.297 -0.5793 -1.1904  0.0552
  716MOL0     O98718   1.738  11.628   7.286 -0.4328  0.6568 -0.4086
  716MOL0     C98719   1.487  11.634   7.533  0.2655  0.6055  0.1048
  716MOL0     C98720   1.391  11.562   7.604  0.3333 -0.2050  0.4261
  716MOL0     N98721   1.197  10.994   8.066  0.8258  0.5367 -0.1798
  716MOL0     N98722   1.180  11.050   8.182 -0.8843  0.4756  0.1239
  716MOL0     C98723   0.785  11.227   9.089 -0.3545 -0.1632  0.3454
  716MOL0     C98724   0.647  11.221   9.121 -0.2958 -0.2988  0.2058
  716MOL0     C98725   0.230  11.355   9.034  0.0444  0.6110  0.6584
  716MOL0     C98726   0.192  11.487   8.994 -0.0010  0.2569 -0.5508
  716MOL0     C98727   0.063  11.541   9.011  0.3454  0.0647  0.0368
  716MOL0     C98728  -0.031  11.465   9.077 -0.6077  0.1232 -1.3625
  716MOL0     O98729  -0.144  11.532   9.089 -0.0706 -1.2122  0.2023
  716MOL0     C98730  -0.240  11.490   9.186  0.2350 -0.0741  0.5297
  716MOL0     C98731  -0.355  11.595   9.213  0.1888  0.1100  0.3471
  716MOL0     C98732  -0.300  11.741   9.234  0.0599 -0.8644 -0.1068
  716MOL0     C98733  -0.399  11.852   9.222  1.1595 -0.4787  0.0061
  716MOL0     C98734  -0.519  11.838   9.310 -0.6668  0.2311 -0.9089
  716MOL0     C98735  -0.609  11.823   9.393  0.2059 -0.7366  0.6755
  716MOL0     C98736   0.004  11.346   9.132 -0.8705  0.6354 -0.8449
  716MOL0     C98737   0.131  11.284   9.106  0.1149 -1.0356  0.4900
  716MOL0     C98738   0.156  11.145   9.155 -1.2316  0.4698  0.4151
  716MOL0     H98739   0.530  11.095   8.825 -0.6281 -1.1567 -0.8508
  716MOL0     H98740   0.767  11.068   8.780  0.0892 -0.1251 -0.2826
  716MOL0     H98741   1.138  11.136   8.841  0.3458 -0.2559  0.7075
  716MOL0     H98742   0.993  11.106   8.753  0.8771 -2.2070 -0.7528
  716MOL0     H98743   1.140  10.931   8.961 -1.2160 -0.0163  1.5870
  716MOL0     H98744   0.980  10.893   8.901  0.4355 -0.3672 -1.3952
  716MOL0     H98745   1.163  10.789   8.768 -0.4353 -0.6007 -0.7132
  716MOL0     H98746   1.049  10.890   8.673  0.3958  2.1954 -0.5820
  716MOL0     H98747   1.217  11.059   8.649 -0.2600 -2.0562 -2.9378
  716MOL0     H98748   1.331  10.975   8.753 -1.6245  0.9439  0.6134
  716MOL0     H98749   1.223  10.886   8.476  0.2854  1.6014  0.2017
  716MOL0     H98750   1.303  10.778   8.590 -0.1138  0.4435  2.5423
  716MOL0     H98751   1.514  10.917   8.565 -0.5171 -0.8660  0.2926
  716MOL0     H98752   1.444  10.884   8.404  1.6973  1.0104 -0.1054
  716MOL0     H98753   1.526  11.098   8.396  1.6425 -1.6171  2.0042
  716MOL0     H98754   1.445  11.138   8.553 -0.1011 -0.4418  0.6223
  716MOL0     H98755   1.225  11.094   8.440 -1.1793  2.4498  0.3253
  716MOL0     H98756   1.315  11.237   8.390 -1.2409  0.2468 -0.5255
  716MOL0     H98757   1.500  11.085   8.144 -0.6980  1.5366 -1.7185
  716MOL0     H98758   1.400  10.845   7.903  0.3163 -0.3050  1.0843
  716MOL0     H98759   1.508  10.984   7.908  0.0890 -1.4443  2.2619
  716MOL0     H98760   1.369  10.964   7.696  0.3008 -2.4054  2.1071
  716MOL0     H98761   1.226  10.974   7.789  0.2726 -0.7469 -2.2763
  716MOL0     H98762   1.311  11.218   7.873 -2.8814  0.8361 -1.3561
  716MOL0     H98763   1.447  11.178   7.758 -0.8711  0.4324 -1.2717
  716MOL0     H98764   1.281  11.180   7.564 -2.7658  0.3737 -0.6170
  716MOL0     H98765   1.157  11.216   7.690 -0.6839  1.4403 -1.8671
  716MOL0     H98766   1.476  11.249   7.504  2.4213 -0.0811  0.5431
  716MOL0     H98767   1.626  11.244   7.369 -2.3608  1.0392  2.7445
  716MOL0     H98768   1.748  11.379   7.362 -0.8217  1.8074  1.1934
  716MOL0     H98769   1.633  11.380   7.245 -0.9144  2.1170  0.2876
  716MOL0     H98770   1.693  11.995   7.548  0.4962 -3.4266  0.3155
  716MOL0     H98771   1.847  12.202   7.517  0.3630 -1.0475  2.6559
  716MOL0     H98772   1.934  12.360   7.346  1.1933 -0.3710 -2.9411
  716MOL0     H98773   2.046  12.355   7.486 -0.8028 -0.2428  0.0342
  716MOL0     H98774   2.119  12.423   7.190  0.7504 -1.5416 -0.2289
  716MOL0     H98775   2.086  12.524   7.328 -0.8936 -1.2036  1.4610
  716MOL0     H98776   2.301  12.308   7.301 -1.0328  0.3940 -4.3996
  716MOL0     H98777   2.285  12.425   7.441 -1.9473  1.4435  0.3430
  716MOL0     H98778   2.322  12.616   7.301  0.4090 -0.2672  2.2510
  716MOL0     H98779   2.351  12.514   7.161  2.4034  1.7487 -1.0221
  716MOL0     H98780   2.533  12.406   7.347  2.9473  0.8684  0.0733
  716MOL0     H98781   2.561  12.527   7.213 -1.9008 -0.0187 -1.6465
  716MOL0     H98782   2.509  12.583   7.509 -0.0483  1.5731  0.4433
  716MOL0     H98783   2.507  12.707   7.385 -2.0274 -1.4900 -1.0320
  716MOL0     H98784   2.742  12.598   7.310 -2.2036 -2.4669 -0.7482
  716MOL0     H98785   2.738  12.545   7.486 -0.1254  0.1883  0.2970
  716MOL0     H98786   2.736  12.834   7.380 -1.0017  0.7389  0.1033
  716MOL0     H98787   2.867  12.746   7.450 -0.7917 -1.4632  0.7662
  716MOL0     H98788   2.052  11.974   7.220 -1.3547  0.7894 -1.7666
  716MOL0     H98789   1.881  11.805   7.216 -0.5168  0.6741 -1.6661
  716MOL0     H98790   1.470  11.740   7.545 -0.9805  0.3128  1.1277
  716MOL0     H98791   1.312  11.619   7.653  0.3623  0.2584 -0.0584
  716MOL0     H98792   0.856  11.270   9.158  1.4403 -1.2327 -0.7467
  716MOL0     H98793   0.600  11.260   9.211 -0.0218 -0.5703  0.4720
  716MOL0     H98794   0.264  11.538   8.931 -2.8517  1.3311 -3.2505
  716MOL0     H98795   0.041  11.643   8.983 -0.3997  0.0776  0.6478
  716MOL0     H98796  -0.274  11.390   9.155  0.2892  0.0386  0.1071
  716MOL0     H98797  -0.197  11.474   9.286 -0.5966 -0.6813  0.8036
  716MOL0     H98798  -0.416  11.561   9.298 -3.3694  0.7009 -1.7429
  716MOL0     H98799  -0.418  11.595   9.124  0.0161 -2.6248  0.3838
  716MOL0     H98800  -0.255  11.740   9.333  2.5992  0.1157 -1.1742
  716MOL0     H98801  -0.220  11.768   9.165  2.7379  1.6580  3.5828
  716MOL0     H98802  -0.438  11.868   9.121 -1.3092  1.3264  1.1289
  716MOL0     H98803  -0.352  11.949   9.236  1.4173 -0.3802 -1.4354
  716MOL0     H98804  -0.697  11.822   9.454 -0.6472 -0.5748 -0.5325
  716MOL0     H98805  -0.065  11.277   9.180  1.2913 -2.2535 -1.5803
  716MOL0     H98806   0.146  11.082   9.066  2.8050 -1.1562  0.8909
  716MOL0     H98807   0.257  11.138   9.195 -0.7165 -0.8730 -0.9731
  716MOL0     H98808   0.076  11.125   9.227 -1.8623  0.9181 -0.1506
  717MOL0     O98809   8.544   6.391   8.908  0.3038  0.5436 -0.8055
  717MOL0     C98810   8.580   6.493   8.969 -0.5053 -0.4580  0.1630
  717MOL0     O98811   8.505   6.570   9.052 -0.6823  0.0095  0.5883
  717MOL0     C98812   8.377   6.536   9.071 -0.8048  0.1733 -0.1054
  717MOL0     C98813   8.278   6.607   9.011  0.0529  0.6526 -0.4255
  717MOL0     C98814   8.148   6.564   9.028 -0.0730  0.1945  0.6285
  717MOL0     C98815   8.113   6.468   9.118  0.0055 -0.3956  0.3102
  717MOL0     O98816   7.976   6.444   9.132  0.2123 -0.2893  0.3438
  717MOL0     C98817   7.936   6.343   9.224  0.6583  0.3202  1.0811
  717MOL0     C98818   7.783   6.353   9.261 -0.2477 -0.2981 -0.2166
  717MOL0     C98819   7.680   6.291   9.173  0.6062 -0.0535  0.0866
  717MOL0     C98820   7.651   6.363   9.041 -0.4059 -0.4671 -0.0841
  717MOL0     C98821   7.561   6.277   8.951 -0.2883  0.0195  0.0452
  717MOL0     C98822   7.643   6.169   8.883  1.0720  0.6260 -0.3728
  717MOL0     C98823   7.573   6.111   8.760  0.3120  1.0764 -1.2353
  717MOL0     C98824   7.615   5.968   8.728 -0.1252  0.4582  0.0815
  717MOL0     N98825   7.753   5.984   8.679 -0.5911  0.4029 -0.3890
  717MOL0     C98826   7.792   5.989   8.547  0.3882  0.4996  0.2163
  717MOL0     C98827   7.925   6.004   8.540  0.5753  0.4225 -0.5511
  717MOL0     C98828   8.012   6.039   8.425  0.7461 -0.0546  0.5448
  717MOL0     C98829   7.942   6.155   8.347  0.0647 -0.3287  0.6483
  717MOL0     C98830   7.883   6.103   8.212 -0.3435 -0.3733  0.3969
  717MOL0     C98831   7.803   6.222   8.141  0.0902 -0.1394 -1.0260
  717MOL0     O98832   7.724   6.301   8.232 -0.0089 -0.5679  0.0002
  717MOL0     C98833   7.603   6.258   8.273 -0.0505 -0.2930 -0.0119
  717MOL0     C98834   7.545   6.130   8.259 -0.2921 -0.4110 -0.5155
  717MOL0     C98835   7.421   6.098   8.322 -0.2873  0.2600  0.5642
  717MOL0     C98836   7.379   5.953   8.327 -0.5041 -0.7273 -0.0170
  717MOL0     C98837   7.348   6.200   8.390 -0.6250 -0.0987  0.1157
  717MOL0     C98838   7.225   6.171   8.473 -0.4749 -0.1341  0.3438
  717MOL0     O98839   7.138   6.262   8.441  0.5242  0.1431 -0.1599
  717MOL0     C98840   7.000   6.262   8.470 -0.3209 -0.6430 -0.2529
  717MOL0     C98841   6.932   6.159   8.531  0.9252  0.1970 -0.7154
  717MOL0     C98842   6.792   6.154   8.525  0.1801  0.0546  0.5215
  717MOL0     C98843   6.714   6.255   8.470  0.2747 -0.0364  0.4644
  717MOL0     O98844   6.572   6.262   8.468  0.2138  0.1278  0.5795
  717MOL0     C98845   6.506   6.137   8.441 -0.0717  0.6995 -0.0313
  717MOL0     C98846   6.365   6.161   8.384  0.2310 -0.1401 -0.3641
  717MOL0     C98847   6.365   6.223   8.242  0.4969 -0.6176  0.0656
  717MOL0     C98848   6.230   6.277   8.185 -0.9664  1.2960 -0.7918
  717MOL0     C98849   6.266   6.342   8.045 -0.0215  0.6582 -0.7517
  717MOL0     C98850   6.149   6.397   7.967  0.6369 -0.0862 -0.3005
  717MOL0     C98851   6.053   6.284   7.933  0.8392 -0.1548 -0.5088
  717MOL0     C98852   5.924   6.332   7.859 -0.4435 -0.0343  0.4887
  717MOL0    Cl98853   5.804   6.207   7.833  0.2227  0.1142 -0.3562
  717MOL0     C98854   6.787   6.365   8.408  0.5453 -0.3068 -0.2041
  717MOL0     C98855   6.926   6.370   8.409 -0.4113  0.4196 -0.2100
  717MOL0     O98856   7.217   6.090   8.570 -0.6982  0.4762 -0.3699
  717MOL0     C98857   7.409   6.328   8.392 -1.1608 -0.7041  0.1518
  717MOL0     C98858   7.531   6.351   8.348 -0.6600 -0.7965  0.4808
  717MOL0     N98859   7.958   6.017   8.673  0.0511  0.0166 -0.0072
  717MOL0     N98860   7.868   5.998   8.754  0.2671 -0.0660 -0.2740
  717MOL0     C98861   8.219   6.401   9.192 -0.3993 -0.2343  1.0053
  717MOL0     C98862   8.353   6.425   9.158  0.6046 -0.2844  0.3205
  717MOL0     C98863   8.724   6.506   8.973  0.5000  0.1937 -0.2476
  717MOL0     C98864   8.791   6.560   9.087 -0.3635 -0.7768  0.0386
  717MOL0     C98865   8.934   6.562   9.093 -0.7065 -0.0248 -0.0296
  717MOL0     C98866   9.019   6.533   8.987  0.5844 -0.2170  0.4693
  717MOL0     O98867   9.157   6.559   8.994 -0.0856  0.5099 -0.8029
  717MOL0     C98868   9.238   6.507   8.902 -0.2076  0.5070  0.1280
  717MOL0     C98869   9.279   6.361   8.926  0.2946  0.0587  0.2247
  717MOL0     C98870   9.365   6.356   9.043 -0.1233 -0.1589 -0.0606
  717MOL0     C98871   9.408   6.217   9.067 -0.1570  0.5633  0.0913
  717MOL0     C98872   9.501   6.227   9.178  0.2458  0.1959 -0.3106
  717MOL0     C98873   9.586   6.226   9.261  0.1727 -0.9435 -0.8663
  717MOL0     C98874   8.952   6.478   8.877  0.3379  0.5870 -0.7845
  717MOL0     C98875   8.808   6.463   8.868  0.2895  0.3793  0.1031
  717MOL0     C98876   8.752   6.423   8.728 -0.6119 -0.3908 -0.4652
  717MOL0     H98877   8.298   6.685   8.939  2.3002 -1.2938 -2.1010
  717MOL0     H98878   8.075   6.630   8.982  1.1096  0.2061 -1.3735
  717MOL0     H98879   8.002   6.347   9.311  1.7061 -2.3888  0.5116
  717MOL0     H98880   7.961   6.244   9.185  0.1711  0.8693 -0.7193
  717MOL0     H98881   7.774   6.298   9.355 -0.4014 -0.5402 -0.3721
  717MOL0     H98882   7.756   6.457   9.281  0.8224  0.0251 -0.3894
  717MOL0     H98883   7.719   6.193   9.143  3.5761  1.1914 -0.5568
  717MOL0     H98884   7.584   6.280   9.224  0.0363  0.5308 -0.8493
  717MOL0     H98885   7.606   6.461   9.060 -2.6159 -1.4191 -0.1070
  717MOL0     H98886   7.740   6.386   8.982 -1.0877  0.0937 -0.9182
  717MOL0     H98887   7.531   6.350   8.874 -1.6336 -1.0232 -0.4565
  717MOL0     H98888   7.466   6.236   8.985  0.4391 -0.2550  1.8874
  717MOL0     H98889   7.737   6.213   8.850  1.3826 -0.0686 -0.4382
  717MOL0     H98890   7.667   6.095   8.960 -2.6850 -1.0145 -0.5254
  717MOL0     H98891   7.595   6.178   8.676  0.4202 -1.6492 -3.5226
  717MOL0     H98892   7.465   6.125   8.772  0.5635  3.2381 -1.0807
  717MOL0     H98893   7.612   5.899   8.812  0.2662  1.4778  0.9584
  717MOL0     H98894   7.566   5.924   8.640 -1.2501  1.1138  0.3649
  717MOL0     H98895   7.721   5.988   8.465 -0.3446  2.2443  0.7679
  717MOL0     H98896   8.005   5.952   8.360 -2.8949  1.0349 -0.7488
  717MOL0     H98897   8.113   6.066   8.459  1.2372 -0.4327 -0.5607
  717MOL0     H98898   7.872   6.205   8.415  1.6143  0.6023  1.6338
  717MOL0     H98899   8.021   6.226   8.318  0.5176 -1.1644 -0.2185
  717MOL0     H98900   7.965   6.068   8.149 -2.4388 -1.7523 -1.7196
  717MOL0     H98901   7.813   6.020   8.229 -0.9831  0.2849  1.0601
  717MOL0     H98902   7.871   6.293   8.093 -1.4404  0.0149 -3.0700
  717MOL0     H98903   7.744   6.170   8.065 -2.2955 -0.7201  1.0749
  717MOL0     H98904   7.603   6.051   8.212 -0.2012 -1.4060  1.1894
  717MOL0     H98905   7.386   5.913   8.226 -3.6046 -1.1117 -0.1849
  717MOL0     H98906   7.275   5.947   8.360 -0.0402  1.9715  2.2571
  717MOL0     H98907   7.441   5.895   8.397 -1.8808 -0.7956  1.1915
  717MOL0     H98908   6.985   6.077   8.579  0.2139  0.6602  0.9134
  717MOL0     H98909   6.753   6.071   8.584 -0.2391  0.1411  0.3703
  717MOL0     H98910   6.570   6.090   8.366 -0.6993 -1.2748  0.6113
  717MOL0     H98911   6.498   6.073   8.530 -2.1422  0.1667 -0.5629
  717MOL0     H98912   6.309   6.068   8.379  0.0150 -0.0029 -0.5166
  717MOL0     H98913   6.299   6.220   8.448 -2.1216 -2.3920 -0.5923
  717MOL0     H98914   6.407   6.148   8.175  2.3496 -1.5646  2.1559
  717MOL0     H98915   6.423   6.316   8.238  1.9154 -1.3554  2.0516
  717MOL0     H98916   6.181   6.347   8.254  1.6285  3.0955 -0.6162
  717MOL0     H98917   6.164   6.191   8.179  1.9075 -0.9591 -3.7948
  717MOL0     H98918   6.341   6.421   8.054  0.2705  0.2729  0.5317
  717MOL0     H98919   6.312   6.262   7.987  1.4819  0.0963  1.0875
  717MOL0     H98920   6.185   6.450   7.878 -0.3489  1.5667  0.2237
  717MOL0     H98921   6.092   6.471   8.024  0.3385  0.8371 -1.7207
  717MOL0     H98922   6.024   6.227   8.022  2.9096  2.0269  1.6797
  717MOL0     H98923   6.109   6.215   7.869  1.3472  1.2516 -1.6238
  717MOL0     H98924   5.937   6.376   7.760 -0.9684 -1.1564 -0.0858
  717MOL0     H98925   5.881   6.416   7.914 -1.5602 -1.3824  1.7717
  717MOL0     H98926   6.740   6.440   8.346 -1.0530  1.9696  3.4370
  717MOL0     H98927   6.982   6.433   8.340  1.0947 -0.2679  0.3260
  717MOL0     H98928   7.360   6.408   8.447 -0.4826 -0.0380 -0.1859
  717MOL0     H98929   7.587   6.441   8.372 -2.4898  0.1981  1.2152
  717MOL0     H98930   8.207   6.305   9.242  3.5808 -1.8030 -0.6158
  717MOL0     H98931   8.435   6.362   9.191  2.2800  1.5865 -0.0440
  717MOL0     H98932   8.731   6.603   9.166  0.3913 -1.8850  1.2502
  717MOL0     H98933   8.988   6.600   9.179 -1.6244  0.8692  0.1671
  717MOL0     H98934   9.209   6.522   8.797 -2.1674 -0.4826  0.4863
  717MOL0     H98935   9.328   6.567   8.913 -1.0229  1.5508  1.4199
  717MOL0     H98936   9.325   6.323   8.834 -0.7317 -1.2487  0.2212
  717MOL0     H98937   9.187   6.306   8.948  0.6401  0.1203  1.9159
  717MOL0     H98938   9.448   6.425   9.027 -1.0199  1.7365  2.6968
  717MOL0     H98939   9.306   6.385   9.131 -0.5117 -0.8402 -0.0855
  717MOL0     H98940   9.458   6.178   8.977  1.6946 -1.5435  1.8956
  717MOL0     H98941   9.321   6.151   9.077 -0.2687  0.7923  0.6327
  717MOL0     H98942   9.656   6.241   9.340 -2.3311 -0.2690  1.3454
  717MOL0     H98943   9.010   6.438   8.794 -2.9403 -1.7945 -2.1293
  717MOL0     H98944   8.662   6.480   8.705  0.6894  0.7746 -3.0672
  717MOL0     H98945   8.818   6.451   8.646  0.6080 -1.5559  0.0687
  717MOL0     H98946   8.745   6.314   8.718 -0.2886 -0.5971  1.2637
  718MOL0     O98947   5.531   2.251   3.692  0.2916  0.5691 -0.7775
  718MOL0     C98948   5.485   2.203   3.596  0.9622  0.2472 -0.2098
  718MOL0     O98949   5.556   2.145   3.496  0.3161  0.1995 -0.2499
  718MOL0     C98950   5.691   2.135   3.510 -1.0701  0.0349  0.3016
  718MOL0     C98951   5.769   2.204   3.420 -0.4696  0.2347  0.5651
  718MOL0     C98952   5.912   2.198   3.421 -0.1653 -0.2484  0.2868
  718MOL0     C98953   5.979   2.126   3.516 -0.4488  1.4678  0.0951
  718MOL0     O98954   6.119   2.119   3.523 -0.5104  0.0643  0.0318
  718MOL0     C98955   6.196   2.222   3.463  0.3103  0.0123  0.4644
  718MOL0     C98956   6.332   2.216   3.524 -0.9070 -0.7277 -0.1074
  718MOL0     C98957   6.426   2.316   3.464 -0.9496 -0.2633 -0.1526
  718MOL0     C98958   6.479   2.286   3.327 -0.7230 -0.5761  1.1640
  718MOL0     C98959   6.596   2.378   3.292 -0.6073 -0.2866 -0.9049
  718MOL0     C98960   6.665   2.363   3.159  0.8939  0.0490 -0.1657
  718MOL0     C98961   6.761   2.248   3.151  0.2520 -0.9961 -0.1159
  718MOL0     C98962   6.834   2.248   3.018  0.0137  1.0772  0.5246
  718MOL0     N98963   6.739   2.265   2.905  0.3834 -0.5100 -0.3022
  718MOL0     C98964   6.622   2.192   2.879 -0.3018 -0.5953  0.1075
  718MOL0     C98965   6.585   2.212   2.752  0.5559  0.3625  0.1939
  718MOL0     C98966   6.480   2.126   2.681 -0.7490 -0.8711 -0.0915
  718MOL0     C98967   6.368   2.222   2.655  1.0557  0.3680  0.0406
  718MOL0     C98968   6.255   2.161   2.572 -0.4288 -0.6479  0.6217
  718MOL0     C98969   6.127   2.253   2.577  1.0455 -0.5208  0.5168
  718MOL0     O98970   6.164   2.395   2.560  0.3068 -0.4878  0.0949
  718MOL0     C98971   6.233   2.429   2.450 -0.0399  0.2579  0.6431
  718MOL0     C98972   6.324   2.529   2.466 -0.3639 -0.6300  0.9503
  718MOL0     C98973   6.396   2.582   2.360 -0.7865 -0.0713 -0.3015
  718MOL0     C98974   6.485   2.694   2.392 -0.4086 -1.1183  0.3725
  718MOL0     C98975   6.379   2.526   2.228  0.0815 -0.3390 -0.1005
  718MOL0     C98976   6.440   2.579   2.103 -0.3829  0.8535 -0.0968
  718MOL0     O98977   6.374   2.528   1.990 -0.5909 -0.8751  0.2212
  718MOL0     C98978   6.440   2.507   1.869  0.3413 -0.5460 -0.1882
  718MOL0     C98979   6.581   2.490   1.851 -0.2350  0.4237 -0.4611
  718MOL0     C98980   6.643   2.459   1.727  0.6619 -0.8109 -0.4718
  718MOL0     C98981   6.563   2.440   1.612  0.1354  0.7265  0.4189
  718MOL0     O98982   6.608   2.390   1.484  0.4112  0.5655  0.4469
  718MOL0     C98983   6.748   2.365   1.462  0.1210 -0.5337  0.8675
  718MOL0     C98984   6.784   2.282   1.333  0.2746 -0.0966 -0.2334
  718MOL0     C98985   6.718   2.145   1.343  0.2225 -0.2064 -0.0498
  718MOL0     C98986   6.569   2.150   1.289 -0.0569  0.2894 -0.2811
  718MOL0     C98987   6.504   2.017   1.306  0.5907  0.1127  0.9670
  718MOL0     C98988   6.368   2.027   1.229 -0.1635 -0.1791  0.4209
  718MOL0     C98989   6.317   1.880   1.235  1.0165 -0.4005 -0.1415
  718MOL0     C98990   6.204   1.842   1.138 -0.9100  0.1413 -0.3765
  718MOL0    Cl98991   6.108   1.969   1.041 -0.4960 -0.0610 -0.5799
  718MOL0     C98992   6.421   2.436   1.628 -0.4903 -0.5109  0.3124
  718MOL0     C98993   6.368   2.481   1.752  0.1188 -0.1513  0.4448
  718MOL0     O98994   6.545   2.639   2.109 -0.0182 -0.3353  0.0297
  718MOL0     C98995   6.288   2.416   2.222 -1.0734 -0.1923 -0.2028
  718MOL0     C98996   6.213   2.371   2.325 -0.7139  0.0098 -0.8451
  718MOL0     N98997   6.678   2.302   2.706 -1.0262  0.6462  0.6140
  718MOL0     N98998   6.771   2.333   2.796 -0.1585 -0.1722  0.5866
  718MOL0     C98999   5.911   2.036   3.597  1.0399  0.3074  0.5593
  718MOL0     C99000   5.765   2.046   3.602  0.4943  0.1427  0.0061
  718MOL0     C99001   5.334   2.222   3.567 -0.5488  0.2358 -0.9469
  718MOL0     C99002   5.284   2.188   3.446 -0.1485  0.0534  0.5991
  718MOL0     C99003   5.138   2.180   3.417  0.2639 -1.2427 -0.5336
  718MOL0     C99004   5.054   2.210   3.526  0.6292  0.2598 -0.3529
  718MOL0     O99005   4.917   2.215   3.513  0.0829  0.2767 -0.0397
  718MOL0     C99006   4.846   2.183   3.392  0.8320  0.1346  0.5981
  718MOL0     C99007   4.690   2.178   3.413  0.0528 -0.1260 -0.3276
  718MOL0     C99008   4.629   2.318   3.406 -0.2339 -0.3195  1.0911
  718MOL0     C99009   4.487   2.308   3.460  0.5597  0.3591 -0.1427
  718MOL0     C99010   4.428   2.441   3.447 -0.2086  0.1326 -0.4720
  718MOL0     C99011   4.380   2.551   3.423 -0.5996  0.4232  0.0863
  718MOL0     C99012   5.107   2.239   3.647  0.0234  0.2473 -0.3986
  718MOL0     C99013   5.241   2.248   3.672  0.1681 -0.5940  0.1232
  718MOL0     C99014   5.279   2.278   3.816  0.9398  0.9858  0.4754
  718MOL0     H99015   5.719   2.257   3.339 -1.0945  0.5501  1.1508
  718MOL0     H99016   5.966   2.258   3.348 -1.5773  1.1059  0.2926
  718MOL0     H99017   6.151   2.321   3.478  0.1170  0.0199 -0.1679
  718MOL0     H99018   6.205   2.201   3.356 -2.2212  0.4143  0.1134
  718MOL0     H99019   6.302   2.229   3.628 -1.2212  0.1569 -0.2989
  718MOL0     H99020   6.370   2.116   3.504 -3.3512 -1.3278 -2.3114
  718MOL0     H99021   6.391   2.419   3.464  2.5552  1.1090 -2.0553
  718MOL0     H99022   6.518   2.302   3.523  1.2441  1.3610 -2.9501
  718MOL0     H99023   6.517   2.184   3.317 -0.0875 -0.1664 -1.2016
  718MOL0     H99024   6.400   2.307   3.254 -0.1373 -1.7557  0.1676
  718MOL0     H99025   6.668   2.366   3.373  0.1797  0.3012 -1.4971
  718MOL0     H99026   6.556   2.479   3.297 -3.6526 -1.2734 -2.7636
  718MOL0     H99027   6.583   2.348   3.089  0.7510  1.5067 -0.3360
  718MOL0     H99028   6.719   2.454   3.133  0.0441  1.1851  1.7473
  718MOL0     H99029   6.707   2.159   3.184 -4.5634  2.2998  2.1805
  718MOL0     H99030   6.838   2.263   3.227 -0.1051 -0.6185  0.1758
  718MOL0     H99031   6.910   2.327   3.018 -0.4398  1.5249 -0.5375
  718MOL0     H99032   6.885   2.151   3.008 -0.0730  1.2060 -1.5279
  718MOL0     H99033   6.572   2.118   2.943 -2.4594 -0.3425 -1.1699
  718MOL0     H99034   6.447   2.035   2.731 -3.7749 -0.4931 -1.1842
  718MOL0     H99035   6.534   2.104   2.588 -1.4545 -1.7963 -0.2937
  718MOL0     H99036   6.324   2.246   2.752 -0.3073 -0.6288 -0.3062
  718MOL0     H99037   6.401   2.313   2.604 -0.8404  1.4912  0.7179
  718MOL0     H99038   6.285   2.164   2.467 -0.9571  1.6686  0.5016
  718MOL0     H99039   6.221   2.062   2.606 -1.7217 -0.4177  0.0370
  718MOL0     H99040   6.052   2.214   2.508  1.9131 -2.1368  0.4310
  718MOL0     H99041   6.070   2.243   2.670  0.3021 -1.4810 -0.0209
  718MOL0     H99042   6.335   2.574   2.564 -1.2941 -1.3743  1.4159
  718MOL0     H99043   6.476   2.772   2.317 -1.5190 -0.3531  1.2580
  718MOL0     H99044   6.590   2.664   2.397  0.6164  2.1156  0.1695
  718MOL0     H99045   6.471   2.750   2.485 -0.3977 -1.7498  0.7670
  718MOL0     H99046   6.655   2.491   1.930  0.1199 -3.5604 -0.5220
  718MOL0     H99047   6.750   2.446   1.733  1.0815  2.3290  0.7905
  718MOL0     H99048   6.789   2.466   1.473 -2.2717  0.6521 -0.3299
  718MOL0     H99049   6.788   2.302   1.542 -1.4390 -3.1964 -0.2960
  718MOL0     H99050   6.748   2.330   1.241  1.4754 -3.6494 -2.7607
  718MOL0     H99051   6.890   2.262   1.316  0.5560  1.0533  0.0944
  718MOL0     H99052   6.718   2.110   1.447  2.4817 -2.8747 -0.8471
  718MOL0     H99053   6.765   2.071   1.278 -0.9635 -0.2032 -0.9493
  718MOL0     H99054   6.562   2.186   1.186 -0.5228 -0.7182 -0.6196
  718MOL0     H99055   6.508   2.225   1.340  1.2024  0.6481  0.7436
  718MOL0     H99056   6.573   1.949   1.254 -0.1972 -0.6937  0.9652
  718MOL0     H99057   6.492   1.997   1.413  0.9729  1.4638  1.2801
  718MOL0     H99058   6.393   2.052   1.125 -0.4850  1.1689  0.6411
  718MOL0     H99059   6.300   2.100   1.274  0.5765  1.8423 -1.5424
  718MOL0     H99060   6.285   1.856   1.337  1.4431  1.2411  0.3904
  718MOL0     H99061   6.396   1.808   1.213  0.5104 -1.2095  0.6123
  718MOL0     H99062   6.138   1.775   1.193 -4.5737  1.9692 -2.1733
  718MOL0     H99063   6.260   1.782   1.065 -2.3112 -2.9964  0.9418
  718MOL0     H99064   6.354   2.421   1.543 -2.7530  5.4267  0.5518
  718MOL0     H99065   6.260   2.480   1.762 -0.1877 -1.8332 -2.1184
  718MOL0     H99066   6.274   2.367   2.126 -1.4404  0.6113 -0.5690
  718MOL0     H99067   6.153   2.284   2.304  3.2976 -3.8338  1.6720
  718MOL0     H99068   5.958   1.982   3.679 -0.7763  2.2273  3.0088
  718MOL0     H99069   5.714   1.986   3.677  2.2996 -1.3477  0.1222
  718MOL0     H99070   5.351   2.153   3.368 -0.8799  1.6811 -0.8470
  718MOL0     H99071   5.102   2.169   3.315 -4.3852 -0.0231  0.7822
  718MOL0     H99072   4.875   2.252   3.312 -1.4333  1.4496  0.8262
  718MOL0     H99073   4.876   2.080   3.374 -0.8437 -0.2218 -0.4105
  718MOL0     H99074   4.682   2.150   3.518 -1.5787 -1.3095 -0.7418
  718MOL0     H99075   4.639   2.109   3.345 -0.5090  1.0685 -1.1628
  718MOL0     H99076   4.687   2.398   3.453  0.2521 -0.7415  1.2156
  718MOL0     H99077   4.625   2.347   3.300 -3.2685  0.6356  1.3573
  718MOL0     H99078   4.480   2.284   3.567  0.8423 -0.0324 -0.2093
  718MOL0     H99079   4.424   2.239   3.403 -3.3832  1.6762  2.2213
  718MOL0     H99080   4.330   2.646   3.418 -1.4869 -0.0220  0.2001
  718MOL0     H99081   5.032   2.249   3.724  1.4745  2.9034  0.7962
  718MOL0     H99082   5.342   2.194   3.850  2.1119  1.0697 -1.3595
  718MOL0     H99083   5.350   2.361   3.813  1.7852  0.3638  1.8985
  718MOL0     H99084   5.193   2.296   3.881 -2.3531 -3.9078 -1.9084
  719MOL0     O99085   5.374   3.955   7.066 -0.5343 -0.4052 -0.6405
  719MOL0     C99086   5.289   4.011   7.135 -0.4633 -0.2999  0.1869
  719MOL0     O99087   5.315   4.071   7.261  0.0577  0.8270  0.4054
  719MOL0     C99088   5.432   4.030   7.315 -0.0690  0.0592 -0.2943
  719MOL0     C99089   5.526   4.134   7.307 -0.2946 -0.3657  0.0001
  719MOL0     C99090   5.662   4.095   7.350  0.4187 -0.1527  0.6826
  719MOL0     C99091   5.688   3.958   7.391  1.1221 -0.7200 -0.3160
  719MOL0     O99092   5.813   3.910   7.437  0.1472 -0.5806  0.2756
  719MOL0     C99093   5.920   3.919   7.346 -0.5882 -0.2381  0.5699
  719MOL0     C99094   6.044   3.883   7.423 -0.6502  0.6231 -0.3541
  719MOL0     C99095   6.164   3.860   7.328 -0.3656  0.2350  0.4960
  719MOL0     C99096   6.175   3.719   7.289  1.0403  0.2138 -0.2741
  719MOL0     C99097   6.296   3.695   7.201  0.3704 -0.6263 -0.2389
  719MOL0     C99098   6.327   3.549   7.159  0.9560  0.1004  0.3175
  719MOL0     C99099   6.437   3.548   7.050  0.1565  0.4305  0.5902
  719MOL0     C99100   6.369   3.567   6.910  0.1224  0.1264 -0.1758
  719MOL0     N99101   6.469   3.599   6.808 -0.1759  0.4601  0.3973
  719MOL0     C99102   6.466   3.723   6.744  0.2425  0.1149  0.1730
  719MOL0     C99103   6.567   3.705   6.654  0.4746 -0.2372  0.0942
  719MOL0     C99104   6.635   3.796   6.555  0.1979 -1.3989 -0.0880
  719MOL0     C99105   6.566   3.814   6.426  0.4899  0.0601  0.1034
  719MOL0     C99106   6.581   3.700   6.326 -0.4989  0.6210 -0.2927
  719MOL0     C99107   6.498   3.733   6.202 -0.5951 -0.0979 -0.3211
  719MOL0     O99108   6.520   3.869   6.158  0.0692  0.5580 -0.2338
  719MOL0     C99109   6.639   3.896   6.106  0.2726 -0.3623 -0.1384
  719MOL0     C99110   6.729   3.812   6.046 -0.2096  0.3564 -0.2653
  719MOL0     C99111   6.848   3.853   5.998  0.3695 -0.2356 -0.3569
  719MOL0     C99112   6.933   3.743   5.937  0.0569 -0.0389 -0.0668
  719MOL0     C99113   6.888   3.988   6.014  0.2796  0.0615  0.1596
  719MOL0     C99114   7.011   4.049   5.966  0.2915  0.2509  0.2019
  719MOL0     O99115   7.099   3.971   5.901  0.3296  0.5956 -0.5163
  719MOL0     C99116   7.193   4.030   5.820 -0.8792  0.3183  0.3474
  719MOL0     C99117   7.330   4.017   5.858 -0.4935  0.1465 -0.5163
  719MOL0     C99118   7.429   4.048   5.759  0.3723  0.8776 -0.1003
  719MOL0     C99119   7.395   4.097   5.639 -0.3751 -0.7585  0.5965
  719MOL0     O99120   7.497   4.118   5.553 -0.7623 -0.1128 -0.1272
  719MOL0     C99121   7.507   4.250   5.497  0.1071 -0.4358 -0.3569
  719MOL0     C99122   7.664   4.287   5.466 -0.5794  0.0592 -0.1286
  719MOL0     C99123   7.731   4.189   5.376 -0.6824  0.3639  0.4149
  719MOL0     C99124   7.876   4.234   5.341  0.5785 -0.4454 -0.2017
  719MOL0     C99125   7.929   4.127   5.248 -0.1727 -0.6122  0.6072
  719MOL0     C99126   8.084   4.155   5.218 -0.7830  0.4155 -0.2465
  719MOL0     C99127   8.113   4.275   5.135  0.1441 -0.5333  0.5364
  719MOL0     C99128   8.265   4.276   5.099 -0.0018 -0.2004 -0.3052
  719MOL0    Cl99129   8.338   4.131   5.034  0.8071 -0.3533 -0.4347
  719MOL0     C99130   7.263   4.113   5.606 -0.3002 -0.0303  0.3305
  719MOL0     C99131   7.163   4.083   5.696 -0.6267 -0.2270 -0.3029
  719MOL0     O99132   7.035   4.166   5.999 -0.3848 -0.3562 -0.8121
  719MOL0     C99133   6.800   4.068   6.086 -0.6582  0.8160 -0.2709
  719MOL0     C99134   6.680   4.023   6.136  0.7192 -0.4167  0.0640
  719MOL0     N99135   6.629   3.582   6.675 -0.0220  0.1860 -0.2014
  719MOL0     N99136   6.582   3.525   6.775  0.0520  0.5155  0.4230
  719MOL0     C99137   5.585   3.869   7.409 -0.1498 -0.8268 -0.7336
  719MOL0     C99138   5.457   3.899   7.364 -0.5594  0.1651  0.4033
  719MOL0     C99139   5.145   3.982   7.098 -0.1023 -0.5151  0.4287
  719MOL0     C99140   5.122   3.940   6.966 -1.0733 -0.7774 -0.5165
  719MOL0     C99141   4.994   3.893   6.920 -0.5374 -0.2444  0.6202
  719MOL0     C99142   4.881   3.907   7.005 -0.3627  0.8518 -0.2759
  719MOL0     O99143   4.753   3.863   6.963  0.4839 -0.0259  0.1300
  719MOL0     C99144   4.727   3.795   6.837 -0.5724  0.1742  0.3866
  719MOL0     C99145   4.595   3.728   6.852 -1.1167 -0.5734 -0.3575
  719MOL0     C99146   4.531   3.677   6.718 -0.3380  0.1479  0.3885
  719MOL0     C99147   4.381   3.718   6.705  1.3438  0.9373  0.6218
  719MOL0     C99148   4.350   3.708   6.565 -0.0743  0.3882  0.6661
  719MOL0     C99149   4.325   3.725   6.440  0.4692  0.8122  0.4082
  719MOL0     C99150   4.902   3.960   7.135  1.1811  0.6824  0.1781
  719MOL0     C99151   5.030   3.984   7.183  0.7754  0.0720 -0.9015
  719MOL0     C99152   5.035   4.032   7.326 -0.3420  0.2086  1.4608
  719MOL0     H99153   5.495   4.235   7.279 -2.7239 -0.4620  1.9658
  719MOL0     H99154   5.732   4.178   7.350 -0.8234  0.9308  0.5515
  719MOL0     H99155   5.929   4.011   7.289  0.8840 -0.4370  0.4314
  719MOL0     H99156   5.898   3.840   7.273  2.1493  0.2591 -0.9482
  719MOL0     H99157   6.060   3.978   7.474  0.1999  2.0654 -3.0732
  719MOL0     H99158   6.032   3.799   7.493  1.4770  1.5617  1.2227
  719MOL0     H99159   6.154   3.924   7.239  0.7727  2.4391  1.8631
  719MOL0     H99160   6.255   3.894   7.379 -1.7204  0.4258  2.8937
  719MOL0     H99161   6.174   3.668   7.386 -2.9314 -0.8341 -0.6808
  719MOL0     H99162   6.081   3.681   7.247  1.4982 -0.6297 -0.5666
  719MOL0     H99163   6.385   3.730   7.255  1.6243 -0.8238 -2.1014
  719MOL0     H99164   6.290   3.753   7.109  1.2763  1.7984  1.1333
  719MOL0     H99165   6.361   3.480   7.236 -1.9470  0.2852  1.9326
  719MOL0     H99166   6.232   3.508   7.125 -0.0609  1.8615  0.8855
  719MOL0     H99167   6.479   3.448   7.033  0.9725  0.6980  0.9623
  719MOL0     H99168   6.520   3.615   7.072  1.2789 -0.8602  0.4483
  719MOL0     H99169   6.332   3.467   6.886  1.5494  0.2147 -3.2274
  719MOL0     H99170   6.290   3.642   6.917 -1.4310 -1.5603  1.5500
  719MOL0     H99171   6.397   3.806   6.753 -0.1096  0.1466 -2.1575
  719MOL0     H99172   6.739   3.772   6.532  0.1844 -1.5946  0.0553
  719MOL0     H99173   6.632   3.896   6.599  2.2278 -0.9565 -0.8448
  719MOL0     H99174   6.459   3.827   6.447 -0.2584 -2.8690 -1.3330
  719MOL0     H99175   6.593   3.915   6.395  1.4246 -0.3874 -0.5865
  719MOL0     H99176   6.687   3.693   6.299 -0.3460  0.0709  0.4207
  719MOL0     H99177   6.549   3.605   6.369 -0.0087  1.1280  1.2859
  719MOL0     H99178   6.520   3.668   6.117 -0.5379  1.2474 -1.3583
  719MOL0     H99179   6.390   3.733   6.219 -0.7050 -0.2304 -0.9966
  719MOL0     H99180   6.696   3.709   6.037 -0.5634  0.1830  2.3081
  719MOL0     H99181   6.912   3.746   5.830 -0.2113  3.7818 -0.0184
  719MOL0     H99182   6.898   3.647   5.978  0.0561 -0.6212 -1.3814
  719MOL0     H99183   7.039   3.762   5.954  0.6531  0.2712 -3.5328
  719MOL0     H99184   7.351   3.979   5.957 -1.0356 -1.2429 -0.9178
  719MOL0     H99185   7.534   4.026   5.779 -0.0690 -0.1142  1.3075
  719MOL0     H99186   7.446   4.250   5.406 -1.5801  0.4692  0.7278
  719MOL0     H99187   7.465   4.325   5.564 -1.2603 -0.4404 -1.1857
  719MOL0     H99188   7.678   4.382   5.413  1.1054  0.7897  1.5201
  719MOL0     H99189   7.726   4.299   5.555  0.6429 -1.1062 -0.7883
  719MOL0     H99190   7.668   4.174   5.287 -1.7757 -2.9993  1.6120
  719MOL0     H99191   7.734   4.094   5.429 -0.0607  0.4528  0.5475
  719MOL0     H99192   7.937   4.257   5.428 -1.9699 -2.9142  2.4531
  719MOL0     H99193   7.873   4.331   5.290  3.2563 -0.3286 -0.2961
  719MOL0     H99194   7.916   4.030   5.297 -0.1426 -2.6377 -2.9973
  719MOL0     H99195   7.864   4.125   5.160  0.2738  1.5172  0.1716
  719MOL0     H99196   8.130   4.063   5.182  1.6695  1.5675 -0.2617
  719MOL0     H99197   8.132   4.169   5.316  0.5334 -1.0597 -0.6403
  719MOL0     H99198   8.080   4.369   5.182 -3.2542 -0.1671 -2.1668
  719MOL0     H99199   8.054   4.272   5.043 -0.6405 -0.3783  1.0261
  719MOL0     H99200   8.318   4.297   5.193 -1.4129 -0.0882  0.4895
  719MOL0     H99201   8.276   4.356   5.026 -1.5579  0.0548 -0.3001
  719MOL0     H99202   7.232   4.141   5.506 -2.5449 -1.7075  0.4715
  719MOL0     H99203   7.059   4.077   5.663 -0.3915 -1.3807 -0.9004
  719MOL0     H99204   6.827   4.170   6.112  3.9411 -0.1743 -0.2957
  719MOL0     H99205   6.607   4.081   6.192  0.4677  1.6407 -2.2448
  719MOL0     H99206   5.615   3.784   7.470  3.7169  1.0278  0.2771
  719MOL0     H99207   5.372   3.832   7.370 -0.8247  0.1973 -1.9088
  719MOL0     H99208   5.202   3.932   6.893  0.6086  0.8679  1.0340
  719MOL0     H99209   4.996   3.838   6.826  1.9789 -0.3332  0.6603
  719MOL0     H99210   4.726   3.858   6.748 -2.8797  0.8446  0.8071
  719MOL0     H99211   4.801   3.716   6.818 -0.4811  0.6546 -1.3449
  719MOL0     H99212   4.531   3.809   6.888  1.9495  1.8225  0.1223
  719MOL0     H99213   4.583   3.645   6.923 -1.0200  0.1856  0.5770
  719MOL0     H99214   4.590   3.720   6.636 -3.1669 -0.0620 -1.9209
  719MOL0     H99215   4.539   3.569   6.703  2.6425  0.2651  0.5413
  719MOL0     H99216   4.358   3.817   6.745 -2.6814  1.5852 -2.6550
  719MOL0     H99217   4.309   3.651   6.752 -0.3062 -1.0697 -4.1421
  719MOL0     H99218   4.303   3.740   6.337  1.1976 -0.3805  0.0520
  719MOL0     H99219   4.819   3.981   7.202  1.4115  1.0267  0.3588
  719MOL0     H99220   4.931   4.038   7.360 -0.9006  0.8110 -0.2629
  719MOL0     H99221   5.106   3.967   7.380  0.8077  0.8210  0.7193
  719MOL0     H99222   5.076   4.133   7.331 -2.6679  1.5188 -2.0085
  720MOL0     O99223  10.440   7.710   0.837 -0.4431  0.4099 -0.8751
  720MOL0     C99224  10.337   7.646   0.845 -0.4573 -0.4601  0.3008
  720MOL0     O99225  10.314   7.537   0.931 -0.0561  0.0999 -0.0117
  720MOL0     C99226  10.414   7.490   1.018  0.1135  0.3016 -0.2744
  720MOL0     C99227  10.449   7.356   1.017  0.1270 -0.0535  0.6337
  720MOL0     C99228  10.531   7.306   1.116 -0.0253  0.4826  0.6699
  720MOL0     C99229  10.580   7.382   1.219 -0.4253  0.0025 -0.5873
  720MOL0     O99230  10.674   7.330   1.305 -0.1767 -0.1356  0.6230
  720MOL0     C99231  10.700   7.390   1.434 -0.1080  0.8644  0.0634
  720MOL0     C99232  10.797   7.292   1.513  0.8691 -0.3919  0.4194
  720MOL0     C99233  10.937   7.292   1.459 -0.1430  0.2378 -0.2979
  720MOL0     C99234  11.012   7.412   1.510  0.0441 -0.2017 -0.3351
  720MOL0     C99235  11.071   7.386   1.649 -1.2162 -0.0784 -0.0832
  720MOL0     C99236  11.200   7.467   1.679  0.2811 -0.6776 -0.4380
  720MOL0     C99237  11.271   7.426   1.813  0.2743  0.5904  0.2992
  720MOL0     C99238  11.402   7.503   1.829  0.1341  0.1050  0.3432
  720MOL0     N99239  11.486   7.483   1.711  0.1977  0.5625  0.2654
  720MOL0     C99240  11.550   7.365   1.672  0.0279  0.4388  0.5675
  720MOL0     C99241  11.617   7.394   1.558 -0.2492 -0.6321  0.5257
  720MOL0     C99242  11.694   7.289   1.486 -0.2570  0.3936  0.2119
  720MOL0     C99243  11.602   7.210   1.398  0.2239  0.0866 -0.3681
  720MOL0     C99244  11.667   7.100   1.313  0.6925  0.6347  0.5266
  720MOL0     C99245  11.768   7.158   1.213 -0.2664 -0.2894 -0.4251
  720MOL0     O99246  11.788   7.092   1.096  0.0635  0.0670  0.2685
  720MOL0     C99247  11.893   7.131   1.012  0.3400 -0.0898 -0.2083
  720MOL0     C99248  11.911   7.058   0.892  0.6484  0.5817  0.2924
  720MOL0     C99249  12.007   7.081   0.795  0.2834  0.5759  0.3968
  720MOL0     C99250  11.994   7.001   0.667  0.5590  0.0415  0.4217
  720MOL0     C99251  12.100   7.187   0.814  0.2347  0.2878 -0.0578
  720MOL0     C99252  12.208   7.225   0.715  0.3173 -0.2592 -0.0507
  720MOL0     O99253  12.252   7.129   0.639 -0.2015  0.2700 -0.0061
  720MOL0     C99254  12.338   7.141   0.531  0.5711 -0.6134 -0.7432
  720MOL0     C99255  12.323   7.043   0.430  0.0849 -0.2609  0.1748
  720MOL0     C99256  12.413   7.041   0.321 -1.1564  0.5461 -0.7032
  720MOL0     C99257  12.507   7.133   0.313  0.4464  0.0751  0.3903
  720MOL0     O99258  12.584   7.127   0.201  0.5570  1.0848  0.2738
  720MOL0     C99259  12.708   7.197   0.189  0.2986 -0.6301 -1.1052
  720MOL0     C99260  12.821   7.097   0.231  0.3207  0.3379  0.6028
  720MOL0     C99261  12.864   7.005   0.119  0.7668  0.1737 -0.2770
  720MOL0     C99262  12.767   6.942   0.018  0.2507 -0.1661 -0.0686
  720MOL0     C99263  12.845   6.847  -0.078  0.8390  0.6477  0.8461
  720MOL0     C99264  12.919   6.722  -0.020  0.9809  0.2317  1.1588
  720MOL0     C99265  12.809   6.605  -0.001 -1.2210  0.1923  0.3461
  720MOL0     C99266  12.893   6.494   0.075 -0.2505 -1.3990 -0.3453
  720MOL0    Cl99267  12.778   6.379   0.153  0.0541  0.0705 -0.3329
  720MOL0     C99268  12.507   7.240   0.404 -0.5442  0.3092  0.3651
  720MOL0     C99269  12.434   7.235   0.517 -0.1949  0.7512  0.1672
  720MOL0     O99270  12.225   7.343   0.705  0.2040 -0.4300 -0.5956
  720MOL0     C99271  12.080   7.259   0.932  0.4575 -0.5890  0.3290
  720MOL0     C99272  11.981   7.236   1.027  0.3055 -0.3658 -0.4265
  720MOL0     N99273  11.604   7.535   1.549 -0.6534 -0.2451 -0.2593
  720MOL0     N99274  11.528   7.584   1.643  0.3854 -0.8715 -0.0848
  720MOL0     C99275  10.531   7.516   1.229  0.6229  0.8150  0.2454
  720MOL0     C99276  10.457   7.569   1.126 -0.2762  0.0814  0.5970
  720MOL0     C99277  10.223   7.687   0.757 -0.9894  0.2762  0.3125
  720MOL0     C99278  10.166   7.810   0.773 -0.2290 -1.0946  0.3365
  720MOL0     C99279  10.058   7.857   0.702  0.2779 -0.5535  0.5692
  720MOL0     C99280   9.987   7.772   0.623 -0.8288  0.1916 -0.1110
  720MOL0     O99281   9.877   7.823   0.556 -0.2958 -0.2163 -0.5028
  720MOL0     C99282   9.770   7.734   0.521 -0.8823  0.5736  0.5735
  720MOL0     C99283   9.637   7.799   0.503  0.6361 -1.2222  0.2246
  720MOL0     C99284   9.602   7.916   0.599  0.3497  0.5504 -0.5406
  720MOL0     C99285   9.483   7.989   0.539  0.3962  0.5429  1.0952
  720MOL0     C99286   9.518   8.099   0.452  0.4622 -0.2740 -0.8390
  720MOL0     C99287   9.544   8.186   0.377 -0.1409 -0.3905  0.2693
  720MOL0     C99288  10.046   7.650   0.599 -0.5565  0.5018  0.1289
  720MOL0     C99289  10.167   7.604   0.660  0.2432 -0.4225 -0.5894
  720MOL0     C99290  10.225   7.469   0.629  0.8578  0.0296 -0.3715
  720MOL0     H99291  10.407   7.285   0.947  0.9615 -0.2747  0.3396
  720MOL0     H99292  10.542   7.198   1.119 -0.5443  0.4456  1.5273
  720MOL0     H99293  10.609   7.412   1.491  0.0261  2.9116 -0.4278
  720MOL0     H99294  10.730   7.493   1.412  1.6243  0.6781  1.4143
  720MOL0     H99295  10.798   7.313   1.620 -0.0974  1.3363  0.1213
  720MOL0     H99296  10.763   7.189   1.498  2.9024 -0.7548 -2.4396
  720MOL0     H99297  10.991   7.205   1.497 -3.4050 -1.0633  1.7897
  720MOL0     H99298  10.941   7.288   1.350 -3.4475  3.2674 -0.6974
  720MOL0     H99299  11.089   7.447   1.440 -0.9645 -1.0145 -1.9187
  720MOL0     H99300  10.935   7.489   1.514  1.3925  1.1535  2.7314
  720MOL0     H99301  11.103   7.284   1.672 -2.0948 -0.1479  0.9220
  720MOL0     H99302  10.996   7.418   1.722  0.8224  1.3467  1.5027
  720MOL0     H99303  11.275   7.466   1.599  2.9115  1.4896  1.8023
  720MOL0     H99304  11.170   7.572   1.680 -0.7459 -0.9511 -1.0419
  720MOL0     H99305  11.291   7.319   1.808  1.5789  0.7593  1.4018
  720MOL0     H99306  11.211   7.430   1.904  1.0004 -2.2715  0.9960
  720MOL0     H99307  11.377   7.608   1.847  3.2004  1.0387 -0.1375
  720MOL0     H99308  11.453   7.466   1.919 -2.0680  1.9318  2.4669
  720MOL0     H99309  11.553   7.272   1.727  1.9037 -0.3697 -0.7895
  720MOL0     H99310  11.753   7.220   1.548  1.1080 -0.6979 -2.1345
  720MOL0     H99311  11.761   7.343   1.418 -0.6895  1.3008  0.4926
  720MOL0     H99312  11.527   7.157   1.458  1.3043  2.8561  3.8295
  720MOL0     H99313  11.547   7.277   1.331  1.8815 -0.1317 -2.0260
  720MOL0     H99314  11.721   7.031   1.379 -1.0003  1.4279  2.8881
  720MOL0     H99315  11.579   7.052   1.271  0.8701  1.6400 -1.0705
  720MOL0     H99316  11.731   7.259   1.192 -0.7483  0.3309  2.8896
  720MOL0     H99317  11.856   7.186   1.271 -1.7436  0.2474  1.6959
  720MOL0     H99318  11.845   6.973   0.875  1.3312  0.1265 -0.1123
  720MOL0     H99319  11.958   7.053   0.578 -0.3454 -0.1168  0.6848
  720MOL0     H99320  11.934   6.913   0.693  0.1743  0.7259  2.0134
  720MOL0     H99321  12.085   6.949   0.636  0.8279 -0.3358  1.7724
  720MOL0     H99322  12.241   6.973   0.446 -2.2585  2.5371  1.2482
  720MOL0     H99323  12.413   6.969   0.240 -1.1556  2.5045 -2.5469
  720MOL0     H99324  12.708   7.230   0.085 -2.2060  0.2700 -0.8777
  720MOL0     H99325  12.710   7.288   0.250 -0.9925 -0.4356 -1.3410
  720MOL0     H99326  12.909   7.163   0.231  1.4128 -0.6572 -4.3032
  720MOL0     H99327  12.799   7.053   0.328  2.6227  1.5999  1.7710
  720MOL0     H99328  12.899   6.916   0.171 -2.2629 -0.1622  1.4279
  720MOL0     H99329  12.946   7.051   0.063 -0.3612  0.2361 -1.9509
  720MOL0     H99330  12.716   7.017  -0.042  0.5903 -1.6195 -2.2861
  720MOL0     H99331  12.688   6.889   0.071 -1.1465  2.3892  0.5534
  720MOL0     H99332  12.775   6.821  -0.158  1.3652 -2.1967  1.2352
  720MOL0     H99333  12.924   6.910  -0.121 -1.7865  3.9196  0.3920
  720MOL0     H99334  12.977   6.747   0.070 -0.1941 -2.4477  2.7905
  720MOL0     H99335  12.988   6.688  -0.097 -2.3148 -2.3971 -0.9263
  720MOL0     H99336  12.786   6.569  -0.102  0.5968 -1.5322  0.4719
  720MOL0     H99337  12.716   6.630   0.050 -1.8346 -0.3458 -0.4741
  720MOL0     H99338  12.944   6.541   0.160 -4.2625  1.9004  0.5827
  720MOL0     H99339  12.967   6.441   0.016  0.2948 -1.1736  0.1235
  720MOL0     H99340  12.576   7.320   0.384  0.0336 -1.0932 -4.2861
  720MOL0     H99341  12.430   7.323   0.580 -0.9578 -0.7877  2.3837
  720MOL0     H99342  12.153   7.338   0.948 -0.1458 -0.4752  2.8829
  720MOL0     H99343  11.964   7.303   1.111 -0.1819  0.1901 -0.9555
  720MOL0     H99344  10.565   7.586   1.306 -2.1143  1.0350  1.3657
  720MOL0     H99345  10.420   7.671   1.135  4.2515  2.0632 -0.5659
  720MOL0     H99346  10.208   7.884   0.841 -1.5216  1.2307 -1.2301
  720MOL0     H99347  10.033   7.962   0.713 -2.8495 -0.9502 -1.5622
  720MOL0     H99348   9.794   7.673   0.433  1.4025  2.3637 -0.1589
  720MOL0     H99349   9.746   7.668   0.604 -0.6219 -2.2380 -1.4398
  720MOL0     H99350   9.556   7.725   0.511 -1.9979  1.1532 -2.0457
  720MOL0     H99351   9.632   7.851   0.407  1.2010 -0.4145  0.6303
  720MOL0     H99352   9.570   7.875   0.695 -0.4317  0.1559 -0.9662
  720MOL0     H99353   9.687   7.981   0.620  0.2002  1.0832 -1.5356
  720MOL0     H99354   9.436   8.032   0.628 -1.6372  1.0252 -0.1616
  720MOL0     H99355   9.413   7.925   0.486  1.0944  0.1417  0.6395
  720MOL0     H99356   9.555   8.259   0.299  0.8436 -0.9365 -0.1197
  720MOL0     H99357   9.998   7.583   0.528 -0.1707 -3.0275  2.9097
  720MOL0     H99358  10.334   7.467   0.640  1.4053  2.2901 -3.7773
  720MOL0     H99359  10.164   7.405   0.693 -4.3921 -0.1477 -4.7973
  720MOL0     H99360  10.205   7.436   0.526  1.7766  2.9447 -1.5897
  721MOL0     O99361   7.862   2.277  10.582  0.2006  1.3778  0.0141
  721MOL0     C99362   7.752   2.255  10.632  0.6171 -0.7712  0.0033
  721MOL0     O99363   7.722   2.294  10.755 -0.1333  0.2536 -0.3376
  721MOL0     C99364   7.816   2.363  10.827  0.6848 -0.5045 -0.4271
  721MOL0     C99365   7.863   2.297  10.942  0.7215 -0.2722 -0.7417
  721MOL0     C99366   7.965   2.355  11.024  0.9391  0.4575  0.3314
  721MOL0     C99367   8.012   2.481  10.993 -0.3204 -1.0287 -0.0007
  721MOL0     O99368   8.100   2.545  11.079  0.5946 -0.0221  0.6028
  721MOL0     C99369   8.073   2.670  11.133  0.3659 -0.1112 -0.3735
  721MOL0     C99370   8.147   2.670  11.279 -0.8201 -0.1223  0.2720
  721MOL0     C99371   8.297   2.688  11.258  0.2077  1.0512 -0.2504
  721MOL0     C99372   8.358   2.745  11.391 -0.2338 -0.4379 -0.6081
  721MOL0     C99373   8.510   2.757  11.362 -0.1379  0.1106 -0.1565
  721MOL0     C99374   8.577   2.819  11.477 -0.1063 -0.5867 -0.7769
  721MOL0     C99375   8.730   2.803  11.454 -0.6379 -0.6855 -0.1440
  721MOL0     C99376   8.804   2.887  11.353  1.3769  0.3197  0.4541
  721MOL0     N99377   8.844   3.013  11.419  0.7146  0.8128  0.0449
  721MOL0     C99378   8.969   3.023  11.479  1.4090 -1.0207  0.5975
  721MOL0     C99379   8.970   3.158  11.513 -0.1265  1.7250  0.1944
  721MOL0     C99380   9.083   3.237  11.576 -1.0267  0.4782 -0.3331
  721MOL0     C99381   9.175   3.311  11.474  0.5441 -0.6925  0.7207
  721MOL0     C99382   9.091   3.400  11.365 -0.2125 -0.7593 -0.1516
  721MOL0     C99383   9.007   3.516  11.419 -0.1704  0.6067 -0.3273
  721MOL0     O99384   9.088   3.588  11.520 -0.5353  0.1630  0.7339
  721MOL0     C99385   9.181   3.675  11.479  0.7219 -0.4802 -0.1106
  721MOL0     C99386   9.211   3.709  11.343 -0.0998  0.0089  0.0184
  721MOL0     C99387   9.321   3.787  11.308 -0.4827 -0.2511 -0.6677
  721MOL0     C99388   9.328   3.833  11.161  0.4098  0.4141 -0.5197
  721MOL0     C99389   9.405   3.835  11.419 -0.2489 -0.0770  1.1963
  721MOL0     C99390   9.525   3.926  11.390 -0.9648  1.3986  0.0548
  721MOL0     O99391   9.557   3.998  11.505 -0.8019 -0.3361 -0.0278
  721MOL0     C99392   9.680   4.065  11.494 -0.8575 -0.0664  0.0100
  721MOL0     C99393   9.807   4.010  11.480 -0.9728  0.1872  0.6804
  721MOL0     C99394   9.925   4.086  11.494 -0.3694  0.3073  0.5861
  721MOL0     C99395   9.914   4.222  11.498 -0.2903 -0.7365 -0.8434
  721MOL0     O99396  10.022   4.299  11.475 -0.4531  0.2357  0.7891
  721MOL0     C99397  10.006   4.412  11.380 -0.0908  0.2224 -0.8659
  721MOL0     C99398  10.001   4.369  11.239 -0.6903  0.8109 -0.2010
  721MOL0     C99399   9.948   4.472  11.134  0.5056  0.6013 -0.3644
  721MOL0     C99400   9.939   4.421  11.000  0.0666  0.6771  0.0618
  721MOL0     C99401   9.918   4.510  10.873  0.3172 -0.1716  0.3769
  721MOL0     C99402   9.913   4.424  10.749 -0.0176  0.0159 -0.1574
  721MOL0     C99403   9.961   4.497  10.612 -0.1776 -0.2907 -0.6063
  721MOL0     C99404   9.967   4.393  10.496 -0.4159  0.1572  0.3531
  721MOL0    Cl99405  10.062   4.467  10.360  0.2741  0.0596  0.2572
  721MOL0     C99406   9.785   4.285  11.515  1.1077  0.0406  0.3244
  721MOL0     C99407   9.676   4.198  11.516  0.1725 -0.2602  0.4940
  721MOL0     O99408   9.573   3.933  11.282  0.6190  0.2404  0.2383
  721MOL0     C99409   9.371   3.808  11.552  1.6137  0.7756  0.0044
  721MOL0     C99410   9.270   3.715  11.584 -0.0489  0.0987  0.3310
  721MOL0     N99411   8.853   3.209  11.465 -0.1808  0.8159 -0.1846
  721MOL0     N99412   8.777   3.124  11.424  0.1711  0.1374  0.4150
  721MOL0     C99413   7.957   2.544  10.879 -0.0823  0.1004  0.2174
  721MOL0     C99414   7.866   2.484  10.796  0.6145 -0.7355  0.4647
  721MOL0     C99415   7.635   2.200  10.549  0.1933  0.6753 -0.2170
  721MOL0     C99416   7.526   2.145  10.614 -0.3508  0.5096  0.7303
  721MOL0     C99417   7.418   2.092  10.544 -0.1851  0.8409  0.5427
  721MOL0     C99418   7.415   2.094  10.402 -0.2681 -0.8601 -0.0225
  721MOL0     O99419   7.302   2.078  10.331 -0.4856  0.6624 -0.4326
  721MOL0     C99420   7.185   2.044  10.410 -0.0085  0.5893 -0.0175
  721MOL0     C99421   7.067   2.040  10.322 -0.5549 -0.6304  0.1113
  721MOL0     C99422   7.043   2.175  10.259 -0.5711 -0.5845 -0.0811
  721MOL0     C99423   6.892   2.194  10.223 -0.3986  0.2512 -0.0417
  721MOL0     C99424   6.873   2.328  10.167  0.3147 -0.0713 -0.9502
  721MOL0     C99425   6.866   2.434  10.116  0.2514  0.1162 -0.2128
  721MOL0     C99426   7.523   2.155  10.337  0.0534  0.5698  0.4950
  721MOL0     C99427   7.638   2.204  10.403  0.0553  0.0965 -0.7760
  721MOL0     C99428   7.739   2.273  10.310 -0.4019  0.8105 -0.1044
  721MOL0     H99429   7.816   2.203  10.971 -0.4279  0.0662 -1.4717
  721MOL0     H99430   7.984   2.305  11.119  0.6363 -0.3695 -0.0339
  721MOL0     H99431   7.967   2.686  11.155  0.6763  1.0820  0.3631
  721MOL0     H99432   8.116   2.753  11.077 -2.2322  3.1891  2.0891
  721MOL0     H99433   8.111   2.763  11.326  1.2184  0.5080  0.6878
  721MOL0     H99434   8.118   2.585  11.341 -1.3658  2.1491  3.4118
  721MOL0     H99435   8.345   2.597  11.220  3.2321  1.2744  2.5960
  721MOL0     H99436   8.317   2.764  11.181 -1.3723 -0.2531 -2.0502
  721MOL0     H99437   8.320   2.843  11.420  0.4593 -0.7896  1.6342
  721MOL0     H99438   8.345   2.679  11.477 -0.5275 -1.1304 -1.1704
  721MOL0     H99439   8.531   2.815  11.272  1.1082 -0.7356 -0.4323
  721MOL0     H99440   8.550   2.657  11.346  1.0402  0.5577 -0.1403
  721MOL0     H99441   8.553   2.926  11.479  0.1286 -0.5387  0.4937
  721MOL0     H99442   8.542   2.789  11.576 -0.7641  1.6728 -0.2617
  721MOL0     H99443   8.742   2.700  11.418  2.5165 -0.8018  0.8702
  721MOL0     H99444   8.786   2.807  11.548 -1.5222 -1.8193  0.4478
  721MOL0     H99445   8.893   2.837  11.315  1.1328 -0.6644  1.1408
  721MOL0     H99446   8.744   2.914  11.266  3.0140  1.3724 -0.4027
  721MOL0     H99447   9.047   2.952  11.507  0.5793 -3.2422 -2.3190
  721MOL0     H99448   9.150   3.168  11.627 -0.0234  1.5886 -0.1012
  721MOL0     H99449   9.044   3.305  11.653 -0.0264  0.8707 -0.1676
  721MOL0     H99450   9.239   3.377  11.533 -0.4500 -2.2170  3.6795
  721MOL0     H99451   9.235   3.240  11.417  0.8834  1.0666 -1.2655
  721MOL0     H99452   9.162   3.443  11.294 -0.5909  0.5467  0.2322
  721MOL0     H99453   9.036   3.326  11.305 -1.1610 -1.1214  1.1239
  721MOL0     H99454   8.966   3.585  11.345  0.3503  1.7745  0.4400
  721MOL0     H99455   8.918   3.465  11.459 -1.9061  1.9597 -2.2587
  721MOL0     H99456   9.141   3.659  11.276  1.8697 -0.3122 -1.9479
  721MOL0     H99457   9.257   3.773  11.103  2.4028 -2.8054  0.0776
  721MOL0     H99458   9.430   3.806  11.131  0.5642  0.9094 -0.4347
  721MOL0     H99459   9.314   3.939  11.141 -3.6599  0.7229  2.6517
  721MOL0     H99460   9.822   3.903  11.463  3.7414  0.6236  0.8084
  721MOL0     H99461  10.015   4.032  11.468 -1.7803 -0.8619 -2.4279
  721MOL0     H99462   9.920   4.473  11.410 -0.4064 -0.2234 -0.8629
  721MOL0     H99463  10.087   4.484  11.394 -1.2510  1.0397  2.4593
  721MOL0     H99464  10.101   4.344  11.203 -1.0052  0.9946 -1.2323
  721MOL0     H99465   9.942   4.277  11.234  1.4320 -0.6424  0.2241
  721MOL0     H99466  10.024   4.550  11.136 -0.2409  1.5317 -3.2151
  721MOL0     H99467   9.853   4.508  11.173  1.6123  2.9927  0.3155
  721MOL0     H99468   9.861   4.344  11.012 -0.2402  1.1554  1.2618
  721MOL0     H99469  10.028   4.360  10.985 -0.4496 -0.6672  2.0479
  721MOL0     H99470   9.831   4.575  10.889  1.5514  1.6192  0.0871
  721MOL0     H99471  10.008   4.571  10.870  0.5140 -0.3136  2.3070
  721MOL0     H99472   9.811   4.387  10.738 -0.0489 -0.4796  1.5999
  721MOL0     H99473   9.972   4.333  10.766  0.7171  0.5525  0.2250
  721MOL0     H99474  10.055   4.547  10.637 -0.7097 -0.2078  1.4450
  721MOL0     H99475   9.888   4.575  10.587 -0.5527 -1.4219 -3.3858
  721MOL0     H99476   9.864   4.368  10.471 -0.1656 -0.3574 -0.1890
  721MOL0     H99477  10.019   4.304  10.534  2.6209  1.4121 -0.5817
  721MOL0     H99478   9.759   4.390  11.528  0.6675  0.2377 -1.8150
  721MOL0     H99479   9.578   4.245  11.516 -0.0923 -0.7918 -0.3464
  721MOL0     H99480   9.429   3.844  11.636  0.5925 -1.0948  1.5779
  721MOL0     H99481   9.259   3.677  11.685 -1.8379 -3.2471 -0.9730
  721MOL0     H99482   7.995   2.645  10.870 -0.2946  0.5164  3.0425
  721MOL0     H99483   7.835   2.533  10.704 -3.9389 -0.0775  2.0781
  721MOL0     H99484   7.519   2.142  10.722  2.0914  1.2623  0.9732
  721MOL0     H99485   7.343   2.028  10.590 -0.0045  1.2555  1.4297
  721MOL0     H99486   7.192   1.958  10.477  0.0610  0.6474  0.0509
  721MOL0     H99487   7.167   2.123  10.484  2.1917  0.6576  0.5089
  721MOL0     H99488   6.982   1.991  10.369  0.2186 -2.4415 -0.3055
  721MOL0     H99489   7.092   1.966  10.245  1.9827 -1.6027  1.7259
  721MOL0     H99490   7.069   2.248  10.337 -0.5816 -2.5444  1.8781
  721MOL0     H99491   7.112   2.183  10.175  0.0091  0.2314  0.4512
  721MOL0     H99492   6.840   2.178  10.318 -1.4074  1.4081 -0.3707
  721MOL0     H99493   6.855   2.115  10.157 -4.3805  0.1667  1.9760
  721MOL0     H99494   6.866   2.521  10.053  0.9911 -0.3907 -0.9283
  721MOL0     H99495   7.526   2.153  10.228 -0.2094  3.5162  0.3594
  721MOL0     H99496   7.749   2.375  10.348 -2.6386  0.1734  2.5204
  721MOL0     H99497   7.831   2.217  10.328 -1.3681 -0.4156  1.3361
  721MOL0     H99498   7.700   2.273  10.207 -1.4454  0.5892  0.2769
  722MOL0     O99499   5.624  10.019   0.740  0.3730  0.3588 -0.7670
  722MOL0     C99500   5.562  10.045   0.849 -0.1877 -0.2946  0.6707
  722MOL0     O99501   5.624  10.035   0.969  0.4052 -0.3831  0.1315
  722MOL0     C99502   5.743   9.972   0.995  0.9584  0.0666  0.2649
  722MOL0     C99503   5.868  10.021   0.966 -0.3217  0.1794  0.2056
  722MOL0     C99504   5.996   9.961   1.012  0.6134 -0.2439 -0.6566
  722MOL0     C99505   5.984   9.841   1.080 -0.0863  0.5665  0.3774
  722MOL0     O99506   6.106   9.790   1.106  0.0106 -0.0391 -1.5114
  722MOL0     C99507   6.112   9.652   1.089 -0.0547 -0.2385 -0.0002
  722MOL0     C99508   6.250   9.588   1.109  0.0560  0.1011  0.7506
  722MOL0     C99509   6.350   9.627   1.010  0.4872  0.2878  0.8150
  722MOL0     C99510   6.476   9.541   1.028 -0.0816  0.1417 -0.1355
  722MOL0     C99511   6.573   9.571   0.916  0.0188 -0.4799 -0.7292
  722MOL0     C99512   6.697   9.489   0.929 -0.8043 -0.7022  0.3120
  722MOL0     C99513   6.802   9.483   0.810  0.6685  0.4214  0.6344
  722MOL0     C99514   6.853   9.611   0.746  0.3753  0.0165 -0.8024
  722MOL0     N99515   6.981   9.603   0.672 -0.0146  0.0194  0.3541
  722MOL0     C99516   7.107   9.588   0.739  0.1429  0.3216 -0.1519
  722MOL0     C99517   7.202   9.564   0.650 -0.1770 -0.5863 -0.7366
  722MOL0     C99518   7.350   9.552   0.687  0.2288 -0.1591  0.0529
  722MOL0     C99519   7.402   9.442   0.606 -0.1787 -0.3181 -0.3988
  722MOL0     C99520   7.461   9.485   0.469  0.0790  0.7058  0.2203
  722MOL0     C99521   7.544   9.373   0.420  0.5924 -0.5052  0.2077
  722MOL0     O99522   7.676   9.380   0.471  0.0347  0.1111 -0.0314
  722MOL0     C99523   7.729   9.279   0.546 -0.7239 -0.2097 -1.1210
  722MOL0     C99524   7.648   9.194   0.622 -0.4576 -0.3037  1.0162
  722MOL0     C99525   7.699   9.111   0.713 -0.4029  0.8051 -0.2966
  722MOL0     C99526   7.603   9.044   0.810 -0.6908 -0.0483 -0.4908
  722MOL0     C99527   7.840   9.100   0.726  0.1075 -0.7206 -0.1751
  722MOL0     C99528   7.915   8.993   0.796  0.5685  0.5910 -0.3541
  722MOL0     O99529   8.054   8.986   0.778 -0.7062 -0.9011 -0.0750
  722MOL0     C99530   8.133   8.878   0.827  0.0883 -1.0752 -0.3606
  722MOL0     C99531   8.266   8.885   0.777 -0.5654 -0.4795 -0.0958
  722MOL0     C99532   8.368   8.799   0.821  0.1933  0.3251 -0.1309
  722MOL0     C99533   8.340   8.701   0.913 -0.1137 -0.1223 -0.3773
  722MOL0     O99534   8.441   8.621   0.959  0.4306 -0.6093  0.7052
  722MOL0     C99535   8.485   8.648   1.095 -0.0348 -0.2576  0.0826
  722MOL0     C99536   8.612   8.573   1.135 -0.3600  0.1282  0.3785
  722MOL0     C99537   8.740   8.601   1.058 -0.0351 -0.1019 -0.4313
  722MOL0     C99538   8.862   8.546   1.139 -0.1672 -0.0243 -0.6771
  722MOL0     C99539   8.999   8.540   1.073 -0.7862  0.5582 -0.2331
  722MOL0     C99540   9.050   8.676   1.026  0.0925  0.0722  0.3503
  722MOL0     C99541   9.201   8.677   0.977 -0.1957 -0.6398  0.0320
  722MOL0     C99542   9.247   8.813   0.951 -0.1104 -0.3016 -0.0201
  722MOL0    Cl99543   9.400   8.793   0.862  0.2785 -0.0586  0.2184
  722MOL0     C99544   8.216   8.707   0.977  0.1526 -0.0865 -0.0722
  722MOL0     C99545   8.114   8.794   0.934  0.0802 -0.0300 -0.4005
  722MOL0     O99546   7.849   8.908   0.858  0.9241 -0.0550  0.7866
  722MOL0     C99547   7.914   9.185   0.652 -0.0647 -0.1362  0.0917
  722MOL0     C99548   7.869   9.269   0.558 -0.6050  0.2102  0.5941
  722MOL0     N99549   7.141   9.553   0.528 -0.5553  0.4938  0.5092
  722MOL0     N99550   7.005   9.564   0.542 -0.1550  0.2874 -0.1255
  722MOL0     C99551   5.856   9.787   1.115 -0.1172 -0.2936  0.3528
  722MOL0     C99552   5.735   9.851   1.067 -0.0961  1.0971 -0.6645
  722MOL0     C99553   5.419  10.084   0.853 -0.0111  0.6474 -0.4040
  722MOL0     C99554   5.369  10.159   0.965 -0.1435  0.5374  0.3550
  722MOL0     C99555   5.231  10.192   0.964 -0.3631  0.2367 -0.7232
  722MOL0     C99556   5.149  10.158   0.863  1.1297 -0.1840  0.2682
  722MOL0     O99557   5.018  10.203   0.862  0.3414  0.7289  0.5507
  722MOL0     C99558   4.937  10.190   0.980 -0.1908 -0.6833 -0.4088
  722MOL0     C99559   4.954  10.060   1.064  0.9869  0.2441 -0.2959
  722MOL0     C99560   4.938   9.928   0.980 -0.2286 -0.0972  0.1744
  722MOL0     C99561   4.807   9.919   0.901  0.4378  0.2604  0.2839
  722MOL0     C99562   4.694   9.936   0.993 -0.4429  0.1600 -0.3211
  722MOL0     C99563   4.590   9.951   1.052 -0.0582 -1.0333 -0.7060
  722MOL0     C99564   5.196  10.076   0.760  0.5255  0.1082 -0.4131
  722MOL0     C99565   5.333  10.040   0.754  0.1033  0.3223 -0.3532
  722MOL0     C99566   5.373   9.950   0.634 -0.4664 -0.7240 -0.3052
  722MOL0     H99567   5.871  10.110   0.903  0.6172  0.9517  1.2906
  722MOL0     H99568   6.096  10.000   0.994  0.6188  1.1505  1.9401
  722MOL0     H99569   6.085   9.628   0.986 -0.8477  1.8346 -0.3376
  722MOL0     H99570   6.043   9.609   1.162 -1.7521  1.3547 -0.5919
  722MOL0     H99571   6.288   9.615   1.208 -1.5464  2.5231  0.7944
  722MOL0     H99572   6.238   9.480   1.102 -1.5358  0.2369  1.0505
  722MOL0     H99573   6.306   9.600   0.914  1.1774  0.3750  0.4686
  722MOL0     H99574   6.376   9.733   1.013 -2.3713  1.0805  0.3595
  722MOL0     H99575   6.535   9.577   1.113  1.6211  3.3788 -2.5006
  722MOL0     H99576   6.457   9.437   1.055 -0.4547  1.0503  3.7588
  722MOL0     H99577   6.606   9.675   0.930  1.1155 -0.5633 -2.4116
  722MOL0     H99578   6.513   9.558   0.825 -2.2725 -1.5233  0.8461
  722MOL0     H99579   6.750   9.511   1.022  1.8101 -2.4069 -0.6772
  722MOL0     H99580   6.672   9.383   0.943  0.8864 -0.8426  2.7960
  722MOL0     H99581   6.756   9.427   0.729 -0.6108  1.7948  0.3526
  722MOL0     H99582   6.888   9.425   0.846  1.6448  2.0019  0.9570
  722MOL0     H99583   6.772   9.647   0.682 -0.2095 -1.7631 -1.1055
  722MOL0     H99584   6.866   9.687   0.824  0.8735  0.2965 -1.1570
  722MOL0     H99585   7.118   9.598   0.846  2.0684  0.3920 -0.3341
  722MOL0     H99586   7.359   9.534   0.795 -0.9954 -2.4938 -0.1949
  722MOL0     H99587   7.399   9.648   0.667 -0.0203 -0.0858 -0.1980
  722MOL0     H99588   7.487   9.402   0.662 -0.3988 -0.3272 -0.0647
  722MOL0     H99589   7.344   9.349   0.600  0.1679 -0.5090 -0.8695
  722MOL0     H99590   7.385   9.493   0.390  1.1291 -1.2119 -1.0711
  722MOL0     H99591   7.524   9.573   0.484  0.1677  0.5996  0.4716
  722MOL0     H99592   7.497   9.275   0.429 -2.6484  0.9226  0.1482
  722MOL0     H99593   7.556   9.393   0.313 -3.7362  2.7745  0.0627
  722MOL0     H99594   7.540   9.186   0.608  0.0180 -4.0529 -2.5731
  722MOL0     H99595   7.633   9.066   0.913 -0.7083  0.9379 -0.6846
  722MOL0     H99596   7.591   8.936   0.799 -1.3133  0.0242 -0.5347
  722MOL0     H99597   7.501   9.078   0.792 -0.8479  0.2743  0.8885
  722MOL0     H99598   8.293   8.974   0.722 -0.6854 -0.4161 -0.0538
  722MOL0     H99599   8.471   8.817   0.794  0.4426 -1.1960 -0.2659
  722MOL0     H99600   8.508   8.753   1.114  0.9144 -0.3316 -0.5460
  722MOL0     H99601   8.411   8.619   1.169  2.2067 -2.0664  1.7745
  722MOL0     H99602   8.628   8.586   1.243 -1.4810  0.0988  0.5535
  722MOL0     H99603   8.584   8.468   1.124  2.7591 -0.8966  1.1229
  722MOL0     H99604   8.750   8.708   1.039  0.5848  0.2342  1.5666
  722MOL0     H99605   8.751   8.548   0.962  1.5722 -0.3269 -0.1469
  722MOL0     H99606   8.840   8.449   1.184  0.9123 -0.1262 -0.3442
  722MOL0     H99607   8.870   8.623   1.217  1.0135  1.7702 -2.4865
  722MOL0     H99608   9.068   8.486   1.138 -0.5911 -1.3219 -1.8941
  722MOL0     H99609   8.986   8.478   0.983 -0.5858 -1.2565  0.9433
  722MOL0     H99610   9.041   8.757   1.099  2.4769  0.8498 -0.1325
  722MOL0     H99611   8.988   8.697   0.939  1.5974 -1.3752 -1.1452
  722MOL0     H99612   9.215   8.607   0.894  4.0786 -1.6059  1.3175
  722MOL0     H99613   9.255   8.645   1.066  1.0683  0.7228 -0.2035
  722MOL0     H99614   9.270   8.864   1.045 -1.8261  3.1190 -1.2862
  722MOL0     H99615   9.177   8.875   0.895 -1.0182 -1.6784 -0.4798
  722MOL0     H99616   8.192   8.634   1.054  0.7963 -1.6756 -1.3253
  722MOL0     H99617   8.022   8.802   0.992  1.3768  1.2896  1.5889
  722MOL0     H99618   8.023   9.188   0.646  0.0788 -2.8776  0.0435
  722MOL0     H99619   7.928   9.325   0.486 -0.5820 -1.6259 -0.8770
  722MOL0     H99620   5.851   9.698   1.176 -2.0302  0.5426  1.5218
  722MOL0     H99621   5.639   9.806   1.093  1.1253 -1.3913 -0.2064
  722MOL0     H99622   5.435  10.188   1.047  0.5901 -0.0930  0.0015
  722MOL0     H99623   5.195  10.253   1.046  0.0143  0.9483 -1.0810
  722MOL0     H99624   4.955  10.275   1.047 -1.3593  0.2943 -1.2845
  722MOL0     H99625   4.833  10.207   0.952 -0.3969 -2.0625 -0.5326
  722MOL0     H99626   4.886  10.058   1.150  1.6185  2.7396  0.3475
  722MOL0     H99627   5.055  10.054   1.106  0.5858  4.2401  1.6673
  722MOL0     H99628   5.020   9.911   0.909 -1.0721  1.1843 -1.1645
  722MOL0     H99629   4.946   9.845   1.050 -2.3112  0.8137  1.5810
  722MOL0     H99630   4.789   9.825   0.849 -2.6658  0.1906  1.3007
  722MOL0     H99631   4.809   9.993   0.820  3.8491 -0.4120 -0.3846
  722MOL0     H99632   4.501   9.970   1.110  0.6414  0.9800 -0.2227
  722MOL0     H99633   5.127  10.040   0.684  1.7921 -2.6815 -0.3726
  722MOL0     H99634   5.413  10.009   0.551 -1.7474  2.1514  0.9427
  722MOL0     H99635   5.432   9.864   0.666  2.4322  1.2487  0.0352
  722MOL0     H99636   5.278   9.907   0.600 -2.3264  2.3944  0.4898
  723MOL0     O99637  10.733   1.275   9.010  0.2175  0.4572 -0.4930
  723MOL0     C99638  10.738   1.162   9.067  0.4662 -0.8994  0.0313
  723MOL0     O99639  10.831   1.065   9.052  0.3741 -0.4370  0.8280
  723MOL0     C99640  10.931   1.083   8.954 -0.6785 -0.5417  0.1249
  723MOL0     C99641  11.064   1.122   8.989  0.3221  0.5798 -0.8909
  723MOL0     C99642  11.160   1.136   8.890 -0.6794  0.9738 -0.1813
  723MOL0     C99643  11.140   1.100   8.758  0.4868 -0.0279  0.0540
  723MOL0     O99644  11.241   1.104   8.662 -1.1399 -0.4775  0.3391
  723MOL0     C99645  11.374   1.065   8.698  0.2864  0.1265  0.4148
  723MOL0     C99646  11.457   1.021   8.567  0.7489 -0.3064 -0.7236
  723MOL0     C99647  11.608   1.001   8.593  0.1131  0.1676 -0.2945
  723MOL0     C99648  11.646   0.861   8.629 -0.2737  0.0265 -0.3140
  723MOL0     C99649  11.795   0.863   8.672 -0.5436  0.4307 -0.2357
  723MOL0     C99650  11.899   0.940   8.586 -0.1890 -0.0818  0.5376
  723MOL0     C99651  12.045   0.914   8.616  0.3916 -0.1771 -0.4458
  723MOL0     C99652  12.091   0.953   8.757  0.7411  0.5098 -0.2370
  723MOL0     N99653  12.231   0.969   8.766 -0.3489 -0.4649  1.0979
  723MOL0     C99654  12.339   0.878   8.787  0.6162  0.1780 -0.2512
  723MOL0     C99655  12.449   0.948   8.785 -0.5639 -0.1987  0.7074
  723MOL0     C99656  12.586   0.899   8.836 -0.3140  0.1195 -0.1190
  723MOL0     C99657  12.653   0.812   8.731  0.8724  0.3050  0.2125
  723MOL0     C99658  12.695   0.893   8.614  0.2382  0.8815 -0.0662
  723MOL0     C99659  12.769   0.804   8.510 -1.0546  0.9853 -0.1087
  723MOL0     O99660  12.899   0.789   8.573  0.4953  0.6010  0.0522
  723MOL0     C99661  12.994   0.710   8.516  0.9225 -0.2585 -0.1879
  723MOL0     C99662  12.983   0.651   8.386  0.3651  0.0410 -1.0229
  723MOL0     C99663  13.092   0.577   8.330  0.6355 -0.4761  0.1879
  723MOL0     C99664  13.063   0.514   8.194  0.4928  0.1876  0.8132
  723MOL0     C99665  13.206   0.545   8.403 -0.4705 -0.2948 -0.2166
  723MOL0     C99666  13.321   0.461   8.363  1.0173  0.4155  1.2108
  723MOL0     O99667  13.361   0.475   8.234  0.0353 -0.8467 -0.1722
  723MOL0     C99668  13.479   0.418   8.194 -0.6093  0.1457 -0.3872
  723MOL0     C99669  13.603   0.441   8.257  0.6703  0.5249  0.1757
  723MOL0     C99670  13.722   0.372   8.224 -0.5326 -0.1570  0.2423
  723MOL0     C99671  13.718   0.277   8.125 -0.3347  0.6914  0.6490
  723MOL0     O99672  13.829   0.194   8.110  0.3468 -0.0262  0.6563
  723MOL0     C99673  13.961   0.226   8.132  0.4617  0.3846  0.0525
  723MOL0     C99674  14.032   0.100   8.082  0.8314  0.9683  0.8309
  723MOL0     C99675  13.984   0.056   7.942 -0.1763 -0.9145  0.9352
  723MOL0     C99676  14.075  -0.041   7.866 -0.5621  0.7201 -1.1798
  723MOL0     C99677  14.017  -0.082   7.730  0.2973 -0.1780  0.3957
  723MOL0     C99678  14.122  -0.160   7.661 -0.4418 -0.6094 -0.6190
  723MOL0     C99679  14.065  -0.227   7.539  0.3833  0.4532  0.8017
  723MOL0     C99680  14.169  -0.311   7.464  0.9910 -0.2423 -0.7368
  723MOL0    Cl99681  14.217  -0.444   7.575 -0.3399 -0.2852 -0.0103
  723MOL0     C99682  13.600   0.249   8.066 -0.2834 -0.5700  0.2272
  723MOL0     C99683  13.487   0.322   8.089  0.7894 -1.2793  0.5722
  723MOL0     O99684  13.368   0.387   8.443 -0.0875  0.2788 -0.0090
  723MOL0     C99685  13.217   0.607   8.531  0.3106  0.1640 -0.6197
  723MOL0     C99686  13.115   0.697   8.582  0.4464  0.4729  0.0071
  723MOL0     N99687  12.420   1.078   8.739  1.1773 -0.0855 -0.6325
  723MOL0     N99688  12.294   1.100   8.737 -0.2162  0.5367  0.0792
  723MOL0     C99689  11.011   1.071   8.721  0.6822 -0.3194  1.2804
  723MOL0     C99690  10.912   1.053   8.816  0.0314 -0.4867  0.3007
  723MOL0     C99691  10.628   1.123   9.152  0.5989 -0.5165 -0.0512
  723MOL0     C99692  10.652   1.057   9.270 -0.4311 -0.1418 -0.7629
  723MOL0     C99693  10.547   1.012   9.354 -0.7869  0.4729 -0.3898
  723MOL0     C99694  10.409   1.035   9.315 -1.7653  0.6511 -0.6447
  723MOL0     O99695  10.294   1.021   9.394  0.5501  0.1125 -0.0470
  723MOL0     C99696  10.321   0.998   9.533 -0.0504  0.0839 -0.4462
  723MOL0     C99697  10.190   1.012   9.613  0.7227 -0.7699 -0.3216
  723MOL0     C99698  10.104   0.890   9.587  0.1256  1.2683  0.2411
  723MOL0     C99699   9.960   0.900   9.669 -0.0212  0.1612  0.7009
  723MOL0     C99700   9.869   0.979   9.596 -0.2402 -0.4880  0.4510
  723MOL0     C99701   9.783   1.040   9.534 -0.2344 -0.3224  0.0041
  723MOL0     C99702  10.390   1.103   9.199  0.2973  0.2171 -0.1031
  723MOL0     C99703  10.492   1.137   9.119  0.9285  0.2165  0.7968
  723MOL0     C99704  10.446   1.176   8.986 -0.3017  0.5625 -0.0696
  723MOL0     H99705  11.084   1.146   9.093 -4.3620 -1.2535  0.7095
  723MOL0     H99706  11.261   1.158   8.922  0.3679  0.3267 -2.7968
  723MOL0     H99707  11.376   0.981   8.767 -0.1135  0.2457  0.5749
  723MOL0     H99708  11.433   1.151   8.731  1.9121  0.5069 -3.0957
  723MOL0     H99709  11.407   0.933   8.526  1.0528 -0.4579 -0.7673
  723MOL0     H99710  11.447   1.102   8.494 -0.4949  0.4418  0.2309
  723MOL0     H99711  11.664   1.021   8.501  1.4919 -0.5459  0.3757
  723MOL0     H99712  11.633   1.077   8.668  1.9551  0.7255 -1.4091
  723MOL0     H99713  11.579   0.834   8.710  0.2238  2.5009  1.0268
  723MOL0     H99714  11.634   0.793   8.544 -1.5909  0.8661 -0.8256
  723MOL0     H99715  11.836   0.762   8.684  1.7266  1.0827 -1.7637
  723MOL0     H99716  11.799   0.899   8.775  1.7052 -1.4354  0.4078
  723MOL0     H99717  11.873   0.923   8.481 -2.2645 -1.3623  1.2035
  723MOL0     H99718  11.871   1.041   8.615  0.3779  0.6124 -1.1793
  723MOL0     H99719  12.100   0.963   8.535  0.2745  0.7247 -0.0025
  723MOL0     H99720  12.071   0.809   8.606  0.5369 -0.2567  0.6228
  723MOL0     H99721  12.043   1.051   8.770 -1.9711 -0.6565 -0.6948
  723MOL0     H99722  12.051   0.886   8.833  2.4001  0.0810  0.2991
  723MOL0     H99723  12.331   0.774   8.819 -2.2192  0.1569 -0.7364
  723MOL0     H99724  12.578   0.837   8.925 -0.8101 -0.4430 -0.5534
  723MOL0     H99725  12.652   0.985   8.856  0.3718 -0.3158 -0.4592
  723MOL0     H99726  12.733   0.754   8.778  0.2378 -0.8582 -0.0921
  723MOL0     H99727  12.587   0.731   8.697  3.3494 -1.0993 -1.6029
  723MOL0     H99728  12.614   0.937   8.556 -0.2090 -0.2295 -0.3107
  723MOL0     H99729  12.763   0.975   8.637 -0.4415  1.9989 -1.8594
  723MOL0     H99730  12.720   0.709   8.485  1.5300 -0.6096  0.5435
  723MOL0     H99731  12.773   0.856   8.413 -2.5919 -0.2537 -0.8806
  723MOL0     H99732  12.888   0.658   8.333  0.6158 -1.6350 -1.7391
  723MOL0     H99733  13.125   0.554   8.114  0.6420 -1.2786  0.1623
  723MOL0     H99734  12.960   0.534   8.164 -0.0695 -2.1114  0.9806
  723MOL0     H99735  13.073   0.405   8.202 -3.4903 -0.5130 -1.1935
  723MOL0     H99736  13.619   0.524   8.325 -1.7855  0.9838  0.3023
  723MOL0     H99737  13.815   0.385   8.279  1.0426 -2.0173 -1.7990
  723MOL0     H99738  13.987   0.311   8.067  0.9413  0.8685  0.8560
  723MOL0     H99739  13.988   0.249   8.236  0.1613 -2.8528  0.9324
  723MOL0     H99740  14.138   0.125   8.068  0.4769  0.7740 -3.9394
  723MOL0     H99741  14.022   0.014   8.149  2.1065  0.3961  0.3149
  723MOL0     H99742  13.971   0.146   7.881 -3.8819 -0.9269  1.4774
  723MOL0     H99743  13.882   0.015   7.942 -0.7017  0.3471 -0.0302
  723MOL0     H99744  14.101  -0.125   7.932 -0.2781 -0.0181 -2.2122
  723MOL0     H99745  14.172   0.005   7.847 -0.0728 -0.0666 -0.6393
  723MOL0     H99746  13.923  -0.136   7.748  0.3131  0.5259  3.0136
  723MOL0     H99747  13.982   0.002   7.670 -0.6059 -0.3666  0.6451
  723MOL0     H99748  14.158  -0.237   7.729  1.7519  0.7428 -0.1532
  723MOL0     H99749  14.203  -0.090   7.637  1.6043 -2.5355  0.2308
  723MOL0     H99750  14.028  -0.149   7.472  4.4511  1.1422 -0.9604
  723MOL0     H99751  13.980  -0.292   7.561 -0.1404 -1.1227 -4.4573
  723MOL0     H99752  14.257  -0.250   7.439  0.8912 -0.6432 -2.1708
  723MOL0     H99753  14.119  -0.340   7.372 -0.6455  1.5752 -0.4769
  723MOL0     H99754  13.594   0.163   8.001  0.1442 -1.7926  1.7635
  723MOL0     H99755  13.391   0.300   8.044 -0.4412 -0.7708  2.8078
  723MOL0     H99756  13.314   0.597   8.579  0.0216  3.3866  0.8713
  723MOL0     H99757  13.127   0.737   8.682  0.1670  0.1171  0.1882
  723MOL0     H99758  10.996   1.058   8.614 -0.2292  3.9647  0.7041
  723MOL0     H99759  10.812   1.020   8.788 -1.6696  1.6753  3.2797
  723MOL0     H99760  10.753   1.035   9.304 -0.9075  0.0204  0.8005
  723MOL0     H99761  10.572   0.969   9.450 -0.4391  1.9692  0.2183
  723MOL0     H99762  10.366   0.902   9.556 -0.4744 -0.0834 -0.2971
  723MOL0     H99763  10.394   1.071   9.571  1.0907 -0.3791 -1.6947
  723MOL0     H99764  10.141   1.105   9.581  0.5072 -0.5398  0.6557
  723MOL0     H99765  10.216   1.026   9.719 -0.0316  0.2590 -0.2542
  723MOL0     H99766  10.081   0.881   9.480 -3.0163  0.3756  0.8887
  723MOL0     H99767  10.163   0.803   9.618  0.8261  1.7653  0.3020
  723MOL0     H99768   9.984   0.948   9.765  0.9421 -1.2447  1.2039
  723MOL0     H99769   9.920   0.804   9.701 -1.5349 -0.3477 -2.3868
  723MOL0     H99770   9.717   1.085   9.463  2.1031 -0.9042 -2.7380
  723MOL0     H99771  10.286   1.128   9.182  0.1487 -0.5624 -0.4008
  723MOL0     H99772  10.355   1.122   8.955  0.5453 -0.1597 -1.4244
  723MOL0     H99773  10.416   1.281   8.981 -0.3427  0.5036 -3.1500
  723MOL0     H99774  10.520   1.154   8.908 -1.7237 -0.3703 -1.2267
  724MOL0     O99775   9.736   7.885   9.361 -0.3472  0.1630 -0.4329
  724MOL0     C99776   9.738   7.861   9.482 -0.1950  0.1345 -0.4378
  724MOL0     O99777   9.812   7.765   9.549  0.0242  0.9995 -0.7486
  724MOL0     C99778   9.889   7.674   9.479 -0.3834  0.0455 -0.1779
  724MOL0     C99779   9.891   7.544   9.528 -0.3662  0.6496 -0.7117
  724MOL0     C99780   9.971   7.439   9.456  0.8404  0.1471 -1.0932
  724MOL0     C99781  10.031   7.482   9.338  0.3632  0.2248 -0.0685
  724MOL0     O99782  10.102   7.394   9.263 -0.2745 -0.3220  0.1467
  724MOL0     C99783  10.160   7.268   9.311 -0.5973 -0.8420  0.4695
  724MOL0     C99784  10.273   7.291   9.404 -0.3711  0.8704 -0.3896
  724MOL0     C99785  10.389   7.370   9.339 -0.3263  0.5198  0.5991
  724MOL0     C99786  10.490   7.419   9.448 -0.3053 -0.4281 -0.3749
  724MOL0     C99787  10.618   7.476   9.390  0.2394  0.2841  0.1913
  724MOL0     C99788  10.714   7.374   9.325 -0.1665  0.7621  0.2553
  724MOL0     C99789  10.839   7.442   9.264 -0.2558  0.5344  0.5971
  724MOL0     C99790  10.921   7.333   9.186 -0.1385  0.5851  0.4045
  724MOL0     N99791  11.037   7.402   9.133  0.6282  0.4466 -0.8166
  724MOL0     C99792  11.052   7.451   9.009 -0.1644  0.3255  0.4115
  724MOL0     C99793  11.184   7.473   8.992 -0.6787 -0.0172 -0.3313
  724MOL0     C99794  11.258   7.495   8.871  0.5580 -0.5188 -0.4639
  724MOL0     C99795  11.405   7.544   8.891  0.6324  0.1014  0.0750
  724MOL0     C99796  11.495   7.536   8.766 -0.2031 -0.5847 -0.0665
  724MOL0     C99797  11.628   7.603   8.780  0.3699 -0.3752 -0.1483
  724MOL0     O99798  11.721   7.516   8.854  0.3376  0.6478  0.3660
  724MOL0     C99799  11.859   7.537   8.833 -0.3795  0.4850 -0.2388
  724MOL0     C99800  11.907   7.658   8.782 -0.5613  0.0447 -0.9440
  724MOL0     C99801  12.052   7.682   8.792  0.5536  0.2852  0.1487
  724MOL0     C99802  12.103   7.817   8.753 -0.2126  0.4654 -0.7903
  724MOL0     C99803  12.142   7.586   8.837  0.1082  1.1474  0.4782
  724MOL0     C99804  12.291   7.604   8.838  0.2515  0.8883  0.1515
  724MOL0     O99805  12.346   7.669   8.734  0.2704  0.9907 -0.4844
  724MOL0     C99806  12.478   7.682   8.744 -0.4771 -0.8488  0.1798
  724MOL0     C99807  12.537   7.801   8.793  0.3670  0.7674  0.4414
  724MOL0     C99808  12.674   7.822   8.804 -0.4316 -0.0769 -0.0619
  724MOL0     C99809  12.758   7.728   8.742  0.0670  0.4509 -0.4660
  724MOL0     O99810  12.894   7.742   8.754  0.1691 -0.4061  0.6721
  724MOL0     C99811  12.988   7.659   8.692 -0.3651  0.9865 -0.1448
  724MOL0     C99812  13.127   7.730   8.694 -0.5269 -0.4221 -0.1443
  724MOL0     C99813  13.214   7.673   8.581  0.8051 -0.2797 -0.2099
  724MOL0     C99814  13.352   7.635   8.645  0.4066 -0.6664  0.5749
  724MOL0     C99815  13.459   7.603   8.546  0.1091  0.5713  0.3130
  724MOL0     C99816  13.603   7.608   8.593  0.2166  0.8716  0.0563
  724MOL0     C99817  13.643   7.478   8.675 -0.1240 -0.0852 -0.2030
  724MOL0     C99818  13.792   7.466   8.682 -0.5890  0.7593  0.6272
  724MOL0    Cl99819  13.838   7.386   8.527  0.2215  0.3340 -0.1748
  724MOL0     C99820  12.702   7.619   8.680  0.5832  0.1490  0.0312
  724MOL0     C99821  12.565   7.594   8.685 -0.4564 -0.1187 -1.1857
  724MOL0     O99822  12.355   7.563   8.939  0.2997  0.3334  0.0417
  724MOL0     C99823  12.091   7.465   8.888  0.0707  0.3669  0.0364
  724MOL0     C99824  11.944   7.443   8.882  0.7021 -0.3905  0.5121
  724MOL0     N99825  11.245   7.449   9.117  0.3908 -0.0162 -0.1742
  724MOL0     N99826  11.156   7.409   9.203 -0.0658  0.7359  0.4646
  724MOL0     C99827  10.021   7.608   9.291  0.4079  0.6881  0.2798
  724MOL0     C99828   9.956   7.703   9.358  0.5166 -0.5112  0.6941
  724MOL0     C99829   9.656   7.951   9.568 -0.4483 -0.9681  0.6078
  724MOL0     C99830   9.680   7.961   9.703 -0.7433 -0.1610 -0.0571
  724MOL0     C99831   9.598   8.029   9.795 -0.1825 -0.9909  0.5142
  724MOL0     C99832   9.486   8.100   9.745 -0.0093 -0.4379  0.0075
  724MOL0     O99833   9.417   8.185   9.833  0.2941 -0.0993  1.0036
  724MOL0     C99834   9.404   8.138   9.964 -0.5266  1.1528  0.0194
  724MOL0     C99835   9.506   8.211  10.057  0.5959  0.4660 -0.1190
  724MOL0     C99836   9.433   8.321  10.127  0.8188  0.6376  0.1366
  724MOL0     C99837   9.399   8.438  10.038 -0.4629 -0.1413  0.2060
  724MOL0     C99838   9.395   8.562  10.116 -0.3588 -0.2645 -0.2363
  724MOL0     C99839   9.400   8.662  10.187 -0.2678  0.5510 -0.2718
  724MOL0     C99840   9.467   8.096   9.609  0.6926  0.0921  0.5858
  724MOL0     C99841   9.545   8.020   9.519  0.4413 -0.1266  0.1602
  724MOL0     C99842   9.491   8.024   9.379  0.1352  0.1782  0.8762
  724MOL0     H99843   9.837   7.506   9.615  1.4285 -0.6527 -0.1165
  724MOL0     H99844   9.953   7.345   9.506 -2.4547  2.1619  2.0701
  724MOL0     H99845  10.192   7.204   9.228 -2.1503 -2.3262  0.9628
  724MOL0     H99846  10.092   7.204   9.367  0.6089 -0.4840  2.4407
  724MOL0     H99847  10.251   7.345   9.496 -0.0833 -1.5715  1.2217
  724MOL0     H99848  10.315   7.194   9.433 -1.4776  0.4400 -0.2037
  724MOL0     H99849  10.445   7.301   9.275  1.0721  3.5494 -1.6941
  724MOL0     H99850  10.364   7.445   9.263  0.6422 -0.5097 -0.7878
  724MOL0     H99851  10.430   7.495   9.499  0.0706 -0.3757 -0.0048
  724MOL0     H99852  10.505   7.337   9.519 -0.5222 -0.7400 -0.6857
  724MOL0     H99853  10.678   7.521   9.470  1.8925  1.8718 -1.8366
  724MOL0     H99854  10.608   7.556   9.316  2.6437 -0.7415 -1.3557
  724MOL0     H99855  10.749   7.310   9.407 -1.4622  2.6893  2.4441
  724MOL0     H99856  10.674   7.321   9.238  1.2946 -1.2019  0.7020
  724MOL0     H99857  10.905   7.476   9.344  2.5071  1.1402 -1.7961
  724MOL0     H99858  10.810   7.525   9.198 -0.2327  0.4210  0.4456
  724MOL0     H99859  10.943   7.258   9.263 -1.1822 -0.0398  0.1123
  724MOL0     H99860  10.855   7.291   9.109  0.1448 -1.2767  1.1152
  724MOL0     H99861  10.981   7.446   8.927  1.0204 -2.4369 -0.5425
  724MOL0     H99862  11.209   7.569   8.806 -0.8914 -1.1065 -0.0865
  724MOL0     H99863  11.250   7.404   8.811 -2.4010 -1.1808  0.7677
  724MOL0     H99864  11.397   7.647   8.926  1.5580 -0.4818  2.1598
  724MOL0     H99865  11.453   7.489   8.973  1.2725  0.2411 -0.1959
  724MOL0     H99866  11.497   7.428   8.749  1.0630 -1.0472  2.5402
  724MOL0     H99867  11.444   7.575   8.678  0.5611 -1.0712 -0.7387
  724MOL0     H99868  11.675   7.634   8.687 -0.6547 -0.0908 -0.5834
  724MOL0     H99869  11.614   7.698   8.832 -1.7505  0.4041 -1.9928
  724MOL0     H99870  11.851   7.747   8.754 -1.4006  0.6658  2.2332
  724MOL0     H99871  12.165   7.813   8.663  2.3761  0.1441  0.8749
  724MOL0     H99872  12.164   7.859   8.834 -0.5359 -1.3353  0.4543
  724MOL0     H99873  12.014   7.879   8.746 -0.5770  0.6903  3.3011
  724MOL0     H99874  12.468   7.879   8.825 -0.4639 -0.0224  0.6114
  724MOL0     H99875  12.724   7.911   8.839  1.9772 -1.6102  0.6550
  724MOL0     H99876  12.994   7.559   8.736 -0.4964  1.3972  0.8167
  724MOL0     H99877  12.949   7.650   8.590 -1.5165 -0.2534  0.3752
  724MOL0     H99878  13.125   7.839   8.695  3.0636 -0.2190  1.8385
  724MOL0     H99879  13.171   7.706   8.792 -0.4144  1.4120  0.2760
  724MOL0     H99880  13.236   7.752   8.508 -1.8850  4.0695  3.1925
  724MOL0     H99881  13.170   7.588   8.527  2.4770 -1.1005 -0.3427
  724MOL0     H99882  13.327   7.555   8.715  0.1096 -1.2340 -0.1590
  724MOL0     H99883  13.392   7.720   8.701  1.0777 -1.5263  1.4148
  724MOL0     H99884  13.446   7.508   8.493  0.3823  0.2504  0.7992
  724MOL0     H99885  13.454   7.671   8.461 -1.5636 -1.6950 -1.5391
  724MOL0     H99886  13.619   7.703   8.645 -1.9487  1.8284 -0.8864
  724MOL0     H99887  13.666   7.621   8.505  1.7878 -2.1040  0.6130
  724MOL0     H99888  13.594   7.391   8.630 -1.6981  0.9546 -0.5577
  724MOL0     H99889  13.618   7.483   8.781  2.8114 -3.7811  0.8674
  724MOL0     H99890  13.823   7.398   8.762 -0.0797 -0.6142 -0.6894
  724MOL0     H99891  13.846   7.561   8.695  0.6944  0.2504 -0.7851
  724MOL0     H99892  12.768   7.549   8.631  0.0774  0.0848 -0.5751
  724MOL0     H99893  12.519   7.509   8.635  1.4589 -2.7651  1.2261
  724MOL0     H99894  12.164   7.393   8.923 -0.2719  1.5449  3.5585
  724MOL0     H99895  11.901   7.352   8.921 -3.1554  1.2579  0.5570
  724MOL0     H99896  10.074   7.633   9.199  1.2397  1.7294  1.0159
  724MOL0     H99897   9.965   7.805   9.321  2.6178 -1.6299 -2.2167
  724MOL0     H99898   9.763   7.908   9.748 -0.0380 -0.9739 -2.1920
  724MOL0     H99899   9.619   8.030   9.902  0.7942  2.6736  0.4272
  724MOL0     H99900   9.304   8.148  10.008 -0.4077 -2.6181  1.5621
  724MOL0     H99901   9.421   8.030   9.961  2.2663  1.5440 -1.0646
  724MOL0     H99902   9.590   8.250   9.999 -0.5303  3.1494 -0.0842
  724MOL0     H99903   9.539   8.134  10.127 -1.3491  0.2121  0.6034
  724MOL0     H99904   9.348   8.281  10.184 -0.5511  2.3606 -0.5949
  724MOL0     H99905   9.491   8.350  10.215 -2.0371 -1.1560  2.8177
  724MOL0     H99906   9.305   8.410   9.990  0.5545 -4.7180  0.3665
  724MOL0     H99907   9.479   8.441   9.965  0.5738  2.1723  1.3465
  724MOL0     H99908   9.413   8.757  10.234 -1.5470  2.2927 -3.1181
  724MOL0     H99909   9.388   8.161   9.572  2.0601  0.2154 -2.3703
  724MOL0     H99910   9.463   7.928   9.333 -1.2937  0.7384  0.5197
  724MOL0     H99911   9.397   8.079   9.380 -0.1192 -0.2524  1.0070
  724MOL0     H99912   9.549   8.085   9.309 -0.6174 -3.0982 -2.9893
  725MOL0     O99913   2.772   7.612   9.432  0.4736 -0.0843  0.6072
  725MOL0     C99914   2.714   7.671   9.523  0.4995  0.6292 -0.6274
  725MOL0     O99915   2.763   7.682   9.647  0.0906  0.9355 -0.0515
  725MOL0     C99916   2.875   7.623   9.683 -0.0451 -0.3075  0.3188
  725MOL0     C99917   2.869   7.479   9.694  0.2523 -0.8281  0.2954
  725MOL0     C99918   2.984   7.413   9.738 -0.3245 -0.2986 -0.2237
  725MOL0     C99919   3.099   7.487   9.781 -0.2086  0.2105  0.5364
  725MOL0     O99920   3.216   7.436   9.824  0.1251  0.3003 -0.6567
  725MOL0     C99921   3.238   7.297   9.799 -0.1803 -0.4520 -0.4277
  725MOL0     C99922   3.381   7.251   9.823 -0.1993  0.1764  0.0762
  725MOL0     C99923   3.475   7.311   9.724  0.1897 -0.4204  1.2455
  725MOL0     C99924   3.606   7.358   9.777  0.0862  0.3392 -0.9844
  725MOL0     C99925   3.682   7.230   9.820  0.0383  0.2894  0.4547
  725MOL0     C99926   3.816   7.277   9.881  0.0461 -0.0406 -0.5093
  725MOL0     C99927   3.916   7.162   9.898  0.6327 -0.0500 -0.3036
  725MOL0     C99928   4.058   7.204   9.892 -0.1294 -0.0459 -0.2568
  725MOL0     N99929   4.140   7.084   9.898 -0.0885 -1.4309 -0.5152
  725MOL0     C99930   4.205   7.052  10.016 -0.2510 -0.2297 -1.0544
  725MOL0     C99931   4.271   6.939   9.980  0.6670  0.1389  0.5231
  725MOL0     C99932   4.359   6.857  10.073 -0.0080  0.3418  0.5918
  725MOL0     C99933   4.478   6.932  10.125 -0.4976 -0.6568 -0.1956
  725MOL0     C99934   4.571   6.825  10.195 -0.6408  0.0918 -0.4044
  725MOL0     C99935   4.677   6.887  10.297  0.4945 -0.0634  0.6519
  725MOL0     O99936   4.761   6.791  10.359 -0.4689 -0.1166 -0.4436
  725MOL0     C99937   4.880   6.767  10.291  0.4175 -0.5130  0.1444
  725MOL0     C99938   4.897   6.796  10.155  0.2095  0.2143  0.1551
  725MOL0     C99939   5.025   6.789  10.091  0.1994  0.0265 -0.4456
  725MOL0     C99940   5.029   6.830   9.944 -0.0557  0.2435 -0.6915
  725MOL0     C99941   5.132   6.737  10.168 -0.0460 -0.0920  0.7314
  725MOL0     C99942   5.281   6.717  10.122 -0.1499 -0.0191 -0.2500
  725MOL0     O99943   5.377   6.695  10.217  0.3833  0.7517  0.0396
  725MOL0     C99944   5.485   6.615  10.193 -0.0087 -0.6025  1.0833
  725MOL0     C99945   5.599   6.634  10.270 -0.4373  0.4200 -0.1488
  725MOL0     C99946   5.726   6.577  10.247  1.0956  0.7132 -0.0559
  725MOL0     C99947   5.736   6.483  10.149  0.2477 -0.8735  0.3335
  725MOL0     O99948   5.854   6.430  10.112  0.1726 -0.6608  0.1348
  725MOL0     C99949   5.936   6.513  10.037 -0.7515  0.5512  0.2010
  725MOL0     C99950   6.082   6.489  10.078  0.6754  0.0303 -0.3613
  725MOL0     C99951   6.112   6.549  10.217  0.3763  0.9692  0.0355
  725MOL0     C99952   6.141   6.439  10.318  0.6653  0.4946 -0.5686
  725MOL0     C99953   6.200   6.502  10.441  0.0318  1.0263  0.3953
  725MOL0     C99954   6.259   6.393  10.539  0.2905  0.2222  1.1082
  725MOL0     C99955   6.338   6.437  10.661 -0.3336  0.5249  0.2782
  725MOL0     C99956   6.258   6.477  10.777  0.2463  0.7196 -0.3764
  725MOL0    Cl99957   6.381   6.529  10.894  0.0395 -0.0040 -0.1220
  725MOL0     C99958   5.628   6.454  10.076  0.5926  0.5588 -0.1052
  725MOL0     C99959   5.508   6.515  10.094  0.6227  0.3118  0.0451
  725MOL0     O99960   5.304   6.707  10.001 -0.5946  0.1015 -0.1174
  725MOL0     C99961   5.106   6.696  10.297 -0.4199 -0.4207  0.3487
  725MOL0     C99962   4.986   6.723  10.361  0.5775 -0.0670  0.4414
  725MOL0     N99963   4.252   6.915   9.847  0.0727 -0.1336  0.5990
  725MOL0     N99964   4.176   7.009   9.796 -0.1906  0.4665 -0.0676
  725MOL0     C99965   3.097   7.622   9.761  0.2102 -0.6191 -0.6523
  725MOL0     C99966   2.988   7.697   9.722  0.0520 -0.3856  0.5535
  725MOL0     C99967   2.586   7.720   9.502  1.1695 -0.1628 -0.1404
  725MOL0     C99968   2.565   7.867   9.497  0.4178  0.0358 -0.0678
  725MOL0     C99969   2.437   7.920   9.486 -0.3765  0.2426 -0.1257
  725MOL0     C99970   2.321   7.843   9.468 -1.1250 -0.1949  0.2520
  725MOL0     O99971   2.205   7.909   9.450  0.2028  0.4156 -0.0750
  725MOL0     C99972   2.187   7.970   9.324  0.8678 -0.1841 -0.1856
  725MOL0     C99973   2.112   8.109   9.351  0.1753  0.2817  0.0166
  725MOL0     C99974   1.962   8.077   9.382  0.4639  0.6096 -0.4133
  725MOL0     C99975   1.894   8.208   9.366 -0.1107 -0.5350 -0.1626
  725MOL0     C99976   1.753   8.205   9.411 -0.0884  0.4761 -0.1151
  725MOL0     C99977   1.637   8.206   9.446 -0.4715 -0.4059 -0.7100
  725MOL0     C99978   2.344   7.707   9.452  0.4838 -0.2438 -0.6518
  725MOL0     C99979   2.473   7.645   9.466  0.0306  0.0440 -0.0599
  725MOL0     C99980   2.486   7.500   9.440 -0.7842  0.0954  0.3037
  725MOL0     H99981   2.788   7.410   9.669  0.8309 -0.3394 -3.6319
  725MOL0     H99982   2.971   7.306   9.752 -0.4312 -0.4437 -1.3628
  725MOL0     H99983   3.218   7.269   9.695  1.2789  1.4000 -1.2880
  725MOL0     H99984   3.162   7.240   9.853 -2.3038 -0.4387 -3.1709
  725MOL0     H99985   3.415   7.284   9.922 -0.3657 -4.1316  1.7717
  725MOL0     H99986   3.381   7.142   9.823  2.4852  0.0815  1.4711
  725MOL0     H99987   3.507   7.245   9.643 -0.0775  0.3941  0.4604
  725MOL0     H99988   3.424   7.401   9.688 -3.3212 -1.9255  2.0056
  725MOL0     H99989   3.671   7.410   9.706  0.2610  1.3164 -0.1369
  725MOL0     H99990   3.598   7.413   9.871 -2.5005 -0.9282 -0.3776
  725MOL0     H99991   3.699   7.170   9.731 -4.1504 -0.2758 -0.1609
  725MOL0     H99992   3.631   7.164   9.890  1.9129 -0.0953  1.5111
  725MOL0     H99993   3.858   7.356   9.819 -0.4564  0.6621  0.0258
  725MOL0     H99994   3.803   7.317   9.982  1.0867 -0.7826 -0.0722
  725MOL0     H99995   3.894   7.078   9.831  0.2478 -1.3883  1.4173
  725MOL0     H99996   3.900   7.113   9.995 -1.7623  2.3380  0.6560
  725MOL0     H99997   4.085   7.258   9.801  0.0337  1.3791  0.6036
  725MOL0     H99998   4.072   7.277   9.972 -2.4247  2.2896 -1.8081
  725MOL0     H99999   4.197   7.098  10.114  1.4859  1.0981 -1.4911
  725MOL0     H    0   4.391   6.766  10.020  2.2873  0.9507  0.8479
  725MOL0     H    1   4.301   6.820  10.158  0.6100 -5.7638 -1.1050
  725MOL0     H    2   4.530   6.994  10.051 -0.5051  3.8053  3.1287
  725MOL0     H    3   4.444   7.004  10.201 -1.3042 -1.6549  0.4071
  725MOL0     H    4   4.508   6.758  10.255  1.5043  0.7004  2.8387
  725MOL0     H    5   4.617   6.762  10.118 -1.7891 -0.7326 -0.4302
  725MOL0     H    6   4.734   6.958  10.236 -0.2367 -1.7013 -2.0990
  725MOL0     H    7   4.622   6.948  10.370 -0.5410  1.2771 -1.1393
  725MOL0     H    8   4.819   6.835  10.090 -0.7749 -0.3638  0.9633
  725MOL0     H    9   4.940   6.806   9.885 -0.1605 -0.4716 -0.2613
  725MOL0     H   10   5.112   6.779   9.893  0.4698 -1.7317  1.8791
  725MOL0     H   11   5.052   6.936   9.934 -1.7613  0.8468  1.2070
  725MOL0     H   12   5.605   6.715  10.342  0.9020  0.6839 -0.5233
  725MOL0     H   13   5.813   6.615  10.300  2.0410 -0.7068 -0.5384
  725MOL0     H   14   5.925   6.498   9.930 -0.4617  0.3312  0.2000
  725MOL0     H   15   5.908   6.617  10.055 -2.0306  0.1186  0.8575
  725MOL0     H   16   6.097   6.381  10.076 -1.0110 -0.2096 -0.8483
  725MOL0     H   17   6.146   6.541  10.005 -1.5658 -0.2741 -2.7031
  725MOL0     H   18   6.027   6.603  10.258 -0.2874  0.5326 -0.7377
  725MOL0     H   19   6.204   6.607  10.203  1.8184 -1.5047 -1.5062
  725MOL0     H   20   6.210   6.369  10.272  1.2965  0.6890  0.0661
  725MOL0     H   21   6.053   6.381  10.346  1.1225 -0.0364 -0.2147
  725MOL0     H   22   6.273   6.579  10.413 -0.2972  1.4314  0.6522
  725MOL0     H   23   6.124   6.557  10.496 -0.4761 -0.0758  0.8297
  725MOL0     H   24   6.320   6.337  10.467  1.0315 -1.1753  2.7352
  725MOL0     H   25   6.172   6.332  10.566  1.3400 -2.2091 -0.6157
  725MOL0     H   26   6.390   6.527  10.628  0.3394 -0.1208 -0.4907
  725MOL0     H   27   6.412   6.360  10.684 -0.7888 -0.9250 -2.5736
  725MOL0     H   28   6.198   6.399  10.826  1.2922  0.6112  0.7697
  725MOL0     H   29   6.185   6.556  10.755  1.5945  1.8232 -1.0302
  725MOL0     H   30   5.629   6.387   9.991 -0.5452  1.2998 -0.7348
  725MOL0     H   31   5.430   6.482  10.026  1.9661 -2.4502 -0.2790
  725MOL0     H   32   5.182   6.650  10.359 -0.1839  1.0181  1.1709
  725MOL0     H   33   4.966   6.693  10.463 -0.5688 -0.0107  0.2424
  725MOL0     H   34   3.187   7.675   9.790  0.1216 -0.6638 -0.2993
  725MOL0     H   35   2.995   7.805   9.717  0.3078 -0.3119  2.0746
  725MOL0     H   36   2.649   7.935   9.502 -0.8380  2.1440 -3.7055
  725MOL0     H   37   2.432   8.028   9.502 -0.6966  0.5044 -1.8317
  725MOL0     H   38   2.274   7.982   9.260  0.8447 -0.2983 -0.2387
  725MOL0     H   39   2.119   7.907   9.265  0.3507  0.1555  0.0398
  725MOL0     H   40   2.123   8.172   9.262  1.4529 -0.3092 -0.2628
  725MOL0     H   41   2.168   8.158   9.431 -0.6011 -0.1452  0.8384
  725MOL0     H   42   1.919   8.006   9.310 -1.2872 -0.0462  1.1808
  725MOL0     H   43   1.955   8.033   9.482  0.6623  0.1324 -0.6072
  725MOL0     H   44   1.904   8.245   9.263  0.2574  1.4654  0.5385
  725MOL0     H   45   1.939   8.287   9.427 -0.1172 -1.4246  1.0082
  725MOL0     H   46   1.536   8.210   9.481  0.5605  0.2405  2.5883
  725MOL0     H   47   2.254   7.664   9.411 -1.6216  3.0612  0.1378
  725MOL0     H   48   2.566   7.454   9.499  1.8679  2.4595 -1.2258
  725MOL0     H   49   2.397   7.446   9.474  0.2401 -2.4400 -0.7966
  725MOL0     H   50   2.503   7.491   9.333 -4.0213  0.5506 -0.3324
  726MOL0     O   51   9.604   1.493   7.970  0.1965  0.3493  0.3607
  726MOL0     C   52   9.598   1.465   8.095 -0.3825 -0.2330  0.8484
  726MOL0     O   53   9.709   1.418   8.170 -0.7144  0.2104  0.6619
  726MOL0     C   54   9.825   1.428   8.100 -0.0086 -0.4439  0.4644
  726MOL0     C   55   9.878   1.324   8.027 -0.3898  0.5456 -0.2969
  726MOL0     C   56  10.002   1.339   7.972 -0.1040  0.7254  0.3803
  726MOL0     C   57  10.080   1.454   7.987  0.5138 -0.2093  0.3398
  726MOL0     O   58  10.203   1.456   7.930 -0.5930 -0.3549  0.0835
  726MOL0     C   59  10.265   1.590   7.920 -0.7881  0.2304  0.1758
  726MOL0     C   60  10.393   1.585   7.832  0.0210  0.4116  0.0661
  726MOL0     C   61  10.362   1.584   7.679  0.1365  0.3454  0.4135
  726MOL0     C   62  10.493   1.613   7.597  0.0814 -0.3027  0.1498
  726MOL0     C   63  10.606   1.507   7.602 -0.7788 -0.5954  0.1516
  726MOL0     C   64  10.583   1.383   7.518 -0.9652 -0.4447  0.6292
  726MOL0     C   65  10.714   1.310   7.498 -0.6327 -0.3947 -0.1422
  726MOL0     C   66  10.693   1.169   7.435 -0.0391  0.1082 -0.5716
  726MOL0     N   67  10.819   1.107   7.391  0.3347  0.2534 -0.4818
  726MOL0     C   68  10.940   1.108   7.464  0.3798 -0.6679  0.4756
  726MOL0     C   69  11.019   1.008   7.407  0.1891  0.0213  0.4517
  726MOL0     C   70  11.163   0.957   7.442 -0.0483  0.7109 -0.2123
  726MOL0     C   71  11.254   0.940   7.314  0.4372  0.1278 -0.5669
  726MOL0     C   72  11.380   0.880   7.371 -0.8425 -0.1287 -0.3228
  726MOL0     C   73  11.493   0.871   7.264 -0.2470  0.1995  0.1761
  726MOL0     O   74  11.623   0.885   7.330  0.4844 -1.0128  0.0846
  726MOL0     C   75  11.744   0.891   7.253 -0.0937  0.2064 -0.4484
  726MOL0     C   76  11.864   0.913   7.316  0.2809  0.0498 -0.0501
  726MOL0     C   77  11.987   0.897   7.261  0.2185  0.4138 -0.1841
  726MOL0     C   78  12.108   0.884   7.361  0.3104  1.4729 -0.1627
  726MOL0     C   79  11.989   0.885   7.120 -0.3782 -0.6006  0.6142
  726MOL0     C   80  12.119   0.891   7.036  0.0962 -0.4936  0.3895
  726MOL0     O   81  12.103   0.872   6.902 -0.9400  0.7483  0.8042
  726MOL0     C   82  12.203   0.845   6.808  0.1558  0.6618 -0.7193
  726MOL0     C   83  12.345   0.870   6.830  0.5262 -0.1877 -0.4870
  726MOL0     C   84  12.442   0.846   6.736  0.3593  0.2891  0.1630
  726MOL0     C   85  12.410   0.775   6.623 -0.0778 -0.1692  0.3950
  726MOL0     O   86  12.507   0.725   6.535  0.4617  0.1407 -0.0259
  726MOL0     C   87  12.570   0.599   6.575  0.2228 -0.0042 -0.0701
  726MOL0     C   88  12.724   0.602   6.596 -0.2778  0.4474 -0.8172
  726MOL0     C   89  12.804   0.551   6.467 -0.0253  0.2599  0.7225
  726MOL0     C   90  12.934   0.477   6.510  0.4464 -0.2121 -0.0050
  726MOL0     C   91  13.030   0.426   6.400  0.0597  0.4621 -0.0364
  726MOL0     C   92  13.125   0.335   6.463  0.2924 -0.7509 -0.5443
  726MOL0     C   93  13.200   0.387   6.589 -0.8782 -0.1852  1.2535
  726MOL0     C   94  13.283   0.511   6.564  0.5059  0.7662 -0.3699
  726MOL0    Cl   95  13.390   0.497   6.416  0.0212 -0.7374 -0.4337
  726MOL0     C   96  12.277   0.745   6.600 -0.0384 -0.3944  0.3250
  726MOL0     C   97  12.169   0.770   6.693 -0.7645 -0.4418 -0.9032
  726MOL0     O   98  12.228   0.894   7.097 -0.1136 -0.0170  0.4976
  726MOL0     C   99  11.873   0.861   7.051  0.5154  0.2352  0.5487
  726MOL0     C  100  11.746   0.863   7.115 -0.3147  0.1052  0.3334
  726MOL0     N  101  10.939   0.974   7.297  0.1691 -0.1685  0.4165
  726MOL0     N  102  10.822   1.024   7.287  0.1485 -0.2230  0.2369
  726MOL0     C  103  10.029   1.556   8.066  0.6608 -0.8476 -0.5911
  726MOL0     C  104   9.906   1.541   8.126  0.2875  0.0156  0.4152
  726MOL0     C  105   9.473   1.490   8.171  0.4383  0.1783 -0.1080
  726MOL0     C  106   9.446   1.397   8.274 -0.0575 -0.6403 -0.6067
  726MOL0     C  107   9.330   1.401   8.343 -0.3087 -0.1329 -0.8287
  726MOL0     C  108   9.226   1.490   8.311  0.2538  0.8501  0.4482
  726MOL0     O  109   9.111   1.485   8.391  0.0300  0.0948  0.2570
  726MOL0     C  110   9.015   1.590   8.378  0.8021 -0.2022  0.2205
  726MOL0     C  111   8.894   1.575   8.475  0.2849 -0.1629 -0.7470
  726MOL0     C  112   8.767   1.652   8.427  0.4061 -0.2774 -0.3286
  726MOL0     C  113   8.639   1.616   8.491  0.2080 -0.3080  0.4549
  726MOL0     C  114   8.524   1.680   8.429 -0.2193 -0.0224  0.0771
  726MOL0     C  115   8.424   1.707   8.376  0.0439 -0.1505  1.1968
  726MOL0     C  116   9.250   1.575   8.208 -0.3834 -0.0399  0.8517
  726MOL0     C  117   9.376   1.585   8.144  0.4146  0.8024  0.1801
  726MOL0     C  118   9.399   1.705   8.052  0.5087  0.0589 -0.5327
  726MOL0     H  119   9.830   1.231   7.998  1.0157  0.0870 -1.2926
  726MOL0     H  120  10.045   1.254   7.920  2.3927  2.0306  0.1736
  726MOL0     H  121  10.288   1.617   8.023 -1.1569  0.1668  0.2787
  726MOL0     H  122  10.200   1.665   7.874  0.6766 -0.0764 -2.5951
  726MOL0     H  123  10.463   1.663   7.861 -1.2590  1.3204  0.8082
  726MOL0     H  124  10.441   1.493   7.868 -0.1761  1.1545  2.3943
  726MOL0     H  125  10.312   1.492   7.649 -2.4453  2.0241 -0.7687
  726MOL0     H  126  10.289   1.660   7.652  0.0659  0.2258  0.2708
  726MOL0     H  127  10.470   1.627   7.490 -0.7099 -1.7654  0.1164
  726MOL0     H  128  10.537   1.703   7.640  2.0436 -1.0474 -0.2198
  726MOL0     H  129  10.637   1.482   7.704  1.6172  0.5389 -0.2312
  726MOL0     H  130  10.686   1.564   7.555 -2.1639  1.9467  0.7009
  726MOL0     H  131  10.518   1.315   7.575 -2.7336  1.3067  0.7878
  726MOL0     H  132  10.541   1.399   7.419 -1.7590 -2.7335  0.5430
  726MOL0     H  133  10.765   1.302   7.594 -0.1460 -0.5857 -0.4135
  726MOL0     H  134  10.775   1.370   7.429  0.7632 -0.3876  1.0384
  726MOL0     H  135  10.646   1.112   7.516  1.2163 -0.0620  0.0620
  726MOL0     H  136  10.635   1.175   7.342 -0.7467  0.8735 -0.0940
  726MOL0     H  137  10.966   1.186   7.535 -0.8603  1.1821 -0.9953
  726MOL0     H  138  11.152   0.868   7.505 -0.6905  0.6657 -0.3895
  726MOL0     H  139  11.213   1.033   7.503 -0.7965  0.0697  1.2603
  726MOL0     H  140  11.198   0.864   7.258  1.2041 -3.0985  2.6778
  726MOL0     H  141  11.273   1.033   7.260 -0.0926  0.3626 -0.3532
  726MOL0     H  142  11.408   0.944   7.456  0.2890 -1.8064  0.6325
  726MOL0     H  143  11.359   0.780   7.411 -0.0077 -1.1246 -2.2750
  726MOL0     H  144  11.486   0.782   7.201  1.4320  0.4270 -0.3803
  726MOL0     H  145  11.473   0.956   7.198 -0.2232 -0.6264 -0.9320
  726MOL0     H  146  11.864   0.937   7.422 -0.1927  4.4769 -0.8569
  726MOL0     H  147  12.169   0.975   7.364  2.1461  0.3805 -1.7176
  726MOL0     H  148  12.185   0.810   7.338 -1.2504  0.0044 -0.8664
  726MOL0     H  149  12.065   0.868   7.460  3.0520 -0.2374  0.8736
  726MOL0     H  150  12.385   0.935   6.907 -2.6275  3.1323 -1.3788
  726MOL0     H  151  12.549   0.857   6.755  0.3420 -1.7284  1.8523
  726MOL0     H  152  12.518   0.556   6.661 -2.0701  1.0036 -0.8704
  726MOL0     H  153  12.560   0.514   6.506  2.9649 -2.7942  2.6120
  726MOL0     H  154  12.747   0.708   6.612 -0.8863  0.5114 -0.3280
  726MOL0     H  155  12.754   0.558   6.692 -0.3990  0.2540 -0.8670
  726MOL0     H  156  12.839   0.629   6.398 -1.6983 -0.6418 -1.2960
  726MOL0     H  157  12.746   0.486   6.400  0.2064  0.2543  0.5274
  726MOL0     H  158  12.907   0.408   6.592  1.7381  0.6884  1.2225
  726MOL0     H  159  12.991   0.552   6.566  1.4218 -2.4821  2.2866
  726MOL0     H  160  12.980   0.371   6.321  1.3671 -0.5844 -0.1630
  726MOL0     H  161  13.072   0.517   6.356  2.9178  0.8679  3.0709
  726MOL0     H  162  13.195   0.316   6.381  1.1597  2.4111 -0.6761
  726MOL0     H  163  13.078   0.241   6.492 -0.3266 -0.7563 -1.5336
  726MOL0     H  164  13.265   0.303   6.613 -1.6305 -1.6995 -1.6490
  726MOL0     H  165  13.135   0.400   6.676  0.6685 -0.9772  2.5898
  726MOL0     H  166  13.367   0.509   6.634 -0.0207  0.6019  0.2695
  726MOL0     H  167  13.228   0.606   6.568  0.3272  0.6420  0.2841
  726MOL0     H  168  12.258   0.699   6.504  0.0463  1.0198 -0.4001
  726MOL0     H  169  12.070   0.739   6.659 -0.2983 -0.6113 -2.1791
  726MOL0     H  170  11.882   0.835   6.946  0.8134  1.6693  0.2013
  726MOL0     H  171  11.659   0.851   7.052  0.8547 -1.6265 -1.0514
  726MOL0     H  172  10.094   1.636   8.100  2.7955 -1.9107 -1.9831
  726MOL0     H  173   9.861   1.620   8.184  2.2531  1.3171  0.2831
  726MOL0     H  174   9.523   1.324   8.297 -0.9305 -1.3073  0.2566
  726MOL0     H  175   9.305   1.330   8.421 -2.2848  0.6005 -0.7344
  726MOL0     H  176   9.068   1.685   8.372  1.8341 -0.8430 -1.6913
  726MOL0     H  177   8.974   1.577   8.277 -3.0702 -0.7791  1.7246
  726MOL0     H  178   8.925   1.608   8.575  0.9959  1.0766 -1.3535
  726MOL0     H  179   8.868   1.469   8.488  0.3944 -0.0476  0.6511
  726MOL0     H  180   8.769   1.758   8.455 -4.9718  0.1463 -0.4571
  726MOL0     H  181   8.762   1.642   8.318  0.4271 -2.6004 -0.1641
  726MOL0     H  182   8.642   1.651   8.595 -0.3388  1.2420 -0.0267
  726MOL0     H  183   8.622   1.508   8.483 -1.5747 -0.2712  2.6070
  726MOL0     H  184   8.338   1.746   8.327  1.9144  3.2162  0.2570
  726MOL0     H  185   9.171   1.645   8.182 -0.7462 -1.3613 -2.1006
  726MOL0     H  186   9.324   1.779   8.080 -0.6108 -0.5200 -1.9010
  726MOL0     H  187   9.497   1.749   8.072 -0.7016  3.2980 -1.2317
  726MOL0     H  188   9.383   1.673   7.949 -0.1406  0.2036 -0.4786
  727MOL0     O  189  11.335   8.240   1.011  0.4082  0.2168  0.5909
  727MOL0     C  190  11.268   8.258   0.910 -0.0264 -0.5657  0.6391
  727MOL0     O  191  11.313   8.306   0.796 -0.0241  0.1897  0.8968
  727MOL0     C  192  11.453   8.320   0.777  0.5383 -0.5338  0.1656
  727MOL0     C  193  11.514   8.260   0.663  0.3702  0.6188 -0.2278
  727MOL0     C  194  11.653   8.273   0.633 -0.5982 -1.0968  0.6234
  727MOL0     C  195  11.730   8.359   0.710 -0.2570 -1.0263  0.0920
  727MOL0     O  196  11.857   8.386   0.684  0.0324 -0.4198  0.3499
  727MOL0     C  197  11.898   8.452   0.558 -0.4775  0.7223  0.5069
  727MOL0     C  198  11.905   8.603   0.593  0.1925  0.7477  0.0189
  727MOL0     C  199  11.934   8.691   0.477  0.4004 -0.2531  0.3067
  727MOL0     C  200  11.844   8.817   0.485 -0.8367  0.2156  0.9424
  727MOL0     C  201  11.896   8.922   0.593 -0.9030 -0.0818  0.0674
  727MOL0     C  202  11.840   9.055   0.579 -0.0408 -1.1252 -0.4983
  727MOL0     C  203  11.915   9.162   0.672 -0.3604  0.3435 -0.2634
  727MOL0     C  204  11.872   9.122   0.819  0.1147 -0.9751  0.5469
  727MOL0     N  205  11.912   9.228   0.903 -0.7053 -1.7483  0.2960
  727MOL0     C  206  11.974   9.212   1.022  0.2253 -0.4295 -0.6689
  727MOL0     C  207  11.985   9.337   1.077 -0.6659 -0.3918  0.5006
  727MOL0     C  208  12.025   9.360   1.218  0.8982  0.2430 -0.2466
  727MOL0     C  209  11.992   9.501   1.261  0.5785  0.4864  0.4543
  727MOL0     C  210  12.014   9.523   1.411 -0.6188 -0.3057 -0.3192
  727MOL0     C  211  12.154   9.476   1.452  0.0230 -1.1165  0.1967
  727MOL0     O  212  12.161   9.494   1.593  0.6789  0.6355 -0.1260
  727MOL0     C  213  12.283   9.467   1.670  0.5551 -0.7077  0.5547
  727MOL0     C  214  12.279   9.518   1.788 -0.3322  0.8925 -0.6621
  727MOL0     C  215  12.388   9.515   1.875 -0.7297  0.3754 -0.9868
  727MOL0     C  216  12.372   9.575   2.006  0.4548  0.4689 -0.4478
  727MOL0     C  217  12.512   9.455   1.827  1.3015 -0.2109  0.2222
  727MOL0     C  218  12.650   9.464   1.901 -0.2699  0.0411  0.2110
  727MOL0     O  219  12.766   9.413   1.842 -0.4230  0.2182 -0.1483
  727MOL0     C  220  12.888   9.476   1.862  0.7895 -0.0033 -0.3590
  727MOL0     C  221  12.949   9.553   1.759  0.2676  0.3869  0.1278
  727MOL0     C  222  13.080   9.608   1.779  0.4509 -0.6429 -1.0754
  727MOL0     C  223  13.152   9.582   1.902 -0.1115 -0.1579  0.6243
  727MOL0     O  224  13.283   9.643   1.909  0.4951  0.8742  0.8091
  727MOL0     C  225  13.373   9.588   2.008 -0.5473 -1.1370  0.2430
  727MOL0     C  226  13.508   9.654   1.999 -0.1543  0.1175 -0.2987
  727MOL0     C  227  13.598   9.588   1.889  0.1314 -0.5015 -0.4089
  727MOL0     C  228  13.737   9.655   1.871  0.0842  0.1931  0.2112
  727MOL0     C  229  13.817   9.649   2.001  0.7391 -0.4861  0.8832
  727MOL0     C  230  13.860   9.517   2.041 -0.2855  0.1067  0.0121
  727MOL0     C  231  13.946   9.527   2.171  0.0776 -0.0916  0.0714
  727MOL0     C  232  14.024   9.397   2.198  0.1382 -0.0443 -0.3420
  727MOL0    Cl  233  13.919   9.248   2.208 -0.1440  0.1863 -0.1630
  727MOL0     C  234  13.085   9.519   2.008 -0.5265 -0.6550 -0.1469
  727MOL0     C  235  12.956   9.470   1.986 -0.6839  0.3710 -0.2935
  727MOL0     O  236  12.642   9.505   2.019 -0.0494  0.0462 -0.3035
  727MOL0     C  237  12.510   9.406   1.694 -0.8777  0.7799 -0.2528
  727MOL0     C  238  12.397   9.407   1.613 -0.4027  0.3210 -0.5723
  727MOL0     N  239  11.936   9.430   0.985 -0.5015 -0.4603  0.6700
  727MOL0     N  240  11.878   9.362   0.894  0.2822 -0.1506  0.6847
  727MOL0     C  241  11.674   8.432   0.822  0.3214  0.0917 -0.0724
  727MOL0     C  242  11.534   8.405   0.860  0.3093 -0.8051 -0.4392
  727MOL0     C  243  11.117   8.242   0.925 -0.6068  1.3100  0.1265
  727MOL0     C  244  11.070   8.180   1.045  0.0734 -0.1819 -0.2757
  727MOL0     C  245  10.938   8.158   1.065 -0.2971  1.1337 -0.4766
  727MOL0     C  246  10.840   8.188   0.967 -0.4381  0.2190  0.6019
  727MOL0     O  247  10.706   8.149   0.978 -0.4614  0.0308 -0.1729
  727MOL0     C  248  10.676   8.045   1.073 -0.1289 -0.0636  0.7933
  727MOL0     C  249  10.526   8.004   1.054 -0.3754  0.1937 -0.0947
  727MOL0     C  250  10.432   8.112   1.103 -0.1698 -0.0565 -0.3245
  727MOL0     C  251  10.285   8.075   1.077 -0.5581 -0.6120  0.3477
  727MOL0     C  252  10.229   7.968   1.159  0.2190 -0.3176 -0.3468
  727MOL0     C  253  10.180   7.896   1.236  0.0774  0.4233 -0.1589
  727MOL0     C  254  10.884   8.247   0.845 -0.2782  0.6065 -0.4463
  727MOL0     C  255  11.022   8.280   0.826  0.7881 -0.0139 -0.5757
  727MOL0     C  256  11.046   8.328   0.683 -0.1903 -0.3337 -1.2776
  727MOL0     H  257  11.453   8.206   0.591 -0.0615  0.1584  0.4734
  727MOL0     H  258  11.699   8.230   0.545  1.3395  0.0968  0.9934
  727MOL0     H  259  11.821   8.431   0.483 -1.7741  0.3509  1.8795
  727MOL0     H  260  12.000   8.419   0.538 -0.9436 -0.4263 -0.0156
  727MOL0     H  261  11.812   8.623   0.647 -1.2758 -4.2188 -0.2252
  727MOL0     H  262  12.000   8.617   0.645  0.3803  0.1259 -0.1497
  727MOL0     H  263  12.039   8.719   0.476  0.8991 -1.9907  1.0836
  727MOL0     H  264  11.911   8.638   0.384  2.6459 -2.2763  0.8286
  727MOL0     H  265  11.850   8.866   0.387 -2.8913  0.5361  0.9277
  727MOL0     H  266  11.741   8.790   0.509 -1.1751 -1.5981 -1.9970
  727MOL0     H  267  12.005   8.922   0.579 -0.9805 -1.4225 -0.6988
  727MOL0     H  268  11.868   8.882   0.691 -0.5399 -0.3090  0.0814
  727MOL0     H  269  11.839   9.091   0.476 -0.9981  2.0481  0.4961
  727MOL0     H  270  11.734   9.051   0.608  0.1418 -1.0436  0.2184
  727MOL0     H  271  11.883   9.264   0.648 -0.6353  0.8686  2.1533
  727MOL0     H  272  12.023   9.172   0.657 -0.0891  0.2256  1.4060
  727MOL0     H  273  11.763   9.119   0.820  0.1062 -0.6677  0.8957
  727MOL0     H  274  11.897   9.022   0.853 -0.6804 -0.6109  2.3391
  727MOL0     H  275  12.006   9.122   1.075  2.2305  1.7862  2.2477
  727MOL0     H  276  12.132   9.341   1.213  0.5987 -1.3675 -1.2813
  727MOL0     H  277  11.969   9.286   1.276 -0.0589 -2.1291 -3.8903
  727MOL0     H  278  12.049   9.585   1.218 -1.0355  1.3050 -0.1863
  727MOL0     H  279  11.887   9.509   1.233  0.6922 -0.2689 -0.2135
  727MOL0     H  280  11.992   9.629   1.426  0.2340 -0.2220  0.4288
  727MOL0     H  281  11.934   9.470   1.463 -1.7874  1.8639  0.1906
  727MOL0     H  282  12.179   9.370   1.435 -0.5450 -0.9865 -1.6606
  727MOL0     H  283  12.229   9.535   1.400 -0.0214 -1.2317  0.0026
  727MOL0     H  284  12.187   9.564   1.823  0.2203  0.2333  1.9358
  727MOL0     H  285  12.270   9.614   2.009  0.0261 -0.5082 -1.5170
  727MOL0     H  286  12.451   9.649   2.020  0.3373  0.7011 -0.9873
  727MOL0     H  287  12.375   9.497   2.083  1.2494  1.0386  0.1079
  727MOL0     H  288  12.903   9.563   1.662  0.4334  0.6200  0.0731
  727MOL0     H  289  13.140   9.657   1.704  0.9760  0.0966 -0.1884
  727MOL0     H  290  13.337   9.602   2.110 -0.7309  0.4362 -0.0176
  727MOL0     H  291  13.390   9.481   1.992 -1.7627 -1.0055 -2.6454
  727MOL0     H  292  13.498   9.759   1.970  1.6850  0.6299  0.7056
  727MOL0     H  293  13.549   9.644   2.101  2.6536 -0.1027 -1.3481
  727MOL0     H  294  13.549   9.598   1.792  2.8317 -1.1009 -1.9350
  727MOL0     H  295  13.605   9.480   1.905  0.8881 -0.4381 -0.2645
  727MOL0     H  296  13.723   9.760   1.843 -1.5534  0.6642  2.4739
  727MOL0     H  297  13.784   9.598   1.790 -1.9962 -0.3683 -0.6855
  727MOL0     H  298  13.906   9.710   1.984  0.9018 -1.0516 -0.4928
  727MOL0     H  299  13.755   9.685   2.084 -1.7821  1.2495 -1.5708
  727MOL0     H  300  13.938   9.499   1.967  0.1252  1.3400  0.1252
  727MOL0     H  301  13.780   9.441   2.042  0.3962 -0.6294 -0.0833
  727MOL0     H  302  13.872   9.533   2.252 -0.3447  0.7063 -0.3570
  727MOL0     H  303  14.017   9.610   2.179 -0.6765  0.5042  0.8332
  727MOL0     H  304  14.086   9.413   2.287  1.6051  1.2866 -1.5400
  727MOL0     H  305  14.102   9.387   2.123  0.9339  1.0523  0.3140
  727MOL0     H  306  13.137   9.515   2.103 -0.0588  0.8054 -0.3109
  727MOL0     H  307  12.907   9.416   2.066  0.6734 -0.3789  0.0594
  727MOL0     H  308  12.608   9.387   1.649  0.7617  1.6060  2.7328
  727MOL0     H  309  12.398   9.365   1.513  6.6849 -1.6358 -0.2026
  727MOL0     H  310  11.730   8.507   0.875 -1.4925  1.6481 -0.2597
  727MOL0     H  311  11.493   8.468   0.938  1.4232 -1.9751  1.1558
  727MOL0     H  312  11.140   8.145   1.120 -1.3299 -1.4960  0.4621
  727MOL0     H  313  10.914   8.106   1.158  1.4173  2.5830  0.8586
  727MOL0     H  314  10.740   7.957   1.060  0.2138 -0.2149  3.1022
  727MOL0     H  315  10.692   8.091   1.171  1.4371  1.1691  0.0091
  727MOL0     H  316  10.513   7.917   1.119  2.8230  0.2445  0.7677
  727MOL0     H  317  10.509   7.972   0.951 -0.4629  0.8623 -0.2923
  727MOL0     H  318  10.448   8.135   1.209 -2.8957 -0.1389  0.1687
  727MOL0     H  319  10.435   8.203   1.043 -2.9413 -1.2933 -2.5481
  727MOL0     H  320  10.278   8.041   0.974 -4.7633 -0.8609  0.5391
  727MOL0     H  321  10.228   8.167   1.096 -0.9015 -1.2362  2.7139
  727MOL0     H  322  10.133   7.837   1.311  0.6974 -0.0668 -0.1537
  727MOL0     H  323  10.815   8.248   0.761 -1.1578 -0.3598  0.2425
  727MOL0     H  324  10.959   8.372   0.634 -0.0625  3.8233  1.6854
  727MOL0     H  325  11.112   8.415   0.679 -2.0575  1.2255 -0.1241
  727MOL0     H  326  11.092   8.251   0.620  1.6539 -0.9775  0.7032
  728MOL0     O  327   8.889   2.067   5.124  0.2580  0.4192  0.2026
  728MOL0     C  328   8.772   2.103   5.099 -0.3971 -0.0426 -0.4906
  728MOL0     O  329   8.672   2.096   5.187  0.0235 -0.8044 -0.2898
  728MOL0     C  330   8.705   2.033   5.311  0.2532 -0.3676 -0.2623
  728MOL0     C  331   8.700   2.106   5.425 -0.0324 -0.3832  0.1561
  728MOL0     C  332   8.736   2.043   5.542 -0.4947  0.1366 -0.1338
  728MOL0     C  333   8.761   1.902   5.553 -0.0404 -0.5763 -0.0699
  728MOL0     O  334   8.795   1.853   5.678  0.0901 -0.2569  0.0849
  728MOL0     C  335   8.832   1.724   5.705 -0.2170  0.5819  0.0038
  728MOL0     C  336   8.866   1.697   5.843 -0.2795 -0.2300  0.0959
  728MOL0     C  337   8.756   1.724   5.947 -0.4678  0.7661  0.1630
  728MOL0     C  338   8.629   1.649   5.911  0.5782  0.7402  0.2841
  728MOL0     C  339   8.533   1.669   6.029  0.5657 -0.1568 -0.3798
  728MOL0     C  340   8.397   1.617   5.995  0.3216  0.5835  0.0516
  728MOL0     C  341   8.287   1.681   6.091  0.0105  0.9898 -0.9468
  728MOL0     C  342   8.284   1.614   6.237 -0.3263 -0.1878  0.2141
  728MOL0     N  343   8.391   1.639   6.324  0.4667 -0.3361 -0.8913
  728MOL0     C  344   8.484   1.539   6.351  0.2827  0.6598 -0.4445
  728MOL0     C  345   8.576   1.611   6.434  0.4333 -0.2038  0.8599
  728MOL0     C  346   8.707   1.572   6.494 -0.7424  1.1568 -0.9599
  728MOL0     C  347   8.690   1.436   6.564  0.2069  0.4425 -0.5359
  728MOL0     C  348   8.805   1.385   6.657 -0.3843 -0.0286 -0.5507
  728MOL0     C  349   8.938   1.402   6.589 -0.3227 -0.3174  0.6225
  728MOL0     O  350   8.928   1.314   6.468  0.3756 -0.8370  0.2545
  728MOL0     C  351   9.030   1.318   6.367  0.5220 -0.4695  0.1564
  728MOL0     C  352   9.048   1.428   6.291 -0.0504  0.1935  0.1098
  728MOL0     C  353   9.122   1.414   6.178  0.1200  0.0229  0.5456
  728MOL0     C  354   9.106   1.529   6.084  0.8640 -0.4675 -0.5998
  728MOL0     C  355   9.198   1.291   6.148  0.2626 -0.1288 -0.2511
  728MOL0     C  356   9.306   1.279   6.049 -0.3813  0.3809  0.6711
  728MOL0     O  357   9.370   1.383   5.995  0.6808  0.1429 -0.1268
  728MOL0     C  358   9.478   1.358   5.916  0.1987 -0.4928 -0.0254
  728MOL0     C  359   9.479   1.303   5.784  0.0670 -0.0377  0.2921
  728MOL0     C  360   9.588   1.264   5.716 -0.7947 -0.0977  0.3130
  728MOL0     C  361   9.715   1.291   5.775 -0.1039  0.8437 -0.2675
  728MOL0     O  362   9.822   1.252   5.695 -0.2529 -0.7596  0.7325
  728MOL0     C  363   9.948   1.283   5.747 -0.2367 -0.2797 -0.0611
  728MOL0     C  364  10.063   1.243   5.658 -2.0143 -0.2470 -0.3673
  728MOL0     C  365  10.091   1.318   5.530  0.2277 -0.0373  0.6256
  728MOL0     C  366  10.226   1.279   5.464 -0.3197  0.9643 -0.4044
  728MOL0     C  367  10.343   1.369   5.507 -0.5877 -0.2209  0.9070
  728MOL0     C  368  10.459   1.337   5.418 -0.2704 -0.2059 -0.6388
  728MOL0     C  369  10.584   1.409   5.460 -0.5559  0.3145  0.4134
  728MOL0     C  370  10.705   1.376   5.375  0.4492  0.2993 -0.8149
  728MOL0    Cl  371  10.740   1.209   5.335 -0.1764 -0.1299 -0.6535
  728MOL0     C  372   9.720   1.354   5.906  0.1235 -0.0846  0.5554
  728MOL0     C  373   9.598   1.379   5.976  0.1724  0.4488 -0.1450
  728MOL0     O  374   9.334   1.163   6.021 -0.1504  0.1838  1.2261
  728MOL0     C  375   9.171   1.174   6.233  0.4231 -0.1377  0.5195
  728MOL0     C  376   9.091   1.199   6.342 -0.5051 -1.2994 -0.3233
  728MOL0     N  377   8.531   1.742   6.456  0.2379 -0.3204  0.2916
  728MOL0     N  378   8.423   1.759   6.386 -0.1346  0.1672 -0.3012
  728MOL0     C  379   8.742   1.826   5.435  0.1243 -0.2036 -0.4760
  728MOL0     C  380   8.707   1.891   5.317  0.1909 -0.1661 -0.0973
  728MOL0     C  381   8.741   2.158   4.968 -0.2000 -0.3190  0.3616
  728MOL0     C  382   8.607   2.151   4.920 -0.0633  0.2073 -0.1537
  728MOL0     C  383   8.566   2.198   4.798 -0.4629 -0.2604 -0.0916
  728MOL0     C  384   8.656   2.267   4.718 -1.0036  0.0964 -0.5486
  728MOL0     O  385   8.629   2.319   4.597  0.0802  0.2425  0.4378
  728MOL0     C  386   8.496   2.360   4.573  0.3198 -0.4686 -0.6145
  728MOL0     C  387   8.422   2.241   4.501  0.0441  0.6221  0.8348
  728MOL0     C  388   8.295   2.293   4.437  0.0026  0.1405 -0.6937
  728MOL0     C  389   8.232   2.183   4.352  0.6792  0.4600 -0.9601
  728MOL0     C  390   8.101   2.212   4.307  0.5127 -0.8701  1.2107
  728MOL0     C  391   7.991   2.256   4.273  0.8869 -0.7810  0.4370
  728MOL0     C  392   8.795   2.272   4.761  0.0792 -0.5098  0.1201
  728MOL0     C  393   8.843   2.208   4.876  0.0892 -0.1649 -0.3347
  728MOL0     C  394   8.991   2.219   4.902 -0.3501  0.1736  0.9449
  728MOL0     H  395   8.676   2.212   5.430 -1.4682 -0.7574  3.0004
  728MOL0     H  396   8.753   2.097   5.634  2.8455  0.2243 -0.6672
  728MOL0     H  397   8.925   1.708   5.649 -1.6513  1.4627 -2.7951
  728MOL0     H  398   8.760   1.646   5.678  0.1517  0.5493 -0.9185
  728MOL0     H  399   8.902   1.593   5.850  4.2898  0.9129 -2.3310
  728MOL0     H  400   8.956   1.757   5.855 -0.6882  0.3751  0.1709
  728MOL0     H  401   8.787   1.692   6.046 -1.5841  1.0580  0.6281
  728MOL0     H  402   8.731   1.830   5.961  0.0285  0.8190  0.6468
  728MOL0     H  403   8.587   1.677   5.814 -1.9870 -1.3905  0.6653
  728MOL0     H  404   8.655   1.542   5.908  1.1286  0.8850 -1.5610
  728MOL0     H  405   8.526   1.778   6.039  3.5831  0.0537  0.2574
  728MOL0     H  406   8.574   1.631   6.123  3.9395 -3.3249 -2.8690
  728MOL0     H  407   8.378   1.646   5.892 -0.8470  0.2652  0.1611
  728MOL0     H  408   8.396   1.507   5.997  1.5872  0.2691 -4.9515
  728MOL0     H  409   8.193   1.681   6.036  0.4411  1.3308 -1.7084
  728MOL0     H  410   8.305   1.789   6.104 -2.0123  1.4295 -1.4372
  728MOL0     H  411   8.201   1.655   6.296  0.3538  1.8930 -0.1936
  728MOL0     H  412   8.271   1.506   6.225 -2.5859 -0.1910  1.8775
  728MOL0     H  413   8.499   1.439   6.310  2.1938  1.2189 -1.1976
  728MOL0     H  414   8.721   1.642   6.577 -0.1696 -1.3650  1.2414
  728MOL0     H  415   8.782   1.563   6.415  2.4309 -0.7342  1.9973
  728MOL0     H  416   8.597   1.430   6.620  2.2642 -3.5830  3.0470
  728MOL0     H  417   8.675   1.359   6.488  1.6129 -0.8087  0.3890
  728MOL0     H  418   8.808   1.437   6.754  1.9729 -1.4220  0.2125
  728MOL0     H  419   8.794   1.278   6.673  0.5898 -0.9788 -4.8752
  728MOL0     H  420   8.952   1.507   6.561 -0.8320 -0.5185 -0.4308
  728MOL0     H  421   9.022   1.378   6.655  0.5382 -1.0658 -0.7164
  728MOL0     H  422   8.997   1.522   6.311 -1.9233 -0.9477  1.0370
  728MOL0     H  423   9.130   1.509   5.979 -2.2448 -2.8062 -0.9813
  728MOL0     H  424   9.172   1.613   6.109  2.8172 -1.1705 -2.9825
  728MOL0     H  425   9.007   1.574   6.096  1.5028  0.6342  0.8481
  728MOL0     H  426   9.382   1.281   5.739  0.5703 -1.3436 -0.2019
  728MOL0     H  427   9.589   1.223   5.616 -0.7326  2.7993 -0.9811
  728MOL0     H  428   9.962   1.391   5.757 -1.6707  0.3568 -3.5513
  728MOL0     H  429   9.968   1.226   5.838 -1.5206  0.6716  0.8570
  728MOL0     H  430  10.142   1.257   5.732 -1.0983 -1.2445 -1.1212
  728MOL0     H  431  10.055   1.136   5.635 -0.7570 -0.4325 -0.0246
  728MOL0     H  432  10.070   1.425   5.542 -0.7160  0.0107 -1.1065
  728MOL0     H  433  10.012   1.282   5.464  0.9842 -1.0219  0.2408
  728MOL0     H  434  10.217   1.287   5.355  0.0500  2.8134 -0.3310
  728MOL0     H  435  10.262   1.180   5.494  0.3055  1.5115  0.6716
  728MOL0     H  436  10.306   1.471   5.495 -1.3792 -0.4623  1.2230
  728MOL0     H  437  10.369   1.354   5.612  3.2105  3.1912  0.6822
  728MOL0     H  438  10.449   1.377   5.316 -0.7542  3.3722  0.6617
  728MOL0     H  439  10.491   1.232   5.418  0.0121 -0.1267  0.2468
  728MOL0     H  440  10.604   1.374   5.562 -1.2197  0.2294  0.5164
  728MOL0     H  441  10.577   1.518   5.463  0.6236  0.5881 -2.9418
  728MOL0     H  442  10.796   1.414   5.423  0.8286  3.1426 -3.4619
  728MOL0     H  443  10.695   1.442   5.288 -0.7285 -0.0264 -0.9446
  728MOL0     H  444   9.821   1.372   5.941  0.4908  2.2897 -1.4857
  728MOL0     H  445   9.611   1.413   6.078  1.8563  1.5229 -0.6827
  728MOL0     H  446   9.202   1.071   6.216 -0.3322 -0.3286  0.2321
  728MOL0     H  447   9.068   1.114   6.406  2.0028 -1.6732  0.1663
  728MOL0     H  448   8.732   1.719   5.449 -0.4687  0.0789  1.6356
  728MOL0     H  449   8.685   1.836   5.227  2.7247  1.4793 -1.8654
  728MOL0     H  450   8.535   2.106   4.987 -2.8076  3.5085 -0.6469
  728MOL0     H  451   8.460   2.185   4.778 -0.6580 -1.3396  1.5089
  728MOL0     H  452   8.437   2.384   4.662 -1.2575  0.3482 -1.8200
  728MOL0     H  453   8.494   2.450   4.512 -0.2718  1.9853  2.7384
  728MOL0     H  454   8.406   2.151   4.559 -1.5114 -0.2247 -0.7967
  728MOL0     H  455   8.489   2.209   4.421  1.3641  1.2559  1.6521
  728MOL0     H  456   8.233   2.322   4.523  1.9525 -0.4808  1.0113
  728MOL0     H  457   8.328   2.382   4.383  2.0083  0.4196  0.8533
  728MOL0     H  458   8.225   2.091   4.412  0.4738  1.3018  0.3517
  728MOL0     H  459   8.290   2.166   4.261  1.5819 -2.3171  0.0240
  728MOL0     H  460   7.896   2.291   4.239 -0.5908 -3.2151  1.8131
  728MOL0     H  461   8.873   2.318   4.701 -0.5455 -0.2025 -0.4668
  728MOL0     H  462   9.054   2.224   4.814  2.6113  0.1215  2.9335
  728MOL0     H  463   9.027   2.298   4.968 -0.6961  1.2233 -0.0883
  728MOL0     H  464   9.016   2.120   4.940 -0.0571  0.3472  1.2036
  729MOL0     O  465   2.235   2.558   3.122  0.4944  0.3189  0.2381
  729MOL0     C  466   2.138   2.566   3.052 -0.7238 -0.6398  0.1697
  729MOL0     O  467   2.141   2.625   2.929 -0.3773  0.2649  0.2806
  729MOL0     C  468   2.262   2.649   2.879  0.7081  0.2086  0.5653
  729MOL0     C  469   2.346   2.550   2.830  0.3743 -0.7452 -0.3892
  729MOL0     C  470   2.474   2.586   2.767  0.4046 -0.3305  0.4832
  729MOL0     C  471   2.517   2.719   2.762 -0.5251 -0.4065 -0.5341
  729MOL0     O  472   2.637   2.726   2.704 -0.1625 -0.2358  0.4524
  729MOL0     C  473   2.690   2.859   2.713 -0.0365 -1.0832 -0.4518
  729MOL0     C  474   2.828   2.845   2.669 -1.0461 -0.4120  1.3441
  729MOL0     C  475   2.884   2.981   2.632  0.9651 -0.6386  0.4074
  729MOL0     C  476   2.862   3.092   2.732 -0.6180 -0.5940 -0.5656
  729MOL0     C  477   2.912   3.229   2.679 -0.5664 -0.0628 -0.3370
  729MOL0     C  478   3.063   3.214   2.644 -1.3370  0.1417  0.3721
  729MOL0     C  479   3.123   3.350   2.594 -1.0943  0.6775 -0.8096
  729MOL0     C  480   3.146   3.445   2.712  0.5198 -0.1377  0.3091
  729MOL0     N  481   3.194   3.578   2.656  0.2247  0.0267 -0.3537
  729MOL0     C  482   3.321   3.623   2.635  0.3372  0.1684  0.7041
  729MOL0     C  483   3.316   3.750   2.601 -0.0198 -0.0111 -0.0608
  729MOL0     C  484   3.429   3.833   2.572 -0.4032 -0.0426 -0.1850
  729MOL0     C  485   3.494   3.795   2.439  0.8346 -0.7501  0.2359
  729MOL0     C  486   3.610   3.889   2.412  0.2296 -0.1199  0.0508
  729MOL0     C  487   3.753   3.847   2.458  0.0303 -0.6396  0.7490
  729MOL0     O  488   3.751   3.800   2.594  0.4123 -0.2274  0.4854
  729MOL0     C  489   3.872   3.754   2.645 -0.6307 -0.0959 -0.9354
  729MOL0     C  490   3.870   3.676   2.760  0.8619 -0.0907 -0.4377
  729MOL0     C  491   3.987   3.639   2.823 -0.1898  0.0783 -0.7317
  729MOL0     C  492   3.960   3.568   2.961  0.4826  1.1104 -0.9016
  729MOL0     C  493   4.109   3.667   2.765  0.4215 -0.4284  0.6494
  729MOL0     C  494   4.236   3.653   2.836  0.2182  0.6129 -0.2149
  729MOL0     O  495   4.334   3.734   2.793 -0.7816 -0.4448  0.1061
  729MOL0     C  496   4.467   3.720   2.839 -1.2146 -0.1699  0.5667
  729MOL0     C  497   4.535   3.599   2.841  0.5561  0.4989 -0.1371
  729MOL0     C  498   4.672   3.595   2.865 -0.2019 -0.3632 -0.4050
  729MOL0     C  499   4.738   3.721   2.883 -0.2115  0.4357 -0.2207
  729MOL0     O  500   4.873   3.722   2.907 -0.0897 -1.0988 -0.1844
  729MOL0     C  501   4.941   3.598   2.928 -1.3634  0.1824  0.4991
  729MOL0     C  502   4.979   3.538   2.786  0.4235 -0.9248 -0.5131
  729MOL0     C  503   5.096   3.604   2.723 -0.5935  0.2188 -1.2971
  729MOL0     C  504   5.156   3.522   2.609  0.4345 -0.1212  0.0229
  729MOL0     C  505   5.291   3.573   2.561  0.4794  0.9584  0.1722
  729MOL0     C  506   5.400   3.515   2.654  0.0726 -0.5979 -0.0038
  729MOL0     C  507   5.431   3.363   2.636 -0.0629 -0.0891  0.2034
  729MOL0     C  508   5.560   3.326   2.714  1.0443 -0.3184 -0.0476
  729MOL0    Cl  509   5.528   3.322   2.899 -0.1758 -0.1729  0.0062
  729MOL0     C  510   4.675   3.839   2.879 -0.6164 -0.6601  0.6560
  729MOL0     C  511   4.540   3.840   2.859  0.6043  0.3904 -0.1701
  729MOL0     O  512   4.253   3.572   2.928  0.4955 -0.0960  0.0975
  729MOL0     C  513   4.119   3.732   2.642  0.8976  0.7706  0.4796
  729MOL0     C  514   4.001   3.772   2.585  0.3598 -0.9994  0.8824
  729MOL0     N  515   3.188   3.786   2.613 -0.1250 -0.7127 -0.3741
  729MOL0     N  516   3.111   3.683   2.646 -0.2375 -0.8484 -0.2444
  729MOL0     C  517   2.436   2.821   2.815 -0.0439 -0.2206  0.4716
  729MOL0     C  518   2.300   2.783   2.861  0.6681  0.2279 -0.4038
  729MOL0     C  519   2.007   2.502   3.082 -0.5209  0.3305  0.2767
  729MOL0     C  520   1.932   2.438   2.984  0.1844 -0.0539 -0.3140
  729MOL0     C  521   1.807   2.393   3.007  0.5464 -0.2296  1.3794
  729MOL0     C  522   1.744   2.407   3.132  0.2982  0.6139  0.4543
  729MOL0     O  523   1.614   2.365   3.144  0.1343 -0.4863  0.3969
  729MOL0     C  524   1.559   2.361   3.272  0.3302  0.3460 -0.6368
  729MOL0     C  525   1.433   2.274   3.272 -0.0699  0.5277 -0.0803
  729MOL0     C  526   1.363   2.262   3.126 -0.6396 -0.5184 -0.6728
  729MOL0     C  527   1.251   2.161   3.121  0.0288 -0.1737 -0.0736
  729MOL0     C  528   1.298   2.032   3.155  0.0330  0.9410 -0.5353
  729MOL0     C  529   1.301   1.914   3.175 -0.0033 -0.1171 -0.4845
  729MOL0     C  530   1.821   2.468   3.236  0.0441 -0.1457 -0.0459
  729MOL0     C  531   1.944   2.527   3.208 -0.7834 -0.3138  1.5401
  729MOL0     C  532   2.004   2.618   3.313  0.6149 -0.5478  0.2895
  729MOL0     H  533   2.321   2.446   2.846  0.1934 -0.2998  2.9641
  729MOL0     H  534   2.547   2.519   2.723 -0.6735  0.7507 -3.3659
  729MOL0     H  535   2.681   2.908   2.811 -2.6222 -0.8249 -0.7545
  729MOL0     H  536   2.631   2.923   2.646  0.9590  1.6108  1.0935
  729MOL0     H  537   2.888   2.801   2.749  0.4130 -1.2319 -0.1441
  729MOL0     H  538   2.834   2.791   2.575  0.1247  0.1752  1.0607
  729MOL0     H  539   2.990   2.961   2.614  0.8593  0.1410 -1.2104
  729MOL0     H  540   2.837   3.016   2.540  0.9056 -0.2134  0.5990
  729MOL0     H  541   2.756   3.119   2.742 -0.0755  1.6599 -0.2007
  729MOL0     H  542   2.900   3.060   2.830 -1.3962  1.5411  0.5014
  729MOL0     H  543   2.900   3.303   2.759 -3.0308  1.2385 -1.7989
  729MOL0     H  544   2.864   3.278   2.594  2.2147  1.7538 -1.0301
  729MOL0     H  545   3.115   3.166   2.728  2.4109  0.9675 -1.2482
  729MOL0     H  546   3.069   3.139   2.564 -1.0641 -0.0403  0.5585
  729MOL0     H  547   3.048   3.389   2.524 -0.6260  0.5887 -1.3648
  729MOL0     H  548   3.218   3.341   2.541 -0.7133 -0.5643  0.0504
  729MOL0     H  549   3.050   3.457   2.762  0.4820 -4.8348  1.8382
  729MOL0     H  550   3.214   3.396   2.782  0.8318  1.0039  0.8349
  729MOL0     H  551   3.410   3.563   2.645  1.6246  1.9865  0.6716
  729MOL0     H  552   3.496   3.832   2.658 -0.7755  2.9208  0.2444
  729MOL0     H  553   3.400   3.938   2.565 -1.4213 -0.1990  1.4497
  729MOL0     H  554   3.527   3.691   2.430 -0.8056 -1.5016  2.2726
  729MOL0     H  555   3.414   3.810   2.365  3.0957 -2.3184 -2.7414
  729MOL0     H  556   3.619   3.910   2.305 -2.5874  3.6653  0.3601
  729MOL0     H  557   3.592   3.986   2.458 -0.7094 -0.6039  0.7544
  729MOL0     H  558   3.789   3.773   2.386 -1.3625  0.4863 -1.1976
  729MOL0     H  559   3.825   3.929   2.446 -0.6331 -0.1879 -0.3445
  729MOL0     H  560   3.775   3.663   2.810 -0.0535  2.4531 -1.3524
  729MOL0     H  561   4.008   3.470   2.969  0.3818  1.0957 -0.4792
  729MOL0     H  562   3.852   3.551   2.966  0.9755 -2.9158 -0.0877
  729MOL0     H  563   3.998   3.641   3.033  0.6583  1.4193 -1.3033
  729MOL0     H  564   4.475   3.511   2.821 -0.4338  0.5677  2.1453
  729MOL0     H  565   4.713   3.495   2.874 -0.6946 -0.7361 -2.0344
  729MOL0     H  566   5.026   3.613   2.995 -1.0956 -2.9727  1.0083
  729MOL0     H  567   4.883   3.518   2.974 -2.2549 -1.3508 -2.9487
  729MOL0     H  568   5.008   3.436   2.814  1.4493 -0.2020  1.2089
  729MOL0     H  569   4.902   3.539   2.709  3.3220  1.2225 -3.7366
  729MOL0     H  570   5.170   3.605   2.804 -2.3388 -1.1231  0.3864
  729MOL0     H  571   5.074   3.705   2.688  2.9733  1.1780 -1.2082
  729MOL0     H  572   5.098   3.548   2.521 -1.6785 -1.0200  1.0753
  729MOL0     H  573   5.153   3.415   2.633 -3.0974 -0.2148 -0.3387
  729MOL0     H  574   5.303   3.532   2.460 -2.2293  0.7553 -0.1497
  729MOL0     H  575   5.287   3.683   2.562 -1.1503  0.9292 -0.1643
  729MOL0     H  576   5.370   3.528   2.758 -0.7465  1.2576 -0.4304
  729MOL0     H  577   5.492   3.569   2.630 -1.3901  1.7198 -0.7003
  729MOL0     H  578   5.449   3.348   2.529 -0.7197 -0.3471  0.1211
  729MOL0     H  579   5.353   3.290   2.661 -0.0965 -1.0504 -2.3671
  729MOL0     H  580   5.629   3.401   2.674 -0.9011 -0.4581 -4.2176
  729MOL0     H  581   5.614   3.237   2.681  1.0051 -1.0553  1.7525
  729MOL0     H  582   4.724   3.935   2.883 -0.2904 -0.7414 -0.7921
  729MOL0     H  583   4.479   3.929   2.854 -1.0690 -0.7866 -3.1469
  729MOL0     H  584   4.213   3.735   2.587  2.2107 -1.1796  2.4350
  729MOL0     H  585   4.009   3.830   2.493  1.7743  0.0025  1.6124
  729MOL0     H  586   2.463   2.924   2.795  2.3865 -1.2191 -2.0405
  729MOL0     H  587   2.225   2.854   2.894 -1.2402 -0.6898 -2.5629
  729MOL0     H  588   1.980   2.422   2.888 -1.8251 -0.3257 -1.3340
  729MOL0     H  589   1.742   2.340   2.938  0.9425 -0.5747  1.2686
  729MOL0     H  590   1.638   2.333   3.342  0.0761  1.1223 -0.0278
  729MOL0     H  591   1.518   2.456   3.305 -0.0842  0.2126 -0.7568
  729MOL0     H  592   1.362   2.323   3.340 -1.1077 -1.6660  0.4987
  729MOL0     H  593   1.458   2.174   3.307 -1.4894  0.6498  1.4378
  729MOL0     H  594   1.328   2.359   3.091  2.2627  0.5668 -0.8172
  729MOL0     H  595   1.433   2.245   3.043  0.1934  0.7524 -0.2450
  729MOL0     H  596   1.201   2.158   3.024 -1.8678  1.7305  0.7630
  729MOL0     H  597   1.183   2.194   3.200  0.4559 -1.1079  0.7067
  729MOL0     H  598   1.290   1.811   3.200 -0.4249 -0.2064 -0.9994
  729MOL0     H  599   1.791   2.480   3.340 -0.2044  0.8756 -0.2292
  729MOL0     H  600   2.108   2.593   3.334  0.9668  0.4656 -0.1875
  729MOL0     H  601   2.009   2.727   3.304  1.2991 -0.4424  1.7337
  729MOL0     H  602   1.961   2.597   3.412  1.2329  0.7350  0.8538
  730MOL0     O  603   7.950   8.083   6.313  0.0884 -0.0240 -0.2260
  730MOL0     C  604   7.868   8.045   6.232  0.5844 -1.0690  0.7552
  730MOL0     O  605   7.856   8.091   6.106  0.1296 -0.7781  0.3242
  730MOL0     C  606   7.957   8.168   6.060 -0.0738  0.3277 -0.4055
  730MOL0     C  607   8.088   8.126   6.060  0.2950  0.3673  0.1522
  730MOL0     C  608   8.184   8.182   5.973  0.4593  0.5680 -0.3951
  730MOL0     C  609   8.151   8.294   5.896  0.6441 -0.4535 -0.3481
  730MOL0     O  610   8.244   8.347   5.807 -0.2014  0.5298  0.1812
  730MOL0     C  611   8.288   8.252   5.712 -0.5986  0.0145  0.0232
  730MOL0     C  612   8.389   8.304   5.605  0.2617 -0.2475  0.3511
  730MOL0     C  613   8.477   8.191   5.549 -0.3777  0.3876 -0.5308
  730MOL0     C  614   8.570   8.242   5.433  1.0592 -0.4090 -0.4047
  730MOL0     C  615   8.660   8.132   5.381 -0.2058 -0.5257  0.1580
  730MOL0     C  616   8.747   8.183   5.263 -0.1070 -0.4730  0.4573
  730MOL0     C  617   8.844   8.071   5.224 -0.3543  0.0564  0.0081
  730MOL0     C  618   8.812   7.986   5.097 -0.0229 -0.3293 -0.4281
  730MOL0     N  619   8.672   7.925   5.093 -0.5217 -0.0617 -0.2200
  730MOL0     C  620   8.657   7.787   5.098  0.6978 -0.6906 -0.8383
  730MOL0     C  621   8.528   7.778   5.122  1.2872 -0.5764  0.7232
  730MOL0     C  622   8.463   7.645   5.130  0.3671 -0.5859 -0.9921
  730MOL0     C  623   8.314   7.661   5.114  0.2898 -0.1375  0.5223
  730MOL0     C  624   8.287   7.658   4.963  0.4095 -1.3794  0.5409
  730MOL0     C  625   8.146   7.704   4.922 -0.0680 -0.2088  0.2957
  730MOL0     O  626   8.041   7.610   4.946  0.1287  0.2977 -0.6486
  730MOL0     C  627   7.915   7.630   4.900 -0.3803 -0.1199 -0.3414
  730MOL0     C  628   7.867   7.742   4.840  0.0979 -0.4377  0.2956
  730MOL0     C  629   7.734   7.759   4.792 -0.6400 -0.8828 -0.9217
  730MOL0     C  630   7.693   7.886   4.729  0.0169 -0.1549  0.6667
  730MOL0     C  631   7.645   7.646   4.806  0.1358  0.5565 -0.0110
  730MOL0     C  632   7.501   7.637   4.762 -0.1171 -0.1150 -0.7177
  730MOL0     O  633   7.426   7.526   4.800  0.0080  0.0414  0.0331
  730MOL0     C  634   7.295   7.512   4.767  0.4062  0.9242  0.0298
  730MOL0     C  635   7.257   7.516   4.631 -1.0023  0.2777  0.8202
  730MOL0     C  636   7.129   7.488   4.595 -0.1226 -0.3079  0.1370
  730MOL0     C  637   7.037   7.452   4.693 -0.2718 -0.7889 -0.4906
  730MOL0     O  638   6.914   7.423   4.643 -0.2348 -0.1577  0.1699
  730MOL0     C  639   6.815   7.343   4.706  0.4433 -0.3913  0.6160
  730MOL0     C  640   6.703   7.302   4.608  0.0964  0.4907  0.5808
  730MOL0     C  641   6.661   7.422   4.532 -0.8451 -0.1566  0.6633
  730MOL0     C  642   6.516   7.410   4.481 -0.8999  0.5349 -0.2042
  730MOL0     C  643   6.455   7.528   4.412 -0.4455 -0.9331  0.0174
  730MOL0     C  644   6.315   7.502   4.349 -0.5857  0.5398 -0.5315
  730MOL0     C  645   6.289   7.620   4.249  1.0818  0.2532 -0.1085
  730MOL0     C  646   6.157   7.607   4.170 -0.4096 -0.0428  0.0455
  730MOL0    Cl  647   6.020   7.577   4.276  0.2811 -0.0571 -0.1246
  730MOL0     C  648   7.071   7.458   4.828  0.6500 -0.2028  0.3477
  730MOL0     C  649   7.202   7.493   4.868 -0.4857 -0.2631 -0.0975
  730MOL0     O  650   7.466   7.718   4.680 -0.2048  0.0496 -0.1367
  730MOL0     C  651   7.696   7.531   4.877 -0.8324 -0.6626  0.2020
  730MOL0     C  652   7.829   7.531   4.917  0.8784  0.7617 -0.0392
  730MOL0     N  653   8.471   7.905   5.120  0.0519  0.6807  0.0033
  730MOL0     N  654   8.555   7.992   5.098  0.4940  0.5134  0.3788
  730MOL0     C  655   8.019   8.341   5.902 -0.5247 -1.2104 -0.7373
  730MOL0     C  656   7.926   8.286   5.986  0.3230 -0.0814 -0.2245
  730MOL0     C  657   7.779   7.941   6.284  0.4196 -0.8099  0.0743
  730MOL0     C  658   7.641   7.979   6.285 -0.2184  0.3143 -0.7828
  730MOL0     C  659   7.542   7.899   6.334  0.0147  0.1721 -0.2141
  730MOL0     C  660   7.578   7.770   6.374  0.4551  0.1767 -0.9279
  730MOL0     O  661   7.478   7.677   6.405  0.1781 -0.2955  0.0601
  730MOL0     C  662   7.478   7.553   6.333  0.7176 -0.5410  0.4365
  730MOL0     C  663   7.407   7.583   6.201 -0.1124  0.4634  0.5256
  730MOL0     C  664   7.374   7.446   6.146  0.1809 -0.6629  0.0847
  730MOL0     C  665   7.275   7.451   6.034  0.9748 -0.2459 -0.0462
  730MOL0     C  666   7.309   7.547   5.918  0.0826 -0.5879  0.2419
  730MOL0     C  667   7.341   7.622   5.833 -0.4395  0.7982 -0.2114
  730MOL0     C  668   7.709   7.730   6.380 -0.6629  0.4604  0.0723
  730MOL0     C  669   7.816   7.814   6.341  0.1945 -0.8115  0.0184
  730MOL0     C  670   7.957   7.768   6.344  0.5356  0.4149  0.2691
  730MOL0     H  671   8.113   8.041   6.122 -1.4419 -0.6205 -0.4595
  730MOL0     H  672   8.290   8.162   5.969  0.5797  0.8725  0.9364
  730MOL0     H  673   8.202   8.210   5.660 -1.5740 -1.1928  2.4630
  730MOL0     H  674   8.342   8.168   5.755  2.7294  0.1688 -3.2827
  730MOL0     H  675   8.338   8.360   5.526  1.2231  0.3019  0.0966
  730MOL0     H  676   8.460   8.376   5.648 -0.7137  1.0672 -0.1926
  730MOL0     H  677   8.539   8.140   5.624 -0.6124  0.2575 -0.4229
  730MOL0     H  678   8.414   8.115   5.502 -0.2884  0.6453 -1.0634
  730MOL0     H  679   8.498   8.286   5.364 -1.7392 -0.2728  2.3299
  730MOL0     H  680   8.630   8.323   5.476 -1.9313  2.2199 -0.7863
  730MOL0     H  681   8.590   8.053   5.354 -1.8633  0.5196  1.1883
  730MOL0     H  682   8.726   8.094   5.460 -2.0970  1.4302  2.8813
  730MOL0     H  683   8.680   8.222   5.186 -0.9403 -0.7542  1.0303
  730MOL0     H  684   8.802   8.271   5.298  1.2526 -0.9302 -0.4280
  730MOL0     H  685   8.862   8.006   5.310 -3.5523  1.6265  2.0608
  730MOL0     H  686   8.941   8.115   5.198 -0.5352 -1.1718 -3.2236
  730MOL0     H  687   8.838   8.036   5.004  4.8371  0.6116  1.1388
  730MOL0     H  688   8.880   7.900   5.096 -0.1279 -0.5813  2.6167
  730MOL0     H  689   8.736   7.713   5.099  1.4810  0.1217 -1.1583
  730MOL0     H  690   8.495   7.602   5.225  1.4500  2.5792  0.2330
  730MOL0     H  691   8.503   7.584   5.049  0.1696 -1.1012 -0.7054
  730MOL0     H  692   8.268   7.573   5.159  0.9827 -0.0755  1.3782
  730MOL0     H  693   8.283   7.754   5.163 -0.1405 -0.3826  0.7197
  730MOL0     H  694   8.354   7.728   4.912  0.6933 -3.5910 -2.4306
  730MOL0     H  695   8.319   7.564   4.917  0.6774 -0.6451 -0.8257
  730MOL0     H  696   8.125   7.789   4.987  0.8836 -0.1294  0.5215
  730MOL0     H  697   8.140   7.747   4.822  2.5563 -0.4957 -0.0584
  730MOL0     H  698   7.932   7.829   4.826  1.7647 -1.6094  0.4404
  730MOL0     H  699   7.685   7.868   4.621 -2.9373 -0.7271  0.8823
  730MOL0     H  700   7.773   7.961   4.726 -1.0898  1.0940 -1.9379
  730MOL0     H  701   7.602   7.932   4.769 -0.6895 -2.2780  1.6422
  730MOL0     H  702   7.334   7.537   4.558  0.6832  1.0063  2.7075
  730MOL0     H  703   7.093   7.499   4.493 -1.0402  0.8492  0.5623
  730MOL0     H  704   6.844   7.252   4.758 -4.5615 -1.0834  2.7632
  730MOL0     H  705   6.768   7.404   4.783 -0.7390  0.9193 -1.0511
  730MOL0     H  706   6.748   7.230   4.539 -0.6743  0.8208 -0.2920
  730MOL0     H  707   6.614   7.260   4.656  0.8656  0.4624  2.0394
  730MOL0     H  708   6.730   7.445   4.450  0.9880  0.5517  2.2960
  730MOL0     H  709   6.670   7.507   4.601  2.0904 -1.3588  1.9219
  730MOL0     H  710   6.458   7.385   4.570 -1.3870 -0.7839 -0.8616
  730MOL0     H  711   6.521   7.322   4.416 -1.0904 -1.3617  2.2312
  730MOL0     H  712   6.445   7.611   4.482 -2.3815 -0.8954 -0.2456
  730MOL0     H  713   6.525   7.569   4.338 -0.2244  0.7439  1.1075
  730MOL0     H  714   6.239   7.494   4.428  1.4606 -2.0948  1.3618
  730MOL0     H  715   6.307   7.415   4.283 -0.4646  1.0637 -1.2483
  730MOL0     H  716   6.374   7.646   4.186 -0.5215  2.0495 -1.6431
  730MOL0     H  717   6.277   7.709   4.311 -1.3503  2.0116 -2.8599
  730MOL0     H  718   6.163   7.535   4.088 -2.9635 -0.4953  0.1720
  730MOL0     H  719   6.149   7.704   4.119  0.8704 -1.0165 -2.1184
  730MOL0     H  720   6.994   7.445   4.902  0.6301  0.0707  0.3757
  730MOL0     H  721   7.242   7.500   4.969 -0.6406 -0.1647 -0.0426
  730MOL0     H  722   7.638   7.442   4.898  3.4489 -2.8338  4.8967
  730MOL0     H  723   7.866   7.445   4.972  1.6421  1.0129 -0.1504
  730MOL0     H  724   7.989   8.428   5.844  1.2295 -0.0239  0.0369
  730MOL0     H  725   7.823   8.320   5.998 -0.1159 -1.1129 -0.8832
  730MOL0     H  726   7.589   8.067   6.250  1.2357  1.1317 -0.9251
  730MOL0     H  727   7.442   7.938   6.347  0.7354  1.7505  0.9340
  730MOL0     H  728   7.576   7.516   6.301  0.3537  0.2554 -1.8219
  730MOL0     H  729   7.433   7.475   6.394  0.6784  0.1426  1.2974
  730MOL0     H  730   7.461   7.647   6.132 -1.2579  0.7914 -0.0986
  730MOL0     H  731   7.306   7.625   6.208  0.0336  0.8229  0.4850
  730MOL0     H  732   7.469   7.405   6.111  0.7452  1.5476 -1.1933
  730MOL0     H  733   7.335   7.387   6.229 -1.0032  3.5358  2.8449
  730MOL0     H  734   7.176   7.477   6.073  0.5327 -2.0744  0.1307
  730MOL0     H  735   7.254   7.350   5.998 -2.4711  0.6793 -0.9908
  730MOL0     H  736   7.382   7.701   5.772  1.8853  2.3117  3.0287
  730MOL0     H  737   7.743   7.638   6.427  1.2320  1.7993  1.4447
  730MOL0     H  738   8.028   7.845   6.311 -0.1594  1.0846  0.3265
  730MOL0     H  739   7.970   7.744   6.450  1.5963  0.4027  0.1470
  730MOL0     H  740   7.972   7.684   6.275 -1.0297 -1.6493  2.2834
  731MOL0     O  741   2.083   3.797   8.161 -0.4053  0.5003  0.2111
  731MOL0     C  742   2.062   3.753   8.052  0.0399 -0.3854 -0.4405
  731MOL0     O  743   2.115   3.802   7.936  0.6472  0.3626 -0.4438
  731MOL0     C  744   2.210   3.891   7.959  0.2665 -0.5239 -0.8347
  731MOL0     C  745   2.192   4.030   7.967  0.0110  0.1493 -0.6423
  731MOL0     C  746   2.300   4.116   7.989  1.3142  0.6049  0.0739
  731MOL0     C  747   2.431   4.063   7.980 -0.0411 -0.1952  0.1865
  731MOL0     O  748   2.545   4.135   7.981  0.5332 -0.2426  0.0694
  731MOL0     C  749   2.536   4.277   7.979 -1.4097 -0.3690 -0.2752
  731MOL0     C  750   2.667   4.352   7.964 -0.1924  0.6424 -0.5133
  731MOL0     C  751   2.776   4.311   8.072 -1.4813 -0.2139 -0.8335
  731MOL0     C  752   2.894   4.416   8.072  0.3694 -0.3159  0.6838
  731MOL0     C  753   2.988   4.391   8.185  0.3244  0.1155 -0.4698
  731MOL0     C  754   3.102   4.482   8.208  0.2800 -0.2187 -0.0702
  731MOL0     C  755   3.063   4.606   8.289  0.0209 -0.0809 -0.1830
  731MOL0     C  756   3.193   4.680   8.311 -0.6769 -0.4418  0.5053
  731MOL0     N  757   3.265   4.724   8.189 -0.6245  0.4178 -0.1095
  731MOL0     C  758   3.371   4.671   8.135 -0.4111  0.2767 -0.8171
  731MOL0     C  759   3.397   4.751   8.021 -0.3807  0.0229  0.2253
  731MOL0     C  760   3.516   4.726   7.937  0.0107  0.0699 -0.5129
  731MOL0     C  761   3.559   4.867   7.884  0.6008  0.2253 -0.4264
  731MOL0     C  762   3.680   4.865   7.783 -0.3460 -0.0466 -0.3762
  731MOL0     C  763   3.662   4.995   7.689 -0.3265 -0.0905 -0.1051
  731MOL0     O  764   3.773   5.003   7.595  0.8707 -0.5201 -0.0564
  731MOL0     C  765   3.885   5.063   7.640  0.1764  0.4449 -0.6422
  731MOL0     C  766   3.983   5.045   7.548 -0.5428 -0.2086  1.0023
  731MOL0     C  767   4.112   5.105   7.562  0.1953 -0.6369 -0.2615
  731MOL0     C  768   4.206   5.097   7.441  0.6609 -0.3020 -0.1859
  731MOL0     C  769   4.153   5.176   7.679 -0.5719  0.5967 -0.5647
  731MOL0     C  770   4.283   5.237   7.712  0.8807 -0.4687 -0.0463
  731MOL0     O  771   4.364   5.272   7.617  0.4955  0.1209  0.0148
  731MOL0     C  772   4.494   5.303   7.638 -0.6934  0.6523 -0.1940
  731MOL0     C  773   4.587   5.231   7.560 -0.1936 -0.6924 -0.3474
  731MOL0     C  774   4.727   5.243   7.572 -0.1872  0.1829 -0.3631
  731MOL0     C  775   4.774   5.331   7.668 -0.5693 -0.1231 -0.3442
  731MOL0     O  776   4.905   5.357   7.684 -0.5687 -1.1137  0.6175
  731MOL0     C  777   4.997   5.250   7.649 -0.5465 -0.2746  0.3089
  731MOL0     C  778   5.139   5.293   7.683 -0.6393  0.2601  0.3884
  731MOL0     C  779   5.226   5.184   7.616  0.3083 -0.6000 -0.1115
  731MOL0     C  780   5.380   5.217   7.641  0.5098  0.2174  0.9420
  731MOL0     C  781   5.471   5.123   7.553  0.1830 -0.0494  0.1206
  731MOL0     C  782   5.620   5.125   7.590  1.1479  0.1486 -0.1608
  731MOL0     C  783   5.684   5.272   7.621  0.7471  0.4799 -0.0778
  731MOL0     C  784   5.815   5.264   7.697  0.3131  0.4577 -0.4385
  731MOL0    Cl  785   5.929   5.154   7.606  0.2127 -0.1602 -0.3424
  731MOL0     C  786   4.682   5.401   7.749 -0.3119 -0.7479  0.8754
  731MOL0     C  787   4.546   5.380   7.744 -0.1179 -0.5569 -0.1942
  731MOL0     O  788   4.305   5.238   7.833  0.2241  0.7018  0.2099
  731MOL0     C  789   4.051   5.188   7.775  1.1964  0.8745  0.4318
  731MOL0     C  790   3.917   5.140   7.753 -0.4924 -0.2397 -0.4837
  731MOL0     N  791   3.295   4.840   8.012 -0.9886  0.5254  0.0502
  731MOL0     N  792   3.213   4.811   8.102  1.2226 -0.6656  0.3004
  731MOL0     C  793   2.450   3.927   7.989  0.4799  0.1805 -1.1409
  731MOL0     C  794   2.340   3.843   7.976 -0.5691 -0.0803  0.6810
  731MOL0     C  795   1.957   3.656   8.051 -0.5701  0.1417  0.3377
  731MOL0     C  796   1.869   3.612   8.243  0.1687 -0.3882 -0.3232
  731MOL0     C  797   1.689   3.489   8.252 -0.5896 -0.7768  0.4868
  731MOL0     C  798   1.606   3.418   8.068 -0.0034  0.4327 -0.0773
  731MOL0     O  799   1.496   3.337   8.076  0.0928 -0.4619 -0.1984
  731MOL0     C  800   1.450   3.310   8.208  0.3430  0.3277 -0.2451
  731MOL0     C  801   1.369   3.420   8.276  0.4354 -0.5841 -0.3453
  731MOL0     C  802   1.348   3.371   8.421  0.0455  0.3127 -0.6574
  731MOL0     C  803   1.251   3.258   8.433 -0.3355  0.2336  0.1215
  731MOL0     C  804   1.310   3.124   8.402  0.0270  0.3397 -0.4512
  731MOL0     C  805   1.360   3.018   8.381 -1.0486  0.0888 -0.0521
  731MOL0     C  806   1.695   3.468   7.883  0.9969 -0.1518  1.0934
  731MOL0     C  807   1.865   3.582   7.877 -0.7278 -1.2950 -0.3124
  731MOL0     C  808   1.930   3.628   7.744 -1.1229  0.1534  0.1231
  731MOL0     H  809   2.089   4.058   7.948 -0.0974 -1.3808 -2.5295
  731MOL0     H  810   2.277   4.222   7.997  0.2534  0.2792  1.7781
  731MOL0     H  811   2.495   4.322   8.071 -1.9447  0.4277 -0.8888
  731MOL0     H  812   2.484   4.316   7.892  0.5886  1.6898 -0.6340
  731MOL0     H  813   2.701   4.323   7.864 -0.8889  0.4157 -0.6916
  731MOL0     H  814   2.647   4.460   7.962 -3.8195  0.1143 -1.8625
  731MOL0     H  815   2.725   4.300   8.168  0.1452  4.0771  0.7430
  731MOL0     H  816   2.815   4.210   8.052  4.7274  1.5397  0.5052
  731MOL0     H  817   2.945   4.411   7.975 -1.2261 -1.9661 -0.1314
  731MOL0     H  818   2.861   4.520   8.077  3.2995  0.6682  1.3718
  731MOL0     H  819   3.013   4.287   8.163 -1.4973 -0.0582 -2.0348
  731MOL0     H  820   2.927   4.394   8.275 -0.3237  2.9200 -0.9013
  731MOL0     H  821   3.183   4.419   8.246  0.1176 -0.3921 -0.0086
  731MOL0     H  822   3.141   4.505   8.108 -0.0977 -1.2367 -0.4573
  731MOL0     H  823   3.014   4.593   8.386 -1.1570 -1.4709 -0.9247
  731MOL0     H  824   3.010   4.677   8.224  2.1217  3.2002  1.4064
  731MOL0     H  825   3.155   4.767   8.365  0.7662 -0.0410  0.9291
  731MOL0     H  826   3.262   4.618   8.369  1.4578  2.8886  1.8786
  731MOL0     H  827   3.433   4.584   8.152 -2.9014 -1.8027 -1.6782
  731MOL0     H  828   3.495   4.651   7.860  1.7690  1.6421 -2.6494
  731MOL0     H  829   3.599   4.686   7.995 -0.5750  1.0035  1.0299
  731MOL0     H  830   3.477   4.931   7.849 -0.9735 -2.0984 -1.2224
  731MOL0     H  831   3.595   4.928   7.967  2.2052 -0.6655 -0.4067
  731MOL0     H  832   3.779   4.859   7.828 -1.0027 -2.0150  0.9633
  731MOL0     H  833   3.671   4.775   7.722 -1.0551 -1.0090  1.0910
  731MOL0     H  834   3.564   4.983   7.641  0.8122 -2.9228 -1.9218
  731MOL0     H  835   3.655   5.077   7.762 -2.3925 -3.1887  3.5886
  731MOL0     H  836   3.942   4.997   7.460 -4.8810  2.0668  1.4922
  731MOL0     H  837   4.305   5.063   7.474  0.9531  0.4646 -0.2463
  731MOL0     H  838   4.220   5.199   7.404 -1.4790 -0.1592 -0.6988
  731MOL0     H  839   4.170   5.030   7.363 -0.7294  0.0414  0.1313
  731MOL0     H  840   4.550   5.153   7.494 -0.1617 -2.3368  1.4604
  731MOL0     H  841   4.784   5.193   7.495  2.2339  1.9630  0.1604
  731MOL0     H  842   4.989   5.162   7.714  1.8036  0.5391  1.8157
  731MOL0     H  843   4.999   5.213   7.546  4.4146 -0.4264  0.2141
  731MOL0     H  844   5.178   5.386   7.641  4.5384 -1.9921 -0.5903
  731MOL0     H  845   5.164   5.294   7.789  3.3853 -0.0356 -0.3833
  731MOL0     H  846   5.205   5.187   7.509  0.1751 -0.3696 -0.0790
  731MOL0     H  847   5.202   5.091   7.667 -0.2975  1.0566  2.8625
  731MOL0     H  848   5.417   5.202   7.743  2.7714 -1.6451 -0.0447
  731MOL0     H  849   5.392   5.318   7.600  1.3327 -0.6632 -1.1667
  731MOL0     H  850   5.432   5.021   7.564  0.6809 -0.2724 -0.1413
  731MOL0     H  851   5.452   5.154   7.449 -0.2912 -1.1996 -0.1514
  731MOL0     H  852   5.678   5.087   7.506  3.0448  1.3601  0.5339
  731MOL0     H  853   5.630   5.049   7.668  2.2894  0.4388 -0.0099
  731MOL0     H  854   5.621   5.332   7.687  2.6703  0.0295  2.2860
  731MOL0     H  855   5.693   5.329   7.528 -3.5749 -0.2406 -1.1496
  731MOL0     H  856   5.786   5.220   7.793 -3.7568  1.0289 -1.2450
  731MOL0     H  857   5.860   5.363   7.705 -0.0998  0.7042 -1.1243
  731MOL0     H  858   4.722   5.483   7.809  1.6137  0.4199 -1.8087
  731MOL0     H  859   4.477   5.427   7.814  0.3623  2.7814 -1.7757
  731MOL0     H  860   4.080   5.240   7.866  2.3272  0.8446  0.1078
  731MOL0     H  861   3.836   5.158   7.823 -1.9333 -2.7634 -1.3758
  731MOL0     H  862   2.545   3.874   7.987 -0.6859 -2.2660  1.4627
  731MOL0     H  863   2.351   3.735   7.971  0.6681 -0.0705  2.3315
  731MOL0     H  864   1.920   3.654   8.329  2.3677  2.0535 -2.6253
  731MOL0     H  865   1.641   3.473   8.348 -2.2690  2.1467  0.2648
  731MOL0     H  866   1.400   3.214   8.193 -2.3969  1.6650 -0.2628
  731MOL0     H  867   1.542   3.290   8.264 -1.1966 -0.4362  2.1459
  731MOL0     H  868   1.271   3.438   8.230 -0.2210 -1.8612  0.4814
  731MOL0     H  869   1.424   3.513   8.267 -2.8855  1.5279 -0.5541
  731MOL0     H  870   1.448   3.354   8.461  0.6433  4.9353  0.4276
  731MOL0     H  871   1.305   3.456   8.476  0.7735  1.1597 -1.3889
  731MOL0     H  872   1.166   3.282   8.369  0.2541 -2.9628 -2.0785
  731MOL0     H  873   1.216   3.254   8.537 -0.0424 -0.7535  0.1941
  731MOL0     H  874   1.408   2.925   8.356 -0.3524  0.0108  1.4540
  731MOL0     H  875   1.654   3.442   7.785  0.3054  1.9239  0.7700
  731MOL0     H  876   1.930   3.737   7.748 -0.8994  0.1410  0.4756
  731MOL0     H  877   2.034   3.599   7.730 -1.3268  0.4481 -2.3995
  731MOL0     H  878   1.870   3.592   7.660 -3.0205 -1.3895  2.0008
  732MOL0     O  879   0.720  10.615   5.253 -0.1984  0.5118  0.1954
  732MOL0     C  880   0.743  10.684   5.162 -1.3075 -0.3720  0.6687
  732MOL0     O  881   0.866  10.712   5.104  0.3308  0.2636  0.3443
  732MOL0     C  882   0.987  10.655   5.138  1.1182  0.3058 -0.0476
  732MOL0     C  883   1.102  10.726   5.118 -0.5325 -0.7754 -0.2597
  732MOL0     C  884   1.218  10.672   5.164 -0.3089  0.3055 -0.6301
  732MOL0     C  885   1.234  10.547   5.233 -0.3550 -0.6356  0.6647
  732MOL0     O  886   1.358  10.481   5.256 -0.4925 -0.6348  0.8674
  732MOL0     C  887   1.362  10.351   5.305 -0.2980 -0.4350  0.7951
  732MOL0     C  888   1.505  10.319   5.358 -1.0861  0.7170  0.0950
  732MOL0     C  889   1.551  10.429   5.453  1.0580  0.2351  0.2678
  732MOL0     C  890   1.616  10.359   5.576 -0.3102 -0.3875 -0.2553
  732MOL0     C  891   1.654  10.468   5.681 -0.3636 -0.6664  0.4623
  732MOL0     C  892   1.729  10.402   5.794 -0.1307  0.2654  0.1014
  732MOL0     C  893   1.722  10.493   5.920 -0.0868  0.0724  0.9574
  732MOL0     C  894   1.792  10.422   6.044 -0.1841  0.2925 -0.2924
  732MOL0     N  895   1.819  10.520   6.148 -0.2072 -0.0007 -0.1586
  732MOL0     C  896   1.926  10.532   6.237 -0.4991  0.3064  0.0526
  732MOL0     C  897   1.902  10.639   6.312 -0.4721  0.6261 -0.8024
  732MOL0     C  898   1.999  10.692   6.427 -0.4065 -0.7020  0.5139
  732MOL0     C  899   2.142  10.692   6.382  0.7692  0.2032  0.5380
  732MOL0     C  900   2.229  10.758   6.493 -0.0487 -0.0046  0.6627
  732MOL0     C  901   2.223  10.907   6.485 -0.3027  0.5275 -0.4942
  732MOL0     O  902   2.276  10.957   6.366 -0.1098 -0.0482  0.0018
  732MOL0     C  903   2.410  10.933   6.338  0.5281 -0.1700 -0.8624
  732MOL0     C  904   2.503  10.888   6.433 -0.0102 -0.2485  0.3648
  732MOL0     C  905   2.638  10.865   6.403  0.3915 -0.2273 -0.2511
  732MOL0     C  906   2.738  10.823   6.509 -0.0164  0.1424  0.7232
  732MOL0     C  907   2.678  10.899   6.271  0.3479 -0.8041  0.5929
  732MOL0     C  908   2.819  10.907   6.224  0.1628 -1.1200 -0.8930
  732MOL0     O  909   2.844  10.884   6.098 -0.6557  1.0154 -0.6884
  732MOL0     C  910   2.972  10.908   6.057  0.1290  0.1069  1.5661
  732MOL0     C  911   2.975  10.988   5.942 -0.6221  0.3114  0.8073
  732MOL0     C  912   3.100  11.017   5.883 -0.0694  0.0476 -0.4721
  732MOL0     C  913   3.216  10.956   5.930 -0.2902 -0.7413  0.2257
  732MOL0     O  914   3.341  10.987   5.874  0.8146  0.2396  0.6909
  732MOL0     C  915   3.471  10.950   5.923 -0.5247  0.0979 -0.1558
  732MOL0     C  916   3.574  10.950   5.807  1.2037 -0.2449 -0.2568
  732MOL0     C  917   3.715  10.949   5.871  0.0400  0.2954 -0.5777
  732MOL0     C  918   3.784  10.814   5.850 -0.1471 -0.2489 -0.1393
  732MOL0     C  919   3.925  10.820   5.904 -0.2091  0.5555 -0.1749
  732MOL0     C  920   4.018  10.703   5.856 -0.6523 -0.2134 -0.5900
  732MOL0     C  921   4.165  10.734   5.899 -0.3493 -0.6070 -0.1058
  732MOL0     C  922   4.267  10.641   5.832  0.4422  0.2453 -0.4762
  732MOL0    Cl  923   4.230  10.466   5.867  0.0762 -0.5986  0.2967
  732MOL0     C  924   3.207  10.866   6.037 -0.4630  0.3139 -0.3217
  732MOL0     C  925   3.082  10.842   6.101  0.0528  0.4567  0.6593
  732MOL0     O  926   2.904  10.936   6.308 -0.0722 -0.4115  0.3232
  732MOL0     C  927   2.580  10.937   6.173  0.1169  0.0265  0.5531
  732MOL0     C  928   2.449  10.957   6.216 -0.9725  0.0906  0.6226
  732MOL0     N  929   1.781  10.698   6.281 -0.5761  0.0515  0.0223
  732MOL0     N  930   1.739  10.628   6.176 -1.0595  0.0678 -0.5577
  732MOL0     C  931   1.116  10.485   5.255  0.1062 -0.5038 -0.0730
  732MOL0     C  932   0.990  10.535   5.207 -0.3023  0.0537 -0.3586
  732MOL0     C  933   0.624  10.744   5.091  0.2226  0.2122 -0.4197
  732MOL0     C  934   0.633  10.791   4.960  0.3063 -0.8964  0.2660
  732MOL0     C  935   0.526  10.861   4.895 -0.0608  1.0484 -0.4136
  732MOL0     C  936   0.402  10.869   4.950  0.1285  0.0982 -0.4797
  732MOL0     O  937   0.299  10.924   4.876  0.3630  0.1588 -0.6775
  732MOL0     C  938   0.166  10.886   4.919  0.4175  1.2573 -0.1004
  732MOL0     C  939   0.081  10.963   4.815 -0.0505  0.7397 -0.1379
  732MOL0     C  940  -0.057  10.894   4.799  0.4797 -0.1416 -0.3907
  732MOL0     C  941  -0.128  10.944   4.675  0.9651  0.2422  0.4040
  732MOL0     C  942  -0.162  11.087   4.687 -0.1419 -0.1824 -0.4970
  732MOL0     C  943  -0.169  11.212   4.682  0.6061 -0.3713  0.2051
  732MOL0     C  944   0.391  10.812   5.084  0.5942 -0.7603  0.4425
  732MOL0     C  945   0.496  10.751   5.149 -0.0327 -0.5524  0.3778
  732MOL0     C  946   0.467  10.715   5.288 -0.1270 -0.5495  0.3563
  732MOL0     H  947   1.097  10.823   5.068  3.7521 -0.2514  0.0077
  732MOL0     H  948   1.313  10.725   5.158 -0.3904  0.7353  1.1810
  732MOL0     H  949   1.331  10.279   5.230 -1.1428  0.9993 -0.2856
  732MOL0     H  950   1.295  10.355   5.391  0.6659  2.5885  1.5572
  732MOL0     H  951   1.495  10.227   5.417 -3.1896  1.2402  0.6604
  732MOL0     H  952   1.576  10.299   5.277  1.4168  1.2267  2.0339
  732MOL0     H  953   1.624  10.497   5.409  0.9451  0.3902  0.3206
  732MOL0     H  954   1.464  10.485   5.487  3.5869  1.9285  4.7968
  732MOL0     H  955   1.550  10.284   5.620  0.8283 -0.9294  0.5858
  732MOL0     H  956   1.704  10.307   5.537  1.4597  0.4411  2.3664
  732MOL0     H  957   1.565  10.521   5.717  0.7439  1.1597  0.6506
  732MOL0     H  958   1.716  10.546   5.636 -0.1806 -1.3085 -0.4217
  732MOL0     H  959   1.685  10.304   5.816  0.3398  0.1247  0.4367
  732MOL0     H  960   1.834  10.380   5.771 -0.2428 -0.8105  0.5560
  732MOL0     H  961   1.618  10.515   5.943 -0.3893 -0.7480  0.3959
  732MOL0     H  962   1.775  10.586   5.898 -0.9724  0.1146 -1.2238
  732MOL0     H  963   1.727  10.342   6.081 -0.5535  1.3879  1.5579
  732MOL0     H  964   1.893  10.391   6.015  0.0874  1.8480 -1.0858
  732MOL0     H  965   2.020  10.479   6.233  0.4503  1.8932  0.3413
  732MOL0     H  966   1.978  10.637   6.519  0.1492  1.5995  2.0860
  732MOL0     H  967   1.961  10.791   6.454 -2.9459 -1.1117 -1.1668
  732MOL0     H  968   2.182  10.593   6.361 -0.1829  0.7064 -5.5049
  732MOL0     H  969   2.169  10.741   6.288  1.1118 -0.4114  0.3067
  732MOL0     H  970   2.195  10.710   6.585 -0.7839  3.6663  2.4959
  732MOL0     H  971   2.331  10.729   6.466  1.1077  1.6212  2.9781
  732MOL0     H  972   2.123  10.946   6.508 -1.9466 -2.1943 -2.4119
  732MOL0     H  973   2.279  10.942   6.572 -1.5092  1.3906 -0.0252
  732MOL0     H  974   2.465  10.861   6.531 -1.2969  0.6716  0.1404
  732MOL0     H  975   2.786  10.914   6.546 -3.2304  1.7810  1.2466
  732MOL0     H  976   2.806  10.747   6.471  0.0417 -0.8800  2.7268
  732MOL0     H  977   2.673  10.783   6.588 -1.8613  2.1024  0.2732
  732MOL0     H  978   2.881  11.029   5.904 -0.7931 -2.2552 -1.9431
  732MOL0     H  979   3.100  11.073   5.791 -1.2858  2.3316  0.8142
  732MOL0     H  980   3.485  11.039   5.985 -2.5965  0.7635 -0.5788
  732MOL0     H  981   3.490  10.860   5.984 -1.0946  0.6285  0.8253
  732MOL0     H  982   3.560  10.861   5.745  2.0133  0.1623 -1.0459
  732MOL0     H  983   3.537  11.033   5.746 -3.8170 -2.3091 -0.4388
  732MOL0     H  984   3.703  10.974   5.977 -0.0698 -3.0098  0.3004
  732MOL0     H  985   3.779  11.027   5.828  0.1406  0.1353 -0.7162
  732MOL0     H  986   3.782  10.794   5.743  0.6207  0.4243 -0.2909
  732MOL0     H  987   3.726  10.740   5.907 -1.0897 -0.1923 -1.0090
  732MOL0     H  988   3.968  10.915   5.871 -1.6728  1.3290  0.0394
  732MOL0     H  989   3.935  10.812   6.013  3.2370  1.1953 -0.3224
  732MOL0     H  990   4.008  10.699   5.747  2.8477 -3.3116 -1.0249
  732MOL0     H  991   3.978  10.616   5.908  0.9391 -1.6742 -1.7045
  732MOL0     H  992   4.173  10.730   6.008 -0.4537  3.3745  0.2082
  732MOL0     H  993   4.191  10.836   5.870  0.5513  0.1530  3.0365
  732MOL0     H  994   4.372  10.669   5.844  0.9428  0.1641 -3.6205
  732MOL0     H  995   4.251  10.660   5.725 -0.3936  1.2436 -0.1995
  732MOL0     H  996   3.296  10.815   6.074  0.2318  1.0962 -0.8808
  732MOL0     H  997   3.077  10.770   6.182 -1.3850  0.7272  0.8287
  732MOL0     H  998   2.597  10.950   6.067 -2.9913 -2.1255 -0.3435
  732MOL0     H  999   2.379  10.985   6.138 -1.1022 -0.2006  0.6351
  732MOL0     H 1000   1.108  10.395   5.315 -1.1266 -0.9605 -0.8789
  732MOL0     H 1001   0.905  10.469   5.221 -1.5434  0.9048 -3.1994
  732MOL0     H 1002   0.728  10.777   4.910 -0.1354  0.6540 -1.1028
  732MOL0     H 1003   0.541  10.897   4.794 -0.0520 -0.0212 -0.8061
  732MOL0     H 1004   0.153  10.779   4.905  2.2610  0.8128  1.2596
  732MOL0     H 1005   0.139  10.920   5.019  1.0313  1.2695  0.0655
  732MOL0     H 1006   0.134  10.951   4.721  1.6149  1.8181  0.6221
  732MOL0     H 1007   0.072  11.070   4.836 -1.1584  0.3387  1.6888
  732MOL0     H 1008  -0.041  10.786   4.801  0.0686 -0.2126  2.6743
  732MOL0     H 1009  -0.119  10.904   4.888  0.3022  1.0911 -0.6362
  732MOL0     H 1010  -0.229  10.904   4.663  0.7577  1.3219 -1.9055
  732MOL0     H 1011  -0.088  10.912   4.579  0.4894 -1.9882  0.8721
  732MOL0     H 1012  -0.191  11.316   4.678 -3.6708 -1.1306 -0.6447
  732MOL0     H 1013   0.296  10.805   5.137 -0.0306 -2.4285 -0.8092
  732MOL0     H 1014   0.371  10.748   5.329 -0.9658 -0.5809 -1.5210
  732MOL0     H 1015   0.470  10.607   5.307 -4.7039 -0.9620 -0.1387
  732MOL0     H 1016   0.543  10.754   5.356  1.1882 -1.9348 -0.2531
  733MOL0     O 1017   4.024   5.480   7.087  0.2615 -1.0062 -0.1139
  733MOL0     C 1018   3.987   5.376   7.146 -1.4386 -0.9540 -0.0324
  733MOL0     O 1019   4.060   5.260   7.141 -0.1510  0.0578  0.3750
  733MOL0     C 1020   4.169   5.264   7.056  0.4756 -0.1682 -0.1583
  733MOL0     C 1021   4.150   5.231   6.922  0.5818  0.1732 -0.3255
  733MOL0     C 1022   4.260   5.224   6.841 -0.8480 -0.6452  0.1191
  733MOL0     C 1023   4.384   5.263   6.891  0.2058  0.3989  0.4702
  733MOL0     O 1024   4.491   5.266   6.798  0.0096 -0.0215 -0.3101
  733MOL0     C 1025   4.628   5.285   6.837 -0.0147 -0.3440 -1.1888
  733MOL0     C 1026   4.720   5.244   6.724  0.3329 -0.6600  0.2678
  733MOL0     C 1027   4.696   5.334   6.602  0.0539  0.7928 -0.1914
  733MOL0     C 1028   4.802   5.307   6.502 -0.8457 -0.5229  0.3116
  733MOL0     C 1029   4.945   5.361   6.530  0.1799  0.1732 -0.3611
  733MOL0     C 1030   5.026   5.363   6.399  0.4949  0.5675  0.0794
  733MOL0     C 1031   5.169   5.404   6.418  0.5165 -0.3425  0.0488
  733MOL0     C 1032   5.251   5.395   6.287  0.8410  1.1686  0.6146
  733MOL0     N 1033   5.377   5.458   6.295 -0.2883 -0.5067 -0.9264
  733MOL0     C 1034   5.490   5.422   6.368 -0.6963  0.4928  0.4033
  733MOL0     C 1035   5.591   5.511   6.335  0.9331  0.5057  0.2521
  733MOL0     C 1036   5.730   5.527   6.377 -0.4961  1.0681 -0.4937
  733MOL0     C 1037   5.827   5.404   6.364 -0.2993  0.1079  0.3900
  733MOL0     C 1038   5.849   5.370   6.214  1.1859 -0.4915 -0.1199
  733MOL0     C 1039   5.901   5.225   6.202  1.3470 -0.1261 -0.5036
  733MOL0     O 1040   5.911   5.190   6.059  0.6424 -0.4837  0.3033
  733MOL0     C 1041   6.030   5.202   5.993  0.6201  0.2932  0.0762
  733MOL0     C 1042   6.026   5.275   5.875  0.4209 -0.5914  0.3447
  733MOL0     C 1043   6.132   5.320   5.797 -0.6459 -0.1000  0.3110
  733MOL0     C 1044   6.104   5.370   5.652  0.2437  0.2783 -0.3738
  733MOL0     C 1045   6.263   5.283   5.851  0.5661 -1.0549  0.2431
  733MOL0     C 1046   6.397   5.330   5.799  0.1371  0.5647  1.1858
  733MOL0     O 1047   6.510   5.254   5.831  0.5634 -0.0102 -0.3647
  733MOL0     C 1048   6.640   5.303   5.798 -0.3706 -0.4663 -0.2793
  733MOL0     C 1049   6.679   5.299   5.664  1.0260  0.4118  0.7762
  733MOL0     C 1050   6.799   5.360   5.627 -0.8020  0.2671  0.2206
  733MOL0     C 1051   6.883   5.428   5.720 -0.2828  0.5674  0.1532
  733MOL0     O 1052   6.998   5.488   5.670 -1.0273  0.4371 -0.1619
  733MOL0     C 1053   7.098   5.529   5.765  0.7219 -0.0331  0.2638
  733MOL0     C 1054   7.189   5.615   5.676  0.1798 -0.7346 -0.3503
  733MOL0     C 1055   7.303   5.684   5.751 -0.0665  0.0425  0.1158
  733MOL0     C 1056   7.395   5.761   5.664 -1.0010 -0.4834 -1.1723
  733MOL0     C 1057   7.510   5.830   5.746 -0.3515  0.1087 -0.3406
  733MOL0     C 1058   7.594   5.927   5.655  0.9730 -0.5229  0.2113
  733MOL0     C 1059   7.667   5.886   5.527 -0.2035  0.3770 -0.0987
  733MOL0     C 1060   7.764   5.767   5.554  0.1616 -0.2998 -0.6439
  733MOL0    Cl 1061   7.877   5.756   5.407  0.0234 -0.1326  0.2359
  733MOL0     C 1062   6.837   5.420   5.848  0.2602 -0.3258 -0.0607
  733MOL0     C 1063   6.725   5.361   5.888  0.4258 -0.0246 -0.1078
  733MOL0     O 1064   6.404   5.425   5.719 -0.2972  0.0703 -0.0601
  733MOL0     C 1065   6.266   5.212   5.972  0.1931 -0.1032  0.1603
  733MOL0     C 1066   6.151   5.173   6.040 -0.1862 -0.1355 -0.0665
  733MOL0     N 1067   5.534   5.604   6.260  0.4850 -0.7307  0.4253
  733MOL0     N 1068   5.409   5.582   6.240  0.2392  0.1185  0.1245
  733MOL0     C 1069   4.406   5.294   7.028  0.4537 -0.0796 -0.6949
  733MOL0     C 1070   4.292   5.298   7.109  0.1991  0.2875 -0.1877
  733MOL0     C 1071   3.858   5.366   7.228  0.5185 -0.5123  0.1919
  733MOL0     C 1072   3.816   5.247   7.279 -1.0171 -0.6860  0.9584
  733MOL0     C 1073   3.694   5.230   7.333  0.5396 -0.1363 -0.6157
  733MOL0     C 1074   3.588   5.327   7.330  0.1346  0.7132 -0.7372
  733MOL0     O 1075   3.461   5.320   7.384 -0.4200 -0.7681  0.3759
  733MOL0     C 1076   3.411   5.199   7.436  0.8872  0.0683 -0.3213
  733MOL0     C 1077   3.388   5.097   7.326 -0.2368  0.0265 -0.2701
  733MOL0     C 1078   3.284   5.133   7.217  0.3121 -0.4033 -0.3645
  733MOL0     C 1079   3.140   5.098   7.260 -0.2127  0.7878  0.8955
  733MOL0     C 1080   3.056   5.146   7.151 -0.3685 -0.4079 -0.0254
  733MOL0     C 1081   2.994   5.200   7.056 -0.2139 -0.2158 -0.6757
  733MOL0     C 1082   3.626   5.447   7.275 -1.1452 -0.0256  0.1916
  733MOL0     C 1083   3.758   5.471   7.230 -0.6612  0.8517 -0.5206
  733MOL0     C 1084   3.778   5.608   7.177 -0.1033 -0.1796 -0.5838
  733MOL0     H 1085   4.055   5.198   6.880  1.0150 -0.3617 -0.9155
  733MOL0     H 1086   4.255   5.204   6.734  0.0779 -2.3442  0.3643
  733MOL0     H 1087   4.643   5.211   6.917 -2.2091 -0.3995 -0.7650
  733MOL0     H 1088   4.642   5.389   6.868 -4.2732 -0.2145  1.0317
  733MOL0     H 1089   4.825   5.255   6.752  0.8769  0.4247 -1.9184
  733MOL0     H 1090   4.706   5.138   6.701 -1.9678 -0.2500 -0.5111
  733MOL0     H 1091   4.599   5.320   6.553 -0.6483 -2.1328  1.7493
  733MOL0     H 1092   4.702   5.437   6.636  0.9908  0.8684 -0.5486
  733MOL0     H 1093   4.821   5.199   6.493  0.8037 -0.7428  4.1761
  733MOL0     H 1094   4.762   5.338   6.405 -0.0484  1.6795  0.6186
  733MOL0     H 1095   4.996   5.304   6.608  1.9422  0.6800 -1.0841
  733MOL0     H 1096   4.929   5.462   6.568  0.3941  0.8652 -2.0189
  733MOL0     H 1097   5.021   5.265   6.352  0.9150  1.2566 -1.4426
  733MOL0     H 1098   4.982   5.432   6.327  2.2402  2.0554  0.3577
  733MOL0     H 1099   5.219   5.362   6.506  1.1194  2.3304  1.0782
  733MOL0     H 1100   5.166   5.513   6.433 -2.4054 -0.2888 -0.2007
  733MOL0     H 1101   5.248   5.287   6.270  0.5735  1.4023 -0.9549
  733MOL0     H 1102   5.199   5.440   6.202  0.0568 -3.3348 -1.6215
  733MOL0     H 1103   5.501   5.351   6.449  0.6190  0.3648  0.1211
  733MOL0     H 1104   5.731   5.553   6.483 -2.7730  2.0507 -0.6831
  733MOL0     H 1105   5.771   5.607   6.315 -0.0524  2.0071  0.9679
  733MOL0     H 1106   5.922   5.424   6.415 -0.9036  0.2613  1.5033
  733MOL0     H 1107   5.794   5.312   6.412 -0.6623  0.4217  0.7590
  733MOL0     H 1108   5.754   5.385   6.161  2.0670  1.7038 -1.2560
  733MOL0     H 1109   5.922   5.438   6.169  1.2615 -0.0435  0.6697
  733MOL0     H 1110   5.993   5.207   6.258  0.6556  3.0734  1.9054
  733MOL0     H 1111   5.826   5.161   6.250  1.8201 -0.8621 -0.7214
  733MOL0     H 1112   5.924   5.304   5.849  1.4552  1.1296 -2.1841
  733MOL0     H 1113   6.008   5.331   5.616 -0.3734  0.2020  1.2670
  733MOL0     H 1114   6.182   5.358   5.576  1.3911 -0.0273  0.8239
  733MOL0     H 1115   6.087   5.478   5.662 -0.3078  0.0124  2.3808
  733MOL0     H 1116   6.614   5.254   5.590 -0.4708  0.2241  2.1369
  733MOL0     H 1117   6.830   5.367   5.523  1.7985 -1.0942  0.8048
  733MOL0     H 1118   7.051   5.587   5.844  0.2762 -2.6307  2.0142
  733MOL0     H 1119   7.145   5.440   5.807 -0.6935 -1.0572 -0.2782
  733MOL0     H 1120   7.226   5.556   5.591 -0.7975 -1.7795 -0.0752
  733MOL0     H 1121   7.123   5.693   5.638 -0.0470 -1.5434 -1.7204
  733MOL0     H 1122   7.360   5.613   5.812  1.0222 -0.3966 -1.3434
  733MOL0     H 1123   7.261   5.751   5.827  1.8040 -0.6702  1.8897
  733MOL0     H 1124   7.336   5.835   5.609  0.6727  0.1911 -2.1122
  733MOL0     H 1125   7.439   5.685   5.598 -0.1321 -0.2235 -0.9040
  733MOL0     H 1126   7.465   5.887   5.828  0.5290 -3.7662  3.2097
  733MOL0     H 1127   7.582   5.759   5.788 -0.0492  0.0054 -1.0251
  733MOL0     H 1128   7.672   5.968   5.719 -0.0780 -1.0121  1.8833
  733MOL0     H 1129   7.527   6.009   5.627  2.6797  0.7594 -0.2640
  733MOL0     H 1130   7.721   5.975   5.492  0.4425  0.1259  0.2324
  733MOL0     H 1131   7.603   5.856   5.444  3.3385 -0.1380 -2.9205
  733MOL0     H 1132   7.712   5.672   5.569 -1.2232  0.8352  2.8151
  733MOL0     H 1133   7.821   5.794   5.644  1.7146 -0.6809 -1.4771
  733MOL0     H 1134   6.901   5.462   5.926  3.2507 -2.8007 -0.9766
  733MOL0     H 1135   6.698   5.368   5.993  0.3477 -0.4653 -0.0985
  733MOL0     H 1136   6.356   5.175   6.020 -0.2308  0.3201  1.2919
  733MOL0     H 1137   6.145   5.106   6.125  2.3760 -4.1816 -2.6948
  733MOL0     H 1138   4.493   5.320   7.087  1.1102  0.3258 -1.8081
  733MOL0     H 1139   4.300   5.320   7.215  4.6638 -1.5080  0.0753
  733MOL0     H 1140   3.892   5.170   7.284  0.4454  0.5624 -0.7814
  733MOL0     H 1141   3.676   5.138   7.388 -0.5007  0.0803 -0.5767
  733MOL0     H 1142   3.468   5.168   7.524  1.2081 -0.7641 -0.8147
  733MOL0     H 1143   3.312   5.200   7.481  0.7988 -2.4657 -0.3422
  733MOL0     H 1144   3.367   4.999   7.370  3.2482 -1.0032 -0.5893
  733MOL0     H 1145   3.484   5.073   7.280  2.5536  0.3814  4.6398
  733MOL0     H 1146   3.296   5.240   7.199 -3.2437 -0.0353 -1.3768
  733MOL0     H 1147   3.319   5.094   7.121  3.2408  5.0477 -1.9374
  733MOL0     H 1148   3.123   5.142   7.359 -1.8359  2.9863 -0.2614
  733MOL0     H 1149   3.141   4.989   7.272 -2.6454  0.5919 -0.0288
  733MOL0     H 1150   2.943   5.229   6.967 -0.8140 -0.0959 -0.3015
  733MOL0     H 1151   3.551   5.526   7.268 -1.4473 -0.2751  0.5804
  733MOL0     H 1152   3.881   5.643   7.182 -0.7787  1.7865  2.5380
  733MOL0     H 1153   3.738   5.608   7.075 -0.7866 -0.9271 -0.3325
  733MOL0     H 1154   3.725   5.691   7.224 -0.3210  1.0013 -2.7897
  734MOL0     O 1155   1.640   7.384   9.892  0.6585 -0.8738  0.2215
  734MOL0     C 1156   1.606   7.263   9.908 -1.0649 -0.6053  0.0808
  734MOL0     O 1157   1.691   7.173   9.963  0.1963  0.2589  0.3881
  734MOL0     C 1158   1.816   7.199  10.013  0.1530 -0.3653  0.1382
  734MOL0     C 1159   1.837   7.311  10.097 -0.1368  0.0885  0.7614
  734MOL0     C 1160   1.954   7.339  10.155  0.4417  0.1740  0.2049
  734MOL0     C 1161   2.061   7.247  10.140  0.4608 -0.2688  0.2956
  734MOL0     O 1162   2.186   7.283  10.173  0.4238 -0.2233  0.3891
  734MOL0     C 1163   2.225   7.419  10.180 -0.7920 -0.6013 -0.5480
  734MOL0     C 1164   2.371   7.419  10.205 -0.6597 -0.3785  0.2720
  734MOL0     C 1165   2.463   7.369  10.090  0.5462  0.0349  0.9785
  734MOL0     C 1166   2.601   7.327  10.140 -0.6224 -0.5778  0.7457
  734MOL0     C 1167   2.705   7.445  10.121 -0.2126 -0.9442 -0.7827
  734MOL0     C 1168   2.858   7.411  10.131  0.8139 -0.3706  0.5337
  734MOL0     C 1169   2.958   7.538  10.149  0.5119 -0.0261 -0.7271
  734MOL0     C 1170   3.101   7.493  10.148 -0.6410  0.3268 -0.4571
  734MOL0     N 1171   3.180   7.614  10.184  0.5504  0.6045 -0.9972
  734MOL0     C 1172   3.246   7.701  10.097  0.0119 -0.2327  0.3586
  734MOL0     C 1173   3.330   7.773  10.172  0.0281  0.2135 -0.2022
  734MOL0     C 1174   3.430   7.875  10.114 -0.3315  0.3640 -0.3878
  734MOL0     C 1175   3.559   7.826  10.062 -0.1365 -0.7652  0.6750
  734MOL0     C 1176   3.551   7.754   9.924 -0.0973 -0.8023  0.4185
  734MOL0     C 1177   3.689   7.718   9.871 -0.1864 -0.0856 -0.9563
  734MOL0     O 1178   3.786   7.822   9.882  0.0201  0.2754  0.1654
  734MOL0     C 1179   3.921   7.799   9.853  1.5971  0.9988  0.4318
  734MOL0     C 1180   3.969   7.686   9.789 -0.3758  0.3727  0.8566
  734MOL0     C 1181   4.107   7.688   9.746  0.2140 -0.6077  0.6951
  734MOL0     C 1182   4.141   7.580   9.644 -0.7559  0.6694  0.3880
  734MOL0     C 1183   4.198   7.791   9.785 -0.1933 -0.8800  0.1209
  734MOL0     C 1184   4.346   7.790   9.751  0.7434  0.4487  0.4365
  734MOL0     O 1185   4.423   7.865   9.841 -0.5602  0.3916  0.2019
  734MOL0     C 1186   4.560   7.852   9.834 -0.1283 -0.4325  0.4224
  734MOL0     C 1187   4.631   7.924   9.736  0.2565 -0.0645 -0.0154
  734MOL0     C 1188   4.768   7.903   9.723 -0.6642  0.2772 -0.0831
  734MOL0     C 1189   4.837   7.821   9.813  0.1693 -0.7616  0.5369
  734MOL0     O 1190   4.972   7.813   9.794 -0.0141 -0.8327 -0.9651
  734MOL0     C 1191   5.052   7.865   9.897 -0.2984  0.2362 -0.9465
  734MOL0     C 1192   5.201   7.855   9.873  0.4958  0.7332  0.5808
  734MOL0     C 1193   5.263   7.728   9.932  0.9612 -0.2334 -0.1657
  734MOL0     C 1194   5.413   7.724   9.925  0.3767  0.8136 -0.7072
  734MOL0     C 1195   5.462   7.603   9.854 -0.2959  0.9998  0.6806
  734MOL0     C 1196   5.617   7.604   9.832 -0.0903  0.7026  0.3711
  734MOL0     C 1197   5.654   7.469   9.779  0.0022  0.6212 -0.4933
  734MOL0     C 1198   5.646   7.448   9.627  1.1749  0.4002  0.2350
  734MOL0    Cl 1199   5.792   7.512   9.540 -0.0423 -0.0628 -0.1887
  734MOL0     C 1200   4.762   7.749   9.914 -0.2940 -0.2021  0.0471
  734MOL0     C 1201   4.629   7.775   9.929  0.7759 -0.1562 -0.2341
  734MOL0     O 1202   4.387   7.717   9.667  0.5175  0.1664 -0.0400
  734MOL0     C 1203   4.140   7.896   9.862  0.1209 -1.1500  0.1297
  734MOL0     C 1204   4.001   7.901   9.883 -0.0292 -0.8464 -0.3504
  734MOL0     N 1205   3.299   7.744  10.309  0.0461 -0.2763 -0.3001
  734MOL0     N 1206   3.219   7.649  10.314  0.8519  0.0786  0.1859
  734MOL0     C 1207   2.044   7.123  10.075 -0.3789 -0.4403 -0.4884
  734MOL0     C 1208   1.920   7.098  10.021  0.2761  0.4444  0.6977
  734MOL0     C 1209   1.452   7.236   9.898 -0.7304 -0.1317  0.1230
  734MOL0     C 1210   1.376   7.326   9.826  0.5021  0.6975  0.2193
  734MOL0     C 1211   1.241   7.313   9.820  0.1948  0.2365 -0.2024
  734MOL0     C 1212   1.175   7.201   9.870 -0.3217  0.3175  0.2131
  734MOL0     O 1213   1.039   7.205   9.873 -0.5155 -0.4541  0.6948
  734MOL0     C 1214   0.972   7.124   9.970  0.3853 -0.1469 -0.7896
  734MOL0     C 1215   0.833   7.183   9.989 -0.4081 -0.0613  0.4332
  734MOL0     C 1216   0.835   7.314  10.058 -0.0086 -0.5681 -1.3562
  734MOL0     C 1217   0.694   7.379  10.068 -0.7608 -1.1948  0.6343
  734MOL0     C 1218   0.710   7.525  10.111  0.4314 -0.1078  0.3386
  734MOL0     C 1219   0.736   7.644  10.133  0.0992 -0.8243  0.4254
  734MOL0     C 1220   1.253   7.096   9.929 -1.1878  0.0693 -0.0267
  734MOL0     C 1221   1.393   7.113   9.943  0.6961  0.1024  0.2632
  734MOL0     C 1222   1.458   7.001  10.012 -0.2131  0.5625  0.3932
  734MOL0     H 1223   1.770   7.395  10.111  0.3283  0.8034 -1.0047
  734MOL0     H 1224   1.979   7.429  10.212 -1.3887  1.9189 -1.5804
  734MOL0     H 1225   2.182   7.467  10.269  2.2233  1.5459 -0.0759
  734MOL0     H 1226   2.210   7.482  10.092  2.0297  1.3808  0.2526
  734MOL0     H 1227   2.393   7.523  10.231  0.0485 -0.2514 -0.7549
  734MOL0     H 1228   2.399   7.363  10.295  1.3420  1.7799  1.1057
  734MOL0     H 1229   2.412   7.278  10.056  1.1498  0.0444  0.0104
  734MOL0     H 1230   2.471   7.441  10.009 -1.4804 -0.5260  0.1950
  734MOL0     H 1231   2.598   7.295  10.244  0.2702 -0.2313  0.8843
  734MOL0     H 1232   2.634   7.250  10.069  4.7169 -0.4789  2.6664
  734MOL0     H 1233   2.683   7.518  10.200 -0.0855 -1.2393 -0.4749
  734MOL0     H 1234   2.689   7.505  10.031 -1.7605  3.3754  2.0471
  734MOL0     H 1235   2.860   7.346  10.220 -2.4350 -0.3556  0.7201
  734MOL0     H 1236   2.896   7.354  10.046  1.9810 -0.4270  1.0733
  734MOL0     H 1237   2.929   7.584  10.243 -0.2193  0.5210 -1.2153
  734MOL0     H 1238   2.948   7.607  10.065  0.4100  0.7716 -0.0666
  734MOL0     H 1239   3.113   7.412  10.220  0.7052  0.5537 -0.4038
  734MOL0     H 1240   3.132   7.446  10.054 -0.7915  1.1551 -0.9278
  734MOL0     H 1241   3.232   7.716   9.991 -0.7466  1.7301  0.6889
  734MOL0     H 1242   3.469   7.937  10.196 -1.2540  0.6351 -0.1388
  734MOL0     H 1243   3.388   7.942  10.039  0.4027 -1.0417 -2.1127
  734MOL0     H 1244   3.633   7.907  10.056  1.8039 -2.5230 -0.9018
  734MOL0     H 1245   3.612   7.762  10.132  3.8564  1.2125 -0.2271
  734MOL0     H 1246   3.482   7.668   9.927  0.5247 -1.3880 -1.1874
  734MOL0     H 1247   3.511   7.822   9.849  1.1748 -2.0296 -1.4516
  734MOL0     H 1248   3.724   7.635   9.933  0.5849  1.5747  0.9543
  734MOL0     H 1249   3.676   7.685   9.768  1.0472  1.5062 -1.6673
  734MOL0     H 1250   3.900   7.606   9.764  1.1269 -1.3363  1.8259
  734MOL0     H 1251   4.183   7.630   9.557  3.4690  0.6721  2.1564
  734MOL0     H 1252   4.058   7.514   9.617  0.7560 -1.4859  0.7100
  734MOL0     H 1253   4.225   7.517   9.675  1.6079  3.1892 -0.5356
  734MOL0     H 1254   4.591   7.993   9.662  1.6391  2.0612  1.1444
  734MOL0     H 1255   4.823   7.961   9.649 -0.7649  0.5716  0.0695
  734MOL0     H 1256   5.035   7.973   9.908 -0.5540  0.0224  1.2821
  734MOL0     H 1257   5.021   7.820   9.992  1.0592  2.3915  0.6254
  734MOL0     H 1258   5.228   7.861   9.767  1.7909 -0.5535  0.7967
  734MOL0     H 1259   5.241   7.948   9.914  1.1174  1.7772 -2.1339
  734MOL0     H 1260   5.226   7.645   9.872 -0.5797  1.3101 -1.4554
  734MOL0     H 1261   5.223   7.713  10.032  0.8794 -1.4086 -0.3684
  734MOL0     H 1262   5.454   7.721  10.027 -0.5356 -2.4337 -0.3412
  734MOL0     H 1263   5.439   7.816   9.873 -1.6992  0.8860 -1.7393
  734MOL0     H 1264   5.440   7.511   9.908  1.1828  0.7861  0.9597
  734MOL0     H 1265   5.417   7.599   9.754  0.5972 -1.9406  0.2964
  734MOL0     H 1266   5.660   7.625   9.930 -0.4053  0.8228  0.4825
  734MOL0     H 1267   5.644   7.692   9.772 -1.6294  2.6895  2.4273
  734MOL0     H 1268   5.585   7.394   9.819 -1.9404  1.5550 -1.9203
  734MOL0     H 1269   5.758   7.459   9.812 -0.0586  1.4054 -0.0467
  734MOL0     H 1270   5.554   7.493   9.589  0.9982 -0.5033 -0.4393
  734MOL0     H 1271   5.624   7.343   9.606 -1.9273  0.4863  2.4501
  734MOL0     H 1272   4.818   7.675   9.970  0.9716 -0.5122 -1.5387
  734MOL0     H 1273   4.561   7.720   9.993 -1.3690  1.8605 -0.6105
  734MOL0     H 1274   4.199   7.981   9.895  2.1180 -2.5085  0.2054
  734MOL0     H 1275   3.970   7.991   9.935  2.3745 -1.7473  2.9613
  734MOL0     H 1276   2.126   7.052  10.072 -0.1422 -0.2884  1.2963
  734MOL0     H 1277   1.912   7.012   9.956 -2.0968  1.0364  0.1299
  734MOL0     H 1278   1.423   7.411   9.778 -0.8025 -0.4714 -3.4646
  734MOL0     H 1279   1.190   7.393   9.767  3.7579  2.9042  0.0597
  734MOL0     H 1280   0.962   7.019   9.940 -0.9896 -1.3243  3.1969
  734MOL0     H 1281   1.018   7.126  10.069 -0.2278  1.0246 -0.5095
  734MOL0     H 1282   0.779   7.112  10.052 -2.3955 -0.8341 -1.9771
  734MOL0     H 1283   0.793   7.199   9.889  1.0650 -0.8988 -0.3282
  734MOL0     H 1284   0.876   7.311  10.160  1.4065 -0.7249 -1.9090
  734MOL0     H 1285   0.894   7.380   9.995 -0.8641  2.1492  0.5225
  734MOL0     H 1286   0.632   7.337  10.147 -3.3090  3.2908  1.3309
  734MOL0     H 1287   0.654   7.368   9.967  1.1447 -0.3931 -0.2586
  734MOL0     H 1288   0.746   7.749  10.148  1.2587 -0.8820  0.1924
  734MOL0     H 1289   1.201   7.010   9.971 -2.4678  0.4456 -0.7900
  734MOL0     H 1290   1.401   6.912  10.038  2.6700 -1.4082  0.4391
  734MOL0     H 1291   1.536   6.967   9.942  0.6888 -1.3029  2.2083
  734MOL0     H 1292   1.491   7.038  10.109  1.7881  0.4780 -0.1943
  735MOL0     O 1293   5.790   9.017   8.732  0.4906  0.2080 -0.0041
  735MOL0     C 1294   5.861   9.081   8.810  0.2027 -0.4168 -0.0560
  735MOL0     O 1295   5.973   9.040   8.861 -0.2328  0.1186  1.6409
  735MOL0     C 1296   6.029   8.921   8.809 -0.1833 -0.1224 -0.5151
  735MOL0     C 1297   5.953   8.801   8.811 -0.6334  0.2834 -0.6305
  735MOL0     C 1298   6.008   8.688   8.752  0.1500  0.3868 -0.2004
  735MOL0     C 1299   6.138   8.686   8.713 -0.2772  0.4486  0.0284
  735MOL0     O 1300   6.187   8.568   8.668  0.6569 -0.0852 -0.4553
  735MOL0     C 1301   6.153   8.548   8.538 -0.4054 -0.3285  0.7218
  735MOL0     C 1302   6.277   8.607   8.447 -0.7830  0.2510 -0.4922
  735MOL0     C 1303   6.421   8.535   8.466  0.9473 -0.5853 -0.2914
  735MOL0     C 1304   6.525   8.601   8.369 -0.0752  0.5646 -0.3222
  735MOL0     C 1305   6.667   8.550   8.378  0.5918  0.3343 -0.5611
  735MOL0     C 1306   6.750   8.591   8.256 -0.0245 -0.1927 -0.4443
  735MOL0     C 1307   6.898   8.546   8.254  0.2317  0.0400 -0.0443
  735MOL0     C 1308   6.906   8.402   8.271  0.0082 -0.3091  0.6978
  735MOL0     N 1309   7.028   8.343   8.220  0.3537  0.3271  0.6800
  735MOL0     C 1310   7.074   8.331   8.096 -0.4703 -0.4264 -0.1721
  735MOL0     C 1311   7.191   8.269   8.112 -0.2559 -0.6289 -0.0606
  735MOL0     C 1312   7.282   8.236   7.993 -0.2776 -0.0592  0.0860
  735MOL0     C 1313   7.351   8.366   7.944  0.0825 -0.3596 -0.0571
  735MOL0     C 1314   7.462   8.346   7.848  0.0711 -0.4972  0.6141
  735MOL0     C 1315   7.580   8.261   7.898 -0.0333 -0.2533 -0.6936
  735MOL0     O 1316   7.607   8.300   8.036  0.3233  0.6822  0.2077
  735MOL0     C 1317   7.672   8.211   8.111 -0.2664  1.0512 -0.6432
  735MOL0     C 1318   7.610   8.126   8.199 -0.7156  0.4839 -0.2934
  735MOL0     C 1319   7.676   8.030   8.282  0.4141  0.5493  0.2244
  735MOL0     C 1320   7.587   7.943   8.363  0.5441 -0.2232  0.3172
  735MOL0     C 1321   7.816   8.026   8.278  0.4289 -0.3442 -0.1590
  735MOL0     C 1322   7.905   7.938   8.358  0.3357  0.5758 -0.6322
  735MOL0     O 1323   8.044   7.936   8.337  0.5454 -0.2304  0.2747
  735MOL0     C 1324   8.107   7.833   8.381  0.0488  0.1800  0.4786
  735MOL0     C 1325   8.148   7.736   8.283  0.5053  0.5873  0.0624
  735MOL0     C 1326   8.230   7.623   8.324  0.3387  0.2092 -0.2678
  735MOL0     C 1327   8.256   7.607   8.462 -0.3809 -0.5727  0.0237
  735MOL0     O 1328   8.350   7.507   8.490  0.2132 -0.7419 -0.0611
  735MOL0     C 1329   8.339   7.450   8.626  0.1900  0.3804  0.0764
  735MOL0     C 1330   8.426   7.324   8.632  0.2124 -0.3370  0.0873
  735MOL0     C 1331   8.577   7.355   8.637 -0.1411 -1.1317 -0.2410
  735MOL0     C 1332   8.667   7.235   8.636  0.0111  0.5225  0.6247
  735MOL0     C 1333   8.814   7.251   8.663  0.3037 -0.2776 -0.7890
  735MOL0     C 1334   8.845   7.332   8.793 -0.6792 -1.1404  0.2578
  735MOL0     C 1335   8.993   7.307   8.835  0.4185 -0.3826 -0.5840
  735MOL0     C 1336   9.053   7.432   8.906 -0.4680  0.3966 -0.6015
  735MOL0    Cl 1337   8.953   7.479   9.049  0.2142  0.2886 -0.0052
  735MOL0     C 1338   8.201   7.697   8.553  0.2968 -0.3218  0.2888
  735MOL0     C 1339   8.130   7.809   8.510  1.0623  1.1388 -0.3632
  735MOL0     O 1340   7.846   7.862   8.436  0.7638 -0.1344 -0.4452
  735MOL0     C 1341   7.882   8.118   8.189  0.3201  0.5386 -0.6774
  735MOL0     C 1342   7.809   8.202   8.106 -0.4801  0.0136  0.7177
  735MOL0     N 1343   7.208   8.243   8.242  0.1926  0.3889  0.2146
  735MOL0     N 1344   7.113   8.284   8.312  0.2229 -0.5529 -0.4853
  735MOL0     C 1345   6.211   8.806   8.717 -0.2709  0.3473 -0.3583
  735MOL0     C 1346   6.155   8.922   8.766 -0.3859 -0.4869 -0.2068
  735MOL0     C 1347   5.826   9.215   8.851 -0.0403  0.8215 -0.4716
  735MOL0     C 1348   5.926   9.311   8.875 -0.2547 -0.6650  0.1946
  735MOL0     C 1349   5.897   9.431   8.934 -0.0450 -0.5559 -1.2635
  735MOL0     C 1350   5.766   9.466   8.971  0.1306  0.2521 -0.5265
  735MOL0     O 1351   5.724   9.587   9.012  0.4635 -0.6281 -0.3963
  735MOL0     C 1352   5.825   9.673   9.068 -0.2309  0.4411  0.5042
  735MOL0     C 1353   5.762   9.808   9.111  0.3981 -0.5279 -0.1864
  735MOL0     C 1354   5.697   9.880   8.991 -0.1932  0.3312 -0.5838
  735MOL0     C 1355   5.770   9.862   8.857  0.2658 -0.0506 -0.0033
  735MOL0     C 1356   5.724   9.965   8.756 -0.0505 -0.4053  0.0444
  735MOL0     C 1357   5.679  10.035   8.667 -0.4039 -0.2171 -0.9178
  735MOL0     C 1358   5.667   9.380   8.925 -0.2461 -0.0042  0.0574
  735MOL0     C 1359   5.692   9.251   8.878 -0.0646 -0.8489  0.5969
  735MOL0     C 1360   5.568   9.160   8.863  0.1553 -0.3894 -0.6145
  735MOL0     H 1361   5.850   8.795   8.845 -1.1834  0.5033 -2.1822
  735MOL0     H 1362   5.952   8.597   8.733  4.2146 -2.8164  1.5776
  735MOL0     H 1363   6.066   8.603   8.503  1.9040  3.3906  0.2557
  735MOL0     H 1364   6.132   8.441   8.532 -1.0049 -0.1367 -1.4005
  735MOL0     H 1365   6.246   8.603   8.342 -0.8830  0.1111 -0.4569
  735MOL0     H 1366   6.287   8.715   8.464 -0.6182  0.6612 -2.8230
  735MOL0     H 1367   6.439   8.551   8.573 -1.3354 -1.6225  0.3229
  735MOL0     H 1368   6.421   8.430   8.435  1.6423 -0.5147 -0.5411
  735MOL0     H 1369   6.487   8.596   8.267  0.5227  2.2367 -0.6540
  735MOL0     H 1370   6.533   8.708   8.387  1.8857  0.9038 -2.6400
  735MOL0     H 1371   6.661   8.441   8.382 -4.3006  0.4327  2.6076
  735MOL0     H 1372   6.715   8.592   8.466  1.7110  0.1647 -1.0759
  735MOL0     H 1373   6.696   8.553   8.169  0.4674 -4.7469  0.9833
  735MOL0     H 1374   6.733   8.699   8.258  0.9448  0.0041 -1.4117
  735MOL0     H 1375   6.947   8.593   8.340  0.9685  0.0892 -0.4843
  735MOL0     H 1376   6.945   8.573   8.159 -0.9078 -0.5647 -0.8092
  735MOL0     H 1377   6.874   8.370   8.370  2.1496  1.9814  2.2450
  735MOL0     H 1378   6.827   8.366   8.204 -0.9801 -3.0903  3.1333
  735MOL0     H 1379   7.023   8.369   8.008 -1.0138  0.4964  0.5236
  735MOL0     H 1380   7.239   8.177   7.911 -0.8388 -0.4934  0.6838
  735MOL0     H 1381   7.358   8.167   8.031  0.0165  0.2573  0.0713
  735MOL0     H 1382   7.277   8.435   7.903 -0.6503 -0.2924  1.3263
  735MOL0     H 1383   7.390   8.395   8.042 -0.1285 -2.1507  0.5851
  735MOL0     H 1384   7.436   8.297   7.754  1.1181  3.5639 -2.0530
  735MOL0     H 1385   7.486   8.447   7.812 -0.1484 -0.3887  0.7692
  735MOL0     H 1386   7.545   8.158   7.903 -2.3821  0.4320 -1.4484
  735MOL0     H 1387   7.664   8.283   7.831 -1.0527  2.2695 -1.2674
  735MOL0     H 1388   7.503   8.145   8.200 -0.6931  0.6112  0.4612
  735MOL0     H 1389   7.581   7.849   8.308  2.1873  1.1019 -2.2962
  735MOL0     H 1390   7.485   7.982   8.364  0.6930  0.1832 -0.0784
  735MOL0     H 1391   7.625   7.936   8.466 -3.0620  2.4103  2.0676
  735MOL0     H 1392   8.116   7.757   8.181 -1.2945  1.2055  0.7063
  735MOL0     H 1393   8.277   7.553   8.256  0.1768 -0.0909 -0.0748
  735MOL0     H 1394   8.355   7.530   8.700  0.6636  2.2320 -1.9133
  735MOL0     H 1395   8.240   7.408   8.646 -0.2433  1.6841  0.8048
  735MOL0     H 1396   8.396   7.280   8.727 -2.4532  3.0516  0.9990
  735MOL0     H 1397   8.412   7.254   8.549 -0.6938  0.3499 -0.3478
  735MOL0     H 1398   8.590   7.411   8.730  0.1367 -1.7539  0.0988
  735MOL0     H 1399   8.603   7.413   8.548  1.0438 -0.7024  0.3663
  735MOL0     H 1400   8.676   7.199   8.533  0.3708  2.6434 -0.1397
  735MOL0     H 1401   8.617   7.159   8.696 -0.9061  0.8427  0.2943
  735MOL0     H 1402   8.856   7.150   8.657 -1.1671 -0.8686 -1.8651
  735MOL0     H 1403   8.860   7.317   8.589  0.5376  2.6767  1.7998
  735MOL0     H 1404   8.782   7.313   8.879 -0.4636  4.0704  1.9060
  735MOL0     H 1405   8.822   7.439   8.787  0.6615 -0.6270  2.8713
  735MOL0     H 1406   9.054   7.279   8.748  1.4025 -1.6802  0.4814
  735MOL0     H 1407   9.002   7.217   8.898  2.5982 -0.3931 -0.8354
  735MOL0     H 1408   9.058   7.518   8.839 -1.7084  1.3357  0.4534
  735MOL0     H 1409   9.148   7.427   8.961  0.6430 -2.8036 -2.4970
  735MOL0     H 1410   8.200   7.688   8.661  1.2399  1.7911  0.5405
  735MOL0     H 1411   8.075   7.875   8.577  1.3299  1.6453 -0.6312
  735MOL0     H 1412   7.990   8.106   8.185  0.1165 -1.4607 -1.2723
  735MOL0     H 1413   7.866   8.268   8.041  0.5797 -2.2448 -0.7772
  735MOL0     H 1414   6.315   8.808   8.687 -0.0515  0.2240  0.3637
  735MOL0     H 1415   6.211   9.014   8.778  2.1402 -2.3591  5.1808
  735MOL0     H 1416   6.032   9.289   8.864 -0.2523 -2.7737  3.3280
  735MOL0     H 1417   5.980   9.498   8.954  0.9990 -2.7771  3.2020
  735MOL0     H 1418   5.858   9.626   9.162 -1.0420  0.1602  0.6524
  735MOL0     H 1419   5.906   9.685   8.995 -0.9734  3.1503  0.0339
  735MOL0     H 1420   5.841   9.874   9.147 -0.2315 -0.4362  1.0653
  735MOL0     H 1421   5.698   9.785   9.196  0.7183  2.0303  0.8452
  735MOL0     H 1422   5.593   9.847   8.991 -0.7298  1.9152  0.9336
  735MOL0     H 1423   5.696   9.988   9.007 -1.4805  0.2799 -0.2010
  735MOL0     H 1424   5.761   9.760   8.819 -3.9354  1.0214 -2.5067
  735MOL0     H 1425   5.874   9.890   8.877 -0.0967  0.7695  0.7777
  735MOL0     H 1426   5.625  10.075   8.583  1.1663  4.4691  0.0002
  735MOL0     H 1427   5.570   9.410   8.962 -0.0627  3.2884 -1.7913
  735MOL0     H 1428   5.533   9.153   8.759  1.9654 -0.7723 -1.2415
  735MOL0     H 1429   5.604   9.065   8.902  0.1647 -1.7808 -3.6736
  735MOL0     H 1430   5.490   9.202   8.927 -0.0654 -1.5173 -0.1290
  736MOL0     O 1431   8.052   9.967   5.145  0.5331 -0.2719 -1.0217
  736MOL0     C 1432   7.973   9.931   5.232  0.1419 -0.2776 -0.0361
  736MOL0     O 1433   7.995   9.843   5.330  0.6363  0.0349  0.4057
  736MOL0     C 1434   8.112   9.795   5.368 -0.8716  0.1852 -0.2680
  736MOL0     C 1435   8.233   9.865   5.363 -0.4019 -0.1317 -0.7356
  736MOL0     C 1436   8.356   9.811   5.413 -0.0425  0.8687  0.3370
  736MOL0     C 1437   8.349   9.679   5.474 -0.5405 -0.0070  0.5677
  736MOL0     O 1438   8.471   9.634   5.537  0.1833 -0.2333  0.4366
  736MOL0     C 1439   8.580   9.609   5.455 -0.9769  0.3857  1.3603
  736MOL0     C 1440   8.678   9.510   5.516  0.5732 -0.0841  0.1728
  736MOL0     C 1441   8.724   9.551   5.658  0.4513  0.2622  0.6143
  736MOL0     C 1442   8.851   9.469   5.693 -0.3334  0.0326  0.0302
  736MOL0     C 1443   8.885   9.493   5.832 -0.9409 -0.6180 -0.3895
  736MOL0     C 1444   8.956   9.365   5.900 -0.4978  0.8280  0.3015
  736MOL0     C 1445   9.106   9.367   5.853  0.5319  0.2566 -0.2205
  736MOL0     C 1446   9.189   9.432   5.966  0.1239 -0.0278  0.2232
  736MOL0     N 1447   9.329   9.409   5.933 -0.1238 -0.9883  0.4257
  736MOL0     C 1448   9.399   9.454   5.821 -0.8601  0.0632 -0.2144
  736MOL0     C 1449   9.529   9.435   5.842  0.1918 -0.0508 -0.8186
  736MOL0     C 1450   9.629   9.481   5.731  0.2173 -0.3320 -0.7404
  736MOL0     C 1451   9.777   9.462   5.773  0.0044 -0.6431 -0.1033
  736MOL0     C 1452   9.885   9.562   5.712  0.4039  0.6905  0.1156
  736MOL0     C 1453  10.027   9.501   5.734 -0.2902  0.3715  0.2992
  736MOL0     O 1454  10.131   9.606   5.736  0.4648 -0.3065  0.1347
  736MOL0     C 1455  10.258   9.557   5.756  0.7084  0.9480  0.3971
  736MOL0     C 1456  10.346   9.662   5.786 -0.2298 -0.0971 -0.4908
  736MOL0     C 1457  10.481   9.639   5.783  0.0443 -0.0517  0.3641
  736MOL0     C 1458  10.574   9.753   5.806  0.1303  0.0222 -0.1098
  736MOL0     C 1459  10.533   9.518   5.748 -0.3618 -0.1110  1.4316
  736MOL0     C 1460  10.679   9.489   5.720 -0.4009  0.1141 -0.6339
  736MOL0     O 1461  10.703   9.348   5.725  0.2135 -0.1931  0.0256
  736MOL0     C 1462  10.820   9.296   5.665  0.3017 -0.1908 -0.3262
  736MOL0     C 1463  10.862   9.312   5.533 -0.4180 -0.5050  0.0868
  736MOL0     C 1464  10.986   9.269   5.492  0.1713 -0.2085 -0.5975
  736MOL0     C 1465  11.069   9.195   5.575  1.0845 -0.6450 -0.3687
  736MOL0     O 1466  11.184   9.144   5.519 -0.5092  0.5121  0.2508
  736MOL0     C 1467  11.291   9.114   5.608 -0.6883  0.1534  0.7306
  736MOL0     C 1468  11.417   9.064   5.534 -0.7226 -0.1622  0.1061
  736MOL0     C 1469  11.374   8.954   5.426  0.1500  0.5150  0.6417
  736MOL0     C 1470  11.491   8.902   5.350  0.1275 -0.3805  0.1682
  736MOL0     C 1471  11.452   8.790   5.255  0.2223 -0.9667  1.0967
  736MOL0     C 1472  11.567   8.745   5.175  0.0432  0.0068 -0.4617
  736MOL0     C 1473  11.613   8.807   5.053  0.4855 -0.4892 -0.4153
  736MOL0     C 1474  11.727   8.728   4.987 -0.0323  0.0394 -0.0015
  736MOL0    Cl 1475  11.878   8.702   5.083  0.6063  0.0870 -0.1009
  736MOL0     C 1476  11.036   9.181   5.705 -0.5281 -0.3286  0.5448
  736MOL0     C 1477  10.909   9.226   5.754  1.1812 -0.3121 -0.2060
  736MOL0     O 1478  10.766   9.572   5.686  0.0018  0.7547 -0.2524
  736MOL0     C 1479  10.446   9.415   5.738  0.0284  0.8287  0.0214
  736MOL0     C 1480  10.305   9.429   5.744 -0.0648 -0.2854  0.0344
  736MOL0     N 1481   9.537   9.378   5.969 -0.1453 -0.0290 -0.6405
  736MOL0     N 1482   9.419   9.359   6.024  0.1575  0.3248 -0.5847
  736MOL0     C 1483   8.224   9.616   5.475  0.3065  0.5227 -0.0012
  736MOL0     C 1484   8.111   9.675   5.425 -0.1443  0.2906  0.4111
  736MOL0     C 1485   7.830   9.984   5.219 -0.7982 -0.0863 -0.2227
  736MOL0     C 1486   7.737   9.929   5.308  0.2664  0.9839  0.4323
  736MOL0     C 1487   7.603   9.965   5.307 -0.4594 -0.3126 -0.5477
  736MOL0     C 1488   7.553  10.045   5.206  0.3501 -0.3230  0.6458
  736MOL0     O 1489   7.409  10.061   5.193  0.2165  0.5707  0.4459
  736MOL0     C 1490   7.355  10.141   5.086  1.0792 -0.4459  0.7034
  736MOL0     C 1491   7.209  10.081   5.076 -0.1590  0.1880 -0.3021
  736MOL0     C 1492   7.207   9.955   4.990  0.7014  1.2409 -0.8184
  736MOL0     C 1493   7.070   9.892   4.984  0.0173  0.0545 -0.3130
  736MOL0     C 1494   6.967   9.970   4.926  0.3889 -0.0983 -0.2477
  736MOL0     C 1495   6.886  10.053   4.872 -0.2028 -0.5290 -0.2376
  736MOL0     C 1496   7.648  10.102   5.125  0.3292 -0.2391  0.5254
  736MOL0     C 1497   7.787  10.072   5.121 -0.5357 -0.2230 -0.6730
  736MOL0     C 1498   7.872  10.152   5.030 -0.9104 -0.6466  0.4387
  736MOL0     H 1499   8.232   9.967   5.326 -2.6092  0.1446 -0.0253
  736MOL0     H 1500   8.438   9.877   5.438 -0.2348  0.4998  2.0869
  736MOL0     H 1501   8.628   9.706   5.443 -2.5004  1.1145  0.9780
  736MOL0     H 1502   8.552   9.575   5.355  2.3863  3.6049 -0.9412
  736MOL0     H 1503   8.622   9.417   5.530 -0.3828  0.7977  2.7473
  736MOL0     H 1504   8.769   9.500   5.456  0.8518 -2.4944  0.8954
  736MOL0     H 1505   8.740   9.659   5.670 -0.0865  0.1186  3.1186
  736MOL0     H 1506   8.645   9.537   5.732  0.5881  0.7984  0.8727
  736MOL0     H 1507   8.824   9.364   5.681 -2.1547  0.1590  2.4507
  736MOL0     H 1508   8.942   9.493   5.637 -0.5309 -4.0952 -2.5339
  736MOL0     H 1509   8.792   9.521   5.881 -0.1209  0.1926  0.7825
  736MOL0     H 1510   8.951   9.579   5.850 -2.0390  0.0255  0.7388
  736MOL0     H 1511   8.931   9.371   6.006 -0.3395  1.9847  0.2922
  736MOL0     H 1512   8.906   9.276   5.861 -2.8277  0.9595  2.6888
  736MOL0     H 1513   9.121   9.423   5.761  4.7357  1.5444  1.0454
  736MOL0     H 1514   9.142   9.266   5.837  0.1996  0.2468 -0.9494
  736MOL0     H 1515   9.167   9.538   5.975  0.0511  0.0569 -0.7991
  736MOL0     H 1516   9.172   9.386   6.064 -0.0160 -2.5820 -0.9082
  736MOL0     H 1517   9.366   9.504   5.730  1.1555 -1.3696 -1.8144
  736MOL0     H 1518   9.606   9.587   5.711  0.8479  0.0671  0.5485
  736MOL0     H 1519   9.618   9.416   5.643  1.7991 -0.5520 -0.8011
  736MOL0     H 1520   9.786   9.486   5.879 -0.3333  0.8751 -0.3864
  736MOL0     H 1521   9.812   9.360   5.757  0.0535 -0.9690  1.8000
  736MOL0     H 1522   9.874   9.578   5.604 -0.1978  1.3967  0.2792
  736MOL0     H 1523   9.868   9.657   5.761  3.3252  1.7195 -0.6526
  736MOL0     H 1524  10.032   9.441   5.826  0.1529  0.1985  0.1635
  736MOL0     H 1525  10.052   9.433   5.652  1.5506 -2.0175  2.6274
  736MOL0     H 1526  10.306   9.763   5.785  3.9367  1.7748 -3.0179
  736MOL0     H 1527  10.515   9.832   5.853  0.5785 -0.8570  2.0335
  736MOL0     H 1528  10.608   9.797   5.712 -1.9975  1.9948 -0.0428
  736MOL0     H 1529  10.654   9.719   5.873  0.6156 -0.7876 -1.0729
  736MOL0     H 1530  10.798   9.374   5.471 -2.0286  0.1251  2.2766
  736MOL0     H 1531  11.024   9.297   5.395 -1.9083  2.2339 -0.8258
  736MOL0     H 1532  11.321   9.205   5.660 -2.7042  0.2378  1.8188
  736MOL0     H 1533  11.257   9.033   5.673  1.1229 -0.6722  0.7067
  736MOL0     H 1534  11.484   9.140   5.492  2.0282 -2.3194  0.3158
  736MOL0     H 1535  11.478   9.020   5.614 -1.6532 -0.7060  0.5292
  736MOL0     H 1536  11.309   9.000   5.351  2.4062  0.7778 -1.2791
  736MOL0     H 1537  11.327   8.878   5.488  1.6119 -1.3309 -0.4256
  736MOL0     H 1538  11.562   8.857   5.421 -2.0702 -0.6537  2.3248
  736MOL0     H 1539  11.535   8.988   5.299 -2.3941  2.3494  2.2464
  736MOL0     H 1540  11.405   8.706   5.308 -2.3726 -1.5311 -1.8229
  736MOL0     H 1541  11.372   8.825   5.190  1.4692 -1.4158 -0.7459
  736MOL0     H 1542  11.554   8.638   5.160 -0.3252  0.1401 -1.1064
  736MOL0     H 1543  11.656   8.763   5.237  0.7698 -0.4089 -1.3547
  736MOL0     H 1544  11.638   8.913   5.062 -1.4023 -0.0753  0.6598
  736MOL0     H 1545  11.538   8.803   4.973  2.3439 -2.5645 -2.1798
  736MOL0     H 1546  11.761   8.783   4.899 -1.3955  1.3725  0.2631
  736MOL0     H 1547  11.700   8.625   4.963  0.6439 -0.9978  3.1493
  736MOL0     H 1548  11.109   9.141   5.773 -1.3525 -1.9935  0.4955
  736MOL0     H 1549  10.883   9.224   5.859 -0.6056 -0.2382 -0.6091
  736MOL0     H 1550  10.467   9.308   5.735  3.8330  1.4664  0.0539
  736MOL0     H 1551  10.251   9.335   5.733  1.1229 -1.0053  0.1651
  736MOL0     H 1552   8.212   9.516   5.516  0.6678 -0.6421 -2.5094
  736MOL0     H 1553   8.018   9.618   5.425  1.4865 -2.5866  0.8405
  736MOL0     H 1554   7.772   9.850   5.374  1.5245 -0.7221 -2.0875
  736MOL0     H 1555   7.540   9.919   5.382 -0.8529  2.1721  0.7141
  736MOL0     H 1556   7.350  10.244   5.123 -0.9906 -0.9119  1.8646
  736MOL0     H 1557   7.418  10.136   4.997  0.4325  3.6747 -0.1644
  736MOL0     H 1558   7.147  10.156   5.026  2.2332  2.6065  0.0761
  736MOL0     H 1559   7.170  10.054   5.174 -0.6724 -1.6358 -0.9749
  736MOL0     H 1560   7.257   9.975   4.894 -1.7969  1.9369 -2.0499
  736MOL0     H 1561   7.281   9.887   5.034  0.8325  0.4714 -2.1711
  736MOL0     H 1562   7.030   9.878   5.085  2.4824  0.7394  0.8481
  736MOL0     H 1563   7.080   9.793   4.938  2.9193  1.3644 -2.9094
  736MOL0     H 1564   6.826  10.128   4.825  1.1256  0.2420 -0.7282
  736MOL0     H 1565   7.616  10.172   5.048  2.5116 -0.1627 -0.3800
  736MOL0     H 1566   7.817  10.216   4.961  0.6949  3.1990  2.3817
  736MOL0     H 1567   7.942  10.212   5.089  2.0688 -2.1372 -1.3542
  736MOL0     H 1568   7.942  10.093   4.971  0.9073  1.6405  0.1448
  737MOL0     O 1569   5.734   7.949   1.101 -1.4413  0.5078 -0.3375
  737MOL0     C 1570   5.794   7.858   1.044  0.9197  0.0714 -0.1409
  737MOL0     O 1571   5.733   7.781   0.953 -0.1069  0.3169  0.7167
  737MOL0     C 1572   5.599   7.814   0.928  0.0905 -0.3139  0.6316
  737MOL0     C 1573   5.495   7.770   1.009  1.1919  0.1418  0.1158
  737MOL0     C 1574   5.369   7.788   0.971 -0.1588 -0.0456  0.5465
  737MOL0     C 1575   5.339   7.855   0.852  0.1066  0.7152 -0.5507
  737MOL0     O 1576   5.210   7.862   0.815  0.3454 -0.2818  0.0067
  737MOL0     C 1577   5.140   7.979   0.775  0.6855  0.3351  0.3812
  737MOL0     C 1578   5.013   7.936   0.698  0.1366 -0.5092 -0.1256
  737MOL0     C 1579   4.931   7.845   0.798 -0.3647  0.0759 -0.2809
  737MOL0     C 1580   4.830   7.926   0.885  0.4713  0.0566  0.5377
  737MOL0     C 1581   4.731   7.842   0.972 -0.1104 -1.0144 -0.2469
  737MOL0     C 1582   4.625   7.915   1.059 -0.2201  0.1336  0.3654
  737MOL0     C 1583   4.574   8.045   0.984  0.7961 -0.1622 -0.3388
  737MOL0     C 1584   4.454   8.123   1.052 -0.1673  0.9245 -0.3557
  737MOL0     N 1585   4.389   8.207   0.951 -0.3947 -1.4385  0.3413
  737MOL0     C 1586   4.345   8.178   0.822  0.0990 -0.1326 -0.0483
  737MOL0     C 1587   4.309   8.301   0.773 -1.1232  0.1219  0.4910
  737MOL0     C 1588   4.223   8.323   0.656  0.3450 -0.0109  0.0953
  737MOL0     C 1589   4.233   8.460   0.582 -0.2394 -0.0650  0.6406
  737MOL0     C 1590   4.373   8.501   0.545 -0.1066 -0.4047  0.3785
  737MOL0     C 1591   4.453   8.389   0.477 -1.1103 -0.6349  0.2548
  737MOL0     O 1592   4.563   8.441   0.401 -0.6728 -0.0449  0.9088
  737MOL0     C 1593   4.680   8.465   0.469  0.0323  0.6670  0.0708
  737MOL0     C 1594   4.704   8.405   0.591  0.5424  0.6844  0.4093
  737MOL0     C 1595   4.836   8.391   0.647 -0.7953 -0.4274 -0.3369
  737MOL0     C 1596   4.829   8.316   0.783 -0.1517  0.6720 -0.0046
  737MOL0     C 1597   4.947   8.453   0.582  0.4674  0.0162 -0.6025
  737MOL0     C 1598   5.089   8.459   0.647 -0.2896  0.4317  0.6653
  737MOL0     O 1599   5.166   8.556   0.594 -0.4794 -0.5507  0.0500
  737MOL0     C 1600   5.297   8.571   0.646 -0.1854  0.0623  1.1570
  737MOL0     C 1601   5.329   8.602   0.778 -0.3543  0.0658  0.0227
  737MOL0     C 1602   5.463   8.631   0.822  0.1665 -0.5099  0.8048
  737MOL0     C 1603   5.567   8.624   0.721  0.3836  0.5100  0.4465
  737MOL0     O 1604   5.696   8.652   0.766  0.0721 -0.0905  0.2788
  737MOL0     C 1605   5.800   8.559   0.716  0.2327 -1.4713  0.5818
  737MOL0     C 1606   5.933   8.611   0.741  0.2057  0.9351 -0.4099
  737MOL0     C 1607   5.956   8.615   0.890 -0.6320 -0.0177 -0.6494
  737MOL0     C 1608   6.092   8.692   0.920 -0.0727 -0.0640  0.1309
  737MOL0     C 1609   6.119   8.708   1.070  0.0396 -0.1598 -0.4299
  737MOL0     C 1610   6.187   8.573   1.124 -0.0702 -1.5207 -0.1271
  737MOL0     C 1611   6.213   8.576   1.275  0.4680  0.8750  0.1134
  737MOL0     C 1612   6.328   8.659   1.320  0.9705 -0.3994  1.0538
  737MOL0    Cl 1613   6.484   8.610   1.267 -0.0828 -0.0968 -0.2944
  737MOL0     C 1614   5.532   8.593   0.587  0.2349 -0.7957  0.4981
  737MOL0     C 1615   5.396   8.561   0.551 -0.1000 -0.0067  0.6644
  737MOL0     O 1616   5.120   8.378   0.730  0.1884 -0.8700 -0.7034
  737MOL0     C 1617   4.923   8.498   0.455  0.7823 -0.1611  0.1806
  737MOL0     C 1618   4.795   8.501   0.391  1.1557 -0.2454 -0.5050
  737MOL0     N 1619   4.346   8.395   0.866 -0.0639 -0.7018 -0.0286
  737MOL0     N 1620   4.389   8.347   0.972  0.4121 -0.1789  0.1003
  737MOL0     C 1621   5.440   7.916   0.783 -0.3527  0.3443 -0.3943
  737MOL0     C 1622   5.575   7.888   0.810  0.7593 -0.2670 -0.4606
  737MOL0     C 1623   5.937   7.831   1.086  0.0072  0.3895  0.6260
  737MOL0     C 1624   5.971   7.880   1.212 -0.3013 -0.2988  0.7165
  737MOL0     C 1625   6.105   7.882   1.261  0.8083 -0.6728  0.2869
  737MOL0     C 1626   6.206   7.840   1.176  0.2008 -0.7407  0.6267
  737MOL0     O 1627   6.337   7.852   1.209 -0.0702 -0.2029 -0.1158
  737MOL0     C 1628   6.380   7.758   1.308 -0.4141 -0.2055  0.0567
  737MOL0     C 1629   6.440   7.638   1.239 -0.5166  0.1776  0.0316
  737MOL0     C 1630   6.580   7.672   1.202 -0.0297  0.3778  0.9071
  737MOL0     C 1631   6.658   7.578   1.112  0.0431 -0.1182  0.0401
  737MOL0     C 1632   6.794   7.638   1.107  0.1181 -0.6665  0.5765
  737MOL0     C 1633   6.902   7.691   1.089  0.2558  0.0484  0.1807
  737MOL0     C 1634   6.174   7.785   1.048  0.1429 -0.3153 -0.8197
  737MOL0     C 1635   6.041   7.775   1.004 -0.0093 -0.0851  0.7226
  737MOL0     C 1636   6.001   7.717   0.865 -0.4008 -0.8256  0.3232
  737MOL0     H 1637   5.523   7.713   1.097  0.4966 -0.4260 -0.0221
  737MOL0     H 1638   5.286   7.755   1.033 -0.3148 -0.0032  0.3593
  737MOL0     H 1639   5.205   8.042   0.712  1.4431 -0.6596  0.1392
  737MOL0     H 1640   5.105   8.029   0.866  2.5746 -1.4271  2.1992
  737MOL0     H 1641   4.962   8.027   0.665  1.7913 -0.1106 -1.7120
  737MOL0     H 1642   5.032   7.880   0.606  0.7344  0.8930 -0.8743
  737MOL0     H 1643   4.880   7.770   0.737 -0.1776 -1.0229  0.8957
  737MOL0     H 1644   4.996   7.791   0.866  1.4497 -0.1688 -2.1349
  737MOL0     H 1645   4.885   7.993   0.952 -1.0928  1.9520  0.0045
  737MOL0     H 1646   4.770   7.981   0.813 -4.5871 -3.5828  1.4313
  737MOL0     H 1647   4.773   7.758   1.028 -2.1280 -0.6695  1.9614
  737MOL0     H 1648   4.673   7.779   0.903 -0.0687 -2.7648  1.2370
  737MOL0     H 1649   4.548   7.840   1.079  0.4182 -0.9399 -1.0328
  737MOL0     H 1650   4.674   7.945   1.153 -4.8428 -0.4933  3.3124
  737MOL0     H 1651   4.551   8.025   0.879 -2.2013  0.8739  0.0242
  737MOL0     H 1652   4.663   8.108   0.990  0.9172 -0.2174 -1.4263
  737MOL0     H 1653   4.375   8.056   1.086  0.3664  0.2533 -0.4187
  737MOL0     H 1654   4.494   8.191   1.127  2.0214 -0.2438 -0.3792
  737MOL0     H 1655   4.321   8.090   0.763  0.3256  0.7069 -1.4222
  737MOL0     H 1656   4.119   8.299   0.677  0.4099 -1.1018 -0.7303
  737MOL0     H 1657   4.240   8.241   0.586  0.4742  0.0265  0.0808
  737MOL0     H 1658   4.171   8.455   0.492 -0.5532  1.2261  0.7583
  737MOL0     H 1659   4.190   8.538   0.646  3.3051  2.2981  0.4710
  737MOL0     H 1660   4.374   8.590   0.482  0.8027 -2.4430 -2.7200
  737MOL0     H 1661   4.425   8.535   0.635  2.1520  1.6469 -1.5654
  737MOL0     H 1662   4.474   8.299   0.535 -0.9802 -0.3914  0.5914
  737MOL0     H 1663   4.395   8.345   0.395 -0.8629  0.3860 -0.4990
  737MOL0     H 1664   4.631   8.353   0.651 -1.0858  0.8160 -1.3693
  737MOL0     H 1665   4.882   8.369   0.862 -1.0579  0.1763  0.9502
  737MOL0     H 1666   4.869   8.214   0.774  3.6405  2.1733 -3.2267
  737MOL0     H 1667   4.725   8.314   0.815 -0.1399 -0.8017  0.0143
  737MOL0     H 1668   5.245   8.601   0.846 -1.8506  0.6717 -1.7602
  737MOL0     H 1669   5.476   8.668   0.924 -0.1791  1.2030  0.2604
  737MOL0     H 1670   5.781   8.467   0.772 -1.8473 -0.7268  1.2239
  737MOL0     H 1671   5.787   8.534   0.611 -2.0311 -0.8821  0.6596
  737MOL0     H 1672   6.006   8.545   0.693  0.0141 -0.5428  1.2231
  737MOL0     H 1673   5.948   8.708   0.692 -2.0998  1.7336  0.3469
  737MOL0     H 1674   5.982   8.515   0.926  0.6256  0.9810  1.4205
  737MOL0     H 1675   5.876   8.660   0.950  1.9122  2.1262  1.3932
  737MOL0     H 1676   6.093   8.796   0.889  2.8076  0.3057  1.0981
  737MOL0     H 1677   6.180   8.641   0.878  0.2701  2.3941 -2.3584
  737MOL0     H 1678   6.196   8.785   1.073  1.0467 -1.1503 -0.2294
  737MOL0     H 1679   6.035   8.731   1.136 -0.0677 -1.5114 -0.0676
  737MOL0     H 1680   6.282   8.571   1.069 -1.2371  1.4322 -2.5662
  737MOL0     H 1681   6.125   8.486   1.101 -0.2985 -2.0416  2.2581
  737MOL0     H 1682   6.221   8.476   1.316  0.3231  1.0339  0.5297
  737MOL0     H 1683   6.119   8.617   1.311 -0.0037  2.1983 -2.3729
  737MOL0     H 1684   6.332   8.640   1.428  2.4131  2.9710  1.7210
  737MOL0     H 1685   6.308   8.765   1.299 -1.7933 -1.4462 -2.7469
  737MOL0     H 1686   5.597   8.599   0.500 -2.8693 -0.2415 -2.0003
  737MOL0     H 1687   5.365   8.536   0.450 -1.9468  0.0536  1.1925
  737MOL0     H 1688   5.004   8.513   0.384 -1.7298  2.9152 -2.3752
  737MOL0     H 1689   4.764   8.530   0.291  0.8842  0.5761 -0.1901
  737MOL0     H 1690   5.403   7.965   0.694 -2.9586 -2.1206 -0.8190
  737MOL0     H 1691   5.648   7.942   0.751 -2.5685  4.3175 -1.0005
  737MOL0     H 1692   5.886   7.918   1.268 -1.4838 -1.1082 -0.4436
  737MOL0     H 1693   6.128   7.936   1.352 -0.6177  2.0803 -0.8517
  737MOL0     H 1694   6.461   7.797   1.370  1.8435 -2.5420 -1.2253
  737MOL0     H 1695   6.299   7.715   1.368 -0.2294 -0.3173  0.2247
  737MOL0     H 1696   6.386   7.589   1.158 -3.5149 -1.5383  2.8238
  737MOL0     H 1697   6.443   7.554   1.309 -1.2362 -1.9519 -2.3317
  737MOL0     H 1698   6.586   7.776   1.168 -0.4805  0.4900  1.1769
  737MOL0     H 1699   6.641   7.667   1.292  1.1341 -0.3584  0.1089
  737MOL0     H 1700   6.612   7.565   1.013 -1.2931 -1.0822  0.7531
  737MOL0     H 1701   6.654   7.476   1.151  2.1879  0.9628  3.4782
  737MOL0     H 1702   7.005   7.718   1.100  1.1696 -1.9761 -2.2180
  737MOL0     H 1703   6.256   7.748   0.987 -0.5948 -0.1010 -1.9669
  737MOL0     H 1704   6.081   7.700   0.793  0.2647  1.7824  0.3737
  737MOL0     H 1705   5.945   7.625   0.885  0.2918 -1.0859  1.1161
  737MOL0     H 1706   5.927   7.782   0.817 -1.3083 -1.0201  1.4020
  738MOL0     O 1707   2.162   0.804   8.483  0.2648 -0.0741 -1.1503
  738MOL0     C 1708   2.149   0.841   8.369 -0.2257  0.0945  0.2103
  738MOL0     O 1709   2.249   0.851   8.273  0.4663  0.1964 -0.2010
  738MOL0     C 1710   2.365   0.778   8.271  0.3033 -0.2021 -0.1603
  738MOL0     C 1711   2.434   0.786   8.148  0.1958 -0.0284 -1.1649
  738MOL0     C 1712   2.553   0.726   8.117 -0.1022  0.0899  1.0693
  738MOL0     C 1713   2.609   0.642   8.213 -0.5081 -0.3722  0.2267
  738MOL0     O 1714   2.712   0.551   8.200 -0.1621 -0.6730  0.3331
  738MOL0     C 1715   2.765   0.530   8.070  0.3204 -0.2472  0.1007
  738MOL0     C 1716   2.891   0.427   8.077  0.1997  0.3467 -0.6495
  738MOL0     C 1717   2.998   0.439   7.970  0.4315 -0.5747  0.3238
  738MOL0     C 1718   3.116   0.348   7.993  0.0072  0.0620  0.3024
  738MOL0     C 1719   3.232   0.374   7.897  0.4601 -0.0356 -0.0417
  738MOL0     C 1720   3.349   0.284   7.916 -0.4812 -0.3960 -0.2607
  738MOL0     C 1721   3.470   0.308   7.834 -0.1892 -0.0117  0.0803
  738MOL0     C 1722   3.558   0.185   7.845 -0.3861 -0.2125  0.2233
  738MOL0     N 1723   3.686   0.212   7.781 -0.1039  0.3014  0.7071
  738MOL0     C 1724   3.778   0.304   7.816 -0.3629  0.2764 -0.4561
  738MOL0     C 1725   3.892   0.273   7.746  0.2924 -0.4996 -0.9153
  738MOL0     C 1726   4.026   0.331   7.767 -0.5707  0.0219 -0.1202
  738MOL0     C 1727   4.058   0.389   7.901  0.1555 -0.2418 -1.0642
  738MOL0     C 1728   4.073   0.279   8.014  0.6916 -0.2602  0.1395
  738MOL0     C 1729   4.203   0.207   7.999 -0.2549 -0.0499 -0.6644
  738MOL0     O 1730   4.198   0.126   8.114 -0.0214 -0.4835  0.0634
  738MOL0     C 1731   4.291   0.031   8.123 -1.2240 -0.0372  0.6827
  738MOL0     C 1732   4.424   0.050   8.082  0.6446 -0.0455  0.3800
  738MOL0     C 1733   4.525  -0.045   8.090  0.0120  1.0797 -0.0355
  738MOL0     C 1734   4.668  -0.007   8.079  0.6637  0.2232  0.4510
  738MOL0     C 1735   4.493  -0.174   8.126  0.3042  0.4866  1.4016
  738MOL0     C 1736   4.571  -0.299   8.121  0.3424 -0.6021 -0.4146
  738MOL0     O 1737   4.529  -0.404   8.195  0.5728 -0.4761 -0.5948
  738MOL0     C 1738   4.594  -0.523   8.183 -1.6136 -0.1176  0.4797
  738MOL0     C 1739   4.722  -0.547   8.247 -0.1504  0.1969  0.8340
  738MOL0     C 1740   4.781  -0.671   8.236  0.3529 -0.3681 -0.4250
  738MOL0     C 1741   4.721  -0.775   8.180 -0.3922 -0.4665  0.7945
  738MOL0     O 1742   4.791  -0.893   8.165  0.4529 -0.0827 -0.6405
  738MOL0     C 1743   4.746  -0.996   8.078 -0.1530 -0.1613  0.3708
  738MOL0     C 1744   4.868  -1.089   8.064  0.1736  0.1737 -0.6112
  738MOL0     C 1745   4.915  -1.155   8.205 -0.6772  0.1751  0.3099
  738MOL0     C 1746   5.044  -1.235   8.162 -0.2831  0.7357 -0.9845
  738MOL0     C 1747   5.090  -1.325   8.283 -0.2717 -0.1346  0.0671
  738MOL0     C 1748   5.154  -1.461   8.233 -0.3118  0.0375  0.8717
  738MOL0     C 1749   5.225  -1.525   8.356  0.7912 -0.5186  0.5385
  738MOL0     C 1750   5.305  -1.644   8.315  0.7524  0.2702  0.6652
  738MOL0    Cl 1751   5.446  -1.597   8.236 -0.2326  0.1622  0.1267
  738MOL0     C 1752   4.597  -0.755   8.122  0.2881 -0.4076  0.1830
  738MOL0     C 1753   4.529  -0.632   8.127 -0.3938 -0.3294  0.8663
  738MOL0     O 1754   4.672  -0.303   8.062 -0.5538 -0.2548  0.2902
  738MOL0     C 1755   4.361  -0.196   8.174  0.7049 -0.1306  0.3739
  738MOL0     C 1756   4.264  -0.095   8.165  0.6105 -0.0629  0.4762
  738MOL0     N 1757   3.861   0.173   7.661 -0.2415 -0.8393 -0.3530
  738MOL0     N 1758   3.743   0.142   7.680 -0.2657 -0.4380  0.5357
  738MOL0     C 1759   2.550   0.640   8.343  0.1137  0.2693 -0.2073
  738MOL0     C 1760   2.424   0.697   8.371  0.0262 -0.1522 -0.1536
  738MOL0     C 1761   2.028   0.894   8.319  0.2750 -0.0702  0.3268
  738MOL0     C 1762   1.985   0.876   8.183 -0.0668  0.4934  0.7051
  738MOL0     C 1763   1.863   0.926   8.137  0.5644  0.4519  0.0143
  738MOL0     C 1764   1.769   0.978   8.226  0.2970  1.0220 -0.3317
  738MOL0     O 1765   1.663   1.027   8.165 -0.5408 -0.2821 -0.0060
  738MOL0     C 1766   1.535   0.969   8.209  0.0742  0.2494  0.0868
  738MOL0     C 1767   1.429   1.026   8.119  0.0583 -0.9447 -0.0430
  738MOL0     C 1768   1.295   0.955   8.146 -0.2994 -0.0072 -0.1511
  738MOL0     C 1769   1.192   0.977   8.036 -0.4863 -0.0154 -0.0861
  738MOL0     C 1770   1.206   0.882   7.930 -0.4211 -0.1970  0.2113
  738MOL0     C 1771   1.208   0.816   7.828 -0.1728 -0.2277 -0.4117
  738MOL0     C 1772   1.804   0.992   8.360  0.6072 -0.1775 -0.7136
  738MOL0     C 1773   1.926   0.948   8.402 -0.4819 -0.0287 -0.1609
  738MOL0     C 1774   1.950   0.979   8.551 -0.1496 -0.7706 -0.0591
  738MOL0     H 1775   2.387   0.849   8.073 -2.1426 -0.3959 -0.0972
  738MOL0     H 1776   2.599   0.738   8.019  3.2999 -3.1668  1.9994
  738MOL0     H 1777   2.802   0.627   8.034 -2.4600  0.6852 -0.4942
  738MOL0     H 1778   2.690   0.494   7.999  0.6967 -1.6353  0.3859
  738MOL0     H 1779   2.944   0.452   8.170  2.7680  1.8205 -2.3823
  738MOL0     H 1780   2.841   0.330   8.088 -0.5746  0.6769 -1.1401
  738MOL0     H 1781   2.963   0.423   7.868  1.6509 -3.9211  0.3064
  738MOL0     H 1782   3.044   0.539   7.966  1.4120 -1.0602 -1.2529
  738MOL0     H 1783   3.144   0.354   8.099  1.7533 -0.8275 -0.0831
  738MOL0     H 1784   3.091   0.242   7.980  1.8389 -0.3571 -0.0496
  738MOL0     H 1785   3.266   0.478   7.898  0.5668  0.0430 -2.8779
  738MOL0     H 1786   3.198   0.360   7.794 -1.8990 -2.8771  1.0028
  738MOL0     H 1787   3.369   0.304   8.022  0.9483 -0.7773 -0.4419
  738MOL0     H 1788   3.321   0.178   7.907 -0.5703 -0.7411  2.9067
  738MOL0     H 1789   3.513   0.399   7.877 -0.0629 -0.0745  0.0889
  738MOL0     H 1790   3.451   0.323   7.727 -0.5312 -0.7658  0.0286
  738MOL0     H 1791   3.583   0.172   7.950  3.0857 -1.5574 -0.6296
  738MOL0     H 1792   3.503   0.098   7.807 -0.8961  0.8858 -1.7440
  738MOL0     H 1793   3.764   0.374   7.898 -0.3726 -0.5329  0.2516
  738MOL0     H 1794   4.054   0.401   7.688  1.0204 -1.4542 -0.9336
  738MOL0     H 1795   4.103   0.255   7.746 -0.8379 -0.0544 -0.8170
  738MOL0     H 1796   4.151   0.445   7.912 -1.5551  2.2771  2.5004
  738MOL0     H 1797   3.988   0.463   7.940  2.5728  1.0924  0.9826
  738MOL0     H 1798   4.065   0.333   8.108 -2.6333  1.6683 -1.0831
  738MOL0     H 1799   3.988   0.210   8.020 -0.4907  1.0951 -0.4504
  738MOL0     H 1800   4.204   0.141   7.912 -0.9988 -0.3336 -0.4636
  738MOL0     H 1801   4.280   0.285   8.000 -0.7265  0.4730  2.0501
  738MOL0     H 1802   4.452   0.147   8.044  2.6776  0.2905  2.5124
  738MOL0     H 1803   4.729  -0.055   8.156 -0.5739 -0.2316  1.1862
  738MOL0     H 1804   4.664   0.101   8.097  0.0471  0.6321 -1.9004
  738MOL0     H 1805   4.709  -0.010   7.978 -0.1747 -2.3256  0.0993
  738MOL0     H 1806   4.783  -0.469   8.290  1.8253  0.8928 -2.8153
  738MOL0     H 1807   4.884  -0.676   8.270 -0.3003  1.8160  2.2572
  738MOL0     H 1808   4.654  -1.047   8.108 -0.9526  0.2955 -1.1589
  738MOL0     H 1809   4.730  -0.958   7.976  2.1236  1.5232  0.5546
  738MOL0     H 1810   4.853  -1.174   7.996  3.9390 -1.8986  0.8494
  738MOL0     H 1811   4.948  -1.028   8.021 -0.6208  0.5688 -1.5811
  738MOL0     H 1812   4.839  -1.225   8.241  0.4657 -0.0696  2.3491
  738MOL0     H 1813   4.933  -1.088   8.289 -1.0596 -0.7514  1.1421
  738MOL0     H 1814   5.126  -1.170   8.130  1.5378 -1.2011 -0.4732
  738MOL0     H 1815   5.023  -1.301   8.077  1.7214  1.1483 -1.8536
  738MOL0     H 1816   5.171  -1.269   8.329 -0.5530  0.6987 -0.4528
  738MOL0     H 1817   5.008  -1.345   8.354 -1.0902  2.2989 -0.1255
  738MOL0     H 1818   5.236  -1.428   8.168  0.5399  2.3766  2.9788
  738MOL0     H 1819   5.075  -1.521   8.186  0.0195 -0.0694  0.4406
  738MOL0     H 1820   5.147  -1.550   8.429 -0.8817  2.5777 -0.0525
  738MOL0     H 1821   5.292  -1.452   8.402  1.4529 -1.4508  1.1080
  738MOL0     H 1822   5.257  -1.717   8.250  4.0857 -1.7937  0.2596
  738MOL0     H 1823   5.325  -1.697   8.408 -1.6974  0.1329  1.1632
  738MOL0     H 1824   4.550  -0.825   8.054  0.4971  1.2528 -1.7592
  738MOL0     H 1825   4.436  -0.613   8.075  0.5180 -0.5709 -0.9323
  738MOL0     H 1826   4.328  -0.295   8.202  2.0113 -0.2830  1.4735
  738MOL0     H 1827   4.161  -0.116   8.192  1.3223 -0.4515  3.1627
  738MOL0     H 1828   2.596   0.576   8.417 -1.0057  2.0385  2.1470
  738MOL0     H 1829   2.372   0.684   8.466  1.9294  0.5575  1.0421
  738MOL0     H 1830   2.048   0.831   8.107 -1.9214 -0.1592 -0.4996
  738MOL0     H 1831   1.834   0.940   8.034 -4.3043  2.7265  1.3907
  738MOL0     H 1832   1.533   0.860   8.204  2.2531 -0.0525  3.1907
  738MOL0     H 1833   1.521   1.000   8.313  1.3501 -2.7125  1.2210
  738MOL0     H 1834   1.456   1.021   8.013 -1.5859  2.1593 -0.7381
  738MOL0     H 1835   1.422   1.128   8.160  0.9710 -1.7574  2.3230
  738MOL0     H 1836   1.309   0.846   8.154 -1.9224 -0.1525  1.3295
  738MOL0     H 1837   1.249   0.982   8.241 -1.0843  0.6696 -0.7064
  738MOL0     H 1838   1.199   1.081   8.001  0.2263  0.6211  1.8244
  738MOL0     H 1839   1.089   0.976   8.072 -1.0880 -2.0386 -1.6477
  738MOL0     H 1840   1.201   0.758   7.738  3.0747  1.9141 -2.2984
  738MOL0     H 1841   1.735   1.038   8.429 -0.4350 -3.0961  0.3428
  738MOL0     H 1842   1.867   1.041   8.585  0.5963  1.9453 -2.7420
  738MOL0     H 1843   1.951   0.889   8.614 -0.5063 -0.6739  0.0840
  738MOL0     H 1844   2.041   1.038   8.568 -1.1782  0.9402 -0.2930
  739MOL0     O 1845   4.381   1.085   2.785 -0.0375  0.0372  0.0404
  739MOL0     C 1846   4.379   1.201   2.740  0.4339  0.7586 -0.2970
  739MOL0     O 1847   4.484   1.274   2.689  0.6442 -0.1554 -0.6686
  739MOL0     C 1848   4.613   1.223   2.682 -0.0504 -0.2600 -1.2093
  739MOL0     C 1849   4.682   1.287   2.578 -0.1819 -0.4463 -0.4679
  739MOL0     C 1850   4.814   1.254   2.555  0.1473 -0.3197  0.1547
  739MOL0     C 1851   4.882   1.169   2.646  0.2813  0.4100  0.3060
  739MOL0     O 1852   5.014   1.134   2.634  0.5660 -0.1775 -0.2280
  739MOL0     C 1853   5.097   1.230   2.566  0.7672  0.1889 -0.2787
  739MOL0     C 1854   5.239   1.201   2.587 -0.8481 -0.1944 -0.2630
  739MOL0     C 1855   5.295   1.086   2.505  0.7037  0.2122  0.2580
  739MOL0     C 1856   5.419   1.030   2.571 -1.1098  0.2136  0.2540
  739MOL0     C 1857   5.463   0.897   2.502  0.4944 -0.2592 -0.7891
  739MOL0     C 1858   5.473   0.890   2.347 -0.0933  1.3137  0.2670
  739MOL0     C 1859   5.577   0.987   2.283  0.3527  0.3052 -0.1926
  739MOL0     C 1860   5.604   0.965   2.131  0.1865 -0.1718 -0.4002
  739MOL0     N 1861   5.473   0.943   2.064  0.0988  0.4421  1.1714
  739MOL0     C 1862   5.408   0.818   2.031 -0.9739 -0.9880 -0.7847
  739MOL0     C 1863   5.296   0.853   1.960  0.0547 -1.2365 -0.7191
  739MOL0     C 1864   5.203   0.751   1.904 -0.6234 -0.9723  0.7647
  739MOL0     C 1865   5.082   0.819   1.837 -0.2628  0.9717  0.3433
  739MOL0     C 1866   4.980   0.708   1.806 -0.7046  0.4833 -0.4474
  739MOL0     C 1867   4.864   0.751   1.710  0.0612 -0.2978  0.2490
  739MOL0     O 1868   4.823   0.893   1.727  0.1438  0.6125 -0.3007
  739MOL0     C 1869   4.697   0.919   1.782 -0.0683  0.2948 -0.5276
  739MOL0     C 1870   4.629   0.834   1.873  0.2397 -0.6382  0.0802
  739MOL0     C 1871   4.502   0.870   1.933  0.0467  0.3376 -0.4604
  739MOL0     C 1872   4.446   0.783   2.043 -0.8167 -0.1730 -0.3595
  739MOL0     C 1873   4.439   0.987   1.878  0.1852 -0.8329 -0.3123
  739MOL0     C 1874   4.294   1.029   1.907 -0.0433  0.4270 -0.1925
  739MOL0     O 1875   4.260   1.148   1.862  0.6342  0.4487  0.0402
  739MOL0     C 1876   4.125   1.160   1.836 -0.2856  0.1780  0.4177
  739MOL0     C 1877   4.075   1.089   1.728 -0.0633  0.6477 -0.6501
  739MOL0     C 1878   3.941   1.087   1.698 -0.8466 -0.2309  0.5000
  739MOL0     C 1879   3.847   1.134   1.787 -0.2329 -0.3245  0.1209
  739MOL0     O 1880   3.707   1.128   1.764  0.0158  0.0016  0.1556
  739MOL0     C 1881   3.666   1.037   1.658  0.1698  0.6920 -0.0919
  739MOL0     C 1882   3.509   1.054   1.662 -0.0469  0.1181  0.8982
  739MOL0     C 1883   3.427   1.012   1.780 -0.2686 -0.4491  0.2409
  739MOL0     C 1884   3.302   1.105   1.803 -0.9143  0.0130 -1.3379
  739MOL0     C 1885   3.228   1.070   1.932 -0.4401 -0.3416  0.1358
  739MOL0     C 1886   3.088   1.122   1.939 -0.1762  0.1426 -0.5034
  739MOL0     C 1887   3.080   1.267   1.922 -0.4230 -1.1242 -0.5829
  739MOL0     C 1888   3.177   1.343   2.017 -0.1852  0.0301  0.1680
  739MOL0    Cl 1889   3.130   1.513   2.067  0.4641  0.5893  0.4399
  739MOL0     C 1890   3.890   1.199   1.898 -0.7047 -1.0993  0.7606
  739MOL0     C 1891   4.029   1.228   1.917  0.5419  0.8381 -0.2660
  739MOL0     O 1892   4.219   0.957   1.970  0.1367  0.8488 -0.3708
  739MOL0     C 1893   4.500   1.057   1.774 -0.3988  0.9990  0.0931
  739MOL0     C 1894   4.627   1.025   1.727 -0.7467  0.2601 -0.3986
  739MOL0     N 1895   5.297   0.995   1.953 -0.5144 -0.0294  0.4957
  739MOL0     N 1896   5.400   1.040   2.008  0.1925 -0.0907 -0.2999
  739MOL0     C 1897   4.813   1.106   2.748  0.3439 -0.4859  1.8191
  739MOL0     C 1898   4.676   1.136   2.770 -0.0756  0.1725  0.7346
  739MOL0     C 1899   4.249   1.272   2.730 -0.8077 -0.9041 -0.1760
  739MOL0     C 1900   4.224   1.348   2.609 -0.1502 -0.2133  0.1897
  739MOL0     C 1901   4.092   1.406   2.598  0.4435  0.1775 -0.6223
  739MOL0     C 1902   3.992   1.402   2.703 -0.1068 -0.4934  0.1440
  739MOL0     O 1903   3.881   1.479   2.699 -0.3336 -0.7959 -0.2470
  739MOL0     C 1904   3.831   1.530   2.577 -0.4806 -0.1044 -0.3830
  739MOL0     C 1905   3.792   1.406   2.480  0.4875  0.6150  0.1128
  739MOL0     C 1906   3.668   1.343   2.543 -0.5252 -0.2749  0.1350
  739MOL0     C 1907   3.535   1.425   2.513  0.3915 -0.1455 -0.1081
  739MOL0     C 1908   3.500   1.397   2.373  0.2008 -0.2683 -0.2090
  739MOL0     C 1909   3.483   1.390   2.261 -0.2376  0.3993  1.1566
  739MOL0     C 1910   4.024   1.330   2.809 -0.7356  0.1982  0.4501
  739MOL0     C 1911   4.148   1.257   2.834  0.5855 -0.3465 -0.6255
  739MOL0     C 1912   4.160   1.190   2.968 -0.1709 -0.8595  0.0100
  739MOL0     H 1913   4.639   1.371   2.525 -2.7500 -2.2326 -1.3733
  739MOL0     H 1914   4.868   1.302   2.474 -1.3439 -0.4265 -0.9408
  739MOL0     H 1915   5.075   1.329   2.607  0.1620 -0.2645  0.5404
  739MOL0     H 1916   5.075   1.225   2.459  2.4777 -1.9197 -0.6017
  739MOL0     H 1917   5.296   1.290   2.558 -1.3925  0.3484  0.3064
  739MOL0     H 1918   5.259   1.185   2.693 -0.0085 -2.4474 -0.6946
  739MOL0     H 1919   5.225   1.003   2.510 -0.5424  1.2646  0.9999
  739MOL0     H 1920   5.326   1.112   2.403  3.3431 -0.3785  0.8358
  739MOL0     H 1921   5.504   1.097   2.558 -0.6206 -0.8958 -3.2592
  739MOL0     H 1922   5.406   1.010   2.678 -2.1257 -0.6617 -0.0185
  739MOL0     H 1923   5.397   0.817   2.536  0.1384  0.2116 -0.3609
  739MOL0     H 1924   5.560   0.864   2.540 -0.1302 -2.7678 -1.1839
  739MOL0     H 1925   5.501   0.786   2.332  2.1945  2.0254 -0.8771
  739MOL0     H 1926   5.376   0.897   2.298  0.1785 -3.8971 -1.5167
  739MOL0     H 1927   5.671   0.963   2.333  1.4411  0.5543 -2.0323
  739MOL0     H 1928   5.550   1.091   2.304  0.9192  0.9379 -2.3354
  739MOL0     H 1929   5.652   1.051   2.083 -2.5424  1.5121 -0.3178
  739MOL0     H 1930   5.674   0.882   2.124  0.5690  0.1603 -0.5792
  739MOL0     H 1931   5.431   0.714   2.050 -0.4874 -0.8836 -0.8062
  739MOL0     H 1932   5.175   0.688   1.989  1.6092 -2.4162  0.5343
  739MOL0     H 1933   5.264   0.689   1.837 -0.2064 -1.7240  1.8085
  739MOL0     H 1934   5.035   0.888   1.908 -0.3801  0.6300  0.6021
  739MOL0     H 1935   5.119   0.861   1.743 -0.9268  3.9693  1.3222
  739MOL0     H 1936   5.030   0.625   1.755  0.0865 -0.4340  1.7260
  739MOL0     H 1937   4.932   0.676   1.899 -2.4115  2.8358 -0.4348
  739MOL0     H 1938   4.896   0.745   1.605  0.6012  4.0061 -0.0006
  739MOL0     H 1939   4.781   0.680   1.709  0.4391 -0.7413 -0.2393
  739MOL0     H 1940   4.683   0.746   1.908  0.6478 -1.4538 -2.3722
  739MOL0     H 1941   4.386   0.698   2.009  1.2741 -2.2358  0.8479
  739MOL0     H 1942   4.396   0.853   2.111 -1.2736 -0.3446 -0.5137
  739MOL0     H 1943   4.532   0.748   2.101 -0.5513 -1.2666 -1.3867
  739MOL0     H 1944   4.133   1.041   1.650  1.2007 -1.6406  1.5587
  739MOL0     H 1945   3.915   1.061   1.596  0.6195  1.4692 -0.3742
  739MOL0     H 1946   3.702   1.074   1.561 -0.9831  2.2479  0.0432
  739MOL0     H 1947   3.705   0.937   1.679  0.6275  0.9524  0.3124
  739MOL0     H 1948   3.484   1.156   1.633  1.1089  0.9376  2.6282
  739MOL0     H 1949   3.488   0.997   1.571 -2.9110  0.6376  1.1177
  739MOL0     H 1950   3.489   1.016   1.869  0.1083 -1.6186  0.0482
  739MOL0     H 1951   3.395   0.908   1.768  1.0194 -0.8575  0.2295
  739MOL0     H 1952   3.240   1.103   1.713 -2.2814  1.3131 -0.4738
  739MOL0     H 1953   3.338   1.207   1.815 -2.4867  0.5345 -0.7834
  739MOL0     H 1954   3.221   0.961   1.941  0.7359 -0.2897  2.4625
  739MOL0     H 1955   3.287   1.085   2.023 -0.4580 -2.4622  0.5510
  739MOL0     H 1956   3.052   1.108   2.041  2.0638  2.4588  0.7198
  739MOL0     H 1957   3.036   1.069   1.859  2.7525 -3.6088 -0.1861
  739MOL0     H 1958   2.981   1.296   1.960  0.7172 -2.0083  3.5625
  739MOL0     H 1959   3.101   1.296   1.819 -0.9087  1.0088 -0.1374
  739MOL0     H 1960   3.281   1.349   1.983  0.3894 -0.2107  1.7867
  739MOL0     H 1961   3.179   1.283   2.108 -1.2967  0.9841  0.8522
  739MOL0     H 1962   3.808   1.244   1.954 -2.3184 -5.0923  2.0027
  739MOL0     H 1963   4.060   1.277   2.009  2.2354 -2.0878  0.8625
  739MOL0     H 1964   4.461   1.149   1.731 -1.8504 -0.1788 -1.2113
  739MOL0     H 1965   4.682   1.086   1.657 -0.5426  2.2638  1.3866
  739MOL0     H 1966   4.861   1.038   2.817  1.4942  1.7055  3.2803
  739MOL0     H 1967   4.627   1.092   2.857 -1.7687 -0.0938 -0.3119
  739MOL0     H 1968   4.299   1.358   2.532  2.9835  0.4654  3.0976
  739MOL0     H 1969   4.079   1.459   2.505  0.0892 -0.9591 -1.2359
  739MOL0     H 1970   3.738   1.587   2.579  0.1682  1.3422 -3.9804
  739MOL0     H 1971   3.910   1.595   2.539  1.2379 -0.4399  2.3296
  739MOL0     H 1972   3.873   1.333   2.488  1.2221  0.7286 -3.8928
  739MOL0     H 1973   3.788   1.432   2.374  2.9746 -1.2915 -0.5625
  739MOL0     H 1974   3.652   1.238   2.514  1.7029 -0.4515 -0.6250
  739MOL0     H 1975   3.679   1.337   2.651 -2.3195  1.0746  0.4389
  739MOL0     H 1976   3.538   1.533   2.530  1.6800 -0.5147  2.6655
  739MOL0     H 1977   3.452   1.390   2.576 -1.1967  2.7848 -0.3902
  739MOL0     H 1978   3.471   1.388   2.154  2.7014  2.0298  0.6962
  739MOL0     H 1979   3.944   1.315   2.881 -1.8286  0.6209 -0.6357
  739MOL0     H 1980   4.103   1.260   3.030 -2.0712 -1.0322 -1.4331
  739MOL0     H 1981   4.111   1.092   2.975 -1.1820 -0.3357  0.5716
  739MOL0     H 1982   4.263   1.183   3.002 -0.0010  1.5602  0.1816
  740MOL0     O 1983   1.277   7.100   7.600 -0.3346  0.5347 -0.0885
  740MOL0     C 1984   1.179   7.150   7.540  0.0463 -0.9819  0.0060
  740MOL0     O 1985   1.184   7.265   7.467  0.1404 -0.2998 -0.5313
  740MOL0     C 1986   1.309   7.309   7.431  0.6145 -0.9050 -0.5712
  740MOL0     C 1987   1.349   7.307   7.299  0.7323 -0.1710 -0.4212
  740MOL0     C 1988   1.468   7.347   7.253 -0.0938 -0.6940 -0.4204
  740MOL0     C 1989   1.570   7.407   7.340 -0.3001  0.0568  0.0510
  740MOL0     O 1990   1.687   7.470   7.305  0.3495 -0.1740 -0.4437
  740MOL0     C 1991   1.790   7.376   7.265 -0.7205  0.3943 -0.3662
  740MOL0     C 1992   1.920   7.457   7.253 -0.0427 -0.0577 -0.0353
  740MOL0     C 1993   1.926   7.534   7.117 -0.0086 -0.0385 -0.0077
  740MOL0     C 1994   2.057   7.596   7.092  0.5276 -0.3171 -0.5065
  740MOL0     C 1995   2.055   7.690   6.964 -0.5053 -0.1475 -0.1989
  740MOL0     C 1996   2.019   7.612   6.837 -0.0227 -0.2487 -0.5307
  740MOL0     C 1997   2.010   7.729   6.719 -0.2961 -0.4232  0.0705
  740MOL0     C 1998   1.981   7.648   6.588 -0.3672 -0.6084  0.5885
  740MOL0     N 1999   1.996   7.741   6.480  0.2007 -0.1098  0.5908
  740MOL0     C 2000   1.928   7.731   6.371  0.3951  0.4814  0.3310
  740MOL0     C 2001   1.978   7.821   6.284 -0.4716 -0.6905  0.4353
  740MOL0     C 2002   1.939   7.863   6.137  0.1559  0.0988 -0.3112
  740MOL0     C 2003   2.031   7.822   6.026 -1.1314 -0.7958 -0.9258
  740MOL0     C 2004   2.047   7.664   6.024 -0.0043 -0.3490 -0.3323
  740MOL0     C 2005   2.149   7.632   5.917  0.0483 -0.8343 -0.6778
  740MOL0     O 2006   2.273   7.693   5.954  0.4554  0.5643  0.4185
  740MOL0     C 2007   2.384   7.634   5.905 -0.3162  0.8815 -0.3665
  740MOL0     C 2008   2.503   7.664   5.978 -0.4653  0.2001 -0.2993
  740MOL0     C 2009   2.624   7.597   5.945 -0.8919 -0.5621 -0.4991
  740MOL0     C 2010   2.741   7.642   6.028 -0.3619  0.2525  0.5542
  740MOL0     C 2011   2.635   7.504   5.843 -1.4330 -0.2897 -0.0337
  740MOL0     C 2012   2.759   7.426   5.798 -0.6971 -1.2046  0.2772
  740MOL0     O 2013   2.743   7.354   5.688  0.2166  0.2848 -0.0719
  740MOL0     C 2014   2.849   7.280   5.644  0.1103 -0.0039 -0.2534
  740MOL0     C 2015   2.804   7.165   5.584  0.4705 -0.0088 -0.1965
  740MOL0     C 2016   2.890   7.078   5.500  0.1551 -0.2591 -0.4592
  740MOL0     C 2017   3.019   7.120   5.475  0.2893  1.2609  1.0979
  740MOL0     O 2018   3.095   7.034   5.395 -0.8188 -0.2906 -0.9139
  740MOL0     C 2019   3.231   7.008   5.442 -0.1829  0.8284  0.5731
  740MOL0     C 2020   3.315   7.106   5.360 -0.2938 -0.1682 -0.7370
  740MOL0     C 2021   3.334   7.058   5.217 -0.0765  1.0163  0.4444
  740MOL0     C 2022   3.424   6.927   5.216  0.4921  0.0290  0.1478
  740MOL0     C 2023   3.461   6.881   5.065  1.5572  0.2358  0.2892
  740MOL0     C 2024   3.590   6.803   5.072  0.3149  0.5730  0.6153
  740MOL0     C 2025   3.582   6.670   5.144  1.2215 -0.5416 -1.7205
  740MOL0     C 2026   3.724   6.603   5.151  0.0587  0.3385  0.6520
  740MOL0    Cl 2027   3.828   6.693   5.256 -0.1979  0.6745 -0.4862
  740MOL0     C 2028   3.067   7.230   5.539  0.3395 -1.2447  0.2592
  740MOL0     C 2029   2.986   7.316   5.616  0.3904 -0.2273 -0.1263
  740MOL0     O 2030   2.864   7.443   5.859 -0.4622  1.2239  0.5842
  740MOL0     C 2031   2.509   7.469   5.780 -0.1612 -0.5096  0.5113
  740MOL0     C 2032   2.393   7.536   5.810  0.6884 -0.6844 -0.1305
  740MOL0     N 2033   2.079   7.874   6.343  0.7433 -0.2853  0.0309
  740MOL0     N 2034   2.097   7.831   6.466 -0.6591  0.2072 -0.1112
  740MOL0     C 2035   1.529   7.424   7.475  0.5629  0.9600 -0.2792
  740MOL0     C 2036   1.401   7.372   7.517 -0.2213 -0.1122  0.2699
  740MOL0     C 2037   1.050   7.082   7.551 -0.2678 -0.4212 -0.1456
  740MOL0     C 2038   1.052   6.972   7.635 -0.1774  0.2444  0.4804
  740MOL0     C 2039   0.933   6.893   7.646 -0.1771 -0.0587  0.3838
  740MOL0     C 2040   0.816   6.929   7.601  0.0895  0.1744 -0.0495
  740MOL0     O 2041   0.711   6.841   7.643  0.2218  0.6654 -0.4748
  740MOL0     C 2042   0.582   6.859   7.598  0.1639 -0.7539 -0.2044
  740MOL0     C 2043   0.484   6.792   7.697 -0.4835 -1.1782  0.0992
  740MOL0     C 2044   0.496   6.839   7.844  0.8981  0.6989  1.0447
  740MOL0     C 2045   0.431   6.982   7.869 -0.0087  1.0546 -0.0261
  740MOL0     C 2046   0.293   6.995   7.831 -0.0876 -0.2912  0.0622
  740MOL0     C 2047   0.175   7.000   7.801  0.7445  0.3612  0.0918
  740MOL0     C 2048   0.810   7.049   7.525  0.5468  0.7301 -0.1124
  740MOL0     C 2049   0.922   7.129   7.504 -1.0321  0.6893  0.0888
  740MOL0     C 2050   0.903   7.257   7.428 -0.3747 -0.7476  0.2653
  740MOL0     H 2051   1.278   7.260   7.232 -2.4276  2.5893  0.7294
  740MOL0     H 2052   1.489   7.352   7.147 -0.1903 -0.4919 -0.4318
  740MOL0     H 2053   1.765   7.338   7.166 -0.7432 -1.5184  0.3245
  740MOL0     H 2054   1.808   7.290   7.331 -1.1909  0.9148  0.4556
  740MOL0     H 2055   1.926   7.529   7.336  2.2015  0.0674 -0.2675
  740MOL0     H 2056   2.004   7.388   7.253  0.9461  1.0731  1.4545
  740MOL0     H 2057   1.915   7.461   7.036  1.5556  1.3042 -1.4923
  740MOL0     H 2058   1.843   7.605   7.119 -1.6147 -1.7833  3.0469
  740MOL0     H 2059   2.085   7.659   7.177  2.4716  0.1074 -1.3924
  740MOL0     H 2060   2.140   7.524   7.091 -1.2440 -2.5496  1.4455
  740MOL0     H 2061   2.152   7.738   6.950 -0.0731 -0.4775  1.4428
  740MOL0     H 2062   1.982   7.768   6.985 -1.2143 -0.8130 -0.1517
  740MOL0     H 2063   2.101   7.543   6.813  0.4009 -0.3026  0.9807
  740MOL0     H 2064   1.931   7.548   6.839 -0.5145  0.4388  1.0742
  740MOL0     H 2065   2.107   7.780   6.715  0.0715 -1.0946  0.1498
  740MOL0     H 2066   1.932   7.804   6.736  1.0897  1.3261 -0.9679
  740MOL0     H 2067   2.061   7.574   6.579 -0.0659 -0.0778 -1.8135
  740MOL0     H 2068   1.879   7.607   6.583 -0.4806 -0.2631 -0.0067
  740MOL0     H 2069   1.846   7.660   6.371 -0.2665  1.2401  0.0622
  740MOL0     H 2070   1.921   7.970   6.128 -0.5050 -0.0494 -0.8868
  740MOL0     H 2071   1.841   7.821   6.112  0.9633 -0.3191 -3.1620
  740MOL0     H 2072   2.002   7.852   5.925 -1.4172 -4.7055 -2.1641
  740MOL0     H 2073   2.132   7.857   6.048 -0.9467 -1.7136 -0.2503
  740MOL0     H 2074   2.086   7.632   6.121  1.5782 -2.2739 -1.5265
  740MOL0     H 2075   1.950   7.616   6.005 -0.3834 -0.8884  2.4482
  740MOL0     H 2076   2.161   7.523   5.910  1.8070 -0.7844  0.6888
  740MOL0     H 2077   2.112   7.680   5.827  2.0847  2.5470  0.0942
  740MOL0     H 2078   2.494   7.737   6.057  0.7059 -0.0804  0.1182
  740MOL0     H 2079   2.767   7.566   6.103  0.7422 -0.6712 -0.7189
  740MOL0     H 2080   2.715   7.732   6.085  2.2822  1.8853 -0.6042
  740MOL0     H 2081   2.825   7.670   5.963 -0.8875  1.6580  0.4491
  740MOL0     H 2082   2.702   7.128   5.592  0.1967  0.0573 -2.7648
  740MOL0     H 2083   2.843   6.999   5.442  1.5045  0.3701 -2.5266
  740MOL0     H 2084   3.234   7.017   5.551 -1.3052  0.4541  0.6531
  740MOL0     H 2085   3.238   6.901   5.421  1.4784  1.0070  0.1469
  740MOL0     H 2086   3.268   7.205   5.356  1.7245  0.8043 -2.8115
  740MOL0     H 2087   3.413   7.116   5.407  0.3679  2.3458 -2.4668
  740MOL0     H 2088   3.385   7.136   5.160 -1.8106  2.3890  0.6908
  740MOL0     H 2089   3.235   7.044   5.173 -0.6204  2.5862  1.0944
  740MOL0     H 2090   3.355   6.857   5.264 -2.9031  2.2721 -1.0215
  740MOL0     H 2091   3.509   6.944   5.282 -2.0695  1.2286  3.4274
  740MOL0     H 2092   3.388   6.817   5.015  3.4655  0.7441 -3.4564
  740MOL0     H 2093   3.465   6.979   5.016 -0.8173  0.4214  0.3743
  740MOL0     H 2094   3.672   6.863   5.111 -1.5836  2.8320  1.3946
  740MOL0     H 2095   3.620   6.770   4.972 -1.0593  1.4630 -0.1292
  740MOL0     H 2096   3.519   6.593   5.099 -0.2695 -2.5035  3.0398
  740MOL0     H 2097   3.551   6.684   5.248  1.8025 -2.1387 -1.3106
  740MOL0     H 2098   3.774   6.590   5.055  2.3074 -0.0446  1.8032
  740MOL0     H 2099   3.701   6.506   5.196  1.8141  0.1265  1.1560
  740MOL0     H 2100   3.173   7.251   5.537  0.7728 -2.2136  4.2177
  740MOL0     H 2101   3.024   7.410   5.654 -2.4537  1.0595 -0.2579
  740MOL0     H 2102   2.504   7.388   5.708  1.4939  0.2023 -0.4688
  740MOL0     H 2103   2.307   7.487   5.765  1.4498 -1.8084 -0.3958
  740MOL0     H 2104   1.598   7.470   7.544  0.5681 -0.0942  0.4408
  740MOL0     H 2105   1.387   7.406   7.619  4.0224 -2.1549  1.7820
  740MOL0     H 2106   1.144   6.930   7.675  0.9081  0.1774 -1.9017
  740MOL0     H 2107   0.949   6.805   7.707  0.5416  0.1303  0.4855
  740MOL0     H 2108   0.559   6.966   7.598  1.0031 -0.5646 -0.6633
  740MOL0     H 2109   0.571   6.820   7.497  1.2706 -1.1887 -0.1698
  740MOL0     H 2110   0.495   6.684   7.691 -2.2036 -1.3337 -1.0018
  740MOL0     H 2111   0.384   6.817   7.658  0.6268  4.0852 -0.0685
  740MOL0     H 2112   0.458   6.765   7.915  0.5890  1.9496  2.2235
  740MOL0     H 2113   0.599   6.835   7.882  0.2463  0.6178  2.9435
  740MOL0     H 2114   0.476   7.061   7.809  2.5399  1.6113  2.3941
  740MOL0     H 2115   0.440   7.022   7.970 -0.2965 -1.5869  1.1280
  740MOL0     H 2116   0.081   7.025   7.756  1.0060  0.1554 -0.5873
  740MOL0     H 2117   0.712   7.072   7.484  1.2349  2.7505 -0.7537
  740MOL0     H 2118   0.798   7.282   7.417 -0.3504 -0.7529  0.0054
  740MOL0     H 2119   0.951   7.346   7.469 -0.1250 -1.4737  1.6227
  740MOL0     H 2120   0.959   7.240   7.335  0.9538 -3.7565  1.4875
  741MOL0     O 2121   9.915   5.456   7.454 -0.1062 -0.2266 -0.1449
  741MOL0     C 2122   9.873   5.550   7.530 -0.9150 -0.3973  1.0631
  741MOL0     O 2123   9.879   5.682   7.497  0.7319  0.4614  0.0451
  741MOL0     C 2124   9.959   5.707   7.385 -0.9911 -0.7140 -0.8776
  741MOL0     C 2125  10.093   5.748   7.405 -0.3420 -0.1929 -0.0975
  741MOL0     C 2126  10.164   5.797   7.292  0.3260  0.0260 -0.0496
  741MOL0     C 2127  10.113   5.814   7.163 -0.5653  0.4774  0.1014
  741MOL0     O 2128  10.173   5.859   7.051 -0.2400  0.6462  0.8262
  741MOL0     C 2129  10.259   5.970   7.070 -0.1758 -0.0418  0.1741
  741MOL0     C 2130  10.353   5.980   6.950  0.4951  0.8362  0.2317
  741MOL0     C 2131  10.424   6.117   6.950 -0.1932 -0.1911  1.0022
  741MOL0     C 2132  10.493   6.142   6.813  0.0090 -0.1441  1.1826
  741MOL0     C 2133  10.613   6.245   6.823 -0.4906  0.1710 -0.7365
  741MOL0     C 2134  10.686   6.281   6.698  0.6520  0.1781 -0.4413
  741MOL0     C 2135  10.824   6.353   6.712  0.3602  0.1746  0.5643
  741MOL0     C 2136  10.874   6.409   6.578 -0.2098  0.0814 -0.0666
  741MOL0     N 2137  10.986   6.492   6.594 -0.1013 -0.0969 -0.7414
  741MOL0     C 2138  10.976   6.624   6.617  0.1484 -0.1110 -0.5404
  741MOL0     C 2139  11.087   6.674   6.671 -0.9812  0.0481  1.2901
  741MOL0     C 2140  11.135   6.810   6.722 -0.4457  0.2264 -0.3083
  741MOL0     C 2141  11.237   6.883   6.636  0.3551 -0.9785 -0.1323
  741MOL0     C 2142  11.198   6.899   6.488  0.6473 -0.2116  0.0057
  741MOL0     C 2143  11.284   7.004   6.401  0.1981  0.2478  0.6836
  741MOL0     O 2144  11.263   7.141   6.449  0.1332 -0.0976 -0.2207
  741MOL0     C 2145  11.351   7.226   6.389  0.1457 -0.5067 -0.0936
  741MOL0     C 2146  11.446   7.210   6.285 -0.0689  0.1163 -0.1221
  741MOL0     C 2147  11.531   7.319   6.253 -0.7784 -0.4037  0.3701
  741MOL0     C 2148  11.643   7.286   6.165  0.0984  0.6619  1.0308
  741MOL0     C 2149  11.496   7.448   6.295  0.6819  0.0171 -0.0705
  741MOL0     C 2150  11.564   7.571   6.249  1.0007 -0.5085 -0.6500
  741MOL0     O 2151  11.575   7.667   6.341  0.6871 -0.0695 -0.4023
  741MOL0     C 2152  11.658   7.769   6.306 -0.0940 -1.0764 -0.1442
  741MOL0     C 2153  11.610   7.901   6.286  0.4667  0.1471 -0.5630
  741MOL0     C 2154  11.681   8.003   6.218 -0.0625 -0.5726 -0.4394
  741MOL0     C 2155  11.817   7.986   6.202 -0.5113  0.1221  0.0488
  741MOL0     O 2156  11.898   8.086   6.154 -0.2865 -0.7285  0.0775
  741MOL0     C 2157  11.944   8.081   6.025 -1.0424 -0.0560  0.6162
  741MOL0     C 2158  12.071   8.171   6.010 -0.7375 -0.2999  0.1256
  741MOL0     C 2159  12.200   8.086   6.002 -0.1526  0.3046 -0.1336
  741MOL0     C 2160  12.223   8.031   5.862 -0.1601 -0.3100  0.1522
  741MOL0     C 2161  12.358   7.971   5.833 -0.0433  0.9259 -1.1874
  741MOL0     C 2162  12.402   7.867   5.945  0.4072  0.8680  0.0697
  741MOL0     C 2163  12.523   7.787   5.900 -0.9505 -0.2265  0.3851
  741MOL0     C 2164  12.653   7.868   5.920  0.3352 -0.7573 -0.3079
  741MOL0    Cl 2165  12.685   7.885   6.091  0.5912  0.1777 -0.3644
  741MOL0     C 2166  11.872   7.861   6.228 -0.0765 -0.6159 -0.0784
  741MOL0     C 2167  11.799   7.751   6.277 -0.2195 -0.3277  0.1343
  741MOL0     O 2168  11.604   7.577   6.134 -0.2344 -0.5156  0.5529
  741MOL0     C 2169  11.400   7.461   6.397 -0.6863  0.1032  0.0279
  741MOL0     C 2170  11.334   7.354   6.446  0.5217 -0.0475 -0.6893
  741MOL0     N 2171  11.172   6.567   6.678  0.0539 -0.0716  0.2517
  741MOL0     N 2172  11.110   6.461   6.636  0.0963 -0.2193  0.6023
  741MOL0     C 2173   9.983   5.769   7.149  0.3502  0.2508 -0.3893
  741MOL0     C 2174   9.902   5.715   7.254 -0.2204 -0.2921 -0.1668
  741MOL0     C 2175   9.809   5.517   7.655 -0.2872 -0.1316 -0.2528
  741MOL0     C 2176   9.838   5.598   7.768 -0.4682  0.0256  0.1189
  741MOL0     C 2177   9.779   5.567   7.890 -0.7735 -0.0591 -0.9473
  741MOL0     C 2178   9.712   5.449   7.922 -0.1699 -0.5552  0.7069
  741MOL0     O 2179   9.644   5.417   8.038 -0.2520 -0.2370 -0.1860
  741MOL0     C 2180   9.646   5.503   8.160  1.0833 -0.9054 -0.5456
  741MOL0     C 2181   9.603   5.427   8.275 -0.2211 -0.0630  0.3146
  741MOL0     C 2182   9.454   5.438   8.311 -0.6732 -1.0570  1.0234
  741MOL0     C 2183   9.428   5.480   8.452 -0.1190 -0.0336 -0.8165
  741MOL0     C 2184   9.295   5.435   8.496  0.4025 -0.9876 -0.3598
  741MOL0     C 2185   9.189   5.383   8.515 -0.9099 -0.1748 -1.5703
  741MOL0     C 2186   9.692   5.378   7.812 -0.3046  0.5040  1.1567
  741MOL0     C 2187   9.731   5.406   7.680  0.1715 -0.4642  0.4463
  741MOL0     C 2188   9.700   5.304   7.577  0.3992  0.3661 -0.1256
  741MOL0     H 2189  10.138   5.742   7.503 -0.9974  0.6969  0.2792
  741MOL0     H 2190  10.269   5.810   7.314  0.5775 -3.3333  1.3586
  741MOL0     H 2191  10.328   5.967   7.154 -2.0985  0.2890  1.8281
  741MOL0     H 2192  10.204   6.064   7.082  0.4267  0.2097  1.0877
  741MOL0     H 2193  10.428   5.901   6.958  0.8482  1.0636 -0.6655
  741MOL0     H 2194  10.301   5.971   6.854 -0.2941  0.5907  0.6688
  741MOL0     H 2195  10.360   6.205   6.956  1.0289  0.9441 -1.1121
  741MOL0     H 2196  10.506   6.109   7.022  1.2290 -3.5233 -0.7671
  741MOL0     H 2197  10.532   6.048   6.772  2.1227  1.7352 -1.4398
  741MOL0     H 2198  10.419   6.174   6.739  3.6594  1.1167 -2.3192
  741MOL0     H 2199  10.684   6.191   6.887 -0.4334 -0.7057 -1.5101
  741MOL0     H 2200  10.568   6.330   6.874  0.0152 -0.0769  0.1563
  741MOL0     H 2201  10.706   6.189   6.643 -0.4306 -0.5894  0.4008
  741MOL0     H 2202  10.616   6.338   6.637 -0.0272 -0.7626 -0.5495
  741MOL0     H 2203  10.896   6.275   6.738 -2.4976 -1.8060  3.3582
  741MOL0     H 2204  10.831   6.429   6.790  1.1670 -0.5654  1.2356
  741MOL0     H 2205  10.920   6.323   6.527  0.1451  1.1248 -1.5641
  741MOL0     H 2206  10.795   6.458   6.520 -0.5019 -0.8015 -0.4453
  741MOL0     H 2207  10.880   6.674   6.604  1.5107  2.6276 -0.8327
  741MOL0     H 2208  11.183   6.800   6.820 -2.1953 -0.9694  0.4888
  741MOL0     H 2209  11.050   6.876   6.741 -1.1442 -1.0687  1.4006
  741MOL0     H 2210  11.256   6.982   6.678 -1.8327 -0.5274 -0.1052
  741MOL0     H 2211  11.330   6.827   6.649  1.2379  0.7754  1.5863
  741MOL0     H 2212  11.216   6.801   6.442 -0.0346 -0.2788 -0.1379
  741MOL0     H 2213  11.092   6.925   6.481  0.1480 -1.9807  0.3920
  741MOL0     H 2214  11.390   6.978   6.413  0.5154  1.2388  0.1273
  741MOL0     H 2215  11.257   6.999   6.295 -1.9745  2.4974  1.0534
  741MOL0     H 2216  11.443   7.121   6.224  1.1258 -0.2893  0.3793
  741MOL0     H 2217  11.629   7.334   6.068  2.3073  0.2703  0.4796
  741MOL0     H 2218  11.648   7.179   6.141  2.8070  1.3236 -1.9296
  741MOL0     H 2219  11.741   7.318   6.199  1.5050 -0.3489 -1.7699
  741MOL0     H 2220  11.510   7.916   6.325  0.4855  0.2356 -0.5501
  741MOL0     H 2221  11.640   8.098   6.185 -1.3243 -1.0417 -0.2684
  741MOL0     H 2222  11.982   7.978   6.017 -0.3612  0.2503 -0.2140
  741MOL0     H 2223  11.869   8.107   5.950 -0.8728  5.2105  1.8982
  741MOL0     H 2224  12.061   8.227   5.917  0.3211 -1.4313 -0.7070
  741MOL0     H 2225  12.089   8.249   6.085 -0.8355 -0.0526 -0.1070
  741MOL0     H 2226  12.201   8.003   6.073  0.1787  0.4511  0.0326
  741MOL0     H 2227  12.279   8.159   6.024 -0.1421  0.4261 -0.5674
  741MOL0     H 2228  12.197   8.104   5.785  1.2058 -0.2052 -0.2501
  741MOL0     H 2229  12.162   7.942   5.848 -0.3829 -0.0472 -0.5710
  741MOL0     H 2230  12.363   7.911   5.742  3.9725 -1.1147  0.1273
  741MOL0     H 2231  12.425   8.057   5.832 -0.7784  1.5544  0.1991
  741MOL0     H 2232  12.320   7.797   5.961  0.8154 -0.0082 -1.4125
  741MOL0     H 2233  12.415   7.925   6.037 -3.6358  1.2743  0.5570
  741MOL0     H 2234  12.513   7.764   5.793 -1.7939  2.5669 -0.2348
  741MOL0     H 2235  12.520   7.689   5.948  1.1452 -0.7612 -0.4504
  741MOL0     H 2236  12.645   7.968   5.875 -0.2050  0.2912  1.9619
  741MOL0     H 2237  12.729   7.809   5.869  0.7784 -0.7520  0.3408
  741MOL0     H 2238  11.978   7.849   6.207  0.0338  2.6200 -2.1192
  741MOL0     H 2239  11.838   7.649   6.284 -1.8882 -0.9889  0.1245
  741MOL0     H 2240  11.376   7.558   6.439 -0.2577  0.3314 -0.2444
  741MOL0     H 2241  11.266   7.351   6.530  0.5911 -4.0681 -0.5597
  741MOL0     H 2242   9.938   5.779   7.051  2.9125 -0.2898 -1.6960
  741MOL0     H 2243   9.797   5.688   7.243 -0.3181 -1.0311  2.0899
  741MOL0     H 2244   9.898   5.688   7.757  2.4229 -2.0920 -3.7823
  741MOL0     H 2245   9.803   5.645   7.963 -0.1857 -0.6290 -0.5225
  741MOL0     H 2246   9.738   5.559   8.177 -0.4053  1.4815  0.1253
  741MOL0     H 2247   9.584   5.592   8.144  2.0583 -0.0073  0.5685
  741MOL0     H 2248   9.666   5.462   8.357  1.2410 -0.2928 -0.6489
  741MOL0     H 2249   9.619   5.323   8.245  1.4558  0.7639 -1.9291
  741MOL0     H 2250   9.394   5.502   8.246 -1.4195 -0.0673  2.6135
  741MOL0     H 2251   9.411   5.339   8.296 -0.7990 -0.7204 -1.1206
  741MOL0     H 2252   9.445   5.588   8.463  0.9811 -0.4298  3.2626
  741MOL0     H 2253   9.507   5.439   8.515  1.0734  1.8969 -0.9475
  741MOL0     H 2254   9.094   5.335   8.530 -0.6597 -0.2122  0.0276
  741MOL0     H 2255   9.635   5.287   7.828 -0.5443  0.8823  2.5232
  741MOL0     H 2256   9.618   5.241   7.612  1.9454 -1.9519 -0.4386
  741MOL0     H 2257   9.673   5.339   7.478 -3.0885 -3.5415 -0.8123
  741MOL0     H 2258   9.786   5.236   7.565  0.3070 -0.2227  2.0883
  742MOL0     O 2259   4.659   1.277  10.667 -0.1303  0.0437  0.0713
  742MOL0     C 2260   4.582   1.188  10.631 -0.6223 -0.5708 -0.5741
  742MOL0     O 2261   4.574   1.063  10.691 -0.2382 -0.8101 -0.2481
  742MOL0     C 2262   4.664   1.036  10.788 -0.5684  0.3177  0.3458
  742MOL0     C 2263   4.791   1.010  10.741 -0.6745 -0.2268 -0.1640
  742MOL0     C 2264   4.896   0.971  10.830  0.1515  0.0905  0.2363
  742MOL0     C 2265   4.867   0.969  10.966 -0.1753  0.1257 -0.7627
  742MOL0     O 2266   4.963   0.931  11.068  0.1118 -0.1753 -0.5231
  742MOL0     C 2267   5.093   0.886  11.035  0.2146 -0.3677 -0.1973
  742MOL0     C 2268   5.177   1.018  11.013  0.1637  0.3571 -0.6744
  742MOL0     C 2269   5.216   1.078  11.149 -1.0556 -0.5816 -0.6133
  742MOL0     C 2270   5.314   0.987  11.230  0.2042 -0.1644  0.1278
  742MOL0     C 2271   5.336   1.052  11.368  0.5263 -0.0768  0.6610
  742MOL0     C 2272   5.444   0.982  11.448 -1.0504 -0.7900 -0.1982
  742MOL0     C 2273   5.439   1.055  11.586 -0.2059  0.0907  0.6256
  742MOL0     C 2274   5.523   0.976  11.681  0.4264 -0.0251  0.7335
  742MOL0     N 2275   5.664   0.949  11.644  0.3776  0.2440  0.4768
  742MOL0     C 2276   5.700   0.827  11.605  0.6124  0.2181  1.3296
  742MOL0     C 2277   5.829   0.825  11.583  0.1265  0.4795  0.0819
  742MOL0     C 2278   5.933   0.715  11.549 -0.4481  0.5035  1.2555
  742MOL0     C 2279   6.007   0.727  11.411 -0.5449 -0.9054  0.1861
  742MOL0     C 2280   6.151   0.672  11.422 -0.4355 -0.2731  0.5368
  742MOL0     C 2281   6.168   0.526  11.460 -0.4996  0.0749  0.4190
  742MOL0     O 2282   6.299   0.468  11.440  0.3996 -0.8025 -0.2887
  742MOL0     C 2283   6.310   0.356  11.365 -0.0701  0.5449  0.2920
  742MOL0     C 2284   6.226   0.320  11.255  1.0880 -0.2144  0.3621
  742MOL0     C 2285   6.231   0.197  11.193  0.4903  0.1921  0.1438
  742MOL0     C 2286   6.135   0.174  11.071  0.0817 -0.3059  1.1633
  742MOL0     C 2287   6.329   0.101  11.235  0.3780 -0.3167 -0.1370
  742MOL0     C 2288   6.355  -0.017  11.149  0.5206  0.4034  0.0209
  742MOL0     O 2289   6.281  -0.124  11.170 -0.4028 -0.2022 -0.0163
  742MOL0     C 2290   6.299  -0.228  11.088  0.0811 -0.1470 -0.0357
  742MOL0     C 2291   6.394  -0.331  11.119  0.3565 -0.0248 -0.3242
  742MOL0     C 2292   6.401  -0.448  11.045 -0.3848  0.3693  0.6463
  742MOL0     C 2293   6.317  -0.470  10.936  0.3161 -0.7607  0.1034
  742MOL0     O 2294   6.317  -0.579  10.861 -0.6957 -0.0354 -0.4207
  742MOL0     C 2295   6.439  -0.609  10.789 -0.0865 -0.3276  0.4550
  742MOL0     C 2296   6.406  -0.660  10.650 -1.0569  0.4360  0.2289
  742MOL0     C 2297   6.292  -0.592  10.577  0.4462 -0.2363  0.1426
  742MOL0     C 2298   6.308  -0.444  10.560 -0.1924  0.3072  0.0779
  742MOL0     C 2299   6.203  -0.390  10.470  0.5943 -0.2789  0.4119
  742MOL0     C 2300   6.055  -0.406  10.511  0.0219 -0.0907 -0.2087
  742MOL0     C 2301   5.952  -0.346  10.411  0.3086 -1.0642  1.0308
  742MOL0     C 2302   5.813  -0.319  10.467  0.1894 -0.1469  1.0022
  742MOL0    Cl 2303   5.808  -0.226  10.611  0.3063  0.0348  0.1030
  742MOL0     C 2304   6.229  -0.365  10.901 -0.1644  1.2365  0.3411
  742MOL0     C 2305   6.222  -0.246  10.973  0.4735  0.3743  0.7336
  742MOL0     O 2306   6.453  -0.007  11.076 -0.2922 -0.2708  0.2809
  742MOL0     C 2307   6.419   0.136  11.340 -0.2037  0.3947 -0.1617
  742MOL0     C 2308   6.411   0.254  11.399  1.1382 -0.5742 -1.0203
  742MOL0     N 2309   5.870   0.963  11.608 -0.3702  0.5298  0.0762
  742MOL0     N 2310   5.769   1.028  11.647 -0.1014  0.4591 -0.5942
  742MOL0     C 2311   4.738   1.001  11.019 -0.1476  0.3576  0.8642
  742MOL0     C 2312   4.636   1.034  10.932  0.7004  0.2030  0.0913
  742MOL0     C 2313   4.475   1.207  10.533 -0.0924  0.7804 -0.1065
  742MOL0     C 2314   4.391   1.100  10.485 -1.1242 -0.4077 -0.0542
  742MOL0     C 2315   4.292   1.112  10.395 -0.0999 -0.8409 -0.0236
  742MOL0     C 2316   4.267   1.238  10.339 -0.4185 -1.4946  0.3239
  742MOL0     O 2317   4.164   1.276  10.252 -0.9039 -0.3891 -0.5539
  742MOL0     C 2318   4.089   1.178  10.184  0.1525  0.4432  0.1833
  742MOL0     C 2319   3.969   1.128  10.261  0.1563 -0.4256 -0.5375
  742MOL0     C 2320   3.891   1.240  10.327 -0.4057  1.3080 -0.0057
  742MOL0     C 2321   3.834   1.339  10.225  0.0598 -0.7666  0.6791
  742MOL0     C 2322   3.731   1.287  10.137 -0.6857  0.1312  0.2439
  742MOL0     C 2323   3.655   1.243  10.058 -0.1965  0.4921 -0.0946
  742MOL0     C 2324   4.355   1.341  10.376  0.3588 -0.3073  0.3123
  742MOL0     C 2325   4.453   1.331  10.476  0.6123 -1.0239  0.1527
  742MOL0     C 2326   4.536   1.463  10.500  0.4963  0.8927  0.6595
  742MOL0     H 2327   4.821   1.023  10.638  1.4174 -2.7739 -0.0044
  742MOL0     H 2328   4.996   0.969  10.788  0.1714  1.6428  0.1498
  742MOL0     H 2329   5.081   0.838  10.938  0.3881  0.4428 -0.6203
  742MOL0     H 2330   5.124   0.818  11.115  0.7870 -0.0282 -0.1281
  742MOL0     H 2331   5.269   0.994  10.959 -1.1934 -0.5874 -2.6807
  742MOL0     H 2332   5.130   1.095  10.950  3.5608  1.2681 -2.3017
  742MOL0     H 2333   5.270   1.171  11.128 -1.9846 -0.0087 -0.5094
  742MOL0     H 2334   5.128   1.106  11.208  1.0261  0.3564  2.2550
  742MOL0     H 2335   5.285   0.883  11.245  0.4770 -0.4920 -1.4523
  742MOL0     H 2336   5.416   0.975  11.192  0.8613  1.9124  1.0756
  742MOL0     H 2337   5.243   1.029  11.422  0.7408 -0.9418  0.6765
  742MOL0     H 2338   5.349   1.160  11.362 -0.3650  0.1355  2.0254
  742MOL0     H 2339   5.429   0.874  11.452  1.2041 -1.2043 -1.1738
  742MOL0     H 2340   5.543   0.993  11.403  0.8011  3.8945  4.0953
  742MOL0     H 2341   5.333   1.056  11.612 -0.7438 -0.6330 -1.3358
  742MOL0     H 2342   5.484   1.155  11.581  1.9387 -0.6584  3.0540
  742MOL0     H 2343   5.530   1.030  11.776 -0.6259  2.0974 -0.3121
  742MOL0     H 2344   5.467   0.883  11.693  0.5609 -1.1143 -4.5147
  742MOL0     H 2345   5.638   0.738  11.600 -1.5171  1.7044 -0.5092
  742MOL0     H 2346   5.889   0.614  11.553 -0.2468  0.3557 -0.0636
  742MOL0     H 2347   6.006   0.720  11.631  0.8603  0.0439  0.1440
  742MOL0     H 2348   5.956   0.671  11.332 -1.1192 -1.8523  1.2049
  742MOL0     H 2349   6.013   0.831  11.376 -1.1631 -0.9917 -0.2050
  742MOL0     H 2350   6.196   0.679  11.322  0.6353 -0.3238  1.0020
  742MOL0     H 2351   6.210   0.737  11.486  2.7085 -1.6328 -0.7433
  742MOL0     H 2352   6.140   0.517  11.565  1.1332  2.4724  1.1404
  742MOL0     H 2353   6.098   0.472  11.395 -0.4463  1.4051 -0.8069
  742MOL0     H 2354   6.150   0.390  11.221  0.4941 -1.2848 -0.5993
  742MOL0     H 2355   6.037   0.219  11.090 -0.0161 -0.6251  1.4188
  742MOL0     H 2356   6.136   0.071  11.036  1.1440  0.1505 -0.2586
  742MOL0     H 2357   6.164   0.222  10.977  0.8991 -0.2321  1.4445
  742MOL0     H 2358   6.462  -0.308  11.201 -0.0051 -0.3981  0.0866
  742MOL0     H 2359   6.468  -0.528  11.074 -1.4928 -0.7189  0.3091
  742MOL0     H 2360   6.516  -0.531  10.787 -0.1229 -0.2864  0.5990
  742MOL0     H 2361   6.479  -0.691  10.849  1.6327 -0.7608 -1.1882
  742MOL0     H 2362   6.495  -0.660  10.586 -0.4937 -2.4756  0.8449
  742MOL0     H 2363   6.372  -0.764  10.651 -2.0141  0.7318 -0.3904
  742MOL0     H 2364   6.204  -0.613  10.638  0.4301 -2.2595 -0.4792
  742MOL0     H 2365   6.281  -0.627  10.473 -2.2231  0.0124  0.2698
  742MOL0     H 2366   6.407  -0.422  10.519 -0.5743 -0.2599 -1.2163
  742MOL0     H 2367   6.302  -0.393  10.656  0.4880  1.0346 -0.2506
  742MOL0     H 2368   6.212  -0.281  10.460 -3.8307  0.0883 -1.8331
  742MOL0     H 2369   6.213  -0.436  10.371  2.7012 -0.4948  0.6849
  742MOL0     H 2370   6.058  -0.348  10.603 -1.2359 -1.2115  0.5681
  742MOL0     H 2371   6.028  -0.506  10.547 -1.4329  0.9598  1.8477
  742MOL0     H 2372   5.939  -0.411  10.324  0.1801  0.0694  0.1751
  742MOL0     H 2373   5.997  -0.249  10.387 -0.6246 -0.6003  1.1167
  742MOL0     H 2374   5.761  -0.413  10.488  2.2540 -1.7481 -0.5103
  742MOL0     H 2375   5.744  -0.274  10.395  1.9776  1.4491  0.1949
  742MOL0     H 2376   6.167  -0.390  10.815 -0.5905 -0.4039  1.0796
  742MOL0     H 2377   6.138  -0.183  10.944  2.1630  2.1253 -0.5447
  742MOL0     H 2378   6.495   0.066  11.374  1.0586  2.1755  0.8771
  742MOL0     H 2379   6.477   0.275  11.483  2.3289  0.8048 -2.2588
  742MOL0     H 2380   4.739   0.985  11.126  2.9773 -0.0926  0.8684
  742MOL0     H 2381   4.547   1.059  10.987  1.6479  5.1842 -0.1551
  742MOL0     H 2382   4.400   1.000  10.526 -0.7534 -0.2519  0.2503
  742MOL0     H 2383   4.232   1.028  10.362 -5.2324  1.0120  3.2784
  742MOL0     H 2384   4.050   1.214  10.089  0.9790  0.5016 -0.1416
  742MOL0     H 2385   4.148   1.090  10.157 -1.0909 -0.9172  1.6954
  742MOL0     H 2386   4.012   1.078  10.348  1.5530  0.6415 -0.5779
  742MOL0     H 2387   3.913   1.055  10.201 -0.3191  0.3962 -1.1143
  742MOL0     H 2388   3.810   1.194  10.384 -0.6511 -0.5321 -1.7504
  742MOL0     H 2389   3.951   1.288  10.405 -1.8826 -0.4721  2.3454
  742MOL0     H 2390   3.908   1.386  10.159  1.3064 -1.4332  1.5483
  742MOL0     H 2391   3.783   1.412  10.289  1.0982  0.7527 -0.1585
  742MOL0     H 2392   3.580   1.205   9.992 -1.2072  0.8981  0.7915
  742MOL0     H 2393   4.342   1.436  10.325 -0.1568  1.2646  3.1674
  742MOL0     H 2394   4.517   1.493  10.604  1.5626 -0.9645  1.4402
  742MOL0     H 2395   4.645   1.458  10.499  0.4976 -0.5763 -1.9562
  742MOL0     H 2396   4.510   1.542  10.429  0.7596 -0.4288 -0.9514
  743MOL0     O 2397  10.338   6.949   6.471 -0.3758 -0.1656  0.0322
  743MOL0     C 2398  10.290   7.057   6.511  0.8837 -0.3733  0.0796
  743MOL0     O 2399  10.301   7.176   6.446  0.8708  0.1842  0.0360
  743MOL0     C 2400  10.312   7.161   6.309 -1.1251  0.3871 -0.2824
  743MOL0     C 2401  10.441   7.166   6.256 -0.3121  0.4442 -0.0439
  743MOL0     C 2402  10.452   7.136   6.123 -0.4781  0.8867  0.2403
  743MOL0     C 2403  10.342   7.106   6.040 -0.1004  0.8941 -1.0553
  743MOL0     O 2404  10.383   7.096   5.907 -0.1061 -0.6295  0.2048
  743MOL0     C 2405  10.280   7.098   5.813  0.0230  0.2132  0.3224
  743MOL0     C 2406  10.247   6.952   5.780  0.3180 -0.1226 -0.1420
  743MOL0     C 2407  10.125   6.972   5.696  0.2469  0.0080 -0.1065
  743MOL0     C 2408  10.093   6.846   5.619 -0.4368 -0.2456  0.2375
  743MOL0     C 2409   9.991   6.877   5.512 -0.5097 -0.0292 -0.3759
  743MOL0     C 2410   9.958   6.746   5.443 -0.2805 -1.0699  0.0080
  743MOL0     C 2411   9.858   6.745   5.334  0.9488  0.0419  0.2451
  743MOL0     C 2412   9.849   6.605   5.257  0.1108  0.1413 -1.6304
  743MOL0     N 2413   9.979   6.558   5.195  0.5102 -0.0709 -0.1230
  743MOL0     C 2414  10.025   6.432   5.199 -0.4189  0.2727  0.2594
  743MOL0     C 2415  10.142   6.437   5.129 -0.2151  0.1353  0.0098
  743MOL0     C 2416  10.239   6.326   5.100 -0.3032 -0.2317 -0.8657
  743MOL0     C 2417  10.264   6.286   4.960 -0.5058  0.5280  0.4089
  743MOL0     C 2418  10.389   6.197   4.951 -0.9827 -0.1066  0.3783
  743MOL0     C 2419  10.373   6.065   5.027  0.1599  0.7209 -0.7149
  743MOL0     O 2420  10.241   6.001   5.011 -0.6776 -0.0341 -0.2806
  743MOL0     C 2421  10.245   5.869   5.064 -0.0185  0.2316 -1.1662
  743MOL0     C 2422  10.137   5.802   5.017 -0.5567  0.4694  0.4445
  743MOL0     C 2423  10.126   5.670   5.051  0.6877  0.4065  0.7057
  743MOL0     C 2424   9.992   5.603   5.015  1.4532 -0.2065  0.7899
  743MOL0     C 2425  10.220   5.606   5.129 -0.1091 -0.0868 -0.6370
  743MOL0     C 2426  10.213   5.461   5.169 -0.8305 -0.5368  0.6626
  743MOL0     O 2427  10.243   5.447   5.303 -1.5943  0.4319 -0.1846
  743MOL0     C 2428  10.206   5.333   5.369 -1.1390 -1.1831 -0.3961
  743MOL0     C 2429  10.264   5.314   5.489  0.5517 -0.1764 -1.1792
  743MOL0     C 2430  10.227   5.208   5.574 -0.9339  0.8182 -0.3928
  743MOL0     C 2431  10.152   5.099   5.527  0.0958  0.0599 -0.3228
  743MOL0     O 2432  10.122   4.986   5.600  0.3117  1.4288  0.0270
  743MOL0     C 2433  10.125   4.994   5.735 -0.0483  0.1092  0.2919
  743MOL0     C 2434  10.262   4.930   5.787  1.1989  0.1627 -0.4704
  743MOL0     C 2435  10.303   4.805   5.711  0.4603  0.1054 -0.9137
  743MOL0     C 2436  10.423   4.724   5.772 -0.3617  0.4423  0.0993
  743MOL0     C 2437  10.565   4.777   5.727  0.4659 -0.0133  0.0396
  743MOL0     C 2438  10.667   4.678   5.774 -0.4993  0.5652  0.7543
  743MOL0     C 2439  10.808   4.693   5.707  0.2891 -0.0995 -0.7417
  743MOL0     C 2440  10.891   4.811   5.765 -0.1468 -0.1592  0.2134
  743MOL0    Cl 2441  10.914   4.776   5.939 -0.2413 -0.3042 -0.0062
  743MOL0     C 2442  10.095   5.123   5.399 -0.4781 -0.1788  0.9306
  743MOL0     C 2443  10.118   5.246   5.330  0.8740 -0.0241 -0.1861
  743MOL0     O 2444  10.201   5.374   5.077  0.1283  0.4099 -0.5683
  743MOL0     C 2445  10.326   5.678   5.175 -0.5944  1.1264 -0.2297
  743MOL0     C 2446  10.350   5.803   5.143  0.0945  0.3936 -0.3866
  743MOL0     N 2447  10.169   6.568   5.083  0.0840  0.3270  0.7980
  743MOL0     N 2448  10.066   6.638   5.129 -0.4670 -0.1667  0.2631
  743MOL0     C 2449  10.210   7.098   6.091 -0.7379 -0.1930  0.6246
  743MOL0     C 2450  10.200   7.133   6.229 -0.2454  0.0666  0.1494
  743MOL0     C 2451  10.210   7.056   6.633  0.0111  0.1421  0.1852
  743MOL0     C 2452  10.260   6.988   6.749 -0.0115  0.0545  0.0796
  743MOL0     C 2453  10.185   6.970   6.869  0.3276  0.9252 -0.0506
  743MOL0     C 2454  10.064   7.029   6.878  0.8081  0.1721  0.5062
  743MOL0     O 2455   9.990   7.007   6.989  0.4682 -0.6198 -0.4778
  743MOL0     C 2456   9.850   7.055   7.008  0.1673  0.4558 -0.5306
  743MOL0     C 2457   9.762   6.952   7.056  0.6061 -0.1640  0.2910
  743MOL0     C 2458   9.731   6.845   6.945  0.2174  0.4398 -0.7334
  743MOL0     C 2459   9.632   6.728   6.976  0.7311  0.1906  0.4947
  743MOL0     C 2460   9.498   6.780   6.981  0.6635 -0.2598 -0.0653
  743MOL0     C 2461   9.390   6.840   6.974  0.0809  1.7783  0.1856
  743MOL0     C 2462  10.014   7.097   6.771 -1.4426  0.2746 -0.6123
  743MOL0     C 2463  10.087   7.120   6.654  0.0114  0.6814  0.1384
  743MOL0     C 2464  10.007   7.203   6.554 -0.1217  0.7104  0.5551
  743MOL0     H 2465  10.520   7.199   6.324 -0.2068 -0.0867  0.0975
  743MOL0     H 2466  10.546   7.139   6.068  0.0815 -0.8877  1.0064
  743MOL0     H 2467  10.317   7.143   5.721  1.2125 -2.3490 -0.5375
  743MOL0     H 2468  10.195   7.161   5.840  1.3986  2.4948 -0.4273
  743MOL0     H 2469  10.324   6.906   5.718  0.4200  0.1503 -0.2172
  743MOL0     H 2470  10.221   6.882   5.860 -0.7957  2.3450  1.8189
  743MOL0     H 2471  10.046   6.990   5.769  1.8612  0.0017  1.7243
  743MOL0     H 2472  10.137   7.049   5.619 -1.4150 -0.1517 -0.5612
  743MOL0     H 2473  10.183   6.795   5.583  0.3726  0.7896  0.7621
  743MOL0     H 2474  10.051   6.774   5.691 -0.2189  1.0739  1.7316
  743MOL0     H 2475  10.027   6.949   5.437 -2.7497 -0.8284 -2.3539
  743MOL0     H 2476   9.902   6.932   5.543  1.1000  2.3671  0.2025
  743MOL0     H 2477  10.054   6.720   5.398  0.2321 -1.9047  1.4983
  743MOL0     H 2478   9.921   6.680   5.523 -0.1932  0.7660  1.6290
  743MOL0     H 2479   9.882   6.823   5.261  0.4802 -0.8788 -0.9179
  743MOL0     H 2480   9.760   6.753   5.383  0.9491 -0.7484  0.3947
  743MOL0     H 2481   9.834   6.520   5.324  3.3052  0.3028 -0.5687
  743MOL0     H 2482   9.776   6.598   5.175 -0.7378  1.1400 -0.9849
  743MOL0     H 2483   9.978   6.344   5.241  0.5898 -0.2443  0.3580
  743MOL0     H 2484  10.212   6.234   5.152 -0.6138 -0.0158 -0.6414
  743MOL0     H 2485  10.332   6.364   5.145 -0.6385  0.5503 -0.8212
  743MOL0     H 2486  10.170   6.242   4.925 -0.7682 -0.5747  2.3586
  743MOL0     H 2487  10.278   6.379   4.904 -0.7162  1.3128  1.6362
  743MOL0     H 2488  10.405   6.174   4.846 -1.8517  0.6367  0.0669
  743MOL0     H 2489  10.478   6.254   4.979 -0.3227 -1.8817  2.0798
  743MOL0     H 2490  10.455   6.006   4.985  0.1789  0.8469 -0.8542
  743MOL0     H 2491  10.396   6.084   5.132  3.6169 -1.0851 -1.0082
  743MOL0     H 2492  10.065   5.863   4.964  0.1376  3.3184  2.5198
  743MOL0     H 2493   9.946   5.556   5.103 -2.4882 -0.7732 -1.3217
  743MOL0     H 2494  10.012   5.532   4.934  1.3606 -1.2969  1.6912
  743MOL0     H 2495   9.932   5.680   4.966 -1.0253 -2.8637 -0.7114
  743MOL0     H 2496  10.333   5.389   5.525 -1.0646  0.8545 -0.1085
  743MOL0     H 2497  10.266   5.200   5.675 -2.5058 -0.4523  0.1486
  743MOL0     H 2498  10.094   5.095   5.764 -0.2845 -0.1212  0.8458
  743MOL0     H 2499  10.043   4.940   5.783 -2.2837  2.7080 -0.3345
  743MOL0     H 2500  10.342   5.004   5.780  1.5321  0.0345  1.5069
  743MOL0     H 2501  10.259   4.905   5.893 -2.2067 -1.2367 -0.7415
  743MOL0     H 2502  10.331   4.831   5.608 -0.8591  1.7098 -0.9034
  743MOL0     H 2503  10.219   4.736   5.707  0.4712 -0.0602  1.1396
  743MOL0     H 2504  10.408   4.621   5.740  2.1331  0.3424 -1.0292
  743MOL0     H 2505  10.414   4.730   5.881 -1.6208  2.2417 -0.0563
  743MOL0     H 2506  10.555   4.787   5.619 -1.4985 -3.3894 -0.2179
  743MOL0     H 2507  10.588   4.879   5.760 -1.4371  0.1875  0.8622
  743MOL0     H 2508  10.643   4.579   5.735  0.4095  0.8073 -0.4777
  743MOL0     H 2509  10.672   4.671   5.883 -2.2376 -3.8153  0.7559
  743MOL0     H 2510  10.797   4.721   5.602  0.1234  0.2098 -0.6419
  743MOL0     H 2511  10.860   4.597   5.712 -2.6969 -1.8983 -1.3353
  743MOL0     H 2512  10.848   4.911   5.752 -1.6787 -0.6926  0.9061
  743MOL0     H 2513  10.992   4.797   5.724 -0.1739 -2.9108  0.8995
  743MOL0     H 2514  10.031   5.053   5.347 -1.4710  1.2218  0.1699
  743MOL0     H 2515  10.061   5.266   5.240 -1.1599 -0.1050  1.0213
  743MOL0     H 2516  10.398   5.620   5.232 -2.8143 -2.1472 -0.4937
  743MOL0     H 2517  10.439   5.856   5.175  0.0163  1.6328 -2.0336
  743MOL0     H 2518  10.128   7.072   6.025 -0.2053  1.5918 -0.8366
  743MOL0     H 2519  10.100   7.127   6.269 -0.7909  2.7751 -0.6351
  743MOL0     H 2520  10.353   6.934   6.737  1.6327  2.5242  1.0154
  743MOL0     H 2521  10.239   6.920   6.948 -0.9585 -1.9269 -0.8538
  743MOL0     H 2522   9.861   7.133   7.084  1.9593 -1.3102  1.1504
  743MOL0     H 2523   9.806   7.108   6.923  2.1366  0.6547 -1.4885
  743MOL0     H 2524   9.672   7.004   7.089  2.6598  4.1236 -0.1277
  743MOL0     H 2525   9.818   6.890   7.127  0.4163 -2.9296 -1.8280
  743MOL0     H 2526   9.701   6.895   6.852 -0.1872 -1.9887 -1.9834
  743MOL0     H 2527   9.827   6.800   6.917  0.1076  0.1999 -0.7275
  743MOL0     H 2528   9.651   6.696   7.079 -2.9735 -1.6925  0.7595
  743MOL0     H 2529   9.641   6.643   6.908  2.7346 -0.2348  1.2347
  743MOL0     H 2530   9.305   6.906   6.969 -2.0108 -0.8103 -1.0302
  743MOL0     H 2531   9.923   7.155   6.773 -2.0250 -0.6255 -0.2624
  743MOL0     H 2532   9.926   7.258   6.603 -1.9947 -1.5800  0.2381
  743MOL0     H 2533  10.072   7.279   6.508  2.7317 -1.4727  0.7098
  743MOL0     H 2534   9.969   7.141   6.472 -1.1511 -1.9492  2.8849
  744MOL0     O 2535   4.469   8.225   8.027 -0.5640  0.9032 -0.6965
  744MOL0     C 2536   4.546   8.310   7.984  0.2050 -0.3445 -0.3017
  744MOL0     O 2537   4.659   8.290   7.909 -0.7578 -0.0055  0.6705
  744MOL0     C 2538   4.696   8.152   7.878  0.2376 -0.7135  0.2278
  744MOL0     C 2539   4.815   8.094   7.917  0.1150 -0.0715 -0.1113
  744MOL0     C 2540   4.858   7.975   7.860  0.2273 -0.1186 -0.0008
  744MOL0     C 2541   4.787   7.917   7.754 -0.5617  0.1107  0.1894
  744MOL0     O 2542   4.834   7.804   7.687  1.1221  0.4556  0.5332
  744MOL0     C 2543   4.730   7.697   7.648 -1.2265 -0.7301 -0.1046
  744MOL0     C 2544   4.805   7.566   7.665 -0.2881  0.0954  0.3069
  744MOL0     C 2545   4.711   7.441   7.660 -0.0042 -0.4995  0.9570
  744MOL0     C 2546   4.797   7.310   7.673 -0.7002  1.5247 -0.1869
  744MOL0     C 2547   4.855   7.267   7.535  0.1121  0.5531  0.3197
  744MOL0     C 2548   4.954   7.143   7.558 -0.2162  0.1212  0.5212
  744MOL0     C 2549   5.077   7.167   7.644 -0.0031  0.0644 -0.1528
  744MOL0     C 2550   5.175   7.049   7.617  0.4068  0.2950 -0.5358
  744MOL0     N 2551   5.293   7.067   7.705 -0.9228  0.2538  0.5290
  744MOL0     C 2552   5.298   7.052   7.841  0.4848 -0.0817 -0.2234
  744MOL0     C 2553   5.426   7.077   7.875 -0.3356  0.1536  0.1570
  744MOL0     C 2554   5.489   7.072   8.012 -0.1374  0.0948  0.1313
  744MOL0     C 2555   5.521   6.926   8.061  0.6769  0.7473  0.2281
  744MOL0     C 2556   5.598   6.922   8.189  0.0499  0.4268 -0.1269
  744MOL0     C 2557   5.739   6.875   8.166 -0.3852  0.4122  0.1636
  744MOL0     O 2558   5.816   6.971   8.090  0.4519 -0.1244 -0.5465
  744MOL0     C 2559   5.952   6.966   8.075 -0.4685 -0.0965 -0.0662
  744MOL0     C 2560   6.028   7.058   7.993 -0.2454 -0.3605  0.1354
  744MOL0     C 2561   6.170   7.062   7.984 -0.8938  0.9058  0.3586
  744MOL0     C 2562   6.234   7.177   7.897  0.3898 -0.0773  0.3302
  744MOL0     C 2563   6.242   6.962   8.067 -0.6924  0.1349  0.7371
  744MOL0     C 2564   6.387   6.938   8.071 -0.2956  0.5351  0.0275
  744MOL0     O 2565   6.438   6.851   8.163  0.4968 -0.1578  0.5974
  744MOL0     C 2566   6.572   6.817   8.150  0.4108  0.7649 -0.0231
  744MOL0     C 2567   6.607   6.686   8.133 -0.2043  0.1619  1.4478
  744MOL0     C 2568   6.738   6.641   8.131 -0.8990  0.5667  0.0808
  744MOL0     C 2569   6.846   6.730   8.140  0.4078 -0.2137 -0.4348
  744MOL0     O 2570   6.966   6.676   8.184  0.5101 -0.7574 -0.7234
  744MOL0     C 2571   7.069   6.730   8.106 -0.1415  0.1654  0.3506
  744MOL0     C 2572   7.204   6.680   8.149 -0.2316  0.6290 -0.0471
  744MOL0     C 2573   7.329   6.743   8.076  0.8162  0.6971 -0.1222
  744MOL0     C 2574   7.458   6.666   8.113 -0.0106  0.1447 -0.3965
  744MOL0     C 2575   7.579   6.741   8.063 -0.2417  0.0461  0.2893
  744MOL0     C 2576   7.714   6.684   8.095 -0.4544  0.7938  0.2121
  744MOL0     C 2577   7.809   6.799   8.058  0.1892 -0.6047  0.1516
  744MOL0     C 2578   7.854   6.888   8.175  0.3501 -0.3464 -0.1972
  744MOL0    Cl 2579   7.982   6.812   8.272  0.0776  0.0193 -0.4587
  744MOL0     C 2580   6.814   6.869   8.138 -0.4259  0.0363 -0.5112
  744MOL0     C 2581   6.682   6.906   8.159  0.2752 -0.6453 -0.2332
  744MOL0     O 2582   6.457   6.990   7.982 -0.0433 -0.5692 -0.1079
  744MOL0     C 2583   6.161   6.872   8.146 -0.2834  0.2001 -0.5245
  744MOL0     C 2584   6.030   6.876   8.163  0.2739 -1.0350 -0.9365
  744MOL0     N 2585   5.496   7.110   7.764 -0.2476  0.0279  0.1814
  744MOL0     N 2586   5.419   7.089   7.665  0.3128 -0.8522  0.1470
  744MOL0     C 2587   4.664   7.974   7.717  0.1033  0.0998  0.3962
  744MOL0     C 2588   4.614   8.079   7.789 -0.0369  0.5485  0.2710
  744MOL0     C 2589   4.536   8.448   8.039  0.4458  0.1204 -0.1255
  744MOL0     C 2590   4.642   8.530   8.025  0.2314 -1.0482  0.0018
  744MOL0     C 2591   4.646   8.669   8.057  0.0750 -0.6889 -0.3382
  744MOL0     C 2592   4.530   8.725   8.121 -0.3089 -0.2772 -0.0691
  744MOL0     O 2593   4.515   8.861   8.160 -0.2682  0.5928 -0.1223
  744MOL0     C 2594   4.556   8.965   8.076 -0.0259 -0.0865 -0.6053
  744MOL0     C 2595   4.500   8.961   7.935 -0.7357 -0.2114  0.2173
  744MOL0     C 2596   4.355   8.923   7.918 -0.3792 -0.3511  0.6722
  744MOL0     C 2597   4.249   9.015   7.990 -0.8610  0.2341 -0.4797
  744MOL0     C 2598   4.257   9.150   7.946  0.3874  1.3256 -0.1988
  744MOL0     C 2599   4.250   9.264   7.897 -0.0519 -0.5207 -0.4141
  744MOL0     C 2600   4.429   8.630   8.161 -0.2105 -0.6260  0.6513
  744MOL0     C 2601   4.425   8.498   8.113  0.2428 -0.6295  0.1186
  744MOL0     C 2602   4.294   8.419   8.126  0.2087 -0.3590 -0.1358
  744MOL0     H 2603   4.870   8.148   7.994 -1.4628  0.9174  0.3708
  744MOL0     H 2604   4.957   7.943   7.891 -0.0432 -1.2330 -0.2469
  744MOL0     H 2605   4.696   7.702   7.544 -0.0706  1.1464 -0.4424
  744MOL0     H 2606   4.649   7.701   7.721 -1.6592 -0.6118 -0.5865
  744MOL0     H 2607   4.892   7.552   7.599  0.8732  0.7206  1.6515
  744MOL0     H 2608   4.842   7.567   7.768 -1.0422  0.6309  0.5819
  744MOL0     H 2609   4.647   7.437   7.748 -2.4929  1.4301 -0.6112
  744MOL0     H 2610   4.639   7.447   7.577 -1.2074 -1.7340  1.8726
  744MOL0     H 2611   4.883   7.335   7.736  1.6012 -1.5696 -1.8271
  744MOL0     H 2612   4.745   7.221   7.710 -0.6113  2.0902  1.3453
  744MOL0     H 2613   4.916   7.347   7.493  0.5051  0.0633 -0.0404
  744MOL0     H 2614   4.780   7.235   7.461  0.7614  1.9651 -1.0137
  744MOL0     H 2615   4.895   7.058   7.595 -1.1405  0.2220 -0.6592
  744MOL0     H 2616   4.987   7.127   7.455 -0.6236 -2.0101  0.6660
  744MOL0     H 2617   5.041   7.165   7.747  0.1852 -3.1248 -0.0399
  744MOL0     H 2618   5.131   7.258   7.616 -1.4889  1.2902  0.8073
  744MOL0     H 2619   5.120   6.963   7.656  0.7412  1.3478  2.4577
  744MOL0     H 2620   5.205   7.028   7.513  1.6987 -3.1259  0.3961
  744MOL0     H 2621   5.217   7.022   7.908  0.0028  1.5658 -0.0314
  744MOL0     H 2622   5.433   7.133   8.084  0.7383  1.4959 -0.3360
  744MOL0     H 2623   5.588   7.120   8.015  0.2721 -0.7450  0.6196
  744MOL0     H 2624   5.421   6.880   8.068 -0.2223  2.4113 -0.9284
  744MOL0     H 2625   5.575   6.875   7.981 -0.9588 -0.7027 -0.0224
  744MOL0     H 2626   5.600   7.023   8.232 -0.8200  1.3739 -2.1488
  744MOL0     H 2627   5.548   6.847   8.250 -2.5448 -0.2395 -2.8174
  744MOL0     H 2628   5.778   6.876   8.268 -1.0816  2.1732  0.4494
  744MOL0     H 2629   5.731   6.778   8.116  0.9366  1.5783 -2.4735
  744MOL0     H 2630   5.976   7.126   7.925  0.4551 -1.5429 -1.6631
  744MOL0     H 2631   6.343   7.172   7.907  0.8892  2.6870 -2.2657
  744MOL0     H 2632   6.200   7.275   7.932  3.5818  2.2312 -2.3458
  744MOL0     H 2633   6.204   7.162   7.793 -0.9896 -1.8069  0.9256
  744MOL0     H 2634   6.517   6.627   8.129  0.6708 -1.2958  2.3748
  744MOL0     H 2635   6.752   6.534   8.127  0.0839  0.7125 -1.0155
  744MOL0     H 2636   7.045   6.701   8.003 -2.0585 -3.6036  1.6609
  744MOL0     H 2637   7.075   6.838   8.121  1.9303  0.0611  0.4790
  744MOL0     H 2638   7.209   6.709   8.254 -0.6761 -0.0644  0.1777
  744MOL0     H 2639   7.218   6.571   8.148  0.0356  0.6573  0.7203
  744MOL0     H 2640   7.348   6.847   8.105  1.6303  1.8814 -4.2404
  744MOL0     H 2641   7.312   6.742   7.968 -0.0937 -0.3576  0.0170
  744MOL0     H 2642   7.458   6.567   8.066 -1.5193  0.1295 -0.3967
  744MOL0     H 2643   7.477   6.651   8.219 -0.2772 -0.5627 -0.4444
  744MOL0     H 2644   7.572   6.756   7.955  1.7629 -2.1462 -0.2035
  744MOL0     H 2645   7.569   6.840   8.108 -0.6822  0.7470 -1.2744
  744MOL0     H 2646   7.737   6.597   8.033 -1.2929 -0.0216  1.0291
  744MOL0     H 2647   7.731   6.656   8.199 -0.5320  1.8375  0.5202
  744MOL0     H 2648   7.764   6.865   7.982  0.9894  0.6466  0.7274
  744MOL0     H 2649   7.901   6.765   8.009 -0.5654  0.6654 -2.3381
  744MOL0     H 2650   7.770   6.900   8.244 -0.4430 -2.7743 -0.6555
  744MOL0     H 2651   7.892   6.987   8.151 -1.8270  0.8208  0.8153
  744MOL0     H 2652   6.895   6.940   8.133 -1.5873  1.2888 -3.0791
  744MOL0     H 2653   6.660   7.011   8.175 -0.5525 -0.5191 -2.0692
  744MOL0     H 2654   6.214   6.795   8.202 -2.5351 -1.3324 -0.3993
  744MOL0     H 2655   5.992   6.802   8.233  1.4500 -1.2837 -0.5432
  744MOL0     H 2656   4.607   7.933   7.634  0.8534 -2.2445  0.9483
  744MOL0     H 2657   4.516   8.115   7.757 -0.3499 -0.3904  0.1540
  744MOL0     H 2658   4.728   8.500   7.966  2.1886  2.6913  0.6158
  744MOL0     H 2659   4.729   8.728   8.020 -1.8191  3.6482  1.6891
  744MOL0     H 2660   4.530   9.060   8.122  0.6605 -0.0699 -0.2408
  744MOL0     H 2661   4.666   8.968   8.077 -0.0133  0.9315  1.7098
  744MOL0     H 2662   4.566   8.894   7.879 -2.1334 -1.6781  0.2480
  744MOL0     H 2663   4.509   9.055   7.879  1.8446 -0.4407  0.1293
  744MOL0     H 2664   4.336   8.922   7.810 -0.1946  1.1332  0.6103
  744MOL0     H 2665   4.343   8.822   7.957  0.5883  0.4270  3.1612
  744MOL0     H 2666   4.273   9.003   8.096 -1.7802 -0.6351 -0.3594
  744MOL0     H 2667   4.149   8.979   7.962 -1.3996 -0.7688  2.4146
  744MOL0     H 2668   4.239   9.356   7.844 -2.7252 -1.5618 -1.8484
  744MOL0     H 2669   4.341   8.658   8.218 -1.7405  0.3009 -2.0048
  744MOL0     H 2670   4.241   8.392   8.035  1.7430 -4.0463 -0.1298
  744MOL0     H 2671   4.307   8.328   8.186  1.0399 -0.4905 -0.5067
  744MOL0     H 2672   4.224   8.484   8.180 -0.8574 -0.5652 -1.2282
  745MOL0     O 2673  10.164   5.539   2.041  0.4489  0.0052  0.2950
  745MOL0     C 2674  10.066   5.607   2.002 -0.5758  0.4187 -0.3033
  745MOL0     O 2675   9.971   5.649   2.084  0.0034 -0.3184 -0.2015
  745MOL0     C 2676   9.928   5.583   2.188  0.6699 -0.5930 -0.6883
  745MOL0     C 2677   9.921   5.444   2.190 -0.2781  0.4696 -0.4976
  745MOL0     C 2678   9.854   5.385   2.292 -0.3685 -0.4894 -0.0046
  745MOL0     C 2679   9.796   5.454   2.398  0.4761 -1.1558 -0.3956
  745MOL0     O 2680   9.711   5.392   2.489 -0.5629  0.4025 -0.4266
  745MOL0     C 2681   9.743   5.255   2.531  0.5066 -0.0244  0.5768
  745MOL0     C 2682   9.623   5.215   2.608  0.3572  0.6688  0.2765
  745MOL0     C 2683   9.623   5.086   2.686 -0.3525 -0.5485 -0.1153
  745MOL0     C 2684   9.607   4.972   2.595 -0.6640 -0.1401  0.1713
  745MOL0     C 2685   9.619   4.845   2.672 -0.2650  0.2825 -0.6617
  745MOL0     C 2686   9.728   4.761   2.602 -0.0452  0.9668  0.5535
  745MOL0     C 2687   9.745   4.622   2.661 -0.9893 -1.3958 -0.2784
  745MOL0     C 2688   9.649   4.510   2.630  0.2104 -0.9452  0.6374
  745MOL0     N 2689   9.501   4.532   2.656  0.1881 -0.6608  0.2499
  745MOL0     C 2690   9.445   4.584   2.768  0.0772  0.3092 -0.2991
  745MOL0     C 2691   9.314   4.596   2.748  0.3523  1.1851  0.1170
  745MOL0     C 2692   9.217   4.649   2.851  0.5383  0.4216 -0.0922
  745MOL0     C 2693   9.127   4.756   2.794 -0.4389 -0.0342  0.6701
  745MOL0     C 2694   9.207   4.882   2.741  0.4055 -0.2316 -0.3439
  745MOL0     C 2695   9.119   5.007   2.728  0.3172  0.3993  0.1580
  745MOL0     O 2696   9.066   5.054   2.852  0.1857  0.0963  0.1872
  745MOL0     C 2697   9.150   5.114   2.946  0.7514 -0.1848  0.3913
  745MOL0     C 2698   9.283   5.152   2.923 -0.2085  0.0327  0.1331
  745MOL0     C 2699   9.356   5.210   3.016  0.0524  0.5230 -0.3579
  745MOL0     C 2700   9.502   5.247   2.974  0.2045  0.6576  0.3460
  745MOL0     C 2701   9.307   5.216   3.149  0.7713 -0.5354  0.0559
  745MOL0     C 2702   9.385   5.286   3.259  0.1304  0.6830 -0.3190
  745MOL0     O 2703   9.301   5.342   3.353 -0.0417  0.3840 -0.3894
  745MOL0     C 2704   9.353   5.409   3.464 -0.1168 -0.7707  0.0581
  745MOL0     C 2705   9.468   5.486   3.476  0.6797 -0.7418  0.0350
  745MOL0     C 2706   9.487   5.559   3.586 -0.6532 -0.5380 -0.1727
  745MOL0     C 2707   9.403   5.555   3.705 -0.1484  0.5085  0.3945
  745MOL0     O 2708   9.424   5.607   3.829  0.0509  0.3228 -0.4214
  745MOL0     C 2709   9.473   5.744   3.825  0.7225  0.0408 -0.0543
  745MOL0     C 2710   9.628   5.732   3.868  0.1549 -0.1016  0.0019
  745MOL0     C 2711   9.708   5.862   3.889 -0.2286 -0.0310 -1.3302
  745MOL0     C 2712   9.766   5.938   3.769  1.0604  0.9160 -0.2355
  745MOL0     C 2713   9.841   6.057   3.831 -0.3240 -0.3193  0.3794
  745MOL0     C 2714   9.924   6.140   3.732 -0.4773  0.7348 -0.2260
  745MOL0     C 2715   9.999   6.265   3.805  1.0887  0.5832  0.1245
  745MOL0     C 2716  10.122   6.301   3.735 -1.4320  0.1347 -0.1358
  745MOL0    Cl 2717  10.161   6.474   3.772  0.2592 -0.1318 -0.7663
  745MOL0     C 2718   9.300   5.457   3.691  0.2389  0.1635 -0.7723
  745MOL0     C 2719   9.266   5.391   3.572 -0.8712 -0.1956 -0.1393
  745MOL0     O 2720   9.503   5.272   3.269  0.0112 -0.3795 -0.8929
  745MOL0     C 2721   9.169   5.186   3.174 -0.4249  0.2382 -0.4915
  745MOL0     C 2722   9.089   5.129   3.071  0.5229 -0.0854  0.0096
  745MOL0     N 2723   9.280   4.533   2.628  0.0599  0.6461  0.2048
  745MOL0     N 2724   9.395   4.507   2.573 -0.2416  0.6823  0.9383
  745MOL0     C 2725   9.801   5.595   2.395 -1.2143 -0.1104  0.3000
  745MOL0     C 2726   9.869   5.657   2.296 -0.3599 -0.1003 -0.2260
  745MOL0     C 2727  10.056   5.634   1.854 -0.4446 -0.1194 -0.7706
  745MOL0     C 2728  10.139   5.557   1.775  0.8929  0.2526 -0.1506
  745MOL0     C 2729  10.132   5.562   1.635 -0.6412  0.0056  0.3194
  745MOL0     C 2730  10.043   5.645   1.574  0.3879 -0.1806 -0.2269
  745MOL0     O 2731  10.040   5.665   1.439  0.1617 -0.6720  0.5398
  745MOL0     C 2732  10.159   5.660   1.356  0.0356  1.0217  0.3441
  745MOL0     C 2733  10.111   5.653   1.210 -0.5619 -0.6488 -0.0212
  745MOL0     C 2734  10.015   5.541   1.196  0.7951  0.3500  0.5208
  745MOL0     C 2735   9.961   5.530   1.048  0.3761  0.0094  1.0557
  745MOL0     C 2736   9.848   5.615   1.028  0.4351 -1.1218  0.5357
  745MOL0     C 2737   9.749   5.685   1.010 -0.2560 -0.2837  0.3775
  745MOL0     C 2738   9.956   5.715   1.658 -0.3631 -0.8271  0.5955
  745MOL0     C 2739   9.959   5.715   1.795  0.3829 -0.3197  0.9502
  745MOL0     C 2740   9.878   5.813   1.875 -0.0717 -0.0410 -0.2567
  745MOL0     H 2741   9.969   5.393   2.108  2.1558  2.8904 -0.7016
  745MOL0     H 2742   9.852   5.277   2.290  1.0338 -0.6100  1.9619
  745MOL0     H 2743   9.839   5.250   2.585  1.6500  1.3547 -1.1992
  745MOL0     H 2744   9.754   5.194   2.441  1.5490 -1.2095  1.4695
  745MOL0     H 2745   9.605   5.290   2.686  1.5587  0.8552  0.3844
  745MOL0     H 2746   9.536   5.203   2.542  1.4479  0.6349 -1.2044
  745MOL0     H 2747   9.721   5.087   2.736  0.2253  1.3677 -1.1883
  745MOL0     H 2748   9.541   5.095   2.757 -0.4897  0.9205 -0.4294
  745MOL0     H 2749   9.509   4.965   2.549 -0.0280 -0.7753 -1.1261
  745MOL0     H 2750   9.681   4.977   2.515 -1.6555 -0.6155 -0.7900
  745MOL0     H 2751   9.521   4.797   2.666 -0.0539  0.0786 -3.6126
  745MOL0     H 2752   9.645   4.858   2.778  1.5544 -0.7285 -0.9580
  745MOL0     H 2753   9.704   4.744   2.497  1.3736 -3.2554  0.7467
  745MOL0     H 2754   9.817   4.820   2.628  1.0258 -1.4948  2.9306
  745MOL0     H 2755   9.754   4.637   2.769  1.7110  1.3033 -0.7374
  745MOL0     H 2756   9.842   4.588   2.624 -0.0709 -0.1536  0.8556
  745MOL0     H 2757   9.668   4.495   2.524 -0.3892 -0.9176  0.5237
  745MOL0     H 2758   9.678   4.414   2.673  1.2959  0.3879  3.0894
  745MOL0     H 2759   9.510   4.619   2.847  2.1680 -0.7238 -1.4623
  745MOL0     H 2760   9.280   4.695   2.928  1.0842 -0.7190  0.1769
  745MOL0     H 2761   9.156   4.569   2.897  0.6832 -1.3232 -2.7168
  745MOL0     H 2762   9.070   4.718   2.709 -0.3570  0.1969  0.5121
  745MOL0     H 2763   9.065   4.803   2.871  0.4861  3.2257 -0.4151
  745MOL0     H 2764   9.294   4.903   2.804 -1.0399 -0.2229  1.7630
  745MOL0     H 2765   9.240   4.858   2.640  0.1604  1.1873 -0.7813
  745MOL0     H 2766   9.173   5.087   2.676 -1.2614  1.3614 -0.0619
  745MOL0     H 2767   9.031   4.980   2.669  0.5053  1.4997 -0.6612
  745MOL0     H 2768   9.324   5.142   2.822  0.6934  0.0321  0.4879
  745MOL0     H 2769   9.542   5.323   3.041  1.6175  1.8528 -1.7413
  745MOL0     H 2770   9.506   5.293   2.875  3.2365  1.5424  0.7794
  745MOL0     H 2771   9.562   5.155   2.973 -0.9412 -0.1025 -0.0824
  745MOL0     H 2772   9.540   5.496   3.395  0.8319 -1.0046  0.1365
  745MOL0     H 2773   9.566   5.634   3.589 -3.4848  2.7273 -0.1968
  745MOL0     H 2774   9.466   5.802   3.733 -1.6260  0.3064  0.2376
  745MOL0     H 2775   9.416   5.794   3.904  2.9471 -1.2218  2.5308
  745MOL0     H 2776   9.638   5.676   3.961  0.5965 -4.0034 -2.1509
  745MOL0     H 2777   9.682   5.670   3.796 -0.1775 -0.3475 -0.0338
  745MOL0     H 2778   9.796   5.847   3.952 -1.9713  2.6817  2.0465
  745MOL0     H 2779   9.648   5.934   3.945 -0.6146 -1.1895 -0.2057
  745MOL0     H 2780   9.686   5.972   3.704  1.3292 -0.1284 -1.1409
  745MOL0     H 2781   9.837   5.881   3.709  0.0760  2.0101 -2.5735
  745MOL0     H 2782   9.774   6.132   3.874  0.1967  1.5295 -1.8306
  745MOL0     H 2783   9.912   6.028   3.908  0.7029 -1.1645 -0.8579
  745MOL0     H 2784   9.859   6.185   3.656 -2.2755 -2.1473 -0.5652
  745MOL0     H 2785   9.998   6.080   3.678  0.3694  2.3309 -0.9209
  745MOL0     H 2786  10.014   6.238   3.910 -1.8886 -3.4600 -0.2170
  745MOL0     H 2787   9.932   6.351   3.806  0.1877 -0.0912  0.1163
  745MOL0     H 2788  10.101   6.283   3.629 -1.1367 -0.6956 -0.0680
  745MOL0     H 2789  10.199   6.231   3.769 -1.4053  1.2102  2.2346
  745MOL0     H 2790   9.239   5.436   3.778 -1.1906  2.7273 -1.0336
  745MOL0     H 2791   9.182   5.323   3.572  0.2795 -1.6667 -0.1204
  745MOL0     H 2792   9.131   5.196   3.275 -2.7464 -1.9276 -1.0664
  745MOL0     H 2793   8.988   5.090   3.076  0.4835 -0.0345 -0.3565
  745MOL0     H 2794   9.759   5.660   2.471 -1.8177 -1.4388  1.1358
  745MOL0     H 2795   9.893   5.763   2.300 -1.7792  0.2039  1.7156
  745MOL0     H 2796  10.222   5.497   1.812 -0.0982 -1.3133 -0.3815
  745MOL0     H 2797  10.204   5.508   1.574  1.4687  1.5947  1.2714
  745MOL0     H 2798  10.220   5.746   1.388  0.1749  1.2241 -0.4336
  745MOL0     H 2799  10.208   5.565   1.378 -1.6896 -0.5756 -2.1823
  745MOL0     H 2800  10.198   5.651   1.143 -0.0420 -0.3725  0.6321
  745MOL0     H 2801  10.052   5.742   1.188  0.0402 -0.0113  0.8672
  745MOL0     H 2802  10.077   5.452   1.211 -1.6014 -2.0540 -2.5292
  745MOL0     H 2803   9.936   5.540   1.271  1.2201 -0.8368  0.9664
  745MOL0     H 2804   9.926   5.429   1.025 -1.2296  0.6736  0.3959
  745MOL0     H 2805  10.044   5.546   0.979  1.7784 -0.4452  2.5623
  745MOL0     H 2806   9.661   5.742   0.988 -0.6768 -1.8024 -2.2401
  745MOL0     H 2807   9.893   5.790   1.613  3.1756  2.3003  0.3659
  745MOL0     H 2808   9.800   5.769   1.937 -0.3153  1.0143  0.2196
  745MOL0     H 2809   9.934   5.875   1.946 -0.0865  0.0814 -0.3510
  745MOL0     H 2810   9.832   5.887   1.808  0.9172  1.2317  0.4039
  746MOL0     O 2811   9.304   9.082   9.594  0.8577  0.3546  0.8497
  746MOL0     C 2812   9.317   9.016   9.491 -0.4523 -0.3947  0.0535
  746MOL0     O 2813   9.414   8.918   9.472  0.1444 -0.4157 -0.8537
  746MOL0     C 2814   9.529   8.900   9.540 -0.3086 -0.3412  0.2189
  746MOL0     C 2815   9.605   8.791   9.506 -0.5958  1.3212  0.7048
  746MOL0     C 2816   9.731   8.771   9.561  0.2600  0.6996 -0.3433
  746MOL0     C 2817   9.778   8.846   9.663 -0.6645 -1.0520  0.0645
  746MOL0     O 2818   9.892   8.816   9.738  0.1326  0.1879 -0.1899
  746MOL0     C 2819   9.968   8.699   9.713  0.7080  1.6476 -0.1954
  746MOL0     C 2820  10.075   8.677   9.817  0.2701 -0.2049 -0.8758
  746MOL0     C 2821  10.187   8.590   9.768 -0.5976  1.1902 -0.4553
  746MOL0     C 2822  10.263   8.514   9.883  0.5639  0.1166 -0.0131
  746MOL0     C 2823  10.408   8.476   9.862  0.6975  0.5871 -0.0155
  746MOL0     C 2824  10.442   8.377   9.753 -0.7589 -0.5036  0.4185
  746MOL0     C 2825  10.592   8.353   9.743  0.1560  0.0592 -0.3255
  746MOL0     C 2826  10.615   8.243   9.633 -0.1640 -0.1064 -0.2269
  746MOL0     N 2827  10.758   8.249   9.605  0.1450  0.9916  0.1241
  746MOL0     C 2828  10.868   8.212   9.677 -0.0395  1.1950 -0.6066
  746MOL0     C 2829  10.978   8.251   9.606 -0.6000  0.0970 -0.9784
  746MOL0     C 2830  11.128   8.237   9.643 -0.5600 -0.3824 -0.8163
  746MOL0     C 2831  11.202   8.372   9.652 -0.5714 -0.1166  0.4233
  746MOL0     C 2832  11.143   8.450   9.766 -0.2677  0.0442  0.1437
  746MOL0     C 2833  11.210   8.588   9.775 -0.2625 -0.8466 -0.1618
  746MOL0     O 2834  11.338   8.575   9.833  0.0606 -0.2223  0.2205
  746MOL0     C 2835  11.416   8.686   9.837  0.2558  0.3032 -0.5819
  746MOL0     C 2836  11.368   8.818   9.825 -0.2184 -0.2708  0.4616
  746MOL0     C 2837  11.459   8.922   9.811  0.6387  0.0914 -0.7394
  746MOL0     C 2838  11.396   9.057   9.768 -0.4528 -0.3378 -0.1807
  746MOL0     C 2839  11.601   8.902   9.829  0.0468 -0.3057 -0.3811
  746MOL0     C 2840  11.700   9.008   9.841  0.6321  0.5466  0.0214
  746MOL0     O 2841  11.830   8.974   9.820 -0.2704  0.5887 -0.3546
  746MOL0     C 2842  11.941   9.059   9.841 -0.3532 -0.5044 -1.1693
  746MOL0     C 2843  12.053   9.050   9.758 -0.3406  0.0224  0.2047
  746MOL0     C 2844  12.162   9.128   9.774 -0.4636  0.4522  0.1290
  746MOL0     C 2845  12.177   9.211   9.885  0.4480  0.6823 -0.1668
  746MOL0     O 2846  12.290   9.282   9.907 -0.2288  0.2990 -0.4755
  746MOL0     C 2847  12.306   9.398   9.828 -0.0861  0.0730 -1.1425
  746MOL0     C 2848  12.451   9.440   9.804 -0.2151 -0.8451 -0.1878
  746MOL0     C 2849  12.539   9.322   9.747 -0.3384 -0.0651  0.8194
  746MOL0     C 2850  12.646   9.387   9.663  0.4614  0.2095 -0.1741
  746MOL0     C 2851  12.727   9.278   9.599  0.1396  0.2408 -0.1841
  746MOL0     C 2852  12.833   9.348   9.519 -0.9961  0.1987  0.5769
  746MOL0     C 2853  12.950   9.259   9.460 -0.3465 -0.0630  0.3989
  746MOL0     C 2854  13.087   9.296   9.524 -0.3242  0.1641  1.0674
  746MOL0    Cl 2855  13.206   9.188   9.419  0.3924 -0.1594  0.0326
  746MOL0     C 2856  12.072   9.218   9.970  0.4891 -0.4274 -0.1359
  746MOL0     C 2857  11.952   9.143   9.954 -0.3999 -0.6468  0.0641
  746MOL0     O 2858  11.667   9.122   9.851  0.8449 -0.0122 -0.1475
  746MOL0     C 2859  11.640   8.771   9.840  0.5654 -0.7191  0.5070
  746MOL0     C 2860  11.558   8.663   9.832 -0.0258 -0.5668  0.1157
  746MOL0     N 2861  10.931   8.322   9.493 -0.5495  0.6740 -0.0139
  746MOL0     N 2862  10.801   8.309   9.490  0.3623  0.9167  0.4086
  746MOL0     C 2863   9.702   8.959   9.706  0.7137 -0.8660 -0.3631
  746MOL0     C 2864   9.578   8.982   9.646  0.0171  0.1788 -0.2085
  746MOL0     C 2865   9.206   9.015   9.391 -0.1913 -0.6537 -0.5763
  746MOL0     C 2866   9.202   8.913   9.300 -0.2129 -1.1956 -0.2657
  746MOL0     C 2867   9.106   8.898   9.208 -0.5391 -0.5460  0.4310
  746MOL0     C 2868   9.003   8.987   9.185  0.0439  0.1399 -0.0524
  746MOL0     O 2869   8.901   8.965   9.099 -0.0905 -0.3999 -0.7775
  746MOL0     C 2870   8.774   9.030   9.124 -0.1083  0.2857 -0.0954
  746MOL0     C 2871   8.666   8.982   9.029  0.2323 -0.5005 -0.3957
  746MOL0     C 2872   8.644   8.832   9.033 -0.6571 -0.4072  0.4382
  746MOL0     C 2873   8.540   8.794   8.927 -0.1796 -0.0326  0.8671
  746MOL0     C 2874   8.400   8.812   8.962  0.1917  0.8914  0.5122
  746MOL0     C 2875   8.285   8.832   8.983  0.8068  0.2644  1.2391
  746MOL0     C 2876   9.008   9.102   9.270  0.4834 -0.0217  0.3588
  746MOL0     C 2877   9.113   9.119   9.370 -0.2592 -0.4145 -0.5366
  746MOL0     C 2878   9.114   9.237   9.454 -0.5836  1.0157  0.2370
  746MOL0     H 2879   9.573   8.723   9.428  0.8546  0.3112  0.9439
  746MOL0     H 2880   9.787   8.687   9.523 -0.0053  1.2628 -2.0498
  746MOL0     H 2881  10.021   8.718   9.619  0.8355  3.4702  0.2084
  746MOL0     H 2882   9.912   8.605   9.706  2.3957  0.5762  0.0175
  746MOL0     H 2883  10.109   8.776   9.850  0.5196  0.3775 -2.7785
  746MOL0     H 2884  10.026   8.631   9.904 -0.5287  1.1235 -0.5952
  746MOL0     H 2885  10.149   8.516   9.697 -3.7975 -0.8682  3.0251
  746MOL0     H 2886  10.254   8.655   9.710  0.4492 -0.6591 -1.3961
  746MOL0     H 2887  10.254   8.563   9.981  2.1702 -4.2436  2.6271
  746MOL0     H 2888  10.205   8.422   9.896 -0.5541  1.0656  2.4949
  746MOL0     H 2889  10.440   8.437   9.958 -2.5837 -0.9003  0.6161
  746MOL0     H 2890  10.468   8.563   9.833  0.1899  0.9551  0.0167
  746MOL0     H 2891  10.391   8.281   9.760 -0.1910 -0.8656 -0.2637
  746MOL0     H 2892  10.411   8.427   9.660  0.0418 -0.5637  0.1077
  746MOL0     H 2893  10.630   8.314   9.837 -1.1573 -0.2931  0.0777
  746MOL0     H 2894  10.640   8.448   9.717 -1.0126  0.9905  0.8227
  746MOL0     H 2895  10.590   8.140   9.660 -2.7820 -0.4061 -3.1875
  746MOL0     H 2896  10.567   8.267   9.538  2.0471  1.9275 -0.9397
  746MOL0     H 2897  10.866   8.162   9.773 -0.8348  0.1645 -1.1381
  746MOL0     H 2898  11.174   8.177   9.564  0.3784  0.0634 -0.6167
  746MOL0     H 2899  11.143   8.181   9.735  0.2551  0.6022 -0.3247
  746MOL0     H 2900  11.309   8.360   9.671 -0.7814  1.3146  2.9032
  746MOL0     H 2901  11.193   8.420   9.554  1.8398 -1.3541 -0.5070
  746MOL0     H 2902  11.036   8.462   9.751 -0.5617 -0.8448  1.3853
  746MOL0     H 2903  11.158   8.398   9.861 -0.2952 -0.0746  0.0836
  746MOL0     H 2904  11.213   8.640   9.679  2.2783  0.8166  0.7185
  746MOL0     H 2905  11.154   8.648   9.847  0.0994 -2.3936  1.4951
  746MOL0     H 2906  11.264   8.846   9.814  0.0055 -0.4371 -3.1332
  746MOL0     H 2907  11.299   9.036   9.722  0.8147 -1.2273 -2.6223
  746MOL0     H 2908  11.471   9.099   9.701  1.6005 -1.7405  1.1098
  746MOL0     H 2909  11.394   9.116   9.861  2.2659 -1.2305  0.5459
  746MOL0     H 2910  12.050   8.974   9.681  0.4456 -2.6662  2.6391
  746MOL0     H 2911  12.240   9.109   9.701 -0.3840  1.6585 -0.1169
  746MOL0     H 2912  12.249   9.386   9.736 -0.6060  1.7294 -1.0631
  746MOL0     H 2913  12.256   9.476   9.886  1.4367 -0.6910  1.3671
  746MOL0     H 2914  12.461   9.523   9.734 -0.9254  1.8636  2.6640
  746MOL0     H 2915  12.500   9.460   9.900  0.2207  0.2338 -0.6197
  746MOL0     H 2916  12.489   9.243   9.690  1.2733 -3.9233  4.2170
  746MOL0     H 2917  12.581   9.262   9.828 -0.8937  0.0924  1.2320
  746MOL0     H 2918  12.698   9.458   9.728 -0.2318 -1.4652  2.3730
  746MOL0     H 2919  12.590   9.431   9.581 -2.7082 -0.7287  1.3062
  746MOL0     H 2920  12.784   9.219   9.672 -0.0436 -0.9315 -0.9656
  746MOL0     H 2921  12.668   9.211   9.536  2.9615 -2.2463 -0.4153
  746MOL0     H 2922  12.876   9.437   9.565 -0.7958 -0.1146  1.0079
  746MOL0     H 2923  12.779   9.390   9.434  2.0263  1.6679 -0.7716
  746MOL0     H 2924  12.951   9.282   9.353  0.3815  0.2975  0.4745
  746MOL0     H 2925  12.930   9.154   9.485  0.4387 -0.8587 -2.0274
  746MOL0     H 2926  13.101   9.273   9.630  2.6524  2.0532  1.2070
  746MOL0     H 2927  13.101   9.402   9.502 -1.5023  0.7475  2.9012
  746MOL0     H 2928  12.083   9.293  10.049  0.4803 -0.2981 -0.2566
  746MOL0     H 2929  11.863   9.158  10.014 -0.6094 -1.0198 -0.1475
  746MOL0     H 2930  11.746   8.752   9.845  0.3017 -3.3474 -1.4703
  746MOL0     H 2931  11.600   8.563   9.833  0.4641 -0.3631  1.0154
  746MOL0     H 2932   9.740   9.027   9.780 -1.6134  3.0039 -2.3941
  746MOL0     H 2933   9.534   9.070   9.692 -0.5735  0.8002 -1.8907
  746MOL0     H 2934   9.278   8.837   9.315  3.4606  2.3730  1.5440
  746MOL0     H 2935   9.105   8.813   9.141  1.2240 -0.5310  0.3376
  746MOL0     H 2936   8.742   9.009   9.226 -1.0473 -1.1235 -0.6543
  746MOL0     H 2937   8.784   9.139   9.119 -2.0727  0.5085  0.1633
  746MOL0     H 2938   8.685   9.018   8.928  1.4597 -2.5024 -0.9405
  746MOL0     H 2939   8.576   9.031   9.066  1.2486 -0.3272  2.0307
  746MOL0     H 2940   8.741   8.793   8.999 -0.0813  1.7132 -0.4967
  746MOL0     H 2941   8.613   8.796   9.131  1.6396  0.7237  1.6574
  746MOL0     H 2942   8.559   8.688   8.909  2.3677  0.4741  0.1813
  746MOL0     H 2943   8.555   8.848   8.833 -1.2146 -0.2277  0.5838
  746MOL0     H 2944   8.181   8.857   8.996  0.2535 -0.4725 -1.2696
  746MOL0     H 2945   8.934   9.181   9.260 -0.3695 -0.8433  0.0127
  746MOL0     H 2946   9.054   9.218   9.543 -0.0514  2.0562  0.8357
  746MOL0     H 2947   9.214   9.275   9.476  0.2731 -0.2367 -1.2506
  746MOL0     H 2948   9.058   9.313   9.399 -2.9554 -1.8027 -1.5818
  747MOL0     O 2949   0.865   9.301  10.718  0.6550  0.4177  0.1031
  747MOL0     C 2950   0.856   9.374  10.814  0.0045 -0.4890  0.1773
  747MOL0     O 2951   0.737   9.397  10.876 -0.4124 -0.0940  0.0616
  747MOL0     C 2952   0.622   9.367  10.812  0.4257 -0.4949 -0.1342
  747MOL0     C 2953   0.515   9.332  10.894 -0.8083 -0.3098  0.4594
  747MOL0     C 2954   0.391   9.291  10.845 -0.8271 -0.0998 -0.2150
  747MOL0     C 2955   0.362   9.304  10.707  0.0202  0.1080 -0.5206
  747MOL0     O 2956   0.242   9.284  10.647 -0.2057 -0.0452 -0.8770
  747MOL0     C 2957   0.133   9.277  10.737 -0.1398 -0.8373  0.6932
  747MOL0     C 2958   0.021   9.357  10.668 -0.0861  0.2641  0.4122
  747MOL0     C 2959  -0.088   9.400  10.766 -1.1757 -0.4013  0.3541
  747MOL0     C 2960  -0.192   9.297  10.813 -0.7294  0.2087  0.0278
  747MOL0     C 2961  -0.312   9.363  10.875 -0.3736  0.4887  0.1941
  747MOL0     C 2962  -0.282   9.472  10.977  0.2798  0.9569  1.6193
  747MOL0     C 2963  -0.411   9.508  11.044 -0.0911 -0.6660 -0.6021
  747MOL0     C 2964  -0.396   9.611  11.153  0.0083 -0.5178 -0.7150
  747MOL0     N 2965  -0.326   9.546  11.266  0.1548  0.8585  0.1733
  747MOL0     C 2966  -0.189   9.535  11.281 -0.2011 -0.3370  0.0185
  747MOL0     C 2967  -0.184   9.506  11.416  0.1924 -0.0234  0.2877
  747MOL0     C 2968  -0.061   9.486  11.499  0.3426 -0.1402  0.1856
  747MOL0     C 2969   0.041   9.595  11.482  0.3224 -0.1392  0.4294
  747MOL0     C 2970   0.160   9.571  11.582 -0.0817  0.3044  1.2602
  747MOL0     C 2971   0.263   9.680  11.535  0.1154  0.2674  0.3546
  747MOL0     O 2972   0.377   9.691  11.626 -0.0979  0.0515 -0.6458
  747MOL0     C 2973   0.385   9.809  11.699 -0.2040 -0.2575 -0.2833
  747MOL0     C 2974   0.320   9.825  11.818 -0.0507 -0.7183  0.5108
  747MOL0     C 2975   0.343   9.938  11.906  0.3443 -0.3781  0.3443
  747MOL0     C 2976   0.261   9.949  12.036 -0.0674 -0.2596 -0.3346
  747MOL0     C 2977   0.430  10.036  11.852 -0.2761  0.5531  0.1811
  747MOL0     C 2978   0.478  10.149  11.929 -0.9953 -0.4137 -0.1960
  747MOL0     O 2979   0.535  10.256  11.866 -0.5820  1.0073 -0.2306
  747MOL0     C 2980   0.591  10.359  11.935  0.4927 -0.2802  0.8898
  747MOL0     C 2981   0.527  10.482  11.962 -0.1477  0.3506 -0.4306
  747MOL0     C 2982   0.593  10.590  12.030  0.2809  0.4604  0.1473
  747MOL0     C 2983   0.726  10.569  12.071  0.0426  0.7274 -0.3503
  747MOL0     O 2984   0.798  10.678  12.125 -0.5271  0.6290 -0.3211
  747MOL0     C 2985   0.910  10.641  12.211  0.4849  0.7313 -0.0161
  747MOL0     C 2986   0.967  10.763  12.290  0.9848  0.3071 -0.5160
  747MOL0     C 2987   0.989  10.739  12.446 -0.3865  0.0174  0.2579
  747MOL0     C 2988   0.858  10.761  12.523 -0.2925 -0.8234  0.3543
  747MOL0     C 2989   0.866  10.719  12.667 -0.0600 -1.0199  0.8746
  747MOL0     C 2990   0.741  10.780  12.737 -0.2050  0.8261  0.3962
  747MOL0     C 2991   0.759  10.765  12.882 -0.0568 -0.5129 -0.3520
  747MOL0     C 2992   0.665  10.864  12.960 -0.1983  0.1242 -0.7329
  747MOL0    Cl 2993   0.501  10.817  12.939 -0.2732  0.2306  0.1807
  747MOL0     C 2994   0.786  10.450  12.041  0.1986 -0.5350  0.2008
  747MOL0     C 2995   0.721  10.345  11.974 -0.0981 -0.2985  0.3262
  747MOL0     O 2996   0.479  10.149  12.047 -0.1783  0.0645  0.0141
  747MOL0     C 2997   0.488  10.027  11.727 -0.2658  0.5199 -0.4557
  747MOL0     C 2998   0.459   9.914  11.650 -0.3828  0.4389  0.4906
  747MOL0     N 2999  -0.307   9.507  11.476 -0.1410  0.0429  0.3054
  747MOL0     N 3000  -0.387   9.521  11.381 -0.0751 -0.1286 -1.0411
  747MOL0     C 3001   0.465   9.343  10.630  0.3967  0.9102 -0.5484
  747MOL0     C 3002   0.590   9.378  10.678 -0.5491  0.1003 -0.0928
  747MOL0     C 3003   0.979   9.405  10.879  0.7173 -0.5247  0.6783
  747MOL0     C 3004   0.987   9.389  11.021 -0.4873 -0.4183  0.3109
  747MOL0     C 3005   1.105   9.405  11.096 -0.0412 -0.5657  0.3747
  747MOL0     C 3006   1.220   9.458  11.030  0.0927  0.1348 -0.7706
  747MOL0     O 3007   1.336   9.476  11.101  0.0033  0.1051  0.5072
  747MOL0     C 3008   1.345   9.442  11.235  0.3518 -0.3287 -0.8679
  747MOL0     C 3009   1.474   9.501  11.295 -0.5413  0.1162  0.7655
  747MOL0     C 3010   1.462   9.656  11.296  0.7913 -0.3568  0.4869
  747MOL0     C 3011   1.592   9.723  11.312  0.4128 -0.4136 -0.2719
  747MOL0     C 3012   1.659   9.695  11.441 -0.1232  0.6822  0.1273
  747MOL0     C 3013   1.703   9.679  11.550  0.3905  1.1552 -0.1042
  747MOL0     C 3014   1.208   9.491  10.898  0.1868 -0.2764 -0.6462
  747MOL0     C 3015   1.092   9.469  10.826 -0.6554 -0.3402  0.2987
  747MOL0     C 3016   1.088   9.518  10.682  0.4017 -0.6058  0.3584
  747MOL0     H 3017   0.528   9.309  10.999 -0.3645 -0.0398  0.4672
  747MOL0     H 3018   0.323   9.243  10.915 -0.5976  0.1750  0.1969
  747MOL0     H 3019   0.137   9.317  10.838 -2.2558  1.2528  0.0287
  747MOL0     H 3020   0.100   9.174  10.751 -1.7844 -0.5360 -0.6532
  747MOL0     H 3021   0.059   9.453  10.631  0.8534 -0.1664  0.2376
  747MOL0     H 3022  -0.020   9.291  10.591  0.7995 -2.3766  2.0709
  747MOL0     H 3023  -0.039   9.439  10.856  1.1814  0.7133 -1.3083
  747MOL0     H 3024  -0.147   9.477  10.716 -1.2881 -0.7802 -0.0952
  747MOL0     H 3025  -0.220   9.245  10.721  2.7997  1.6991 -2.0774
  747MOL0     H 3026  -0.152   9.226  10.887 -1.9255 -1.4784 -0.8914
  747MOL0     H 3027  -0.379   9.291  10.920 -0.7844  0.4855 -0.4123
  747MOL0     H 3028  -0.367   9.412  10.794  2.2158  4.4144  0.5305
  747MOL0     H 3029  -0.233   9.423  11.061  0.6489  1.2121  1.5547
  747MOL0     H 3030  -0.229   9.561  10.941  1.0434  0.6229  1.9052
  747MOL0     H 3031  -0.462   9.422  11.088  1.7434 -2.5393 -1.9669
  747MOL0     H 3032  -0.473   9.559  10.969  0.8313  0.3587 -0.7012
  747MOL0     H 3033  -0.341   9.693  11.104  0.4452 -0.3859 -0.0118
  747MOL0     H 3034  -0.487   9.648  11.199  0.8438 -1.1822  1.5902
  747MOL0     H 3035  -0.102   9.548  11.217 -0.5622  0.1207 -0.3867
  747MOL0     H 3036  -0.010   9.392  11.475  0.4421 -0.2532  0.8138
  747MOL0     H 3037  -0.093   9.485  11.604 -2.5269 -1.1462 -0.5971
  747MOL0     H 3038   0.070   9.574  11.379 -1.5612 -1.5579  0.1317
  747MOL0     H 3039  -0.010   9.691  11.494 -0.1055 -0.5724  2.6194
  747MOL0     H 3040   0.109   9.580  11.678 -4.2854  0.2457 -0.7649
  747MOL0     H 3041   0.195   9.468  11.587 -2.2619 -0.4616  1.9402
  747MOL0     H 3042   0.318   9.647  11.447 -0.3910  2.1568 -0.7235
  747MOL0     H 3043   0.208   9.774  11.521 -0.1829  0.2333  1.2316
  747MOL0     H 3044   0.252   9.745  11.845  0.1221 -2.2674 -3.1393
  747MOL0     H 3045   0.326   9.917  12.118  2.3274  1.2928 -1.5011
  747MOL0     H 3046   0.167   9.894  12.036  0.6061 -1.4681 -1.4062
  747MOL0     H 3047   0.243  10.056  12.051  1.9933  0.0207  0.4601
  747MOL0     H 3048   0.425  10.500  11.929 -0.1438  1.0610 -0.0638
  747MOL0     H 3049   0.539  10.683  12.040 -2.5403 -0.5325 -3.6239
  747MOL0     H 3050   0.887  10.559  12.280 -0.9155  2.3121  1.5142
  747MOL0     H 3051   0.989  10.603  12.146  0.4455 -2.1760  1.4692
  747MOL0     H 3052   1.070  10.783  12.258  2.8823 -1.3616  3.6799
  747MOL0     H 3053   0.897  10.846  12.277 -1.3196 -1.4152  0.1699
  747MOL0     H 3054   1.082  10.787  12.480 -0.7782  0.8689  0.1601
  747MOL0     H 3055   1.018  10.635  12.463 -0.5878 -0.3733 -1.5365
  747MOL0     H 3056   0.785  10.698  12.472 -2.1728  0.5468  1.2443
  747MOL0     H 3057   0.829  10.866  12.511  2.4521  0.3592  2.7566
  747MOL0     H 3058   0.863  10.610  12.672 -1.3010 -0.9604  1.9600
  747MOL0     H 3059   0.959  10.755  12.713 -0.0622  0.1688  0.0152
  747MOL0     H 3060   0.654  10.726  12.698 -0.2448  0.8050  0.5163
  747MOL0     H 3061   0.726  10.885  12.711 -4.9167  0.2106 -0.2810
  747MOL0     H 3062   0.857  10.801  12.914 -2.0206  3.2190  2.2117
  747MOL0     H 3063   0.745  10.659  12.904  2.8130 -0.7572  0.7260
  747MOL0     H 3064   0.682  10.967  12.927  1.0271 -0.7839 -3.2470
  747MOL0     H 3065   0.684  10.859  13.067  2.2366  0.3662 -1.0945
  747MOL0     H 3066   0.886  10.418  12.069  0.0519  0.1868  1.6505
  747MOL0     H 3067   0.767  10.248  11.955 -0.4394  0.2256 -4.3279
  747MOL0     H 3068   0.556  10.104  11.690 -1.2984  1.9908  0.5775
  747MOL0     H 3069   0.496   9.907  11.548 -1.0048  2.9855  0.0251
  747MOL0     H 3070   0.438   9.353  10.526 -1.8482 -1.1505 -0.2362
  747MOL0     H 3071   0.650   9.427  10.602 -0.3399  0.3757  0.2440
  747MOL0     H 3072   0.907   9.352  11.083 -3.0119  0.4379 -2.2046
  747MOL0     H 3073   1.108   9.369  11.198  0.3239  2.8075  1.6807
  747MOL0     H 3074   1.259   9.482  11.289 -0.1404  1.6881 -3.0084
  747MOL0     H 3075   1.340   9.332  11.240 -0.6212 -0.2997 -0.9474
  747MOL0     H 3076   1.561   9.480  11.232 -0.2816 -2.7266  1.9369
  747MOL0     H 3077   1.501   9.450  11.388  0.4739 -1.6947 -0.4602
  747MOL0     H 3078   1.425   9.698  11.202 -4.1164 -1.3186  1.7593
  747MOL0     H 3079   1.387   9.681  11.372 -1.4032 -0.5068 -1.5216
  747MOL0     H 3080   1.580   9.832  11.312  2.1005 -0.1703  1.3504
  747MOL0     H 3081   1.663   9.698  11.233  1.1524  1.4686 -0.2628
  747MOL0     H 3082   1.772   9.668  11.631  0.2777  1.5341  0.0419
  747MOL0     H 3083   1.295   9.537  10.852  1.3028 -0.7057  0.9399
  747MOL0     H 3084   1.175   9.580  10.659 -0.9244  1.3539  0.3160
  747MOL0     H 3085   1.088   9.436  10.611 -0.4680  1.2687 -1.9349
  747MOL0     H 3086   1.001   9.581  10.662 -1.0458 -2.8187 -0.7095
  748MOL0     O 3087   6.219   3.496   9.294  0.8378 -1.1859  0.9027
  748MOL0     C 3088   6.183   3.482   9.410  0.6866 -0.1677 -0.5300
  748MOL0     O 3089   6.262   3.464   9.513 -0.1085  0.3532  0.0397
  748MOL0     C 3090   6.399   3.472   9.498  0.3388 -0.7663 -0.0034
  748MOL0     C 3091   6.464   3.587   9.460  0.3253  0.5395 -0.6907
  748MOL0     C 3092   6.602   3.583   9.439  0.8129 -1.0151 -0.4891
  748MOL0     C 3093   6.678   3.464   9.464 -0.1857 -0.7675 -0.5271
  748MOL0     O 3094   6.815   3.441   9.434 -0.0901 -0.6400  0.2478
  748MOL0     C 3095   6.865   3.521   9.327 -0.6175  0.0908  0.6227
  748MOL0     C 3096   7.004   3.471   9.300  0.8441  0.4008 -0.8227
  748MOL0     C 3097   7.088   3.563   9.211 -0.5757  0.4695  0.5755
  748MOL0     C 3098   7.221   3.485   9.192 -0.3702  0.8764  0.1631
  748MOL0     C 3099   7.310   3.554   9.082 -0.1216  1.0045 -0.0813
  748MOL0     C 3100   7.448   3.483   9.050 -0.0508  0.3295 -0.0099
  748MOL0     C 3101   7.531   3.443   9.174 -0.5374 -0.0551 -0.8165
  748MOL0     C 3102   7.682   3.422   9.145  0.7701  0.9029  0.0941
  748MOL0     N 3103   7.710   3.351   9.015 -0.2060 -0.3645 -0.6003
  748MOL0     C 3104   7.790   3.405   8.911  0.5967  0.5291 -0.1578
  748MOL0     C 3105   7.836   3.288   8.849  0.7183  0.8240  0.2326
  748MOL0     C 3106   7.930   3.292   8.738  0.7322  0.0315  1.2792
  748MOL0     C 3107   7.909   3.164   8.657 -0.3891  0.1698  0.3139
  748MOL0     C 3108   7.981   3.190   8.522 -0.5723  0.8798 -0.3818
  748MOL0     C 3109   8.129   3.150   8.545 -0.0905 -0.1238 -1.2462
  748MOL0     O 3110   8.213   3.260   8.581 -0.3078  0.1318 -0.0145
  748MOL0     C 3111   8.327   3.264   8.497  0.3593  0.0489  0.5712
  748MOL0     C 3112   8.414   3.155   8.489  0.3129  0.1602 -0.2209
  748MOL0     C 3113   8.540   3.164   8.429  0.0569  0.4703 -0.5340
  748MOL0     C 3114   8.629   3.047   8.439 -0.8741  0.0438  0.0446
  748MOL0     C 3115   8.572   3.283   8.357 -0.0961  0.1002 -0.2772
  748MOL0     C 3116   8.699   3.307   8.286 -0.4063 -0.4827  0.0485
  748MOL0     O 3117   8.711   3.390   8.180  0.0141  0.2448 -0.4482
  748MOL0     C 3118   8.826   3.372   8.101  0.4148 -0.7561  0.3767
  748MOL0     C 3119   8.902   3.487   8.070 -0.1257 -0.0629 -0.4651
  748MOL0     C 3120   9.004   3.472   7.973 -0.1275 -0.2215  0.0874
  748MOL0     C 3121   9.037   3.350   7.926 -0.2401  0.5832 -0.5116
  748MOL0     O 3122   9.150   3.344   7.850 -0.2569 -0.4700 -0.3712
  748MOL0     C 3123   9.180   3.240   7.765  0.0703 -0.2071 -0.1774
  748MOL0     C 3124   9.301   3.278   7.672 -0.6823  0.6496  0.7586
  748MOL0     C 3125   9.282   3.429   7.636 -0.7637  0.9280 -0.4115
  748MOL0     C 3126   9.378   3.464   7.517 -0.7383 -0.4618 -0.0036
  748MOL0     C 3127   9.528   3.425   7.535  0.0985 -0.6882 -0.1511
  748MOL0     C 3128   9.597   3.483   7.408  0.9778  0.6802 -0.1754
  748MOL0     C 3129   9.754   3.496   7.441  0.3638  0.3787 -0.1404
  748MOL0     C 3130   9.810   3.357   7.456  0.5692 -0.0094  0.1322
  748MOL0    Cl 3131   9.984   3.364   7.415  0.0676 -0.0854 -0.0741
  748MOL0     C 3132   8.969   3.237   7.970 -0.2180 -0.1891  0.5989
  748MOL0     C 3133   8.854   3.249   8.048  0.6233  1.0213 -0.1792
  748MOL0     O 3134   8.791   3.252   8.343 -0.4517 -0.4374  0.7191
  748MOL0     C 3135   8.479   3.385   8.358  0.7250 -0.8864 -0.1634
  748MOL0     C 3136   8.354   3.379   8.423 -0.1222 -0.3390  0.6533
  748MOL0     N 3137   7.776   3.176   8.902 -1.1327 -0.5897 -0.5176
  748MOL0     N 3138   7.711   3.214   9.007 -0.7749 -0.6275  0.5185
  748MOL0     C 3139   6.605   3.355   9.519 -0.7631  0.1354 -0.1733
  748MOL0     C 3140   6.466   3.359   9.536  0.8404 -0.3249 -0.2305
  748MOL0     C 3141   6.042   3.481   9.443 -0.6081  0.6079  0.8586
  748MOL0     C 3142   5.954   3.527   9.342  0.2482  0.4102 -0.5980
  748MOL0     C 3143   5.817   3.551   9.369 -0.2715  0.1968 -0.1385
  748MOL0     C 3144   5.764   3.510   9.493 -0.2538  1.3764 -0.3937
  748MOL0     O 3145   5.631   3.489   9.525 -0.5134  0.2019 -0.1727
  748MOL0     C 3146   5.541   3.543   9.425 -0.3397 -0.7035  0.1431
  748MOL0     C 3147   5.395   3.539   9.480  0.3763 -0.4869 -0.0086
  748MOL0     C 3148   5.281   3.579   9.383  0.3309  0.1825 -0.1134
  748MOL0     C 3149   5.156   3.609   9.453  0.4671 -0.1941 -0.0702
  748MOL0     C 3150   5.051   3.644   9.355  0.3532  1.2419 -0.4507
  748MOL0     C 3151   4.962   3.672   9.270  0.1636 -0.1789  0.1728
  748MOL0     C 3152   5.853   3.473   9.594  0.1572 -0.8957  0.3960
  748MOL0     C 3153   5.992   3.464   9.576  0.0837  0.9107  0.7141
  748MOL0     C 3154   6.061   3.405   9.698  0.0417  0.6776 -0.1207
  748MOL0     H 3155   6.397   3.668   9.434 -0.8098 -0.4780 -1.0074
  748MOL0     H 3156   6.653   3.668   9.395  1.3849 -1.3256 -0.4477
  748MOL0     H 3157   6.857   3.627   9.354 -1.9544 -0.2035  1.5205
  748MOL0     H 3158   6.807   3.496   9.238  1.5413 -0.0015 -0.8298
  748MOL0     H 3159   7.050   3.456   9.398  0.0821 -2.1973 -0.7783
  748MOL0     H 3160   6.997   3.375   9.248  0.2410 -0.5579  0.9057
  748MOL0     H 3161   7.031   3.574   9.118 -0.4498 -1.5823  0.2188
  748MOL0     H 3162   7.116   3.661   9.251 -1.7604  0.7724  0.6779
  748MOL0     H 3163   7.269   3.492   9.290 -2.9661 -0.7381  1.6600
  748MOL0     H 3164   7.210   3.382   9.157  2.0153  1.2946 -2.0878
  748MOL0     H 3165   7.336   3.655   9.114  1.1534  0.2700  1.2626
  748MOL0     H 3166   7.249   3.564   8.991 -0.4092  0.5572  0.0588
  748MOL0     H 3167   7.427   3.391   8.995 -0.0920  0.6333 -0.5076
  748MOL0     H 3168   7.491   3.564   8.991 -0.2566  1.8625  1.8397
  748MOL0     H 3169   7.496   3.347   9.213  0.6359 -0.5470 -0.9134
  748MOL0     H 3170   7.513   3.517   9.253 -1.4922  0.5145 -1.5489
  748MOL0     H 3171   7.751   3.506   9.160  1.0261  1.0826 -1.7961
  748MOL0     H 3172   7.717   3.351   9.220  1.3062  1.3002  0.2264
  748MOL0     H 3173   7.809   3.511   8.901 -0.3480  1.0842  2.9242
  748MOL0     H 3174   8.032   3.299   8.777  0.9497  0.3206  0.6613
  748MOL0     H 3175   7.922   3.381   8.675 -1.6366 -1.2575 -0.4084
  748MOL0     H 3176   7.941   3.074   8.711 -1.2496  0.3028  1.0589
  748MOL0     H 3177   7.805   3.158   8.624 -0.0942  1.8360 -1.0849
  748MOL0     H 3178   7.933   3.135   8.440  2.7885 -0.2627 -1.7664
  748MOL0     H 3179   7.988   3.297   8.500  2.5287  0.9773  0.4731
  748MOL0     H 3180   8.142   3.075   8.623  0.0817  1.0042 -0.1526
  748MOL0     H 3181   8.160   3.105   8.450  0.9480  1.5683 -1.7571
  748MOL0     H 3182   8.388   3.075   8.557  1.2581 -1.5486 -1.7961
  748MOL0     H 3183   8.710   3.063   8.512 -1.2584 -0.2314  0.5394
  748MOL0     H 3184   8.687   3.013   8.353  3.4422 -0.6681  2.8828
  748MOL0     H 3185   8.579   2.955   8.471 -0.9801 -0.7741 -2.3172
  748MOL0     H 3186   8.879   3.584   8.114  1.6504 -0.7704  2.2792
  748MOL0     H 3187   9.049   3.559   7.927 -1.7281  0.9793  0.7258
  748MOL0     H 3188   9.211   3.149   7.818  1.5278  0.3741 -0.0073
  748MOL0     H 3189   9.093   3.224   7.701 -0.8341  0.2416  0.8933
  748MOL0     H 3190   9.399   3.270   7.718 -0.4905  0.9853  0.4172
  748MOL0     H 3191   9.305   3.214   7.584  1.3091  1.3281  0.3109
  748MOL0     H 3192   9.306   3.489   7.724  3.2097 -0.3629 -0.3968
  748MOL0     H 3193   9.180   3.447   7.603 -0.5145  1.1569 -1.0727
  748MOL0     H 3194   9.378   3.573   7.508  1.3010 -0.0773  3.1132
  748MOL0     H 3195   9.350   3.412   7.424  2.1039 -2.8262  0.3014
  748MOL0     H 3196   9.567   3.470   7.627  0.5114 -1.6687  0.1684
  748MOL0     H 3197   9.536   3.316   7.541  1.6262 -0.6593 -1.1478
  748MOL0     H 3198   9.567   3.584   7.380  1.5919  1.3449  1.4701
  748MOL0     H 3199   9.591   3.412   7.325  5.0453 -1.9259  1.4318
  748MOL0     H 3200   9.765   3.552   7.534  2.2779  2.3413 -1.4489
  748MOL0     H 3201   9.794   3.563   7.365 -2.5483  0.6731 -1.5721
  748MOL0     H 3202   9.757   3.287   7.390 -1.0119  0.7685  0.5365
  748MOL0     H 3203   9.786   3.313   7.553  1.6349  1.9788  1.3524
  748MOL0     H 3204   8.995   3.137   7.936  2.9026  1.1689 -1.4129
  748MOL0     H 3205   8.803   3.166   8.097  1.4247  3.0844  4.7082
  748MOL0     H 3206   8.490   3.479   8.305  0.9705 -0.3339  0.8449
  748MOL0     H 3207   8.288   3.464   8.409 -1.4624 -1.2708  1.1467
  748MOL0     H 3208   6.664   3.270   9.551 -0.2648  0.7730  0.6720
  748MOL0     H 3209   6.408   3.271   9.563 -0.2599 -0.6532 -3.3312
  748MOL0     H 3210   5.982   3.550   9.240  0.4055  3.6064  0.0624
  748MOL0     H 3211   5.767   3.595   9.283  2.2167 -0.2146 -1.8980
  748MOL0     H 3212   5.558   3.643   9.384  1.3281 -2.0874 -2.8554
  748MOL0     H 3213   5.545   3.480   9.336  3.0425  1.7243 -1.6553
  748MOL0     H 3214   5.395   3.607   9.566  2.2866  1.2540 -1.2964
  748MOL0     H 3215   5.392   3.433   9.507  2.4973 -0.6802 -0.3677
  748MOL0     H 3216   5.320   3.672   9.342 -0.7518  0.6007 -0.2120
  748MOL0     H 3217   5.272   3.510   9.298 -0.8329  1.0897 -0.7467
  748MOL0     H 3218   5.162   3.685   9.531  1.2148 -1.1793  0.8478
  748MOL0     H 3219   5.119   3.519   9.503 -1.5759  0.2919 -0.5764
  748MOL0     H 3220   4.897   3.689   9.187  0.5669  0.9868  0.0849
  748MOL0     H 3221   5.814   3.451   9.693  0.0385  0.5429  0.6853
  748MOL0     H 3222   6.106   3.491   9.750  0.7186  0.7836 -0.8518
  748MOL0     H 3223   5.995   3.356   9.770  1.1230  0.7971  0.9767
  748MOL0     H 3224   6.139   3.335   9.667 -1.7338 -0.6599 -1.7993
  749MOL0     O 3225   0.850   2.018   2.995  0.2084  0.8957  0.5902
  749MOL0     C 3226   0.745   1.951   2.997 -0.2534 -0.2963 -0.2546
  749MOL0     O 3227   0.742   1.817   2.987 -0.4300  0.2175 -0.6119
  749MOL0     C 3228   0.853   1.760   2.932 -1.7186  0.6146 -0.5196
  749MOL0     C 3229   0.833   1.708   2.801  0.2581 -0.9862 -0.4536
  749MOL0     C 3230   0.946   1.649   2.737  0.1887  0.2121  0.0703
  749MOL0     C 3231   1.072   1.632   2.797 -1.1433 -0.1021 -0.0628
  749MOL0     O 3232   1.169   1.577   2.722 -0.1217  0.1597  0.4225
  749MOL0     C 3233   1.310   1.583   2.762 -0.3850  0.0159  0.3676
  749MOL0     C 3234   1.399   1.518   2.654 -0.0734 -1.0375  0.3240
  749MOL0     C 3235   1.379   1.575   2.515  0.2109 -0.1564 -0.4929
  749MOL0     C 3236   1.498   1.564   2.415  0.1348  0.5308 -1.1257
  749MOL0     C 3237   1.448   1.595   2.278 -0.0003  0.7691 -0.4870
  749MOL0     C 3238   1.544   1.544   2.169 -0.2820 -0.7201 -0.3412
  749MOL0     C 3239   1.517   1.608   2.034 -0.1809  0.2247 -0.2675
  749MOL0     C 3240   1.381   1.577   1.959 -0.4398 -0.0210  0.3924
  749MOL0     N 3241   1.374   1.429   1.940  0.0280 -0.0928 -0.8661
  749MOL0     C 3242   1.473   1.338   1.909  0.8769  0.0887  0.1968
  749MOL0     C 3243   1.433   1.221   1.961 -0.1186  0.4526  0.3617
  749MOL0     C 3244   1.502   1.084   1.928  0.8712 -0.4285  0.7904
  749MOL0     C 3245   1.555   1.018   2.047 -0.3762 -0.9270  0.4152
  749MOL0     C 3246   1.655   0.902   2.034  0.7824  0.6756 -0.8818
  749MOL0     C 3247   1.679   0.835   2.173  0.5802 -0.3367 -0.1781
  749MOL0     O 3248   1.772   0.911   2.251 -0.3544  0.3188 -0.1851
  749MOL0     C 3249   1.900   0.869   2.265 -0.4910 -0.4981  0.2911
  749MOL0     C 3250   1.992   0.968   2.245 -0.0782 -0.3842 -0.1347
  749MOL0     C 3251   2.124   0.934   2.269  0.4063  0.7202  0.0040
  749MOL0     C 3252   2.218   1.042   2.243  0.1637  0.5139 -0.3778
  749MOL0     C 3253   2.169   0.801   2.292 -0.2582 -0.0324 -0.3888
  749MOL0     C 3254   2.316   0.767   2.294  0.1150 -0.5608 -0.4035
  749MOL0     O 3255   2.413   0.852   2.294 -0.9320 -0.3256 -0.0930
  749MOL0     C 3256   2.546   0.822   2.304  0.8490  0.1572 -0.6314
  749MOL0     C 3257   2.636   0.858   2.201 -0.1323 -0.5640 -0.3645
  749MOL0     C 3258   2.773   0.829   2.204  0.3785 -0.2890 -0.6715
  749MOL0     C 3259   2.821   0.748   2.310  0.0688  0.5146 -0.7158
  749MOL0     O 3260   2.947   0.700   2.321  0.1936 -0.1765  0.3073
  749MOL0     C 3261   3.043   0.749   2.233 -0.5334  0.4201 -0.5631
  749MOL0     C 3262   3.178   0.723   2.273 -0.0081  0.3999  0.0044
  749MOL0     C 3263   3.283   0.818   2.213  0.1249  0.7270 -0.3231
  749MOL0     C 3264   3.419   0.776   2.272  0.3949 -0.4273 -0.1265
  749MOL0     C 3265   3.538   0.843   2.198  0.8719  0.3201  0.3198
  749MOL0     C 3266   3.535   0.999   2.215 -0.2057 -0.1038 -0.4374
  749MOL0     C 3267   3.660   1.050   2.294 -0.3758  0.1191  0.0117
  749MOL0     C 3268   3.777   1.054   2.198  0.3482 -0.5757  0.1552
  749MOL0    Cl 3269   3.913   1.142   2.272 -0.0469  0.0711  0.4776
  749MOL0     C 3270   2.736   0.715   2.411  0.2898  0.3067 -0.5462
  749MOL0     C 3271   2.598   0.754   2.413 -0.2588  0.6127 -1.3991
  749MOL0     O 3272   2.334   0.648   2.289 -0.3151  0.1965  0.2077
  749MOL0     C 3273   2.064   0.708   2.316 -0.4612 -0.0667  0.7372
  749MOL0     C 3274   1.934   0.744   2.309  0.2639  0.3051 -0.3200
  749MOL0     N 3275   1.308   1.237   2.013 -0.3562  0.0488  0.3459
  749MOL0     N 3276   1.276   1.363   2.004  0.3335 -0.6614 -0.7660
  749MOL0     C 3277   1.088   1.684   2.921 -1.0053 -0.1100 -0.1921
  749MOL0     C 3278   0.986   1.743   2.989 -0.0115 -0.3464 -0.9382
  749MOL0     C 3279   0.605   2.011   3.008  0.1390 -0.2391  0.8220
  749MOL0     C 3280   0.490   1.928   3.009  0.2938  0.1252 -0.4593
  749MOL0     C 3281   0.360   1.979   3.027  0.4251  0.0751 -0.5046
  749MOL0     C 3282   0.335   2.114   3.029  0.7848 -0.0763  0.3743
  749MOL0     O 3283   0.212   2.167   3.031  0.1948  0.8643 -0.2233
  749MOL0     C 3284   0.101   2.078   3.054 -0.3548 -0.0938  0.7606
  749MOL0     C 3285  -0.019   2.164   3.023  1.0454  0.4707  0.1875
  749MOL0     C 3286  -0.138   2.073   3.014 -0.3151 -0.1951 -0.5778
  749MOL0     C 3287  -0.257   2.146   2.942 -0.6805 -0.8303 -0.0411
  749MOL0     C 3288  -0.371   2.056   2.928  0.4306  0.9429  0.4686
  749MOL0     C 3289  -0.458   1.969   2.911  0.4644 -0.2301 -0.8126
  749MOL0     C 3290   0.450   2.199   3.042  0.0022 -0.4981  0.2152
  749MOL0     C 3291   0.587   2.154   3.030 -0.2401  0.5820  0.2463
  749MOL0     C 3292   0.699   2.256   3.039  0.2174  0.8542 -0.7071
  749MOL0     H 3293   0.733   1.711   2.759 -1.1811 -0.5522  2.6548
  749MOL0     H 3294   0.943   1.601   2.639  2.8028 -2.0801  0.9664
  749MOL0     H 3295   1.339   1.534   2.855  5.0311  2.0948  0.1757
  749MOL0     H 3296   1.338   1.688   2.778 -2.4102  0.4222  1.5542
  749MOL0     H 3297   1.502   1.536   2.689  0.6912 -1.3135 -1.6808
  749MOL0     H 3298   1.387   1.410   2.650  0.7471 -1.1137 -0.4142
  749MOL0     H 3299   1.285   1.534   2.477  0.2584  0.2815 -1.1001
  749MOL0     H 3300   1.348   1.679   2.531 -0.4968 -0.4856  0.3282
  749MOL0     H 3301   1.576   1.639   2.434 -1.8112  1.8041  2.8733
  749MOL0     H 3302   1.531   1.460   2.419 -4.0688 -0.9422  0.7379
  749MOL0     H 3303   1.433   1.702   2.260 -2.9523  0.4514 -0.3446
  749MOL0     H 3304   1.346   1.558   2.271  0.8015 -1.2951 -2.4150
  749MOL0     H 3305   1.644   1.577   2.200 -0.9435 -1.3959  2.8177
  749MOL0     H 3306   1.532   1.435   2.160 -4.5263 -0.2147 -4.4902
  749MOL0     H 3307   1.595   1.578   1.965  0.2084 -3.0722  1.3987
  749MOL0     H 3308   1.519   1.716   2.047 -0.1962  0.3107 -0.9865
  749MOL0     H 3309   1.291   1.605   2.014 -1.2954  0.7462 -1.3279
  749MOL0     H 3310   1.385   1.629   1.863  1.7887  0.4112  0.6657
  749MOL0     H 3311   1.565   1.364   1.857  0.4780  1.8022  0.2808
  749MOL0     H 3312   1.580   1.109   1.855  1.1718  4.8449  2.4592
  749MOL0     H 3313   1.429   1.018   1.879 -0.3699 -0.6587  2.8482
  749MOL0     H 3314   1.598   1.084   2.123 -0.0924 -0.2384 -0.3282
  749MOL0     H 3315   1.461   0.981   2.088 -1.7927  0.5424 -1.3370
  749MOL0     H 3316   1.610   0.832   1.962 -0.9314  0.2523  0.5239
  749MOL0     H 3317   1.749   0.942   1.994  1.6404  2.2639  2.4157
  749MOL0     H 3318   1.589   0.829   2.235  0.9775  2.8242  0.8560
  749MOL0     H 3319   1.724   0.736   2.167  2.6065  0.4827  0.6367
  749MOL0     H 3320   1.958   1.068   2.220  1.5332  0.3180  0.3850
  749MOL0     H 3321   2.170   1.137   2.219 -1.2085 -0.0942 -0.1318
  749MOL0     H 3322   2.280   1.003   2.162 -1.2630 -0.5599 -0.9916
  749MOL0     H 3323   2.267   1.049   2.341 -1.8932 -1.4197  0.8694
  749MOL0     H 3324   2.590   0.909   2.117  0.6411  0.2998 -0.2816
  749MOL0     H 3325   2.831   0.872   2.123  1.6531 -0.1121  0.3154
  749MOL0     H 3326   3.030   0.703   2.135 -1.7211 -1.1767  0.2882
  749MOL0     H 3327   3.035   0.855   2.208 -0.6127  0.1181 -1.8573
  749MOL0     H 3328   3.194   0.731   2.381  1.6704 -6.2657  0.6685
  749MOL0     H 3329   3.203   0.617   2.261 -0.1358  0.3376  0.2726
  749MOL0     H 3330   3.257   0.922   2.235 -2.4658  0.4978 -1.8792
  749MOL0     H 3331   3.286   0.814   2.104  0.9206  0.6308 -0.3016
  749MOL0     H 3332   3.425   0.667   2.265 -1.0658 -0.6847  1.7965
  749MOL0     H 3333   3.419   0.790   2.380  0.4163 -0.4364 -0.1251
  749MOL0     H 3334   3.630   0.808   2.245  1.4482  0.0084 -0.9948
  749MOL0     H 3335   3.529   0.816   2.092  1.9670 -0.4514  0.4093
  749MOL0     H 3336   3.445   1.032   2.266  0.3961  0.0075  0.5782
  749MOL0     H 3337   3.535   1.043   2.114 -0.4034 -0.8162 -0.7528
  749MOL0     H 3338   3.676   0.989   2.383  1.8555  1.5902  0.7182
  749MOL0     H 3339   3.647   1.157   2.315 -0.1698  0.8688 -3.1104
  749MOL0     H 3340   3.742   1.115   2.115 -1.5814 -1.2449  0.4401
  749MOL0     H 3341   3.807   0.955   2.164  1.7506  0.5304 -2.0463
  749MOL0     H 3342   2.780   0.648   2.484  4.2045  3.7367  0.6374
  749MOL0     H 3343   2.531   0.732   2.495 -0.9428 -0.6385 -2.2491
  749MOL0     H 3344   2.090   0.604   2.331 -0.2301 -0.1890 -0.3762
  749MOL0     H 3345   1.854   0.672   2.326  0.3937 -0.4551 -2.6000
  749MOL0     H 3346   1.184   1.682   2.971 -0.4649 -2.4238 -1.1683
  749MOL0     H 3347   1.001   1.785   3.088  0.0583 -0.2297 -0.9985
  749MOL0     H 3348   0.491   1.821   2.990  3.1189  0.0534 -0.3883
  749MOL0     H 3349   0.288   1.899   3.040  1.0109 -0.0312  2.7445
  749MOL0     H 3350   0.100   1.997   2.980 -1.2036 -0.2100  0.8877
  749MOL0     H 3351   0.094   2.034   3.153 -3.2253  2.4410  1.8176
  749MOL0     H 3352  -0.002   2.208   2.924  0.9610  1.5997  0.6528
  749MOL0     H 3353  -0.041   2.237   3.102  0.1025  1.7352 -1.1847
  749MOL0     H 3354  -0.111   1.978   2.968 -1.0691 -1.3321  1.2212
  749MOL0     H 3355  -0.175   2.052   3.114  1.1155 -0.8646 -0.1706
  749MOL0     H 3356  -0.225   2.183   2.844 -2.3529  1.6504  0.2482
  749MOL0     H 3357  -0.283   2.240   2.993 -1.6909 -0.4946 -1.1380
  749MOL0     H 3358  -0.550   1.919   2.890 -0.7527  0.5526  2.1773
  749MOL0     H 3359   0.434   2.305   3.058 -1.9455 -0.8032  0.4647
  749MOL0     H 3360   0.676   2.363   3.034  3.3568  1.5999 -0.8265
  749MOL0     H 3361   0.756   2.241   3.131 -0.1103  2.5923 -0.1691
  749MOL0     H 3362   0.766   2.238   2.955  0.4107  0.6112 -0.5002
  750MOL0     O 3363   1.474   3.675   6.879  0.1000 -0.1434 -0.1324
  750MOL0     C 3364   1.394   3.775   6.897  0.3284  0.1185  0.9253
  750MOL0     O 3365   1.425   3.899   6.952 -0.8048  0.0368 -0.4671
  750MOL0     C 3366   1.561   3.925   6.960  0.5866  0.4118 -0.4400
  750MOL0     C 3367   1.634   3.855   7.065  0.1330 -1.1163 -0.1686
  750MOL0     C 3368   1.764   3.885   7.092  0.1568  0.5573 -0.6488
  750MOL0     C 3369   1.825   3.995   7.024 -0.8200 -0.1998  0.6342
  750MOL0     O 3370   1.950   4.032   7.048 -0.6021 -0.3407 -0.7387
  750MOL0     C 3371   2.011   4.157   7.005 -0.6529 -0.2206 -0.6521
  750MOL0     C 3372   2.162   4.153   7.011  0.3133  0.1964  0.4563
  750MOL0     C 3373   2.212   4.057   6.908 -0.6824  0.5112  0.2450
  750MOL0     C 3374   2.363   4.033   6.925  0.3048  0.0380 -0.0336
  750MOL0     C 3375   2.411   3.921   6.839  0.4548  0.6546  0.1427
  750MOL0     C 3376   2.563   3.938   6.806  0.2878 -0.2829  0.5677
  750MOL0     C 3377   2.615   3.841   6.698  0.7278  0.5827 -0.4295
  750MOL0     C 3378   2.768   3.838   6.677  0.4575 -0.0849  0.2666
  750MOL0     N 3379   2.844   3.753   6.773  0.3282  0.0332 -0.5488
  750MOL0     C 3380   2.970   3.792   6.808 -0.2790  0.2743 -0.3824
  750MOL0     C 3381   3.021   3.687   6.877  0.5025  0.5940  0.2097
  750MOL0     C 3382   3.150   3.673   6.950  0.0581 -0.7659  0.5104
  750MOL0     C 3383   3.224   3.543   6.909 -0.9085  0.0461  0.2910
  750MOL0     C 3384   3.362   3.543   6.979 -0.4463  0.0217  0.1539
  750MOL0     C 3385   3.352   3.536   7.134  0.4088 -0.3858  0.1537
  750MOL0     O 3386   3.343   3.399   7.172  0.5917 -0.5256 -0.2986
  750MOL0     C 3387   3.451   3.332   7.226 -0.5730 -0.3565  0.6192
  750MOL0     C 3388   3.586   3.352   7.187  0.4481 -0.5492  0.2980
  750MOL0     C 3389   3.696   3.296   7.253  0.2599  1.0059  0.5112
  750MOL0     C 3390   3.832   3.321   7.185  0.2104  0.6380  0.4457
  750MOL0     C 3391   3.670   3.204   7.358 -0.8502 -0.8291  0.7663
  750MOL0     C 3392   3.783   3.144   7.430  0.9674 -0.2514  0.5497
  750MOL0     O 3393   3.771   3.144   7.563  0.2249 -0.0367 -0.1253
  750MOL0     C 3394   3.862   3.074   7.625  0.0432  0.6665 -0.1891
  750MOL0     C 3395   3.828   2.958   7.692 -0.1385  0.6212  0.6840
  750MOL0     C 3396   3.925   2.883   7.768  0.4317  0.4822  1.0250
  750MOL0     C 3397   4.056   2.936   7.784  0.1099  0.2064 -0.8198
  750MOL0     O 3398   4.134   2.892   7.890 -0.4004  0.3368 -0.0623
  750MOL0     C 3399   4.068   2.889   8.014 -0.2883  0.5046  0.2135
  750MOL0     C 3400   4.160   2.893   8.126 -0.3035  0.1738  0.1579
  750MOL0     C 3401   4.238   2.765   8.152  0.3375  0.2008 -0.2265
  750MOL0     C 3402   4.346   2.793   8.260  0.3632 -0.3786 -0.5289
  750MOL0     C 3403   4.390   2.667   8.334  0.1877  0.6204  0.4537
  750MOL0     C 3404   4.499   2.733   8.433  0.0092  0.1210 -0.4799
  750MOL0     C 3405   4.598   2.631   8.482 -0.1394  0.3508  0.4296
  750MOL0     C 3406   4.529   2.529   8.588  0.0267  0.3279  0.5491
  750MOL0    Cl 3407   4.460   2.600   8.730  0.0755  0.0356  0.1718
  750MOL0     C 3408   4.086   3.052   7.715  0.1760 -0.6215  0.3305
  750MOL0     C 3409   3.995   3.115   7.630 -0.4637 -0.4333  0.3365
  750MOL0     O 3410   3.881   3.106   7.367  0.6019  0.2323  0.0666
  750MOL0     C 3411   3.537   3.175   7.394 -0.4889  0.1763  0.6359
  750MOL0     C 3412   3.429   3.238   7.325  0.3884 -0.6209  0.2754
  750MOL0     N 3413   2.929   3.577   6.859 -0.2922 -0.1949 -0.6402
  750MOL0     N 3414   2.824   3.621   6.794 -0.2619 -0.9400 -0.2993
  750MOL0     C 3415   1.759   4.052   6.913  0.9956  0.2701  0.3234
  750MOL0     C 3416   1.630   4.009   6.880  0.3444 -0.7407 -0.0241
  750MOL0     C 3417   1.255   3.774   6.837 -0.5342 -0.5388 -0.4742
  750MOL0     C 3418   1.156   3.873   6.867 -0.3629 -0.1329 -0.3056
  750MOL0     C 3419   1.034   3.888   6.804  0.0234 -0.2511 -0.3838
  750MOL0     C 3420   1.008   3.801   6.691 -1.2410  0.0040  0.6950
  750MOL0     O 3421   0.898   3.792   6.613 -0.0259 -0.2643 -0.2081
  750MOL0     C 3422   0.781   3.859   6.643 -0.2243  0.0007 -0.5211
  750MOL0     C 3423   0.669   3.758   6.596  0.2667 -0.8272 -0.4346
  750MOL0     C 3424   0.531   3.809   6.643 -0.1562  0.5679  0.2788
  750MOL0     C 3425   0.472   3.926   6.562  0.2495 -0.4006  0.6462
  750MOL0     C 3426   0.333   3.929   6.597 -0.6775 -0.2709  0.4014
  750MOL0     C 3427   0.212   3.941   6.614 -0.5493 -0.6554 -0.3171
  750MOL0     C 3428   1.092   3.695   6.661  0.0181  0.0147  0.3006
  750MOL0     C 3429   1.217   3.679   6.737  0.2639 -0.8021  0.5018
  750MOL0     C 3430   1.304   3.569   6.682 -1.2764 -0.0642 -0.2333
  750MOL0     H 3431   1.579   3.787   7.130  0.7344 -1.3745  0.0756
  750MOL0     H 3432   1.819   3.840   7.174  1.9738  2.1908 -0.9058
  750MOL0     H 3433   1.983   4.233   7.079 -0.4263 -2.5988  2.0371
  750MOL0     H 3434   1.998   4.187   6.900  0.3851  2.5348 -0.0637
  750MOL0     H 3435   2.209   4.250   6.991  1.3815 -0.2715  0.5868
  750MOL0     H 3436   2.200   4.126   7.110  0.3538  3.5796  1.4751
  750MOL0     H 3437   2.158   3.963   6.921  0.1979 -0.2905 -1.5930
  750MOL0     H 3438   2.201   4.112   6.814  1.5644  2.4797  1.0376
  750MOL0     H 3439   2.418   4.126   6.909  0.5074 -0.0139  0.3458
  750MOL0     H 3440   2.378   4.013   7.032 -2.0661 -1.9328  0.0237
  750MOL0     H 3441   2.353   3.911   6.747  1.5705 -1.4262 -0.3998
  750MOL0     H 3442   2.404   3.829   6.898  0.9750  1.2101  1.0902
  750MOL0     H 3443   2.583   4.040   6.771 -0.1697  0.0827  1.3394
  750MOL0     H 3444   2.614   3.911   6.899 -0.2418 -0.9561  0.6676
  750MOL0     H 3445   2.572   3.865   6.600  0.2607 -0.2023 -0.4283
  750MOL0     H 3446   2.589   3.740   6.732 -0.6888  0.7916 -0.7975
  750MOL0     H 3447   2.786   3.781   6.586 -1.8395 -2.5820  1.2282
  750MOL0     H 3448   2.810   3.939   6.686  2.2869 -0.8936  1.4574
  750MOL0     H 3449   3.003   3.893   6.789 -2.8651  1.7522  2.1602
  750MOL0     H 3450   3.129   3.685   7.057 -0.0217 -0.4465  0.4605
  750MOL0     H 3451   3.220   3.751   6.919  1.2714 -2.4381 -1.2413
  750MOL0     H 3452   3.178   3.454   6.953  0.3272 -2.8775 -3.6909
  750MOL0     H 3453   3.224   3.534   6.800  0.1225  1.3623  0.1553
  750MOL0     H 3454   3.418   3.456   6.942 -1.3595  0.1587 -1.6644
  750MOL0     H 3455   3.427   3.628   6.958  1.4789 -1.8631 -2.0786
  750MOL0     H 3456   3.441   3.579   7.181 -0.3567  2.4578 -0.7950
  750MOL0     H 3457   3.269   3.592   7.177  2.4482  0.6999  2.9508
  750MOL0     H 3458   3.585   3.409   7.095  0.0765 -0.1313  0.5579
  750MOL0     H 3459   3.845   3.264   7.092 -0.4638  2.2225 -0.6776
  750MOL0     H 3460   3.920   3.321   7.250  0.6107 -0.3187 -0.0752
  750MOL0     H 3461   3.828   3.422   7.141 -1.3950  2.9636  5.2485
  750MOL0     H 3462   3.727   2.925   7.711  0.3244  0.0148  2.2078
  750MOL0     H 3463   3.900   2.790   7.817  1.8422 -1.0381 -0.9419
  750MOL0     H 3464   4.003   2.974   8.034 -0.3938  0.2905  0.7784
  750MOL0     H 3465   4.007   2.798   8.013  1.3069 -0.6036  0.5954
  750MOL0     H 3466   4.233   2.966   8.089  0.5259 -0.7504 -0.0659
  750MOL0     H 3467   4.107   2.920   8.218 -1.8739 -1.2830 -0.2628
  750MOL0     H 3468   4.297   2.723   8.070  1.5020 -1.3906  1.3655
  750MOL0     H 3469   4.162   2.690   8.172  0.5178 -0.4455 -1.7974
  750MOL0     H 3470   4.313   2.863   8.337  0.7645 -2.7104  1.9046
  750MOL0     H 3471   4.434   2.829   8.206 -0.0713 -1.5668 -2.0952
  750MOL0     H 3472   4.308   2.629   8.395  0.7766 -0.8717  0.3530
  750MOL0     H 3473   4.433   2.591   8.268  1.4111  0.3661  1.4934
  750MOL0     H 3474   4.449   2.778   8.519  1.2421 -3.9706  2.7014
  750MOL0     H 3475   4.558   2.813   8.387 -0.1441  0.4295 -0.1425
  750MOL0     H 3476   4.683   2.682   8.528  0.3373 -0.7655  0.8490
  750MOL0     H 3477   4.636   2.576   8.395 -0.7433  0.5201  0.0504
  750MOL0     H 3478   4.607   2.465   8.629  1.2740  1.4600  0.0138
  750MOL0     H 3479   4.450   2.476   8.534  0.0570  0.3428  0.4906
  750MOL0     H 3480   4.186   3.095   7.713  0.3728 -1.1004 -0.5246
  750MOL0     H 3481   4.031   3.202   7.578  0.5935  0.9377  3.1442
  750MOL0     H 3482   3.512   3.102   7.469 -3.6626 -0.1134 -0.5719
  750MOL0     H 3483   3.325   3.216   7.347  0.1783  2.1049  2.4174
  750MOL0     H 3484   1.791   4.146   6.868  0.0528 -0.1030 -1.1882
  750MOL0     H 3485   1.586   4.059   6.794  1.9568 -0.8222 -0.9376
  750MOL0     H 3486   1.165   3.918   6.965  3.0320 -1.7735  0.2741
  750MOL0     H 3487   0.956   3.956   6.838 -1.5733 -1.2080 -1.9298
  750MOL0     H 3488   0.768   3.852   6.752  3.9558 -4.8471  0.0434
  750MOL0     H 3489   0.787   3.957   6.595  0.2376 -0.0781 -0.6307
  750MOL0     H 3490   0.682   3.659   6.641 -2.5483 -1.1138 -0.0807
  750MOL0     H 3491   0.672   3.743   6.488  2.5686 -2.9588 -0.1754
  750MOL0     H 3492   0.471   3.717   6.648  0.5556  0.0266 -0.8045
  750MOL0     H 3493   0.545   3.846   6.745 -0.1266 -2.2805  1.4170
  750MOL0     H 3494   0.484   3.919   6.454  1.0719 -1.1770  0.7816
  750MOL0     H 3495   0.521   4.020   6.588  0.0575  0.7173 -2.5915
  750MOL0     H 3496   0.111   3.968   6.637 -1.0369 -0.6087 -2.2815
  750MOL0     H 3497   1.067   3.623   6.585  2.3778  2.4895 -3.1374
  750MOL0     H 3498   1.385   3.613   6.623 -0.3830  0.0699  1.0709
  750MOL0     H 3499   1.358   3.504   6.751  0.3072  1.3074 -0.1238
  750MOL0     H 3500   1.256   3.495   6.618 -2.2754  0.9957 -0.7473
  751MOL0     O 3501   8.902   8.778  11.287  0.0599 -0.3199 -0.6002
  751MOL0     C 3502   8.933   8.804  11.403  0.6314  0.3059 -0.1381
  751MOL0     O 3503   9.059   8.822  11.457 -0.0476  0.5405  0.0788
  751MOL0     C 3504   9.166   8.845  11.373 -1.0213  0.6138  0.1594
  751MOL0     C 3505   9.197   8.749  11.264 -0.6204 -0.1740 -0.0278
  751MOL0     C 3506   9.308   8.781  11.177  0.0088 -0.0872 -0.7001
  751MOL0     C 3507   9.381   8.902  11.198  0.5243 -0.7947 -0.2987
  751MOL0     O 3508   9.492   8.931  11.130 -1.0102 -0.2255  0.6162
  751MOL0     C 3509   9.560   8.817  11.086 -1.0681  0.7412  0.4971
  751MOL0     C 3510   9.716   8.834  11.082 -0.2036  0.0123 -0.4318
  751MOL0     C 3511   9.768   8.927  11.201  0.4790 -0.4220 -0.6780
  751MOL0     C 3512   9.914   8.947  11.195 -1.0550  0.2960  0.8092
  751MOL0     C 3513   9.967   9.045  11.302 -0.6702 -0.5962 -0.3190
  751MOL0     C 3514  10.119   9.031  11.327  0.0837  0.7239  0.4587
  751MOL0     C 3515  10.167   9.130  11.431  0.0020 -0.2717  0.1332
  751MOL0     C 3516  10.316   9.164  11.421 -0.8520  0.1669  0.2875
  751MOL0     N 3517  10.398   9.041  11.435  1.2683 -1.5397 -0.1166
  751MOL0     C 3518  10.456   8.974  11.326  0.1038 -0.7285 -0.0549
  751MOL0     C 3519  10.538   8.876  11.378 -0.1774  0.0293 -0.1408
  751MOL0     C 3520  10.631   8.783  11.306  0.2601  0.6554 -0.0499
  751MOL0     C 3521  10.768   8.848  11.289 -1.2242 -0.0970  0.4941
  751MOL0     C 3522  10.858   8.764  11.200  0.1542  0.6602  0.4006
  751MOL0     C 3523  11.002   8.810  11.198  1.1169 -0.7153  0.2758
  751MOL0     O 3524  11.007   8.953  11.168 -0.0770  0.9380  0.1881
  751MOL0     C 3525  11.131   9.006  11.157  0.4358  0.1143 -0.0682
  751MOL0     C 3526  11.237   8.935  11.094 -0.6811 -0.8654  0.7414
  751MOL0     C 3527  11.365   8.992  11.080  0.4053 -0.1574 -0.1432
  751MOL0     C 3528  11.469   8.913  11.010  0.5911  0.8488  0.0968
  751MOL0     C 3529  11.389   9.115  11.139 -0.7431 -0.2907 -0.2673
  751MOL0     C 3530  11.521   9.182  11.134 -0.5343  0.5847 -0.8440
  751MOL0     O 3531  11.523   9.316  11.170 -0.7065 -0.0863  0.4581
  751MOL0     C 3532  11.630   9.396  11.191 -0.1593  0.1981 -0.3604
  751MOL0     C 3533  11.728   9.363  11.277  0.2507 -0.8065 -0.1248
  751MOL0     C 3534  11.843   9.446  11.282 -0.4814 -0.4620  0.1517
  751MOL0     C 3535  11.861   9.561  11.205  0.1375  0.8490 -0.3004
  751MOL0     O 3536  11.986   9.626  11.213  0.7289 -0.0936  0.3224
  751MOL0     C 3537  11.988   9.758  11.164 -0.3141  0.4585 -0.6062
  751MOL0     C 3538  12.050   9.762  11.026 -0.3951  0.0635  0.8210
  751MOL0     C 3539  12.200   9.726  11.020 -0.0896  0.4373 -0.0454
  751MOL0     C 3540  12.296   9.839  11.058  0.2714  0.4605 -0.5432
  751MOL0     C 3541  12.442   9.795  11.061 -0.3202 -0.2608 -1.0595
  751MOL0     C 3542  12.529   9.910  11.023 -0.8939 -0.3868  0.3799
  751MOL0     C 3543  12.674   9.849  11.013 -0.4332  0.5613  0.4000
  751MOL0     C 3544  12.716   9.843  10.869  0.9841  0.2148  0.0060
  751MOL0    Cl 3545  12.887   9.874  10.852 -0.5193  0.1473  0.0413
  751MOL0     C 3546  11.757   9.589  11.121  0.4620  0.3456  0.3945
  751MOL0     C 3547  11.642   9.508  11.108 -0.3197 -0.5508  0.1790
  751MOL0     O 3548  11.625   9.116  11.117  0.8366 -0.3669 -0.5133
  751MOL0     C 3549  11.282   9.187  11.204  0.9501  0.4363 -0.2335
  751MOL0     C 3550  11.148   9.135  11.203  1.0125  1.0305 -0.2136
  751MOL0     N 3551  10.531   8.886  11.518  0.6933 -0.4484 -0.3503
  751MOL0     N 3552  10.448   8.988  11.552  0.1871  0.0043  0.3058
  751MOL0     C 3553   9.343   8.990  11.287  0.1901 -0.3736 -0.6458
  751MOL0     C 3554   9.238   8.962  11.377 -0.3592 -0.1090 -0.0025
  751MOL0     C 3555   8.822   8.831  11.502  0.7263  0.1749 -0.0686
  751MOL0     C 3556   8.843   8.812  11.644 -0.3146  0.7150 -0.1940
  751MOL0     C 3557   8.738   8.832  11.736  0.0267  0.2673 -0.1894
  751MOL0     C 3558   8.608   8.858  11.690 -1.0235  0.4379 -0.5929
  751MOL0     O 3559   8.512   8.851  11.782  1.0061  0.6146 -0.5412
  751MOL0     C 3560   8.377   8.865  11.743  0.4112  1.0247 -0.7651
  751MOL0     C 3561   8.291   8.806  11.849  0.0115 -0.1959 -0.0745
  751MOL0     C 3562   8.151   8.870  11.853 -0.9242 -0.1537 -0.3421
  751MOL0     C 3563   8.057   8.764  11.908 -0.5734 -0.0439  0.0782
  751MOL0     C 3564   7.932   8.823  11.955 -0.7266  0.5363  0.0774
  751MOL0     C 3565   7.811   8.853  11.969 -0.7577  0.1500  1.0042
  751MOL0     C 3566   8.588   8.886  11.555 -0.7656  0.4073  1.2809
  751MOL0     C 3567   8.690   8.883  11.461 -0.2622  0.3530  0.2987
  751MOL0     C 3568   8.646   8.926  11.317 -0.6592  0.1361 -1.5411
  751MOL0     H 3569   9.131   8.664  11.250  0.6140 -0.9923 -1.0515
  751MOL0     H 3570   9.320   8.712  11.094 -1.3488 -0.8797 -0.2697
  751MOL0     H 3571   9.530   8.791  10.984 -0.6257 -1.4182  0.8716
  751MOL0     H 3572   9.549   8.732  11.154 -1.4214 -0.3824 -0.9171
  751MOL0     H 3573   9.773   8.741  11.077 -0.4274 -0.2003  0.7002
  751MOL0     H 3574   9.731   8.898  10.994 -1.1876  0.1275 -0.5166
  751MOL0     H 3575   9.715   9.023  11.202 -0.4224 -0.9122 -0.0551
  751MOL0     H 3576   9.742   8.882  11.297 -0.9834  0.1600 -0.7727
  751MOL0     H 3577   9.955   8.846  11.206 -2.1631 -0.0842  1.6797
  751MOL0     H 3578   9.945   8.979  11.095 -0.8932 -4.3165 -0.8576
  751MOL0     H 3579   9.919   9.023  11.398  0.8592  0.2600  0.6795
  751MOL0     H 3580   9.937   9.146  11.276  0.6731  0.6910  2.6918
  751MOL0     H 3581  10.162   8.935  11.354 -1.4317  0.1996  1.1235
  751MOL0     H 3582  10.152   9.056  11.226 -1.4858  0.0392 -0.2583
  751MOL0     H 3583  10.147   9.092  11.531 -1.1840  0.7574  0.3030
  751MOL0     H 3584  10.108   9.219  11.408  0.0133 -0.7455 -1.9722
  751MOL0     H 3585  10.343   9.194  11.319  0.8570 -3.2245 -0.4086
  751MOL0     H 3586  10.347   9.242  11.491  0.8526 -0.8693  0.7282
  751MOL0     H 3587  10.434   9.009  11.225 -1.5395  0.8880  0.8179
  751MOL0     H 3588  10.582   8.749  11.214 -0.6032  1.2531  0.1852
  751MOL0     H 3589  10.646   8.688  11.359 -3.1811  0.2460  0.3895
  751MOL0     H 3590  10.751   8.943  11.238 -1.4106  0.1642  1.0348
  751MOL0     H 3591  10.816   8.852  11.387 -1.4548  0.1982  0.5955
  751MOL0     H 3592  10.859   8.660  11.234 -0.9571  0.3651 -0.4171
  751MOL0     H 3593  10.811   8.767  11.102  0.9510 -1.4255 -0.1002
  751MOL0     H 3594  11.040   8.795  11.300  0.4765 -0.1685  0.5969
  751MOL0     H 3595  11.057   8.750  11.124 -1.4831 -0.3449 -2.1191
  751MOL0     H 3596  11.226   8.836  11.052  2.8032 -0.2859 -1.9334
  751MOL0     H 3597  11.457   8.810  10.975  2.5245 -0.0929  1.9764
  751MOL0     H 3598  11.548   8.890  11.082 -1.2579 -1.4876  1.5147
  751MOL0     H 3599  11.521   8.963  10.928  0.5826  0.4027 -0.1846
  751MOL0     H 3600  11.722   9.277  11.343 -1.6482  1.3482  2.7931
  751MOL0     H 3601  11.922   9.409  11.347 -0.8258  0.4845  1.1543
  751MOL0     H 3602  11.886   9.798  11.160  0.0584  1.3706 -1.2003
  751MOL0     H 3603  12.031   9.826  11.238 -2.6068  0.1156  1.1494
  751MOL0     H 3604  12.000   9.687  10.963  0.4014 -1.0768  1.5109
  751MOL0     H 3605  12.045   9.865  10.989  0.1378  0.3246  1.4534
  751MOL0     H 3606  12.207   9.696  10.915 -1.4188  1.0318 -0.3237
  751MOL0     H 3607  12.223   9.639  11.082 -0.9430 -0.0452 -0.3822
  751MOL0     H 3608  12.257   9.876  11.153 -1.4838 -2.0917 -0.1571
  751MOL0     H 3609  12.281   9.922  10.989 -0.9009  0.1601 -0.6851
  751MOL0     H 3610  12.475   9.753  11.156 -2.0139  0.2974 -0.1878
  751MOL0     H 3611  12.466   9.718  10.987 -1.0955 -0.3475 -1.2279
  751MOL0     H 3612  12.522   9.994  11.093 -1.7447 -0.6974  0.6738
  751MOL0     H 3613  12.499   9.951  10.926  0.0457 -3.4665 -1.3624
  751MOL0     H 3614  12.687   9.751  11.059  0.3903  0.6433  0.3522
  751MOL0     H 3615  12.742   9.911  11.073  1.6700 -0.5614 -0.7071
  751MOL0     H 3616  12.666   9.920  10.810  0.2021  0.5447  1.0715
  751MOL0     H 3617  12.680   9.757  10.812  1.2945  0.3380 -0.3764
  751MOL0     H 3618  11.763   9.679  11.061  0.5430 -0.3669 -0.6881
  751MOL0     H 3619  11.576   9.527  11.024 -1.0538  1.0158  1.0866
  751MOL0     H 3620  11.304   9.290  11.231  1.5386  0.0975  0.6336
  751MOL0     H 3621  11.073   9.194  11.254  0.5918  1.3035 -1.1330
  751MOL0     H 3622   9.401   9.079  11.307  0.6968 -0.9948  0.9035
  751MOL0     H 3623   9.214   9.029  11.459  1.6934  1.4824 -0.6210
  751MOL0     H 3624   8.937   8.779  11.687  1.7918  3.8891 -1.9153
  751MOL0     H 3625   8.754   8.819  11.843 -2.8812 -2.2404  0.0746
  751MOL0     H 3626   8.348   8.968  11.724 -3.2370  0.0543 -1.1847
  751MOL0     H 3627   8.356   8.797  11.659  0.5695 -1.2162  0.9174
  751MOL0     H 3628   8.343   8.832  11.942 -0.6948 -0.9154  0.5443
  751MOL0     H 3629   8.295   8.696  11.846  1.3638 -0.2452  1.8240
  751MOL0     H 3630   8.146   8.967  11.903  3.2830  0.2669 -0.3727
  751MOL0     H 3631   8.128   8.903  11.751  1.4836  1.5397 -0.4110
  751MOL0     H 3632   8.103   8.712  11.993  1.7884  0.3947 -0.8529
  751MOL0     H 3633   8.037   8.695  11.826  1.2171  1.0372 -1.3389
  751MOL0     H 3634   7.715   8.897  11.986 -0.8295 -0.2687  1.7161
  751MOL0     H 3635   8.489   8.918  11.524  1.1485  2.6970 -3.4598
  751MOL0     H 3636   8.601   8.839  11.269 -0.0785 -1.0078 -0.0919
  751MOL0     H 3637   8.572   9.005  11.336 -0.7023 -0.8693  4.5693
  751MOL0     H 3638   8.732   8.955  11.256  0.9831 -2.9812 -0.8969
  752MOL0     O 3639   5.731  10.917   9.189  0.3915 -0.4322 -0.6224
  752MOL0     C 3640   5.737  10.879   9.069 -0.0930  0.2457 -1.2119
  752MOL0     O 3641   5.853  10.860   8.995  0.6328  0.0230  0.2980
  752MOL0     C 3642   5.967  10.873   9.064  0.5620  0.7547  0.3840
  752MOL0     C 3643   6.061  10.972   9.037  0.6322 -0.0206  0.0081
  752MOL0     C 3644   6.184  10.985   9.100 -0.9068  0.8091  0.8605
  752MOL0     C 3645   6.224  10.882   9.184 -0.8531 -0.9783  0.5490
  752MOL0     O 3646   6.337  10.880   9.256  0.8758  0.6901 -0.6714
  752MOL0     C 3647   6.454  10.899   9.176  0.0217  0.2097  0.2642
  752MOL0     C 3648   6.584  10.886   9.257 -0.4268 -0.1661  0.6167
  752MOL0     C 3649   6.612  10.743   9.276 -0.4806  0.1695  0.6120
  752MOL0     C 3650   6.735  10.730   9.357 -0.1719 -0.5788 -0.5456
  752MOL0     C 3651   6.768  10.583   9.381  0.2369 -0.3517 -0.0125
  752MOL0     C 3652   6.869  10.563   9.497 -0.5618 -0.1449  0.3830
  752MOL0     C 3653   6.932  10.423   9.502 -1.0953 -0.5853 -0.2123
  752MOL0     C 3654   6.835  10.307   9.493  0.2082  0.0168  0.2598
  752MOL0     N 3655   6.891  10.171   9.526  0.6169  0.5733  0.5344
  752MOL0     C 3656   6.995  10.094   9.465 -0.4006  0.7382 -0.8918
  752MOL0     C 3657   7.000   9.986   9.551  0.6951 -0.3145 -0.0381
  752MOL0     C 3658   7.100   9.871   9.546  0.0683 -0.0726  0.2587
  752MOL0     C 3659   7.057   9.795   9.421  0.3141 -0.1587 -0.1308
  752MOL0     C 3660   7.168   9.699   9.377  0.0743  0.4937  0.2260
  752MOL0     C 3661   7.178   9.574   9.465 -0.8499 -1.1172 -0.6137
  752MOL0     O 3662   7.293   9.492   9.442 -0.1492 -0.3239 -0.5449
  752MOL0     C 3663   7.416   9.539   9.465 -0.6414  0.2040 -0.7500
  752MOL0     C 3664   7.526   9.481   9.400 -0.0854  0.1101  0.3774
  752MOL0     C 3665   7.658   9.526   9.406  0.6542  0.6103 -0.0318
  752MOL0     C 3666   7.761   9.456   9.316  0.1738  1.0065  0.0855
  752MOL0     C 3667   7.690   9.630   9.498 -0.7100 -0.5192 -0.1932
  752MOL0     C 3668   7.824   9.679   9.504  0.2603  0.2908  1.0534
  752MOL0     O 3669   7.888   9.676   9.622  0.3881  0.3846  0.3995
  752MOL0     C 3670   7.966   9.782   9.653  0.5009 -0.2025 -0.4281
  752MOL0     C 3671   8.003   9.774   9.788  0.1889  0.5776  0.4720
  752MOL0     C 3672   8.085   9.870   9.852 -0.0630  0.7250 -0.2495
  752MOL0     C 3673   8.128   9.977   9.779 -0.7558  0.3903 -0.9199
  752MOL0     O 3674   8.224  10.053   9.845  0.1464  0.0055 -0.1090
  752MOL0     C 3675   8.282  10.167   9.779 -0.3623 -0.5696  0.2798
  752MOL0     C 3676   8.395  10.140   9.679  0.2852  0.2739 -0.6283
  752MOL0     C 3677   8.435  10.273   9.613  0.1402 -0.0454  0.3173
  752MOL0     C 3678   8.555  10.254   9.515  0.0291  0.1821 -0.6894
  752MOL0     C 3679   8.623  10.386   9.473  0.9954 -0.1591 -0.4078
  752MOL0     C 3680   8.735  10.360   9.365 -0.1476  0.4832 -0.5876
  752MOL0     C 3681   8.806  10.484   9.307 -0.5049  0.4780  0.7590
  752MOL0     C 3682   8.877  10.453   9.169 -0.1013 -0.1027  0.2106
  752MOL0    Cl 3683   9.005  10.331   9.190  0.2603 -0.7752 -0.2493
  752MOL0     C 3684   8.102   9.992   9.642 -0.0009  0.9556  0.4401
  752MOL0     C 3685   8.018   9.893   9.577 -0.0222 -0.0550 -0.0581
  752MOL0     O 3686   7.873   9.722   9.396 -0.2161 -0.7198 -0.4767
  752MOL0     C 3687   7.585   9.683   9.568 -0.2387 -0.1769 -0.1385
  752MOL0     C 3688   7.452   9.647   9.545  0.4574  0.0982  0.1034
  752MOL0     N 3689   6.894   9.994   9.645 -0.3681 -0.1104  0.2557
  752MOL0     N 3690   6.826  10.104   9.625 -0.2101  0.8516  0.4087
  752MOL0     C 3691   6.140  10.775   9.205 -0.1700 -0.2262 -0.5756
  752MOL0     C 3692   6.010  10.773   9.150 -0.2569  0.3990  0.1302
  752MOL0     C 3693   5.607  10.864   9.008  0.6355 -0.2348  0.0176
  752MOL0     C 3694   5.580  10.940   8.895  0.8051  0.3531 -0.8742
  752MOL0     C 3695   5.451  10.945   8.845  0.6366  0.6772  0.2463
  752MOL0     C 3696   5.341  10.882   8.915  0.7165 -0.4271  0.7959
  752MOL0     O 3697   5.206  10.884   8.890 -0.1137 -0.1772 -0.4260
  752MOL0     C 3698   5.138  11.004   8.868  0.4160 -0.6660  0.3099
  752MOL0     C 3699   5.059  10.993   8.736  0.8955  0.4504 -0.3232
  752MOL0     C 3700   4.985  10.858   8.713  1.0569  0.0242 -0.0858
  752MOL0     C 3701   4.950  10.847   8.563  0.0740 -0.4844 -0.2920
  752MOL0     C 3702   4.910  10.703   8.539 -0.0550  0.3295 -0.3601
  752MOL0     C 3703   4.896  10.586   8.512  0.6416  0.0364 -1.4671
  752MOL0     C 3704   5.371  10.803   9.027 -0.0828 -0.5417 -0.5006
  752MOL0     C 3705   5.503  10.789   9.068 -1.2867 -0.3519  0.4495
  752MOL0     C 3706   5.532  10.694   9.182  0.0503  0.1291  0.0066
  752MOL0     H 3707   6.025  11.038   8.959 -4.8125 -1.3438  0.9917
  752MOL0     H 3708   6.255  11.061   9.070  1.4373 -1.5479  0.0924
  752MOL0     H 3709   6.455  10.996   9.125 -0.0969  1.1022  1.9109
  752MOL0     H 3710   6.454  10.836   9.086  0.7453 -0.9789  1.0774
  752MOL0     H 3711   6.662  10.931   9.196 -0.6130 -2.6515 -1.6033
  752MOL0     H 3712   6.573  10.940   9.352  2.9071  4.8687 -1.4481
  752MOL0     H 3713   6.531  10.690   9.328  1.5445 -1.3351  2.4231
  752MOL0     H 3714   6.632  10.692   9.181  0.4097  0.6309  0.5496
  752MOL0     H 3715   6.820  10.776   9.307 -0.9065  2.1179  0.4557
  752MOL0     H 3716   6.735  10.792   9.448  2.3209 -1.1256 -0.1175
  752MOL0     H 3717   6.818  10.541   9.293  1.3919  1.1239 -0.0877
  752MOL0     H 3718   6.672  10.535   9.401  1.3513 -1.8206  2.3292
  752MOL0     H 3719   6.943  10.643   9.495  0.2889 -0.9135  0.5460
  752MOL0     H 3720   6.813  10.578   9.589  2.7135  2.7486  2.1169
  752MOL0     H 3721   6.983  10.419   9.599 -0.4986  2.2020 -0.3276
  752MOL0     H 3722   7.006  10.410   9.423 -0.5164  1.2698 -0.0219
  752MOL0     H 3723   6.747  10.331   9.554 -1.9870 -2.1599 -1.8304
  752MOL0     H 3724   6.788  10.295   9.395 -0.9453 -0.2650  0.8302
  752MOL0     H 3725   7.037  10.117   9.368 -1.5268 -1.3062 -1.9195
  752MOL0     H 3726   7.093   9.800   9.629  1.0218 -2.6714 -1.7148
  752MOL0     H 3727   7.204   9.905   9.542 -0.6542  2.3001 -0.0016
  752MOL0     H 3728   6.973   9.731   9.452  1.6035 -2.5201 -1.2894
  752MOL0     H 3729   7.026   9.867   9.345  2.5682  1.0473  0.0373
  752MOL0     H 3730   7.160   9.662   9.274 -0.6724 -0.6359  0.6690
  752MOL0     H 3731   7.260   9.757   9.385 -0.5428  1.6860 -0.7727
  752MOL0     H 3732   7.169   9.596   9.572 -2.2687 -2.9520 -0.3098
  752MOL0     H 3733   7.097   9.508   9.434 -0.4797 -1.3324 -1.1311
  752MOL0     H 3734   7.505   9.390   9.345  0.8243  0.2352 -0.1990
  752MOL0     H 3735   7.854   9.439   9.371  0.6048  4.9960  0.8407
  752MOL0     H 3736   7.784   9.513   9.226  1.1119  1.2525  0.4682
  752MOL0     H 3737   7.728   9.356   9.285  0.2740  0.8006  0.6264
  752MOL0     H 3738   7.971   9.694   9.855  2.1960  0.3739  1.2479
  752MOL0     H 3739   8.096   9.867   9.960  0.9609 -4.4643 -0.2808
  752MOL0     H 3740   8.201  10.233   9.747 -1.9280  0.0266  4.8148
  752MOL0     H 3741   8.340  10.215   9.858  2.5388 -1.5513 -1.0800
  752MOL0     H 3742   8.488  10.103   9.723  0.5717  1.0774 -0.5324
  752MOL0     H 3743   8.362  10.069   9.603  0.5897 -0.2898 -0.2375
  752MOL0     H 3744   8.464  10.341   9.693 -2.6090 -0.4621  1.7786
  752MOL0     H 3745   8.351  10.314   9.555  0.9429 -2.1863 -2.6212
  752MOL0     H 3746   8.536  10.196   9.424  1.4501 -1.8517  0.2319
  752MOL0     H 3747   8.633  10.194   9.563 -0.1521  0.5265  0.0496
  752MOL0     H 3748   8.554  10.462   9.435  0.0321 -0.2459  1.1036
  752MOL0     H 3749   8.678  10.427   9.558 -0.5153 -0.4464  0.7355
  752MOL0     H 3750   8.685  10.312   9.281 -0.6125  0.2133 -0.1615
  752MOL0     H 3751   8.810  10.300   9.416  2.5567  0.7866 -3.8667
  752MOL0     H 3752   8.865  10.530   9.386  0.9653 -0.2516  0.1233
  752MOL0     H 3753   8.722  10.552   9.289 -0.9725  0.2382  1.9238
  752MOL0     H 3754   8.913  10.552   9.138 -0.7851  0.0146 -0.2236
  752MOL0     H 3755   8.807  10.412   9.097  1.5609 -4.2835  0.7239
  752MOL0     H 3756   8.145  10.069   9.579  2.1077  1.7133  2.6270
  752MOL0     H 3757   7.990   9.913   9.474  1.3642 -1.3532 -0.7309
  752MOL0     H 3758   7.606   9.768   9.632 -0.6476  1.1138 -1.6644
  752MOL0     H 3759   7.374   9.697   9.602 -0.3956 -0.2314 -0.7415
  752MOL0     H 3760   6.174  10.709   9.284  0.4048  2.6378  1.7614
  752MOL0     H 3761   5.944  10.688   9.166  1.2098 -0.7863  0.1126
  752MOL0     H 3762   5.660  10.970   8.829  0.4958  0.3601 -1.2453
  752MOL0     H 3763   5.429  10.994   8.751 -1.5418 -1.9562 -0.7470
  752MOL0     H 3764   5.067  11.015   8.951 -1.0910  3.1949 -1.2361
  752MOL0     H 3765   5.206  11.090   8.872  0.8803 -1.0695  3.3348
  752MOL0     H 3766   5.135  11.011   8.659  1.8232  3.0015  1.0573
  752MOL0     H 3767   4.982  11.070   8.728  3.0297  2.7700  0.1582
  752MOL0     H 3768   5.044  10.772   8.744 -1.4588 -1.4722  0.7957
  752MOL0     H 3769   4.886  10.848   8.758 -1.3228  0.4453 -4.6068
  752MOL0     H 3770   5.030  10.877   8.494 -0.0814 -1.7026 -1.0373
  752MOL0     H 3771   4.866  10.914   8.541  0.3372 -1.0922 -3.7126
  752MOL0     H 3772   4.864  10.487   8.485 -1.6487  0.2993  0.0124
  752MOL0     H 3773   5.295  10.763   9.094 -0.9284  3.3151  1.1455
  752MOL0     H 3774   5.634  10.657   9.165  1.6323  4.8237 -2.8149
  752MOL0     H 3775   5.522  10.746   9.278  3.2279  0.7663  0.1170
  752MOL0     H 3776   5.464  10.610   9.197  0.8075 -0.6393 -0.7370
  753MOL0     O 3777   6.203   0.304   6.457  0.5110  0.0323  0.4514
  753MOL0     C 3778   6.210   0.200   6.390  0.5543  0.4484  0.4661
  753MOL0     O 3779   6.291   0.099   6.424 -0.7377 -0.6442 -0.3014
  753MOL0     C 3780   6.413   0.131   6.489 -0.1557  1.6082 -0.2423
  753MOL0     C 3781   6.476   0.249   6.483  0.4119 -0.7485 -0.0012
  753MOL0     C 3782   6.603   0.263   6.544 -0.5335 -0.1647 -0.6398
  753MOL0     C 3783   6.670   0.165   6.615 -0.7592 -0.3795  0.4259
  753MOL0     O 3784   6.786   0.204   6.680  0.4047 -1.1805 -0.3852
  753MOL0     C 3785   6.878   0.096   6.716  0.9893 -0.9331  0.3152
  753MOL0     C 3786   7.002   0.165   6.763 -0.1910 -0.3441 -1.1033
  753MOL0     C 3787   6.978   0.248   6.885  0.0170  0.2494  0.1456
  753MOL0     C 3788   7.095   0.353   6.893  0.5625  0.1376 -0.3761
  753MOL0     C 3789   7.113   0.419   7.032  0.1950 -0.1375  0.1525
  753MOL0     C 3790   7.211   0.536   7.051 -0.0048  0.6217 -0.3251
  753MOL0     C 3791   7.359   0.482   7.033  0.3494 -0.6286 -1.4392
  753MOL0     C 3792   7.463   0.592   7.072 -1.0284 -0.0570  0.3943
  753MOL0     N 3793   7.594   0.557   7.054 -0.4169 -0.1595  0.2939
  753MOL0     C 3794   7.652   0.441   7.090 -0.2293 -0.0783  0.6760
  753MOL0     C 3795   7.784   0.463   7.049  0.5351  0.1407 -0.8419
  753MOL0     C 3796   7.901   0.378   7.085 -0.4875 -0.0850 -0.7869
  753MOL0     C 3797   7.957   0.315   6.956  0.5892  0.4248  0.5234
  753MOL0     C 3798   8.053   0.197   6.986 -0.2279 -0.1090  0.1769
  753MOL0     C 3799   8.143   0.162   6.872 -0.0570 -0.8696  0.6557
  753MOL0     O 3800   8.225   0.275   6.861  0.8005  0.4770  0.2823
  753MOL0     C 3801   8.330   0.266   6.766  0.0197 -0.6258  0.2871
  753MOL0     C 3802   8.410   0.382   6.740 -0.3940  1.0392 -0.7669
  753MOL0     C 3803   8.530   0.381   6.675 -0.3188  0.2705 -0.1273
  753MOL0     C 3804   8.606   0.517   6.653  0.0507  0.0590  1.2476
  753MOL0     C 3805   8.588   0.246   6.653  0.3872 -0.4164  0.0922
  753MOL0     C 3806   8.718   0.216   6.585  0.2726  0.0103 -0.4467
  753MOL0     O 3807   8.744   0.080   6.563  0.4966 -0.1254  0.5758
  753MOL0     C 3808   8.872   0.050   6.540  0.9859 -0.3635 -0.1474
  753MOL0     C 3809   8.903   0.015   6.411  0.9514 -0.0530 -0.9607
  753MOL0     C 3810   9.030  -0.026   6.371 -0.0570 -0.4768 -0.4943
  753MOL0     C 3811   9.130  -0.050   6.473 -0.1517 -0.4570 -0.0163
  753MOL0     O 3812   9.258  -0.089   6.438  0.5912 -0.1260 -0.0840
  753MOL0     C 3813   9.286  -0.108   6.298 -0.4760 -0.1597  1.0564
  753MOL0     C 3814   9.430  -0.169   6.283 -0.7675 -0.5267  0.7791
  753MOL0     C 3815   9.547  -0.069   6.241  0.7109  0.0627 -0.3832
  753MOL0     C 3816   9.597   0.002   6.369  0.4329  0.1493  0.7610
  753MOL0     C 3817   9.705   0.098   6.334 -0.0639  0.4670 -0.0223
  753MOL0     C 3818   9.764   0.169   6.451  0.2759  0.5055 -0.1666
  753MOL0     C 3819   9.676   0.270   6.526  0.8418 -0.4800  0.4089
  753MOL0     C 3820   9.623   0.390   6.442 -0.6688 -0.2305 -0.1337
  753MOL0    Cl 3821   9.554   0.522   6.548 -0.2980 -0.1805 -0.4260
  753MOL0     C 3822   9.092  -0.029   6.608  0.6535 -0.3082 -0.9736
  753MOL0     C 3823   8.964   0.027   6.645 -0.2786 -0.4418  0.6120
  753MOL0     O 3824   8.787   0.314   6.551  0.0272 -0.5593 -0.1081
  753MOL0     C 3825   8.505   0.138   6.672 -0.6591  0.4679  0.1431
  753MOL0     C 3826   8.374   0.146   6.715 -0.3468  0.3072 -0.5175
  753MOL0     N 3827   7.790   0.575   6.973  1.2009  0.4817  0.2677
  753MOL0     N 3828   7.675   0.632   6.981  0.2903 -0.6618 -0.0362
  753MOL0     C 3829   6.600   0.043   6.625  0.7652 -0.4919 -0.3372
  753MOL0     C 3830   6.474   0.025   6.565  0.1142  0.1743  0.1131
  753MOL0     C 3831   6.094   0.169   6.304 -0.3041 -0.1144  0.3911
  753MOL0     C 3832   6.059   0.031   6.305  0.3107 -0.0449  0.2778
  753MOL0     C 3833   5.958  -0.017   6.210  0.1737  0.2534 -0.1981
  753MOL0     C 3834   5.891   0.080   6.123 -1.1434  0.2360 -0.2138
  753MOL0     O 3835   5.791   0.053   6.036  0.1825 -0.1507  0.4189
  753MOL0     C 3836   5.704  -0.064   6.059 -0.5963  0.4462  0.2218
  753MOL0     C 3837   5.556  -0.030   6.035 -0.1139  0.1288 -0.8020
  753MOL0     C 3838   5.518  -0.028   5.890  0.0056  0.4445 -1.2201
  753MOL0     C 3839   5.372   0.017   5.893  0.2244  0.3077 -0.1841
  753MOL0     C 3840   5.332   0.019   5.756 -0.9811  0.6072  0.6054
  753MOL0     C 3841   5.283   0.018   5.641 -0.5778  0.8210 -0.2705
  753MOL0     C 3842   5.934   0.212   6.126 -0.7205 -0.1526  0.1190
  753MOL0     C 3843   6.035   0.259   6.214  0.2646  0.0850  0.9498
  753MOL0     C 3844   6.081   0.406   6.194 -0.3838 -0.1972  0.5372
  753MOL0     H 3845   6.431   0.338   6.441  3.1531  0.6134 -0.2131
  753MOL0     H 3846   6.655   0.356   6.527  1.1806 -1.0677 -0.5248
  753MOL0     H 3847   6.898   0.040   6.623  0.7374  0.2531 -0.4790
  753MOL0     H 3848   6.841   0.033   6.798 -1.2658  1.4822  1.3025
  753MOL0     H 3849   7.082   0.097   6.792  1.0070  2.2135  2.2961
  753MOL0     H 3850   7.039   0.231   6.685 -0.2381  0.1981 -0.6748
  753MOL0     H 3851   6.881   0.298   6.884 -1.3328 -2.0940 -2.4001
  753MOL0     H 3852   6.985   0.183   6.973  0.5863  1.4914  1.0376
  753MOL0     H 3853   7.193   0.305   6.888  1.8284  2.4008  0.8581
  753MOL0     H 3854   7.079   0.428   6.815 -0.0596  0.4623  0.0506
  753MOL0     H 3855   7.145   0.341   7.101 -0.2009 -0.2985  0.1509
  753MOL0     H 3856   7.015   0.458   7.061 -0.3385  0.0329 -1.7739
  753MOL0     H 3857   7.169   0.605   6.977 -3.9549  0.8598  1.8490
  753MOL0     H 3858   7.201   0.578   7.151 -0.0012  1.4873 -0.6804
  753MOL0     H 3859   7.360   0.438   6.932 -3.9600 -1.0774 -1.4517
  753MOL0     H 3860   7.367   0.412   7.115 -1.6797 -1.1629 -1.6458
  753MOL0     H 3861   7.434   0.678   7.012 -0.9133 -1.3207 -1.5531
  753MOL0     H 3862   7.443   0.623   7.175  0.7636 -0.7576  0.9935
  753MOL0     H 3863   7.611   0.364   7.155 -0.6435 -0.0149  0.4939
  753MOL0     H 3864   7.876   0.298   7.156 -2.2112 -0.8429 -2.1542
  753MOL0     H 3865   7.972   0.440   7.140 -0.2987 -1.5544  0.7094
  753MOL0     H 3866   7.873   0.268   6.903  1.2853 -1.9660  1.3974
  753MOL0     H 3867   7.995   0.396   6.893  1.0420 -1.6140 -1.9858
  753MOL0     H 3868   8.121   0.229   7.065  1.8405  1.2060 -1.9695
  753MOL0     H 3869   8.005   0.105   7.018  2.5325 -2.4292 -1.8112
  753MOL0     H 3870   8.194   0.066   6.888  2.9897 -0.1123 -3.0819
  753MOL0     H 3871   8.084   0.151   6.780 -0.3275  0.3437  0.6684
  753MOL0     H 3872   8.368   0.476   6.774 -1.6337 -0.3736  1.9159
  753MOL0     H 3873   8.527   0.592   6.657 -0.7368 -0.7978  3.5354
  753MOL0     H 3874   8.665   0.518   6.561 -3.4790 -0.8857 -1.2236
  753MOL0     H 3875   8.682   0.546   6.726  1.8200 -1.8146  0.2593
  753MOL0     H 3876   8.821   0.026   6.340 -2.7753 -0.9679  2.8357
  753MOL0     H 3877   9.038  -0.043   6.264  0.3551 -1.0589 -0.3787
  753MOL0     H 3878   9.219  -0.181   6.251 -0.5884  0.4604  0.2382
  753MOL0     H 3879   9.291  -0.010   6.250  0.4533 -1.6809 -2.3174
  753MOL0     H 3880   9.471  -0.230   6.364 -0.7543 -1.4563  0.0996
  753MOL0     H 3881   9.421  -0.238   6.198 -2.9047 -0.9252  1.2777
  753MOL0     H 3882   9.519  -0.003   6.158 -2.2358 -0.7472 -0.1463
  753MOL0     H 3883   9.627  -0.132   6.200 -1.4782 -2.4841 -0.9954
  753MOL0     H 3884   9.641  -0.075   6.434  0.3136  0.3725  1.1057
  753MOL0     H 3885   9.522   0.053   6.430  0.7679  0.0943  1.2208
  753MOL0     H 3886   9.789   0.048   6.286  1.3333  0.1929  2.5372
  753MOL0     H 3887   9.666   0.169   6.261 -1.1806 -0.8628 -0.7580
  753MOL0     H 3888   9.850   0.223   6.412  1.3795  1.6820  3.5080
  753MOL0     H 3889   9.799   0.098   6.527 -1.6042 -0.4224 -0.0900
  753MOL0     H 3890   9.746   0.316   6.596  1.9358  2.8341 -2.5519
  753MOL0     H 3891   9.592   0.220   6.574  3.0267 -4.2771  0.6061
  753MOL0     H 3892   9.550   0.346   6.373 -0.1174 -1.9651  0.3543
  753MOL0     H 3893   9.707   0.437   6.390 -0.4120 -1.5899 -1.0057
  753MOL0     H 3894   9.165  -0.068   6.679 -2.3099 -1.4622  1.7006
  753MOL0     H 3895   8.936   0.030   6.749 -0.5392 -2.4173  0.6369
  753MOL0     H 3896   8.542   0.037   6.655  1.9413  1.3573  0.1885
  753MOL0     H 3897   8.310   0.059   6.718 -3.0683  1.9443 -3.8639
  753MOL0     H 3898   6.636  -0.042   6.682  0.7736  0.3109  0.8658
  753MOL0     H 3899   6.436  -0.075   6.582 -2.2226  0.6240 -1.9743
  753MOL0     H 3900   6.105  -0.043   6.369  1.0698 -0.0727 -0.2949
  753MOL0     H 3901   5.934  -0.122   6.199  0.6667 -0.0664  1.4900
  753MOL0     H 3902   5.737  -0.138   5.986  0.2363  1.4659 -0.4801
  753MOL0     H 3903   5.710  -0.100   6.162  1.8831  2.5721  0.9314
  753MOL0     H 3904   5.518   0.055   6.093 -1.7349 -1.3782  0.4534
  753MOL0     H 3905   5.498  -0.109   6.084 -0.7330  0.5069 -0.9128
  753MOL0     H 3906   5.581   0.043   5.835  0.0260  2.3503  1.0934
  753MOL0     H 3907   5.538  -0.126   5.847  2.3931 -1.3169  3.2031
  753MOL0     H 3908   5.371   0.120   5.928  1.0945  1.4743 -3.2109
  753MOL0     H 3909   5.310  -0.045   5.958 -0.5785  1.1637 -0.1101
  753MOL0     H 3910   5.245   0.036   5.542 -3.8203  0.4980  0.7958
  753MOL0     H 3911   5.886   0.295   6.077 -2.5234  1.7841  4.6131
  753MOL0     H 3912   6.128   0.445   6.285 -2.9556  0.5944  1.5964
  753MOL0     H 3913   6.147   0.408   6.107  1.2920  1.6804  1.7352
  753MOL0     H 3914   5.994   0.469   6.174  1.1772  1.7125 -0.6759
  754MOL0     O 3915   9.596   7.283   7.134 -0.3050 -0.2154  0.5685
  754MOL0     C 3916   9.563   7.377   7.210  0.1867  0.3073 -0.1590
  754MOL0     O 3917   9.623   7.400   7.331 -0.7442 -0.5079  0.1337
  754MOL0     C 3918   9.736   7.329   7.349 -0.0967  0.1198  0.1508
  754MOL0     C 3919   9.733   7.195   7.399  0.0035  0.2461  0.7518
  754MOL0     C 3920   9.855   7.131   7.407  0.7614  0.5736  0.9319
  754MOL0     C 3921   9.977   7.178   7.367 -0.0309 -0.4330  0.2548
  754MOL0     O 3922  10.089   7.101   7.396  0.7973  0.0764 -0.2120
  754MOL0     C 3923  10.092   6.977   7.313 -0.2108  0.2067  0.3499
  754MOL0     C 3924  10.222   6.945   7.243  0.3250 -0.2855 -0.9196
  754MOL0     C 3925  10.339   6.969   7.342  0.7019  0.2892  0.3367
  754MOL0     C 3926  10.472   6.973   7.264 -0.2863 -0.0363 -0.2417
  754MOL0     C 3927  10.585   7.001   7.365  0.1016  0.1748  0.3095
  754MOL0     C 3928  10.717   6.992   7.296  0.4864 -0.0913 -0.1265
  754MOL0     C 3929  10.825   6.987   7.409 -1.1062  0.5647  0.0210
  754MOL0     C 3930  10.940   6.906   7.352 -0.9087 -0.2990  0.7114
  754MOL0     N 3931  11.002   6.973   7.238 -0.6517 -0.7101  0.1705
  754MOL0     C 3932  11.119   7.041   7.236 -0.8170 -0.5243  0.0249
  754MOL0     C 3933  11.152   7.061   7.103  0.2365  0.4006 -0.0257
  754MOL0     C 3934  11.283   7.124   7.055 -0.1425 -0.4095 -0.2396
  754MOL0     C 3935  11.267   7.260   6.971  0.6398  0.0662  0.2192
  754MOL0     C 3936  11.383   7.311   6.885  0.9530  0.0010 -0.1327
  754MOL0     C 3937  11.369   7.448   6.831  0.0846  0.2208 -0.1034
  754MOL0     O 3938  11.367   7.544   6.934 -0.6116 -0.1916 -0.4765
  754MOL0     C 3939  11.422   7.666   6.910 -0.2900 -0.6927  0.0532
  754MOL0     C 3940  11.428   7.729   6.789  0.6888 -0.2215  0.1492
  754MOL0     C 3941  11.471   7.858   6.771 -0.2455 -0.1984  0.2411
  754MOL0     C 3942  11.484   7.909   6.630 -0.0427 -0.5525  0.0148
  754MOL0     C 3943  11.497   7.942   6.887 -0.4255 -0.3983  0.5497
  754MOL0     C 3944  11.544   8.084   6.878  0.6241 -0.5460 -0.2808
  754MOL0     O 3945  11.546   8.157   6.997  0.0712 -0.1336  0.1106
  754MOL0     C 3946  11.606   8.276   6.988 -0.5077 -0.0278  0.5206
  754MOL0     C 3947  11.551   8.403   7.029  0.1951  0.4156 -0.0012
  754MOL0     C 3948  11.622   8.523   7.013 -0.1074 -0.2899 -0.4269
  754MOL0     C 3949  11.754   8.531   6.961 -0.2046 -0.7105 -0.4320
  754MOL0     O 3950  11.801   8.657   6.929  0.1013 -0.3180 -0.0118
  754MOL0     C 3951  11.903   8.649   6.819  0.0193  0.2527 -0.2950
  754MOL0     C 3952  11.923   8.788   6.776 -1.0339  0.1601  0.2919
  754MOL0     C 3953  12.040   8.803   6.683 -0.3807 -0.0576 -0.2008
  754MOL0     C 3954  12.177   8.805   6.744 -0.1961  0.1399  0.2714
  754MOL0     C 3955  12.292   8.824   6.630  1.1878 -0.0868 -0.2752
  754MOL0     C 3956  12.431   8.774   6.661  0.0992 -0.5968 -0.5636
  754MOL0     C 3957  12.512   8.796   6.542  0.3754  0.4436 -0.3329
  754MOL0     C 3958  12.593   8.670   6.507 -1.1457 -0.2328  0.2437
  754MOL0    Cl 3959  12.675   8.696   6.346  0.2183 -0.0111  0.0758
  754MOL0     C 3960  11.810   8.411   6.926 -0.1104 -0.3140  0.7318
  754MOL0     C 3961  11.742   8.284   6.949  0.1478 -0.3187  1.2570
  754MOL0     O 3962  11.601   8.113   6.777  0.1619 -0.4230 -0.3613
  754MOL0     C 3963  11.489   7.885   7.009 -0.3927  1.2139 -0.6481
  754MOL0     C 3964  11.457   7.746   7.018  0.3357  1.0828 -0.6702
  754MOL0     N 3965  11.060   6.986   7.024  0.5918  0.0259  0.4277
  754MOL0     N 3966  10.971   6.938   7.104 -0.4915 -0.1243  0.2034
  754MOL0     C 3967   9.975   7.303   7.308  0.0845  0.4665 -0.5335
  754MOL0     C 3968   9.861   7.379   7.308 -0.8211  0.3671  0.0870
  754MOL0     C 3969   9.444   7.454   7.171  0.1315 -0.6561  0.4312
  754MOL0     C 3970   9.359   7.517   7.275  0.3465  0.2283 -0.5076
  754MOL0     C 3971   9.237   7.584   7.245  0.3587  0.7206  0.7832
  754MOL0     C 3972   9.197   7.588   7.110 -0.4233  0.3855 -1.3285
  754MOL0     O 3973   9.081   7.657   7.067  0.3984 -0.0830 -0.2636
  754MOL0     C 3974   8.986   7.718   7.165 -0.2825  1.5121 -1.3478
  754MOL0     C 3975   8.913   7.616   7.261 -0.0852 -0.1688 -0.5920
  754MOL0     C 3976   8.806   7.534   7.204  0.3845  0.4114  1.5340
  754MOL0     C 3977   8.790   7.396   7.256 -0.3286 -0.1592  0.5738
  754MOL0     C 3978   8.770   7.389   7.402  0.4102 -0.0397 -0.6069
  754MOL0     C 3979   8.755   7.369   7.521  0.0679  0.4485  0.0312
  754MOL0     C 3980   9.283   7.545   7.013 -0.0076  0.5137 -0.0969
  754MOL0     C 3981   9.401   7.476   7.034 -0.0368 -0.2480 -0.1819
  754MOL0     C 3982   9.483   7.430   6.919 -0.6097 -0.3154  0.4928
  754MOL0     H 3983   9.639   7.155   7.435  0.1216 -0.8605 -0.1099
  754MOL0     H 3984   9.869   7.038   7.462 -1.8312  0.5447  1.6638
  754MOL0     H 3985  10.022   6.983   7.229 -0.1070  1.0859  0.3182
  754MOL0     H 3986  10.056   6.889   7.367  0.6121  0.7284  1.8142
  754MOL0     H 3987  10.219   6.845   7.199 -1.5955  0.1420 -1.8493
  754MOL0     H 3988  10.230   7.021   7.164 -1.8321  1.6547  0.6008
  754MOL0     H 3989  10.331   7.063   7.397  1.8161  1.2329 -1.0433
  754MOL0     H 3990  10.334   6.887   7.415 -1.1016  0.3262  0.3061
  754MOL0     H 3991  10.492   6.881   7.207 -0.7028  1.0594 -2.2238
  754MOL0     H 3992  10.473   7.045   7.182  1.0710 -2.7811 -2.8705
  754MOL0     H 3993  10.578   6.921   7.440 -1.3629  0.4360  0.4816
  754MOL0     H 3994  10.572   7.099   7.412 -1.0503  0.5709 -0.7760
  754MOL0     H 3995  10.718   6.900   7.236  1.7684  1.8056 -3.2416
  754MOL0     H 3996  10.751   7.066   7.223  0.8380  0.7660  0.8853
  754MOL0     H 3997  10.788   6.950   7.505 -3.2944 -1.7752 -1.5831
  754MOL0     H 3998  10.863   7.088   7.423 -1.0889  0.4407  0.9194
  754MOL0     H 3999  11.011   6.897   7.434 -1.1074 -0.5713  0.8550
  754MOL0     H 4000  10.906   6.806   7.326  0.3227 -0.8405  1.1385
  754MOL0     H 4001  11.180   7.073   7.320  1.9066 -1.5076 -1.4477
  754MOL0     H 4002  11.339   7.046   7.003 -0.4446 -0.9643  0.2658
  754MOL0     H 4003  11.346   7.143   7.143  0.5759  1.2569 -1.0550
  754MOL0     H 4004  11.180   7.229   6.913  0.4691  1.8558 -0.5635
  754MOL0     H 4005  11.237   7.346   7.033 -0.3872  2.1568 -2.9439
  754MOL0     H 4006  11.472   7.315   6.948  0.5026 -1.7892  0.6654
  754MOL0     H 4007  11.392   7.229   6.813 -0.6932 -0.1563 -0.1909
  754MOL0     H 4008  11.449   7.462   6.757 -0.3919 -0.6205 -0.7876
  754MOL0     H 4009  11.275   7.451   6.776 -0.2423  0.1335  0.4531
  754MOL0     H 4010  11.420   7.659   6.706  0.1943  0.8614 -0.7368
  754MOL0     H 4011  11.590   7.909   6.603 -0.6471 -4.4164 -3.2663
  754MOL0     H 4012  11.435   8.004   6.606 -1.0776 -1.2732 -0.8034
  754MOL0     H 4013  11.450   7.840   6.552 -1.0478  1.1052 -1.0826
  754MOL0     H 4014  11.453   8.396   7.076 -0.1593  0.1135 -0.7677
  754MOL0     H 4015  11.579   8.613   7.053 -1.7449 -1.2902  0.1447
  754MOL0     H 4016  12.002   8.620   6.853  0.2553  0.2170 -0.9846
  754MOL0     H 4017  11.873   8.577   6.741 -0.2193 -0.3294  0.3238
  754MOL0     H 4018  11.835   8.835   6.730  1.3913  2.8092 -2.0154
  754MOL0     H 4019  11.950   8.847   6.865  3.3887  0.6126 -1.1216
  754MOL0     H 4020  12.028   8.903   6.639  1.4497  0.2468 -0.1218
  754MOL0     H 4021  12.037   8.735   6.598 -0.1274  1.8313 -1.8110
  754MOL0     H 4022  12.182   8.709   6.795 -2.5457 -0.5945 -0.7738
  754MOL0     H 4023  12.181   8.874   6.828  0.1291 -0.9143  1.1345
  754MOL0     H 4024  12.261   8.782   6.534 -0.8908  0.8055 -0.0488
  754MOL0     H 4025  12.299   8.931   6.611 -1.9242  0.0127 -1.4196
  754MOL0     H 4026  12.436   8.667   6.683  0.3767 -0.3424  0.7155
  754MOL0     H 4027  12.480   8.829   6.742 -1.3611 -0.9078  0.5678
  754MOL0     H 4028  12.584   8.879   6.550 -1.8821  2.6593 -1.6734
  754MOL0     H 4029  12.453   8.832   6.457 -0.9965 -4.4828 -1.7781
  754MOL0     H 4030  12.539   8.576   6.498 -0.4886 -0.5089 -1.1800
  754MOL0     H 4031  12.674   8.661   6.580 -0.1965  3.2816 -0.1766
  754MOL0     H 4032  11.914   8.407   6.894 -0.6973  1.2637 -1.6382
  754MOL0     H 4033  11.799   8.193   6.935  1.7843  0.1051  4.2723
  754MOL0     H 4034  11.509   7.945   7.098 -0.9391  0.9114 -0.3156
  754MOL0     H 4035  11.459   7.694   7.113 -0.8925 -0.2705 -1.3398
  754MOL0     H 4036  10.062   7.344   7.257  0.2141  0.4245 -0.3478
  754MOL0     H 4037   9.860   7.484   7.278  0.0454 -0.1630 -1.9552
  754MOL0     H 4038   9.397   7.518   7.377  1.1393 -2.7539 -0.6841
  754MOL0     H 4039   9.190   7.644   7.322 -2.3493  0.0827 -0.2617
  754MOL0     H 4040   9.043   7.784   7.230 -1.1371  0.5467  0.4440
  754MOL0     H 4041   8.908   7.768   7.107 -1.3443 -0.2869 -1.5574
  754MOL0     H 4042   8.867   7.681   7.335  1.1204 -2.2365  2.1379
  754MOL0     H 4043   8.997   7.565   7.308  3.3070  3.4071 -2.2679
  754MOL0     H 4044   8.712   7.589   7.201 -0.7392 -1.4531  0.6735
  754MOL0     H 4045   8.829   7.519   7.098 -0.8694 -5.1528  1.7343
  754MOL0     H 4046   8.878   7.335   7.235  1.9198  2.7397  1.0067
  754MOL0     H 4047   8.707   7.354   7.198 -0.2573  1.9158 -1.1641
  754MOL0     H 4048   8.729   7.364   7.625  1.8594  2.5328  0.6527
  754MOL0     H 4049   9.254   7.567   6.911  1.5491  2.0488 -0.2574
  754MOL0     H 4050   9.451   7.479   6.826 -1.5110  1.8464  1.8598
  754MOL0     H 4051   9.583   7.471   6.937 -0.8942  2.5389 -3.0994
  754MOL0     H 4052   9.472   7.327   6.885 -4.6023  0.5827 -1.5589
  755MOL0     O 4053   9.759   8.489   8.479 -0.0175  0.5272 -0.3854
  755MOL0     C 4054   9.660   8.550   8.524 -0.2421  0.5705  0.5659
  755MOL0     O 4055   9.673   8.678   8.597 -0.0456 -0.0697 -0.1161
  755MOL0     C 4056   9.791   8.737   8.614  0.5235 -0.1415  0.2339
  755MOL0     C 4057   9.821   8.793   8.736 -0.5387  0.5471  0.0705
  755MOL0     C 4058   9.950   8.845   8.757  0.7640  0.0149 -0.3043
  755MOL0     C 4059  10.036   8.857   8.646  0.3170  0.2291 -0.0638
  755MOL0     O 4060  10.157   8.918   8.639  0.3113 -0.3587  0.2340
  755MOL0     C 4061  10.228   8.947   8.760 -0.7597  0.3961  0.9809
  755MOL0     C 4062  10.370   8.993   8.726  0.2976  0.3448  0.3575
  755MOL0     C 4063  10.463   8.881   8.680 -0.7396  0.4533  0.5041
  755MOL0     C 4064  10.605   8.940   8.641  0.0821 -0.3266 -0.0040
  755MOL0     C 4065  10.691   8.830   8.583 -0.1545  0.1005  0.3752
  755MOL0     C 4066  10.833   8.879   8.531 -0.1238  0.7316 -0.6050
  755MOL0     C 4067  10.903   8.773   8.454  0.2932 -0.1130  0.5736
  755MOL0     C 4068  11.045   8.815   8.421  1.2566 -0.6205  0.2313
  755MOL0     N 4069  11.118   8.706   8.352  0.1161  0.2177  0.0229
  755MOL0     C 4070  11.251   8.674   8.371  0.2970 -0.0638  0.0150
  755MOL0     C 4071  11.287   8.579   8.279 -0.9412 -0.6047  0.1121
  755MOL0     C 4072  11.419   8.509   8.275 -0.5603  0.1869  0.1205
  755MOL0     C 4073  11.409   8.358   8.256  0.2422 -1.3641 -0.3293
  755MOL0     C 4074  11.548   8.303   8.243 -0.0344  0.6048  0.0500
  755MOL0     C 4075  11.594   8.299   8.098  0.4619  0.4480 -0.1102
  755MOL0     O 4076  11.704   8.208   8.083  0.2338  0.8504  0.1469
  755MOL0     C 4077  11.807   8.246   7.999  0.5976 -0.6570  0.0335
  755MOL0     C 4078  11.781   8.313   7.882  0.3066 -0.1425 -1.1085
  755MOL0     C 4079  11.884   8.369   7.809 -0.3402  0.9820 -0.1888
  755MOL0     C 4080  11.847   8.437   7.688 -0.2250 -0.0017  0.3430
  755MOL0     C 4081  12.015   8.344   7.850  0.4885 -0.5117 -0.5808
  755MOL0     C 4082  12.124   8.395   7.774 -0.1381  0.3179  1.3947
  755MOL0     O 4083  12.138   8.527   7.747 -0.8185 -0.3595 -0.2050
  755MOL0     C 4084  12.257   8.564   7.691 -0.7205  0.0429 -0.2788
  755MOL0     C 4085  12.380   8.538   7.763  1.5043 -0.3589 -0.3653
  755MOL0     C 4086  12.494   8.592   7.718  0.4091 -0.0794  0.4830
  755MOL0     C 4087  12.508   8.661   7.596  0.1896 -0.1140  0.0398
  755MOL0     O 4088  12.628   8.722   7.566  0.4252 -0.4554 -0.2317
  755MOL0     C 4089  12.685   8.676   7.438 -0.1160 -0.2453 -1.5449
  755MOL0     C 4090  12.831   8.726   7.431  0.3759  0.2212  0.3137
  755MOL0     C 4091  12.942   8.637   7.487 -1.0942 -0.3926 -0.7196
  755MOL0     C 4092  13.065   8.722   7.477  0.5868 -0.1967  0.4580
  755MOL0     C 4093  13.199   8.639   7.466 -0.1840 -0.4385  0.4973
  755MOL0     C 4094  13.333   8.714   7.469  0.1125  0.1113  0.0678
  755MOL0     C 4095  13.453   8.620   7.502  1.2803 -0.2998  0.1351
  755MOL0     C 4096  13.535   8.593   7.378 -0.1219  0.2698  1.3574
  755MOL0    Cl 4097  13.629   8.736   7.344 -0.4617 -0.0044  0.3186
  755MOL0     C 4098  12.387   8.688   7.524 -0.2016 -0.5787  0.2141
  755MOL0     C 4099  12.264   8.637   7.572  0.9900 -1.0340  0.3056
  755MOL0     O 4100  12.202   8.304   7.736 -0.4591 -0.7394  0.2083
  755MOL0     C 4101  12.040   8.278   7.971  1.1388  1.0801  0.0556
  755MOL0     C 4102  11.937   8.229   8.045  0.5589  1.0938 -0.9062
  755MOL0     N 4103  11.175   8.555   8.208  0.2690  0.4272 -0.3713
  755MOL0     N 4104  11.079   8.635   8.247 -0.7089 -0.4256 -0.5235
  755MOL0     C 4105   9.991   8.818   8.515 -0.0910  0.6112 -0.2212
  755MOL0     C 4106   9.870   8.749   8.502 -0.7731  1.0285 -0.8989
  755MOL0     C 4107   9.526   8.497   8.500 -0.2892  0.8897  0.5464
  755MOL0     C 4108   9.414   8.566   8.553  0.9369  0.5607 -1.0394
  755MOL0     C 4109   9.281   8.517   8.528  1.3371 -0.2199  0.8002
  755MOL0     C 4110   9.266   8.392   8.468 -0.4746  0.2391  0.0717
  755MOL0     O 4111   9.144   8.336   8.438 -0.0712  0.3548 -1.1962
  755MOL0     C 4112   9.018   8.405   8.459 -0.1351 -0.8442  0.8817
  755MOL0     C 4113   8.918   8.298   8.416  0.1148 -0.1908  0.2144
  755MOL0     C 4114   8.902   8.282   8.264 -0.1960  0.0894 -0.3656
  755MOL0     C 4115   8.975   8.160   8.216 -0.0130 -0.1635  0.1001
  755MOL0     C 4116   8.930   8.144   8.077  0.5435  0.3121  1.3141
  755MOL0     C 4117   8.881   8.126   7.967  0.9713  0.6788 -0.6157
  755MOL0     C 4118   9.376   8.326   8.424  0.1508 -0.1992  0.6360
  755MOL0     C 4119   9.505   8.370   8.431 -1.0072  0.4772 -0.0669
  755MOL0     C 4120   9.608   8.279   8.366 -0.4847 -0.4995  0.5064
  755MOL0     H 4121   9.767   8.763   8.825  0.6998  1.2071  1.0881
  755MOL0     H 4122   9.968   8.881   8.858 -1.4484  3.2989 -0.9106
  755MOL0     H 4123  10.230   8.866   8.833 -0.2798  1.0783  1.7561
  755MOL0     H 4124  10.179   9.039   8.795  2.1129  2.9361 -1.0398
  755MOL0     H 4125  10.362   9.061   8.641 -1.7994  0.9823  1.0115
  755MOL0     H 4126  10.419   9.041   8.811  3.0403 -2.6127  0.6538
  755MOL0     H 4127  10.479   8.813   8.764  0.4040  2.1976  1.7753
  755MOL0     H 4128  10.420   8.820   8.601 -0.4208 -0.0954  0.7474
  755MOL0     H 4129  10.607   9.028   8.575  0.3316 -1.2546 -1.2706
  755MOL0     H 4130  10.657   8.976   8.730 -0.4538  1.8056 -0.4773
  755MOL0     H 4131  10.623   8.786   8.510  2.1007  0.2588 -1.9753
  755MOL0     H 4132  10.711   8.756   8.662  1.0801 -0.1402 -0.1365
  755MOL0     H 4133  10.821   8.969   8.471  2.0324  1.5527  0.0827
  755MOL0     H 4134  10.893   8.902   8.620 -1.9880 -2.8042  1.8274
  755MOL0     H 4135  10.848   8.741   8.365  0.7806 -0.4663  0.3962
  755MOL0     H 4136  10.916   8.680   8.510 -0.3451 -0.5163  0.0572
  755MOL0     H 4137  11.047   8.897   8.348 -0.0052 -0.6351  0.1492
  755MOL0     H 4138  11.106   8.841   8.508  0.6888  0.0209  0.4435
  755MOL0     H 4139  11.319   8.720   8.443 -1.9663  0.6295  1.8288
  755MOL0     H 4140  11.487   8.528   8.359  4.6343 -0.0805 -3.5394
  755MOL0     H 4141  11.468   8.551   8.187 -0.8381  0.0289 -0.1094
  755MOL0     H 4142  11.354   8.317   8.342  0.3041 -1.0046 -0.1173
  755MOL0     H 4143  11.347   8.347   8.167 -1.6358 -0.3603  0.7897
  755MOL0     H 4144  11.627   8.360   8.292  1.0412 -0.1252 -0.8047
  755MOL0     H 4145  11.544   8.197   8.269  3.8962 -0.0476 -1.4224
  755MOL0     H 4146  11.513   8.267   8.032 -0.5862  0.5654  1.0645
  755MOL0     H 4147  11.620   8.400   8.067 -2.6986  0.6609 -2.6373
  755MOL0     H 4148  11.679   8.330   7.849  0.2972  0.3597 -0.8322
  755MOL0     H 4149  11.740   8.460   7.676  0.0930  1.1959 -0.4543
  755MOL0     H 4150  11.881   8.387   7.596  0.3203 -1.6250  1.3965
  755MOL0     H 4151  11.889   8.538   7.694 -1.1836  0.5046 -0.7314
  755MOL0     H 4152  12.375   8.497   7.864  0.0138  3.0118  1.0798
  755MOL0     H 4153  12.587   8.582   7.774  1.1005 -1.5378 -0.8374
  755MOL0     H 4154  12.686   8.569   7.415  1.0504 -0.0424 -2.5260
  755MOL0     H 4155  12.633   8.720   7.352  1.2878  4.5785 -0.2305
  755MOL0     H 4156  12.852   8.737   7.324 -1.0363 -2.8846 -0.3872
  755MOL0     H 4157  12.842   8.824   7.479 -2.5388  0.3364  0.9495
  755MOL0     H 4158  12.958   8.547   7.427 -2.3931 -0.5509 -0.8629
  755MOL0     H 4159  12.911   8.599   7.585 -0.5983 -2.2482 -1.2274
  755MOL0     H 4160  13.072   8.789   7.563 -0.2682 -1.3627  1.4812
  755MOL0     H 4161  13.067   8.783   7.386  1.6083  0.7051  1.0707
  755MOL0     H 4162  13.191   8.573   7.553 -1.6172 -0.6579  0.2129
  755MOL0     H 4163  13.198   8.582   7.372  0.6381  0.1203  0.1407
  755MOL0     H 4164  13.332   8.785   7.553  0.7447  0.9204 -0.5952
  755MOL0     H 4165  13.345   8.772   7.377  0.9469  1.8042  1.1886
  755MOL0     H 4166  13.414   8.526   7.541  0.9770  0.2813  1.2680
  755MOL0     H 4167  13.507   8.656   7.590 -0.3496 -1.0339  1.4795
  755MOL0     H 4168  13.469   8.560   7.297 -0.1948 -0.1216  1.5747
  755MOL0     H 4169  13.603   8.509   7.391 -0.5408 -0.1753  0.7005
  755MOL0     H 4170  12.392   8.757   7.440  0.8419 -2.4371 -1.3200
  755MOL0     H 4171  12.176   8.658   7.512  0.7007 -1.2136  0.6632
  755MOL0     H 4172  12.137   8.249   8.011 -0.7456 -3.4914  2.0621
  755MOL0     H 4173  11.952   8.173   8.137  0.7219  0.0339 -1.5573
  755MOL0     H 4174  10.052   8.829   8.426  0.4689  2.2133  0.3232
  755MOL0     H 4175   9.836   8.705   8.408 -4.9562 -1.5526  1.4859
  755MOL0     H 4176   9.417   8.660   8.606 -2.0890 -0.8572  1.9943
  755MOL0     H 4177   9.190   8.573   8.548  1.6765  1.2129 -1.3722
  755MOL0     H 4178   9.009   8.423   8.567  1.9287 -0.0690  0.9731
  755MOL0     H 4179   8.995   8.497   8.405 -1.4803 -2.1138 -0.8194
  755MOL0     H 4180   8.824   8.323   8.467  0.6200  0.9755  0.5983
  755MOL0     H 4181   8.934   8.197   8.455 -0.6661  0.2923  1.9025
  755MOL0     H 4182   8.797   8.281   8.234 -0.4759  3.8548  0.0104
  755MOL0     H 4183   8.945   8.372   8.218 -2.3589  0.3413 -2.0221
  755MOL0     H 4184   8.954   8.076   8.284  0.3881  0.6875  1.3140
  755MOL0     H 4185   9.082   8.182   8.228 -0.0916 -0.2310  1.0559
  755MOL0     H 4186   8.842   8.123   7.867  0.3025 -0.2042 -0.3340
  755MOL0     H 4187   9.355   8.225   8.389 -3.4618  0.7820 -0.4879
  755MOL0     H 4188   9.564   8.190   8.320  2.5018 -2.1317  0.5859
  755MOL0     H 4189   9.658   8.330   8.283 -1.5279  1.3872  0.9680
  755MOL0     H 4190   9.686   8.251   8.437 -1.2716 -2.5073  0.6358
  756MOL0     O 4191   5.362   8.644   3.350  0.0902 -0.4230 -0.0762
  756MOL0     C 4192   5.273   8.697   3.414  0.4080  0.6971 -0.8991
  756MOL0     O 4193   5.271   8.811   3.478 -0.2352 -0.3955  0.0332
  756MOL0     C 4194   5.377   8.899   3.455 -0.1529  0.1565 -0.0538
  756MOL0     C 4195   5.425   8.965   3.573 -0.1126  0.4539 -0.3246
  756MOL0     C 4196   5.529   9.048   3.578 -0.9513 -1.1094  0.7584
  756MOL0     C 4197   5.599   9.064   3.460  0.3314 -0.7084  0.1771
  756MOL0     O 4198   5.721   9.133   3.468  0.3321 -0.2738 -0.0079
  756MOL0     C 4199   5.710   9.272   3.432  0.5627 -0.1737  0.8129
  756MOL0     C 4200   5.790   9.317   3.310  0.3052  0.7450  0.6317
  756MOL0     C 4201   5.936   9.330   3.346  0.0425 -0.4003 -0.6021
  756MOL0     C 4202   6.024   9.307   3.226  0.0512 -0.7994  0.1233
  756MOL0     C 4203   6.173   9.330   3.241  1.0389 -0.1889  0.1644
  756MOL0     C 4204   6.224   9.255   3.363 -0.2685  0.2811 -0.0017
  756MOL0     C 4205   6.365   9.298   3.400  0.6931  0.7430  0.1998
  756MOL0     C 4206   6.423   9.225   3.522  0.1934 -0.2263 -0.2531
  756MOL0     N 4207   6.415   9.079   3.509 -0.0084  0.6214 -0.4367
  756MOL0     C 4208   6.506   8.994   3.443  0.0130  0.2200 -0.2722
  756MOL0     C 4209   6.463   8.865   3.460 -0.5712 -0.2667 -0.3090
  756MOL0     C 4210   6.520   8.744   3.400  0.6036  0.3855 -0.0297
  756MOL0     C 4211   6.654   8.713   3.470 -0.6904 -0.2327 -0.1870
  756MOL0     C 4212   6.732   8.631   3.374 -0.3876 -0.2602 -0.5448
  756MOL0     C 4213   6.858   8.576   3.435  0.9649  0.1964  0.2275
  756MOL0     O 4214   6.904   8.462   3.361 -0.1549  0.0181 -0.4829
  756MOL0     C 4215   7.025   8.401   3.395 -0.3634  0.3914 -0.4752
  756MOL0     C 4216   7.078   8.309   3.310  0.2496 -0.2738 -0.0648
  756MOL0     C 4217   7.185   8.233   3.341 -0.6713  0.4082  0.1821
  756MOL0     C 4218   7.221   8.109   3.245 -0.0473 -0.7456 -0.6665
  756MOL0     C 4219   7.263   8.258   3.461 -0.3910  0.0500  0.4496
  756MOL0     C 4220   7.398   8.204   3.502 -0.2513 -0.1016 -0.8900
  756MOL0     O 4221   7.465   8.271   3.604 -0.3458 -0.6948 -0.0005
  756MOL0     C 4222   7.587   8.219   3.640 -0.0324 -0.6374 -0.1980
  756MOL0     C 4223   7.705   8.257   3.575  1.3601 -0.1453  0.7511
  756MOL0     C 4224   7.828   8.218   3.634  0.5525 -0.5379  0.2106
  756MOL0     C 4225   7.828   8.143   3.761  0.4345 -0.3930  0.3038
  756MOL0     O 4226   7.952   8.116   3.817  0.6820 -0.2220 -0.2972
  756MOL0     C 4227   7.949   8.062   3.956 -0.0514  0.8593 -0.8263
  756MOL0     C 4228   8.089   8.071   4.005  0.3519 -0.5472  0.2768
  756MOL0     C 4229   8.182   7.967   3.929  0.4548  0.3560  0.6253
  756MOL0     C 4230   8.321   7.954   3.993 -0.2766 -0.6844  0.7444
  756MOL0     C 4231   8.406   7.853   3.914  0.3126 -0.1254  0.2561
  756MOL0     C 4232   8.538   7.838   3.975  0.1203 -0.7524 -0.2598
  756MOL0     C 4233   8.620   7.748   3.883 -0.7878 -0.1450  0.1787
  756MOL0     C 4234   8.751   7.700   3.934 -0.1083  0.2738 -0.1441
  756MOL0    Cl 4235   8.839   7.805   4.030  0.4671 -0.8667 -0.0681
  756MOL0     C 4236   7.704   8.112   3.817  0.3888 -0.3926 -0.0704
  756MOL0     C 4237   7.586   8.156   3.763 -0.3095  0.1651  0.3328
  756MOL0     O 4238   7.437   8.097   3.454 -0.1962 -0.5326  0.5426
  756MOL0     C 4239   7.217   8.367   3.544 -0.3287  0.1779  0.1261
  756MOL0     C 4240   7.095   8.427   3.514 -0.3515  0.2344 -0.0511
  756MOL0     N 4241   6.338   8.867   3.520  0.7196  0.6422  0.6299
  756MOL0     N 4242   6.319   8.994   3.552  0.1889  0.6832 -0.0798
  756MOL0     C 4243   5.546   9.015   3.335 -0.1570 -1.1852 -0.3084
  756MOL0     C 4244   5.443   8.923   3.331  0.4064 -0.4314  0.0670
  756MOL0     C 4245   5.155   8.612   3.454 -0.3689  0.2098  0.0455
  756MOL0     C 4246   5.075   8.645   3.566  0.0624  0.0614 -0.0625
  756MOL0     C 4247   4.962   8.563   3.592  0.5231 -0.2468 -0.0032
  756MOL0     C 4248   4.923   8.466   3.505  0.2234 -0.3825  0.2797
  756MOL0     O 4249   4.800   8.412   3.521  0.7676 -0.4614  0.1648
  756MOL0     C 4250   4.753   8.294   3.448 -0.4012  0.5688 -0.2066
  756MOL0     C 4251   4.636   8.224   3.527 -0.4490  0.5274  0.4584
  756MOL0     C 4252   4.518   8.325   3.556  0.1209 -0.1611  0.5433
  756MOL0     C 4253   4.453   8.392   3.433  0.5542  0.5344  0.1219
  756MOL0     C 4254   4.322   8.321   3.404 -0.8404  0.8949 -0.4351
  756MOL0     C 4255   4.216   8.267   3.401  0.1113 -0.0876 -0.1686
  756MOL0     C 4256   4.997   8.442   3.390  0.3973  0.2669 -0.1840
  756MOL0     C 4257   5.116   8.506   3.364 -0.3577  0.5361  0.2459
  756MOL0     C 4258   5.197   8.457   3.244  0.1070 -0.0385  0.6401
  756MOL0     H 4259   5.373   8.952   3.668 -1.8988  0.1390 -1.3064
  756MOL0     H 4260   5.564   9.089   3.671 -1.4677 -1.9969  1.3590
  756MOL0     H 4261   5.744   9.334   3.516  2.0829 -0.1205  0.1909
  756MOL0     H 4262   5.604   9.295   3.413  0.8495  0.0756 -0.6113
  756MOL0     H 4263   5.793   9.238   3.236  1.4837  2.4677 -1.2556
  756MOL0     H 4264   5.736   9.404   3.270 -2.4374 -0.0511  2.3396
  756MOL0     H 4265   5.956   9.420   3.405  2.2962 -1.4516  0.3728
  756MOL0     H 4266   5.963   9.244   3.408  0.7825 -0.2602 -0.7263
  756MOL0     H 4267   6.012   9.204   3.191 -0.6009 -0.5037 -0.5545
  756MOL0     H 4268   5.993   9.367   3.140  3.5734  2.7647  1.0699
  756MOL0     H 4269   6.193   9.436   3.257  2.5729 -0.2423 -1.1255
  756MOL0     H 4270   6.212   9.300   3.143 -0.4065 -1.4064 -0.0712
  756MOL0     H 4271   6.162   9.272   3.452  0.7349 -1.4521  1.0841
  756MOL0     H 4272   6.221   9.148   3.339  0.4730  0.5901 -1.5646
  756MOL0     H 4273   6.371   9.406   3.420 -0.9488  1.0317 -0.6705
  756MOL0     H 4274   6.438   9.271   3.324 -0.0799 -0.0881 -0.2588
  756MOL0     H 4275   6.523   9.264   3.541  0.5787 -0.5359 -1.5286
  756MOL0     H 4276   6.360   9.251   3.608  2.3415  2.6822  0.6136
  756MOL0     H 4277   6.598   9.026   3.394 -0.0571 -0.3862 -0.8127
  756MOL0     H 4278   6.521   8.768   3.294 -2.0269 -0.1954 -0.2586
  756MOL0     H 4279   6.457   8.655   3.411  2.5374 -0.9640  0.7989
  756MOL0     H 4280   6.726   8.796   3.468 -1.5530  0.5197 -1.0772
  756MOL0     H 4281   6.650   8.655   3.562  2.7026  0.6394  0.6552
  756MOL0     H 4282   6.665   8.552   3.339 -1.7723  0.3275  0.6825
  756MOL0     H 4283   6.762   8.695   3.290 -1.9383  2.8917  1.1417
  756MOL0     H 4284   6.934   8.654   3.436  0.4147  0.7348  0.4517
  756MOL0     H 4285   6.840   8.541   3.538 -0.7347 -1.1430 -0.4753
  756MOL0     H 4286   7.027   8.278   3.220 -1.1231 -0.7460  0.8520
  756MOL0     H 4287   7.135   8.102   3.177 -1.1983  1.6126  0.3848
  756MOL0     H 4288   7.233   8.014   3.298  0.9069  1.1012  2.7425
  756MOL0     H 4289   7.317   8.121   3.194 -0.4198  1.4606 -0.9606
  756MOL0     H 4290   7.698   8.318   3.485  0.3225  1.7565  2.0618
  756MOL0     H 4291   7.920   8.251   3.587 -1.2080  0.5917 -2.7025
  756MOL0     H 4292   7.889   8.132   4.015 -2.3620  0.0133 -2.0173
  756MOL0     H 4293   7.917   7.957   3.953 -0.8839  1.0847 -0.2521
  756MOL0     H 4294   8.124   8.173   3.987 -2.5837  0.3900 -0.7311
  756MOL0     H 4295   8.093   8.057   4.114 -0.7181  1.5712  0.6459
  756MOL0     H 4296   8.194   7.999   3.825  0.4143 -1.9600 -0.1652
  756MOL0     H 4297   8.135   7.868   3.920  0.3433  0.4271  0.4203
  756MOL0     H 4298   8.310   7.912   4.094 -0.6137 -2.0781  0.1537
  756MOL0     H 4299   8.365   8.054   3.985  0.0611 -0.9023 -0.2391
  756MOL0     H 4300   8.363   7.753   3.921  0.6756 -0.3382 -0.4443
  756MOL0     H 4301   8.425   7.888   3.812 -0.0016  0.1073  0.2768
  756MOL0     H 4302   8.532   7.799   4.077 -0.9267  1.9876  0.8391
  756MOL0     H 4303   8.579   7.939   3.985 -0.3962 -0.6046  0.4711
  756MOL0     H 4304   8.641   7.805   3.792  2.7936 -0.4745  0.6572
  756MOL0     H 4305   8.565   7.660   3.848  0.5405 -1.9099  2.2877
  756MOL0     H 4306   8.811   7.667   3.849  1.6464 -1.5206  1.6629
  756MOL0     H 4307   8.736   7.603   3.982  1.3904 -0.7599 -1.6194
  756MOL0     H 4308   7.696   8.060   3.912 -1.5603 -2.8299 -1.4528
  756MOL0     H 4309   7.491   8.128   3.808 -1.4095  1.7522 -0.9209
  756MOL0     H 4310   7.276   8.386   3.632 -0.3856 -2.1421  0.7435
  756MOL0     H 4311   7.066   8.500   3.589 -1.8801  0.9118 -1.2321
  756MOL0     H 4312   5.596   9.041   3.243 -1.2015  1.4113 -0.2171
  756MOL0     H 4313   5.401   8.880   3.241  0.4314  1.9589 -1.1834
  756MOL0     H 4314   5.104   8.723   3.636  0.0364  0.3766 -0.3946
  756MOL0     H 4315   4.899   8.580   3.679  1.4078 -0.2924  0.6721
  756MOL0     H 4316   4.739   8.316   3.342  0.8899 -0.1233 -0.5377
  756MOL0     H 4317   4.839   8.227   3.454  0.8916  2.1233 -0.6623
  756MOL0     H 4318   4.663   8.206   3.631 -1.9134  2.1924  1.1787
  756MOL0     H 4319   4.601   8.129   3.487 -1.6515  1.5039 -0.9376
  756MOL0     H 4320   4.450   8.274   3.626  0.3183 -2.2954 -0.7400
  756MOL0     H 4321   4.569   8.410   3.603  0.6969 -0.2159  0.0221
  756MOL0     H 4322   4.527   8.396   3.352  1.3883 -0.4466  0.8169
  756MOL0     H 4323   4.430   8.494   3.465 -1.3284 -0.9111  3.9522
  756MOL0     H 4324   4.131   8.203   3.387  0.2022 -0.0470 -0.9679
  756MOL0     H 4325   4.964   8.362   3.324  2.8668 -1.0612  0.0867
  756MOL0     H 4326   5.292   8.412   3.273  0.3148  1.0982  1.8639
  756MOL0     H 4327   5.135   8.374   3.210 -1.5242  1.5023 -0.3546
  756MOL0     H 4328   5.208   8.535   3.168  4.6714 -3.9413 -3.3503
  757MOL0     O 4329   6.190  10.730   3.875 -0.1183  0.3689 -0.4077
  757MOL0     C 4330   6.217  10.782   3.768 -0.1522  1.0904  0.9171
  757MOL0     O 4331   6.277  10.715   3.663 -0.1237  0.8038  0.0912
  757MOL0     C 4332   6.307  10.584   3.691 -0.7518  0.9100  0.0952
  757MOL0     C 4333   6.430  10.556   3.759  0.2188 -0.0140 -0.4238
  757MOL0     C 4334   6.479  10.421   3.766  0.1946 -0.4914 -0.4113
  757MOL0     C 4335   6.408  10.317   3.718  0.7140  0.9959  0.5381
  757MOL0     O 4336   6.455  10.187   3.744  0.9044 -0.1175  0.0887
  757MOL0     C 4337   6.404  10.075   3.671 -0.1454 -0.3507 -0.3776
  757MOL0     C 4338   6.418   9.946   3.751 -0.4618 -0.1003 -0.2347
  757MOL0     C 4339   6.556   9.902   3.810 -0.0615 -0.1180  0.2074
  757MOL0     C 4340   6.652   9.910   3.691 -0.6183 -0.7532 -0.4578
  757MOL0     C 4341   6.795   9.878   3.741 -0.4494  0.3273 -0.1162
  757MOL0     C 4342   6.904   9.887   3.633 -0.4538  0.1383  0.0689
  757MOL0     C 4343   7.046   9.841   3.671  0.6485 -0.1077 -0.5388
  757MOL0     C 4344   7.125   9.940   3.763  0.6331 -0.4692  0.0755
  757MOL0     N 4345   7.274   9.904   3.757  0.1677  0.0522 -0.4801
  757MOL0     C 4346   7.359   9.944   3.656 -0.0450 -0.0001  0.2053
  757MOL0     C 4347   7.487   9.926   3.702 -0.3431  0.1903  0.8795
  757MOL0     C 4348   7.617   9.957   3.628  0.0573 -0.0565  0.1771
  757MOL0     C 4349   7.691   9.834   3.567 -0.1232  0.4879  0.3098
  757MOL0     C 4350   7.798   9.870   3.471 -0.8129 -0.3380 -0.6539
  757MOL0     C 4351   7.868   9.737   3.415  0.2417 -0.2415 -0.1050
  757MOL0     O 4352   7.783   9.647   3.346  0.0229  0.1397  0.4866
  757MOL0     C 4353   7.826   9.525   3.304 -0.2082  0.1822  0.2111
  757MOL0     C 4354   7.964   9.483   3.325  0.1413  0.3092  0.0506
  757MOL0     C 4355   7.988   9.342   3.302  0.2280  0.9681  0.3612
  757MOL0     C 4356   8.126   9.294   3.341 -0.2911  0.3249 -0.2802
  757MOL0     C 4357   7.899   9.252   3.243  1.3937 -0.5306  0.2076
  757MOL0     C 4358   7.924   9.102   3.230  0.2978  0.1070 -0.3019
  757MOL0     O 4359   7.852   9.043   3.131 -0.1155  0.4300  0.8335
  757MOL0     C 4360   7.888   8.925   3.074  0.2282 -0.2285  0.1141
  757MOL0     C 4361   7.791   8.830   3.035  0.8344  0.3381  0.3433
  757MOL0     C 4362   7.818   8.714   2.961  0.4653 -0.0390 -0.5445
  757MOL0     C 4363   7.947   8.704   2.912 -0.3438  0.6365 -0.2020
  757MOL0     O 4364   7.968   8.588   2.837 -1.5177 -0.1390  0.1757
  757MOL0     C 4365   8.099   8.561   2.808 -0.0950 -0.8524 -0.2570
  757MOL0     C 4366   8.149   8.657   2.694  0.1684  0.2509 -0.7749
  757MOL0     C 4367   8.299   8.655   2.668 -0.5591 -0.3635 -1.4779
  757MOL0     C 4368   8.344   8.514   2.626 -0.1437  0.1885  0.4440
  757MOL0     C 4369   8.492   8.523   2.587  0.3212 -0.3645  0.5643
  757MOL0     C 4370   8.533   8.393   2.519  0.6607 -1.1318  0.3579
  757MOL0     C 4371   8.686   8.385   2.525 -0.0592 -0.1597  0.8835
  757MOL0     C 4372   8.742   8.253   2.465  0.4780  0.1657 -0.4522
  757MOL0    Cl 4373   8.748   8.258   2.280 -0.0999  0.2053 -0.0914
  757MOL0     C 4374   8.050   8.784   2.966 -0.5248 -0.9484 -0.1429
  757MOL0     C 4375   8.014   8.900   3.031 -0.7248  0.7358  0.2285
  757MOL0     O 4376   8.003   9.046   3.306  0.2376  0.2757  0.2555
  757MOL0     C 4377   7.774   9.303   3.214 -0.3009 -0.5964 -0.5393
  757MOL0     C 4378   7.743   9.433   3.247 -0.0327  0.3565 -0.2724
  757MOL0     N 4379   7.481   9.871   3.829  0.2905 -0.0760  0.2012
  757MOL0     N 4380   7.354   9.884   3.874 -0.1962  0.2581  0.5857
  757MOL0     C 4381   6.287  10.348   3.647  0.5180  0.5802  0.5059
  757MOL0     C 4382   6.240  10.481   3.632 -0.2531  0.3129  0.2336
  757MOL0     C 4383   6.197  10.929   3.746 -0.5762 -0.0665  0.3286
  757MOL0     C 4384   6.305  11.006   3.701  0.7163  1.0345  0.6731
  757MOL0     C 4385   6.292  11.144   3.675  0.2006 -0.2278 -1.0041
  757MOL0     C 4386   6.180  11.211   3.725 -0.4732 -0.0170 -0.0902
  757MOL0     O 4387   6.180  11.350   3.716  0.6983 -0.3212 -0.0982
  757MOL0     C 4388   6.274  11.413   3.801  0.4699 -0.5509 -0.3578
  757MOL0     C 4389   6.305  11.561   3.750 -0.8007  0.7121  0.5866
  757MOL0     C 4390   6.180  11.641   3.796 -0.3568  0.9410 -0.7634
  757MOL0     C 4391   6.199  11.790   3.765  0.5649 -0.0907  0.0369
  757MOL0     C 4392   6.062  11.857   3.756 -1.2786 -0.1571  0.7000
  757MOL0     C 4393   5.957  11.918   3.745  0.0179 -0.2809  0.4537
  757MOL0     C 4394   6.066  11.143   3.769  0.5514  0.6832  0.9667
  757MOL0     C 4395   6.074  11.001   3.778  0.5496  0.0925  0.0194
  757MOL0     C 4396   5.953  10.924   3.834 -0.5029 -0.1483  0.9202
  757MOL0     H 4397   6.489  10.639   3.794 -0.2165  0.8769 -1.7273
  757MOL0     H 4398   6.570  10.408   3.825  0.6680  0.9355 -0.7848
  757MOL0     H 4399   6.464  10.085   3.579  0.9661  1.6318  0.4890
  757MOL0     H 4400   6.299  10.086   3.642 -0.2835  1.6729  0.7098
  757MOL0     H 4401   6.350   9.950   3.837 -0.2560 -2.3968  0.1035
  757MOL0     H 4402   6.376   9.878   3.676  0.6889  1.0289 -1.9670
  757MOL0     H 4403   6.581   9.962   3.898  2.9391  0.3372 -0.8569
  757MOL0     H 4404   6.570   9.798   3.843  3.2515 -0.3125 -1.4339
  757MOL0     H 4405   6.624   9.852   3.603  0.4079  1.4686 -2.3564
  757MOL0     H 4406   6.652  10.017   3.665  0.9930 -0.0278  2.0896
  757MOL0     H 4407   6.794   9.779   3.787 -0.3331  0.3122 -0.1461
  757MOL0     H 4408   6.829   9.955   3.811 -0.6567 -0.5018  0.9169
  757MOL0     H 4409   6.867   9.828   3.549 -0.8701  1.7467 -0.9352
  757MOL0     H 4410   6.913   9.993   3.605 -2.0442  1.4573  3.8396
  757MOL0     H 4411   7.101   9.826   3.577 -0.7632 -0.3100 -1.3778
  757MOL0     H 4412   7.050   9.745   3.724  1.3530  1.7451  3.0007
  757MOL0     H 4413   7.116  10.044   3.730 -2.0634 -0.5654  0.2308
  757MOL0     H 4414   7.095   9.924   3.867  1.1695 -0.0773  0.2944
  757MOL0     H 4415   7.341   9.978   3.554  1.2319 -0.2253 -0.1180
  757MOL0     H 4416   7.688   9.993   3.704 -0.3116  0.5051  0.2553
  757MOL0     H 4417   7.607  10.033   3.550  2.3105  0.0563 -0.0727
  757MOL0     H 4418   7.736   9.779   3.649  1.7418 -1.3245 -1.7883
  757MOL0     H 4419   7.606   9.785   3.518 -0.2273  1.4856 -0.5411
  757MOL0     H 4420   7.758   9.933   3.391 -2.6462 -0.2392  0.2786
  757MOL0     H 4421   7.870   9.921   3.536  0.1266  1.3175 -2.8576
  757MOL0     H 4422   7.946   9.758   3.340 -1.9131 -0.9419 -2.7114
  757MOL0     H 4423   7.918   9.687   3.498  0.1824 -0.9600 -0.4947
  757MOL0     H 4424   8.045   9.543   3.365  0.1118 -0.9376  2.0928
  757MOL0     H 4425   8.119   9.233   3.431  0.4121  1.5854  0.6553
  757MOL0     H 4426   8.197   9.378   3.350 -0.4208  0.3670  0.3831
  757MOL0     H 4427   8.157   9.231   3.257  1.2721  0.3666  0.2306
  757MOL0     H 4428   7.688   8.847   3.064 -0.6149 -3.1453 -1.9835
  757MOL0     H 4429   7.730   8.658   2.932  0.6306  0.6396 -2.5230
  757MOL0     H 4430   8.164   8.549   2.895  0.8138  0.4065 -0.7360
  757MOL0     H 4431   8.100   8.459   2.770 -1.8384 -0.6412 -0.9671
  757MOL0     H 4432   8.094   8.636   2.602 -0.4887 -0.9237 -0.1310
  757MOL0     H 4433   8.124   8.759   2.725  0.1689 -1.0021  4.3869
  757MOL0     H 4434   8.355   8.691   2.754  1.0708 -2.3684 -1.6278
  757MOL0     H 4435   8.317   8.728   2.588 -0.1822  2.3269  0.9166
  757MOL0     H 4436   8.287   8.481   2.539 -0.3372 -0.1918  0.7138
  757MOL0     H 4437   8.328   8.432   2.696 -1.2263 -1.4824 -1.6616
  757MOL0     H 4438   8.504   8.599   2.509 -3.0235  1.4658  1.6295
  757MOL0     H 4439   8.547   8.549   2.677 -1.3882  0.2442  1.4806
  757MOL0     H 4440   8.500   8.382   2.415 -0.1439 -3.1761  0.7847
  757MOL0     H 4441   8.498   8.313   2.584  1.1188  1.5279  4.1876
  757MOL0     H 4442   8.714   8.388   2.630 -0.3271  2.8396  0.9418
  757MOL0     H 4443   8.720   8.465   2.458 -3.0703  0.5309  0.0074
  757MOL0     H 4444   8.682   8.165   2.491 -0.1522  0.8064  0.3117
  757MOL0     H 4445   8.837   8.223   2.511 -0.1042  0.0408  0.7068
  757MOL0     H 4446   8.156   8.767   2.951 -0.9220 -2.4045 -1.6252
  757MOL0     H 4447   8.090   8.967   3.068  1.2134 -1.1014 -0.2185
  757MOL0     H 4448   7.701   9.236   3.172 -0.5736  0.1623 -1.3184
  757MOL0     H 4449   7.638   9.455   3.232 -0.5217 -0.4896  1.5431
  757MOL0     H 4450   6.228  10.274   3.594  0.8872  1.3411 -1.0130
  757MOL0     H 4451   6.154  10.505   3.571 -1.7703 -0.3063  2.0537
  757MOL0     H 4452   6.403  10.966   3.678  0.7637 -0.0563  2.5866
  757MOL0     H 4453   6.369  11.204   3.628 -0.1605  0.5578 -0.6195
  757MOL0     H 4454   6.229  11.422   3.900 -0.9745 -0.8848 -0.9598
  757MOL0     H 4455   6.371  11.363   3.811  0.0678 -1.4630 -0.8651
  757MOL0     H 4456   6.320  11.589   3.645  1.9327 -0.0520  0.6836
  757MOL0     H 4457   6.396  11.602   3.796  0.0512 -1.0575  0.5900
  757MOL0     H 4458   6.098  11.609   3.731  0.6886 -1.1393 -1.1554
  757MOL0     H 4459   6.165  11.628   3.904  2.4318  1.5606 -0.2294
  757MOL0     H 4460   6.252  11.810   3.671  1.8141  1.7869  1.0786
  757MOL0     H 4461   6.252  11.836   3.849 -1.0873  1.3571  0.3369
  757MOL0     H 4462   5.864  11.970   3.754  0.5345  0.8597 -0.6160
  757MOL0     H 4463   5.984  11.207   3.800 -0.6029 -0.7370  0.9188
  757MOL0     H 4464   5.984  10.889   3.933 -1.6731  1.4492  1.8994
  757MOL0     H 4465   5.864  10.987   3.837  0.1980  0.9882 -0.5229
  757MOL0     H 4466   5.922  10.836   3.778 -4.0065 -0.1994  2.6812
  758MOL0     O 4467   8.175  10.783   2.307  0.2950  0.2662  0.3017
  758MOL0     C 4468   8.189  10.841   2.200  0.9769  0.4711  0.8316
  758MOL0     O 4469   8.288  10.826   2.114  0.1258  1.1609  0.3122
  758MOL0     C 4470   8.382  10.734   2.136  0.2672 -0.3001  0.2506
  758MOL0     C 4471   8.370  10.603   2.182  0.4398  0.0167 -0.2851
  758MOL0     C 4472   8.482  10.516   2.197 -0.1763  0.1626 -0.1713
  758MOL0     C 4473   8.610  10.566   2.169 -0.3140  0.9273 -0.0990
  758MOL0     O 4474   8.722  10.488   2.200 -0.2237 -0.2002  0.1700
  758MOL0     C 4475   8.756  10.414   2.088 -0.6313 -0.0093  0.2788
  758MOL0     C 4476   8.907  10.365   2.100  0.3906 -0.2860  0.2027
  758MOL0     C 4477   8.952  10.296   2.236 -0.1402  0.6617 -0.4060
  758MOL0     C 4478   9.097  10.244   2.216  0.4792  0.4258 -0.2267
  758MOL0     C 4479   9.133  10.160   2.340 -0.5901  1.0444  0.4650
  758MOL0     C 4480   9.274  10.096   2.317 -0.1165 -0.7976  0.1910
  758MOL0     C 4481   9.321   9.994   2.423 -0.2991  0.1577  0.6339
  758MOL0     C 4482   9.465   9.935   2.396  0.3432 -1.1756 -0.1581
  758MOL0     N 4483   9.491   9.834   2.495 -0.4288  0.2729 -0.0971
  758MOL0     C 4484   9.531   9.861   2.625 -0.3347  0.1530 -0.4168
  758MOL0     C 4485   9.515   9.740   2.686  0.2964  1.0999  0.3885
  758MOL0     C 4486   9.534   9.699   2.827  0.2595  0.4459 -0.2075
  758MOL0     C 4487   9.689   9.678   2.867  0.2377  0.3362 -0.9096
  758MOL0     C 4488   9.701   9.616   3.007  0.9576 -0.5433 -0.5955
  758MOL0     C 4489   9.845   9.592   3.042 -0.5401  0.4989 -0.6584
  758MOL0     O 4490   9.901   9.487   2.965  0.5044  0.4914 -0.1875
  758MOL0     C 4491   9.941   9.375   3.032  0.5784  0.1570 -0.7231
  758MOL0     C 4492   9.861   9.321   3.142 -1.1636  1.0178 -0.1622
  758MOL0     C 4493   9.910   9.205   3.214  0.1342 -0.0616 -1.1984
  758MOL0     C 4494   9.828   9.143   3.328 -0.5084  0.2476 -0.0846
  758MOL0     C 4495  10.030   9.148   3.178  0.1007  0.1499  0.4950
  758MOL0     C 4496  10.080   9.030   3.240 -0.2659  0.2353  1.3455
  758MOL0     O 4497  10.210   9.012   3.241  0.0210 -0.3851 -0.0844
  758MOL0     C 4498  10.281   9.084   3.337  0.3144  0.1885 -0.4528
  758MOL0     C 4499  10.233   9.147   3.453 -0.1227  0.0936  0.8356
  758MOL0     C 4500  10.321   9.218   3.541 -0.2144 -0.2600 -0.1747
  758MOL0     C 4501  10.454   9.236   3.509 -0.2730  0.8673 -0.4543
  758MOL0     O 4502  10.552   9.302   3.586  0.2029 -0.2207 -0.1964
  758MOL0     C 4503  10.520   9.345   3.715  0.1235 -0.8123 -0.0207
  758MOL0     C 4504  10.527   9.221   3.809  0.7684  0.5668 -0.1294
  758MOL0     C 4505  10.517   9.253   3.954  0.3598  0.7550  0.2088
  758MOL0     C 4506  10.486   9.128   4.036  0.0748  0.0950  0.3396
  758MOL0     C 4507  10.496   9.163   4.184 -0.0225 -1.4977 -0.7741
  758MOL0     C 4508  10.482   9.036   4.262  0.1982 -0.3392  0.5407
  758MOL0     C 4509  10.458   9.048   4.407 -0.0451 -0.3551  0.3245
  758MOL0     C 4510  10.450   8.907   4.457  0.1424 -0.0249 -0.0898
  758MOL0    Cl 4511  10.425   8.913   4.637  0.1327 -0.1215 -0.2088
  758MOL0     C 4512  10.496   9.168   3.399 -0.2038  0.5004  0.0490
  758MOL0     C 4513  10.415   9.102   3.317  0.0316 -0.0040 -0.1474
  758MOL0     O 4514  10.002   8.938   3.259  0.6040 -0.2418 -0.1938
  758MOL0     C 4515  10.107   9.194   3.062  0.3735 -0.5905  0.8946
  758MOL0     C 4516  10.065   9.312   2.997  0.4996  0.6455 -0.6867
  758MOL0     N 4517   9.466   9.649   2.591  0.6409  0.1796 -0.0739
  758MOL0     N 4518   9.465   9.703   2.475  0.4360 -0.1679 -0.0690
  758MOL0     C 4519   8.620  10.698   2.139 -0.2497 -0.0444  0.5723
  758MOL0     C 4520   8.509  10.781   2.115 -1.2794  0.3649  0.1471
  758MOL0     C 4521   8.084  10.936   2.155 -0.3029 -0.4472  0.7237
  758MOL0     C 4522   8.000  10.906   2.046 -0.3633  0.7825 -0.0628
  758MOL0     C 4523   7.891  10.979   2.016  0.3754 -0.1700  0.1545
  758MOL0     C 4524   7.864  11.086   2.092 -0.2271 -0.6203 -0.3179
  758MOL0     O 4525   7.769  11.188   2.072  0.0194 -0.6467 -0.2328
  758MOL0     C 4526   7.644  11.161   2.008 -0.3010 -0.4811  0.3013
  758MOL0     C 4527   7.524  11.145   2.098 -0.4345 -0.3738 -0.1121
  758MOL0     C 4528   7.538  11.029   2.198 -0.2096  0.4923 -0.4294
  758MOL0     C 4529   7.428  11.041   2.312  0.5018 -0.3131  0.4111
  758MOL0     C 4530   7.292  11.025   2.259 -0.2497 -0.3951  0.0276
  758MOL0     C 4531   7.177  11.008   2.219 -0.3016  0.0160 -0.8282
  758MOL0     C 4532   7.945  11.127   2.198 -0.7835  0.4174 -0.0520
  758MOL0     C 4533   8.055  11.053   2.231 -0.9477  0.6714  0.2105
  758MOL0     C 4534   8.145  11.107   2.343  0.1016 -0.9572  0.5358
  758MOL0     H 4535   8.273  10.572   2.219  1.1015  0.4368  1.9680
  758MOL0     H 4536   8.469  10.416   2.237  1.0894 -0.3255 -0.9041
  758MOL0     H 4537   8.746  10.472   1.996 -4.9479 -3.4327 -1.7214
  758MOL0     H 4538   8.687  10.332   2.070 -0.1207  0.0168 -2.0566
  758MOL0     H 4539   8.922  10.295   2.017 -3.6519 -1.2441  0.0645
  758MOL0     H 4540   8.974  10.449   2.080  1.1681 -0.8246  0.5177
  758MOL0     H 4541   8.966  10.364   2.320  1.1457 -1.7424  1.4568
  758MOL0     H 4542   8.886  10.214   2.268 -0.8358  1.5189  0.4114
  758MOL0     H 4543   9.109  10.187   2.123 -1.9556 -0.4513 -0.0869
  758MOL0     H 4544   9.168  10.327   2.212 -0.7035  1.7447  2.9743
  758MOL0     H 4545   9.058  10.085   2.368  0.5336 -1.0347 -1.6974
  758MOL0     H 4546   9.148  10.225   2.427 -2.3085  1.5247  0.4252
  758MOL0     H 4547   9.290  10.056   2.217 -0.2981 -1.9114  0.5903
  758MOL0     H 4548   9.351  10.174   2.323 -1.4342  0.4606  4.4871
  758MOL0     H 4549   9.252   9.909   2.431  1.5903 -1.6296 -0.7934
  758MOL0     H 4550   9.312  10.052   2.515  1.6963  3.2655 -0.9546
  758MOL0     H 4551   9.477   9.886   2.299  1.5637 -1.1273 -0.0460
  758MOL0     H 4552   9.534  10.019   2.388 -1.2310 -0.0217 -2.8954
  758MOL0     H 4553   9.559   9.957   2.669 -0.4522  0.7772 -1.6542
  758MOL0     H 4554   9.476   9.610   2.854  1.4349  0.0299  1.0694
  758MOL0     H 4555   9.497   9.780   2.890  0.3304 -0.1760  0.6580
  758MOL0     H 4556   9.736   9.604   2.801  0.2091 -1.4476  0.9716
  758MOL0     H 4557   9.739   9.774   2.862 -0.1004  0.5245 -0.7416
  758MOL0     H 4558   9.658   9.682   3.083 -0.8440  1.2100 -2.9751
  758MOL0     H 4559   9.647   9.521   3.013 -0.3398  0.2471  1.2776
  758MOL0     H 4560   9.889   9.687   3.009  1.7134 -1.1014 -2.5170
  758MOL0     H 4561   9.860   9.577   3.149 -1.2365  1.1142 -0.4635
  758MOL0     H 4562   9.770   9.375   3.166 -1.8174  0.1855 -0.7015
  758MOL0     H 4563   9.739   9.202   3.350 -0.5881 -0.2570  1.0518
  758MOL0     H 4564   9.881   9.135   3.424 -0.6897  1.0891  0.0887
  758MOL0     H 4565   9.802   9.040   3.301  1.6265  0.0619 -1.7302
  758MOL0     H 4566  10.128   9.133   3.476 -1.1157  2.2882 -1.8089
  758MOL0     H 4567  10.275   9.261   3.629 -1.6262  3.2113 -2.4029
  758MOL0     H 4568  10.600   9.413   3.747  0.5104 -2.1837  2.1494
  758MOL0     H 4569  10.432   9.410   3.720  1.3042  0.7698  1.1377
  758MOL0     H 4570  10.438   9.163   3.783  0.4594  1.6975 -1.8101
  758MOL0     H 4571  10.619   9.164   3.795  1.3223  1.0153  1.5255
  758MOL0     H 4572  10.440   9.323   3.989  0.1603  1.3820 -1.4173
  758MOL0     H 4573  10.616   9.285   3.988 -0.0029 -0.6776  2.9278
  758MOL0     H 4574  10.557   9.049   4.010  0.6857  1.5322 -2.7415
  758MOL0     H 4575  10.385   9.088   4.031  0.9460 -2.3329  0.7054
  758MOL0     H 4576  10.593   9.211   4.197 -0.6068 -0.3565 -0.5557
  758MOL0     H 4577  10.417   9.228   4.223  0.0133 -1.7535 -0.2662
  758MOL0     H 4578  10.579   8.990   4.243  2.3532  4.5903 -2.1366
  758MOL0     H 4579  10.396   8.983   4.219 -1.6952  1.6253  1.7325
  758MOL0     H 4580  10.360   9.093   4.425  0.6166  0.2577  2.7083
  758MOL0     H 4581  10.537   9.101   4.461 -1.5779 -0.2264  2.5870
  758MOL0     H 4582  10.542   8.849   4.447  0.8456  1.1088 -0.3137
  758MOL0     H 4583  10.364   8.862   4.407  0.7414  2.0329 -3.2521
  758MOL0     H 4584  10.596   9.179   3.358 -1.4091 -0.3728 -3.4693
  758MOL0     H 4585  10.463   9.053   3.233  1.9281  0.6535  0.4873
  758MOL0     H 4586  10.197   9.144   3.028 -0.2368 -0.7465 -0.5475
  758MOL0     H 4587  10.111   9.346   2.905 -1.6601  1.8506 -1.4078
  758MOL0     H 4588   8.715  10.746   2.118 -0.6562 -0.0513 -1.5036
  758MOL0     H 4589   8.522  10.884   2.083  0.5463 -0.1385 -0.8473
  758MOL0     H 4590   8.027  10.824   1.980  1.1474 -0.1075  1.5824
  758MOL0     H 4591   7.828  10.964   1.930 -0.5216  2.7913  0.1860
  758MOL0     H 4592   7.618  11.249   1.948 -0.0628  0.2625  1.2743
  758MOL0     H 4593   7.645  11.070   1.947  0.2555 -0.0922 -0.2848
  758MOL0     H 4594   7.430  11.128   2.046 -0.7096 -2.5701  0.9718
  758MOL0     H 4595   7.517  11.235   2.160  1.3318 -0.6865  0.6043
  758MOL0     H 4596   7.548  10.930   2.153  2.3966  1.4757 -2.2506
  758MOL0     H 4597   7.633  11.043   2.250 -0.3524  0.6758 -0.2152
  758MOL0     H 4598   7.445  11.139   2.358  1.1741  0.6261 -1.6773
  758MOL0     H 4599   7.442  10.963   2.386 -0.8693 -0.3712  0.6360
  758MOL0     H 4600   7.072  11.003   2.202 -0.5743  1.7150  0.1436
  758MOL0     H 4601   7.923  11.219   2.250 -1.1428 -0.9464  2.3483
  758MOL0     H 4602   8.094  11.199   2.375 -2.1882 -1.5070 -1.2315
  758MOL0     H 4603   8.165  11.038   2.424  4.1073 -0.7153 -0.0177
  758MOL0     H 4604   8.237  11.135   2.290  0.0496 -1.4812  0.1595
  759MOL0     O 4605   9.477   7.006   2.716 -0.4167  0.0083 -0.2432
  759MOL0     C 4606   9.526   6.976   2.606  0.7132  0.1181  0.7300
  759MOL0     O 4607   9.603   6.867   2.589  0.0657 -0.1413 -0.2328
  759MOL0     C 4608   9.619   6.777   2.692  0.9955 -0.2850 -0.6157
  759MOL0     C 4609   9.551   6.657   2.677 -0.6612 -0.3346  0.7346
  759MOL0     C 4610   9.564   6.552   2.773 -0.1989 -0.4040  0.1884
  759MOL0     C 4611   9.653   6.574   2.881 -0.4437  0.5464  0.1566
  759MOL0     O 4612   9.669   6.477   2.982 -0.1884  0.3084  0.7865
  759MOL0     C 4613   9.570   6.372   2.985 -0.3032 -0.3068  0.0909
  759MOL0     C 4614   9.436   6.412   3.046  0.1759 -0.5433  0.9282
  759MOL0     C 4615   9.454   6.500   3.169 -0.0461 -0.2186 -0.5122
  759MOL0     C 4616   9.330   6.530   3.242  0.6886 -0.3143 -0.5983
  759MOL0     C 4617   9.338   6.607   3.376  0.3619  0.2568 -0.2611
  759MOL0     C 4618   9.329   6.529   3.512  0.5773 -0.8928  0.2548
  759MOL0     C 4619   9.299   6.606   3.647  0.7210 -0.0296 -0.6512
  759MOL0     C 4620   9.343   6.519   3.769 -0.7991 -0.4293 -0.6811
  759MOL0     N 4621   9.485   6.497   3.792  0.4217 -0.3048  0.0758
  759MOL0     C 4622   9.562   6.552   3.893  0.2914 -0.7017 -0.4576
  759MOL0     C 4623   9.677   6.476   3.911  0.2569 -0.4488 -0.5411
  759MOL0     C 4624   9.790   6.495   4.006 -0.1362 -0.1856  0.1052
  759MOL0     C 4625   9.879   6.606   3.959 -0.5796  0.0577 -0.2631
  759MOL0     C 4626   9.878   6.740   4.026  0.0090  0.7717 -0.8203
  759MOL0     C 4627  10.003   6.820   4.002 -0.8758  0.2893 -0.3025
  759MOL0     O 4628  10.002   6.862   3.862 -0.2460 -0.3501  0.1666
  759MOL0     C 4629  10.118   6.861   3.797  0.2915 -0.6382  0.5647
  759MOL0     C 4630  10.112   6.819   3.662  0.3902  0.0666  1.1684
  759MOL0     C 4631  10.228   6.796   3.582 -0.5209 -0.7473 -0.6578
  759MOL0     C 4632  10.210   6.747   3.441  0.8173 -1.0543  0.8235
  759MOL0     C 4633  10.355   6.816   3.646  0.1810 -0.1230 -0.0277
  759MOL0     C 4634  10.494   6.801   3.581  0.4582  1.3077  0.4625
  759MOL0     O 4635  10.608   6.823   3.654 -0.0181 -0.3739 -0.6265
  759MOL0     C 4636  10.724   6.824   3.585 -0.0597  0.1459  0.5592
  759MOL0     C 4637  10.744   6.918   3.485 -0.4085 -0.3964  0.0897
  759MOL0     C 4638  10.850   6.909   3.401 -1.0026 -0.4420 -0.0067
  759MOL0     C 4639  10.958   6.820   3.426  0.0763  0.1232  0.2729
  759MOL0     O 4640  11.080   6.809   3.358  0.0756  0.1052 -0.2090
  759MOL0     C 4641  11.122   6.921   3.276  0.3487 -0.1107 -0.6988
  759MOL0     C 4642  11.273   6.929   3.241  0.3120  0.0533 -0.3036
  759MOL0     C 4643  11.359   6.975   3.355 -0.8307  0.3030 -0.4013
  759MOL0     C 4644  11.511   6.994   3.322 -0.0299 -0.2114  0.2116
  759MOL0     C 4645  11.579   6.881   3.256 -0.6672  0.0230  0.3753
  759MOL0     C 4646  11.585   6.768   3.347 -0.1957 -0.6091  0.5773
  759MOL0     C 4647  11.625   6.637   3.266 -0.0567  0.0100 -0.0384
  759MOL0     C 4648  11.635   6.516   3.358 -0.0139  0.1860  0.3429
  759MOL0    Cl 4649  11.474   6.465   3.409 -0.3310  0.0468  0.1874
  759MOL0     C 4650  10.930   6.726   3.523  0.2183  1.3351 -0.9683
  759MOL0     C 4651  10.822   6.729   3.610  0.1299 -1.2311  0.1939
  759MOL0     O 4652  10.484   6.779   3.462  0.0918  0.3117 -0.6880
  759MOL0     C 4653  10.359   6.854   3.780  0.0008 -0.8037 -0.0149
  759MOL0     C 4654  10.247   6.876   3.853 -0.1265  0.4006  0.4674
  759MOL0     N 4655   9.673   6.378   3.811  0.1990  0.0479  0.1648
  759MOL0     N 4656   9.566   6.394   3.734  0.7152 -0.5089 -0.3199
  759MOL0     C 4657   9.728   6.697   2.890  0.1327 -0.4501  0.6840
  759MOL0     C 4658   9.704   6.796   2.799 -0.1479  0.6399  0.4268
  759MOL0     C 4659   9.481   7.053   2.487 -0.0576  0.0406  1.0009
  759MOL0     C 4660   9.514   6.996   2.360 -0.6351  0.2514  0.0195
  759MOL0     C 4661   9.479   7.068   2.245  0.1275  0.1147  0.2504
  759MOL0     C 4662   9.412   7.187   2.253  0.7079 -0.0370 -0.1535
  759MOL0     O 4663   9.381   7.253   2.132  0.3203  0.0911 -0.0649
  759MOL0     C 4664   9.472   7.363   2.103 -0.1433 -0.1418  0.3605
  759MOL0     C 4665   9.488   7.385   1.951 -0.6581  0.1048 -0.3435
  759MOL0     C 4666   9.541   7.522   1.904 -1.0165  0.0842 -0.0338
  759MOL0     C 4667   9.441   7.633   1.878 -1.0039 -0.5850  0.1887
  759MOL0     C 4668   9.383   7.681   2.007 -0.3185 -0.2687  0.7788
  759MOL0     C 4669   9.323   7.709   2.111  0.5194 -0.0268 -0.1862
  759MOL0     C 4670   9.387   7.254   2.376  0.2418  0.9660  0.7335
  759MOL0     C 4671   9.416   7.182   2.491  0.5630 -0.5765  0.5469
  759MOL0     C 4672   9.374   7.243   2.616  0.3224  0.0889 -0.5912
  759MOL0     H 4673   9.501   6.652   2.581 -0.6789  2.5118  0.4968
  759MOL0     H 4674   9.518   6.458   2.744  2.2741 -1.8358  0.6100
  759MOL0     H 4675   9.627   6.288   3.027  4.1165  0.0082 -4.3528
  759MOL0     H 4676   9.554   6.327   2.887 -1.8752  2.3060 -0.9245
  759MOL0     H 4677   9.385   6.468   2.967  2.2700 -3.6862 -3.0561
  759MOL0     H 4678   9.395   6.312   3.063  2.2102 -1.9514 -1.6870
  759MOL0     H 4679   9.527   6.450   3.233  1.4808  2.3316 -0.1321
  759MOL0     H 4680   9.501   6.595   3.141 -1.7716  0.4659 -1.2486
  759MOL0     H 4681   9.277   6.585   3.163 -0.7966 -3.8797 -2.3617
  759MOL0     H 4682   9.273   6.438   3.261 -0.5179  0.4929 -0.1927
  759MOL0     H 4683   9.252   6.675   3.371  1.9838  2.4004 -0.6991
  759MOL0     H 4684   9.425   6.673   3.376  0.7830 -0.1867 -3.2936
  759MOL0     H 4685   9.251   6.455   3.492 -0.9327  1.5451 -4.7315
  759MOL0     H 4686   9.430   6.488   3.525  0.5752 -0.5971  1.2543
  759MOL0     H 4687   9.193   6.633   3.647  1.1081  1.7180 -2.0982
  759MOL0     H 4688   9.361   6.696   3.650 -0.3710  0.7383  2.5762
  759MOL0     H 4689   9.306   6.569   3.859  1.5594  0.1021  0.0602
  759MOL0     H 4690   9.296   6.421   3.758 -0.4307 -0.7560  0.5307
  759MOL0     H 4691   9.530   6.635   3.956  1.4392 -1.6375  1.4655
  759MOL0     H 4692   9.834   6.394   4.003  0.5189  0.0700  0.9193
  759MOL0     H 4693   9.740   6.514   4.101  1.9435 -0.4814  1.3225
  759MOL0     H 4694   9.980   6.571   3.983 -0.6010 -1.5431 -2.2600
  759MOL0     H 4695   9.861   6.624   3.853 -1.1936 -0.2727 -0.2177
  759MOL0     H 4696   9.786   6.795   4.008 -0.7824  0.4764  1.8264
  759MOL0     H 4697   9.881   6.722   4.134  0.1272 -1.3674 -1.1274
  759MOL0     H 4698  10.015   6.905   4.070 -2.5418  0.3629 -0.0637
  759MOL0     H 4699  10.087   6.750   4.009 -1.0822  0.1144  0.4334
  759MOL0     H 4700  10.016   6.809   3.612  0.7881 -0.0862  0.4292
  759MOL0     H 4701  10.265   6.657   3.413  1.4126  0.4510 -3.7593
  759MOL0     H 4702  10.243   6.825   3.372  0.6182 -3.0360 -1.6577
  759MOL0     H 4703  10.106   6.727   3.411  1.2130  0.4437 -1.8611
  759MOL0     H 4704  10.676   7.001   3.468  1.1785  0.6973 -1.3185
  759MOL0     H 4705  10.858   6.975   3.314 -2.8991 -1.0336 -0.6707
  759MOL0     H 4706  11.059   6.922   3.186 -0.4312  1.8218 -0.1671
  759MOL0     H 4707  11.101   7.010   3.335 -1.4858 -0.7435 -0.3296
  759MOL0     H 4708  11.298   6.831   3.198  0.9638 -0.3747  1.0126
  759MOL0     H 4709  11.279   7.001   3.159 -0.8035 -1.7848 -2.0918
  759MOL0     H 4710  11.354   6.900   3.434  2.3891 -2.1244 -2.2244
  759MOL0     H 4711  11.330   7.075   3.387  1.6852  0.8542  0.3788
  759MOL0     H 4712  11.578   7.004   3.409 -0.6570 -4.1618  1.3108
  759MOL0     H 4713  11.512   7.082   3.257  2.3045 -0.0939  0.3200
  759MOL0     H 4714  11.537   6.849   3.160  0.7063  2.8195 -1.2935
  759MOL0     H 4715  11.685   6.891   3.232 -1.2205 -0.1052 -2.5316
  759MOL0     H 4716  11.489   6.742   3.394 -0.4861 -2.6130 -0.9489
  759MOL0     H 4717  11.664   6.782   3.421  1.0174  3.0859 -1.1854
  759MOL0     H 4718  11.719   6.655   3.213 -0.4235 -1.3340 -1.2000
  759MOL0     H 4719  11.554   6.615   3.187  0.7934  2.2486 -1.5167
  759MOL0     H 4720  11.697   6.548   3.443  0.0810  5.9681 -1.4485
  759MOL0     H 4721  11.687   6.434   3.307 -2.2969 -0.6555 -0.7439
  759MOL0     H 4722  11.007   6.653   3.548 -1.0239  0.2011 -0.3349
  759MOL0     H 4723  10.819   6.653   3.688 -2.9499 -1.5900 -0.1429
  759MOL0     H 4724  10.448   6.887   3.834 -0.3058  0.1661 -0.0830
  759MOL0     H 4725  10.237   6.913   3.955 -2.1066  0.8886  0.1416
  759MOL0     H 4726   9.795   6.715   2.973 -0.8546  1.8948  1.0501
  759MOL0     H 4727   9.764   6.886   2.804  1.5374 -0.5029  1.5874
  759MOL0     H 4728   9.558   6.897   2.355 -3.4185 -1.0660 -0.8360
  759MOL0     H 4729   9.490   7.013   2.152 -3.6628  0.1337 -0.3686
  759MOL0     H 4730   9.440   7.457   2.150 -1.2759  0.8528 -2.2163
  759MOL0     H 4731   9.573   7.340   2.136  0.8482  0.4037 -2.0775
  759MOL0     H 4732   9.397   7.358   1.898 -1.6959  0.5129  1.1769
  759MOL0     H 4733   9.558   7.307   1.919 -1.5672  0.0027 -2.2152
  759MOL0     H 4734   9.610   7.557   1.981  0.0416  3.8420 -2.4135
  759MOL0     H 4735   9.592   7.496   1.810 -1.9551  0.1515 -0.5674
  759MOL0     H 4736   9.364   7.600   1.809 -1.9852 -1.2401  1.5475
  759MOL0     H 4737   9.486   7.718   1.826  0.6070 -2.0622 -0.9788
  759MOL0     H 4738   9.276   7.711   2.208 -1.0523 -1.0779 -0.8900
  759MOL0     H 4739   9.348   7.354   2.384 -1.6785  0.1234  2.9706
  759MOL0     H 4740   9.325   7.340   2.600  0.0894 -0.0274 -0.5844
  759MOL0     H 4741   9.311   7.176   2.675  0.9996 -1.2479 -1.3510
  759MOL0     H 4742   9.465   7.250   2.677 -0.6329 -4.0080  1.7080
  760MOL0     O 4743   1.187   4.807   3.053  0.1695  0.1485  0.1205
  760MOL0     C 4744   1.111   4.720   3.027 -0.0011  0.3802 -0.7233
  760MOL0     O 4745   1.143   4.594   2.993 -0.1782  0.0758  0.5508
  760MOL0     C 4746   1.269   4.547   2.981  0.5337 -0.1766 -0.3512
  760MOL0     C 4747   1.311   4.518   2.851 -0.2543 -0.6680 -0.3270
  760MOL0     C 4748   1.448   4.488   2.838 -0.0724 -0.6854  0.5860
  760MOL0     C 4749   1.543   4.489   2.935 -0.3734 -0.2960 -0.2906
  760MOL0     O 4750   1.675   4.468   2.905  0.5182  0.9177 -0.1184
  760MOL0     C 4751   1.766   4.453   3.013 -0.3756  0.1561 -0.3688
  760MOL0     C 4752   1.914   4.454   2.964  0.4323 -0.1696 -0.3729
  760MOL0     C 4753   1.931   4.343   2.864 -0.1998  0.3800  1.6132
  760MOL0     C 4754   2.080   4.315   2.840 -0.0689 -0.0215 -0.5917
  760MOL0     C 4755   2.089   4.212   2.732  0.4459  0.5758 -0.3101
  760MOL0     C 4756   2.230   4.151   2.728 -0.1165 -0.1375 -0.2765
  760MOL0     C 4757   2.245   4.100   2.582  0.4138  0.9036 -0.2244
  760MOL0     C 4758   2.202   3.949   2.570 -1.0335 -0.2726  0.0208
  760MOL0     N 4759   2.145   3.933   2.439  0.2640 -0.1790 -0.0329
  760MOL0     C 4760   2.209   3.918   2.314  0.4368  0.2585 -0.0940
  760MOL0     C 4761   2.113   3.923   2.228 -0.6895  0.0107  0.3854
  760MOL0     C 4762   2.147   3.920   2.078 -0.0036 -0.1416 -0.1501
  760MOL0     C 4763   2.156   3.779   2.025  0.2403 -0.3921 -0.3317
  760MOL0     C 4764   2.155   3.775   1.878  0.3098 -0.2769 -0.0819
  760MOL0     C 4765   2.018   3.797   1.821 -0.3123 -0.2870  0.0291
  760MOL0     O 4766   1.942   3.678   1.847  0.0445  0.2942  0.1621
  760MOL0     C 4767   1.809   3.697   1.839 -0.3140  0.0212 -0.3564
  760MOL0     C 4768   1.756   3.748   1.961 -0.6395 -0.0220 -0.5545
  760MOL0     C 4769   1.621   3.775   1.976  0.5976 -0.5805  0.2565
  760MOL0     C 4770   1.581   3.834   2.106 -1.1509  1.0186  0.3553
  760MOL0     C 4771   1.534   3.741   1.865 -0.3832 -0.3411 -0.0649
  760MOL0     C 4772   1.386   3.737   1.868 -0.2510 -0.2181  0.5692
  760MOL0     O 4773   1.327   3.687   1.983 -0.4996  0.3903 -0.3435
  760MOL0     C 4774   1.199   3.712   2.003 -0.4694  0.7016 -0.3165
  760MOL0     C 4775   1.113   3.601   2.020 -0.2613  1.8952  0.4008
  760MOL0     C 4776   0.973   3.622   2.021 -0.3990  0.4427  0.8123
  760MOL0     C 4777   0.914   3.747   1.996  0.5148  0.0655 -0.1393
  760MOL0     O 4778   0.779   3.759   1.993 -0.5740  0.0485 -0.3874
  760MOL0     C 4779   0.720   3.834   1.893  0.1151 -0.1950 -0.1009
  760MOL0     C 4780   0.576   3.848   1.948  0.0015  0.0209  0.3260
  760MOL0     C 4781   0.473   3.872   1.838 -0.4438  0.2385  1.0320
  760MOL0     C 4782   0.401   3.748   1.780 -0.0223 -0.1585  0.2364
  760MOL0     C 4783   0.301   3.784   1.667 -1.1889  0.4784 -0.2544
  760MOL0     C 4784   0.158   3.725   1.681 -0.1597  0.8181  0.1274
  760MOL0     C 4785   0.144   3.572   1.699  0.2845  0.1330  0.3637
  760MOL0     C 4786   0.180   3.490   1.573 -0.0017  0.5329  0.6010
  760MOL0    Cl 4787   0.043   3.514   1.455 -0.3526 -0.1122 -0.0453
  760MOL0     C 4788   0.999   3.854   1.958  0.0357  0.0644 -0.1532
  760MOL0     C 4789   1.139   3.833   1.972  0.0942  0.0184 -0.5595
  760MOL0     O 4790   1.327   3.769   1.763  1.1537  0.3434 -0.1917
  760MOL0     C 4791   1.588   3.677   1.753 -0.0688 -0.6501 -0.8568
  760MOL0     C 4792   1.727   3.653   1.739 -0.3551 -0.8905  0.0013
  760MOL0     N 4793   1.986   3.937   2.283 -0.4815 -0.3258 -0.4057
  760MOL0     N 4794   2.010   3.952   2.413 -0.7412 -0.8695 -0.6079
  760MOL0     C 4795   1.500   4.508   3.065  0.3535 -0.4420 -1.1606
  760MOL0     C 4796   1.364   4.541   3.085  0.4375 -1.6794  0.2381
  760MOL0     C 4797   0.966   4.739   3.042  0.2911  0.5698  0.7227
  760MOL0     C 4798   0.893   4.618   3.067 -0.1957 -0.2391 -0.1773
  760MOL0     C 4799   0.763   4.621   3.106  0.1088  0.8435 -0.9445
  760MOL0     C 4800   0.687   4.736   3.097 -0.1774  0.4348 -0.3108
  760MOL0     O 4801   0.554   4.756   3.123 -0.0361 -0.3660  0.5412
  760MOL0     C 4802   0.452   4.649   3.127  0.4300  0.2332  1.2143
  760MOL0     C 4803   0.389   4.616   3.004 -0.1220 -0.6117  0.6129
  760MOL0     C 4804   0.311   4.740   2.954  0.2421  0.7040  0.3288
  760MOL0     C 4805   0.258   4.727   2.807 -0.2397 -0.3342 -0.3192
  760MOL0     C 4806   0.357   4.787   2.720 -0.4019  0.3801 -0.0053
  760MOL0     C 4807   0.453   4.823   2.661 -0.2083  0.7712 -0.1621
  760MOL0     C 4808   0.757   4.853   3.072 -0.0334  0.8242 -0.0734
  760MOL0     C 4809   0.898   4.860   3.038  0.7620  0.3806 -0.0842
  760MOL0     C 4810   0.948   4.991   3.006  0.4786 -0.0316  0.0441
  760MOL0     H 4811   1.244   4.527   2.766 -1.4750  0.4537  0.7070
  760MOL0     H 4812   1.480   4.465   2.737 -4.4837 -0.4403 -1.0982
  760MOL0     H 4813   1.750   4.362   3.071 -0.0960  1.7382  2.3095
  760MOL0     H 4814   1.758   4.531   3.089 -1.7040 -1.4075  1.1876
  760MOL0     H 4815   1.932   4.553   2.921 -0.9905  0.3967  0.2874
  760MOL0     H 4816   1.977   4.450   3.054  0.5095  0.0974 -0.4135
  760MOL0     H 4817   1.890   4.248   2.901  2.9034 -1.5068  0.6006
  760MOL0     H 4818   1.898   4.364   2.762  5.2570  0.2905 -0.4800
  760MOL0     H 4819   2.131   4.406   2.807  1.9064 -1.2158 -0.9848
  760MOL0     H 4820   2.140   4.283   2.925  0.1885 -1.1045 -1.1618
  760MOL0     H 4821   2.063   4.250   2.632  1.3313  2.5718  0.1857
  760MOL0     H 4822   2.015   4.135   2.757  3.9291 -3.7891 -2.0033
  760MOL0     H 4823   2.308   4.227   2.741  0.5919 -1.0457  1.0354
  760MOL0     H 4824   2.249   4.070   2.799 -2.2880 -2.0000 -1.6940
  760MOL0     H 4825   2.354   4.105   2.570  0.5279  1.0565  0.7909
  760MOL0     H 4826   2.201   4.173   2.512  2.2278  3.4333  1.1157
  760MOL0     H 4827   2.276   3.871   2.590 -0.2308  1.1815  3.3378
  760MOL0     H 4828   2.130   3.934   2.651 -1.7130  0.9663 -0.3317
  760MOL0     H 4829   2.314   3.908   2.288 -0.0532 -2.0299 -1.4701
  760MOL0     H 4830   2.240   3.974   2.057  0.1142 -0.4270 -0.3830
  760MOL0     H 4831   2.066   3.966   2.021  0.7537 -0.2218 -1.3388
  760MOL0     H 4832   2.250   3.741   2.064 -0.1835  0.8559  2.1221
  760MOL0     H 4833   2.083   3.706   2.061  1.9307 -1.5070  0.9916
  760MOL0     H 4834   2.234   3.842   1.843  0.1689 -0.4204 -0.6903
  760MOL0     H 4835   2.176   3.668   1.863 -0.3784 -1.1893  4.2068
  760MOL0     H 4836   1.969   3.890   1.853 -0.8024  0.4704 -2.6558
  760MOL0     H 4837   2.028   3.804   1.712  1.3246 -1.0224  0.0910
  760MOL0     H 4838   1.824   3.767   2.043  0.1343 -0.6103 -1.0416
  760MOL0     H 4839   1.488   3.891   2.098 -0.3838  2.2272 -0.3626
  760MOL0     H 4840   1.666   3.896   2.136 -0.3349  1.5090 -2.6037
  760MOL0     H 4841   1.574   3.748   2.173 -0.5357  1.6188  1.2040
  760MOL0     H 4842   1.154   3.502   2.033 -1.7003  1.5581  2.9537
  760MOL0     H 4843   0.907   3.536   2.036  1.2207 -1.1831 -0.9065
  760MOL0     H 4844   0.746   3.940   1.879  1.8184 -0.7009 -1.0123
  760MOL0     H 4845   0.722   3.792   1.792 -5.0057 -0.0750 -0.5063
  760MOL0     H 4846   0.545   3.758   2.001  0.3373  0.1331  0.7161
  760MOL0     H 4847   0.584   3.927   2.023 -0.0796  0.3465 -0.0047
  760MOL0     H 4848   0.519   3.928   1.757 -0.8770 -0.7611  0.0725
  760MOL0     H 4849   0.413   3.945   1.894  1.7381  1.8346  1.4111
  760MOL0     H 4850   0.357   3.692   1.862 -0.7870 -1.2841 -0.9053
  760MOL0     H 4851   0.477   3.682   1.737 -2.0123 -2.5828  0.1999
  760MOL0     H 4852   0.292   3.893   1.660  2.4078  0.8774 -0.1556
  760MOL0     H 4853   0.323   3.760   1.563  0.1585  1.4373 -0.2137
  760MOL0     H 4854   0.094   3.751   1.596  0.4980  3.7737  0.4253
  760MOL0     H 4855   0.106   3.779   1.761 -3.3432 -1.6125 -0.0925
  760MOL0     H 4856   0.037   3.550   1.704  0.3509 -1.6778 -3.2120
  760MOL0     H 4857   0.196   3.534   1.788  0.4708 -1.6652 -0.4624
  760MOL0     H 4858   0.186   3.382   1.593  1.7877  0.2653 -1.0428
  760MOL0     H 4859   0.270   3.528   1.523 -0.1537  0.5638  0.3477
  760MOL0     H 4860   0.967   3.952   1.925 -2.1525 -1.2119 -2.1254
  760MOL0     H 4861   1.217   3.904   1.946  1.3874 -1.6401 -1.4361
  760MOL0     H 4862   1.530   3.642   1.669 -0.8554 -2.1061  0.2301
  760MOL0     H 4863   1.773   3.604   1.653 -1.6008 -0.1780 -1.1091
  760MOL0     H 4864   1.563   4.482   3.150 -1.2216  0.8470  0.4642
  760MOL0     H 4865   1.332   4.564   3.186 -3.7831 -0.0214 -1.2554
  760MOL0     H 4866   0.940   4.524   3.093  3.0585  1.9233  2.6570
  760MOL0     H 4867   0.717   4.535   3.155  0.8463  0.4835 -0.8674
  760MOL0     H 4868   0.489   4.556   3.170  2.0559 -0.7414 -1.9337
  760MOL0     H 4869   0.365   4.685   3.183 -1.6099 -1.5132 -0.6171
  760MOL0     H 4870   0.322   4.533   3.026 -1.3938  1.0126  3.3891
  760MOL0     H 4871   0.464   4.585   2.931  2.4575  3.9706  0.8721
  760MOL0     H 4872   0.214   4.735   3.005 -0.5656  0.8198 -1.1541
  760MOL0     H 4873   0.335   4.841   2.989  0.0176 -0.8047  5.9286
  760MOL0     H 4874   0.171   4.794   2.799  2.1094  2.9143 -0.9697
  760MOL0     H 4875   0.240   4.623   2.778  1.9946 -0.5073 -1.2757
  760MOL0     H 4876   0.536   4.873   2.615  0.4481 -0.1883 -0.0489
  760MOL0     H 4877   0.700   4.946   3.071 -3.5271 -1.1477 -0.0662
  760MOL0     H 4878   1.041   5.013   3.061  0.7291 -0.5347 -0.1701
  760MOL0     H 4879   0.965   4.985   2.898  0.8256 -2.5963  0.1887
  760MOL0     H 4880   0.878   5.069   3.036 -2.8139 -3.7776  3.2388
  761MOL0     O 4881   4.699   6.537   3.400  0.1974  0.5673  0.1236
  761MOL0     C 4882   4.675   6.428   3.343  0.1245  0.1004  0.2556
  761MOL0     O 4883   4.650   6.412   3.206  0.1357 -0.3519 -0.3532
  761MOL0     C 4884   4.648   6.530   3.141  0.5468 -0.9334 -0.3858
  761MOL0     C 4885   4.767   6.599   3.102  0.3510 -0.8261 -0.5470
  761MOL0     C 4886   4.756   6.741   3.070 -0.4046  0.1265  1.2423
  761MOL0     C 4887   4.632   6.793   3.040  0.5594  0.2606 -0.1424
  761MOL0     O 4888   4.615   6.926   2.997 -0.0684  0.2440  0.2979
  761MOL0     C 4889   4.726   7.009   2.955  0.1279  0.0403  0.4302
  761MOL0     C 4890   4.759   6.982   2.808  0.8546 -0.6446  0.4376
  761MOL0     C 4891   4.870   7.079   2.751 -0.3724  0.5775 -0.4599
  761MOL0     C 4892   5.013   7.059   2.808 -0.9050  0.4597 -1.4561
  761MOL0     C 4893   5.118   7.134   2.734 -0.0952  0.0584  0.0170
  761MOL0     C 4894   5.132   7.279   2.781  0.5985  0.5260 -0.1782
  761MOL0     C 4895   5.268   7.342   2.744 -0.1641  0.3028  0.3643
  761MOL0     C 4896   5.386   7.267   2.805  0.9133 -0.7654  0.0923
  761MOL0     N 4897   5.519   7.344   2.790 -0.9199  0.3340 -0.0903
  761MOL0     C 4898   5.572   7.385   2.667  0.5778  0.3853  0.2409
  761MOL0     C 4899   5.688   7.445   2.707  0.4998 -0.1416  0.0391
  761MOL0     C 4900   5.780   7.518   2.615  0.6449  0.5317 -0.7889
  761MOL0     C 4901   5.890   7.422   2.556 -0.0190 -0.0447  0.1502
  761MOL0     C 4902   5.975   7.507   2.449 -0.6820 -0.1189  0.1338
  761MOL0     C 4903   6.080   7.601   2.504 -0.5938 -0.2142 -1.0674
  761MOL0     O 4904   6.190   7.512   2.550 -0.6981 -0.2048  0.1552
  761MOL0     C 4905   6.306   7.562   2.599 -0.5344 -0.7106  0.0113
  761MOL0     C 4906   6.341   7.697   2.589  0.4967  0.4836  0.6759
  761MOL0     C 4907   6.465   7.742   2.638 -0.2526 -0.6658  0.3118
  761MOL0     C 4908   6.486   7.893   2.637  0.0381  0.4803 -0.5770
  761MOL0     C 4909   6.553   7.641   2.691  0.2401  0.2807 -0.5406
  761MOL0     C 4910   6.694   7.676   2.724  0.4314  0.4257  0.2412
  761MOL0     O 4911   6.757   7.779   2.646  0.0085 -0.0230 -0.4565
  761MOL0     C 4912   6.894   7.790   2.630  1.0155  0.0471 -0.7063
  761MOL0     C 4913   6.947   7.911   2.668 -0.5294 -0.2122  0.0339
  761MOL0     C 4914   7.085   7.934   2.666  0.7347  0.1285 -0.8880
  761MOL0     C 4915   7.166   7.831   2.614  0.5799 -0.2420  0.6136
  761MOL0     O 4916   7.302   7.835   2.609 -0.3365  0.3365 -0.2920
  761MOL0     C 4917   7.377   7.917   2.693  0.2441 -0.1412 -0.3809
  761MOL0     C 4918   7.522   7.859   2.688  0.1995  0.1430 -0.0520
  761MOL0     C 4919   7.630   7.945   2.753  0.4771 -0.1122  0.6360
  761MOL0     C 4920   7.757   7.872   2.755 -0.4166 -0.6397  0.4412
  761MOL0     C 4921   7.879   7.959   2.774  0.0044 -0.4767  0.5690
  761MOL0     C 4922   7.954   8.020   2.652 -0.1540  0.4735 -0.3788
  761MOL0     C 4923   8.107   8.050   2.675  0.8788  0.7054 -0.0448
  761MOL0     C 4924   8.137   8.175   2.767  0.5266  0.2797  0.3435
  761MOL0    Cl 4925   8.226   8.115   2.915 -0.2934  0.6732  0.4432
  761MOL0     C 4926   7.105   7.715   2.574  0.7887  0.3340 -0.1920
  761MOL0     C 4927   6.974   7.687   2.589 -0.0206 -0.1680  0.1124
  761MOL0     O 4928   6.752   7.598   2.802  0.2709  0.3590  0.3637
  761MOL0     C 4929   6.510   7.514   2.719 -0.1892 -0.1775 -0.4991
  761MOL0     C 4930   6.379   7.480   2.687  0.2802  0.3688 -0.2814
  761MOL0     N 4931   5.699   7.426   2.850  0.3635 -0.1018 -0.1234
  761MOL0     N 4932   5.598   7.361   2.897  0.2631 -0.3721  0.3723
  761MOL0     C 4933   4.514   6.719   3.058  0.0350  0.7747 -0.5399
  761MOL0     C 4934   4.519   6.585   3.118 -0.0586 -0.4979  0.3468
  761MOL0     C 4935   4.684   6.302   3.432  0.2338 -0.2836 -0.0474
  761MOL0     C 4936   4.617   6.185   3.388  0.0311 -0.4905  0.6663
  761MOL0     C 4937   4.617   6.072   3.466 -0.5547 -0.5518 -0.2457
  761MOL0     C 4938   4.669   6.071   3.599 -0.3523 -0.6148  0.9355
  761MOL0     O 4939   4.658   5.965   3.678  0.2741  0.2811 -0.7673
  761MOL0     C 4940   4.756   5.864   3.645 -0.4074  0.2864  0.0550
  761MOL0     C 4941   4.678   5.741   3.607  0.2858 -0.2010  0.0930
  761MOL0     C 4942   4.575   5.683   3.705 -0.6196 -0.3430 -0.9320
  761MOL0     C 4943   4.484   5.590   3.637  0.1717 -0.4720  0.0374
  761MOL0     C 4944   4.374   5.567   3.734 -0.7320 -0.4496  0.3906
  761MOL0     C 4945   4.275   5.552   3.799  0.0491  1.5600  0.0961
  761MOL0     C 4946   4.748   6.179   3.642  0.7412  0.1922  0.2913
  761MOL0     C 4947   4.754   6.289   3.559  0.0811  0.8159  0.0405
  761MOL0     C 4948   4.844   6.391   3.624 -0.1925 -0.5249  0.2411
  761MOL0     H 4949   4.870   6.564   3.102  1.4141  1.9353 -1.5979
  761MOL0     H 4950   4.849   6.794   3.053  0.0818 -0.4484  2.0455
  761MOL0     H 4951   4.808   6.997   3.026  1.0496  2.4559 -0.1260
  761MOL0     H 4952   4.696   7.113   2.970  3.4983  1.1554  0.1167
  761MOL0     H 4953   4.786   6.878   2.787  0.6354 -0.3711 -1.3826
  761MOL0     H 4954   4.668   7.013   2.757  1.3939 -0.2152 -0.2902
  761MOL0     H 4955   4.874   7.059   2.644 -3.5608  1.8092 -0.9122
  761MOL0     H 4956   4.842   7.183   2.769 -2.1184  0.1417 -0.4945
  761MOL0     H 4957   5.026   7.083   2.914  3.0589 -1.3555 -1.3662
  761MOL0     H 4958   5.019   6.951   2.793 -0.3811  0.0634  1.1763
  761MOL0     H 4959   5.125   7.118   2.626 -0.3588 -2.2639  0.2822
  761MOL0     H 4960   5.203   7.075   2.770 -0.3151 -1.8746 -2.3720
  761MOL0     H 4961   5.041   7.323   2.738  1.3717  0.6248 -1.8156
  761MOL0     H 4962   5.121   7.293   2.889  0.9395 -1.0436  0.0779
  761MOL0     H 4963   5.269   7.449   2.765 -1.3763  0.5752 -0.7526
  761MOL0     H 4964   5.288   7.331   2.637 -1.9041  0.4389 -0.0034
  761MOL0     H 4965   5.363   7.255   2.911 -0.3554 -1.7715 -0.2641
  761MOL0     H 4966   5.391   7.170   2.755 -2.1989 -1.4545  0.9227
  761MOL0     H 4967   5.525   7.385   2.569 -2.1559 -2.8772  1.3570
  761MOL0     H 4968   5.823   7.602   2.671 -0.5007  1.4498 -1.2525
  761MOL0     H 4969   5.715   7.563   2.540  0.2795 -1.5560 -1.7798
  761MOL0     H 4970   5.948   7.400   2.646 -2.2578 -0.9541  1.4352
  761MOL0     H 4971   5.853   7.335   2.501  0.4237  1.0609 -2.0112
  761MOL0     H 4972   6.022   7.428   2.389 -3.6307 -1.2628 -0.8280
  761MOL0     H 4973   5.908   7.552   2.376 -1.6855 -2.4401 -0.4602
  761MOL0     H 4974   6.112   7.674   2.429 -0.9979  0.1566 -0.8856
  761MOL0     H 4975   6.033   7.658   2.585  1.8285  1.3397 -0.6727
  761MOL0     H 4976   6.285   7.770   2.531 -1.4415 -0.2857  1.4649
  761MOL0     H 4977   6.389   7.942   2.626 -0.8566 -1.0611  0.1070
  761MOL0     H 4978   6.543   7.918   2.547 -1.9491 -0.9009 -2.2906
  761MOL0     H 4979   6.542   7.934   2.722  0.1598 -1.5652  0.3985
  761MOL0     H 4980   6.887   7.995   2.701  0.2418  0.8551 -1.1858
  761MOL0     H 4981   7.141   8.017   2.708  2.0219 -1.7310  1.2767
  761MOL0     H 4982   7.370   8.015   2.646  2.2218  0.3077  0.1737
  761MOL0     H 4983   7.333   7.926   2.793  0.0992 -0.4995 -0.4091
  761MOL0     H 4984   7.511   7.760   2.731  1.2363 -0.0554 -0.2238
  761MOL0     H 4985   7.550   7.854   2.582  1.0543  3.0476 -0.0520
  761MOL0     H 4986   7.594   7.981   2.851  0.1690 -1.8710  1.2064
  761MOL0     H 4987   7.640   8.031   2.686 -1.3592  0.5389  1.1123
  761MOL0     H 4988   7.771   7.824   2.657  2.2637 -2.7462  1.7142
  761MOL0     H 4989   7.746   7.786   2.821 -0.0545 -1.9630 -1.1482
  761MOL0     H 4990   7.853   8.040   2.843 -2.5757 -0.5512 -0.2024
  761MOL0     H 4991   7.946   7.901   2.839  0.7643  1.6756  1.7962
  761MOL0     H 4992   7.903   8.109   2.614  1.2813  1.8434  0.7797
  761MOL0     H 4993   7.958   7.941   2.576 -1.6744  1.5800 -1.6865
  761MOL0     H 4994   8.158   8.058   2.579  0.8743 -1.4143 -0.2850
  761MOL0     H 4995   8.156   7.965   2.724  0.1634  1.0344  1.2770
  761MOL0     H 4996   8.044   8.229   2.785 -2.1592 -2.7235 -3.0753
  761MOL0     H 4997   8.200   8.237   2.703 -0.9618  1.9241  0.4017
  761MOL0     H 4998   7.165   7.634   2.536 -1.0877 -2.2154  1.8898
  761MOL0     H 4999   6.929   7.591   2.566 -0.0382 -0.2908  0.6436
  761MOL0     H 5000   6.570   7.437   2.767  0.2048  0.0467 -0.6247
  761MOL0     H 5001   6.339   7.383   2.715 -2.0462  0.8477 -1.6728
  761MOL0     H 5002   4.421   6.765   3.028 -0.2808 -1.6454 -3.9230
  761MOL0     H 5003   4.426   6.537   3.146 -1.3492  0.8261 -1.4886
  761MOL0     H 5004   4.573   6.191   3.289 -2.3096 -2.4776  1.5108
  761MOL0     H 5005   4.577   5.978   3.431  1.2864 -1.5087  0.1185
  761MOL0     H 5006   4.828   5.887   3.566 -1.3827 -1.4536 -1.4213
  761MOL0     H 5007   4.819   5.853   3.734  0.5339  5.2553  0.3006
  761MOL0     H 5008   4.748   5.661   3.583  0.9534  0.6328 -0.7994
  761MOL0     H 5009   4.626   5.757   3.512 -0.7596 -0.4371  0.6079
  761MOL0     H 5010   4.624   5.641   3.793  1.1477 -0.4390 -1.9139
  761MOL0     H 5011   4.517   5.768   3.742 -0.0037 -1.5338  3.2571
  761MOL0     H 5012   4.535   5.498   3.606  0.4800 -0.0069 -0.8955
  761MOL0     H 5013   4.449   5.614   3.536 -0.5319 -1.5465  0.0011
  761MOL0     H 5014   4.187   5.550   3.861 -1.9647 -1.9884 -2.4899
  761MOL0     H 5015   4.788   6.179   3.743 -0.8513  2.2526  0.9923
  761MOL0     H 5016   4.932   6.342   3.667  0.2382 -1.1040 -1.2290
  761MOL0     H 5017   4.879   6.471   3.558  1.5432 -0.3992  1.2579
  761MOL0     H 5018   4.799   6.452   3.703  0.8755  2.8320 -1.5457
  762MOL0     O 5019   3.802   5.229   6.740 -0.3056  0.1886 -0.2857
  762MOL0     C 5020   3.724   5.145   6.702 -0.5872  0.1517 -0.0754
  762MOL0     O 5021   3.746   5.037   6.618  0.7216  0.4914  0.6913
  762MOL0     C 5022   3.881   4.999   6.618  0.4405 -0.3444  0.1487
  762MOL0     C 5023   3.960   5.085   6.551 -0.2594  0.5216 -1.2006
  762MOL0     C 5024   4.095   5.045   6.528 -0.1656 -0.3445 -0.6043
  762MOL0     C 5025   4.158   4.938   6.589 -1.3174  0.0362 -0.0578
  762MOL0     O 5026   4.287   4.899   6.573 -0.4622  0.3525  0.2254
  762MOL0     C 5027   4.392   4.995   6.556 -0.5201 -0.5225 -0.2378
  762MOL0     C 5028   4.527   4.923   6.560  0.7288  0.8305 -0.4158
  762MOL0     C 5029   4.537   4.835   6.682 -0.5277 -0.4874 -0.5786
  762MOL0     C 5030   4.678   4.782   6.709  0.2794 -0.6893 -1.2590
  762MOL0     C 5031   4.782   4.883   6.763 -0.5553 -0.7513 -0.0999
  762MOL0     C 5032   4.905   4.823   6.825 -0.4076  0.2728 -0.5938
  762MOL0     C 5033   5.002   4.932   6.877  0.3294  0.1498 -0.7635
  762MOL0     C 5034   5.149   4.880   6.900  0.7331 -0.5575  0.5308
  762MOL0     N 5035   5.160   4.760   6.970 -0.2277  0.2859 -0.1100
  762MOL0     C 5036   5.236   4.658   6.924  0.6480  0.3302 -0.7167
  762MOL0     C 5037   5.227   4.571   7.025  0.0725 -0.5063  0.4075
  762MOL0     C 5038   5.297   4.432   7.010 -0.4829  0.3301 -0.2352
  762MOL0     C 5039   5.436   4.436   6.932  0.0565 -0.3469 -0.1801
  762MOL0     C 5040   5.543   4.500   7.013 -0.1580 -0.2484 -0.2491
  762MOL0     C 5041   5.679   4.478   6.943  0.3539 -0.2209 -0.5815
  762MOL0     O 5042   5.705   4.336   6.954  0.2633 -0.2943  0.2532
  762MOL0     C 5043   5.821   4.274   6.908  0.5320 -1.0627  0.4086
  762MOL0     C 5044   5.856   4.152   6.948  0.4009  0.4173  0.3701
  762MOL0     C 5045   5.977   4.088   6.913 -0.5695 -0.0567 -0.4338
  762MOL0     C 5046   5.996   3.949   6.964 -0.5660  0.2934  0.0563
  762MOL0     C 5047   6.067   4.160   6.836  0.3565 -0.3639  0.1230
  762MOL0     C 5048   6.201   4.105   6.792  0.1146 -1.7979 -0.3241
  762MOL0     O 5049   6.299   4.200   6.788 -0.0917  0.5301 -0.5371
  762MOL0     C 5050   6.401   4.202   6.694  0.4789 -0.8864 -0.8527
  762MOL0     C 5051   6.394   4.140   6.573  0.2227 -0.2899  0.1794
  762MOL0     C 5052   6.487   4.171   6.474 -0.0041 -0.1334 -0.3888
  762MOL0     C 5053   6.593   4.265   6.498  0.6929  0.6075  0.8181
  762MOL0     O 5054   6.678   4.297   6.397  0.2328  0.0006  0.1284
  762MOL0     C 5055   6.800   4.369   6.434  0.1057  0.3335  0.1363
  762MOL0     C 5056   6.866   4.414   6.300 -0.0011 -0.1096 -0.2307
  762MOL0     C 5057   6.992   4.494   6.310 -0.0136 -0.3577  1.1348
  762MOL0     C 5058   7.059   4.534   6.169  0.1796 -0.2654  0.0791
  762MOL0     C 5059   7.128   4.670   6.186  0.8120  0.2201 -1.0526
  762MOL0     C 5060   7.279   4.661   6.149 -0.3977 -1.0156 -0.0593
  762MOL0     C 5061   7.306   4.613   6.003 -0.5159 -0.5760  0.5105
  762MOL0     C 5062   7.452   4.633   5.953 -0.9411 -0.7700  1.0210
  762MOL0    Cl 5063   7.488   4.558   5.796 -0.2459  0.3213 -0.1100
  762MOL0     C 5064   6.605   4.316   6.627 -0.3282  0.1332 -0.7337
  762MOL0     C 5065   6.518   4.277   6.723  0.2018  0.7700 -0.7321
  762MOL0     O 5066   6.210   3.986   6.751  0.4044  0.1918 -0.4865
  762MOL0     C 5067   6.039   4.294   6.800  0.7327  0.6757  0.6200
  762MOL0     C 5068   5.918   4.350   6.841  0.4099  0.5238  0.7323
  762MOL0     N 5069   5.149   4.614   7.125 -0.2398  0.2517 -0.9136
  762MOL0     N 5070   5.101   4.727   7.088  0.4087  0.4059 -0.4923
  762MOL0     C 5071   4.075   4.855   6.662  0.8155 -0.4339 -1.8597
  762MOL0     C 5072   3.935   4.873   6.664 -0.7445  0.3521 -0.2020
  762MOL0     C 5073   3.578   5.170   6.717 -0.3289  0.1005  0.2633
  762MOL0     C 5074   3.499   5.168   6.595  0.1649  0.2689 -0.9320
  762MOL0     C 5075   3.366   5.198   6.603 -0.6273 -0.1046 -0.2090
  762MOL0     C 5076   3.307   5.221   6.733  0.1107 -0.1224  1.0619
  762MOL0     O 5077   3.174   5.257   6.761  0.3484 -0.0644 -0.1933
  762MOL0     C 5078   3.078   5.276   6.656 -0.3104  0.5920 -0.6282
  762MOL0     C 5079   3.036   5.150   6.569 -0.8391 -0.3230  0.0100
  762MOL0     C 5080   3.000   5.178   6.428 -0.1127  0.3093 -0.6158
  762MOL0     C 5081   2.950   5.062   6.347  0.4114 -0.6565 -0.3148
  762MOL0     C 5082   3.030   5.040   6.224 -0.9607  0.1145  0.3452
  762MOL0     C 5083   3.103   5.013   6.128  0.2663  0.7644 -0.7027
  762MOL0     C 5084   3.381   5.199   6.848  0.4643 -0.5780  0.4829
  762MOL0     C 5085   3.520   5.189   6.847 -0.0780 -0.0353  0.2864
  762MOL0     C 5086   3.601   5.190   6.979  0.4301  0.2361 -0.5600
  762MOL0     H 5087   3.923   5.183   6.524  0.7934  2.1064  2.3966
  762MOL0     H 5088   4.134   5.118   6.457 -2.5440  2.1349  0.4565
  762MOL0     H 5089   4.386   5.063   6.641  0.6728 -1.0228  0.2677
  762MOL0     H 5090   4.385   5.056   6.466  1.8582 -0.6415 -0.5525
  762MOL0     H 5091   4.530   4.852   6.477 -2.3749  1.1915 -0.9468
  762MOL0     H 5092   4.609   4.994   6.549  0.8659  1.0837  1.7967
  762MOL0     H 5093   4.499   4.890   6.769  1.4044  2.3528 -1.3643
  762MOL0     H 5094   4.479   4.746   6.660  2.6759 -2.1024 -3.4958
  762MOL0     H 5095   4.675   4.705   6.787  0.3497  1.6619  1.2027
  762MOL0     H 5096   4.717   4.739   6.616  3.8801 -1.7184  0.5470
  762MOL0     H 5097   4.734   4.955   6.829 -0.1169  0.0527 -0.6427
  762MOL0     H 5098   4.821   4.940   6.678  2.3652  0.8710  2.1363
  762MOL0     H 5099   4.881   4.759   6.910 -0.4622  0.7607 -0.2368
  762MOL0     H 5100   4.950   4.756   6.751 -2.7087 -1.1003 -0.8377
  762MOL0     H 5101   4.969   4.952   6.979 -0.6943 -0.7941 -0.8981
  762MOL0     H 5102   5.012   5.022   6.815  0.4811 -0.0580 -1.0422
  762MOL0     H 5103   5.181   4.857   6.798 -1.2502  0.0953 -0.2887
  762MOL0     H 5104   5.205   4.963   6.943  1.0360 -1.2212  1.4677
  762MOL0     H 5105   5.273   4.648   6.822  1.6346  1.3120 -0.4732
  762MOL0     H 5106   5.241   4.351   6.962  0.3892 -1.9031  2.2729
  762MOL0     H 5107   5.316   4.398   7.112  1.6675 -0.1694 -0.7689
  762MOL0     H 5108   5.460   4.331   6.917 -0.1384 -0.6130  1.2786
  762MOL0     H 5109   5.416   4.475   6.831  1.8771 -2.4294 -1.4308
  762MOL0     H 5110   5.518   4.607   7.020 -0.3142 -0.3806  2.9775
  762MOL0     H 5111   5.545   4.446   7.108  2.5236 -1.2173 -0.7774
  762MOL0     H 5112   5.669   4.518   6.842 -2.5929  1.9723  0.4338
  762MOL0     H 5113   5.758   4.526   7.000 -2.1799 -0.3426  3.4093
  762MOL0     H 5114   5.784   4.096   7.007  1.1721  0.3615  1.2866
  762MOL0     H 5115   5.917   3.929   7.036 -1.4758 -2.2608 -1.5318
  762MOL0     H 5116   6.092   3.930   7.013 -1.6411  1.3932  2.7610
  762MOL0     H 5117   5.988   3.867   6.892 -2.3296  0.9549 -0.5477
  762MOL0     H 5118   6.325   4.056   6.566  0.3136 -0.3743  0.2885
  762MOL0     H 5119   6.473   4.123   6.378  2.7779 -0.3646 -0.7659
  762MOL0     H 5120   6.780   4.457   6.495  0.9271  1.6826 -1.4851
  762MOL0     H 5121   6.859   4.296   6.491 -1.1490 -1.6774 -0.9872
  762MOL0     H 5122   6.894   4.326   6.241 -0.4195 -0.4533  0.0753
  762MOL0     H 5123   6.805   4.477   6.234  1.0655  0.3478 -0.8119
  762MOL0     H 5124   7.065   4.441   6.372  0.3326  0.1243  1.1454
  762MOL0     H 5125   6.972   4.594   6.350 -0.0452  1.4964 -3.0084
  762MOL0     H 5126   6.980   4.547   6.095  0.0005 -0.4890  0.2301
  762MOL0     H 5127   7.129   4.462   6.127  0.5686 -1.3502  2.4278
  762MOL0     H 5128   7.079   4.755   6.138  0.1332  0.9410  0.8124
  762MOL0     H 5129   7.138   4.692   6.292  2.9313 -1.6643 -0.7734
  762MOL0     H 5130   7.329   4.586   6.212  1.1966 -1.0286 -1.2840
  762MOL0     H 5131   7.332   4.755   6.166  0.8325 -1.8071  0.6704
  762MOL0     H 5132   7.239   4.669   5.937  0.6456 -0.0541 -0.2597
  762MOL0     H 5133   7.283   4.506   6.001 -0.9798 -0.4691  0.1949
  762MOL0     H 5134   7.525   4.586   6.019  1.2772  0.5676 -0.3431
  762MOL0     H 5135   7.474   4.739   5.937 -0.2031 -1.3685 -3.1317
  762MOL0     H 5136   6.691   4.374   6.661  0.1413 -1.5230  1.1134
  762MOL0     H 5137   6.520   4.315   6.825  0.7351 -0.5108 -0.2480
  762MOL0     H 5138   6.115   4.355   6.753  0.6793 -1.2384 -2.1477
  762MOL0     H 5139   5.896   4.452   6.812  1.4050  0.7850  0.8708
  762MOL0     H 5140   4.122   4.764   6.697  2.8268  1.5107  0.9543
  762MOL0     H 5141   3.879   4.789   6.701  0.0991 -0.2643 -0.2966
  762MOL0     H 5142   3.538   5.141   6.498  0.2703 -0.7579 -0.6152
  762MOL0     H 5143   3.309   5.206   6.511  0.6959  0.8487 -0.9600
  762MOL0     H 5144   2.993   5.319   6.710  0.5406  3.1542 -1.2094
  762MOL0     H 5145   3.102   5.350   6.580 -1.5527  0.7085 -0.9393
  762MOL0     H 5146   2.971   5.090   6.633 -0.0657  0.1841  1.3006
  762MOL0     H 5147   3.124   5.088   6.550 -0.2046  1.2827 -2.7669
  762MOL0     H 5148   2.923   5.256   6.433  2.7117  3.2273  1.6692
  762MOL0     H 5149   3.093   5.221   6.389 -0.7363  2.5042  0.1803
  762MOL0     H 5150   2.845   5.079   6.325 -0.1716  2.3053  3.7144
  762MOL0     H 5151   2.959   4.976   6.414 -0.3499 -1.6042 -1.3853
  762MOL0     H 5152   3.168   4.982   6.049  0.1794 -0.7923 -0.2033
  762MOL0     H 5153   3.341   5.209   6.948  3.3150  3.8241  1.4591
  762MOL0     H 5154   3.668   5.104   6.991  0.4008  0.0387 -1.7495
  762MOL0     H 5155   3.658   5.283   6.983 -0.4874  0.8235 -0.9698
  762MOL0     H 5156   3.541   5.186   7.071  0.9085 -2.7207 -0.2624
  763MOL0     O 5157   0.877   7.129   5.852 -0.7772 -0.1713 -0.1574
  763MOL0     C 5158   0.925   7.225   5.792  0.3805  0.2582 -0.3368
  763MOL0     O 5159   0.870   7.297   5.688  0.4887 -0.8582 -0.5935
  763MOL0     C 5160   0.776   7.236   5.599  0.0125  0.0786 -0.1934
  763MOL0     C 5161   0.814   7.144   5.501 -0.6593 -0.6167 -0.2838
  763MOL0     C 5162   0.720   7.103   5.404  0.2455  0.3737  0.4649
  763MOL0     C 5163   0.590   7.146   5.399  0.1832 -0.0985  0.6596
  763MOL0     O 5164   0.509   7.129   5.295  0.8766  0.4514  0.0549
  763MOL0     C 5165   0.413   7.224   5.260  1.0912 -0.0497  1.2082
  763MOL0     C 5166   0.345   7.167   5.127 -0.4641  0.0569  0.1448
  763MOL0     C 5167   0.453   7.135   5.021 -0.1346 -0.1371  0.5961
  763MOL0     C 5168   0.376   7.102   4.891 -0.8853  0.9008 -0.1307
  763MOL0     C 5169   0.468   7.104   4.772  1.1330 -0.0143  0.3331
  763MOL0     C 5170   0.400   7.053   4.642  0.7537  0.9867  0.5494
  763MOL0     C 5171   0.498   6.990   4.550 -0.3779  0.0365  0.7423
  763MOL0     C 5172   0.617   7.085   4.507 -1.0937  0.7012 -0.1916
  763MOL0     N 5173   0.760   7.055   4.557  0.8227 -0.2334 -0.1086
  763MOL0     C 5174   0.837   6.946   4.506  0.9570  0.2514 -0.0043
  763MOL0     C 5175   0.958   6.969   4.564  0.6677  0.3545 -0.3848
  763MOL0     C 5176   1.068   6.876   4.549 -0.0623  0.5408 -0.2023
  763MOL0     C 5177   1.200   6.937   4.518  0.3022 -0.8965 -0.3837
  763MOL0     C 5178   1.306   6.837   4.499 -0.3076 -0.0153  0.5133
  763MOL0     C 5179   1.429   6.915   4.456  0.2822 -0.6112 -0.4273
  763MOL0     O 5180   1.519   6.953   4.565 -0.7318 -0.6229 -0.2973
  763MOL0     C 5181   1.637   7.013   4.524  0.1661  0.2257 -1.1064
  763MOL0     C 5182   1.687   7.019   4.394  0.0535  0.5167 -0.7532
  763MOL0     C 5183   1.817   7.071   4.368 -0.1008 -0.6162 -0.4066
  763MOL0     C 5184   1.862   7.080   4.229  0.0615 -0.3849  0.0593
  763MOL0     C 5185   1.896   7.123   4.484  0.4057  0.2350  0.1741
  763MOL0     C 5186   2.029   7.180   4.476 -0.1151 -0.7335  0.0259
  763MOL0     O 5187   2.106   7.140   4.376  0.3845  0.5436  0.4987
  763MOL0     C 5188   2.237   7.181   4.355 -0.0938  0.2850 -0.5132
  763MOL0     C 5189   2.314   7.102   4.264  0.5347 -0.4667 -0.2257
  763MOL0     C 5190   2.452   7.124   4.242 -0.0622 -0.1829 -0.0029
  763MOL0     C 5191   2.507   7.238   4.298  0.4858  0.2997 -0.2002
  763MOL0     O 5192   2.638   7.250   4.270 -0.1553  0.0289  0.4622
  763MOL0     C 5193   2.719   7.291   4.378  0.0874 -0.2453 -0.9017
  763MOL0     C 5194   2.878   7.266   4.345  0.6736 -0.6190 -0.7965
  763MOL0     C 5195   2.973   7.267   4.453  0.5101  0.6566 -0.1038
  763MOL0     C 5196   3.118   7.257   4.407 -0.3463 -0.8752 -0.6029
  763MOL0     C 5197   3.192   7.401   4.405  0.4630  0.7941 -0.5750
  763MOL0     C 5198   3.335   7.380   4.358 -0.4888  0.4717 -0.3262
  763MOL0     C 5199   3.414   7.512   4.352 -0.1830 -0.4187 -0.1288
  763MOL0     C 5200   3.555   7.491   4.300  0.8435 -0.2928  0.2789
  763MOL0    Cl 5201   3.647   7.396   4.424 -0.4858  0.0501  0.0992
  763MOL0     C 5202   2.426   7.325   4.371 -0.2349  1.0900  0.3952
  763MOL0     C 5203   2.289   7.294   4.406 -0.7044 -0.5760  0.0165
  763MOL0     O 5204   2.068   7.255   4.563 -0.6736 -0.3431  0.8049
  763MOL0     C 5205   1.833   7.124   4.613 -0.3078  0.7685 -0.0311
  763MOL0     C 5206   1.713   7.068   4.628  0.2686  0.6792  0.3181
  763MOL0     N 5207   0.950   7.081   4.642 -0.6954  0.3760 -0.0414
  763MOL0     N 5208   0.830   7.130   4.637 -0.1189  0.0544  0.9867
  763MOL0     C 5209   0.551   7.226   5.509  0.3831 -0.7237 -0.2342
  763MOL0     C 5210   0.645   7.274   5.606  0.3296 -0.1823 -0.2602
  763MOL0     C 5211   1.055   7.272   5.844  0.0414  0.2749  0.5419
  763MOL0     C 5212   1.132   7.351   5.755 -0.1255  0.2169 -0.5600
  763MOL0     C 5213   1.267   7.375   5.786 -0.4311  0.4869 -0.3637
  763MOL0     C 5214   1.324   7.353   5.909  0.5280  0.4797 -0.0259
  763MOL0     O 5215   1.444   7.412   5.939 -0.3871 -0.0893  0.7404
  763MOL0     C 5216   1.512   7.419   6.072  0.3195  0.0493  0.4878
  763MOL0     C 5217   1.641   7.498   6.074 -0.8802 -0.4291  0.0859
  763MOL0     C 5218   1.645   7.626   5.987 -0.4504 -0.7722  0.2967
  763MOL0     C 5219   1.623   7.619   5.836 -0.0594  0.3845 -0.0531
  763MOL0     C 5220   1.711   7.510   5.778 -0.5930 -1.0210  0.0554
  763MOL0     C 5221   1.786   7.440   5.714  0.1141 -0.3754 -0.2542
  763MOL0     C 5222   1.248   7.290   6.004  0.2186 -1.2230 -0.2870
  763MOL0     C 5223   1.116   7.243   5.975 -0.1165 -0.9070  0.3343
  763MOL0     C 5224   1.056   7.176   6.092  0.1198  0.0679  0.5043
  763MOL0     H 5225   0.915   7.111   5.479  0.3674  3.7433 -3.7198
  763MOL0     H 5226   0.760   7.044   5.322  1.8967 -0.1206  1.5801
  763MOL0     H 5227   0.460   7.320   5.237  2.4061 -0.4793  1.9814
  763MOL0     H 5228   0.333   7.236   5.333  0.1407  0.1012  0.1677
  763MOL0     H 5229   0.299   7.069   5.144 -3.0436  1.0796 -0.3631
  763MOL0     H 5230   0.268   7.239   5.098 -2.0231 -1.2548  0.8534
  763MOL0     H 5231   0.510   7.228   5.013 -2.2566  1.3373  1.5344
  763MOL0     H 5232   0.520   7.053   5.045  3.4672  2.5268  0.4019
  763MOL0     H 5233   0.328   7.005   4.904 -0.1698  0.2557 -2.0465
  763MOL0     H 5234   0.296   7.174   4.873 -0.5394  1.2867 -0.1375
  763MOL0     H 5235   0.552   7.040   4.800  1.7876  1.1897  1.2066
  763MOL0     H 5236   0.501   7.208   4.762 -1.0923  0.9491  2.0885
  763MOL0     H 5237   0.323   6.980   4.671  1.1415 -0.0326 -0.8545
  763MOL0     H 5238   0.344   7.134   4.594  0.8718  0.1617 -1.0723
  763MOL0     H 5239   0.448   6.947   4.463  1.4582 -0.0144 -0.3349
  763MOL0     H 5240   0.524   6.895   4.597 -1.5502 -1.1423 -0.9089
  763MOL0     H 5241   0.617   7.079   4.397  0.4715 -1.7539 -0.1340
  763MOL0     H 5242   0.585   7.186   4.535  1.0303  0.8697  1.9703
  763MOL0     H 5243   0.825   6.860   4.442  0.1037  0.8205 -0.6288
  763MOL0     H 5244   1.030   6.801   4.479 -2.5013  0.4419  1.1222
  763MOL0     H 5245   1.077   6.812   4.637 -4.1708  0.0859  0.1038
  763MOL0     H 5246   1.191   6.995   4.426  2.2765 -0.1370 -0.1435
  763MOL0     H 5247   1.224   7.007   4.599  1.4198 -0.6938 -0.8659
  763MOL0     H 5248   1.338   6.798   4.595  1.9480 -2.3344 -1.0522
  763MOL0     H 5249   1.292   6.749   4.436  0.9084 -1.5804  2.3527
  763MOL0     H 5250   1.480   6.847   4.387  1.1119  0.9675 -1.4254
  763MOL0     H 5251   1.407   7.013   4.413 -1.2997  1.0300  3.6003
  763MOL0     H 5252   1.642   6.974   4.307  2.6168 -0.9499 -1.4076
  763MOL0     H 5253   1.889   7.182   4.203 -1.3797 -0.4195 -1.8710
  763MOL0     H 5254   1.783   7.060   4.155  0.3691 -0.4438 -0.2558
  763MOL0     H 5255   1.942   7.010   4.201 -0.0695  0.0332 -1.4691
  763MOL0     H 5256   2.268   7.017   4.215  1.1519 -1.3278  0.6780
  763MOL0     H 5257   2.513   7.049   4.194  0.2472  0.2137 -0.2412
  763MOL0     H 5258   2.713   7.399   4.395 -2.1484 -0.3243 -0.9507
  763MOL0     H 5259   2.687   7.236   4.467  0.1750  0.1950 -0.5927
  763MOL0     H 5260   2.903   7.171   4.296 -1.3167 -0.8843 -1.3892
  763MOL0     H 5261   2.892   7.350   4.276 -1.7104 -2.0696 -3.2556
  763MOL0     H 5262   2.944   7.178   4.510  2.0717  0.1996  0.0314
  763MOL0     H 5263   2.967   7.353   4.520  0.2713  0.8872 -0.4235
  763MOL0     H 5264   3.123   7.198   4.315 -3.0119  0.1434 -1.5120
  763MOL0     H 5265   3.166   7.192   4.481 -3.4568 -1.6353  0.9090
  763MOL0     H 5266   3.156   7.481   4.340 -0.1529  0.5356 -0.5571
  763MOL0     H 5267   3.214   7.438   4.506  4.2022 -0.3613 -0.7998
  763MOL0     H 5268   3.330   7.334   4.259  0.7965 -1.4951  0.4657
  763MOL0     H 5269   3.386   7.298   4.410  0.8406  0.2705 -1.8552
  763MOL0     H 5270   3.428   7.548   4.455 -0.2303 -0.8460  0.0273
  763MOL0     H 5271   3.359   7.588   4.296 -2.0785 -1.0420  0.8080
  763MOL0     H 5272   3.608   7.582   4.273  1.9841 -1.1516 -0.4477
  763MOL0     H 5273   3.542   7.422   4.216 -0.5674 -0.8642  0.9363
  763MOL0     H 5274   2.474   7.409   4.419  2.2458  1.4407 -2.4540
  763MOL0     H 5275   2.233   7.362   4.468 -0.1125 -0.4949  0.4762
  763MOL0     H 5276   1.873   7.160   4.707 -3.5643 -1.4312  2.4299
  763MOL0     H 5277   1.678   7.056   4.730  2.0532 -2.8766  0.6720
  763MOL0     H 5278   0.452   7.269   5.516  0.9194  0.5179 -0.0719
  763MOL0     H 5279   0.607   7.346   5.677 -4.7000 -1.7387 -0.9677
  763MOL0     H 5280   1.098   7.378   5.655 -0.9484  1.9050  0.1523
  763MOL0     H 5281   1.336   7.425   5.719  2.2987 -0.4153  1.6194
  763MOL0     H 5282   1.441   7.464   6.142 -0.6781 -1.2602  0.3580
  763MOL0     H 5283   1.518   7.315   6.104 -0.9584  0.2022  1.2991
  763MOL0     H 5284   1.721   7.426   6.053  0.9369  0.5767  2.9346
  763MOL0     H 5285   1.658   7.524   6.179  2.7065 -1.4616 -0.1035
  763MOL0     H 5286   1.573   7.692   6.037  0.5455  1.3290 -0.9320
  763MOL0     H 5287   1.746   7.665   6.000 -0.9556  0.7737 -0.1907
  763MOL0     H 5288   1.651   7.718   5.800 -0.3604  0.3432 -0.4100
  763MOL0     H 5289   1.519   7.612   5.802 -0.5724 -2.1900  1.7306
  763MOL0     H 5290   1.841   7.381   5.643 -0.8567  0.5975 -1.8855
  763MOL0     H 5291   1.275   7.273   6.108 -1.0355  0.3826  0.3475
  763MOL0     H 5292   1.008   7.082   6.062 -2.0367  0.9583  0.9585
  763MOL0     H 5293   1.123   7.172   6.178  0.6964  1.3022  0.1320
  763MOL0     H 5294   0.962   7.224   6.121 -0.5184 -2.7048  3.7421
  764MOL0     O 5295   7.688   3.027   3.813  0.7454  0.5701 -0.1858
  764MOL0     C 5296   7.747   2.934   3.756  1.1848  0.2401  0.9282
  764MOL0     O 5297   7.866   2.947   3.684  0.3917 -0.2473  0.9991
  764MOL0     C 5298   7.915   3.075   3.669 -0.3188 -0.1858  0.2740
  764MOL0     C 5299   8.016   3.120   3.753 -0.9166  0.3982  0.6523
  764MOL0     C 5300   8.082   3.242   3.733 -0.3609  0.6413  1.3255
  764MOL0     C 5301   8.035   3.333   3.637  0.1711 -0.7041 -0.6674
  764MOL0     O 5302   8.082   3.466   3.636 -0.3526 -0.0012 -0.6089
  764MOL0     C 5303   8.222   3.483   3.649 -0.0247 -0.2144 -0.8140
  764MOL0     C 5304   8.263   3.629   3.639 -0.1446  1.1411 -0.2396
  764MOL0     C 5305   8.303   3.675   3.504  0.9013 -0.3214  0.5295
  764MOL0     C 5306   8.371   3.817   3.509 -0.0433 -0.1730  0.4082
  764MOL0     C 5307   8.519   3.813   3.572  0.3070  0.5274  0.2699
  764MOL0     C 5308   8.572   3.952   3.620 -0.0121  0.9026  0.1227
  764MOL0     C 5309   8.717   3.975   3.630  0.6278 -0.1893  0.1373
  764MOL0     C 5310   8.804   3.954   3.500  0.4328 -0.8422  0.2124
  764MOL0     N 5311   8.878   4.079   3.464  0.0321  0.7850  0.6301
  764MOL0     C 5312   8.822   4.194   3.412  0.8956  0.9463 -0.2881
  764MOL0     C 5313   8.906   4.289   3.413 -0.4173 -0.5878 -0.0351
  764MOL0     C 5314   8.884   4.420   3.354  0.1439 -0.4916 -0.7711
  764MOL0     C 5315   9.016   4.508   3.361  0.6609  0.7912 -0.0830
  764MOL0     C 5316   9.011   4.646   3.301 -0.2099 -0.3287  0.4907
  764MOL0     C 5317   9.139   4.720   3.322 -0.1792  0.4675 -0.4053
  764MOL0     O 5318   9.245   4.643   3.265 -0.6697  0.0932  0.2003
  764MOL0     C 5319   9.352   4.704   3.211 -0.0399  0.1451 -0.8050
  764MOL0     C 5320   9.456   4.621   3.174 -0.9492  0.9679  0.6827
  764MOL0     C 5321   9.582   4.681   3.132  0.1614  0.7165 -0.0277
  764MOL0     C 5322   9.699   4.589   3.125 -0.6849  0.2225  0.6843
  764MOL0     C 5323   9.601   4.819   3.127  0.5509 -0.3588  0.3485
  764MOL0     C 5324   9.731   4.883   3.107 -0.1893  0.4895  0.3417
  764MOL0     O 5325   9.788   4.950   3.213 -0.2363 -0.2644 -0.2244
  764MOL0     C 5326   9.908   5.008   3.200  0.3226  0.6048 -0.3862
  764MOL0     C 5327  10.012   4.954   3.133 -0.4613 -0.1906  0.2169
  764MOL0     C 5328  10.141   5.016   3.139 -1.0354 -0.0877 -0.6901
  764MOL0     C 5329  10.171   5.127   3.216 -0.6656 -0.7907  0.4659
  764MOL0     O 5330  10.300   5.182   3.205  0.5052 -0.1371 -0.0088
  764MOL0     C 5331  10.310   5.326   3.203  0.7049 -0.1969 -0.7976
  764MOL0     C 5332  10.354   5.381   3.350  0.3259 -0.7541  0.8571
  764MOL0     C 5333  10.503   5.410   3.355 -0.1063 -0.0066  1.1582
  764MOL0     C 5334  10.527   5.503   3.475  0.1287 -1.1369 -0.4526
  764MOL0     C 5335  10.669   5.574   3.477 -0.4024  0.0829  0.3051
  764MOL0     C 5336  10.698   5.666   3.353 -0.1871 -0.3470  0.6934
  764MOL0     C 5337  10.585   5.757   3.314 -0.0318  0.4031 -0.3983
  764MOL0     C 5338  10.616   5.883   3.233 -0.2492  1.4394  0.7707
  764MOL0    Cl 5339  10.716   5.833   3.093  0.0242 -0.2887 -0.5076
  764MOL0     C 5340  10.059   5.187   3.279  0.7639  0.0696  0.9411
  764MOL0     C 5341   9.928   5.116   3.286  0.3672 -0.0020  0.3874
  764MOL0     O 5342   9.782   4.861   2.991  0.0168 -0.8943 -0.2299
  764MOL0     C 5343   9.492   4.895   3.159 -0.0048  0.7154 -0.7758
  764MOL0     C 5344   9.377   4.844   3.213  0.8440  0.3894 -0.6891
  764MOL0     N 5345   9.032   4.234   3.447  0.1975  0.4186 -0.7765
  764MOL0     N 5346   9.014   4.105   3.476  0.0187 -0.8344 -0.1479
  764MOL0     C 5347   7.936   3.289   3.555  0.2378 -0.0611  0.1902
  764MOL0     C 5348   7.877   3.156   3.560  0.4400 -0.3000 -0.4089
  764MOL0     C 5349   7.687   2.801   3.760 -0.3989  0.4559  0.3511
  764MOL0     C 5350   7.756   2.701   3.691 -1.2055  0.0478  0.9643
  764MOL0     C 5351   7.727   2.565   3.707 -0.5513  0.5193 -0.5945
  764MOL0     C 5352   7.634   2.526   3.802 -0.8423 -0.1766 -0.3060
  764MOL0     O 5353   7.618   2.385   3.815 -0.1159 -0.9923  0.2877
  764MOL0     C 5354   7.510   2.341   3.901  0.0052 -0.3100  0.2667
  764MOL0     C 5355   7.520   2.186   3.922  0.2228 -1.4552 -0.2549
  764MOL0     C 5356   7.653   2.147   3.986  1.0121 -0.4600  0.0399
  764MOL0     C 5357   7.646   2.000   4.021  0.5873  0.6215 -0.6555
  764MOL0     C 5358   7.765   1.967   4.102 -0.4143 -0.0065  0.1403
  764MOL0     C 5359   7.867   1.956   4.168  0.6021  0.3235 -0.8735
  764MOL0     C 5360   7.561   2.625   3.862  0.1973  0.4916  0.7248
  764MOL0     C 5361   7.580   2.757   3.837  0.8458  0.2008  0.0209
  764MOL0     C 5362   7.478   2.855   3.889 -0.2953 -0.2723 -0.4598
  764MOL0     H 5363   8.053   3.059   3.834 -4.6743  0.2437  2.4509
  764MOL0     H 5364   8.160   3.267   3.804  1.6399  0.5400 -0.7526
  764MOL0     H 5365   8.281   3.414   3.588 -1.6830 -5.1397  2.5618
  764MOL0     H 5366   8.247   3.456   3.752 -0.1244  1.3006 -0.3727
  764MOL0     H 5367   8.184   3.691   3.681 -2.4265 -1.9163  0.3602
  764MOL0     H 5368   8.340   3.655   3.712 -0.1935  1.7980 -0.4151
  764MOL0     H 5369   8.366   3.600   3.457 -1.2015 -1.5060 -0.5759
  764MOL0     H 5370   8.213   3.683   3.441  1.7567  2.2460 -0.5202
  764MOL0     H 5371   8.374   3.853   3.406 -1.1680 -1.9103 -0.2753
  764MOL0     H 5372   8.307   3.879   3.573 -0.6685  2.1076 -2.2109
  764MOL0     H 5373   8.585   3.785   3.488  0.6305  1.8474  0.0523
  764MOL0     H 5374   8.520   3.745   3.657  0.0331  2.9097  2.2877
  764MOL0     H 5375   8.529   4.026   3.551 -0.9144 -0.9571 -1.4272
  764MOL0     H 5376   8.539   3.982   3.720  0.0906  1.8541 -0.1196
  764MOL0     H 5377   8.745   3.900   3.704 -3.0615 -2.4819 -0.5243
  764MOL0     H 5378   8.740   4.077   3.663 -2.6964  1.0580 -0.9627
  764MOL0     H 5379   8.862   3.863   3.513 -0.0860 -0.9028  2.4249
  764MOL0     H 5380   8.736   3.942   3.415  1.6086 -0.3385 -0.8367
  764MOL0     H 5381   8.719   4.213   3.383 -0.2202 -2.0759  1.2392
  764MOL0     H 5382   8.804   4.466   3.411  0.1964 -1.8278  0.4394
  764MOL0     H 5383   8.850   4.398   3.252  1.0542 -2.9035 -0.6266
  764MOL0     H 5384   9.038   4.528   3.466  1.3160 -2.2252  0.4377
  764MOL0     H 5385   9.104   4.452   3.328  2.2160  2.0283  1.7599
  764MOL0     H 5386   8.994   4.641   3.193  3.1957 -1.8368 -0.0808
  764MOL0     H 5387   8.940   4.720   3.340  0.9180  2.3814 -2.1905
  764MOL0     H 5388   9.122   4.824   3.291  1.1078  1.2433  1.3462
  764MOL0     H 5389   9.155   4.739   3.428  1.2861  1.5630 -0.7937
  764MOL0     H 5390   9.436   4.514   3.175  0.8128  0.4773 -2.6619
  764MOL0     H 5391   9.769   4.618   3.047 -0.9451  1.4182  0.8843
  764MOL0     H 5392   9.678   4.482   3.110  1.6177 -0.2163  0.1682
  764MOL0     H 5393   9.742   4.596   3.225 -0.2644 -1.1991  0.6359
  764MOL0     H 5394  10.005   4.866   3.069  3.1782  0.0556 -0.7723
  764MOL0     H 5395  10.222   4.961   3.091 -0.3399  1.3217 -1.1700
  764MOL0     H 5396  10.381   5.355   3.125 -0.2720  1.8970 -0.9920
  764MOL0     H 5397  10.212   5.361   3.169 -0.5733 -0.4719  2.2841
  764MOL0     H 5398  10.298   5.472   3.373  2.9950  1.5511 -1.0443
  764MOL0     H 5399  10.333   5.295   3.414 -2.1702  0.5709  1.9541
  764MOL0     H 5400  10.530   5.456   3.260 -3.6109  1.4243  0.7185
  764MOL0     H 5401  10.558   5.316   3.370 -0.3675 -0.6364 -1.4723
  764MOL0     H 5402  10.519   5.453   3.572  0.3807  0.5910  0.5177
  764MOL0     H 5403  10.451   5.581   3.475  3.2151  2.1775 -1.9273
  764MOL0     H 5404  10.677   5.635   3.568 -2.3376 -0.3586  0.8318
  764MOL0     H 5405  10.750   5.501   3.477  1.7407  2.2841 -1.2799
  764MOL0     H 5406  10.719   5.605   3.264  1.0814 -0.4124  1.0189
  764MOL0     H 5407  10.787   5.728   3.366 -0.8463  0.9138 -0.5187
  764MOL0     H 5408  10.534   5.789   3.406 -4.1364 -2.4240 -1.4438
  764MOL0     H 5409  10.517   5.700   3.250  0.3822  0.4548 -0.8878
  764MOL0     H 5410  10.677   5.955   3.289  1.8380  0.7327 -0.4831
  764MOL0     H 5411  10.521   5.927   3.202 -2.0618 -2.7073 -0.1591
  764MOL0     H 5412  10.068   5.278   3.337  0.3502  0.3282  0.6056
  764MOL0     H 5413   9.848   5.165   3.340  0.5005 -0.1707  0.7400
  764MOL0     H 5414   9.502   5.003   3.148  3.3253  0.7392  1.2842
  764MOL0     H 5415   9.306   4.911   3.259  0.0097 -2.4893  2.7014
  764MOL0     H 5416   7.897   3.358   3.480  0.5890  1.2170  1.1377
  764MOL0     H 5417   7.797   3.116   3.497  0.6500 -0.8259 -0.3472
  764MOL0     H 5418   7.848   2.722   3.635 -2.3555  2.0963 -0.3004
  764MOL0     H 5419   7.783   2.488   3.655 -1.3738  0.4254 -1.3617
  764MOL0     H 5420   7.528   2.386   4.000 -0.7365  1.6248 -0.4333
  764MOL0     H 5421   7.417   2.380   3.859 -0.2478  0.1634  1.2217
  764MOL0     H 5422   7.517   2.136   3.825 -0.4174 -1.5847 -0.1696
  764MOL0     H 5423   7.438   2.156   3.988 -1.0595  2.5102  0.2088
  764MOL0     H 5424   7.733   2.155   3.912  1.8893 -1.0429  0.8956
  764MOL0     H 5425   7.673   2.211   4.073  2.3939 -2.3339  1.1684
  764MOL0     H 5426   7.632   1.932   3.937  0.2587  1.1390 -1.0260
  764MOL0     H 5427   7.562   1.985   4.089 -0.1022  0.0680 -1.6108
  764MOL0     H 5428   7.963   1.931   4.210 -1.9605 -2.3803  4.2309
  764MOL0     H 5429   7.471   2.601   3.918  0.3750  0.4269  0.9808
  764MOL0     H 5430   7.385   2.814   3.929  0.7743 -2.1157  0.2709
  764MOL0     H 5431   7.521   2.919   3.966  1.6985  0.2999 -1.9599
  764MOL0     H 5432   7.443   2.923   3.811 -2.0687  0.1886  0.6931
  765MOL0     O 5433   0.986   3.845   0.256 -0.4598 -0.2967 -0.4452
  765MOL0     C 5434   0.937   3.940   0.310  0.3788 -0.4820 -0.8249
  765MOL0     O 5435   1.010   4.047   0.366 -0.1833  0.3367  0.3957
  765MOL0     C 5436   1.148   4.042   0.395  0.6604 -0.0482  0.1074
  765MOL0     C 5437   1.197   4.167   0.431  0.1953  0.2633  0.2245
  765MOL0     C 5438   1.328   4.170   0.478 -0.5215 -0.2917 -0.2961
  765MOL0     C 5439   1.413   4.059   0.471  0.1859 -1.1177  0.4560
  765MOL0     O 5440   1.536   4.075   0.523  0.5952  0.2133 -0.6084
  765MOL0     C 5441   1.654   4.002   0.485  1.0666 -0.4182  0.1027
  765MOL0     C 5442   1.750   4.099   0.421  0.6182  0.0857 -0.6344
  765MOL0     C 5443   1.787   4.202   0.524 -0.3095  0.0297 -0.0870
  765MOL0     C 5444   1.903   4.285   0.467  0.9454  0.0527  0.6613
  765MOL0     C 5445   1.948   4.395   0.570  0.3450  0.4603 -0.4836
  765MOL0     C 5446   2.059   4.481   0.500 -0.5609 -0.1542  0.5651
  765MOL0     C 5447   2.193   4.419   0.465  0.5978 -0.4410 -0.8564
  765MOL0     C 5448   2.280   4.380   0.584 -0.5587 -0.7090  0.2467
  765MOL0     N 5449   2.317   4.491   0.676  0.2243 -1.1042 -0.6433
  765MOL0     C 5450   2.230   4.520   0.789 -0.3258  0.1847  0.0864
  765MOL0     C 5451   2.308   4.583   0.872  0.4334 -0.3458  0.4724
  765MOL0     C 5452   2.272   4.654   1.002  0.0737  0.3711  0.1946
  765MOL0     C 5453   2.129   4.632   1.045  1.1396 -0.0941  0.4897
  765MOL0     C 5454   2.115   4.496   1.115 -0.2074  0.4029 -0.9986
  765MOL0     C 5455   1.980   4.445   1.128  0.4817  0.4618 -0.1155
  765MOL0     O 5456   1.916   4.432   1.000  0.4955  0.0783  0.4224
  765MOL0     C 5457   1.778   4.434   0.998  0.4909  0.1391  0.1752
  765MOL0     C 5458   1.719   4.417   0.872 -0.5908  0.9045 -0.2882
  765MOL0     C 5459   1.581   4.412   0.859  0.3051 -0.4154  0.6056
  765MOL0     C 5460   1.521   4.421   0.716 -0.6163  0.0069  0.6871
  765MOL0     C 5461   1.494   4.412   0.964 -0.3939 -0.3425 -0.1045
  765MOL0     C 5462   1.347   4.405   0.964  0.2059  0.4775 -0.3317
  765MOL0     O 5463   1.292   4.421   1.087 -0.6867 -0.2596 -0.9846
  765MOL0     C 5464   1.154   4.433   1.107 -0.0706  1.1825  0.4862
  765MOL0     C 5465   1.081   4.313   1.118  0.5722 -0.7773 -0.5601
  765MOL0     C 5466   0.945   4.318   1.133  0.2458  0.2721  0.0047
  765MOL0     C 5467   0.883   4.441   1.139  0.7293  0.0535  0.2536
  765MOL0     O 5468   0.745   4.450   1.147  0.3120  0.7212 -0.0724
  765MOL0     C 5469   0.665   4.368   1.064 -0.4359 -0.3789 -0.1274
  765MOL0     C 5470   0.519   4.415   1.059  0.9370  0.0920 -0.1420
  765MOL0     C 5471   0.498   4.574   1.054 -0.0317  0.7852 -0.0453
  765MOL0     C 5472   0.350   4.626   1.082 -0.2986  0.4046  0.3016
  765MOL0     C 5473   0.283   4.582   1.218 -0.3644  0.3166  0.9448
  765MOL0     C 5474   0.367   4.605   1.345  0.3601  0.8633 -0.3117
  765MOL0     C 5475   0.278   4.556   1.459 -0.3797  0.8396 -0.7012
  765MOL0     C 5476   0.185   4.661   1.514 -0.7928  0.0101  0.3158
  765MOL0    Cl 5477   0.117   4.616   1.669 -0.4592  0.6251 -0.2533
  765MOL0     C 5478   0.953   4.561   1.130 -0.0665 -0.4341 -0.0019
  765MOL0     C 5479   1.093   4.557   1.117 -0.1544 -0.3726  0.7876
  765MOL0     O 5480   1.281   4.383   0.866 -0.1378  0.1229 -0.3397
  765MOL0     C 5481   1.558   4.421   1.097 -0.5476 -0.3778  0.2052
  765MOL0     C 5482   1.697   4.438   1.103  0.7834  1.1241 -0.3076
  765MOL0     N 5483   2.435   4.577   0.825  0.0412  0.1477 -0.0028
  765MOL0     N 5484   2.447   4.517   0.714 -0.3007 -0.1789 -0.4886
  765MOL0     C 5485   1.364   3.943   0.425  0.0588  0.1367 -0.8259
  765MOL0     C 5486   1.230   3.926   0.390 -0.1164 -0.2614  0.7017
  765MOL0     C 5487   0.786   3.951   0.319  0.1099 -0.4207 -1.4168
  765MOL0     C 5488   0.728   4.072   0.386 -0.5408 -0.3583 -0.7419
  765MOL0     C 5489   0.585   4.099   0.376  0.7486 -0.0696 -0.2705
  765MOL0     C 5490   0.490   4.009   0.327 -0.0842  0.3117  0.8973
  765MOL0     O 5491   0.362   4.051   0.347 -0.1191  0.4327  0.4844
  765MOL0     C 5492   0.267   3.964   0.287 -0.1799 -0.0598  0.0986
  765MOL0     C 5493   0.119   3.997   0.323 -0.0186 -0.2192  0.1077
  765MOL0     C 5494   0.077   4.152   0.306  0.1230  0.8688  0.2804
  765MOL0     C 5495  -0.074   4.150   0.317 -0.5390  0.3867  0.1952
  765MOL0     C 5496  -0.140   4.284   0.320  0.0293  0.8831 -1.4261
  765MOL0     C 5497  -0.189   4.393   0.320 -0.2493  0.3567 -0.1792
  765MOL0     C 5498   0.542   3.887   0.283  0.2739  0.2121 -0.1845
  765MOL0     C 5499   0.684   3.856   0.270 -0.5398 -0.0662  0.2416
  765MOL0     C 5500   0.726   3.725   0.210 -0.4195 -0.1168  0.1756
  765MOL0     H 5501   1.131   4.253   0.439  2.0130  1.7041  0.2725
  765MOL0     H 5502   1.369   4.262   0.517  1.9979 -1.4568 -0.0485
  765MOL0     H 5503   1.630   3.916   0.422 -1.3289 -1.0944  1.7886
  765MOL0     H 5504   1.699   3.972   0.580  1.0733  0.3432  0.3484
  765MOL0     H 5505   1.838   4.040   0.397 -2.0308 -4.6982  0.0749
  765MOL0     H 5506   1.710   4.149   0.332  1.4279  1.7707 -0.0995
  765MOL0     H 5507   1.704   4.269   0.547  0.3290  1.3629 -1.5471
  765MOL0     H 5508   1.825   4.157   0.617 -0.1728 -2.3904 -1.2394
  765MOL0     H 5509   1.987   4.216   0.456  1.3053  0.6382 -0.4159
  765MOL0     H 5510   1.884   4.325   0.367  0.4225  2.5574  1.7065
  765MOL0     H 5511   1.987   4.344   0.659  1.0511  1.5619 -0.1356
  765MOL0     H 5512   1.862   4.458   0.596 -1.5916 -2.2841  0.1091
  765MOL0     H 5513   2.015   4.512   0.404  0.7971 -0.3270 -0.1361
  765MOL0     H 5514   2.086   4.560   0.570  0.7033 -0.7492  0.7728
  765MOL0     H 5515   2.246   4.496   0.409  1.9935  0.8877  2.0613
  765MOL0     H 5516   2.175   4.330   0.404 -1.0897 -0.9639  0.3298
  765MOL0     H 5517   2.225   4.302   0.638 -0.0732  0.4933  2.5866
  765MOL0     H 5518   2.375   4.338   0.549 -0.8094 -0.5493 -0.6603
  765MOL0     H 5519   2.122   4.517   0.804 -0.1970  2.0396  1.7538
  765MOL0     H 5520   2.289   4.759   0.978 -2.3322  0.7313 -0.2049
  765MOL0     H 5521   2.340   4.627   1.083 -0.1635  0.3651  0.3937
  765MOL0     H 5522   2.108   4.710   1.119 -1.5087  0.0569 -0.3274
  765MOL0     H 5523   2.067   4.642   0.955  0.5415 -0.1802  0.8924
  765MOL0     H 5524   2.172   4.412   1.073  0.1935 -0.6922  1.5404
  765MOL0     H 5525   2.143   4.503   1.220 -2.1502 -2.3669 -0.1896
  765MOL0     H 5526   1.988   4.342   1.165 -0.0669 -0.2922 -1.9820
  765MOL0     H 5527   1.917   4.506   1.193  0.3602  0.3949 -0.1692
  765MOL0     H 5528   1.785   4.435   0.787 -0.4429  1.7950 -0.0010
  765MOL0     H 5529   1.448   4.502   0.708 -0.5957  0.1198  1.5173
  765MOL0     H 5530   1.472   4.329   0.683 -0.2305  0.1307 -0.2618
  765MOL0     H 5531   1.608   4.448   0.654 -0.4031 -1.0756  0.5015
  765MOL0     H 5532   1.124   4.214   1.108  0.0090 -1.1809  0.7396
  765MOL0     H 5533   0.875   4.236   1.144  0.5415 -0.0919 -0.7542
  765MOL0     H 5534   0.706   4.346   0.965 -0.2727 -0.9379  0.0596
  765MOL0     H 5535   0.657   4.269   1.109 -0.3206 -0.3679 -0.0818
  765MOL0     H 5536   0.468   4.374   0.972 -1.5318 -0.5757  1.5173
  765MOL0     H 5537   0.471   4.372   1.148  0.7121 -0.0382 -0.3266
  765MOL0     H 5538   0.525   4.613   0.956 -3.7170 -1.3344 -2.1053
  765MOL0     H 5539   0.561   4.611   1.136  1.5573 -0.7168 -0.5282
  765MOL0     H 5540   0.286   4.592   1.001 -0.0995  1.7215 -0.4344
  765MOL0     H 5541   0.356   4.735   1.084 -2.1630  0.5305  1.3307
  765MOL0     H 5542   0.191   4.640   1.227  0.8598  2.6848 -0.7029
  765MOL0     H 5543   0.259   4.476   1.205  1.3564 -0.1798  1.4348
  765MOL0     H 5544   0.400   4.708   1.365  2.3584 -0.0282  1.4390
  765MOL0     H 5545   0.452   4.536   1.348 -1.2558 -1.2161  0.4498
  765MOL0     H 5546   0.344   4.514   1.535  0.4208  1.5282 -1.0043
  765MOL0     H 5547   0.219   4.468   1.433  0.6504 -0.4553  1.1165
  765MOL0     H 5548   0.100   4.679   1.446 -0.5364  0.4270  0.1053
  765MOL0     H 5549   0.241   4.754   1.524 -0.1066 -0.5815  2.2844
  765MOL0     H 5550   0.897   4.653   1.145  1.4540  0.3359  1.4086
  765MOL0     H 5551   1.139   4.655   1.109 -1.6881  0.5386  2.2935
  765MOL0     H 5552   1.514   4.410   1.195 -0.5068  4.1477  0.9067
  765MOL0     H 5553   1.728   4.454   1.206  2.3875  2.0866 -0.8935
  765MOL0     H 5554   1.422   3.853   0.440 -0.2681  0.1006  0.3773
  765MOL0     H 5555   1.194   3.834   0.345 -0.2460  0.6095 -1.0430
  765MOL0     H 5556   0.773   4.154   0.441 -1.9159 -1.7437  2.7567
  765MOL0     H 5557   0.542   4.192   0.410 -1.6436 -0.5315 -1.8496
  765MOL0     H 5558   0.281   3.963   0.179  0.1852 -1.8956  0.1362
  765MOL0     H 5559   0.290   3.866   0.329 -1.7093 -0.1281  0.8732
  765MOL0     H 5560   0.096   3.975   0.428  1.2877  0.0986  0.4803
  765MOL0     H 5561   0.049   3.933   0.269 -0.9688  1.8044 -1.1600
  765MOL0     H 5562   0.111   4.218   0.386 -1.0195  1.4452  0.3097
  765MOL0     H 5563   0.104   4.187   0.205 -1.0865  0.3903 -0.2224
  765MOL0     H 5564  -0.097   4.093   0.407 -1.5641  0.9757  0.3141
  765MOL0     H 5565  -0.127   4.098   0.237 -2.4737  0.6135  1.2726
  765MOL0     H 5566  -0.221   4.495   0.332  2.8579  1.5223 -0.7256
  765MOL0     H 5567   0.477   3.812   0.238 -0.0321  1.2146 -1.4838
  765MOL0     H 5568   0.640   3.686   0.155 -1.0204  3.2664 -1.4760
  765MOL0     H 5569   0.807   3.741   0.138  1.1832  4.6779  2.6372
  765MOL0     H 5570   0.767   3.661   0.289  0.6459 -0.0477 -0.3032
  766MOL0     O 5571   7.937   3.458   9.405 -0.5683  0.2787  0.2084
  766MOL0     C 5572   7.900   3.401   9.510  0.3184 -0.4136 -0.2314
  766MOL0     O 5573   7.979   3.349   9.609  0.1672  0.2584 -0.2373
  766MOL0     C 5574   8.115   3.373   9.607  0.3904 -0.5957 -0.0640
  766MOL0     C 5575   8.206   3.271   9.646 -0.5572  0.0392 -0.9884
  766MOL0     C 5576   8.347   3.286   9.641  0.5514  0.0374 -0.7458
  766MOL0     C 5577   8.397   3.419   9.619  0.6519 -0.1188  1.0024
  766MOL0     O 5578   8.535   3.458   9.622  0.7239 -0.4669  0.1186
  766MOL0     C 5579   8.624   3.353   9.658  0.3543 -0.5295  0.4820
  766MOL0     C 5580   8.768   3.394   9.670  0.2462 -0.4671  0.3664
  766MOL0     C 5581   8.859   3.276   9.699 -0.5337  0.1821  0.2518
  766MOL0     C 5582   9.003   3.341   9.719  0.3102 -0.3706 -0.6312
  766MOL0     C 5583   9.105   3.239   9.767 -0.6799  0.6948  0.2499
  766MOL0     C 5584   9.247   3.264   9.731  0.3910 -0.0660 -0.6802
  766MOL0     C 5585   9.309   3.386   9.796 -0.7495 -0.0668 -0.7983
  766MOL0     C 5586   9.465   3.382   9.809  0.2803 -0.1288 -0.6397
  766MOL0     N 5587   9.531   3.509   9.781 -0.0246 -0.4706 -0.1228
  766MOL0     C 5588   9.501   3.625   9.855 -0.0717 -0.7129  0.2935
  766MOL0     C 5589   9.590   3.714   9.823 -0.2592 -0.5280  0.0930
  766MOL0     C 5590   9.610   3.849   9.900 -0.1463 -0.2951 -0.4936
  766MOL0     C 5591   9.554   3.982   9.842  0.1172  0.4646 -0.1908
  766MOL0     C 5592   9.620   4.098   9.906  0.1652 -0.0230 -0.0958
  766MOL0     C 5593   9.770   4.114   9.879 -0.6339 -0.4663  0.3991
  766MOL0     O 5594   9.828   4.211   9.963  0.4824 -0.0255 -0.0631
  766MOL0     C 5595   9.968   4.225   9.964  0.6739 -0.4300 -0.1300
  766MOL0     C 5596  10.054   4.152   9.877 -0.5079 -0.4828 -0.8012
  766MOL0     C 5597  10.190   4.170   9.876 -0.3909 -0.3343  0.4017
  766MOL0     C 5598  10.261   4.070   9.788  0.2585 -0.5186 -0.3622
  766MOL0     C 5599  10.256   4.261   9.970 -0.6335  0.4305 -0.2597
  766MOL0     C 5600  10.396   4.284   9.968 -0.4975 -0.1248  0.9535
  766MOL0     O 5601  10.467   4.256   9.851 -0.3368 -0.1157  0.1423
  766MOL0     C 5602  10.564   4.342   9.820  0.1673 -0.4730 -0.2091
  766MOL0     C 5603  10.694   4.309   9.854  0.2059  0.6727 -0.3889
  766MOL0     C 5604  10.798   4.398   9.819  0.1793  0.1768  0.8280
  766MOL0     C 5605  10.771   4.524   9.770  0.2692  0.3560  0.1747
  766MOL0     O 5606  10.860   4.622   9.739  0.2794 -0.6573 -0.3907
  766MOL0     C 5607  10.952   4.648   9.843  0.4525 -0.4698  0.2369
  766MOL0     C 5608  11.059   4.749   9.801  0.2544 -0.3237 -0.8977
  766MOL0     C 5609  11.136   4.691   9.678  0.6386  0.4308 -0.2764
  766MOL0     C 5610  11.251   4.778   9.625 -0.8540 -0.1051 -0.3378
  766MOL0     C 5611  11.361   4.822   9.722  0.0441  0.2644  0.1639
  766MOL0     C 5612  11.409   4.968   9.706  0.4603  0.9135  0.3416
  766MOL0     C 5613  11.457   4.993   9.570  0.0721 -0.3188  0.1239
  766MOL0     C 5614  11.525   5.117   9.541 -0.0595 -0.5537 -0.1093
  766MOL0    Cl 5615  11.701   5.124   9.584 -0.4063  0.6477  0.3840
  766MOL0     C 5616  10.640   4.557   9.736 -0.1578 -0.7709 -0.3723
  766MOL0     C 5617  10.539   4.466   9.762 -0.5319 -0.2628 -0.0534
  766MOL0     O 5618  10.449   4.331  10.068  0.3442  0.6209 -0.3616
  766MOL0     C 5619  10.170   4.335  10.053 -0.0766 -1.3973  0.0487
  766MOL0     C 5620  10.029   4.312  10.049  0.6424  0.7874 -0.5744
  766MOL0     N 5621   9.673   3.653   9.735 -0.4180  0.9123 -0.2952
  766MOL0     N 5622   9.642   3.535   9.709  0.0078 -0.0179  0.1165
  766MOL0     C 5623   8.309   3.523   9.595 -0.6662  0.1229  0.9864
  766MOL0     C 5624   8.172   3.496   9.583  0.4879 -0.5770 -0.1435
  766MOL0     C 5625   7.750   3.399   9.524  0.3206 -0.2474 -0.6553
  766MOL0     C 5626   7.692   3.273   9.551  0.0423 -0.0647 -0.9710
  766MOL0     C 5627   7.559   3.259   9.591 -0.4654 -0.6242  0.2867
  766MOL0     C 5628   7.472   3.376   9.591  0.0070  0.1387  0.1536
  766MOL0     O 5629   7.343   3.382   9.637 -0.1105 -0.1608 -0.4867
  766MOL0     C 5630   7.302   3.267   9.716 -0.7218 -0.2526 -0.2737
  766MOL0     C 5631   7.159   3.291   9.776  0.0446  0.3940 -0.0129
  766MOL0     C 5632   7.039   3.299   9.678 -0.4771 -0.1555  0.2062
  766MOL0     C 5633   6.911   3.300   9.768 -0.2507  0.3681  0.7158
  766MOL0     C 5634   6.883   3.435   9.821 -0.6099 -0.4962  0.4615
  766MOL0     C 5635   6.839   3.546   9.847  0.4041  0.0370 -0.2300
  766MOL0     C 5636   7.532   3.496   9.547 -0.8645 -0.0318 -1.2662
  766MOL0     C 5637   7.668   3.511   9.523  0.1885 -0.6270  0.2237
  766MOL0     C 5638   7.720   3.652   9.509  0.0102 -0.8282  0.2114
  766MOL0     H 5639   8.161   3.176   9.672 -0.9286  0.2864 -0.7296
  766MOL0     H 5640   8.409   3.198   9.658  0.7104  0.5081  1.3863
  766MOL0     H 5641   8.605   3.277   9.581  0.8172  1.4250 -1.6671
  766MOL0     H 5642   8.597   3.295   9.746  0.0852 -0.9664  0.1171
  766MOL0     H 5643   8.795   3.442   9.576 -3.1901 -0.0543 -0.5273
  766MOL0     H 5644   8.777   3.468   9.750 -2.6832 -0.1843  0.5428
  766MOL0     H 5645   8.846   3.228   9.797  1.7668  2.1817  1.6797
  766MOL0     H 5646   8.860   3.202   9.619  0.6210 -0.6002  0.9532
  766MOL0     H 5647   9.031   3.377   9.619 -2.0348 -0.3281 -1.3206
  766MOL0     H 5648   8.996   3.427   9.786  0.0683 -0.4720 -0.5268
  766MOL0     H 5649   9.087   3.138   9.729  2.9691  0.3516 -0.9917
  766MOL0     H 5650   9.093   3.234   9.875  0.4620  1.6560  0.4424
  766MOL0     H 5651   9.301   3.172   9.754 -0.0618  0.1808  1.5651
  766MOL0     H 5652   9.247   3.294   9.625  2.8667  3.0541  0.0303
  766MOL0     H 5653   9.271   3.399   9.898 -0.7807 -0.4051 -0.7674
  766MOL0     H 5654   9.276   3.475   9.742 -3.0639  0.3859  1.2009
  766MOL0     H 5655   9.478   3.363   9.916 -0.7494 -1.0086 -0.6572
  766MOL0     H 5656   9.506   3.303   9.745  0.2414  0.1099 -0.9640
  766MOL0     H 5657   9.431   3.631   9.938  0.3377  1.1959  0.5576
  766MOL0     H 5658   9.719   3.845   9.909  0.0940 -0.5583 -2.8570
  766MOL0     H 5659   9.577   3.843  10.004  2.3237 -1.1719  0.3187
  766MOL0     H 5660   9.583   3.980   9.737  0.8857 -3.0411 -0.0376
  766MOL0     H 5661   9.446   3.971   9.857  0.4724 -1.8977  1.1836
  766MOL0     H 5662   9.559   4.177   9.861 -1.9458 -1.3164  0.3333
  766MOL0     H 5663   9.599   4.102  10.013 -1.0376  1.4164 -0.3482
  766MOL0     H 5664   9.832   4.026   9.900  2.2297  1.0178 -1.1968
  766MOL0     H 5665   9.779   4.136   9.772 -0.3860 -0.1297  0.4864
  766MOL0     H 5666  10.012   4.080   9.807 -1.3887 -0.1179 -0.6665
  766MOL0     H 5667  10.194   3.988   9.760 -1.2421  0.2731  0.7521
  766MOL0     H 5668  10.344   4.023   9.842  0.3652 -1.0899 -1.0067
  766MOL0     H 5669  10.309   4.122   9.705 -0.8079  1.3336  0.1289
  766MOL0     H 5670  10.715   4.217   9.909 -0.6825  0.0104 -1.1295
  766MOL0     H 5671  10.900   4.363   9.832 -0.8855 -3.9815 -0.3046
  766MOL0     H 5672  10.904   4.686   9.933  0.5249  0.2127 -0.0056
  766MOL0     H 5673  11.003   4.554   9.863 -0.2509 -0.9392 -0.1242
  766MOL0     H 5674  11.006   4.836   9.761  0.3926 -1.3201 -3.4594
  766MOL0     H 5675  11.130   4.762   9.883 -0.2372  1.0551 -0.6693
  766MOL0     H 5676  11.063   4.688   9.596  1.1969  3.4769 -1.0019
  766MOL0     H 5677  11.166   4.590   9.706 -1.7121  0.1091  1.3374
  766MOL0     H 5678  11.207   4.870   9.583 -0.8245  1.2214  2.3177
  766MOL0     H 5679  11.290   4.732   9.534 -1.6552 -1.1478 -0.1755
  766MOL0     H 5680  11.323   4.813   9.824  0.5045 -0.7923  0.2521
  766MOL0     H 5681  11.448   4.755   9.720  1.1149  1.5745  1.1056
  766MOL0     H 5682  11.484   4.987   9.783  2.2784 -0.3890 -1.0446
  766MOL0     H 5683  11.325   5.034   9.731 -1.7704 -0.1411 -3.5617
  766MOL0     H 5684  11.359   4.998   9.521  0.6673 -0.9014 -1.1640
  766MOL0     H 5685  11.517   4.913   9.525 -1.1513  1.0738 -4.5406
  766MOL0     H 5686  11.475   5.205   9.583 -0.4899 -0.8668  0.0457
  766MOL0     H 5687  11.515   5.135   9.434 -0.9827  3.0379  0.4375
  766MOL0     H 5688  10.607   4.652   9.695 -1.4429  0.1668  2.5445
  766MOL0     H 5689  10.437   4.490   9.735 -0.2939  0.5500 -0.2456
  766MOL0     H 5690  10.210   4.411  10.118 -0.6647  0.2790 -1.4758
  766MOL0     H 5691   9.967   4.376  10.110  4.4425  2.9822  1.2944
  766MOL0     H 5692   8.352   3.622   9.583  0.9694 -0.5037  1.3101
  766MOL0     H 5693   8.103   3.579   9.566 -1.8077 -1.6234  3.1347
  766MOL0     H 5694   7.745   3.179   9.543  0.9062 -0.0910  2.9566
  766MOL0     H 5695   7.518   3.161   9.609  1.5670 -1.1549  2.4648
  766MOL0     H 5696   7.298   3.171   9.664 -1.2648 -2.6709  3.8698
  766MOL0     H 5697   7.374   3.256   9.797 -0.6177 -0.3482 -0.3790
  766MOL0     H 5698   7.172   3.385   9.830  1.4563 -1.3919  3.0033
  766MOL0     H 5699   7.141   3.220   9.857  0.0952 -0.0974 -0.4222
  766MOL0     H 5700   7.048   3.389   9.617 -0.6631 -0.0525  0.3300
  766MOL0     H 5701   7.047   3.214   9.610 -2.4472  0.8344 -1.3552
  766MOL0     H 5702   6.929   3.222   9.843 -1.8494 -0.2628  0.4722
  766MOL0     H 5703   6.824   3.270   9.710 -1.2118  1.0298  1.7664
  766MOL0     H 5704   6.802   3.642   9.878  1.4172  0.9431 -1.7206
  766MOL0     H 5705   7.461   3.578   9.542 -1.9462 -0.5831  2.1096
  766MOL0     H 5706   7.661   3.713   9.438 -1.7509 -0.1548  2.1354
  766MOL0     H 5707   7.705   3.710   9.600  0.6166 -1.7992  0.9391
  766MOL0     H 5708   7.822   3.657   9.470 -0.0607 -1.5141 -0.0816
  767MOL0     O 5709   3.213   1.347   9.177  0.1003 -0.0746  0.2444
  767MOL0     C 5710   3.254   1.414   9.273  0.0566 -0.0553 -0.4834
  767MOL0     O 5711   3.382   1.467   9.280  0.3099 -0.3540 -1.3696
  767MOL0     C 5712   3.473   1.401   9.215 -0.0523 -1.4717 -0.2956
  767MOL0     C 5713   3.539   1.466   9.108  0.8831 -0.0100 -0.4873
  767MOL0     C 5714   3.640   1.392   9.050 -0.5159 -0.4232  0.3439
  767MOL0     C 5715   3.669   1.263   9.075  0.4321  0.4405 -1.1910
  767MOL0     O 5716   3.754   1.200   8.999 -0.0197 -0.5600  0.5826
  767MOL0     C 5717   3.894   1.219   9.034  0.7179 -0.0487 -1.0698
  767MOL0     C 5718   3.976   1.114   8.971 -0.1391 -0.0259  0.7131
  767MOL0     C 5719   4.120   1.127   9.019 -0.0178  0.0294 -0.4036
  767MOL0     C 5720   4.204   1.019   8.939 -0.5098  1.3629  0.8674
  767MOL0     C 5721   4.358   1.037   8.973 -0.6378  0.5386  0.6458
  767MOL0     C 5722   4.394   0.969   9.111  0.2703 -0.5192  0.2678
  767MOL0     C 5723   4.545   0.956   9.137 -0.7135 -0.9625 -0.5198
  767MOL0     C 5724   4.628   0.865   9.038  0.4264  0.0354  0.0788
  767MOL0     N 5725   4.758   0.822   9.086  0.0658 -0.4051 -0.1590
  767MOL0     C 5726   4.849   0.906   9.137 -0.3023 -0.1291  0.0362
  767MOL0     C 5727   4.955   0.838   9.180  0.4720 -0.0313  0.7063
  767MOL0     C 5728   5.065   0.905   9.253 -0.5786  0.3886  0.0676
  767MOL0     C 5729   5.052   0.915   9.410  0.5251  0.0078  0.2463
  767MOL0     C 5730   5.189   0.923   9.473 -0.5726  0.8197 -0.5769
  767MOL0     C 5731   5.201   0.899   9.625 -0.9926 -0.5769  0.2354
  767MOL0     O 5732   5.340   0.913   9.674  0.7243  0.0452  0.0369
  767MOL0     C 5733   5.442   0.833   9.617 -0.2203 -0.1623 -0.0008
  767MOL0     C 5734   5.576   0.885   9.612  0.3975 -0.0314 -0.0382
  767MOL0     C 5735   5.686   0.801   9.582 -0.1006 -0.2001 -0.3910
  767MOL0     C 5736   5.831   0.853   9.598 -0.0328 -0.4671  0.7615
  767MOL0     C 5737   5.654   0.669   9.552 -0.5024  0.1916  0.7758
  767MOL0     C 5738   5.763   0.571   9.506 -0.4067 -0.4178 -0.0801
  767MOL0     O 5739   5.849   0.607   9.412  0.7961 -0.5373  0.2047
  767MOL0     C 5740   5.963   0.527   9.392  0.6882 -0.5603  0.5132
  767MOL0     C 5741   5.962   0.415   9.315 -0.4807  0.8530 -0.7733
  767MOL0     C 5742   6.077   0.336   9.301  0.0864 -0.2346  0.3691
  767MOL0     C 5743   6.191   0.369   9.368 -0.7162  0.4010  0.0233
  767MOL0     O 5744   6.310   0.296   9.346  0.3676 -0.8181  0.4058
  767MOL0     C 5745   6.437   0.351   9.386 -0.1283 -0.5013 -0.6243
  767MOL0     C 5746   6.550   0.257   9.338  0.0120 -0.5688 -0.8897
  767MOL0     C 5747   6.690   0.301   9.379 -0.1753  0.2202 -0.1477
  767MOL0     C 5748   6.756   0.401   9.294  0.0485  0.2802  0.2668
  767MOL0     C 5749   6.897   0.414   9.345 -0.0874 -0.0470  0.0989
  767MOL0     C 5750   7.006   0.473   9.250 -0.3341  1.3731  0.7023
  767MOL0     C 5751   7.040   0.391   9.117 -0.1614 -0.7438 -0.4374
  767MOL0     C 5752   7.122   0.469   9.018 -0.2100  0.2210  0.1555
  767MOL0    Cl 5753   7.289   0.483   9.068  0.1172  0.3805 -0.2110
  767MOL0     C 5754   6.190   0.487   9.444 -0.4463  0.5531  0.6473
  767MOL0     C 5755   6.080   0.569   9.459 -0.2921  0.0353  0.4711
  767MOL0     O 5756   5.760   0.449   9.549 -0.0295 -1.6402 -1.1668
  767MOL0     C 5757   5.528   0.619   9.563  0.9346  0.0351  0.0700
  767MOL0     C 5758   5.413   0.699   9.594  0.2971  1.0645 -0.0282
  767MOL0     N 5759   4.933   0.705   9.147  0.1340  0.0587 -0.4770
  767MOL0     N 5760   4.809   0.690   9.094  0.4390 -1.2355  0.4453
  767MOL0     C 5761   3.596   1.202   9.175  0.1328 -0.4703  0.5132
  767MOL0     C 5762   3.505   1.271   9.253 -0.0984  0.4275 -0.0371
  767MOL0     C 5763   3.161   1.442   9.390 -0.3940 -0.7616  0.7270
  767MOL0     C 5764   3.194   1.560   9.460  0.6849  0.6401 -0.1176
  767MOL0     C 5765   3.139   1.584   9.589  0.1771 -0.2820 -0.1857
  767MOL0     C 5766   3.038   1.501   9.635 -0.0963  0.3386  0.5416
  767MOL0     O 5767   2.974   1.532   9.750 -0.5720 -0.3557  0.2830
  767MOL0     C 5768   2.986   1.426   9.847  0.7096  0.3036 -0.4013
  767MOL0     C 5769   2.952   1.483   9.988 -0.5736 -0.4959 -0.1027
  767MOL0     C 5770   2.802   1.541   9.979  0.6945 -0.2454  0.1879
  767MOL0     C 5771   2.764   1.607  10.108 -0.4344 -0.0022  0.5889
  767MOL0     C 5772   2.647   1.691  10.095  0.4607  0.6783 -0.0107
  767MOL0     C 5773   2.542   1.749  10.080 -0.1127 -0.5396 -0.2348
  767MOL0     C 5774   2.994   1.396   9.556  0.0622  0.2218 -0.5105
  767MOL0     C 5775   3.054   1.362   9.433  0.0683  0.4334  0.0863
  767MOL0     C 5776   3.019   1.236   9.366  0.0783 -0.1360  0.2171
  767MOL0     H 5777   3.533   1.567   9.069  1.6582 -1.4008 -4.6750
  767MOL0     H 5778   3.706   1.430   8.972 -1.8136  1.2993  0.0182
  767MOL0     H 5779   3.906   1.218   9.143 -1.0120  0.7849 -0.8357
  767MOL0     H 5780   3.930   1.314   8.993  3.0441 -1.2654 -2.0517
  767MOL0     H 5781   3.932   1.018   8.999 -1.1503  0.1352 -0.2516
  767MOL0     H 5782   3.966   1.108   8.863  1.6775 -0.6994  0.5518
  767MOL0     H 5783   4.164   1.223   8.991  1.5042  0.4190  2.9338
  767MOL0     H 5784   4.132   1.105   9.125  2.5534 -0.6508 -0.7611
  767MOL0     H 5785   4.169   0.917   8.956 -0.8347  0.9847 -1.7312
  767MOL0     H 5786   4.189   1.029   8.831  0.7505  0.2963  0.5704
  767MOL0     H 5787   4.390   1.141   8.962 -0.9408  0.4492 -1.4567
  767MOL0     H 5788   4.418   1.002   8.889  1.7298 -0.6750  2.7320
  767MOL0     H 5789   4.342   1.027   9.187  0.9794  1.0570 -0.4090
  767MOL0     H 5790   4.351   0.868   9.106  2.1234 -1.3110 -1.9828
  767MOL0     H 5791   4.548   0.904   9.233 -1.4468 -0.2517 -0.1024
  767MOL0     H 5792   4.606   1.047   9.143 -0.9157 -0.8825  0.4715
  767MOL0     H 5793   4.576   0.771   9.013  1.4928 -1.0276  1.6749
  767MOL0     H 5794   4.646   0.927   8.950  2.1997  0.0498  0.4210
  767MOL0     H 5795   4.827   1.010   9.157 -1.0302 -0.3698  0.5395
  767MOL0     H 5796   5.092   1.000   9.206  1.3255 -1.2197 -2.4353
  767MOL0     H 5797   5.152   0.843   9.229 -2.4653 -1.6381 -2.0629
  767MOL0     H 5798   4.991   1.002   9.436  1.4214  0.2379  1.7149
  767MOL0     H 5799   5.001   0.828   9.451  2.8237 -1.1659  0.8090
  767MOL0     H 5800   5.245   0.844   9.423 -1.3542  0.9066 -1.6272
  767MOL0     H 5801   5.239   1.018   9.447 -0.3987  1.5843  2.2516
  767MOL0     H 5802   5.141   0.977   9.673 -0.0524 -1.4299  3.0055
  767MOL0     H 5803   5.167   0.802   9.661 -1.8763 -0.6297 -0.6965
  767MOL0     H 5804   5.587   0.991   9.633 -0.1793 -0.0065  0.1405
  767MOL0     H 5805   5.868   0.819   9.695  0.7057 -0.3775  0.5209
  767MOL0     H 5806   5.834   0.962   9.606  1.6695 -0.1390 -2.6745
  767MOL0     H 5807   5.909   0.827   9.526  0.3017 -0.2619  1.0455
  767MOL0     H 5808   5.865   0.390   9.273  0.9466 -1.2068 -3.1698
  767MOL0     H 5809   6.060   0.245   9.244 -0.7254  1.2880 -1.9975
  767MOL0     H 5810   6.460   0.450   9.347 -2.5226  0.4398  0.2105
  767MOL0     H 5811   6.448   0.355   9.495 -1.6909  1.2064 -0.4925
  767MOL0     H 5812   6.531   0.160   9.384  0.3707 -1.6437 -2.8689
  767MOL0     H 5813   6.534   0.241   9.231 -0.7317  1.0099 -1.0435
  767MOL0     H 5814   6.752   0.211   9.386 -1.5059 -0.8236 -1.0884
  767MOL0     H 5815   6.683   0.345   9.479  0.6371  0.3474 -0.1439
  767MOL0     H 5816   6.701   0.495   9.284 -0.4545  0.0664  0.9879
  767MOL0     H 5817   6.759   0.362   9.191  1.0676 -0.6855  0.6370
  767MOL0     H 5818   6.895   0.463   9.443 -0.2838 -2.2278  1.2562
  767MOL0     H 5819   6.926   0.311   9.366 -1.7225 -0.6263 -0.3098
  767MOL0     H 5820   7.097   0.480   9.311 -0.3575 -0.3803  0.9748
  767MOL0     H 5821   6.971   0.572   9.220  0.0599  2.6472  4.0108
  767MOL0     H 5822   6.951   0.361   9.061  0.4514 -3.1782 -0.2388
  767MOL0     H 5823   7.091   0.298   9.145  1.3028  0.6309  1.7409
  767MOL0     H 5824   7.075   0.565   8.996 -1.6110 -0.7079 -1.0153
  767MOL0     H 5825   7.121   0.417   8.922  0.6824  1.8313 -0.7543
  767MOL0     H 5826   6.274   0.529   9.498 -0.2900  0.4630  0.4738
  767MOL0     H 5827   6.078   0.659   9.521  0.2430 -0.7107  1.5996
  767MOL0     H 5828   5.514   0.513   9.548  0.0068  0.2711 -0.8305
  767MOL0     H 5829   5.313   0.655   9.593 -0.3370  2.2882  2.2605
  767MOL0     H 5830   3.634   1.102   9.194  0.7062 -0.5183 -0.7673
  767MOL0     H 5831   3.459   1.231   9.343  0.1590  2.1743  0.9086
  767MOL0     H 5832   3.274   1.628   9.431 -1.3079  2.6759 -1.1586
  767MOL0     H 5833   3.168   1.675   9.640 -0.4721 -0.9770  1.4749
  767MOL0     H 5834   2.908   1.351   9.828 -0.7134  2.1317 -2.2941
  767MOL0     H 5835   3.089   1.389   9.845  0.7741  0.3276  1.1305
  767MOL0     H 5836   3.023   1.560  10.020 -3.6610  2.5980 -0.0285
  767MOL0     H 5837   2.957   1.394  10.051  1.8609  0.3077  0.9679
  767MOL0     H 5838   2.793   1.616   9.899 -1.1920  0.1699  0.7350
  767MOL0     H 5839   2.732   1.458   9.968 -1.0894  1.3632 -1.4102
  767MOL0     H 5840   2.848   1.667  10.144 -0.6107 -0.8139  2.4982
  767MOL0     H 5841   2.748   1.528  10.182  0.6589 -0.4984  0.3190
  767MOL0     H 5842   2.445   1.795  10.076  0.4719  0.6349 -2.0289
  767MOL0     H 5843   2.905   1.345   9.592 -1.8514  3.4863 -0.0854
  767MOL0     H 5844   2.924   1.195   9.402 -0.4133 -0.7718 -1.7065
  767MOL0     H 5845   2.990   1.252   9.262 -0.5090  0.6888  0.4900
  767MOL0     H 5846   3.101   1.164   9.370  0.0664 -0.1017  1.6423
  768MOL0     O 5847   9.612   1.526  10.418 -0.3361 -0.4312  0.4294
  768MOL0     C 5848   9.614   1.637  10.469 -0.5028  0.1903 -0.1637
  768MOL0     O 5849   9.509   1.693  10.541 -0.2456  0.1571 -0.8408
  768MOL0     C 5850   9.386   1.643  10.514 -0.1164 -0.6431  0.4303
  768MOL0     C 5851   9.334   1.620  10.382 -0.5040 -0.2992 -1.3709
  768MOL0     C 5852   9.200   1.578  10.364  1.1944 -0.8392 -1.2038
  768MOL0     C 5853   9.116   1.560  10.475  0.1952  0.1950  0.7534
  768MOL0     O 5854   8.976   1.539  10.458 -0.3020  0.2502 -0.5961
  768MOL0     C 5855   8.889   1.629  10.531 -0.0899 -1.0970 -0.0959
  768MOL0     C 5856   8.755   1.617  10.452 -0.3626 -0.3339  0.0167
  768MOL0     C 5857   8.641   1.702  10.523  0.1871 -0.4089  0.3539
  768MOL0     C 5858   8.511   1.698  10.439  0.5666  0.5912  0.8087
  768MOL0     C 5859   8.399   1.761  10.512  0.6603 -0.0622  0.0929
  768MOL0     C 5860   8.265   1.752  10.439  1.0629  0.1328  0.6746
  768MOL0     C 5861   8.233   1.608  10.405  0.1752 -0.7781 -0.0812
  768MOL0     C 5862   8.095   1.596  10.355  0.3457  1.0067  0.1233
  768MOL0     N 5863   8.056   1.696  10.256  1.2667  1.0186 -0.1401
  768MOL0     C 5864   7.990   1.806  10.283  0.8401  0.5463 -0.2159
  768MOL0     C 5865   7.965   1.858  10.156 -0.0943  0.0829  0.1483
  768MOL0     C 5866   7.896   1.991  10.134 -0.1406  0.9621  0.1544
  768MOL0     C 5867   7.772   1.973  10.054  0.2602 -0.1751  0.4115
  768MOL0     C 5868   7.801   1.945   9.911  1.1087 -0.0509  0.3673
  768MOL0     C 5869   7.669   1.931   9.823  0.0821 -0.9155  0.2412
  768MOL0     O 5870   7.596   2.056   9.815  0.1447 -0.3803 -0.3721
  768MOL0     C 5871   7.459   2.053   9.812 -1.0388  1.2646 -0.3846
  768MOL0     C 5872   7.376   1.940   9.835 -0.6107 -0.2021 -0.3486
  768MOL0     C 5873   7.235   1.953   9.854  0.0284  0.0119  0.4609
  768MOL0     C 5874   7.155   1.829   9.881 -0.3234  0.3411 -0.5308
  768MOL0     C 5875   7.173   2.083   9.846 -0.8951  0.1822 -0.1558
  768MOL0     C 5876   7.032   2.114   9.859 -0.0938  0.5611  0.5550
  768MOL0     O 5877   6.986   2.224   9.784  0.1204 -0.3080  0.4977
  768MOL0     C 5878   6.852   2.262   9.792  0.2218 -0.4992  0.6381
  768MOL0     C 5879   6.745   2.171   9.771  0.2589 -0.4626 -0.0323
  768MOL0     C 5880   6.615   2.220   9.762 -0.0065 -0.7282 -0.7731
  768MOL0     C 5881   6.587   2.357   9.771 -0.0643 -0.4450 -0.1316
  768MOL0     O 5882   6.465   2.413   9.773  0.2377  0.1762 -0.9224
  768MOL0     C 5883   6.355   2.319   9.745  0.5604 -0.8126  0.0439
  768MOL0     C 5884   6.350   2.271   9.608  0.6596  1.3585  0.1915
  768MOL0     C 5885   6.225   2.191   9.576  0.1915  0.6658 -0.4590
  768MOL0     C 5886   6.105   2.282   9.563 -0.4761  0.2846 -0.7033
  768MOL0     C 5887   5.974   2.219   9.517 -0.2616 -0.9037 -0.1392
  768MOL0     C 5888   5.915   2.145   9.633  0.2717  0.1730  0.2732
  768MOL0     C 5889   5.784   2.087   9.584 -0.9499 -0.0384 -0.0949
  768MOL0     C 5890   5.685   2.047   9.692  0.7465  1.1293 -0.2710
  768MOL0    Cl 5891   5.748   1.905   9.784 -0.0243  0.3181  0.0245
  768MOL0     C 5892   6.692   2.448   9.783 -0.5729 -0.2686 -0.0910
  768MOL0     C 5893   6.821   2.396   9.785 -0.0938  0.1063  0.3981
  768MOL0     O 5894   6.962   2.052   9.937  0.6186  0.5373 -0.3646
  768MOL0     C 5895   7.256   2.192   9.809  0.1958 -0.5196 -0.2356
  768MOL0     C 5896   7.395   2.175   9.792 -0.5203  1.0955  0.1214
  768MOL0     N 5897   8.015   1.778  10.060 -0.3698  0.6013  0.2020
  768MOL0     N 5898   8.061   1.668  10.125  0.4523  0.1223 -0.5774
  768MOL0     C 5899   9.163   1.591  10.601  0.2518  0.1265  0.6325
  768MOL0     C 5900   9.298   1.620  10.623 -0.8725  0.6482  0.2429
  768MOL0     C 5901   9.737   1.706  10.446 -1.1452 -0.0779 -0.2813
  768MOL0     C 5902   9.753   1.837  10.506  0.3443  0.2479  0.2238
  768MOL0     C 5903   9.856   1.922  10.482 -1.0681 -0.7262  0.1716
  768MOL0     C 5904   9.967   1.880  10.409  1.1516 -0.0232  0.1472
  768MOL0     O 5905  10.073   1.960  10.415  0.5522  0.1355 -0.1433
  768MOL0     C 5906  10.179   1.944  10.316 -0.1762 -0.5655  0.3299
  768MOL0     C 5907  10.271   2.071  10.286  0.4556  0.1359 -0.1496
  768MOL0     C 5908  10.329   2.109  10.429  0.6095  0.2210  0.0134
  768MOL0     C 5909  10.441   2.220  10.426  1.2786  0.9227 -0.0226
  768MOL0     C 5910  10.380   2.356  10.419 -0.1334  0.8684 -0.0636
  768MOL0     C 5911  10.325   2.466  10.429  0.3895  0.3555  0.0117
  768MOL0     C 5912   9.956   1.760  10.342  0.0233  0.2247 -0.2282
  768MOL0     C 5913   9.847   1.667  10.356 -0.6183  0.3796 -0.4065
  768MOL0     C 5914   9.837   1.549  10.258 -0.3103  0.2789  0.9015
  768MOL0     H 5915   9.408   1.621  10.302 -0.0904 -0.2166 -0.9888
  768MOL0     H 5916   9.146   1.554  10.272 -0.1926 -0.7104 -0.4570
  768MOL0     H 5917   8.919   1.734  10.524  2.7131 -1.9476 -3.0696
  768MOL0     H 5918   8.878   1.595  10.634  0.3857 -0.2038  0.2610
  768MOL0     H 5919   8.775   1.651  10.350  4.0378 -3.1158 -0.2999
  768MOL0     H 5920   8.726   1.512  10.459 -0.7181 -0.2360  0.0430
  768MOL0     H 5921   8.625   1.660  10.623  1.3282 -1.2494  0.2013
  768MOL0     H 5922   8.662   1.807  10.540  0.3416 -0.2933 -0.4732
  768MOL0     H 5923   8.522   1.738  10.338  1.4101 -2.3008 -0.3362
  768MOL0     H 5924   8.494   1.594  10.408  0.8048  1.1057 -1.1360
  768MOL0     H 5925   8.413   1.869  10.522 -4.1801  0.6731  1.2906
  768MOL0     H 5926   8.394   1.722  10.614  0.1514 -0.7550 -0.1910
  768MOL0     H 5927   8.185   1.797  10.498  1.4031 -0.8655  1.9263
  768MOL0     H 5928   8.265   1.810  10.346 -0.8210 -0.1566  0.4654
  768MOL0     H 5929   8.245   1.537  10.488 -2.0061  1.7881  2.6780
  768MOL0     H 5930   8.295   1.590  10.317  0.1211  1.0442 -0.5304
  768MOL0     H 5931   8.095   1.498  10.306  0.7584  0.3353  1.4352
  768MOL0     H 5932   8.027   1.581  10.440 -0.7652 -0.1669 -0.9151
  768MOL0     H 5933   7.965   1.855  10.376  1.4710  1.1004 -0.3294
  768MOL0     H 5934   7.972   2.059  10.095  0.7928  0.1143  0.4661
  768MOL0     H 5935   7.874   2.037  10.231  2.6278 -0.0708  1.3505
  768MOL0     H 5936   7.721   1.885  10.094  1.2692 -1.8873 -1.8007
  768MOL0     H 5937   7.716   2.066  10.068  2.4234  1.9176 -3.1911
  768MOL0     H 5938   7.872   2.016   9.868 -1.1408  1.4935 -1.0060
  768MOL0     H 5939   7.836   1.844   9.894 -1.3784 -0.5614 -2.6432
  768MOL0     H 5940   7.698   1.915   9.719 -0.5747  4.3781 -1.0751
  768MOL0     H 5941   7.618   1.842   9.862  1.5859 -2.0072 -0.2140
  768MOL0     H 5942   7.419   1.843   9.857 -1.5308 -0.5709 -0.1409
  768MOL0     H 5943   7.077   1.799   9.810 -0.6236 -2.4864  0.8412
  768MOL0     H 5944   7.100   1.856   9.972 -0.2726  2.2990 -1.0435
  768MOL0     H 5945   7.210   1.736   9.897 -1.9298 -0.4913  0.4815
  768MOL0     H 5946   6.765   2.066   9.756  0.2917 -0.2025 -1.9816
  768MOL0     H 5947   6.541   2.142   9.745  0.5594 -1.2492 -0.8727
  768MOL0     H 5948   6.363   2.238   9.818  1.6744  0.3903  1.3202
  768MOL0     H 5949   6.265   2.379   9.764 -0.3720 -2.1962  0.1766
  768MOL0     H 5950   6.361   2.355   9.538 -0.4071  2.5846  1.4283
  768MOL0     H 5951   6.434   2.207   9.582  0.8400  1.7072 -0.1000
  768MOL0     H 5952   6.203   2.121   9.657  1.1374  5.1730  4.2017
  768MOL0     H 5953   6.232   2.145   9.477 -1.9416  0.0954 -0.4038
  768MOL0     H 5954   6.124   2.364   9.493 -0.8445 -1.5436 -3.0884
  768MOL0     H 5955   6.090   2.336   9.657 -0.9835  1.9368 -1.6810
  768MOL0     H 5956   5.918   2.308   9.488  1.9613  1.7098  2.7879
  768MOL0     H 5957   5.992   2.146   9.438  2.0428 -0.3434 -0.2033
  768MOL0     H 5958   5.901   2.218   9.713 -0.9566 -0.3489  0.5447
  768MOL0     H 5959   5.967   2.059   9.677  1.5362  0.7324 -0.0654
  768MOL0     H 5960   5.805   2.001   9.519  2.9765 -1.3928  2.6031
  768MOL0     H 5961   5.740   2.169   9.526 -1.9477 -0.3929  0.1392
  768MOL0     H 5962   5.590   2.021   9.644  0.6555 -0.3707  0.6532
  768MOL0     H 5963   5.672   2.130   9.762 -3.6247  2.0824 -1.8539
  768MOL0     H 5964   6.677   2.555   9.787  2.4419  0.3633 -2.1485
  768MOL0     H 5965   6.905   2.464   9.790  0.6163 -0.7162 -0.0167
  768MOL0     H 5966   7.205   2.287   9.820 -0.5086 -1.0629  1.7110
  768MOL0     H 5967   7.461   2.260   9.777  1.9546 -0.3350  2.0760
  768MOL0     H 5968   9.111   1.586  10.696 -1.8542 -3.4476 -0.5301
  768MOL0     H 5969   9.325   1.647  10.725 -0.6909  0.4578  0.2472
  768MOL0     H 5970   9.684   1.880  10.579  1.1572  0.4449  0.8856
  768MOL0     H 5971   9.876   2.013  10.538 -0.3368 -1.2068  0.7202
  768MOL0     H 5972  10.248   1.871  10.359  0.0096 -0.7847 -0.3272
  768MOL0     H 5973  10.136   1.913  10.220  1.4107 -0.2155 -0.5281
  768MOL0     H 5974  10.224   2.161  10.246 -0.4874  0.5195  1.7064
  768MOL0     H 5975  10.354   2.045  10.219  1.6033 -0.2842  1.3758
  768MOL0     H 5976  10.245   2.141  10.491 -1.3377 -1.4883 -1.5969
  768MOL0     H 5977  10.373   2.023  10.481 -3.6756 -1.4428  1.3417
  768MOL0     H 5978  10.517   2.200  10.349  0.6929 -0.9345 -0.1593
  768MOL0     H 5979  10.491   2.214  10.523 -0.4046  2.0665  0.9663
  768MOL0     H 5980  10.276   2.557  10.454  1.0310  1.0344 -1.0812
  768MOL0     H 5981  10.041   1.725  10.284  0.0091 -0.6137  0.2404
  768MOL0     H 5982   9.931   1.529  10.207 -0.5978  1.7210 -0.2946
  768MOL0     H 5983   9.811   1.462  10.319 -2.6146 -0.6653 -1.2454
  768MOL0     H 5984   9.765   1.561  10.176  0.1298  2.0108  0.7250
  769MOL0     O 5985   2.991   2.207   7.288  0.1196 -0.1675 -0.0809
  769MOL0     C 5986   3.011   2.109   7.360  0.6884  0.8950  1.0882
  769MOL0     O 5987   3.116   2.087   7.443  0.1578 -0.6232  0.2723
  769MOL0     C 5988   3.229   2.170   7.443  0.7421  0.1414  0.0086
  769MOL0     C 5989   3.234   2.265   7.546  1.3121 -0.2668  0.0191
  769MOL0     C 5990   3.341   2.353   7.547  0.0548  0.2030 -0.9084
  769MOL0     C 5991   3.441   2.347   7.452 -0.2273  0.2863 -0.2579
  769MOL0     O 5992   3.539   2.449   7.448  0.1864 -0.7316 -0.6062
  769MOL0     C 5993   3.586   2.523   7.562 -0.2910  0.8675  0.2570
  769MOL0     C 5994   3.536   2.667   7.566 -0.1124  0.9065 -0.4196
  769MOL0     C 5995   3.611   2.767   7.464  0.2860  0.8158 -0.1211
  769MOL0     C 5996   3.577   2.757   7.315  0.1101 -0.0364  0.7034
  769MOL0     C 5997   3.657   2.865   7.236 -1.0649  0.1601 -0.1659
  769MOL0     C 5998   3.693   2.825   7.095  0.2905 -0.1771 -0.4740
  769MOL0     C 5999   3.735   2.941   7.009 -0.4554 -0.1348  0.5083
  769MOL0     C 6000   3.885   2.969   7.029 -0.4907  0.6848 -0.0040
  769MOL0     N 6001   3.971   2.863   6.968  0.6047  0.3833 -0.7192
  769MOL0     C 6002   4.100   2.846   7.019 -0.2758  0.5852 -0.3570
  769MOL0     C 6003   4.144   2.730   6.958 -0.4643 -0.4013  0.8861
  769MOL0     C 6004   4.286   2.665   6.950  0.3261 -0.4092  0.3059
  769MOL0     C 6005   4.375   2.741   7.044  0.7894  0.2457 -0.0326
  769MOL0     C 6006   4.517   2.677   7.038 -0.1654  0.1587  1.2020
  769MOL0     C 6007   4.606   2.762   7.115 -0.0897  0.1539  0.0672
  769MOL0     O 6008   4.648   2.871   7.040  0.2263 -0.6644  0.0203
  769MOL0     C 6009   4.782   2.905   7.041 -0.4045  0.4110  0.5090
  769MOL0     C 6010   4.824   2.985   6.929  0.1670  0.7549 -0.2214
  769MOL0     C 6011   4.954   3.039   6.915 -0.1978  0.5618 -0.2088
  769MOL0     C 6012   4.974   3.138   6.811  0.1062  0.0322  0.8179
  769MOL0     C 6013   5.061   2.983   6.998 -0.4903  0.1674  0.1145
  769MOL0     C 6014   5.201   3.032   6.989  0.5284  0.0554 -0.0430
  769MOL0     O 6015   5.283   3.007   7.104  0.3536 -0.0674  0.3328
  769MOL0     C 6016   5.402   3.084   7.112  1.2304  0.4227 -0.4989
  769MOL0     C 6017   5.398   3.219   7.120  1.3472 -0.1171 -1.2575
  769MOL0     C 6018   5.519   3.291   7.138  1.1480 -0.7597 -0.1561
  769MOL0     C 6019   5.639   3.221   7.134  0.2159  0.3054  0.6803
  769MOL0     O 6020   5.746   3.297   7.164  0.2141  0.0804  0.1354
  769MOL0     C 6021   5.840   3.246   7.249  0.6037  1.0844 -0.0162
  769MOL0     C 6022   5.936   3.354   7.274  0.1355  0.1012  0.1798
  769MOL0     C 6023   5.972   3.378   7.418 -0.0201 -1.1777  0.3335
  769MOL0     C 6024   6.085   3.284   7.462 -0.1151 -0.2062 -0.6585
  769MOL0     C 6025   6.120   3.286   7.612 -0.8666 -0.1459  1.0458
  769MOL0     C 6026   6.170   3.149   7.651  0.6163 -0.8356 -0.1780
  769MOL0     C 6027   6.297   3.123   7.575 -0.8698  0.5722 -0.3143
  769MOL0     C 6028   6.338   2.978   7.581  0.1443 -0.0924 -0.1828
  769MOL0    Cl 6029   6.363   2.917   7.746  0.0200 -0.5352 -0.5205
  769MOL0     C 6030   5.633   3.081   7.119 -0.6519 -0.4803  0.9463
  769MOL0     C 6031   5.517   3.008   7.110 -0.0237 -0.5282 -0.5567
  769MOL0     O 6032   5.241   3.097   6.895  0.3192 -0.0523 -0.3147
  769MOL0     C 6033   5.022   2.900   7.114  1.2025 -0.1442 -0.1726
  769MOL0     C 6034   4.885   2.858   7.127 -0.0170 -0.2779  0.2247
  769MOL0     N 6035   4.042   2.684   6.880  0.1857  0.5700  0.8941
  769MOL0     N 6036   3.941   2.760   6.886 -0.1643  0.4941 -0.1439
  769MOL0     C 6037   3.439   2.255   7.344  0.0954  0.0698 -0.4912
  769MOL0     C 6038   3.322   2.165   7.343 -0.1315 -0.6147 -0.1416
  769MOL0     C 6039   2.902   2.008   7.343  0.4669  0.2019 -1.2378
  769MOL0     C 6040   2.835   1.992   7.221  0.4655  0.5872  0.5596
  769MOL0     C 6041   2.727   1.899   7.199  0.2347  0.2302  0.1058
  769MOL0     C 6042   2.684   1.818   7.311 -0.3902 -0.1916 -0.8521
  769MOL0     O 6043   2.579   1.738   7.296  0.5308  0.2862  0.2414
  769MOL0     C 6044   2.474   1.742   7.391  0.2591  0.3253  0.7655
  769MOL0     C 6045   2.408   1.606   7.396  0.3058  0.8254  0.2260
  769MOL0     C 6046   2.287   1.627   7.491 -0.6000  0.0273  0.9144
  769MOL0     C 6047   2.211   1.492   7.523 -0.6056  0.4306 -0.4515
  769MOL0     C 6048   2.139   1.438   7.406  0.3893  0.5225  0.4640
  769MOL0     C 6049   2.074   1.389   7.314 -1.2723 -0.0951 -0.0225
  769MOL0     C 6050   2.756   1.829   7.430  0.3936  0.0291  0.1271
  769MOL0     C 6051   2.854   1.925   7.452 -1.1073 -1.0176  0.1109
  769MOL0     C 6052   2.912   1.935   7.590  0.4268  0.1192  0.0916
  769MOL0     H 6053   3.148   2.263   7.612 -1.1158  1.1200 -2.8766
  769MOL0     H 6054   3.345   2.427   7.627 -1.3132 -1.7907  1.1252
  769MOL0     H 6055   3.694   2.535   7.546  0.0006 -2.0006 -0.5531
  769MOL0     H 6056   3.574   2.464   7.653 -2.7180  1.4407  0.3570
  769MOL0     H 6057   3.427   2.664   7.551 -0.5397 -1.1848  2.1644
  769MOL0     H 6058   3.550   2.709   7.666 -1.5359 -0.8767  0.6031
  769MOL0     H 6059   3.576   2.866   7.496  0.7378  0.6828  0.8275
  769MOL0     H 6060   3.719   2.772   7.479  0.6594 -1.8727 -1.3685
  769MOL0     H 6061   3.615   2.657   7.289 -0.7413  0.0901 -1.1859
  769MOL0     H 6062   3.471   2.761   7.291 -0.3298 -2.5857  1.8336
  769MOL0     H 6063   3.749   2.874   7.294 -0.9990  2.9331 -0.5898
  769MOL0     H 6064   3.617   2.967   7.235  0.4664  0.8214 -2.5184
  769MOL0     H 6065   3.757   2.736   7.097 -0.0439 -0.4540 -1.4054
  769MOL0     H 6066   3.599   2.785   7.056 -0.3461  0.7334  0.1004
  769MOL0     H 6067   3.674   3.028   7.035 -1.1479 -0.6549  0.6427
  769MOL0     H 6068   3.717   2.914   6.904 -0.8521 -1.5236  0.9170
  769MOL0     H 6069   3.906   3.056   6.966  2.7877  0.0301  0.0369
  769MOL0     H 6070   3.903   2.985   7.135 -1.6104  4.1483 -0.2069
  769MOL0     H 6071   4.159   2.913   7.081 -2.5543  2.3236  0.0786
  769MOL0     H 6072   4.320   2.677   6.847 -2.9925 -2.5325 -1.2149
  769MOL0     H 6073   4.276   2.557   6.969 -4.5545 -0.6605 -2.1721
  769MOL0     H 6074   4.376   2.846   7.015  2.3393 -0.6154 -3.6325
  769MOL0     H 6075   4.326   2.730   7.141 -1.4346  0.6547 -1.0317
  769MOL0     H 6076   4.525   2.576   7.079  1.8889 -0.5918 -0.8081
  769MOL0     H 6077   4.545   2.671   6.932  1.4913  0.5777  1.5905
  769MOL0     H 6078   4.566   2.781   7.216 -0.0303  2.2458 -0.2504
  769MOL0     H 6079   4.694   2.698   7.123 -0.6275 -0.8425 -1.5831
  769MOL0     H 6080   4.742   3.000   6.859  2.4014  0.8264 -3.0065
  769MOL0     H 6081   4.875   3.177   6.786  0.1368  0.4078  1.2753
  769MOL0     H 6082   5.009   3.105   6.712  3.6848  2.2464  1.1854
  769MOL0     H 6083   5.037   3.222   6.840  0.9356 -1.0670  2.3156
  769MOL0     H 6084   5.301   3.267   7.118  0.2507 -2.0864  0.4254
  769MOL0     H 6085   5.506   3.397   7.158 -0.0223 -0.8284 -0.4996
  769MOL0     H 6086   5.789   3.222   7.343  2.1240 -0.3492  0.4740
  769MOL0     H 6087   5.897   3.163   7.206  0.1498  0.0468  1.3241
  769MOL0     H 6088   6.022   3.325   7.213  0.6974 -0.0789  1.0440
  769MOL0     H 6089   5.911   3.454   7.238  1.0808  0.4037  0.3359
  769MOL0     H 6090   5.884   3.378   7.482  2.0316  1.3572  3.5067
  769MOL0     H 6091   6.012   3.480   7.421 -1.9484  0.1088 -5.0463
  769MOL0     H 6092   6.170   3.306   7.397 -0.7385 -0.5742 -1.6297
  769MOL0     H 6093   6.064   3.184   7.423  3.5534 -1.5910  0.5530
  769MOL0     H 6094   6.199   3.358   7.634 -0.1089 -0.6407  0.0090
  769MOL0     H 6095   6.042   3.315   7.683 -1.1068 -0.6987  1.0096
  769MOL0     H 6096   6.094   3.074   7.630 -1.9613  1.5191  0.1413
  769MOL0     H 6097   6.188   3.152   7.759 -0.3731  2.3242 -0.0076
  769MOL0     H 6098   6.380   3.183   7.614  0.0803 -2.5187  2.8851
  769MOL0     H 6099   6.279   3.140   7.468 -0.9822 -3.3892 -1.0624
  769MOL0     H 6100   6.430   2.969   7.522 -0.4154 -0.9895 -0.9537
  769MOL0     H 6101   6.262   2.926   7.521 -1.5935  4.2389 -2.1524
  769MOL0     H 6102   5.729   3.029   7.116 -0.0681  0.4739  2.1389
  769MOL0     H 6103   5.516   2.901   7.088 -1.3135 -0.5942 -0.2587
  769MOL0     H 6104   5.098   2.866   7.184  2.3703  0.0464 -1.3043
  769MOL0     H 6105   4.864   2.775   7.194  0.4358 -0.2368  0.4262
  769MOL0     H 6106   3.520   2.257   7.271  1.6470  0.7832  1.1652
  769MOL0     H 6107   3.315   2.104   7.253  1.7068  1.9317 -2.1560
  769MOL0     H 6108   2.874   2.042   7.134  1.1172  1.8078  1.5255
  769MOL0     H 6109   2.674   1.889   7.105  1.0294  0.9184 -0.4297
  769MOL0     H 6110   2.517   1.776   7.486 -1.4021  0.6435  1.4374
  769MOL0     H 6111   2.399   1.814   7.358  0.9688  0.2639 -1.0799
  769MOL0     H 6112   2.481   1.528   7.418 -1.8642 -1.7351 -1.0842
  769MOL0     H 6113   2.358   1.575   7.304  1.9154 -0.2334 -0.3453
  769MOL0     H 6114   2.322   1.667   7.586 -0.8658  0.2536  0.9205
  769MOL0     H 6115   2.225   1.705   7.444  0.4896  0.7976  0.7322
  769MOL0     H 6116   2.142   1.507   7.606 -0.6441  0.2897 -0.4573
  769MOL0     H 6117   2.282   1.420   7.564 -1.3825  1.7661  3.7608
  769MOL0     H 6118   2.009   1.353   7.237 -2.1581  2.2998 -0.4899
  769MOL0     H 6119   2.739   1.759   7.512  1.3136 -1.3868 -0.8339
  769MOL0     H 6120   2.915   2.040   7.623  1.0747  0.4474 -0.9514
  769MOL0     H 6121   2.847   1.877   7.656  2.2200 -2.9930 -0.6802
  769MOL0     H 6122   3.014   1.898   7.600 -0.2772 -1.7728  0.5994
  770MOL0     O 6123   7.421   8.994   5.199 -0.3707 -0.4498  0.0175
  770MOL0     C 6124   7.462   8.888   5.161  0.7118  0.1625  0.1059
  770MOL0     O 6125   7.387   8.773   5.147  0.2175  0.0526  0.5340
  770MOL0     C 6126   7.256   8.781   5.187  0.0413 -0.4970  0.0546
  770MOL0     C 6127   7.160   8.856   5.112 -0.0587 -0.4667 -1.1765
  770MOL0     C 6128   7.030   8.891   5.161  0.4616  1.1960  0.6396
  770MOL0     C 6129   6.989   8.842   5.285  0.0644 -0.8506  0.8809
  770MOL0     O 6130   6.862   8.867   5.329  0.5075  0.6257 -0.8048
  770MOL0     C 6131   6.852   8.884   5.471  0.5982 -0.2293 -0.0206
  770MOL0     C 6132   6.722   8.966   5.498  0.0001  0.8710  0.0240
  770MOL0     C 6133   6.584   8.906   5.459 -0.3135  0.2701  0.1401
  770MOL0     C 6134   6.547   8.765   5.495 -0.5683  0.1574 -1.1168
  770MOL0     C 6135   6.400   8.734   5.489  0.3829  1.0806  0.0242
  770MOL0     C 6136   6.346   8.739   5.344  0.0333 -0.3801  0.1034
  770MOL0     C 6137   6.205   8.717   5.323  0.7157  0.2869  0.1597
  770MOL0     C 6138   6.129   8.852   5.334  0.0460  0.2585 -0.0866
  770MOL0     N 6139   6.070   8.897   5.206 -0.0470  0.3299  0.8597
  770MOL0     C 6140   6.136   8.910   5.085  0.2501  0.4718 -0.4508
  770MOL0     C 6141   6.036   8.949   4.997 -0.0827 -0.3842 -0.1946
  770MOL0     C 6142   6.066   8.985   4.858 -0.2263 -1.3412 -0.2966
  770MOL0     C 6143   6.060   9.137   4.834  0.0194 -0.2512 -0.1223
  770MOL0     C 6144   6.205   9.189   4.824 -0.2950  0.0133 -0.1023
  770MOL0     C 6145   6.282   9.210   4.958  0.0711  0.2279 -0.6103
  770MOL0     O 6146   6.352   9.089   4.980  0.4499  0.2509 -0.1411
  770MOL0     C 6147   6.483   9.116   4.989 -0.4613  0.0113  0.0804
  770MOL0     C 6148   6.539   9.159   5.107 -0.0395  0.5217  0.3399
  770MOL0     C 6149   6.675   9.201   5.108 -0.3447  0.7723  0.1299
  770MOL0     C 6150   6.737   9.243   5.239  0.7956 -0.0012  0.1413
  770MOL0     C 6151   6.751   9.194   4.984  1.2066 -0.0674 -0.6992
  770MOL0     C 6152   6.884   9.240   4.974  0.1414  0.9667  0.9081
  770MOL0     O 6153   6.971   9.234   5.085  0.0161 -0.3012 -0.3469
  770MOL0     C 6154   7.096   9.308   5.080  0.4394  0.1890  0.5777
  770MOL0     C 6155   7.189   9.254   5.170  0.2019  0.1197  0.1649
  770MOL0     C 6156   7.313   9.306   5.177 -0.2408 -0.6403  0.0481
  770MOL0     C 6157   7.359   9.407   5.094  0.5058 -0.9489  0.3832
  770MOL0     O 6158   7.490   9.436   5.104  0.0035 -0.2324  0.5564
  770MOL0     C 6159   7.533   9.550   5.039 -0.8635 -0.4589  0.6753
  770MOL0     C 6160   7.667   9.598   5.074 -0.8409 -0.0906 -0.2464
  770MOL0     C 6161   7.795   9.510   5.034  0.4700  0.7451  0.3465
  770MOL0     C 6162   7.921   9.584   5.075  0.6364 -0.1614 -0.7688
  770MOL0     C 6163   8.051   9.523   5.024  0.0619  0.0917 -0.1662
  770MOL0     C 6164   8.169   9.597   5.089 -0.5586  0.0627 -0.6311
  770MOL0     C 6165   8.300   9.541   5.036  0.0053 -1.4374  0.2941
  770MOL0     C 6166   8.412   9.580   5.131  0.0310  0.3635 -0.6479
  770MOL0    Cl 6167   8.571   9.519   5.068  0.0638  0.2866 -0.1875
  770MOL0     C 6168   7.265   9.461   4.996  0.7818  0.6569 -0.2396
  770MOL0     C 6169   7.134   9.415   4.995  1.0206  0.4881  0.7000
  770MOL0     O 6170   6.922   9.281   4.863 -0.1834  0.5846 -0.2566
  770MOL0     C 6171   6.691   9.153   4.865  0.5677  0.3644 -0.0232
  770MOL0     C 6172   6.556   9.106   4.876 -0.4089 -0.0339  0.1721
  770MOL0     N 6173   5.916   8.952   5.062 -0.7518 -0.0923 -0.7652
  770MOL0     N 6174   5.938   8.919   5.190  0.2987 -0.1739  0.1066
  770MOL0     C 6175   7.084   8.764   5.356 -0.4911 -0.9145 -0.5930
  770MOL0     C 6176   7.212   8.735   5.310 -0.2610 -1.0896 -0.8394
  770MOL0     C 6177   7.610   8.863   5.154 -0.4462 -0.0770 -0.1940
  770MOL0     C 6178   7.658   8.730   5.141 -0.0293 -0.3917 -0.3582
  770MOL0     C 6179   7.795   8.704   5.116 -0.4236 -0.6296  0.0766
  770MOL0     C 6180   7.888   8.801   5.109  0.1441 -0.0714 -0.1867
  770MOL0     O 6181   8.020   8.760   5.096 -0.3795 -0.6181  0.1165
  770MOL0     C 6182   8.096   8.857   5.019 -0.5875 -0.4660  0.7042
  770MOL0     C 6183   8.180   8.771   4.915 -0.2008  0.6087 -0.3684
  770MOL0     C 6184   8.292   8.830   4.825  0.0465  0.4622  0.1840
  770MOL0     C 6185   8.429   8.850   4.887 -0.0615  0.0352 -0.5416
  770MOL0     C 6186   8.467   8.724   4.946  0.7126  0.0852  0.5310
  770MOL0     C 6187   8.491   8.618   5.005  0.5512 -0.0775  0.0317
  770MOL0     C 6188   7.843   8.930   5.125 -0.9057  0.6102  0.0299
  770MOL0     C 6189   7.709   8.969   5.153 -0.5502 -0.1018  0.7831
  770MOL0     C 6190   7.678   9.115   5.172  0.1343  0.4618 -0.5388
  770MOL0     H 6191   7.187   8.871   5.008  0.8282  0.2264 -0.8608
  770MOL0     H 6192   6.957   8.943   5.099 -2.0025 -4.1874 -1.6471
  770MOL0     H 6193   6.939   8.933   5.516 -1.9035  3.4039  1.2883
  770MOL0     H 6194   6.846   8.779   5.504  0.4040 -1.5382 -3.7314
  770MOL0     H 6195   6.710   8.969   5.607 -0.4289  2.0238 -0.0375
  770MOL0     H 6196   6.737   9.066   5.456 -0.7020  1.9027  2.0976
  770MOL0     H 6197   6.503   8.977   5.480 -1.2058 -1.3091  2.3741
  770MOL0     H 6198   6.596   8.912   5.350 -1.8908 -1.5935 -0.1874
  770MOL0     H 6199   6.604   8.700   5.428  0.2507  2.0061 -2.2807
  770MOL0     H 6200   6.574   8.741   5.599  2.1604  3.8474 -0.7648
  770MOL0     H 6201   6.326   8.792   5.545 -4.0879 -3.1034 -0.9091
  770MOL0     H 6202   6.396   8.632   5.527  0.5318  0.8374 -0.6068
  770MOL0     H 6203   6.384   8.817   5.277 -1.3103  0.7417  0.5983
  770MOL0     H 6204   6.401   8.651   5.309  0.8017 -0.2304  0.9052
  770MOL0     H 6205   6.171   8.649   5.401  1.9028 -1.1009 -0.5006
  770MOL0     H 6206   6.201   8.669   5.225  4.1641 -1.5264  0.7779
  770MOL0     H 6207   6.061   8.857   5.420 -0.0046 -1.0889 -0.0322
  770MOL0     H 6208   6.200   8.931   5.359  1.4985 -0.6032 -1.3487
  770MOL0     H 6209   6.239   8.891   5.059 -0.3399  1.6902 -4.3605
  770MOL0     H 6210   5.995   8.941   4.787  0.2384 -1.3242 -0.7736
  770MOL0     H 6211   6.164   8.948   4.825 -0.3808 -1.2573 -0.8621
  770MOL0     H 6212   5.996   9.160   4.749  0.3946  1.6283  0.0472
  770MOL0     H 6213   6.007   9.185   4.917  1.8070  2.6627 -0.5057
  770MOL0     H 6214   6.257   9.118   4.759  1.2403 -0.2652  1.3587
  770MOL0     H 6215   6.196   9.290   4.785 -2.5112  0.7265  1.9676
  770MOL0     H 6216   6.347   9.298   4.960 -3.5755  3.2934 -2.9209
  770MOL0     H 6217   6.197   9.228   5.024 -0.8859 -3.7371 -0.5145
  770MOL0     H 6218   6.481   9.162   5.198 -2.4347  2.8315 -1.1431
  770MOL0     H 6219   6.811   9.167   5.267 -0.7334 -1.2072  1.0358
  770MOL0     H 6220   6.661   9.231   5.316  0.4698 -1.6571 -0.3982
  770MOL0     H 6221   6.796   9.335   5.237  1.5180 -0.4508  0.0779
  770MOL0     H 6222   7.147   9.181   5.239 -0.7478 -1.7757 -2.2968
  770MOL0     H 6223   7.385   9.269   5.249  0.0572 -0.0343  0.0728
  770MOL0     H 6224   7.527   9.531   4.931 -1.5348  1.9222  0.2433
  770MOL0     H 6225   7.469   9.636   5.056 -1.1047 -0.5334  0.1585
  770MOL0     H 6226   7.690   9.698   5.037  1.7825 -0.1919  0.9007
  770MOL0     H 6227   7.663   9.615   5.182 -1.5888 -0.2115 -0.2477
  770MOL0     H 6228   7.791   9.491   4.927 -3.3790 -0.3551  0.5216
  770MOL0     H 6229   7.789   9.412   5.084  1.0477  0.1725 -0.6809
  770MOL0     H 6230   7.925   9.603   5.183 -2.0342  3.2408 -1.0880
  770MOL0     H 6231   7.907   9.685   5.035 -4.1348 -0.0501  0.5938
  770MOL0     H 6232   8.066   9.421   5.060  0.7452  1.0116  2.3322
  770MOL0     H 6233   8.064   9.525   4.915  1.8651 -3.0984 -0.1373
  770MOL0     H 6234   8.169   9.588   5.198  0.2554 -0.8835 -0.6835
  770MOL0     H 6235   8.159   9.703   5.066 -1.8137  0.2122  0.5220
  770MOL0     H 6236   8.315   9.595   4.942 -0.1481 -1.7064  0.1158
  770MOL0     H 6237   8.302   9.435   5.010 -2.0821 -1.4269 -0.0455
  770MOL0     H 6238   8.389   9.526   5.224 -0.6455  2.1595  0.2640
  770MOL0     H 6239   8.403   9.687   5.152  3.1718  0.8270 -1.2267
  770MOL0     H 6240   7.285   9.536   4.921 -0.7556  2.0904  0.6968
  770MOL0     H 6241   7.059   9.456   4.928  0.8070 -0.9701  0.0058
  770MOL0     H 6242   6.738   9.161   4.768 -0.9240  1.1498 -0.7065
  770MOL0     H 6243   6.503   9.073   4.787 -1.8926  1.5777  0.4050
  770MOL0     H 6244   7.050   8.706   5.441  1.0126  1.4285  1.7488
  770MOL0     H 6245   7.272   8.661   5.361 -1.2964 -0.8873  0.7298
  770MOL0     H 6246   7.581   8.655   5.149 -0.8902  0.6077  1.6330
  770MOL0     H 6247   7.836   8.604   5.106  3.6825  0.9711 -1.5106
  770MOL0     H 6248   8.033   8.930   4.968 -1.9058 -2.1808 -0.2447
  770MOL0     H 6249   8.166   8.920   5.075  2.0360 -0.3779 -2.3924
  770MOL0     H 6250   8.110   8.724   4.845 -0.8307  1.9377 -0.6679
  770MOL0     H 6251   8.225   8.688   4.970  0.5218 -0.4659 -2.4659
  770MOL0     H 6252   8.303   8.762   4.740 -1.7787 -0.2267  0.4534
  770MOL0     H 6253   8.248   8.916   4.775 -0.5347 -0.3993 -0.8516
  770MOL0     H 6254   8.416   8.921   4.969 -1.0917 -0.8219  0.0642
  770MOL0     H 6255   8.497   8.891   4.812  1.3254  0.0385  0.6719
  770MOL0     H 6256   8.504   8.517   5.039  0.7463  0.7892  2.7314
  770MOL0     H 6257   7.917   9.010   5.117 -2.2211  1.8122 -0.6313
  770MOL0     H 6258   7.615   9.137   5.086  0.6746 -1.6195 -1.5282
  770MOL0     H 6259   7.613   9.139   5.257  0.5400  0.9712 -0.3641
  770MOL0     H 6260   7.773   9.168   5.166  0.7202 -0.6663 -1.6863
  771MOL0     O 6261   5.813   6.054   0.212 -0.2800  0.2573 -0.1387
  771MOL0     C 6262   5.728   6.097   0.293 -0.6920 -0.7565 -0.4607
  771MOL0     O 6263   5.725   6.228   0.350  0.3867 -0.8208 -0.8477
  771MOL0     C 6264   5.805   6.322   0.300  0.3551 -0.6461 -0.1877
  771MOL0     C 6265   5.897   6.383   0.387 -0.0561  0.0776  0.1517
  771MOL0     C 6266   5.983   6.481   0.339  0.5478  0.7690 -0.3539
  771MOL0     C 6267   5.981   6.531   0.206 -0.0305 -0.7560  0.0693
  771MOL0     O 6268   6.067   6.633   0.174 -1.0905 -0.2124  0.2026
  771MOL0     C 6269   6.091   6.678   0.047 -0.1540  0.2573 -1.3263
  771MOL0     C 6270   6.222   6.755   0.045  0.1832 -0.1214 -0.2860
  771MOL0     C 6271   6.281   6.761  -0.089  0.3229 -0.6632 -0.3302
  771MOL0     C 6272   6.408   6.847  -0.086  0.1142 -0.5864  0.6210
  771MOL0     C 6273   6.458   6.861  -0.228 -0.3426  0.9849  0.0189
  771MOL0     C 6274   6.605   6.898  -0.227  0.1086 -0.0277  0.3722
  771MOL0     C 6275   6.639   7.013  -0.321 -0.3737 -0.7292 -0.1657
  771MOL0     C 6276   6.797   7.026  -0.330 -0.1186 -0.2843  0.3389
  771MOL0     N 6277   6.847   7.021  -0.471  0.1953  1.0210 -0.0719
  771MOL0     C 6278   6.890   6.913  -0.540  0.0662 -0.6442  0.0863
  771MOL0     C 6279   6.925   6.956  -0.657  0.7606 -0.4241  0.1396
  771MOL0     C 6280   6.980   6.871  -0.768 -0.0453  0.1693  0.0349
  771MOL0     C 6281   7.132   6.882  -0.785 -0.1780 -0.2871  0.3763
  771MOL0     C 6282   7.192   6.794  -0.883  0.4273 -0.5910  1.0474
  771MOL0     C 6283   7.148   6.842  -1.023 -1.0141 -0.1954 -0.3973
  771MOL0     O 6284   7.152   6.736  -1.118  0.2177  0.6157 -0.1822
  771MOL0     C 6285   7.260   6.671  -1.152  0.0900 -0.2256  0.0495
  771MOL0     C 6286   7.235   6.562  -1.227  0.4903 -0.0397  0.6296
  771MOL0     C 6287   7.348   6.490  -1.278  0.0291  0.2329 -0.2035
  771MOL0     C 6288   7.316   6.364  -1.358 -0.2756  0.3085 -0.2811
  771MOL0     C 6289   7.484   6.535  -1.256 -1.0459 -0.6861  0.2633
  771MOL0     C 6290   7.607   6.465  -1.313  0.1547 -0.1939  0.0291
  771MOL0     O 6291   7.724   6.513  -1.266  0.7428  0.1171 -0.9339
  771MOL0     C 6292   7.850   6.494  -1.306 -0.9990  1.0063  0.6468
  771MOL0     C 6293   7.892   6.418  -1.419 -0.6887 -0.4403  0.5123
  771MOL0     C 6294   8.024   6.435  -1.466 -0.0459 -0.1468 -0.1088
  771MOL0     C 6295   8.113   6.516  -1.397  0.9667  0.9505 -0.1706
  771MOL0     O 6296   8.245   6.517  -1.437 -0.1752 -0.5292  0.1125
  771MOL0     C 6297   8.270   6.638  -1.516  0.8632  0.0700  0.3296
  771MOL0     C 6298   8.405   6.678  -1.473  0.0108  0.3829  0.1766
  771MOL0     C 6299   8.525   6.577  -1.513  0.5406 -0.4578  0.2793
  771MOL0     C 6300   8.634   6.591  -1.411 -0.3674 -0.1779  0.3293
  771MOL0     C 6301   8.743   6.690  -1.468  1.1229  0.1031 -0.1277
  771MOL0     C 6302   8.854   6.716  -1.361  1.4314  0.3952  0.5966
  771MOL0     C 6303   8.955   6.817  -1.416  0.3858 -0.3170 -0.5853
  771MOL0     C 6304   9.042   6.875  -1.309  0.2861 -0.3748 -0.8075
  771MOL0    Cl 6305   9.113   6.753  -1.199  0.1006 -0.1638 -0.4421
  771MOL0     C 6306   8.074   6.583  -1.280  0.5699 -0.4679 -0.3824
  771MOL0     C 6307   7.937   6.577  -1.241  0.4231 -0.9855 -0.2248
  771MOL0     O 6308   7.596   6.368  -1.385  0.2040  0.6189 -0.2291
  771MOL0     C 6309   7.502   6.650  -1.181  0.3586  0.1215 -0.5974
  771MOL0     C 6310   7.389   6.715  -1.128 -0.6576  0.2209 -1.1747
  771MOL0     N 6311   6.900   7.089  -0.668 -0.0170 -0.5485 -0.7824
  771MOL0     N 6312   6.854   7.130  -0.551  0.1241 -0.6089  0.1590
  771MOL0     C 6313   5.881   6.478   0.123 -0.3891  0.2567  0.2227
  771MOL0     C 6314   5.801   6.370   0.170  0.6861 -0.0522 -0.3386
  771MOL0     C 6315   5.639   6.011   0.377 -0.0446 -1.0090  0.1010
  771MOL0     C 6316   5.701   5.907   0.451 -0.1268  0.0966 -0.3453
  771MOL0     C 6317   5.629   5.820   0.532  1.1607 -0.0033  0.2425
  771MOL0     C 6318   5.493   5.843   0.545  0.1359 -0.6057 -1.0818
  771MOL0     O 6319   5.422   5.770   0.646  0.2695  0.3095  0.5422
  771MOL0     C 6320   5.283   5.792   0.664  0.3965  0.4431 -0.4250
  771MOL0     C 6321   5.239   5.677   0.761  0.6081 -0.2266  0.4559
  771MOL0     C 6322   5.092   5.701   0.805 -0.3633 -0.8214  0.6337
  771MOL0     C 6323   4.995   5.721   0.692  0.2826  0.5973 -0.5423
  771MOL0     C 6324   5.007   5.619   0.586 -0.3837  0.4966 -0.2096
  771MOL0     C 6325   5.011   5.546   0.485 -0.3548  0.5597 -1.0980
  771MOL0     C 6326   5.430   5.955   0.475 -0.5549  0.4911 -0.4069
  771MOL0     C 6327   5.502   6.042   0.389  0.4461  0.5062  1.0902
  771MOL0     C 6328   5.424   6.139   0.297 -1.0810  0.1251  0.2631
  771MOL0     H 6329   5.907   6.342   0.488  0.3370  2.3170  1.0702
  771MOL0     H 6330   6.036   6.524   0.424  0.2064  2.5567 -0.9889
  771MOL0     H 6331   6.016   6.741  -0.002  0.1340  0.5696 -1.3813
  771MOL0     H 6332   6.095   6.590  -0.017  4.4590  0.7718 -2.1183
  771MOL0     H 6333   6.212   6.855   0.086 -2.3048 -2.1670  4.9835
  771MOL0     H 6334   6.305   6.712   0.102  2.5503  1.5671 -2.2594
  771MOL0     H 6335   6.306   6.659  -0.118 -1.1052 -1.3226  0.6775
  771MOL0     H 6336   6.205   6.799  -0.159  1.1753  2.1243  0.1238
  771MOL0     H 6337   6.382   6.946  -0.050  4.1352  0.6888  0.4920
  771MOL0     H 6338   6.483   6.814  -0.013 -0.8006 -1.8679  1.0225
  771MOL0     H 6339   6.398   6.941  -0.271 -2.0425  1.3535  2.8145
  771MOL0     H 6340   6.456   6.767  -0.284 -1.0548  1.0927 -0.1434
  771MOL0     H 6341   6.646   6.918  -0.128  2.1462  0.1383 -0.4495
  771MOL0     H 6342   6.658   6.808  -0.257  0.2933 -0.5397  2.1306
  771MOL0     H 6343   6.597   7.104  -0.278  1.4404 -1.0477  2.5195
  771MOL0     H 6344   6.596   6.991  -0.420 -0.9567  2.1203 -0.6248
  771MOL0     H 6345   6.834   7.119  -0.285 -0.7275  0.2460 -0.2269
  771MOL0     H 6346   6.846   6.945  -0.276  0.5116  2.6070  4.6604
  771MOL0     H 6347   6.870   6.813  -0.502 -2.5625 -0.0573  0.4684
  771MOL0     H 6348   6.934   6.915  -0.857  0.5171  1.6868  0.4460
  771MOL0     H 6349   6.947   6.768  -0.753  2.9213 -1.0430 -1.0124
  771MOL0     H 6350   7.148   6.986  -0.813 -1.6081  0.0785  0.8245
  771MOL0     H 6351   7.187   6.858  -0.694  3.4595 -1.7173 -2.0150
  771MOL0     H 6352   7.301   6.784  -0.873  0.7575 -1.9382 -2.4309
  771MOL0     H 6353   7.162   6.691  -0.859 -0.3147 -0.4376  0.8205
  771MOL0     H 6354   7.046   6.881  -1.023 -0.7154  0.6115 -0.8804
  771MOL0     H 6355   7.217   6.922  -1.050 -0.7787 -0.3419 -0.2365
  771MOL0     H 6356   7.131   6.533  -1.232 -0.5984  2.1617  5.0642
  771MOL0     H 6357   7.362   6.280  -1.306 -0.0425  1.2327  1.0714
  771MOL0     H 6358   7.361   6.366  -1.457 -1.7647  1.8901 -0.9720
  771MOL0     H 6359   7.209   6.344  -1.367  0.0306 -0.9285 -1.5596
  771MOL0     H 6360   7.819   6.354  -1.467  1.6776 -4.0122  1.2484
  771MOL0     H 6361   8.053   6.388  -1.559  0.1081  0.6937 -0.4963
  771MOL0     H 6362   8.277   6.610  -1.621 -0.2270 -0.3424  0.3565
  771MOL0     H 6363   8.189   6.710  -1.509  2.1252  1.5641  0.1669
  771MOL0     H 6364   8.436   6.769  -1.526 -0.0561 -1.1626 -2.7014
  771MOL0     H 6365   8.393   6.691  -1.365 -1.4434 -1.6014  0.2938
  771MOL0     H 6366   8.566   6.621  -1.605  0.2847  0.6755  0.6966
  771MOL0     H 6367   8.495   6.473  -1.526  0.5781 -0.6177  1.4193
  771MOL0     H 6368   8.688   6.497  -1.394  0.3966  0.2546  0.3167
  771MOL0     H 6369   8.591   6.629  -1.318 -0.4617 -2.3426  1.2452
  771MOL0     H 6370   8.794   6.649  -1.556 -0.6525 -0.6289 -0.8625
  771MOL0     H 6371   8.701   6.787  -1.496 -2.2557 -1.5976 -1.4517
  771MOL0     H 6372   8.907   6.622  -1.343  0.9845 -0.1149 -0.6882
  771MOL0     H 6373   8.808   6.750  -1.268  2.4518 -2.1610  2.1600
  771MOL0     H 6374   8.911   6.902  -1.468  0.6251  0.0778 -0.1428
  771MOL0     H 6375   9.012   6.763  -1.493  0.8136 -3.7773  1.9052
  771MOL0     H 6376   8.985   6.947  -1.249 -2.7570 -1.5536 -2.0644
  771MOL0     H 6377   9.129   6.930  -1.347  0.9573 -0.7574  0.1488
  771MOL0     H 6378   8.147   6.641  -1.224  1.1746 -0.9621 -0.6502
  771MOL0     H 6379   7.893   6.625  -1.153 -3.5316 -2.8299 -0.9905
  771MOL0     H 6380   7.597   6.697  -1.161  0.5871 -0.2920 -0.7000
  771MOL0     H 6381   7.409   6.811  -1.082 -2.8335 -1.2942  3.5114
  771MOL0     H 6382   5.866   6.511   0.020  0.5843 -0.7251 -0.2511
  771MOL0     H 6383   5.723   6.333   0.104 -0.9516  1.2944  0.7475
  771MOL0     H 6384   5.808   5.886   0.450  0.1651  1.2735  1.7183
  771MOL0     H 6385   5.684   5.732   0.564  1.4940 -1.3213 -3.4367
  771MOL0     H 6386   5.276   5.891   0.709  0.1504  0.3041 -0.1531
  771MOL0     H 6387   5.227   5.784   0.570  0.1068  0.3381 -0.2460
  771MOL0     H 6388   5.301   5.668   0.850 -0.7506  1.5605  1.6465
  771MOL0     H 6389   5.268   5.582   0.715  0.5588  0.3478 -0.8021
  771MOL0     H 6390   5.063   5.614   0.863  1.3922 -1.1206  1.1332
  771MOL0     H 6391   5.083   5.786   0.874 -1.6728 -0.6875  0.3106
  771MOL0     H 6392   4.994   5.823   0.653 -1.5251  0.9573  0.3613
  771MOL0     H 6393   4.891   5.718   0.726 -0.5215  0.0061 -2.8281
  771MOL0     H 6394   5.026   5.461   0.422  3.8804  0.5320 -0.3931
  771MOL0     H 6395   5.324   5.967   0.491 -1.1774 -2.0177 -2.0982
  771MOL0     H 6396   5.337   6.090   0.253  0.2917  0.6617 -3.4874
  771MOL0     H 6397   5.400   6.233   0.348 -1.3365 -0.6687  1.6368
  771MOL0     H 6398   5.501   6.149   0.219 -0.0339 -2.9345  0.7839
  772MOL0     O 6399   0.296   0.379   0.721 -0.2424  0.0242 -1.1496
  772MOL0     C 6400   0.233   0.478   0.759 -0.2753 -0.5122  0.1687
  772MOL0     O 6401   0.292   0.592   0.800 -0.0670 -0.1400  0.4175
  772MOL0     C 6402   0.422   0.622   0.768 -0.4067 -0.3194 -0.3448
  772MOL0     C 6403   0.455   0.688   0.648  0.9934 -0.6304  0.3310
  772MOL0     C 6404   0.591   0.709   0.613  0.1663  1.1578 -0.0019
  772MOL0     C 6405   0.688   0.650   0.694  0.9942 -0.5307  0.6821
  772MOL0     O 6406   0.817   0.658   0.651  0.1980 -0.4216  0.1841
  772MOL0     C 6407   0.912   0.697   0.756 -0.0218  0.0373  0.5261
  772MOL0     C 6408   1.041   0.618   0.731  0.2246  0.3396 -0.0782
  772MOL0     C 6409   1.166   0.681   0.787  1.2955 -0.2785  0.3194
  772MOL0     C 6410   1.280   0.578   0.799 -0.2511 -0.0039 -0.8256
  772MOL0     C 6411   1.411   0.640   0.843 -0.8782 -0.6354 -0.5787
  772MOL0     C 6412   1.526   0.538   0.841 -0.0755 -0.1079  0.0619
  772MOL0     C 6413   1.667   0.599   0.857  0.8271  0.2516  0.1384
  772MOL0     C 6414   1.788   0.506   0.829 -0.3399 -0.0927 -0.1086
  772MOL0     N 6415   1.918   0.571   0.867  1.0137 -0.8165  0.3644
  772MOL0     C 6416   2.017   0.593   0.771 -0.9602  0.2798 -0.1901
  772MOL0     C 6417   2.115   0.661   0.847 -0.0264 -0.6868  0.2459
  772MOL0     C 6418   2.246   0.711   0.798 -0.2671 -0.3961  0.0219
  772MOL0     C 6419   2.370   0.624   0.847  1.2098  1.0267  0.0882
  772MOL0     C 6420   2.367   0.486   0.777 -1.3422  0.1040 -0.4372
  772MOL0     C 6421   2.371   0.486   0.629  0.5864  0.9378  0.3864
  772MOL0     O 6422   2.459   0.586   0.571  0.2569  0.1093 -0.1682
  772MOL0     C 6423   2.596   0.583   0.602  0.2124  0.5180 -0.3297
  772MOL0     C 6424   2.667   0.701   0.637 -0.2728  0.1700 -0.0743
  772MOL0     C 6425   2.806   0.694   0.668  0.7109  0.2303 -0.3608
  772MOL0     C 6426   2.883   0.816   0.696 -0.7344 -0.6653 -0.0419
  772MOL0     C 6427   2.861   0.566   0.684  0.1827  0.6189 -0.1961
  772MOL0     C 6428   3.003   0.547   0.737 -0.8162  0.0804  0.7054
  772MOL0     O 6429   3.030   0.591   0.862 -0.4778 -0.3654 -0.0541
  772MOL0     C 6430   3.156   0.596   0.913 -0.3452 -0.3052  0.2610
  772MOL0     C 6431   3.245   0.710   0.912  0.1009 -0.0264  0.3788
  772MOL0     C 6432   3.379   0.712   0.963  0.4842 -0.5876  1.0140
  772MOL0     C 6433   3.436   0.598   1.015  0.2457  0.0893  0.2056
  772MOL0     O 6434   3.566   0.604   1.061 -0.6876  0.1301  0.1149
  772MOL0     C 6435   3.658   0.501   1.019  0.6375  0.0211  0.4476
  772MOL0     C 6436   3.793   0.556   1.033  0.0210 -0.4001  0.2699
  772MOL0     C 6437   3.900   0.478   0.954 -0.3485 -0.1362 -0.5656
  772MOL0     C 6438   4.029   0.531   1.010 -0.8087  0.2407  0.4638
  772MOL0     C 6439   4.156   0.479   0.952 -0.3040  0.2187 -0.1034
  772MOL0     C 6440   4.163   0.490   0.801 -0.5836 -0.4693 -0.5214
  772MOL0     C 6441   4.300   0.430   0.761  0.6754 -0.3237 -0.6443
  772MOL0     C 6442   4.326   0.430   0.613 -0.7023  0.0729  0.2984
  772MOL0    Cl 6443   4.315   0.599   0.548  0.6547  0.1200  0.3046
  772MOL0     C 6444   3.349   0.483   1.010 -0.1226  0.1489 -0.0161
  772MOL0     C 6445   3.218   0.481   0.964  1.0966 -0.3128 -0.1541
  772MOL0     O 6446   3.087   0.486   0.663  0.3869  0.4179  0.8268
  772MOL0     C 6447   2.792   0.454   0.655 -0.2794  0.0208 -0.3774
  772MOL0     C 6448   2.662   0.454   0.606  0.0857 -0.1553 -0.5896
  772MOL0     N 6449   2.061   0.688   0.979  0.4504  0.5454  0.3916
  772MOL0     N 6450   1.943   0.634   0.981  0.2393 -0.1661 -0.0797
  772MOL0     C 6451   0.655   0.575   0.800  1.2732  0.1003  0.0300
  772MOL0     C 6452   0.525   0.564   0.841  0.2544  0.4659  0.7048
  772MOL0     C 6453   0.091   0.479   0.781 -0.1759 -0.0179 -0.6533
  772MOL0     C 6454   0.025   0.601   0.804  0.7892 -0.2109 -0.4265
  772MOL0     C 6455  -0.111   0.611   0.827 -0.1411 -0.6896  0.1410
  772MOL0     C 6456  -0.190   0.496   0.827 -0.5335  0.1364 -0.0457
  772MOL0     O 6457  -0.331   0.487   0.842 -0.5275 -0.8344  1.2341
  772MOL0     C 6458  -0.420   0.605   0.839  0.0742  0.8615 -0.7406
  772MOL0     C 6459  -0.425   0.648   0.700  0.9890  0.4184  1.0123
  772MOL0     C 6460  -0.517   0.768   0.683 -0.0613  0.4457  0.5289
  772MOL0     C 6461  -0.442   0.903   0.701 -0.1886 -0.6604 -0.3989
  772MOL0     C 6462  -0.527   1.020   0.684 -0.2224 -0.1669  0.3500
  772MOL0     C 6463  -0.576   1.131   0.672  1.1153  0.5030 -0.4470
  772MOL0     C 6464  -0.126   0.374   0.802  0.6316 -0.2511  0.7528
  772MOL0     C 6465   0.013   0.363   0.786  0.8085 -0.1965  0.2323
  772MOL0     C 6466   0.070   0.230   0.770  0.0580  0.6178  0.9343
  772MOL0     H 6467   0.384   0.721   0.572  0.6421 -1.7012  0.1801
  772MOL0     H 6468   0.626   0.762   0.524  2.8179 -0.7635 -0.2494
  772MOL0     H 6469   0.881   0.688   0.860  3.1300 -2.8889  1.4261
  772MOL0     H 6470   0.945   0.800   0.744  0.7342 -0.1949  0.5417
  772MOL0     H 6471   1.040   0.515   0.768  1.9813  0.1333 -0.5232
  772MOL0     H 6472   1.068   0.610   0.625  0.0944  0.4167 -0.1176
  772MOL0     H 6473   1.190   0.778   0.743 -2.8355  1.9530  2.3540
  772MOL0     H 6474   1.143   0.704   0.892  0.1321  0.8494 -0.1631
  772MOL0     H 6475   1.246   0.507   0.876 -0.4669  2.7132  1.7613
  772MOL0     H 6476   1.295   0.529   0.702 -1.2802  0.1850 -1.0936
  772MOL0     H 6477   1.409   0.685   0.943  0.5963 -3.1906  0.6918
  772MOL0     H 6478   1.431   0.722   0.774 -0.1301 -1.6380 -1.5680
  772MOL0     H 6479   1.503   0.461   0.915 -1.3443  0.4630  0.2831
  772MOL0     H 6480   1.532   0.499   0.738 -0.8551 -0.2550  0.0652
  772MOL0     H 6481   1.675   0.635   0.960  0.8856 -1.2071  0.6580
  772MOL0     H 6482   1.671   0.690   0.795  0.5388 -0.6106 -1.1866
  772MOL0     H 6483   1.769   0.419   0.893 -2.9824  0.6446  0.1916
  772MOL0     H 6484   1.789   0.470   0.726  0.4024  1.5326 -0.6913
  772MOL0     H 6485   2.016   0.562   0.667 -1.2475 -1.4544  0.3038
  772MOL0     H 6486   2.266   0.814   0.826  0.8881 -0.7114  0.4082
  772MOL0     H 6487   2.235   0.722   0.689  1.5726  2.3653  0.0230
  772MOL0     H 6488   2.462   0.673   0.814 -0.3338  1.7931 -3.5581
  772MOL0     H 6489   2.377   0.604   0.954 -1.6315 -1.0344  0.0149
  772MOL0     H 6490   2.447   0.425   0.820 -1.4084 -0.2625 -0.8257
  772MOL0     H 6491   2.277   0.436   0.814 -0.3850 -0.3157  1.4639
  772MOL0     H 6492   2.397   0.385   0.595  4.0820  1.7354  0.2528
  772MOL0     H 6493   2.271   0.511   0.594  1.1195 -0.7653 -2.7674
  772MOL0     H 6494   2.623   0.800   0.633  2.5549  1.6036  1.1260
  772MOL0     H 6495   2.826   0.908   0.691  0.3150  0.4580  4.3239
  772MOL0     H 6496   2.959   0.828   0.619 -2.9676 -1.4158 -2.4979
  772MOL0     H 6497   2.923   0.816   0.798 -0.8935 -2.1345  0.0543
  772MOL0     H 6498   3.214   0.806   0.874 -0.8361 -0.8391 -0.9704
  772MOL0     H 6499   3.444   0.799   0.956  2.1953 -1.8437  0.5341
  772MOL0     H 6500   3.657   0.422   1.096  0.6275  0.0711  0.4993
  772MOL0     H 6501   3.644   0.454   0.921 -2.3651  1.6054 -0.0154
  772MOL0     H 6502   3.800   0.662   1.009 -0.1533 -0.8588 -2.0393
  772MOL0     H 6503   3.806   0.550   1.142 -1.5257 -0.6177  0.4646
  772MOL0     H 6504   3.880   0.493   0.848 -3.5074  5.8555  0.4307
  772MOL0     H 6505   3.900   0.372   0.979  2.0453  0.4302  2.4631
  772MOL0     H 6506   4.044   0.512   1.117  2.2680  0.3554  0.1482
  772MOL0     H 6507   4.022   0.639   0.997 -2.5664  0.5221  3.0880
  772MOL0     H 6508   4.237   0.534   1.001  3.0524 -2.5274 -2.0912
  772MOL0     H 6509   4.157   0.375   0.986  0.1076  0.2479 -0.0104
  772MOL0     H 6510   4.163   0.598   0.782 -2.3367 -0.1988  0.7591
  772MOL0     H 6511   4.086   0.436   0.745  0.2806 -1.7527 -0.5098
  772MOL0     H 6512   4.306   0.326   0.794 -2.2422  0.3161  2.4406
  772MOL0     H 6513   4.380   0.485   0.812  0.7970 -1.4885  0.4882
  772MOL0     H 6514   4.260   0.366   0.553  0.7591 -1.1484 -0.0909
  772MOL0     H 6515   4.425   0.389   0.589 -2.3968 -2.6283 -3.1255
  772MOL0     H 6516   3.378   0.382   1.037 -2.9953 -1.2464 -1.7489
  772MOL0     H 6517   3.164   0.387   0.967  0.4314  0.0768  1.5961
  772MOL0     H 6518   2.841   0.357   0.659  0.6089  0.4760 -0.0951
  772MOL0     H 6519   2.614   0.360   0.578 -2.2586  1.3863 -2.1874
  772MOL0     H 6520   0.732   0.521   0.855  1.0459  0.1481  0.4040
  772MOL0     H 6521   0.511   0.507   0.932 -0.5866 -0.3955  0.0646
  772MOL0     H 6522   0.079   0.694   0.820  1.9940 -0.6785 -1.5703
  772MOL0     H 6523  -0.154   0.710   0.839  0.2801 -0.6795  1.7488
  772MOL0     H 6524  -0.516   0.564   0.871  1.5024 -2.3510 -0.1581
  772MOL0     H 6525  -0.385   0.675   0.915 -0.9690 -0.7173  1.2621
  772MOL0     H 6526  -0.460   0.566   0.636  2.6424 -0.3780  1.0789
  772MOL0     H 6527  -0.332   0.684   0.655 -0.0746  1.8164 -0.1701
  772MOL0     H 6528  -0.558   0.767   0.581  0.9122  3.1172  0.0406
  772MOL0     H 6529  -0.598   0.759   0.756 -3.0804 -0.3605 -2.6383
  772MOL0     H 6530  -0.365   0.903   0.623 -0.5511 -2.7258 -0.8149
  772MOL0     H 6531  -0.391   0.915   0.797 -1.8171  1.1306  0.2973
  772MOL0     H 6532  -0.637   1.218   0.658  1.8523  0.5057 -5.0187
  772MOL0     H 6533  -0.186   0.284   0.794 -2.8184  2.0345 -2.5264
  772MOL0     H 6534   0.018   0.136   0.790  1.2001  0.0810  1.4868
  772MOL0     H 6535   0.126   0.217   0.676 -0.4299  0.2472  0.6892
  772MOL0     H 6536   0.148   0.227   0.847  2.8345 -0.0797 -1.6738
  773MOL0     O 6537   1.412   8.875   6.791  0.4088  0.5505  0.4193
  773MOL0     C 6538   1.502   8.952   6.771  0.1326  0.7147 -0.6090
  773MOL0     O 6539   1.481   9.085   6.747 -0.3305 -0.4468 -0.4125
  773MOL0     C 6540   1.354   9.133   6.778  0.1032  0.1667 -1.0744
  773MOL0     C 6541   1.244   9.103   6.712 -0.6742 -0.2414 -0.2987
  773MOL0     C 6542   1.120   9.163   6.753  0.2639 -0.6047 -0.1248
  773MOL0     C 6543   1.112   9.265   6.848 -0.0709 -0.0136  0.0194
  773MOL0     O 6544   0.994   9.323   6.881 -0.2730 -0.0847 -0.5091
  773MOL0     C 6545   0.887   9.318   6.779 -0.1792 -0.4144 -0.0467
  773MOL0     C 6546   0.776   9.222   6.822 -0.2671  0.3625 -0.6738
  773MOL0     C 6547   0.669   9.216   6.713  0.7374  0.7398 -0.0407
  773MOL0     C 6548   0.597   9.350   6.683 -0.1768  0.7741 -0.1599
  773MOL0     C 6549   0.464   9.327   6.593  0.2660  1.1186  0.3944
  773MOL0     C 6550   0.385   9.452   6.556  0.1666  0.1567  0.2462
  773MOL0     C 6551   0.436   9.528   6.425  0.0680  0.0747  0.3840
  773MOL0     C 6552   0.355   9.650   6.370  0.2397 -0.8060  0.0675
  773MOL0     N 6553   0.433   9.717   6.262 -0.7279  0.7159  0.2924
  773MOL0     C 6554   0.488   9.661   6.142  0.1957 -0.2891 -0.1943
  773MOL0     C 6555   0.541   9.763   6.072  0.4882  0.0468  0.5190
  773MOL0     C 6556   0.616   9.761   5.946 -0.4922 -0.5483  0.4337
  773MOL0     C 6557   0.743   9.674   5.971  0.0743  0.7847  0.6008
  773MOL0     C 6558   0.855   9.705   5.878 -1.0787 -0.2754  0.8177
  773MOL0     C 6559   0.988   9.641   5.908 -0.3951  0.7032 -0.0648
  773MOL0     O 6560   1.057   9.699   6.027 -0.2255 -0.0816 -0.0583
  773MOL0     C 6561   1.176   9.640   6.053  0.6465  0.3525 -0.3392
  773MOL0     C 6562   1.226   9.517   6.013  0.2111  0.6713  0.5782
  773MOL0     C 6563   1.356   9.479   6.045  0.0774 -0.3947  1.0943
  773MOL0     C 6564   1.396   9.345   5.984 -0.3079 -0.2525  0.0103
  773MOL0     C 6565   1.447   9.570   6.105  0.1532  1.1911  0.0801
  773MOL0     C 6566   1.593   9.564   6.123  0.0744 -0.0557 -0.9100
  773MOL0     O 6567   1.642   9.644   6.229 -0.5107  0.1748 -0.0070
  773MOL0     C 6568   1.769   9.626   6.291 -0.6271  0.2434  0.7141
  773MOL0     C 6569   1.803   9.684   6.412 -0.8963  0.2056 -0.2370
  773MOL0     C 6570   1.931   9.678   6.465  0.2319  0.4274 -0.1256
  773MOL0     C 6571   2.034   9.600   6.411  0.0068  0.8382 -0.3597
  773MOL0     O 6572   2.160   9.589   6.456  0.0135 -0.3402 -0.7348
  773MOL0     C 6573   2.181   9.549   6.590 -1.1723  0.0916 -0.0435
  773MOL0     C 6574   2.321   9.579   6.624 -0.2078 -0.1746  0.2322
  773MOL0     C 6575   2.348   9.732   6.597 -0.3856 -0.5529 -0.1109
  773MOL0     C 6576   2.276   9.827   6.697  0.7754  0.8516  0.0549
  773MOL0     C 6577   2.298   9.967   6.649  1.0356 -1.0715 -0.2277
  773MOL0     C 6578   2.279  10.059   6.769 -0.7520  1.2560 -0.3022
  773MOL0     C 6579   2.322  10.211   6.745 -0.0703 -0.3126 -0.2244
  773MOL0     C 6580   2.203  10.278   6.673 -0.3287 -0.0575 -0.3787
  773MOL0    Cl 6581   2.225  10.458   6.640 -0.5383  0.0422  0.0810
  773MOL0     C 6582   2.008   9.537   6.282  0.3476 -0.3317 -0.2292
  773MOL0     C 6583   1.879   9.551   6.227  1.3613 -0.0867 -0.1064
  773MOL0     O 6584   1.662   9.496   6.047  0.3918  0.7928 -0.2604
  773MOL0     C 6585   1.388   9.690   6.148 -0.7728  0.6188  0.2201
  773MOL0     C 6586   1.256   9.718   6.127  0.1037 -0.5399 -1.2163
  773MOL0     N 6587   0.521   9.874   6.143  0.7249 -0.0424 -1.2493
  773MOL0     N 6588   0.446   9.854   6.249  0.7316  0.2103  0.1982
  773MOL0     C 6589   1.227   9.291   6.922 -0.0132  0.4671 -0.2127
  773MOL0     C 6590   1.352   9.236   6.869  1.3473  0.0987 -0.6091
  773MOL0     C 6591   1.627   8.883   6.731 -1.2811 -0.4789  0.8295
  773MOL0     C 6592   1.638   8.744   6.720  0.0511 -1.0575 -0.6413
  773MOL0     C 6593   1.751   8.675   6.682  0.7530  0.0709 -0.0899
  773MOL0     C 6594   1.859   8.745   6.614  0.6104  0.0711  0.5577
  773MOL0     O 6595   1.953   8.666   6.551  0.0581  0.4598  0.0859
  773MOL0     C 6596   2.053   8.725   6.468 -0.4819 -0.4196  0.4412
  773MOL0     C 6597   2.183   8.774   6.532  0.3237  0.1986  0.3067
  773MOL0     C 6598   2.288   8.831   6.437 -0.1609 -0.4497 -0.1720
  773MOL0     C 6599   2.271   8.976   6.371 -0.0084  1.2092 -0.1146
  773MOL0     C 6600   2.253   9.083   6.468  0.7269 -0.4489 -0.0842
  773MOL0     C 6601   2.258   9.170   6.546  0.9991 -0.3076 -0.5837
  773MOL0     C 6602   1.846   8.886   6.626  0.0570 -0.0362 -0.0463
  773MOL0     C 6603   1.738   8.952   6.683 -0.2550 -0.2811  0.2162
  773MOL0     C 6604   1.760   9.103   6.700  0.1673  0.2740 -0.4379
  773MOL0     H 6605   1.247   9.035   6.628 -1.4379  1.9047 -2.1408
  773MOL0     H 6606   1.034   9.114   6.707  0.0415  2.8268 -3.9284
  773MOL0     H 6607   0.913   9.305   6.674  2.6653  0.8399  0.4044
  773MOL0     H 6608   0.843   9.417   6.787 -0.9724 -0.8911  2.1078
  773MOL0     H 6609   0.826   9.125   6.836 -0.0110  0.7824  1.9257
  773MOL0     H 6610   0.731   9.237   6.921 -2.3793  2.0476 -1.8251
  773MOL0     H 6611   0.700   9.165   6.621  3.6420  1.9759  0.1696
  773MOL0     H 6612   0.583   9.162   6.755  2.3741 -1.8048  0.2210
  773MOL0     H 6613   0.564   9.402   6.774 -2.1959  1.5293 -1.2557
  773MOL0     H 6614   0.663   9.412   6.622 -0.9257 -1.1603 -3.1646
  773MOL0     H 6615   0.387   9.265   6.641  0.5857  1.0593  0.8447
  773MOL0     H 6616   0.501   9.277   6.503  3.9229 -2.1206  3.3585
  773MOL0     H 6617   0.282   9.416   6.547  0.2208  0.4475 -1.8822
  773MOL0     H 6618   0.393   9.515   6.646  1.1114 -0.7278  0.8026
  773MOL0     H 6619   0.450   9.453   6.347  0.6483  0.7982 -0.2143
  773MOL0     H 6620   0.535   9.562   6.457 -1.4040  4.7266  0.6369
  773MOL0     H 6621   0.258   9.620   6.329 -0.3134  3.6618 -2.4684
  773MOL0     H 6622   0.343   9.716   6.456  1.0614  0.4333 -0.7289
  773MOL0     H 6623   0.489   9.558   6.109  2.5602 -0.0373 -1.1224
  773MOL0     H 6624   0.649   9.862   5.922 -2.8563 -0.0058 -0.7968
  773MOL0     H 6625   0.558   9.711   5.868 -0.7402 -0.9905  0.8973
  773MOL0     H 6626   0.774   9.702   6.072 -2.3774  3.1078  0.8209
  773MOL0     H 6627   0.706   9.571   5.973  0.6096  0.5593 -0.3316
  773MOL0     H 6628   0.831   9.686   5.773  0.2600  2.0041  0.0080
  773MOL0     H 6629   0.868   9.814   5.882  0.9205 -0.4198 -0.0621
  773MOL0     H 6630   0.972   9.534   5.923  0.4622  0.3628 -1.4331
  773MOL0     H 6631   1.055   9.661   5.824 -3.4628  2.8623 -2.1759
  773MOL0     H 6632   1.165   9.447   5.957 -1.2244  0.6427  2.1156
  773MOL0     H 6633   1.311   9.276   5.988 -0.6950  0.1140 -1.5245
  773MOL0     H 6634   1.475   9.303   6.048 -0.6192 -1.2794 -0.2626
  773MOL0     H 6635   1.434   9.367   5.884 -3.0234 -0.0675 -1.0644
  773MOL0     H 6636   1.735   9.749   6.466 -0.5877 -0.9020  1.5844
  773MOL0     H 6637   1.943   9.741   6.553 -2.4581 -0.2842  0.8816
  773MOL0     H 6638   2.112   9.603   6.655 -3.3550 -0.6897 -1.5966
  773MOL0     H 6639   2.156   9.445   6.613 -3.5871  0.7976  0.8382
  773MOL0     H 6640   2.345   9.549   6.726  0.6194  1.7830  0.6728
  773MOL0     H 6641   2.397   9.535   6.559  0.1189  0.5055  0.1410
  773MOL0     H 6642   2.326   9.752   6.492  0.9288 -2.6159 -0.8330
  773MOL0     H 6643   2.455   9.745   6.577 -0.8523  1.6891 -1.5082
  773MOL0     H 6644   2.317   9.808   6.796  2.2865  1.8826 -0.3418
  773MOL0     H 6645   2.167   9.823   6.708  0.8577  1.9986  1.5941
  773MOL0     H 6646   2.395   9.992   6.605 -0.0768 -0.3500 -2.4143
  773MOL0     H 6647   2.231   9.993   6.567  0.6949 -0.1927  0.3201
  773MOL0     H 6648   2.343  10.016   6.847  1.2812 -0.1840 -2.6013
  773MOL0     H 6649   2.179  10.038   6.807 -0.0512 -2.8836 -0.2238
  773MOL0     H 6650   2.417  10.214   6.691  1.6776 -0.2106  2.6787
  773MOL0     H 6651   2.336  10.258   6.842 -1.1443 -0.2132 -0.1042
  773MOL0     H 6652   2.111  10.250   6.724  0.3261 -2.5226 -0.4407
  773MOL0     H 6653   2.199  10.225   6.577  3.8192 -0.9809 -0.2396
  773MOL0     H 6654   2.075   9.468   6.231 -1.6938 -1.9321 -0.8864
  773MOL0     H 6655   1.862   9.486   6.142  2.3580 -2.2143  1.2345
  773MOL0     H 6656   1.442   9.770   6.199  1.5312 -0.1421 -0.8892
  773MOL0     H 6657   1.214   9.811   6.163  1.2268  0.4195 -2.2899
  773MOL0     H 6658   1.234   9.365   7.002  0.9075  1.6222 -1.3309
  773MOL0     H 6659   1.446   9.254   6.921  0.7310  2.1415 -0.1089
  773MOL0     H 6660   1.556   8.675   6.739 -0.7677  0.6226  2.5640
  773MOL0     H 6661   1.759   8.566   6.684 -2.9434 -0.3579  2.9800
  773MOL0     H 6662   2.087   8.646   6.399  3.0330  0.4328  0.9716
  773MOL0     H 6663   2.007   8.798   6.402 -0.3461  0.8352  1.6959
  773MOL0     H 6664   2.219   8.679   6.570 -1.4517 -0.1515  1.2012
  773MOL0     H 6665   2.165   8.852   6.606  2.3296  3.0237 -1.9388
  773MOL0     H 6666   2.376   8.822   6.501 -0.1561 -1.0342 -0.2537
  773MOL0     H 6667   2.286   8.760   6.353  0.9007 -0.2846 -0.3563
  773MOL0     H 6668   2.183   8.977   6.306  0.2308 -2.9963 -0.8230
  773MOL0     H 6669   2.359   8.995   6.309 -0.8145 -0.6843 -1.9790
  773MOL0     H 6670   2.263   9.231   6.634 -0.9180 -0.6682 -0.1958
  773MOL0     H 6671   1.934   8.942   6.593  1.9141  0.5988  5.1304
  773MOL0     H 6672   1.709   9.138   6.790  1.2923  0.3984  0.1714
  773MOL0     H 6673   1.865   9.134   6.703 -0.0486  1.3132 -2.2971
  773MOL0     H 6674   1.718   9.163   6.619  1.3335  0.1199 -1.1874
  774MOL0     O 6675   0.400   5.351   1.536  0.4243 -0.8592 -0.3825
  774MOL0     C 6676   0.316   5.438   1.506  1.0430 -0.2067 -0.5788
  774MOL0     O 6677   0.311   5.506   1.384 -0.7194 -0.0725 -0.7467
  774MOL0     C 6678   0.399   5.482   1.284  0.0316  0.8535  0.2984
  774MOL0     C 6679   0.409   5.363   1.213 -0.8206  0.3071 -0.4573
  774MOL0     C 6680   0.525   5.332   1.141  0.0301  0.2727 -0.8488
  774MOL0     C 6681   0.626   5.431   1.128 -0.0463 -0.1604  0.3818
  774MOL0     O 6682   0.741   5.397   1.070 -0.4648  0.6612  0.4629
  774MOL0     C 6683   0.867   5.417   1.139  0.5657  0.5904  0.0643
  774MOL0     C 6684   0.935   5.281   1.168  0.5274  0.4257 -0.1489
  774MOL0     C 6685   1.067   5.292   1.253  0.4339 -0.7587 -0.2272
  774MOL0     C 6686   1.188   5.316   1.159  1.1009  0.9041 -0.1143
  774MOL0     C 6687   1.322   5.336   1.233  0.1440 -0.4469 -0.6383
  774MOL0     C 6688   1.319   5.456   1.326 -0.1479  0.4906 -0.0859
  774MOL0     C 6689   1.330   5.414   1.465 -0.4310  0.6764 -1.3857
  774MOL0     C 6690   1.334   5.518   1.580  1.2572  0.0511 -0.0632
  774MOL0     N 6691   1.465   5.576   1.586 -0.0404 -0.1839 -0.3364
  774MOL0     C 6692   1.516   5.670   1.504  0.1241 -0.2987  0.2812
  774MOL0     C 6693   1.638   5.698   1.550 -0.0725  0.2450  0.1812
  774MOL0     C 6694   1.734   5.795   1.486 -0.3199 -0.2398  0.6810
  774MOL0     C 6695   1.788   5.895   1.596  0.3304 -0.1833 -0.1330
  774MOL0     C 6696   1.864   6.027   1.552 -0.5594 -0.2105  0.5884
  774MOL0     C 6697   1.855   6.141   1.661 -0.1582  0.4493  0.8230
  774MOL0     O 6698   1.912   6.261   1.618 -0.1203 -0.2579  0.1936
  774MOL0     C 6699   2.050   6.275   1.621 -0.1739 -0.3885  0.5320
  774MOL0     C 6700   2.100   6.403   1.582  0.1503  0.1949  0.3302
  774MOL0     C 6701   2.231   6.440   1.570 -0.8155 -0.1094 -0.3654
  774MOL0     C 6702   2.262   6.572   1.496  1.2201 -0.3370 -0.3651
  774MOL0     C 6703   2.335   6.340   1.602 -0.0064 -0.4154 -0.3480
  774MOL0     C 6704   2.486   6.366   1.611  0.1721 -0.6250 -0.5044
  774MOL0     O 6705   2.559   6.257   1.610  0.3476  0.7292 -0.2780
  774MOL0     C 6706   2.701   6.271   1.588  0.7947  0.6451 -0.4188
  774MOL0     C 6707   2.767   6.334   1.481  0.6808 -0.4158  0.5471
  774MOL0     C 6708   2.905   6.335   1.481 -0.8921  0.3371  0.5837
  774MOL0     C 6709   2.978   6.255   1.572 -1.0716  0.2981 -0.1295
  774MOL0     O 6710   3.114   6.281   1.570  0.1492 -0.4785 -0.6994
  774MOL0     C 6711   3.184   6.203   1.465  0.5287  0.4546  0.8934
  774MOL0     C 6712   3.306   6.277   1.413  0.6354 -0.3183  0.1414
  774MOL0     C 6713   3.422   6.257   1.516 -0.2941 -0.0516  0.0172
  774MOL0     C 6714   3.534   6.338   1.461 -0.0861  0.9895  0.4551
  774MOL0     C 6715   3.649   6.359   1.558 -0.1839  0.0832  0.0178
  774MOL0     C 6716   3.722   6.214   1.583 -0.4307  0.1828 -0.0515
  774MOL0     C 6717   3.858   6.211   1.652  0.3925  0.6721 -0.1999
  774MOL0     C 6718   3.849   6.210   1.806  1.1245  0.2131  0.7544
  774MOL0    Cl 6719   4.006   6.218   1.869 -0.2429 -0.5827  0.3223
  774MOL0     C 6720   2.908   6.187   1.682  0.3005 -0.4289 -0.2091
  774MOL0     C 6721   2.767   6.198   1.686 -0.3086  0.8362  0.0233
  774MOL0     O 6722   2.527   6.485   1.624 -0.6450 -0.0089  0.3357
  774MOL0     C 6723   2.289   6.213   1.636 -0.5342  0.2949  0.0933
  774MOL0     C 6724   2.150   6.181   1.649  0.4960  0.8011 -1.1597
  774MOL0     N 6725   1.658   5.617   1.663  0.1066 -1.2090 -0.4189
  774MOL0     N 6726   1.553   5.547   1.681 -0.5286  0.3739 -0.0650
  774MOL0     C 6727   0.609   5.557   1.187 -0.0950  0.4325 -0.1618
  774MOL0     C 6728   0.491   5.577   1.261  0.0760 -0.1382  0.4222
  774MOL0     C 6729   0.199   5.462   1.600 -0.7735 -0.8991 -0.5257
  774MOL0     C 6730   0.183   5.372   1.709 -0.9503  0.1297  0.1094
  774MOL0     C 6731   0.079   5.371   1.799  0.4640  0.0173  0.1143
  774MOL0     C 6732  -0.019   5.474   1.781 -0.1216  1.1995 -0.5547
  774MOL0     O 6733  -0.126   5.483   1.857 -0.1023  0.1692  0.6299
  774MOL0     C 6734  -0.132   5.393   1.971 -0.1117 -1.3529 -0.8156
  774MOL0     C 6735  -0.252   5.432   2.061  1.3127 -0.3536 -0.2769
  774MOL0     C 6736  -0.391   5.413   1.992 -0.1912 -0.2504  0.3657
  774MOL0     C 6737  -0.502   5.484   2.078  0.2508  0.2464 -0.3993
  774MOL0     C 6738  -0.587   5.568   1.994  0.2505  0.8454  0.1317
  774MOL0     C 6739  -0.654   5.643   1.924  0.3807 -0.1098  0.2653
  774MOL0     C 6740  -0.014   5.567   1.680  0.0252 -0.1770 -0.0853
  774MOL0     C 6741   0.095   5.558   1.582 -0.1793  0.0479 -0.1222
  774MOL0     C 6742   0.092   5.659   1.467  0.3048  0.4345  0.1792
  774MOL0     H 6743   0.334   5.288   1.236 -3.0235  2.9640  1.7755
  774MOL0     H 6744   0.546   5.242   1.084  0.5703  1.4145 -2.5439
  774MOL0     H 6745   0.859   5.471   1.234  0.3761  1.1664 -0.2743
  774MOL0     H 6746   0.928   5.477   1.071  0.0191  1.5176  0.3663
  774MOL0     H 6747   0.871   5.215   1.227 -0.3551  0.6719 -0.8127
  774MOL0     H 6748   0.944   5.226   1.074  0.5055 -0.6810  0.4714
  774MOL0     H 6749   1.068   5.384   1.313  0.3218 -0.8384 -0.1036
  774MOL0     H 6750   1.087   5.198   1.306 -1.3253 -0.3581  1.2578
  774MOL0     H 6751   1.201   5.238   1.083 -0.3719  2.3264 -1.9163
  774MOL0     H 6752   1.173   5.410   1.105 -1.1832 -0.3953 -1.9082
  774MOL0     H 6753   1.394   5.356   1.153  1.6585 -4.6768 -0.5816
  774MOL0     H 6754   1.364   5.259   1.298  0.5252  1.7124  1.8135
  774MOL0     H 6755   1.410   5.516   1.317 -0.7508  1.2551 -1.3237
  774MOL0     H 6756   1.231   5.518   1.305  1.3912  2.2474 -1.7058
  774MOL0     H 6757   1.420   5.354   1.479 -1.9409 -1.5895 -0.8993
  774MOL0     H 6758   1.237   5.361   1.488  0.9158 -0.8893  0.7164
  774MOL0     H 6759   1.257   5.595   1.568 -0.6426 -0.9919  3.8106
  774MOL0     H 6760   1.306   5.468   1.673 -1.2380 -1.5284 -1.5502
  774MOL0     H 6761   1.478   5.715   1.413 -0.9711 -2.0320 -0.1711
  774MOL0     H 6762   1.696   5.849   1.399 -0.3772 -0.0870  0.7998
  774MOL0     H 6763   1.811   5.727   1.450  0.2853  1.2522 -0.9408
  774MOL0     H 6764   1.704   5.927   1.659 -0.5578 -1.6698 -0.5233
  774MOL0     H 6765   1.853   5.839   1.664  0.8884  1.2881  0.5945
  774MOL0     H 6766   1.970   6.005   1.536 -0.4245  0.0942  1.0598
  774MOL0     H 6767   1.828   6.060   1.454  0.7063  1.7543  0.7201
  774MOL0     H 6768   1.748   6.152   1.682 -0.3479 -1.1989  0.8091
  774MOL0     H 6769   1.913   6.104   1.746  0.1116 -0.4523  0.2601
  774MOL0     H 6770   2.030   6.476   1.542 -0.3631 -0.6583 -0.3709
  774MOL0     H 6771   2.357   6.557   1.444  0.3930 -1.8709 -1.5208
  774MOL0     H 6772   2.260   6.648   1.574 -1.0484  1.4600 -2.0254
  774MOL0     H 6773   2.193   6.603   1.416  0.4533 -4.0733 -1.3799
  774MOL0     H 6774   2.703   6.392   1.416 -1.8540  0.7789  3.8000
  774MOL0     H 6775   2.961   6.393   1.409 -2.6178  0.3194 -0.8373
  774MOL0     H 6776   3.222   6.105   1.494  1.0884  0.1587 -0.7297
  774MOL0     H 6777   3.123   6.186   1.376  1.3917 -2.6856  0.7966
  774MOL0     H 6778   3.333   6.235   1.316  3.8469  3.7703 -1.0269
  774MOL0     H 6779   3.276   6.378   1.384 -4.2170 -0.7534  2.6556
  774MOL0     H 6780   3.442   6.150   1.515  0.5947  0.0873 -1.3194
  774MOL0     H 6781   3.392   6.280   1.618  1.6175  0.0156  0.5982
  774MOL0     H 6782   3.491   6.432   1.425 -0.6385  0.2341 -0.9518
  774MOL0     H 6783   3.571   6.279   1.376 -2.1040  0.9703 -0.4729
  774MOL0     H 6784   3.725   6.430   1.522  1.0132 -0.2494  1.7441
  774MOL0     H 6785   3.615   6.403   1.652 -0.1737  0.6283 -0.2310
  774MOL0     H 6786   3.740   6.169   1.485 -0.7271 -0.0095 -0.0164
  774MOL0     H 6787   3.649   6.147   1.627  1.7725 -0.7208  2.4708
  774MOL0     H 6788   3.927   6.289   1.619  0.2741 -0.0238 -2.2152
  774MOL0     H 6789   3.900   6.116   1.617 -0.2764  0.1926  0.2721
  774MOL0     H 6790   3.796   6.118   1.833 -0.9601  1.8548  2.6421
  774MOL0     H 6791   3.802   6.299   1.849  1.7871  1.1237 -0.3351
  774MOL0     H 6792   2.954   6.130   1.761  0.3999  0.1059  0.1242
  774MOL0     H 6793   2.716   6.150   1.770  1.3215 -0.9357  0.0712
  774MOL0     H 6794   2.365   6.138   1.657  0.6975  0.9972 -1.6105
  774MOL0     H 6795   2.139   6.075   1.673 -2.0249  1.1033 -0.7354
  774MOL0     H 6796   0.689   5.629   1.177  0.3152  0.0414  0.2144
  774MOL0     H 6797   0.469   5.666   1.319  1.2824  0.4740  0.0040
  774MOL0     H 6798   0.257   5.296   1.730 -2.4078 -1.6024 -0.7389
  774MOL0     H 6799   0.081   5.301   1.881 -2.5859  0.5135  0.7497
  774MOL0     H 6800  -0.123   5.286   1.949 -1.2496 -1.4008 -1.1170
  774MOL0     H 6801  -0.044   5.420   2.030  0.4625 -0.6148 -1.9747
  774MOL0     H 6802  -0.239   5.538   2.086  2.1958 -0.7453  1.0325
  774MOL0     H 6803  -0.261   5.371   2.151  1.9955  0.9983  0.7428
  774MOL0     H 6804  -0.397   5.467   1.897 -2.5379  0.7033  0.9861
  774MOL0     H 6805  -0.412   5.308   1.972  0.1320 -0.6647  2.0675
  774MOL0     H 6806  -0.467   5.559   2.150  2.5022 -1.1743  0.0742
  774MOL0     H 6807  -0.563   5.416   2.139 -0.5383  0.7216 -0.6365
  774MOL0     H 6808  -0.710   5.720   1.875  1.8899 -0.2214 -1.7972
  774MOL0     H 6809  -0.097   5.636   1.670  0.1136 -0.0545  0.0246
  774MOL0     H 6810   0.022   5.741   1.488 -0.3321  0.5185 -2.0314
  774MOL0     H 6811   0.186   5.714   1.457 -0.3262  1.7840  1.2113
  774MOL0     H 6812   0.051   5.612   1.378 -1.0564  2.1826 -0.1875
  775MOL0     O 6813   4.330   8.941  11.015  0.4667 -0.3923  0.0926
  775MOL0     C 6814   4.302   9.058  10.994 -0.6693 -0.0762  0.5744
  775MOL0     O 6815   4.377   9.164  11.046 -0.3222 -0.2986 -0.4124
  775MOL0     C 6816   4.470   9.133  11.139  0.5248  0.5994 -1.0796
  775MOL0     C 6817   4.425   9.110  11.267  0.0087 -0.2624 -0.1309
  775MOL0     C 6818   4.511   9.063  11.365 -0.3041 -0.3614 -0.4115
  775MOL0     C 6819   4.646   9.042  11.333 -0.4981  0.2921  0.6386
  775MOL0     O 6820   4.717   8.981  11.435 -0.5685 -0.6063 -0.0115
  775MOL0     C 6821   4.861   9.010  11.432  0.7594  0.2426 -1.2411
  775MOL0     C 6822   4.934   8.902  11.522 -0.5281  0.8671 -0.9736
  775MOL0     C 6823   5.080   8.942  11.521  0.0410 -0.0741  0.4005
  775MOL0     C 6824   5.154   8.842  11.612  0.3237  0.4651 -0.1491
  775MOL0     C 6825   5.303   8.851  11.594 -0.2058  0.1284 -0.4824
  775MOL0     C 6826   5.386   8.831  11.722 -0.9161 -0.6970 -0.1456
  775MOL0     C 6827   5.536   8.801  11.718  0.9770  0.5649  0.6039
  775MOL0     C 6828   5.566   8.667  11.647 -0.0611  0.3584 -0.5111
  775MOL0     N 6829   5.702   8.617  11.686  0.1694 -0.3036  0.5388
  775MOL0     C 6830   5.737   8.486  11.686 -0.1185 -0.2944 -0.1818
  775MOL0     C 6831   5.871   8.497  11.722  0.9981 -0.4993  0.2499
  775MOL0     C 6832   5.962   8.382  11.744  0.2550  0.4763  0.3416
  775MOL0     C 6833   6.084   8.370  11.643  0.7420 -0.3166 -0.5220
  775MOL0     C 6834   6.182   8.267  11.692 -0.4722  0.0446  0.0897
  775MOL0     C 6835   6.291   8.232  11.590 -0.5619  0.5691  0.0605
  775MOL0     O 6836   6.383   8.344  11.590 -0.0168 -0.0769  0.0329
  775MOL0     C 6837   6.517   8.313  11.583 -0.3429 -0.6627  0.0708
  775MOL0     C 6838   6.573   8.207  11.509  0.8259 -0.2885 -0.9840
  775MOL0     C 6839   6.709   8.175  11.517 -0.7336  0.7009 -0.2362
  775MOL0     C 6840   6.757   8.042  11.467 -0.5087 -0.2924 -1.1575
  775MOL0     C 6841   6.795   8.249  11.602 -0.2324 -0.8701  1.0505
  775MOL0     C 6842   6.941   8.217  11.626 -0.1685 -1.1673 -0.2294
  775MOL0     O 6843   7.023   8.186  11.521  0.0708  0.4356 -0.3910
  775MOL0     C 6844   7.146   8.141  11.546  0.0147 -0.4378  0.1004
  775MOL0     C 6845   7.169   8.027  11.481 -0.6427 -0.3173 -1.1315
  775MOL0     C 6846   7.292   7.960  11.500  0.5431  0.6171  0.6051
  775MOL0     C 6847   7.391   8.014  11.586 -1.0092 -0.8357 -1.1302
  775MOL0     O 6848   7.512   7.949  11.612  0.0543  0.8674  0.1332
  775MOL0     C 6849   7.558   7.878  11.493 -0.1129 -0.5154 -0.4704
  775MOL0     C 6850   7.707   7.886  11.477 -1.0960  0.1957 -0.2979
  775MOL0     C 6851   7.756   7.806  11.354 -0.9873  0.1401 -0.2861
  775MOL0     C 6852   7.902   7.832  11.351 -0.9484 -0.6125  0.4458
  775MOL0     C 6853   7.977   7.733  11.247  0.0077 -0.9718 -1.0325
  775MOL0     C 6854   8.134   7.769  11.253 -1.0046  0.4893  0.7153
  775MOL0     C 6855   8.228   7.665  11.190  0.1517  0.5102 -0.3469
  775MOL0     C 6856   8.363   7.718  11.167  0.0257  0.0008 -0.1821
  775MOL0    Cl 6857   8.468   7.674  11.299 -0.3795  0.4766  0.5995
  775MOL0     C 6858   7.369   8.124  11.658 -0.7192 -0.0973  0.6832
  775MOL0     C 6859   7.246   8.188  11.636  0.1654  0.6902  0.1418
  775MOL0     O 6860   6.978   8.213  11.744 -0.7824 -0.6778  0.4123
  775MOL0     C 6861   6.741   8.353  11.676  0.8552 -0.5105  1.0364
  775MOL0     C 6862   6.606   8.384  11.669 -0.2502  0.3728 -1.4033
  775MOL0     N 6863   5.915   8.627  11.739 -0.0287  0.7608  0.5032
  775MOL0     N 6864   5.807   8.699  11.715  0.4455 -0.2041  0.8702
  775MOL0     C 6865   4.690   9.087  11.207  0.2641  0.0297 -0.0339
  775MOL0     C 6866   4.602   9.130  11.107  0.0703  0.8058 -0.2409
  775MOL0     C 6867   4.191   9.089  10.900  0.0796  0.5853  0.1856
  775MOL0     C 6868   4.187   9.223  10.852 -0.9341 -0.1463 -0.2598
  775MOL0     C 6869   4.087   9.272  10.762 -0.3477  0.8626 -0.6214
  775MOL0     C 6870   4.003   9.179  10.701 -0.3189  0.1982 -1.0138
  775MOL0     O 6871   3.905   9.201  10.613 -0.0357  0.5810  1.0314
  775MOL0     C 6872   3.895   9.341  10.572 -0.3141 -0.3456 -0.0174
  775MOL0     C 6873   3.797   9.347  10.460 -0.1032 -1.1086 -0.0523
  775MOL0     C 6874   3.754   9.495  10.426 -0.1503 -0.0515 -0.2178
  775MOL0     C 6875   3.620   9.528  10.509 -0.7817 -0.2909  0.3840
  775MOL0     C 6876   3.582   9.669  10.493  0.3457  0.0556 -0.4115
  775MOL0     C 6877   3.529   9.775  10.471  0.2688 -0.3506 -1.2619
  775MOL0     C 6878   4.005   9.056  10.757 -0.2439 -0.4556 -0.6603
  775MOL0     C 6879   4.086   9.005  10.862  0.5615  0.4450 -0.7529
  775MOL0     C 6880   4.055   8.870  10.911  1.0378  0.0223 -0.5092
  775MOL0     H 6881   4.319   9.117  11.291  0.3936 -0.8165  1.8619
  775MOL0     H 6882   4.462   9.042  11.459  1.2375 -0.1230  0.4704
  775MOL0     H 6883   4.883   9.112  11.465  0.9807 -0.8597  2.4765
  775MOL0     H 6884   4.916   9.014  11.338  2.8223 -0.4131 -0.1093
  775MOL0     H 6885   4.900   8.908  11.626 -1.5797 -1.0630 -1.1505
  775MOL0     H 6886   4.914   8.806  11.474 -1.2922 -0.9731  2.6423
  775MOL0     H 6887   5.127   8.926  11.423  0.4635 -1.1322  0.7579
  775MOL0     H 6888   5.099   9.046  11.547 -2.2785 -0.2327  3.2170
  775MOL0     H 6889   5.128   8.862  11.716  0.6357  0.7470 -0.1254
  775MOL0     H 6890   5.128   8.741  11.579  2.2646 -0.1116 -0.0420
  775MOL0     H 6891   5.336   8.951  11.563 -0.2659 -0.3891 -2.2799
  775MOL0     H 6892   5.335   8.781  11.517  3.1093  0.3920  0.4771
  775MOL0     H 6893   5.369   8.909  11.797  2.5425 -1.0317  1.1763
  775MOL0     H 6894   5.345   8.751  11.785 -3.7285  0.6700 -0.0454
  775MOL0     H 6895   5.574   8.800  11.820  0.5928  0.2975  0.7472
  775MOL0     H 6896   5.593   8.879  11.667  2.7880 -0.6846  0.6261
  775MOL0     H 6897   5.494   8.586  11.662  2.5570 -2.2610 -1.1216
  775MOL0     H 6898   5.577   8.679  11.539  0.4058 -0.3903 -0.5606
  775MOL0     H 6899   5.677   8.397  11.670  1.9274 -1.6854 -0.4813
  775MOL0     H 6900   5.906   8.289  11.729  2.0525 -0.3002 -2.4578
  775MOL0     H 6901   5.994   8.401  11.847 -2.1557  3.0856  0.6994
  775MOL0     H 6902   6.043   8.346  11.545  0.9125 -1.7527 -0.2667
  775MOL0     H 6903   6.131   8.468  11.632 -1.6825  0.8775 -0.8885
  775MOL0     H 6904   6.238   8.307  11.776  1.0857 -1.2642 -0.2898
  775MOL0     H 6905   6.129   8.176  11.723  0.7788 -2.7769 -4.8571
  775MOL0     H 6906   6.334   8.135  11.616 -0.5166  0.3724 -0.7245
  775MOL0     H 6907   6.244   8.222  11.492  0.1478 -0.9879 -0.1492
  775MOL0     H 6908   6.506   8.149  11.447 -2.4100  1.9436  0.1768
  775MOL0     H 6909   6.840   8.067  11.400 -0.8074  2.2090 -0.6998
  775MOL0     H 6910   6.688   7.989  11.400 -2.8124 -3.7692  3.3764
  775MOL0     H 6911   6.789   7.965  11.538 -0.6310 -0.0299 -0.8133
  775MOL0     H 6912   7.094   7.981  11.417 -3.1403  0.9000  0.7751
  775MOL0     H 6913   7.300   7.874  11.433 -0.0642  0.3017  0.9307
  775MOL0     H 6914   7.528   7.774  11.510  2.8596 -1.5012 -0.4894
  775MOL0     H 6915   7.527   7.921  11.398 -0.9321  1.3383  0.5756
  775MOL0     H 6916   7.724   7.994  11.470 -2.6278  0.3725 -2.2298
  775MOL0     H 6917   7.766   7.851  11.562  1.0266  3.2913 -0.3109
  775MOL0     H 6918   7.699   7.840  11.267 -3.2426  3.7099  2.2609
  775MOL0     H 6919   7.746   7.697  11.360 -0.7728  0.1172 -0.3323
  775MOL0     H 6920   7.952   7.824  11.448 -0.4649  1.2089  0.3851
  775MOL0     H 6921   7.922   7.932  11.313  0.7941 -1.3000 -0.5535
  775MOL0     H 6922   7.959   7.629  11.276 -4.8507  0.5328  2.5849
  775MOL0     H 6923   7.937   7.743  11.146 -1.4767  1.0080 -0.3057
  775MOL0     H 6924   8.155   7.783  11.359 -1.2086  1.4111  0.6465
  775MOL0     H 6925   8.155   7.866  11.206  0.5402 -0.8101 -1.4558
  775MOL0     H 6926   8.197   7.635  11.090  1.8152  0.5709 -0.9138
  775MOL0     H 6927   8.219   7.578  11.257 -2.1157  2.1631  1.6942
  775MOL0     H 6928   8.370   7.826  11.149  2.7410 -0.3371 -1.7046
  775MOL0     H 6929   8.405   7.678  11.074  0.9963  3.2557 -1.3066
  775MOL0     H 6930   7.448   8.166  11.720  0.4703  1.8762 -1.9726
  775MOL0     H 6931   7.228   8.286  11.679 -1.8324 -0.0025  1.0365
  775MOL0     H 6932   6.805   8.399  11.751 -0.9049 -0.3090  2.4712
  775MOL0     H 6933   6.577   8.469  11.730  1.6542  1.6588 -2.1958
  775MOL0     H 6934   4.795   9.070  11.184  1.0014  1.2453  2.1180
  775MOL0     H 6935   4.630   9.147  11.004  1.0964  1.6008  0.1452
  775MOL0     H 6936   4.263   9.296  10.882 -0.1774 -0.2273 -1.8768
  775MOL0     H 6937   4.094   9.377  10.734  1.4012  1.3253  1.3142
  775MOL0     H 6938   3.870   9.396  10.663  1.2339 -0.3208  0.4124
  775MOL0     H 6939   3.987   9.380  10.528  0.6313 -1.2971  1.0514
  775MOL0     H 6940   3.707   9.287  10.475 -0.3642 -0.7735 -0.2515
  775MOL0     H 6941   3.850   9.311  10.372  2.6749 -1.1217  1.5131
  775MOL0     H 6942   3.841   9.552  10.461  1.7444 -2.6562 -0.3607
  775MOL0     H 6943   3.734   9.494  10.319  1.1852 -1.1725 -0.4848
  775MOL0     H 6944   3.625   9.516  10.618 -0.8812 -0.4509  0.3715
  775MOL0     H 6945   3.541   9.455  10.485  0.5661 -1.6424 -0.1195
  775MOL0     H 6946   3.480   9.870  10.462 -1.0053 -0.5660  1.9345
  775MOL0     H 6947   3.929   8.987  10.724 -1.8862  0.9783 -0.0287
  775MOL0     H 6948   4.114   8.796  10.857  1.9397  1.3717 -1.4329
  775MOL0     H 6949   4.075   8.842  11.015 -2.4160  4.2665  1.6165
  775MOL0     H 6950   3.950   8.853  10.886  0.5489  2.2728 -0.2055
  776MOL0     O 6951   8.695   0.868   1.553  0.1072 -0.3420  0.5561
  776MOL0     C 6952   8.690   0.750   1.565  0.7378  0.5432 -0.1849
  776MOL0     O 6953   8.702   0.681   1.683 -0.1557 -0.6659  0.1130
  776MOL0     C 6954   8.746   0.756   1.787  0.8506 -0.6156  0.0012
  776MOL0     C 6955   8.853   0.850   1.786  0.5844 -0.3176 -0.2898
  776MOL0     C 6956   8.900   0.915   1.900 -0.4227  0.1224  0.2333
  776MOL0     C 6957   8.850   0.891   2.025 -0.2662 -0.0541 -0.4138
  776MOL0     O 6958   8.902   0.944   2.142  0.2450 -0.6314  0.4529
  776MOL0     C 6959   9.042   0.960   2.155  0.6955  0.5105 -0.2657
  776MOL0     C 6960   9.084   0.962   2.301 -0.0128 -0.2301 -0.3404
  776MOL0     C 6961   9.218   1.022   2.313 -0.4706 -0.1245  0.9387
  776MOL0     C 6962   9.257   1.011   2.454  0.2032  0.2687  0.7732
  776MOL0     C 6963   9.388   1.086   2.492 -0.4125  0.1537  0.7561
  776MOL0     C 6964   9.370   1.240   2.518 -0.6642  0.0420  0.4030
  776MOL0     C 6965   9.500   1.292   2.577 -0.0583  0.7682 -1.1454
  776MOL0     C 6966   9.545   1.231   2.713  0.1290 -0.7071  0.0962
  776MOL0     N 6967   9.628   1.320   2.786 -0.9689 -0.0513 -0.8961
  776MOL0     C 6968   9.757   1.349   2.752 -0.4825 -0.6679  0.1300
  776MOL0     C 6969   9.810   1.412   2.857  0.4373 -0.2569  0.7847
  776MOL0     C 6970   9.952   1.454   2.867 -0.7578  0.0247 -0.0775
  776MOL0     C 6971   9.965   1.601   2.819  0.1376 -0.2962  0.2186
  776MOL0     C 6972   9.877   1.686   2.910 -0.0348 -0.3146 -0.1146
  776MOL0     C 6973   9.929   1.833   2.911 -0.0430  0.5305  0.0130
  776MOL0     O 6974   9.937   1.885   2.779 -0.7017 -0.2333 -0.3335
  776MOL0     C 6975   9.977   2.013   2.755  0.6121 -0.2223  0.8481
  776MOL0     C 6976  10.013   2.104   2.858 -0.3731 -0.1446  0.0355
  776MOL0     C 6977  10.068   2.228   2.827 -0.6310  0.1752 -0.0194
  776MOL0     C 6978  10.107   2.317   2.936 -0.3387 -0.0573  0.4203
  776MOL0     C 6979  10.089   2.272   2.697 -0.1230 -0.3057  0.0066
  776MOL0     C 6980  10.158   2.395   2.649  0.9514  0.2590  0.5900
  776MOL0     O 6981  10.216   2.476   2.741  0.1923 -0.1412 -0.0643
  776MOL0     C 6982  10.329   2.541   2.703 -0.3727  0.5455 -0.0940
  776MOL0     C 6983  10.311   2.670   2.659  0.9656 -0.7701 -0.0529
  776MOL0     C 6984  10.415   2.745   2.603  0.2290 -0.3020 -0.1774
  776MOL0     C 6985  10.537   2.687   2.582 -0.0845  0.1008 -0.2389
  776MOL0     O 6986  10.641   2.759   2.528  1.2700 -0.4443  0.5013
  776MOL0     C 6987  10.660   2.896   2.578 -0.9849  0.2443 -0.4986
  776MOL0     C 6988  10.789   2.970   2.529  0.1025  0.0621 -0.4680
  776MOL0     C 6989  10.920   2.898   2.559  0.6135  0.5895 -0.1629
  776MOL0     C 6990  11.028   2.976   2.474 -0.5473  0.2365 -0.3016
  776MOL0     C 6991  11.175   2.922   2.485 -0.8050 -0.2749 -0.4698
  776MOL0     C 6992  11.240   2.949   2.620  0.1933 -0.0536 -0.5852
  776MOL0     C 6993  11.381   2.910   2.626 -0.4691  0.0370  0.0942
  776MOL0     C 6994  11.430   2.908   2.765 -0.7057  0.4169  0.3492
  776MOL0    Cl 6995  11.390   2.758   2.859  0.2467  0.0179  0.3651
  776MOL0     C 6996  10.556   2.558   2.630  1.1641  0.0482 -0.5102
  776MOL0     C 6997  10.455   2.484   2.687  0.0642 -0.3204 -0.0074
  776MOL0     O 6998  10.148   2.414   2.527 -0.6968  0.1687  1.1919
  776MOL0     C 6999  10.058   2.174   2.597  0.2104  0.4357 -0.9278
  776MOL0     C 7000   9.998   2.051   2.625 -0.6637 -0.4844 -0.4426
  776MOL0     N 7001   9.702   1.418   2.953  0.0071 -0.1373  0.3049
  776MOL0     N 7002   9.596   1.361   2.912  0.2709  0.4597  0.9288
  776MOL0     C 7003   8.740   0.795   2.033  0.2664 -0.3381 -0.1279
  776MOL0     C 7004   8.696   0.723   1.916  0.5367 -0.8043 -0.1047
  776MOL0     C 7005   8.634   0.664   1.446 -0.3462 -0.6058 -0.9990
  776MOL0     C 7006   8.555   0.557   1.465  0.1108 -0.4922 -0.1499
  776MOL0     C 7007   8.486   0.489   1.358 -0.2558  0.6654 -0.8381
  776MOL0     C 7008   8.496   0.541   1.227  0.4976  0.6966 -0.7923
  776MOL0     O 7009   8.433   0.494   1.122 -0.2637  0.5740  0.6001
  776MOL0     C 7010   8.293   0.481   1.124  0.4417 -0.1164  0.3101
  776MOL0     C 7011   8.243   0.411   1.002 -0.2736  0.1014  0.2876
  776MOL0     C 7012   8.117   0.320   1.044  0.7538 -0.5382  0.3798
  776MOL0     C 7013   8.081   0.223   0.926  0.4987 -0.7212  0.0787
  776MOL0     C 7014   8.027   0.291   0.813  0.6853 -0.1667  0.0175
  776MOL0     C 7015   7.995   0.341   0.704 -0.0391 -0.4723 -0.0089
  776MOL0     C 7016   8.578   0.652   1.207  0.0461  0.4370  0.5761
  776MOL0     C 7017   8.644   0.709   1.307  0.5126 -0.1784  0.5286
  776MOL0     C 7018   8.715   0.836   1.272  0.5427  0.5142  0.8894
  776MOL0     H 7019   8.897   0.875   1.690  0.4599  1.6381  0.1244
  776MOL0     H 7020   8.986   0.979   1.882  0.1269  0.0139  2.2247
  776MOL0     H 7021   9.059   1.060   2.114 -0.9287  1.9535  2.3281
  776MOL0     H 7022   9.098   0.882   2.102 -0.5983 -1.4710  1.1402
  776MOL0     H 7023   9.020   1.023   2.365  1.9013  1.4718  0.0578
  776MOL0     H 7024   9.090   0.860   2.339 -0.6328 -0.8163 -1.7476
  776MOL0     H 7025   9.286   0.968   2.246 -0.3400  0.0952  0.8912
  776MOL0     H 7026   9.217   1.125   2.278  0.5414 -0.7941 -1.2940
  776MOL0     H 7027   9.176   1.037   2.523  0.6291  0.0681  1.3593
  776MOL0     H 7028   9.282   0.907   2.477  1.7164  0.5173  0.3205
  776MOL0     H 7029   9.461   1.063   2.414  0.7694 -1.5741  2.3118
  776MOL0     H 7030   9.427   1.038   2.581  2.0446 -1.8654 -1.2565
  776MOL0     H 7031   9.348   1.279   2.418  0.9526 -1.1525 -0.4726
  776MOL0     H 7032   9.287   1.264   2.585  0.0072 -1.2981  1.7821
  776MOL0     H 7033   9.482   1.399   2.590 -0.8387  0.5493 -0.3466
  776MOL0     H 7034   9.585   1.276   2.510  2.9012  0.3127  2.3858
  776MOL0     H 7035   9.458   1.202   2.773 -0.2596  1.1115  0.4602
  776MOL0     H 7036   9.607   1.144   2.688  2.1439  1.0631 -1.4022
  776MOL0     H 7037   9.807   1.312   2.663 -1.8777  0.0066 -0.9662
  776MOL0     H 7038  10.020   1.392   2.807 -0.2241  1.6008 -1.1693
  776MOL0     H 7039   9.979   1.444   2.973 -1.9252 -0.5376  0.1842
  776MOL0     H 7040  10.066   1.643   2.810  0.3465 -0.9644 -0.7399
  776MOL0     H 7041   9.916   1.604   2.721  2.7029 -4.6551 -1.4772
  776MOL0     H 7042   9.778   1.689   2.865 -1.1468  1.2817  2.2393
  776MOL0     H 7043   9.870   1.658   3.016  3.4956  1.0527  0.6388
  776MOL0     H 7044   9.861   1.891   2.974 -0.2584  0.4353 -0.1289
  776MOL0     H 7045  10.021   1.829   2.969  0.4875 -3.6022 -0.8008
  776MOL0     H 7046  10.004   2.072   2.961 -2.1525  0.0027 -0.0446
  776MOL0     H 7047  10.215   2.303   2.946 -0.1010  0.5923 -0.9136
  776MOL0     H 7048  10.047   2.275   3.017  0.5627 -0.2433  1.0047
  776MOL0     H 7049  10.070   2.420   2.929 -0.0523 -0.0174 -0.7676
  776MOL0     H 7050  10.209   2.707   2.665  1.5516  0.6653  2.4070
  776MOL0     H 7051  10.397   2.845   2.565 -1.3052  0.6890  2.8338
  776MOL0     H 7052  10.570   2.951   2.548 -1.7089 -1.7003 -2.2075
  776MOL0     H 7053  10.673   2.895   2.686  1.2970 -3.0618 -0.6438
  776MOL0     H 7054  10.782   2.981   2.421  1.1807  2.1557 -0.3772
  776MOL0     H 7055  10.778   3.071   2.570 -3.5774  0.3968 -1.8912
  776MOL0     H 7056  10.913   2.795   2.523  2.8423 -0.0921  1.1594
  776MOL0     H 7057  10.946   2.906   2.665  1.4810  1.3552 -0.4142
  776MOL0     H 7058  11.031   3.083   2.494 -1.5582  0.1246  0.4928
  776MOL0     H 7059  11.010   2.955   2.368 -0.0077  1.2290 -0.6032
  776MOL0     H 7060  11.172   2.814   2.474  0.5463 -0.1649 -2.3437
  776MOL0     H 7061  11.236   2.969   2.407 -1.0689  1.6017  0.4010
  776MOL0     H 7062  11.187   2.892   2.697 -0.8448 -1.6604 -2.3910
  776MOL0     H 7063  11.230   3.057   2.630  3.0082  0.3744 -1.3900
  776MOL0     H 7064  11.439   2.968   2.553 -1.9655 -2.2137 -3.1369
  776MOL0     H 7065  11.390   2.811   2.580  1.0907  0.9716 -1.7494
  776MOL0     H 7066  11.392   2.994   2.821 -3.9904 -1.1356  0.7250
  776MOL0     H 7067  11.539   2.917   2.761 -0.8262  2.2205  0.0265
  776MOL0     H 7068  10.649   2.509   2.605  1.5960  0.8182 -0.4355
  776MOL0     H 7069  10.486   2.383   2.714  2.3115  0.2470 -0.2774
  776MOL0     H 7070  10.104   2.190   2.500 -0.2458  0.8947 -1.0716
  776MOL0     H 7071   9.976   2.004   2.530 -3.5371 -0.5364  0.1703
  776MOL0     H 7072   8.688   0.761   2.122 -1.5210 -2.1966 -1.7825
  776MOL0     H 7073   8.613   0.653   1.915 -2.1000  1.9927 -2.8600
  776MOL0     H 7074   8.532   0.517   1.563 -1.9955  0.3833 -0.2434
  776MOL0     H 7075   8.417   0.412   1.389  0.6046 -0.4178 -1.4910
  776MOL0     H 7076   8.262   0.420   1.209 -1.6945 -0.7611 -0.8590
  776MOL0     H 7077   8.244   0.579   1.123  1.8694  0.6275  0.1811
  776MOL0     H 7078   8.326   0.350   0.965  0.2352  1.4086 -0.8223
  776MOL0     H 7079   8.218   0.487   0.928  1.1679  0.4914  0.1646
  776MOL0     H 7080   8.153   0.257   1.125  1.6423  0.4611  0.7914
  776MOL0     H 7081   8.037   0.378   1.089  0.4658  1.1759 -2.1283
  776MOL0     H 7082   8.001   0.156   0.960 -0.1102  0.7074  1.5901
  776MOL0     H 7083   8.165   0.157   0.905  0.7238 -0.1098 -1.0554
  776MOL0     H 7084   7.964   0.391   0.614  0.6629  1.6188  0.8466
  776MOL0     H 7085   8.576   0.692   1.106 -2.3149 -1.3000 -0.1548
  776MOL0     H 7086   8.655   0.920   1.307  2.8536  1.1567  3.7036
  776MOL0     H 7087   8.809   0.840   1.328 -0.4099 -2.6314  3.0332
  776MOL0     H 7088   8.737   0.856   1.167  3.0088  0.9738  1.4371
  777MOL0     O 7089  10.965   7.217   3.170  0.2913  0.3344  0.3705
  777MOL0     C 7090  10.931   7.301   3.086 -0.4453  0.0087 -0.3062
  777MOL0     O 7091  11.009   7.364   2.990 -0.2496  0.8488  0.4540
  777MOL0     C 7092  11.146   7.352   3.003  0.0382  0.8157  0.3802
  777MOL0     C 7093  11.210   7.299   2.897 -0.3575  0.2565  0.1828
  777MOL0     C 7094  11.355   7.278   2.894  0.7976  1.1413  0.1691
  777MOL0     C 7095  11.424   7.302   3.008  0.8727  0.1980 -0.2346
  777MOL0     O 7096  11.546   7.262   3.038 -0.1536  0.5035 -0.6535
  777MOL0     C 7097  11.645   7.241   2.935  0.6191  0.3186  0.3949
  777MOL0     C 7098  11.779   7.260   2.986  0.1819 -0.4474  0.7450
  777MOL0     C 7099  11.835   7.144   3.072 -0.1238 -0.3312  0.5260
  777MOL0     C 7100  11.991   7.127   3.035  0.0788  0.1091  0.2109
  777MOL0     C 7101  12.073   7.258   3.087  0.0338  0.1780 -0.2140
  777MOL0     C 7102  12.214   7.232   3.135  0.0656  0.0591  0.0580
  777MOL0     C 7103  12.306   7.165   3.034  0.2501 -0.5351 -0.4414
  777MOL0     C 7104  12.406   7.079   3.107 -0.7639 -0.3739  0.2191
  777MOL0     N 7105  12.536   7.082   3.037 -0.2755 -0.8387 -1.1555
  777MOL0     C 7106  12.597   6.974   2.978 -0.1680 -1.0995  0.2499
  777MOL0     C 7107  12.706   7.024   2.919  0.1058 -0.2461 -0.5557
  777MOL0     C 7108  12.813   6.952   2.837  0.4940 -0.0145  0.1837
  777MOL0     C 7109  12.944   7.027   2.799 -0.4333 -0.6220 -0.3685
  777MOL0     C 7110  13.047   6.937   2.735  0.0121 -0.8056 -0.2716
  777MOL0     C 7111  13.181   7.004   2.706  0.0090 -0.5759  0.0940
  777MOL0     O 7112  13.266   6.905   2.650 -0.3074  0.6966 -0.2574
  777MOL0     C 7113  13.375   6.970   2.600 -0.1504  0.8574  0.3995
  777MOL0     C 7114  13.372   7.007   2.471 -0.2933 -0.0298  0.1275
  777MOL0     C 7115  13.488   7.074   2.409  0.3523  0.2810  0.2918
  777MOL0     C 7116  13.467   7.134   2.268  0.6112  0.9931  0.1633
  777MOL0     C 7117  13.618   7.080   2.468 -0.2513 -0.1764  0.0522
  777MOL0     C 7118  13.745   7.127   2.400  0.0557 -0.4034  0.0614
  777MOL0     O 7119  13.736   7.189   2.282 -0.2945  0.2407 -0.3723
  777MOL0     C 7120  13.855   7.245   2.236  0.0202  0.1898  0.1503
  777MOL0     C 7121  13.876   7.376   2.266 -0.5778 -0.0850 -0.2397
  777MOL0     C 7122  13.981   7.442   2.216 -0.2689 -0.4698 -0.4075
  777MOL0     C 7123  14.076   7.389   2.130  0.8938  0.6533  0.1813
  777MOL0     O 7124  14.178   7.471   2.088 -0.4601 -0.5036  0.1382
  777MOL0     C 7125  14.265   7.518   2.192 -0.3584  0.0504  0.7117
  777MOL0     C 7126  14.389   7.430   2.188  0.8906  1.2480 -0.3450
  777MOL0     C 7127  14.501   7.469   2.282  0.3895  0.3924  0.4246
  777MOL0     C 7128  14.585   7.593   2.236  0.5579 -0.0676  0.8332
  777MOL0     C 7129  14.730   7.549   2.193 -0.3253 -0.4262  0.5601
  777MOL0     C 7130  14.815   7.668   2.145 -0.0422 -0.1185 -1.0244
  777MOL0     C 7131  14.952   7.618   2.087  0.1690 -0.5365 -0.2976
  777MOL0     C 7132  14.952   7.596   1.939 -0.5948 -0.4548  0.1060
  777MOL0    Cl 7133  15.124   7.593   1.887 -0.4293  0.1671  0.1391
  777MOL0     C 7134  14.051   7.261   2.080 -0.0471 -0.5525  0.2043
  777MOL0     C 7135  13.943   7.189   2.140  0.3975 -0.0333  0.3249
  777MOL0     O 7136  13.852   7.095   2.460  0.6061 -1.0548 -0.1214
  777MOL0     C 7137  13.623   7.027   2.602  0.3508 -0.1478  0.5652
  777MOL0     C 7138  13.501   6.976   2.668 -0.3099  0.1207  0.4140
  777MOL0     N 7139  12.715   7.160   2.948 -0.4221 -0.4344 -0.1286
  777MOL0     N 7140  12.612   7.193   3.023  0.2837  0.4143 -0.6900
  777MOL0     C 7141  11.359   7.372   3.109  0.4058  0.2766 -0.9873
  777MOL0     C 7142  11.221   7.390   3.117  0.1713  0.0293  0.3910
  777MOL0     C 7143  10.788   7.337   3.074 -0.1874 -0.3275 -0.8995
  777MOL0     C 7144  10.750   7.400   2.959  0.4012  1.3645  0.1114
  777MOL0     C 7145  10.624   7.395   2.914  0.5228 -1.3097 -1.1567
  777MOL0     C 7146  10.529   7.371   3.008  0.0167  0.2375 -1.0898
  777MOL0     O 7147  10.397   7.393   2.964 -0.2018  0.4963  0.0150
  777MOL0     C 7148  10.301   7.447   3.057  1.1342 -0.0302 -0.2368
  777MOL0     C 7149  10.170   7.476   2.979 -0.6513  0.5525 -0.7931
  777MOL0     C 7150  10.065   7.572   3.037  0.1086  0.5574  0.0406
  777MOL0     C 7151   9.971   7.501   3.140 -0.1479  0.7323  0.3395
  777MOL0     C 7152   9.876   7.604   3.185  0.3758  0.3808 -1.3134
  777MOL0     C 7153   9.774   7.664   3.214 -0.1487 -0.3589 -0.3071
  777MOL0     C 7154  10.560   7.345   3.147  0.1477  0.6530  0.3117
  777MOL0     C 7155  10.693   7.312   3.180  0.2361  0.4139 -0.7373
  777MOL0     C 7156  10.723   7.267   3.323  0.1345 -0.3794 -0.9552
  777MOL0     H 7157  11.154   7.271   2.808  0.6687  2.8437 -1.3808
  777MOL0     H 7158  11.404   7.237   2.806 -0.7257  1.4233 -0.8513
  777MOL0     H 7159  11.631   7.308   2.849 -2.7061 -0.5623  0.1305
  777MOL0     H 7160  11.634   7.140   2.895  1.3951  0.9431 -1.5157
  777MOL0     H 7161  11.842   7.257   2.897 -0.6979  0.0382  0.0887
  777MOL0     H 7162  11.793   7.358   3.033 -0.2608 -0.1239  0.2139
  777MOL0     H 7163  11.827   7.159   3.180  0.4999 -2.4892  0.9243
  777MOL0     H 7164  11.784   7.050   3.047  1.5345 -1.9726  2.8811
  777MOL0     H 7165  12.020   7.035   3.086  1.3821  0.1882 -0.3611
  777MOL0     H 7166  11.998   7.111   2.928 -0.1194 -0.0713  0.2253
  777MOL0     H 7167  12.023   7.321   3.160 -4.4463 -1.7327 -1.3410
  777MOL0     H 7168  12.089   7.328   3.003  1.3008  1.4969  1.0568
  777MOL0     H 7169  12.260   7.327   3.163  0.8415  1.1774 -4.2664
  777MOL0     H 7170  12.200   7.169   3.222  2.3586 -1.9045 -0.8845
  777MOL0     H 7171  12.343   7.252   2.978 -0.6839  0.8916  1.0411
  777MOL0     H 7172  12.243   7.108   2.965  0.3556  0.0329 -1.0174
  777MOL0     H 7173  12.423   7.116   3.208  1.2274  0.0111 -0.2146
  777MOL0     H 7174  12.359   6.981   3.114  3.0079 -2.4515 -0.7593
  777MOL0     H 7175  12.554   6.875   2.966 -0.2252 -0.7869 -3.4411
  777MOL0     H 7176  12.769   6.927   2.740 -2.2043 -0.0714  1.3292
  777MOL0     H 7177  12.826   6.868   2.906  0.3197  0.6214  1.0119
  777MOL0     H 7178  12.934   7.118   2.739  1.8846 -0.4005 -0.5322
  777MOL0     H 7179  12.987   7.060   2.894 -0.4218  0.5993 -0.7830
  777MOL0     H 7180  13.073   6.849   2.793  1.4834 -0.8993 -1.0430
  777MOL0     H 7181  12.995   6.893   2.649  1.5507  0.5402 -1.9678
  777MOL0     H 7182  13.169   7.090   2.639  1.8399 -2.4140 -2.7960
  777MOL0     H 7183  13.228   7.049   2.794 -1.8715  1.6850  0.0742
  777MOL0     H 7184  13.274   6.997   2.426 -0.7944  1.6609  0.7761
  777MOL0     H 7185  13.363   7.163   2.249  0.9031  0.5748 -2.5112
  777MOL0     H 7186  13.494   7.064   2.188 -1.2710  2.4517 -1.8751
  777MOL0     H 7187  13.520   7.230   2.267 -1.1183  2.1403  3.2700
  777MOL0     H 7188  13.797   7.429   2.318 -0.6775  0.5858 -1.0476
  777MOL0     H 7189  13.994   7.548   2.238 -0.6409 -0.9135  2.2977
  777MOL0     H 7190  14.283   7.620   2.157 -0.6404 -1.2044 -3.6935
  777MOL0     H 7191  14.217   7.521   2.290  1.0920  2.0927  1.4349
  777MOL0     H 7192  14.353   7.332   2.222  1.2056  1.6699  1.2459
  777MOL0     H 7193  14.422   7.419   2.084 -1.3666  1.7485 -1.1761
  777MOL0     H 7194  14.563   7.381   2.305  0.5100  0.3919  0.1109
  777MOL0     H 7195  14.453   7.499   2.375 -2.5213  4.0759 -1.9707
  777MOL0     H 7196  14.590   7.665   2.318  2.9391  0.8390 -0.0011
  777MOL0     H 7197  14.539   7.644   2.150 -0.8221  1.5230  2.4328
  777MOL0     H 7198  14.779   7.500   2.278  1.0758 -0.9792 -0.5242
  777MOL0     H 7199  14.728   7.475   2.113  0.3466  0.3395 -0.1860
  777MOL0     H 7200  14.832   7.732   2.232 -0.3519 -1.0795 -0.2348
  777MOL0     H 7201  14.756   7.726   2.073 -3.3236 -1.2094  0.5490
  777MOL0     H 7202  14.984   7.530   2.143  1.1871  2.1486  3.8550
  777MOL0     H 7203  15.020   7.700   2.114 -1.7136  0.1763  2.8055
  777MOL0     H 7204  14.907   7.688   1.900  0.9988  0.8042  1.1280
  777MOL0     H 7205  14.891   7.510   1.908 -1.3372 -0.1020  0.5558
  777MOL0     H 7206  14.110   7.210   2.004 -0.7143 -1.6680  0.4059
  777MOL0     H 7207  13.916   7.093   2.099 -0.5472  1.0351 -1.6640
  777MOL0     H 7208  13.714   7.034   2.660  0.1619 -0.5507  0.9081
  777MOL0     H 7209  13.498   6.936   2.769 -0.4500 -1.1894 -0.0926
  777MOL0     H 7210  11.400   7.401   3.205  0.6957 -0.3805 -0.9035
  777MOL0     H 7211  11.174   7.423   3.209 -1.0572 -1.1523  0.2173
  777MOL0     H 7212  10.822   7.428   2.883 -0.4743  0.0442 -1.2533
  777MOL0     H 7213  10.594   7.420   2.813 -1.5409  5.0699  0.5573
  777MOL0     H 7214  10.267   7.388   3.142  0.8972  1.0424  0.4263
  777MOL0     H 7215  10.351   7.539   3.090  1.9727 -0.1862 -1.0325
  777MOL0     H 7216  10.114   7.387   2.950  0.8280 -0.2972 -1.1021
  777MOL0     H 7217  10.204   7.534   2.893  1.1992  3.5290  1.7150
  777MOL0     H 7218  10.120   7.655   3.083  2.0920  1.6098 -3.8695
  777MOL0     H 7219  10.000   7.610   2.958  0.8580  0.3872 -0.6649
  777MOL0     H 7220  10.020   7.470   3.233 -1.6647  1.4625  1.4165
  777MOL0     H 7221   9.919   7.415   3.098  0.9645  0.5258 -0.6586
  777MOL0     H 7222   9.688   7.719   3.246  0.8203  2.9634 -2.8159
  777MOL0     H 7223  10.479   7.324   3.217 -0.1755 -0.1806 -0.2939
  777MOL0     H 7224  10.780   7.349   3.367 -1.2463  1.7842 -2.9066
  777MOL0     H 7225  10.637   7.259   3.390  1.3546 -0.4863  0.6685
  777MOL0     H 7226  10.773   7.172   3.340 -0.3656 -0.1721  2.1770
  778MOL0     O 7227   2.790   7.165   9.875 -0.0508 -0.3835  0.0566
  778MOL0     C 7228   2.738   7.057   9.908 -0.6210  0.2133  0.0006
  778MOL0     O 7229   2.806   6.963   9.971  0.0325  0.1333 -0.9038
  778MOL0     C 7230   2.926   6.996  10.026 -0.1695 -0.3668  0.2634
  778MOL0     C 7231   2.941   7.068  10.144  0.1843 -0.6025 -0.0446
  778MOL0     C 7232   3.066   7.109  10.188  0.7641 -0.8774  0.7631
  778MOL0     C 7233   3.176   7.068  10.121 -0.8437  0.0364  0.4660
  778MOL0     O 7234   3.302   7.081  10.175 -0.9538 -0.0320 -0.2821
  778MOL0     C 7235   3.339   7.223  10.202  0.6597  0.0708 -0.6117
  778MOL0     C 7236   3.494   7.224  10.209  0.7386  0.0385 -0.8256
  778MOL0     C 7237   3.560   7.366  10.210  0.6214 -0.1735 -0.1388
  778MOL0     C 7238   3.698   7.352  10.272 -0.1439 -0.6563 -0.5694
  778MOL0     C 7239   3.786   7.472  10.272  0.0527 -0.5346  0.3895
  778MOL0     C 7240   3.925   7.430  10.328  0.6110 -0.1964 -0.7353
  778MOL0     C 7241   4.024   7.541  10.342 -0.0855 -0.3784  0.2489
  778MOL0     C 7242   4.081   7.599  10.205 -0.2896  0.9541  0.2567
  778MOL0     N 7243   4.181   7.520  10.138  0.0265 -0.3319  0.9663
  778MOL0     C 7244   4.292   7.452  10.185  0.2863  0.1066  0.2054
  778MOL0     C 7245   4.362   7.410  10.074  0.0681  0.2360  0.1584
  778MOL0     C 7246   4.480   7.320  10.087  0.1059 -0.2013 -1.0655
  778MOL0     C 7247   4.614   7.370  10.035 -1.0373  0.3425  0.2557
  778MOL0     C 7248   4.621   7.409   9.889 -0.2820  0.4737 -0.5126
  778MOL0     C 7249   4.552   7.309   9.796 -0.5165 -0.8722 -1.2443
  778MOL0     O 7250   4.619   7.185   9.811  0.2719 -0.2584 -0.7217
  778MOL0     C 7251   4.574   7.083   9.726 -0.1034 -0.1739 -0.1433
  778MOL0     C 7252   4.475   7.094   9.630 -0.0057  0.6299  0.5939
  778MOL0     C 7253   4.443   6.986   9.547 -0.8631  1.4920 -0.0050
  778MOL0     C 7254   4.338   7.007   9.437 -0.5400  0.7724  0.4534
  778MOL0     C 7255   4.490   6.858   9.573  1.0170  0.0207  1.5841
  778MOL0     C 7256   4.451   6.721   9.502  0.1252 -0.6371  0.3026
  778MOL0     O 7257   4.517   6.613   9.541 -0.4781  0.4926  0.2195
  778MOL0     C 7258   4.510   6.492   9.480 -0.5829 -0.4840  0.5197
  778MOL0     C 7259   4.482   6.465   9.343 -0.3574  0.0168  0.3819
  778MOL0     C 7260   4.477   6.335   9.293 -0.3128 -0.1482 -0.1611
  778MOL0     C 7261   4.494   6.230   9.381  0.3612  0.2309 -0.1730
  778MOL0     O 7262   4.486   6.093   9.343 -0.3706  0.5640 -0.0965
  778MOL0     C 7263   4.530   6.050   9.208 -0.4540 -0.4037 -0.2424
  778MOL0     C 7264   4.477   5.909   9.166  1.1516 -0.1770  0.1244
  778MOL0     C 7265   4.335   5.883   9.215 -0.0104 -0.2823  0.0021
  778MOL0     C 7266   4.308   5.738   9.185  0.1800 -0.7888  0.5354
  778MOL0     C 7267   4.230   5.661   9.285 -0.0968  0.5883 -0.6805
  778MOL0     C 7268   4.271   5.661   9.431  0.0422 -0.8879 -0.0071
  778MOL0     C 7269   4.419   5.620   9.440 -0.1037 -0.1217 -0.0870
  778MOL0     C 7270   4.447   5.476   9.385 -0.0257  0.0973 -0.0805
  778MOL0    Cl 7271   4.622   5.422   9.431  0.4546 -0.0291  0.2451
  778MOL0     C 7272   4.544   6.253   9.511 -0.0655 -0.4929  0.0522
  778MOL0     C 7273   4.553   6.386   9.560 -0.1006 -0.1948 -0.0847
  778MOL0     O 7274   4.355   6.719   9.424  0.3301 -0.2385  0.3753
  778MOL0     C 7275   4.589   6.847   9.667 -0.5295 -0.0027 -1.2672
  778MOL0     C 7276   4.637   6.958   9.742 -0.6461 -1.6413  0.8469
  778MOL0     N 7277   4.304   7.466   9.969  0.1794 -0.1852  0.6978
  778MOL0     N 7278   4.194   7.527  10.003 -0.0826  0.1260 -0.1915
  778MOL0     C 7279   3.163   6.997   9.996 -0.4905  1.0288 -0.8910
  778MOL0     C 7280   3.042   6.970   9.949  0.1877  0.8856  0.1399
  778MOL0     C 7281   2.605   7.009   9.865 -0.1251  0.1072  0.1063
  778MOL0     C 7282   2.578   6.872   9.861  0.1532 -0.1176 -0.5155
  778MOL0     C 7283   2.452   6.827   9.828  0.8976  0.7583  0.1632
  778MOL0     C 7284   2.341   6.915   9.802 -0.6730  0.4315  1.2029
  778MOL0     O 7285   2.220   6.857   9.766 -0.1664 -0.7773 -0.2988
  778MOL0     C 7286   2.170   6.738   9.830 -0.4070  0.2768  0.0152
  778MOL0     C 7287   2.017   6.735   9.826 -0.0026 -0.4791  0.3011
  778MOL0     C 7288   1.953   6.673   9.702  1.1891 -0.6257  0.5618
  778MOL0     C 7289   1.808   6.626   9.729  0.0544 -0.3285 -0.1298
  778MOL0     C 7290   1.726   6.743   9.737 -1.1121 -0.4032 -0.0634
  778MOL0     C 7291   1.659   6.842   9.731  0.1872  0.7181  0.7589
  778MOL0     C 7292   2.367   7.046   9.798  0.7887 -0.6093  0.4770
  778MOL0     C 7293   2.504   7.096   9.821 -0.2892  0.1752  0.0069
  778MOL0     C 7294   2.526   7.241   9.786 -0.2514 -0.9977 -0.0578
  778MOL0     H 7295   2.854   7.083  10.207  0.3299  1.3156 -0.2485
  778MOL0     H 7296   3.072   7.148  10.289  0.9521  2.3016 -0.3481
  778MOL0     H 7297   3.297   7.257  10.297 -0.2024 -0.5780 -0.7439
  778MOL0     H 7298   3.309   7.279  10.113 -0.9506  1.2297  0.6025
  778MOL0     H 7299   3.511   7.178  10.307  0.1273  0.2731 -0.6010
  778MOL0     H 7300   3.536   7.158  10.133 -0.4718 -1.6391 -0.1076
  778MOL0     H 7301   3.563   7.408  10.109 -1.0533  2.1268  0.6822
  778MOL0     H 7302   3.498   7.440  10.262 -3.0618 -1.1910 -2.6754
  778MOL0     H 7303   3.697   7.322  10.377  0.7586 -0.4041 -0.4830
  778MOL0     H 7304   3.748   7.262  10.235  0.1779  0.3836 -2.8417
  778MOL0     H 7305   3.738   7.557  10.320  0.6206  0.7532 -1.2444
  778MOL0     H 7306   3.800   7.502  10.168 -0.9240 -1.7403 -0.1257
  778MOL0     H 7307   3.906   7.397  10.430 -1.1227 -1.7020 -1.4825
  778MOL0     H 7308   3.955   7.338  10.277  0.8348 -1.6193  1.7955
  778MOL0     H 7309   4.112   7.506  10.396  1.0220 -0.9284 -1.8228
  778MOL0     H 7310   3.975   7.617  10.403  0.2098  0.6905 -0.7980
  778MOL0     H 7311   4.005   7.609  10.127  0.4597  1.4255 -0.4355
  778MOL0     H 7312   4.129   7.694  10.233 -1.7830  1.7126  0.3687
  778MOL0     H 7313   4.305   7.422  10.288  1.6557  5.0828  1.7686
  778MOL0     H 7314   4.443   7.223  10.053 -1.5412  0.1404 -0.3359
  778MOL0     H 7315   4.498   7.305  10.194  2.9804 -1.5185 -1.6355
  778MOL0     H 7316   4.635   7.460  10.093 -1.8430  1.4861 -1.1641
  778MOL0     H 7317   4.690   7.297  10.064  0.1016  0.8749 -1.2822
  778MOL0     H 7318   4.579   7.510   9.883 -0.7247  0.3897  0.7281
  778MOL0     H 7319   4.726   7.409   9.860 -0.1780 -4.2967 -0.7988
  778MOL0     H 7320   4.447   7.298   9.826 -0.6849 -1.1157 -1.9016
  778MOL0     H 7321   4.554   7.349   9.694  0.2168 -0.2105 -0.9725
  778MOL0     H 7322   4.414   7.182   9.610  0.0523  0.5107 -0.1358
  778MOL0     H 7323   4.250   6.947   9.462  0.2525 -0.4053  0.5254
  778MOL0     H 7324   4.361   6.982   9.333  1.1047 -1.1817  1.2160
  778MOL0     H 7325   4.309   7.112   9.433 -1.9532  0.3723 -0.9926
  778MOL0     H 7326   4.465   6.550   9.279 -0.0754 -0.1827  0.0363
  778MOL0     H 7327   4.470   6.322   9.185 -0.4355  0.4576 -0.2266
  778MOL0     H 7328   4.504   6.127   9.134  0.2023  0.9920  0.9388
  778MOL0     H 7329   4.637   6.034   9.216 -0.7751 -3.0159 -0.4694
  778MOL0     H 7330   4.481   5.898   9.058 -0.7379 -0.3649  0.0371
  778MOL0     H 7331   4.537   5.834   9.219 -0.4315 -1.6556 -0.0779
  778MOL0     H 7332   4.264   5.952   9.169  1.7822  1.3323 -0.4734
  778MOL0     H 7333   4.327   5.904   9.322  0.2531  0.4450 -0.1171
  778MOL0     H 7334   4.402   5.682   9.174 -0.3546 -1.5660 -0.2081
  778MOL0     H 7335   4.258   5.718   9.090  1.0440  0.1756 -0.1423
  778MOL0     H 7336   4.128   5.700   9.285 -0.8111 -0.8161  3.2017
  778MOL0     H 7337   4.217   5.559   9.248  3.0195 -0.9339  1.9354
  778MOL0     H 7338   4.210   5.586   9.482 -2.6310  0.6783 -0.6567
  778MOL0     H 7339   4.256   5.758   9.481  2.6747 -0.1055 -0.5837
  778MOL0     H 7340   4.438   5.622   9.547 -0.1899  0.9050 -0.0801
  778MOL0     H 7341   4.497   5.686   9.399  1.2280  0.1451  2.6664
  778MOL0     H 7342   4.441   5.478   9.276  2.9254  0.7833 -0.3112
  778MOL0     H 7343   4.372   5.407   9.424  0.3562 -0.2845 -0.0119
  778MOL0     H 7344   4.586   6.166   9.560  0.2550  0.0727  0.8295
  778MOL0     H 7345   4.586   6.418   9.658  0.0897 -1.1963  0.1825
  778MOL0     H 7346   4.649   6.758   9.686 -1.5793 -0.2961  1.0185
  778MOL0     H 7347   4.717   6.947   9.815  0.8952  1.1454 -0.2592
  778MOL0     H 7348   3.247   6.979   9.930  0.6483  1.2544  0.4537
  778MOL0     H 7349   3.028   6.900   9.867  0.6456  2.2429 -1.1303
  778MOL0     H 7350   2.653   6.796   9.881  0.6354  0.3289 -0.6023
  778MOL0     H 7351   2.433   6.721   9.835  2.9791  0.4096  1.2153
  778MOL0     H 7352   2.206   6.649   9.777 -2.7669 -0.9449  0.3617
  778MOL0     H 7353   2.201   6.740   9.935  1.0583 -0.1170 -0.3785
  778MOL0     H 7354   1.983   6.839   9.825 -2.3250 -1.1799  0.0225
  778MOL0     H 7355   1.989   6.682   9.918 -0.3189 -0.7315  0.0599
  778MOL0     H 7356   1.966   6.738   9.615 -1.4736 -1.5795 -0.6582
  778MOL0     H 7357   2.002   6.583   9.663  0.4902 -0.0316 -1.8824
  778MOL0     H 7358   1.804   6.566   9.821  1.5286  0.4994  0.5112
  778MOL0     H 7359   1.781   6.572   9.638  0.4688 -0.9223  0.0869
  778MOL0     H 7360   1.608   6.936   9.719  1.6531  1.2318 -2.5927
  778MOL0     H 7361   2.293   7.116   9.762  2.0747  0.3343 -0.3978
  778MOL0     H 7362   2.582   7.246   9.693 -1.4415 -2.7548 -0.9292
  778MOL0     H 7363   2.435   7.295   9.756  0.2682 -0.6389 -1.0420
  778MOL0     H 7364   2.586   7.286   9.866 -1.2331  0.6403 -0.1909
  779MOL0     O 7365   3.529   9.400   3.534  0.6800  0.4214  0.2085
  779MOL0     C 7366   3.618   9.478   3.560  0.1910  0.1192 -0.8589
  779MOL0     O 7367   3.597   9.612   3.591  0.4855  0.1846 -0.6308
  779MOL0     C 7368   3.468   9.664   3.589 -0.2367  1.0558  0.1167
  779MOL0     C 7369   3.410   9.712   3.470 -0.0332  0.0417  0.1438
  779MOL0     C 7370   3.275   9.753   3.466 -0.9018 -0.0862 -0.6802
  779MOL0     C 7371   3.197   9.745   3.582 -0.0116 -0.5849  0.3534
  779MOL0     O 7372   3.072   9.800   3.592  0.4241 -0.1108 -0.0615
  779MOL0     C 7373   3.031   9.916   3.518 -0.1235  0.0554  0.0355
  779MOL0     C 7374   3.129  10.036   3.524 -0.0963 -0.6822  0.0810
  779MOL0     C 7375   3.143  10.099   3.661 -0.2696  0.5866 -0.0874
  779MOL0     C 7376   3.164  10.250   3.647 -1.3476 -0.5729 -0.0190
  779MOL0     C 7377   3.221  10.312   3.773  0.3230  0.3111  0.3363
  779MOL0     C 7378   3.245  10.466   3.762  0.0588 -0.1376 -0.4476
  779MOL0     C 7379   3.298  10.533   3.888 -0.1693 -0.0961 -0.3211
  779MOL0     C 7380   3.453  10.532   3.884 -0.1567 -0.2069 -0.3467
  779MOL0     N 7381   3.514  10.595   4.002  0.0025  1.4641 -0.5551
  779MOL0     C 7382   3.632  10.664   4.009  0.3420  0.2151  0.4262
  779MOL0     C 7383   3.633  10.708   4.134 -0.3815 -0.3213  0.4419
  779MOL0     C 7384   3.751  10.789   4.191 -0.6758 -0.1103 -0.3164
  779MOL0     C 7385   3.785  10.923   4.110 -0.6025  0.5552  0.1302
  779MOL0     C 7386   3.873  11.023   4.189  0.1189 -0.3424 -0.7610
  779MOL0     C 7387   4.017  10.975   4.204 -0.5692 -0.7507  0.4447
  779MOL0     O 7388   4.093  11.058   4.296  0.3458 -0.4312  0.6244
  779MOL0     C 7389   4.230  11.042   4.286  0.1512 -0.6135  0.8598
  779MOL0     C 7390   4.304  10.938   4.226  0.1996 -0.6598 -0.7907
  779MOL0     C 7391   4.445  10.930   4.251  0.0539  0.3831  1.1005
  779MOL0     C 7392   4.502  10.798   4.220  0.2947  0.9366 -0.6926
  779MOL0     C 7393   4.517  11.049   4.286 -0.0775  0.4035 -0.2290
  779MOL0     C 7394   4.658  11.048   4.313 -0.5004 -0.2662  0.1652
  779MOL0     O 7395   4.748  10.980   4.233  0.6065 -0.0283  0.3139
  779MOL0     C 7396   4.881  11.015   4.238 -0.1850 -0.6180 -0.5528
  779MOL0     C 7397   4.970  10.911   4.264 -0.4786 -0.3966  0.5057
  779MOL0     C 7398   5.112  10.924   4.260  0.2522 -0.3572 -0.6071
  779MOL0     C 7399   5.171  11.048   4.223 -0.0153 -0.0573  0.5611
  779MOL0     O 7400   5.306  11.069   4.220 -0.6274 -0.3635  1.1739
  779MOL0     C 7401   5.355  11.192   4.166 -0.5360 -0.7944 -1.1934
  779MOL0     C 7402   5.514  11.179   4.145  0.1043 -1.2387  0.7251
  779MOL0     C 7403   5.569  11.302   4.076  0.2439  0.3511  0.7446
  779MOL0     C 7404   5.708  11.267   4.023 -0.4555  0.3472  0.2366
  779MOL0     C 7405   5.806  11.260   4.150  0.2034 -0.6694  0.2160
  779MOL0     C 7406   5.952  11.275   4.099 -0.2098  0.5077 -0.7869
  779MOL0     C 7407   6.053  11.311   4.202 -0.2295 -0.6779 -0.2167
  779MOL0     C 7408   6.074  11.190   4.284  0.2637  0.3283 -0.2849
  779MOL0    Cl 7409   6.166  11.213   4.434  0.1291 -0.4295  0.2947
  779MOL0     C 7410   5.074  11.150   4.192 -0.6996 -0.8352 -0.6252
  779MOL0     C 7411   4.937  11.138   4.211  0.2343  0.1695  0.6760
  779MOL0     O 7412   4.693  11.104   4.414 -0.1425  0.7345 -0.7917
  779MOL0     C 7413   4.437  11.157   4.322 -0.4668 -0.2787 -0.5918
  779MOL0     C 7414   4.300  11.159   4.322  0.1467 -0.2576 -2.0576
  779MOL0     N 7415   3.529  10.654   4.206 -0.2975 -0.2564  0.1214
  779MOL0     N 7416   3.453  10.588   4.126 -0.7020 -0.0270  0.1480
  779MOL0     C 7417   3.255   9.690   3.696 -0.2617 -0.7729  0.6490
  779MOL0     C 7418   3.385   9.650   3.704 -0.2558 -0.0523  0.9641
  779MOL0     C 7419   3.753   9.413   3.573  0.3109  0.2178 -0.0375
  779MOL0     C 7420   3.769   9.273   3.544  0.4863 -0.5626 -0.4892
  779MOL0     C 7421   3.894   9.213   3.528 -0.6637 -0.1159 -0.1657
  779MOL0     C 7422   4.011   9.284   3.551 -0.0261  0.2874 -0.4060
  779MOL0     O 7423   4.124   9.202   3.559  0.6406  0.3843  0.3991
  779MOL0     C 7424   4.241   9.277   3.569 -0.7371 -0.8115 -0.1755
  779MOL0     C 7425   4.363   9.181   3.567  0.4451  0.0089 -0.9665
  779MOL0     C 7426   4.501   9.242   3.554  0.2381 -0.4023  0.4310
  779MOL0     C 7427   4.562   9.262   3.692 -0.0731 -0.3327  0.3713
  779MOL0     C 7428   4.672   9.355   3.685  0.1617 -0.8096  0.4301
  779MOL0     C 7429   4.780   9.414   3.684  0.1886 -0.0488 -0.1938
  779MOL0     C 7430   3.998   9.419   3.591  0.6365 -0.2334  0.2932
  779MOL0     C 7431   3.874   9.490   3.589 -0.4123  0.9821  0.2834
  779MOL0     C 7432   3.869   9.636   3.618  0.3789 -0.9761 -0.1485
  779MOL0     H 7433   3.477   9.720   3.386  0.0237 -0.1660  0.1693
  779MOL0     H 7434   3.238   9.787   3.369 -1.2526 -1.0570 -0.8935
  779MOL0     H 7435   2.933   9.940   3.562 -1.6994 -1.3428 -2.5020
  779MOL0     H 7436   3.014   9.905   3.411 -1.9240  1.2477  0.1558
  779MOL0     H 7437   3.221  10.019   3.468 -0.2331 -1.6425  0.1246
  779MOL0     H 7438   3.078  10.109   3.461  1.1689  0.5884  0.4866
  779MOL0     H 7439   3.060  10.083   3.730 -1.7418  1.5404 -1.5754
  779MOL0     H 7440   3.236  10.060   3.705 -0.0751  0.0578 -0.9335
  779MOL0     H 7441   3.220  10.278   3.558  0.7343  0.3996  1.5082
  779MOL0     H 7442   3.068  10.300   3.632  0.0118  2.2731  0.1168
  779MOL0     H 7443   3.312  10.254   3.790  1.1930  1.0291 -1.5763
  779MOL0     H 7444   3.141  10.300   3.846  1.6479 -4.0969  1.3448
  779MOL0     H 7445   3.318  10.479   3.681  2.6455  2.6057  2.0909
  779MOL0     H 7446   3.154  10.508   3.719 -0.4747 -0.6008  0.2192
  779MOL0     H 7447   3.259  10.472   3.970 -1.0981  0.2504 -0.5030
  779MOL0     H 7448   3.260  10.634   3.903 -0.5256 -0.5873  2.7453
  779MOL0     H 7449   3.488  10.431   3.861  1.2095  0.7805 -3.1309
  779MOL0     H 7450   3.478  10.586   3.792 -0.9025  0.8408  0.0354
  779MOL0     H 7451   3.700  10.699   3.932 -0.3135  0.4471 -0.0578
  779MOL0     H 7452   3.840  10.726   4.201 -0.5769  0.2118  1.0642
  779MOL0     H 7453   3.717  10.819   4.291 -4.0041 -0.8627 -1.0732
  779MOL0     H 7454   3.845  10.886   4.026 -3.0139  0.7656 -1.7755
  779MOL0     H 7455   3.696  10.974   4.072  0.5831  1.5583 -1.4179
  779MOL0     H 7456   3.871  11.112   4.126 -0.2684 -0.2097 -0.5587
  779MOL0     H 7457   3.833  11.045   4.288  0.0105 -1.6587 -0.4841
  779MOL0     H 7458   4.027  10.870   4.233  4.0293 -0.0150  2.3445
  779MOL0     H 7459   4.069  10.971   4.108  1.4675  0.6004  1.4238
  779MOL0     H 7460   4.250  10.855   4.183  0.2498 -0.6344 -0.9018
  779MOL0     H 7461   4.562  10.766   4.306 -3.4889  0.5855  2.0982
  779MOL0     H 7462   4.550  10.799   4.122 -1.3426 -0.5356 -1.5826
  779MOL0     H 7463   4.421  10.724   4.223  0.8514  0.3470  0.7141
  779MOL0     H 7464   4.938  10.810   4.288 -1.2511 -0.2016  0.3217
  779MOL0     H 7465   5.185  10.846   4.279 -1.0275 -2.3031 -2.9772
  779MOL0     H 7466   5.309  11.231   4.075 -1.7749  2.7467  0.7471
  779MOL0     H 7467   5.344  11.275   4.237 -0.8376 -1.8576  0.0519
  779MOL0     H 7468   5.562  11.163   4.241 -3.2286 -0.4305  2.6872
  779MOL0     H 7469   5.517  11.090   4.082 -1.7365 -0.4633 -0.5757
  779MOL0     H 7470   5.556  11.390   4.139 -1.2132 -0.6632  1.9247
  779MOL0     H 7471   5.522  11.325   3.980  1.8784  0.2130 -0.1396
  779MOL0     H 7472   5.756  11.342   3.958  0.4482  0.1181  0.6258
  779MOL0     H 7473   5.707  11.175   3.963  2.7893  1.1713 -1.3419
  779MOL0     H 7474   5.786  11.339   4.223  1.6486 -1.3364  1.3831
  779MOL0     H 7475   5.791  11.160   4.190 -3.5647 -0.8343 -1.2068
  779MOL0     H 7476   5.960  11.356   4.025 -0.4590  1.6595  0.4208
  779MOL0     H 7477   5.970  11.180   4.047 -2.5522 -0.0548 -0.7113
  779MOL0     H 7478   6.018  11.399   4.256  3.1008  1.1111 -0.6801
  779MOL0     H 7479   6.145  11.335   4.147 -0.0716 -2.2460 -0.6806
  779MOL0     H 7480   6.138  11.126   4.222  3.4355 -0.7656  3.6731
  779MOL0     H 7481   5.986  11.136   4.318  0.8489  1.2904  3.2169
  779MOL0     H 7482   5.096  11.251   4.159 -1.0812 -1.1749 -1.9798
  779MOL0     H 7483   4.865  11.218   4.198  1.0629  0.6226 -1.6277
  779MOL0     H 7484   4.488  11.248   4.351  1.0406 -0.9412 -1.0962
  779MOL0     H 7485   4.241  11.242   4.361  1.7555  0.4350 -1.0040
  779MOL0     H 7486   3.196   9.672   3.785 -2.4561 -0.9148 -0.7611
  779MOL0     H 7487   3.427   9.611   3.796  0.7210 -0.9550  0.1522
  779MOL0     H 7488   3.680   9.212   3.537 -0.3625  0.4406  1.0017
  779MOL0     H 7489   3.896   9.111   3.492 -1.7279 -0.5334  0.8848
  779MOL0     H 7490   4.245   9.335   3.476  0.0366  1.7355  1.3596
  779MOL0     H 7491   4.244   9.344   3.655  0.3712  1.2189 -1.7064
  779MOL0     H 7492   4.349   9.115   3.480  0.4502 -0.5385 -0.5606
  779MOL0     H 7493   4.370   9.114   3.654  2.0391 -0.8400 -1.6880
  779MOL0     H 7494   4.568   9.187   3.488 -0.5731  0.4276 -1.1373
  779MOL0     H 7495   4.474   9.341   3.515 -3.5782 -1.1278  0.8419
  779MOL0     H 7496   4.602   9.164   3.723 -0.9870 -0.6799  0.5043
  779MOL0     H 7497   4.488   9.308   3.759 -0.4447  1.6219 -1.2962
  779MOL0     H 7498   4.876   9.461   3.677  0.4491 -0.7398 -1.5802
  779MOL0     H 7499   4.087   9.474   3.619  0.7695  0.4378 -1.3749
  779MOL0     H 7500   3.964   9.683   3.646 -1.3683  1.5466  1.9319
  779MOL0     H 7501   3.848   9.681   3.521 -2.7007 -2.0403 -0.0831
  779MOL0     H 7502   3.803   9.660   3.701 -0.3621  1.2785 -1.3036
  780MOL0     O 7503   1.658   3.502   7.486  0.3850  0.6502 -0.6025
  780MOL0     C 7504   1.657   3.559   7.382  0.2623  0.6016  0.0535
  780MOL0     O 7505   1.756   3.550   7.281  0.1995 -0.7075 -0.0791
  780MOL0     C 7506   1.864   3.460   7.305  0.9640 -0.3306 -0.6300
  780MOL0     C 7507   1.981   3.514   7.370 -0.6848  0.7705  0.8491
  780MOL0     C 7508   2.095   3.433   7.382  0.2874 -0.0139 -0.4727
  780MOL0     C 7509   2.096   3.303   7.335  0.2775 -0.1269 -0.4970
  780MOL0     O 7510   2.209   3.229   7.363 -0.6954 -0.1848 -0.5995
  780MOL0     C 7511   2.224   3.098   7.308  0.1115  0.9500  0.3160
  780MOL0     C 7512   2.374   3.077   7.328 -1.0538  0.2455  0.1023
  780MOL0     C 7513   2.464   3.170   7.262  1.4390  0.3318 -0.0418
  780MOL0     C 7514   2.610   3.127   7.228 -0.1996 -0.0468  0.6277
  780MOL0     C 7515   2.695   3.237   7.161  0.2500 -0.2783  1.0927
  780MOL0     C 7516   2.752   3.320   7.276 -0.4892  0.0015  0.1216
  780MOL0     C 7517   2.826   3.446   7.225 -0.0295 -0.1122 -0.3721
  780MOL0     C 7518   2.883   3.543   7.332  0.3560  0.1922  0.5090
  780MOL0     N 7519   2.939   3.471   7.448  0.1996  0.2975  0.0308
  780MOL0     C 7520   2.890   3.489   7.574  0.4606  0.0801  0.2658
  780MOL0     C 7521   2.988   3.443   7.648  0.2912 -0.1484 -0.3638
  780MOL0     C 7522   2.983   3.443   7.797 -0.6198  0.6964 -0.5519
  780MOL0     C 7523   3.002   3.586   7.866 -0.2998 -0.3442 -0.2152
  780MOL0     C 7524   3.033   3.590   8.020 -0.4016  0.4102  0.2169
  780MOL0     C 7525   3.162   3.527   8.052  0.6791  0.3042 -0.2706
  780MOL0     O 7526   3.270   3.581   7.963 -0.7463  0.0686  0.5989
  780MOL0     C 7527   3.400   3.607   8.021  0.5512 -0.7668 -0.9390
  780MOL0     C 7528   3.440   3.547   8.142 -1.3030  0.2272  0.7359
  780MOL0     C 7529   3.574   3.573   8.199  0.2608 -0.2904  0.7982
  780MOL0     C 7530   3.630   3.496   8.319  0.0902  0.8117 -0.5154
  780MOL0     C 7531   3.654   3.677   8.132  0.3145  0.2511  0.5917
  780MOL0     C 7532   3.783   3.730   8.175  0.2528 -0.3228 -0.5858
  780MOL0     O 7533   3.870   3.652   8.246 -0.2635 -0.1620 -0.2105
  780MOL0     C 7534   3.972   3.715   8.312  0.1222 -1.1479 -0.7279
  780MOL0     C 7535   3.948   3.811   8.415  0.4278  0.2289  0.0227
  780MOL0     C 7536   4.057   3.869   8.495 -0.1280  0.3175  0.1235
  780MOL0     C 7537   4.188   3.832   8.460 -1.0205  0.0103 -0.9535
  780MOL0     O 7538   4.290   3.892   8.533  0.0860 -0.0045  0.6338
  780MOL0     C 7539   4.283   3.912   8.676  0.3585  0.4561  0.0760
  780MOL0     C 7540   4.420   3.939   8.749 -0.3795  0.0434 -0.5892
  780MOL0     C 7541   4.496   4.064   8.708  0.1542  0.0881 -0.2237
  780MOL0     C 7542   4.624   4.040   8.626  0.8295 -0.5329 -0.0813
  780MOL0     C 7543   4.707   4.177   8.599 -0.6278 -0.1379  0.6228
  780MOL0     C 7544   4.747   4.252   8.728  0.6873  0.4030  0.0803
  780MOL0     C 7545   4.833   4.170   8.829 -0.4960  0.1684 -0.8536
  780MOL0     C 7546   4.891   4.249   8.950 -1.0656 -0.1334  0.1232
  780MOL0    Cl 7547   4.788   4.234   9.098 -0.2354  0.2506 -0.1224
  780MOL0     C 7548   4.206   3.738   8.361  0.4108  0.5306  0.3172
  780MOL0     C 7549   4.106   3.679   8.284  1.1146  0.2510 -0.4799
  780MOL0     O 7550   3.805   3.844   8.131  0.3082 -0.1256 -0.9629
  780MOL0     C 7551   3.604   3.743   8.012  1.5881 -0.2311 -0.6218
  780MOL0     C 7552   3.470   3.714   7.965 -2.0885  0.2298  0.6049
  780MOL0     N 7553   3.091   3.396   7.577 -0.1728  0.1549 -0.7699
  780MOL0     N 7554   3.062   3.410   7.447  0.0177 -0.0426 -0.3826
  780MOL0     C 7555   1.979   3.250   7.269 -0.4662 -0.4184 -0.8800
  780MOL0     C 7556   1.862   3.327   7.266 -0.5320 -0.6601 -0.4809
  780MOL0     C 7557   1.532   3.614   7.339  0.3423 -0.8642  0.4678
  780MOL0     C 7558   1.476   3.564   7.222 -0.1891  0.0808  0.6550
  780MOL0     C 7559   1.359   3.625   7.172 -0.7773 -0.1159 -0.4153
  780MOL0     C 7560   1.297   3.734   7.245 -0.0946  0.7868  0.1632
  780MOL0     O 7561   1.186   3.806   7.226  0.4886  0.3563  0.5751
  780MOL0     C 7562   1.073   3.739   7.164 -0.4382 -0.5566 -0.1485
  780MOL0     C 7563   1.001   3.630   7.248 -0.1049 -0.0402  0.0746
  780MOL0     C 7564   0.871   3.574   7.192 -0.1931  0.1513 -0.1360
  780MOL0     C 7565   0.792   3.468   7.274 -0.1805  0.3134 -0.2934
  780MOL0     C 7566   0.765   3.518   7.410  0.1907  0.1105  0.4167
  780MOL0     C 7567   0.740   3.537   7.529 -0.0680 -0.1970 -0.0498
  780MOL0     C 7568   1.357   3.775   7.367  0.0981 -0.2162  0.0797
  780MOL0     C 7569   1.473   3.720   7.410 -0.3671 -0.0744  0.5074
  780MOL0     C 7570   1.535   3.767   7.537 -0.3732 -0.0854 -0.6199
  780MOL0     H 7571   1.970   3.611   7.416  0.2653 -0.2662  3.4832
  780MOL0     H 7572   2.180   3.474   7.435  1.0322  1.4484 -2.6498
  780MOL0     H 7573   2.196   3.090   7.203 -2.2011  0.1952  0.9350
  780MOL0     H 7574   2.165   3.025   7.363  3.7531 -0.7883  2.2437
  780MOL0     H 7575   2.395   3.076   7.436  2.5508  1.2318 -0.4538
  780MOL0     H 7576   2.398   2.981   7.282 -1.8158  1.1575 -2.3255
  780MOL0     H 7577   2.421   3.201   7.166  2.0481  1.5208  0.0577
  780MOL0     H 7578   2.481   3.259   7.323 -1.3189 -0.0060  1.3895
  780MOL0     H 7579   2.664   3.083   7.312  0.5192  0.9237  0.6944
  780MOL0     H 7580   2.611   3.046   7.155  2.0532  1.4555 -1.1458
  780MOL0     H 7581   2.647   3.312   7.096  0.2074 -1.0757  0.1804
  780MOL0     H 7582   2.770   3.179   7.106 -0.9186 -0.2419 -0.6365
  780MOL0     H 7583   2.670   3.362   7.335 -0.6982  3.7410 -2.4960
  780MOL0     H 7584   2.818   3.254   7.335  0.7386 -0.1345 -1.3425
  780MOL0     H 7585   2.759   3.497   7.156  1.8910  0.5747 -1.7972
  780MOL0     H 7586   2.907   3.402   7.166 -1.7386 -1.2570 -2.0084
  780MOL0     H 7587   2.961   3.607   7.288 -0.0576  0.4820  0.1948
  780MOL0     H 7588   2.801   3.612   7.353 -0.4612 -0.3193 -0.8967
  780MOL0     H 7589   2.803   3.545   7.605  1.5640  2.0689 -0.0668
  780MOL0     H 7590   3.067   3.376   7.820 -2.2622 -1.5618 -0.7208
  780MOL0     H 7591   2.888   3.404   7.836  0.1650 -1.8162 -0.9285
  780MOL0     H 7592   3.080   3.640   7.813 -0.6073 -0.0397 -0.3649
  780MOL0     H 7593   2.904   3.628   7.842  0.3529  1.0206 -0.5725
  780MOL0     H 7594   3.029   3.693   8.056  2.7817  0.3637  1.0656
  780MOL0     H 7595   2.958   3.532   8.074  0.5675 -1.9192 -0.7694
  780MOL0     H 7596   3.196   3.542   8.155  0.0311  0.5304 -0.0856
  780MOL0     H 7597   3.150   3.421   8.029  1.1893  0.5393 -1.7405
  780MOL0     H 7598   3.380   3.472   8.192  0.9562 -1.2170  1.4600
  780MOL0     H 7599   3.650   3.564   8.402  2.8282  1.2267 -1.4118
  780MOL0     H 7600   3.717   3.438   8.288 -1.4092 -1.8035 -0.1249
  780MOL0     H 7601   3.546   3.429   8.339  0.5001 -1.2911 -4.6302
  780MOL0     H 7602   3.844   3.829   8.439 -0.0495  0.0423 -1.7545
  780MOL0     H 7603   4.029   3.934   8.577  0.8008 -1.9591  2.3580
  780MOL0     H 7604   4.214   3.991   8.709 -0.4395 -1.4321  3.4556
  780MOL0     H 7605   4.218   3.832   8.716  0.4198  0.5770  0.4243
  780MOL0     H 7606   4.406   3.938   8.858  0.7227 -1.8020 -0.4249
  780MOL0     H 7607   4.477   3.846   8.740 -0.8664 -0.4279  0.8325
  780MOL0     H 7608   4.518   4.098   8.810 -1.8300 -3.8625  1.7676
  780MOL0     H 7609   4.439   4.142   8.657 -1.3357 -0.0296  1.1896
  780MOL0     H 7610   4.596   4.009   8.525 -2.3676  2.4696 -0.3056
  780MOL0     H 7611   4.689   3.967   8.675  0.8366  0.1525  0.9710
  780MOL0     H 7612   4.799   4.152   8.545 -1.2422 -0.2041 -0.4402
  780MOL0     H 7613   4.654   4.244   8.531 -1.4657 -2.1545 -0.8116
  780MOL0     H 7614   4.653   4.285   8.773  0.2707 -0.1348 -0.3841
  780MOL0     H 7615   4.804   4.343   8.709  0.5625  1.4475  3.7985
  780MOL0     H 7616   4.918   4.136   8.770  0.1618  0.5363 -0.1307
  780MOL0     H 7617   4.784   4.083   8.874  0.2043 -0.8990 -2.0963
  780MOL0     H 7618   4.912   4.353   8.921 -2.0867 -0.4021 -1.6825
  780MOL0     H 7619   4.992   4.217   8.978  0.4839  4.0105  0.0187
  780MOL0     H 7620   4.308   3.709   8.337  1.3432  1.1405  3.1946
  780MOL0     H 7621   4.124   3.605   8.206  1.1453  0.2084 -0.4338
  780MOL0     H 7622   3.660   3.816   7.954  3.8275 -0.1574  1.4683
  780MOL0     H 7623   3.426   3.763   7.879 -0.0692  0.2202 -0.4774
  780MOL0     H 7624   1.986   3.153   7.222 -1.1807 -0.7681 -0.2806
  780MOL0     H 7625   1.762   3.297   7.234 -2.7516  1.2426  3.9036
  780MOL0     H 7626   1.521   3.487   7.160  1.7366  0.0274  2.0347
  780MOL0     H 7627   1.306   3.588   7.085 -3.2229 -0.3777  1.0865
  780MOL0     H 7628   0.996   3.815   7.147 -2.7978 -2.0163  2.9690
  780MOL0     H 7629   1.105   3.703   7.066  0.1648  0.2168 -0.2468
  780MOL0     H 7630   0.975   3.677   7.344 -2.4824 -1.9043  0.4361
  780MOL0     H 7631   1.062   3.540   7.260  0.7272  0.5906  0.7614
  780MOL0     H 7632   0.801   3.657   7.175  0.7450  0.8698 -0.6150
  780MOL0     H 7633   0.892   3.555   7.086 -0.8623  2.8784 -0.8440
  780MOL0     H 7634   0.853   3.378   7.292  1.4549  0.9268 -2.2942
  780MOL0     H 7635   0.696   3.444   7.228 -1.0078 -0.7505  1.8730
  780MOL0     H 7636   0.730   3.549   7.635  3.0064 -0.7095  0.3779
  780MOL0     H 7637   1.315   3.852   7.432 -0.9903  0.8849 -1.8260
  780MOL0     H 7638   1.486   3.856   7.577 -1.8425 -1.2165  0.1957
  780MOL0     H 7639   1.515   3.686   7.607 -0.1454 -0.0201 -0.4765
  780MOL0     H 7640   1.644   3.779   7.532 -0.0691 -1.5396  1.3435
  781MOL0     O 7641   3.196   2.459   9.754 -0.6962  0.2667  0.1185
  781MOL0     C 7642   3.167   2.481   9.638 -0.2680 -0.3533 -0.6270
  781MOL0     O 7643   3.255   2.534   9.547  0.4677  0.2810  0.5549
  781MOL0     C 7644   3.393   2.529   9.556  0.6895  0.4548  0.0878
  781MOL0     C 7645   3.473   2.459   9.649  0.8279  0.0361  0.0692
  781MOL0     C 7646   3.612   2.461   9.641  0.2594  0.6310 -0.5571
  781MOL0     C 7647   3.672   2.539   9.536 -0.3223  0.6241 -0.0684
  781MOL0     O 7648   3.811   2.546   9.513 -0.1766  0.7677 -0.4274
  781MOL0     C 7649   3.894   2.469   9.604 -0.5629 -0.0682  0.5502
  781MOL0     C 7650   4.031   2.518   9.559  0.4260  0.6002 -0.5887
  781MOL0     C 7651   4.132   2.414   9.608 -0.2028 -0.4585  0.0319
  781MOL0     C 7652   4.121   2.279   9.543  1.1500 -0.2461 -0.2901
  781MOL0     C 7653   4.250   2.191   9.565  0.2699 -0.4109 -0.7113
  781MOL0     C 7654   4.268   2.154   9.719 -0.1733 -1.0378 -0.8024
  781MOL0     C 7655   4.369   2.044   9.740  0.4828  0.1247  0.0281
  781MOL0     C 7656   4.414   2.016   9.885 -0.3092 -0.4267  0.0520
  781MOL0     N 7657   4.542   2.095   9.918  1.1571 -0.1608  0.4902
  781MOL0     C 7658   4.662   2.078   9.854  0.0991  0.3137  0.0796
  781MOL0     C 7659   4.742   2.165   9.929 -0.2689  0.1320  0.7628
  781MOL0     C 7660   4.896   2.169   9.910 -1.0224  0.4083  0.2149
  781MOL0     C 7661   4.966   2.030   9.919  0.6485  0.5808  0.8754
  781MOL0     C 7662   4.942   1.962  10.061  1.0926 -0.4956 -0.3795
  781MOL0     C 7663   5.012   1.824  10.060 -0.7804  1.4449  0.3911
  781MOL0     O 7664   4.935   1.733  10.141 -0.4194  0.2443  0.3020
  781MOL0     C 7665   4.978   1.706  10.273 -0.1540 -0.2106  0.4771
  781MOL0     C 7666   5.070   1.783  10.343  0.2903  0.5955  0.1147
  781MOL0     C 7667   5.073   1.778  10.483 -0.3719  0.0319  0.2960
  781MOL0     C 7668   5.170   1.876  10.557 -0.1902  0.2873  0.3549
  781MOL0     C 7669   5.013   1.668  10.552  0.6805  0.4715  1.0085
  781MOL0     C 7670   5.026   1.641  10.696  0.1065 -0.2621 -0.4916
  781MOL0     O 7671   4.934   1.545  10.748  0.6790  0.0485  1.0210
  781MOL0     C 7672   4.944   1.496  10.877  0.6280 -0.3245 -0.3121
  781MOL0     C 7673   4.841   1.412  10.928 -0.2323 -0.6254 -0.0087
  781MOL0     C 7674   4.842   1.347  11.057 -0.2978  0.3623 -0.0348
  781MOL0     C 7675   4.956   1.365  11.139 -0.0034  0.3029 -0.2226
  781MOL0     O 7676   4.971   1.332  11.274  0.1610 -0.3054  0.0857
  781MOL0     C 7677   4.858   1.266  11.335 -0.6166 -0.5131 -0.4524
  781MOL0     C 7678   4.879   1.225  11.478 -0.0683  0.1508 -0.2194
  781MOL0     C 7679   4.979   1.105  11.477  0.6597 -0.7668 -0.1861
  781MOL0     C 7680   5.025   1.050  11.616 -0.3689  0.0933 -0.5196
  781MOL0     C 7681   4.922   0.992  11.693 -0.6144 -0.0219  0.0767
  781MOL0     C 7682   4.907   0.841  11.667  0.0635 -0.3105  1.4365
  781MOL0     C 7683   4.802   0.763  11.751 -1.2860  0.2789  0.1881
  781MOL0     C 7684   4.667   0.811  11.715  0.0450 -0.4873  0.0159
  781MOL0    Cl 7685   4.546   0.706  11.789  0.2722  0.1088  0.4214
  781MOL0     C 7686   5.062   1.431  11.087  0.2254  0.2106 -0.5654
  781MOL0     C 7687   5.059   1.493  10.962  0.7456  0.4224  1.1126
  781MOL0     O 7688   5.121   1.688  10.764 -0.4840  0.6046  1.3271
  781MOL0     C 7689   4.927   1.586  10.473 -0.4180  0.2058  0.0094
  781MOL0     C 7690   4.900   1.615  10.344  0.7248  0.6375  0.0478
  781MOL0     N 7691   4.669   2.240  10.019  0.1196 -0.0260  0.1935
  781MOL0     N 7692   4.552   2.189  10.015 -0.0982 -0.0023 -0.7643
  781MOL0     C 7693   3.591   2.612   9.449 -0.7964  0.4421 -0.0228
  781MOL0     C 7694   3.452   2.610   9.462  0.0633  0.3801 -0.2319
  781MOL0     C 7695   3.028   2.469   9.600 -0.8061  0.3202 -0.2058
  781MOL0     C 7696   2.933   2.457   9.700  0.4326 -0.2019 -0.2811
  781MOL0     C 7697   2.800   2.429   9.671  0.1615  0.3569  0.2789
  781MOL0     C 7698   2.752   2.431   9.539 -0.2271  0.2707 -0.0521
  781MOL0     O 7699   2.615   2.428   9.509 -0.3042 -0.4470  0.3239
  781MOL0     C 7700   2.566   2.391   9.378  0.0792 -0.9068  0.4285
  781MOL0     C 7701   2.415   2.366   9.379  0.3663  0.5311  0.5538
  781MOL0     C 7702   2.381   2.248   9.465 -0.6422  1.2433 -1.0331
  781MOL0     C 7703   2.247   2.175   9.444  0.1397  0.1447  0.6923
  781MOL0     C 7704   2.246   2.085   9.333 -0.0525  0.1044  0.7085
  781MOL0     C 7705   2.242   1.994   9.253  0.3820  0.1910 -0.1713
  781MOL0     C 7706   2.848   2.444   9.441  0.4997 -0.6531 -0.0191
  781MOL0     C 7707   2.984   2.468   9.468 -0.9978  0.3966  0.0904
  781MOL0     C 7708   3.069   2.507   9.343  0.2010 -0.0841 -0.0116
  781MOL0     H 7709   3.430   2.377   9.705 -1.1498 -2.7677 -4.9307
  781MOL0     H 7710   3.665   2.398   9.711 -0.1243  1.2549  0.3064
  781MOL0     H 7711   3.872   2.362   9.595 -2.5159  0.3207  0.1236
  781MOL0     H 7712   3.869   2.503   9.705 -0.5899  1.4519  0.0534
  781MOL0     H 7713   4.040   2.528   9.450  0.1689 -2.5287 -0.9994
  781MOL0     H 7714   4.051   2.613   9.610  0.3029  0.2364  0.1470
  781MOL0     H 7715   4.235   2.448   9.592  0.4707 -2.3401  0.0713
  781MOL0     H 7716   4.126   2.392   9.715 -0.1832  0.6264  0.2672
  781MOL0     H 7717   4.041   2.218   9.586 -1.4731  2.1103 -1.5675
  781MOL0     H 7718   4.093   2.286   9.437  0.1943  1.2441  0.0332
  781MOL0     H 7719   4.340   2.226   9.514  1.6672 -1.3633  0.9876
  781MOL0     H 7720   4.226   2.096   9.517 -0.2187 -0.9196  0.4871
  781MOL0     H 7721   4.307   2.243   9.770  1.9214 -2.4017  0.1303
  781MOL0     H 7722   4.171   2.120   9.756  1.2204 -2.7464  1.5371
  781MOL0     H 7723   4.447   2.077   9.671 -1.7312  5.7253 -0.3189
  781MOL0     H 7724   4.320   1.951   9.709 -0.4189 -0.8078  3.6744
  781MOL0     H 7725   4.332   2.030   9.957 -0.9858 -3.7142  0.0876
  781MOL0     H 7726   4.426   1.907   9.886 -0.4808 -0.4599  1.5847
  781MOL0     H 7727   4.703   2.013   9.778 -0.3679 -0.1280  0.2096
  781MOL0     H 7728   4.937   2.245   9.977 -2.0752  0.7136  0.5406
  781MOL0     H 7729   4.907   2.218   9.812  0.0983 -0.4766 -0.1159
  781MOL0     H 7730   4.926   1.963   9.842  1.2503  0.0624  0.9960
  781MOL0     H 7731   5.072   2.053   9.907  1.3448 -2.2382  0.8462
  781MOL0     H 7732   4.986   2.027  10.137  0.3221 -1.8523  1.2710
  781MOL0     H 7733   4.833   1.959  10.067  0.7427  0.4430 -3.8371
  781MOL0     H 7734   5.018   1.775   9.962  0.0019  2.3557 -0.0310
  781MOL0     H 7735   5.114   1.836  10.098  0.8489 -1.6487 -2.4509
  781MOL0     H 7736   5.141   1.853  10.299  1.5025 -0.5483  0.1610
  781MOL0     H 7737   5.264   1.829  10.586 -0.2847 -0.4352 -0.4712
  781MOL0     H 7738   5.114   1.906  10.647 -0.9869  0.5071 -0.1961
  781MOL0     H 7739   5.189   1.957  10.486 -2.3632 -0.9637 -1.8040
  781MOL0     H 7740   4.747   1.417  10.874  0.1159  1.0061 -0.5047
  781MOL0     H 7741   4.750   1.306  11.097  0.7231 -1.4985  0.5303
  781MOL0     H 7742   4.775   1.338  11.332  0.0343  0.2422 -0.5802
  781MOL0     H 7743   4.832   1.174  11.281 -3.8926  1.9140 -3.4708
  781MOL0     H 7744   4.923   1.313  11.525  2.6574  0.1455 -2.5072
  781MOL0     H 7745   4.783   1.196  11.524  1.6936 -2.9335  1.9240
  781MOL0     H 7746   5.070   1.131  11.423  2.2140 -0.8252  2.2464
  781MOL0     H 7747   4.923   1.023  11.431  0.2689 -1.7694  1.9276
  781MOL0     H 7748   5.077   1.132  11.668 -3.1287  0.7867  1.3907
  781MOL0     H 7749   5.109   0.982  11.603  3.4319  4.0736  0.5452
  781MOL0     H 7750   4.958   0.997  11.796 -3.1397  0.4336  1.0120
  781MOL0     H 7751   4.828   1.047  11.693 -1.4536 -1.3767  1.2449
  781MOL0     H 7752   4.999   0.791  11.698 -0.6082  0.1612  4.5122
  781MOL0     H 7753   4.888   0.813  11.563 -1.6418 -1.5319  2.0280
  781MOL0     H 7754   4.832   0.780  11.855  1.1736  0.6766 -0.5225
  781MOL0     H 7755   4.817   0.661  11.716  1.4993 -0.1216  2.2745
  781MOL0     H 7756   4.653   0.826  11.608 -0.1601 -2.4256 -0.2520
  781MOL0     H 7757   4.655   0.908  11.765 -1.0025 -1.1503  1.0926
  781MOL0     H 7758   5.153   1.438  11.146 -1.9025 -2.4208  3.5157
  781MOL0     H 7759   5.155   1.526  10.926  2.0430 -2.8257  1.2109
  781MOL0     H 7760   4.872   1.507  10.522  2.5730 -0.0658  3.3641
  781MOL0     H 7761   4.818   1.558  10.302  0.3570 -0.0363  1.6153
  781MOL0     H 7762   3.633   2.652   9.357 -1.1607 -3.0816 -1.8621
  781MOL0     H 7763   3.394   2.665   9.389 -0.9597 -0.5074 -0.1068
  781MOL0     H 7764   2.965   2.465   9.803  0.0722  0.8178 -0.2341
  781MOL0     H 7765   2.731   2.414   9.753  1.4556 -0.4742  1.2584
  781MOL0     H 7766   2.599   2.479   9.321  1.7815 -1.5029  0.4280
  781MOL0     H 7767   2.615   2.305   9.332 -0.1053  0.8110 -3.2807
  781MOL0     H 7768   2.379   2.343   9.278  2.1199 -1.2081  0.2745
  781MOL0     H 7769   2.363   2.457   9.411  0.8060  0.8359  0.4222
  781MOL0     H 7770   2.455   2.168   9.455 -2.0256 -0.4017  0.8163
  781MOL0     H 7771   2.396   2.274   9.570 -1.8136 -0.3584 -0.4125
  781MOL0     H 7772   2.169   2.250   9.427 -2.0074 -2.3087 -1.0156
  781MOL0     H 7773   2.222   2.119   9.534 -2.1483  0.3967  0.2695
  781MOL0     H 7774   2.246   1.915   9.181 -1.1942  0.4192 -0.5536
  781MOL0     H 7775   2.811   2.444   9.339  0.7899 -0.4390 -0.1262
  781MOL0     H 7776   3.092   2.613   9.360  2.5716 -0.5979  0.3608
  781MOL0     H 7777   3.153   2.437   9.340  0.5082  0.3219 -1.8524
  781MOL0     H 7778   3.015   2.493   9.249  2.3680  0.0231 -1.3338
  782MOL0     O 7779   8.008   9.400   0.157 -0.1961 -0.6833  0.3081
  782MOL0     C 7780   7.969   9.282   0.159 -1.0225 -0.1018  0.2579
  782MOL0     O 7781   8.040   9.175   0.214 -0.1177 -0.3023  0.7017
  782MOL0     C 7782   8.174   9.200   0.243  0.4687 -0.3902 -0.5335
  782MOL0     C 7783   8.220   9.204   0.378 -0.1141 -0.0409 -0.5929
  782MOL0     C 7784   8.359   9.239   0.394  0.2031  0.5226  0.1209
  782MOL0     C 7785   8.451   9.256   0.289  0.6241  0.9259  0.3581
  782MOL0     O 7786   8.583   9.281   0.321 -0.0312  0.0578 -0.2130
  782MOL0     C 7787   8.679   9.247   0.214  0.4384 -0.5615 -0.2489
  782MOL0     C 7788   8.819   9.239   0.275  0.2439  0.1874 -0.3150
  782MOL0     C 7789   8.920   9.189   0.172  0.1304 -0.5923  0.2696
  782MOL0     C 7790   9.043   9.151   0.254  0.0139  0.3978 -0.3256
  782MOL0     C 7791   9.125   9.273   0.296  0.3014  0.4511  0.6124
  782MOL0     C 7792   9.230   9.330   0.193  0.3646 -0.0800 -0.2464
  782MOL0     C 7793   9.310   9.445   0.258  0.5508  0.1959 -0.2928
  782MOL0     C 7794   9.408   9.374   0.359  0.1551 -0.2022 -0.7538
  782MOL0     N 7795   9.495   9.475   0.414 -0.1785 -0.0819  0.1889
  782MOL0     C 7796   9.597   9.541   0.351 -0.0703  0.1356  0.5933
  782MOL0     C 7797   9.607   9.660   0.416 -0.0659 -0.0939 -0.2121
  782MOL0     C 7798   9.693   9.786   0.399  0.0272  0.3693  0.9265
  782MOL0     C 7799   9.808   9.777   0.295  0.5892 -0.7247  0.1729
  782MOL0     C 7800   9.940   9.726   0.358  0.2760 -0.2739  0.4314
  782MOL0     C 7801   9.988   9.809   0.477  0.2214  0.4546 -0.7598
  782MOL0     O 7802   9.991   9.952   0.456  0.0680  0.0229 -0.0091
  782MOL0     C 7803  10.071  10.024   0.381 -0.6860  0.1369  1.1742
  782MOL0     C 7804  10.188   9.979   0.322 -0.6588  0.2887  0.8503
  782MOL0     C 7805  10.271  10.060   0.240  0.2078  0.5733  0.7176
  782MOL0     C 7806  10.400   9.997   0.185  0.2000 -0.0989  0.6616
  782MOL0     C 7807  10.229  10.189   0.206  0.2744  0.7759  0.2208
  782MOL0     C 7808  10.307  10.291   0.122  0.2636  0.0071  0.0010
  782MOL0     O 7809  10.244  10.409   0.100 -0.1140 -0.1149  0.2922
  782MOL0     C 7810  10.317  10.506   0.042 -0.6499  0.1123 -0.5864
  782MOL0     C 7811  10.392  10.604   0.104 -0.5564 -0.1789  0.6300
  782MOL0     C 7812  10.454  10.712   0.032  0.8338  0.1085 -0.0875
  782MOL0     C 7813  10.461  10.694  -0.105 -0.1220 -0.1257 -0.3263
  782MOL0     O 7814  10.535  10.784  -0.177 -0.1820  0.5817 -0.1869
  782MOL0     C 7815  10.655  10.730  -0.228 -1.0526  0.4657  0.4234
  782MOL0     C 7816  10.771  10.731  -0.127  0.0124 -0.0651  0.2811
  782MOL0     C 7817  10.893  10.668  -0.192  0.3518 -0.0986  0.1328
  782MOL0     C 7818  11.022  10.701  -0.114 -0.2976  0.3522  0.2712
  782MOL0     C 7819  11.128  10.628  -0.192  0.0292 -0.3791  0.0656
  782MOL0     C 7820  11.266  10.654  -0.144 -0.2808  0.4966  0.2743
  782MOL0     C 7821  11.360  10.590  -0.243 -0.1642 -0.1031 -0.5748
  782MOL0     C 7822  11.512  10.598  -0.204 -0.0104  0.3344 -0.5755
  782MOL0    Cl 7823  11.563  10.756  -0.126  0.1626 -0.0019  0.0925
  782MOL0     C 7824  10.394  10.594  -0.167 -0.7491 -0.4889  0.3276
  782MOL0     C 7825  10.314  10.507  -0.101  0.2740 -0.2290  0.2384
  782MOL0     O 7826  10.418  10.266   0.085  0.4061 -0.2325  0.1184
  782MOL0     C 7827  10.101  10.236   0.264 -0.6788  0.0516 -0.1939
  782MOL0     C 7828  10.022  10.150   0.350  0.2782  0.4834  0.4663
  782MOL0     N 7829   9.522   9.657   0.525  0.5200 -0.5424 -0.8838
  782MOL0     N 7830   9.450   9.551   0.523 -0.5158  0.1651  0.0327
  782MOL0     C 7831   8.399   9.244   0.158  0.3909  0.0260 -0.8866
  782MOL0     C 7832   8.264   9.223   0.135 -0.6621 -0.0306  0.0293
  782MOL0     C 7833   7.835   9.254   0.102  0.3252  0.8089 -0.2125
  782MOL0     C 7834   7.771   9.352   0.031  0.1997  0.5709 -0.5863
  782MOL0     C 7835   7.633   9.337  -0.004 -0.6304  0.4525 -0.3824
  782MOL0     C 7836   7.563   9.213   0.026 -0.1120  0.4561 -0.3339
  782MOL0     O 7837   7.426   9.204   0.007 -0.0352  0.5266 -0.3993
  782MOL0     C 7838   7.344   9.302  -0.065 -0.2821 -0.1279 -0.4074
  782MOL0     C 7839   7.275   9.398   0.036  0.3145  0.9842 -0.3036
  782MOL0     C 7840   7.193   9.325   0.144 -0.0904  0.2632 -0.3225
  782MOL0     C 7841   7.121   9.433   0.227  0.5515  0.9929  0.9929
  782MOL0     C 7842   6.992   9.452   0.157  0.2478 -0.5416 -0.5747
  782MOL0     C 7843   6.894   9.464   0.086 -0.0693 -0.6618 -0.0936
  782MOL0     C 7844   7.624   9.119   0.106  0.2145 -0.5259 -0.2939
  782MOL0     C 7845   7.758   9.136   0.141  0.4570  0.2538 -0.2134
  782MOL0     C 7846   7.809   9.024   0.235 -0.3827 -0.2478 -0.5674
  782MOL0     H 7847   8.154   9.202   0.464 -0.7472  1.3750 -1.0051
  782MOL0     H 7848   8.391   9.261   0.495  0.6030 -1.7557  0.5632
  782MOL0     H 7849   8.666   9.319   0.133 -1.5123 -1.7671 -1.0832
  782MOL0     H 7850   8.654   9.148   0.173 -2.5519 -0.9828  2.1995
  782MOL0     H 7851   8.847   9.340   0.309 -0.8012  0.8148 -1.2203
  782MOL0     H 7852   8.810   9.178   0.366 -1.2352  1.0608  0.1702
  782MOL0     H 7853   8.883   9.110   0.105 -1.1921  0.8852 -0.8143
  782MOL0     H 7854   8.964   9.270   0.114  3.0596 -0.0503  2.9863
  782MOL0     H 7855   9.008   9.097   0.343 -1.3696  2.0208  0.1704
  782MOL0     H 7856   9.105   9.081   0.198 -2.9853 -0.7864 -2.4295
  782MOL0     H 7857   9.177   9.241   0.388  1.9134 -0.2060 -0.4751
  782MOL0     H 7858   9.058   9.357   0.314 -1.0173  0.0081 -1.7855
  782MOL0     H 7859   9.307   9.261   0.157  1.8982  1.5403 -0.2227
  782MOL0     H 7860   9.176   9.359   0.102 -1.1644 -0.7613  0.4060
  782MOL0     H 7861   9.248   9.521   0.306 -0.4782 -0.0870 -1.1437
  782MOL0     H 7862   9.358   9.493   0.172 -1.9021  1.3109 -1.1458
  782MOL0     H 7863   9.364   9.328   0.448  1.7096  1.4470  0.9878
  782MOL0     H 7864   9.456   9.294   0.303 -2.7497 -1.8404 -1.0805
  782MOL0     H 7865   9.643   9.520   0.255  0.9557  0.3765  1.0172
  782MOL0     H 7866   9.731   9.827   0.493  1.7785 -0.4681  0.6284
  782MOL0     H 7867   9.620   9.864   0.375  0.4953  0.6393  0.3715
  782MOL0     H 7868   9.789   9.726   0.200 -0.0918  2.7028 -1.6912
  782MOL0     H 7869   9.815   9.879   0.258 -0.5667 -0.3114  1.0255
  782MOL0     H 7870   9.929   9.623   0.392  3.3604 -0.7842  0.1655
  782MOL0     H 7871  10.012   9.733   0.276 -0.2718 -0.7921 -0.1058
  782MOL0     H 7872   9.931   9.782   0.566  1.8339 -0.9015 -0.0600
  782MOL0     H 7873  10.087   9.769   0.505 -1.0703 -1.4538  1.4402
  782MOL0     H 7874  10.225   9.880   0.349  0.7695  0.2572 -1.0346
  782MOL0     H 7875  10.485  10.045   0.235  1.3661 -1.0420 -0.3363
  782MOL0     H 7876  10.420  10.016   0.079  2.4198 -0.8420  0.8909
  782MOL0     H 7877  10.392   9.889   0.199  0.7177 -0.0482  1.4382
  782MOL0     H 7878  10.386  10.609   0.213 -1.9596 -2.5831  0.7331
  782MOL0     H 7879  10.505  10.786   0.093  0.2078  1.3065 -0.9744
  782MOL0     H 7880  10.641  10.628  -0.267 -1.1342  0.0476  1.5016
  782MOL0     H 7881  10.695  10.791  -0.309 -1.7839  1.7779  1.0278
  782MOL0     H 7882  10.785  10.832  -0.087 -1.3741  0.1039  0.3741
  782MOL0     H 7883  10.746  10.672  -0.038  0.7438 -0.0439  0.5110
  782MOL0     H 7884  10.897  10.701  -0.296 -1.3659 -3.2214 -1.0359
  782MOL0     H 7885  10.880  10.560  -0.189 -0.8222  0.0436  0.5515
  782MOL0     H 7886  11.024  10.657  -0.014  1.1905  3.1142  1.5361
  782MOL0     H 7887  11.036  10.807  -0.095  0.7628  0.0614  1.2219
  782MOL0     H 7888  11.102  10.522  -0.183 -0.9193 -0.5433 -3.2751
  782MOL0     H 7889  11.128  10.657  -0.298 -0.1080  0.4082  0.2745
  782MOL0     H 7890  11.293  10.615  -0.046 -0.6364  0.4160  0.3437
  782MOL0     H 7891  11.284  10.762  -0.147 -1.2534  0.6698  0.3431
  782MOL0     H 7892  11.338  10.639  -0.338 -1.1394 -1.5231 -1.1087
  782MOL0     H 7893  11.331  10.484  -0.252 -0.6857 -0.0435  0.2719
  782MOL0     H 7894  11.564  10.583  -0.299  0.2998  0.1534 -0.3764
  782MOL0     H 7895  11.541  10.518  -0.136 -0.3786  1.7353  1.2896
  782MOL0     H 7896  10.391  10.585  -0.275 -0.0659  1.5781  0.0912
  782MOL0     H 7897  10.248  10.433  -0.145  2.1642 -1.9153  0.1014
  782MOL0     H 7898  10.062  10.337   0.254  0.5960  0.8565  2.3498
  782MOL0     H 7899   9.931  10.194   0.389  1.6270  2.6700  1.3395
  782MOL0     H 7900   8.456   9.250   0.066 -1.4780 -1.2580 -2.1862
  782MOL0     H 7901   8.226   9.221   0.033 -0.0696  1.9541 -0.2564
  782MOL0     H 7902   7.816   9.451   0.017  1.2004  0.0049 -1.5578
  782MOL0     H 7903   7.584   9.429  -0.032 -0.9296  0.4006 -0.0337
  782MOL0     H 7904   7.395   9.353  -0.148  0.9054 -2.6464 -1.3120
  782MOL0     H 7905   7.271   9.244  -0.122 -1.3890  0.7649  0.0686
  782MOL0     H 7906   7.208   9.454  -0.030 -0.6404 -0.9783 -1.0691
  782MOL0     H 7907   7.338   9.473   0.085 -0.0912 -0.7754  3.2308
  782MOL0     H 7908   7.118   9.258   0.100  0.7952 -1.1297  0.1947
  782MOL0     H 7909   7.259   9.257   0.200 -1.3214 -1.7197 -1.1606
  782MOL0     H 7910   7.170   9.531   0.233  1.9466  0.3386  0.8086
  782MOL0     H 7911   7.107   9.389   0.326  4.2245 -1.3801  0.6805
  782MOL0     H 7912   6.810   9.481   0.022  0.0198 -0.9630 -0.2941
  782MOL0     H 7913   7.564   9.038   0.147  1.0519 -0.2411  1.5712
  782MOL0     H 7914   7.829   9.072   0.331 -0.7653 -0.7670 -0.2242
  782MOL0     H 7915   7.743   8.938   0.247  2.3688 -2.3572  0.4522
  782MOL0     H 7916   7.901   8.983   0.191  1.0361 -1.1344  2.8864
  783MOL0     O 7917   6.524   2.654   9.580 -0.9376  0.1237 -0.6929
  783MOL0     C 7918   6.484   2.671   9.462  0.7888  0.8296  0.8655
  783MOL0     O 7919   6.558   2.682   9.356 -0.9410  0.2147 -0.2880
  783MOL0     C 7920   6.679   2.615   9.354 -0.2749  0.3809  0.1458
  783MOL0     C 7921   6.780   2.644   9.262 -0.8872 -1.1570 -0.1046
  783MOL0     C 7922   6.909   2.589   9.282  0.1277 -0.4134 -0.4444
  783MOL0     C 7923   6.931   2.479   9.367 -0.3968 -0.0830 -1.0952
  783MOL0     O 7924   7.057   2.429   9.359  0.7653 -0.3047  0.1975
  783MOL0     C 7925   7.104   2.337   9.461  0.3889 -0.3837  0.4529
  783MOL0     C 7926   7.249   2.294   9.446  0.3072  0.4988 -0.0172
  783MOL0     C 7927   7.294   2.249   9.302  0.2636  0.3616 -0.2862
  783MOL0     C 7928   7.437   2.259   9.271 -0.0995  0.6717  1.0730
  783MOL0     C 7929   7.513   2.173   9.372  0.5442  0.0233 -0.1174
  783MOL0     C 7930   7.664   2.167   9.338 -0.5264 -0.4400 -0.2948
  783MOL0     C 7931   7.739   2.059   9.414 -0.4401  0.3458 -0.2537
  783MOL0     C 7932   7.729   1.917   9.366  0.0481  0.1317  0.3033
  783MOL0     N 7933   7.806   1.832   9.458 -0.2287  0.3069  0.8303
  783MOL0     C 7934   7.945   1.821   9.475  0.1364 -0.2599  0.7705
  783MOL0     C 7935   7.950   1.711   9.547  0.1947 -0.7218 -1.0558
  783MOL0     C 7936   8.075   1.632   9.583  0.0374  0.0603 -0.4540
  783MOL0     C 7937   8.137   1.678   9.713 -0.0137  0.5337  0.3088
  783MOL0     C 7938   8.183   1.823   9.707 -0.1272 -0.5815  0.1377
  783MOL0     C 7939   8.269   1.856   9.831  0.3071 -0.3033  0.8877
  783MOL0     O 7940   8.279   1.997   9.842 -0.2267  0.1074 -0.2832
  783MOL0     C 7941   8.378   2.045   9.931 -1.0716  0.4079 -0.1859
  783MOL0     C 7942   8.467   1.972  10.016  0.0649 -0.7047  0.8120
  783MOL0     C 7943   8.571   2.031  10.086  0.4026  0.7814 -0.0660
  783MOL0     C 7944   8.663   1.942  10.173  0.6449 -0.1245 -0.2098
  783MOL0     C 7945   8.585   2.171  10.078  0.8428  0.5962  0.0912
  783MOL0     C 7946   8.678   2.257  10.156 -0.2484 -0.4075 -0.2927
  783MOL0     O 7947   8.644   2.394  10.158 -0.1023 -0.0788  0.5015
  783MOL0     C 7948   8.712   2.469  10.249 -0.0432 -0.1650  0.9652
  783MOL0     C 7949   8.713   2.448  10.385 -0.3187  0.1752 -0.3414
  783MOL0     C 7950   8.797   2.524  10.474  0.1488  0.1838 -0.4437
  783MOL0     C 7951   8.886   2.618  10.420  0.1766 -0.8795 -0.4262
  783MOL0     O 7952   8.964   2.684  10.509 -0.1176  0.6205  0.0430
  783MOL0     C 7953   9.071   2.763  10.457  0.5280 -0.8877 -0.4553
  783MOL0     C 7954   9.159   2.822  10.567 -0.1171  0.3896 -0.1577
  783MOL0     C 7955   9.264   2.927  10.514  0.8554  0.3744  0.9334
  783MOL0     C 7956   9.382   2.864  10.439  0.2017 -0.1050 -0.3169
  783MOL0     C 7957   9.514   2.944  10.459  0.4580 -0.2190  0.6203
  783MOL0     C 7958   9.646   2.866  10.438 -0.3517  0.5924 -0.6155
  783MOL0     C 7959   9.770   2.949  10.472 -0.1373  0.3447 -0.1493
  783MOL0     C 7960   9.780   3.085  10.407 -0.4773  0.9388 -0.0672
  783MOL0    Cl 7961   9.943   3.148  10.424  0.0513  0.4606 -0.0464
  783MOL0     C 7962   8.876   2.643  10.286  0.4293  0.1550  0.3093
  783MOL0     C 7963   8.792   2.568  10.196 -0.4057 -0.1574 -0.0771
  783MOL0     O 7964   8.777   2.204  10.205  0.7166 -0.7889  0.0726
  783MOL0     C 7965   8.501   2.244   9.982  0.5696 -0.3571  0.3904
  783MOL0     C 7966   8.396   2.183   9.906  0.0507  0.5170  0.3395
  783MOL0     N 7967   7.822   1.674   9.594 -0.1158 -0.1938  0.0299
  783MOL0     N 7968   7.741   1.742   9.536  0.1482 -0.9001  0.0389
  783MOL0     C 7969   6.822   2.429   9.438 -0.4986 -0.3727  0.3191
  783MOL0     C 7970   6.708   2.498   9.432  0.0669  0.5267  0.0303
  783MOL0     C 7971   6.341   2.693   9.433 -0.7304  0.0885 -0.8410
  783MOL0     C 7972   6.245   2.629   9.521 -0.1340  0.2687  0.2699
  783MOL0     C 7973   6.111   2.638   9.495 -0.0560  0.7437 -0.1921
  783MOL0     C 7974   6.065   2.700   9.380  0.1697 -0.3130 -0.2471
  783MOL0     O 7975   5.928   2.707   9.350 -0.3880  0.2048  0.6675
  783MOL0     C 7976   5.843   2.613   9.423  0.0488  0.1087  0.2739
  783MOL0     C 7977   5.731   2.565   9.328 -0.1542  0.4304 -0.1290
  783MOL0     C 7978   5.652   2.679   9.267  0.4043 -0.2658 -0.1288
  783MOL0     C 7979   5.530   2.615   9.200  0.7126  0.1882  0.5772
  783MOL0     C 7980   5.412   2.704   9.184  0.5131 -0.5251 -0.6991
  783MOL0     C 7981   5.308   2.777   9.182 -0.8067  0.0365  0.1736
  783MOL0     C 7982   6.154   2.753   9.291 -0.0523 -0.5027  0.2120
  783MOL0     C 7983   6.287   2.760   9.323  0.2709  0.0909 -0.7252
  783MOL0     C 7984   6.382   2.830   9.220 -0.2257 -0.0483 -0.8679
  783MOL0     H 7985   6.772   2.728   9.194  5.9016  0.1309 -0.0213
  783MOL0     H 7986   6.996   2.608   9.220  1.0871 -0.8103  0.7365
  783MOL0     H 7987   7.030   2.261   9.436  0.6217 -0.5167  0.1645
  783MOL0     H 7988   7.093   2.379   9.561  3.1136 -2.1105  1.5847
  783MOL0     H 7989   7.310   2.380   9.476  1.8847 -0.0746 -1.3976
  783MOL0     H 7990   7.264   2.213   9.518 -1.4625  0.9891  0.9453
  783MOL0     H 7991   7.272   2.143   9.283  2.2431 -0.6255  2.3663
  783MOL0     H 7992   7.241   2.307   9.226  0.0703  1.5680  0.7407
  783MOL0     H 7993   7.456   2.223   9.170 -4.1304 -0.2982  0.4670
  783MOL0     H 7994   7.479   2.359   9.286  3.3246 -0.5394  0.3437
  783MOL0     H 7995   7.464   2.076   9.376 -1.7420  1.1316  2.6995
  783MOL0     H 7996   7.498   2.214   9.472  1.2186  3.2891 -1.2290
  783MOL0     H 7997   7.676   2.151   9.231 -0.1346  1.4116 -0.5686
  783MOL0     H 7998   7.708   2.263   9.368 -0.7971  1.0324 -4.1009
  783MOL0     H 7999   7.704   2.060   9.518 -0.9530 -1.7766 -0.3698
  783MOL0     H 8000   7.843   2.093   9.408  0.3128 -1.8559 -0.5506
  783MOL0     H 8001   7.627   1.880   9.378  0.8194 -2.2847 -0.1135
  783MOL0     H 8002   7.751   1.916   9.259  0.9223  3.0606  0.3662
  783MOL0     H 8003   8.032   1.860   9.424  0.3007 -2.7513 -1.1061
  783MOL0     H 8004   8.155   1.626   9.508  0.4302  0.7673 -0.0997
  783MOL0     H 8005   8.030   1.534   9.599  3.1580 -1.2106  1.5725
  783MOL0     H 8006   8.063   1.663   9.792 -1.6932  0.0724 -1.2632
  783MOL0     H 8007   8.224   1.613   9.727  0.6054  1.1732 -0.4793
  783MOL0     H 8008   8.234   1.855   9.615 -2.3360  0.6381 -0.7632
  783MOL0     H 8009   8.095   1.888   9.712  1.9824  2.4670  0.3873
  783MOL0     H 8010   8.221   1.812   9.919  1.0099 -2.0469  0.4305
  783MOL0     H 8011   8.361   1.805   9.806  0.0132  0.9818 -3.6341
  783MOL0     H 8012   8.443   1.866  10.024 -1.2165 -0.5578 -0.5733
  783MOL0     H 8013   8.676   1.986  10.272  1.0584  1.6285 -0.9907
  783MOL0     H 8014   8.761   1.940  10.123  0.9890 -0.9167  0.4717
  783MOL0     H 8015   8.613   1.846  10.184  0.0064  0.0035 -1.7830
  783MOL0     H 8016   8.662   2.360  10.422 -1.5437  1.5248  1.3525
  783MOL0     H 8017   8.788   2.505  10.580  1.3959  4.7495  0.6903
  783MOL0     H 8018   9.142   2.708  10.394  3.8147  0.1222  2.0547
  783MOL0     H 8019   9.037   2.848  10.397  0.7374 -0.4996 -0.0280
  783MOL0     H 8020   9.109   2.873  10.651 -1.5434 -0.6161 -0.3656
  783MOL0     H 8021   9.213   2.735  10.605 -1.0575 -0.8158 -1.4941
  783MOL0     H 8022   9.294   2.987  10.600 -0.7855 -1.2752  2.7529
  783MOL0     H 8023   9.228   3.000  10.441 -0.2020 -1.2698 -0.2585
  783MOL0     H 8024   9.354   2.859  10.334  1.0276 -2.9612 -0.4917
  783MOL0     H 8025   9.391   2.762  10.478  0.0261 -0.0258 -0.0623
  783MOL0     H 8026   9.508   3.030  10.391 -1.4363 -1.1538 -0.4689
  783MOL0     H 8027   9.513   2.982  10.561 -0.0244  0.6671  0.3034
  783MOL0     H 8028   9.657   2.845  10.331 -0.1384  0.5593 -0.5886
  783MOL0     H 8029   9.638   2.774  10.496  0.6509  0.5863 -0.4620
  783MOL0     H 8030   9.864   2.899  10.445  0.8725  1.6824  0.7637
  783MOL0     H 8031   9.781   2.944  10.580  1.3046  1.3901 -0.2258
  783MOL0     H 8032   9.704   3.153  10.445 -0.0634  0.3399  1.9549
  783MOL0     H 8033   9.769   3.082  10.298 -1.1704  1.0055  0.0024
  783MOL0     H 8034   8.933   2.726  10.245  1.2697 -0.2362  0.6638
  783MOL0     H 8035   8.789   2.589  10.090  2.7167 -0.6818 -0.3518
  783MOL0     H 8036   8.507   2.352   9.975 -0.7597 -0.3141 -0.6958
  783MOL0     H 8037   8.330   2.240   9.842 -3.9378 -1.8488  1.9415
  783MOL0     H 8038   6.834   2.337   9.494 -1.6850 -0.9310 -0.3122
  783MOL0     H 8039   6.620   2.459   9.483  1.5520 -4.1686 -0.5714
  783MOL0     H 8040   6.272   2.578   9.613 -1.9199 -0.5452  0.3855
  783MOL0     H 8041   6.042   2.620   9.577  0.7510  2.2649  0.8826
  783MOL0     H 8042   5.894   2.522   9.458  3.0638  1.3658 -0.4568
  783MOL0     H 8043   5.815   2.666   9.514 -1.8818  1.3633 -0.9911
  783MOL0     H 8044   5.670   2.503   9.395  1.1001  1.5723  2.1668
  783MOL0     H 8045   5.772   2.501   9.249  0.2340 -0.1843  0.5501
  783MOL0     H 8046   5.617   2.753   9.340 -0.0536 -2.1890  1.7131
  783MOL0     H 8047   5.705   2.730   9.186 -2.7833  1.4207 -1.3233
  783MOL0     H 8048   5.500   2.526   9.256  2.6245 -1.3276 -0.6581
  783MOL0     H 8049   5.554   2.581   9.098 -1.5846  0.2182 -0.0282
  783MOL0     H 8050   5.225   2.845   9.191 -0.1658  0.8936 -0.1990
  783MOL0     H 8051   6.109   2.796   9.202  1.3358  2.0645  0.6336
  783MOL0     H 8052   6.322   2.902   9.164  2.5511  3.2572  0.0947
  783MOL0     H 8053   6.474   2.866   9.266  0.8189 -1.5664 -1.6754
  783MOL0     H 8054   6.413   2.761   9.141 -0.7013  2.0631 -2.9920
  784MOL0     O 8055   2.041   5.172   2.265 -0.2733  0.1370 -0.7696
  784MOL0     C 8056   1.980   5.270   2.217 -0.6316 -0.0877 -0.5169
  784MOL0     O 8057   2.027   5.402   2.224 -0.4648  0.2924 -0.7949
  784MOL0     C 8058   2.125   5.429   2.313 -0.2360  0.4527 -0.4713
  784MOL0     C 8059   2.083   5.455   2.453 -0.1726  0.2677  0.0994
  784MOL0     C 8060   2.177   5.475   2.550 -0.2145 -0.2288 -0.1721
  784MOL0     C 8061   2.312   5.470   2.521 -0.7767  0.2356 -0.4723
  784MOL0     O 8062   2.409   5.494   2.614 -0.0896  0.4568  0.4593
  784MOL0     C 8063   2.378   5.452   2.752  0.7229 -0.1477 -0.1669
  784MOL0     C 8064   2.497   5.457   2.841 -0.1214  0.3895 -0.3670
  784MOL0     C 8065   2.611   5.391   2.773 -0.5267  0.1326  0.4610
  784MOL0     C 8066   2.721   5.360   2.871  0.3637 -0.3798  0.1841
  784MOL0     C 8067   2.845   5.303   2.811 -1.1632  0.1871 -0.4200
  784MOL0     C 8068   2.927   5.398   2.730  0.3039  1.0679 -0.5674
  784MOL0     C 8069   3.080   5.347   2.705 -0.5343 -0.5398  0.1878
  784MOL0     C 8070   3.101   5.204   2.665  0.1233  0.3651 -0.2709
  784MOL0     N 8071   3.230   5.177   2.602  0.7994 -0.0742  0.3687
  784MOL0     C 8072   3.346   5.240   2.624 -1.4364  0.5754 -0.3016
  784MOL0     C 8073   3.436   5.171   2.555 -0.1401  0.0589 -0.6580
  784MOL0     C 8074   3.587   5.195   2.523 -0.3338 -0.0364 -0.0945
  784MOL0     C 8075   3.692   5.136   2.626  0.0202 -0.3522  0.5653
  784MOL0     C 8076   3.700   4.985   2.624  0.4421 -0.4288 -0.1161
  784MOL0     C 8077   3.818   4.924   2.704  0.3510  0.4781  0.0435
  784MOL0     O 8078   3.941   4.970   2.663  0.1035  0.3136  0.0224
  784MOL0     C 8079   4.057   4.895   2.667 -0.1399 -0.5883 -0.3734
  784MOL0     C 8080   4.175   4.958   2.628  0.6609 -0.5740  0.7942
  784MOL0     C 8081   4.309   4.905   2.639  0.4217  0.0068 -0.5930
  784MOL0     C 8082   4.415   4.984   2.575 -0.1955  0.5631 -0.3981
  784MOL0     C 8083   4.325   4.768   2.685  0.0436 -0.4785  0.5743
  784MOL0     C 8084   4.455   4.697   2.701 -0.2804 -0.2302  0.2354
  784MOL0     O 8085   4.447   4.562   2.723 -0.4150  0.0515  0.0398
  784MOL0     C 8086   4.554   4.477   2.748 -0.4606  0.2836 -0.0026
  784MOL0     C 8087   4.682   4.511   2.806 -0.1260 -0.0678 -0.2607
  784MOL0     C 8088   4.780   4.406   2.824  0.2620 -0.7789  1.0928
  784MOL0     C 8089   4.752   4.272   2.786 -0.4380 -0.3632 -0.5245
  784MOL0     O 8090   4.835   4.159   2.798  0.1992  0.0951 -0.4604
  784MOL0     C 8091   4.954   4.182   2.877 -0.0559  0.2747 -0.3116
  784MOL0     C 8092   5.048   4.063   2.898  0.0765 -0.2821  0.6822
  784MOL0     C 8093   5.153   4.039   2.787  0.3736  0.2096  0.4258
  784MOL0     C 8094   5.277   4.143   2.784 -0.8203 -0.0848 -0.5866
  784MOL0     C 8095   5.367   4.129   2.662  0.7595  0.2554 -0.8113
  784MOL0     C 8096   5.438   3.994   2.649 -0.7850  0.1598 -0.3021
  784MOL0     C 8097   5.536   3.962   2.762 -0.1172 -0.7349 -0.2031
  784MOL0     C 8098   5.657   4.059   2.768  0.2760  0.4841 -0.1239
  784MOL0    Cl 8099   5.786   3.982   2.881  0.0075  0.1105 -0.2395
  784MOL0     C 8100   4.625   4.242   2.733 -0.1269  0.5504  0.5722
  784MOL0     C 8101   4.533   4.343   2.713  0.1707 -0.7327 -0.3136
  784MOL0     O 8102   4.567   4.757   2.698 -0.3188  0.0209 -0.0793
  784MOL0     C 8103   4.213   4.700   2.729  0.7708  0.2455 -0.2164
  784MOL0     C 8104   4.082   4.761   2.715  0.3627 -0.1769 -0.5818
  784MOL0     N 8105   3.371   5.074   2.478  0.2822  0.2736  0.0723
  784MOL0     N 8106   3.247   5.081   2.504 -0.6119 -0.8427 -0.0095
  784MOL0     C 8107   2.361   5.437   2.392 -0.1774 -1.0899 -0.4407
  784MOL0     C 8108   2.265   5.416   2.285  0.3599 -0.3617 -0.5828
  784MOL0     C 8109   1.843   5.264   2.162  0.5013  0.1607  0.3781
  784MOL0     C 8110   1.789   5.377   2.097  0.5550 -0.6345  0.4193
  784MOL0     C 8111   1.659   5.380   2.037  0.5167  0.5069  0.4920
  784MOL0     C 8112   1.584   5.258   2.044 -0.6074 -0.4462 -0.0471
  784MOL0     O 8113   1.458   5.249   1.994  0.2018  1.2278 -0.2689
  784MOL0     C 8114   1.447   5.220   1.853  0.1246  0.2620 -0.0105
  784MOL0     C 8115   1.298   5.239   1.803 -0.4758  0.1214 -0.0843
  784MOL0     C 8116   1.200   5.124   1.828  0.0398 -0.1129 -0.2453
  784MOL0     C 8117   1.065   5.144   1.769  0.4987  0.2482  0.2471
  784MOL0     C 8118   0.973   5.045   1.839  0.3669 -0.8178  0.1519
  784MOL0     C 8119   0.890   4.974   1.881 -0.1792  0.1489 -0.5232
  784MOL0     C 8120   1.638   5.146   2.101 -0.4658 -0.6412 -0.6820
  784MOL0     C 8121   1.761   5.147   2.168  0.0796 -1.2496 -0.1531
  784MOL0     C 8122   1.813   5.012   2.212  0.1986  0.6322 -0.3478
  784MOL0     H 8123   1.975   5.461   2.467 -0.4478  0.5414 -1.8571
  784MOL0     H 8124   2.152   5.495   2.654 -0.5149 -1.3050 -0.0240
  784MOL0     H 8125   2.330   5.354   2.755  2.5655 -1.0857  0.2626
  784MOL0     H 8126   2.311   5.523   2.802  5.1990  1.9476  3.6301
  784MOL0     H 8127   2.530   5.561   2.855 -0.5951  0.2440  2.4926
  784MOL0     H 8128   2.474   5.408   2.936  0.1530 -1.4581 -1.2207
  784MOL0     H 8129   2.559   5.304   2.732  1.6352 -2.0234  1.9696
  784MOL0     H 8130   2.659   5.456   2.699 -0.1297 -0.0434  0.5616
  784MOL0     H 8131   2.754   5.444   2.932  2.2639 -1.7400  1.1386
  784MOL0     H 8132   2.687   5.285   2.943  4.0225 -1.8943  0.5579
  784MOL0     H 8133   2.815   5.218   2.748 -1.9416  0.7137 -0.7695
  784MOL0     H 8134   2.916   5.270   2.887 -1.0749  3.6830  1.2109
  784MOL0     H 8135   2.874   5.429   2.639 -0.4910  0.7307 -0.2330
  784MOL0     H 8136   2.941   5.481   2.800 -1.4768 -0.2064  1.4210
  784MOL0     H 8137   3.136   5.370   2.796  0.1129 -1.6704  0.0895
  784MOL0     H 8138   3.118   5.405   2.620  1.0664  1.0473  1.8983
  784MOL0     H 8139   3.088   5.138   2.752 -0.4266 -0.3458 -0.8835
  784MOL0     H 8140   3.024   5.166   2.597  0.6759  0.0103 -0.7088
  784MOL0     H 8141   3.370   5.323   2.690  2.1134 -1.6857  1.5788
  784MOL0     H 8142   3.615   5.300   2.522  1.0220 -0.3928 -1.0142
  784MOL0     H 8143   3.609   5.171   2.419  0.2457  2.1573 -0.5150
  784MOL0     H 8144   3.790   5.171   2.593 -0.8788  2.2225  0.4439
  784MOL0     H 8145   3.674   5.167   2.729 -3.2308  0.6371 -0.1628
  784MOL0     H 8146   3.613   4.942   2.675 -0.3716  3.3659  2.1169
  784MOL0     H 8147   3.703   4.946   2.522  0.7824 -0.7479  0.0163
  784MOL0     H 8148   3.807   4.961   2.807  1.8481 -0.2957  0.5096
  784MOL0     H 8149   3.810   4.815   2.711  0.9495  0.5455  3.5811
  784MOL0     H 8150   4.165   5.048   2.568  2.1227 -2.0039 -1.7597
  784MOL0     H 8151   4.472   5.034   2.655 -2.6896  1.7330  0.7525
  784MOL0     H 8152   4.378   5.057   2.503  1.2271  0.9155 -0.8054
  784MOL0     H 8153   4.484   4.924   2.516 -1.8715 -2.4953  0.5596
  784MOL0     H 8154   4.711   4.611   2.835 -2.0845  0.0181  1.6633
  784MOL0     H 8155   4.878   4.431   2.863  0.9254  0.2500 -1.0644
  784MOL0     H 8156   5.007   4.257   2.818  2.9770 -2.5411 -1.4783
  784MOL0     H 8157   4.916   4.218   2.973 -0.8676 -1.5151  0.0841
  784MOL0     H 8158   5.102   4.080   2.992  2.7039  3.4381 -1.2594
  784MOL0     H 8159   4.988   3.972   2.897  0.1680 -0.3459  0.9681
  784MOL0     H 8160   5.114   4.038   2.685 -1.6815 -2.3069  1.1510
  784MOL0     H 8161   5.185   3.935   2.799 -1.7347 -0.4346  0.8586
  784MOL0     H 8162   5.338   4.137   2.874  1.1855  1.1054 -1.7914
  784MOL0     H 8163   5.253   4.249   2.793  2.1733  0.5162  2.2994
  784MOL0     H 8164   5.312   4.157   2.572  2.0833 -3.8666 -3.1299
  784MOL0     H 8165   5.444   4.206   2.667  2.4967 -1.4555  2.9718
  784MOL0     H 8166   5.491   3.994   2.554  2.1854  1.2989  1.2140
  784MOL0     H 8167   5.374   3.907   2.634  0.9844 -1.0720 -1.0026
  784MOL0     H 8168   5.570   3.861   2.737  1.9129 -0.0208 -0.4656
  784MOL0     H 8169   5.495   3.963   2.863  0.6153  1.7286  0.1320
  784MOL0     H 8170   5.631   4.152   2.820  1.5768 -1.2710  4.0657
  784MOL0     H 8171   5.700   4.073   2.669  0.7215 -0.9968 -0.1581
  784MOL0     H 8172   4.608   4.137   2.715  2.9973  0.1823 -0.8629
  784MOL0     H 8173   4.435   4.308   2.681 -1.0984 -0.4593  2.8153
  784MOL0     H 8174   4.215   4.597   2.763 -0.2767  0.1698 -0.3348
  784MOL0     H 8175   3.999   4.696   2.740  0.3934  0.4936  1.3716
  784MOL0     H 8176   2.462   5.452   2.356  1.5299 -0.4506  3.9698
  784MOL0     H 8177   2.302   5.411   2.183  0.7419  2.7777 -0.6994
  784MOL0     H 8178   1.849   5.467   2.104 -2.5385  1.5518  0.9745
  784MOL0     H 8179   1.613   5.459   1.979 -2.2693 -2.5506 -1.8889
  784MOL0     H 8180   1.504   5.294   1.796  1.1127 -1.2081 -0.9990
  784MOL0     H 8181   1.486   5.120   1.836  2.4434  0.9350  0.9906
  784MOL0     H 8182   1.301   5.254   1.695 -1.7818  1.7711  0.0638
  784MOL0     H 8183   1.254   5.333   1.839  2.1816  1.4158  0.0071
  784MOL0     H 8184   1.245   5.031   1.793  0.1748 -0.0616 -0.2098
  784MOL0     H 8185   1.190   5.110   1.936  1.9173 -0.3600 -0.0709
  784MOL0     H 8186   1.062   5.138   1.660  0.9796  0.1308  0.2373
  784MOL0     H 8187   1.024   5.244   1.784 -0.2782  0.5431 -3.0974
  784MOL0     H 8188   0.809   4.930   1.934  0.7204  2.5921  3.2851
  784MOL0     H 8189   1.585   5.052   2.097  1.8646 -2.0391 -0.2782
  784MOL0     H 8190   1.830   5.003   2.319 -1.2986 -2.6262 -0.2661
  784MOL0     H 8191   1.749   4.928   2.182  0.4875  1.1104 -2.5189
  784MOL0     H 8192   1.907   4.998   2.158  0.8450  1.7268  0.4556
  785MOL0     O 8193   5.876  11.188   7.732  1.0732  0.5409 -0.0699
  785MOL0     C 8194   5.835  11.147   7.618 -0.4407 -0.5561 -0.2056
  785MOL0     O 8195   5.850  11.217   7.497  0.4156 -0.6807 -0.1675
  785MOL0     C 8196   5.877  11.346   7.497  0.1858 -1.0426 -0.4744
  785MOL0     C 8197   5.781  11.441   7.455 -0.8767 -0.0183 -0.1131
  785MOL0     C 8198   5.806  11.577   7.445 -0.2344 -0.1371  0.3771
  785MOL0     C 8199   5.940  11.621   7.473  0.2276  0.0303  0.2889
  785MOL0     O 8200   5.990  11.749   7.449  0.2198  0.2004 -0.5993
  785MOL0     C 8201   5.946  11.806   7.320 -1.0533  0.4875 -0.5686
  785MOL0     C 8202   5.966  11.954   7.318 -0.1502 -0.1211 -0.5208
  785MOL0     C 8203   6.115  11.997   7.315  0.3066  0.2424 -0.2490
  785MOL0     C 8204   6.204  11.957   7.202 -0.0730  0.3051 -0.3322
  785MOL0     C 8205   6.342  12.014   7.215  0.6189  0.7025  0.8113
  785MOL0     C 8206   6.434  11.907   7.282  0.6119  0.0801 -0.5135
  785MOL0     C 8207   6.553  11.978   7.345 -0.6314  0.6641  0.4710
  785MOL0     C 8208   6.634  11.884   7.430  0.3991  0.4603 -0.0058
  785MOL0     N 8209   6.737  11.949   7.502  0.1113 -0.2403  0.2345
  785MOL0     C 8210   6.867  11.925   7.483  0.6047  0.3193 -0.2480
  785MOL0     C 8211   6.940  12.004   7.571  0.7536 -0.0121 -0.0498
  785MOL0     C 8212   7.090  11.983   7.585  0.3954 -0.8454  0.4043
  785MOL0     C 8213   7.110  11.877   7.694 -0.0035  0.6377  0.3751
  785MOL0     C 8214   7.240  11.869   7.774  0.2832  0.3763  0.4398
  785MOL0     C 8215   7.358  11.838   7.685  0.4080  0.0064  0.1808
  785MOL0     O 8216   7.476  11.837   7.766  0.0530  0.5688  0.3735
  785MOL0     C 8217   7.605  11.830   7.705  0.1551 -0.6631 -1.0892
  785MOL0     C 8218   7.703  11.794   7.790 -0.4075 -0.8818 -0.7489
  785MOL0     C 8219   7.834  11.793   7.751  0.7708 -0.1082  0.8786
  785MOL0     C 8220   7.939  11.750   7.844 -0.1052  0.5139  0.0540
  785MOL0     C 8221   7.872  11.815   7.612  0.1454 -0.4453  0.2678
  785MOL0     C 8222   8.015  11.822   7.575  0.5466 -0.6680  0.5944
  785MOL0     O 8223   8.031  11.778   7.446 -0.7068  0.1523 -0.2380
  785MOL0     C 8224   8.153  11.785   7.384 -0.8815 -0.6158  0.1745
  785MOL0     C 8225   8.245  11.687   7.402 -0.0699 -0.5655  0.6717
  785MOL0     C 8226   8.374  11.708   7.351 -0.1702  0.8682  0.4038
  785MOL0     C 8227   8.406  11.807   7.262 -0.8294  0.5070 -0.2319
  785MOL0     O 8228   8.537  11.811   7.218 -0.1457  0.1265 -0.5661
  785MOL0     C 8229   8.591  11.919   7.144 -0.1215 -0.3408 -0.6899
  785MOL0     C 8230   8.750  11.920   7.137 -0.0359  0.6677  0.1211
  785MOL0     C 8231   8.803  11.797   7.055  0.0760 -0.4394  0.7824
  785MOL0     C 8232   8.770  11.658   7.096 -0.3078  1.0512  0.7069
  785MOL0     C 8233   8.881  11.557   7.056  0.1135 -0.3122  1.2070
  785MOL0     C 8234   8.846  11.412   7.081  0.5236  0.2265  1.3790
  785MOL0     C 8235   8.954  11.309   7.055 -0.6994 -0.2627 -0.4236
  785MOL0     C 8236   9.040  11.287   7.175  0.7869  0.3401 -1.2367
  785MOL0    Cl 8237   9.161  11.156   7.167 -0.2976 -0.2108 -0.0922
  785MOL0     C 8238   8.306  11.888   7.224 -0.2255  0.0048 -0.2288
  785MOL0     C 8239   8.186  11.884   7.292 -0.9304 -0.1815  0.5074
  785MOL0     O 8240   8.102  11.868   7.647  0.5350  0.1438  0.0515
  785MOL0     C 8241   7.767  11.843   7.529  0.6404  0.2261  0.2788
  785MOL0     C 8242   7.634  11.858   7.575 -0.0757  0.4731 -0.1298
  785MOL0     N 8243   6.851  12.073   7.647  0.0142 -0.4134  0.3138
  785MOL0     N 8244   6.730  12.048   7.594  0.8135  0.3886  1.0078
  785MOL0     C 8245   6.039  11.532   7.515 -1.0979 -0.3788  0.1559
  785MOL0     C 8246   6.007  11.394   7.528  0.3933 -0.2008  1.3819
  785MOL0     C 8247   5.750  11.027   7.614  0.3437 -0.3135  0.2177
  785MOL0     C 8248   5.632  11.037   7.536 -0.0498  0.3310  0.5453
  785MOL0     C 8249   5.545  10.928   7.531 -0.6385 -0.6415 -0.3463
  785MOL0     C 8250   5.560  10.811   7.613  0.4386 -0.6655 -0.0705
  785MOL0     O 8251   5.455  10.727   7.593  0.0250  0.1445  0.4328
  785MOL0     C 8252   5.451  10.603   7.662  0.5018  0.4145 -0.6621
  785MOL0     C 8253   5.402  10.611   7.811 -0.1417 -0.4596  0.3454
  785MOL0     C 8254   5.401  10.477   7.877 -0.0423 -0.0931 -1.2130
  785MOL0     C 8255   5.334  10.485   8.007 -0.7055  0.3602  0.1808
  785MOL0     C 8256   5.389  10.378   8.102 -0.2094 -0.1004  0.3283
  785MOL0     C 8257   5.432  10.295   8.182  0.2364 -0.2665  0.2887
  785MOL0     C 8258   5.677  10.806   7.688  0.2938  0.3385  0.5400
  785MOL0     C 8259   5.766  10.908   7.699 -0.1733 -0.9979  0.4863
  785MOL0     C 8260   5.878  10.896   7.797  0.2079  0.7729 -0.3872
  785MOL0     H 8261   5.680  11.409   7.430 -0.3140 -2.0628  0.0900
  785MOL0     H 8262   5.730  11.644   7.406  1.8486  0.9960 -1.9919
  785MOL0     H 8263   5.839  11.786   7.305 -0.6809  0.2682 -3.6688
  785MOL0     H 8264   5.997  11.779   7.227  0.8753  1.5774  0.1302
  785MOL0     H 8265   5.926  11.998   7.226  3.2118  1.5593 -1.3109
  785MOL0     H 8266   5.911  11.997   7.403 -4.7159 -1.8817 -2.2543
  785MOL0     H 8267   6.111  12.106   7.327 -3.3762  0.0679  1.8030
  785MOL0     H 8268   6.166  11.961   7.405  3.0294 -1.5532 -2.3762
  785MOL0     H 8269   6.216  11.850   7.187 -1.1496  0.0873  0.2952
  785MOL0     H 8270   6.156  12.008   7.118 -0.1806  1.3942  0.3628
  785MOL0     H 8271   6.335  12.104   7.277  0.5113  1.7182 -0.6382
  785MOL0     H 8272   6.391  12.039   7.121  2.1833  0.3663  1.4983
  785MOL0     H 8273   6.378  11.861   7.363 -1.9619  2.0107 -1.0720
  785MOL0     H 8274   6.469  11.829   7.214  0.6076  0.7819 -1.3462
  785MOL0     H 8275   6.520  12.064   7.404 -3.8091  2.8028 -3.8351
  785MOL0     H 8276   6.620  12.029   7.274 -4.4808 -0.0020 -4.1903
  785MOL0     H 8277   6.564  11.845   7.505 -1.8467  0.9406 -1.7855
  785MOL0     H 8278   6.661  11.798   7.367 -2.0017  0.2070 -0.7867
  785MOL0     H 8279   6.908  11.857   7.409 -0.2121 -1.5551  0.9349
  785MOL0     H 8280   7.119  12.087   7.606  1.0638 -1.1417  0.9878
  785MOL0     H 8281   7.140  11.943   7.497 -0.8037 -1.4018 -0.0477
  785MOL0     H 8282   7.035  11.878   7.774  1.8109 -0.4693  2.2083
  785MOL0     H 8283   7.094  11.778   7.650  1.7388  0.3577  0.2973
  785MOL0     H 8284   7.244  11.957   7.840 -0.2865  0.0358  0.9379
  785MOL0     H 8285   7.219  11.788   7.844 -1.8515 -1.2535 -1.9273
  785MOL0     H 8286   7.347  11.745   7.629  5.4396  0.2544 -1.7855
  785MOL0     H 8287   7.370  11.922   7.616 -1.0526  0.9275  1.0031
  785MOL0     H 8288   7.665  11.774   7.890  1.1016  1.2814  0.3395
  785MOL0     H 8289   7.996  11.670   7.796 -0.3286 -0.0691  0.7315
  785MOL0     H 8290   7.891  11.707   7.932 -0.9792  2.1728  0.4180
  785MOL0     H 8291   8.001  11.835   7.874 -1.7471  2.0550 -0.7577
  785MOL0     H 8292   8.216  11.598   7.457 -1.2603 -0.4719  0.2254
  785MOL0     H 8293   8.452  11.641   7.384 -0.2125  1.2437  1.3096
  785MOL0     H 8294   8.537  11.922   7.048 -0.2719 -1.9935 -0.6785
  785MOL0     H 8295   8.567  12.014   7.193 -1.5624 -0.6802 -0.6817
  785MOL0     H 8296   8.780  12.014   7.090  2.6683 -0.2896 -0.2559
  785MOL0     H 8297   8.792  11.922   7.238  1.1801  1.3830 -0.3818
  785MOL0     H 8298   8.910  11.804   7.074 -0.3676 -2.0478  4.8107
  785MOL0     H 8299   8.781  11.816   6.949 -2.6126 -0.2156  1.3046
  785MOL0     H 8300   8.673  11.627   7.056 -0.8564  0.0650  2.6834
  785MOL0     H 8301   8.763  11.649   7.205  0.0086  0.1824  0.6612
  785MOL0     H 8302   8.901  11.558   6.949 -0.9034 -1.3492  0.9927
  785MOL0     H 8303   8.963  11.584   7.124  0.9924  1.1132 -0.3443
  785MOL0     H 8304   8.769  11.392   7.006  2.6516  3.1157 -1.8596
  785MOL0     H 8305   8.809  11.401   7.184 -0.9635  0.2915  0.8752
  785MOL0     H 8306   9.030  11.327   6.979 -1.9086  0.7096 -1.4382
  785MOL0     H 8307   8.907  11.216   7.022  1.3298 -0.9804 -1.4581
  785MOL0     H 8308   8.974  11.265   7.260 -2.1746 -2.6984 -4.0619
  785MOL0     H 8309   9.092  11.383   7.188  2.2474 -0.5770 -0.0047
  785MOL0     H 8310   8.330  11.966   7.153 -1.9677  1.7219  0.9647
  785MOL0     H 8311   8.108  11.959   7.281 -0.6411  0.1284  0.5492
  785MOL0     H 8312   7.777  11.869   7.424  1.2361  0.8967  0.4958
  785MOL0     H 8313   7.561  11.887   7.501 -0.0175  0.3001 -0.2557
  785MOL0     H 8314   6.137  11.571   7.539 -0.1744 -1.7562 -1.2289
  785MOL0     H 8315   6.082  11.320   7.556  2.8391  1.6669  0.1795
  785MOL0     H 8316   5.605  11.121   7.473  1.7572 -0.8662 -1.9753
  785MOL0     H 8317   5.456  10.944   7.472  1.2503  0.4601 -3.1098
  785MOL0     H 8318   5.385  10.547   7.595  0.7879 -0.5540 -0.1567
  785MOL0     H 8319   5.550  10.555   7.658  0.6304  0.6811 -0.7269
  785MOL0     H 8320   5.301  10.653   7.808 -1.1454 -2.7704 -0.0057
  785MOL0     H 8321   5.460  10.685   7.868 -1.3871  0.0916  0.9381
  785MOL0     H 8322   5.348  10.405   7.813 -0.0821  0.7803 -2.1949
  785MOL0     H 8323   5.507  10.453   7.888  0.5854  1.3785 -3.2398
  785MOL0     H 8324   5.228  10.468   7.987 -0.2418 -2.6120 -0.1871
  785MOL0     H 8325   5.351  10.582   8.055 -1.0022 -0.2562  1.5662
  785MOL0     H 8326   5.473  10.226   8.253 -0.7681 -0.7705  0.3991
  785MOL0     H 8327   5.710  10.718   7.741  0.8364  1.1716  1.6440
  785MOL0     H 8328   5.879  10.973   7.874 -3.2433  0.0802  0.4867
  785MOL0     H 8329   5.875  10.801   7.851  3.0116 -0.3309 -1.9611
  785MOL0     H 8330   5.966  10.879   7.733 -0.5430 -1.9129 -0.8239
  786MOL0     O 8331   4.274   9.786   4.834  0.3335  0.3761  0.5333
  786MOL0     C 8332   4.206   9.692   4.881 -0.1542  1.3049  0.3094
  786MOL0     O 8333   4.257   9.574   4.932  0.2188 -0.2152  0.4563
  786MOL0     C 8334   4.388   9.553   4.959 -0.5457 -0.0626  0.1028
  786MOL0     C 8335   4.444   9.555   5.088 -0.3410 -0.6347 -0.6018
  786MOL0     C 8336   4.584   9.540   5.115  0.2326 -0.6516 -0.1369
  786MOL0     C 8337   4.668   9.516   5.004 -0.3048  0.1264  0.4777
  786MOL0     O 8338   4.806   9.495   5.033  0.0567  0.4997  0.2074
  786MOL0     C 8339   4.871   9.380   4.976 -0.0022  0.0613  0.0153
  786MOL0     C 8340   4.949   9.412   4.847  0.3491  0.6761 -0.1545
  786MOL0     C 8341   5.071   9.330   4.819  0.0733 -0.3122 -0.3497
  786MOL0     C 8342   5.105   9.335   4.666  0.9567  1.0748  0.2507
  786MOL0     C 8343   5.222   9.245   4.627 -0.1022 -0.3091  0.4349
  786MOL0     C 8344   5.189   9.095   4.641  0.4943  0.5043 -0.7559
  786MOL0     C 8345   5.280   9.002   4.550  0.3660  0.0300  0.2085
  786MOL0     C 8346   5.260   8.851   4.566 -0.0779 -0.0108  0.2549
  786MOL0     N 8347   5.340   8.774   4.472 -0.4016 -0.4770  0.7730
  786MOL0     C 8348   5.467   8.722   4.471 -0.0719 -0.7461  0.3593
  786MOL0     C 8349   5.478   8.673   4.341 -0.0142  0.4119 -0.2917
  786MOL0     C 8350   5.582   8.588   4.270 -0.4650  0.1500 -0.8776
  786MOL0     C 8351   5.660   8.662   4.162 -0.1953 -0.8404 -0.2768
  786MOL0     C 8352   5.752   8.768   4.234  0.1572 -0.8546  0.1929
  786MOL0     C 8353   5.844   8.840   4.136 -0.4988  0.1320 -0.8154
  786MOL0     O 8354   5.904   8.746   4.053  0.5224 -1.0550  0.5902
  786MOL0     C 8355   6.032   8.763   3.999  0.3125  0.2482 -0.2270
  786MOL0     C 8356   6.095   8.885   3.971 -0.3457 -0.0833 -0.1395
  786MOL0     C 8357   6.214   8.906   3.898  0.4695  0.3047 -0.3415
  786MOL0     C 8358   6.266   9.044   3.891 -0.3913 -0.2019 -0.7782
  786MOL0     C 8359   6.282   8.793   3.852  0.0768  0.7355  0.3378
  786MOL0     C 8360   6.424   8.791   3.812  0.0467 -0.7462 -0.2570
  786MOL0     O 8361   6.499   8.883   3.884  0.0872  1.1097 -0.3750
  786MOL0     C 8362   6.633   8.897   3.840  0.6668  0.8342  0.3024
  786MOL0     C 8363   6.727   8.811   3.891 -0.7426 -0.6054 -0.4914
  786MOL0     C 8364   6.861   8.823   3.851  0.2505 -0.7544 -0.2962
  786MOL0     C 8365   6.902   8.939   3.777 -0.6603 -0.6811  1.0729
  786MOL0     O 8366   7.044   8.972   3.764 -0.2245  0.6722 -0.6352
  786MOL0     C 8367   7.123   8.850   3.749  0.1032 -0.8943 -0.3677
  786MOL0     C 8368   7.242   8.890   3.669 -1.0931  0.5995  0.6256
  786MOL0     C 8369   7.369   8.871   3.751  0.5026  0.1659 -0.9451
  786MOL0     C 8370   7.493   8.910   3.676  0.7654 -0.0608 -0.1058
  786MOL0     C 8371   7.617   8.914   3.764 -0.2058 -0.1295 -0.5964
  786MOL0     C 8372   7.739   8.931   3.670  0.0340 -0.4376  0.2067
  786MOL0     C 8373   7.863   8.969   3.751 -0.5500 -0.1928 -0.1562
  786MOL0     C 8374   7.977   8.999   3.650 -0.4715 -0.0720 -0.3656
  786MOL0    Cl 8375   8.138   9.001   3.741  0.6868  0.4801  0.3240
  786MOL0     C 8376   6.799   9.033   3.725 -0.6262  0.2600 -0.2930
  786MOL0     C 8377   6.667   9.002   3.759  0.6113  0.6075  0.9292
  786MOL0     O 8378   6.468   8.710   3.742 -0.1919  0.1611  0.7192
  786MOL0     C 8379   6.217   8.667   3.868 -1.0109  0.0781 -0.5386
  786MOL0     C 8380   6.095   8.652   3.936  0.1200 -0.3291  0.3969
  786MOL0     N 8381   5.358   8.686   4.270  0.1976 -0.3671 -0.4103
  786MOL0     N 8382   5.277   8.749   4.350 -0.6590  0.0324 -0.6596
  786MOL0     C 8383   4.611   9.516   4.871  0.6465 -0.2373  1.1141
  786MOL0     C 8384   4.476   9.533   4.855  0.0643  0.6963  0.9534
  786MOL0     C 8385   4.057   9.702   4.874 -0.2956  0.0930 -0.2308
  786MOL0     C 8386   4.006   9.835   4.857 -0.3994  0.8076 -0.1819
  786MOL0     C 8387   3.861   9.861   4.855 -0.8937 -0.8695  0.6914
  786MOL0     C 8388   3.769   9.755   4.852 -0.4613 -1.0372 -0.6540
  786MOL0     O 8389   3.634   9.767   4.848  0.3500 -0.0470  0.3363
  786MOL0     C 8390   3.581   9.897   4.820  0.0892 -0.6464 -0.3192
  786MOL0     C 8391   3.507   9.947   4.954  0.7671 -0.2544 -0.1175
  786MOL0     C 8392   3.422  10.074   4.933 -0.1033 -0.0365 -0.4753
  786MOL0     C 8393   3.320  10.061   4.819 -0.3170  0.3155  0.6104
  786MOL0     C 8394   3.205   9.988   4.868 -0.1048 -0.5219  0.1519
  786MOL0     C 8395   3.124   9.917   4.914  0.5517 -0.8575 -0.8990
  786MOL0     C 8396   3.813   9.627   4.851 -0.3260 -0.8062 -0.0203
  786MOL0     C 8397   3.956   9.600   4.860  0.2035 -0.0375  0.2564
  786MOL0     C 8398   4.006   9.463   4.830  0.4057  0.0213  0.0745
  786MOL0     H 8399   4.368   9.587   5.159  0.1154  2.7587 -1.4744
  786MOL0     H 8400   4.614   9.569   5.215  0.0278  0.4008 -0.3748
  786MOL0     H 8401   4.811   9.290   4.961  1.2284 -0.5720 -1.3134
  786MOL0     H 8402   4.947   9.359   5.052 -0.7460  0.1609  0.8044
  786MOL0     H 8403   4.880   9.396   4.764  0.0822  2.3744 -0.2772
  786MOL0     H 8404   4.969   9.519   4.844 -0.8392  0.9266  0.1057
  786MOL0     H 8405   5.153   9.362   4.884  0.3953  0.5911 -1.1875
  786MOL0     H 8406   5.041   9.229   4.851 -3.1179  0.8394  0.6963
  786MOL0     H 8407   5.015   9.300   4.614  2.5047 -1.1346 -1.1145
  786MOL0     H 8408   5.127   9.440   4.647 -4.9873  2.5053 -0.6420
  786MOL0     H 8409   5.314   9.257   4.685  1.3269  0.6877 -1.8927
  786MOL0     H 8410   5.251   9.264   4.523 -1.2228  1.0867  0.3513
  786MOL0     H 8411   5.191   9.055   4.743  2.7886  2.1373 -0.0710
  786MOL0     H 8412   5.087   9.083   4.605 -0.1472  1.4068  0.6417
  786MOL0     H 8413   5.384   9.020   4.579  0.2823  1.6938 -0.4302
  786MOL0     H 8414   5.264   9.020   4.444 -2.2056 -3.0152 -0.0786
  786MOL0     H 8415   5.289   8.823   4.668 -0.0714  1.0233  0.5427
  786MOL0     H 8416   5.157   8.817   4.554  0.7540 -2.4628 -0.6325
  786MOL0     H 8417   5.536   8.717   4.555 -1.4131  0.6179  1.6126
  786MOL0     H 8418   5.528   8.508   4.219 -0.3744 -0.4240 -0.0915
  786MOL0     H 8419   5.652   8.538   4.338 -0.2085 -1.1039 -2.0059
  786MOL0     H 8420   5.721   8.594   4.102  3.0153  0.5822  1.1391
  786MOL0     H 8421   5.591   8.717   4.098 -0.8338 -1.2977  0.0093
  786MOL0     H 8422   5.697   8.850   4.282  2.9886  1.7099 -0.6437
  786MOL0     H 8423   5.814   8.712   4.304  1.7890  0.3160 -0.2460
  786MOL0     H 8424   5.784   8.907   4.073 -1.2762  1.1244  0.9124
  786MOL0     H 8425   5.924   8.896   4.186  0.0656  0.0292 -1.5789
  786MOL0     H 8426   6.058   8.969   4.028  2.0275  1.0224 -0.1422
  786MOL0     H 8427   6.182   9.113   3.898 -2.0153 -2.1494 -0.3520
  786MOL0     H 8428   6.338   9.069   3.812  2.2872  2.7298  2.2677
  786MOL0     H 8429   6.324   9.070   3.980 -0.9526  1.3848 -0.8386
  786MOL0     H 8430   6.707   8.729   3.960  1.1838  1.1901  2.3740
  786MOL0     H 8431   6.927   8.743   3.881  0.4317 -0.0448  1.3233
  786MOL0     H 8432   7.152   8.804   3.843  0.8692  0.0368 -0.1283
  786MOL0     H 8433   7.060   8.781   3.692 -0.2490  1.4540 -3.1055
  786MOL0     H 8434   7.255   8.819   3.587 -0.0895  1.5942 -0.1170
  786MOL0     H 8435   7.244   8.993   3.633 -0.4924  0.9980  1.7237
  786MOL0     H 8436   7.373   8.767   3.784  0.1108  0.9035  1.6240
  786MOL0     H 8437   7.365   8.924   3.846  1.5601 -2.2254  0.5396
  786MOL0     H 8438   7.481   9.003   3.621 -0.0483 -2.4262 -4.4326
  786MOL0     H 8439   7.508   8.829   3.603  1.6440 -2.1702  2.2794
  786MOL0     H 8440   7.617   9.000   3.831  1.0161  1.1473 -2.1572
  786MOL0     H 8441   7.622   8.820   3.821 -2.4176 -0.5190 -0.9622
  786MOL0     H 8442   7.709   9.015   3.606 -4.5249 -0.5656  1.8538
  786MOL0     H 8443   7.759   8.841   3.612 -1.4228  0.0959 -1.1896
  786MOL0     H 8444   7.902   8.887   3.812  3.5101  1.1780 -0.6383
  786MOL0     H 8445   7.838   9.042   3.830 -0.2335 -1.5043  1.1973
  786MOL0     H 8446   7.964   9.086   3.585 -2.3657 -0.5847 -0.7540
  786MOL0     H 8447   7.985   8.913   3.582  1.8610  0.0006 -0.2752
  786MOL0     H 8448   6.819   9.135   3.692  2.5923  0.7948  2.6105
  786MOL0     H 8449   6.586   9.073   3.751  1.2425  1.4188  1.5204
  786MOL0     H 8450   6.267   8.575   3.839 -1.3446  0.7779 -3.7375
  786MOL0     H 8451   6.043   8.557   3.942  0.2283 -0.4764 -0.7899
  786MOL0     H 8452   4.678   9.501   4.787 -1.4567  0.3993 -0.7718
  786MOL0     H 8453   4.427   9.518   4.760 -1.3882 -2.9948  2.1234
  786MOL0     H 8454   4.070   9.922   4.864 -0.1216  0.4669  3.6893
  786MOL0     H 8455   3.833   9.964   4.876 -0.1547 -0.1823 -1.4033
  786MOL0     H 8456   3.655   9.966   4.777  0.3888 -1.6906 -1.5547
  786MOL0     H 8457   3.498   9.890   4.748  0.7342 -0.6981 -1.0769
  786MOL0     H 8458   3.588   9.960   5.027 -1.1806 -2.9974  2.8110
  786MOL0     H 8459   3.442   9.871   4.998  0.8859 -0.2438  0.0818
  786MOL0     H 8460   3.365  10.099   5.023 -0.5003  0.8020 -0.9465
  786MOL0     H 8461   3.480  10.167   4.924  0.6715  0.3989  5.1766
  786MOL0     H 8462   3.359  10.018   4.726 -0.7193  0.5145  0.3488
  786MOL0     H 8463   3.285  10.160   4.789  0.6975  0.2963 -0.7167
  786MOL0     H 8464   3.046   9.851   4.948  2.2956 -1.0795  3.2850
  786MOL0     H 8465   3.733   9.555   4.836 -0.9306 -0.1454  0.0066
  786MOL0     H 8466   3.919   9.407   4.796  1.0178  0.6636 -2.7456
  786MOL0     H 8467   4.076   9.454   4.746 -1.1550 -1.5882 -1.1103
  786MOL0     H 8468   4.042   9.407   4.917 -0.3453 -1.6534 -0.6708
  787MOL0     O 8469   7.315   1.599   2.361 -0.3663 -0.0742  0.2224
  787MOL0     C 8470   7.308   1.658   2.254 -1.1122  0.0053  0.2103
  787MOL0     O 8471   7.413   1.733   2.201 -0.7343 -0.4920  0.2497
  787MOL0     C 8472   7.515   1.771   2.281  0.0699 -0.2317 -0.1593
  787MOL0     C 8473   7.652   1.751   2.250 -1.1233  0.2943 -0.1002
  787MOL0     C 8474   7.753   1.776   2.344  0.3538 -0.8754  0.2462
  787MOL0     C 8475   7.718   1.823   2.470  0.6235 -0.0543 -0.1297
  787MOL0     O 8476   7.804   1.862   2.560 -0.0824  0.6586  0.0419
  787MOL0     C 8477   7.934   1.808   2.570 -1.1186 -0.5952 -0.0383
  787MOL0     C 8478   7.999   1.854   2.697 -1.2645 -0.4800  0.0069
  787MOL0     C 8479   7.996   2.004   2.700  0.7144 -0.1797 -0.3559
  787MOL0     C 8480   8.086   2.065   2.806  0.4226  0.8937 -0.3435
  787MOL0     C 8481   8.085   2.213   2.792 -0.5217  0.0464 -0.4912
  787MOL0     C 8482   8.154   2.298   2.899  0.0478 -0.3390  0.0727
  787MOL0     C 8483   8.224   2.421   2.849  0.0289 -0.8673 -0.6955
  787MOL0     C 8484   8.286   2.506   2.952 -0.2433 -0.3685  0.4668
  787MOL0     N 8485   8.202   2.548   3.067 -0.2778 -0.3867  0.2564
  787MOL0     C 8486   8.174   2.484   3.187  0.3869  0.2503  0.7728
  787MOL0     C 8487   8.066   2.538   3.250 -0.1012  0.0742  0.7586
  787MOL0     C 8488   7.997   2.486   3.373  0.3650  0.0856  0.3155
  787MOL0     C 8489   7.853   2.432   3.357  0.5421  0.4052  0.7302
  787MOL0     C 8490   7.836   2.333   3.239 -0.1133  0.2723  0.4480
  787MOL0     C 8491   7.789   2.390   3.102  0.1102  0.1305 -0.7159
  787MOL0     O 8492   7.780   2.274   3.011 -0.2659  0.0943 -0.0547
  787MOL0     C 8493   7.653   2.227   2.980 -0.1553 -0.3442  0.1658
  787MOL0     C 8494   7.541   2.241   3.062  0.7927  0.5555 -0.3135
  787MOL0     C 8495   7.402   2.205   3.035  0.4214  0.7336  1.0938
  787MOL0     C 8496   7.294   2.215   3.141  0.0462  0.0390 -0.6098
  787MOL0     C 8497   7.378   2.139   2.913 -0.1644 -0.2156  0.6889
  787MOL0     C 8498   7.246   2.104   2.856  0.0216  0.4168 -0.5839
  787MOL0     O 8499   7.243   2.026   2.745 -0.2937  0.0267  0.4379
  787MOL0     C 8500   7.139   1.936   2.735  0.2230 -0.1736  1.0624
  787MOL0     C 8501   6.996   1.980   2.727 -0.1504  0.3869 -0.7098
  787MOL0     C 8502   6.893   1.884   2.718 -0.3087  0.1047 -0.4643
  787MOL0     C 8503   6.924   1.753   2.713 -0.3900 -0.5957  0.2414
  787MOL0     O 8504   6.819   1.670   2.718 -0.5430 -0.0699  0.7506
  787MOL0     C 8505   6.847   1.533   2.687 -0.0707 -0.5307 -0.0965
  787MOL0     C 8506   6.721   1.457   2.691  0.5113 -0.3707 -0.4014
  787MOL0     C 8507   6.740   1.319   2.625  0.7998 -0.5304  0.2891
  787MOL0     C 8508   6.626   1.223   2.665 -0.2158 -0.6409 -0.5158
  787MOL0     C 8509   6.661   1.073   2.618 -0.4740  0.1901 -0.6447
  787MOL0     C 8510   6.542   0.990   2.600  0.3302 -0.6132  1.5150
  787MOL0     C 8511   6.479   0.911   2.717  0.9459  0.3734 -0.2785
  787MOL0     C 8512   6.326   0.890   2.697  0.4729 -0.0275  0.8068
  787MOL0    Cl 8513   6.250   1.054   2.701 -0.1687  0.1381 -0.0419
  787MOL0     C 8514   7.057   1.713   2.706 -1.5576  0.6270  0.1040
  787MOL0     C 8515   7.165   1.802   2.715 -0.0519  0.1374  0.1453
  787MOL0     O 8516   7.151   2.148   2.914 -0.0388  0.1175 -0.2374
  787MOL0     C 8517   7.499   2.119   2.831 -0.0231 -0.3368 -0.1624
  787MOL0     C 8518   7.624   2.164   2.857 -0.6507  0.2091  0.2332
  787MOL0     N 8519   8.029   2.637   3.161  0.1826  0.1964  0.3200
  787MOL0     N 8520   8.107   2.650   3.054 -0.7488  0.5367 -0.2289
  787MOL0     C 8521   7.586   1.857   2.497 -0.7343  0.4449  1.2704
  787MOL0     C 8522   7.490   1.837   2.407 -0.3619  0.6034  0.3753
  787MOL0     C 8523   7.194   1.648   2.165 -1.0315 -0.2453 -0.9682
  787MOL0     C 8524   7.220   1.644   2.025  0.0346  1.0822 -0.7310
  787MOL0     C 8525   7.124   1.604   1.927  1.1109  0.2778  0.1793
  787MOL0     C 8526   6.999   1.571   1.973  0.9649  0.6818  0.8805
  787MOL0     O 8527   6.907   1.566   1.867 -0.3464 -0.0571  0.1285
  787MOL0     C 8528   6.793   1.477   1.869 -0.0690 -0.4495 -0.1990
  787MOL0     C 8529   6.830   1.320   1.868  0.4734 -0.2047 -0.1893
  787MOL0     C 8530   6.868   1.263   1.736  0.1179  1.0429  0.6920
  787MOL0     C 8531   7.004   1.316   1.688  0.8302  0.2295 -0.5870
  787MOL0     C 8532   7.121   1.258   1.754  0.0762  0.9003  0.3513
  787MOL0     C 8533   7.231   1.234   1.803 -0.3046  0.1565  0.3857
  787MOL0     C 8534   6.974   1.571   2.112  0.2608  0.8737 -0.4494
  787MOL0     C 8535   7.064   1.620   2.216 -0.5043 -0.0827  0.1249
  787MOL0     C 8536   7.030   1.652   2.362  0.4086 -0.5037  0.0115
  787MOL0     H 8537   7.678   1.715   2.151 -2.4059  1.6320 -0.9605
  787MOL0     H 8538   7.854   1.742   2.320 -0.1059 -4.4047  2.5679
  787MOL0     H 8539   7.993   1.830   2.481  1.0684 -4.2462  0.3251
  787MOL0     H 8540   7.932   1.699   2.579  3.4954 -0.9869 -1.1286
  787MOL0     H 8541   7.956   1.808   2.786 -1.9956 -0.6423 -0.4178
  787MOL0     H 8542   8.100   1.812   2.692 -0.5851  1.1389 -0.3793
  787MOL0     H 8543   8.022   2.031   2.597 -0.4694  2.5528 -0.0129
  787MOL0     H 8544   7.895   2.045   2.712 -0.2144 -1.7569 -2.0589
  787MOL0     H 8545   8.050   2.031   2.903  0.7563 -1.7145 -1.0532
  787MOL0     H 8546   8.191   2.041   2.784 -0.1545 -0.1415 -2.2188
  787MOL0     H 8547   7.980   2.241   2.785 -0.9107 -1.3117 -0.4495
  787MOL0     H 8548   8.135   2.232   2.696 -0.3633 -2.2318 -0.9225
  787MOL0     H 8549   8.078   2.334   2.968  0.2052  0.6843 -0.2713
  787MOL0     H 8550   8.236   2.240   2.942  2.6431  2.2986 -1.0078
  787MOL0     H 8551   8.151   2.480   2.793  0.4123 -0.0934 -0.3806
  787MOL0     H 8552   8.292   2.382   2.773 -0.7930 -0.4836 -1.6513
  787MOL0     H 8553   8.371   2.452   2.994  2.2678  1.4352 -1.8871
  787MOL0     H 8554   8.314   2.603   2.909 -2.9891  0.9541  1.4248
  787MOL0     H 8555   8.224   2.390   3.208 -0.0723 -0.9226 -2.6835
  787MOL0     H 8556   7.995   2.566   3.447  0.0456  0.9588 -0.6067
  787MOL0     H 8557   8.066   2.414   3.418  1.0586  0.4826 -0.1029
  787MOL0     H 8558   7.827   2.385   3.453 -0.3695 -0.5934  0.0268
  787MOL0     H 8559   7.776   2.508   3.343  2.1458  1.7991 -0.9065
  787MOL0     H 8560   7.928   2.274   3.230 -1.3333 -1.4316 -2.5583
  787MOL0     H 8561   7.770   2.252   3.274 -0.7254  1.0087  1.0339
  787MOL0     H 8562   7.697   2.450   3.109 -0.4795 -0.6116 -1.7528
  787MOL0     H 8563   7.867   2.451   3.057  1.4277  0.2390  1.5707
  787MOL0     H 8564   7.552   2.274   3.165  0.0265  0.7568 -0.2864
  787MOL0     H 8565   7.220   2.295   3.126  2.0913  2.1539  0.0150
  787MOL0     H 8566   7.345   2.239   3.235  2.4408 -0.2050 -1.7692
  787MOL0     H 8567   7.243   2.119   3.155 -1.6587  1.0145  0.2384
  787MOL0     H 8568   6.969   2.083   2.706 -2.7465 -0.3041 -1.1309
  787MOL0     H 8569   6.793   1.926   2.718 -0.2637  0.3319  1.6470
  787MOL0     H 8570   6.892   1.530   2.587  1.2590  1.8522  0.3606
  787MOL0     H 8571   6.918   1.501   2.764 -0.8083  2.8812  2.2303
  787MOL0     H 8572   6.694   1.444   2.796 -0.6372 -1.2779 -0.7891
  787MOL0     H 8573   6.653   1.512   2.625  0.8080 -1.6179 -1.8139
  787MOL0     H 8574   6.832   1.270   2.656  1.1314  1.3422  2.4808
  787MOL0     H 8575   6.726   1.350   2.521 -1.4897 -2.1998  0.0119
  787MOL0     H 8576   6.532   1.249   2.614 -0.4923 -1.6173 -0.5297
  787MOL0     H 8577   6.607   1.212   2.772  2.2413 -0.5217 -0.0163
  787MOL0     H 8578   6.698   1.068   2.516  4.2291 -0.9715  0.8794
  787MOL0     H 8579   6.744   1.033   2.676  0.6134  1.5765 -1.1902
  787MOL0     H 8580   6.562   0.918   2.519  3.2697  1.9634 -0.2743
  787MOL0     H 8581   6.460   1.042   2.551 -0.0281 -1.2400  1.4315
  787MOL0     H 8582   6.494   0.974   2.805  2.3668 -0.0065 -0.2141
  787MOL0     H 8583   6.522   0.813   2.739  0.3641  0.0510 -0.5644
  787MOL0     H 8584   6.292   0.815   2.769  4.2506 -0.2057  2.6494
  787MOL0     H 8585   6.311   0.859   2.593  0.0570  0.0836  0.8340
  787MOL0     H 8586   7.089   1.612   2.681  0.1973  0.6767  1.9151
  787MOL0     H 8587   7.269   1.773   2.722  0.6835  2.6706  0.8243
  787MOL0     H 8588   7.478   2.084   2.730  3.0417 -1.3257 -0.5728
  787MOL0     H 8589   7.690   2.140   2.774  2.2773  0.6984  2.2539
  787MOL0     H 8590   7.567   1.912   2.589 -1.4593  2.0222  0.2129
  787MOL0     H 8591   7.390   1.879   2.412 -0.6755 -0.1600  0.6218
  787MOL0     H 8592   7.323   1.665   1.995  1.5472 -1.0047  2.4054
  787MOL0     H 8593   7.143   1.591   1.821 -0.2821 -2.9308  0.1953
  787MOL0     H 8594   6.728   1.484   1.956  3.3504  1.0365  2.4755
  787MOL0     H 8595   6.730   1.504   1.784 -1.0332  4.6121  1.7924
  787MOL0     H 8596   6.740   1.268   1.902 -0.4293  0.4248 -1.4964
  787MOL0     H 8597   6.905   1.303   1.946 -0.8279  0.0634  1.1699
  787MOL0     H 8598   6.856   1.154   1.743 -2.6064  1.1461 -1.1170
  787MOL0     H 8599   6.797   1.299   1.662 -0.9174  2.3074  2.2465
  787MOL0     H 8600   7.007   1.425   1.682 -1.7702  0.3607 -0.5351
  787MOL0     H 8601   7.017   1.279   1.586 -1.3025  0.7581 -1.0977
  787MOL0     H 8602   7.327   1.203   1.837 -0.0608  1.2151  0.6927
  787MOL0     H 8603   6.873   1.559   2.148  0.8839 -3.4567  0.4386
  787MOL0     H 8604   6.927   1.684   2.380  2.1585  5.0281  2.2083
  787MOL0     H 8605   7.077   1.588   2.437 -0.9614  0.2638  1.5902
  787MOL0     H 8606   7.083   1.746   2.381 -0.8968 -0.2002  2.4466
  788MOL0     O 8607   9.163   4.205   7.464  0.3069 -0.1495 -0.9266
  788MOL0     C 8608   9.234   4.286   7.527 -0.1387  0.6800  0.8025
  788MOL0     O 8609   9.337   4.356   7.484  0.2213 -0.1610  0.5038
  788MOL0     C 8610   9.389   4.332   7.353 -1.0282  0.3005  0.0215
  788MOL0     C 8611   9.490   4.425   7.328  0.5409 -1.0209  0.7089
  788MOL0     C 8612   9.564   4.417   7.203 -0.3431  0.4384  0.1612
  788MOL0     C 8613   9.533   4.317   7.103  0.0069  0.1199  0.5091
  788MOL0     O 8614   9.587   4.329   6.976 -0.4175 -0.1595 -0.0516
  788MOL0     C 8615   9.702   4.247   6.969  0.3116 -1.5313 -0.1848
  788MOL0     C 8616   9.776   4.257   6.832  0.3651  0.2803 -0.2310
  788MOL0     C 8617   9.900   4.172   6.839  0.5304  0.6805 -0.4620
  788MOL0     C 8618   9.971   4.185   6.707  0.2666  0.4501 -1.0346
  788MOL0     C 8619  10.098   4.085   6.690 -0.4740  0.1947  0.2860
  788MOL0     C 8620  10.209   4.092   6.793  0.6070 -0.7610  0.3731
  788MOL0     C 8621  10.312   3.993   6.771  0.0223 -0.4759 -0.1757
  788MOL0     C 8622  10.437   4.009   6.873 -0.5620  1.5607  0.6663
  788MOL0     N 8623  10.552   3.919   6.857 -0.5125 -0.0373  0.5111
  788MOL0     C 8624  10.619   3.905   6.741  0.3193 -0.0525  0.1833
  788MOL0     C 8625  10.749   3.861   6.782  0.1626  0.0840  0.0776
  788MOL0     C 8626  10.861   3.817   6.694 -0.3129  0.6832  0.2506
  788MOL0     C 8627  10.915   3.914   6.585 -0.2107  0.3298 -1.1581
  788MOL0     C 8628  10.999   3.853   6.468  0.2242 -1.0246 -0.2472
  788MOL0     C 8629  11.127   3.772   6.521 -0.3747 -0.3813 -0.8038
  788MOL0     O 8630  11.203   3.721   6.414  0.4476 -0.2331  0.9672
  788MOL0     C 8631  11.311   3.644   6.440 -0.8353 -0.6058 -0.4331
  788MOL0     C 8632  11.352   3.566   6.333  1.0132 -0.0778 -0.9902
  788MOL0     C 8633  11.471   3.498   6.336 -0.6166  0.5107  0.2981
  788MOL0     C 8634  11.495   3.410   6.213  0.1944  0.9935  0.0357
  788MOL0     C 8635  11.556   3.512   6.447  0.1306  0.2302 -0.7382
  788MOL0     C 8636  11.684   3.452   6.454 -0.4826  0.1281 -0.4223
  788MOL0     O 8637  11.763   3.484   6.566 -0.0811 -0.8554  0.5799
  788MOL0     C 8638  11.887   3.436   6.593 -0.2541  0.2633  0.6145
  788MOL0     C 8639  11.934   3.450   6.726  0.2677 -0.1288  0.4247
  788MOL0     C 8640  12.068   3.414   6.752 -0.9306  0.1113 -0.0043
  788MOL0     C 8641  12.161   3.375   6.649  0.4116 -0.3310  0.6595
  788MOL0     O 8642  12.294   3.348   6.666 -0.0077 -0.0364  0.6197
  788MOL0     C 8643  12.340   3.336   6.797  0.0106  0.5240 -0.7410
  788MOL0     C 8644  12.477   3.284   6.811 -0.8852  0.4588  1.2022
  788MOL0     C 8645  12.553   3.335   6.933  0.3876  0.6176 -0.1632
  788MOL0     C 8646  12.682   3.261   6.954  0.4887  0.3867  0.4648
  788MOL0     C 8647  12.722   3.257   7.105  0.6358 -0.4564  0.1681
  788MOL0     C 8648  12.828   3.151   7.137  0.7251 -0.2284 -0.5713
  788MOL0     C 8649  12.945   3.142   7.047 -1.4608 -0.2879 -0.0903
  788MOL0     C 8650  13.053   3.059   7.103  1.2825  0.5980 -0.5237
  788MOL0    Cl 8651  13.182   3.065   6.971 -0.8881 -0.5811 -0.2762
  788MOL0     C 8652  12.110   3.357   6.525 -0.3974  0.2930 -0.3036
  788MOL0     C 8653  11.978   3.385   6.496  0.1124  0.9517  0.0696
  788MOL0     O 8654  11.716   3.375   6.363 -0.0747 -0.8021  0.1977
  788MOL0     C 8655  11.525   3.603   6.546 -0.4290 -0.1767 -0.2387
  788MOL0     C 8656  11.400   3.668   6.549  0.7499  1.2849  0.2363
  788MOL0     N 8657  10.742   3.843   6.922 -0.0955 -0.0656 -0.1565
  788MOL0     N 8658  10.625   3.870   6.960  1.0446  0.4999  0.0254
  788MOL0     C 8659   9.433   4.219   7.142 -1.4081 -0.4201 -0.4992
  788MOL0     C 8660   9.363   4.226   7.266 -0.4252 -0.5061  0.4821
  788MOL0     C 8661   9.187   4.311   7.665 -1.0180 -0.5314  0.1952
  788MOL0     C 8662   9.055   4.304   7.699 -0.0866 -0.1116  0.9012
  788MOL0     C 8663   9.012   4.318   7.831  0.1308 -0.6176  0.6427
  788MOL0     C 8664   9.103   4.347   7.933 -0.9211 -0.0981 -0.7497
  788MOL0     O 8665   9.047   4.381   8.061  0.1753  0.0265 -0.4075
  788MOL0     C 8666   9.129   4.458   8.152  0.7222 -0.1800  0.5987
  788MOL0     C 8667   9.219   4.371   8.242  0.3096  0.7912 -0.9967
  788MOL0     C 8668   9.156   4.235   8.281  0.9686  0.5351 -0.5536
  788MOL0     C 8669   9.030   4.263   8.377  0.2314 -0.0284 -0.4829
  788MOL0     C 8670   9.068   4.329   8.500 -0.6531  1.2674  0.7495
  788MOL0     C 8671   9.076   4.389   8.600 -0.5281  0.1989 -1.1197
  788MOL0     C 8672   9.238   4.360   7.898 -0.2686  0.4104 -0.5980
  788MOL0     C 8673   9.282   4.332   7.770  1.1473  0.0420  0.5723
  788MOL0     C 8674   9.433   4.332   7.741 -0.5153  0.7530  0.1238
  788MOL0     H 8675   9.512   4.502   7.401 -0.5701 -1.1491  1.2102
  788MOL0     H 8676   9.640   4.490   7.177 -0.9759  1.0091 -0.1334
  788MOL0     H 8677   9.674   4.143   6.987  1.0501 -1.3904  2.0237
  788MOL0     H 8678   9.775   4.281   7.043 -0.6266 -0.0399  0.1037
  788MOL0     H 8679   9.704   4.226   6.755 -1.1269 -2.1231  1.9776
  788MOL0     H 8680   9.807   4.358   6.803  1.7990 -0.5153 -1.6434
  788MOL0     H 8681   9.967   4.197   6.922  1.5245  1.3041 -1.4200
  788MOL0     H 8682   9.888   4.065   6.856  0.8781  0.4566 -1.5619
  788MOL0     H 8683   9.906   4.167   6.621 -0.7151 -2.5376  0.1908
  788MOL0     H 8684  10.013   4.286   6.704  1.0235  0.1201 -1.9765
  788MOL0     H 8685  10.139   4.102   6.590 -0.7447  3.0183  0.5717
  788MOL0     H 8686  10.053   3.986   6.694 -1.2226  0.4501 -1.0720
  788MOL0     H 8687  10.260   4.188   6.790  2.0934 -1.5424 -1.9469
  788MOL0     H 8688  10.166   4.082   6.893  1.5436  1.5818  1.0685
  788MOL0     H 8689  10.350   4.009   6.669  0.9540 -2.6729 -0.2274
  788MOL0     H 8690  10.274   3.891   6.758 -1.4897  0.1419 -0.9172
  788MOL0     H 8691  10.474   4.110   6.854 -0.9685  2.0432  2.3115
  788MOL0     H 8692  10.397   4.011   6.974  1.7842  1.1943  1.6693
  788MOL0     H 8693  10.580   3.919   6.640 -0.7059 -0.1333  0.5567
  788MOL0     H 8694  10.827   3.726   6.645 -1.8471  1.2032  0.2826
  788MOL0     H 8695  10.945   3.779   6.752 -1.0703 -3.0344 -0.8155
  788MOL0     H 8696  10.821   3.958   6.552 -0.9461 -0.1880  0.1554
  788MOL0     H 8697  10.970   3.993   6.639  1.6018 -1.8343  0.3621
  788MOL0     H 8698  10.935   3.796   6.401 -0.8531  1.6959 -1.6805
  788MOL0     H 8699  11.030   3.939   6.408 -0.8102 -0.1537  0.4248
  788MOL0     H 8700  11.189   3.833   6.587  1.8210 -1.2451 -1.9393
  788MOL0     H 8701  11.099   3.679   6.572  1.3621 -0.2970  0.4057
  788MOL0     H 8702  11.278   3.555   6.255 -1.5761  3.3888  0.6969
  788MOL0     H 8703  11.411   3.403   6.144 -1.1982  2.7765  1.4382
  788MOL0     H 8704  11.531   3.310   6.235  1.2089  1.5240  0.8942
  788MOL0     H 8705  11.577   3.456   6.156  2.1487 -0.4787  1.5234
  788MOL0     H 8706  11.878   3.490   6.810  1.8133  1.5185  0.7376
  788MOL0     H 8707  12.098   3.449   6.851  2.7539 -3.5044  0.4039
  788MOL0     H 8708  12.342   3.437   6.841  0.1808  0.0826  0.2852
  788MOL0     H 8709  12.285   3.272   6.866  1.8306 -1.7296 -1.2647
  788MOL0     H 8710  12.475   3.175   6.819  2.0579  0.1050 -1.1332
  788MOL0     H 8711  12.536   3.320   6.726 -1.6908 -2.3040 -0.6385
  788MOL0     H 8712  12.486   3.316   7.017 -2.7403  2.3670 -2.0662
  788MOL0     H 8713  12.586   3.439   6.926  4.3184 -0.5856 -3.4288
  788MOL0     H 8714  12.755   3.317   6.895 -1.2286 -0.1557 -2.3732
  788MOL0     H 8715  12.676   3.160   6.911 -1.0938  1.1133 -1.1524
  788MOL0     H 8716  12.744   3.356   7.146  1.0271 -0.0627 -0.9765
  788MOL0     H 8717  12.630   3.231   7.160  0.6129 -0.3059  0.2008
  788MOL0     H 8718  12.767   3.060   7.137 -1.7192  1.2335  2.4197
  788MOL0     H 8719  12.862   3.149   7.241  0.5588 -1.6574 -0.5266
  788MOL0     H 8720  12.990   3.241   7.047 -0.6983 -0.6137  0.9987
  788MOL0     H 8721  12.917   3.105   6.948  1.8822 -2.9177 -0.2570
  788MOL0     H 8722  13.010   2.959   7.118  0.0636  1.4110  1.9353
  788MOL0     H 8723  13.089   3.102   7.197 -4.2165  1.0604  1.7146
  788MOL0     H 8724  12.170   3.318   6.443 -3.2998 -1.6756 -1.6635
  788MOL0     H 8725  11.946   3.340   6.403 -0.9267 -2.4065  1.8672
  788MOL0     H 8726  11.589   3.628   6.630 -2.2668 -0.1884  1.2523
  788MOL0     H 8727  11.362   3.729   6.630 -1.2754  0.3011  0.0881
  788MOL0     H 8728   9.415   4.134   7.077 -1.3815 -1.1007  0.3634
  788MOL0     H 8729   9.282   4.157   7.285  0.0675 -1.4968 -0.8421
  788MOL0     H 8730   8.984   4.288   7.619 -1.0764 -0.5968  1.8495
  788MOL0     H 8731   8.906   4.314   7.851 -0.3294  2.0986 -0.7079
  788MOL0     H 8732   9.194   4.529   8.100 -0.8729 -0.5567 -2.0770
  788MOL0     H 8733   9.064   4.523   8.212  0.9221  0.8450 -0.2579
  788MOL0     H 8734   9.252   4.416   8.336  1.5423 -1.9636 -0.0048
  788MOL0     H 8735   9.311   4.342   8.191  2.3011 -0.8713  3.0363
  788MOL0     H 8736   9.112   4.182   8.196  0.4486  0.3211 -0.1595
  788MOL0     H 8737   9.222   4.162   8.328 -1.5034 -2.7344 -1.7806
  788MOL0     H 8738   8.970   4.174   8.399 -0.2586  0.5423  0.5475
  788MOL0     H 8739   8.965   4.331   8.322  0.7082  2.1013  1.4867
  788MOL0     H 8740   9.091   4.424   8.699 -0.6108  2.7673 -1.9570
  788MOL0     H 8741   9.326   4.377   7.960  0.5746  1.8752 -2.0992
  788MOL0     H 8742   9.455   4.232   7.703 -4.4247 -0.4151  0.4205
  788MOL0     H 8743   9.464   4.418   7.681  1.7531 -0.2313 -0.2095
  788MOL0     H 8744   9.484   4.337   7.838  1.5058 -1.9062 -0.6832
  789MOL0     O 8745   5.510   1.695   0.945  0.8330 -0.0405  0.2841
  789MOL0     C 8746   5.489   1.574   0.962  0.8822 -0.0833  1.1273
  789MOL0     O 8747   5.587   1.477   0.972 -0.5025 -0.5760 -0.2690
  789MOL0     C 8748   5.719   1.501   0.946  0.1394 -0.3341  0.2217
  789MOL0     C 8749   5.773   1.622   0.878  0.8518  0.0480 -0.1338
  789MOL0     C 8750   5.911   1.640   0.872  0.5242 -0.2958  0.6283
  789MOL0     C 8751   6.003   1.546   0.925  0.2430 -0.1767  0.0388
  789MOL0     O 8752   6.134   1.559   0.934 -0.5672  0.5130 -0.0417
  789MOL0     C 8753   6.193   1.601   0.815  0.2303 -0.5379  0.0620
  789MOL0     C 8754   6.353   1.577   0.825  0.7753  0.4331  2.0534
  789MOL0     C 8755   6.414   1.587   0.681 -0.0857 -0.1056 -0.9212
  789MOL0     C 8756   6.570   1.578   0.682  0.7293 -0.1660 -0.7105
  789MOL0     C 8757   6.598   1.586   0.531  0.8995  0.0865  0.2763
  789MOL0     C 8758   6.746   1.614   0.517 -0.3892  0.1085  0.3459
  789MOL0     C 8759   6.787   1.591   0.375  0.3659 -0.2617 -0.6911
  789MOL0     C 8760   6.929   1.629   0.362  0.1002 -0.4246 -1.3908
  789MOL0     N 8761   6.995   1.628   0.234 -0.1255  0.4122  0.0106
  789MOL0     C 8762   7.126   1.593   0.210  0.0767 -0.0656 -0.6170
  789MOL0     C 8763   7.131   1.568   0.075 -0.5875 -0.0768 -1.2136
  789MOL0     C 8764   7.243   1.500  -0.004 -0.3856  0.4724  0.1481
  789MOL0     C 8765   7.187   1.404  -0.112 -0.1132  0.2644  0.0692
  789MOL0     C 8766   7.299   1.315  -0.163 -0.5042  0.1783  0.1167
  789MOL0     C 8767   7.440   1.380  -0.197 -0.2570  0.4198 -0.0479
  789MOL0     O 8768   7.499   1.277  -0.281  0.5534 -0.4404  0.7648
  789MOL0     C 8769   7.634   1.302  -0.304 -0.9258  0.4665 -0.1118
  789MOL0     C 8770   7.693   1.428  -0.325  0.7101 -0.7555  0.0837
  789MOL0     C 8771   7.829   1.443  -0.357  0.3929 -0.2778  0.6227
  789MOL0     C 8772   7.868   1.589  -0.389 -1.0255  0.0247 -0.1761
  789MOL0     C 8773   7.913   1.332  -0.384 -0.1001 -0.2810 -0.0578
  789MOL0     C 8774   8.052   1.335  -0.434 -0.4701  0.0147  0.0888
  789MOL0     O 8775   8.114   1.463  -0.444 -0.4449 -0.1791  0.2879
  789MOL0     C 8776   8.232   1.459  -0.509  0.2003  0.0701 -0.4353
  789MOL0     C 8777   8.353   1.419  -0.442  1.0717 -0.2494  0.6717
  789MOL0     C 8778   8.478   1.399  -0.503 -0.0815  0.7737 -1.5408
  789MOL0     C 8779   8.484   1.410  -0.643  0.2854  0.2076  1.1004
  789MOL0     O 8780   8.585   1.385  -0.730 -0.0732 -0.0555  0.6296
  789MOL0     C 8781   8.699   1.324  -0.668  0.5263  1.3602  0.4301
  789MOL0     C 8782   8.798   1.258  -0.764 -0.6996  0.2873 -0.9394
  789MOL0     C 8783   8.922   1.184  -0.678  0.2172  0.5274 -1.1384
  789MOL0     C 8784   9.031   1.133  -0.773 -0.0539 -0.2433 -0.4491
  789MOL0     C 8785   9.133   1.236  -0.835  0.9884  0.5084 -0.0332
  789MOL0     C 8786   9.230   1.148  -0.925 -0.0776 -0.5022 -0.2193
  789MOL0     C 8787   9.327   1.248  -0.982  0.5290  0.0792 -0.0978
  789MOL0     C 8788   9.438   1.182  -1.059  1.3888 -0.5143  0.8965
  789MOL0    Cl 8789   9.538   1.080  -0.943  0.1651  0.0673 -0.2016
  789MOL0     C 8790   8.363   1.443  -0.707  0.1430  0.2750  0.9534
  789MOL0     C 8791   8.236   1.478  -0.650 -0.8939 -0.1583 -0.5087
  789MOL0     O 8792   8.108   1.229  -0.456  0.2657 -0.5887 -1.4127
  789MOL0     C 8793   7.852   1.210  -0.354 -1.1272  0.0829  0.2062
  789MOL0     C 8794   7.720   1.192  -0.314  1.0220  0.7421  0.7738
  789MOL0     N 8795   7.014   1.606   0.017  0.1036 -0.0372 -0.1012
  789MOL0     N 8796   6.934   1.641   0.116  0.0154 -0.5896 -0.1950
  789MOL0     C 8797   5.951   1.426   0.979  0.2024  0.2487  1.1119
  789MOL0     C 8798   5.814   1.405   0.984  0.6743 -0.0532 -0.6179
  789MOL0     C 8799   5.348   1.522   0.978 -0.0879 -0.6226  0.0634
  789MOL0     C 8800   5.340   1.400   1.040 -0.3214 -0.2712  0.2884
  789MOL0     C 8801   5.220   1.339   1.058  0.4952 -0.1710 -0.7231
  789MOL0     C 8802   5.096   1.405   1.037  0.2413  0.5848  0.5904
  789MOL0     O 8803   4.967   1.362   1.071  0.1415  0.5638 -0.2979
  789MOL0     C 8804   4.942   1.282   1.191  0.0725 -0.3034  1.5762
  789MOL0     C 8805   4.872   1.150   1.146  0.6034  0.4583  0.4905
  789MOL0     C 8806   4.798   1.074   1.258 -0.1753  0.3035 -0.4481
  789MOL0     C 8807   4.878   0.945   1.303 -0.1334  0.1192  0.5618
  789MOL0     C 8808   5.013   0.999   1.346  1.5275  0.0763 -0.1710
  789MOL0     C 8809   5.121   1.039   1.372  0.5590 -0.5498 -0.4994
  789MOL0     C 8810   5.107   1.523   0.971 -0.3376  0.4679  0.9689
  789MOL0     C 8811   5.229   1.589   0.947 -0.2011  0.1051 -0.4671
  789MOL0     C 8812   5.222   1.735   0.899 -0.4784  0.1725 -0.6544
  789MOL0     H 8813   5.707   1.691   0.827 -1.5761 -2.3172 -0.4162
  789MOL0     H 8814   5.960   1.724   0.824  1.0849 -1.4962 -0.9783
  789MOL0     H 8815   6.192   1.709   0.799  0.7111 -0.5449 -0.0258
  789MOL0     H 8816   6.150   1.548   0.729 -1.9671  0.7536  0.2817
  789MOL0     H 8817   6.400   1.638   0.904 -0.5988  2.7692  1.1574
  789MOL0     H 8818   6.363   1.473   0.858  1.5493 -0.2725 -0.2205
  789MOL0     H 8819   6.357   1.507   0.632 -0.2618 -2.0250  2.1366
  789MOL0     H 8820   6.391   1.687   0.644  0.7963  1.6251  2.7287
  789MOL0     H 8821   6.619   1.659   0.737  2.9791 -0.9800 -1.4162
  789MOL0     H 8822   6.605   1.480   0.716  0.3404 -0.0728 -0.0118
  789MOL0     H 8823   6.557   1.677   0.486  0.1895  1.0819  2.7830
  789MOL0     H 8824   6.560   1.495   0.482 -1.2028 -0.7858  3.2726
  789MOL0     H 8825   6.772   1.718   0.539 -0.3814  0.3236 -0.6386
  789MOL0     H 8826   6.802   1.545   0.580 -2.7733 -2.0893  0.1887
  789MOL0     H 8827   6.730   1.648   0.301 -0.6836 -0.6518 -0.2038
  789MOL0     H 8828   6.773   1.483   0.362  0.4062 -0.1306 -1.9016
  789MOL0     H 8829   6.928   1.738   0.374  1.5632 -0.6224  1.1846
  789MOL0     H 8830   6.989   1.582   0.440 -1.6261 -0.5225 -0.0568
  789MOL0     H 8831   7.204   1.578   0.284  0.5189 -0.8767 -1.2351
  789MOL0     H 8832   7.306   1.443   0.065 -1.7896 -1.2077  0.0941
  789MOL0     H 8833   7.305   1.574  -0.056 -1.6146  2.5021  1.4223
  789MOL0     H 8834   7.104   1.348  -0.068  0.8656 -1.6938 -0.4687
  789MOL0     H 8835   7.146   1.455  -0.199 -0.0004 -5.2039 -3.6201
  789MOL0     H 8836   7.326   1.223  -0.109 -0.4765 -1.3332 -2.3424
  789MOL0     H 8837   7.254   1.286  -0.258 -1.2413  1.5444  0.0263
  789MOL0     H 8838   7.422   1.471  -0.254  1.8775  0.1962 -1.1767
  789MOL0     H 8839   7.500   1.406  -0.109  1.1690 -0.6611 -0.6549
  789MOL0     H 8840   7.626   1.511  -0.304  0.2127 -1.4349  1.3582
  789MOL0     H 8841   7.894   1.606  -0.493  1.0690 -1.8851 -0.0352
  789MOL0     H 8842   7.955   1.622  -0.332  0.2316 -2.3881 -0.5903
  789MOL0     H 8843   7.788   1.662  -0.371 -3.1257 -1.8299 -1.4417
  789MOL0     H 8844   8.361   1.407  -0.334  0.3370  0.0068  0.7554
  789MOL0     H 8845   8.561   1.371  -0.439 -0.2382  0.4011 -1.5006
  789MOL0     H 8846   8.761   1.398  -0.618  0.4011  1.1277  0.9349
  789MOL0     H 8847   8.660   1.249  -0.599  3.4738  0.2334  1.0062
  789MOL0     H 8848   8.741   1.183  -0.820  0.8283 -0.0493 -2.0999
  789MOL0     H 8849   8.836   1.327  -0.840  2.4554  0.4125  0.5656
  789MOL0     H 8850   8.885   1.096  -0.626  1.3325  0.0044 -1.1915
  789MOL0     H 8851   8.961   1.256  -0.604  2.3914 -3.1584  1.6384
  789MOL0     H 8852   8.969   1.091  -0.853  2.3819 -1.5025 -1.7985
  789MOL0     H 8853   9.093   1.059  -0.723 -1.9069 -1.0334  0.7875
  789MOL0     H 8854   9.070   1.294  -0.903 -1.4306 -1.8796 -0.0043
  789MOL0     H 8855   9.178   1.305  -0.763 -3.8689  2.9738  1.0800
  789MOL0     H 8856   9.174   1.103  -1.008  1.5945 -1.6129 -0.7936
  789MOL0     H 8857   9.278   1.071  -0.865 -3.0359 -1.5297  1.0271
  789MOL0     H 8858   9.373   1.304  -0.899  0.1961 -0.8310  0.7186
  789MOL0     H 8859   9.279   1.322  -1.046  0.2332 -0.8465 -0.9632
  789MOL0     H 8860   9.498   1.249  -1.122 -3.3296  0.9785 -2.5980
  789MOL0     H 8861   9.402   1.114  -1.136  0.9668 -0.0207  0.6551
  789MOL0     H 8862   8.370   1.451  -0.815 -1.4600  0.9639  0.8811
  789MOL0     H 8863   8.157   1.517  -0.714  1.2865 -2.4711 -5.1410
  789MOL0     H 8864   7.898   1.112  -0.367 -1.8773 -0.2487 -0.0130
  789MOL0     H 8865   7.683   1.090  -0.308 -0.9830  1.4527  1.1132
  789MOL0     H 8866   6.029   1.353   1.002 -0.4077 -0.3440  1.3102
  789MOL0     H 8867   5.782   1.310   1.024 -1.5169  1.0792  0.4520
  789MOL0     H 8868   5.425   1.336   1.060 -0.5243 -1.1085 -1.3848
  789MOL0     H 8869   5.215   1.241   1.103 -1.0697 -0.3616 -1.2346
  789MOL0     H 8870   5.031   1.264   1.252  1.6028  1.6578  0.0554
  789MOL0     H 8871   4.881   1.350   1.251  1.2378  1.5254  0.7593
  789MOL0     H 8872   4.954   1.089   1.106  1.0265  0.8850  0.6888
  789MOL0     H 8873   4.799   1.178   1.070 -0.5727 -2.7818  0.2658
  789MOL0     H 8874   4.785   1.138   1.346 -2.4529  0.3174 -0.7406
  789MOL0     H 8875   4.700   1.052   1.216 -0.6576 -0.1536  0.8784
  789MOL0     H 8876   4.899   0.878   1.219 -1.5335  1.7690 -1.2109
  789MOL0     H 8877   4.836   0.886   1.385 -0.3160  0.6600  0.8640
  789MOL0     H 8878   5.219   1.077   1.395  1.0255 -1.8646 -0.2103
  789MOL0     H 8879   5.018   1.570   0.929 -1.3332 -0.8451  1.5234
  789MOL0     H 8880   5.296   1.748   0.820 -1.7219 -2.1137 -2.3487
  789MOL0     H 8881   5.117   1.745   0.870 -0.6833 -2.3084 -1.0342
  789MOL0     H 8882   5.251   1.802   0.980 -0.7703  1.0678 -1.2791
  790MOL0     O 8883   0.020   7.438  10.627 -0.1505  0.0481  0.3666
  790MOL0     C 8884  -0.038   7.348  10.690 -0.3782  0.4192  0.5162
  790MOL0     O 8885   0.023   7.256  10.762  0.2636  0.2753 -0.4285
  790MOL0     C 8886   0.160   7.257  10.760 -0.5360 -0.9711  0.3397
  790MOL0     C 8887   0.228   7.329  10.859 -0.6814 -0.0071 -0.9172
  790MOL0     C 8888   0.367   7.327  10.875 -0.3655  0.1219 -0.5453
  790MOL0     C 8889   0.443   7.260  10.781 -0.5103 -0.2446 -1.0310
  790MOL0     O 8890   0.586   7.267  10.782 -0.2419 -0.1543 -0.6540
  790MOL0     C 8891   0.652   7.272  10.652 -0.7905  0.7841  0.2568
  790MOL0     C 8892   0.766   7.374  10.654 -0.0786 -0.2338 -0.2194
  790MOL0     C 8893   0.846   7.363  10.518 -0.0842  0.2593  0.7422
  790MOL0     C 8894   0.968   7.460  10.525 -0.5540 -0.1294 -0.0277
  790MOL0     C 8895   1.067   7.458  10.402  0.4410  0.0823 -0.2407
  790MOL0     C 8896   1.194   7.528  10.436  0.1792 -0.5083  0.1498
  790MOL0     C 8897   1.171   7.679  10.463 -0.6950 -0.6210  0.6001
  790MOL0     C 8898   1.297   7.764  10.430  0.3605  0.6030 -0.3395
  790MOL0     N 8899   1.265   7.906  10.441 -0.1713 -0.2945 -0.7329
  790MOL0     C 8900   1.219   7.986  10.339  1.0373 -0.3982 -0.4672
  790MOL0     C 8901   1.219   8.113  10.392  1.2274 -0.0409 -0.8967
  790MOL0     C 8902   1.164   8.240  10.325  0.3912 -0.2384 -0.7024
  790MOL0     C 8903   1.022   8.262  10.373 -0.4934  0.2149 -0.1307
  790MOL0     C 8904   0.959   8.395  10.309 -0.7266 -0.3221 -0.2939
  790MOL0     C 8905   0.821   8.434  10.357  0.0652  0.6152 -0.2641
  790MOL0     O 8906   0.736   8.320  10.347 -0.0453 -0.0759  0.4227
  790MOL0     C 8907   0.612   8.324  10.410 -0.4771  0.7727  0.0024
  790MOL0     C 8908   0.563   8.430  10.489 -0.1004  0.2522  0.4487
  790MOL0     C 8909   0.441   8.419  10.570 -1.1725  1.0962 -0.8823
  790MOL0     C 8910   0.407   8.533  10.658 -1.3260  0.3696  0.2522
  790MOL0     C 8911   0.366   8.299  10.568  0.7209  0.7554  0.9885
  790MOL0     C 8912   0.236   8.285  10.640  0.2135  0.3608  0.2386
  790MOL0     O 8913   0.174   8.391  10.695  0.2395  0.2818  0.2130
  790MOL0     C 8914   0.038   8.389  10.734  0.1207  0.5381  1.1405
  790MOL0     C 8915   0.002   8.403  10.874  0.0025 -0.1525  0.9169
  790MOL0     C 8916  -0.134   8.405  10.903  0.4002 -0.0381 -0.2586
  790MOL0     C 8917  -0.232   8.404  10.804 -0.0017 -0.2957 -0.8650
  790MOL0     O 8918  -0.357   8.416  10.859 -0.1273  0.1034  0.3756
  790MOL0     C 8919  -0.457   8.468  10.763  0.5060  0.2332 -0.3245
  790MOL0     C 8920  -0.583   8.522  10.829  0.5985  0.1503 -0.0853
  790MOL0     C 8921  -0.656   8.416  10.906  0.3736 -0.4669 -0.2022
  790MOL0     C 8922  -0.783   8.473  10.970  0.4242 -0.0018  0.7448
  790MOL0     C 8923  -0.902   8.476  10.865 -0.4274 -0.6506 -0.2459
  790MOL0     C 8924  -1.036   8.539  10.928 -1.3268  0.3891  0.7516
  790MOL0     C 8925  -1.081   8.471  11.064 -0.4759  0.9916 -0.7173
  790MOL0     C 8926  -1.208   8.536  11.131 -0.0991  1.0461 -0.9699
  790MOL0    Cl 8927  -1.182   8.721  11.156  0.0047 -0.5006 -0.4826
  790MOL0     C 8928  -0.198   8.383  10.672  0.0327 -0.9273 -0.8188
  790MOL0     C 8929  -0.058   8.375  10.637  0.4976 -0.5007 -0.0724
  790MOL0     O 8930   0.186   8.176  10.636  0.5300 -0.0230  0.5395
  790MOL0     C 8931   0.417   8.192  10.490 -0.5476  0.1210 -0.4874
  790MOL0     C 8932   0.535   8.205  10.418  0.0451  0.0727 -0.4550
  790MOL0     N 8933   1.251   8.106  10.529 -0.3288  0.3943  0.4526
  790MOL0     N 8934   1.271   7.975  10.556  0.7107  0.1258 -0.1596
  790MOL0     C 8935   0.375   7.181  10.688  0.8120 -0.8872 -0.4827
  790MOL0     C 8936   0.235   7.186  10.666 -0.3989  0.2274 -0.0904
  790MOL0     C 8937  -0.184   7.364  10.704  0.0766 -0.2493 -0.2204
  790MOL0     C 8938  -0.246   7.286  10.796  0.3345  0.2427 -0.4366
  790MOL0     C 8939  -0.378   7.276  10.811  0.3936 -0.1475 -0.2188
  790MOL0     C 8940  -0.463   7.349  10.736  0.3005 -0.6913 -0.4062
  790MOL0     O 8941  -0.596   7.327  10.753 -0.2417  0.3172  0.5523
  790MOL0     C 8942  -0.684   7.419  10.691  0.3979 -0.3546 -0.3234
  790MOL0     C 8943  -0.824   7.385  10.758 -0.2149  0.1594 -0.6907
  790MOL0     C 8944  -0.847   7.432  10.906  0.5077  0.7989  1.2409
  790MOL0     C 8945  -0.995   7.397  10.952 -0.0967 -0.0996 -0.0515
  790MOL0     C 8946  -1.029   7.469  11.075  0.0191  0.3400 -0.3268
  790MOL0     C 8947  -1.082   7.552  11.239 -0.9576 -0.5631 -0.0224
  790MOL0     C 8948  -0.408   7.434  10.630  0.1087 -0.3684  0.7021
  790MOL0     C 8949  -0.260   7.440  10.617  1.3798 -0.2747  0.5219
  790MOL0     C 8950  -0.210   7.532  10.505 -0.8584  0.0105 -0.0165
  790MOL0     H 8951   0.166   7.382  10.931 -0.3058 -0.4614 -0.2498
  790MOL0     H 8952   0.405   7.394  10.952  1.0807  0.8343 -1.8222
  790MOL0     H 8953   0.580   7.287  10.571  0.3150 -0.0437 -0.9392
  790MOL0     H 8954   0.692   7.174  10.622 -0.8290  1.5045 -2.3900
  790MOL0     H 8955   0.715   7.470  10.656  0.5803  0.1752 -1.9029
  790MOL0     H 8956   0.837   7.361  10.737 -0.8811  0.5948  0.6138
  790MOL0     H 8957   0.880   7.259  10.512 -2.2256 -0.4900  0.6916
  790MOL0     H 8958   0.792   7.369  10.423  0.7919  0.7543  0.2550
  790MOL0     H 8959   0.934   7.563  10.529  0.1382  0.0968  0.1698
  790MOL0     H 8960   1.028   7.437  10.614 -3.6008  0.4428  2.3547
  790MOL0     H 8961   1.028   7.502  10.310 -1.2246  0.6898  0.7198
  790MOL0     H 8962   1.077   7.350  10.389  1.3085  0.1592 -0.2596
  790MOL0     H 8963   1.230   7.473  10.524 -0.5646  0.1793  0.9013
  790MOL0     H 8964   1.270   7.508  10.360  2.2632  0.7056  1.8022
  790MOL0     H 8965   1.139   7.687  10.567 -2.5202  1.4690 -0.0518
  790MOL0     H 8966   1.095   7.710  10.391 -1.5548  0.8810  2.0996
  790MOL0     H 8967   1.372   7.736  10.503 -0.8215 -1.2760  0.2383
  790MOL0     H 8968   1.341   7.744  10.332 -0.3725  0.4689 -0.6525
  790MOL0     H 8969   1.182   7.971  10.239 -0.7757  3.0306 -0.4683
  790MOL0     H 8970   1.178   8.236  10.217  1.1944 -1.2658 -0.5753
  790MOL0     H 8971   1.222   8.324  10.364  1.5815 -2.0005  1.6108
  790MOL0     H 8972   0.953   8.180  10.351  2.1207 -1.2572 -3.8646
  790MOL0     H 8973   1.023   8.281  10.480 -0.3361  0.1796 -0.1257
  790MOL0     H 8974   1.024   8.480  10.334 -0.9331 -0.2739  0.0861
  790MOL0     H 8975   0.961   8.374  10.201 -2.4585  0.7423 -0.5753
  790MOL0     H 8976   0.818   8.479  10.457 -0.7379 -0.3017  0.1421
  790MOL0     H 8977   0.788   8.503  10.278  1.3087 -2.4276 -3.7121
  790MOL0     H 8978   0.613   8.526  10.493 -0.2092  0.4571 -1.8434
  790MOL0     H 8979   0.493   8.601  10.653 -0.8540  0.0537  2.6975
  790MOL0     H 8980   0.414   8.504  10.763  1.1284 -2.1472 -0.5053
  790MOL0     H 8981   0.314   8.585  10.632 -0.4181  0.1195 -4.3223
  790MOL0     H 8982   0.083   8.434  10.938  1.1234 -1.1366  0.0252
  790MOL0     H 8983  -0.162   8.421  11.006 -1.2251 -0.8825 -0.5380
  790MOL0     H 8984  -0.420   8.550  10.700 -2.8271 -0.1464 -2.9921
  790MOL0     H 8985  -0.488   8.388  10.697 -1.5490  1.1174 -0.4884
  790MOL0     H 8986  -0.562   8.610  10.889 -2.4597  0.4942  0.6783
  790MOL0     H 8987  -0.657   8.552  10.754 -2.3941 -2.1661  1.7038
  790MOL0     H 8988  -0.586   8.387  10.985  1.0801 -0.2615 -0.7382
  790MOL0     H 8989  -0.680   8.331  10.841  1.4710  0.5674 -2.0435
  790MOL0     H 8990  -0.768   8.574  11.011 -0.2625  0.3328  0.1752
  790MOL0     H 8991  -0.818   8.401  11.045  0.5667  0.1204  0.9302
  790MOL0     H 8992  -0.883   8.526  10.770 -1.0282 -2.7150 -1.5272
  790MOL0     H 8993  -0.936   8.375  10.837 -0.6224  0.1278 -3.0999
  790MOL0     H 8994  -1.120   8.530  10.858 -1.8115 -0.5726  1.4385
  790MOL0     H 8995  -1.021   8.646  10.947 -1.4795 -0.0560  4.0999
  790MOL0     H 8996  -1.005   8.490  11.141 -1.4393  2.4948 -0.0979
  790MOL0     H 8997  -1.095   8.363  11.049 -1.2964  0.7827  1.3072
  790MOL0     H 8998  -1.221   8.495  11.232 -1.7253  0.2126 -1.4880
  790MOL0     H 8999  -1.292   8.505  11.069 -0.0611 -2.9065  0.6773
  790MOL0     H 9000  -0.260   8.392  10.583  1.6262 -0.1484 -1.9031
  790MOL0     H 9001  -0.044   8.354  10.532 -2.6602 -2.0597 -0.3066
  790MOL0     H 9002   0.360   8.101  10.476 -0.9807  0.1214  1.0864
  790MOL0     H 9003   0.589   8.128  10.364  0.6267  0.8338 -0.9775
  790MOL0     H 9004   0.425   7.114  10.619 -2.1034 -3.2344 -0.5221
  790MOL0     H 9005   0.187   7.132  10.585 -0.3773  1.1357 -0.7217
  790MOL0     H 9006  -0.198   7.213  10.860 -3.5950 -1.9972  0.3210
  790MOL0     H 9007  -0.419   7.198  10.874  1.3246 -0.8198 -0.4125
  790MOL0     H 9008  -0.654   7.523  10.707  2.3578 -0.9040 -0.1290
  790MOL0     H 9009  -0.685   7.384  10.587  0.3311 -1.9837  0.2054
  790MOL0     H 9010  -0.843   7.278  10.746 -2.1412  0.4939 -0.9904
  790MOL0     H 9011  -0.902   7.432  10.698 -0.4462 -1.1528 -1.4475
  790MOL0     H 9012  -0.774   7.375  10.963  0.2017 -2.4231 -1.2506
  790MOL0     H 9013  -0.828   7.540  10.913 -1.5015  1.1852  1.6346
  790MOL0     H 9014  -0.995   7.288  10.964 -0.9747 -0.1697 -0.6060
  790MOL0     H 9015  -1.065   7.414  10.870 -0.9926  1.3253  0.9627
  790MOL0     H 9016  -1.099   7.600  11.334 -0.0645  1.3809 -0.8016
  790MOL0     H 9017  -0.468   7.496  10.564  0.4968  1.6719  2.1663
  790MOL0     H 9018  -0.181   7.629  10.546 -0.4997  0.0384 -0.3338
  790MOL0     H 9019  -0.132   7.476  10.453  0.0926  1.4937 -0.2185
  790MOL0     H 9020  -0.296   7.556  10.441 -1.0474 -0.7339 -0.0534
  791MOL0     O 9021   2.450   2.065   5.827 -0.8461 -0.3556 -0.2191
  791MOL0     C 9022   2.398   2.174   5.854  0.6570  0.2727  0.4096
  791MOL0     O 9023   2.440   2.305   5.834 -0.2624  0.1916  0.1140
  791MOL0     C 9024   2.553   2.323   5.761  0.7084  0.0651 -0.2138
  791MOL0     C 9025   2.663   2.359   5.830  0.3405  0.6026 -0.4544
  791MOL0     C 9026   2.775   2.405   5.770 -0.2594  0.1741  1.1793
  791MOL0     C 9027   2.782   2.410   5.631 -0.0697 -0.5567 -0.3671
  791MOL0     O 9028   2.905   2.446   5.585 -0.7509 -0.1113  0.3319
  791MOL0     C 9029   2.927   2.431   5.446  0.0893  0.0765 -0.8006
  791MOL0     C 9030   3.062   2.481   5.406  0.5867 -0.5395  0.5213
  791MOL0     C 9031   3.168   2.400   5.488 -0.9070  0.6420  0.8096
  791MOL0     C 9032   3.180   2.266   5.417  0.4670  0.6774  0.1504
  791MOL0     C 9033   3.269   2.162   5.502  0.5475  0.5521  0.0489
  791MOL0     C 9034   3.414   2.208   5.509  0.0689 -0.0276  0.9348
  791MOL0     C 9035   3.505   2.103   5.575  0.5062 -0.5864  0.1748
  791MOL0     C 9036   3.564   2.000   5.488 -1.0378  0.1104 -0.3041
  791MOL0     N 9037   3.665   2.050   5.404  0.3840  0.5530  0.5430
  791MOL0     C 9038   3.793   2.078   5.435 -0.1360 -0.2434  0.4389
  791MOL0     C 9039   3.846   2.097   5.305 -0.0025  0.1619  0.2193
  791MOL0     C 9040   3.999   2.106   5.289  0.3339  0.0734 -0.3983
  791MOL0     C 9041   4.037   2.077   5.141 -1.0240 -0.0685  0.1325
  791MOL0     C 9042   4.185   2.113   5.113  0.3462 -0.1332  0.0097
  791MOL0     C 9043   4.214   2.163   4.969  0.5657 -0.0638 -0.5214
  791MOL0     O 9044   4.214   2.061   4.870  0.0842  0.8855  0.3115
  791MOL0     C 9045   4.102   2.065   4.793 -0.7709 -0.5406  0.0819
  791MOL0     C 9046   4.106   2.140   4.678  0.4225  0.3127 -0.3907
  791MOL0     C 9047   3.995   2.134   4.589  1.1128 -0.7341 -0.6967
  791MOL0     C 9048   4.030   2.214   4.460  0.0339  0.4355  0.3193
  791MOL0     C 9049   3.877   2.066   4.617 -0.4944 -0.2446 -0.3073
  791MOL0     C 9050   3.752   2.077   4.544 -0.0704  0.0237  0.6637
  791MOL0     O 9051   3.652   1.992   4.565 -0.1745 -0.3557 -0.4514
  791MOL0     C 9052   3.560   1.973   4.466  0.5882 -0.0594 -0.0207
  791MOL0     C 9053   3.583   2.010   4.326  0.1778  0.6631  1.3015
  791MOL0     C 9054   3.483   1.995   4.230 -0.3186  0.1499  0.1820
  791MOL0     C 9055   3.357   1.953   4.260 -0.3105  0.4511  0.0015
  791MOL0     O 9056   3.253   1.947   4.163 -0.6897  0.4734 -0.1101
  791MOL0     C 9057   3.161   1.837   4.172  0.4072 -0.0300  0.2194
  791MOL0     C 9058   3.110   1.801   4.029 -0.0136  0.1769 -0.0812
  791MOL0     C 9059   3.003   1.696   4.028 -0.2743 -0.1822  0.4774
  791MOL0     C 9060   2.884   1.739   4.107 -0.3462 -0.0645  0.2286
  791MOL0     C 9061   2.753   1.670   4.072 -0.5164  0.7467 -0.1554
  791MOL0     C 9062   2.779   1.526   4.081 -0.1531 -0.4496  0.4516
  791MOL0     C 9063   2.656   1.436   4.059 -0.1314 -0.0041  0.1388
  791MOL0     C 9064   2.685   1.300   4.124  0.2242 -0.1679  0.0003
  791MOL0    Cl 9065   2.835   1.222   4.056 -0.0917  0.0422 -0.2137
  791MOL0     C 9066   3.335   1.916   4.395  0.2698  0.0758 -0.2529
  791MOL0     C 9067   3.431   1.935   4.500 -0.5107  0.2190  0.3089
  791MOL0     O 9068   3.738   2.197   4.492  0.5360  1.1171 -0.0562
  791MOL0     C 9069   3.888   1.979   4.727  0.6282  0.0241  0.7164
  791MOL0     C 9070   3.997   1.982   4.816  0.6580  0.0430 -0.4012
  791MOL0     N 9071   3.754   2.062   5.208  0.5004  0.5979  0.1454
  791MOL0     N 9072   3.645   2.038   5.270 -0.4755 -0.4197  0.4423
  791MOL0     C 9073   2.674   2.362   5.553  0.3481 -0.1337 -0.2152
  791MOL0     C 9074   2.556   2.314   5.624  0.0096 -0.1003  0.5675
  791MOL0     C 9075   2.268   2.146   5.925  0.4993 -0.2813  0.3126
  791MOL0     C 9076   2.251   2.033   6.011 -1.0009  0.2258 -1.0405
  791MOL0     C 9077   2.143   2.013   6.094 -0.1017 -0.4887  0.3504
  791MOL0     C 9078   2.037   2.097   6.083  0.5722 -0.3767 -0.1553
  791MOL0     O 9079   1.920   2.063   6.156  0.3771 -0.6104  0.2129
  791MOL0     C 9080   1.874   2.149   6.266 -1.3529 -0.8644  0.5867
  791MOL0     C 9081   1.989   2.189   6.373 -0.1925  0.4252  0.0379
  791MOL0     C 9082   2.065   2.072   6.438  0.3114  0.2025 -0.3426
  791MOL0     C 9083   2.123   2.114   6.575  0.3123  0.2966 -0.0382
  791MOL0     C 9084   2.238   2.200   6.567  0.1237  0.0383 -0.6998
  791MOL0     C 9085   2.340   2.271   6.562  0.9289  0.3911  0.8512
  791MOL0     C 9086   2.040   2.202   6.000  0.0472  0.2825 -0.1887
  791MOL0     C 9087   2.155   2.226   5.921  0.7954 -0.1817  0.1783
  791MOL0     C 9088   2.146   2.349   5.830 -0.0709  0.5666  0.6916
  791MOL0     H 9089   2.668   2.350   5.938 -0.8448 -0.7013 -0.4751
  791MOL0     H 9090   2.862   2.427   5.832 -0.9215  0.6131  1.9665
  791MOL0     H 9091   2.846   2.482   5.394 -1.0323 -1.1156 -0.2676
  791MOL0     H 9092   2.922   2.323   5.425 -0.9652  0.5361 -3.2781
  791MOL0     H 9093   3.078   2.464   5.299 -1.7427 -0.9558  0.1707
  791MOL0     H 9094   3.069   2.589   5.415 -2.1177 -0.1205 -1.2401
  791MOL0     H 9095   3.263   2.453   5.497 -0.3951 -0.0420 -0.3472
  791MOL0     H 9096   3.130   2.373   5.587 -1.2953 -1.0164  0.2387
  791MOL0     H 9097   3.085   2.217   5.391  1.6217 -0.6885 -1.7489
  791MOL0     H 9098   3.233   2.287   5.324  0.8196 -2.4594 -0.4715
  791MOL0     H 9099   3.250   2.061   5.465 -4.4523  1.3222 -0.3216
  791MOL0     H 9100   3.229   2.150   5.603 -0.7842 -0.5301 -0.5669
  791MOL0     H 9101   3.459   2.242   5.415  1.7910 -1.5179  1.1605
  791MOL0     H 9102   3.422   2.292   5.579  0.2616  0.9912 -0.2670
  791MOL0     H 9103   3.431   2.053   5.638 -2.0677  0.2697 -1.9925
  791MOL0     H 9104   3.577   2.156   5.639  0.6898 -0.2199 -0.3342
  791MOL0     H 9105   3.597   1.915   5.548  0.1005  1.0128  0.3910
  791MOL0     H 9106   3.490   1.947   5.428 -1.6504 -3.8213  3.3995
  791MOL0     H 9107   3.839   2.081   5.533  0.5702 -1.3479  0.1701
  791MOL0     H 9108   4.045   2.036   5.359  0.4096  0.8257  0.3247
  791MOL0     H 9109   4.026   2.205   5.327 -0.4027 -0.9871  3.3212
  791MOL0     H 9110   4.036   1.973   5.107  3.7412  0.2175 -1.6563
  791MOL0     H 9111   3.969   2.129   5.073 -1.4471 -1.5065 -0.5870
  791MOL0     H 9112   4.213   2.202   5.169 -1.2184  1.0014 -0.9482
  791MOL0     H 9113   4.246   2.029   5.148 -1.4870 -0.3481  3.0891
  791MOL0     H 9114   4.137   2.234   4.939  0.0706 -0.3818 -0.0196
  791MOL0     H 9115   4.314   2.208   4.968  0.7267 -0.4103 -0.3070
  791MOL0     H 9116   4.200   2.191   4.657  1.7356 -1.2661  1.2795
  791MOL0     H 9117   4.112   2.165   4.406 -1.0021  0.2537 -1.1520
  791MOL0     H 9118   4.074   2.307   4.497 -0.3682 -0.2189  2.5942
  791MOL0     H 9119   3.944   2.237   4.396  1.4027  0.5025 -1.6062
  791MOL0     H 9120   3.679   2.050   4.298  0.1063 -0.3136 -0.4845
  791MOL0     H 9121   3.504   2.013   4.125 -0.3988 -0.9516 -0.0299
  791MOL0     H 9122   3.211   1.746   4.205  2.5994  0.1975 -2.1975
  791MOL0     H 9123   3.084   1.876   4.240  0.9620  2.4450 -0.4481
  791MOL0     H 9124   3.069   1.892   3.985 -0.6803 -0.0746  0.0135
  791MOL0     H 9125   3.188   1.752   3.969  0.0505 -1.2474  1.0940
  791MOL0     H 9126   3.053   1.610   4.073 -0.5267 -1.6164 -1.8346
  791MOL0     H 9127   2.983   1.672   3.923 -0.3571 -0.0924  0.4723
  791MOL0     H 9128   2.870   1.846   4.091  2.0166  0.2834  0.1895
  791MOL0     H 9129   2.910   1.732   4.212  0.7281 -0.6295 -0.0638
  791MOL0     H 9130   2.677   1.706   4.142  0.0890 -0.0408  0.9339
  791MOL0     H 9131   2.735   1.699   3.968 -0.5167 -2.5431 -1.1761
  791MOL0     H 9132   2.813   1.500   4.182  1.9942 -0.7713 -0.3013
  791MOL0     H 9133   2.854   1.485   4.013 -2.0603 -3.9984  0.2272
  791MOL0     H 9134   2.647   1.422   3.951 -1.7582 -2.2479  0.4836
  791MOL0     H 9135   2.564   1.469   4.108 -0.7696  0.9753 -1.6285
  791MOL0     H 9136   2.602   1.231   4.108  1.5346 -1.8140  0.0709
  791MOL0     H 9137   2.704   1.331   4.227 -2.3078  0.6839  0.2793
  791MOL0     H 9138   3.234   1.889   4.421 -0.0275  1.2256 -0.1650
  791MOL0     H 9139   3.411   1.919   4.605 -0.9242  1.3305  0.4140
  791MOL0     H 9140   3.799   1.919   4.739  0.9504 -1.2561 -2.4392
  791MOL0     H 9141   4.005   1.910   4.897  1.4063 -0.0399 -0.5384
  791MOL0     H 9142   2.687   2.345   5.446  1.8550 -3.1707  0.3327
  791MOL0     H 9143   2.469   2.286   5.565 -0.5335  3.8971 -0.8769
  791MOL0     H 9144   2.323   1.957   6.036 -2.5847 -1.3080 -0.9589
  791MOL0     H 9145   2.129   1.924   6.155 -0.8332 -0.8317 -0.2948
  791MOL0     H 9146   1.856   2.246   6.218  0.2329 -0.9798 -0.3095
  791MOL0     H 9147   1.779   2.115   6.309 -0.9953  0.2727  2.3997
  791MOL0     H 9148   1.943   2.256   6.447  0.6142  0.9472  0.0768
  791MOL0     H 9149   2.065   2.255   6.331 -1.4687  0.7988 -1.7922
  791MOL0     H 9150   2.003   1.983   6.451 -0.1240  0.5493  0.0068
  791MOL0     H 9151   2.150   2.041   6.377 -0.1610  1.0961 -1.4985
  791MOL0     H 9152   2.144   2.022   6.632 -3.5312 -0.3512  0.5858
  791MOL0     H 9153   2.044   2.156   6.638  1.2278  0.2397  1.2054
  791MOL0     H 9154   2.430   2.329   6.556  2.4084 -1.8519  0.2168
  791MOL0     H 9155   1.956   2.270   5.995  0.0440  0.3177  0.2924
  791MOL0     H 9156   2.042   2.381   5.812 -0.2917 -0.6420 -0.2626
  791MOL0     H 9157   2.194   2.436   5.876 -0.7967  0.1426  2.3246
  791MOL0     H 9158   2.183   2.318   5.732  0.4633 -1.8083  1.5945
  792MOL0     O 9159   5.790   6.001   2.787 -0.2938 -0.4858  0.0580
  792MOL0     C 9160   5.770   5.881   2.819  0.4651  0.2264 -0.2582
  792MOL0     O 9161   5.863   5.777   2.796 -0.0639  0.3928 -0.1402
  792MOL0     C 9162   5.988   5.814   2.750  1.1334 -0.2882  0.0605
  792MOL0     C 9163   6.096   5.768   2.821  0.3418  0.2071  0.0938
  792MOL0     C 9164   6.224   5.794   2.782 -0.2427  0.5801 -0.0702
  792MOL0     C 9165   6.249   5.877   2.673  0.8302 -0.5159 -0.0492
  792MOL0     O 9166   6.387   5.899   2.658  0.5187  0.1257 -0.5059
  792MOL0     C 9167   6.440   5.857   2.531 -0.4596  0.1762 -0.0927
  792MOL0     C 9168   6.588   5.828   2.548 -0.5092  0.0761 -0.1108
  792MOL0     C 9169   6.677   5.828   2.423  0.4413  0.0716  0.3347
  792MOL0     C 9170   6.629   5.715   2.335 -0.0500  0.6212 -0.4802
  792MOL0     C 9171   6.724   5.700   2.217 -0.7386 -0.2626  0.2052
  792MOL0     C 9172   6.872   5.657   2.248  0.2363  0.4275 -0.6518
  792MOL0     C 9173   6.976   5.664   2.122  0.0573  0.3603  0.5568
  792MOL0     C 9174   6.991   5.810   2.084  0.4124 -0.5156 -0.4676
  792MOL0     N 9175   7.069   5.890   2.181  1.1714  0.5306 -0.5509
  792MOL0     C 9176   7.181   5.857   2.246 -0.6106 -0.1372  0.2043
  792MOL0     C 9177   7.211   5.968   2.324  0.6265  0.4641  0.3956
  792MOL0     C 9178   7.337   5.980   2.407  0.6695 -0.5473  0.1329
  792MOL0     C 9179   7.397   6.121   2.373  0.1020 -0.1014 -0.2341
  792MOL0     C 9180   7.545   6.117   2.398  0.2073 -0.1315 -0.2255
  792MOL0     C 9181   7.608   6.224   2.320  1.3621 -0.1611  0.6249
  792MOL0     O 9182   7.742   6.189   2.307  0.2551 -0.8787  0.0263
  792MOL0     C 9183   7.832   6.281   2.258 -0.3979 -0.7293  0.3836
  792MOL0     C 9184   7.965   6.249   2.248 -0.4616  0.1615 -0.5588
  792MOL0     C 9185   8.057   6.338   2.206 -0.2794 -0.0690 -0.5883
  792MOL0     C 9186   8.198   6.278   2.205 -0.2854 -0.3847  0.0141
  792MOL0     C 9187   8.020   6.465   2.152  0.0165  1.1834 -0.2487
  792MOL0     C 9188   8.112   6.564   2.082  0.4717 -0.2652  0.2583
  792MOL0     O 9189   8.056   6.685   2.044 -0.2612 -0.2242  0.0079
  792MOL0     C 9190   8.138   6.799   2.030  1.0390  0.4148 -0.7783
  792MOL0     C 9191   8.080   6.907   1.955 -0.8272 -0.4314 -1.0756
  792MOL0     C 9192   8.130   7.035   1.972  0.1160 -0.1976  0.5254
  792MOL0     C 9193   8.243   7.067   2.047 -1.1937 -0.5599  0.1347
  792MOL0     O 9194   8.307   7.188   2.049  0.3827 -0.3326  0.3778
  792MOL0     C 9195   8.260   7.310   1.997 -0.3806 -1.3115 -0.6234
  792MOL0     C 9196   8.373   7.414   1.993 -1.1884  0.7532  0.9901
  792MOL0     C 9197   8.345   7.522   1.883  0.0640  0.7817  0.2499
  792MOL0     C 9198   8.249   7.632   1.926 -0.4287 -0.3315 -0.6167
  792MOL0     C 9199   8.100   7.610   1.897  0.3934 -0.7810  0.5386
  792MOL0     C 9200   8.005   7.714   1.973 -0.2340  0.8915 -0.4327
  792MOL0     C 9201   7.853   7.683   1.938 -0.2020 -0.1005 -0.1104
  792MOL0     C 9202   7.789   7.591   2.045  0.1349  0.7032 -0.4396
  792MOL0    Cl 9203   7.641   7.520   1.976 -0.0063 -0.4082 -0.1923
  792MOL0     C 9204   8.296   6.965   2.124 -0.3748  0.5776 -0.5690
  792MOL0     C 9205   8.244   6.831   2.112  1.1280  0.2974 -0.1391
  792MOL0     O 9206   8.228   6.533   2.057  0.3188  0.0872  0.3021
  792MOL0     C 9207   7.888   6.500   2.161 -0.2326 -0.3636  0.3592
  792MOL0     C 9208   7.800   6.414   2.214  0.5520  0.3060  1.0125
  792MOL0     N 9209   7.104   6.063   2.305 -0.2306  0.6989 -0.6410
  792MOL0     N 9210   7.019   6.005   2.231  0.4662 -0.4342  0.4377
  792MOL0     C 9211   6.146   5.929   2.597  0.2696 -0.1142  0.2990
  792MOL0     C 9212   6.006   5.901   2.644 -0.7474 -0.9524  1.3327
  792MOL0     C 9213   5.631   5.843   2.860  0.3071 -1.5729 -1.0860
  792MOL0     C 9214   5.599   5.711   2.895  0.6521  0.6632  0.1319
  792MOL0     C 9215   5.467   5.665   2.926 -0.0023 -0.0787  0.6069
  792MOL0     C 9216   5.363   5.756   2.939  0.1670 -0.4954 -0.5187
  792MOL0     O 9217   5.244   5.706   2.982 -0.0325  0.1051  0.3134
  792MOL0     C 9218   5.140   5.787   3.019  0.9721 -0.3183 -0.2839
  792MOL0     C 9219   5.064   5.730   3.137  0.3670 -0.3257 -0.3204
  792MOL0     C 9220   5.162   5.719   3.259 -0.2507  0.7142  0.6328
  792MOL0     C 9221   5.095   5.716   3.392 -0.8466  0.8828 -0.8954
  792MOL0     C 9222   5.009   5.600   3.398 -0.3614 -0.5543 -0.5819
  792MOL0     C 9223   4.931   5.506   3.419 -0.4796 -0.6114 -0.6922
  792MOL0     C 9224   5.388   5.889   2.902 -0.0715  0.3208 -0.5128
  792MOL0     C 9225   5.521   5.932   2.873  0.9997 -0.6187  0.4660
  792MOL0     C 9226   5.527   6.077   2.832  1.1052 -0.7049 -0.2061
  792MOL0     H 9227   6.088   5.703   2.907  2.6395 -0.1054  0.1348
  792MOL0     H 9228   6.302   5.744   2.837  1.0816  1.7172 -0.8487
  792MOL0     H 9229   6.433   5.933   2.452 -0.5620  0.8801  0.5802
  792MOL0     H 9230   6.396   5.759   2.510  0.1088 -0.2766  0.7461
  792MOL0     H 9231   6.618   5.910   2.614 -1.4926  2.2537 -2.1980
  792MOL0     H 9232   6.598   5.732   2.599  1.9878  0.0637 -0.4895
  792MOL0     H 9233   6.680   5.926   2.374  0.4529  1.4371  2.8532
  792MOL0     H 9234   6.781   5.798   2.441  0.5647 -1.3178 -2.2703
  792MOL0     H 9235   6.627   5.623   2.395 -1.5146  0.8002 -0.2081
  792MOL0     H 9236   6.525   5.713   2.300  0.6509  3.9703 -3.1941
  792MOL0     H 9237   6.714   5.796   2.165 -1.2447 -0.0684  0.6488
  792MOL0     H 9238   6.674   5.627   2.153 -1.0975  0.6238 -0.5464
  792MOL0     H 9239   6.920   5.718   2.325 -0.3681  0.3793 -0.2289
  792MOL0     H 9240   6.873   5.564   2.306  0.5968  2.3386  2.6416
  792MOL0     H 9241   6.930   5.602   2.044 -3.8524  2.1646  1.2131
  792MOL0     H 9242   7.072   5.618   2.149 -0.7446 -0.0999  2.8676
  792MOL0     H 9243   7.042   5.821   1.988  1.0923 -1.4184 -0.2154
  792MOL0     H 9244   6.889   5.849   2.076 -0.5608 -2.4128  1.5318
  792MOL0     H 9245   7.231   5.762   2.232 -1.9743 -0.7869 -0.3868
  792MOL0     H 9246   7.403   5.901   2.369  2.2031  2.1540 -3.4210
  792MOL0     H 9247   7.316   5.964   2.513 -1.3132 -2.6395 -0.5012
  792MOL0     H 9248   7.358   6.151   2.275  0.9984  3.8124  0.4320
  792MOL0     H 9249   7.344   6.191   2.438  0.8436  1.5236 -1.3204
  792MOL0     H 9250   7.569   6.137   2.502  0.5307  0.1252 -0.3473
  792MOL0     H 9251   7.585   6.018   2.373  0.7835  0.0264  0.0502
  792MOL0     H 9252   7.570   6.231   2.218  0.2592 -1.5874  0.8991
  792MOL0     H 9253   7.596   6.322   2.367  4.1367 -0.1219  1.4631
  792MOL0     H 9254   7.994   6.148   2.277  0.1836  0.7779  1.0345
  792MOL0     H 9255   8.277   6.352   2.196 -1.0823  0.5601  0.6674
  792MOL0     H 9256   8.205   6.209   2.120  2.1771 -0.1953  0.0020
  792MOL0     H 9257   8.215   6.225   2.299  1.7264 -0.1868 -0.1980
  792MOL0     H 9258   7.986   6.901   1.901 -1.8789  0.2667  0.6109
  792MOL0     H 9259   8.090   7.111   1.906 -3.5942 -1.3635  1.1923
  792MOL0     H 9260   8.232   7.294   1.893 -2.1952  2.2168 -0.8310
  792MOL0     H 9261   8.169   7.348   2.045  1.6936  1.3081  1.6130
  792MOL0     H 9262   8.386   7.454   2.094 -3.7000 -2.9535  3.0642
  792MOL0     H 9263   8.464   7.363   1.958 -2.2793  0.1552 -1.1560
  792MOL0     H 9264   8.321   7.465   1.793 -0.0287 -2.4175  2.1141
  792MOL0     H 9265   8.443   7.563   1.861 -1.2877  2.7159 -2.7335
  792MOL0     H 9266   8.283   7.725   1.879 -1.3568 -0.1206 -0.8804
  792MOL0     H 9267   8.257   7.636   2.035  1.1770 -1.8148 -0.6242
  792MOL0     H 9268   8.096   7.632   1.790  2.0256 -0.0223  0.6031
  792MOL0     H 9269   8.068   7.506   1.910  0.4239 -0.7971  0.4877
  792MOL0     H 9270   8.028   7.815   1.937 -1.5157  0.7036 -1.9007
  792MOL0     H 9271   8.023   7.703   2.081  1.2720 -1.7808 -0.8690
  792MOL0     H 9272   7.832   7.644   1.838 -2.3237  1.2518 -0.2519
  792MOL0     H 9273   7.801   7.779   1.933  1.1763  0.6168 -1.7547
  792MOL0     H 9274   7.759   7.641   2.137  0.6493  0.9902 -0.4257
  792MOL0     H 9275   7.857   7.515   2.084 -0.4125  1.1679  1.5198
  792MOL0     H 9276   8.385   6.983   2.183  0.6727 -1.8833 -1.2587
  792MOL0     H 9277   8.294   6.755   2.171  0.1735 -0.8076 -0.7097
  792MOL0     H 9278   7.844   6.592   2.123 -0.0704 -0.4207  0.0296
  792MOL0     H 9279   7.699   6.454   2.215  0.2995 -0.3228  1.8094
  792MOL0     H 9280   6.159   5.989   2.508 -1.0674  1.1910  0.9421
  792MOL0     H 9281   5.925   5.937   2.582  1.5286 -0.5069 -1.5754
  792MOL0     H 9282   5.679   5.639   2.889  0.1221 -0.2569  2.6524
  792MOL0     H 9283   5.456   5.565   2.969  1.1102  0.3060  1.8629
  792MOL0     H 9284   5.182   5.884   3.046  0.1808  0.0260 -0.2604
  792MOL0     H 9285   5.067   5.803   2.938 -0.7732 -2.1768  0.8305
  792MOL0     H 9286   5.010   5.636   3.121 -2.3698  0.3150  3.8201
  792MOL0     H 9287   4.977   5.793   3.157 -1.0230 -1.2971 -2.8605
  792MOL0     H 9288   5.226   5.631   3.245 -2.6401 -1.0264 -0.1085
  792MOL0     H 9289   5.235   5.800   3.245  1.1081 -0.6315 -0.4602
  792MOL0     H 9290   5.034   5.807   3.394 -0.8851  0.8512 -0.6981
  792MOL0     H 9291   5.173   5.725   3.467 -0.4942  3.3920 -1.4615
  792MOL0     H 9292   4.870   5.419   3.430 -2.2593  0.4992 -1.3338
  792MOL0     H 9293   5.305   5.955   2.921  0.6679  0.5913  2.2219
  792MOL0     H 9294   5.615   6.120   2.880  0.2860 -1.4596  2.1056
  792MOL0     H 9295   5.526   6.097   2.724  3.0666  2.5840  0.2404
  792MOL0     H 9296   5.440   6.136   2.864  2.8425  1.1177  1.4072
  793MOL0     O 9297   9.137  11.412  10.911  0.2766 -0.0789  0.1156
  793MOL0     C 9298   9.111  11.363  11.021 -0.6272  0.0173 -1.0040
  793MOL0     O 9299   9.207  11.320  11.111 -0.2551 -0.0253  0.0743
  793MOL0     C 9300   9.337  11.359  11.092 -0.5970 -0.1298  0.7864
  793MOL0     C 9301   9.418  11.279  11.005  0.1773 -0.2303  0.7342
  793MOL0     C 9302   9.555  11.301  10.986  0.1374 -0.7090 -0.4578
  793MOL0     C 9303   9.617  11.404  11.060  1.1143  1.1856 -0.8033
  793MOL0     O 9304   9.747  11.417  11.038 -0.7692  0.7360  0.3961
  793MOL0     C 9305   9.821  11.481  11.139  0.0016  0.3868  0.2468
  793MOL0     C 9306   9.956  11.498  11.082  0.0796  0.1501 -0.3861
  793MOL0     C 9307  10.018  11.365  11.029 -0.2156  0.4256  0.3838
  793MOL0     C 9308  10.175  11.374  11.017  0.4474  0.3665 -0.9260
  793MOL0     C 9309  10.221  11.503  10.931  0.2531 -0.0003 -1.6828
  793MOL0     C 9310  10.369  11.530  10.897 -0.3993  0.0559  0.1062
  793MOL0     C 9311  10.422  11.421  10.797  0.8769 -0.1895 -0.5420
  793MOL0     C 9312  10.565  11.446  10.752  0.7106 -0.3060 -0.7206
  793MOL0     N 9313  10.625  11.343  10.668  0.3446 -0.9202  0.3102
  793MOL0     C 9314  10.578  11.289  10.552 -0.6646 -0.6928 -0.2494
  793MOL0     C 9315  10.672  11.195  10.512  1.0371  0.9503  0.0683
  793MOL0     C 9316  10.675  11.104  10.385 -0.5235 -0.5019 -0.5300
  793MOL0     C 9317  10.788  11.157  10.280 -0.1088  0.7409  0.1667
  793MOL0     C 9318  10.794  11.306  10.253 -0.1659 -0.7107 -0.7450
  793MOL0     C 9319  10.718  11.349  10.112 -1.2974  0.6570  0.1849
  793MOL0     O 9320  10.581  11.325  10.089  0.5154  0.0086 -0.3898
  793MOL0     C 9321  10.495  11.364  10.181  0.3731 -0.2862 -0.3834
  793MOL0     C 9322  10.511  11.480  10.258 -0.0568 -0.2458 -0.7898
  793MOL0     C 9323  10.415  11.535  10.341 -0.3937  0.7144  0.1754
  793MOL0     C 9324  10.458  11.652  10.418 -0.0864 -0.2786  0.0792
  793MOL0     C 9325  10.298  11.473  10.362 -0.2048  1.0393 -0.8169
  793MOL0     C 9326  10.184  11.528  10.456 -0.1753  0.5432 -0.5654
  793MOL0     O 9327  10.058  11.480  10.430 -0.3579 -0.1810  0.2811
  793MOL0     C 9328   9.947  11.528  10.495  0.9937  0.7207 -0.4058
  793MOL0     C 9329   9.926  11.510  10.632  0.7909 -0.0045  0.5318
  793MOL0     C 9330   9.797  11.550  10.687  0.1069 -1.3081 -0.2504
  793MOL0     C 9331   9.694  11.601  10.609 -0.2254 -0.2076 -0.5513
  793MOL0     O 9332   9.568  11.621  10.668  0.2068  0.0782 -0.7315
  793MOL0     C 9333   9.454  11.558  10.611  0.0424  0.2713 -0.1621
  793MOL0     C 9334   9.453  11.407  10.634  0.7383 -0.4463 -0.6691
  793MOL0     C 9335   9.371  11.322  10.538 -0.7874  0.0625  1.2296
  793MOL0     C 9336   9.219  11.341  10.562 -0.2019 -0.4520 -0.4398
  793MOL0     C 9337   9.123  11.249  10.471  0.9972 -0.1576 -0.8640
  793MOL0     C 9338   8.981  11.242  10.531 -0.2258 -0.3723 -0.4416
  793MOL0     C 9339   8.987  11.161  10.658  0.6065 -0.0428  1.0980
  793MOL0     C 9340   8.863  11.165  10.744  0.7821 -0.8471 -0.6046
  793MOL0    Cl 9341   8.725  11.100  10.646 -0.2574  0.2350  0.3708
  793MOL0     C 9342   9.721  11.627  10.479  0.0607  0.0325  0.0438
  793MOL0     C 9343   9.838  11.586  10.419  0.1183  0.7302 -0.4569
  793MOL0     O 9344  10.203  11.625  10.528  0.4648  0.2154  0.0221
  793MOL0     C 9345  10.266  11.355  10.277  0.4792 -0.3746 -0.9916
  793MOL0     C 9346  10.371  11.302  10.195  0.4329  0.9465  0.6722
  793MOL0     N 9347  10.778  11.202  10.599 -0.4796 -0.2641  0.0828
  793MOL0     N 9348  10.747  11.282  10.690 -0.7844 -0.5666 -0.8480
  793MOL0     C 9349   9.541  11.469  11.164  0.0404  0.5908 -1.3093
  793MOL0     C 9350   9.399  11.446  11.175 -1.1918 -0.9453  0.0152
  793MOL0     C 9351   8.968  11.344  11.055 -0.0294  0.7553 -0.2651
  793MOL0     C 9352   8.874  11.452  11.061 -0.1367  0.2683  0.1452
  793MOL0     C 9353   8.740  11.432  11.087 -0.1157  0.3761 -0.4828
  793MOL0     C 9354   8.692  11.305  11.128 -0.3027 -0.6246  0.2624
  793MOL0     O 9355   8.565  11.273  11.171 -0.4022 -0.5479  0.2357
  793MOL0     C 9356   8.464  11.337  11.092 -0.2115 -0.4542 -0.1091
  793MOL0     C 9357   8.323  11.272  11.131 -0.2738  0.3772  0.3973
  793MOL0     C 9358   8.280  11.180  11.013  0.8841  0.4604 -0.3326
  793MOL0     C 9359   8.165  11.085  11.062  0.3089 -0.1195  0.3369
  793MOL0     C 9360   8.128  10.998  10.951  0.4370 -0.1016 -0.9765
  793MOL0     C 9361   8.094  10.926  10.862 -0.7404 -0.0081 -0.4671
  793MOL0     C 9362   8.780  11.201  11.116  0.2717 -0.2379 -0.1810
  793MOL0     C 9363   8.919  11.219  11.089  0.8081 -0.0005 -0.5658
  793MOL0     C 9364   9.004  11.098  11.078 -0.0760 -0.4183  0.4436
  793MOL0     H 9365   9.378  11.195  10.949  1.6319  0.7367 -1.9916
  793MOL0     H 9366   9.618  11.235  10.927 -0.9197 -3.0257  0.8689
  793MOL0     H 9367   9.818  11.416  11.226  2.5158  3.7092  3.1033
  793MOL0     H 9368   9.780  11.580  11.163 -4.3871 -0.9595 -0.8584
  793MOL0     H 9369   9.955  11.565  10.995  1.0027  0.3512 -0.2570
  793MOL0     H 9370  10.026  11.542  11.155  1.3550 -0.9968 -0.8771
  793MOL0     H 9371   9.977  11.287  11.094 -0.8052 -0.4211 -0.9501
  793MOL0     H 9372   9.991  11.332  10.928  2.1806 -1.7199  0.3535
  793MOL0     H 9373  10.212  11.387  11.120 -0.6209 -1.8459 -0.1904
  793MOL0     H 9374  10.224  11.286  10.974  1.5352  0.3489  0.2704
  793MOL0     H 9375  10.178  11.595  10.972 -1.0858 -1.8630  1.4568
  793MOL0     H 9376  10.169  11.495  10.834 -0.2677  0.4242 -1.4458
  793MOL0     H 9377  10.388  11.633  10.864  0.7094 -0.6975 -1.7304
  793MOL0     H 9378  10.437  11.530  10.983  0.6700  0.4459 -0.7226
  793MOL0     H 9379  10.366  11.433  10.704 -0.6096 -2.1416  0.0252
  793MOL0     H 9380  10.410  11.321  10.840 -0.0958  0.4315  0.7000
  793MOL0     H 9381  10.579  11.539  10.697 -0.4344 -0.7122 -1.7608
  793MOL0     H 9382  10.626  11.465  10.840 -2.3272 -0.2432  1.5616
  793MOL0     H 9383  10.486  11.320  10.505 -0.9737 -1.0799  0.0906
  793MOL0     H 9384  10.575  11.090  10.343 -0.9255 -1.9951  0.8420
  793MOL0     H 9385  10.707  11.008  10.426  4.3600  0.9634 -0.2615
  793MOL0     H 9386  10.885  11.131  10.324 -0.7128  1.6401  2.1400
  793MOL0     H 9387  10.771  11.104  10.186 -0.9582  2.0204 -0.4206
  793MOL0     H 9388  10.757  11.368  10.334  3.7163  0.5689  0.2480
  793MOL0     H 9389  10.899  11.335  10.242 -0.4629  1.0631  0.6042
  793MOL0     H 9390  10.727  11.456  10.092 -1.4079  0.5229 -0.6336
  793MOL0     H 9391  10.771  11.298  10.031  0.5576  0.0072  1.7209
  793MOL0     H 9392  10.599  11.540  10.239 -0.8605  1.3737  0.3965
  793MOL0     H 9393  10.563  11.669  10.393  0.0244  0.8738  1.2681
  793MOL0     H 9394  10.451  11.625  10.524  0.5427  2.7041  0.9699
  793MOL0     H 9395  10.395  11.739  10.402  0.9128  0.8900  2.1062
  793MOL0     H 9396  10.002  11.464  10.694  0.7499 -1.8207 -0.7022
  793MOL0     H 9397   9.758  11.543  10.788  0.4208  0.3741  0.0098
  793MOL0     H 9398   9.370  11.607  10.661  1.0590  1.1512  0.7607
  793MOL0     H 9399   9.437  11.574  10.504  0.6267  0.3768 -0.2429
  793MOL0     H 9400   9.555  11.367  10.632  1.4428  0.9940  1.6222
  793MOL0     H 9401   9.418  11.401  10.738  1.7197  1.6226 -0.1551
  793MOL0     H 9402   9.406  11.219  10.548 -2.1222 -0.7284 -1.2903
  793MOL0     H 9403   9.386  11.345  10.432 -0.6633 -0.6905  1.0787
  793MOL0     H 9404   9.192  11.446  10.544  0.8764 -0.1402 -0.3136
  793MOL0     H 9405   9.205  11.323  10.669  0.8375 -2.1097 -0.5551
  793MOL0     H 9406   9.131  11.294  10.372  0.2293 -2.3146 -1.9683
  793MOL0     H 9407   9.158  11.145  10.473 -0.3263 -0.6705  2.4137
  793MOL0     H 9408   8.907  11.197  10.465  0.6046 -3.2905  0.4548
  793MOL0     H 9409   8.934  11.338  10.555 -2.3959 -1.6551  0.6931
  793MOL0     H 9410   9.070  11.187  10.725  0.5531 -1.5619  1.8034
  793MOL0     H 9411   9.009  11.057  10.634 -0.6296 -0.0893  0.1177
  793MOL0     H 9412   8.841  11.267  10.778 -0.8737 -0.9656 -1.2422
  793MOL0     H 9413   8.871  11.095  10.828 -5.5766 -3.3328 -1.5625
  793MOL0     H 9414   9.649  11.682  10.419 -0.7637  0.1126  1.0793
  793MOL0     H 9415   9.866  11.619  10.319  1.4685 -0.4373 -0.4954
  793MOL0     H 9416  10.174  11.298  10.286  0.3503 -0.1905 -1.1508
  793MOL0     H 9417  10.355  11.213  10.134  0.2873 -0.3669  2.5345
  793MOL0     H 9418   9.594  11.543  11.223 -0.0101 -0.4557  0.1236
  793MOL0     H 9419   9.344  11.511  11.242 -2.7841 -1.8687 -0.3537
  793MOL0     H 9420   8.917  11.550  11.047 -1.6894  0.9734  0.0676
  793MOL0     H 9421   8.674  11.518  11.092 -2.6463 -1.3125 -2.2590
  793MOL0     H 9422   8.462  11.444  11.115 -2.3789 -0.4362 -0.2033
  793MOL0     H 9423   8.476  11.323  10.984 -2.8801 -1.1132 -0.3929
  793MOL0     H 9424   8.244  11.347  11.134  0.1592  0.8134  2.1686
  793MOL0     H 9425   8.320  11.225  11.230  1.4657 -0.0666  0.2825
  793MOL0     H 9426   8.236  11.233  10.928 -0.8770  1.1004  0.9140
  793MOL0     H 9427   8.360  11.118  10.973  1.5012 -1.0253  2.8989
  793MOL0     H 9428   8.084  11.145  11.105  0.9955  1.4225 -0.4559
  793MOL0     H 9429   8.201  11.015  11.138 -1.2741 -1.3512  0.0142
  793MOL0     H 9430   8.073  10.874  10.771  1.4287 -0.8334 -0.5475
  793MOL0     H 9431   8.747  11.100  11.139  0.7500  0.0214  1.8717
  793MOL0     H 9432   9.071  11.094  11.165  1.1447 -0.0220 -0.4478
  793MOL0     H 9433   8.944  11.008  11.058 -0.2823  0.0035 -0.9232
  793MOL0     H 9434   9.065  11.115  10.989 -2.8150  2.8467 -0.9864
  794MOL0     O 9435   3.518   1.906   9.882  0.7048 -0.2326  0.5231
  794MOL0     C 9436   3.416   1.845   9.869  0.6520 -0.3758  0.5416
  794MOL0     O 9437   3.395   1.713   9.836  0.4243 -0.2403  0.1788
  794MOL0     C 9438   3.504   1.661   9.781 -0.4247 -0.4728  0.4227
  794MOL0     C 9439   3.594   1.578   9.846  0.1914 -0.9785 -0.5569
  794MOL0     C 9440   3.711   1.537   9.785  0.2994  0.0887  0.4123
  794MOL0     C 9441   3.725   1.552   9.645  0.5914 -0.3503  0.6659
  794MOL0     O 9442   3.829   1.491   9.578 -0.7894  0.2106 -0.0558
  794MOL0     C 9443   3.779   1.420   9.463 -1.7150  0.9783  0.8546
  794MOL0     C 9444   3.895   1.445   9.360 -0.3089  0.5859  0.4419
  794MOL0     C 9445   4.027   1.366   9.400 -0.3670  0.3730  0.1969
  794MOL0     C 9446   4.140   1.402   9.297  0.3529  0.4883  0.3159
  794MOL0     C 9447   4.278   1.351   9.322 -0.1736  0.2731  0.1694
  794MOL0     C 9448   4.368   1.405   9.204 -0.4190 -0.2897 -0.6494
  794MOL0     C 9449   4.511   1.355   9.214  0.3247  0.6382  0.3593
  794MOL0     C 9450   4.583   1.417   9.328  0.6209 -0.3362  0.1862
  794MOL0     N 9451   4.724   1.370   9.301  0.6342  0.5322 -0.2198
  794MOL0     C 9452   4.830   1.438   9.257 -1.9743 -0.6527  0.0504
  794MOL0     C 9453   4.942   1.365   9.296 -0.4317 -1.6064 -0.2824
  794MOL0     C 9454   5.077   1.429   9.297  0.2727  0.3363  0.1314
  794MOL0     C 9455   5.180   1.353   9.218 -0.9507  0.3677  0.4221
  794MOL0     C 9456   5.129   1.331   9.072  1.3961 -1.0454 -0.0230
  794MOL0     C 9457   5.223   1.283   8.963  0.6479  0.2282 -0.2829
  794MOL0     O 9458   5.325   1.375   8.963 -0.4347  0.3105  0.1540
  794MOL0     C 9459   5.452   1.346   8.918 -0.4455 -0.6809  0.1483
  794MOL0     C 9460   5.488   1.237   8.846 -0.4859  0.3855  0.8309
  794MOL0     C 9461   5.623   1.208   8.815 -0.1594  0.9665  0.1462
  794MOL0     C 9462   5.638   1.071   8.739  0.8440  0.2492 -0.5474
  794MOL0     C 9463   5.725   1.298   8.849 -1.0302 -0.1757 -0.5109
  794MOL0     C 9464   5.868   1.286   8.816 -0.3535  0.5888 -0.1495
  794MOL0     O 9465   5.958   1.361   8.894 -0.3507  0.4467 -0.2088
  794MOL0     C 9466   6.095   1.343   8.883  0.2288  0.3047  0.4456
  794MOL0     C 9467   6.167   1.372   8.997 -0.3089 -0.5206  0.4875
  794MOL0     C 9468   6.304   1.367   8.993  0.2927 -0.6239  0.0067
  794MOL0     C 9469   6.366   1.350   8.864  0.1152  0.2744 -1.0924
  794MOL0     O 9470   6.507   1.360   8.852  0.1438 -0.0280 -0.1084
  794MOL0     C 9471   6.573   1.347   8.725  0.5541 -0.4205  1.1527
  794MOL0     C 9472   6.726   1.358   8.768 -0.6038 -0.0827  0.2212
  794MOL0     C 9473   6.810   1.358   8.640 -0.6454  0.3448  0.4294
  794MOL0     C 9474   6.840   1.213   8.602 -0.5093  0.4561 -0.6722
  794MOL0     C 9475   6.879   1.203   8.455  0.7387  0.1983 -0.2765
  794MOL0     C 9476   7.008   1.283   8.427 -0.9417 -0.5229  0.9992
  794MOL0     C 9477   7.035   1.261   8.275 -0.1619  0.1716 -0.1420
  794MOL0     C 9478   7.176   1.311   8.227 -0.4281  0.5218 -0.2502
  794MOL0    Cl 9479   7.293   1.172   8.234  0.0658  0.1112  0.1850
  794MOL0     C 9480   6.293   1.309   8.751 -0.7173  0.2609 -0.5869
  794MOL0     C 9481   6.159   1.304   8.762  0.1007 -0.1240 -0.2920
  794MOL0     O 9482   5.895   1.195   8.737  0.3801  0.2387  0.2169
  794MOL0     C 9483   5.686   1.404   8.930 -0.3446  0.5632 -0.4452
  794MOL0     C 9484   5.557   1.429   8.957  0.8413 -0.0599 -0.1824
  794MOL0     N 9485   4.900   1.243   9.360 -0.2860  0.4448 -0.4672
  794MOL0     N 9486   4.767   1.252   9.371 -0.5467  0.4225  0.4363
  794MOL0     C 9487   3.624   1.627   9.576  0.0934 -0.1833  0.8363
  794MOL0     C 9488   3.523   1.679   9.647  1.1532 -0.3265 -0.1108
  794MOL0     C 9489   3.291   1.907   9.900  0.8006 -0.2891  0.7022
  794MOL0     C 9490   3.191   1.817   9.951  0.2460 -0.2818  0.9135
  794MOL0     C 9491   3.069   1.863   9.992  0.1301  0.3068 -0.2557
  794MOL0     C 9492   3.040   2.005   9.996 -0.3424  0.3482  0.3056
  794MOL0     O 9493   2.931   2.066  10.047  0.1052  0.0742  0.2065
  794MOL0     C 9494   2.805   1.982  10.046 -0.3046  0.0036  0.3656
  794MOL0     C 9495   2.677   2.070  10.022  0.0115  0.4228  0.3562
  794MOL0     C 9496   2.684   2.139   9.882  0.0696  0.0826  0.7405
  794MOL0     C 9497   2.536   2.191   9.840 -0.1332  0.1227  0.1225
  794MOL0     C 9498   2.491   2.310   9.923  0.2539 -0.0375 -0.8030
  794MOL0     C 9499   2.465   2.390  10.009  0.9412  0.0348 -0.2262
  794MOL0     C 9500   3.126   2.098   9.940 -0.6157  0.9739  1.0102
  794MOL0     C 9501   3.249   2.042   9.884 -1.1322 -0.5939 -0.5409
  794MOL0     C 9502   3.339   2.136   9.800  0.0257 -0.6510  0.5465
  794MOL0     H 9503   3.591   1.554   9.952  0.3767 -1.0925 -0.5786
  794MOL0     H 9504   3.790   1.484   9.837 -0.5420 -0.1704  1.4578
  794MOL0     H 9505   3.698   1.463   9.404  0.1642  1.5832 -1.4386
  794MOL0     H 9506   3.754   1.316   9.488 -3.3741  1.4751  1.3839
  794MOL0     H 9507   3.875   1.406   9.260  1.5087  0.8550 -0.0544
  794MOL0     H 9508   3.915   1.553   9.362  0.7038  0.6620 -3.8722
  794MOL0     H 9509   4.052   1.394   9.502 -1.0827  0.9736  0.2200
  794MOL0     H 9510   4.005   1.260   9.390 -1.9119  0.8047 -1.7201
  794MOL0     H 9511   4.116   1.375   9.194  0.4377  1.1498  0.1168
  794MOL0     H 9512   4.141   1.511   9.296 -1.2181  0.5364  0.8804
  794MOL0     H 9513   4.276   1.242   9.324  1.6014  0.1658 -1.1702
  794MOL0     H 9514   4.316   1.380   9.421 -0.2775  0.8299  0.0478
  794MOL0     H 9515   4.333   1.359   9.111 -1.0114  2.0833 -1.6899
  794MOL0     H 9516   4.380   1.514   9.206  2.3664 -0.5058 -1.0842
  794MOL0     H 9517   4.573   1.366   9.124  1.6316 -0.5703  1.0689
  794MOL0     H 9518   4.514   1.246   9.221 -2.2095  0.2691 -2.5068
  794MOL0     H 9519   4.567   1.526   9.329  1.0093 -0.2582 -0.8174
  794MOL0     H 9520   4.537   1.378   9.419 -0.2903  0.8422  0.2550
  794MOL0     H 9521   4.831   1.539   9.216 -0.5226  0.7311  3.1466
  794MOL0     H 9522   5.109   1.445   9.400  1.2043 -1.8287  0.2239
  794MOL0     H 9523   5.068   1.528   9.251 -0.6804  1.3966  2.4734
  794MOL0     H 9524   5.269   1.416   9.204 -0.9738  0.3062 -0.0014
  794MOL0     H 9525   5.210   1.258   9.263  0.9174  0.4572 -0.5324
  794MOL0     H 9526   5.048   1.259   9.079  1.5131 -1.1589  0.1735
  794MOL0     H 9527   5.078   1.419   9.030  0.9263 -0.1980  2.1841
  794MOL0     H 9528   5.252   1.179   8.983 -0.2945  0.4598  2.6807
  794MOL0     H 9529   5.165   1.290   8.870 -0.5604  0.5136  0.4772
  794MOL0     H 9530   5.417   1.161   8.815 -1.2588  0.6794  1.8346
  794MOL0     H 9531   5.728   1.013   8.761 -1.3831 -2.3178  2.9556
  794MOL0     H 9532   5.628   1.082   8.631 -3.2906  0.3245 -0.3433
  794MOL0     H 9533   5.561   1.000   8.772  1.2412 -0.3139 -0.8247
  794MOL0     H 9534   6.118   1.407   9.087 -0.9890 -0.5447  0.1364
  794MOL0     H 9535   6.360   1.404   9.079 -0.1049  1.0808 -0.4371
  794MOL0     H 9536   6.546   1.254   8.674 -0.8449  0.9181 -0.7099
  794MOL0     H 9537   6.543   1.432   8.664  0.2964 -1.0218  0.4220
  794MOL0     H 9538   6.732   1.452   8.822 -0.6866 -0.5368  1.0326
  794MOL0     H 9539   6.746   1.275   8.836 -2.0021 -1.7517 -1.2814
  794MOL0     H 9540   6.905   1.412   8.651 -0.8594  0.6633  0.7553
  794MOL0     H 9541   6.760   1.407   8.556 -0.1820  2.1627  1.1513
  794MOL0     H 9542   6.762   1.137   8.612  0.1739 -0.1717  0.1733
  794MOL0     H 9543   6.920   1.176   8.668  0.6290 -0.3475 -2.4176
  794MOL0     H 9544   6.890   1.096   8.435 -2.6342 -0.5110  0.8408
  794MOL0     H 9545   6.794   1.239   8.396  0.5563 -1.2803 -0.9799
  794MOL0     H 9546   7.098   1.242   8.474 -0.8954 -1.8577 -0.2164
  794MOL0     H 9547   6.997   1.390   8.450  1.5820  0.4272 -1.5881
  794MOL0     H 9548   6.968   1.326   8.218  1.0827  2.6485  1.0564
  794MOL0     H 9549   7.020   1.155   8.252  1.4206 -0.4640  1.5715
  794MOL0     H 9550   7.213   1.387   8.296  2.0718 -2.1804  1.6223
  794MOL0     H 9551   7.182   1.355   8.127  1.8643  0.6588 -0.1015
  794MOL0     H 9552   6.344   1.287   8.658  2.0343 -0.6285  1.0148
  794MOL0     H 9553   6.101   1.288   8.671  0.5126 -0.1835 -0.5454
  794MOL0     H 9554   5.760   1.472   8.972 -0.7004  0.3157  0.6160
  794MOL0     H 9555   5.539   1.516   9.019  0.0156  0.2473 -0.8313
  794MOL0     H 9556   3.624   1.631   9.467 -2.4143 -4.7920  0.4250
  794MOL0     H 9557   3.449   1.742   9.599  0.7231 -0.1230  0.7954
  794MOL0     H 9558   3.205   1.711   9.968  0.0232 -0.7937 -1.6480
  794MOL0     H 9559   3.007   1.789  10.041  1.9426 -0.9893  0.2035
  794MOL0     H 9560   2.822   1.922   9.956  2.1574  0.4691  0.4431
  794MOL0     H 9561   2.789   1.927  10.140 -1.0252 -0.0193  0.2364
  794MOL0     H 9562   2.667   2.143  10.103 -1.3925  2.2573 -1.3788
  794MOL0     H 9563   2.585   2.011  10.021 -1.0905  2.0718  1.0006
  794MOL0     H 9564   2.769   2.208   9.890  0.3188 -0.2401  0.8912
  794MOL0     H 9565   2.703   2.058   9.811 -2.9663 -0.7505  0.7380
  794MOL0     H 9566   2.460   2.113   9.850 -0.1127 -0.2623 -2.2369
  794MOL0     H 9567   2.547   2.219   9.735 -0.6636  0.4865  0.1630
  794MOL0     H 9568   2.432   2.463  10.081 -0.4564 -2.4871  1.8673
  794MOL0     H 9569   3.100   2.203   9.939  0.1041  1.1706 -0.2706
  794MOL0     H 9570   3.285   2.180   9.715 -0.9590  1.0242  1.9666
  794MOL0     H 9571   3.385   2.218   9.856  1.9010 -0.2335 -1.4519
  794MOL0     H 9572   3.426   2.085   9.757  0.0239 -0.8112  0.7321
  795MOL0     O 9573   2.460   0.359   1.234  0.3000 -0.4522  0.7506
  795MOL0     C 9574   2.429   0.440   1.327  0.1287  1.3479 -0.6296
  795MOL0     O 9575   2.493   0.551   1.363 -0.3935  0.5699 -0.5920
  795MOL0     C 9576   2.577   0.614   1.276  0.6397 -0.4045 -0.6627
  795MOL0     C 9577   2.609   0.597   1.145 -0.1588 -0.6055 -0.3769
  795MOL0     C 9578   2.704   0.671   1.079  0.0471  0.6152  0.2642
  795MOL0     C 9579   2.778   0.770   1.141 -0.3313  0.8067 -0.3986
  795MOL0     O 9580   2.880   0.831   1.079 -0.3916 -0.3687 -0.1505
  795MOL0     C 9581   3.002   0.865   1.155  0.5741 -0.6469  0.0304
  795MOL0     C 9582   3.002   1.013   1.206 -0.1595  0.7664 -0.0402
  795MOL0     C 9583   3.143   1.045   1.269 -0.2501 -0.3072  0.4745
  795MOL0     C 9584   3.147   1.190   1.323  0.2971  0.3467 -0.6261
  795MOL0     C 9585   3.293   1.224   1.361 -0.7123  0.0482 -0.3285
  795MOL0     C 9586   3.411   1.230   1.260 -0.6564  0.2946  0.5741
  795MOL0     C 9587   3.540   1.243   1.341  0.0640  0.7463  0.0573
  795MOL0     C 9588   3.640   1.207   1.230 -0.1744  0.3959 -0.3963
  795MOL0     N 9589   3.775   1.226   1.286 -0.0875 -0.4448 -0.4898
  795MOL0     C 9590   3.833   1.330   1.351 -0.1034  0.4514 -0.0284
  795MOL0     C 9591   3.956   1.282   1.398  0.5618 -0.6705 -0.0081
  795MOL0     C 9592   4.057   1.353   1.486  0.3862 -0.0701  0.1524
  795MOL0     C 9593   4.089   1.500   1.449 -0.3634  0.3823  1.0527
  795MOL0     C 9594   4.182   1.524   1.323 -0.2086  0.2213 -0.2928
  795MOL0     C 9595   4.192   1.677   1.293 -0.1172  0.2677  0.2926
  795MOL0     O 9596   4.271   1.713   1.175 -0.4460  0.1317  0.6675
  795MOL0     C 9597   4.411   1.710   1.189 -0.3029 -0.0844  0.3880
  795MOL0     C 9598   4.478   1.749   1.069  0.6818 -0.3874 -0.4308
  795MOL0     C 9599   4.611   1.760   1.060 -0.2146  0.3216  0.0495
  795MOL0     C 9600   4.662   1.762   0.914  0.7676 -0.0384 -0.4196
  795MOL0     C 9601   4.691   1.746   1.177  0.2527  0.0323  0.0194
  795MOL0     C 9602   4.839   1.760   1.188 -0.6545 -0.5555 -0.0674
  795MOL0     O 9603   4.903   1.698   1.294 -0.0992  0.3139 -0.4839
  795MOL0     C 9604   5.037   1.705   1.326  0.0056 -0.8509  0.5459
  795MOL0     C 9605   5.117   1.594   1.341  0.2311 -0.1571 -0.9011
  795MOL0     C 9606   5.251   1.608   1.368 -0.0868 -0.4158 -0.7005
  795MOL0     C 9607   5.315   1.732   1.384  0.0178  0.0436  0.1567
  795MOL0     O 9608   5.453   1.754   1.401  0.0472  0.9631 -0.2018
  795MOL0     C 9609   5.522   1.676   1.315  0.2304  0.0245  0.0813
  795MOL0     C 9610   5.673   1.713   1.343 -0.1425  0.1913 -0.4039
  795MOL0     C 9611   5.716   1.819   1.240 -0.3415  0.0555  0.2004
  795MOL0     C 9612   5.843   1.889   1.281 -0.2588 -0.4436 -0.2208
  795MOL0     C 9613   5.838   1.959   1.420 -0.5673 -0.4349 -0.0580
  795MOL0     C 9614   5.966   2.047   1.426 -0.2335  0.4245 -0.0752
  795MOL0     C 9615   5.946   2.156   1.537  0.2970 -0.8948  0.0222
  795MOL0     C 9616   6.069   2.250   1.549 -0.3743  0.0118 -0.5978
  795MOL0    Cl 9617   6.224   2.163   1.573  0.1873 -0.0306 -0.3218
  795MOL0     C 9618   5.231   1.845   1.373  0.1387 -0.2179 -0.2073
  795MOL0     C 9619   5.097   1.833   1.340 -0.5030 -1.1037  0.0178
  795MOL0     O 9620   4.894   1.844   1.110 -0.1771 -0.1724 -0.4041
  795MOL0     C 9621   4.631   1.717   1.297  0.9296 -0.9326 -0.3087
  795MOL0     C 9622   4.493   1.703   1.304  0.6512  0.3718  0.6972
  795MOL0     N 9623   3.961   1.152   1.361  1.0266 -0.1809  0.5983
  795MOL0     N 9624   3.855   1.118   1.294  0.1217 -0.4564  0.4416
  795MOL0     C 9625   2.748   0.793   1.273  0.2445  0.1076  0.3168
  795MOL0     C 9626   2.642   0.714   1.337 -0.0031  0.3519 -0.3507
  795MOL0     C 9627   2.317   0.399   1.413 -0.3745 -0.1029  0.0572
  795MOL0     C 9628   2.228   0.502   1.432 -0.1665 -0.0194 -0.3991
  795MOL0     C 9629   2.121   0.489   1.527 -0.5422 -0.2005  0.3642
  795MOL0     C 9630   2.100   0.367   1.592  0.7177 -0.1751 -0.1001
  795MOL0     O 9631   1.998   0.355   1.686  0.0016  0.0869  0.3395
  795MOL0     C 9632   1.946   0.222   1.729 -0.2785 -1.4608  0.5233
  795MOL0     C 9633   1.809   0.246   1.784  0.7757  0.0821  0.5584
  795MOL0     C 9634   1.743   0.109   1.817 -0.4905 -0.1116  0.0446
  795MOL0     C 9635   1.584   0.115   1.788  0.7180 -0.3563  0.4181
  795MOL0     C 9636   1.551   0.116   1.647  0.3236 -0.2517  0.8637
  795MOL0     C 9637   1.543   0.135   1.529 -0.8122 -0.5462  0.7554
  795MOL0     C 9638   2.182   0.263   1.562 -0.3892 -0.3145 -0.2154
  795MOL0     C 9639   2.295   0.280   1.478  0.0441 -0.3240  0.7068
  795MOL0     C 9640   2.390   0.164   1.457  0.2003  0.2914  0.2295
  795MOL0     H 9641   2.550   0.536   1.077  0.3608  1.0761 -2.4392
  795MOL0     H 9642   2.719   0.667   0.972 -0.8514 -0.5633  0.1514
  795MOL0     H 9643   3.080   0.852   1.080 -1.7518 -0.2484 -2.5993
  795MOL0     H 9644   3.021   0.798   1.239  1.7344  1.8515  1.9089
  795MOL0     H 9645   2.986   1.076   1.118 -1.3505  1.7175  0.8244
  795MOL0     H 9646   2.919   1.026   1.276 -0.0182 -2.4066  0.9002
  795MOL0     H 9647   3.176   0.978   1.349  1.6138  0.8201  0.7107
  795MOL0     H 9648   3.209   1.041   1.182 -2.1266  3.7834 -1.4048
  795MOL0     H 9649   3.116   1.249   1.236  1.9226 -0.2215 -1.6309
  795MOL0     H 9650   3.074   1.201   1.403 -0.3552 -0.5381 -1.0859
  795MOL0     H 9651   3.312   1.156   1.444  0.2986  0.0621 -0.5356
  795MOL0     H 9652   3.299   1.324   1.404 -1.1527  0.0210 -0.1993
  795MOL0     H 9653   3.414   1.133   1.209  2.0645  0.0957  0.9642
  795MOL0     H 9654   3.401   1.314   1.191  0.7942 -0.6993 -0.9338
  795MOL0     H 9655   3.552   1.172   1.423 -0.5440 -0.6073 -0.9850
  795MOL0     H 9656   3.565   1.343   1.378  4.2831 -1.0745  2.7847
  795MOL0     H 9657   3.633   1.100   1.206  1.5616 -1.1420  4.6230
  795MOL0     H 9658   3.608   1.271   1.148 -0.2445  0.1057 -0.5975
  795MOL0     H 9659   3.780   1.424   1.365 -0.9441  0.1184 -0.8318
  795MOL0     H 9660   4.152   1.299   1.483  1.1932  1.3119 -2.4373
  795MOL0     H 9661   4.027   1.357   1.591  0.2853 -1.5483  0.1930
  795MOL0     H 9662   3.993   1.548   1.430  1.0512  2.7429 -0.6890
  795MOL0     H 9663   4.126   1.555   1.536 -2.0942  3.0451  0.2363
  795MOL0     H 9664   4.280   1.478   1.340  0.0982 -1.8571 -5.6559
  795MOL0     H 9665   4.155   1.462   1.237  1.7925 -1.3045  0.0981
  795MOL0     H 9666   4.092   1.716   1.275  0.1196  0.5572 -0.4611
  795MOL0     H 9667   4.234   1.737   1.374 -2.8480  2.3008  0.3623
  795MOL0     H 9668   4.410   1.777   0.989 -2.4625  0.1212  2.2116
  795MOL0     H 9669   4.664   1.662   0.868  0.0437  0.6215 -1.9554
  795MOL0     H 9670   4.758   1.811   0.894  0.5639 -0.2974 -2.1513
  795MOL0     H 9671   4.599   1.822   0.848  1.0680  1.6545  0.7561
  795MOL0     H 9672   5.074   1.495   1.334  0.9035 -0.5281  0.0295
  795MOL0     H 9673   5.304   1.515   1.387 -0.1281 -0.6717 -1.8014
  795MOL0     H 9674   5.500   1.572   1.343  0.5904 -0.0056  0.2618
  795MOL0     H 9675   5.495   1.696   1.211 -1.9737 -1.3700  0.3128
  795MOL0     H 9676   5.679   1.752   1.445  0.9486 -0.4629 -0.1964
  795MOL0     H 9677   5.727   1.619   1.324  0.2373  0.1060  0.9670
  795MOL0     H 9678   5.632   1.888   1.227 -0.1690  0.0148 -1.3118
  795MOL0     H 9679   5.737   1.768   1.145 -0.2464  1.0387 -0.3264
  795MOL0     H 9680   5.866   1.959   1.201 -2.5727 -1.4552 -1.8825
  795MOL0     H 9681   5.922   1.814   1.278  2.5508  2.3333 -1.2873
  795MOL0     H 9682   5.752   2.024   1.439  1.0468  0.8649  3.8011
  795MOL0     H 9683   5.845   1.874   1.488  1.5014 -0.8355 -0.7020
  795MOL0     H 9684   5.990   2.096   1.331 -0.4936 -1.8854 -1.4045
  795MOL0     H 9685   6.050   1.981   1.450 -1.0634  0.3639  3.0340
  795MOL0     H 9686   5.929   2.112   1.636  0.1448 -0.2446  0.2879
  795MOL0     H 9687   5.865   2.228   1.521  0.2254 -0.2894  2.6466
  795MOL0     H 9688   6.056   2.310   1.640  0.0975 -3.4548  1.9615
  795MOL0     H 9689   6.075   2.320   1.465  1.4771 -1.8358 -2.1005
  795MOL0     H 9690   5.277   1.942   1.388  2.7453 -1.5351  1.1742
  795MOL0     H 9691   5.046   1.928   1.348  1.8802  0.2853 -0.5245
  795MOL0     H 9692   4.687   1.718   1.390 -2.8327 -1.9239  2.2162
  795MOL0     H 9693   4.454   1.694   1.405  1.0309  2.7119  1.1146
  795MOL0     H 9694   2.799   0.872   1.326  2.7143  0.2042 -1.9969
  795MOL0     H 9695   2.617   0.723   1.442 -1.3288 -1.2243 -0.4894
  795MOL0     H 9696   2.256   0.600   1.393 -1.6488  0.8480  0.6378
  795MOL0     H 9697   2.063   0.580   1.533 -2.0573 -0.9036 -2.0794
  795MOL0     H 9698   1.936   0.156   1.642  0.2681  0.2176 -0.8663
  795MOL0     H 9699   2.011   0.185   1.809  3.4877  3.7002  0.3437
  795MOL0     H 9700   1.752   0.301   1.708 -1.9768 -0.9044  1.7904
  795MOL0     H 9701   1.814   0.310   1.873 -0.6520  2.8669 -1.2098
  795MOL0     H 9702   1.796   0.031   1.761 -0.5302  0.3697 -0.6633
  795MOL0     H 9703   1.747   0.086   1.924 -3.5380 -0.8135  0.1045
  795MOL0     H 9704   1.541   0.198   1.845  0.8782  2.0282 -2.6912
  795MOL0     H 9705   1.539   0.022   1.824 -1.7548 -1.0025 -3.7536
  795MOL0     H 9706   1.535   0.145   1.422 -2.6580 -1.7148  0.7312
  795MOL0     H 9707   2.173   0.170   1.618  0.4496  1.6613  3.4961
  795MOL0     H 9708   2.437   0.171   1.359 -1.4515  2.6027 -0.4751
  795MOL0     H 9709   2.474   0.173   1.527 -0.2154  1.6016  0.5766
  795MOL0     H 9710   2.349   0.062   1.461  0.4574  0.1679 -0.2046
  796MOL0     O 9711  10.921  10.292   7.181 -0.0127 -0.0853  0.0329
  796MOL0     C 9712  10.822  10.219   7.154 -0.0355  0.3017  0.1355
  796MOL0     O 9713  10.777  10.191   7.025 -0.8098 -0.0196 -0.0861
  796MOL0     C 9714  10.854  10.235   6.917 -0.7017 -0.2978  0.4442
  796MOL0     C 9715  10.992  10.205   6.910 -0.3338  0.6795 -0.2753
  796MOL0     C 9716  11.074  10.232   6.804 -0.1481  0.2976 -0.3018
  796MOL0     C 9717  11.020  10.310   6.703  0.5993 -0.6347  0.4905
  796MOL0     O 9718  11.088  10.366   6.601 -0.1062  0.6593  0.5252
  796MOL0     C 9719  11.234  10.353   6.577  0.4068  0.1891 -0.9640
  796MOL0     C 9720  11.270  10.218   6.529  0.0093  0.6060 -0.5654
  796MOL0     C 9721  11.418  10.191   6.548  0.4847 -0.7191 -0.0919
  796MOL0     C 9722  11.477  10.071   6.485 -0.6026  0.5813  0.2220
  796MOL0     C 9723  11.637  10.060   6.498  0.2954  0.1084  0.0502
  796MOL0     C 9724  11.713  10.166   6.415 -0.1373 -0.2741  0.0780
  796MOL0     C 9725  11.860  10.150   6.455  0.0443 -0.1548  0.4360
  796MOL0     C 9726  11.929  10.242   6.363 -0.1613  0.3896 -0.7070
  796MOL0     N 9727  12.075  10.241   6.373 -0.0758 -0.0540  0.0635
  796MOL0     C 9728  12.151  10.154   6.302  0.6687 -0.1759  0.3510
  796MOL0     C 9729  12.274  10.203   6.333  0.4735  0.3925 -0.1745
  796MOL0     C 9730  12.402  10.138   6.286  1.0178 -0.4587 -0.5360
  796MOL0     C 9731  12.527  10.205   6.326 -0.0736  0.1269  1.0036
  796MOL0     C 9732  12.653  10.135   6.275 -0.5392  0.3658 -0.2902
  796MOL0     C 9733  12.773  10.203   6.333  0.1847 -0.0169  0.4312
  796MOL0     O 9734  12.884  10.105   6.309 -1.4142  0.0260 -0.0979
  796MOL0     C 9735  12.967  10.067   6.410  0.1475 -0.2867  0.3969
  796MOL0     C 9736  13.099  10.084   6.383  0.6839  0.6673  0.8148
  796MOL0     C 9737  13.194  10.047   6.477  0.0682 -0.8542 -0.1066
  796MOL0     C 9738  13.338  10.084   6.441  0.1443  1.1149  0.4379
  796MOL0     C 9739  13.157   9.991   6.601 -0.1113 -0.6960  0.0356
  796MOL0     C 9740  13.256   9.947   6.712  0.9459 -0.0225 -0.1557
  796MOL0     O 9741  13.217   9.863   6.814  0.3258  0.8347 -0.5788
  796MOL0     C 9742  13.322   9.828   6.899  0.2328  0.1143  0.3237
  796MOL0     C 9743  13.395   9.721   6.864  0.1536  0.8533  0.3099
  796MOL0     C 9744  13.503   9.696   6.941 -0.5318 -0.4569 -0.6727
  796MOL0     C 9745  13.531   9.773   7.064 -0.3001 -0.0168  0.0530
  796MOL0     O 9746  13.655   9.759   7.131  0.7695 -0.6055  0.0504
  796MOL0     C 9747  13.748   9.656   7.090  0.8085  0.3396 -0.1880
  796MOL0     C 9748  13.881   9.681   7.162  0.1051  1.1109 -0.3019
  796MOL0     C 9749  13.936   9.817   7.124  0.6955 -0.1018  0.5512
  796MOL0     C 9750  14.018   9.806   6.993  0.0726  0.0420 -0.3764
  796MOL0     C 9751  14.093   9.941   6.981  0.0428  1.4701  0.4326
  796MOL0     C 9752  14.193   9.940   6.871  0.0333  0.2307  0.0477
  796MOL0     C 9753  14.307   9.837   6.884  1.4522 -0.4751  0.4883
  796MOL0     C 9754  14.415   9.836   6.773  0.8462 -0.1129 -0.2184
  796MOL0    Cl 9755  14.470  10.010   6.750  0.3860  0.3257  0.0819
  796MOL0     C 9756  13.453   9.883   7.096 -0.0941  0.1524 -0.4162
  796MOL0     C 9757  13.353   9.913   7.005  1.0939 -0.9632  0.2875
  796MOL0     O 9758  13.363  10.010   6.711 -0.2769 -0.2052  0.8051
  796MOL0     C 9759  13.016   9.980   6.631  0.2289  0.2304 -0.4147
  796MOL0     C 9760  12.924  10.016   6.532 -0.4587  0.6315 -0.3607
  796MOL0     N 9761  12.276  10.321   6.406  0.7489  0.0832  0.1498
  796MOL0     N 9762  12.151  10.348   6.417 -0.4904 -0.5480 -0.1942
  796MOL0     C 9763  10.885  10.345   6.704  0.5268  0.2313  0.1234
  796MOL0     C 9764  10.799  10.309   6.813  0.6160 -0.7668  0.1432
  796MOL0     C 9765  10.742  10.179   7.279 -0.6861 -0.0747  0.0784
  796MOL0     C 9766  10.734  10.267   7.393 -0.3057  0.8122  0.0375
  796MOL0     C 9767  10.680  10.215   7.507 -0.4005  0.4426  0.1816
  796MOL0     C 9768  10.604  10.099   7.509 -0.4575  0.4660  0.7419
  796MOL0     O 9769  10.546  10.060   7.627  0.4042  0.1128  0.4904
  796MOL0     C 9770  10.459   9.942   7.631  0.2505  0.1629 -0.6036
  796MOL0     C 9771  10.538   9.820   7.660  0.3138 -0.7261 -0.1582
  796MOL0     C 9772  10.616   9.839   7.789  0.8193 -0.1925 -0.1516
  796MOL0     C 9773  10.764   9.812   7.782 -0.4772 -0.2369  0.2237
  796MOL0     C 9774  10.842   9.888   7.678 -0.5699  0.1740  0.4476
  796MOL0     C 9775  10.914   9.954   7.601  0.8721 -0.2919  0.7177
  796MOL0     C 9776  10.584  10.030   7.386  0.4159 -0.0242  0.3322
  796MOL0     C 9777  10.651  10.064   7.276  0.3040  0.4929  0.1589
  796MOL0     C 9778  10.658   9.971   7.160 -0.8331 -0.2960  0.3466
  796MOL0     H 9779  11.043  10.161   6.995 -2.4069 -0.3353  0.5283
  796MOL0     H 9780  11.180  10.207   6.801  0.1473  1.4706  0.0216
  796MOL0     H 9781  11.297  10.385   6.660  1.5335 -2.1671 -0.8284
  796MOL0     H 9782  11.254  10.424   6.496  3.3297  0.3487 -0.1908
  796MOL0     H 9783  11.217  10.141   6.585  0.5038 -0.9061 -2.0767
  796MOL0     H 9784  11.237  10.200   6.426  1.9361 -1.7085 -0.8823
  796MOL0     H 9785  11.464  10.278   6.501 -2.4801 -0.3238 -2.5695
  796MOL0     H 9786  11.441  10.194   6.655  1.9741 -1.6275 -0.3562
  796MOL0     H 9787  11.427   9.985   6.531 -1.2737 -1.0052 -3.1562
  796MOL0     H 9788  11.458  10.056   6.378  0.4778 -1.5068  0.2598
  796MOL0     H 9789  11.673   9.959   6.476 -0.3916  0.1894 -1.5779
  796MOL0     H 9790  11.665  10.082   6.602  1.4331 -1.0506  0.0140
  796MOL0     H 9791  11.696  10.144   6.309  0.2029 -1.7338  0.2946
  796MOL0     H 9792  11.680  10.267   6.438 -1.5341 -0.8258  0.6428
  796MOL0     H 9793  11.902  10.050   6.440  1.9727  0.4966  1.2133
  796MOL0     H 9794  11.871  10.176   6.561  0.7224  1.7484 -0.0721
  796MOL0     H 9795  11.915  10.199   6.263  3.3030 -0.3501 -1.0006
  796MOL0     H 9796  11.899  10.347   6.364  1.9500  1.0755  0.8728
  796MOL0     H 9797  12.121  10.063   6.251  0.1991  0.3060 -0.2425
  796MOL0     H 9798  12.398  10.128   6.177 -0.5335  1.5917 -0.7254
  796MOL0     H 9799  12.405  10.038   6.331  0.4256 -0.4331 -0.4399
  796MOL0     H 9800  12.526  10.303   6.279 -1.6994  0.4784  1.6837
  796MOL0     H 9801  12.543  10.225   6.432 -0.0506  2.2916  0.6312
  796MOL0     H 9802  12.638  10.036   6.319  2.7451  0.0457  0.2921
  796MOL0     H 9803  12.655  10.122   6.166  2.2361  0.0998 -0.2653
  796MOL0     H 9804  12.800  10.297   6.284  1.2119  1.8372  4.1928
  796MOL0     H 9805  12.752  10.235   6.435  0.1438  0.0525  0.4017
  796MOL0     H 9806  13.130  10.124   6.286 -1.5413 -0.3611 -0.3770
  796MOL0     H 9807  13.408  10.001   6.429  1.7515  2.6025 -1.1807
  796MOL0     H 9808  13.391  10.144   6.515  3.6991  0.6160 -1.4801
  796MOL0     H 9809  13.324  10.143   6.350  0.6141  1.3494  0.5176
  796MOL0     H 9810  13.366   9.664   6.776 -0.3996  0.7650  0.5435
  796MOL0     H 9811  13.561   9.611   6.907  0.2557  0.2370 -1.1181
  796MOL0     H 9812  13.704   9.562   7.123  1.3136 -0.0251 -0.5360
  796MOL0     H 9813  13.761   9.667   6.982 -1.4550 -1.3595 -0.6935
  796MOL0     H 9814  13.851   9.673   7.267 -0.5688 -6.0646 -0.5965
  796MOL0     H 9815  13.942   9.593   7.140 -1.2055  0.2805 -0.7158
  796MOL0     H 9816  13.988   9.854   7.212 -0.6155 -0.8379  1.6724
  796MOL0     H 9817  13.852   9.887   7.115 -1.2063 -2.2279  0.7266
  796MOL0     H 9818  13.958   9.786   6.904 -0.7520  2.5205 -0.4681
  796MOL0     H 9819  14.082   9.721   7.017 -1.0631 -0.0689  2.7415
  796MOL0     H 9820  14.016  10.016   6.959 -2.1990 -0.1480  2.1987
  796MOL0     H 9821  14.140   9.962   7.077  0.9864 -0.0005  0.3283
  796MOL0     H 9822  14.228  10.043   6.863  1.5206  0.0555  3.1450
  796MOL0     H 9823  14.137   9.924   6.778 -0.3650  0.6738  0.2082
  796MOL0     H 9824  14.268   9.735   6.894 -0.1809 -0.0002 -0.7010
  796MOL0     H 9825  14.352   9.867   6.979  0.5342 -0.0196  0.7903
  796MOL0     H 9826  14.371   9.804   6.679  2.4833  2.4410 -1.9932
  796MOL0     H 9827  14.492   9.763   6.798  1.3394  0.7315  0.8459
  796MOL0     H 9828  13.463   9.938   7.189 -0.1393 -0.6400  0.0656
  796MOL0     H 9829  13.303  10.002   7.041  0.9581 -2.2854  3.7835
  796MOL0     H 9830  12.991   9.920   6.718  0.1454  1.3172  0.3362
  796MOL0     H 9831  12.816  10.020   6.531 -0.4563  2.4911 -2.6592
  796MOL0     H 9832  10.845  10.414   6.631 -0.8849  1.4006  1.8952
  796MOL0     H 9833  10.696  10.343   6.806  0.7896  0.0249  1.2840
  796MOL0     H 9834  10.777  10.367   7.392 -2.0254  1.6075  0.6355
  796MOL0     H 9835  10.671  10.270   7.600  1.8583  2.2673 -0.5673
  796MOL0     H 9836  10.379   9.955   7.706 -0.2864  0.1218 -1.1616
  796MOL0     H 9837  10.408   9.926   7.536 -0.8889 -1.3046  0.2112
  796MOL0     H 9838  10.611   9.803   7.580  1.4563  0.4352  0.6098
  796MOL0     H 9839  10.478   9.730   7.676 -0.1855 -0.1732  1.2585
  796MOL0     H 9840  10.611   9.943   7.822  0.9539 -0.3080  0.2372
  796MOL0     H 9841  10.570   9.771   7.862 -0.0337  0.0713 -0.4263
  796MOL0     H 9842  10.768   9.705   7.760  1.3760  0.1264 -1.5013
  796MOL0     H 9843  10.825   9.822   7.873  2.6111 -1.2917 -1.5942
  796MOL0     H 9844  10.982  10.017   7.547 -0.6204  0.2443 -0.6191
  796MOL0     H 9845  10.528   9.938   7.374 -3.3495  2.0143  0.6829
  796MOL0     H 9846  10.610  10.017   7.073 -1.7567 -1.4762  0.2063
  796MOL0     H 9847  10.763   9.949   7.136 -0.9360 -0.3927 -0.0258
  796MOL0     H 9848  10.601   9.879   7.179  0.1106 -0.3573  3.3662
  797MOL0     O 9849   0.636   6.977  11.127  0.7368 -0.0110  0.0942
  797MOL0     C 9850   0.604   6.924  11.016  0.2239 -0.0172 -0.8507
  797MOL0     O 9851   0.667   6.936  10.896  0.1038  0.0515 -0.5161
  797MOL0     C 9852   0.796   6.987  10.909 -0.0769 -0.5308 -0.3906
  797MOL0     C 9853   0.823   7.125  10.929  0.2268 -0.3247 -0.0122
  797MOL0     C 9854   0.952   7.174  10.924  0.4537  0.4026 -0.0387
  797MOL0     C 9855   1.061   7.087  10.928  0.4155 -0.1677 -0.0090
  797MOL0     O 9856   1.184   7.143  10.945  0.0879  0.6594  0.0492
  797MOL0     C 9857   1.283   7.062  11.020  0.4833  0.1843  0.3909
  797MOL0     C 9858   1.397   7.157  11.050  0.3317  0.5642 -0.0244
  797MOL0     C 9859   1.358   7.295  11.136 -1.4594 -0.1147  0.2729
  797MOL0     C 9860   1.480   7.382  11.142 -0.0071 -1.4891 -0.3747
  797MOL0     C 9861   1.439   7.506  11.230 -0.4187 -0.3710  0.6822
  797MOL0     C 9862   1.566   7.592  11.269  0.0281 -0.0605 -0.1298
  797MOL0     C 9863   1.540   7.722  11.354  0.0444  0.6736 -0.3595
  797MOL0     C 9864   1.678   7.761  11.421  0.0057  0.0590  0.0059
  797MOL0     N 9865   1.790   7.756  11.319  0.2427  0.3491  0.6025
  797MOL0     C 9866   1.838   7.863  11.243 -1.1441 -1.0998  0.0662
  797MOL0     C 9867   1.956   7.836  11.194 -0.8246 -0.5853 -0.8885
  797MOL0     C 9868   2.038   7.932  11.121 -0.6603  0.0530  0.8443
  797MOL0     C 9869   2.126   7.861  11.016 -0.8889  0.0589 -1.1477
  797MOL0     C 9870   2.238   7.959  10.970  0.7219 -0.2008 -0.5785
  797MOL0     C 9871   2.192   8.074  10.886 -0.0158 -0.0277 -1.6465
  797MOL0     O 9872   2.278   8.133  10.786  0.0411 -0.2985  0.3763
  797MOL0     C 9873   2.395   8.205  10.815 -0.2808  0.6755  0.3376
  797MOL0     C 9874   2.470   8.249  10.705 -0.1443 -1.2621  0.6194
  797MOL0     C 9875   2.568   8.345  10.722  1.2128  0.0229  0.4463
  797MOL0     C 9876   2.644   8.397  10.597 -0.1551 -0.6754  0.5076
  797MOL0     C 9877   2.614   8.379  10.854  0.2031 -0.0979 -0.4617
  797MOL0     C 9878   2.721   8.484  10.885 -1.3745  0.2085 -0.1824
  797MOL0     O 9879   2.712   8.525  11.018  0.5823 -0.9196  0.4966
  797MOL0     C 9880   2.790   8.631  11.051 -0.4291  0.4426 -1.0602
  797MOL0     C 9881   2.730   8.722  11.138 -0.6710 -0.5351 -0.5298
  797MOL0     C 9882   2.791   8.846  11.182 -0.2018 -0.9158 -0.1023
  797MOL0     C 9883   2.920   8.879  11.141  0.0166 -0.3408  1.4900
  797MOL0     O 9884   2.967   8.998  11.180  0.9888 -0.5180 -0.3180
  797MOL0     C 9885   3.099   9.036  11.137 -0.1004  0.8397  0.8544
  797MOL0     C 9886   3.119   9.181  11.185 -0.3274 -0.5966  0.6927
  797MOL0     C 9887   3.204   9.262  11.080  0.7872 -0.4163 -0.5505
  797MOL0     C 9888   3.353   9.241  11.095 -0.3309 -0.8770 -0.4171
  797MOL0     C 9889   3.421   9.264  10.953 -0.0796 -0.1367 -0.1507
  797MOL0     C 9890   3.441   9.121  10.880 -0.3004  0.2020  0.2846
  797MOL0     C 9891   3.522   9.136  10.739  0.2238  0.4936 -0.0547
  797MOL0     C 9892   3.590   9.018  10.683 -0.4991  0.9371 -0.6327
  797MOL0    Cl 9893   3.694   8.949  10.810 -0.1957  0.1804  0.2247
  797MOL0     C 9894   2.982   8.784  11.047  0.3598  0.6281  0.1714
  797MOL0     C 9895   2.922   8.666  11.004 -0.6301  0.3271 -0.4973
  797MOL0     O 9896   2.797   8.518  10.789 -0.2130  0.1502 -0.5598
  797MOL0     C 9897   2.542   8.333  10.959 -0.3543 -0.2262  0.1124
  797MOL0     C 9898   2.434   8.238  10.943 -0.5777 -0.3781 -0.7624
  797MOL0     N 9899   1.987   7.702  11.237  0.5203 -0.4107 -0.6180
  797MOL0     N 9900   1.890   7.668  11.320 -0.5899  0.8678 -0.4956
  797MOL0     C 9901   1.035   6.953  10.915  0.3166  0.4560 -0.1004
  797MOL0     C 9902   0.907   6.912  10.903  0.6812  0.0921 -0.1247
  797MOL0     C 9903   0.466   6.868  11.008 -0.1236 -0.3571  0.3338
  797MOL0     C 9904   0.373   6.941  10.934  0.3733 -0.1688 -0.3911
  797MOL0     C 9905   0.235   6.897  10.940 -0.4777 -0.9240  0.2329
  797MOL0     C 9906   0.195   6.792  11.009  0.6234  0.7544  0.1241
  797MOL0     O 9907   0.073   6.731  10.993 -0.6479 -0.5183 -0.6374
  797MOL0     C 9908   0.004   6.677  11.105 -0.4121  0.6997 -0.2860
  797MOL0     C 9909  -0.102   6.576  11.058 -0.1078 -0.1628  0.3288
  797MOL0     C 9910  -0.186   6.518  11.168  0.4304 -0.0964  0.7088
  797MOL0     C 9911  -0.299   6.604  11.230  0.5220  1.1463 -0.1121
  797MOL0     C 9912  -0.423   6.583  11.154  0.6897  0.1461 -1.0304
  797MOL0     C 9913  -0.518   6.552  11.090  0.1430 -0.2902 -0.1887
  797MOL0     C 9914   0.296   6.721  11.081  0.9682  0.1201  0.0615
  797MOL0     C 9915   0.422   6.765  11.095 -0.5480  0.4475 -0.3490
  797MOL0     C 9916   0.509   6.696  11.201  0.0940 -0.3983 -0.3719
  797MOL0     H 9917   0.748   7.199  10.953 -0.2475  0.3368 -3.0361
  797MOL0     H 9918   0.978   7.279  10.937 -0.3598  0.6873 -0.6104
  797MOL0     H 9919   1.333   6.989  10.956  2.2417  2.2995 -0.7828
  797MOL0     H 9920   1.243   7.021  11.113  2.5135  0.5433  1.4651
  797MOL0     H 9921   1.482   7.109  11.098  1.6869  1.2894 -1.6160
  797MOL0     H 9922   1.431   7.191  10.952 -4.2689  2.1674 -1.3415
  797MOL0     H 9923   1.274   7.344  11.085 -0.3860 -0.4155 -1.9082
  797MOL0     H 9924   1.328   7.257  11.234  0.6968 -0.5036  0.8344
  797MOL0     H 9925   1.564   7.327  11.186  1.8071 -1.6859 -3.7645
  797MOL0     H 9926   1.498   7.421  11.041 -1.8456  2.3789  0.5804
  797MOL0     H 9927   1.382   7.460  11.311 -0.6719 -0.0294  0.6999
  797MOL0     H 9928   1.369   7.557  11.163  0.0266 -2.7188 -1.7978
  797MOL0     H 9929   1.628   7.529  11.334 -0.9311  0.2005  1.0625
  797MOL0     H 9930   1.626   7.631  11.186  0.2560  4.3733  1.8484
  797MOL0     H 9931   1.462   7.700  11.427  0.9240  1.3311  0.8102
  797MOL0     H 9932   1.514   7.810  11.294 -1.5199  0.7726  0.4268
  797MOL0     H 9933   1.661   7.865  11.449 -0.2778  0.1020 -0.3199
  797MOL0     H 9934   1.713   7.699  11.505  2.3286  0.1969 -0.7748
  797MOL0     H 9935   1.782   7.955  11.230 -0.3327 -0.8327 -1.7841
  797MOL0     H 9936   2.107   7.969  11.197  1.7410 -0.7315 -0.8375
  797MOL0     H 9937   1.972   8.001  11.068 -2.4223 -0.4186  2.3127
  797MOL0     H 9938   2.169   7.778  11.073 -2.3566  0.4019  0.5269
  797MOL0     H 9939   2.063   7.829  10.932 -0.0579  0.0869 -1.8068
  797MOL0     H 9940   2.302   7.994  11.052  1.8682 -2.4970 -0.4079
  797MOL0     H 9941   2.306   7.905  10.904  1.8230  0.6535 -0.1713
  797MOL0     H 9942   2.100   8.041  10.837 -1.7308 -1.6111  2.2657
  797MOL0     H 9943   2.146   8.143  10.957 -0.4149 -1.0168 -0.9265
  797MOL0     H 9944   2.455   8.212  10.604  2.1068  2.0188 -1.1018
  797MOL0     H 9945   2.744   8.360  10.576 -0.5135 -2.3022  1.4926
  797MOL0     H 9946   2.649   8.507  10.601  1.0868 -0.7184  0.3297
  797MOL0     H 9947   2.582   8.381  10.508 -0.5121  0.0521  0.6080
  797MOL0     H 9948   2.631   8.705  11.178 -0.3535  0.2395  0.6573
  797MOL0     H 9949   2.745   8.926  11.239 -0.6755  1.0694 -3.0432
  797MOL0     H 9950   3.175   8.968  11.177 -1.5273 -1.5768 -0.3131
  797MOL0     H 9951   3.114   9.029  11.028  3.0719  2.1523  1.0816
  797MOL0     H 9952   3.021   9.231  11.183  0.1444  0.3932 -2.6790
  797MOL0     H 9953   3.157   9.179  11.288 -1.6934  0.0728  1.2309
  797MOL0     H 9954   3.186   9.366  11.108 -2.6312 -1.0852  0.0994
  797MOL0     H 9955   3.175   9.238  10.978 -0.6327 -0.3031 -0.1983
  797MOL0     H 9956   3.371   9.138  11.128  3.0747 -0.7496 -1.4491
  797MOL0     H 9957   3.380   9.316  11.169 -0.6984 -2.2475  1.1574
  797MOL0     H 9958   3.358   9.325  10.889  0.6812 -0.3217 -1.0942
  797MOL0     H 9959   3.514   9.320  10.966 -0.6122  0.0988  3.8862
  797MOL0     H 9960   3.342   9.077  10.867 -1.1535  1.5439  2.0083
  797MOL0     H 9961   3.495   9.062  10.955 -1.6372  1.5112  2.3453
  797MOL0     H 9962   3.598   9.213  10.754  1.5227 -0.1497 -2.7292
  797MOL0     H 9963   3.445   9.165  10.667 -1.1409  2.3654  2.0052
  797MOL0     H 9964   3.652   9.033  10.595 -0.3008 -2.7257 -1.2858
  797MOL0     H 9965   3.517   8.941  10.655 -0.7081  1.4566 -1.5717
  797MOL0     H 9966   3.076   8.809  11.001 -1.6047  2.5105 -3.2246
  797MOL0     H 9967   2.980   8.605  10.935  2.3433  1.3932  0.8916
  797MOL0     H 9968   2.569   8.355  11.062 -1.4018 -1.5068  0.6992
  797MOL0     H 9969   2.376   8.214  11.032  2.3232 -0.6855  1.1716
  797MOL0     H 9970   1.118   6.886  10.897 -1.7955 -2.2913 -0.3015
  797MOL0     H 9971   0.892   6.806  10.884  0.5984 -0.0359  0.6452
  797MOL0     H 9972   0.393   7.032  10.879 -0.8470  1.4013  1.6088
  797MOL0     H 9973   0.161   6.941  10.873  1.5655  1.7501 -0.4394
  797MOL0     H 9974   0.071   6.636  11.181 -0.6887  0.0568 -0.3807
  797MOL0     H 9975  -0.050   6.757  11.156 -1.2798  0.2525 -0.4881
  797MOL0     H 9976  -0.049   6.495  11.008 -1.0773 -0.9042  0.4664
  797MOL0     H 9977  -0.164   6.620  10.979  1.2483 -1.4728 -1.5423
  797MOL0     H 9978  -0.233   6.428  11.128  0.2978  0.7501 -1.1723
  797MOL0     H 9979  -0.119   6.487  11.249 -0.0091  0.8015  1.4190
  797MOL0     H 9980  -0.273   6.710  11.221  0.4514  1.1136 -0.7548
  797MOL0     H 9981  -0.311   6.577  11.335 -0.9852  2.3608  0.0691
  797MOL0     H 9982  -0.607   6.527  11.034  0.7824 -0.5029 -1.1353
  797MOL0     H 9983   0.268   6.627  11.127 -1.1784  0.7798  0.2178
  797MOL0     H 9984   0.579   6.626  11.155 -0.1931 -0.1046 -1.2874
  797MOL0     H 9985   0.580   6.760  11.254  1.4091  1.6905 -4.2182
  797MOL0     H 9986   0.443   6.651  11.276  0.0699 -1.5035 -1.0353
  798MOL0     O 9987   3.551   7.667   4.761 -0.3112  0.2565 -0.1096
  798MOL0     C 9988   3.595   7.783   4.759  0.2938  0.0117 -0.2325
  798MOL0     O 9989   3.512   7.896   4.775  0.8614  0.3022 -0.0215
  798MOL0     C 9990   3.380   7.879   4.805  1.5201  0.6082  0.8267
  798MOL0     C 9991   3.294   7.971   4.738 -0.3864  0.1238 -0.1282
  798MOL0     C 9992   3.159   7.985   4.778 -0.3807 -0.8109 -0.0107
  798MOL0     C 9993   3.116   7.923   4.890 -0.0237  0.3870 -0.8215
  798MOL0     O 9994   2.979   7.936   4.916 -0.3991  0.3706 -0.5817
  798MOL0     C 9995   2.932   7.899   5.045 -0.0641  0.8545  0.5640
  798MOL0     C 9996   2.785   7.947   5.028  0.3851 -0.0147 -0.5979
  798MOL0     C 9997   2.690   7.909   5.138 -0.6488  0.1103  0.8498
  798MOL0     C 9998   2.544   7.907   5.090 -0.4834 -0.3384 -0.4095
  798MOL0     C 9999   2.440   7.861   5.197 -0.0829 -0.0362 -0.6006
  798MOL0     C10000   2.299   7.921   5.177  0.3068  0.3647  0.8948
  798MOL0     C10001   2.211   7.829   5.085 -0.5476  0.4875  0.2494
  798MOL0     C10002   2.084   7.907   5.044  0.4887 -0.1899 -0.1556
  798MOL0     N10003   1.993   7.808   5.003 -0.4706 -0.0234 -0.6789
  798MOL0     C10004   1.888   7.761   5.081 -0.2192  0.1502  0.3164
  798MOL0     C10005   1.814   7.675   4.993 -0.3857 -0.8223 -0.0143
  798MOL0     C10006   1.687   7.594   5.024 -0.1466  0.2203 -0.3976
  798MOL0     C10007   1.563   7.678   5.056  0.1776  0.6561  0.4534
  798MOL0     C10008   1.481   7.737   4.945 -0.6176  0.8439  0.7251
  798MOL0     C10009   1.561   7.835   4.855  0.1255 -0.0990 -0.3854
  798MOL0     O10010   1.627   7.940   4.931  0.3437  0.6357 -0.0617
  798MOL0     C10011   1.748   7.996   4.886  0.7219 -1.2304 -0.6016
  798MOL0     C10012   1.813   7.979   4.765 -0.4255 -0.8953 -0.1115
  798MOL0     C10013   1.923   8.055   4.728  0.1243 -0.1197  0.4766
  798MOL0     C10014   1.981   8.010   4.595 -0.3760  0.2607 -0.0098
  798MOL0     C10015   1.975   8.148   4.822 -0.0016  0.0404  1.1068
  798MOL0     C10016   2.106   8.214   4.810 -0.4331 -0.1179  0.5305
  798MOL0     O10017   2.185   8.209   4.917  0.4981 -0.0981  0.0602
  798MOL0     C10018   2.308   8.261   4.912  0.0800  0.0834 -0.9437
  798MOL0     C10019   2.336   8.387   4.965  0.1967 -0.5394  0.1880
  798MOL0     C10020   2.459   8.445   4.948  0.0276  0.1444 -0.0377
  798MOL0     C10021   2.573   8.377   4.913  0.0274  0.7146 -0.0029
  798MOL0     O10022   2.697   8.438   4.919  0.4557 -0.1828 -0.7336
  798MOL0     C10023   2.808   8.372   4.865  1.0326 -0.5890 -0.5443
  798MOL0     C10024   2.940   8.450   4.885  0.6660  0.3389  0.6142
  798MOL0     C10025   3.046   8.357   4.818  0.5511 -0.1771  0.5851
  798MOL0     C10026   3.170   8.436   4.816 -0.5852  0.5000  0.0340
  798MOL0     C10027   3.289   8.347   4.781 -0.8158 -0.5812  1.0765
  798MOL0     C10028   3.404   8.426   4.721 -0.2784 -1.0420  0.4798
  798MOL0     C10029   3.525   8.333   4.706 -0.2705 -1.1276  0.5610
  798MOL0     C10030   3.635   8.418   4.641  0.6043  0.6020  0.7610
  798MOL0    Cl10031   3.717   8.315   4.519  0.3946  0.0142 -0.4852
  798MOL0     C10032   2.546   8.249   4.858  0.6503 -0.3705 -0.6356
  798MOL0     C10033   2.416   8.194   4.854  0.0031 -0.4671  0.4352
  798MOL0     O10034   2.145   8.260   4.699  0.4376 -0.4958  0.5036
  798MOL0     C10035   1.903   8.179   4.940  0.0158  0.1129  0.2318
  798MOL0     C10036   1.795   8.098   4.970  0.6754  0.2902 -0.6240
  798MOL0     N10037   1.895   7.667   4.877  0.7755  0.4270 -0.3833
  798MOL0     N10038   1.986   7.750   4.882 -1.0063 -0.8396 -0.6588
  798MOL0     C10039   3.199   7.830   4.964 -0.7848  0.1692  0.3295
  798MOL0     C10040   3.331   7.814   4.913  0.2994 -0.0217 -0.7356
  798MOL0     C10041   3.737   7.818   4.729  0.4019 -0.8628  0.4687
  798MOL0     C10042   3.779   7.956   4.724  1.0164 -1.0201  0.4633
  798MOL0     C10043   3.896   7.992   4.660  0.0227 -0.0533 -0.4590
  798MOL0     C10044   3.980   7.898   4.616  0.5916  0.2898  0.1996
  798MOL0     O10045   4.100   7.938   4.565  0.9509  0.9554  0.1446
  798MOL0     C10046   4.165   7.865   4.465 -0.3877 -0.6027 -0.2714
  798MOL0     C10047   4.071   7.849   4.341  0.1469 -0.4732 -0.5249
  798MOL0     C10048   4.065   7.982   4.274  0.3908  1.1480 -0.0274
  798MOL0     C10049   3.975   7.997   4.153 -0.5749  0.1907 -0.0105
  798MOL0     C10050   4.021   7.934   4.024  0.5669  0.0045 -0.2738
  798MOL0     C10051   4.061   7.867   3.926  0.2126 -0.2129 -0.1525
  798MOL0     C10052   3.950   7.764   4.635 -0.5929 -0.7094 -0.5699
  798MOL0     C10053   3.831   7.727   4.690  0.6533  0.6430  0.2080
  798MOL0     C10054   3.812   7.580   4.723  0.0612  0.9684  0.2277
  798MOL0     H10055   3.327   8.026   4.651  0.3206  0.5281  0.3826
  798MOL0     H10056   3.088   8.046   4.723  0.4877  0.2380 -0.0032
  798MOL0     H10057   2.985   7.951   5.125  0.9701  1.4907 -0.5010
  798MOL0     H10058   2.954   7.796   5.073  0.8094  1.5375  2.5361
  798MOL0     H10059   2.791   8.056   5.024  0.1846  0.0455  0.4552
  798MOL0     H10060   2.754   7.898   4.935 -0.2108 -3.2459  1.1477
  798MOL0     H10061   2.730   7.815   5.177 -0.2678 -0.1539 -0.1531
  798MOL0     H10062   2.683   7.989   5.213  0.0118  1.4271 -0.4459
  798MOL0     H10063   2.523   8.011   5.063  3.4953  0.8250  0.2868
  798MOL0     H10064   2.535   7.853   4.995 -0.3460  1.8195 -1.7447
  798MOL0     H10065   2.482   7.898   5.291  1.1232  2.5663 -2.0762
  798MOL0     H10066   2.437   7.752   5.205  1.4907 -0.0338  0.4114
  798MOL0     H10067   2.260   7.938   5.278  2.9636  0.0262  2.0644
  798MOL0     H10068   2.310   8.015   5.123 -1.8991  0.0140 -0.3001
  798MOL0     H10069   2.195   7.738   5.144 -0.7043  1.9230  2.5749
  798MOL0     H10070   2.271   7.812   4.996 -0.0101 -2.9642  1.1114
  798MOL0     H10071   2.041   7.976   5.118  0.7143 -1.8571  1.5972
  798MOL0     H10072   2.126   7.974   4.969 -1.1515  3.2921  1.7728
  798MOL0     H10073   1.861   7.798   5.180  2.7445  2.0546  0.5425
  798MOL0     H10074   1.716   7.519   5.099 -0.2216 -0.7185 -1.2807
  798MOL0     H10075   1.677   7.520   4.944  0.9225 -3.2180  2.3457
  798MOL0     H10076   1.496   7.609   5.109 -0.0770  0.7770  0.2945
  798MOL0     H10077   1.591   7.753   5.130  1.7602 -0.6004  1.1671
  798MOL0     H10078   1.449   7.656   4.879  1.3625  0.0950  0.6075
  798MOL0     H10079   1.395   7.785   4.993 -0.5280  2.0899 -0.2920
  798MOL0     H10080   1.630   7.780   4.792  0.4255 -1.5791  1.1674
  798MOL0     H10081   1.495   7.896   4.792 -2.4377 -2.6624 -0.4316
  798MOL0     H10082   1.770   7.903   4.700 -1.8994 -0.2573  0.0745
  798MOL0     H10083   1.978   7.900   4.594  0.2135  0.1705  2.1741
  798MOL0     H10084   2.087   8.035   4.591 -0.5103  0.7277 -3.0370
  798MOL0     H10085   1.918   8.040   4.511 -2.2858 -4.1059 -0.4397
  798MOL0     H10086   2.248   8.438   5.003 -0.6643  0.5745 -2.9750
  798MOL0     H10087   2.452   8.552   4.965 -2.7312 -0.1955  1.6310
  798MOL0     H10088   2.817   8.272   4.908  0.5149  0.3504  1.8891
  798MOL0     H10089   2.776   8.369   4.760  1.2971  0.7064 -0.6788
  798MOL0     H10090   2.938   8.549   4.839 -1.9310  0.0926  0.0687
  798MOL0     H10091   2.963   8.449   4.992 -0.2583  0.4190  0.8206
  798MOL0     H10092   3.013   8.342   4.714 -3.4150  1.7992  1.3888
  798MOL0     H10093   3.044   8.268   4.881 -1.0382 -0.0906  0.6966
  798MOL0     H10094   3.179   8.469   4.919  1.9670 -1.5697  0.5852
  798MOL0     H10095   3.171   8.530   4.760  2.1387  0.4156 -0.1674
  798MOL0     H10096   3.312   8.279   4.863 -0.6785  0.7165  2.1574
  798MOL0     H10097   3.252   8.282   4.702  1.0592  0.6394 -0.8979
  798MOL0     H10098   3.421   8.516   4.781  2.6466 -0.2277 -1.3456
  798MOL0     H10099   3.371   8.455   4.620 -2.1984 -0.3675  1.2611
  798MOL0     H10100   3.494   8.250   4.641 -1.4645 -1.6493  1.7651
  798MOL0     H10101   3.549   8.302   4.808  0.5762 -2.0992  0.0912
  798MOL0     H10102   3.714   8.454   4.707 -0.1688  1.3029  1.3285
  798MOL0     H10103   3.593   8.505   4.589 -4.0614 -1.9832 -0.3643
  798MOL0     H10104   2.627   8.189   4.819  2.0696 -0.0828  1.7217
  798MOL0     H10105   2.386   8.103   4.803 -1.1883  0.2136 -0.1076
  798MOL0     H10106   1.925   8.264   5.003 -1.9624  0.1178  1.0138
  798MOL0     H10107   1.726   8.130   5.047  0.6969  0.4743 -0.6807
  798MOL0     H10108   3.180   7.767   5.050  1.8646 -0.3823  0.6093
  798MOL0     H10109   3.388   7.752   4.981 -2.1420 -0.2039  1.2938
  798MOL0     H10110   3.717   8.034   4.768 -1.5458 -2.0152 -1.1281
  798MOL0     H10111   3.936   8.092   4.647  0.0732 -0.0871 -0.5616
  798MOL0     H10112   4.252   7.928   4.442 -0.7016 -0.7183 -1.9214
  798MOL0     H10113   4.189   7.763   4.495  1.2603  0.0954  0.9387
  798MOL0     H10114   3.971   7.818   4.370  0.2861 -2.1507 -1.6848
  798MOL0     H10115   4.115   7.775   4.274  0.8710  0.3591 -0.9945
  798MOL0     H10116   4.037   8.055   4.351  0.9126 -1.3114  2.6476
  798MOL0     H10117   4.168   8.010   4.249  1.5547 -3.0674 -0.6197
  798MOL0     H10118   3.957   8.101   4.127  0.2812  0.5346  0.7199
  798MOL0     H10119   3.878   7.951   4.173 -0.2277 -0.5458  0.0224
  798MOL0     H10120   4.125   7.812   3.860  0.8456  0.1623  0.1411
  798MOL0     H10121   4.018   7.684   4.607  0.8797 -0.1420  1.1524
  798MOL0     H10122   3.774   7.568   4.824 -4.6477  2.1276 -1.1443
  798MOL0     H10123   3.751   7.522   4.652  2.8826 -0.3238 -1.3387
  798MOL0     H10124   3.909   7.531   4.711  0.3066  0.8922  2.2592
  799MOL0     O10125   5.706   0.412   4.941  0.4849 -0.7536  1.1088
  799MOL0     C10126   5.718   0.500   5.031  0.3595  0.4428  0.2794
  799MOL0     O10127   5.821   0.581   5.052 -0.2655  0.6606  0.2044
  799MOL0     C10128   5.925   0.573   4.956 -0.0001 -0.2579 -0.1581
  799MOL0     C10129   5.910   0.586   4.814  0.3504 -0.9352 -0.3739
  799MOL0     C10130   6.026   0.574   4.735 -0.1402 -0.0257 -0.6302
  799MOL0     C10131   6.154   0.536   4.789  0.1192  0.9258  0.1996
  799MOL0     O10132   6.270   0.500   4.712  1.0409 -1.3103  0.2914
  799MOL0     C10133   6.323   0.598   4.624  0.2243 -0.0441 -0.1850
  799MOL0     C10134   6.426   0.551   4.525  0.0004  0.1900  0.5262
  799MOL0     C10135   6.538   0.489   4.600  0.2086 -0.0551  0.2734
  799MOL0     C10136   6.663   0.464   4.508 -0.1528  0.5350  0.3491
  799MOL0     C10137   6.760   0.362   4.572  0.3379 -0.0356  0.9876
  799MOL0     C10138   6.818   0.410   4.702 -0.6111 -0.3481 -0.9671
  799MOL0     C10139   6.940   0.326   4.735 -0.4800  0.0302 -0.2982
  799MOL0     C10140   7.059   0.335   4.630  1.0408  0.1922  0.1251
  799MOL0     N10141   7.178   0.283   4.690  0.2424 -0.1407  0.7032
  799MOL0     C10142   7.265   0.363   4.761 -0.2579  0.5525  0.7440
  799MOL0     C10143   7.369   0.283   4.784 -0.4312 -0.3865 -0.1941
  799MOL0     C10144   7.481   0.322   4.868  0.1316 -0.8765  0.1516
  799MOL0     C10145   7.599   0.280   4.781 -0.4678  0.4979  0.8412
  799MOL0     C10146   7.735   0.340   4.829  0.8293 -1.2614  0.5206
  799MOL0     C10147   7.751   0.482   4.783 -0.3040 -0.1387 -1.3621
  799MOL0     O10148   7.885   0.501   4.735  0.1791  0.4574 -0.6773
  799MOL0     C10149   7.924   0.631   4.726 -0.3260  0.2009 -0.0552
  799MOL0     C10150   7.842   0.744   4.687 -0.6387  0.0578 -0.1420
  799MOL0     C10151   7.896   0.872   4.662  0.5039 -0.0484 -0.6141
  799MOL0     C10152   7.800   0.974   4.610 -0.1884  0.2257  0.3213
  799MOL0     C10153   8.033   0.895   4.666  0.0867  0.0134 -0.5128
  799MOL0     C10154   8.101   1.028   4.644 -0.4416  0.7947 -0.5671
  799MOL0     O10155   8.238   1.013   4.653  0.5962  0.0439  0.9457
  799MOL0     C10156   8.317   1.119   4.612 -0.0601  0.7345  0.1463
  799MOL0     C10157   8.332   1.228   4.700  0.3574 -0.3702  0.7398
  799MOL0     C10158   8.406   1.339   4.663 -0.9947  0.5614  0.9995
  799MOL0     C10159   8.495   1.336   4.552  0.2885  0.1715 -0.0764
  799MOL0     O10160   8.574   1.445   4.510  0.0792  0.0014  0.6800
  799MOL0     C10161   8.633   1.527   4.615 -1.2763 -0.2925  0.6623
  799MOL0     C10162   8.748   1.459   4.688 -0.3868 -0.8118 -1.0985
  799MOL0     C10163   8.879   1.450   4.596 -0.3920 -0.6049 -0.3125
  799MOL0     C10164   8.999   1.410   4.673 -0.3100  0.8654 -0.1194
  799MOL0     C10165   9.128   1.406   4.581 -0.6451  0.0912 -0.0283
  799MOL0     C10166   9.243   1.355   4.666 -0.6099 -0.0405  0.6761
  799MOL0     C10167   9.366   1.370   4.590 -0.1200  0.3872  0.6390
  799MOL0     C10168   9.480   1.375   4.691 -0.3902 -0.4799  0.5168
  799MOL0    Cl10169   9.469   1.238   4.813  0.6890  0.3017 -0.5877
  799MOL0     C10170   8.482   1.221   4.470  0.4333  0.5685 -0.0211
  799MOL0     C10171   8.397   1.108   4.501 -0.0789  0.0302 -0.2798
  799MOL0     O10172   8.046   1.129   4.606 -0.0934  0.4243  0.0117
  799MOL0     C10173   8.109   0.785   4.697 -0.5466  0.1230 -0.0178
  799MOL0     C10174   8.060   0.662   4.732 -0.7664 -0.1882 -0.1129
  799MOL0     N10175   7.350   0.152   4.750  0.6513 -0.3442 -0.4997
  799MOL0     N10176   7.238   0.153   4.686  0.7387  0.0627 -0.8220
  799MOL0     C10177   6.162   0.510   4.925 -0.7192  0.5793  0.2408
  799MOL0     C10178   6.052   0.532   5.010  0.7135  0.5885  0.2343
  799MOL0     C10179   5.597   0.526   5.116 -0.7806 -0.1928  1.1581
  799MOL0     C10180   5.559   0.659   5.118  0.6379 -0.8053 -0.2051
  799MOL0     C10181   5.441   0.697   5.181  0.5068 -0.5640  0.4799
  799MOL0     C10182   5.358   0.603   5.239 -0.1292 -0.0828 -0.6013
  799MOL0     O10183   5.251   0.630   5.317 -0.6810  0.4081  0.6658
  799MOL0     C10184   5.221   0.768   5.318  0.2865 -0.1042 -0.2378
  799MOL0     C10185   5.098   0.787   5.409  0.7686  0.3472 -0.4171
  799MOL0     C10186   5.070   0.941   5.420 -0.9411 -0.0819 -0.5563
  799MOL0     C10187   4.939   0.962   5.493  0.1612  0.8040  0.1491
  799MOL0     C10188   4.819   0.917   5.419 -0.4844  0.2477  0.0101
  799MOL0     C10189   4.725   0.870   5.357  0.4709 -0.5724  0.2624
  799MOL0     C10190   5.398   0.469   5.243 -1.0212 -0.5113 -0.0759
  799MOL0     C10191   5.516   0.431   5.169 -0.4922  0.1306 -0.9493
  799MOL0     C10192   5.537   0.287   5.161  0.2686  0.3186  0.5969
  799MOL0     H10193   5.815   0.615   4.773  1.6123  3.1197 -0.8708
  799MOL0     H10194   6.020   0.593   4.628 -0.9401 -1.4416 -0.8738
  799MOL0     H10195   6.371   0.677   4.682  0.6221 -0.3784 -0.0563
  799MOL0     H10196   6.232   0.640   4.581  1.5816  0.1272 -3.1401
  799MOL0     H10197   6.389   0.477   4.454  0.9141  0.2685 -0.0378
  799MOL0     H10198   6.453   0.638   4.465  1.0062 -1.4968 -1.5815
  799MOL0     H10199   6.567   0.551   4.685  2.7892  1.2027 -1.4023
  799MOL0     H10200   6.500   0.394   4.641 -2.5902  0.8225 -0.0829
  799MOL0     H10201   6.619   0.419   4.419  2.3320  0.3918 -0.8893
  799MOL0     H10202   6.719   0.554   4.482  2.2876 -0.6961  1.0835
  799MOL0     H10203   6.838   0.342   4.497 -1.3209 -1.4599 -0.4593
  799MOL0     H10204   6.724   0.260   4.591  0.7687  0.1970  3.3532
  799MOL0     H10205   6.849   0.515   4.695 -0.3692 -0.3767 -0.4156
  799MOL0     H10206   6.741   0.410   4.779 -0.7020  2.7217 -0.9214
  799MOL0     H10207   6.913   0.220   4.747 -0.4233  0.1591  1.1733
  799MOL0     H10208   6.979   0.367   4.829  1.2062  2.3533 -1.8899
  799MOL0     H10209   7.033   0.275   4.543  1.7491 -2.5266  1.6627
  799MOL0     H10210   7.067   0.440   4.600  0.6505 -0.6647 -3.3964
  799MOL0     H10211   7.269   0.471   4.776 -0.1356  0.6413  0.0864
  799MOL0     H10212   7.480   0.274   4.966  0.4861 -0.7371  0.2245
  799MOL0     H10213   7.487   0.430   4.888  2.4716 -0.6670 -1.3211
  799MOL0     H10214   7.618   0.172   4.775 -0.3402  0.3778  2.6386
  799MOL0     H10215   7.593   0.290   4.673  1.3177 -0.5516  0.6121
  799MOL0     H10216   7.753   0.318   4.935  0.7763 -0.8611  0.6136
  799MOL0     H10217   7.805   0.280   4.769  1.2520  0.5453 -0.8580
  799MOL0     H10218   7.670   0.512   4.716 -1.0835 -2.9145 -1.7845
  799MOL0     H10219   7.743   0.553   4.866 -2.4440  1.1277 -2.5510
  799MOL0     H10220   7.735   0.738   4.671 -0.5396 -0.4357 -0.6411
  799MOL0     H10221   7.765   1.038   4.691 -2.3023  0.7382 -0.9149
  799MOL0     H10222   7.717   0.927   4.556  0.5782 -0.5476 -0.2113
  799MOL0     H10223   7.839   1.030   4.524 -0.9061 -1.9971 -1.5523
  799MOL0     H10224   8.269   1.232   4.788  1.0527  1.5450  1.2099
  799MOL0     H10225   8.404   1.417   4.739  3.3737  0.3955  1.5113
  799MOL0     H10226   8.661   1.620   4.565 -1.8347 -1.2767 -1.6065
  799MOL0     H10227   8.561   1.541   4.697  0.8369  0.0502  2.5630
  799MOL0     H10228   8.775   1.512   4.780  0.3477  1.2227 -2.4107
  799MOL0     H10229   8.706   1.361   4.711 -0.7020 -0.7415 -1.3624
  799MOL0     H10230   8.890   1.549   4.553 -1.5053 -0.3711 -0.0889
  799MOL0     H10231   8.858   1.373   4.521 -0.9398 -0.0514 -0.7312
  799MOL0     H10232   8.979   1.316   4.726  0.7193  1.1809  0.8767
  799MOL0     H10233   9.018   1.481   4.753 -0.6338  3.4185 -2.1903
  799MOL0     H10234   9.118   1.334   4.498 -0.7573 -0.6384  0.6061
  799MOL0     H10235   9.161   1.504   4.546  3.7355  0.4345  4.1344
  799MOL0     H10236   9.221   1.249   4.681 -0.6147  0.1008  1.7879
  799MOL0     H10237   9.254   1.412   4.760  1.7203 -0.2193  0.5680
  799MOL0     H10238   9.367   1.460   4.528  3.1518 -1.2453 -1.9548
  799MOL0     H10239   9.371   1.282   4.525 -1.9898 -0.6646  1.7921
  799MOL0     H10240   9.485   1.473   4.740  1.5940 -0.7196  0.8629
  799MOL0     H10241   9.571   1.365   4.630 -0.5248 -0.2948  0.2813
  799MOL0     H10242   8.549   1.210   4.385 -0.4863  3.4915 -1.2682
  799MOL0     H10243   8.402   1.020   4.437  2.2324  3.0331 -4.7231
  799MOL0     H10244   8.210   0.812   4.726 -2.0132  2.5963  3.5651
  799MOL0     H10245   8.132   0.585   4.758  0.2727  0.3922 -1.1812
  799MOL0     H10246   6.262   0.493   4.965 -1.5081 -0.6423  1.8251
  799MOL0     H10247   6.084   0.529   5.114  0.6987 -1.6412  0.2284
  799MOL0     H10248   5.610   0.744   5.075  0.1506 -0.3224  0.1479
  799MOL0     H10249   5.419   0.801   5.163  1.7828 -0.1213  1.3604
  799MOL0     H10250   5.298   0.835   5.358  0.1773 -0.1686  0.0804
  799MOL0     H10251   5.203   0.805   5.216  0.6363 -0.3356 -0.3875
  799MOL0     H10252   5.122   0.735   5.502  0.7324 -0.8047 -1.0356
  799MOL0     H10253   5.007   0.746   5.367  1.0674  0.9500 -1.6907
  799MOL0     H10254   5.152   0.972   5.485 -1.9929 -1.5214  1.5642
  799MOL0     H10255   5.072   0.997   5.326  1.3101 -1.3237 -1.3273
  799MOL0     H10256   4.920   1.069   5.507 -0.2626  1.1372 -2.4004
  799MOL0     H10257   4.945   0.905   5.585  2.4433 -0.7386 -0.8675
  799MOL0     H10258   4.646   0.829   5.298  0.2016  1.8320 -1.2060
  799MOL0     H10259   5.335   0.398   5.296  0.7690 -1.9469  0.2549
  799MOL0     H10260   5.449   0.233   5.199 -1.2231  2.1343 -0.0958
  799MOL0     H10261   5.549   0.263   5.055  0.3765 -0.1126  0.7065
  799MOL0     H10262   5.626   0.262   5.220 -0.8694 -1.3167  1.7174
  800MOL0     O10263   4.331   9.078   9.156 -0.1811  0.0146 -0.0819
  800MOL0     C10264   4.349   9.170   9.073 -0.2291  0.1121 -0.0944
  800MOL0     O10265   4.446   9.178   8.977  0.1037  0.2505 -0.2367
  800MOL0     C10266   4.532   9.069   8.977 -0.1477  0.5123  0.6805
  800MOL0     C10267   4.652   9.071   9.054 -0.0268  0.5212 -0.3944
  800MOL0     C10268   4.741   8.964   9.056  0.5709 -0.5125  0.2396
  800MOL0     C10269   4.725   8.861   8.967  1.2400  0.6629  0.4473
  800MOL0     O10270   4.817   8.757   8.974  0.2378  0.1687  0.3195
  800MOL0     C10271   4.948   8.788   8.944 -1.3517 -0.1056  0.6771
  800MOL0     C10272   5.047   8.671   8.958  0.1938 -0.0132 -0.6681
  800MOL0     C10273   5.042   8.569   8.843 -0.1188  1.1665 -0.4949
  800MOL0     C10274   5.090   8.633   8.709  0.1620 -0.4236  0.3911
  800MOL0     C10275   5.137   8.533   8.606  0.6751  0.2844  0.3882
  800MOL0     C10276   5.224   8.412   8.651 -0.5723 -0.5714  0.0945
  800MOL0     C10277   5.277   8.332   8.531  0.4595 -0.2635  0.7259
  800MOL0     C10278   5.340   8.213   8.595 -0.0919 -0.5356  0.2261
  800MOL0     N10279   5.467   8.235   8.668  0.3936 -0.8996 -0.3767
  800MOL0     C10280   5.569   8.302   8.611 -0.4142 -0.5816 -0.8864
  800MOL0     C10281   5.662   8.306   8.714 -0.7592 -0.2223  0.1305
  800MOL0     C10282   5.799   8.368   8.722 -0.5749 -0.9285  0.1604
  800MOL0     C10283   5.913   8.272   8.735  0.7950 -0.1011  0.2862
  800MOL0     C10284   5.913   8.159   8.629  0.5819  0.0482 -0.8932
  800MOL0     C10285   6.044   8.077   8.640 -0.1134 -0.7904  0.2389
  800MOL0     O10286   6.162   8.158   8.613 -0.7605 -0.6878 -0.2735
  800MOL0     C10287   6.285   8.099   8.635  0.5817 -0.2043  0.3277
  800MOL0     C10288   6.395   8.144   8.565 -0.7289  0.1229 -0.2203
  800MOL0     C10289   6.525   8.100   8.590 -0.7610 -0.2732  0.5412
  800MOL0     C10290   6.644   8.183   8.527  1.5936 -0.1240  0.0031
  800MOL0     C10291   6.549   7.992   8.682  0.2713  0.8522  0.1985
  800MOL0     C10292   6.686   7.938   8.715 -0.8303 -0.0536 -0.2633
  800MOL0     O10293   6.698   7.825   8.788 -0.3688  0.6264  0.3439
  800MOL0     C10294   6.806   7.748   8.770 -0.4822 -0.0505  0.7144
  800MOL0     C10295   6.852   7.719   8.640  0.1917 -1.5393  0.3450
  800MOL0     C10296   6.953   7.640   8.615  0.6660 -0.3668 -0.5669
  800MOL0     C10297   7.023   7.570   8.714 -0.3411 -0.1703  0.1422
  800MOL0     O10298   7.125   7.483   8.686  0.2054 -0.9835  0.1223
  800MOL0     C10299   7.174   7.470   8.551  0.8526 -0.1860  0.4496
  800MOL0     C10300   7.279   7.359   8.559 -0.5037  0.3580  0.1042
  800MOL0     C10301   7.380   7.369   8.675  0.1722 -0.1812 -0.1398
  800MOL0     C10302   7.454   7.237   8.696  0.3774  0.1182 -0.7802
  800MOL0     C10303   7.580   7.258   8.773 -0.4224  1.2758 -0.0489
  800MOL0     C10304   7.668   7.125   8.774  0.4666  0.4715  0.3121
  800MOL0     C10305   7.789   7.138   8.872  0.8475 -0.6170 -0.8786
  800MOL0     C10306   7.861   7.002   8.875 -0.7797 -0.7202 -0.0143
  800MOL0    Cl10307   7.940   6.972   8.712 -0.1268 -0.2199 -0.0727
  800MOL0     C10308   6.989   7.597   8.850  0.7774 -1.4175  1.1854
  800MOL0     C10309   6.872   7.683   8.871 -0.5891  0.8287  0.1606
  800MOL0     O10310   6.782   8.004   8.684 -0.6205 -0.9194 -0.2865
  800MOL0     C10311   6.438   7.944   8.748  0.2390  0.5311 -0.3885
  800MOL0     C10312   6.308   8.006   8.733  0.0022  0.5637 -0.1327
  800MOL0     N10313   5.611   8.241   8.823  1.1874  0.5969  0.3390
  800MOL0     N10314   5.488   8.203   8.802 -0.0596 -0.2628  1.0722
  800MOL0     C10315   4.620   8.859   8.876 -0.3566  0.1280 -0.6508
  800MOL0     C10316   4.529   8.965   8.881 -0.2404  0.1971  0.5084
  800MOL0     C10317   4.256   9.285   9.083 -0.6176 -1.0424 -0.6316
  800MOL0     C10318   4.298   9.416   9.052 -0.4079 -0.0054 -0.4946
  800MOL0     C10319   4.226   9.533   9.056  0.1307 -0.2333  0.1464
  800MOL0     C10320   4.103   9.524   9.112  0.6482  0.5770  0.2863
  800MOL0     O10321   4.042   9.640   9.140 -0.7405 -0.7997 -0.7471
  800MOL0     C10322   3.953   9.660   9.246 -0.0349 -0.4413 -0.4825
  800MOL0     C10323   3.873   9.790   9.244  0.1182  0.3138  0.2427
  800MOL0     C10324   3.962   9.907   9.200 -0.0249 -0.2700 -0.0027
  800MOL0     C10325   4.092   9.923   9.270 -0.1381 -0.0240 -0.5879
  800MOL0     C10326   4.064   9.944   9.416 -0.0558 -0.0563  0.0782
  800MOL0     C10327   4.066   9.961   9.541 -0.5645  0.2139  0.1645
  800MOL0     C10328   4.050   9.392   9.154 -0.0973 -0.1783  0.3858
  800MOL0     C10329   4.119   9.272   9.125 -0.1206  1.1134  0.0686
  800MOL0     C10330   4.057   9.135   9.164  0.3048  0.0122 -0.8237
  800MOL0     H10331   4.676   9.155   9.118  2.4663 -1.5084  1.5338
  800MOL0     H10332   4.826   8.970   9.123  1.1189  3.3118 -0.5547
  800MOL0     H10333   4.979   8.885   8.985 -1.9439  0.3612  0.0347
  800MOL0     H10334   4.952   8.820   8.840 -2.9145  1.8499  1.1486
  800MOL0     H10335   5.148   8.707   8.975  0.7837 -2.3136  1.2727
  800MOL0     H10336   5.024   8.619   9.051  2.2638  0.2469  0.0267
  800MOL0     H10337   5.101   8.485   8.878 -2.7005  0.1798  1.8414
  800MOL0     H10338   4.940   8.530   8.831  0.6979 -0.8848 -1.1105
  800MOL0     H10339   5.026   8.710   8.666  2.2558  1.5730  0.6858
  800MOL0     H10340   5.184   8.684   8.731  1.5261 -1.6524 -2.1160
  800MOL0     H10341   5.186   8.579   8.520  0.0960 -2.1142 -1.3346
  800MOL0     H10342   5.043   8.489   8.570 -0.6369 -0.9319  4.6851
  800MOL0     H10343   5.311   8.447   8.708 -2.0066 -0.2299  2.1688
  800MOL0     H10344   5.163   8.357   8.723  0.0779  0.7665  1.7449
  800MOL0     H10345   5.347   8.386   8.468  2.1344 -0.3938  2.3613
  800MOL0     H10346   5.187   8.294   8.482 -0.0916  2.2127 -0.3007
  800MOL0     H10347   5.263   8.168   8.658  0.0938 -2.6128 -0.9602
  800MOL0     H10348   5.371   8.151   8.510  1.0766 -1.3796  1.2190
  800MOL0     H10349   5.576   8.335   8.508 -1.2369 -1.3893 -1.2073
  800MOL0     H10350   5.812   8.437   8.806  1.0686  1.3447 -1.8098
  800MOL0     H10351   5.813   8.440   8.641  0.9693 -0.1380  1.0863
  800MOL0     H10352   5.997   8.335   8.706  0.0429 -0.0858 -2.1191
  800MOL0     H10353   5.924   8.225   8.833  1.0330  0.4562  0.5290
  800MOL0     H10354   5.833   8.085   8.642 -0.0389  0.5880 -1.5882
  800MOL0     H10355   5.895   8.204   8.531 -0.6247 -3.0289 -2.2104
  800MOL0     H10356   6.045   8.048   8.746  0.6424 -0.8005  0.2338
  800MOL0     H10357   6.037   7.981   8.588 -2.3091 -0.6696  0.1949
  800MOL0     H10358   6.388   8.215   8.483  1.6719 -0.3074 -0.8649
  800MOL0     H10359   6.673   8.269   8.589  1.2284  0.9205 -1.2355
  800MOL0     H10360   6.598   8.217   8.434 -2.3397  1.0013  2.1462
  800MOL0     H10361   6.733   8.125   8.503  0.3651 -3.2239  2.2788
  800MOL0     H10362   6.801   7.779   8.565 -0.5488 -0.2657  1.8149
  800MOL0     H10363   6.973   7.625   8.509  1.9352 -0.3904 -0.3317
  800MOL0     H10364   7.096   7.436   8.482  0.7230  1.5810 -0.3075
  800MOL0     H10365   7.224   7.561   8.517  5.2677 -2.2889  0.5961
  800MOL0     H10366   7.228   7.263   8.572  0.2601  0.0538  1.0350
  800MOL0     H10367   7.331   7.359   8.463 -0.2417  1.6928  0.2314
  800MOL0     H10368   7.336   7.395   8.771  1.2258 -1.7440  0.8134
  800MOL0     H10369   7.450   7.452   8.660 -0.9101  1.3277  2.6237
  800MOL0     H10370   7.480   7.187   8.602  4.0863 -1.2514  0.7625
  800MOL0     H10371   7.390   7.166   8.749  1.0334 -1.0329 -1.4680
  800MOL0     H10372   7.638   7.342   8.733  1.3680 -0.5182 -1.4317
  800MOL0     H10373   7.553   7.274   8.878 -1.7453 -1.4390  0.1097
  800MOL0     H10374   7.708   7.093   8.678  1.9558  0.9462  0.7428
  800MOL0     H10375   7.612   7.037   8.808  0.4693 -0.0692 -1.0573
  800MOL0     H10376   7.773   7.150   8.979  1.5535 -1.3545 -0.6854
  800MOL0     H10377   7.850   7.222   8.835  0.4708  0.1010  0.1045
  800MOL0     H10378   7.800   6.914   8.897  2.5939 -2.6520  2.5943
  800MOL0     H10379   7.948   7.003   8.941 -0.6065 -1.4243 -0.2202
  800MOL0     H10380   7.037   7.547   8.933 -2.4807 -0.8951  3.6096
  800MOL0     H10381   6.829   7.710   8.967 -3.8123  1.1960 -1.2528
  800MOL0     H10382   6.447   7.860   8.815 -2.2953  0.6551  0.2022
  800MOL0     H10383   6.226   7.975   8.797  1.5530 -2.3035  0.6446
  800MOL0     H10384   4.614   8.779   8.802  1.1109  0.4622 -1.1649
  800MOL0     H10385   4.450   8.960   8.806  1.0974 -0.3735 -0.9047
  800MOL0     H10386   4.396   9.442   9.013  0.0731  0.7378  1.1139
  800MOL0     H10387   4.266   9.623   9.012  1.7650 -1.6605 -1.4296
  800MOL0     H10388   3.878   9.582   9.262 -2.0494  1.5229  0.2348
  800MOL0     H10389   4.009   9.669   9.339  0.6816 -0.0556 -0.9468
  800MOL0     H10390   3.834   9.820   9.341 -0.4761 -1.8448  0.7354
  800MOL0     H10391   3.788   9.778   9.176  1.0060  3.9882 -1.8156
  800MOL0     H10392   3.972   9.912   9.091 -1.8627  1.9646 -0.1314
  800MOL0     H10393   3.913   9.998   9.234 -0.6163 -1.7898  3.6220
  800MOL0     H10394   4.151  10.010   9.241  0.5520  0.3247  1.6533
  800MOL0     H10395   4.168   9.846   9.259  0.2961 -0.0399  1.8140
  800MOL0     H10396   4.072   9.972   9.647  2.3478  4.5043 -0.2193
  800MOL0     H10397   3.954   9.376   9.203  0.6202  0.4755  2.0706
  800MOL0     H10398   4.092   9.074   9.081  1.8373  0.2972 -0.4240
  800MOL0     H10399   4.073   9.082   9.259 -4.5942 -0.2742  0.1165
  800MOL0     H10400   3.949   9.148   9.158  0.2154 -0.5604 -0.5508
  801MOL0     O10401   5.474  11.139   0.240 -0.4326  0.7664  0.2301
  801MOL0     C10402   5.522  11.129   0.127 -0.3300  0.0880 -0.2629
  801MOL0     O10403   5.644  11.085   0.100 -0.0813  0.2820  0.4041
  801MOL0     C10404   5.752  11.118   0.180  0.1559  0.2339  0.2898
  801MOL0     C10405   5.870  11.036   0.162  0.0674 -1.0701 -0.2203
  801MOL0     C10406   5.990  11.067   0.228 -0.0858 -0.2681  0.7060
  801MOL0     C10407   5.996  11.173   0.308  0.0950 -0.5714  0.1982
  801MOL0     O10408   6.110  11.206   0.370  0.0196  0.0805  0.0207
  801MOL0     C10409   6.251  11.189   0.312  0.7594 -0.2354 -0.1218
  801MOL0     C10410   6.254  11.278   0.185  0.3117  0.6213  1.4862
  801MOL0     C10411   6.391  11.262   0.108  0.4416 -0.4276 -1.1742
  801MOL0     C10412   6.501  11.345   0.183 -0.4502  0.5418 -0.0609
  801MOL0     C10413   6.639  11.316   0.130 -0.4096 -0.7891  0.4663
  801MOL0     C10414   6.746  11.405   0.189 -0.1059  0.3440  0.1109
  801MOL0     C10415   6.883  11.358   0.120  0.5301  0.6421  0.4528
  801MOL0     C10416   6.942  11.221   0.170  0.0532 -0.5954  0.5234
  801MOL0     N10417   6.931  11.209   0.318  0.3469  0.5784 -0.0227
  801MOL0     C10418   7.010  11.259   0.412 -0.8465  0.6137  0.0697
  801MOL0     C10419   6.948  11.240   0.527  0.3139  1.2476  0.8069
  801MOL0     C10420   6.994  11.275   0.663  0.1641 -0.5559 -0.2054
  801MOL0     C10421   7.086  11.175   0.720  0.2431  0.5244  0.1783
  801MOL0     C10422   7.162  11.236   0.842  0.8375 -0.5204 -0.1308
  801MOL0     C10423   7.078  11.264   0.969 -0.1192  0.9029  0.1674
  801MOL0     O10424   7.148  11.353   1.057  0.1934 -0.9696 -0.2220
  801MOL0     C10425   7.269  11.315   1.108 -0.0601  0.5721 -1.0260
  801MOL0     C10426   7.310  11.183   1.138 -0.3623  0.7463  0.3555
  801MOL0     C10427   7.424  11.145   1.208 -0.4678  0.3195 -0.5405
  801MOL0     C10428   7.455  10.997   1.228  0.4303  0.4304  0.0981
  801MOL0     C10429   7.505  11.250   1.246  1.0178 -0.0386  0.1284
  801MOL0     C10430   7.637  11.231   1.309 -0.5349 -0.5203  0.0658
  801MOL0     O10431   7.689  11.341   1.379  0.5842 -0.7434  0.0426
  801MOL0     C10432   7.784  11.326   1.484  0.0429 -0.2023  0.2066
  801MOL0     C10433   7.923  11.291   1.451  0.9706  0.0365 -0.5728
  801MOL0     C10434   8.011  11.256   1.550 -0.4407  0.6576  0.1386
  801MOL0     C10435   7.977  11.282   1.681  0.1871 -0.5808  0.4507
  801MOL0     O10436   8.061  11.249   1.783 -0.0788  0.8151 -0.9632
  801MOL0     C10437   8.183  11.323   1.797 -0.4950  0.0510 -0.0828
  801MOL0     C10438   8.232  11.289   1.944  0.2872 -0.7738 -0.2831
  801MOL0     C10439   8.218  11.406   2.043 -0.1611  0.1028 -0.6957
  801MOL0     C10440   8.315  11.526   2.004  0.5769 -0.2850 -1.6511
  801MOL0     C10441   8.466  11.498   2.029  0.2284 -0.3735  0.1828
  801MOL0     C10442   8.487  11.509   2.181 -0.0600 -0.1815 -0.5183
  801MOL0     C10443   8.643  11.494   2.214  0.2771 -1.2738 -0.4523
  801MOL0     C10444   8.672  11.495   2.369  0.5591  0.5019  0.8503
  801MOL0    Cl10445   8.586  11.639   2.427  0.5280  0.2679 -0.6339
  801MOL0     C10446   7.849  11.326   1.721 -0.0611 -0.1231  0.1346
  801MOL0     C10447   7.755  11.355   1.622  0.2635  1.1068 -0.0185
  801MOL0     O10448   7.701  11.121   1.307  0.3432 -0.3064 -1.1084
  801MOL0     C10449   7.469  11.385   1.235 -0.2871 -0.1243 -0.1032
  801MOL0     C10450   7.350  11.414   1.172 -0.5532  0.5441 -0.1425
  801MOL0     N10451   6.822  11.187   0.500  0.3246 -0.1961 -0.1037
  801MOL0     N10452   6.814  11.161   0.371  0.2866 -0.6476  0.7575
  801MOL0     C10453   5.879  11.244   0.338 -0.2271 -0.1130  0.8112
  801MOL0     C10454   5.760  11.230   0.265 -0.1582  0.4403 -0.8835
  801MOL0     C10455   5.424  11.136   0.024  0.8950  0.4846  0.3188
  801MOL0     C10456   5.471  11.186  -0.096  0.2290 -0.5015 -0.4151
  801MOL0     C10457   5.384  11.205  -0.201 -0.4724  0.1938 -0.3955
  801MOL0     C10458   5.254  11.152  -0.198  0.0446  0.5763  0.6785
  801MOL0     O10459   5.169  11.145  -0.306  0.4439  0.1880  0.1379
  801MOL0     C10460   5.219  11.178  -0.439 -0.6666 -0.0125 -0.0467
  801MOL0     C10461   5.112  11.171  -0.549  0.2791 -0.5141 -0.4689
  801MOL0     C10462   5.159  11.239  -0.681 -0.2993 -0.1181  0.3632
  801MOL0     C10463   5.267  11.156  -0.761  0.5493 -0.0774 -0.3167
  801MOL0     C10464   5.273  11.220  -0.899  0.1093  0.8060 -1.6531
  801MOL0     C10465   5.270  11.270  -1.010  0.1270  0.4258 -0.2628
  801MOL0     C10466   5.220  11.097  -0.086  0.2321 -0.0041  0.1655
  801MOL0     C10467   5.293  11.082   0.026 -0.3225 -0.4668  0.0232
  801MOL0     C10468   5.237  11.004   0.144  0.9123 -0.3581 -1.2372
  801MOL0     H10469   5.869  10.960   0.085  1.4410 -0.6690 -0.6736
  801MOL0     H10470   6.078  11.016   0.190 -0.9543  0.0733 -1.9891
  801MOL0     H10471   6.264  11.084   0.285  1.4346  0.4379 -2.7860
  801MOL0     H10472   6.325  11.220   0.386 -1.1800  0.4988  1.6106
  801MOL0     H10473   6.163  11.251   0.130  0.4448 -0.4401  1.7726
  801MOL0     H10474   6.239  11.384   0.208 -0.9706  1.4730 -2.4791
  801MOL0     H10475   6.420  11.159   0.083  1.2154 -0.0241 -2.0147
  801MOL0     H10476   6.380  11.301   0.006  0.9851  1.0523 -0.6935
  801MOL0     H10477   6.486  11.453   0.180  1.8263  0.8814 -1.2362
  801MOL0     H10478   6.498  11.302   0.284 -0.0177 -0.0136 -0.2775
  801MOL0     H10479   6.635  11.326   0.021 -0.8392 -1.2671  0.4308
  801MOL0     H10480   6.664  11.213   0.159 -1.1448 -1.4580 -1.1527
  801MOL0     H10481   6.725  11.509   0.163 -0.6367 -0.0836 -1.2692
  801MOL0     H10482   6.753  11.405   0.298  2.3127  3.2500  0.0673
  801MOL0     H10483   6.961  11.431   0.141  1.5916 -0.3667  0.1352
  801MOL0     H10484   6.873  11.353   0.011 -1.2110 -2.7629  0.6450
  801MOL0     H10485   6.882  11.146   0.118  0.3327  1.3496 -2.9098
  801MOL0     H10486   7.047  11.212   0.140  0.1431  2.3260 -0.3241
  801MOL0     H10487   7.111  11.298   0.402  0.0417 -1.1991  1.3279
  801MOL0     H10488   6.912  11.289   0.734  0.2566 -5.4602  1.2517
  801MOL0     H10489   7.049  11.369   0.652  0.6183 -0.5135  1.9145
  801MOL0     H10490   7.039  11.081   0.750  0.4886  0.0058 -1.0034
  801MOL0     H10491   7.155  11.138   0.644 -0.2083  0.4674 -0.2107
  801MOL0     H10492   7.240  11.166   0.875  0.6019  0.0270  1.7290
  801MOL0     H10493   7.211  11.325   0.804 -0.1687  0.0092 -0.2138
  801MOL0     H10494   6.989  11.319   0.934  0.3679 -0.0179 -2.7976
  801MOL0     H10495   7.054  11.169   1.017  3.0230 -0.6507 -1.0420
  801MOL0     H10496   7.243  11.104   1.105  2.7610 -2.3531  0.8942
  801MOL0     H10497   7.384  10.930   1.179  0.8704  0.7570 -0.9961
  801MOL0     H10498   7.473  10.966   1.332  1.7940 -0.9958 -0.5204
  801MOL0     H10499   7.542  10.979   1.165 -1.7480 -0.1185 -2.9886
  801MOL0     H10500   7.954  11.281   1.347  1.4298 -1.5446 -0.3096
  801MOL0     H10501   8.106  11.219   1.516 -0.3322  1.3488 -0.3197
  801MOL0     H10502   8.250  11.285   1.720  0.2327 -3.0417  1.8972
  801MOL0     H10503   8.171  11.430   1.779 -0.7060 -0.0178 -0.3543
  801MOL0     H10504   8.171  11.205   1.979  0.8490 -2.0180 -2.1241
  801MOL0     H10505   8.336  11.261   1.926 -0.0970 -0.9325 -2.6033
  801MOL0     H10506   8.244  11.381   2.146  0.7193  2.0305 -0.4027
  801MOL0     H10507   8.115  11.441   2.038  0.7510  3.2329  0.4511
  801MOL0     H10508   8.288  11.618   2.058 -1.2474 -2.0165  0.5787
  801MOL0     H10509   8.294  11.537   1.898 -5.1659 -1.2061 -0.9421
  801MOL0     H10510   8.502  11.403   1.988  2.2336 -1.0816  3.1767
  801MOL0     H10511   8.512  11.585   1.983 -0.1797 -1.2852 -2.0881
  801MOL0     H10512   8.437  11.425   2.231  2.8904 -0.9156  1.5059
  801MOL0     H10513   8.442  11.605   2.205 -1.0684 -0.6731 -0.3686
  801MOL0     H10514   8.697  11.569   2.156  1.4161 -0.5731  1.4307
  801MOL0     H10515   8.679  11.395   2.184  3.0841 -0.9623  1.4645
  801MOL0     H10516   8.780  11.497   2.386  0.6668  0.2876  0.2200
  801MOL0     H10517   8.625  11.404   2.406 -2.6798  2.2757  1.4237
  801MOL0     H10518   7.828  11.329   1.827  2.1588  1.0426  0.6023
  801MOL0     H10519   7.657  11.380   1.660  0.6754  0.5828  1.4259
  801MOL0     H10520   7.530  11.468   1.268  0.3049 -0.9081  0.8199
  801MOL0     H10521   7.318  11.516   1.155  0.2168  0.8220  0.0635
  801MOL0     H10522   5.889  11.324   0.410  0.7839  0.2272  0.3179
  801MOL0     H10523   5.678  11.297   0.287 -0.1778  0.0526  0.3216
  801MOL0     H10524   5.571  11.222  -0.116 -1.3331  4.1674 -1.2718
  801MOL0     H10525   5.429  11.241  -0.293  0.4204 -0.0454 -0.0598
  801MOL0     H10526   5.274  11.272  -0.443  2.9767 -1.9829 -2.7113
  801MOL0     H10527   5.293  11.101  -0.465  2.8770  2.1353  2.7640
  801MOL0     H10528   5.020  11.214  -0.507 -0.0593 -2.0237  0.4056
  801MOL0     H10529   5.084  11.067  -0.570  1.1954 -0.8220 -0.1908
  801MOL0     H10530   5.069  11.257  -0.741 -1.9279  0.2433  2.7741
  801MOL0     H10531   5.204  11.336  -0.659  0.5873 -0.3901 -0.1911
  801MOL0     H10532   5.236  11.051  -0.766  1.6679 -0.4521  0.3351
  801MOL0     H10533   5.360  11.157  -0.703 -1.4473  1.3273  3.1560
  801MOL0     H10534   5.259  11.303  -1.112 -2.5173 -1.1424 -0.5831
  801MOL0     H10535   5.126  11.043  -0.095  0.4891 -0.6113  0.9780
  801MOL0     H10536   5.157  10.935   0.114  0.0482  0.4643 -0.8941
  801MOL0     H10537   5.321  10.952   0.190 -1.1146 -4.0785 -1.3809
  801MOL0     H10538   5.200  11.072   0.221  0.0462 -0.1089 -1.8487
  802MOL0     O10539   4.302   3.539   3.453 -0.4697 -0.3870 -0.5309
  802MOL0     C10540   4.213   3.585   3.536  0.4221 -0.0279  0.7526
  802MOL0     O10541   4.243   3.665   3.643 -0.3814 -0.5680 -0.0845
  802MOL0     C10542   4.371   3.720   3.651  0.1569  1.2125  0.1862
  802MOL0     C10543   4.409   3.811   3.555  0.0047 -1.0897 -0.5671
  802MOL0     C10544   4.541   3.862   3.565 -0.9656  0.9518 -0.1254
  802MOL0     C10545   4.634   3.821   3.659 -0.7403 -0.7568  0.1504
  802MOL0     O10546   4.761   3.871   3.670 -0.1594 -0.4967 -0.5730
  802MOL0     C10547   4.785   4.008   3.647  0.5424  0.0194  0.7066
  802MOL0     C10548   4.927   4.060   3.683  0.1954  0.6583  0.4343
  802MOL0     C10549   4.939   4.221   3.694 -0.5834 -0.3408  0.7342
  802MOL0     C10550   5.078   4.252   3.758  0.0385  0.4026  0.1947
  802MOL0     C10551   5.187   4.245   3.649 -0.4471  0.1916  0.1915
  802MOL0     C10552   5.323   4.232   3.723 -0.4624 -0.2933 -0.5230
  802MOL0     C10553   5.444   4.261   3.632  1.0875  0.5744 -0.0194
  802MOL0     C10554   5.574   4.231   3.697  0.5060  0.5045 -0.4240
  802MOL0     N10555   5.690   4.299   3.637  0.1312  0.5601 -0.0080
  802MOL0     C10556   5.751   4.271   3.515 -0.2039  0.1417  0.9006
  802MOL0     C10557   5.868   4.345   3.527 -0.0996 -0.2934 -0.4059
  802MOL0     C10558   5.977   4.329   3.425 -0.4548  0.1084  0.0740
  802MOL0     C10559   6.123   4.353   3.484  0.3074 -0.1942  0.0135
  802MOL0     C10560   6.223   4.394   3.366  0.7691 -0.2691  0.8121
  802MOL0     C10561   6.362   4.402   3.428  0.4086  0.1856  0.8079
  802MOL0     O10562   6.394   4.273   3.475  0.3416  0.1480 -0.3639
  802MOL0     C10563   6.526   4.249   3.464 -0.7517  0.0204 -0.7609
  802MOL0     C10564   6.635   4.326   3.400  0.8942  1.1424 -1.2124
  802MOL0     C10565   6.764   4.294   3.412  0.2882  0.7817 -1.3405
  802MOL0     C10566   6.871   4.387   3.347 -0.4943 -0.4594  0.1564
  802MOL0     C10567   6.805   4.171   3.469 -0.0589  0.5624  0.8818
  802MOL0     C10568   6.939   4.130   3.502 -0.6293 -0.7570 -0.7991
  802MOL0     O10569   7.007   4.219   3.580  0.6164  0.4339  0.2858
  802MOL0     C10570   7.127   4.189   3.631 -0.4534  0.2512  0.1594
  802MOL0     C10571   7.209   4.296   3.667 -0.0811 -0.7410  0.0695
  802MOL0     C10572   7.343   4.281   3.709  0.2616 -0.0672 -0.1097
  802MOL0     C10573   7.404   4.161   3.715 -0.4574 -1.0230  0.1722
  802MOL0     O10574   7.539   4.146   3.739  0.6353 -0.3301 -0.0117
  802MOL0     C10575   7.631   4.263   3.751  0.1837  0.4613 -0.2335
  802MOL0     C10576   7.716   4.301   3.621  0.0318 -0.2161  0.1528
  802MOL0     C10577   7.843   4.384   3.657  0.0342 -0.4833 -0.2383
  802MOL0     C10578   7.911   4.423   3.521  0.3171 -0.7698  0.8169
  802MOL0     C10579   8.048   4.500   3.522  0.2541 -0.4163 -0.5347
  802MOL0     C10580   8.030   4.628   3.611  0.3510 -0.3892  0.0240
  802MOL0     C10581   8.146   4.726   3.593  0.0901  0.0571 -0.4679
  802MOL0     C10582   8.274   4.671   3.652 -0.4305  0.0258 -0.9459
  802MOL0    Cl10583   8.249   4.604   3.828 -0.1046  0.2564  0.0025
  802MOL0     C10584   7.325   4.047   3.684 -0.8042  0.0177 -0.2180
  802MOL0     C10585   7.185   4.059   3.641  0.1363  0.0194  0.3947
  802MOL0     O10586   6.991   4.029   3.444 -0.4146  0.4562  0.4754
  802MOL0     C10587   6.702   4.093   3.521  1.1252  0.5068  0.0833
  802MOL0     C10588   6.567   4.133   3.527  0.9093  0.0063  0.0620
  802MOL0     N10589   5.871   4.423   3.641  0.0797 -0.1945  0.4915
  802MOL0     N10590   5.767   4.383   3.711 -1.0181 -0.3757  0.6526
  802MOL0     C10591   4.589   3.737   3.760  0.7554 -0.2162 -0.0199
  802MOL0     C10592   4.454   3.689   3.757  0.3853 -1.2454 -0.1368
  802MOL0     C10593   4.075   3.533   3.544  0.5672  0.9522 -0.1000
  802MOL0     C10594   4.010   3.536   3.665 -0.0527  0.1376  0.3315
  802MOL0     C10595   3.876   3.492   3.666  0.8428  0.4240 -0.4555
  802MOL0     C10596   3.810   3.451   3.546  0.2775 -0.6624 -0.3890
  802MOL0     O10597   3.669   3.451   3.551  0.1956  0.3636  0.9927
  802MOL0     C10598   3.601   3.455   3.425  0.4339  0.0562  0.9744
  802MOL0     C10599   3.453   3.492   3.430 -0.7866  0.0187 -0.6763
  802MOL0     C10600   3.427   3.631   3.471  0.2353  0.2586  0.0296
  802MOL0     C10601   3.282   3.675   3.453 -0.2223  0.9626 -0.4547
  802MOL0     C10602   3.212   3.646   3.321  0.8012  0.1489  0.1452
  802MOL0     C10603   3.185   3.642   3.198 -0.7432 -0.1313 -1.0962
  802MOL0     C10604   3.877   3.443   3.431  0.0047  0.5149 -0.2861
  802MOL0     C10605   4.015   3.467   3.430 -0.4573 -0.4970  0.5618
  802MOL0     C10606   4.079   3.461   3.295 -0.4550 -0.3470  0.0500
  802MOL0     H10607   4.343   3.851   3.478 -0.5570  3.3090  1.8716
  802MOL0     H10608   4.583   3.925   3.488  1.0058 -0.3675 -0.2044
  802MOL0     H10609   4.704   4.069   3.688  0.8866 -1.3831  3.6709
  802MOL0     H10610   4.782   4.023   3.538  1.8183 -0.0035  0.6621
  802MOL0     H10611   4.953   4.018   3.781  1.1275 -0.8754 -0.4298
  802MOL0     H10612   5.007   4.023   3.618 -0.6021  1.7239 -1.2022
  802MOL0     H10613   4.941   4.254   3.589 -0.4593 -1.0342  0.5092
  802MOL0     H10614   4.858   4.264   3.752  0.5102 -1.7168  3.4753
  802MOL0     H10615   5.081   4.352   3.801 -1.3216 -1.0636  4.2496
  802MOL0     H10616   5.103   4.182   3.839  1.0947  1.2738  0.6369
  802MOL0     H10617   5.188   4.339   3.592  0.3611  1.0445  1.5500
  802MOL0     H10618   5.185   4.156   3.586  2.3973  1.3858 -1.7892
  802MOL0     H10619   5.332   4.322   3.785 -3.9037 -0.3485  0.2233
  802MOL0     H10620   5.332   4.136   3.774 -1.3831 -0.6269 -0.9795
  802MOL0     H10621   5.444   4.367   3.606  0.1002  0.3364 -1.0709
  802MOL0     H10622   5.440   4.222   3.530 -2.2023  2.7898 -0.8854
  802MOL0     H10623   5.558   4.255   3.803 -1.6557 -2.9244  0.2054
  802MOL0     H10624   5.593   4.123   3.696  2.6837  0.8265 -2.3363
  802MOL0     H10625   5.734   4.190   3.444 -0.7960  1.3239 -0.3563
  802MOL0     H10626   5.948   4.399   3.346 -1.9364 -0.9368 -0.3605
  802MOL0     H10627   5.984   4.230   3.378 -0.3282  0.3222 -0.3676
  802MOL0     H10628   6.125   4.426   3.565 -3.4360 -0.1692  0.2490
  802MOL0     H10629   6.147   4.256   3.528 -1.2471 -0.8856 -0.6041
  802MOL0     H10630   6.219   4.313   3.292 -3.7748  1.8833 -1.7478
  802MOL0     H10631   6.191   4.483   3.311 -0.2174 -1.1685 -0.1286
  802MOL0     H10632   6.425   4.444   3.348  0.8756 -1.1221  0.4548
  802MOL0     H10633   6.347   4.483   3.500 -2.2453  1.9131 -1.4750
  802MOL0     H10634   6.620   4.412   3.335 -3.0847  2.5118  1.1380
  802MOL0     H10635   6.817   4.470   3.301  1.5201  0.6274 -0.3364
  802MOL0     H10636   6.923   4.334   3.267 -1.0934  2.7922 -2.5725
  802MOL0     H10637   6.945   4.427   3.418 -0.7933 -2.2381  1.5529
  802MOL0     H10638   7.167   4.394   3.648  2.0804  0.2618  0.2096
  802MOL0     H10639   7.392   4.376   3.730 -2.1231  0.8421  1.8154
  802MOL0     H10640   7.585   4.355   3.789 -2.3864 -0.1052 -1.7380
  802MOL0     H10641   7.707   4.227   3.821 -0.7899  1.2345  1.2707
  802MOL0     H10642   7.740   4.205   3.574 -0.1160  0.1828 -0.7562
  802MOL0     H10643   7.658   4.364   3.553 -0.5325  0.2495  1.0411
  802MOL0     H10644   7.927   4.339   3.712  0.2461 -1.7462 -1.5413
  802MOL0     H10645   7.818   4.483   3.697 -0.1515 -0.3619 -0.6512
  802MOL0     H10646   7.848   4.494   3.467  1.2408 -2.9193 -3.5015
  802MOL0     H10647   7.916   4.338   3.452  2.8165 -1.6392  1.9303
  802MOL0     H10648   8.115   4.431   3.575 -0.5310 -0.7419  0.0735
  802MOL0     H10649   8.097   4.521   3.427  2.0246 -1.8887 -0.0076
  802MOL0     H10650   8.012   4.607   3.716  3.4732 -1.9544  0.3809
  802MOL0     H10651   7.941   4.677   3.572  1.3154  2.6451  1.3608
  802MOL0     H10652   8.114   4.824   3.630 -5.2287 -0.7830 -2.0681
  802MOL0     H10653   8.162   4.732   3.485  0.3293 -4.0119 -0.8039
  802MOL0     H10654   8.364   4.732   3.648  1.4941 -2.5404  0.4653
  802MOL0     H10655   8.302   4.580   3.598  0.4218  0.4770 -1.2853
  802MOL0     H10656   7.361   3.945   3.682 -0.6410  0.0502 -2.5591
  802MOL0     H10657   7.143   3.968   3.601  0.1025  1.2554 -2.6350
  802MOL0     H10658   6.721   3.994   3.562 -2.0455 -1.0192 -1.7266
  802MOL0     H10659   6.485   4.080   3.574  1.4859 -1.0132 -0.0420
  802MOL0     H10660   4.658   3.713   3.840  0.7590 -0.3353 -0.0587
  802MOL0     H10661   4.430   3.642   3.853  1.2834  0.5612  1.0211
  802MOL0     H10662   4.048   3.585   3.754 -0.4551 -0.1652  0.6712
  802MOL0     H10663   3.816   3.518   3.753  1.5588  1.2010 -0.1682
  802MOL0     H10664   3.651   3.527   3.359 -0.0684  0.7455  1.3405
  802MOL0     H10665   3.627   3.360   3.377  1.7886  0.4698  0.8255
  802MOL0     H10666   3.409   3.422   3.502 -1.0962  3.7624  3.0985
  802MOL0     H10667   3.405   3.475   3.333 -0.4769  0.4130 -0.8974
  802MOL0     H10668   3.445   3.624   3.579 -0.2379  0.2684  0.1117
  802MOL0     H10669   3.489   3.702   3.417 -0.0946 -2.6785 -4.7920
  802MOL0     H10670   3.287   3.784   3.458  0.8138  0.9194 -0.4451
  802MOL0     H10671   3.217   3.635   3.532  1.6034  0.9179  1.1005
  802MOL0     H10672   3.181   3.644   3.091 -0.8974  3.6780 -1.1315
  802MOL0     H10673   3.838   3.402   3.338 -0.1027 -0.1711  0.0496
  802MOL0     H10674   4.171   3.402   3.303 -0.9626 -1.1720 -0.0975
  802MOL0     H10675   4.024   3.407   3.218  4.0021 -1.7558 -2.5094
  802MOL0     H10676   4.097   3.563   3.259  2.7106 -0.8840 -0.1266
  803MOL0     O10677   0.516   6.664   9.593 -0.3642 -0.8374 -0.1730
  803MOL0     C10678   0.563   6.554   9.590  0.4219  0.3297  0.4397
  803MOL0     O10679   0.696   6.528   9.584  0.1950 -1.2337  0.0921
  803MOL0     C10680   0.808   6.611   9.581 -0.4276  0.1201 -0.2687
  803MOL0     C10681   0.926   6.544   9.550  0.5663  0.1853  1.0916
  803MOL0     C10682   1.041   6.620   9.524 -0.4179  0.0288 -1.0047
  803MOL0     C10683   1.053   6.758   9.551  1.0585 -0.8102 -0.0298
  803MOL0     O10684   1.164   6.842   9.520  1.1781  0.2036 -0.1228
  803MOL0     C10685   1.271   6.794   9.436  0.2364  0.0672 -0.4606
  803MOL0     C10686   1.390   6.754   9.521  0.5209 -0.0865 -0.1534
  803MOL0     C10687   1.519   6.702   9.449  0.5294 -0.6291 -0.5395
  803MOL0     C10688   1.613   6.805   9.399  0.7312 -0.3393  0.7861
  803MOL0     C10689   1.755   6.762   9.354 -0.0559 -0.3902 -0.6340
  803MOL0     C10690   1.753   6.678   9.223  0.5581  0.5630 -0.4250
  803MOL0     C10691   1.786   6.749   9.093 -1.1805 -0.3877  0.2399
  803MOL0     C10692   1.875   6.873   9.108  0.0488 -0.9372 -0.1309
  803MOL0     N10693   1.937   6.908   8.984 -0.1789  0.1845  0.0309
  803MOL0     C10694   1.912   7.020   8.916 -0.7885 -0.8843  0.5186
  803MOL0     C10695   2.002   7.023   8.813  0.6489  0.6554  0.2934
  803MOL0     C10696   2.022   7.117   8.700  0.5103  0.6198 -0.1809
  803MOL0     C10697   1.887   7.163   8.632  1.2461 -0.6310 -0.3080
  803MOL0     C10698   1.825   7.272   8.721  0.3478 -0.3225  0.2084
  803MOL0     C10699   1.670   7.248   8.730 -0.6034 -0.1063 -0.0277
  803MOL0     O10700   1.614   7.308   8.607  0.2515  0.0476  0.5512
  803MOL0     C10701   1.488   7.263   8.570 -0.3921 -0.2338  0.8295
  803MOL0     C10702   1.385   7.253   8.665 -0.6828 -0.3193  0.4057
  803MOL0     C10703   1.254   7.213   8.626 -0.2079  0.1397 -0.2830
  803MOL0     C10704   1.146   7.229   8.735  0.0862  0.5643  0.2278
  803MOL0     C10705   1.234   7.162   8.491 -0.1804  0.2284 -0.3103
  803MOL0     C10706   1.102   7.116   8.439  0.4784  0.1874 -0.7437
  803MOL0     O10707   0.983   7.174   8.469 -0.6389 -0.4439  0.0152
  803MOL0     C10708   0.865   7.118   8.420  0.5617  0.1891  0.0568
  803MOL0     C10709   0.774   7.059   8.510 -0.4184  0.0377  0.0454
  803MOL0     C10710   0.662   7.006   8.465  0.0163  0.4779  0.7710
  803MOL0     C10711   0.617   7.024   8.330 -0.1444 -0.0401 -0.7067
  803MOL0     O10712   0.494   6.985   8.284  0.5643  0.0952 -0.4119
  803MOL0     C10713   0.405   6.940   8.388  0.1892 -0.6355 -0.1095
  803MOL0     C10714   0.264   6.930   8.329 -0.0322  0.1201  1.3003
  803MOL0     C10715   0.168   6.863   8.429 -0.0496  0.4129  0.0877
  803MOL0     C10716   0.026   6.894   8.414  1.0942 -0.0582 -0.4998
  803MOL0     C10717  -0.063   6.790   8.477  0.0461  0.6280  0.4590
  803MOL0     C10718  -0.197   6.853   8.494  0.0022  0.5370  0.0434
  803MOL0     C10719  -0.296   6.779   8.582  0.2565 -0.2375  0.1559
  803MOL0     C10720  -0.326   6.646   8.514 -0.3644  0.3244 -0.2863
  803MOL0    Cl10721  -0.428   6.666   8.362  0.7061 -0.2867  0.1362
  803MOL0     C10722   0.707   7.088   8.233  0.0739 -0.4281 -0.2752
  803MOL0     C10723   0.836   7.126   8.280  0.4180 -0.5184 -0.0255
  803MOL0     O10724   1.121   7.019   8.360  0.0281  0.8111  0.0815
  803MOL0     C10725   1.342   7.182   8.398  0.6037  1.1309  0.3103
  803MOL0     C10726   1.465   7.234   8.436  0.3231  0.2075  0.0692
  803MOL0     N10727   2.073   6.906   8.826 -0.1873  0.0593  0.3832
  803MOL0     N10728   2.040   6.843   8.929 -0.7410 -0.5936  0.1473
  803MOL0     C10729   0.939   6.827   9.586  0.2222  0.0877  0.3593
  803MOL0     C10730   0.815   6.757   9.600  0.2350  0.9665  0.0114
  803MOL0     C10731   0.480   6.432   9.612 -0.0872  0.2921 -0.1926
  803MOL0     C10732   0.547   6.314   9.643 -0.4596 -0.4741 -0.0277
  803MOL0     C10733   0.486   6.202   9.704 -0.3663 -0.2909 -0.1773
  803MOL0     C10734   0.353   6.202   9.722  0.1340 -1.0306 -0.4249
  803MOL0     O10735   0.280   6.101   9.783 -0.1460  0.2142 -0.7853
  803MOL0     C10736   0.349   5.993   9.847 -0.8545  0.8989 -0.9292
  803MOL0     C10737   0.264   5.894   9.920  0.1325 -0.5804  0.3976
  803MOL0     C10738   0.200   5.792   9.817 -0.4271 -0.1047  0.3006
  803MOL0     C10739   0.077   5.737   9.867 -0.0652  0.2688 -0.0955
  803MOL0     C10740   0.044   5.627   9.779  1.2788 -0.9101  0.5330
  803MOL0     C10741   0.007   5.539   9.709 -0.0219 -0.1662 -0.2560
  803MOL0     C10742   0.282   6.314   9.689 -0.6719  0.4741  0.1358
  803MOL0     C10743   0.336   6.429   9.634 -0.4609  0.1216  0.1523
  803MOL0     C10744   0.241   6.545   9.601  0.5121  0.3850  0.2643
  803MOL0     H10745   0.930   6.436   9.539 -2.6631 -0.3182  3.4191
  803MOL0     H10746   1.133   6.564   9.511  0.5104  1.3742 -0.4813
  803MOL0     H10747   1.297   6.879   9.372 -1.3737  0.0471 -1.1791
  803MOL0     H10748   1.240   6.721   9.361 -0.0035  0.7548 -1.0412
  803MOL0     H10749   1.404   6.844   9.582 -1.7557  0.6221 -0.5737
  803MOL0     H10750   1.355   6.672   9.584  2.0232 -3.8338 -3.7012
  803MOL0     H10751   1.576   6.640   9.520  0.1402 -0.6420 -0.2360
  803MOL0     H10752   1.478   6.633   9.374 -0.7385 -1.3453  0.7686
  803MOL0     H10753   1.572   6.863   9.315 -0.9075 -1.3554  0.8421
  803MOL0     H10754   1.631   6.879   9.478 -1.7418  0.7495  0.4188
  803MOL0     H10755   1.797   6.698   9.431  0.7298 -0.8554 -1.4364
  803MOL0     H10756   1.817   6.852   9.353 -0.5607 -0.0313 -1.8204
  803MOL0     H10757   1.833   6.605   9.232 -0.6760 -0.6326  1.5048
  803MOL0     H10758   1.663   6.617   9.210  0.9478 -0.9371  2.9042
  803MOL0     H10759   1.688   6.771   9.049 -0.8460  1.7840  0.4930
  803MOL0     H10760   1.842   6.689   9.021 -0.6606  2.7265 -2.1563
  803MOL0     H10761   1.816   6.959   9.139 -0.4564 -0.5000 -2.1217
  803MOL0     H10762   1.955   6.847   9.178  1.2470 -0.4888 -1.2679
  803MOL0     H10763   1.848   7.104   8.942  2.3017  1.5235  0.9488
  803MOL0     H10764   2.073   7.060   8.622 -1.5456  2.3848 -2.9860
  803MOL0     H10765   2.082   7.204   8.730 -1.5535  1.4831  1.7825
  803MOL0     H10766   1.919   7.194   8.533 -0.1369  1.0946 -0.2689
  803MOL0     H10767   1.830   7.070   8.625  1.4345 -0.5981 -3.2806
  803MOL0     H10768   1.877   7.266   8.818  0.9079 -2.9498 -0.1903
  803MOL0     H10769   1.855   7.367   8.676  4.0843 -0.2686  2.3356
  803MOL0     H10770   1.646   7.143   8.745  3.1100 -1.2389 -0.9886
  803MOL0     H10771   1.626   7.307   8.812 -1.0638 -0.8313  0.2541
  803MOL0     H10772   1.405   7.278   8.768 -0.2309 -0.9844  0.4873
  803MOL0     H10773   1.125   7.128   8.770 -0.2996  0.5883  0.0677
  803MOL0     H10774   1.050   7.265   8.696 -0.0291  0.8822  0.7893
  803MOL0     H10775   1.179   7.292   8.819  1.4753 -0.6146  0.6058
  803MOL0     H10776   0.797   7.054   8.616  1.4313 -3.5137 -0.3896
  803MOL0     H10777   0.600   6.951   8.535 -0.6479  1.4374  0.9556
  803MOL0     H10778   0.436   6.846   8.435  0.9331  1.2635  3.5547
  803MOL0     H10779   0.389   7.006   8.473 -1.2471 -3.8681  2.3732
  803MOL0     H10780   0.233   7.031   8.300  2.3625  1.3226  2.6397
  803MOL0     H10781   0.257   6.870   8.238  2.1489 -0.1933  1.3049
  803MOL0     H10782   0.189   6.886   8.533  0.7652 -0.2437  0.0806
  803MOL0     H10783   0.171   6.755   8.410 -1.6541  0.3304  0.1750
  803MOL0     H10784  -0.004   6.908   8.310  1.5748 -0.9235 -0.7740
  803MOL0     H10785   0.020   6.995   8.455  0.5271  0.3270 -1.4838
  803MOL0     H10786  -0.066   6.699   8.416 -1.6762  1.4795 -0.8049
  803MOL0     H10787  -0.019   6.759   8.572  0.0019  1.8792  0.9058
  803MOL0     H10788  -0.229   6.871   8.391  1.4910 -0.5588 -0.6437
  803MOL0     H10789  -0.185   6.956   8.530  0.8799 -0.1832  1.9205
  803MOL0     H10790  -0.389   6.836   8.590  0.5653  0.5125 -1.2171
  803MOL0     H10791  -0.248   6.754   8.677 -0.8282  0.0444  0.7881
  803MOL0     H10792  -0.396   6.596   8.581  1.2388 -2.3994 -0.5118
  803MOL0     H10793  -0.241   6.581   8.493 -1.1838 -0.5105 -1.1016
  803MOL0     H10794   0.669   7.110   8.134  0.1667 -0.5151 -0.3306
  803MOL0     H10795   0.907   7.177   8.216  2.1653  0.0541  2.2598
  803MOL0     H10796   1.318   7.152   8.296 -2.2910  1.5544  0.7779
  803MOL0     H10797   1.554   7.233   8.374  0.7796  1.4083  0.6634
  803MOL0     H10798   0.932   6.934   9.598 -1.0356 -0.2231  2.9399
  803MOL0     H10799   0.722   6.811   9.616 -1.6066 -1.2864 -2.1649
  803MOL0     H10800   0.654   6.300   9.634 -0.4570 -1.1266  0.8673
  803MOL0     H10801   0.547   6.112   9.706  0.8788  0.5407  0.8062
  803MOL0     H10802   0.406   5.933   9.776 -2.5084  0.1282 -1.6602
  803MOL0     H10803   0.423   6.030   9.918 -0.9499 -1.5698  0.5690
  803MOL0     H10804   0.185   5.949   9.971 -2.6396 -1.8712 -2.1861
  803MOL0     H10805   0.331   5.840   9.988  3.8996  3.7894  0.6495
  803MOL0     H10806   0.184   5.833   9.717 -1.1213 -2.1956 -0.5020
  803MOL0     H10807   0.276   5.715   9.802 -0.0073  0.4359 -0.4260
  803MOL0     H10808   0.002   5.816   9.873 -1.3892 -0.7411 -2.1544
  803MOL0     H10809   0.090   5.705   9.971 -0.8441  0.5136  0.0866
  803MOL0     H10810  -0.024   5.448   9.660  1.3940 -1.6579  1.4645
  803MOL0     H10811   0.178   6.321   9.721  0.0691  3.8477  2.2908
  803MOL0     H10812   0.139   6.507   9.594  1.7807 -3.0158 -2.5339
  803MOL0     H10813   0.254   6.621   9.678 -1.6839 -1.7385  2.9261
  803MOL0     H10814   0.262   6.591   9.503 -1.3345  1.2836  0.2339
  804MOL0     O10815  11.350  10.010   0.043 -0.0096 -0.2941  0.3237
  804MOL0     C10816  11.399   9.983   0.149  0.9066 -0.2721  0.1293
  804MOL0     O10817  11.528  10.026   0.177  0.6196  0.4178 -0.5579
  804MOL0     C10818  11.604  10.122   0.119  0.0562  0.4752  0.5207
  804MOL0     C10819  11.600  10.150  -0.021 -0.5624 -1.1572  0.3918
  804MOL0     C10820  11.683  10.248  -0.080  0.0316 -0.5761 -0.5594
  804MOL0     C10821  11.759  10.334   0.001  0.0461  0.9513  0.9405
  804MOL0     O10822  11.828  10.443  -0.044 -0.6138 -0.5096 -0.3340
  804MOL0     C10823  11.909  10.430  -0.169 -0.1188 -0.0307 -0.6706
  804MOL0     C10824  12.025  10.339  -0.151  0.6444  0.4273  0.1509
  804MOL0     C10825  12.157  10.409  -0.115  0.1038 -0.0137 -0.1582
  804MOL0     C10826  12.280  10.321  -0.064  0.0728 -0.6200  0.8092
  804MOL0     C10827  12.243  10.251   0.071  0.2927  0.4505 -0.5052
  804MOL0     C10828  12.351  10.180   0.152 -1.2146  0.4064 -0.1638
  804MOL0     C10829  12.481  10.267   0.166  0.4335  1.0322 -0.3841
  804MOL0     C10830  12.568  10.184   0.259  0.4415  0.3340 -0.0939
  804MOL0     N10831  12.509  10.146   0.390 -0.0599  0.1527 -0.2266
  804MOL0     C10832  12.467  10.021   0.414  0.0348 -0.3983  1.0373
  804MOL0     C10833  12.420  10.020   0.536  0.5942 -0.4226  0.6158
  804MOL0     C10834  12.363   9.901   0.618  0.4411 -0.0609 -0.9611
  804MOL0     C10835  12.215   9.892   0.584 -0.1027 -0.5668 -0.2491
  804MOL0     C10836  12.166   9.776   0.670  0.0537 -0.1462 -0.0587
  804MOL0     C10837  12.029   9.724   0.633  0.1013  0.3391 -0.0893
  804MOL0     O10838  12.035   9.618   0.533 -0.0372  0.3629 -0.6438
  804MOL0     C10839  11.926   9.542   0.508  0.5517 -0.0939  0.4878
  804MOL0     C10840  11.937   9.454   0.404 -0.2929 -0.4332  0.4211
  804MOL0     C10841  11.835   9.382   0.358  0.3401  0.3430 -0.8949
  804MOL0     C10842  11.875   9.298   0.240  0.2440 -0.3536 -0.8088
  804MOL0     C10843  11.709   9.382   0.422 -1.0332  0.6084 -1.3936
  804MOL0     C10844  11.600   9.284   0.385 -0.7421 -1.1488  0.1332
  804MOL0     O10845  11.495   9.278   0.473 -0.3369  0.0577 -0.0824
  804MOL0     C10846  11.383   9.198   0.450 -0.0385 -0.1407  0.5611
  804MOL0     C10847  11.326   9.115   0.553 -0.6463  0.1746  0.5783
  804MOL0     C10848  11.200   9.066   0.542 -0.0982 -0.0105 -0.1496
  804MOL0     C10849  11.125   9.085   0.430  0.0530  0.4482  0.3298
  804MOL0     O10850  10.989   9.056   0.430  1.2031 -0.2460 -0.5619
  804MOL0     C10851  10.903   9.149   0.356 -0.6292  0.0306  0.5311
  804MOL0     C10852  10.856   9.079   0.230 -0.5155  0.0319 -0.0003
  804MOL0     C10853  10.767   9.163   0.146  0.4697 -0.3145  0.9290
  804MOL0     C10854  10.829   9.295   0.082 -0.0293  0.6089 -0.0889
  804MOL0     C10855  10.741   9.354  -0.035  0.2520 -0.3905  0.1626
  804MOL0     C10856  10.737   9.273  -0.167  0.0092 -0.1098  0.3120
  804MOL0     C10857  10.663   9.354  -0.267 -1.0554  0.0081 -0.5300
  804MOL0     C10858  10.673   9.284  -0.399 -0.7039 -1.1100  0.0962
  804MOL0    Cl10859  10.558   9.153  -0.405 -0.0015 -0.1018  0.1127
  804MOL0     C10860  11.190   9.142   0.318  0.3149 -0.2568 -0.4689
  804MOL0     C10861  11.315   9.202   0.328 -0.1405  0.9092 -0.2062
  804MOL0     O10862  11.618   9.218   0.287 -0.0323  0.5083  0.0895
  804MOL0     C10863  11.700   9.467   0.536  0.9765 -0.2480  0.5615
  804MOL0     C10864  11.805   9.552   0.570 -0.4501  0.5386 -1.0152
  804MOL0     N10865  12.436  10.145   0.592  0.5425 -0.1956 -0.0790
  804MOL0     N10866  12.488  10.220   0.502 -0.4751  0.7680 -0.7003
  804MOL0     C10867  11.764  10.310   0.134 -0.3858 -0.0055 -0.0422
  804MOL0     C10868  11.692  10.202   0.194  0.6533  0.6035 -0.1875
  804MOL0     C10869  11.334   9.878   0.231 -0.8086  0.0862  0.5953
  804MOL0     C10870  11.407   9.837   0.344  0.5169 -1.0607 -0.8834
  804MOL0     C10871  11.368   9.731   0.416 -0.3188  0.0135 -1.3149
  804MOL0     C10872  11.246   9.660   0.389 -0.3675  0.1674  0.0475
  804MOL0     O10873  11.221   9.556   0.476  0.1969  0.2510 -0.1822
  804MOL0     C10874  11.118   9.456   0.456 -0.4795 -0.3196 -1.1239
  804MOL0     C10875  11.003   9.515   0.535 -0.6920 -0.7623  0.8031
  804MOL0     C10876  10.888   9.418   0.554  0.0006 -0.0673 -0.0693
  804MOL0     C10877  10.784   9.470   0.650 -0.0630 -0.5378  0.5258
  804MOL0     C10878  10.675   9.366   0.665 -0.5084 -0.8769 -0.2362
  804MOL0     C10879  10.589   9.280   0.675 -1.1134 -0.6943  0.4888
  804MOL0     C10880  11.171   9.715   0.287  0.5955 -0.3724  0.1552
  804MOL0     C10881  11.210   9.813   0.199  0.0391 -0.7743 -0.8126
  804MOL0     C10882  11.123   9.856   0.089 -0.1385 -0.8612  0.8924
  804MOL0     H10883  11.542  10.078  -0.078  0.5053 -1.7077 -0.0136
  804MOL0     H10884  11.666  10.269  -0.185 -2.8688 -0.5979 -0.1652
  804MOL0     H10885  11.938  10.528  -0.209  1.0442  0.2025  0.6677
  804MOL0     H10886  11.852  10.383  -0.250 -0.4707  2.2301 -1.8101
  804MOL0     H10887  12.003  10.265  -0.074  2.2305  1.0131  1.2118
  804MOL0     H10888  12.038  10.284  -0.245  1.5736  0.3495  0.3117
  804MOL0     H10889  12.191  10.477  -0.193  0.6029  0.1354  0.1845
  804MOL0     H10890  12.134  10.472  -0.028 -0.1683  2.1062 -1.6870
  804MOL0     H10891  12.309  10.241  -0.133  2.4948 -1.4111  2.6142
  804MOL0     H10892  12.365  10.389  -0.051  1.0431 -1.6569  0.0784
  804MOL0     H10893  12.172  10.169   0.054 -0.3655  0.8845  0.0862
  804MOL0     H10894  12.194  10.321   0.140  2.0318  3.3746 -2.0343
  804MOL0     H10895  12.317  10.157   0.253  2.8276 -0.5350  1.1873
  804MOL0     H10896  12.373  10.090   0.094  0.6391  0.9354 -0.3404
  804MOL0     H10897  12.457  10.368   0.200 -0.2197  1.8223 -2.9336
  804MOL0     H10898  12.529  10.279   0.068 -1.5537 -1.2376 -1.7460
  804MOL0     H10899  12.601  10.090   0.216 -0.5227 -0.5833  1.1032
  804MOL0     H10900  12.659  10.242   0.279  1.4339 -0.7754 -1.2622
  804MOL0     H10901  12.489   9.935   0.352 -1.0371 -0.9662  1.4194
  804MOL0     H10902  12.371   9.917   0.726  1.7156 -0.9792 -0.8949
  804MOL0     H10903  12.415   9.808   0.592  3.1521  1.1661 -0.3337
  804MOL0     H10904  12.161   9.981   0.620  0.2475 -1.1523  1.8961
  804MOL0     H10905  12.182   9.886   0.480 -3.0143  3.8180  0.1247
  804MOL0     H10906  12.227   9.686   0.661 -0.3335 -0.2401 -2.7575
  804MOL0     H10907  12.165   9.815   0.772 -0.9548  5.6342 -1.8831
  804MOL0     H10908  11.989   9.681   0.725 -0.5650 -1.3742 -1.1168
  804MOL0     H10909  11.969   9.805   0.588  2.4050  1.9609 -0.4087
  804MOL0     H10910  12.034   9.453   0.356  0.0257 -1.4240  1.0670
  804MOL0     H10911  11.887   9.194   0.270 -1.2229 -0.2703  0.1690
  804MOL0     H10912  11.966   9.335   0.192  0.5593  0.3658  0.2954
  804MOL0     H10913  11.799   9.305   0.162 -0.8449 -0.1310  0.2496
  804MOL0     H10914  11.391   9.092   0.637 -0.1815  2.1153  0.7976
  804MOL0     H10915  11.156   9.010   0.624 -1.9744  1.9626  0.2628
  804MOL0     H10916  10.813   9.166   0.415  0.2079  0.3952  1.7378
  804MOL0     H10917  10.954   9.242   0.330  2.7886 -1.7729  0.2415
  804MOL0     H10918  10.933   9.037   0.165  0.1356 -0.1102  0.8424
  804MOL0     H10919  10.796   8.998   0.273  0.2157 -0.6049 -0.1603
  804MOL0     H10920  10.679   9.195   0.202 -0.2437 -1.3486  0.4318
  804MOL0     H10921  10.731   9.090   0.073 -0.1776  0.0083  0.9109
  804MOL0     H10922  10.922   9.268   0.032 -0.9042 -0.9415 -0.9782
  804MOL0     H10923  10.850   9.372   0.157  0.3273 -0.3909  0.8616
  804MOL0     H10924  10.641   9.354   0.010  0.3001  0.5974  0.2990
  804MOL0     H10925  10.772   9.457  -0.057  0.0218 -0.4822 -0.5983
  804MOL0     H10926  10.697   9.174  -0.145  1.5333 -0.2772  2.7286
  804MOL0     H10927  10.843   9.262  -0.194 -0.0361  0.5650 -0.1699
  804MOL0     H10928  10.705   9.452  -0.292  3.4281 -2.3380 -3.4706
  804MOL0     H10929  10.558   9.363  -0.240 -1.1448 -0.0786 -0.8442
  804MOL0     H10930  10.772   9.240  -0.407 -0.2749 -0.2896  0.7204
  804MOL0     H10931  10.658   9.355  -0.481 -0.5213 -0.4679  0.6111
  804MOL0     H10932  11.130   9.157   0.229 -0.4592 -2.7173 -0.4402
  804MOL0     H10933  11.364   9.240   0.239  1.3285 -1.8005 -0.6713
  804MOL0     H10934  11.601   9.481   0.579  1.1338  0.4015  0.7233
  804MOL0     H10935  11.785   9.614   0.657  0.6584  1.6871 -1.5374
  804MOL0     H10936  11.813  10.384   0.196 -2.6866  1.7725 -0.2120
  804MOL0     H10937  11.699  10.191   0.301 -0.5373  1.0831 -0.0488
  804MOL0     H10938  11.503   9.872   0.379  0.5008 -2.5010  0.6977
  804MOL0     H10939  11.433   9.697   0.496 -0.9872  0.0955 -0.7279
  804MOL0     H10940  11.096   9.434   0.351 -3.8038 -0.2612 -0.5252
  804MOL0     H10941  11.167   9.369   0.501 -1.5670  0.3421  1.5089
  804MOL0     H10942  10.973   9.611   0.492  2.7380  1.4184  2.8157
  804MOL0     H10943  11.046   9.548   0.630  2.1513  0.6803 -0.8353
  804MOL0     H10944  10.839   9.402   0.458 -1.2480 -1.2139  0.7306
  804MOL0     H10945  10.919   9.320   0.591 -0.9842 -0.6272 -0.7001
  804MOL0     H10946  10.751   9.563   0.603  0.8349 -1.2957 -1.7231
  804MOL0     H10947  10.829   9.488   0.748 -0.6306  0.9962  0.5315
  804MOL0     H10948  10.518   9.202   0.695  0.2018 -2.2567 -0.6795
  804MOL0     H10949  11.077   9.666   0.264  1.3178 -0.4960 -2.8476
  804MOL0     H10950  11.032   9.796   0.090 -1.9815  1.7620  0.8179
  804MOL0     H10951  11.090   9.960   0.100 -1.1911 -1.3238  2.4774
  804MOL0     H10952  11.177   9.847  -0.006  0.8264  0.1449  1.3182
  805MOL0     O10953   9.159   4.754   7.970 -0.3218  0.3505  0.1252
  805MOL0     C10954   9.037   4.763   7.944 -0.6576 -0.4600 -0.0602
  805MOL0     O10955   8.988   4.785   7.821  0.4742  0.6487 -0.8696
  805MOL0     C10956   9.073   4.770   7.709  0.7125  0.0654  0.2862
  805MOL0     C10957   9.173   4.671   7.705 -0.3988 -0.6877 -0.7166
  805MOL0     C10958   9.255   4.659   7.592 -0.9012 -0.6916  1.1808
  805MOL0     C10959   9.230   4.742   7.475 -0.4631 -0.0319 -0.5240
  805MOL0     O10960   9.312   4.710   7.374 -0.9292  0.3133  0.0194
  805MOL0     C10961   9.325   4.790   7.255 -0.3609  0.1970  0.8225
  805MOL0     C10962   9.439   4.890   7.286 -0.0275  0.1250  0.7948
  805MOL0     C10963   9.574   4.833   7.229 -0.1062  0.9286 -0.8662
  805MOL0     C10964   9.584   4.841   7.078  0.3502  1.4715  0.0040
  805MOL0     C10965   9.731   4.813   7.035  1.0751  0.2973 -0.1879
  805MOL0     C10966   9.725   4.703   6.927 -0.7201  0.0449 -0.6250
  805MOL0     C10967   9.869   4.670   6.884 -0.2725 -0.3046  0.3613
  805MOL0     C10968   9.942   4.792   6.824  0.3032  0.2430 -0.5115
  805MOL0     N10969  10.064   4.749   6.761 -1.0438  0.0588 -0.1306
  805MOL0     C10970  10.185   4.817   6.790  0.4137  0.0885 -0.2294
  805MOL0     C10971  10.264   4.795   6.689  0.1630  0.3112 -0.5751
  805MOL0     C10972  10.406   4.844   6.667  0.4718  0.3437 -0.5309
  805MOL0     C10973  10.486   4.781   6.552 -0.1874 -0.0761 -0.0438
  805MOL0     C10974  10.506   4.631   6.585 -0.4000  0.4857  0.1950
  805MOL0     C10975  10.545   4.547   6.467  0.1505 -1.2702 -0.0767
  805MOL0     O10976  10.672   4.588   6.416 -0.1435  0.2677 -0.0362
  805MOL0     C10977  10.786   4.551   6.487 -0.2480 -0.2050 -0.3151
  805MOL0     C10978  10.797   4.450   6.585  0.7544 -0.3496 -0.9904
  805MOL0     C10979  10.923   4.403   6.635  0.5130  0.0670  0.1832
  805MOL0     C10980  10.923   4.285   6.721  0.4526  0.3715 -0.3062
  805MOL0     C10981  11.042   4.469   6.593  0.1506 -0.4816  0.2308
  805MOL0     C10982  11.181   4.437   6.630  0.5719 -0.4481  0.3132
  805MOL0     O10983  11.280   4.509   6.559 -0.4929  0.7116  0.5682
  805MOL0     C10984  11.412   4.473   6.579 -0.3507 -0.4833  0.2812
  805MOL0     C10985  11.505   4.579   6.613 -0.3937 -0.5736 -0.1119
  805MOL0     C10986  11.637   4.548   6.619 -0.0485  0.6227  0.0191
  805MOL0     C10987  11.680   4.415   6.591  0.1379 -1.0788 -0.0223
  805MOL0     O10988  11.818   4.403   6.591 -0.7087 -0.1900 -0.3030
  805MOL0     C10989  11.872   4.275   6.633  0.2857 -0.6950  0.2159
  805MOL0     C10990  11.985   4.305   6.729  0.4495 -0.8079 -0.4923
  805MOL0     C10991  12.127   4.250   6.684 -0.0516  0.2575  0.4479
  805MOL0     C10992  12.241   4.308   6.766 -0.6676  0.9647 -0.0014
  805MOL0     C10993  12.362   4.245   6.705 -0.1826  0.6374  0.8072
  805MOL0     C10994  12.484   4.318   6.768 -0.0691  0.7204 -0.5244
  805MOL0     C10995  12.618   4.256   6.726  0.9486  0.4200 -0.4838
  805MOL0     C10996  12.694   4.217   6.851  0.2464  0.1615  0.7135
  805MOL0    Cl10997  12.759   4.365   6.948 -0.5101 -0.1442 -0.1269
  805MOL0     C10998  11.595   4.316   6.558 -0.0276  0.7883  0.1606
  805MOL0     C10999  11.465   4.345   6.552 -1.2713  0.2086  0.2935
  805MOL0     O11000  11.204   4.362   6.722  0.2820  0.0209  0.4725
  805MOL0     C11001  11.025   4.580   6.500 -0.1275 -0.2531 -0.7214
  805MOL0     C11002  10.906   4.608   6.440  0.2518 -1.0191 -0.8938
  805MOL0     N11003  10.193   4.710   6.603  0.1240  0.3300 -0.2445
  805MOL0     N11004  10.068   4.694   6.639 -0.4106 -0.3976 -0.6773
  805MOL0     C11005   9.139   4.845   7.488  0.6296  0.7742 -0.0535
  805MOL0     C11006   9.058   4.858   7.603 -0.2168 -0.0933 -0.6303
  805MOL0     C11007   8.944   4.745   8.060 -0.1981  0.2501 -1.0218
  805MOL0     C11008   8.987   4.776   8.187  0.1345 -0.7557  1.0144
  805MOL0     C11009   8.893   4.767   8.299  0.7928  0.5045  0.5357
  805MOL0     C11010   8.756   4.721   8.280  0.0336  0.2302  0.1634
  805MOL0     O11011   8.664   4.734   8.378  0.4119  0.4160 -0.0756
  805MOL0     C11012   8.695   4.786   8.509 -0.0572  0.5673 -0.6029
  805MOL0     C11013   8.777   4.687   8.590  0.2667 -0.1398 -0.4958
  805MOL0     C11014   8.867   4.773   8.690 -0.2902 -0.9147  0.3800
  805MOL0     C11015   8.952   4.669   8.775  0.6837 -0.6639 -0.0603
  805MOL0     C11016   8.996   4.732   8.900 -0.5423  0.1315 -0.3160
  805MOL0     C11017   9.038   4.755   9.014  0.4583 -0.5295  0.2184
  805MOL0     C11018   8.720   4.682   8.152 -0.1867 -0.3323  0.6752
  805MOL0     C11019   8.817   4.687   8.050 -0.4503 -0.2773  0.0857
  805MOL0     C11020   8.776   4.616   7.926 -0.2542 -0.1561 -1.1801
  805MOL0     H11021   9.195   4.609   7.792  0.2309 -1.8053 -1.6381
  805MOL0     H11022   9.331   4.582   7.581 -0.2127  0.3898 -3.3677
  805MOL0     H11023   9.237   4.852   7.236 -0.5991 -0.1458  0.7977
  805MOL0     H11024   9.342   4.736   7.162  1.7013  0.1115  1.1897
  805MOL0     H11025   9.412   4.981   7.232 -2.0089 -0.7315  0.2325
  805MOL0     H11026   9.444   4.915   7.393 -2.7529 -1.2365  1.3527
  805MOL0     H11027   9.650   4.903   7.265  2.4500 -0.8512 -2.5356
  805MOL0     H11028   9.597   4.732   7.263 -1.2465  0.6977 -0.7270
  805MOL0     H11029   9.523   4.763   7.032  2.3630  0.2596 -0.7956
  805MOL0     H11030   9.549   4.941   7.050  0.7701  1.7340  0.4054
  805MOL0     H11031   9.789   4.770   7.117 -0.0053 -4.0108 -1.3865
  805MOL0     H11032   9.774   4.907   6.998 -1.3397  2.7240  2.6826
  805MOL0     H11033   9.682   4.614   6.975 -2.1418  0.1760 -1.6052
  805MOL0     H11034   9.661   4.733   6.843  1.6817  1.6008 -2.0110
  805MOL0     H11035   9.849   4.595   6.807 -1.1549 -1.6028  1.7961
  805MOL0     H11036   9.930   4.618   6.958 -0.6643 -0.9588  0.2400
  805MOL0     H11037   9.877   4.822   6.742  0.0345 -2.6690 -1.4753
  805MOL0     H11038   9.960   4.882   6.885  1.1244  0.2862 -0.7945
  805MOL0     H11039  10.206   4.883   6.873  2.0736 -0.7394  0.0406
  805MOL0     H11040  10.461   4.821   6.758 -1.3303 -0.7611  0.3286
  805MOL0     H11041  10.411   4.953   6.657  3.3446  0.2720 -0.5260
  805MOL0     H11042  10.429   4.785   6.459 -1.5212 -2.0341  0.6299
  805MOL0     H11043  10.578   4.839   6.542 -1.7367  2.2917 -1.7345
  805MOL0     H11044  10.588   4.622   6.657 -0.1152 -0.9020 -0.2651
  805MOL0     H11045  10.417   4.584   6.628  0.4691 -4.0605 -2.3726
  805MOL0     H11046  10.543   4.443   6.502 -2.0206 -0.4305  2.7059
  805MOL0     H11047  10.457   4.553   6.402 -1.3878  0.7831  2.0244
  805MOL0     H11048  10.716   4.390   6.626  0.7168 -1.2739 -2.3347
  805MOL0     H11049  10.964   4.304   6.820  1.1502 -0.0964 -0.4963
  805MOL0     H11050  10.982   4.211   6.667 -0.4211 -0.6866  0.1631
  805MOL0     H11051  10.825   4.240   6.738  1.0677 -0.7443  0.3661
  805MOL0     H11052  11.478   4.680   6.642  1.3555  0.0516 -0.5577
  805MOL0     H11053  11.709   4.628   6.636  2.8966 -1.1281 -3.0065
  805MOL0     H11054  11.799   4.207   6.675 -0.9794 -0.7316 -1.8770
  805MOL0     H11055  11.912   4.232   6.540 -1.3034  1.0224 -1.3565
  805MOL0     H11056  12.005   4.413   6.738 -0.4557 -0.4405 -2.3565
  805MOL0     H11057  11.973   4.259   6.828  2.7345 -1.2476 -0.3812
  805MOL0     H11058  12.132   4.276   6.578  1.9368 -0.2477  0.3748
  805MOL0     H11059  12.129   4.141   6.690  1.4467  0.3443  2.2356
  805MOL0     H11060  12.238   4.291   6.874 -0.4875  3.1943  0.3937
  805MOL0     H11061  12.236   4.416   6.750 -1.7389  0.8338 -0.6334
  805MOL0     H11062  12.369   4.136   6.717 -0.5259  0.1730 -2.3822
  805MOL0     H11063  12.360   4.267   6.598 -0.2687 -1.3329  0.3717
  805MOL0     H11064  12.474   4.317   6.877 -1.3685  2.0402 -0.5968
  805MOL0     H11065  12.478   4.423   6.737  0.3710  0.9806  0.2537
  805MOL0     H11066  12.681   4.320   6.663  1.8772 -0.3880 -0.3930
  805MOL0     H11067  12.607   4.164   6.668 -1.3920  0.2742  0.1150
  805MOL0     H11068  12.786   4.163   6.828  1.5805  1.3589  2.9013
  805MOL0     H11069  12.634   4.157   6.920  0.5924  1.1762  1.9403
  805MOL0     H11070  11.635   4.219   6.533  1.8738  1.1878  1.4725
  805MOL0     H11071  11.397   4.265   6.525  1.3463 -2.4077  0.8720
  805MOL0     H11072  11.107   4.650   6.490 -0.4787  1.1039  3.5772
  805MOL0     H11073  10.912   4.672   6.353  3.8444 -0.4871 -0.3916
  805MOL0     H11074   9.121   4.919   7.411 -2.9045  0.0492 -0.1081
  805MOL0     H11075   8.983   4.937   7.605  1.1232  1.2526 -1.5744
  805MOL0     H11076   9.078   4.835   8.193  0.0818  0.1722 -3.5137
  805MOL0     H11077   8.921   4.812   8.394 -2.4074 -1.8587  2.7810
  805MOL0     H11078   8.747   4.880   8.487 -1.3981  1.0569 -1.9107
  805MOL0     H11079   8.613   4.826   8.570 -0.2932 -1.3043  0.3899
  805MOL0     H11080   8.839   4.619   8.531  0.1233  1.9126 -3.2069
  805MOL0     H11081   8.699   4.633   8.646 -0.8659  3.6542  1.9942
  805MOL0     H11082   8.929   4.843   8.632 -1.7393 -1.7710 -2.3712
  805MOL0     H11083   8.808   4.830   8.761  1.1717 -0.9365  1.6783
  805MOL0     H11084   9.043   4.636   8.724 -0.4056 -2.9874 -0.6576
  805MOL0     H11085   8.891   4.582   8.801  1.8584 -2.5904 -3.1469
  805MOL0     H11086   9.060   4.785   9.114  0.8479 -1.6758  0.4882
  805MOL0     H11087   8.618   4.646   8.147 -0.1128 -0.3585 -1.9877
  805MOL0     H11088   8.698   4.541   7.939 -0.2670 -0.4136 -2.6032
  805MOL0     H11089   8.745   4.697   7.859  0.0045 -0.0180 -1.1342
  805MOL0     H11090   8.860   4.569   7.873  1.4307  3.6970 -2.3566
  806MOL0     O11091   6.399  11.149   8.766  0.2926  1.1064 -0.4798
  806MOL0     C11092   6.379  11.256   8.820  0.1099  1.0640 -0.1243
  806MOL0     O11093   6.436  11.297   8.930 -0.6712 -0.2326 -0.1741
  806MOL0     C11094   6.564  11.254   8.975  0.8409  0.2001  0.0549
  806MOL0     C11095   6.639  11.144   8.913  0.4897 -0.5083 -0.6517
  806MOL0     C11096   6.774  11.115   8.958  0.4896  0.3688  0.3479
  806MOL0     C11097   6.833  11.183   9.066 -0.0001  0.7633 -0.2616
  806MOL0     O11098   6.960  11.152   9.117  0.7098  0.4112 -0.4863
  806MOL0     C11099   7.033  11.039   9.063 -0.8714 -0.2356 -0.4856
  806MOL0     C11100   7.172  11.015   9.128 -0.5796 -0.8271 -0.4188
  806MOL0     C11101   7.268  11.129   9.085 -0.8752 -0.3975 -0.6233
  806MOL0     C11102   7.411  11.114   9.143 -0.1592  0.1735 -0.2052
  806MOL0     C11103   7.520  11.209   9.088  0.1678 -0.4588 -0.6188
  806MOL0     C11104   7.649  11.202   9.155  0.5176  0.2109 -0.2029
  806MOL0     C11105   7.744  11.307   9.106 -0.5602 -0.2013 -0.3320
  806MOL0     C11106   7.878  11.277   9.181  0.0731  0.1977  0.3026
  806MOL0     N11107   7.977  11.359   9.110  0.2106  0.3370 -0.6181
  806MOL0     C11108   8.037  11.333   8.993  0.4225 -0.2622  0.5318
  806MOL0     C11109   8.099  11.448   8.965  0.0509  0.4497  1.1206
  806MOL0     C11110   8.165  11.474   8.839  1.6501  0.5660  0.4289
  806MOL0     C11111   8.320  11.471   8.863  0.3193  0.9362 -0.1603
  806MOL0     C11112   8.395  11.490   8.730 -0.5425 -0.3098 -0.4521
  806MOL0     C11113   8.546  11.487   8.762 -0.9122 -0.6898 -0.3199
  806MOL0     O11114   8.621  11.468   8.639 -0.3964  0.5716 -0.5879
  806MOL0     C11115   8.724  11.383   8.664  0.7418 -0.4377 -0.3608
  806MOL0     C11116   8.713  11.246   8.632 -0.0868  0.0037  0.5666
  806MOL0     C11117   8.822  11.162   8.631  0.0552  0.1910 -0.4359
  806MOL0     C11118   8.807  11.023   8.588 -0.2940  0.4268  0.0865
  806MOL0     C11119   8.941  11.209   8.687  0.6026  0.0481 -0.3408
  806MOL0     C11120   9.075  11.138   8.691 -0.2366 -0.0621  1.1088
  806MOL0     O11121   9.154  11.168   8.795  0.4571  1.0757 -0.8056
  806MOL0     C11122   9.267  11.095   8.808 -0.3396 -0.0804  0.6147
  806MOL0     C11123   9.289  11.015   8.931 -0.8425 -0.2648 -0.2010
  806MOL0     C11124   9.418  10.967   8.961 -0.0266 -0.5692  0.5496
  806MOL0     C11125   9.529  11.003   8.880  0.9618 -0.5546 -0.4895
  806MOL0     O11126   9.659  10.985   8.917  0.0976  0.6688 -0.1241
  806MOL0     C11127   9.695  10.881   9.004  0.0664  0.5957 -0.9623
  806MOL0     C11128   9.846  10.856   9.029  0.2934 -0.3050  1.0234
  806MOL0     C11129   9.858  10.726   9.117 -0.2567  0.1985  0.8452
  806MOL0     C11130  10.009  10.682   9.132  0.4479 -1.0658  0.9360
  806MOL0     C11131  10.083  10.759   9.246 -0.2999  0.5849  0.6953
  806MOL0     C11132  10.046  10.727   9.384 -0.1871  0.2074 -0.6184
  806MOL0     C11133  10.094  10.827   9.481 -0.4980  0.9253  0.2203
  806MOL0     C11134  10.058  10.784   9.621  0.0690 -0.5071  0.5676
  806MOL0    Cl11135  10.187  10.666   9.683 -0.3449  0.5677  0.0973
  806MOL0     C11136   9.507  11.077   8.764 -1.1259  0.3854  0.2475
  806MOL0     C11137   9.379  11.120   8.725  0.2371 -0.2301  0.2537
  806MOL0     O11138   9.102  11.055   8.600  0.0003 -0.3944  0.0436
  806MOL0     C11139   8.951  11.344   8.736 -0.2818  0.1438 -0.1165
  806MOL0     C11140   8.839  11.433   8.723 -0.7145 -0.5193 -0.5127
  806MOL0     N11141   8.093  11.541   9.066  0.5981 -0.1746 -0.3698
  806MOL0     N11142   8.008  11.485   9.148 -0.3611  0.9695 -0.9351
  806MOL0     C11143   6.754  11.284   9.130 -0.0379 -0.1410  0.1121
  806MOL0     C11144   6.625  11.318   9.080  0.3664 -0.1744 -0.6591
  806MOL0     C11145   6.271  11.349   8.780 -0.1072  0.0312 -0.3185
  806MOL0     C11146   6.265  11.476   8.836 -0.0640 -0.1403  1.4112
  806MOL0     C11147   6.152  11.557   8.791  0.3788 -0.4558  0.4018
  806MOL0     C11148   6.049  11.519   8.704 -0.3199 -0.2104  0.0523
  806MOL0     O11149   5.956  11.611   8.670  0.2775  0.2227 -0.4570
  806MOL0     C11150   5.847  11.583   8.574 -0.0221 -0.8820  0.6161
  806MOL0     C11151   5.807  11.723   8.519  0.4869 -0.0507 -0.1691
  806MOL0     C11152   5.920  11.812   8.472 -0.3795 -0.0493 -0.3130
  806MOL0     C11153   5.884  11.949   8.423  0.5261 -0.3826 -0.2604
  806MOL0     C11154   5.833  11.954   8.285  0.1801 -0.1002 -0.4538
  806MOL0     C11155   5.801  11.943   8.172  0.0058 -0.4023 -0.0566
  806MOL0     C11156   6.063  11.393   8.656 -0.2450  0.6777  0.5947
  806MOL0     C11157   6.171  11.309   8.687 -0.0448  0.3916 -0.1461
  806MOL0     C11158   6.174  11.183   8.606  0.3441 -0.6945 -0.6669
  806MOL0     H11159   6.599  11.097   8.824  1.5608 -0.9180 -0.9328
  806MOL0     H11160   6.819  11.032   8.905 -1.2558  0.5836 -1.6119
  806MOL0     H11161   7.044  11.045   8.955  0.1144 -0.0325 -0.3894
  806MOL0     H11162   6.973  10.948   9.075 -4.2939  1.9334  0.2631
  806MOL0     H11163   7.165  11.009   9.237  0.5712 -1.7875 -0.3725
  806MOL0     H11164   7.221  10.923   9.096  2.5257  0.6394 -0.2419
  806MOL0     H11165   7.277  11.133   8.976 -1.0287  0.4019 -0.6135
  806MOL0     H11166   7.223  11.225   9.113  0.3455  0.1396 -0.4445
  806MOL0     H11167   7.408  11.126   9.252 -0.6122 -1.2601 -0.0386
  806MOL0     H11168   7.441  11.011   9.125  1.4232  0.8964 -1.9733
  806MOL0     H11169   7.482  11.312   9.097  0.0920 -0.5938  0.6988
  806MOL0     H11170   7.528  11.195   8.980 -1.5869 -2.4895 -0.5428
  806MOL0     H11171   7.642  11.221   9.262  1.1075 -1.4449  0.1477
  806MOL0     H11172   7.684  11.099   9.149 -2.8643 -1.3051  2.7536
  806MOL0     H11173   7.698  11.405   9.117  1.0975  0.6586 -0.7753
  806MOL0     H11174   7.770  11.302   8.999  2.1800  0.3917  0.2489
  806MOL0     H11175   7.873  11.308   9.285  2.4916 -3.0498  1.5752
  806MOL0     H11176   7.901  11.170   9.187 -2.6174 -0.4150  1.2670
  806MOL0     H11177   8.023  11.247   8.929 -1.9175 -1.1320  2.0787
  806MOL0     H11178   8.129  11.568   8.797 -0.4667  0.4354  1.8441
  806MOL0     H11179   8.145  11.402   8.760 -0.6274  1.1162  0.4551
  806MOL0     H11180   8.353  11.550   8.931  0.0011  2.7681 -2.0284
  806MOL0     H11181   8.347  11.378   8.913 -1.6730 -0.2720 -1.1989
  806MOL0     H11182   8.357  11.406   8.670  1.2614 -1.9168  0.5127
  806MOL0     H11183   8.381  11.586   8.681  0.1970 -0.4614 -0.9936
  806MOL0     H11184   8.576  11.579   8.814 -0.6476 -0.7344 -0.3941
  806MOL0     H11185   8.561  11.405   8.833  0.3598  0.8411  1.2623
  806MOL0     H11186   8.617  11.220   8.590  1.2885 -0.6676 -2.4398
  806MOL0     H11187   8.719  11.018   8.524 -0.4849  0.2686  0.3609
  806MOL0     H11188   8.797  10.965   8.680 -0.2809 -3.1046 -1.9541
  806MOL0     H11189   8.898  10.988   8.538 -1.2466  0.9037 -2.0695
  806MOL0     H11190   9.202  10.991   8.992  0.4274  1.0499  2.2515
  806MOL0     H11191   9.426  10.913   9.055 -1.7685 -0.8414  0.5755
  806MOL0     H11192   9.645  10.906   9.098  0.4848 -0.1493 -0.5272
  806MOL0     H11193   9.665  10.779   8.977  1.1645 -0.1330  0.4223
  806MOL0     H11194   9.902  10.837   8.937  0.1858  0.0619  0.8787
  806MOL0     H11195   9.890  10.942   9.082  1.9969 -0.7290  0.3392
  806MOL0     H11196   9.803  10.640   9.078 -1.5763  1.4577 -0.1586
  806MOL0     H11197   9.817  10.754   9.214  0.2709  0.8204  0.8947
  806MOL0     H11198  10.062  10.695   9.037  1.0948  0.6770  1.4864
  806MOL0     H11199  10.011  10.574   9.150 -2.2952 -1.2940  0.3552
  806MOL0     H11200  10.192  10.754   9.243 -0.3513 -0.3060 -0.4145
  806MOL0     H11201  10.053  10.861   9.219 -1.8048  0.0412  0.2123
  806MOL0     H11202  10.094  10.631   9.402  3.7689  1.3405 -3.8549
  806MOL0     H11203   9.937  10.723   9.398 -0.0163 -0.0348  0.8813
  806MOL0     H11204  10.046  10.922   9.451 -0.8860  0.3407 -1.1050
  806MOL0     H11205  10.203  10.833   9.475 -0.4784  0.5609  0.2057
  806MOL0     H11206   9.956  10.746   9.617 -0.8051  1.7324  0.6356
  806MOL0     H11207  10.059  10.872   9.686 -0.8543  0.9969 -1.3588
  806MOL0     H11208   9.590  11.122   8.711  0.4883 -1.0787  1.4601
  806MOL0     H11209   9.371  11.179   8.634  1.5839  0.5338  0.6059
  806MOL0     H11210   9.047  11.380   8.771  1.5762 -3.6266 -0.8332
  806MOL0     H11211   8.846  11.541   8.737  1.6157 -0.5745 -0.8653
  806MOL0     H11212   6.797  11.333   9.217 -1.3574 -0.9073  1.2365
  806MOL0     H11213   6.576  11.398   9.134  0.7951 -0.3543  0.0131
  806MOL0     H11214   6.330  11.506   8.918 -2.6332  0.0936  3.4938
  806MOL0     H11215   6.141  11.659   8.828 -0.4603  0.3831 -1.9828
  806MOL0     H11216   5.876  11.528   8.484  2.8052  1.4598 -0.1108
  806MOL0     H11217   5.764  11.530   8.621 -1.1628  0.3059 -0.0111
  806MOL0     H11218   5.762  11.791   8.592 -0.2979 -1.1410  0.4024
  806MOL0     H11219   5.728  11.714   8.444 -1.5369 -1.2822  1.9587
  806MOL0     H11220   5.993  11.819   8.553  0.3825  1.6744 -1.0957
  806MOL0     H11221   5.954  11.750   8.389  2.6287  0.5855  0.3136
  806MOL0     H11222   5.973  12.012   8.429  0.0137  0.4424 -1.0770
  806MOL0     H11223   5.805  11.981   8.492  1.2590 -2.4268  1.6671
  806MOL0     H11224   5.784  11.930   8.066 -1.3209  0.3056  0.0501
  806MOL0     H11225   5.988  11.352   8.589  0.8209  0.6262 -0.6161
  806MOL0     H11226   6.193  11.100   8.675  1.2915  0.2435  0.2332
  806MOL0     H11227   6.094  11.169   8.533  1.3888  1.6529 -2.3663
  806MOL0     H11228   6.262  11.194   8.542  0.5618 -2.2795 -0.6858
  807MOL0     O11229   6.231  11.425   2.337 -0.8554  0.1243  0.1145
  807MOL0     C11230   6.346  11.432   2.286 -0.2289  0.8510  0.0545
  807MOL0     O11231   6.383  11.348   2.189  0.2629  0.6346 -0.2583
  807MOL0     C11232   6.310  11.287   2.091 -0.4295  0.0696  0.1571
  807MOL0     C11233   6.178  11.321   2.059 -0.2616  0.5603  0.5533
  807MOL0     C11234   6.119  11.253   1.946 -0.1175  1.0134  0.2077
  807MOL0     C11235   6.179  11.161   1.870 -0.5032  0.1965 -0.2371
  807MOL0     O11236   6.111  11.097   1.764 -0.0067  0.1032  0.1011
  807MOL0     C11237   5.975  11.112   1.739 -0.4685 -0.4807 -0.3048
  807MOL0     C11238   5.950  11.231   1.653  0.4354 -1.1384 -1.0156
  807MOL0     C11239   5.810  11.274   1.647 -0.0467 -0.4720 -0.4439
  807MOL0     C11240   5.778  11.412   1.584 -0.0055 -0.6055 -0.2290
  807MOL0     C11241   5.628  11.438   1.602  0.2482 -0.9298 -0.3647
  807MOL0     C11242   5.575  11.532   1.492  0.4271  0.3603  0.1738
  807MOL0     C11243   5.430  11.557   1.520  0.1931  0.5051 -1.0833
  807MOL0     C11244   5.347  11.623   1.416 -0.0364 -0.2761 -0.0867
  807MOL0     N11245   5.385  11.769   1.414 -0.2479 -0.2983  0.3474
  807MOL0     C11246   5.409  11.845   1.524  0.1435 -0.0103  0.2917
  807MOL0     C11247   5.409  11.972   1.471 -0.3373 -0.1065  0.1030
  807MOL0     C11248   5.392  12.093   1.561  0.4374  0.4237 -0.0104
  807MOL0     C11249   5.464  12.212   1.496 -0.2595 -0.2915  0.0228
  807MOL0     C11250   5.451  12.343   1.576  0.2782  0.0876  0.3763
  807MOL0     C11251   5.554  12.360   1.681 -1.0121  0.2005  0.1582
  807MOL0     O11252   5.661  12.434   1.618  0.2767  0.1842  0.7208
  807MOL0     C11253   5.787  12.435   1.669 -0.2378  0.2016 -0.8822
  807MOL0     C11254   5.825  12.367   1.781 -1.0316  1.2899 -0.1443
  807MOL0     C11255   5.957  12.374   1.833 -0.8092 -0.2714  0.3048
  807MOL0     C11256   5.990  12.280   1.947 -0.2399 -0.8312 -0.1248
  807MOL0     C11257   6.048  12.465   1.778 -0.6782 -0.2324  0.7004
  807MOL0     C11258   6.184  12.513   1.828 -0.3037  0.3409  0.2384
  807MOL0     O11259   6.253  12.421   1.900 -0.2598 -0.3742  0.5273
  807MOL0     C11260   6.380  12.453   1.945  0.1884 -0.3489  0.4449
  807MOL0     C11261   6.492  12.452   1.859  0.2642 -0.2145  0.2990
  807MOL0     C11262   6.612  12.475   1.902 -0.5992 -0.0393 -0.2943
  807MOL0     C11263   6.639  12.498   2.040  0.0849 -0.2488  0.2950
  807MOL0     O11264   6.770  12.516   2.083 -0.1626  0.2772 -0.7095
  807MOL0     C11265   6.791  12.595   2.203 -0.3056 -0.5095  0.3678
  807MOL0     C11266   6.937  12.609   2.238  0.5484 -0.0394 -0.3295
  807MOL0     C11267   6.966  12.651   2.389 -0.4615  0.6717  0.2054
  807MOL0     C11268   7.107  12.708   2.409  0.3111  0.7307  0.5701
  807MOL0     C11269   7.127  12.732   2.558 -0.0620 -0.3175 -0.2147
  807MOL0     C11270   7.165  12.604   2.633  0.6310 -0.1843  0.8774
  807MOL0     C11271   7.174  12.634   2.781 -0.1972  0.3541 -0.2207
  807MOL0     C11272   7.287  12.544   2.838 -0.4908 -0.0548 -0.8213
  807MOL0    Cl11273   7.283  12.548   3.022 -0.4376  0.6743  0.2088
  807MOL0     C11274   6.533  12.499   2.126  0.1122 -0.6883  0.1567
  807MOL0     C11275   6.402  12.486   2.080  0.3916 -0.0222 -0.0193
  807MOL0     O11276   6.223  12.626   1.800  0.9633 -0.0967 -0.3348
  807MOL0     C11277   6.001  12.531   1.664 -0.5930  0.3928 -0.8359
  807MOL0     C11278   5.875  12.522   1.613 -0.5347 -0.7736 -0.0609
  807MOL0     N11279   5.408  11.960   1.329  0.3025  0.2182 -0.3118
  807MOL0     N11280   5.402  11.840   1.298  0.3582  0.1836  0.2015
  807MOL0     C11281   6.311  11.126   1.904 -0.0649  0.9466 -0.2200
  807MOL0     C11282   6.372  11.191   2.009 -0.6665 -0.6402  0.9115
  807MOL0     C11283   6.468  11.501   2.347 -0.2895 -0.1539  0.1665
  807MOL0     C11284   6.594  11.499   2.282  0.3828  0.0825 -0.0274
  807MOL0     C11285   6.706  11.539   2.344  0.2090 -0.3922 -0.7849
  807MOL0     C11286   6.707  11.597   2.475  0.2466  1.1573  0.3631
  807MOL0     O11287   6.818  11.639   2.548 -0.4371  0.2079 -0.2627
  807MOL0     C11288   6.953  11.615   2.504 -0.5812  0.3694  0.2687
  807MOL0     C11289   7.014  11.473   2.526  0.1505 -0.0062 -1.2745
  807MOL0     C11290   7.155  11.461   2.492  0.1861 -0.0068 -0.3864
  807MOL0     C11291   7.257  11.521   2.598  0.1330 -0.5027  0.3933
  807MOL0     C11292   7.396  11.493   2.560  0.1251 -0.2892  0.2706
  807MOL0     C11293   7.511  11.464   2.532 -0.4861  0.2970  0.4398
  807MOL0     C11294   6.586  11.602   2.535 -0.8083  0.3674 -0.1726
  807MOL0     C11295   6.467  11.575   2.469  0.0032  0.3421 -0.3521
  807MOL0     C11296   6.350  11.592   2.559 -0.3674 -0.3995  0.5206
  807MOL0     H11297   6.131  11.407   2.105  0.9299  1.5414 -0.0068
  807MOL0     H11298   6.017  11.276   1.917 -0.3121 -1.3476 -1.2425
  807MOL0     H11299   5.915  11.106   1.830  0.5754 -1.3226  0.3551
  807MOL0     H11300   5.946  11.027   1.677  3.2540 -1.8507 -0.4404
  807MOL0     H11301   6.008  11.320   1.679  0.6618 -1.6963  0.4576
  807MOL0     H11302   5.972  11.192   1.553 -0.8460 -0.7156 -1.4870
  807MOL0     H11303   5.747  11.199   1.599  0.1916  0.0465 -1.5995
  807MOL0     H11304   5.773  11.292   1.749  2.3301  4.4919 -0.1591
  807MOL0     H11305   5.837  11.495   1.626  1.1103 -0.9175 -1.1484
  807MOL0     H11306   5.792  11.416   1.476  0.9584  0.1729 -0.0950
  807MOL0     H11307   5.594  11.468   1.702  1.7760  2.0277 -0.6203
  807MOL0     H11308   5.585  11.341   1.575  1.9016 -1.4628 -1.1974
  807MOL0     H11309   5.637  11.622   1.491 -0.7362  1.1830 -0.8469
  807MOL0     H11310   5.588  11.477   1.398  0.4064 -3.1485  2.0506
  807MOL0     H11311   5.419  11.606   1.618 -0.6314 -2.0685  0.2065
  807MOL0     H11312   5.378  11.464   1.545 -5.7084  3.4021 -0.6721
  807MOL0     H11313   5.341  11.588   1.312 -1.1871  0.3858 -0.2567
  807MOL0     H11314   5.243  11.605   1.445 -0.0785  0.9576  0.5382
  807MOL0     H11315   5.396  11.817   1.628 -1.3398 -1.1826 -0.1701
  807MOL0     H11316   5.441  12.072   1.657 -0.5515 -0.0767  0.3964
  807MOL0     H11317   5.285  12.109   1.571 -0.2054 -2.8828 -0.3816
  807MOL0     H11318   5.567  12.177   1.489  0.3969  1.6202 -0.5233
  807MOL0     H11319   5.414  12.224   1.400 -0.3455 -3.0910 -0.3561
  807MOL0     H11320   5.463  12.418   1.497  0.3389 -2.6068 -2.3528
  807MOL0     H11321   5.352  12.360   1.620  0.3311  0.6415  0.2865
  807MOL0     H11322   5.505  12.410   1.765 -0.9168 -0.7412  0.7893
  807MOL0     H11323   5.590  12.263   1.717  0.8193  0.0140 -1.9474
  807MOL0     H11324   5.767  12.284   1.821  1.5895 -1.0961 -0.9334
  807MOL0     H11325   6.018  12.333   2.039  3.2016 -0.1673 -1.4033
  807MOL0     H11326   6.078  12.221   1.919 -1.5543 -1.5225 -3.1982
  807MOL0     H11327   5.923  12.196   1.964  2.7854 -2.9086  2.9870
  807MOL0     H11328   6.463  12.420   1.759 -1.0354 -3.3042  1.5370
  807MOL0     H11329   6.698  12.461   1.837 -1.1191  2.6468 -1.7102
  807MOL0     H11330   6.747  12.694   2.187 -0.7632 -1.0675 -2.4045
  807MOL0     H11331   6.744  12.539   2.285  0.7530 -1.8578  0.0928
  807MOL0     H11332   6.992  12.516   2.221  3.0360  1.3240 -0.3521
  807MOL0     H11333   6.973  12.694   2.178 -0.1352  1.5676  1.4103
  807MOL0     H11334   6.950  12.569   2.460  2.7766 -0.5885 -0.3150
  807MOL0     H11335   6.892  12.727   2.415 -0.2803  0.4505  1.4762
  807MOL0     H11336   7.105  12.801   2.352  1.9981 -0.1362 -1.0215
  807MOL0     H11337   7.188  12.642   2.375 -1.6704 -0.8641 -1.3223
  807MOL0     H11338   7.213  12.797   2.576  2.2922 -2.7992 -1.7449
  807MOL0     H11339   7.044  12.781   2.610 -0.8490 -0.6833 -1.1051
  807MOL0     H11340   7.263  12.575   2.594 -0.3868 -0.6599 -1.4893
  807MOL0     H11341   7.096  12.520   2.625  1.5610 -1.2670  3.3968
  807MOL0     H11342   7.088  12.617   2.847 -0.5946  3.2600  0.1431
  807MOL0     H11343   7.179  12.741   2.805 -1.8117 -0.2426  3.6210
  807MOL0     H11344   7.372  12.596   2.792 -1.3465  2.4293  0.2176
  807MOL0     H11345   7.286  12.441   2.803  0.4323 -0.4520  0.2424
  807MOL0     H11346   6.557  12.503   2.232  0.7650  3.7510  0.0235
  807MOL0     H11347   6.320  12.497   2.150 -2.1706  1.9674 -3.0537
  807MOL0     H11348   6.049  12.593   1.589 -1.6382 -0.6500 -2.4282
  807MOL0     H11349   5.848  12.589   1.532 -0.6098  0.4735  0.9629
  807MOL0     H11350   6.364  11.046   1.854 -0.4510  0.2106  0.5411
  807MOL0     H11351   6.471  11.173   2.050  0.0321  1.8258  0.4683
  807MOL0     H11352   6.594  11.450   2.184 -1.2776 -0.4293  0.1922
  807MOL0     H11353   6.801  11.527   2.292 -0.1458 -0.5801 -1.3913
  807MOL0     H11354   6.977  11.651   2.403  0.7594  2.5995  1.3142
  807MOL0     H11355   7.022  11.684   2.553  1.4186 -0.2664 -1.4487
  807MOL0     H11356   6.956  11.399   2.470  1.4371 -1.5127 -0.7108
  807MOL0     H11357   6.990  11.449   2.630  2.0279 -1.2463 -1.0734
  807MOL0     H11358   7.194  11.359   2.478  2.8605  1.0395 -1.1112
  807MOL0     H11359   7.173  11.520   2.402 -0.9153 -0.5244 -0.9592
  807MOL0     H11360   7.238  11.474   2.695 -3.6411 -1.9095 -0.8171
  807MOL0     H11361   7.242  11.629   2.607  1.1399 -0.3839  0.7512
  807MOL0     H11362   7.612  11.435   2.508 -0.1736 -0.5283  2.5917
  807MOL0     H11363   6.574  11.637   2.637 -0.1244  1.0506 -0.3204
  807MOL0     H11364   6.258  11.604   2.501  0.1360 -0.3556 -0.2844
  807MOL0     H11365   6.333  11.503   2.620  0.6344 -1.1270 -0.2466
  807MOL0     H11366   6.352  11.687   2.614 -1.5521  0.1454 -0.3270
  808MOL0     O11367   9.232   7.918   5.608  0.4004 -0.0670  0.5607
  808MOL0     C11368   9.203   7.982   5.708 -0.6755  0.2911  0.3617
  808MOL0     O11369   9.096   7.952   5.780 -0.3388 -0.1918 -0.8112
  808MOL0     C11370   8.987   7.885   5.734 -0.0586  0.2944 -1.1155
  808MOL0     C11371   8.897   7.828   5.832 -0.0378 -0.8154 -1.0358
  808MOL0     C11372   8.777   7.767   5.792 -0.4183 -1.0477  0.7083
  808MOL0     C11373   8.745   7.766   5.659 -0.6155 -0.3356 -0.5118
  808MOL0     O11374   8.640   7.689   5.637  0.6098  0.0781 -0.0789
  808MOL0     C11375   8.563   7.730   5.520 -0.1152 -0.5305 -0.1405
  808MOL0     C11376   8.421   7.667   5.541  0.7339  0.5148  0.1642
  808MOL0     C11377   8.348   7.747   5.642  0.3199 -0.4353 -0.2747
  808MOL0     C11378   8.205   7.705   5.654  0.4523  0.0686  0.0076
  808MOL0     C11379   8.127   7.745   5.785  0.7220 -0.0764  0.9157
  808MOL0     C11380   7.976   7.697   5.783  0.6183  0.0936  1.0425
  808MOL0     C11381   7.888   7.752   5.895  0.6070 -0.3855 -0.1256
  808MOL0     C11382   7.752   7.687   5.890  0.0121 -0.0717 -0.2446
  808MOL0     N11383   7.757   7.540   5.918 -0.6596 -0.5220 -0.0151
  808MOL0     C11384   7.654   7.455   5.902  0.0758  0.6167 -1.0277
  808MOL0     C11385   7.703   7.342   5.955  0.0166 -0.1176  0.1473
  808MOL0     C11386   7.635   7.209   5.966 -0.0958 -0.5582  0.5792
  808MOL0     C11387   7.735   7.093   5.989 -0.4114 -0.6042 -0.0091
  808MOL0     C11388   7.665   6.951   5.967  0.2065 -1.5452 -0.1543
  808MOL0     C11389   7.759   6.837   5.994 -0.3235 -0.3253  1.0167
  808MOL0     O11390   7.837   6.802   5.877  0.5210  1.2697  0.1235
  808MOL0     C11391   7.970   6.827   5.855 -0.9336  0.0438 -0.0463
  808MOL0     C11392   8.053   6.910   5.925  0.7159 -0.4933 -1.1231
  808MOL0     C11393   8.190   6.922   5.907 -0.3485 -0.2749  0.2003
  808MOL0     C11394   8.261   6.989   6.022 -0.0688 -0.4621  0.5020
  808MOL0     C11395   8.256   6.841   5.813 -0.2483  0.4297  0.9059
  808MOL0     C11396   8.400   6.832   5.774 -0.0306 -0.1392  0.1857
  808MOL0     O11397   8.435   6.768   5.653  0.2850  0.1908 -0.4184
  808MOL0     C11398   8.556   6.801   5.602 -0.9598  0.2940 -0.2254
  808MOL0     C11399   8.663   6.721   5.630 -1.0157 -0.0839  0.9369
  808MOL0     C11400   8.792   6.744   5.572  0.2172 -0.2277  0.1776
  808MOL0     C11401   8.812   6.857   5.484  0.3665  0.6751 -0.0369
  808MOL0     O11402   8.930   6.885   5.418 -0.5129  0.4164 -0.7622
  808MOL0     C11403   9.046   6.797   5.441  1.2627  0.1227  0.6700
  808MOL0     C11404   9.093   6.832   5.575 -0.1773  0.5149 -0.1876
  808MOL0     C11405   9.228   6.768   5.622 -1.0660 -0.7702 -0.0500
  808MOL0     C11406   9.349   6.842   5.563 -0.5872  0.2802  0.5201
  808MOL0     C11407   9.479   6.756   5.558 -0.3272  0.6709  0.4471
  808MOL0     C11408   9.532   6.745   5.702 -0.5343  0.2198  0.0487
  808MOL0     C11409   9.644   6.634   5.701 -0.0093 -0.1198  1.6850
  808MOL0     C11410   9.720   6.606   5.831  0.1191 -0.2258  0.0168
  808MOL0    Cl11411   9.842   6.742   5.854  0.0237  0.2927  0.0614
  808MOL0     C11412   8.707   6.934   5.460 -0.3695  0.6318  0.2800
  808MOL0     C11413   8.583   6.906   5.524 -0.0469 -0.3369 -0.5092
  808MOL0     O11414   8.477   6.889   5.855  0.1736 -1.1803  0.2011
  808MOL0     C11415   8.167   6.758   5.734  0.0027  0.3037 -0.3967
  808MOL0     C11416   8.028   6.750   5.760 -0.2844 -0.2694  0.8538
  808MOL0     N11417   7.831   7.367   6.011  0.1517  0.0894  0.4475
  808MOL0     N11418   7.860   7.486   5.989 -0.6758  0.2192 -0.7015
  808MOL0     C11419   8.829   7.825   5.563  0.5331 -0.2101  0.2730
  808MOL0     C11420   8.945   7.887   5.598 -0.0529  0.3570 -0.8416
  808MOL0     C11421   9.286   8.093   5.751 -0.0405 -0.4536  0.1912
  808MOL0     C11422   9.225   8.186   5.841  0.5800 -0.0548  0.0062
  808MOL0     C11423   9.294   8.291   5.882 -0.7559  0.0212 -0.2335
  808MOL0     C11424   9.417   8.330   5.823 -0.0280  0.1147 -0.3068
  808MOL0     O11425   9.479   8.450   5.842 -0.1143  0.2077 -0.4423
  808MOL0     C11426   9.387   8.554   5.813  0.2162 -0.5623 -0.0256
  808MOL0     C11427   9.469   8.676   5.775  0.4219 -0.0496 -0.0964
  808MOL0     C11428   9.557   8.651   5.654 -0.4353 -0.0352  0.5333
  808MOL0     C11429   9.600   8.782   5.592  0.6972 -0.4379  0.6660
  808MOL0     C11430   9.705   8.759   5.496 -0.0883  0.1577  0.2675
  808MOL0     C11431   9.804   8.733   5.425  0.9615 -0.0518  0.2231
  808MOL0     C11432   9.480   8.238   5.739  1.1780 -0.2006  0.2692
  808MOL0     C11433   9.421   8.112   5.709  0.9012  0.0614 -1.0239
  808MOL0     C11434   9.510   8.013   5.642 -0.3832 -0.5253  0.1016
  808MOL0     H11435   8.935   7.823   5.933  2.9287 -1.6639 -2.0839
  808MOL0     H11436   8.715   7.720   5.868  0.3551  1.7518  3.2531
  808MOL0     H11437   8.606   7.689   5.428  1.1037 -0.2509  0.2784
  808MOL0     H11438   8.548   7.837   5.510 -0.3205 -0.2699  2.2919
  808MOL0     H11439   8.363   7.667   5.448 -3.0274 -0.4821  2.3180
  808MOL0     H11440   8.438   7.562   5.568 -0.9433  0.3891  0.8748
  808MOL0     H11441   8.401   7.736   5.737 -0.8198  2.0438  0.7461
  808MOL0     H11442   8.355   7.852   5.610  0.8460 -1.0845 -2.4968
  808MOL0     H11443   8.144   7.732   5.568 -2.0546  2.9665  2.4437
  808MOL0     H11444   8.198   7.596   5.662  0.6714  0.1211  1.0376
  808MOL0     H11445   8.129   7.854   5.785  0.2392  0.0437 -2.4464
  808MOL0     H11446   8.175   7.703   5.874 -2.1516  0.0619  2.6834
  808MOL0     H11447   7.932   7.725   5.687 -3.1470 -1.4525  2.1389
  808MOL0     H11448   7.981   7.588   5.788  1.4558  0.0754  0.0641
  808MOL0     H11449   7.871   7.859   5.885  0.5608 -0.2899  0.8388
  808MOL0     H11450   7.936   7.733   5.992  1.1380 -0.1664 -0.3415
  808MOL0     H11451   7.688   7.740   5.960 -0.6114  0.0992 -0.9323
  808MOL0     H11452   7.716   7.696   5.787 -2.1657 -1.4620  0.3412
  808MOL0     H11453   7.555   7.459   5.858 -0.4251 -2.3015 -0.4073
  808MOL0     H11454   7.572   7.191   5.879 -2.1712 -0.5103  2.0027
  808MOL0     H11455   7.562   7.200   6.047  0.8185  0.1725  1.5170
  808MOL0     H11456   7.813   7.102   5.913  1.9148 -3.5891  1.7719
  808MOL0     H11457   7.784   7.100   6.086 -1.2978  0.2424  0.3965
  808MOL0     H11458   7.576   6.949   6.031 -0.2501  0.4434 -0.6540
  808MOL0     H11459   7.630   6.931   5.865  0.3193  1.9345 -0.9905
  808MOL0     H11460   7.821   6.860   6.081  1.7741 -1.6727 -0.0211
  808MOL0     H11461   7.697   6.754   6.028 -0.3787 -0.5279  0.4417
  808MOL0     H11462   8.005   6.951   6.014  1.3098 -3.9709  1.0065
  808MOL0     H11463   8.198   7.008   6.109  0.7494  1.6465  0.6914
  808MOL0     H11464   8.306   7.084   5.991 -1.5111  0.4026  0.9562
  808MOL0     H11465   8.342   6.923   6.053  0.8097 -0.6085 -1.8782
  808MOL0     H11466   8.642   6.652   5.711 -3.7129  0.3499  0.6856
  808MOL0     H11467   8.864   6.666   5.593  1.9201  0.2361 -3.2508
  808MOL0     H11468   9.017   6.692   5.429 -0.4307  0.5317  0.8622
  808MOL0     H11469   9.126   6.814   5.369 -0.4757  1.4216 -1.0337
  808MOL0     H11470   9.103   6.939   5.595  3.1470  0.0420  1.4657
  808MOL0     H11471   9.029   6.787   5.650  2.5816 -2.0549  0.8056
  808MOL0     H11472   9.217   6.662   5.597  1.9468 -0.7877 -1.7535
  808MOL0     H11473   9.224   6.782   5.730 -0.9341  0.7604 -0.2236
  808MOL0     H11474   9.366   6.937   5.614  0.2574 -1.2380  3.2442
  808MOL0     H11475   9.322   6.873   5.462 -0.2148  2.8216  1.1278
  808MOL0     H11476   9.457   6.659   5.511  0.8016  1.0878 -0.9851
  808MOL0     H11477   9.556   6.806   5.501 -3.5190  2.5185 -2.6354
  808MOL0     H11478   9.450   6.706   5.762 -1.0855  2.6176  0.9434
  808MOL0     H11479   9.563   6.844   5.738 -2.5000  1.3213 -1.1253
  808MOL0     H11480   9.714   6.655   5.619 -1.2177  0.0771  0.6557
  808MOL0     H11481   9.594   6.539   5.678 -0.7090  0.6873 -0.4556
  808MOL0     H11482   9.773   6.511   5.816 -1.8124 -1.3896  0.2026
  808MOL0     H11483   9.654   6.591   5.917 -1.7428 -0.8195 -1.4689
  808MOL0     H11484   8.717   7.025   5.403 -1.7901  0.3505 -0.4638
  808MOL0     H11485   8.502   6.974   5.497 -0.6530 -0.8814 -0.0718
  808MOL0     H11486   8.202   6.697   5.652 -0.0699  1.8599 -1.6260
  808MOL0     H11487   7.963   6.688   5.699  1.9331 -2.7328  0.8433
  808MOL0     H11488   8.800   7.824   5.458  1.2349 -0.7652  0.0819
  808MOL0     H11489   9.000   7.947   5.526  0.6841  2.6585  1.4807
  808MOL0     H11490   9.122   8.177   5.873  0.8266  0.2188  0.9016
  808MOL0     H11491   9.254   8.351   5.963 -0.8515 -2.4821  1.6849
  808MOL0     H11492   9.311   8.530   5.738 -1.0024 -2.4383  1.6826
  808MOL0     H11493   9.333   8.578   5.905  0.9851 -3.4964  1.3078
  808MOL0     H11494   9.545   8.694   5.852  0.4686  2.9774 -0.7177
  808MOL0     H11495   9.404   8.764   5.771  0.4548  0.0337  0.9524
  808MOL0     H11496   9.643   8.591   5.687 -0.4870 -0.7488 -0.5828
  808MOL0     H11497   9.501   8.595   5.579  0.5800 -1.0199  0.4741
  808MOL0     H11498   9.643   8.847   5.669 -1.5425  5.2323 -2.2424
  808MOL0     H11499   9.518   8.832   5.540  0.2978 -1.7459  0.0021
  808MOL0     H11500   9.887   8.709   5.362  0.0037  1.6979 -1.8202
  808MOL0     H11501   9.569   8.284   5.698  0.6372 -0.2558 -1.0007
  808MOL0     H11502   9.479   8.003   5.538  0.0147  5.9668 -1.0542
  808MOL0     H11503   9.615   8.044   5.642 -0.0348 -1.2308 -3.4804
  808MOL0     H11504   9.516   7.919   5.698  1.9013 -0.0591  0.7451
  809MOL0     O11505   2.798   6.966   3.870  0.0790  0.7329  0.4513
  809MOL0     C11506   2.800   7.088   3.843 -0.8868 -0.2614  0.3331
  809MOL0     O11507   2.695   7.165   3.835  0.3331 -0.3330  0.3535
  809MOL0     C11508   2.565   7.108   3.843  0.4537  0.8911 -0.6150
  809MOL0     C11509   2.464   7.174   3.909  0.6036  0.9740  0.4190
  809MOL0     C11510   2.336   7.134   3.914 -0.0467  0.2225 -0.6188
  809MOL0     C11511   2.291   7.030   3.839 -0.4886 -0.1054  1.1430
  809MOL0     O11512   2.155   7.000   3.825 -0.2918  0.3703 -0.3992
  809MOL0     C11513   2.064   7.114   3.813 -0.2743 -0.1075 -0.4578
  809MOL0     C11514   1.948   7.066   3.725 -0.9742 -0.2532  0.1503
  809MOL0     C11515   1.835   7.171   3.719  0.5738 -0.5878  1.2791
  809MOL0     C11516   1.731   7.127   3.612 -0.1006 -0.2954 -0.9697
  809MOL0     C11517   1.645   7.009   3.643 -0.4252  0.1296 -0.0510
  809MOL0     C11518   1.520   7.059   3.726 -0.7717  0.1679  0.5800
  809MOL0     C11519   1.441   6.958   3.804 -0.4016 -0.3259  0.5661
  809MOL0     C11520   1.343   7.033   3.898 -0.1913  0.6954 -0.4980
  809MOL0     N11521   1.412   7.118   3.994 -0.2741  0.7945 -0.9405
  809MOL0     C11522   1.380   7.249   4.020  0.1947 -0.9480 -0.1015
  809MOL0     C11523   1.464   7.286   4.119 -0.7536 -0.0707 -0.3422
  809MOL0     C11524   1.485   7.433   4.159 -0.5390  0.0432 -0.4281
  809MOL0     C11525   1.632   7.458   4.193 -0.8040 -0.4908 -0.4226
  809MOL0     C11526   1.710   7.485   4.060 -0.1720  0.4749 -0.1678
  809MOL0     C11527   1.865   7.475   4.074 -0.1042  0.3509 -0.1083
  809MOL0     O11528   1.924   7.517   3.947 -0.2472  0.2151  0.0205
  809MOL0     C11529   2.058   7.540   3.952  1.0852  0.4005 -0.1484
  809MOL0     C11530   2.108   7.606   3.838  0.5519 -0.3747 -0.1050
  809MOL0     C11531   2.242   7.648   3.833  0.0447 -0.4715 -1.2860
  809MOL0     C11532   2.279   7.753   3.737  0.3968  0.1500  0.3849
  809MOL0     C11533   2.327   7.603   3.943 -0.2983  0.7340  0.0113
  809MOL0     C11534   2.470   7.640   3.959 -0.1583 -0.0703 -0.4082
  809MOL0     O11535   2.534   7.594   4.075  0.0995  0.4371  0.8029
  809MOL0     C11536   2.666   7.587   4.072  0.3946 -0.2618  0.7234
  809MOL0     C11537   2.732   7.499   3.988  0.8812  0.1207 -0.3408
  809MOL0     C11538   2.875   7.495   3.988  0.7529  0.6015  0.0403
  809MOL0     C11539   2.947   7.581   4.077  0.1173 -0.1243  0.1458
  809MOL0     O11540   3.087   7.592   4.091 -0.2841 -0.0718  0.3596
  809MOL0     C11541   3.156   7.544   3.976  0.2255  0.4876  0.2726
  809MOL0     C11542   3.303   7.569   3.969 -0.1921  0.3290 -0.3959
  809MOL0     C11543   3.351   7.705   4.003 -0.0346  0.2771  0.4196
  809MOL0     C11544   3.294   7.808   3.905  0.2348  0.1836  0.9199
  809MOL0     C11545   3.336   7.946   3.937 -1.1481 -0.7852  0.9831
  809MOL0     C11546   3.330   8.045   3.810  0.1268  0.1855  0.2960
  809MOL0     C11547   3.390   8.176   3.860 -0.2128  0.1824 -0.5766
  809MOL0     C11548   3.408   8.277   3.741  0.5394  0.0222 -0.1613
  809MOL0    Cl11549   3.253   8.326   3.661 -0.0551  0.0494 -0.4039
  809MOL0     C11550   2.878   7.658   4.163 -0.4704 -0.0356 -0.1265
  809MOL0     C11551   2.736   7.663   4.163 -1.0169  0.1926 -0.1744
  809MOL0     O11552   2.532   7.703   3.874 -0.1491 -0.3084  0.4460
  809MOL0     C11553   2.272   7.517   4.040 -0.9233 -0.2532 -0.5693
  809MOL0     C11554   2.143   7.490   4.052  0.5754  0.0064 -0.1159
  809MOL0     N11555   1.542   7.178   4.155  0.3972 -0.2723 -0.4432
  809MOL0     N11556   1.516   7.077   4.077  0.2015 -0.0881 -0.8207
  809MOL0     C11557   2.390   6.960   3.767  0.3678 -1.0027  0.9489
  809MOL0     C11558   2.521   7.006   3.759  0.3718  0.5285  0.5469
  809MOL0     C11559   2.932   7.135   3.800  0.3384 -0.7330 -0.0712
  809MOL0     C11560   2.947   7.199   3.677 -0.0343  0.5007 -1.5630
  809MOL0     C11561   3.066   7.272   3.643 -0.2922 -0.0288  0.3515
  809MOL0     C11562   3.179   7.263   3.725 -0.2425 -0.3781  0.6307
  809MOL0     O11563   3.282   7.338   3.674  0.0951  0.3437 -0.4006
  809MOL0     C11564   3.416   7.310   3.723 -0.1334  0.0261  0.6007
  809MOL0     C11565   3.465   7.170   3.684  0.1158 -0.1749 -0.5159
  809MOL0     C11566   3.620   7.168   3.675 -0.9680  0.3693 -0.1850
  809MOL0     C11567   3.668   7.030   3.646  0.0860  0.5797 -0.0398
  809MOL0     C11568   3.799   7.036   3.579  1.0636 -0.8325  0.0121
  809MOL0     C11569   3.909   7.032   3.526 -0.0875 -0.4598 -0.1189
  809MOL0     C11570   3.171   7.189   3.843  0.5319  0.3205 -0.1984
  809MOL0     C11571   3.045   7.134   3.887 -1.3032 -0.4392  0.6554
  809MOL0     C11572   3.045   7.067   4.028 -0.2116 -0.0022 -0.3402
  809MOL0     H11573   2.498   7.255   3.973  2.5985  0.5574 -0.0468
  809MOL0     H11574   2.264   7.189   3.974 -1.1497 -1.8637  0.0706
  809MOL0     H11575   2.117   7.197   3.766  0.2949 -0.5197 -0.5399
  809MOL0     H11576   2.009   7.124   3.908 -2.8301 -1.0945 -1.7437
  809MOL0     H11577   1.979   7.051   3.621 -0.8359  1.5470 -0.1068
  809MOL0     H11578   1.910   6.974   3.770 -1.5612 -0.6453 -1.0841
  809MOL0     H11579   1.781   7.179   3.814  1.0808  0.6493  1.4780
  809MOL0     H11580   1.873   7.271   3.700  1.4686 -1.0822  0.3915
  809MOL0     H11581   1.675   7.221   3.606  0.7389  0.6558  3.1809
  809MOL0     H11582   1.782   7.109   3.516  0.8318 -0.5207 -0.4432
  809MOL0     H11583   1.704   6.936   3.699  2.5248  2.1160 -0.3088
  809MOL0     H11584   1.600   6.977   3.549  1.4052  1.2065 -1.3613
  809MOL0     H11585   1.569   7.120   3.803 -0.6244 -2.1395  2.4095
  809MOL0     H11586   1.452   7.112   3.659  0.4406  0.5114 -0.4055
  809MOL0     H11587   1.511   6.911   3.874 -0.1249 -0.2368  0.3488
  809MOL0     H11588   1.390   6.897   3.729  0.9139  0.3834 -0.9486
  809MOL0     H11589   1.273   7.087   3.834 -0.2925  1.7064  0.4265
  809MOL0     H11590   1.280   6.967   3.958 -0.0004  2.7667  2.1963
  809MOL0     H11591   1.298   7.307   3.980  0.1283 -0.4644  0.7028
  809MOL0     H11592   1.426   7.450   4.249 -1.6379 -0.7267 -0.9902
  809MOL0     H11593   1.457   7.505   4.082 -1.0475 -1.3994 -1.6300
  809MOL0     H11594   1.651   7.541   4.262 -1.7381  0.6383 -1.4805
  809MOL0     H11595   1.678   7.367   4.234 -1.2438 -1.6406 -2.3794
  809MOL0     H11596   1.688   7.419   3.976  3.9707  0.4358 -1.4655
  809MOL0     H11597   1.692   7.581   4.011 -1.6613 -0.4342 -1.5007
  809MOL0     H11598   1.896   7.547   4.149  1.2269  1.3709 -1.5617
  809MOL0     H11599   1.907   7.378   4.102  3.6008  0.7444 -3.3773
  809MOL0     H11600   2.040   7.638   3.760  0.1987 -0.2917  0.2345
  809MOL0     H11601   2.320   7.847   3.775  0.6528  1.5266 -2.9577
  809MOL0     H11602   2.201   7.772   3.663 -0.1246 -1.6366  0.4208
  809MOL0     H11603   2.362   7.713   3.677 -0.5044  3.0845 -3.2088
  809MOL0     H11604   2.683   7.428   3.923 -0.5595  0.3978  0.4052
  809MOL0     H11605   2.930   7.429   3.922 -0.9284  0.7040 -1.5521
  809MOL0     H11606   3.152   7.436   3.961 -3.4313  0.8532 -2.9776
  809MOL0     H11607   3.115   7.583   3.882  3.4797  0.9587 -1.0925
  809MOL0     H11608   3.361   7.495   4.026  0.1981 -0.2541 -1.5245
  809MOL0     H11609   3.318   7.564   3.861 -2.1383  1.2725 -0.7595
  809MOL0     H11610   3.458   7.701   4.022 -0.3002 -0.3690  1.9861
  809MOL0     H11611   3.311   7.725   4.103 -0.1125  0.3629  0.3710
  809MOL0     H11612   3.186   7.795   3.906 -0.0588  1.7527 -1.8338
  809MOL0     H11613   3.322   7.787   3.801 -1.0284 -1.3676  0.8435
  809MOL0     H11614   3.280   7.990   4.020 -3.1055  0.1010 -0.7408
  809MOL0     H11615   3.438   7.937   3.976 -0.0228  1.9144 -1.0454
  809MOL0     H11616   3.226   8.059   3.778 -0.6863 -0.8269  2.3376
  809MOL0     H11617   3.390   8.007   3.726 -0.9587 -0.2573 -0.3014
  809MOL0     H11618   3.484   8.157   3.913  0.4530 -2.4927 -2.4946
  809MOL0     H11619   3.317   8.223   3.927  1.9090  2.3888  0.3742
  809MOL0     H11620   3.480   8.258   3.660  2.1507  0.7644  1.0370
  809MOL0     H11621   3.432   8.376   3.780 -0.1344  1.2988 -2.8039
  809MOL0     H11622   2.935   7.735   4.213  0.5727  0.1210 -1.5074
  809MOL0     H11623   2.682   7.734   4.224 -1.7476 -1.2028  0.8415
  809MOL0     H11624   2.333   7.472   4.117 -2.0679  0.5990  0.9068
  809MOL0     H11625   2.110   7.442   4.144 -1.2101  1.0957 -0.1330
  809MOL0     H11626   2.348   6.886   3.700  0.0959 -0.8517  0.9490
  809MOL0     H11627   2.584   6.967   3.680 -1.4233  2.8361 -2.1684
  809MOL0     H11628   2.865   7.222   3.610  0.3054  1.5543 -1.6365
  809MOL0     H11629   3.075   7.331   3.552  4.0551 -1.8829 -0.6471
  809MOL0     H11630   3.488   7.381   3.681  0.1986 -0.3217  0.5769
  809MOL0     H11631   3.425   7.318   3.831  1.5153  0.0529  0.4889
  809MOL0     H11632   3.422   7.133   3.591  3.2284 -1.6029 -1.5161
  809MOL0     H11633   3.436   7.094   3.758  0.2561 -1.9012 -2.1476
  809MOL0     H11634   3.654   7.233   3.593  2.4213  2.3740  2.5588
  809MOL0     H11635   3.663   7.213   3.764  0.7451 -0.2944 -0.6440
  809MOL0     H11636   3.597   6.970   3.588 -0.8344 -0.3867  1.9911
  809MOL0     H11637   3.681   6.976   3.740 -0.9899  0.3251 -0.0147
  809MOL0     H11638   4.002   7.043   3.475  0.0495  1.1107  0.4213
  809MOL0     H11639   3.259   7.191   3.906  0.2656  3.3164  0.1878
  809MOL0     H11640   3.139   7.059   4.083  0.6352 -0.3793 -1.7847
  809MOL0     H11641   2.980   7.126   4.094  0.1857  0.9680 -0.7920
  809MOL0     H11642   3.014   6.963   4.015 -0.4681  0.1788 -1.2457
  810MOL0     O11643   0.344   6.940   6.192 -0.3685 -0.8242 -0.2170
  810MOL0     C11644   0.414   6.874   6.260  0.0535  0.8147  0.5476
  810MOL0     O11645   0.496   6.920   6.364  0.0316  0.5886  0.0991
  810MOL0     C11646   0.476   7.047   6.411 -0.2944  0.1587 -0.6269
  810MOL0     C11647   0.569   7.144   6.391  0.0570  0.3447  0.4835
  810MOL0     C11648   0.544   7.277   6.430 -0.4387  0.2978 -0.0620
  810MOL0     C11649   0.428   7.311   6.483 -0.3620  0.8803  0.6757
  810MOL0     O11650   0.420   7.446   6.509  0.3172  0.5464 -0.4484
  810MOL0     C11651   0.305   7.483   6.594 -0.2962  0.6804  0.0060
  810MOL0     C11652   0.320   7.620   6.659  0.7751  0.2197  0.4840
  810MOL0     C11653   0.367   7.615   6.802  0.3016  0.2313  0.0518
  810MOL0     C11654   0.396   7.762   6.854 -0.0848 -0.2539  0.2839
  810MOL0     C11655   0.403   7.773   7.002 -0.2966 -0.1887 -0.7786
  810MOL0     C11656   0.417   7.912   7.052  0.7390  0.0198  0.8782
  810MOL0     C11657   0.552   7.966   7.025 -0.0277 -0.5717  0.4560
  810MOL0     C11658   0.645   7.943   7.152 -1.1174 -0.7659  0.7261
  810MOL0     N11659   0.781   7.988   7.110  0.8407 -0.1173  0.2015
  810MOL0     C11660   0.898   7.940   7.146 -0.8918  0.3943  1.1688
  810MOL0     C11661   0.989   8.027   7.089  0.0177 -0.7004 -0.0434
  810MOL0     C11662   1.138   8.036   7.091  0.0300 -0.6455  0.0940
  810MOL0     C11663   1.217   7.937   7.002  0.6419  0.5292  0.1747
  810MOL0     C11664   1.174   7.954   6.851  0.2791 -0.8266 -0.6519
  810MOL0     C11665   1.256   8.075   6.787 -0.4703 -0.1102  0.1415
  810MOL0     O11666   1.395   8.061   6.795  0.3102 -0.1589  0.2239
  810MOL0     C11667   1.477   8.144   6.727  0.9971 -0.5520 -1.2483
  810MOL0     C11668   1.441   8.256   6.654  0.3388 -0.1272 -0.4601
  810MOL0     C11669   1.526   8.325   6.577 -0.4635  0.2644  0.2247
  810MOL0     C11670   1.483   8.441   6.487 -0.3443  1.3284 -0.5070
  810MOL0     C11671   1.664   8.287   6.583 -0.6138  0.6956 -0.4716
  810MOL0     C11672   1.774   8.358   6.508  1.5571  0.0278  0.0419
  810MOL0     O11673   1.739   8.375   6.380 -1.0544  0.0984 -0.3149
  810MOL0     C11674   1.829   8.433   6.289 -0.3587  1.0002 -0.6067
  810MOL0     C11675   1.822   8.566   6.256  0.5474  0.1327 -0.4638
  810MOL0     C11676   1.922   8.629   6.180  0.1664  0.4624  0.2214
  810MOL0     C11677   2.033   8.552   6.135  0.1867  0.9096  0.3736
  810MOL0     O11678   2.133   8.601   6.054  0.1256  0.5747  0.2586
  810MOL0     C11679   2.156   8.742   6.061  0.3713 -0.0502  0.7872
  810MOL0     C11680   2.272   8.786   5.973  0.5154 -0.7933 -0.0112
  810MOL0     C11681   2.314   8.926   6.006 -0.0311 -0.4233 -1.0916
  810MOL0     C11682   2.427   8.973   5.912 -0.1812  0.2813 -0.1376
  810MOL0     C11683   2.453   9.130   5.915 -0.8185 -0.6892 -0.2227
  810MOL0     C11684   2.533   9.176   5.790  0.1367 -0.3181 -0.3402
  810MOL0     C11685   2.465   9.174   5.651  0.4009 -0.3627 -0.4958
  810MOL0     C11686   2.552   9.162   5.522  0.3483 -0.7125 -0.5630
  810MOL0    Cl11687   2.648   9.004   5.517 -0.3168  0.1871  0.4172
  810MOL0     C11688   2.031   8.423   6.161 -0.9460  0.3712  0.3826
  810MOL0     C11689   1.938   8.358   6.236  0.6118  0.6072 -0.1563
  810MOL0     O11690   1.886   8.373   6.565 -0.3908 -0.1721 -0.2961
  810MOL0     C11691   1.713   8.184   6.671 -0.4284 -0.5348  0.3988
  810MOL0     C11692   1.615   8.108   6.743  1.1725 -1.1918 -0.0309
  810MOL0     N11693   0.922   8.116   7.009  0.2048 -0.1154  0.2189
  810MOL0     N11694   0.799   8.096   7.039 -0.9077 -0.7512  0.0210
  810MOL0     C11695   0.327   7.217   6.491 -0.2224  0.9626  0.0282
  810MOL0     C11696   0.356   7.084   6.459  0.4852  0.5823  0.3616
  810MOL0     C11697   0.441   6.736   6.213  0.4795 -0.4213  0.7703
  810MOL0     C11698   0.509   6.646   6.301 -0.6131  0.3781  0.1458
  810MOL0     C11699   0.525   6.513   6.269  0.4011 -0.2005  0.0525
  810MOL0     C11700   0.481   6.456   6.141 -0.3762  0.2357  0.0520
  810MOL0     O11701   0.492   6.321   6.118 -0.2936  0.5455 -0.0647
  810MOL0     C11702   0.435   6.266   5.998 -0.3074  0.2120  0.9296
  810MOL0     C11703   0.441   6.115   5.992 -0.1934  0.0463 -0.5042
  810MOL0     C11704   0.585   6.062   5.986  0.4217  0.4361  0.2659
  810MOL0     C11705   0.593   5.909   5.980 -0.6430 -0.0106  0.4922
  810MOL0     C11706   0.574   5.844   6.106 -0.0694 -0.4127 -1.0072
  810MOL0     C11707   0.577   5.788   6.206  0.3999 -1.0639 -0.1029
  810MOL0     C11708   0.409   6.546   6.052 -0.0040  0.4092 -0.6248
  810MOL0     C11709   0.376   6.680   6.091 -0.8241 -1.4611  0.3114
  810MOL0     C11710   0.306   6.752   5.986  0.1833 -0.5685 -0.2771
  810MOL0     H11711   0.659   7.124   6.334 -2.0719  1.0266 -3.5422
  810MOL0     H11712   0.612   7.356   6.401 -1.0281  1.1731  0.8819
  810MOL0     H11713   0.280   7.409   6.671 -3.0500  0.9171 -0.5373
  810MOL0     H11714   0.217   7.485   6.529 -1.9609 -3.3138  1.7515
  810MOL0     H11715   0.392   7.675   6.598 -1.1101 -0.0223 -2.1137
  810MOL0     H11716   0.225   7.672   6.645  1.5509  1.0010 -2.4049
  810MOL0     H11717   0.296   7.563   6.868 -0.4205  0.8069 -0.2540
  810MOL0     H11718   0.450   7.544   6.801 -0.5856 -0.9019  1.4986
  810MOL0     H11719   0.488   7.795   6.805  0.2738 -2.0046 -0.2885
  810MOL0     H11720   0.312   7.815   6.806 -1.7379 -3.8527 -1.1523
  810MOL0     H11721   0.493   7.723   7.039 -1.5569 -1.4519  0.7706
  810MOL0     H11722   0.316   7.736   7.058  0.0131  0.7538  0.3649
  810MOL0     H11723   0.336   7.973   7.011  0.1496  0.3489  2.4575
  810MOL0     H11724   0.395   7.924   7.159 -0.2712 -0.0029  0.6815
  810MOL0     H11725   0.545   8.075   7.026  1.0669 -0.3947  4.0527
  810MOL0     H11726   0.588   7.929   6.928 -0.2670 -1.6262  0.7517
  810MOL0     H11727   0.600   7.993   7.238 -2.2089  2.5096 -1.5415
  810MOL0     H11728   0.641   7.838   7.182 -3.6204 -0.6323  1.1107
  810MOL0     H11729   0.927   7.861   7.215  1.5692  0.8052  0.7222
  810MOL0     H11730   1.165   8.033   7.197 -1.3902  1.5060  0.5757
  810MOL0     H11731   1.168   8.136   7.060 -0.3158 -0.3255  0.7861
  810MOL0     H11732   1.326   7.944   7.010  0.6035  2.4535 -0.5345
  810MOL0     H11733   1.186   7.836   7.030  0.4647  0.7053  0.6255
  810MOL0     H11734   1.201   7.855   6.813 -2.7791 -2.2849  0.5563
  810MOL0     H11735   1.065   7.961   6.838  0.3071  0.1479 -0.4693
  810MOL0     H11736   1.235   8.090   6.681  0.1896  0.6485  0.0995
  810MOL0     H11737   1.231   8.169   6.838  1.5320  0.9498 -0.7134
  810MOL0     H11738   1.342   8.297   6.669 -0.4621 -0.8452 -3.0944
  810MOL0     H11739   1.555   8.521   6.503 -1.1369  1.6133  2.1298
  810MOL0     H11740   1.379   8.476   6.492 -1.2781 -1.1525 -0.6907
  810MOL0     H11741   1.483   8.410   6.382 -1.5846  2.4901 -0.8790
  810MOL0     H11742   1.740   8.620   6.302  0.3655 -1.2606  0.9584
  810MOL0     H11743   1.906   8.736   6.172  1.6443  0.6681 -0.2178
  810MOL0     H11744   2.064   8.799   6.048 -0.7597 -1.7822  0.8180
  810MOL0     H11745   2.184   8.760   6.165  0.0585  2.8508  0.4298
  810MOL0     H11746   2.361   8.723   5.977  1.4970  0.5280 -0.1730
  810MOL0     H11747   2.249   8.777   5.867  1.4485 -1.8770 -0.1340
  810MOL0     H11748   2.352   8.925   6.108  0.1602 -0.9556 -1.1641
  810MOL0     H11749   2.230   8.996   6.005  0.3930  0.2029  1.4133
  810MOL0     H11750   2.395   8.949   5.810 -1.8493 -1.1608  0.6735
  810MOL0     H11751   2.518   8.917   5.935 -1.1654 -1.0693  0.5794
  810MOL0     H11752   2.362   9.191   5.922  0.5624  1.4335  0.2100
  810MOL0     H11753   2.508   9.156   6.006 -1.1998 -2.7904  0.6582
  810MOL0     H11754   2.620   9.109   5.789  1.2473  1.0473  0.4485
  810MOL0     H11755   2.574   9.277   5.803  1.1107 -0.4792 -1.8810
  810MOL0     H11756   2.404   9.264   5.641 -0.4062 -0.9714 -1.2584
  810MOL0     H11757   2.395   9.090   5.656  0.7485 -0.6000  2.0146
  810MOL0     H11758   2.620   9.247   5.512  1.0612 -1.3824 -1.6048
  810MOL0     H11759   2.489   9.155   5.433 -0.9392 -1.8148  0.3695
  810MOL0     H11760   2.105   8.367   6.105 -0.5544  2.3004 -1.1091
  810MOL0     H11761   1.938   8.250   6.248  0.2340  0.8507  2.6304
  810MOL0     H11762   1.817   8.155   6.662 -1.4615 -5.1296  0.3717
  810MOL0     H11763   1.641   8.028   6.811 -1.5502  0.3317  3.0560
  810MOL0     H11764   0.225   7.228   6.525 -0.9384 -2.4844 -0.6292
  810MOL0     H11765   0.276   7.012   6.452  0.6489  0.4737 -0.5860
  810MOL0     H11766   0.535   6.681   6.400  3.4943  1.4187 -1.1073
  810MOL0     H11767   0.576   6.457   6.347  1.6798 -3.1939 -2.6714
  810MOL0     H11768   0.330   6.297   5.985 -0.4238 -0.4501  0.2078
  810MOL0     H11769   0.491   6.315   5.918 -0.7783  3.0821  2.2444
  810MOL0     H11770   0.403   6.080   5.896  1.2558  2.9569 -2.2930
  810MOL0     H11771   0.381   6.072   6.073  0.1079  0.3699 -0.0963
  810MOL0     H11772   0.635   6.104   5.898  2.4291 -0.3267  0.9682
  810MOL0     H11773   0.630   6.093   6.081  1.2891  1.9339 -0.5891
  810MOL0     H11774   0.681   5.880   5.921 -1.1687  1.1908 -0.9266
  810MOL0     H11775   0.520   5.880   5.905 -0.6712  0.0717  0.4870
  810MOL0     H11776   0.567   5.732   6.297  4.0381 -2.8493 -0.6250
  810MOL0     H11777   0.363   6.505   5.963  1.9043  0.1975 -1.5711
  810MOL0     H11778   0.214   6.771   6.042 -0.1717 -0.7771 -0.7896
  810MOL0     H11779   0.355   6.843   5.950 -1.1775 -0.3134 -1.5445
  810MOL0     H11780   0.279   6.692   5.899  1.0434 -0.1980 -0.8167
  811MOL0     O11781  10.219   8.584   6.576  0.8735  0.0263  0.5139
  811MOL0     C11782  10.103   8.534   6.594  0.3698 -0.6696 -0.1156
  811MOL0     O11783  10.057   8.497   6.716 -0.4472 -0.1081 -0.9636
  811MOL0     C11784  10.140   8.513   6.838  0.2971  0.1657  0.1645
  811MOL0     C11785  10.127   8.413   6.936  0.0478  0.4696 -0.2323
  811MOL0     C11786  10.214   8.418   7.048  0.6087  0.6184 -0.6513
  811MOL0     C11787  10.311   8.527   7.063 -1.1645 -0.1219 -0.6000
  811MOL0     O11788  10.388   8.511   7.175 -0.2370 -0.4771 -0.1196
  811MOL0     C11789  10.454   8.628   7.228 -1.5272  0.4635 -0.6688
  811MOL0     C11790  10.600   8.591   7.246 -1.3566  0.1010 -0.4294
  811MOL0     C11791  10.675   8.578   7.115  0.0575 -0.7093  0.3873
  811MOL0     C11792  10.829   8.591   7.134  1.0218 -0.5943  0.1598
  811MOL0     C11793  10.914   8.537   7.016  0.2199  0.4161 -0.2275
  811MOL0     C11794  10.883   8.609   6.885  0.8144  0.1997  0.0507
  811MOL0     C11795  11.001   8.574   6.789 -0.6046 -0.2994 -0.4317
  811MOL0     C11796  11.135   8.638   6.825 -0.0553  0.0432  0.2619
  811MOL0     N11797  11.241   8.621   6.720  0.6180  0.3279 -0.8920
  811MOL0     C11798  11.361   8.552   6.731  0.3489 -0.3603 -0.5965
  811MOL0     C11799  11.446   8.589   6.631  0.2785 -0.6101 -0.2376
  811MOL0     C11800  11.593   8.557   6.621  0.5255  0.4747  0.4882
  811MOL0     C11801  11.594   8.426   6.520  0.0586  0.0123 -0.6811
  811MOL0     C11802  11.729   8.422   6.459  0.2000  0.2033 -0.6814
  811MOL0     C11803  11.753   8.322   6.352  0.2158 -0.2552 -0.8612
  811MOL0     O11804  11.646   8.316   6.258 -0.2454  0.1163  0.1197
  811MOL0     C11805  11.643   8.409   6.164  0.8022 -0.0747 -0.5548
  811MOL0     C11806  11.705   8.384   6.036 -1.0599 -0.2840 -0.5482
  811MOL0     C11807  11.704   8.473   5.923 -0.9658 -0.3634  0.2114
  811MOL0     C11808  11.765   8.423   5.787  0.1765  0.2336 -0.0540
  811MOL0     C11809  11.651   8.604   5.945  0.3834  0.8359 -0.2285
  811MOL0     C11810  11.667   8.717   5.843  0.4170 -0.4137  0.0686
  811MOL0     O11811  11.768   8.711   5.755 -0.4315 -0.3715  0.3828
  811MOL0     C11812  11.817   8.814   5.671  0.3125 -0.3678  0.3029
  811MOL0     C11813  11.805   8.952   5.706 -0.3786  0.9705  0.0848
  811MOL0     C11814  11.823   9.053   5.604 -0.1164  0.1770 -0.0842
  811MOL0     C11815  11.861   9.013   5.474  0.3400  0.6825  0.4281
  811MOL0     O11816  11.876   9.098   5.370  0.2975 -0.3087 -0.4636
  811MOL0     C11817  11.800   9.228   5.361 -0.2814 -0.5400  0.3152
  811MOL0     C11818  11.824   9.312   5.230 -0.0511  0.6847 -0.1711
  811MOL0     C11819  11.758   9.227   5.115  1.0008 -0.9292 -0.3929
  811MOL0     C11820  11.847   9.183   5.009  0.2244 -0.5453  0.0980
  811MOL0     C11821  11.947   9.082   5.058 -0.0308 -0.4490  0.0258
  811MOL0     C11822  12.025   9.016   4.939  0.3407  0.5232  0.1261
  811MOL0     C11823  12.167   8.970   4.987  0.6955 -0.0923 -0.2352
  811MOL0     C11824  12.241   8.901   4.863 -0.4111 -0.1703 -0.7388
  811MOL0    Cl11825  12.413   8.869   4.924 -0.0090 -0.1520  0.0628
  811MOL0     C11826  11.893   8.879   5.452  0.0013  0.6431  0.8390
  811MOL0     C11827  11.865   8.777   5.542  0.2634 -0.9568 -0.0248
  811MOL0     O11828  11.585   8.810   5.855  0.7629  0.6596 -0.0100
  811MOL0     C11829  11.565   8.619   6.058 -0.9399  0.9010  0.6555
  811MOL0     C11830  11.563   8.524   6.162  0.1109 -0.4459 -0.0003
  811MOL0     N11831  11.368   8.686   6.568 -0.1401  0.1333 -0.2888
  811MOL0     N11832  11.245   8.700   6.614 -0.0478  0.0706 -0.3266
  811MOL0     C11833  10.326   8.621   6.961  0.4546 -0.3793 -0.0422
  811MOL0     C11834  10.232   8.611   6.856  0.2249  0.6416  0.0785
  811MOL0     C11835  10.003   8.518   6.482 -0.3177 -0.2840  1.2622
  811MOL0     C11836   9.863   8.524   6.505  1.0361 -0.2939  0.1595
  811MOL0     C11837   9.768   8.509   6.399  1.0908  0.3021  0.5803
  811MOL0     C11838   9.808   8.492   6.267  0.8639 -0.2014  0.3817
  811MOL0     O11839   9.721   8.492   6.157  0.1082  0.2181 -0.1057
  811MOL0     C11840   9.587   8.548   6.171  0.5971 -0.4465  0.4506
  811MOL0     C11841   9.490   8.446   6.212 -0.0505 -0.1655  0.3184
  811MOL0     C11842   9.349   8.499   6.228  0.4544 -0.2180 -0.0037
  811MOL0     C11843   9.296   8.511   6.374  0.3218 -0.6695 -0.2357
  811MOL0     C11844   9.371   8.609   6.447  0.1926 -1.7262 -0.8572
  811MOL0     C11845   9.449   8.688   6.498  0.7128 -0.1828  0.5830
  811MOL0     C11846   9.948   8.484   6.237  0.9729 -0.9383  0.1299
  811MOL0     C11847  10.042   8.502   6.344  0.1898 -0.5642 -0.1804
  811MOL0     C11848  10.180   8.547   6.299 -0.2139  0.8453 -0.4821
  811MOL0     H11849  10.043   8.345   6.931 -0.9407  1.6274  0.1974
  811MOL0     H11850  10.206   8.335   7.118  2.2271 -1.1804 -2.4787
  811MOL0     H11851  10.421   8.655   7.328  2.7302 -1.2261  1.4842
  811MOL0     H11852  10.449   8.716   7.163 -0.4684  0.4698 -0.7627
  811MOL0     H11853  10.645   8.669   7.307 -1.1953 -1.3330  1.3639
  811MOL0     H11854  10.621   8.496   7.297 -0.6739  0.1867 -0.5483
  811MOL0     H11855  10.645   8.486   7.064 -3.5317  0.3160  0.3625
  811MOL0     H11856  10.654   8.666   7.053  2.4708 -1.3558 -1.4558
  811MOL0     H11857  10.871   8.690   7.153  1.9191 -0.7664 -0.8180
  811MOL0     H11858  10.857   8.520   7.213 -1.8600 -2.0182  0.0234
  811MOL0     H11859  10.878   8.434   7.002  1.5044  0.2537 -3.0281
  811MOL0     H11860  11.019   8.525   7.043  0.1639 -1.4217 -0.6776
  811MOL0     H11861  10.794   8.567   6.838  1.7438 -1.0285 -0.6775
  811MOL0     H11862  10.869   8.717   6.895 -3.4315 -0.0731 -1.1489
  811MOL0     H11863  10.975   8.599   6.685  1.1971 -0.9110 -1.0801
  811MOL0     H11864  11.019   8.466   6.793  0.3388 -0.1465 -0.2021
  811MOL0     H11865  11.111   8.743   6.841 -0.4756 -0.2148  1.3975
  811MOL0     H11866  11.179   8.604   6.919  0.0610  0.2398  0.2782
  811MOL0     H11867  11.377   8.490   6.819 -3.3399 -1.1318 -0.3171
  811MOL0     H11868  11.627   8.509   6.713 -3.4277 -0.2257  1.7589
  811MOL0     H11869  11.667   8.632   6.589  0.2986  0.0550 -1.1161
  811MOL0     H11870  11.576   8.338   6.583  2.0322  0.8986  1.2492
  811MOL0     H11871  11.511   8.435   6.449 -2.3900  1.8824  2.1536
  811MOL0     H11872  11.767   8.514   6.414  1.3406  1.2277  2.1203
  811MOL0     H11873  11.788   8.403   6.549 -0.8762 -0.4894 -0.1038
  811MOL0     H11874  11.850   8.331   6.304  0.3632  0.6403 -0.4100
  811MOL0     H11875  11.763   8.225   6.402  1.4356 -0.4952 -1.5555
  811MOL0     H11876  11.767   8.295   6.037 -1.3678 -0.5809  2.4265
  811MOL0     H11877  11.797   8.318   5.794  0.6689  0.4207  0.6348
  811MOL0     H11878  11.842   8.484   5.738  0.2707 -0.0846 -0.3138
  811MOL0     H11879  11.674   8.424   5.726 -1.9623 -3.5424  2.6425
  811MOL0     H11880  11.778   8.974   5.809  0.3534  1.1446  0.2480
  811MOL0     H11881  11.810   9.157   5.633  0.0932  0.0861  0.3399
  811MOL0     H11882  11.695   9.199   5.375  0.4965 -4.1308 -0.3475
  811MOL0     H11883  11.821   9.291   5.448 -1.5158  0.0564  0.2031
  811MOL0     H11884  11.777   9.411   5.226 -1.8636 -0.0838  0.7442
  811MOL0     H11885  11.928   9.329   5.203  0.2427 -0.2307  0.3344
  811MOL0     H11886  11.683   9.290   5.067  0.6371 -1.4345 -0.4889
  811MOL0     H11887  11.700   9.145   5.158 -3.0230  3.4302  3.8822
  811MOL0     H11888  11.908   9.256   4.953 -0.6965  0.6936  0.6574
  811MOL0     H11889  11.778   9.140   4.936 -0.8348  1.0746  0.0990
  811MOL0     H11890  12.013   9.118   5.137  0.3627  0.4654 -0.6982
  811MOL0     H11891  11.901   8.997   5.110  1.1256 -1.3017 -0.2975
  811MOL0     H11892  12.019   9.081   4.851  2.2212  1.4027  0.5870
  811MOL0     H11893  11.970   8.930   4.899  1.2871 -0.0698  0.0784
  811MOL0     H11894  12.165   8.895   5.067  0.2971  0.2648  0.0957
  811MOL0     H11895  12.229   9.059   5.006 -0.1218  1.1554 -2.9381
  811MOL0     H11896  12.221   8.954   4.770 -2.7793  2.7884  1.2385
  811MOL0     H11897  12.194   8.803   4.851  0.5177 -0.8055  0.4899
  811MOL0     H11898  11.918   8.833   5.357 -3.0120  0.6458 -0.0691
  811MOL0     H11899  11.865   8.676   5.503 -0.4665 -0.5389 -1.1994
  811MOL0     H11900  11.489   8.696   6.055 -3.1729 -1.1743  0.7405
  811MOL0     H11901  11.496   8.549   6.244  0.7858  0.7659  0.2114
  811MOL0     H11902  10.401   8.699   6.965  1.0135 -0.9660  2.1012
  811MOL0     H11903  10.228   8.690   6.781 -1.9591 -1.0460 -1.7440
  811MOL0     H11904   9.821   8.546   6.603 -2.7146  3.0261 -1.8590
  811MOL0     H11905   9.664   8.515   6.430  0.2900 -2.0237 -1.3767
  811MOL0     H11906   9.576   8.620   6.252 -0.7859 -0.4709  0.3199
  811MOL0     H11907   9.562   8.613   6.087  1.2597 -0.1450  0.4869
  811MOL0     H11908   9.521   8.392   6.302  0.2101  0.2822  0.4998
  811MOL0     H11909   9.486   8.371   6.133 -2.2970  0.0412  0.1682
  811MOL0     H11910   9.323   8.593   6.179 -0.7710 -1.3219 -1.5484
  811MOL0     H11911   9.295   8.419   6.178  0.5885 -0.0601 -0.4063
  811MOL0     H11912   9.316   8.410   6.412  4.3017  0.2233  0.4145
  811MOL0     H11913   9.188   8.529   6.373  0.7092  2.2021 -1.9838
  811MOL0     H11914   9.521   8.755   6.540  0.2628 -1.5280  3.7691
  811MOL0     H11915   9.976   8.474   6.133 -1.0555  0.1898 -0.5828
  811MOL0     H11916  10.192   8.650   6.334  2.3681 -0.4680  3.1524
  811MOL0     H11917  10.256   8.480   6.341  1.7717  0.9088 -3.6357
  811MOL0     H11918  10.186   8.553   6.190 -0.0129  2.3991 -0.3973
  812MOL0     O11919   4.075   2.279   8.695  0.8660  0.6110 -0.2121
  812MOL0     C11920   4.047   2.230   8.806  0.6080  0.4169 -0.5140
  812MOL0     O11921   4.124   2.128   8.864 -0.6697  0.3458  0.3987
  812MOL0     C11922   4.264   2.117   8.848  0.8595  0.2330  0.3116
  812MOL0     C11923   4.315   1.996   8.858  0.1332  0.5637  0.6309
  812MOL0     C11924   4.454   1.979   8.847  0.1043 -0.9286 -0.3712
  812MOL0     C11925   4.538   2.083   8.832 -1.0683 -0.2794 -0.5816
  812MOL0     O11926   4.675   2.066   8.823 -0.9530  0.1126 -0.0911
  812MOL0     C11927   4.744   1.954   8.767  1.1433  0.1129  0.4473
  812MOL0     C11928   4.741   1.967   8.617 -0.5771  0.4184 -0.2383
  812MOL0     C11929   4.792   1.836   8.556 -0.3045 -0.1085 -0.0826
  812MOL0     C11930   4.790   1.851   8.408 -0.3265  0.2382  0.0390
  812MOL0     C11931   4.833   1.719   8.339 -0.7482  0.6226 -0.5411
  812MOL0     C11932   4.840   1.741   8.189 -0.8452 -0.1932 -0.2221
  812MOL0     C11933   4.897   1.631   8.099 -0.4618 -0.0020 -0.1868
  812MOL0     C11934   4.922   1.663   7.948  0.2579 -0.3804 -0.1565
  812MOL0     N11935   5.058   1.718   7.952 -0.2961 -0.3131  0.0275
  812MOL0     C11936   5.093   1.854   7.951  0.3050  0.6973  0.1466
  812MOL0     C11937   5.220   1.867   7.987 -0.1586 -0.6829  0.2841
  812MOL0     C11938   5.308   1.986   7.993 -0.3138 -0.0177 -0.1473
  812MOL0     C11939   5.417   1.991   7.876 -0.0191  0.1700 -0.5001
  812MOL0     C11940   5.355   2.016   7.740 -0.3251  0.0782 -0.6266
  812MOL0     C11941   5.458   2.018   7.629  0.0594  0.1720  0.3340
  812MOL0     O11942   5.539   2.138   7.641  0.1360  0.0980 -0.6695
  812MOL0     C11943   5.628   2.172   7.543  1.1893  0.3215  0.1409
  812MOL0     C11944   5.632   2.105   7.420  0.3868  0.2403 -0.4071
  812MOL0     C11945   5.721   2.146   7.318 -0.1848  0.4078 -0.1382
  812MOL0     C11946   5.729   2.066   7.196 -0.3278 -0.5221 -0.0635
  812MOL0     C11947   5.818   2.245   7.355 -0.4453 -0.2544  0.1028
  812MOL0     C11948   5.935   2.272   7.263 -0.0144 -0.4647  0.2931
  812MOL0     O11949   5.928   2.245   7.130  0.2023 -1.3902  0.2383
  812MOL0     C11950   6.030   2.273   7.044  0.3940 -0.5663  0.2975
  812MOL0     C11951   6.089   2.166   6.976  0.8739  0.0133 -0.4980
  812MOL0     C11952   6.215   2.184   6.913 -0.5598 -0.2686 -0.2628
  812MOL0     C11953   6.266   2.310   6.906  0.2106  0.3651  0.2489
  812MOL0     O11954   6.388   2.336   6.843 -0.0473  0.4105  0.0417
  812MOL0     C11955   6.386   2.400   6.715  0.7278 -0.1570 -0.0141
  812MOL0     C11956   6.538   2.440   6.683 -0.6521 -0.4377  0.7424
  812MOL0     C11957   6.556   2.481   6.538  1.4386  0.7823  0.1688
  812MOL0     C11958   6.697   2.535   6.515  0.4003  0.2731 -0.3257
  812MOL0     C11959   6.701   2.601   6.381 -0.1202  0.6068  1.7416
  812MOL0     C11960   6.839   2.669   6.347  0.6480 -0.0160  0.0883
  812MOL0     C11961   6.960   2.570   6.367 -0.1320 -0.2507 -0.1115
  812MOL0     C11962   7.091   2.648   6.340 -0.1898  0.0812 -0.6691
  812MOL0    Cl11963   7.215   2.534   6.413  0.2847 -0.0921 -0.2626
  812MOL0     C11964   6.202   2.415   6.971  0.3010 -0.3619  0.0476
  812MOL0     C11965   6.082   2.407   7.035 -0.2817  0.1797 -0.3107
  812MOL0     O11966   6.040   2.302   7.321  0.1491 -0.2315  0.0794
  812MOL0     C11967   5.799   2.321   7.477  0.5226  0.0341 -0.0373
  812MOL0     C11968   5.701   2.286   7.566  0.5897  0.5528  0.7367
  812MOL0     N11969   5.259   1.737   8.013 -0.1105 -0.2880 -0.1838
  812MOL0     N11970   5.167   1.653   7.993  0.7795  0.6921 -0.9123
  812MOL0     C11971   4.483   2.213   8.836 -0.6643 -0.1424 -1.0196
  812MOL0     C11972   4.346   2.232   8.844  0.3626  0.5838 -0.6324
  812MOL0     C11973   3.927   2.267   8.876  0.5026  0.0230 -0.1308
  812MOL0     C11974   3.851   2.166   8.938  0.3105 -0.2492 -0.4844
  812MOL0     C11975   3.724   2.193   8.999  0.2650 -0.0193 -0.5188
  812MOL0     C11976   3.672   2.325   8.998 -0.0490 -0.6901 -0.0972
  812MOL0     O11977   3.560   2.353   9.076 -0.2646  0.3959  0.4616
  812MOL0     C11978   3.465   2.443   9.010 -0.5978  0.4758  0.5034
  812MOL0     C11979   3.321   2.416   9.054  0.1651 -0.2844 -0.2046
  812MOL0     C11980   3.258   2.300   8.984 -0.0836 -0.3584  0.3910
  812MOL0     C11981   3.109   2.277   9.026  0.2853 -0.4742  0.1884
  812MOL0     C11982   3.048   2.188   8.919  1.0876  0.1390 -0.1699
  812MOL0     C11983   2.994   2.134   8.827 -1.1058  0.4983 -0.0245
  812MOL0     C11984   3.742   2.426   8.924 -0.4097  0.2961  0.7073
  812MOL0     C11985   3.865   2.388   8.858  0.2448  0.0618  0.0703
  812MOL0     C11986   3.918   2.497   8.765  0.0498 -0.0687 -0.2173
  812MOL0     H11987   4.263   1.902   8.869  4.1239 -2.2443 -1.7557
  812MOL0     H11988   4.491   1.881   8.873  2.7251  0.1029  0.1651
  812MOL0     H11989   4.696   1.863   8.805 -0.4990 -0.2587 -2.2385
  812MOL0     H11990   4.848   1.946   8.800  0.6287 -1.1783  1.8704
  812MOL0     H11991   4.636   1.977   8.588 -0.3990 -1.1721 -1.6250
  812MOL0     H11992   4.801   2.053   8.586  1.8803 -0.0729  2.7055
  812MOL0     H11993   4.892   1.797   8.581 -1.2072 -2.2512  0.3521
  812MOL0     H11994   4.719   1.763   8.591 -1.7314  0.6626 -1.3454
  812MOL0     H11995   4.690   1.876   8.373 -0.3727 -0.3815 -0.2856
  812MOL0     H11996   4.857   1.929   8.371  0.7226  0.2335  1.8180
  812MOL0     H11997   4.755   1.645   8.358  0.0293  0.1829  1.1002
  812MOL0     H11998   4.930   1.685   8.377 -1.0438  2.0853  1.6677
  812MOL0     H11999   4.737   1.754   8.153 -0.2720  2.9445 -1.0588
  812MOL0     H12000   4.902   1.828   8.167 -0.8237 -0.8722 -3.3046
  812MOL0     H12001   4.827   1.548   8.109 -1.2580  0.8380  1.5120
  812MOL0     H12002   4.990   1.600   8.148 -1.1638 -0.8212  0.6863
  812MOL0     H12003   4.926   1.570   7.890 -2.2738  1.0075 -2.7860
  812MOL0     H12004   4.846   1.717   7.891  2.9446 -0.9220 -4.7388
  812MOL0     H12005   5.031   1.940   7.926 -0.4220  0.3461  0.7117
  812MOL0     H12006   5.360   1.984   8.089  1.9757  2.5224 -1.1905
  812MOL0     H12007   5.246   2.075   7.976 -2.5927 -0.9799  2.4556
  812MOL0     H12008   5.499   2.057   7.908  0.7735 -1.1891  0.3683
  812MOL0     H12009   5.474   1.898   7.869  2.6786  1.8195 -2.3370
  812MOL0     H12010   5.284   1.936   7.718 -0.8826  0.8975 -1.9030
  812MOL0     H12011   5.304   2.112   7.741  0.1964  0.4146  1.9835
  812MOL0     H12012   5.510   1.923   7.643 -2.8142 -1.0757  4.1011
  812MOL0     H12013   5.403   2.018   7.534 -1.1865 -1.2913  1.0156
  812MOL0     H12014   5.578   2.012   7.407 -2.3166  0.9271  3.8302
  812MOL0     H12015   5.703   2.124   7.107 -1.7936  1.4472  1.5686
  812MOL0     H12016   5.652   1.988   7.187  0.0619 -0.7299 -2.1701
  812MOL0     H12017   5.828   2.018   7.191  1.1996  1.5250  4.8969
  812MOL0     H12018   6.043   2.068   6.971 -1.1581  0.9468 -1.2790
  812MOL0     H12019   6.257   2.098   6.860 -2.7322 -2.8055  1.8435
  812MOL0     H12020   6.338   2.341   6.636 -2.6803  2.3723 -0.0568
  812MOL0     H12021   6.338   2.498   6.726  0.8029 -0.1900  0.6146
  812MOL0     H12022   6.562   2.522   6.751 -1.5243 -0.0096  0.5518
  812MOL0     H12023   6.615   2.366   6.705 -0.3010 -0.4362 -0.3853
  812MOL0     H12024   6.485   2.562   6.517  1.4259  0.5547 -0.7175
  812MOL0     H12025   6.528   2.396   6.475 -0.3130  0.4385  1.3426
  812MOL0     H12026   6.769   2.453   6.526 -1.2718 -1.0032  1.8607
  812MOL0     H12027   6.711   2.613   6.590 -0.8467  1.4849 -1.3202
  812MOL0     H12028   6.674   2.523   6.310 -1.4121  2.4297  0.1200
  812MOL0     H12029   6.629   2.682   6.366  1.2596  1.6998  0.6235
  812MOL0     H12030   6.852   2.744   6.425 -3.8430  0.0870  1.0340
  812MOL0     H12031   6.844   2.719   6.250  1.9883 -0.3946 -0.0561
  812MOL0     H12032   6.954   2.485   6.298  0.0126  0.1352 -0.6075
  812MOL0     H12033   6.954   2.534   6.470 -0.4278  0.5963  0.1720
  812MOL0     H12034   7.083   2.750   6.379  0.9334 -0.1529  0.2275
  812MOL0     H12035   7.123   2.659   6.236 -0.0141 -0.8892 -0.7234
  812MOL0     H12036   6.257   2.507   6.961 -1.7278  0.8989  0.0235
  812MOL0     H12037   6.035   2.481   7.099 -0.7943 -1.7083  1.6060
  812MOL0     H12038   5.866   2.396   7.518 -0.3943  0.2118  1.2077
  812MOL0     H12039   5.689   2.336   7.662 -0.0313  1.7240  0.0707
  812MOL0     H12040   4.545   2.302   8.842  0.5227 -1.0037  3.6174
  812MOL0     H12041   4.313   2.335   8.849  0.4840  0.6046 -0.2506
  812MOL0     H12042   3.888   2.064   8.944  0.0502 -0.3684 -0.9180
  812MOL0     H12043   3.670   2.117   9.055  0.0507  1.3345  1.2271
  812MOL0     H12044   3.490   2.546   9.038 -3.5096  1.7684 -1.1860
  812MOL0     H12045   3.469   2.439   8.900 -0.7969 -0.1746  0.5126
  812MOL0     H12046   3.263   2.509   9.048 -0.3948 -0.6436 -0.3546
  812MOL0     H12047   3.334   2.391   9.159  3.9275 -1.3972 -0.7987
  812MOL0     H12048   3.263   2.308   8.875  2.4356 -1.9890  0.3194
  812MOL0     H12049   3.323   2.213   8.998  2.6225  0.4830 -4.6553
  812MOL0     H12050   3.056   2.373   9.024 -0.8166 -1.0574 -1.9344
  812MOL0     H12051   3.103   2.230   9.124  0.2013 -1.7414 -0.4087
  812MOL0     H12052   2.954   2.092   8.736 -2.5117  1.9354 -0.1159
  812MOL0     H12053   3.705   2.527   8.931  1.6171  0.9730  3.2584
  812MOL0     H12054   3.889   2.595   8.803  1.5147 -0.5711  2.4179
  812MOL0     H12055   4.027   2.504   8.766  0.2506 -1.7472 -2.0354
  812MOL0     H12056   3.881   2.466   8.667  0.1291 -1.7826  0.2520
  813MOL0     O12057   8.385   9.015   1.988  0.7685  0.2083 -0.3814
  813MOL0     C12058   8.338   9.062   2.100  0.0712  0.5252  0.6298
  813MOL0     O12059   8.405   9.045   2.215 -0.1035 -0.3070 -0.1996
  813MOL0     C12060   8.524   8.983   2.202 -0.1479 -0.2221 -0.1241
  813MOL0     C12061   8.550   8.878   2.287  0.0469 -0.3692 -0.4283
  813MOL0     C12062   8.674   8.807   2.275 -0.4393 -0.1770  0.6143
  813MOL0     C12063   8.781   8.850   2.192  0.5880  1.5220 -0.1185
  813MOL0     O12064   8.899   8.777   2.206 -0.2029  0.4733  0.1365
  813MOL0     C12065   9.004   8.790   2.104 -0.4330  0.0539  0.8984
  813MOL0     C12066   9.099   8.671   2.124  0.4502 -0.9269 -0.1545
  813MOL0     C12067   9.031   8.540   2.101  0.3303  0.2193  0.6425
  813MOL0     C12068   9.109   8.436   2.173 -1.2106  0.1542 -0.0923
  813MOL0     C12069   9.085   8.296   2.119  0.1735  0.4655 -0.2085
  813MOL0     C12070   9.181   8.195   2.189  0.0986 -0.2695  0.6989
  813MOL0     C12071   9.170   8.188   2.339  0.0694  0.2729 -0.6003
  813MOL0     C12072   9.298   8.124   2.397 -0.6039 -0.6318  0.6058
  813MOL0     N12073   9.402   8.227   2.414 -0.0957  0.0126  0.7466
  813MOL0     C12074   9.404   8.339   2.496 -0.2129  0.0407  0.9653
  813MOL0     C12075   9.510   8.415   2.460 -0.2038 -1.0975  0.2298
  813MOL0     C12076   9.558   8.536   2.534  0.8391  0.0142  0.1617
  813MOL0     C12077   9.447   8.639   2.520  0.1594  0.7032  0.1959
  813MOL0     C12078   9.509   8.768   2.583  0.8673  0.1913 -0.1865
  813MOL0     C12079   9.394   8.874   2.590  0.2498  0.5437  0.2974
  813MOL0     O12080   9.341   8.897   2.457  0.1876 -0.3574 -0.0751
  813MOL0     C12081   9.246   8.997   2.451  0.5729 -0.5070  0.0666
  813MOL0     C12082   9.266   9.133   2.449  0.0346  0.3783 -0.3688
  813MOL0     C12083   9.161   9.229   2.455  0.6496  0.2079 -0.0848
  813MOL0     C12084   9.212   9.372   2.453  0.1938 -0.1083  0.2942
  813MOL0     C12085   9.021   9.182   2.451 -0.4029  0.5390 -0.3191
  813MOL0     C12086   8.908   9.265   2.445 -0.8265  0.2754 -0.3448
  813MOL0     O12087   8.793   9.198   2.456 -0.2964  0.0312  0.7893
  813MOL0     C12088   8.674   9.263   2.452  0.4568 -0.6200 -0.7919
  813MOL0     C12089   8.615   9.298   2.329 -0.3371  0.3130 -0.1584
  813MOL0     C12090   8.487   9.341   2.317  0.7457 -0.5387 -0.0715
  813MOL0     C12091   8.419   9.380   2.432  0.6698  0.0896 -0.0871
  813MOL0     O12092   8.293   9.443   2.433 -0.3935  0.2747  0.5027
  813MOL0     C12093   8.277   9.547   2.339  0.6641  0.3702  0.4286
  813MOL0     C12094   8.180   9.647   2.401  0.7491  0.2715 -0.0910
  813MOL0     C12095   8.040   9.589   2.401 -0.9769 -0.4482 -0.8705
  813MOL0     C12096   7.941   9.701   2.440 -0.1772  0.1106  0.3133
  813MOL0     C12097   7.799   9.643   2.457  0.1370 -0.5569  0.6488
  813MOL0     C12098   7.711   9.735   2.551  0.2984 -0.2201  0.0066
  813MOL0     C12099   7.689   9.863   2.475  0.6845 -0.3551 -0.5861
  813MOL0     C12100   7.596   9.951   2.539 -0.1695  0.0237 -0.5363
  813MOL0    Cl12101   7.628   9.975   2.724  0.1121  0.2461 -0.1200
  813MOL0     C12102   8.481   9.358   2.556 -0.0688 -0.0645  0.4660
  813MOL0     C12103   8.607   9.300   2.570 -0.6196 -0.2350  0.0510
  813MOL0     O12104   8.912   9.380   2.444 -0.0167  0.0762  0.0132
  813MOL0     C12105   9.001   9.037   2.448  0.4280  0.7140 -0.4519
  813MOL0     C12106   9.115   8.954   2.447 -0.4885 -0.7974  0.9637
  813MOL0     N12107   9.577   8.352   2.354 -0.4813 -0.5878 -0.0059
  813MOL0     N12108   9.517   8.240   2.331  0.1646  0.9608 -0.1700
  813MOL0     C12109   8.762   8.962   2.116  0.0575  0.4755 -0.4254
  813MOL0     C12110   8.636   9.030   2.123 -0.4256 -0.0487 -0.2760
  813MOL0     C12111   8.221   9.150   2.101 -0.8637 -0.4663  0.3045
  813MOL0     C12112   8.176   9.197   2.225  0.0980 -0.8324  0.2041
  813MOL0     C12113   8.059   9.279   2.236  0.0745  1.0418  0.8339
  813MOL0     C12114   7.992   9.322   2.129  0.3351 -0.1854  1.1096
  813MOL0     O12115   7.880   9.400   2.154  0.0388  0.0432 -0.3891
  813MOL0     C12116   7.778   9.423   2.060  0.4377 -0.1444 -0.1716
  813MOL0     C12117   7.652   9.428   2.145  0.8451 -0.0042  0.1222
  813MOL0     C12118   7.542   9.500   2.061 -0.1982  0.5344  0.0155
  813MOL0     C12119   7.552   9.652   2.058  0.2026 -0.8667  0.4509
  813MOL0     C12120   7.428   9.722   2.028 -0.0555 -0.1652  0.4170
  813MOL0     C12121   7.341   9.795   1.984  0.7008  0.3757  0.7561
  813MOL0     C12122   8.037   9.279   1.998 -0.0056  0.3433 -0.6151
  813MOL0     C12123   8.140   9.184   1.989 -0.0974 -0.0350  0.2073
  813MOL0     C12124   8.187   9.154   1.853  0.3935 -0.4720  0.6530
  813MOL0     H12125   8.474   8.849   2.358  0.8938 -0.3402  0.5076
  813MOL0     H12126   8.681   8.712   2.327 -0.1174 -1.3032 -1.3936
  813MOL0     H12127   9.059   8.883   2.119 -0.8803  0.5226 -0.2050
  813MOL0     H12128   8.963   8.789   2.002 -0.0691 -0.3444  0.7526
  813MOL0     H12129   9.187   8.672   2.059  0.2429 -0.9652 -0.4387
  813MOL0     H12130   9.137   8.671   2.227  1.8952 -1.8013 -0.6657
  813MOL0     H12131   8.932   8.548   2.145 -1.2824 -1.3946 -2.3449
  813MOL0     H12132   9.013   8.511   1.997  1.4820 -2.4397  1.0909
  813MOL0     H12133   9.214   8.465   2.177 -0.8067 -1.1938 -0.2562
  813MOL0     H12134   9.073   8.441   2.277  0.8565 -1.9414  0.8209
  813MOL0     H12135   9.103   8.296   2.011 -0.5996 -1.6346 -0.3864
  813MOL0     H12136   8.979   8.269   2.125  0.4663 -0.5142  0.8557
  813MOL0     H12137   9.160   8.096   2.147  1.1003 -0.7752  1.3298
  813MOL0     H12138   9.282   8.225   2.158 -1.8231  4.4004 -2.0012
  813MOL0     H12139   9.089   8.122   2.371  0.0441  0.9444  0.8280
  813MOL0     H12140   9.164   8.288   2.384  1.3953  0.1711 -0.1553
  813MOL0     H12141   9.269   8.085   2.495 -2.4392  0.4287  0.5254
  813MOL0     H12142   9.335   8.042   2.335 -0.1166  1.1693 -1.6265
  813MOL0     H12143   9.334   8.347   2.579  0.3677  2.3081  1.2931
  813MOL0     H12144   9.653   8.579   2.501  1.1059 -0.2750  0.5438
  813MOL0     H12145   9.564   8.510   2.640  0.0992 -1.1025 -0.0433
  813MOL0     H12146   9.420   8.665   2.418  0.0999  1.8963  0.4968
  813MOL0     H12147   9.358   8.612   2.577 -0.9646  2.6697 -0.5200
  813MOL0     H12148   9.541   8.737   2.683 -0.1591 -1.1272 -0.2307
  813MOL0     H12149   9.592   8.808   2.524 -1.3150  2.3119 -2.0193
  813MOL0     H12150   9.300   8.837   2.633 -0.7752  0.3913 -1.9706
  813MOL0     H12151   9.425   8.961   2.648 -0.4607  0.7458  0.3868
  813MOL0     H12152   9.371   9.161   2.440 -0.1780  2.2111  1.7254
  813MOL0     H12153   9.321   9.376   2.443  0.3461 -1.5782  1.1729
  813MOL0     H12154   9.179   9.428   2.541  0.5294 -0.4991  0.6737
  813MOL0     H12155   9.164   9.425   2.371 -0.9362  0.5073  1.3306
  813MOL0     H12156   8.660   9.270   2.234 -2.2581 -3.2231 -0.2214
  813MOL0     H12157   8.441   9.353   2.219  2.3298 -0.6545 -0.8612
  813MOL0     H12158   8.374   9.593   2.320  1.5673 -1.0926  1.3427
  813MOL0     H12159   8.245   9.503   2.244  2.5540 -0.8044  0.2965
  813MOL0     H12160   8.210   9.671   2.503 -3.6430 -0.0033  1.4785
  813MOL0     H12161   8.185   9.742   2.347 -2.3360  1.5633  1.6514
  813MOL0     H12162   8.045   9.496   2.458 -0.9338 -0.4909 -0.9440
  813MOL0     H12163   8.011   9.565   2.298  0.0438  1.9555 -1.8065
  813MOL0     H12164   7.948   9.768   2.353 -0.5530  0.6729  0.7055
  813MOL0     H12165   7.965   9.748   2.536 -2.4171  1.1764  0.4362
  813MOL0     H12166   7.756   9.642   2.356  4.0979 -1.2063 -1.2249
  813MOL0     H12167   7.808   9.541   2.493 -0.0287 -0.7492  0.1571
  813MOL0     H12168   7.768   9.746   2.644 -0.1357  1.1643  0.1283
  813MOL0     H12169   7.616   9.687   2.577  0.2964 -0.3967 -0.3245
  813MOL0     H12170   7.642   9.856   2.377 -0.6606 -2.4150  0.1596
  813MOL0     H12171   7.787   9.908   2.455 -0.4767  2.4243 -0.4232
  813MOL0     H12172   7.501   9.898   2.525 -0.2128  0.4156 -1.8298
  813MOL0     H12173   7.585  10.048   2.490  0.1490 -0.0037 -0.6654
  813MOL0     H12174   8.427   9.398   2.642 -0.8147 -2.3622  1.1207
  813MOL0     H12175   8.634   9.281   2.674  1.2582 -1.0404 -0.5572
  813MOL0     H12176   8.899   9.000   2.434 -0.3925  1.6652  2.2473
  813MOL0     H12177   9.099   8.847   2.455 -1.7141 -0.7546 -0.4710
  813MOL0     H12178   8.840   9.010   2.058 -1.4837  0.9580 -2.1970
  813MOL0     H12179   8.623   9.118   2.061  0.2832 -1.2880 -2.2677
  813MOL0     H12180   8.225   9.170   2.318  1.3901 -1.2587 -0.5729
  813MOL0     H12181   8.016   9.311   2.330 -0.2464  3.7587 -0.1564
  813MOL0     H12182   7.791   9.515   2.002 -1.4563  1.0376  1.1922
  813MOL0     H12183   7.776   9.350   1.978  0.5930 -0.1567 -0.1662
  813MOL0     H12184   7.666   9.482   2.239 -1.0972  1.8082 -0.5533
  813MOL0     H12185   7.620   9.325   2.164  1.3862 -0.0443  0.8444
  813MOL0     H12186   7.538   9.456   1.961  3.3987 -0.5738  0.2398
  813MOL0     H12187   7.441   9.480   2.100 -0.5798  1.0319 -0.7046
  813MOL0     H12188   7.631   9.682   1.989  0.2787 -0.7238  0.5983
  813MOL0     H12189   7.587   9.695   2.153 -1.0981 -0.2467  0.6837
  813MOL0     H12190   7.250   9.847   1.963  0.6464  0.0580  0.1774
  813MOL0     H12191   7.991   9.321   1.909 -0.7451  2.6981  0.7872
  813MOL0     H12192   8.185   9.045   1.842  1.7343 -0.5470  0.9463
  813MOL0     H12193   8.122   9.182   1.770  1.5819  1.0931  0.1939
  813MOL0     H12194   8.283   9.201   1.830  0.1577 -0.1436  0.3271
  814MOL0     O12195   5.985   5.614   7.864 -0.0870 -0.1519 -0.1224
  814MOL0     C12196   6.051   5.716   7.840 -0.4326  0.1238  0.3874
  814MOL0     O12197   6.009   5.820   7.766 -0.1137 -0.0665 -0.7112
  814MOL0     C12198   5.889   5.812   7.693 -0.3703  0.9976 -0.1091
  814MOL0     C12199   5.790   5.716   7.660 -0.1459  0.3096 -0.7033
  814MOL0     C12200   5.667   5.754   7.609 -0.5668  0.1821  0.1160
  814MOL0     C12201   5.639   5.883   7.567 -0.4105 -1.1523  0.2331
  814MOL0     O12202   5.519   5.891   7.500  0.4301 -0.0591 -0.4992
  814MOL0     C12203   5.476   6.011   7.445 -0.8163 -0.1073  0.5872
  814MOL0     C12204   5.328   6.003   7.424  0.7705  1.1227 -0.2999
  814MOL0     C12205   5.306   5.929   7.293  0.4663 -0.2535 -0.8073
  814MOL0     C12206   5.168   5.945   7.241  0.2990  0.0756 -0.2247
  814MOL0     C12207   5.131   5.861   7.112 -0.0476  0.0414 -1.0469
  814MOL0     C12208   5.194   5.925   6.987  0.1713 -0.3304 -0.2911
  814MOL0     C12209   5.206   5.829   6.862 -0.5298 -0.2978  0.4825
  814MOL0     C12210   5.312   5.712   6.874  1.0877 -0.7587  0.3197
  814MOL0     N12211   5.451   5.756   6.899 -0.6967 -0.0495 -0.1455
  814MOL0     C12212   5.539   5.818   6.807 -0.2532  0.5567 -0.2919
  814MOL0     C12213   5.640   5.855   6.891 -0.2837 -0.3812 -0.2802
  814MOL0     C12214   5.765   5.933   6.844  0.0099 -0.0345 -0.4960
  814MOL0     C12215   5.893   5.855   6.857 -0.6648  0.3259  0.3753
  814MOL0     C12216   6.021   5.937   6.825 -1.2206  0.0218 -0.5401
  814MOL0     C12217   6.155   5.861   6.803  0.0363  0.4315 -0.0646
  814MOL0     O12218   6.226   5.863   6.927  0.4087 -0.5795 -0.1165
  814MOL0     C12219   6.354   5.921   6.924 -0.0191 -0.1018  0.3954
  814MOL0     C12220   6.381   6.051   6.948 -0.7083  0.0482 -0.0628
  814MOL0     C12221   6.515   6.102   6.941  0.2387  1.0853  0.3223
  814MOL0     C12222   6.543   6.249   6.969 -1.2737 -1.0466  1.0072
  814MOL0     C12223   6.623   6.010   6.913  0.5635 -0.5090 -1.0380
  814MOL0     C12224   6.770   6.038   6.925  0.2465  1.0391 -0.2016
  814MOL0     O12225   6.850   5.926   6.942  0.5433 -0.4184  0.1259
  814MOL0     C12226   6.987   5.958   6.944  0.1382  1.1179 -0.1265
  814MOL0     C12227   7.053   5.868   6.850  1.2281 -0.3751 -0.3405
  814MOL0     C12228   7.196   5.878   6.852  0.6705  0.3281  0.0150
  814MOL0     C12229   7.272   5.955   6.935  0.3549 -0.0081  0.2260
  814MOL0     O12230   7.406   5.970   6.935  0.6002  0.2292 -0.5966
  814MOL0     C12231   7.459   5.963   6.807  0.0894 -0.6316 -0.4249
  814MOL0     C12232   7.592   6.049   6.815 -0.5942  0.7300  0.6212
  814MOL0     C12233   7.670   6.047   6.948  0.4299 -0.4627 -0.5993
  814MOL0     C12234   7.823   6.092   6.937 -0.7208  0.2095  0.3108
  814MOL0     C12235   7.853   6.221   6.851 -0.9924  0.0043  0.6453
  814MOL0     C12236   8.004   6.253   6.854  0.3813 -0.4277  1.2463
  814MOL0     C12237   8.033   6.382   6.773  0.3224 -0.1536 -0.0900
  814MOL0     C12238   8.171   6.394   6.713  0.5211 -0.1669  0.3723
  814MOL0    Cl12239   8.232   6.242   6.644  0.1552  0.1733 -0.0105
  814MOL0     C12240   7.200   6.030   7.030  0.2119  0.0875 -0.5497
  814MOL0     C12241   7.054   6.039   7.034  0.0463  0.4673  0.7099
  814MOL0     O12242   6.807   6.152   6.925 -0.1145  0.1672 -0.2162
  814MOL0     C12243   6.589   5.873   6.881 -0.1396  0.2079  0.0424
  814MOL0     C12244   6.460   5.825   6.912  0.2071  0.0677  0.6938
  814MOL0     N12245   5.601   5.840   7.025  0.6189  0.4316  0.0659
  814MOL0     N12246   5.488   5.770   7.027  0.1865  0.9046 -0.2121
  814MOL0     C12247   5.736   5.983   7.581  0.7068  0.6268 -1.5860
  814MOL0     C12248   5.852   5.943   7.647 -0.5445  0.4907  0.1116
  814MOL0     C12249   6.194   5.723   7.876  0.4508 -0.2586  0.7198
  814MOL0     C12250   6.283   5.807   7.803  0.0827 -0.1115 -0.2148
  814MOL0     C12251   6.419   5.816   7.848 -0.4341  0.6441  0.0442
  814MOL0     C12252   6.468   5.756   7.968  0.9843 -0.3956  0.1064
  814MOL0     O12253   6.601   5.797   7.997 -0.2198  0.4404 -0.2270
  814MOL0     C12254   6.640   5.810   8.134  0.5015  0.2243  0.0892
  814MOL0     C12255   6.790   5.814   8.149 -0.2525  0.1892 -0.1724
  814MOL0     C12256   6.829   5.865   8.284 -0.7499 -0.2259  0.1925
  814MOL0     C12257   6.972   5.934   8.279  0.5000  0.0602 -0.1212
  814MOL0     C12258   7.080   5.852   8.217 -0.0404  0.7989 -0.3116
  814MOL0     C12259   7.150   5.769   8.167 -0.1605 -0.1661  0.8130
  814MOL0     C12260   6.377   5.676   8.039  0.0472  1.2964  0.3375
  814MOL0     C12261   6.241   5.659   7.993 -0.3847 -0.1310  1.1949
  814MOL0     C12262   6.146   5.579   8.078  0.0595 -0.4331 -0.4071
  814MOL0     H12263   5.802   5.616   7.700  0.0618  0.6946  0.2288
  814MOL0     H12264   5.593   5.676   7.598  0.4277 -0.6525 -0.8327
  814MOL0     H12265   5.532   6.029   7.353 -2.2337  2.6309  0.1674
  814MOL0     H12266   5.499   6.094   7.512  4.2429  0.2114 -1.1017
  814MOL0     H12267   5.284   5.946   7.507  0.7629  3.7838  1.6458
  814MOL0     H12268   5.283   6.102   7.416  0.9735  1.1241 -1.5498
  814MOL0     H12269   5.377   5.955   7.215  0.3310  0.5984 -0.6492
  814MOL0     H12270   5.329   5.824   7.314  4.5258  0.9792  2.2009
  814MOL0     H12271   5.099   5.924   7.324  0.6102 -0.6458 -0.1440
  814MOL0     H12272   5.153   6.051   7.220  0.2831  0.0929 -0.1287
  814MOL0     H12273   5.027   5.875   7.080  0.4194  4.3634 -1.2573
  814MOL0     H12274   5.162   5.756   7.119 -2.0899 -0.4981  1.8168
  814MOL0     H12275   5.133   6.014   6.966 -0.4508 -0.3313  1.4222
  814MOL0     H12276   5.299   5.949   7.009  0.2454  0.1570 -1.1094
  814MOL0     H12277   5.232   5.886   6.773  1.5380  0.4638  1.5093
  814MOL0     H12278   5.104   5.792   6.849 -0.4941 -0.5952  1.0147
  814MOL0     H12279   5.280   5.651   6.960  2.8546  1.2384  2.5519
  814MOL0     H12280   5.319   5.655   6.781  2.4743 -1.7413  0.9738
  814MOL0     H12281   5.544   5.820   6.698 -0.4453  0.8425 -0.2967
  814MOL0     H12282   5.780   6.023   6.904 -0.6508  0.8065 -1.5305
  814MOL0     H12283   5.744   5.959   6.739 -0.8628  0.6645 -0.1654
  814MOL0     H12284   5.892   5.811   6.957 -3.1093 -0.3797  0.0934
  814MOL0     H12285   5.893   5.769   6.789 -1.5131  0.1068  0.6502
  814MOL0     H12286   6.002   6.000   6.738  1.0416 -0.1388 -1.2157
  814MOL0     H12287   6.029   6.008   6.907  0.1337 -1.3043  0.5259
  814MOL0     H12288   6.123   5.760   6.775 -2.6199  1.0235  0.5690
  814MOL0     H12289   6.212   5.914   6.726 -0.3453 -0.5357 -1.0374
  814MOL0     H12290   6.291   6.108   6.970  0.8323  1.3472  3.7121
  814MOL0     H12291   6.447   6.290   7.002 -1.4771  0.3041 -1.1286
  814MOL0     H12292   6.566   6.297   6.874  1.1574 -0.7703  1.6572
  814MOL0     H12293   6.624   6.267   7.041  1.2125 -2.7638 -1.1814
  814MOL0     H12294   7.002   5.812   6.773 -1.2371  1.5045 -0.1739
  814MOL0     H12295   7.253   5.824   6.777  2.1231  1.0815  0.5511
  814MOL0     H12296   7.490   5.862   6.782 -1.3710 -0.6776 -2.2887
  814MOL0     H12297   7.388   5.990   6.728 -1.6351 -1.9872  0.5914
  814MOL0     H12298   7.668   6.006   6.749 -0.0321 -1.0343  2.3228
  814MOL0     H12299   7.574   6.151   6.780  0.3868 -0.2438 -3.1633
  814MOL0     H12300   7.669   5.953   7.004 -0.4601 -0.5286 -0.7041
  814MOL0     H12301   7.621   6.117   7.016  2.4429 -1.6138  2.1971
  814MOL0     H12302   7.883   6.018   6.884 -1.1255 -0.0631  0.2231
  814MOL0     H12303   7.875   6.095   7.033  1.3031 -0.5003 -0.7078
  814MOL0     H12304   7.827   6.205   6.746  1.3910  0.8604 -0.1256
  814MOL0     H12305   7.801   6.306   6.897  0.8293  2.0246 -0.8148
  814MOL0     H12306   8.066   6.171   6.815  1.3314  0.7971  0.1201
  814MOL0     H12307   8.037   6.253   6.958 -1.5808 -1.8932  1.9310
  814MOL0     H12308   8.016   6.473   6.832  0.4811 -0.7206  0.8421
  814MOL0     H12309   7.970   6.385   6.683  0.6276 -0.4387 -0.3132
  814MOL0     H12310   8.238   6.426   6.794  1.7629 -1.2728 -0.1735
  814MOL0     H12311   8.181   6.475   6.641  0.2382 -1.0847 -0.7222
  814MOL0     H12312   7.271   6.080   7.094  0.1405 -2.3500  1.5881
  814MOL0     H12313   6.997   6.107   7.097  0.0963  1.7515 -0.5879
  814MOL0     H12314   6.664   5.797   6.863 -0.1412  0.3963 -0.8153
  814MOL0     H12315   6.436   5.722   6.888  0.1602 -0.2408  2.0040
  814MOL0     H12316   5.712   6.081   7.542  0.4484  0.1504 -2.6518
  814MOL0     H12317   5.914   6.029   7.673  0.8086 -0.3577 -0.2187
  814MOL0     H12318   6.243   5.842   7.708  0.4602  1.7302  0.2838
  814MOL0     H12319   6.496   5.864   7.788  0.0231  1.9432  1.5999
  814MOL0     H12320   6.600   5.904   8.173 -1.2416  1.6144 -4.4994
  814MOL0     H12321   6.605   5.725   8.193 -1.8350  0.8768 -0.2905
  814MOL0     H12322   6.831   5.870   8.065  1.0782 -3.1222 -1.8864
  814MOL0     H12323   6.834   5.715   8.138 -1.7195 -0.3055 -2.1344
  814MOL0     H12324   6.759   5.940   8.320 -0.8184 -0.3735  0.3679
  814MOL0     H12325   6.828   5.779   8.352 -0.6856 -1.6742 -1.5508
  814MOL0     H12326   7.016   5.947   8.379 -1.6543  2.1867  0.6450
  814MOL0     H12327   6.973   6.032   8.230  0.1897 -0.1495 -0.5532
  814MOL0     H12328   7.207   5.693   8.116  0.1263 -0.0213  0.9172
  814MOL0     H12329   6.420   5.608   8.112  1.8457 -1.3889 -2.9399
  814MOL0     H12330   6.201   5.538   8.163  0.9251  0.1174 -0.6874
  814MOL0     H12331   6.068   5.640   8.125  1.2001 -0.9713  2.3786
  814MOL0     H12332   6.112   5.493   8.020 -0.2683  0.9099 -2.2659
  815MOL0     O12333   2.293   0.928   9.354  0.2295 -0.8011  0.4852
  815MOL0     C12334   2.298   0.877   9.464  0.0088 -0.0014  0.2436
  815MOL0     O12335   2.355   0.941   9.575 -0.8407 -0.1816 -0.0586
  815MOL0     C12336   2.423   1.063   9.557  0.9070 -0.0413  0.0112
  815MOL0     C12337   2.419   1.155   9.660  0.4095 -0.7933 -0.1329
  815MOL0     C12338   2.483   1.284   9.656  0.3518 -0.2142  0.4102
  815MOL0     C12339   2.550   1.327   9.539  0.0434 -0.4282 -0.4429
  815MOL0     O12340   2.604   1.455   9.523  0.5189  0.1797 -0.9823
  815MOL0     C12341   2.622   1.525   9.644 -0.5940  0.3860  1.4052
  815MOL0     C12342   2.703   1.648   9.597 -0.1192  0.0926  0.7584
  815MOL0     C12343   2.632   1.730   9.487 -0.5922 -0.4164 -0.2507
  815MOL0     C12344   2.708   1.853   9.454  1.1048 -1.0849  0.6623
  815MOL0     C12345   2.708   1.964   9.565  0.1935 -0.7604  0.1614
  815MOL0     C12346   2.781   2.094   9.508  0.0745 -0.0778 -0.2767
  815MOL0     C12347   2.920   2.076   9.456 -0.1832 -0.1273 -0.2239
  815MOL0     C12348   3.025   2.067   9.568  0.3957  0.3188  0.3858
  815MOL0     N12349   3.158   2.028   9.524 -0.4006 -0.6941 -0.2526
  815MOL0     C12350   3.245   2.103   9.450  0.1355  0.6307 -0.3828
  815MOL0     C12351   3.331   2.015   9.393 -1.5113 -0.0186 -0.4503
  815MOL0     C12352   3.439   2.049   9.295 -0.4077  0.0371  0.4713
  815MOL0     C12353   3.545   2.144   9.358 -0.5702 -0.3670 -0.5920
  815MOL0     C12354   3.602   2.100   9.497  0.8961 -0.2369  0.5077
  815MOL0     C12355   3.691   1.978   9.506  0.9945 -0.2578  0.0262
  815MOL0     O12356   3.786   2.009   9.405 -0.3255  0.2981 -0.0565
  815MOL0     C12357   3.906   1.948   9.419 -0.8620 -0.2985 -0.1469
  815MOL0     C12358   3.998   2.000   9.332 -0.1472  0.2159 -0.0779
  815MOL0     C12359   4.126   1.951   9.315  0.5146 -0.1850  0.2627
  815MOL0     C12360   4.204   2.028   9.205 -1.0079  0.2922 -0.3372
  815MOL0     C12361   4.169   1.839   9.400  0.0103 -0.1603 -0.2444
  815MOL0     C12362   4.299   1.766   9.383 -0.2158  0.0033 -1.0108
  815MOL0     O12363   4.398   1.806   9.294  0.1505  0.3172 -0.6204
  815MOL0     C12364   4.532   1.810   9.339  0.7103 -0.1410  0.2445
  815MOL0     C12365   4.626   1.794   9.243  0.7106  0.3206 -0.2455
  815MOL0     C12366   4.755   1.781   9.285 -1.0824 -0.5283 -0.5902
  815MOL0     C12367   4.801   1.781   9.417  0.8030 -0.2991  0.1503
  815MOL0     O12368   4.925   1.755   9.445  0.1510  0.0549  0.4125
  815MOL0     C12369   4.970   1.711   9.579 -0.0046 -0.0442  0.1315
  815MOL0     C12370   5.125   1.720   9.589  0.6953 -1.1214  0.5279
  815MOL0     C12371   5.195   1.855   9.549 -0.9195  0.0953 -0.1487
  815MOL0     C12372   5.350   1.853   9.557 -0.6133  0.0366 -0.3906
  815MOL0     C12373   5.409   1.744   9.464 -0.1788 -0.0105  0.2561
  815MOL0     C12374   5.562   1.753   9.468  0.5012  0.6042  0.2444
  815MOL0     C12375   5.638   1.665   9.372 -1.1360  0.7377 -0.7602
  815MOL0     C12376   5.739   1.563   9.445 -0.3750 -0.6979  0.4049
  815MOL0    Cl12377   5.830   1.482   9.312  0.0727 -0.0483  0.0170
  815MOL0     C12378   4.703   1.806   9.511  0.9677  0.0750 -0.4663
  815MOL0     C12379   4.574   1.831   9.471  0.3429  0.6747 -0.0531
  815MOL0     O12380   4.313   1.671   9.455  0.4054 -0.6933 -1.1874
  815MOL0     C12381   4.077   1.793   9.497 -0.1088  0.5664  0.3642
  815MOL0     C12382   3.950   1.843   9.510  0.4346 -0.5381  0.4326
  815MOL0     N12383   3.306   1.891   9.454  0.1924 -0.4076  0.3363
  815MOL0     N12384   3.201   1.899   9.527 -0.5401 -0.7421  0.2469
  815MOL0     C12385   2.563   1.240   9.433 -0.3623 -0.3095  0.3445
  815MOL0     C12386   2.502   1.105   9.448  0.4666  0.5769 -0.3533
  815MOL0     C12387   2.223   0.745   9.480 -0.9947  0.6118  0.0569
  815MOL0     C12388   2.128   0.712   9.383 -0.1895  0.9509 -0.3634
  815MOL0     C12389   2.054   0.588   9.400  0.2805  0.5549 -1.3837
  815MOL0     C12390   2.073   0.498   9.511  0.3917 -0.2430  0.7894
  815MOL0     O12391   2.001   0.380   9.511  0.0587 -0.6555 -1.1681
  815MOL0     C12392   2.024   0.276   9.599 -0.1814 -0.8383 -0.7405
  815MOL0     C12393   1.958   0.148   9.553 -0.6413  0.9590  0.0567
  815MOL0     C12394   1.967   0.087   9.407  0.7245 -0.3755 -0.6026
  815MOL0     C12395   1.882   0.175   9.319  1.2917 -0.3582  0.4499
  815MOL0     C12396   1.825   0.104   9.201 -0.1493 -0.4316  0.1652
  815MOL0     C12397   1.773   0.042   9.112  0.0487  0.0340  0.1045
  815MOL0     C12398   2.178   0.525   9.598  0.9407 -0.3486 -0.6236
  815MOL0     C12399   2.249   0.654   9.587 -0.3641  1.4764  0.7425
  815MOL0     C12400   2.359   0.680   9.693  0.3020  0.1236 -0.1076
  815MOL0     H12401   2.360   1.122   9.745 -0.3583  2.5813  0.7656
  815MOL0     H12402   2.476   1.350   9.741  0.9406 -0.2245  0.4694
  815MOL0     H12403   2.671   1.467   9.722 -0.2493  1.8413  2.3166
  815MOL0     H12404   2.529   1.561   9.689 -0.7447 -1.3883  2.5984
  815MOL0     H12405   2.742   1.713   9.676  0.6638  0.6079 -0.0274
  815MOL0     H12406   2.795   1.607   9.553 -0.7030  0.2755 -0.6919
  815MOL0     H12407   2.629   1.675   9.392 -2.4538 -2.3109  0.8185
  815MOL0     H12408   2.533   1.756   9.525  0.5105 -1.1906  3.5267
  815MOL0     H12409   2.811   1.822   9.433  1.4724 -0.9037  2.0994
  815MOL0     H12410   2.670   1.895   9.360  0.5572 -0.9020  0.9642
  815MOL0     H12411   2.753   1.916   9.653 -1.7026 -3.4229 -0.1993
  815MOL0     H12412   2.610   1.988   9.605  1.4026  0.8531  2.3693
  815MOL0     H12413   2.720   2.141   9.431 -0.8678  2.4495  1.8741
  815MOL0     H12414   2.771   2.170   9.586 -2.5913 -1.7798  1.2144
  815MOL0     H12415   2.947   2.160   9.391  3.3365 -1.6536 -0.9957
  815MOL0     H12416   2.930   1.989   9.390  1.3503  0.6479 -1.0656
  815MOL0     H12417   3.025   2.158   9.628  1.6453 -0.2772  1.3469
  815MOL0     H12418   2.995   1.984   9.633  1.4946  1.3478  2.3059
  815MOL0     H12419   3.223   2.208   9.433 -0.9979  0.1035 -2.5694
  815MOL0     H12420   3.395   2.094   9.206  1.6191  1.2661  0.0267
  815MOL0     H12421   3.487   1.956   9.261  0.9950 -0.1307  2.6949
  815MOL0     H12422   3.622   2.180   9.288 -2.5641  3.1795 -1.2145
  815MOL0     H12423   3.490   2.230   9.396  0.1078 -1.3717  3.0393
  815MOL0     H12424   3.672   2.184   9.500  0.4593  1.0802 -6.6062
  815MOL0     H12425   3.525   2.113   9.574 -0.4858 -0.9542 -0.6882
  815MOL0     H12426   3.734   1.968   9.606  2.2813  0.8966 -0.3868
  815MOL0     H12427   3.644   1.886   9.470  0.8148 -0.7838  1.5462
  815MOL0     H12428   3.958   2.087   9.281 -2.2814  1.1131  2.8597
  815MOL0     H12429   4.304   2.049   9.245 -0.4260 -0.2633 -1.4770
  815MOL0     H12430   4.168   2.127   9.179 -0.6297  0.3399 -0.6907
  815MOL0     H12431   4.217   1.962   9.119 -1.3664 -0.7198  0.3562
  815MOL0     H12432   4.587   1.779   9.143  1.6173 -1.7981 -0.3537
  815MOL0     H12433   4.822   1.783   9.200  1.5562  1.3760  1.3834
  815MOL0     H12434   4.930   1.775   9.659 -0.8065 -2.7994  2.0673
  815MOL0     H12435   4.930   1.612   9.598 -1.5673  0.8224  1.5871
  815MOL0     H12436   5.160   1.681   9.685  0.7827 -1.9833  0.1557
  815MOL0     H12437   5.155   1.653   9.509 -2.4691  0.8369 -2.6263
  815MOL0     H12438   5.169   1.937   9.616 -0.9768 -1.0117  1.2220
  815MOL0     H12439   5.179   1.880   9.444  2.6829  0.1822 -0.8023
  815MOL0     H12440   5.369   1.829   9.662  0.0140  0.7200 -0.3363
  815MOL0     H12441   5.393   1.951   9.535  2.7329 -1.7744 -2.8885
  815MOL0     H12442   5.373   1.645   9.493 -0.4810  0.0859  0.2121
  815MOL0     H12443   5.384   1.756   9.358  1.2247 -0.8417 -0.1955
  815MOL0     H12444   5.592   1.728   9.570  2.4143 -0.2566 -0.4910
  815MOL0     H12445   5.588   1.856   9.441  2.0124 -0.3203 -2.0650
  815MOL0     H12446   5.703   1.723   9.307  5.0073  0.7579  4.4235
  815MOL0     H12447   5.563   1.604   9.320 -0.5123 -1.3543  0.6697
  815MOL0     H12448   5.703   1.489   9.517  0.0578 -0.1918  1.1597
  815MOL0     H12449   5.811   1.629   9.496 -0.9903  1.0631 -0.9038
  815MOL0     H12450   4.718   1.816   9.618  1.1778  2.5109 -0.6695
  815MOL0     H12451   4.493   1.854   9.540  0.1222 -2.5141  0.8989
  815MOL0     H12452   4.095   1.704   9.557 -0.1112  0.5598  0.3553
  815MOL0     H12453   3.875   1.802   9.578 -2.4202  1.5130 -1.2353
  815MOL0     H12454   2.613   1.269   9.341 -2.9782  1.9086 -0.5057
  815MOL0     H12455   2.513   1.046   9.358  0.2301  3.0076 -2.0613
  815MOL0     H12456   2.122   0.774   9.294  1.7182  3.3544  1.0690
  815MOL0     H12457   1.988   0.571   9.316 -0.7309  0.6761 -0.6334
  815MOL0     H12458   2.130   0.254   9.613  0.6589  3.0223  0.2560
  815MOL0     H12459   1.994   0.308   9.699 -1.5172  0.5724 -1.5344
  815MOL0     H12460   1.852   0.157   9.577 -0.2002  1.5938  1.8663
  815MOL0     H12461   1.994   0.069   9.619 -0.5550  1.6466  0.8385
  815MOL0     H12462   2.072   0.070   9.381  1.4769  1.7293  0.8331
  815MOL0     H12463   1.917  -0.011   9.410  3.3362 -1.7612  1.3567
  815MOL0     H12464   1.938   0.257   9.273  1.9935 -1.8083 -1.3687
  815MOL0     H12465   1.791   0.216   9.365  0.2697 -3.4204  1.3414
  815MOL0     H12466   1.726  -0.018   9.037  0.3877  3.2839 -2.9128
  815MOL0     H12467   2.204   0.456   9.679 -1.6871  1.0764  1.5909
  815MOL0     H12468   2.367   0.587   9.751  3.4271 -0.4482 -1.2385
  815MOL0     H12469   2.458   0.711   9.657 -0.1304  2.6656  0.6977
  815MOL0     H12470   2.317   0.755   9.760 -0.5728 -1.6656  1.4657
  816MOL0     O12471  10.216  10.359   1.618 -0.5421  0.1255  0.2945
  816MOL0     C12472  10.284  10.262   1.582  0.8072 -0.3832 -0.3788
  816MOL0     O12473  10.290  10.139   1.652 -0.2049 -0.2959  0.3026
  816MOL0     C12474  10.216  10.113   1.769 -0.6887  0.4057 -0.4945
  816MOL0     C12475  10.237  10.185   1.889  0.7820 -1.1487  0.1590
  816MOL0     C12476  10.172  10.156   2.004  0.2347  0.8457  0.6495
  816MOL0     C12477  10.080  10.045   2.014  0.1221 -0.9307  0.2653
  816MOL0     O12478  10.018  10.023   2.130 -0.2338 -0.0143  0.2977
  816MOL0     C12479   9.998   9.890   2.179 -0.2174 -0.5307  0.3047
  816MOL0     C12480   9.854   9.871   2.233 -0.7550 -0.1292 -0.1328
  816MOL0     C12481   9.828   9.733   2.291  0.0570  0.0129 -0.4908
  816MOL0     C12482   9.883   9.714   2.433 -0.6723  0.8007 -1.7922
  816MOL0     C12483   9.879   9.563   2.466  0.4873  0.4793 -0.1017
  816MOL0     C12484   9.957   9.535   2.599  0.2678  0.2187 -0.1969
  816MOL0     C12485   9.942   9.380   2.632 -0.3772  0.0566 -0.2126
  816MOL0     C12486  10.044   9.291   2.560  0.5666 -0.1502 -0.2847
  816MOL0     N12487  10.170   9.278   2.626  0.2926 -0.3576 -0.9849
  816MOL0     C12488  10.261   9.374   2.659  0.5334  0.0925  0.4676
  816MOL0     C12489  10.359   9.309   2.725  0.1971  0.0772 -0.4287
  816MOL0     C12490  10.474   9.379   2.786 -0.4019 -0.3287  0.3355
  816MOL0     C12491  10.540   9.288   2.890 -0.4187  0.7731  1.0670
  816MOL0     C12492  10.677   9.345   2.921  0.0190 -0.0199 -0.4303
  816MOL0     C12493  10.748   9.252   3.015 -0.1696 -0.0492  0.1086
  816MOL0     O12494  10.775   9.295   3.148 -0.3576 -0.8989  0.4793
  816MOL0     C12495  10.877   9.379   3.174  0.1259 -0.3755 -0.9065
  816MOL0     C12496  10.896   9.409   3.313  0.1103 -0.1489  0.0944
  816MOL0     C12497  10.993   9.506   3.352 -0.2015  0.7970 -0.2373
  816MOL0     C12498  11.006   9.532   3.496  0.4304  0.0501  0.0396
  816MOL0     C12499  11.068   9.570   3.252  0.7856 -0.3389  0.0927
  816MOL0     C12500  11.168   9.675   3.278 -0.2383  0.4869  0.5520
  816MOL0     O12501  11.280   9.686   3.206  0.8729 -0.1446 -0.2030
  816MOL0     C12502  11.358   9.801   3.213  0.0928  0.3563  0.2755
  816MOL0     C12503  11.457   9.816   3.309 -0.9546 -0.0830  0.4900
  816MOL0     C12504  11.537   9.936   3.297 -0.2321  0.3331 -0.7495
  816MOL0     C12505  11.509  10.048   3.217 -0.0501  1.2061  0.1947
  816MOL0     O12506  11.575  10.165   3.206 -0.0675  0.2740  0.3906
  816MOL0     C12507  11.702  10.167   3.272  0.6660  0.1684  0.5462
  816MOL0     C12508  11.692  10.219   3.415  0.5593 -0.6818  0.1083
  816MOL0     C12509  11.819  10.203   3.493  0.2395 -0.1240  0.8502
  816MOL0     C12510  11.939  10.280   3.441 -0.3482  0.4073 -0.2140
  816MOL0     C12511  12.059  10.238   3.531 -0.3935  0.1056  1.0605
  816MOL0     C12512  12.189  10.305   3.470  0.5276  0.2751 -0.0567
  816MOL0     C12513  12.232  10.229   3.339  0.4454  0.2860 -0.0003
  816MOL0     C12514  12.368  10.160   3.352  0.3119  0.8115 -0.4303
  816MOL0    Cl12515  12.487  10.289   3.350 -0.4633  0.0178 -0.0627
  816MOL0     C12516  11.398  10.030   3.133  0.0833  1.1854 -0.1888
  816MOL0     C12517  11.332   9.906   3.119  0.1373 -0.2655  0.0533
  816MOL0     O12518  11.136   9.758   3.364 -0.5774  0.5210 -0.8427
  816MOL0     C12519  11.065   9.525   3.119 -0.5228 -0.2728 -0.0339
  816MOL0     C12520  10.960   9.437   3.079  0.0217 -0.7280  0.2540
  816MOL0     N12521  10.323   9.176   2.739  0.4733 -0.2475 -0.5511
  816MOL0     N12522  10.204   9.164   2.692  0.1000  0.7586 -0.3920
  816MOL0     C12523  10.054   9.974   1.893 -0.1345  1.0495  0.1108
  816MOL0     C12524  10.118  10.008   1.770  0.5253 -0.4773  0.2244
  816MOL0     C12525  10.368  10.261   1.461 -0.9297  0.4718  0.5228
  816MOL0     C12526  10.492  10.197   1.459  0.0876 -0.1821 -0.2846
  816MOL0     C12527  10.567  10.188   1.349 -0.7924 -0.0394  0.1930
  816MOL0     C12528  10.526  10.244   1.234 -0.2732  0.3432  0.6333
  816MOL0     O12529  10.604  10.254   1.123 -0.0383  0.6859 -0.3720
  816MOL0     C12530  10.653  10.382   1.094 -0.7099 -0.4997  0.6183
  816MOL0     C12531  10.790  10.390   1.015  0.3726  0.2465  0.8655
  816MOL0     C12532  10.770  10.293   0.898 -0.2373 -0.3056  1.2520
  816MOL0     C12533  10.851  10.322   0.782 -0.9676 -0.0201  0.0542
  816MOL0     C12534  10.993  10.333   0.811 -0.0343 -0.2606  0.0323
  816MOL0     C12535  11.112  10.342   0.842 -0.0932 -0.1097 -0.2313
  816MOL0     C12536  10.394  10.298   1.217 -0.3112  0.1658  1.0161
  816MOL0     C12537  10.317  10.308   1.332  0.1925  0.6693  0.2445
  816MOL0     C12538  10.183  10.373   1.313  0.6570  0.3805 -0.3221
  816MOL0     H12539  10.308  10.267   1.882 -0.7816  0.1145 -3.2680
  816MOL0     H12540  10.198  10.206   2.096 -0.0634  0.7812  0.7723
  816MOL0     H12541  10.063   9.870   2.265  1.4952  0.5422 -0.7085
  816MOL0     H12542  10.015   9.823   2.094 -0.3974  0.2694 -0.3767
  816MOL0     H12543   9.830   9.940   2.314  0.7299 -1.7780  1.8114
  816MOL0     H12544   9.787   9.893   2.150  0.3375  0.2493 -0.9393
  816MOL0     H12545   9.722   9.705   2.293 -0.5186  1.8044 -2.1819
  816MOL0     H12546   9.867   9.657   2.223 -0.4572  1.9505 -3.0955
  816MOL0     H12547   9.975   9.771   2.447 -0.4385  0.5193 -2.2117
  816MOL0     H12548   9.806   9.763   2.495 -0.0834 -1.8053  1.2574
  816MOL0     H12549   9.933   9.510   2.387  2.0422  2.4474 -0.4617
  816MOL0     H12550   9.780   9.518   2.472  0.8241 -0.3496 -0.5636
  816MOL0     H12551  10.063   9.557   2.582  0.0600  1.9714  0.5361
  816MOL0     H12552   9.915   9.599   2.678  2.4435  1.0081  0.4024
  816MOL0     H12553   9.844   9.351   2.594 -1.1181  0.3087  1.4160
  816MOL0     H12554   9.947   9.368   2.741 -0.5974  0.7833 -0.1214
  816MOL0     H12555  10.003   9.190   2.554  0.9845 -0.4556  1.6059
  816MOL0     H12556  10.059   9.342   2.464  1.2708 -0.2900 -0.2562
  816MOL0     H12557  10.253   9.476   2.621 -1.8534 -1.4047 -3.6717
  816MOL0     H12558  10.423   9.462   2.835  2.5854  2.0135 -0.1997
  816MOL0     H12559  10.542   9.411   2.707 -0.8255 -0.7973 -0.2302
  816MOL0     H12560  10.484   9.287   2.984  2.3514 -1.0024  2.8528
  816MOL0     H12561  10.561   9.187   2.854  0.5768  0.7588  1.6289
  816MOL0     H12562  10.735   9.351   2.828  2.2938 -1.7253  0.7822
  816MOL0     H12563  10.675   9.447   2.962  0.6439 -0.7397  1.4819
  816MOL0     H12564  10.692   9.158   3.016 -3.8089  1.9006 -1.4556
  816MOL0     H12565  10.839   9.224   2.962 -0.1858 -0.7287  0.4350
  816MOL0     H12566  10.841   9.347   3.384 -1.0577 -0.6854 -1.2355
  816MOL0     H12567  10.963   9.449   3.552  2.0084  0.3287  1.7525
  816MOL0     H12568  10.941   9.618   3.512 -0.3878 -0.3312 -1.1024
  816MOL0     H12569  11.108   9.553   3.530  0.3750 -2.3562  1.9185
  816MOL0     H12570  11.492   9.734   3.372 -0.9739 -0.9974 -0.6641
  816MOL0     H12571  11.615   9.935   3.373 -2.4459 -0.7991  1.6942
  816MOL0     H12572  11.755  10.072   3.278 -3.5187 -2.5832 -0.9164
  816MOL0     H12573  11.758  10.245   3.220 -1.2827  1.1502 -0.2149
  816MOL0     H12574  11.661  10.324   3.414 -0.8336 -1.0710  0.2488
  816MOL0     H12575  11.612  10.162   3.462  1.0525  0.1638  2.1078
  816MOL0     H12576  11.845  10.098   3.505 -2.5702 -1.2097 -1.2432
  816MOL0     H12577  11.801  10.236   3.596 -2.2887 -0.8052  0.6918
  816MOL0     H12578  11.928  10.389   3.440 -1.4336  0.3183  0.6842
  816MOL0     H12579  11.959  10.259   3.335 -2.2625  0.9209 -0.7088
  816MOL0     H12580  12.032  10.269   3.632 -2.6575 -0.1439  0.5740
  816MOL0     H12581  12.074  10.129   3.528  1.2772  0.3286 -0.3363
  816MOL0     H12582  12.266  10.296   3.547 -1.9985  1.3289  2.8074
  816MOL0     H12583  12.179  10.410   3.440 -2.3081  0.2655  0.5812
  816MOL0     H12584  12.226  10.295   3.253 -1.6078 -0.3148 -0.3824
  816MOL0     H12585  12.158  10.149   3.322 -0.8363  1.0650  1.6346
  816MOL0     H12586  12.376  10.084   3.274 -2.6307  0.7519 -0.7844
  816MOL0     H12587  12.390  10.106   3.445  4.4854  3.2974  0.2955
  816MOL0     H12588  11.388  10.100   3.051  1.8232  1.0195 -0.5666
  816MOL0     H12589  11.255   9.890   3.044 -0.7915  0.3633  0.8551
  816MOL0     H12590  11.130   9.573   3.046  0.8645  0.2220  1.4758
  816MOL0     H12591  10.957   9.423   2.972  1.6333 -0.8654  0.1945
  816MOL0     H12592   9.970   9.905   1.891 -1.2257  2.3167 -2.5801
  816MOL0     H12593  10.096   9.957   1.677  0.5258  2.3814 -1.4547
  816MOL0     H12594  10.536  10.158   1.550 -1.8202 -1.8342 -0.0031
  816MOL0     H12595  10.671  10.155   1.344 -0.6633  0.4975 -1.4423
  816MOL0     H12596  10.568  10.428   1.043 -1.4061 -0.7344  1.5361
  816MOL0     H12597  10.679  10.429   1.189  1.5128 -0.4920  0.0620
  816MOL0     H12598  10.880  10.353   1.065 -0.9748 -0.7045  2.7017
  816MOL0     H12599  10.801  10.494   0.982 -2.0356  0.3293  0.0645
  816MOL0     H12600  10.802  10.190   0.916 -0.8733 -1.0302 -1.4593
  816MOL0     H12601  10.664  10.292   0.869 -0.0373  1.0444  0.4035
  816MOL0     H12602  10.823  10.418   0.738 -0.7664 -0.0874 -0.2264
  816MOL0     H12603  10.823  10.244   0.710  0.6486  1.6375 -2.5454
  816MOL0     H12604  11.214  10.350   0.876 -0.8869  1.0065  2.0716
  816MOL0     H12605  10.346  10.312   1.121 -2.8367 -3.9821  1.4100
  816MOL0     H12606  10.180  10.481   1.333 -1.3271  0.7601 -2.2572
  816MOL0     H12607  10.151  10.363   1.209 -0.7824  0.6667  0.0685
  816MOL0     H12608  10.099  10.320   1.359  1.1251 -0.6929 -0.6701
  817MOL0     O12609   9.978  10.967   0.948 -0.0429  0.6486  0.7284
  817MOL0     C12610   9.941  11.071   0.889  0.4157 -0.1787 -0.0244
  817MOL0     O12611  10.023  11.161   0.843  0.5219 -0.1544 -0.2640
  817MOL0     C12612  10.140  11.200   0.897  0.0496  0.1246  0.2819
  817MOL0     C12613  10.202  11.143   1.011  0.1673  0.6065 -0.2516
  817MOL0     C12614  10.331  11.193   1.054 -0.3462  1.0612  0.9830
  817MOL0     C12615  10.391  11.299   0.993  0.0204 -0.2191 -0.8531
  817MOL0     O12616  10.516  11.353   1.027  0.4586  0.5539 -0.0365
  817MOL0     C12617  10.609  11.262   1.094  0.1473 -0.4360  0.0548
  817MOL0     C12618  10.757  11.308   1.106 -0.3166  0.1373  1.4941
  817MOL0     C12619  10.824  11.337   0.968  0.2398  0.4457 -0.8423
  817MOL0     C12620  10.973  11.376   0.992  0.1330 -0.0003 -0.3715
  817MOL0     C12621  11.059  11.382   0.861  0.2531 -0.0679  0.0233
  817MOL0     C12622  11.203  11.403   0.894  0.3343  1.0438 -0.8651
  817MOL0     C12623  11.259  11.280   0.957  0.1580  0.0730 -0.3403
  817MOL0     C12624  11.413  11.277   0.949  0.5987  0.8231  0.2723
  817MOL0     N12625  11.473  11.355   1.054  0.0602  0.1741  0.3962
  817MOL0     C12626  11.457  11.327   1.187 -0.0288  0.8023 -0.2704
  817MOL0     C12627  11.552  11.406   1.245 -0.2164  0.1955 -1.3782
  817MOL0     C12628  11.574  11.411   1.399 -0.0545  0.1072 -0.1822
  817MOL0     C12629  11.722  11.401   1.433 -0.1052  0.1073 -0.3363
  817MOL0     C12630  11.782  11.265   1.396  1.0048  0.2779  0.0279
  817MOL0     C12631  11.912  11.258   1.319 -0.3219 -0.8777  0.7427
  817MOL0     O12632  12.021  11.308   1.398 -0.6577  0.1203  0.4783
  817MOL0     C12633  12.154  11.260   1.380 -0.8039  0.6634 -0.0593
  817MOL0     C12634  12.243  11.237   1.475  0.3379 -0.2924 -0.6466
  817MOL0     C12635  12.366  11.177   1.448  0.4845 -0.1984  0.8718
  817MOL0     C12636  12.455  11.132   1.558  0.4209  0.1688  1.3411
  817MOL0     C12637  12.415  11.166   1.315 -0.2779  0.1752 -0.1204
  817MOL0     C12638  12.547  11.115   1.275  0.3685 -0.7841 -0.1110
  817MOL0     O12639  12.555  11.093   1.143  0.1125  0.2413 -0.0632
  817MOL0     C12640  12.646  11.018   1.071  0.2155 -0.4496  0.2610
  817MOL0     C12641  12.637  11.040   0.923  0.0753  1.3557 -0.6958
  817MOL0     C12642  12.711  10.959   0.837 -0.3643  0.8104  0.7346
  817MOL0     C12643  12.804  10.860   0.892  0.6862  0.3894 -0.0326
  817MOL0     O12644  12.889  10.792   0.812 -0.0745  0.0422 -0.3177
  817MOL0     C12645  12.878  10.784   0.675  0.1472 -0.2343  0.8589
  817MOL0     C12646  12.985  10.689   0.621  0.7380  0.1107  0.7412
  817MOL0     C12647  12.964  10.549   0.686 -0.6451 -0.4409  0.0165
  817MOL0     C12648  12.937  10.443   0.579 -0.8667 -0.0628 -0.6241
  817MOL0     C12649  12.921  10.307   0.637  0.4921  0.2316  0.4724
  817MOL0     C12650  12.873  10.203   0.534  0.6931  1.0946  0.1757
  817MOL0     C12651  12.852  10.058   0.595 -0.9619  0.0756  0.4193
  817MOL0     C12652  12.829   9.945   0.503  0.1512 -0.4082 -0.6935
  817MOL0    Cl12653  12.768   9.801   0.604 -0.1787 -0.1507  0.0893
  817MOL0     C12654  12.816  10.844   1.028 -0.2258  0.7921  0.4054
  817MOL0     C12655  12.739  10.919   1.118  0.2523  0.1663  0.0373
  817MOL0     O12656  12.634  11.079   1.353  0.4621  0.0945  0.1732
  817MOL0     C12657  12.323  11.195   1.212  0.2131  0.2954 -0.3272
  817MOL0     C12658  12.192  11.233   1.248  0.3881 -0.4652  0.4148
  817MOL0     N12659  11.608  11.487   1.152 -0.3943 -0.1239  0.0275
  817MOL0     N12660  11.559  11.462   1.034  0.1235 -0.0525  0.3193
  817MOL0     C12661  10.321  11.357   0.879 -0.1066 -0.2473 -0.6689
  817MOL0     C12662  10.203  11.309   0.827 -0.1158 -0.2761 -0.4950
  817MOL0     C12663   9.796  11.091   0.864  0.3619 -0.2669 -0.5139
  817MOL0     C12664   9.749  11.219   0.872  0.1899 -0.9298  0.4125
  817MOL0     C12665   9.614  11.248   0.832  0.0065 -0.3091 -0.5898
  817MOL0     C12666   9.527  11.148   0.790 -0.3566  0.5156  0.3219
  817MOL0     O12667   9.394  11.162   0.757 -0.2607 -0.1903  0.4840
  817MOL0     C12668   9.305  11.263   0.813  0.0782  0.3636 -0.3607
  817MOL0     C12669   9.248  11.368   0.714  0.3351 -0.3527 -0.2538
  817MOL0     C12670   9.149  11.304   0.612  0.3506  0.3855 -0.1378
  817MOL0     C12671   9.140  11.393   0.482 -0.2233  0.4022 -0.8432
  817MOL0     C12672   9.076  11.526   0.504  0.4720 -0.6667  0.3299
  817MOL0     C12673   9.016  11.630   0.518  0.4729 -0.2453  0.0644
  817MOL0     C12674   9.577  11.017   0.795 -0.1490 -0.0647  0.8480
  817MOL0     C12675   9.708  10.988   0.829 -0.1449  0.4799  0.4810
  817MOL0     C12676   9.750  10.843   0.817  0.0040 -0.8343 -0.1722
  817MOL0     H12677  10.155  11.062   1.067 -0.4307  1.9358  1.2884
  817MOL0     H12678  10.370  11.134   1.136  0.1936  1.0833  0.7458
  817MOL0     H12679  10.605  11.167   1.040 -0.3903  0.3030 -1.2538
  817MOL0     H12680  10.575  11.237   1.195  0.1038 -0.2933  0.0750
  817MOL0     H12681  10.768  11.395   1.172 -0.7847  3.3350 -2.2904
  817MOL0     H12682  10.805  11.221   1.153  2.1749  0.5987 -0.0490
  817MOL0     H12683  10.839  11.246   0.910  1.8772  1.3165 -1.8790
  817MOL0     H12684  10.767  11.407   0.907  0.7524  1.1248 -0.5639
  817MOL0     H12685  10.980  11.465   1.054 -0.7630  0.1080 -0.4147
  817MOL0     H12686  11.014  11.299   1.058 -1.1894 -2.4547 -2.2446
  817MOL0     H12687  11.037  11.472   0.802  1.9894  0.9756  0.8755
  817MOL0     H12688  11.031  11.288   0.814  1.3151 -0.5098  0.2576
  817MOL0     H12689  11.252  11.416   0.797 -2.6670 -4.8680 -3.7022
  817MOL0     H12690  11.200  11.492   0.957 -0.7183  0.7975 -0.5553
  817MOL0     H12691  11.218  11.188   0.912 -0.4882  0.7824 -1.2386
  817MOL0     H12692  11.226  11.276   1.061 -1.0122 -0.1204 -0.7068
  817MOL0     H12693  11.443  11.173   0.962 -1.7312 -0.3725 -2.6926
  817MOL0     H12694  11.453  11.322   0.858  0.6775  4.5201  1.9340
  817MOL0     H12695  11.394  11.248   1.226  0.7101 -0.1278 -0.9171
  817MOL0     H12696  11.535  11.322   1.450 -0.7802 -0.6076 -1.9103
  817MOL0     H12697  11.534  11.504   1.441  1.5227 -0.0126  1.7307
  817MOL0     H12698  11.771  11.482   1.378 -3.3795 -0.1023 -4.0052
  817MOL0     H12699  11.730  11.424   1.540  3.0981  0.1176 -0.5055
  817MOL0     H12700  11.792  11.203   1.485  0.9438 -2.0344 -1.4905
  817MOL0     H12701  11.710  11.207   1.338 -1.2185  2.9164 -0.0608
  817MOL0     H12702  11.934  11.155   1.290 -0.4924 -1.4442  2.5448
  817MOL0     H12703  11.905  11.316   1.226 -2.2466 -2.9077 -0.4663
  817MOL0     H12704  12.233  11.257   1.581  0.1644 -0.4001 -0.6428
  817MOL0     H12705  12.552  11.183   1.550  0.2208  0.3704  0.1191
  817MOL0     H12706  12.472  11.025   1.542 -0.3082  0.2688 -0.2316
  817MOL0     H12707  12.415  11.137   1.660  1.4020 -3.6241  2.1051
  817MOL0     H12708  12.568  11.106   0.872  0.7383  1.0589 -2.0140
  817MOL0     H12709  12.704  10.960   0.729 -0.3516 -3.7570  0.4970
  817MOL0     H12710  12.777  10.752   0.649  0.2621  0.9117 -1.1234
  817MOL0     H12711  12.899  10.885   0.639 -0.1934 -0.9028 -1.3954
  817MOL0     H12712  12.980  10.692   0.512  2.2770  2.3549  0.6608
  817MOL0     H12713  13.084  10.728   0.648 -0.4915  2.1983  2.6482
  817MOL0     H12714  12.895  10.534   0.770  0.6586  0.2403  1.2739
  817MOL0     H12715  13.059  10.511   0.725 -1.6147 -3.4620 -0.3029
  817MOL0     H12716  13.011  10.444   0.499  1.5786  0.8081  1.5154
  817MOL0     H12717  12.842  10.474   0.534 -0.5264  0.3154 -1.0830
  817MOL0     H12718  13.021  10.274   0.666  0.4756  2.1459  3.1084
  817MOL0     H12719  12.845  10.323   0.715 -2.2102  1.9989 -2.3102
  817MOL0     H12720  12.943  10.198   0.450  2.4700  2.4059  1.4911
  817MOL0     H12721  12.776  10.242   0.502  0.0184  0.4547  1.3535
  817MOL0     H12722  12.761  10.078   0.654 -1.6261  2.4248 -1.2447
  817MOL0     H12723  12.931  10.032   0.666  0.8127  2.2963 -0.6045
  817MOL0     H12724  12.922   9.915   0.453  0.5480  1.5277 -1.2159
  817MOL0     H12725  12.757   9.962   0.423 -0.3140  0.4391 -0.1192
  817MOL0     H12726  12.890  10.772   1.061  1.8954  0.7973 -3.7122
  817MOL0     H12727  12.744  10.910   1.226  3.5272 -0.2649 -0.0452
  817MOL0     H12728  12.345  11.187   1.106  0.2346 -1.2621 -0.2362
  817MOL0     H12729  12.124  11.244   1.164 -0.0117 -2.4807  0.4324
  817MOL0     H12730  10.376  11.438   0.833  1.3750 -1.5224 -1.2317
  817MOL0     H12731  10.154  11.341   0.735 -3.0271 -3.9795 -0.4727
  817MOL0     H12732   9.817  11.294   0.912  0.8853  0.9079 -3.6391
  817MOL0     H12733   9.591  11.354   0.836  1.1508 -0.0787  0.4045
  817MOL0     H12734   9.220  11.217   0.865  1.0182  0.6667  1.5392
  817MOL0     H12735   9.348  11.323   0.895  0.4720 -1.7688  1.0853
  817MOL0     H12736   9.329  11.424   0.665  0.8324 -0.2464  0.6722
  817MOL0     H12737   9.181  11.438   0.764 -0.0052 -1.6932  1.2731
  817MOL0     H12738   9.173  11.203   0.578 -0.9673 -0.8086  2.1743
  817MOL0     H12739   9.052  11.299   0.662  1.2494  2.2737  1.9724
  817MOL0     H12740   9.089  11.328   0.410 -2.1352  1.4946 -0.5282
  817MOL0     H12741   9.244  11.401   0.448 -0.1400 -1.9071 -1.3012
  817MOL0     H12742   8.961  11.722   0.526  3.2452  1.4529  0.7386
  817MOL0     H12743   9.513  10.933   0.772 -0.4494  1.0516 -3.1787
  817MOL0     H12744   9.838  10.839   0.752  0.2290 -1.6733  0.1589
  817MOL0     H12745   9.790  10.796   0.908  1.7175  1.0892  0.1387
  817MOL0     H12746   9.666  10.781   0.786 -1.0018  0.3687  0.0893
  818MOL0     O12747   1.188   4.147   8.407 -0.5241  0.3301 -0.7037
  818MOL0     C12748   1.212   4.147   8.528  0.1192  0.7477 -0.1152
  818MOL0     O12749   1.307   4.216   8.588  0.3522 -0.2608  0.1493
  818MOL0     C12750   1.409   4.277   8.524 -0.5039  0.8716 -0.4340
  818MOL0     C12751   1.507   4.204   8.443  0.7510  0.0237 -0.3147
  818MOL0     C12752   1.621   4.277   8.394 -0.1065 -0.3352 -0.4933
  818MOL0     C12753   1.629   4.420   8.416 -0.8419  0.1281 -0.0311
  818MOL0     O12754   1.735   4.496   8.363 -0.5482  0.0138 -0.3950
  818MOL0     C12755   1.688   4.598   8.282  1.1454 -0.1872 -0.5358
  818MOL0     C12756   1.780   4.650   8.171 -0.3565  0.1857  0.2960
  818MOL0     C12757   1.916   4.684   8.240 -0.5365 -0.5851 -0.0248
  818MOL0     C12758   2.003   4.757   8.137 -0.0824 -0.8360  0.9945
  818MOL0     C12759   2.146   4.763   8.192 -0.6919 -0.0538  0.2122
  818MOL0     C12760   2.172   4.868   8.298  0.4343 -0.0747  0.3957
  818MOL0     C12761   2.309   4.868   8.354 -0.5328  0.0812  0.3666
  818MOL0     C12762   2.320   4.977   8.466  0.2228 -0.8707  1.0145
  818MOL0     N12763   2.448   4.994   8.536  0.3574 -1.0013  0.2987
  818MOL0     C12764   2.569   5.021   8.481  0.2308 -0.1933  0.4917
  818MOL0     C12765   2.650   5.031   8.589 -0.3456 -0.6500  0.2780
  818MOL0     C12766   2.799   5.040   8.589 -0.6120 -0.2294  0.0959
  818MOL0     C12767   2.848   5.189   8.590  0.9486  0.7925  0.7648
  818MOL0     C12768   2.964   5.239   8.680  0.3937  0.8758  0.2389
  818MOL0     C12769   3.094   5.156   8.652 -0.1437  0.0952 -0.6450
  818MOL0     O12770   3.137   5.165   8.510 -0.5387  0.4171  0.1583
  818MOL0     C12771   3.253   5.106   8.480  0.4242 -0.3914 -0.0323
  818MOL0     C12772   3.363   5.098   8.569 -0.0217 -0.0430 -0.6621
  818MOL0     C12773   3.490   5.049   8.533  1.2392  0.5271 -0.2752
  818MOL0     C12774   3.596   5.077   8.635  0.2424 -0.3426  0.3273
  818MOL0     C12775   3.514   5.000   8.404  0.3444 -0.7663 -0.9366
  818MOL0     C12776   3.642   4.933   8.356 -0.3202  0.0573 -0.2927
  818MOL0     O12777   3.649   4.908   8.219  0.0533 -0.0174  0.9245
  818MOL0     C12778   3.776   4.901   8.174  0.5613 -0.5972  0.1030
  818MOL0     C12779   3.863   5.013   8.154 -1.2117 -0.6414 -0.5188
  818MOL0     C12780   3.991   5.009   8.109  0.1343  0.5591  0.9266
  818MOL0     C12781   4.047   4.884   8.102 -0.0350  0.1979  0.2230
  818MOL0     O12782   4.182   4.867   8.065  0.1241  0.0861  1.1688
  818MOL0     C12783   4.269   4.971   8.008  0.2277  1.1330  0.1508
  818MOL0     C12784   4.419   4.939   8.040 -0.1757 -0.4891  0.1598
  818MOL0     C12785   4.513   5.054   7.996 -0.0906  0.1813  0.2509
  818MOL0     C12786   4.659   5.028   8.030  0.6503 -0.4211 -0.0429
  818MOL0     C12787   4.743   5.145   7.974 -0.3270 -0.8701  1.2871
  818MOL0     C12788   4.888   5.141   8.018 -0.4879  0.3203 -0.2632
  818MOL0     C12789   4.901   5.158   8.174 -0.2300 -0.4060 -0.0597
  818MOL0     C12790   5.043   5.208   8.201 -0.4172  0.1571 -0.4055
  818MOL0    Cl12791   5.164   5.098   8.119  0.5392 -0.5796 -0.1561
  818MOL0     C12792   3.971   4.772   8.120 -0.8361 -0.2774 -0.3772
  818MOL0     C12793   3.838   4.779   8.146  0.6446 -0.2029 -0.9255
  818MOL0     O12794   3.725   4.901   8.442  0.0372  0.1579 -0.2398
  818MOL0     C12795   3.407   5.016   8.318  0.6838  0.1866 -1.0368
  818MOL0     C12796   3.284   5.073   8.354  0.6891 -0.0936  0.3482
  818MOL0     N12797   2.573   5.030   8.706 -0.1431 -0.1691  0.3564
  818MOL0     N12798   2.456   5.000   8.667  0.3904  0.2747 -0.3671
  818MOL0     C12799   1.526   4.486   8.474  0.5785  0.6908  0.2627
  818MOL0     C12800   1.417   4.410   8.533 -0.5470 -0.2360  0.6331
  818MOL0     C12801   1.111   4.082   8.601 -0.6089 -0.5138 -0.1543
  818MOL0     C12802   1.080   3.951   8.556  0.0661  0.9703 -0.1592
  818MOL0     C12803   0.971   3.879   8.619  0.6220 -0.4542 -0.5323
  818MOL0     C12804   0.928   3.914   8.747  0.2205 -0.6787  0.4416
  818MOL0     O12805   0.836   3.837   8.803  0.1310  0.1991  0.2716
  818MOL0     C12806   0.884   3.747   8.901 -0.0656 -0.2168  0.1435
  818MOL0     C12807   0.830   3.610   8.866  0.6019  0.6664 -0.8550
  818MOL0     C12808   0.684   3.597   8.824 -0.1666 -0.0900 -0.4203
  818MOL0     C12809   0.632   3.453   8.809 -1.0731  0.3642  0.5375
  818MOL0     C12810   0.504   3.451   8.737  0.3894  0.0856 -0.3576
  818MOL0     C12811   0.410   3.462   8.672  1.5250 -0.2701  0.3460
  818MOL0     C12812   0.982   4.029   8.809  0.5442  0.3489  1.0761
  818MOL0     C12813   1.061   4.115   8.733 -0.2370 -0.1113  0.0844
  818MOL0     C12814   1.113   4.240   8.802  0.1366 -0.0736 -0.8375
  818MOL0     H12815   1.493   4.098   8.430 -0.5710  0.2785 -1.0740
  818MOL0     H12816   1.709   4.225   8.358  0.0156 -0.2867 -0.2703
  818MOL0     H12817   1.668   4.691   8.336  1.9774  0.0588 -0.6356
  818MOL0     H12818   1.599   4.570   8.224 -0.3169 -0.1436  1.5729
  818MOL0     H12819   1.806   4.566   8.106  1.3510 -0.1233  1.2997
  818MOL0     H12820   1.737   4.735   8.117 -2.3915  0.4905  2.2505
  818MOL0     H12821   1.902   4.748   8.327 -0.4944 -2.8733  1.7715
  818MOL0     H12822   1.970   4.598   8.280 -0.3605 -0.5895 -0.2663
  818MOL0     H12823   1.998   4.710   8.039 -0.7181  0.8105  0.2094
  818MOL0     H12824   1.961   4.858   8.129 -0.7885 -1.1571  0.5956
  818MOL0     H12825   2.216   4.787   8.111  2.2161 -0.7696  2.3769
  818MOL0     H12826   2.167   4.662   8.230 -0.3504 -0.7107 -1.6042
  818MOL0     H12827   2.153   4.966   8.253 -0.4249 -0.8012 -0.8977
  818MOL0     H12828   2.102   4.886   8.380  1.0430 -0.3163  0.9814
  818MOL0     H12829   2.384   4.871   8.275 -1.6424 -2.0088 -0.8471
  818MOL0     H12830   2.328   4.767   8.392 -2.3995 -0.4210  0.0778
  818MOL0     H12831   2.279   5.073   8.432 -0.8197 -1.6339  0.0185
  818MOL0     H12832   2.257   4.955   8.552 -0.3776 -0.4463  0.6961
  818MOL0     H12833   2.594   5.011   8.375 -1.7124 -0.9992  0.0684
  818MOL0     H12834   2.857   4.992   8.509  2.2629  2.3035  0.4722
  818MOL0     H12835   2.822   4.998   8.687  2.2197  0.1870 -0.2957
  818MOL0     H12836   2.866   5.204   8.483  1.9052 -1.4391  0.5601
  818MOL0     H12837   2.767   5.254   8.625 -0.7617  0.0797 -1.6550
  818MOL0     H12838   2.988   5.342   8.653  0.5209  0.6711 -0.4564
  818MOL0     H12839   2.943   5.240   8.787  0.7855  0.4745  0.3253
  818MOL0     H12840   3.167   5.200   8.720 -1.0547  1.7861 -0.7171
  818MOL0     H12841   3.094   5.050   8.682  0.1336  0.2732 -0.0004
  818MOL0     H12842   3.357   5.131   8.672  0.6399 -2.5218  0.2517
  818MOL0     H12843   3.560   5.131   8.722 -2.5720  0.3415 -1.1144
  818MOL0     H12844   3.678   5.124   8.581 -1.6446 -1.2766 -3.7727
  818MOL0     H12845   3.627   4.975   8.662  0.1624 -0.9729 -1.7705
  818MOL0     H12846   3.825   5.114   8.167  0.7876  0.4148 -2.2323
  818MOL0     H12847   4.035   5.102   8.076 -3.0479  1.2526 -1.9542
  818MOL0     H12848   4.257   4.989   7.901  0.9968 -1.6526 -0.4841
  818MOL0     H12849   4.237   5.069   8.045  0.0187  2.1169 -2.4381
  818MOL0     H12850   4.435   4.922   8.147  1.2360 -2.6113 -0.3204
  818MOL0     H12851   4.444   4.842   7.996 -1.2702 -1.3250  1.3107
  818MOL0     H12852   4.472   5.149   8.030  0.0286 -0.2735  1.7577
  818MOL0     H12853   4.503   5.063   7.888 -1.8165 -1.0468  0.2714
  818MOL0     H12854   4.691   4.929   7.996 -1.3764 -1.4824  0.9569
  818MOL0     H12855   4.667   5.026   8.139  0.9979  4.3363  0.2249
  818MOL0     H12856   4.744   5.131   7.866 -1.6561  1.4414  0.9117
  818MOL0     H12857   4.708   5.248   7.990 -1.0490 -0.0410 -3.9761
  818MOL0     H12858   4.931   5.234   7.980 -2.8821  2.4271  1.8407
  818MOL0     H12859   4.944   5.053   7.983 -1.7445 -0.1435 -1.1372
  818MOL0     H12860   4.890   5.062   8.226 -0.4693 -0.2502  0.1812
  818MOL0     H12861   4.835   5.236   8.211  0.7545  0.2181  0.4089
  818MOL0     H12862   5.065   5.213   8.309 -0.8548 -2.0403 -0.1762
  818MOL0     H12863   5.068   5.305   8.157  0.2748  0.2512  0.1738
  818MOL0     H12864   4.019   4.674   8.117 -1.1035 -0.4326  0.1372
  818MOL0     H12865   3.780   4.688   8.149  0.7338 -0.2429  1.3592
  818MOL0     H12866   3.417   4.992   8.212  0.4687 -0.3068 -0.9442
  818MOL0     H12867   3.212   5.097   8.277  4.1029  0.6468 -2.8811
  818MOL0     H12868   1.523   4.593   8.496 -2.4138  0.0910  3.6860
  818MOL0     H12869   1.338   4.465   8.585 -0.7272  0.3728 -0.2616
  818MOL0     H12870   1.132   3.920   8.466 -1.0222 -2.0308  0.1540
  818MOL0     H12871   0.918   3.795   8.575 -0.5405  0.5310 -1.0979
  818MOL0     H12872   0.993   3.756   8.904 -0.0651  1.0986 -1.8763
  818MOL0     H12873   0.840   3.784   8.994 -1.8112 -2.5028  0.3051
  818MOL0     H12874   0.836   3.544   8.953 -2.1406 -0.7234 -1.6127
  818MOL0     H12875   0.887   3.564   8.785 -2.4651 -1.1069 -2.1602
  818MOL0     H12876   0.615   3.650   8.891 -0.1005  1.5277 -1.5711
  818MOL0     H12877   0.675   3.637   8.722  0.9725 -3.6615 -2.0815
  818MOL0     H12878   0.629   3.411   8.910 -0.0365  3.2144  1.8556
  818MOL0     H12879   0.710   3.398   8.758 -1.8417  0.4460 -0.7654
  818MOL0     H12880   0.319   3.462   8.615  1.1262  0.9194  0.9416
  818MOL0     H12881   0.960   4.044   8.914 -2.0107 -1.8332  0.9560
  818MOL0     H12882   1.060   4.267   8.894  1.5963 -0.3065  0.1107
  818MOL0     H12883   1.221   4.234   8.818  0.0293 -1.1223 -0.4140
  818MOL0     H12884   1.096   4.320   8.729 -0.6419 -1.4496 -2.2206
  819MOL0     O12885   6.302   3.408   8.890 -0.0861  0.2134  0.7915
  819MOL0     C12886   6.217   3.347   8.961 -0.1987 -0.3388 -1.4542
  819MOL0     O12887   6.244   3.259   9.071 -0.0224 -0.0819 -0.3230
  819MOL0     C12888   6.361   3.197   9.093 -0.3327 -0.0958  0.1990
  819MOL0     C12889   6.451   3.167   8.991 -0.0950 -0.2274 -0.5585
  819MOL0     C12890   6.578   3.115   9.031 -0.1355  1.0377  0.3128
  819MOL0     C12891   6.615   3.099   9.164 -0.5339  0.2221 -0.0363
  819MOL0     O12892   6.730   3.029   9.198 -0.1124  1.1538  0.8686
  819MOL0     C12893   6.840   3.103   9.242  0.2897 -0.4166 -0.3919
  819MOL0     C12894   6.881   3.060   9.382 -0.9496 -0.0087 -0.0290
  819MOL0     C12895   6.943   2.917   9.390 -0.3327 -0.1714 -0.7307
  819MOL0     C12896   7.038   2.904   9.511 -0.4885 -0.2400 -0.0750
  819MOL0     C12897   7.094   2.762   9.529  1.1100 -0.0566 -0.4958
  819MOL0     C12898   7.228   2.765   9.599  0.5293 -0.9832 -0.5649
  819MOL0     C12899   7.272   2.617   9.607  0.4885  0.1722 -0.6997
  819MOL0     C12900   7.363   2.591   9.720 -0.0187 -0.5166 -0.0728
  819MOL0     N12901   7.495   2.651   9.687  0.0016 -0.7343  0.2081
  819MOL0     C12902   7.533   2.774   9.730 -0.0171 -0.2209 -0.4784
  819MOL0     C12903   7.658   2.786   9.688  0.0699 -0.3669  0.5989
  819MOL0     C12904   7.736   2.909   9.690 -0.5114  0.2731  0.8887
  819MOL0     C12905   7.872   2.910   9.773  0.4203 -0.9142  0.1836
  819MOL0     C12906   7.951   2.779   9.755 -0.5076 -0.5698  0.0304
  819MOL0     C12907   8.104   2.795   9.770  0.6698 -0.7362 -0.0430
  819MOL0     O12908   8.143   2.909   9.844  0.5038  0.6159 -0.2767
  819MOL0     C12909   8.271   2.935   9.867  0.7484  0.3807 -0.5491
  819MOL0     C12910   8.370   2.832   9.878 -0.0693 -0.0192 -0.6425
  819MOL0     C12911   8.509   2.856   9.900 -0.4582 -1.5468 -0.5995
  819MOL0     C12912   8.594   2.735   9.919 -0.5539  0.2624  0.3797
  819MOL0     C12913   8.546   2.984   9.924  0.0833 -0.8690 -0.9884
  819MOL0     C12914   8.687   3.026   9.971 -0.2772  0.4782 -0.4344
  819MOL0     O12915   8.696   3.156  10.022 -0.1433  0.5744  0.4991
  819MOL0     C12916   8.820   3.211  10.068 -0.5385 -0.1900  0.2790
  819MOL0     C12917   8.918   3.147  10.148  0.1676 -0.6882  0.1301
  819MOL0     C12918   9.029   3.224  10.205  0.0683 -0.0352  0.5643
  819MOL0     C12919   9.047   3.358  10.167  0.4822 -0.7972  0.2803
  819MOL0     O12920   9.145   3.440  10.219 -0.1896 -0.0758 -0.1774
  819MOL0     C12921   9.100   3.557  10.282  0.8211  0.1704  0.5730
  819MOL0     C12922   9.140   3.674  10.189 -1.5359  0.3270 -0.1888
  819MOL0     C12923   9.220   3.787  10.263 -0.0011  0.5746 -0.0937
  819MOL0     C12924   9.224   3.909  10.169  0.8868 -0.3329  0.9513
  819MOL0     C12925   9.318   4.014  10.233  0.3072  0.3543  0.1826
  819MOL0     C12926   9.283   4.156  10.173 -0.0881  0.4904 -1.2834
  819MOL0     C12927   9.175   4.223  10.266 -0.9327  0.0840 -0.8045
  819MOL0     C12928   9.146   4.370  10.234 -0.5769  0.3227  0.5283
  819MOL0    Cl12929   9.093   4.411  10.062  0.2225 -0.5745 -0.4148
  819MOL0     C12930   8.951   3.415  10.082 -0.0985  0.5807 -0.5481
  819MOL0     C12931   8.838   3.349  10.035 -0.5967  0.3198  0.2714
  819MOL0     O12932   8.783   2.943   9.959  0.2108 -0.1450 -0.1785
  819MOL0     C12933   8.449   3.092   9.908 -0.9051  0.3483  0.7715
  819MOL0     C12934   8.311   3.065   9.893  0.6564 -0.3461  0.2639
  819MOL0     N12935   7.695   2.669   9.628  0.1518 -0.2958  0.0410
  819MOL0     N12936   7.594   2.591   9.615 -0.9229 -0.6832  0.4057
  819MOL0     C12937   6.527   3.121   9.263  0.3956 -1.0796  0.1401
  819MOL0     C12938   6.398   3.171   9.227 -0.1342  0.5704  0.1628
  819MOL0     C12939   6.074   3.379   8.911 -0.3409 -0.1559 -0.2311
  819MOL0     C12940   6.053   3.460   8.791  0.3138 -0.2220  0.0491
  819MOL0     C12941   5.927   3.486   8.733 -0.2024 -0.1533  0.2376
  819MOL0     C12942   5.814   3.446   8.807 -0.0124 -1.1587  0.2110
  819MOL0     O12943   5.686   3.457   8.754 -0.4002  0.4355 -0.1218
  819MOL0     C12944   5.657   3.566   8.669  0.3194 -0.1262  0.1555
  819MOL0     C12945   5.660   3.697   8.738 -0.2848 -0.3706  0.0399
  819MOL0     C12946   5.577   3.706   8.861 -0.3087 -0.4964 -0.1903
  819MOL0     C12947   5.441   3.773   8.849 -0.3847 -0.9409 -0.4215
  819MOL0     C12948   5.462   3.917   8.828  0.0350  0.3701  0.3345
  819MOL0     C12949   5.466   4.039   8.807 -1.4909  0.0898 -0.3167
  819MOL0     C12950   5.830   3.367   8.925  0.3222 -0.8900 -0.2693
  819MOL0     C12951   5.958   3.330   8.974 -1.0367 -0.0291 -0.1403
  819MOL0     C12952   5.958   3.242   9.094  0.2063 -0.4700 -0.1165
  819MOL0     H12953   6.428   3.198   8.889  0.5024 -0.3989 -0.7502
  819MOL0     H12954   6.653   3.094   8.955  1.1894 -0.1673  1.8599
  819MOL0     H12955   6.807   3.205   9.264  2.2235  0.0230  0.6824
  819MOL0     H12956   6.928   3.109   9.177 -0.0313  2.8064 -0.6657
  819MOL0     H12957   6.953   3.130   9.426  0.4689 -1.8346  0.6949
  819MOL0     H12958   6.794   3.062   9.448 -0.6073  0.2723  0.4138
  819MOL0     H12959   6.865   2.842   9.403  0.4690 -0.9425 -0.2673
  819MOL0     H12960   6.995   2.900   9.296 -1.7189  2.3657 -2.0629
  819MOL0     H12961   7.121   2.972   9.488 -1.4546  0.8571 -0.4319
  819MOL0     H12962   6.982   2.937   9.598  1.8003 -1.9759  2.2181
  819MOL0     H12963   7.101   2.718   9.429  2.2466  0.2376 -0.5575
  819MOL0     H12964   7.015   2.706   9.580 -0.4490  1.8795 -0.6362
  819MOL0     H12965   7.298   2.831   9.547 -1.7647  1.2961 -0.9941
  819MOL0     H12966   7.213   2.801   9.701  0.2025 -1.8580 -0.2923
  819MOL0     H12967   7.309   2.584   9.510 -3.5295  0.2436 -2.4504
  819MOL0     H12968   7.180   2.565   9.637 -0.4974  2.0538 -0.3140
  819MOL0     H12969   7.321   2.651   9.801 -1.4145 -1.7187  0.1424
  819MOL0     H12970   7.365   2.483   9.741  2.1413 -0.4518  0.3404
  819MOL0     H12971   7.463   2.843   9.775 -0.2503 -1.5269  1.2903
  819MOL0     H12972   7.671   2.986   9.732 -2.9603 -1.5690  0.7521
  819MOL0     H12973   7.758   2.944   9.589  2.6005  0.8261  1.6581
  819MOL0     H12974   7.933   2.998   9.748 -2.4136  1.9098  2.3136
  819MOL0     H12975   7.849   2.923   9.879 -2.1674  1.7024 -0.5428
  819MOL0     H12976   7.916   2.705   9.828 -0.9778 -1.2431 -0.8666
  819MOL0     H12977   7.931   2.745   9.653  1.0282 -0.9860 -0.1578
  819MOL0     H12978   8.141   2.700   9.811  4.0234  0.4099 -0.1127
  819MOL0     H12979   8.155   2.801   9.674  2.9689 -1.9074  1.0247
  819MOL0     H12980   8.349   2.726   9.866  1.3811 -0.6305  1.5676
  819MOL0     H12981   8.686   2.724   9.861 -0.8288  1.6413 -0.3659
  819MOL0     H12982   8.545   2.642   9.889 -2.7159  1.4023  0.1467
  819MOL0     H12983   8.612   2.738  10.027 -2.3959  0.4616  0.7235
  819MOL0     H12984   8.908   3.044  10.181 -2.2912  0.0011  1.7770
  819MOL0     H12985   9.096   3.173  10.273  0.5311  0.0392  0.1737
  819MOL0     H12986   8.998   3.571  10.317  1.0911  3.1183  0.4403
  819MOL0     H12987   9.159   3.567  10.374  2.2631 -0.5441 -0.2286
  819MOL0     H12988   9.210   3.640  10.112  1.1878  1.7091  1.5131
  819MOL0     H12989   9.048   3.710  10.141 -0.6105  3.0570 -0.0498
  819MOL0     H12990   9.318   3.740  10.276  0.7181  2.1821  0.5648
  819MOL0     H12991   9.181   3.827  10.357 -0.1515  0.3176 -0.0461
  819MOL0     H12992   9.120   3.942  10.159  0.5043 -1.4300  1.1382
  819MOL0     H12993   9.268   3.881  10.072 -1.0207 -2.1541  0.5259
  819MOL0     H12994   9.305   4.009  10.342  1.7501 -1.1504  0.3283
  819MOL0     H12995   9.422   3.985  10.221  0.1015  0.8087 -4.0312
  819MOL0     H12996   9.252   4.139  10.070  1.5997  1.5548 -2.0204
  819MOL0     H12997   9.376   4.213  10.169  0.9750 -1.0604 -0.0869
  819MOL0     H12998   9.204   4.207  10.370 -0.9084 -0.4038 -0.8803
  819MOL0     H12999   9.085   4.161  10.262  0.7655 -2.7012  0.4518
  819MOL0     H13000   9.243   4.420  10.240 -0.0544 -0.0401 -2.8652
  819MOL0     H13001   9.069   4.403  10.304 -0.6375  1.8512 -0.2186
  819MOL0     H13002   8.975   3.510  10.036  0.7991  0.1743 -0.9400
  819MOL0     H13003   8.773   3.399   9.963 -1.2333 -1.5592 -0.5044
  819MOL0     H13004   8.471   3.196   9.929  1.2695 -0.2086  1.5202
  819MOL0     H13005   8.233   3.139   9.906  1.9221  1.1953 -0.5192
  819MOL0     H13006   6.533   3.109   9.371 -1.7713  1.7715  0.7216
  819MOL0     H13007   6.323   3.200   9.300  0.2423  0.1722  0.7078
  819MOL0     H13008   6.129   3.498   8.723 -1.8597  0.4937 -2.0923
  819MOL0     H13009   5.925   3.522   8.631  0.3096  0.2449  0.3612
  819MOL0     H13010   5.724   3.565   8.583 -1.7221  1.8410 -1.5875
  819MOL0     H13011   5.554   3.547   8.638 -0.6991  1.3470  2.3963
  819MOL0     H13012   5.638   3.779   8.669 -1.9802  0.9231  2.0213
  819MOL0     H13013   5.760   3.710   8.782 -0.4949 -0.8233  0.6588
  819MOL0     H13014   5.571   3.608   8.909  0.7993  1.2454  3.9970
  819MOL0     H13015   5.632   3.777   8.923 -1.9876  0.4325  0.3091
  819MOL0     H13016   5.395   3.774   8.948 -0.5508 -0.2229 -0.5010
  819MOL0     H13017   5.367   3.721   8.789 -3.9931  0.2182  2.6505
  819MOL0     H13018   5.464   4.146   8.800  0.8852  0.3023  0.9434
  819MOL0     H13019   5.741   3.338   8.979  0.1419  0.5790  0.2678
  819MOL0     H13020   5.859   3.205   9.125 -0.0176  2.0980  2.6641
  819MOL0     H13021   6.014   3.154   9.061  1.8345  0.6111 -0.3327
  819MOL0     H13022   5.999   3.285   9.185 -1.7763 -1.8443  1.5423
  820MOL0     O13023  11.217   1.035   5.562 -0.6133 -0.1991  0.2961
  820MOL0     C13024  11.282   0.972   5.646  0.1707  0.6160 -0.2055
  820MOL0     O13025  11.408   1.006   5.687 -0.2295 -0.1548 -0.0756
  820MOL0     C13026  11.466   1.110   5.624 -0.8023 -1.5815 -0.2170
  820MOL0     C13027  11.415   1.236   5.650 -0.8027 -0.2342 -0.1153
  820MOL0     C13028  11.476   1.353   5.595  1.5612 -0.3517  0.4792
  820MOL0     C13029  11.581   1.343   5.508  0.2504 -0.0744  0.1055
  820MOL0     O13030  11.629   1.462   5.458 -0.1234  0.5765 -0.0387
  820MOL0     C13031  11.713   1.455   5.339  0.0635  0.6533 -0.6476
  820MOL0     C13032  11.621   1.465   5.203  0.0569  0.1406  1.2388
  820MOL0     C13033  11.550   1.593   5.189  0.4412 -0.2564  0.0792
  820MOL0     C13034  11.650   1.697   5.130  0.3991  0.9853 -0.5869
  820MOL0     C13035  11.573   1.825   5.137  0.5675 -0.3430  0.1903
  820MOL0     C13036  11.683   1.933   5.142 -0.6432  0.2619  0.5215
  820MOL0     C13037  11.637   2.075   5.181  0.3144 -0.5090  0.8039
  820MOL0     C13038  11.738   2.185   5.167 -0.3249 -0.4940  0.1149
  820MOL0     N13039  11.787   2.212   5.035 -0.1298  0.6858  0.5837
  820MOL0     C13040  11.727   2.280   4.936 -0.6022 -0.1239 -0.4943
  820MOL0     C13041  11.815   2.295   4.843  0.0067 -0.1997  0.0648
  820MOL0     C13042  11.780   2.372   4.714 -0.1331 -0.6349  0.1453
  820MOL0     C13043  11.895   2.394   4.621  0.5367 -0.1087  0.3867
  820MOL0     C13044  11.926   2.261   4.535 -0.3714  0.0834 -0.6816
  820MOL0     C13045  12.069   2.208   4.563 -0.5860 -0.3316  0.9515
  820MOL0     O13046  12.103   2.094   4.480 -0.1123 -0.8107  0.0317
  820MOL0     C13047  12.212   2.013   4.501 -0.2808 -1.0335  0.4630
  820MOL0     C13048  12.292   2.020   4.619 -0.6446  0.1051  0.4701
  820MOL0     C13049  12.393   1.927   4.633 -0.8066  1.0843 -0.4415
  820MOL0     C13050  12.464   1.925   4.770  0.3883  0.1085  1.0702
  820MOL0     C13051  12.417   1.837   4.536  0.0591 -0.2902  1.4944
  820MOL0     C13052  12.534   1.745   4.542  0.8319  0.1062  0.1764
  820MOL0     O13053  12.557   1.672   4.655 -0.7699  0.0842  0.5331
  820MOL0     C13054  12.678   1.608   4.672  0.0323  0.7670  0.6546
  820MOL0     C13055  12.804   1.671   4.652 -0.5917  0.0617 -0.0898
  820MOL0     C13056  12.925   1.596   4.670  0.4892  0.8305 -0.4769
  820MOL0     C13057  12.923   1.460   4.689  0.3126  0.4245 -0.6261
  820MOL0     O13058  13.036   1.390   4.684 -0.5383 -0.8964 -0.0054
  820MOL0     C13059  13.121   1.399   4.800  0.7735  0.0107 -0.0723
  820MOL0     C13060  13.265   1.397   4.747 -0.9372  0.1885  0.6197
  820MOL0     C13061  13.377   1.374   4.842 -0.0724 -0.1278  0.4383
  820MOL0     C13062  13.429   1.501   4.913 -0.1578  0.1200  0.8050
  820MOL0     C13063  13.539   1.486   5.014 -0.8461  0.3174 -0.4207
  820MOL0     C13064  13.548   1.598   5.116 -0.2095 -0.2389  0.2541
  820MOL0     C13065  13.617   1.573   5.244 -0.5567  0.1303  0.3069
  820MOL0     C13066  13.775   1.557   5.209  0.7967 -0.5694  0.0100
  820MOL0    Cl13067  13.861   1.509   5.357 -0.4196  0.3012  0.1705
  820MOL0     C13068  12.797   1.397   4.695 -0.0651 -0.2748 -0.0395
  820MOL0     C13069  12.679   1.470   4.687 -0.0080 -0.0909 -0.2546
  820MOL0     O13070  12.597   1.729   4.437 -0.5214 -1.0535  0.1812
  820MOL0     C13071  12.347   1.839   4.409  0.0363  0.3537 -0.1076
  820MOL0     C13072  12.237   1.923   4.401  0.1618 -0.5483 -0.2492
  820MOL0     N13073  11.934   2.250   4.888 -0.3293  0.4965 -0.4490
  820MOL0     N13074  11.918   2.188   4.996 -0.2474 -0.5697  0.1546
  820MOL0     C13075  11.633   1.217   5.478 -0.5299 -0.0426 -0.4890
  820MOL0     C13076  11.578   1.108   5.538  0.1306  0.1305 -0.1056
  820MOL0     C13077  11.213   0.860   5.708 -0.0855  0.0681  0.2801
  820MOL0     C13078  11.111   0.796   5.633 -0.3828  0.9653 -0.8140
  820MOL0     C13079  11.043   0.687   5.689  0.4208  0.2846 -0.1585
  820MOL0     C13080  11.073   0.640   5.811  0.0673 -0.0112 -0.2159
  820MOL0     O13081  10.995   0.535   5.850  0.3930 -0.5686 -0.1334
  820MOL0     C13082  10.870   0.559   5.909 -0.0912  0.3506 -0.4334
  820MOL0     C13083  10.865   0.627   6.049 -0.6796 -0.2935  0.1775
  820MOL0     C13084  10.714   0.663   6.077 -0.7207  0.6352  0.1706
  820MOL0     C13085  10.683   0.647   6.231 -0.1455 -0.6718  0.0072
  820MOL0     C13086  10.545   0.685   6.261  0.5859 -0.2850 -0.3576
  820MOL0     C13087  10.433   0.720   6.275  0.2115 -0.4440 -0.4320
  820MOL0     C13088  11.172   0.698   5.885  0.1604  0.8760  0.4081
  820MOL0     C13089  11.255   0.805   5.832  0.2041  0.1777 -0.2436
  820MOL0     C13090  11.353   0.864   5.928  0.1441 -0.1477 -0.6872
  820MOL0     H13091  11.326   1.253   5.709 -1.6229  1.3728 -1.7249
  820MOL0     H13092  11.434   1.451   5.615 -3.0512 -2.5264  3.2885
  820MOL0     H13093  11.779   1.368   5.341 -4.8569 -3.5360 -0.6881
  820MOL0     H13094  11.783   1.538   5.349 -0.7833  1.2552  0.7341
  820MOL0     H13095  11.679   1.467   5.110 -2.1653  2.0826 -0.1898
  820MOL0     H13096  11.544   1.387   5.201  0.9561 -0.9123  3.4238
  820MOL0     H13097  11.463   1.575   5.126 -0.3294  1.6768  0.5290
  820MOL0     H13098  11.518   1.615   5.292 -0.9926  0.2088 -0.4517
  820MOL0     H13099  11.738   1.705   5.194  0.1791 -1.6065  0.1635
  820MOL0     H13100  11.675   1.667   5.028 -0.4745 -2.0724  0.0027
  820MOL0     H13101  11.512   1.840   5.227  2.4204 -0.1449  1.4958
  820MOL0     H13102  11.509   1.830   5.049  3.2323  0.6609 -1.8023
  820MOL0     H13103  11.751   1.908   5.224 -0.4729  1.2659  0.7020
  820MOL0     H13104  11.751   1.927   5.057  0.1430  1.6078  1.0127
  820MOL0     H13105  11.613   2.063   5.288  3.9084  0.1155  1.8127
  820MOL0     H13106  11.545   2.093   5.124  0.6690 -1.2706 -0.0248
  820MOL0     H13107  11.696   2.275   5.212  1.2119 -0.5358  1.7088
  820MOL0     H13108  11.821   2.163   5.235  0.4759  1.8741  0.0058
  820MOL0     H13109  11.637   2.339   4.944  1.0614  2.4722  0.2134
  820MOL0     H13110  11.755   2.471   4.752  0.8728 -0.8532  1.4465
  820MOL0     H13111  11.696   2.324   4.664  1.3094 -0.2429 -2.9373
  820MOL0     H13112  11.873   2.477   4.554 -1.2623 -0.7766  0.1025
  820MOL0     H13113  11.985   2.418   4.678 -0.2906  0.9633  1.2989
  820MOL0     H13114  11.847   2.186   4.547  0.9645 -1.2099  0.3971
  820MOL0     H13115  11.921   2.287   4.429 -3.1279  0.0551 -0.6418
  820MOL0     H13116  12.145   2.286   4.549 -1.0192  0.3299  2.1520
  820MOL0     H13117  12.075   2.180   4.669 -0.1773  1.8225  1.5629
  820MOL0     H13118  12.283   2.090   4.702 -0.3408  0.0784  0.5259
  820MOL0     H13119  12.399   1.877   4.844 -2.2647  1.3347 -0.3300
  820MOL0     H13120  12.487   2.025   4.808  0.5043 -0.3039  2.1348
  820MOL0     H13121  12.562   1.874   4.773  1.9482  1.9333 -5.0462
  820MOL0     H13122  12.823   1.777   4.642  1.6989 -0.4143 -1.6884
  820MOL0     H13123  13.020   1.643   4.648  0.8676 -0.0311 -0.7097
  820MOL0     H13124  13.111   1.498   4.846  1.4254  0.1234 -0.1681
  820MOL0     H13125  13.089   1.320   4.869  1.1495  1.4739  1.8482
  820MOL0     H13126  13.267   1.309   4.682  1.7798  0.6020  0.0291
  820MOL0     H13127  13.283   1.489   4.691 -0.9994 -0.3257 -0.2647
  820MOL0     H13128  13.459   1.328   4.786 -0.4835 -0.7849  0.3670
  820MOL0     H13129  13.348   1.304   4.921  0.7948  0.5325  1.3701
  820MOL0     H13130  13.345   1.544   4.968  1.7221  0.7265  3.3933
  820MOL0     H13131  13.472   1.569   4.839 -0.0025  0.9430  1.6332
  820MOL0     H13132  13.521   1.390   5.062  1.4711 -0.6608 -1.3424
  820MOL0     H13133  13.632   1.484   4.955 -0.0061 -1.2166  0.8967
  820MOL0     H13134  13.448   1.641   5.129 -0.6293 -1.0299 -0.3057
  820MOL0     H13135  13.603   1.674   5.059  0.2754 -0.8703 -0.1241
  820MOL0     H13136  13.569   1.484   5.287 -2.5027  1.1318  0.3326
  820MOL0     H13137  13.593   1.652   5.316 -1.0234  0.1171  0.1706
  820MOL0     H13138  13.824   1.645   5.165  2.5756 -0.7529  1.5210
  820MOL0     H13139  13.772   1.479   5.133  1.3416 -0.6345  0.0514
  820MOL0     H13140  12.781   1.290   4.698 -1.4978 -0.0845 -0.3882
  820MOL0     H13141  12.583   1.420   4.682 -0.6792  1.2625 -2.0945
  820MOL0     H13142  12.378   1.773   4.329  1.3524 -1.5037  1.8274
  820MOL0     H13143  12.175   1.915   4.312  1.0299 -3.4279 -0.7240
  820MOL0     H13144  11.720   1.192   5.417 -0.0454 -1.5771  0.7533
  820MOL0     H13145  11.617   1.009   5.519 -1.5713 -0.2616 -1.9196
  820MOL0     H13146  11.077   0.833   5.537  0.6713 -0.2960 -1.7134
  820MOL0     H13147  10.964   0.646   5.628  2.4341  1.0945 -3.5622
  820MOL0     H13148  10.808   0.627   5.849  1.7665  0.2284 -2.6228
  820MOL0     H13149  10.819   0.462   5.906 -1.4721  1.0287  0.0703
  820MOL0     H13150  10.914   0.723   6.030  1.5407 -1.3655  0.1926
  820MOL0     H13151  10.914   0.565   6.124 -0.7401 -1.5880 -0.8029
  820MOL0     H13152  10.706   0.768   6.046 -0.9963 -0.3691 -3.5744
  820MOL0     H13153  10.638   0.617   6.014 -1.0049 -1.6743  2.0797
  820MOL0     H13154  10.746   0.716   6.289 -0.7329 -0.6235  0.6058
  820MOL0     H13155  10.702   0.544   6.262 -1.0154 -0.9219 -0.2699
  820MOL0     H13156  10.335   0.761   6.290  0.0090 -0.3049 -2.0441
  820MOL0     H13157  11.189   0.646   5.979  1.1397  0.0039 -0.2240
  820MOL0     H13158  11.458   0.860   5.896  0.8808 -0.1546  1.5555
  820MOL0     H13159  11.322   0.968   5.935  3.1036  0.8398 -0.7280
  820MOL0     H13160  11.343   0.819   6.027  0.9193  0.7082 -0.2115
  821MOL0     O13161   3.276  11.121   9.229  0.2573 -0.2956  0.4532
  821MOL0     C13162   3.220  11.063   9.319 -0.1163  0.7730 -0.4023
  821MOL0     O13163   3.136  10.960   9.307  0.1897 -0.2767  0.3570
  821MOL0     C13164   3.077  10.938   9.188  0.1272 -0.3874 -0.7452
  821MOL0     C13165   3.157  10.884   9.085  0.1098 -1.4636  0.9683
  821MOL0     C13166   3.102  10.858   8.957 -0.0070 -0.1246  0.5348
  821MOL0     C13167   2.963  10.877   8.937  0.0787  0.2544  0.3002
  821MOL0     O13168   2.915  10.842   8.817 -0.5503 -0.6843  0.0643
  821MOL0     C13169   2.871  10.943   8.722  0.1069 -0.3726  0.0592
  821MOL0     C13170   2.789  10.876   8.611  0.4148 -0.1030 -0.7177
  821MOL0     C13171   2.865  10.773   8.520 -0.8675 -0.0853 -0.4000
  821MOL0     C13172   2.778  10.706   8.419 -0.5681 -0.0547  0.3759
  821MOL0     C13173   2.856  10.591   8.343 -0.1216  0.9814 -0.1899
  821MOL0     C13174   2.744  10.505   8.284  0.5175 -0.2303 -0.8933
  821MOL0     C13175   2.799  10.381   8.218  0.1275  0.6935 -0.3645
  821MOL0     C13176   2.803  10.256   8.308 -0.3796  1.2507 -0.2954
  821MOL0     N13177   2.903  10.166   8.252 -0.3219 -0.1492  0.3761
  821MOL0     C13178   2.897  10.072   8.142 -0.6010  0.2554 -0.2493
  821MOL0     C13179   3.030  10.021   8.137 -0.5297 -0.8628 -0.2281
  821MOL0     C13180   3.079   9.923   8.041  0.0884 -0.1713  1.0421
  821MOL0     C13181   3.194   9.973   7.950  0.0304 -0.0836 -0.3552
  821MOL0     C13182   3.130  10.050   7.835  0.3499 -1.1497  0.6057
  821MOL0     C13183   3.234  10.084   7.729 -0.3650  0.1760 -0.3766
  821MOL0     O13184   3.293   9.968   7.686 -0.2586  0.6098 -0.3121
  821MOL0     C13185   3.308   9.959   7.549 -0.1483  0.1072 -0.1249
  821MOL0     C13186   3.225   9.870   7.488  0.8664  0.0595 -0.0427
  821MOL0     C13187   3.221   9.856   7.349  0.3265  0.4804 -0.6582
  821MOL0     C13188   3.114   9.760   7.296 -0.5406 -0.7006 -0.3370
  821MOL0     C13189   3.304   9.941   7.269  0.0833  0.2152  0.3768
  821MOL0     C13190   3.308   9.925   7.116 -0.2038  0.0432 -0.4874
  821MOL0     O13191   3.423   9.960   7.061 -0.1348 -0.8602 -0.0601
  821MOL0     C13192   3.419   9.964   6.926 -0.3070 -0.0457  0.6012
  821MOL0     C13193   3.426  10.087   6.870 -0.5667  0.7943 -0.4631
  821MOL0     C13194   3.419  10.102   6.729 -0.4539 -0.7657  0.0955
  821MOL0     C13195   3.403   9.994   6.645  0.8515 -0.5509 -0.5009
  821MOL0     O13196   3.385  10.024   6.514  0.7947 -0.1934 -0.6721
  821MOL0     C13197   3.428   9.927   6.417 -0.2775 -0.2895  0.2041
  821MOL0     C13198   3.462  10.005   6.289 -0.2575 -0.2291  0.1245
  821MOL0     C13199   3.550   9.927   6.189  0.2617 -0.8961  0.1018
  821MOL0     C13200   3.701   9.960   6.230  0.3056 -0.2455 -0.1521
  821MOL0     C13201   3.801   9.833   6.206  0.4833  0.0441 -0.3355
  821MOL0     C13202   3.807   9.780   6.060 -0.3931 -0.5657 -0.2032
  821MOL0     C13203   3.924   9.682   6.025  0.0827 -0.3022  0.6557
  821MOL0     C13204   3.936   9.575   6.136  0.1599 -0.2461 -0.1168
  821MOL0    Cl13205   4.051   9.448   6.075 -0.6193  0.1521 -0.0113
  821MOL0     C13206   3.398   9.865   6.702 -0.3545 -0.7169 -0.8503
  821MOL0     C13207   3.405   9.855   6.844  0.3016  0.0259  0.2782
  821MOL0     O13208   3.208   9.898   7.057  0.8487 -0.2518  0.0447
  821MOL0     C13209   3.386  10.034   7.339  0.1019 -0.1143 -0.2035
  821MOL0     C13210   3.398  10.036   7.479 -0.3893  0.0054 -0.7547
  821MOL0     N13211   3.095  10.067   8.251  0.4646 -0.6289 -0.2736
  821MOL0     N13212   3.027  10.155   8.307 -0.1872  0.1425 -1.0300
  821MOL0     C13213   2.883  10.932   9.042 -0.2164 -0.1328  0.0063
  821MOL0     C13214   2.937  10.967   9.163 -1.0571  0.2656  0.0469
  821MOL0     C13215   3.245  11.113   9.464  0.1488 -0.5137  0.0619
  821MOL0     C13216   3.290  11.250   9.476 -0.4363 -0.2136  0.7886
  821MOL0     C13217   3.329  11.309   9.599  0.4917  0.3440 -0.7432
  821MOL0     C13218   3.304  11.238   9.718 -0.5745  0.5364  0.3087
  821MOL0     O13219   3.360  11.302   9.831 -0.2263  0.8329 -0.1501
  821MOL0     C13220   3.317  11.245   9.953 -0.3443  0.3595  0.7351
  821MOL0     C13221   3.408  11.307  10.068  0.2510  0.3008  0.1207
  821MOL0     C13222   3.555  11.265  10.043  0.1115 -0.0033 -0.1592
  821MOL0     C13223   3.588  11.124  10.052  1.0338  0.4140 -0.3802
  821MOL0     C13224   3.717  11.079  10.001 -0.8779 -0.2466  0.6050
  821MOL0     C13225   3.826  11.045   9.969  0.7267 -0.5106  0.1617
  821MOL0     C13226   3.232  11.121   9.714  0.3984  0.7221  0.2820
  821MOL0     C13227   3.210  11.055   9.587 -0.0266  0.8252  0.0861
  821MOL0     C13228   3.148  10.919   9.584 -0.1174 -0.1287 -1.3708
  821MOL0     H13229   3.263  10.872   9.107  0.3658 -0.4610  0.3506
  821MOL0     H13230   3.154  10.815   8.872 -1.1936 -0.2631 -0.1430
  821MOL0     H13231   2.957  10.988   8.672  0.5551 -1.2170  0.0433
  821MOL0     H13232   2.819  11.025   8.772  0.4059 -0.2738  0.2095
  821MOL0     H13233   2.705  10.817   8.649 -0.5063  2.6019  1.8030
  821MOL0     H13234   2.748  10.956   8.548  0.4738 -0.8799 -1.7730
  821MOL0     H13235   2.949  10.825   8.473 -1.6450  3.0991  1.5031
  821MOL0     H13236   2.909  10.694   8.582 -1.0425  0.5044  0.4798
  821MOL0     H13237   2.686  10.677   8.471 -2.8007  0.9069 -2.7385
  821MOL0     H13238   2.755  10.770   8.333  1.8503 -0.1109 -0.3805
  821MOL0     H13239   2.910  10.531   8.417  1.0797 -0.1192 -1.8754
  821MOL0     H13240   2.929  10.631   8.272  1.0985  0.5313  0.7685
  821MOL0     H13241   2.672  10.468   8.358  1.1283  1.1175  0.4230
  821MOL0     H13242   2.686  10.558   8.207 -3.3348 -0.0918  1.8007
  821MOL0     H13243   2.905  10.392   8.192  0.1174 -0.2407 -0.8462
  821MOL0     H13244   2.747  10.361   8.124  1.2409 -1.1864 -0.6391
  821MOL0     H13245   2.842  10.276   8.408 -1.6168  1.2079  0.2091
  821MOL0     H13246   2.707  10.204   8.311 -0.3243  1.0150 -1.7606
  821MOL0     H13247   2.817  10.036   8.078 -1.5876  1.4885  0.2526
  821MOL0     H13248   2.994   9.892   7.980  0.0144  0.8792  0.5799
  821MOL0     H13249   3.118   9.836   8.095 -0.3523  0.5078  2.4939
  821MOL0     H13250   3.269  10.039   7.996  0.0314  0.5363 -1.2189
  821MOL0     H13251   3.245   9.883   7.914  2.2016  1.3591 -1.0938
  821MOL0     H13252   3.053   9.985   7.793  0.8050 -0.2705 -1.7698
  821MOL0     H13253   3.076  10.142   7.861  0.7449 -0.3808 -1.1500
  821MOL0     H13254   3.192  10.153   7.655 -0.9228 -0.1101 -0.3359
  821MOL0     H13255   3.315  10.136   7.780  0.9072 -2.8965  0.9552
  821MOL0     H13256   3.167   9.814   7.561  1.3846  2.5631  2.4570
  821MOL0     H13257   3.177   9.672   7.276 -0.0225 -0.9292  1.9990
  821MOL0     H13258   3.051   9.791   7.212  0.2636  0.3520 -0.5639
  821MOL0     H13259   3.048   9.739   7.382 -1.5252  3.4398  0.0977
  821MOL0     H13260   3.450  10.176   6.928 -0.0516  1.2824 -1.3828
  821MOL0     H13261   3.432  10.204   6.693 -3.2987 -1.0727 -2.0898
  821MOL0     H13262   3.520   9.886   6.461  1.0433  3.3092  1.1757
  821MOL0     H13263   3.342   9.864   6.392 -0.4519 -0.9543  2.2893
  821MOL0     H13264   3.370  10.042   6.243 -0.1163 -1.7442 -1.4907
  821MOL0     H13265   3.519  10.095   6.314 -0.3617 -0.5193  1.4749
  821MOL0     H13266   3.529   9.954   6.085 -3.7249 -2.8535  0.1866
  821MOL0     H13267   3.526   9.821   6.198 -0.3526 -0.8084 -0.4110
  821MOL0     H13268   3.704   9.975   6.338 -2.4754 -3.6023  0.5691
  821MOL0     H13269   3.743  10.049   6.183  1.4773 -0.3405  0.6513
  821MOL0     H13270   3.899   9.860   6.246 -0.7927  1.3308  2.1349
  821MOL0     H13271   3.756   9.751   6.263 -0.4301  2.0165  1.9790
  821MOL0     H13272   3.811   9.874   6.003  4.4542 -1.5417 -1.9310
  821MOL0     H13273   3.711   9.729   6.058 -3.3584  4.3791 -0.1661
  821MOL0     H13274   4.019   9.731   6.003  0.3555 -0.1831  2.0347
  821MOL0     H13275   3.899   9.625   5.934 -0.1802 -1.6230  1.5291
  821MOL0     H13276   3.838   9.532   6.160 -1.4322  3.2414  0.2169
  821MOL0     H13277   3.971   9.614   6.232  1.9322 -2.3828  0.1978
  821MOL0     H13278   3.376   9.777   6.643 -1.8972 -0.1789 -1.1230
  821MOL0     H13279   3.384   9.756   6.885 -1.0553 -0.4237 -1.3958
  821MOL0     H13280   3.454  10.102   7.289  0.0272 -1.8061 -2.7867
  821MOL0     H13281   3.466  10.108   7.524  3.2082 -2.0856 -2.4073
  821MOL0     H13282   2.774  10.933   9.039 -0.2451 -0.4852  0.8044
  821MOL0     H13283   2.877  11.018   9.237 -1.5075 -0.1439 -0.0310
  821MOL0     H13284   3.316  11.316   9.393  1.1272 -1.2420  0.4264
  821MOL0     H13285   3.377  11.405   9.613 -2.8834  2.1240 -0.3094
  821MOL0     H13286   3.212  11.271   9.972  0.0886  1.4186  1.8697
  821MOL0     H13287   3.336  11.138   9.964  1.0721  0.6297  1.0560
  821MOL0     H13288   3.371  11.274  10.166  2.1296 -0.2155  0.7017
  821MOL0     H13289   3.389  11.413  10.054  0.1079  0.2900  0.2330
  821MOL0     H13290   3.587  11.310   9.949  0.8649  0.3482  0.2578
  821MOL0     H13291   3.609  11.321  10.120  2.1725 -0.6611 -1.0558
  821MOL0     H13292   3.516  11.060   9.999 -0.3741  0.8484  0.9201
  821MOL0     H13293   3.594  11.095  10.157  1.3388  1.8271  0.0101
  821MOL0     H13294   3.926  11.028   9.933 -0.1344  0.9323 -3.3411
  821MOL0     H13295   3.198  11.060   9.797  2.0894 -0.0196  0.4614
  821MOL0     H13296   3.051  10.925   9.536 -1.2965  2.8769  1.0618
  821MOL0     H13297   3.209  10.842   9.535 -0.9607 -2.7774  1.4219
  821MOL0     H13298   3.145  10.881   9.687 -1.5216 -0.2984 -1.4621
  822MOL0     O13299   1.784   8.369  10.450 -0.1770 -0.1135 -0.7352
  822MOL0     C13300   1.690   8.290  10.444 -0.6573  0.2071 -0.4457
  822MOL0     O13301   1.576   8.308  10.369 -0.5458 -0.1542 -0.2676
  822MOL0     C13302   1.537   8.424  10.306 -0.9368  0.0297  0.4783
  822MOL0     C13303   1.469   8.517  10.378  0.2803 -0.6228  0.0781
  822MOL0     C13304   1.407   8.628  10.306  0.4946  0.3878 -0.3256
  822MOL0     C13305   1.431   8.653  10.173  0.2244  0.3334 -0.3501
  822MOL0     O13306   1.368   8.753  10.105  0.2932 -0.0847 -0.1137
  822MOL0     C13307   1.310   8.872  10.169  0.3265  0.1981  0.9399
  822MOL0     C13308   1.274   8.994  10.085 -0.1684  0.0865  0.2053
  822MOL0     C13309   1.141   8.982  10.007 -0.2414 -0.0970 -0.9579
  822MOL0     C13310   1.120   8.860   9.911 -0.7008 -0.0791  0.2926
  822MOL0     C13311   0.983   8.792   9.955 -0.4793 -0.3204 -0.0788
  822MOL0     C13312   0.942   8.679   9.853  0.1013 -0.9545  0.1006
  822MOL0     C13313   1.026   8.562   9.835 -0.2636 -0.0357 -0.6723
  822MOL0     C13314   1.045   8.476   9.959 -0.0105 -0.1334 -0.4692
  822MOL0     N13315   1.140   8.360   9.943  0.0280 -0.0845 -1.0004
  822MOL0     C13316   1.272   8.361   9.958 -0.3285  0.3568  0.5485
  822MOL0     C13317   1.312   8.232   9.936 -0.6262 -0.5754  0.4380
  822MOL0     C13318   1.463   8.177   9.930 -0.8353 -1.0076 -0.5068
  822MOL0     C13319   1.488   8.101   9.792 -0.7376 -0.3767 -0.4355
  822MOL0     C13320   1.642   8.075   9.777 -0.2903 -0.3585 -0.5208
  822MOL0     C13321   1.690   7.968   9.869 -0.7133  0.4205  0.9237
  822MOL0     O13322   1.739   8.025   9.990 -0.3495 -0.1243 -0.3635
  822MOL0     C13323   1.866   8.080   9.984  0.2610 -0.7706 -0.5451
  822MOL0     C13324   1.952   8.078   9.880 -0.1982 -0.5811 -0.0231
  822MOL0     C13325   2.082   8.122   9.892  0.4817  0.9722 -0.3194
  822MOL0     C13326   2.169   8.101   9.768  0.7008  0.4908 -0.3988
  822MOL0     C13327   2.130   8.171  10.012 -0.2473  0.9217  0.5664
  822MOL0     C13328   2.270   8.199  10.043 -0.4392  0.2021  0.1525
  822MOL0     O13329   2.305   8.316  10.115 -0.2537  0.1477 -0.2581
  822MOL0     C13330   2.433   8.357  10.146  0.2977  0.7175  0.0946
  822MOL0     C13331   2.521   8.262  10.202  0.5014 -0.4341  0.3119
  822MOL0     C13332   2.646   8.314  10.241 -0.5830  0.4549 -0.2896
  822MOL0     C13333   2.683   8.445  10.214 -0.5086 -0.3783 -0.1092
  822MOL0     O13334   2.817   8.485  10.242 -0.2595  0.5008 -0.8369
  822MOL0     C13335   2.882   8.577  10.155  0.7443  0.1944 -0.1236
  822MOL0     C13336   2.985   8.497  10.083  0.0899  0.4412  0.7829
  822MOL0     C13337   3.076   8.593  10.002  0.5715 -0.0386  0.3681
  822MOL0     C13338   3.183   8.511   9.931  0.5495  0.8696  0.7956
  822MOL0     C13339   3.295   8.593   9.890  0.5422 -0.0860 -0.1588
  822MOL0     C13340   3.380   8.502   9.802 -0.5846 -0.2352 -0.9478
  822MOL0     C13341   3.506   8.581   9.789 -0.7109 -0.3940  1.2482
  822MOL0     C13342   3.621   8.492   9.728  0.4762  0.1164 -0.1728
  822MOL0    Cl13343   3.606   8.435   9.561 -0.0963 -0.0131 -0.0433
  822MOL0     C13344   2.593   8.529  10.161  0.4751 -0.0382  0.0618
  822MOL0     C13345   2.464   8.488  10.137 -0.6362 -0.0090  0.5325
  822MOL0     O13346   2.353   8.115   9.999 -0.7125  0.4225 -0.3387
  822MOL0     C13347   2.037   8.188  10.115 -0.6142 -1.0060 -0.9141
  822MOL0     C13348   1.906   8.145  10.107  0.1175 -0.2730  0.5240
  822MOL0     N13349   1.196   8.155   9.930  0.3911  0.2490 -0.3779
  822MOL0     N13350   1.099   8.236   9.930 -0.8931 -0.2350  0.5668
  822MOL0     C13351   1.523   8.561  10.107 -0.0227 -1.2115  0.1519
  822MOL0     C13352   1.564   8.443  10.169 -0.5178 -0.2798  0.1082
  822MOL0     C13353   1.704   8.158  10.522  0.0213  0.8308 -0.3658
  822MOL0     C13354   1.595   8.061  10.518 -0.4762  0.1648 -0.2178
  822MOL0     C13355   1.609   7.932  10.577  0.1367 -0.7352 -0.3090
  822MOL0     C13356   1.716   7.910  10.658 -0.5992  0.2591 -0.1067
  822MOL0     O13357   1.724   7.782  10.710  0.6149  0.3446  0.0193
  822MOL0     C13358   1.828   7.730  10.789 -0.4971 -0.0148  1.0495
  822MOL0     C13359   1.812   7.577  10.830 -0.4806  0.3443 -0.3500
  822MOL0     C13360   1.920   7.547  10.947  0.4639  0.4581 -0.0335
  822MOL0     C13361   1.893   7.417  11.020  0.3546  1.0374 -0.8703
  822MOL0     C13362   1.934   7.293  10.952  0.5778 -0.2220  0.6554
  822MOL0     C13363   1.969   7.187  10.910 -0.9821  0.2605  0.6973
  822MOL0     C13364   1.823   8.001  10.670  0.1562  0.3136  0.0488
  822MOL0     C13365   1.821   8.122  10.597  0.4998 -1.3801 -1.0172
  822MOL0     C13366   1.949   8.209  10.599 -0.8515 -0.5051  0.0157
  822MOL0     H13367   1.453   8.502  10.484 -2.3159  1.0081  0.0260
  822MOL0     H13368   1.355   8.705  10.361  1.0401  0.1823  0.4973
  822MOL0     H13369   1.382   8.909  10.243  3.5261  0.1709 -1.9093
  822MOL0     H13370   1.214   8.842  10.212 -0.6361  1.1239 -0.4743
  822MOL0     H13371   1.252   9.068  10.163 -2.5212  0.1300 -0.4326
  822MOL0     H13372   1.362   9.025  10.028 -2.0841  1.4762 -2.1865
  822MOL0     H13373   1.061   8.991  10.081 -0.6823  1.0590 -1.5558
  822MOL0     H13374   1.149   9.074   9.947 -2.2478  1.0498  0.4222
  822MOL0     H13375   1.101   8.889   9.807 -0.6762 -3.2558 -0.6926
  822MOL0     H13376   1.205   8.791   9.911 -0.1219  0.5938 -0.7708
  822MOL0     H13377   0.902   8.862   9.975 -0.0714 -0.3840  2.1119
  822MOL0     H13378   0.988   8.741  10.052 -1.8747 -1.1318 -0.4007
  822MOL0     H13379   0.847   8.640   9.892 -0.2315 -0.9082 -0.6369
  822MOL0     H13380   0.921   8.725   9.756  1.4478  1.5423  0.9055
  822MOL0     H13381   1.126   8.591   9.799 -0.8063  1.2727 -1.1965
  822MOL0     H13382   0.983   8.490   9.764 -0.8013 -2.3337  1.8313
  822MOL0     H13383   1.073   8.533  10.048  1.1695 -1.3663 -0.0254
  822MOL0     H13384   0.948   8.432   9.982  0.4161 -0.1956  1.4173
  822MOL0     H13385   1.332   8.447   9.985  2.4711 -1.6003  0.9661
  822MOL0     H13386   1.483   8.117  10.018  0.5718  1.1706  0.7626
  822MOL0     H13387   1.539   8.254   9.945 -1.0746 -1.2033  2.0829
  822MOL0     H13388   1.433   8.007   9.785 -2.4801  0.2817  2.6236
  822MOL0     H13389   1.451   8.165   9.712  1.3943  1.6518  0.0952
  822MOL0     H13390   1.654   8.049   9.671 -4.0722  0.1831 -1.2253
  822MOL0     H13391   1.698   8.166   9.799 -0.3678 -0.0265 -1.6238
  822MOL0     H13392   1.615   7.889   9.875 -0.9038  0.5153 -0.0845
  822MOL0     H13393   1.768   7.913   9.816 -0.0684  0.9733  1.2816
  822MOL0     H13394   1.923   8.043   9.781  0.3359 -1.1569  0.0142
  822MOL0     H13395   2.241   8.183   9.760  1.8904 -0.0831  2.6650
  822MOL0     H13396   2.097   8.106   9.687 -3.1481 -1.5250  2.5587
  822MOL0     H13397   2.217   8.003   9.770 -0.4754 -0.1043 -0.8698
  822MOL0     H13398   2.497   8.158  10.218 -1.2230 -0.1502 -0.1801
  822MOL0     H13399   2.717   8.240  10.277 -0.5101  0.2390 -0.8602
  822MOL0     H13400   2.819   8.627  10.082  1.0065  0.8054  0.0609
  822MOL0     H13401   2.937   8.653  10.212  1.2777 -0.2865  0.0193
  822MOL0     H13402   3.044   8.442  10.157  2.8429  3.3887  0.9748
  822MOL0     H13403   2.944   8.426  10.011 -0.8531  0.3162  1.4246
  822MOL0     H13404   3.115   8.668  10.071 -2.2528  0.4088  1.5959
  822MOL0     H13405   3.017   8.639   9.923  1.3025 -2.4114 -1.6991
  822MOL0     H13406   3.132   8.461   9.848  0.1907  1.8838  0.3942
  822MOL0     H13407   3.218   8.441  10.007  1.8068  1.2817  0.6113
  822MOL0     H13408   3.259   8.674   9.826 -1.2911 -1.9464 -1.6465
  822MOL0     H13409   3.343   8.623   9.984 -0.6082 -2.1435  1.1819
  822MOL0     H13410   3.330   8.482   9.707  0.1900 -1.4468 -1.1102
  822MOL0     H13411   3.397   8.406   9.851 -1.6004 -0.0249 -0.1397
  822MOL0     H13412   3.537   8.630   9.882 -2.9846 -1.1142  2.4524
  822MOL0     H13413   3.489   8.659   9.714  2.0933  0.5378  1.4706
  822MOL0     H13414   3.645   8.410   9.796 -2.1706 -1.4022 -0.9385
  822MOL0     H13415   3.712   8.553   9.727  1.3172 -1.0759  0.6922
  822MOL0     H13416   2.615   8.634  10.144  0.4528  0.0636  0.6666
  822MOL0     H13417   2.387   8.549  10.091 -0.4770 -1.2691 -1.5749
  822MOL0     H13418   2.077   8.233  10.206  1.5861 -1.2470 -1.6940
  822MOL0     H13419   1.831   8.174  10.179 -1.0813  1.7693 -1.4020
  822MOL0     H13420   1.555   8.584  10.006  3.4164 -0.2524  1.3284
  822MOL0     H13421   1.628   8.372  10.115 -0.7626 -1.9403  1.8977
  822MOL0     H13422   1.503   8.089  10.467 -0.1157  0.3945 -0.7425
  822MOL0     H13423   1.520   7.869  10.576 -0.5882  0.1954  1.6440
  822MOL0     H13424   1.923   7.724  10.735 -0.9161  2.3654 -0.0972
  822MOL0     H13425   1.839   7.800  10.873  2.6172  0.8251  0.0820
  822MOL0     H13426   1.820   7.500  10.753  1.2888  1.5153 -1.4045
  822MOL0     H13427   1.715   7.561  10.878  0.7331  0.3889  2.3033
  822MOL0     H13428   2.023   7.555  10.911 -0.9629  1.2833 -4.4314
  822MOL0     H13429   1.898   7.633  11.012 -1.9240 -0.1767  0.1056
  822MOL0     H13430   1.790   7.407  11.055  1.6498 -3.0593  2.5587
  822MOL0     H13431   1.951   7.417  11.112  1.4657 -2.3202 -1.4426
  822MOL0     H13432   1.999   7.088  10.883 -0.1544  0.4706  0.7990
  822MOL0     H13433   1.917   7.977  10.718  1.0888 -0.0157 -1.8291
  822MOL0     H13434   2.040   8.157  10.630 -0.5621 -1.4986 -2.2750
  822MOL0     H13435   1.986   8.256  10.507  1.6500  1.7555  1.9922
  822MOL0     H13436   1.939   8.293  10.669 -0.0393  0.1395 -0.6224
  823MOL0     O13437   1.498   2.080   6.238  0.2987  0.3377 -0.4666
  823MOL0     C13438   1.406   2.116   6.310 -0.2526 -0.1330  0.0217
  823MOL0     O13439   1.348   2.035   6.407 -0.4739 -0.4978 -0.5355
  823MOL0     C13440   1.361   1.900   6.387  0.2841 -0.1821 -0.2968
  823MOL0     C13441   1.461   1.825   6.443  0.4066 -0.0270 -0.5046
  823MOL0     C13442   1.469   1.690   6.430 -0.2135  0.0457  0.2510
  823MOL0     C13443   1.367   1.627   6.363  0.0962 -0.0621  0.5639
  823MOL0     O13444   1.400   1.494   6.336 -0.1180  0.4108  0.2016
  823MOL0     C13445   1.301   1.398   6.329  0.4286 -0.1954  0.2748
  823MOL0     C13446   1.351   1.256   6.325 -0.0754  0.4950 -0.3627
  823MOL0     C13447   1.454   1.222   6.216  0.2476  0.4374 -0.3562
  823MOL0     C13448   1.385   1.163   6.095  0.5745 -0.4750 -0.3169
  823MOL0     C13449   1.486   1.122   5.989  0.5143 -0.0387  0.1120
  823MOL0     C13450   1.418   1.061   5.847  0.2991  0.0309  0.3504
  823MOL0     C13451   1.530   0.997   5.756 -1.0985 -1.3698 -0.4014
  823MOL0     C13452   1.482   0.888   5.658  0.0977 -0.8752  0.4376
  823MOL0     N13453   1.583   0.852   5.560 -0.2875  0.4670 -0.3953
  823MOL0     C13454   1.713   0.827   5.573 -0.5782  0.7472 -0.2552
  823MOL0     C13455   1.766   0.811   5.450  0.1468  0.0079 -0.4109
  823MOL0     C13456   1.904   0.768   5.410  0.0421 -0.4484  0.4916
  823MOL0     C13457   2.009   0.876   5.430 -0.7281  0.5920  0.0909
  823MOL0     C13458   2.147   0.840   5.362  0.7378  0.1141  0.6284
  823MOL0     C13459   2.229   0.742   5.448 -0.8345  0.3116  0.7273
  823MOL0     O13460   2.344   0.704   5.367 -0.4977  0.5620 -0.2750
  823MOL0     C13461   2.473   0.718   5.418 -0.3673 -0.4378 -0.0150
  823MOL0     C13462   2.565   0.790   5.347 -0.2098  0.7073 -0.4117
  823MOL0     C13463   2.694   0.810   5.388  0.6160  0.2937 -1.1629
  823MOL0     C13464   2.799   0.873   5.301  0.4773  0.2696  0.1065
  823MOL0     C13465   2.729   0.735   5.510 -0.0027 -0.2894 -0.9224
  823MOL0     C13466   2.870   0.747   5.564 -0.7562 -0.3670 -0.5810
  823MOL0     O13467   2.944   0.858   5.548 -0.3147 -0.3491  0.0984
  823MOL0     C13468   3.078   0.872   5.576 -0.4361 -0.0499 -0.5370
  823MOL0     C13469   3.114   0.909   5.711 -0.7514  0.3583  0.6230
  823MOL0     C13470   3.246   0.894   5.750 -0.2037 -0.3540  0.2068
  823MOL0     C13471   3.339   0.862   5.656 -0.2312 -0.0955  0.8863
  823MOL0     O13472   3.473   0.854   5.682  0.0775  0.0452  0.3226
  823MOL0     C13473   3.516   0.790   5.797  0.3256 -0.0659  0.4633
  823MOL0     C13474   3.664   0.804   5.804 -0.2718  0.7667 -0.5001
  823MOL0     C13475   3.713   0.950   5.772  0.3826 -0.4762  0.2644
  823MOL0     C13476   3.862   0.954   5.827 -0.3207  0.5778 -0.0513
  823MOL0     C13477   3.923   1.089   5.853  0.4757  0.2175  0.3423
  823MOL0     C13478   3.958   1.124   5.997 -1.1281 -0.1627 -0.4717
  823MOL0     C13479   4.060   1.031   6.063  0.1404 -0.4310 -0.0582
  823MOL0     C13480   4.172   0.986   5.972 -0.3478 -0.4467  0.5273
  823MOL0    Cl13481   4.292   0.927   6.092 -0.1941  0.2020  0.1201
  823MOL0     C13482   3.307   0.818   5.527  0.4114 -0.0995  1.0077
  823MOL0     C13483   3.177   0.829   5.491  0.1215 -0.4310  0.0968
  823MOL0     O13484   2.920   0.647   5.619  0.3748 -1.0713 -0.4539
  823MOL0     C13485   2.631   0.653   5.584 -1.0165  0.1328 -0.0203
  823MOL0     C13486   2.506   0.642   5.534  0.3651 -0.6496  0.4212
  823MOL0     N13487   1.669   0.807   5.356  1.0586  0.3264 -1.0220
  823MOL0     N13488   1.556   0.830   5.425  0.0832  0.0977 -0.3050
  823MOL0     C13489   1.253   1.696   6.313  0.6424 -0.6567 -0.4554
  823MOL0     C13490   1.246   1.837   6.332 -0.0632 -0.0972 -0.2082
  823MOL0     C13491   1.341   2.248   6.300  0.0363 -0.7920 -0.1817
  823MOL0     C13492   1.208   2.261   6.329  0.4310 -0.2928 -0.4006
  823MOL0     C13493   1.139   2.388   6.332  0.2998  0.1437 -0.2343
  823MOL0     C13494   1.211   2.502   6.303 -0.7604 -0.8455 -0.0849
  823MOL0     O13495   1.140   2.616   6.303  0.0343 -0.7201 -0.1762
  823MOL0     C13496   1.208   2.740   6.322 -0.5717 -0.2295 -0.2732
  823MOL0     C13497   1.222   2.764   6.479 -0.4574 -0.2313  0.1614
  823MOL0     C13498   1.300   2.899   6.506  0.6844 -0.1862 -0.0687
  823MOL0     C13499   1.216   3.017   6.549  0.2274  0.4729 -0.3140
  823MOL0     C13500   1.298   3.133   6.570 -0.2804 -0.6755  0.3997
  823MOL0     C13501   1.386   3.222   6.571  0.4455 -0.5705 -0.6451
  823MOL0     C13502   1.343   2.485   6.263 -0.9463  0.4384  0.1485
  823MOL0     C13503   1.415   2.369   6.266 -0.1588 -0.0382  0.0059
  823MOL0     C13504   1.564   2.370   6.246  0.1300 -0.4163 -0.3418
  823MOL0     H13505   1.543   1.868   6.499 -0.0043  0.0423  0.0618
  823MOL0     H13506   1.556   1.630   6.457  0.3090  0.4846 -0.4390
  823MOL0     H13507   1.231   1.410   6.246 -0.1146 -2.8943  0.2263
  823MOL0     H13508   1.245   1.400   6.423  0.3851  0.8051  0.2353
  823MOL0     H13509   1.390   1.222   6.421  0.9823 -0.6284 -1.1558
  823MOL0     H13510   1.259   1.199   6.310 -1.4739  2.4130  0.4937
  823MOL0     H13511   1.510   1.312   6.189 -1.9418  1.7280 -0.8359
  823MOL0     H13512   1.517   1.144   6.260  2.2681  2.2606  0.1684
  823MOL0     H13513   1.319   1.078   6.118  0.9137 -0.7037 -0.1745
  823MOL0     H13514   1.329   1.249   6.056  0.9013 -0.6401 -1.1626
  823MOL0     H13515   1.561   1.055   6.031  0.1390 -0.6712 -0.2024
  823MOL0     H13516   1.551   1.202   5.952 -1.1089 -0.3793 -4.0084
  823MOL0     H13517   1.334   0.996   5.872 -2.2578  3.0738  0.3364
  823MOL0     H13518   1.374   1.144   5.791  1.4576 -0.5556 -1.5115
  823MOL0     H13519   1.621   0.967   5.808  0.8556 -1.2643 -3.4949
  823MOL0     H13520   1.568   1.074   5.689 -0.8985 -2.5928 -1.7586
  823MOL0     H13521   1.450   0.802   5.717 -1.1676 -0.0640  0.9946
  823MOL0     H13522   1.403   0.936   5.599  3.9590  0.7454 -4.0732
  823MOL0     H13523   1.755   0.832   5.673  0.2190 -1.9413 -0.3711
  823MOL0     H13524   1.905   0.740   5.304  1.0292  0.5943  0.2092
  823MOL0     H13525   1.945   0.677   5.456  0.3740  0.1479  1.3953
  823MOL0     H13526   1.975   0.975   5.400  0.2333  0.8557 -0.1770
  823MOL0     H13527   2.018   0.892   5.538 -1.4981  0.0536  0.2459
  823MOL0     H13528   2.137   0.801   5.261 -2.3318 -0.1183  0.9113
  823MOL0     H13529   2.200   0.934   5.344  0.4391  0.0528 -0.6233
  823MOL0     H13530   2.256   0.781   5.547  1.7224 -3.1144  1.5767
  823MOL0     H13531   2.169   0.653   5.467 -1.6411  0.8640  0.7964
  823MOL0     H13532   2.538   0.821   5.246  5.1260 -0.7276 -2.6146
  823MOL0     H13533   2.769   0.867   5.196 -2.5655 -0.1820  0.8978
  823MOL0     H13534   2.892   0.816   5.308  2.5179  3.5304  2.0854
  823MOL0     H13535   2.806   0.982   5.314  0.1066  0.2620  0.3967
  823MOL0     H13536   3.045   0.948   5.785 -1.4018  1.6472 -0.6296
  823MOL0     H13537   3.275   0.931   5.848  0.7002  1.4587 -0.7205
  823MOL0     H13538   3.466   0.822   5.889 -0.9007 -2.5400  0.7421
  823MOL0     H13539   3.488   0.685   5.789  1.2856 -0.9639  5.5209
  823MOL0     H13540   3.697   0.768   5.901  5.5497 -1.5877 -2.8761
  823MOL0     H13541   3.712   0.733   5.736 -2.5975  1.3062 -2.8826
  823MOL0     H13542   3.647   1.021   5.822 -0.5633  0.7481 -2.5003
  823MOL0     H13543   3.715   0.968   5.664  2.8279  0.4996  0.4116
  823MOL0     H13544   3.927   0.907   5.752  1.1646  2.5268 -0.0756
  823MOL0     H13545   3.861   0.903   5.923  0.4382 -1.5839 -1.1227
  823MOL0     H13546   4.012   1.101   5.791  0.6683 -2.0948  0.0880
  823MOL0     H13547   3.854   1.170   5.828  1.6014  0.8277 -0.8859
  823MOL0     H13548   3.867   1.125   6.057 -0.7986 -0.2855  0.0363
  823MOL0     H13549   3.995   1.227   6.002 -1.0597 -0.0022 -3.0156
  823MOL0     H13550   4.008   0.935   6.077  0.5175 -0.2878  2.7152
  823MOL0     H13551   4.088   1.073   6.159 -0.0999  0.5025 -0.3866
  823MOL0     H13552   4.201   1.074   5.914 -0.3472  0.3886  1.7580
  823MOL0     H13553   4.148   0.901   5.907 -0.7383 -2.4914  3.1768
  823MOL0     H13554   3.387   0.779   5.466 -1.1132 -3.4893  0.9381
  823MOL0     H13555   3.156   0.810   5.387 -1.3367  1.7890 -0.0987
  823MOL0     H13556   2.654   0.607   5.679 -2.4061 -1.4694 -0.4048
  823MOL0     H13557   2.440   0.574   5.588  0.4559 -0.2877  0.9941
  823MOL0     H13558   1.174   1.649   6.255 -0.5622  1.7424 -0.8925
  823MOL0     H13559   1.163   1.900   6.301  1.7109  2.7406  0.4394
  823MOL0     H13560   1.144   2.185   6.373 -2.0085  1.9323  0.1553
  823MOL0     H13561   1.033   2.384   6.356 -0.0851  1.2996 -1.6212
  823MOL0     H13562   1.299   2.744   6.261  0.1475 -2.0412  0.6006
  823MOL0     H13563   1.141   2.808   6.270 -0.7312 -0.9199 -0.9762
  823MOL0     H13564   1.277   2.677   6.517  0.0864 -0.0104 -0.1182
  823MOL0     H13565   1.120   2.766   6.520 -1.8336 -2.2593 -2.7809
  823MOL0     H13566   1.376   2.887   6.585  1.4688  0.6855 -0.6796
  823MOL0     H13567   1.355   2.923   6.415 -0.7464 -0.2738 -0.9791
  823MOL0     H13568   1.159   2.990   6.638 -0.3820  0.5374 -0.6742
  823MOL0     H13569   1.139   3.042   6.475  0.3164 -0.8194 -0.8733
  823MOL0     H13570   1.453   3.305   6.561  2.2805 -1.9771 -0.5577
  823MOL0     H13571   1.404   2.569   6.229  1.2419 -0.9231  0.5392
  823MOL0     H13572   1.602   2.473   6.255 -2.5943  0.5933  0.8525
  823MOL0     H13573   1.618   2.310   6.319 -1.2588  2.6428  3.5788
  823MOL0     H13574   1.570   2.326   6.146 -1.6293  0.3749 -0.8392
  824MOL0     O13575  11.119   5.150   2.369  0.8144 -0.4481  0.7581
  824MOL0     C13576  11.151   5.057   2.443  0.0750 -0.0856 -0.4554
  824MOL0     O13577  11.279   5.015   2.479 -0.5190 -0.3323  0.2155
  824MOL0     C13578  11.395   5.091   2.458  0.7431  0.9898  1.6528
  824MOL0     C13579  11.511   5.029   2.505 -1.2382  0.2344  0.1879
  824MOL0     C13580  11.637   5.093   2.499  0.3947  0.6770  0.4211
  824MOL0     C13581  11.652   5.211   2.432  0.4312  0.6772  0.8642
  824MOL0     O13582  11.785   5.262   2.419  0.3309 -0.0576  0.1218
  824MOL0     C13583  11.805   5.402   2.404 -0.0677 -0.6643  0.2090
  824MOL0     C13584  11.956   5.439   2.410 -0.0523 -0.3598 -0.8175
  824MOL0     C13585  11.978   5.585   2.369  0.3430 -0.0393 -0.2297
  824MOL0     C13586  12.129   5.611   2.356 -0.6707  0.2497 -0.2293
  824MOL0     C13587  12.141   5.764   2.328 -0.0838 -0.3752  0.0014
  824MOL0     C13588  12.281   5.828   2.323 -0.2506  0.3450  0.8401
  824MOL0     C13589  12.384   5.789   2.440  0.5003  0.4732  0.7915
  824MOL0     C13590  12.500   5.875   2.443  0.8242 -0.1703 -1.3017
  824MOL0     N13591  12.473   6.007   2.507  0.7929 -0.7818 -0.2533
  824MOL0     C13592  12.501   6.041   2.636 -0.4055 -0.5255 -0.9429
  824MOL0     C13593  12.447   6.165   2.650  0.9861 -0.1573  0.3961
  824MOL0     C13594  12.438   6.253   2.769  0.1751  0.2086  0.5919
  824MOL0     C13595  12.355   6.189   2.873 -0.6014  1.2032 -0.0412
  824MOL0     C13596  12.322   6.296   2.976 -0.7138 -0.3539  0.4570
  824MOL0     C13597  12.229   6.251   3.086 -0.3478 -0.2424  0.0301
  824MOL0     O13598  12.289   6.155   3.173  0.9490 -0.3241  0.2343
  824MOL0     C13599  12.425   6.148   3.201 -0.2863 -0.0330  0.0327
  824MOL0     C13600  12.476   6.018   3.205  0.4071 -0.1267 -0.1914
  824MOL0     C13601  12.609   5.997   3.238  0.0507 -0.2276  0.6691
  824MOL0     C13602  12.653   5.850   3.257 -0.4574 -1.4594 -0.7960
  824MOL0     C13603  12.691   6.106   3.274 -0.4639 -0.2011 -0.7760
  824MOL0     C13604  12.838   6.081   3.306 -0.0607 -0.0329  0.7534
  824MOL0     O13605  12.894   5.975   3.243  0.6517 -0.4096 -0.3888
  824MOL0     C13606  13.015   5.922   3.259  0.0501  0.0116 -0.4099
  824MOL0     C13607  13.026   5.786   3.256 -0.4024 -0.1795  0.5949
  824MOL0     C13608  13.154   5.722   3.270  0.2128  0.9060 -0.0130
  824MOL0     C13609  13.263   5.796   3.296 -0.1689 -0.2430 -0.0177
  824MOL0     O13610  13.389   5.752   3.328 -0.7685  0.5044  0.1640
  824MOL0     C13611  13.402   5.619   3.367  0.1290  0.5758  0.0143
  824MOL0     C13612  13.542   5.583   3.406 -0.3950  1.6215 -0.0498
  824MOL0     C13613  13.649   5.620   3.298 -0.9767  0.4193 -0.0176
  824MOL0     C13614  13.794   5.587   3.343  0.8680 -0.2020  0.6720
  824MOL0     C13615  13.885   5.617   3.222 -0.0056 -0.4327  0.0851
  824MOL0     C13616  14.035   5.595   3.258  0.4653  0.8682  0.2177
  824MOL0     C13617  14.082   5.450   3.263 -0.0255 -0.2177 -0.1068
  824MOL0     C13618  14.220   5.455   3.341  0.4991  1.1606  0.7652
  824MOL0    Cl13619  14.195   5.465   3.509  0.2222  0.2422 -0.2269
  824MOL0     C13620  13.253   5.936   3.301 -0.0182 -0.5075 -0.0501
  824MOL0     C13621  13.130   5.997   3.277 -0.1028 -1.2432  1.0793
  824MOL0     O13622  12.890   6.160   3.384 -0.2567  0.3339 -0.0004
  824MOL0     C13623  12.636   6.231   3.286 -0.2942  0.0394 -0.9576
  824MOL0     C13624  12.506   6.248   3.248 -0.1242 -0.4980  0.0309
  824MOL0     N13625  12.394   6.211   2.530 -0.3239  0.5389  0.5594
  824MOL0     N13626  12.412   6.119   2.448  0.4366  0.3736  0.0215
  824MOL0     C13627  11.536   5.278   2.382 -0.5648  0.0827  0.1090
  824MOL0     C13628  11.405   5.220   2.395 -0.3757  0.6836 -0.3024
  824MOL0     C13629  11.033   4.995   2.521 -0.5358  0.6803  0.1717
  824MOL0     C13630  11.057   4.926   2.641  0.5342 -0.3656  0.1686
  824MOL0     C13631  10.955   4.850   2.710 -0.3482  0.6389 -0.3959
  824MOL0     C13632  10.830   4.844   2.653  0.4466 -0.4090 -0.4185
  824MOL0     O13633  10.740   4.750   2.699 -0.0491 -0.2820  0.2938
  824MOL0     C13634  10.765   4.615   2.673  0.0352 -0.5801 -0.3939
  824MOL0     C13635  10.682   4.578   2.550  0.1101 -0.4163 -0.5415
  824MOL0     C13636  10.532   4.584   2.578  0.2866  0.3878  0.2061
  824MOL0     C13637  10.471   4.510   2.456 -0.0401 -0.6409  0.4555
  824MOL0     C13638  10.323   4.515   2.465  0.1185 -0.2935  0.3908
  824MOL0     C13639  10.206   4.539   2.473 -0.0504 -0.6786 -0.3384
  824MOL0     C13640  10.807   4.914   2.538  0.1990 -0.4514 -0.0803
  824MOL0     C13641  10.896   4.997   2.476  0.0173  0.0585 -0.0902
  824MOL0     C13642  10.846   5.068   2.353 -0.3823 -0.1425 -0.2675
  824MOL0     H13643  11.520   4.932   2.553 -1.1664 -1.0832 -2.3081
  824MOL0     H13644  11.723   5.044   2.545 -0.6943 -1.9848 -0.2401
  824MOL0     H13645  11.751   5.455   2.484 -0.2337  0.1172 -0.4128
  824MOL0     H13646  11.772   5.431   2.304  2.7111  0.3910 -0.4851
  824MOL0     H13647  11.991   5.435   2.513 -0.8213  1.1011 -0.4556
  824MOL0     H13648  12.015   5.377   2.342 -0.8868 -1.2275 -0.7627
  824MOL0     H13649  11.930   5.598   2.272 -0.9344 -3.1988 -0.1344
  824MOL0     H13650  11.933   5.655   2.440 -1.6524  0.5708 -2.0075
  824MOL0     H13651  12.187   5.590   2.446  2.4312 -1.2476 -2.4068
  824MOL0     H13652  12.169   5.550   2.274  0.4200 -0.1984  0.6142
  824MOL0     H13653  12.086   5.814   2.408  3.5674 -0.3595  2.7673
  824MOL0     H13654  12.088   5.783   2.235  1.4556  1.3777 -0.5671
  824MOL0     H13655  12.325   5.803   2.226 -0.2878  0.4544  0.7948
  824MOL0     H13656  12.277   5.936   2.310 -0.7136  0.1830 -0.6213
  824MOL0     H13657  12.412   5.684   2.425 -0.1362  0.5033 -0.7167
  824MOL0     H13658  12.343   5.786   2.541  0.5217  0.0002  0.7872
  824MOL0     H13659  12.572   5.830   2.512 -1.4682 -2.6830 -0.3431
  824MOL0     H13660  12.548   5.873   2.345 -0.1350 -0.8849 -1.7693
  824MOL0     H13661  12.555   5.988   2.714  0.6315  0.2078 -1.1489
  824MOL0     H13662  12.375   6.338   2.740 -3.7349 -2.3097  0.9326
  824MOL0     H13663  12.537   6.293   2.792 -0.8202  3.4893 -0.2181
  824MOL0     H13664  12.271   6.136   2.826 -1.0716 -0.5575  2.6157
  824MOL0     H13665  12.409   6.109   2.924 -1.8075  1.1261  1.1690
  824MOL0     H13666  12.409   6.344   3.022  0.0080 -1.1770 -0.0287
  824MOL0     H13667  12.269   6.375   2.921  0.3410 -0.3225 -0.5395
  824MOL0     H13668  12.195   6.341   3.139 -0.8779  0.5033 -1.5173
  824MOL0     H13669  12.134   6.211   3.049 -0.1421 -1.3510  0.6715
  824MOL0     H13670  12.419   5.929   3.180  3.6926 -1.6551 -3.1323
  824MOL0     H13671  12.714   5.827   3.169  2.5658  0.6401  0.5777
  824MOL0     H13672  12.567   5.781   3.256 -0.8281 -1.0725  1.2877
  824MOL0     H13673  12.703   5.841   3.353 -1.9645  0.4828  0.2290
  824MOL0     H13674  12.935   5.726   3.249 -0.9169  0.3542  2.1188
  824MOL0     H13675  13.151   5.613   3.273 -2.8207  0.9158  1.6251
  824MOL0     H13676  13.346   5.605   3.460 -0.7470  1.7715 -0.3231
  824MOL0     H13677  13.359   5.552   3.292  1.6069 -3.1549  2.1858
  824MOL0     H13678  13.576   5.640   3.493  1.7076 -1.8795  1.6432
  824MOL0     H13679  13.542   5.475   3.427 -1.5299  1.4009 -1.0568
  824MOL0     H13680  13.653   5.721   3.257  0.8921  1.1446  1.7491
  824MOL0     H13681  13.626   5.560   3.210  0.1112 -0.9464  0.5794
  824MOL0     H13682  13.802   5.481   3.369  0.4897 -0.5474 -0.5427
  824MOL0     H13683  13.821   5.643   3.432  1.2278 -0.8719  0.9955
  824MOL0     H13684  13.861   5.558   3.133  0.1095 -0.4064  0.0376
  824MOL0     H13685  13.869   5.722   3.195 -0.2445 -0.4978 -0.0349
  824MOL0     H13686  14.051   5.637   3.357  2.8037 -1.4493  0.9129
  824MOL0     H13687  14.085   5.647   3.175  2.1611 -0.1623  0.5459
  824MOL0     H13688  14.113   5.411   3.166 -1.4222 -4.3342  0.8832
  824MOL0     H13689  14.012   5.373   3.298 -0.9233  0.4523 -0.3870
  824MOL0     H13690  14.272   5.548   3.315 -0.8995  1.2351 -2.1586
  824MOL0     H13691  14.290   5.374   3.317 -0.3209  0.8396 -0.6816
  824MOL0     H13692  13.341   5.996   3.322  0.0042 -1.0395  1.4646
  824MOL0     H13693  13.126   6.105   3.269 -5.0049 -1.2430  0.1716
  824MOL0     H13694  12.706   6.309   3.315  1.3952 -2.1225  1.1318
  824MOL0     H13695  12.465   6.348   3.264  0.8634 -0.1038  0.1778
  824MOL0     H13696  11.537   5.375   2.332  0.7483 -1.8262 -4.0110
  824MOL0     H13697  11.319   5.281   2.368  0.4015  1.1057 -1.9766
  824MOL0     H13698  11.156   4.911   2.682 -1.0893 -2.5328  3.8172
  824MOL0     H13699  10.981   4.805   2.805 -0.7872  1.1398 -0.0340
  824MOL0     H13700  10.870   4.606   2.641 -0.7656 -0.9779 -3.1713
  824MOL0     H13701  10.749   4.557   2.765 -1.1756  2.6929  1.6286
  824MOL0     H13702  10.709   4.473   2.531 -2.2422 -1.9607  3.3175
  824MOL0     H13703  10.701   4.646   2.466 -0.6710 -1.0836 -1.2850
  824MOL0     H13704  10.507   4.530   2.669 -0.1354  1.8587  0.9865
  824MOL0     H13705  10.495   4.685   2.598 -0.6123 -0.5273  3.7672
  824MOL0     H13706  10.502   4.405   2.445  2.4631  0.0986 -0.3591
  824MOL0     H13707  10.499   4.565   2.365  0.1260  1.3332  1.6633
  824MOL0     H13708  10.101   4.547   2.494  0.6827 -2.0283  5.2326
  824MOL0     H13709  10.708   4.893   2.498  0.4630 -0.9131 -0.5027
  824MOL0     H13710  10.741   5.042   2.338 -0.2211 -1.2673  0.4238
  824MOL0     H13711  10.834   5.174   2.375  0.1400 -0.1192 -0.0777
  824MOL0     H13712  10.903   5.037   2.264 -2.0646 -2.4598 -0.6365
  825MOL0     O13713   5.103   8.329   2.067  1.0498 -0.3413 -0.8300
  825MOL0     C13714   5.034   8.411   2.005 -0.0837  0.1322 -0.1827
  825MOL0     O13715   5.078   8.539   1.964  0.4960 -0.3605 -0.2416
  825MOL0     C13716   5.211   8.571   1.980 -0.9001 -0.4767  0.2520
  825MOL0     C13717   5.329   8.500   2.012 -0.2540 -0.4678  0.0238
  825MOL0     C13718   5.452   8.574   2.015  0.9434 -0.2628  0.7856
  825MOL0     C13719   5.464   8.712   1.968  0.0870  0.1090  0.6227
  825MOL0     O13720   5.575   8.792   1.952  0.1399  0.7750  0.4325
  825MOL0     C13721   5.675   8.763   2.058 -0.3230 -0.4150  0.2878
  825MOL0     C13722   5.760   8.883   2.066 -0.6951 -0.7796 -0.3573
  825MOL0     C13723   5.872   8.859   2.166 -0.9162  0.2158 -0.2273
  825MOL0     C13724   5.955   8.984   2.182 -0.6448  0.0512 -0.1244
  825MOL0     C13725   6.069   8.965   2.279  0.2877 -0.2175  0.0377
  825MOL0     C13726   6.156   9.093   2.286 -0.1414 -0.1835  0.2518
  825MOL0     C13727   6.239   9.094   2.412  0.6534  0.3066 -0.1795
  825MOL0     C13728   6.350   9.191   2.409 -0.4159  0.0740 -0.0198
  825MOL0     N13729   6.479   9.155   2.347  0.8252  0.7364  0.0366
  825MOL0     C13730   6.506   9.119   2.215  0.2107  0.1723 -0.2158
  825MOL0     C13731   6.629   9.094   2.215 -0.0472  0.0123  0.0836
  825MOL0     C13732   6.712   9.063   2.094  0.2640 -0.5848 -0.2380
  825MOL0     C13733   6.668   8.941   2.028  0.3267  1.1568  0.7396
  825MOL0     C13734   6.757   8.909   1.903 -0.6480  0.5007  0.1390
  825MOL0     C13735   6.897   8.852   1.949  0.8010 -0.3451  0.6020
  825MOL0     O13736   6.986   8.824   1.837 -0.0370  0.0248 -0.0633
  825MOL0     C13737   7.106   8.754   1.857 -0.0275  0.1143  0.6072
  825MOL0     C13738   7.188   8.747   1.750 -0.0803 -0.8487  0.2652
  825MOL0     C13739   7.308   8.676   1.757  0.8462  1.0947 -0.0506
  825MOL0     C13740   7.413   8.705   1.658 -0.4157 -0.8532  0.5159
  825MOL0     C13741   7.337   8.584   1.859  0.0451 -1.0606  0.0452
  825MOL0     C13742   7.458   8.506   1.870 -0.2661  0.1441  0.8993
  825MOL0     O13743   7.524   8.498   1.984 -0.1747 -0.0328 -0.2481
  825MOL0     C13744   7.647   8.436   1.987 -0.6457  0.9558 -0.1347
  825MOL0     C13745   7.656   8.300   2.013  0.4866 -0.1883  0.0950
  825MOL0     C13746   7.768   8.229   2.001 -0.1495  0.7782 -0.2756
  825MOL0     C13747   7.888   8.293   1.949 -0.1700  0.5048 -0.5105
  825MOL0     O13748   8.000   8.218   1.939  0.6554  0.1799 -0.7132
  825MOL0     C13749   8.116   8.276   1.883  0.7534  0.7165  0.9727
  825MOL0     C13750   8.233   8.185   1.864  0.5384  0.9694  0.3333
  825MOL0     C13751   8.313   8.164   1.996 -0.1570 -0.9346 -0.8446
  825MOL0     C13752   8.357   8.012   2.007 -0.5291  0.2009 -0.4492
  825MOL0     C13753   8.505   8.004   2.066  0.0635  0.7012  0.0386
  825MOL0     C13754   8.547   7.858   2.056 -0.5126 -0.1465 -0.3333
  825MOL0     C13755   8.690   7.852   2.090 -0.6334  0.8849 -0.2883
  825MOL0     C13756   8.738   7.708   2.130 -0.7943  0.9228  0.1672
  825MOL0    Cl13757   8.705   7.605   1.979  0.2490  0.3263 -0.2614
  825MOL0     C13758   7.881   8.432   1.939 -0.2143  0.4692 -0.1874
  825MOL0     C13759   7.759   8.506   1.944 -1.4087  0.8368 -1.1519
  825MOL0     O13760   7.493   8.453   1.765  0.3328 -0.2063 -0.0093
  825MOL0     C13761   7.239   8.582   1.965 -0.1803 -0.8078 -0.0015
  825MOL0     C13762   7.131   8.673   1.964 -0.7573 -0.0078  0.0280
  825MOL0     N13763   6.681   9.108   2.340  0.2609  0.8823 -0.3946
  825MOL0     N13764   6.584   9.129   2.417 -0.3405 -0.4793 -0.6224
  825MOL0     C13765   5.347   8.776   1.931 -0.0871  0.0514  0.5727
  825MOL0     C13766   5.223   8.711   1.946 -0.7898  0.2942 -0.2563
  825MOL0     C13767   4.898   8.375   1.958 -0.8292  0.7225  0.1943
  825MOL0     C13768   4.844   8.441   1.852 -0.1074 -0.5900 -0.9325
  825MOL0     C13769   4.712   8.418   1.805  0.6555 -1.0817 -0.6672
  825MOL0     C13770   4.645   8.307   1.844  0.3928 -0.2416  0.0188
  825MOL0     O13771   4.536   8.265   1.777 -0.2137 -0.1490  0.0486
  825MOL0     C13772   4.419   8.338   1.818 -0.1821  0.6047 -0.6221
  825MOL0     C13773   4.331   8.245   1.902 -0.5258  0.0361  0.0900
  825MOL0     C13774   4.205   8.304   1.968  0.5117  0.1078 -0.1831
  825MOL0     C13775   4.080   8.207   1.974 -0.8119  0.1788  1.0435
  825MOL0     C13776   3.976   8.248   2.075  0.8116  0.4022  0.3051
  825MOL0     C13777   3.893   8.280   2.161 -1.1830  0.9674  0.0534
  825MOL0     C13778   4.699   8.228   1.930 -0.9302  0.5508 -0.3519
  825MOL0     C13779   4.819   8.261   2.000  0.5419  0.3242  0.1391
  825MOL0     C13780   4.867   8.168   2.106 -0.3007 -0.3991 -0.5497
  825MOL0     H13781   5.336   8.393   2.032  4.3425 -0.4024  0.0143
  825MOL0     H13782   5.546   8.523   2.033  3.1420  2.8052 -1.0560
  825MOL0     H13783   5.734   8.673   2.035 -1.0671 -0.8890  0.1874
  825MOL0     H13784   5.621   8.745   2.151 -0.6079 -0.3164  0.1439
  825MOL0     H13785   5.796   8.909   1.966 -0.6662 -0.1493 -0.1839
  825MOL0     H13786   5.696   8.961   2.108  0.1083 -0.6672  0.6951
  825MOL0     H13787   5.839   8.836   2.268 -0.4108 -0.1414 -0.1414
  825MOL0     H13788   5.940   8.780   2.135  0.4332 -0.3285  3.5200
  825MOL0     H13789   5.991   9.014   2.084 -2.1624 -2.1006 -1.4306
  825MOL0     H13790   5.893   9.061   2.229 -0.3272  0.1455  0.1403
  825MOL0     H13791   6.137   8.883   2.253 -1.3115 -1.2394 -1.1581
  825MOL0     H13792   6.021   8.938   2.373 -0.3660 -0.3650 -0.3337
  825MOL0     H13793   6.217   9.099   2.195 -1.8059  0.7857 -0.8535
  825MOL0     H13794   6.086   9.177   2.278 -2.7304 -2.4128 -3.2847
  825MOL0     H13795   6.284   8.995   2.423  0.5988 -0.0757 -2.9171
  825MOL0     H13796   6.170   9.105   2.497 -1.0954 -1.9868 -1.1732
  825MOL0     H13797   6.322   9.284   2.359 -1.8149 -0.5555 -0.4746
  825MOL0     H13798   6.366   9.213   2.515  0.4234 -1.9790  0.3408
  825MOL0     H13799   6.442   9.121   2.127  1.7493 -1.6621 -1.4410
  825MOL0     H13800   6.819   9.067   2.116 -0.1481  0.2627  1.8590
  825MOL0     H13801   6.686   9.138   2.019 -0.6566 -1.6971 -1.0584
  825MOL0     H13802   6.676   8.861   2.103  0.6362 -1.2620 -1.7041
  825MOL0     H13803   6.562   8.947   2.002 -0.0384  0.3773  1.9608
  825MOL0     H13804   6.694   8.832   1.858  1.6904 -1.0811 -0.6494
  825MOL0     H13805   6.770   8.996   1.838  0.5502  0.8575  0.8248
  825MOL0     H13806   6.944   8.909   2.029  0.7936 -0.9203  1.0241
  825MOL0     H13807   6.871   8.758   1.998  0.1177  0.2093  1.3236
  825MOL0     H13808   7.167   8.803   1.659  0.9456  0.7383  0.9728
  825MOL0     H13809   7.508   8.719   1.709 -1.9442  1.3997  3.0585
  825MOL0     H13810   7.392   8.807   1.623  0.8019 -1.0094 -0.7421
  825MOL0     H13811   7.427   8.646   1.568 -2.0073 -0.2589 -0.1734
  825MOL0     H13812   7.558   8.264   2.043 -0.8973  2.7227 -0.5527
  825MOL0     H13813   7.777   8.124   2.025  1.9496  0.9125 -0.2421
  825MOL0     H13814   8.081   8.310   1.785 -1.8590 -1.2072  1.1411
  825MOL0     H13815   8.142   8.363   1.944 -0.3666  2.8371 -1.3578
  825MOL0     H13816   8.188   8.088   1.840 -1.5512  1.9430  0.0384
  825MOL0     H13817   8.296   8.224   1.784  0.1124 -0.7559 -0.9298
  825MOL0     H13818   8.258   8.179   2.089  2.5317 -0.9842  0.8469
  825MOL0     H13819   8.390   8.240   2.007 -1.0393 -0.1841  0.3340
  825MOL0     H13820   8.359   7.970   1.906  1.9986  0.4882 -0.5893
  825MOL0     H13821   8.292   7.942   2.061  3.1955 -2.3934  1.1262
  825MOL0     H13822   8.570   8.056   1.995  2.9722 -1.9194  0.6208
  825MOL0     H13823   8.523   8.050   2.163 -2.5336 -2.3214  2.1680
  825MOL0     H13824   8.523   7.826   1.954 -1.8145  0.8274 -0.3637
  825MOL0     H13825   8.501   7.790   2.127 -0.6479  1.5015  1.2385
  825MOL0     H13826   8.705   7.915   2.178 -1.4018  0.6757  0.0002
  825MOL0     H13827   8.752   7.880   2.003  1.3233  0.5600  0.9409
  825MOL0     H13828   8.683   7.671   2.217  0.6586 -1.5397  0.1244
  825MOL0     H13829   8.845   7.702   2.152 -0.5059 -1.3209 -1.5555
  825MOL0     H13830   7.971   8.489   1.920  1.6766 -2.7118 -1.5087
  825MOL0     H13831   7.762   8.614   1.942  0.2479  0.8169 -0.8065
  825MOL0     H13832   7.256   8.517   2.051  0.2894 -1.0067 -0.2413
  825MOL0     H13833   7.067   8.680   2.051 -1.2063 -0.9603 -0.2150
  825MOL0     H13834   5.351   8.876   1.890 -2.4444 -0.3362 -0.7471
  825MOL0     H13835   5.130   8.766   1.934 -1.8273 -1.0806  1.0603
  825MOL0     H13836   4.902   8.524   1.813  0.0821 -0.8807 -1.2720
  825MOL0     H13837   4.687   8.480   1.720 -1.8866 -0.2154  0.5960
  825MOL0     H13838   4.451   8.429   1.869  2.6786  0.0771 -1.3343
  825MOL0     H13839   4.355   8.374   1.736 -0.6186  1.4926  0.0899
  825MOL0     H13840   4.394   8.197   1.978 -1.2563  1.8872  1.9446
  825MOL0     H13841   4.301   8.162   1.837 -0.7389  0.4008 -0.2843
  825MOL0     H13842   4.232   8.320   2.072  2.4371  0.4769 -0.6946
  825MOL0     H13843   4.170   8.395   1.918 -0.1386 -0.3976 -0.6623
  825MOL0     H13844   4.119   8.111   2.010  0.5999 -0.7082 -2.4843
  825MOL0     H13845   4.048   8.193   1.871 -0.0171 -3.6043  1.1584
  825MOL0     H13846   3.814   8.295   2.232 -2.4500 -0.1169 -1.0639
  825MOL0     H13847   4.640   8.141   1.957 -1.4815 -0.1445 -3.4181
  825MOL0     H13848   4.970   8.135   2.086 -0.7503 -1.3803 -1.3172
  825MOL0     H13849   4.861   8.219   2.203  1.5694  1.2266 -1.2209
  825MOL0     H13850   4.795   8.089   2.127  0.8058 -0.5134  3.7741
  826MOL0     O13851   6.296  10.990   7.702  0.3344  0.9905 -0.7298
  826MOL0     C13852   6.318  10.874   7.664 -0.6753  0.0042 -1.6664
  826MOL0     O13853   6.429  10.803   7.710  0.0778  0.1335 -0.3507
  826MOL0     C13854   6.539  10.847   7.778 -0.0335  0.1950 -0.0415
  826MOL0     C13855   6.550  10.965   7.850 -0.3017 -0.9587  1.3822
  826MOL0     C13856   6.653  10.999   7.928  0.6106  0.0910 -0.1423
  826MOL0     C13857   6.760  10.909   7.949  1.0567 -0.6316  0.2842
  826MOL0     O13858   6.856  10.938   8.037 -0.9834  0.0085  0.2576
  826MOL0     C13859   6.859  11.063   8.111  0.1120 -0.1315  0.1676
  826MOL0     C13860   6.975  11.076   8.215  0.8109 -0.3826  0.1399
  826MOL0     C13861   7.091  10.982   8.187 -0.1373 -0.1689 -0.1561
  826MOL0     C13862   7.219  11.038   8.271 -0.0929  0.7244  0.0328
  826MOL0     C13863   7.348  10.997   8.207  0.0944  0.3724 -0.8198
  826MOL0     C13864   7.465  11.018   8.302 -0.0932 -0.2108  0.4937
  826MOL0     C13865   7.594  10.991   8.227  1.0123 -0.2570  0.4503
  826MOL0     C13866   7.700  10.968   8.336 -0.0346  1.0805  0.3713
  826MOL0     N13867   7.832  10.962   8.278 -0.2686  0.3285 -0.7394
  826MOL0     C13868   7.883  11.059   8.199  0.2052 -0.1870  0.3487
  826MOL0     C13869   8.002  11.010   8.169 -0.5464 -0.4481 -0.3225
  826MOL0     C13870   8.106  11.089   8.092  0.0669  0.1372 -0.5195
  826MOL0     C13871   8.235  11.005   8.060  0.1933 -0.2565  0.0962
  826MOL0     C13872   8.325  11.069   7.948  0.3255 -0.2401 -0.3397
  826MOL0     C13873   8.464  11.004   7.934 -0.9033  0.3999  1.0273
  826MOL0     O13874   8.523  11.021   7.801 -0.2298 -0.3898 -1.0209
  826MOL0     C13875   8.622  10.934   7.767 -0.0585  0.2760  0.5026
  826MOL0     C13876   8.754  10.938   7.833 -0.3228 -0.0770 -0.0797
  826MOL0     C13877   8.864  10.849   7.787  0.7104 -0.0533 -0.4383
  826MOL0     C13878   8.993  10.851   7.865  0.0643 -0.3204 -0.0217
  826MOL0     C13879   8.843  10.760   7.686  0.7512 -1.1059  0.9679
  826MOL0     C13880   8.937  10.660   7.649 -0.2556 -0.1373  0.6909
  826MOL0     O13881   9.020  10.595   7.739  0.1425 -0.7755  0.2344
  826MOL0     C13882   9.095  10.484   7.701  0.2101  0.1429 -0.2838
  826MOL0     C13883   9.051  10.356   7.733  0.8694  0.7271  0.2708
  826MOL0     C13884   9.117  10.249   7.679 -1.5538 -0.2671 -0.3621
  826MOL0     C13885   9.245  10.267   7.617 -0.4066  0.4674 -0.1508
  826MOL0     O13886   9.307  10.146   7.591  0.6162  0.1556  1.1307
  826MOL0     C13887   9.444  10.142   7.534  0.5685 -0.8165  0.0749
  826MOL0     C13888   9.490  10.008   7.483 -0.3098 -0.0543 -0.0170
  826MOL0     C13889   9.609  10.036   7.395  0.2380 -0.4079  0.3350
  826MOL0     C13890   9.741  10.068   7.466  0.2790 -0.6554 -0.0206
  826MOL0     C13891   9.854  10.049   7.362 -0.8089 -0.5926 -0.1737
  826MOL0     C13892   9.998  10.071   7.408 -0.3182  0.5031 -0.2853
  826MOL0     C13893  10.025  10.198   7.503  0.1917  0.0732  0.3128
  826MOL0     C13894  10.174  10.197   7.541 -0.8090  0.2995  0.0149
  826MOL0    Cl13895  10.201  10.345   7.635  0.1421  0.1607 -0.2076
  826MOL0     C13896   9.290  10.397   7.586 -0.7914  1.1805 -1.3182
  826MOL0     C13897   9.215  10.503   7.630 -0.3736  0.5240 -0.2912
  826MOL0     O13898   8.939  10.639   7.527  0.4180  0.8152 -0.7162
  826MOL0     C13899   8.708  10.757   7.629 -0.3725 -0.1432  0.4486
  826MOL0     C13900   8.609  10.847   7.650  0.7177 -0.8129 -0.1131
  826MOL0     N13901   8.025  10.886   8.231 -0.7395 -0.5175  1.2066
  826MOL0     N13902   7.924  10.865   8.304  0.2892  0.6828  0.0075
  826MOL0     C13903   6.753  10.784   7.883 -0.5620 -0.4750 -0.2815
  826MOL0     C13904   6.649  10.754   7.790 -1.0480 -0.3044 -0.4030
  826MOL0     C13905   6.217  10.805   7.598 -0.3117  0.0219  0.1925
  826MOL0     C13906   6.217  10.668   7.616 -0.0893 -0.6226  0.0140
  826MOL0     C13907   6.108  10.600   7.570  0.2781  0.4428  0.0030
  826MOL0     C13908   5.995  10.659   7.507  0.4254  0.6663  0.4337
  826MOL0     O13909   5.900  10.565   7.471  0.1736 -0.3016  0.3328
  826MOL0     C13910   5.783  10.605   7.391 -0.1386  0.2680 -0.7641
  826MOL0     C13911   5.696  10.482   7.370  0.0048 -0.4626 -0.9462
  826MOL0     C13912   5.564  10.504   7.298  0.0134 -0.0321 -0.2693
  826MOL0     C13913   5.495  10.377   7.271 -0.1737 -0.5607  0.0982
  826MOL0     C13914   5.360  10.406   7.215  0.5728  0.3404  0.1891
  826MOL0     C13915   5.247  10.433   7.169  0.8312 -0.4094 -0.5376
  826MOL0     C13916   6.009  10.792   7.467  0.5297  0.4139  0.2113
  826MOL0     C13917   6.124  10.863   7.507  0.7474 -0.2438 -0.0185
  826MOL0     C13918   6.129  11.003   7.467 -0.8527  0.5359  0.1104
  826MOL0     H13919   6.475  11.043   7.857 -0.9118 -1.2798 -0.9195
  826MOL0     H13920   6.633  11.099   7.965 -1.4433 -0.9459  1.8356
  826MOL0     H13921   6.764  11.085   8.161  0.6288 -0.0505  1.1443
  826MOL0     H13922   6.873  11.139   8.034  2.6152 -0.9426 -0.2813
  826MOL0     H13923   6.995  11.182   8.228 -0.0889 -0.2378  0.3843
  826MOL0     H13924   6.938  11.042   8.313 -0.3187 -1.5258 -0.6438
  826MOL0     H13925   7.069  10.879   8.217 -3.1942 -0.0482 -1.6108
  826MOL0     H13926   7.098  10.991   8.078 -0.4791 -1.4399 -0.2965
  826MOL0     H13927   7.208  11.144   8.293 -3.3039  0.1463  1.9173
  826MOL0     H13928   7.202  10.991   8.368  2.5392 -2.2717 -0.7885
  826MOL0     H13929   7.360  11.060   8.118 -1.3464 -0.4264 -1.6351
  826MOL0     H13930   7.343  10.896   8.166 -1.1998  0.6302 -1.3625
  826MOL0     H13931   7.466  11.121   8.339 -1.1660  0.4063 -1.1039
  826MOL0     H13932   7.446  10.942   8.379 -0.9265 -1.0303 -0.4965
  826MOL0     H13933   7.623  11.079   8.169  1.4701 -1.0373 -0.5323
  826MOL0     H13934   7.578  10.906   8.159  1.6426  0.2808 -0.3901
  826MOL0     H13935   7.703  11.050   8.408 -0.0316  1.4621 -0.0600
  826MOL0     H13936   7.698  10.876   8.395  1.8696  1.6203  1.3588
  826MOL0     H13937   7.843  11.157   8.174  2.4643  0.9024  0.7560
  826MOL0     H13938   8.130  11.182   8.143  3.0364  0.5786 -2.4406
  826MOL0     H13939   8.059  11.125   8.000 -3.6307  2.1425  1.9224
  826MOL0     H13940   8.292  11.000   8.153  1.7230  1.6752 -0.6667
  826MOL0     H13941   8.220  10.901   8.031 -0.6947  0.0706 -0.6842
  826MOL0     H13942   8.263  11.050   7.860  0.4666 -4.3818  0.2395
  826MOL0     H13943   8.341  11.175   7.968 -1.1186  0.0125 -0.4122
  826MOL0     H13944   8.534  11.045   8.007 -0.5165 -0.3467  1.0837
  826MOL0     H13945   8.458  10.896   7.951 -0.7015  0.4356  1.3304
  826MOL0     H13946   8.763  11.009   7.915  1.1796  1.8983 -1.8162
  826MOL0     H13947   8.992  10.946   7.919  0.2130 -0.2527 -0.1368
  826MOL0     H13948   9.082  10.848   7.802  2.1208 -0.8536  2.7031
  826MOL0     H13949   9.001  10.765   7.932 -1.3530 -1.0646 -0.7617
  826MOL0     H13950   8.955  10.335   7.779 -0.7165  2.2540 -2.1025
  826MOL0     H13951   9.074  10.150   7.694  2.8709 -2.2317  1.3680
  826MOL0     H13952   9.444  10.211   7.449  0.2352 -4.1604 -2.8819
  826MOL0     H13953   9.518  10.184   7.603  0.9177 -2.0912  0.5115
  826MOL0     H13954   9.507   9.932   7.559  1.6565 -0.2080 -0.5617
  826MOL0     H13955   9.413   9.969   7.415  0.1625  0.5213 -0.9025
  826MOL0     H13956   9.585  10.119   7.328 -0.8515 -0.0077  1.1932
  826MOL0     H13957   9.624   9.944   7.336  2.0096  0.5121 -0.7440
  826MOL0     H13958   9.761  10.004   7.553 -1.9551 -2.7022 -0.8971
  826MOL0     H13959   9.730  10.170   7.504 -0.5004 -0.2668 -1.2279
  826MOL0     H13960   9.848   9.947   7.324  2.1254 -1.0198  0.2226
  826MOL0     H13961   9.836  10.127   7.288  2.4628 -0.7983 -1.3747
  826MOL0     H13962  10.050  10.083   7.312  0.9999 -1.0564  0.2009
  826MOL0     H13963  10.032   9.977   7.452 -0.9930 -0.7858 -2.3703
  826MOL0     H13964   9.961  10.185   7.591 -0.5520  1.9825  0.1037
  826MOL0     H13965   9.989  10.293   7.463 -0.4608  0.3085  1.4047
  826MOL0     H13966  10.247  10.182   7.460  1.3847 -0.9626  2.0967
  826MOL0     H13967  10.192  10.107   7.600 -0.4756 -1.0921 -2.1034
  826MOL0     H13968   9.376  10.431   7.528  0.4057 -1.9157 -1.5317
  826MOL0     H13969   9.237  10.602   7.593  0.2610  0.2442 -0.6718
  826MOL0     H13970   8.685  10.679   7.558  1.7466 -0.3445 -0.1064
  826MOL0     H13971   8.515  10.839   7.597  1.7077 -1.6845 -1.8002
  826MOL0     H13972   6.822  10.709   7.920 -0.5637 -0.8727 -1.0513
  826MOL0     H13973   6.663  10.655   7.748  4.4585 -0.2532  0.6436
  826MOL0     H13974   6.294  10.614   7.668 -0.0846 -1.8381 -1.1968
  826MOL0     H13975   6.098  10.492   7.574 -0.7382  0.5378  3.6921
  826MOL0     H13976   5.734  10.691   7.438  2.8496  1.5433  0.2152
  826MOL0     H13977   5.812  10.629   7.288  0.7035  0.7705 -0.4110
  826MOL0     H13978   5.683  10.445   7.473  1.6697  1.6220  0.0894
  826MOL0     H13979   5.754  10.402   7.323  1.3399 -0.4344  0.5584
  826MOL0     H13980   5.504  10.571   7.361  1.4004 -0.7054  1.8801
  826MOL0     H13981   5.587  10.556   7.205  2.2191  2.7164  1.6464
  826MOL0     H13982   5.489  10.313   7.360 -1.0300  1.5521  1.6444
  826MOL0     H13983   5.557  10.329   7.195  0.6476 -0.3764  0.6365
  826MOL0     H13984   5.157  10.460   7.117 -0.6687 -1.7669  1.2460
  826MOL0     H13985   5.931  10.832   7.403  0.5490 -0.3002 -0.2690
  826MOL0     H13986   6.070  11.033   7.380 -0.2568 -0.3929 -0.6354
  826MOL0     H13987   6.104  11.069   7.551 -1.1627  0.3563  0.1591
  826MOL0     H13988   6.231  11.027   7.436  0.3246 -0.7032  2.6950
  827MOL0     O13989   4.101  11.357   7.298  0.4234  0.4144 -0.0496
  827MOL0     C13990   4.176  11.355   7.202 -0.6326  0.0087  0.8424
  827MOL0     O13991   4.218  11.244   7.148 -0.7214  0.7478 -0.7519
  827MOL0     C13992   4.171  11.127   7.185 -0.6032  0.7460  0.1463
  827MOL0     C13993   4.246  11.035   7.249 -0.3755  0.1553 -0.2272
  827MOL0     C13994   4.201  10.899   7.265 -0.8737 -0.0841  0.5190
  827MOL0     C13995   4.082  10.855   7.218  0.2586  0.5811  0.2495
  827MOL0     O13996   4.059  10.727   7.230  0.0332  0.2759  1.1792
  827MOL0     C13997   3.927  10.692   7.200  0.6735  0.8176 -0.1723
  827MOL0     C13998   3.910  10.538   7.230 -0.6892 -0.0444  0.0869
  827MOL0     C13999   3.772  10.477   7.197  0.3169 -0.6672  0.9593
  827MOL0     C14000   3.775  10.322   7.215  1.3758  0.1181 -0.1632
  827MOL0     C14001   3.754  10.289   7.362 -0.2827  0.2189 -0.4953
  827MOL0     C14002   3.763  10.140   7.399  0.3243  0.2024  0.1185
  827MOL0     C14003   3.804  10.115   7.544 -0.2254  0.4155 -0.1899
  827MOL0     C14004   3.812   9.976   7.573 -0.0080 -0.2356 -0.5596
  827MOL0     N14005   3.891   9.951   7.689 -0.2575  0.7819 -0.2317
  827MOL0     C14006   3.850   9.964   7.813 -0.7258 -0.1920  0.8285
  827MOL0     C14007   3.958   9.939   7.889 -0.0884  0.1446  0.5821
  827MOL0     C14008   3.952   9.907   8.036  0.7629  0.2738  0.6596
  827MOL0     C14009   4.078   9.841   8.096 -0.0250 -0.9610  0.2930
  827MOL0     C14010   4.097   9.698   8.056  0.7475 -0.6279 -0.3331
  827MOL0     C14011   4.211   9.638   8.140  0.3541 -1.4412  0.0608
  827MOL0     O14012   4.338   9.694   8.111  0.6029 -0.0819 -0.1225
  827MOL0     C14013   4.453   9.621   8.121  0.1980  0.0464 -0.1118
  827MOL0     C14014   4.466   9.515   8.206  0.0132  0.2786 -1.2764
  827MOL0     C14015   4.581   9.426   8.205  0.5483  0.5380  0.5470
  827MOL0     C14016   4.583   9.308   8.304 -0.6512 -0.6160  0.5033
  827MOL0     C14017   4.666   9.445   8.094 -1.1692  0.0116 -0.8145
  827MOL0     C14018   4.772   9.342   8.062 -0.1361  0.3101 -0.2271
  827MOL0     O14019   4.815   9.350   7.934  0.3304  0.0930 -0.0742
  827MOL0     C14020   4.913   9.258   7.910 -0.3711 -0.7253 -0.0842
  827MOL0     C14021   4.873   9.129   7.889  0.3458  0.2090 -0.0611
  827MOL0     C14022   4.957   9.020   7.882 -0.1624  0.7291 -1.4022
  827MOL0     C14023   5.094   9.038   7.900  0.2432 -0.2790  0.2924
  827MOL0     O14024   5.177   8.933   7.890 -0.4243  0.7580 -0.3059
  827MOL0     C14025   5.312   8.954   7.933 -0.7758 -0.3396 -0.2745
  827MOL0     C14026   5.370   8.809   7.952 -0.2418  0.3977  1.0585
  827MOL0     C14027   5.381   8.736   7.821 -0.3289 -0.0844 -0.2396
  827MOL0     C14028   5.405   8.589   7.832 -0.1157 -0.3619 -0.4598
  827MOL0     C14029   5.537   8.546   7.914  0.8705  0.0790  0.2031
  827MOL0     C14030   5.585   8.396   7.925 -0.8469  0.1755  0.5865
  827MOL0     C14031   5.639   8.351   7.791 -1.0308 -0.1855 -0.5921
  827MOL0     C14032   5.692   8.199   7.802 -1.0708 -0.0960  0.6377
  827MOL0    Cl14033   5.814   8.190   7.921  0.3174  0.0067  0.0164
  827MOL0     C14034   5.134   9.175   7.917 -0.5172 -0.0030  0.6190
  827MOL0     C14035   5.047   9.275   7.929 -0.2272  0.2379 -0.0284
  827MOL0     O14036   4.816   9.267   8.148  1.2150  0.0207  0.6498
  827MOL0     C14037   4.653   9.557   8.021  1.2429 -0.1594  0.2545
  827MOL0     C14038   4.545   9.644   8.034 -0.4590 -0.2534  0.4000
  827MOL0     N14039   4.071   9.922   7.800 -0.6330 -0.3629 -0.2059
  827MOL0     N14040   4.022   9.917   7.677 -0.4390 -0.2024  0.2358
  827MOL0     C14041   4.011  10.949   7.147  0.0945 -0.4337 -0.0346
  827MOL0     C14042   4.055  11.083   7.126  1.5937  0.7464  0.0239
  827MOL0     C14043   4.206  11.480   7.126  0.4000 -0.9046  0.2865
  827MOL0     C14044   4.304  11.478   7.031 -0.2435  0.1665  0.6368
  827MOL0     C14045   4.355  11.588   6.963  0.9676  0.2656 -0.8613
  827MOL0     C14046   4.316  11.708   6.994 -0.5618  0.0984  0.3971
  827MOL0     O14047   4.373  11.811   6.916  0.0717  0.3203  0.1207
  827MOL0     C14048   4.311  11.939   6.936 -0.4075  0.8116  0.2462
  827MOL0     C14049   4.368  12.047   6.851 -0.3152 -0.6025 -0.0211
  827MOL0     C14050   4.327  12.018   6.699  0.0480 -0.2092  1.0166
  827MOL0     C14051   4.414  12.114   6.623 -0.4994  0.2071  0.6008
  827MOL0     C14052   4.374  12.135   6.488  0.6079  0.1494  0.2505
  827MOL0     C14053   4.336  12.141   6.371 -0.2799 -0.1359  0.1633
  827MOL0     C14054   4.219  11.723   7.096  0.3001 -0.4247 -0.3963
  827MOL0     C14055   4.171  11.614   7.166 -0.0009 -0.4745  0.7025
  827MOL0     C14056   4.063  11.651   7.266 -0.2343 -0.7202 -0.5316
  827MOL0     H14057   4.340  11.052   7.302  0.6409 -1.2207 -1.4884
  827MOL0     H14058   4.260  10.829   7.323  1.2971  1.5797  0.4553
  827MOL0     H14059   3.912  10.701   7.092 -0.8590 -1.8459 -0.2500
  827MOL0     H14060   3.850  10.745   7.257  0.6824  1.5124 -0.7850
  827MOL0     H14061   3.988  10.482   7.178  2.1237  3.8349 -0.3682
  827MOL0     H14062   3.920  10.507   7.335 -0.0741 -1.9792 -0.5081
  827MOL0     H14063   3.699  10.523   7.263  0.5554 -0.9077  1.3968
  827MOL0     H14064   3.737  10.498   7.096 -0.0663 -1.3291  0.9525
  827MOL0     H14065   3.689  10.278   7.165  0.7868  0.2657  0.7185
  827MOL0     H14066   3.870  10.288   7.172  1.1335  1.5866 -2.0394
  827MOL0     H14067   3.668  10.343   7.400  0.7697  0.3472  1.8598
  827MOL0     H14068   3.843  10.333   7.409  1.5925 -3.5546 -0.0672
  827MOL0     H14069   3.659  10.109   7.385 -0.1321  1.8712 -0.4952
  827MOL0     H14070   3.818  10.075   7.330  0.0737  0.2134 -0.0931
  827MOL0     H14071   3.729  10.168   7.603  0.4717  1.9796 -0.6565
  827MOL0     H14072   3.903  10.161   7.557 -0.1409 -0.0478  0.9394
  827MOL0     H14073   3.708   9.943   7.581 -0.2339  0.5443 -0.1513
  827MOL0     H14074   3.856   9.921   7.490  3.2540  0.5970  0.4872
  827MOL0     H14075   3.756   9.992   7.858  0.6826  0.2339  3.7673
  827MOL0     H14076   3.864   9.846   8.061 -1.1496  2.4089 -0.4592
  827MOL0     H14077   3.934   9.999   8.092 -0.1036 -0.4627  1.6251
  827MOL0     H14078   4.168   9.900   8.076 -0.1008 -0.6005  0.9606
  827MOL0     H14079   4.061   9.840   8.204  0.3202 -2.0911  0.3447
  827MOL0     H14080   4.005   9.640   8.068  0.3654 -0.7129 -3.0238
  827MOL0     H14081   4.117   9.686   7.949 -3.4190 -0.1332 -1.3530
  827MOL0     H14082   4.176   9.650   8.243  0.1138  0.0378 -0.1682
  827MOL0     H14083   4.220   9.533   8.110  3.5930 -0.8380 -1.5071
  827MOL0     H14084   4.393   9.508   8.287  0.3612  1.1937 -0.8683
  827MOL0     H14085   4.684   9.271   8.325  0.9983  1.1277 -3.1857
  827MOL0     H14086   4.526   9.222   8.269 -0.1587 -0.1882 -1.4756
  827MOL0     H14087   4.534   9.357   8.388  0.6892  2.7398 -0.4682
  827MOL0     H14088   4.768   9.104   7.886  0.8419 -2.0036 -0.6257
  827MOL0     H14089   4.913   8.923   7.866 -2.0032  1.5455 -1.4835
  827MOL0     H14090   5.369   9.009   7.858 -0.1076  2.5299  2.1526
  827MOL0     H14091   5.329   9.002   8.030 -1.2202 -1.1684  0.2308
  827MOL0     H14092   5.472   8.819   7.990 -0.5746 -0.5491  2.2588
  827MOL0     H14093   5.300   8.768   8.025  1.2297 -1.9483  1.2778
  827MOL0     H14094   5.455   8.781   7.754 -1.2574  0.7924 -0.7069
  827MOL0     H14095   5.284   8.749   7.771  0.6792  0.1622 -2.2353
  827MOL0     H14096   5.403   8.527   7.742 -2.4253 -2.6147  0.9970
  827MOL0     H14097   5.323   8.555   7.896 -0.1773  0.8140  0.1175
  827MOL0     H14098   5.614   8.601   7.860  2.4831  1.5011  3.6119
  827MOL0     H14099   5.537   8.586   8.016  0.9651  2.2893 -0.6200
  827MOL0     H14100   5.499   8.335   7.954  0.7387 -0.9756  3.2737
  827MOL0     H14101   5.659   8.389   8.006 -1.2370 -0.3067  0.9046
  827MOL0     H14102   5.718   8.416   7.751 -1.4150 -1.4663 -3.6703
  827MOL0     H14103   5.556   8.346   7.721 -0.4659  0.6625 -1.3480
  827MOL0     H14104   5.743   8.185   7.707 -1.3602  2.0140  0.1193
  827MOL0     H14105   5.606   8.132   7.808  0.6253 -2.7405 -1.8569
  827MOL0     H14106   5.239   9.203   7.926 -0.2157 -0.7805 -0.3268
  827MOL0     H14107   5.102   9.364   7.959  1.5893 -0.6573 -0.5216
  827MOL0     H14108   4.722   9.569   7.938  0.8561 -1.6637 -0.3121
  827MOL0     H14109   4.535   9.727   7.964  1.0288 -0.6214 -0.2992
  827MOL0     H14110   3.922  10.931   7.087  1.2906  3.0875 -3.1975
  827MOL0     H14111   4.004  11.147   7.055  2.8022  3.5434  1.4735
  827MOL0     H14112   4.355  11.385   7.013  1.0824  0.5082  2.3322
  827MOL0     H14113   4.415  11.583   6.873  2.9954 -0.8116  0.5046
  827MOL0     H14114   4.205  11.938   6.907 -0.3467  0.2633  0.0310
  827MOL0     H14115   4.318  11.973   7.040  1.1638  1.0966  0.0584
  827MOL0     H14116   4.476  12.059   6.863 -0.3859  0.8765 -0.5711
  827MOL0     H14117   4.320  12.138   6.888  0.0902  0.8680 -2.8489
  827MOL0     H14118   4.346  11.917   6.663  0.6497  1.0111 -2.5129
  827MOL0     H14119   4.221  12.041   6.682 -0.1757 -2.7165 -1.6817
  827MOL0     H14120   4.512  12.065   6.619 -0.5163  0.0535  1.7373
  827MOL0     H14121   4.433  12.209   6.673  0.3601 -0.8972  2.5068
  827MOL0     H14122   4.289  12.156   6.276  0.5013  0.3823 -0.1526
  827MOL0     H14123   4.178  11.823   7.108  1.8872  0.6363 -3.0208
  827MOL0     H14124   4.111  11.664   7.363 -0.0205 -2.1938 -0.4202
  827MOL0     H14125   4.015  11.746   7.239 -1.9763 -0.5808  2.6138
  827MOL0     H14126   3.978  11.583   7.265 -2.1584  1.4933  1.6251
  828MOL0     O14127   0.059   6.327   0.588 -1.1636 -0.1784  0.2217
  828MOL0     C14128   0.036   6.303   0.706  0.4232 -0.5408  0.2700
  828MOL0     O14129   0.119   6.326   0.805 -0.2663  0.3267 -0.8814
  828MOL0     C14130   0.213   6.426   0.788  0.5291  0.1343 -0.2965
  828MOL0     C14131   0.334   6.395   0.724  0.1850  0.0596 -0.2193
  828MOL0     C14132   0.444   6.480   0.724 -0.3678  0.8770 -0.2646
  828MOL0     C14133   0.446   6.601   0.787 -0.6968  1.1710 -0.4264
  828MOL0     O14134   0.558   6.673   0.787  0.2096 -0.7754 -0.0337
  828MOL0     C14135   0.645   6.621   0.893 -0.2899 -0.0358  1.2317
  828MOL0     C14136   0.740   6.733   0.921  0.3085 -0.8628 -0.1557
  828MOL0     C14137   0.824   6.778   0.803 -0.7261 -0.4426  1.1683
  828MOL0     C14138   0.971   6.728   0.815  0.6844  0.0204  0.7208
  828MOL0     C14139   1.057   6.807   0.715  0.3263  1.1534 -0.1490
  828MOL0     C14140   1.110   6.932   0.777 -0.5925  0.9949  0.4458
  828MOL0     C14141   1.204   7.007   0.684 -0.3911  0.1295 -0.1092
  828MOL0     C14142   1.263   7.137   0.747  0.1260 -0.6161 -0.2193
  828MOL0     N14143   1.368   7.180   0.658 -0.2934 -1.0297 -0.2441
  828MOL0     C14144   1.486   7.114   0.643  0.2980  0.9657  0.6137
  828MOL0     C14145   1.535   7.180   0.538  0.0077 -0.5247 -0.2856
  828MOL0     C14146   1.665   7.166   0.469 -0.6135 -0.3691  0.7214
  828MOL0     C14147   1.783   7.185   0.565 -0.6773  0.1360 -0.3096
  828MOL0     C14148   1.914   7.189   0.485 -0.4383 -0.2564  0.5086
  828MOL0     C14149   2.003   7.305   0.541  0.2066 -0.7170  0.0873
  828MOL0     O14150   2.032   7.299   0.684 -0.3799  0.6973 -0.5064
  828MOL0     C14151   2.152   7.242   0.711 -0.4491 -0.9897 -0.1991
  828MOL0     C14152   2.161   7.102   0.721 -0.1175 -0.3508 -0.3168
  828MOL0     C14153   2.278   7.044   0.758 -1.0598 -0.2650  0.3385
  828MOL0     C14154   2.273   6.900   0.798  0.0748 -0.4817  0.1068
  828MOL0     C14155   2.401   7.118   0.773 -0.8456 -0.3565 -0.6050
  828MOL0     C14156   2.547   7.066   0.800 -0.0451  0.1808 -0.2869
  828MOL0     O14157   2.648   7.155   0.779 -0.1028  0.7096  0.1254
  828MOL0     C14158   2.781   7.128   0.812 -0.5515  0.2249 -0.1795
  828MOL0     C14159   2.838   7.021   0.898  0.5081  1.0153  0.1097
  828MOL0     C14160   2.968   7.035   0.948  0.1830  0.6945  0.1116
  828MOL0     C14161   3.050   7.143   0.913 -0.8640 -0.5001  0.1879
  828MOL0     O14162   3.176   7.169   0.964 -0.6236  0.2529 -0.1724
  828MOL0     C14163   3.237   7.053   1.033  1.0232 -0.0632  0.3236
  828MOL0     C14164   3.195   7.060   1.177  0.1314  0.4045 -0.2929
  828MOL0     C14165   3.294   6.987   1.282 -0.4057  0.4131  1.0163
  828MOL0     C14166   3.433   7.056   1.290  0.4278 -0.1894 -0.1696
  828MOL0     C14167   3.500   6.996   1.404 -0.1616  0.4946 -0.1315
  828MOL0     C14168   3.635   7.051   1.435 -0.3344 -0.1584 -0.2160
  828MOL0     C14169   3.742   7.049   1.322  0.2726  0.1915  0.1095
  828MOL0     C14170   3.872   7.124   1.357 -0.4447  0.1004 -0.9859
  828MOL0    Cl14171   3.970   7.028   1.465  0.3175  0.1715  0.4992
  828MOL0     C14172   3.000   7.242   0.823  0.1894  0.4311 -0.3305
  828MOL0     C14173   2.866   7.230   0.777 -0.8631  0.9797 -0.5672
  828MOL0     O14174   2.558   6.960   0.858  0.4009  0.5257  0.1777
  828MOL0     C14175   2.390   7.260   0.756 -0.3195 -0.2490 -0.1240
  828MOL0     C14176   2.268   7.322   0.725  0.8626  1.1428  0.6567
  828MOL0     N14177   1.447   7.271   0.482 -0.2337  0.7663 -0.7379
  828MOL0     N14178   1.353   7.281   0.572 -0.6652 -0.7219  0.0098
  828MOL0     C14179   0.320   6.638   0.854 -0.3159  0.3381  0.4411
  828MOL0     C14180   0.206   6.551   0.852 -1.1841  0.6317 -0.1862
  828MOL0     C14181  -0.103   6.280   0.754  0.0631 -0.0144  1.2437
  828MOL0     C14182  -0.130   6.259   0.889 -0.2559 -0.6722 -0.2199
  828MOL0     C14183  -0.261   6.242   0.936 -0.1270 -0.1860  0.4202
  828MOL0     C14184  -0.373   6.232   0.853 -0.1150  0.0810  0.3121
  828MOL0     O14185  -0.499   6.202   0.893 -0.2159  0.3392  0.0924
  828MOL0     C14186  -0.525   6.210   1.035 -0.3550 -0.2094 -1.0753
  828MOL0     C14187  -0.672   6.209   1.065  0.2965  0.1609 -0.4023
  828MOL0     C14188  -0.749   6.072   1.036  0.3941  0.7858 -0.1765
  828MOL0     C14189  -0.893   6.082   1.075  0.1261  0.1068 -0.7413
  828MOL0     C14190  -0.978   5.976   1.021  0.8436  0.0314  0.3622
  828MOL0     C14191  -1.038   5.878   0.982  0.2269  0.1716 -0.2620
  828MOL0     C14192  -0.344   6.237   0.714 -0.5369 -0.6594  0.5617
  828MOL0     C14193  -0.214   6.266   0.664  0.0360  0.8280  0.1496
  828MOL0     C14194  -0.216   6.259   0.512 -0.9476 -0.9018 -0.4546
  828MOL0     H14195   0.354   6.302   0.671  0.3652 -0.0181 -0.0143
  828MOL0     H14196   0.520   6.447   0.654 -1.2131 -1.8528 -0.0343
  828MOL0     H14197   0.704   6.535   0.859 -1.3924 -0.9776  1.6183
  828MOL0     H14198   0.601   6.588   0.988  0.3515  2.8387  2.6240
  828MOL0     H14199   0.672   6.816   0.943 -0.8764 -1.8914  0.1999
  828MOL0     H14200   0.799   6.714   1.011 -1.1454 -4.1486  0.2400
  828MOL0     H14201   0.776   6.744   0.710 -0.3102 -1.5916  1.3587
  828MOL0     H14202   0.824   6.888   0.798  0.2361 -0.4843 -2.1758
  828MOL0     H14203   1.010   6.756   0.913  1.4554  0.7140  0.2322
  828MOL0     H14204   0.984   6.623   0.789 -0.3977 -0.2703  1.3479
  828MOL0     H14205   1.004   6.843   0.626 -0.7948  0.3784  0.1707
  828MOL0     H14206   1.148   6.749   0.696 -0.1746  0.2030  0.2543
  828MOL0     H14207   1.029   7.002   0.800  0.0073  1.8780 -0.0651
  828MOL0     H14208   1.170   6.902   0.863  0.2649  1.7303  0.1125
  828MOL0     H14209   1.154   7.038   0.592 -0.3138  1.9851  0.4404
  828MOL0     H14210   1.277   6.935   0.647  2.1684  2.5763 -0.1814
  828MOL0     H14211   1.190   7.216   0.765  2.6406  1.3849  2.0094
  828MOL0     H14212   1.309   7.119   0.845  1.5994 -1.0872 -0.9647
  828MOL0     H14213   1.529   7.034   0.701 -0.3931  0.6528  0.7133
  828MOL0     H14214   1.668   7.239   0.387  0.6676 -1.2972 -0.0904
  828MOL0     H14215   1.685   7.067   0.426  0.4057 -0.5217  1.5020
  828MOL0     H14216   1.755   7.281   0.609  0.4447 -0.9315  2.9765
  828MOL0     H14217   1.790   7.110   0.644  0.3719  1.7775  1.2183
  828MOL0     H14218   1.954   7.088   0.473  1.1465  0.3284  0.5280
  828MOL0     H14219   1.890   7.215   0.381 -2.5243 -0.7911  0.8194
  828MOL0     H14220   2.090   7.313   0.476 -0.7151  2.0878 -0.9471
  828MOL0     H14221   1.942   7.394   0.522 -2.1512 -2.3616 -0.6050
  828MOL0     H14222   2.068   7.058   0.686 -1.4837  1.9282  0.2436
  828MOL0     H14223   2.300   6.900   0.904 -0.5042  1.8053  0.3003
  828MOL0     H14224   2.342   6.831   0.748 -0.9058 -1.2073 -0.2967
  828MOL0     H14225   2.174   6.860   0.774  0.9334 -2.1140 -0.9166
  828MOL0     H14226   2.771   6.939   0.922  0.6693  0.2568 -1.8901
  828MOL0     H14227   3.003   6.949   1.004 -2.2425 -0.3551  0.1211
  828MOL0     H14228   3.209   6.960   0.982 -1.9061  1.1200 -0.4444
  828MOL0     H14229   3.346   7.061   1.030  1.1976 -1.9903  0.0355
  828MOL0     H14230   3.179   7.165   1.203 -0.5989  0.5139 -1.1237
  828MOL0     H14231   3.101   7.005   1.188  1.2659 -1.9200 -1.4922
  828MOL0     H14232   3.322   6.887   1.247 -0.7941  1.9196 -4.5412
  828MOL0     H14233   3.250   6.985   1.382 -0.1942 -0.5336  1.1016
  828MOL0     H14234   3.414   7.163   1.303 -0.9589 -0.5004  0.5948
  828MOL0     H14235   3.491   7.043   1.199  2.3284 -0.3518  1.0027
  828MOL0     H14236   3.439   6.999   1.495  0.8743  2.3374  0.5571
  828MOL0     H14237   3.531   6.893   1.382  1.2275  0.7674  0.4072
  828MOL0     H14238   3.678   6.992   1.516  2.7530 -1.1915 -2.3820
  828MOL0     H14239   3.621   7.153   1.472  5.2730  1.1624 -0.7692
  828MOL0     H14240   3.699   7.104   1.238  3.2040  1.5253 -0.6616
  828MOL0     H14241   3.772   6.947   1.295 -0.1806 -0.1520  0.8492
  828MOL0     H14242   3.866   7.230   1.383  0.6572 -0.5959  2.5770
  828MOL0     H14243   3.934   7.128   1.267 -0.0906  0.0129 -0.7440
  828MOL0     H14244   3.065   7.322   0.791  0.7579 -0.7382 -2.3257
  828MOL0     H14245   2.814   7.315   0.732 -3.5467 -0.1171  0.2422
  828MOL0     H14246   2.476   7.325   0.765 -0.3570 -0.3307  0.8924
  828MOL0     H14247   2.267   7.428   0.703  1.2646  1.2458  1.1298
  828MOL0     H14248   0.312   6.742   0.880  1.5285  0.6848 -0.2101
  828MOL0     H14249   0.115   6.579   0.905 -0.7352  0.8226  0.5119
  828MOL0     H14250  -0.054   6.280   0.964 -2.0089  2.7517  0.7967
  828MOL0     H14251  -0.286   6.239   1.042 -1.7778 -3.2051  0.0617
  828MOL0     H14252  -0.482   6.132   1.099  0.1661  3.5519  3.7797
  828MOL0     H14253  -0.485   6.302   1.079  3.8832 -2.0333 -0.6476
  828MOL0     H14254  -0.716   6.294   1.013 -0.0301  2.2847  2.9903
  828MOL0     H14255  -0.686   6.237   1.170  0.1342  1.0590 -0.6614
  828MOL0     H14256  -0.742   6.052   0.929  1.5201  2.5745 -0.4919
  828MOL0     H14257  -0.706   5.986   1.090 -0.6723  0.2986 -0.0866
  828MOL0     H14258  -0.926   6.180   1.039 -0.7879  0.4407  0.9183
  828MOL0     H14259  -0.901   6.076   1.184 -0.8944 -0.7209 -0.8549
  828MOL0     H14260  -1.089   5.799   0.930 -1.3245  0.1862  1.1570
  828MOL0     H14261  -0.423   6.225   0.641  1.4854 -0.5600 -1.7975
  828MOL0     H14262  -0.167   6.350   0.475  0.9118 -0.6264  2.3738
  828MOL0     H14263  -0.151   6.177   0.482  1.6440  0.2282  1.6852
  828MOL0     H14264  -0.311   6.231   0.465 -1.1562  0.6730 -1.0482
  829MOL0     O14265   1.004   3.613  10.263  0.9256  0.3590  0.1390
  829MOL0     C14266   0.916   3.694  10.290  0.2317  0.2437 -0.0913
  829MOL0     O14267   0.934   3.827  10.286  0.8806 -0.2976  0.8985
  829MOL0     C14268   1.067   3.876  10.291 -0.0866 -0.9933  1.1840
  829MOL0     C14269   1.119   3.937  10.405  0.0815  0.1163 -0.4106
  829MOL0     C14270   1.249   4.004  10.403  0.3579  0.3680 -0.5192
  829MOL0     C14271   1.331   3.985  10.290 -0.8638 -0.2582  0.5112
  829MOL0     O14272   1.449   4.058  10.309 -0.3388  0.5808  0.4606
  829MOL0     C14273   1.542   4.072  10.207  1.1461  0.2000 -0.3020
  829MOL0     C14274   1.525   4.180  10.097  0.3412 -0.8571 -0.5401
  829MOL0     C14275   1.661   4.249  10.072  0.3510 -0.6344 -0.0999
  829MOL0     C14276   1.681   4.377  10.160  0.2202  0.6028 -0.0718
  829MOL0     C14277   1.820   4.438  10.165 -0.3609 -0.2024 -0.2769
  829MOL0     C14278   1.861   4.495  10.028  0.3445  0.3009  0.4104
  829MOL0     C14279   2.006   4.532  10.008 -0.4064  0.3983  0.5749
  829MOL0     C14280   2.048   4.666  10.069  0.4678  0.6018 -0.3338
  829MOL0     N14281   2.165   4.721  10.002  0.4599  0.4077 -0.3484
  829MOL0     C14282   2.277   4.756  10.059 -1.2276 -0.6516 -0.0775
  829MOL0     C14283   2.354   4.801   9.965 -0.2237 -0.4009 -0.5704
  829MOL0     C14284   2.482   4.884   9.991  0.7629 -0.4927  0.2020
  829MOL0     C14285   2.449   5.038   9.994 -0.3373 -0.1171 -0.4190
  829MOL0     C14286   2.402   5.086  10.134  0.1502  0.0599 -1.0105
  829MOL0     C14287   2.336   5.221  10.118 -0.3643  0.2487  0.9856
  829MOL0     O14288   2.437   5.320  10.089  0.2741 -0.0800  0.0042
  829MOL0     C14289   2.509   5.363  10.185  0.0100  0.7475  0.5201
  829MOL0     C14290   2.455   5.442  10.292 -0.6337 -0.0418 -0.6984
  829MOL0     C14291   2.543   5.499  10.390 -0.0805  1.0307 -0.1733
  829MOL0     C14292   2.485   5.590  10.482 -0.2562 -0.0118 -0.3832
  829MOL0     C14293   2.683   5.459  10.401  0.2240 -0.0999  0.8813
  829MOL0     C14294   2.778   5.521  10.495  0.0158  0.5501  0.9392
  829MOL0     O14295   2.869   5.432  10.542  0.0674  0.2724  0.5643
  829MOL0     C14296   2.993   5.479  10.593 -0.2090  0.0456  0.6770
  829MOL0     C14297   3.071   5.563  10.512 -0.1831 -0.4721 -0.1174
  829MOL0     C14298   3.201   5.605  10.559 -0.7450  0.8722 -0.0975
  829MOL0     C14299   3.248   5.544  10.678  0.4394  0.8512 -0.4069
  829MOL0     O14300   3.366   5.591  10.729  0.8100  0.5062  0.0941
  829MOL0     C14301   3.480   5.561  10.654 -0.6817  0.3649  0.6461
  829MOL0     C14302   3.602   5.526  10.746  0.0537  0.0115 -0.8340
  829MOL0     C14303   3.732   5.507  10.654  0.4479  0.4644 -0.2212
  829MOL0     C14304   3.865   5.476  10.736  0.2370 -0.0467  0.4307
  829MOL0     C14305   3.988   5.450  10.644 -0.6664  0.0211 -0.0158
  829MOL0     C14306   4.127   5.437  10.716 -0.7991 -0.1923  0.1745
  829MOL0     C14307   4.245   5.434  10.607  0.8242 -0.1694 -0.1416
  829MOL0     C14308   4.364   5.402  10.692 -0.3274  0.4430  0.0173
  829MOL0    Cl14309   4.497   5.384  10.588  0.3959 -0.5445 -0.0392
  829MOL0     C14310   3.167   5.462  10.759 -1.2333  0.2475  0.0546
  829MOL0     C14311   3.038   5.439  10.718  0.7124 -0.0985  0.3366
  829MOL0     O14312   2.774   5.637  10.520 -0.4927 -0.3514  0.1079
  829MOL0     C14313   2.721   5.365  10.305  0.3653  0.5095  0.0136
  829MOL0     C14314   2.638   5.319  10.195 -0.0041  0.1186  0.5216
  829MOL0     N14315   2.287   4.793   9.850 -0.2798 -0.4728  0.5956
  829MOL0     N14316   2.170   4.752   9.873 -0.2756  0.4993 -0.5336
  829MOL0     C14317   1.278   3.918  10.186 -0.2351  0.6786  0.4841
  829MOL0     C14318   1.145   3.870  10.181  0.0720  0.2017  0.6213
  829MOL0     C14319   0.784   3.647  10.335 -0.4445  0.3555 -0.9647
  829MOL0     C14320   0.671   3.731  10.341  0.0774 -0.4815 -0.1005
  829MOL0     C14321   0.544   3.680  10.349  0.0845 -0.2154  0.3583
  829MOL0     C14322   0.523   3.547  10.364  0.3485  0.7649  0.6155
  829MOL0     O14323   0.394   3.501  10.333 -0.2447 -0.2520 -0.4635
  829MOL0     C14324   0.369   3.361  10.311 -0.3041  1.0440  0.4367
  829MOL0     C14325   0.235   3.310  10.260 -0.0555  0.1580 -0.1603
  829MOL0     C14326   0.129   3.368  10.355 -0.2255  0.8802 -0.3065
  829MOL0     C14327  -0.005   3.312  10.319  0.7449 -0.3042  0.0957
  829MOL0     C14328  -0.109   3.370  10.407 -0.1047 -0.2531 -0.5583
  829MOL0     C14329  -0.179   3.400  10.499  0.0811  0.6071  1.3783
  829MOL0     C14330   0.630   3.466  10.384  0.0010 -0.2483 -0.0473
  829MOL0     C14331   0.767   3.508  10.382 -0.1716  0.4730  0.1251
  829MOL0     C14332   0.873   3.405  10.400 -0.3711  0.2010 -0.6360
  829MOL0     H14333   1.052   3.942  10.490  0.0561  2.6686 -0.4803
  829MOL0     H14334   1.283   4.068  10.484 -2.7396  0.3120  0.9774
  829MOL0     H14335   1.552   3.970  10.170  1.0654  0.7156 -1.8212
  829MOL0     H14336   1.631   4.096  10.267  1.9916 -0.7237 -1.1537
  829MOL0     H14337   1.503   4.137   9.999  0.9713  0.4498 -1.2909
  829MOL0     H14338   1.451   4.254  10.129 -0.1144 -1.8614  0.7768
  829MOL0     H14339   1.744   4.183  10.100  0.3225 -0.5079  0.2856
  829MOL0     H14340   1.672   4.270   9.965  0.9744 -1.4235 -0.2048
  829MOL0     H14341   1.615   4.458  10.128 -0.4801  0.0750 -0.0117
  829MOL0     H14342   1.646   4.347  10.260 -0.0861 -0.8908 -0.5941
  829MOL0     H14343   1.889   4.358  10.194 -1.2083 -1.1058 -0.7099
  829MOL0     H14344   1.815   4.509  10.248 -1.2064 -1.6158  0.9216
  829MOL0     H14345   1.835   4.422   9.950  0.0121  1.7419 -0.8792
  829MOL0     H14346   1.801   4.583  10.004  2.5065  1.7573  0.0082
  829MOL0     H14347   2.029   4.529   9.901 -0.0734  2.2263  0.5606
  829MOL0     H14348   2.074   4.458  10.050  2.9156  3.2702  0.7587
  829MOL0     H14349   1.964   4.734  10.088 -1.2307 -1.5734  0.3733
  829MOL0     H14350   2.081   4.632  10.168 -1.8289 -1.2741 -0.1372
  829MOL0     H14351   2.297   4.755  10.166  0.4767 -0.9885 -0.3708
  829MOL0     H14352   2.556   4.855   9.915 -0.4135 -1.3102 -0.6733
  829MOL0     H14353   2.540   4.852  10.078  0.1637 -2.7169 -0.1548
  829MOL0     H14354   2.533   5.103   9.969 -2.9167  2.2725 -3.7154
  829MOL0     H14355   2.376   5.056   9.914 -0.8952 -1.4678 -0.2442
  829MOL0     H14356   2.326   5.014  10.164 -0.5266  1.0356 -0.3091
  829MOL0     H14357   2.492   5.089  10.195 -2.3840 -0.8751  3.1889
  829MOL0     H14358   2.267   5.218  10.033  0.2550 -0.9929  0.5010
  829MOL0     H14359   2.274   5.253  10.202 -1.1985 -0.4615  0.6529
  829MOL0     H14360   2.356   5.486  10.286 -1.4583 -1.1193  2.9830
  829MOL0     H14361   2.524   5.691  10.466 -1.1602  0.9363  2.6787
  829MOL0     H14362   2.510   5.572  10.587  0.0924  3.6432  0.2970
  829MOL0     H14363   2.377   5.602  10.472 -0.2027  2.4618  1.0360
  829MOL0     H14364   3.013   5.604  10.429 -4.9599  0.1761  3.1237
  829MOL0     H14365   3.255   5.678  10.501  0.6133  0.6909  0.9018
  829MOL0     H14366   3.476   5.480  10.581 -2.4450  0.3856  0.6836
  829MOL0     H14367   3.506   5.655  10.604 -1.5731  0.6469  0.6885
  829MOL0     H14368   3.625   5.607  10.815 -0.0349 -0.9855  0.3852
  829MOL0     H14369   3.575   5.438  10.804 -0.3254 -0.1772 -1.2862
  829MOL0     H14370   3.758   5.592  10.591  0.8551 -0.4232 -1.2852
  829MOL0     H14371   3.708   5.441  10.570 -2.7929  0.8418  0.2698
  829MOL0     H14372   3.855   5.380  10.788 -2.9995 -0.0614 -0.0140
  829MOL0     H14373   3.895   5.557  10.803  1.5276  1.7561 -2.1459
  829MOL0     H14374   3.968   5.363  10.580  0.7012 -0.4114  0.1282
  829MOL0     H14375   3.998   5.534  10.574  0.4833  1.4512  1.7929
  829MOL0     H14376   4.116   5.345  10.774 -0.5260 -0.8199 -0.7439
  829MOL0     H14377   4.154   5.513  10.791  0.3354 -0.3856 -0.0202
  829MOL0     H14378   4.254   5.536  10.569  3.0698 -1.2594 -2.8751
  829MOL0     H14379   4.224   5.359  10.531  2.7013  0.6261 -1.5150
  829MOL0     H14380   4.345   5.311  10.751  2.0484  1.1014  1.9339
  829MOL0     H14381   4.392   5.477  10.766 -2.9655  2.2214 -0.6598
  829MOL0     H14382   3.193   5.423  10.857 -0.2303  1.3189  0.2428
  829MOL0     H14383   2.973   5.379  10.781 -0.6360  2.8929  2.0140
  829MOL0     H14384   2.822   5.325  10.305  0.4857  0.8125  0.0275
  829MOL0     H14385   2.681   5.260  10.115 -0.0090  0.5836  0.1702
  829MOL0     H14386   1.332   3.898  10.094 -1.8950 -1.5087 -0.0942
  829MOL0     H14387   1.100   3.822  10.094 -0.5642  0.4247  0.8164
  829MOL0     H14388   0.678   3.838  10.325 -3.0016 -0.1697  0.1741
  829MOL0     H14389   0.460   3.745  10.330  1.0301  0.7911 -0.5341
  829MOL0     H14390   0.448   3.312  10.253 -0.1518  0.5170  1.0758
  829MOL0     H14391   0.375   3.317  10.411  1.3227 -0.3904 -0.2428
  829MOL0     H14392   0.243   3.202  10.247  2.4758  0.3022 -0.3477
  829MOL0     H14393   0.224   3.344  10.156  1.6085  1.0065 -0.0995
  829MOL0     H14394   0.156   3.340  10.457  2.0342 -1.4776 -1.4018
  829MOL0     H14395   0.137   3.477  10.350  1.3790  0.7497 -2.8469
  829MOL0     H14396  -0.018   3.203  10.322 -3.2139 -0.0862 -1.7411
  829MOL0     H14397  -0.023   3.345  10.216  1.3690  0.3708  0.1962
  829MOL0     H14398  -0.259   3.430  10.564 -1.2664 -1.2461  0.6666
  829MOL0     H14399   0.609   3.364  10.415 -0.9205  0.1010  0.5187
  829MOL0     H14400   0.917   3.355  10.312  1.8660  0.5211  0.2385
  829MOL0     H14401   0.949   3.452  10.462  0.8135 -2.7658  0.3072
  829MOL0     H14402   0.858   3.320  10.467  1.4927  0.2513 -0.0946
  830MOL0     O14403   7.283   4.625   2.582 -0.6886  0.1449 -0.1116
  830MOL0     C14404   7.228   4.731   2.547 -0.2947 -0.2072  0.2039
  830MOL0     O14405   7.292   4.836   2.489  0.6363 -0.7907 -0.2448
  830MOL0     C14406   7.414   4.813   2.426  0.1594 -0.1230  0.1019
  830MOL0     C14407   7.425   4.825   2.292 -0.3270 -0.0144 -0.2418
  830MOL0     C14408   7.548   4.791   2.226 -0.1809  0.4224  0.6782
  830MOL0     C14409   7.661   4.758   2.294 -0.4634  0.4821 -1.1752
  830MOL0     O14410   7.780   4.749   2.233 -0.4187  0.3600 -0.3622
  830MOL0     C14411   7.857   4.630   2.270  0.4710 -0.1924  0.6747
  830MOL0     C14412   7.896   4.538   2.150  0.3739 -0.7053  1.2614
  830MOL0     C14413   7.964   4.617   2.035  0.3026 -0.1589 -0.0330
  830MOL0     C14414   7.994   4.517   1.924 -0.3593  0.1702 -0.4750
  830MOL0     C14415   8.026   4.564   1.787  0.2514 -0.5546 -0.7504
  830MOL0     C14416   8.073   4.456   1.700  0.8221 -0.1094 -0.2402
  830MOL0     C14417   8.068   4.485   1.548 -0.1688 -0.8993 -0.7491
  830MOL0     C14418   8.193   4.568   1.512 -0.2646  0.3585 -0.3326
  830MOL0     N14419   8.188   4.616   1.375  0.5718  0.0747  1.3265
  830MOL0     C14420   8.289   4.685   1.310  0.0466  0.5979 -0.4142
  830MOL0     C14421   8.241   4.717   1.187 -0.2111  0.4058 -0.4179
  830MOL0     C14422   8.292   4.796   1.068  0.6345 -0.7475  0.6436
  830MOL0     C14423   8.420   4.731   1.013  0.1329 -1.0445  0.0981
  830MOL0     C14424   8.480   4.828   0.918 -0.8660 -0.1134  0.4941
  830MOL0     C14425   8.593   4.754   0.835 -0.5576 -0.4623  0.1837
  830MOL0     O14426   8.663   4.857   0.754  0.2652  0.2673 -0.0722
  830MOL0     C14427   8.789   4.827   0.704  0.4232 -0.9405  0.2472
  830MOL0     C14428   8.860   4.943   0.669 -0.0027  0.0346 -0.0121
  830MOL0     C14429   8.988   4.940   0.615 -0.3918  0.3873  0.5424
  830MOL0     C14430   9.075   5.058   0.605 -0.3639 -0.2359  0.5767
  830MOL0     C14431   9.035   4.807   0.582 -0.1921 -0.6351 -1.0022
  830MOL0     C14432   9.172   4.784   0.522 -0.3874  0.4980 -0.5962
  830MOL0     O14433   9.232   4.667   0.523  0.1089  0.3356  0.1469
  830MOL0     C14434   9.348   4.655   0.467  0.1410 -0.6874  0.0978
  830MOL0     C14435   9.458   4.725   0.504 -0.5796 -1.0667  0.5092
  830MOL0     C14436   9.590   4.707   0.441 -0.4003 -0.8527 -0.0130
  830MOL0     C14437   9.599   4.610   0.335 -0.8554 -0.7521 -0.4443
  830MOL0     O14438   9.713   4.586   0.267  0.0601  0.0325  0.7300
  830MOL0     C14439   9.839   4.616   0.311  0.4204 -0.2717  0.4087
  830MOL0     C14440   9.882   4.529   0.428  0.2168 -0.8326 -1.1937
  830MOL0     C14441  10.031   4.517   0.461 -0.1182  0.2595  0.1114
  830MOL0     C14442  10.101   4.448   0.349  0.6833 -0.2400  0.4203
  830MOL0     C14443  10.244   4.391   0.368  0.9952  0.6243  0.2620
  830MOL0     C14444  10.363   4.488   0.338  0.7070 -0.0338 -0.2695
  830MOL0     C14445  10.501   4.429   0.337 -0.6816 -0.1088  0.0202
  830MOL0     C14446  10.564   4.370   0.464  0.8801 -0.9900 -0.1834
  830MOL0    Cl14447  10.522   4.202   0.491  0.5179  0.1527 -0.1147
  830MOL0     C14448   9.482   4.545   0.294 -0.3211  0.1969  0.4305
  830MOL0     C14449   9.365   4.558   0.372 -0.2137 -0.2027  0.3274
  830MOL0     O14450   9.197   4.871   0.440  0.1931 -0.5146 -0.5443
  830MOL0     C14451   8.959   4.692   0.614 -0.2833 -0.4518  0.6229
  830MOL0     C14452   8.837   4.697   0.681 -0.6025  0.1451 -0.8668
  830MOL0     N14453   8.113   4.665   1.184 -0.7588  0.3793  0.4774
  830MOL0     N14454   8.079   4.621   1.301  0.7237  0.5478  0.1031
  830MOL0     C14455   7.655   4.751   2.432  0.2538 -0.6940  0.5550
  830MOL0     C14456   7.532   4.781   2.495  0.6793 -0.3324 -1.0053
  830MOL0     C14457   7.090   4.739   2.599  0.1825 -0.1629  0.5514
  830MOL0     C14458   7.071   4.754   2.726 -0.0524 -0.1257  0.0400
  830MOL0     C14459   6.938   4.770   2.781 -0.2664 -0.4136 -0.6283
  830MOL0     C14460   6.826   4.767   2.705 -0.2422 -0.3925  0.8010
  830MOL0     O14461   6.707   4.784   2.771  0.7210  0.2225  0.2886
  830MOL0     C14462   6.595   4.720   2.704 -1.0279  0.0817  1.0656
  830MOL0     C14463   6.601   4.581   2.750 -0.6349  0.7956 -0.1637
  830MOL0     C14464   6.472   4.505   2.730 -0.2431 -0.2999  0.1943
  830MOL0     C14465   6.486   4.359   2.774  0.0739  0.1257  0.3310
  830MOL0     C14466   6.535   4.336   2.909 -0.0904  0.3877 -0.1421
  830MOL0     C14467   6.585   4.333   3.019 -0.1209  0.4430 -0.2167
  830MOL0     C14468   6.850   4.765   2.558  0.6346 -0.0035 -0.4166
  830MOL0     C14469   6.982   4.757   2.509 -0.4423  0.0489 -0.9233
  830MOL0     C14470   7.002   4.765   2.357 -0.6214 -0.0878 -0.0850
  830MOL0     H14471   7.342   4.854   2.229  0.5415  0.9115 -1.0012
  830MOL0     H14472   7.560   4.816   2.121  1.5177 -0.2702  0.6727
  830MOL0     H14473   7.801   4.566   2.339  1.5234  1.4368  3.1846
  830MOL0     H14474   7.948   4.663   2.321  0.5464  1.5500 -0.5255
  830MOL0     H14475   7.962   4.460   2.190 -0.2561 -2.8695 -1.5852
  830MOL0     H14476   7.808   4.490   2.107 -2.1492  3.2150  1.5801
  830MOL0     H14477   7.907   4.706   2.006 -0.7920 -0.7076  0.3827
  830MOL0     H14478   8.057   4.658   2.076  0.2547  0.4329 -0.4956
  830MOL0     H14479   8.074   4.452   1.961 -0.9994 -0.0817  0.4977
  830MOL0     H14480   7.909   4.449   1.921 -0.3220 -0.1881  2.8935
  830MOL0     H14481   8.102   4.642   1.799  0.6235 -0.8035 -1.4686
  830MOL0     H14482   7.940   4.613   1.738 -0.3013  0.6655  1.3103
  830MOL0     H14483   8.172   4.415   1.721  2.1620  2.0799 -1.8787
  830MOL0     H14484   8.001   4.374   1.710  2.2247 -1.2061  1.6743
  830MOL0     H14485   7.972   4.530   1.521 -0.2677  1.0812  2.4405
  830MOL0     H14486   8.082   4.397   1.485 -1.5764 -1.0292 -0.9097
  830MOL0     H14487   8.201   4.652   1.581  3.3524  1.3061 -1.6943
  830MOL0     H14488   8.286   4.512   1.521 -1.0357 -1.1638 -1.2989
  830MOL0     H14489   8.384   4.709   1.358 -0.5421  1.1279  0.5086
  830MOL0     H14490   8.313   4.900   1.095  2.1945 -1.4694  2.4535
  830MOL0     H14491   8.210   4.797   0.994 -0.0008 -0.0293  1.3323
  830MOL0     H14492   8.480   4.708   1.102 -1.4220  0.0717  1.5010
  830MOL0     H14493   8.407   4.631   0.973 -0.0258 -1.2437  0.6354
  830MOL0     H14494   8.398   4.860   0.854 -1.4587  1.1660  1.8375
  830MOL0     H14495   8.516   4.920   0.966  4.4132  0.2670 -3.2674
  830MOL0     H14496   8.662   4.699   0.900 -1.1755 -1.1099  0.3071
  830MOL0     H14497   8.547   4.677   0.773 -2.7198  0.0151  1.1115
  830MOL0     H14498   8.824   5.044   0.686 -0.2018  0.7618 -3.9342
  830MOL0     H14499   9.168   5.034   0.657 -1.2718 -2.3447  1.3472
  830MOL0     H14500   9.026   5.142   0.656  1.0839 -1.7529  4.8488
  830MOL0     H14501   9.092   5.079   0.499 -0.8887  0.6963  0.6624
  830MOL0     H14502   9.442   4.813   0.566  0.6601 -0.5185  0.1032
  830MOL0     H14503   9.670   4.775   0.465 -1.0561 -0.4832  1.1800
  830MOL0     H14504   9.899   4.587   0.224  0.6044 -2.4095  1.1946
  830MOL0     H14505   9.841   4.723   0.335  0.0270  0.0026 -0.7248
  830MOL0     H14506   9.827   4.574   0.511  0.9911 -1.2811 -0.4265
  830MOL0     H14507   9.848   4.428   0.403 -1.9124  0.0336 -2.0585
  830MOL0     H14508  10.062   4.466   0.553 -0.3867  0.6754  0.4390
  830MOL0     H14509  10.081   4.614   0.470 -1.0931  1.3067 -3.9330
  830MOL0     H14510  10.101   4.527   0.273  0.2528  0.5668  1.2414
  830MOL0     H14511  10.048   4.362   0.307  1.0463 -0.3875  0.2576
  830MOL0     H14512  10.253   4.345   0.467 -1.1264  0.9528  0.6620
  830MOL0     H14513  10.257   4.309   0.297  0.5321  1.8992 -1.3749
  830MOL0     H14514  10.374   4.561   0.419  1.8921  2.4966 -2.5370
  830MOL0     H14515  10.354   4.536   0.240 -4.5191  1.8427  0.7577
  830MOL0     H14516  10.566   4.507   0.297 -0.8072 -0.6085 -1.1965
  830MOL0     H14517  10.516   4.353   0.260  3.9736 -0.4538  1.0134
  830MOL0     H14518  10.539   4.423   0.557  2.2461 -0.7371  0.0585
  830MOL0     H14519  10.673   4.371   0.460  0.8381 -0.9722 -1.8900
  830MOL0     H14520   9.496   4.472   0.215  2.4287  0.9488  0.0905
  830MOL0     H14521   9.278   4.497   0.354  0.8544 -1.5676 -0.3782
  830MOL0     H14522   9.001   4.592   0.605 -0.9869 -0.7200  0.2686
  830MOL0     H14523   8.779   4.607   0.701  1.7474 -1.2064  0.2748
  830MOL0     H14524   7.744   4.730   2.491  2.0858 -1.5999 -2.3250
  830MOL0     H14525   7.532   4.787   2.603  1.8183 -0.9897 -0.9512
  830MOL0     H14526   7.145   4.747   2.806 -0.5297  4.5025  1.1530
  830MOL0     H14527   6.940   4.781   2.889  0.3891  1.2515 -0.7851
  830MOL0     H14528   6.498   4.767   2.726 -0.7671  1.6892 -0.8937
  830MOL0     H14529   6.605   4.736   2.596  0.4465 -0.5160  1.0897
  830MOL0     H14530   6.633   4.575   2.854 -1.4580  1.1580  0.1212
  830MOL0     H14531   6.678   4.523   2.698 -1.3173 -1.5730  1.3256
  830MOL0     H14532   6.397   4.563   2.784 -0.1251 -1.3014  1.4843
  830MOL0     H14533   6.443   4.509   2.625  0.4823 -1.1843 -0.0475
  830MOL0     H14534   6.555   4.302   2.711 -0.1290  1.1073 -0.8060
  830MOL0     H14535   6.393   4.303   2.757 -0.9072  2.5181 -3.3613
  830MOL0     H14536   6.635   4.326   3.114  0.6390 -0.7042 -0.6806
  830MOL0     H14537   6.772   4.752   2.484  0.8351 -1.7940 -0.3630
  830MOL0     H14538   6.943   4.851   2.325 -1.6062 -0.7701 -0.1642
  830MOL0     H14539   7.108   4.784   2.340  0.0258 -2.0252  1.3633
  830MOL0     H14540   6.964   4.678   2.304 -0.3495  2.3616 -4.7578
  831MOL0     O14541   3.347   3.509  11.351  0.1421 -0.2025  0.1607
  831MOL0     C14542   3.304   3.544  11.239  0.1685 -0.1314 -0.3678
  831MOL0     O14543   3.365   3.516  11.119 -0.8787 -0.3907  0.0573
  831MOL0     C14544   3.483   3.443  11.119 -0.6092 -1.2191 -0.4167
  831MOL0     C14545   3.599   3.498  11.172 -0.6426 -0.4262  0.5920
  831MOL0     C14546   3.719   3.423  11.183  0.8422  0.1765  0.5311
  831MOL0     C14547   3.727   3.291  11.134  0.0049  0.2336  1.0393
  831MOL0     O14548   3.826   3.203  11.157 -0.1818  0.0401 -0.4392
  831MOL0     C14549   3.961   3.251  11.180  0.0446  0.0174 -0.8070
  831MOL0     C14550   4.008   3.221  11.320 -0.4442 -0.6282  0.2956
  831MOL0     C14551   4.126   3.300  11.367 -0.7319 -0.7871 -0.6431
  831MOL0     C14552   4.263   3.260  11.294 -0.3505  0.4152  0.5515
  831MOL0     C14553   4.389   3.326  11.353  0.2706  0.0402 -0.3115
  831MOL0     C14554   4.517   3.246  11.325 -0.2778 -0.9641 -0.3834
  831MOL0     C14555   4.655   3.287  11.404 -0.0212 -0.2756 -0.0191
  831MOL0     C14556   4.753   3.171  11.405 -0.2012  0.8462  0.1259
  831MOL0     N14557   4.886   3.199  11.460  1.2928 -0.2630 -0.7946
  831MOL0     C14558   5.002   3.132  11.438 -0.5515 -0.0310  0.4338
  831MOL0     C14559   5.086   3.172  11.537  0.2556  0.9478  0.4384
  831MOL0     C14560   5.216   3.090  11.561 -0.2182 -0.7735 -0.1655
  831MOL0     C14561   5.303   3.151  11.674 -0.4878  0.4628 -0.5559
  831MOL0     C14562   5.440   3.079  11.668  0.1000  0.4737 -0.3093
  831MOL0     C14563   5.540   3.143  11.569  0.2524  0.3815 -0.1436
  831MOL0     O14564   5.588   3.269  11.618  0.3268  0.4771 -0.3408
  831MOL0     C14565   5.729   3.274  11.628 -0.3017 -0.2645  0.3175
  831MOL0     C14566   5.791   3.388  11.575 -0.2416  0.3836  0.6317
  831MOL0     C14567   5.930   3.407  11.582  0.0492 -0.4767  0.5741
  831MOL0     C14568   5.971   3.548  11.530 -0.4237 -0.2924 -0.1266
  831MOL0     C14569   6.011   3.309  11.646 -0.5327  0.3435  0.5443
  831MOL0     C14570   6.158   3.321  11.668 -0.7489 -0.1852  0.1958
  831MOL0     O14571   6.240   3.201  11.668  0.0131 -0.2236  0.1938
  831MOL0     C14572   6.380   3.227  11.686  1.4735  0.8782  0.8319
  831MOL0     C14573   6.444   3.172  11.794  0.4364  0.2082 -0.5490
  831MOL0     C14574   6.577   3.193  11.814 -0.1594 -0.9054 -1.1616
  831MOL0     C14575   6.654   3.268  11.722  0.3163 -0.5213 -0.1086
  831MOL0     O14576   6.783   3.284  11.750  0.8773 -0.9917 -0.3769
  831MOL0     C14577   6.858   3.388  11.687  0.7939 -0.6200  0.3361
  831MOL0     C14578   6.997   3.380  11.756  0.2953  0.3702  1.3510
  831MOL0     C14579   6.999   3.406  11.907  0.5478  0.5447  0.5281
  831MOL0     C14580   7.129   3.388  11.987  0.5361  0.3044 -0.0590
  831MOL0     C14581   7.233   3.504  11.965 -0.5350  0.2354  0.5845
  831MOL0     C14582   7.351   3.497  12.060 -1.1053 -0.0745 -0.3089
  831MOL0     C14583   7.433   3.627  12.050  0.1515 -0.0402 -0.2459
  831MOL0     C14584   7.468   3.662  11.902 -0.4276 -0.4981  1.1536
  831MOL0    Cl14585   7.594   3.779  11.881  0.0078  0.0626  0.3417
  831MOL0     C14586   6.586   3.308  11.607 -0.8101 -0.0756  0.4156
  831MOL0     C14587   6.444   3.297  11.595  0.0210  0.3839  0.2627
  831MOL0     O14588   6.200   3.436  11.696 -0.1847  0.3280 -0.1179
  831MOL0     C14589   5.958   3.188  11.689 -0.1151  0.2670 -0.0762
  831MOL0     C14590   5.821   3.169  11.676  0.1870 -0.0736 -0.1529
  831MOL0     N14591   5.020   3.261  11.623 -0.1242 -0.0492  0.5968
  831MOL0     N14592   4.907   3.277  11.573  0.1837 -0.6800  0.2912
  831MOL0     C14593   3.606   3.230  11.083 -0.1526 -0.4187 -0.6458
  831MOL0     C14594   3.490   3.313  11.074 -0.0535 -0.8045  0.1924
  831MOL0     C14595   3.190   3.631  11.217  0.5298  0.0984 -0.3934
  831MOL0     C14596   3.214   3.750  11.149  0.4816 -0.2286  0.5370
  831MOL0     C14597   3.105   3.830  11.116  0.0711 -0.1561  0.2838
  831MOL0     C14598   2.980   3.804  11.177 -0.2092  0.5476 -0.4148
  831MOL0     O14599   2.876   3.887  11.171  0.2636  0.2645 -0.5068
  831MOL0     C14600   2.861   3.947  11.037  0.2860 -0.5370 -0.9744
  831MOL0     C14601   2.714   3.928  10.998 -0.2311  0.0151  0.4552
  831MOL0     C14602   2.601   4.018  11.056 -0.0909 -0.5275 -0.3100
  831MOL0     C14603   2.466   3.952  11.017  0.6053 -0.4116  0.2706
  831MOL0     C14604   2.351   3.992  11.102 -0.0503 -0.3226 -0.2415
  831MOL0     C14605   2.250   4.025  11.175 -1.0756 -0.4968  0.5447
  831MOL0     C14606   2.959   3.687  11.263  0.2256 -0.7400 -0.5143
  831MOL0     C14607   3.071   3.607  11.284  0.0658  0.6384 -0.3972
  831MOL0     C14608   3.041   3.490  11.377  0.8243 -0.3330  0.5658
  831MOL0     H14609   3.583   3.592  11.224 -1.3252 -1.4415  2.3077
  831MOL0     H14610   3.801   3.466  11.240  1.3157  2.5410 -1.7598
  831MOL0     H14611   3.984   3.357  11.162  2.1071 -0.5800 -2.0236
  831MOL0     H14612   4.023   3.197  11.108  2.1818  0.4054  0.6561
  831MOL0     H14613   3.928   3.248  11.390 -0.3529 -2.7971  1.3108
  831MOL0     H14614   4.038   3.116  11.319 -1.7454 -1.0245  0.7469
  831MOL0     H14615   4.106   3.407  11.354  2.1244  0.3020  2.4894
  831MOL0     H14616   4.137   3.289  11.475  0.1249  3.8741 -0.0250
  831MOL0     H14617   4.274   3.151  11.300 -1.4239  0.0550 -2.5530
  831MOL0     H14618   4.261   3.279  11.187 -0.2318 -0.5317  0.3698
  831MOL0     H14619   4.368   3.352  11.457 -2.9676 -1.1604 -0.5689
  831MOL0     H14620   4.392   3.419  11.295 -1.7291  1.5082  1.7615
  831MOL0     H14621   4.490   3.145  11.356  2.3846 -1.8732 -0.7424
  831MOL0     H14622   4.535   3.249  11.217  0.2399 -0.2346 -0.2862
  831MOL0     H14623   4.627   3.321  11.504 -0.5103 -0.6577 -0.0210
  831MOL0     H14624   4.704   3.376  11.363 -0.4863  0.8241  1.7175
  831MOL0     H14625   4.723   3.101  11.484 -1.2687  1.8481  0.6386
  831MOL0     H14626   4.773   3.133  11.304  0.4844 -1.7171  1.1344
  831MOL0     H14627   5.016   3.057  11.360  3.0245  0.5894  0.3217
  831MOL0     H14628   5.271   3.112  11.469 -0.2079  2.2144  0.4481
  831MOL0     H14629   5.213   2.980  11.560 -3.0677 -0.7847 -0.0640
  831MOL0     H14630   5.323   3.258  11.672  0.8562  0.2132 -1.0741
  831MOL0     H14631   5.254   3.128  11.770 -0.2416 -2.4788 -1.0204
  831MOL0     H14632   5.493   3.060  11.761  5.5402 -0.3223 -3.1906
  831MOL0     H14633   5.434   2.976  11.632 -1.2653  0.3391  0.2393
  831MOL0     H14634   5.623   3.074  11.552 -0.9665 -1.5128  1.3142
  831MOL0     H14635   5.494   3.154  11.470  2.1135  0.3616 -1.0573
  831MOL0     H14636   5.729   3.455  11.516 -0.7644  0.2031  0.9658
  831MOL0     H14637   6.070   3.582  11.563  0.8360 -2.6003 -1.3108
  831MOL0     H14638   5.894   3.621  11.557  0.6202  1.1069 -0.7860
  831MOL0     H14639   5.977   3.555  11.421  1.2766 -2.4415 -0.2224
  831MOL0     H14640   6.395   3.098  11.856 -1.0487  0.8252 -0.9178
  831MOL0     H14641   6.631   3.147  11.896  2.2472  1.7730 -1.1002
  831MOL0     H14642   6.864   3.366  11.580 -1.9151  2.4000 -0.5982
  831MOL0     H14643   6.804   3.482  11.701  0.6198 -0.6757  0.0469
  831MOL0     H14644   7.030   3.278  11.735 -2.0608 -0.3689  0.9196
  831MOL0     H14645   7.071   3.446  11.710  0.2847  0.2905  1.2194
  831MOL0     H14646   6.932   3.337  11.959  0.9443  0.0097  0.3498
  831MOL0     H14647   6.951   3.504  11.915 -0.0882  0.3684 -0.8190
  831MOL0     H14648   7.172   3.290  11.966 -1.7709 -0.9637  0.7877
  831MOL0     H14649   7.103   3.382  12.093  1.7097 -1.7419  0.1519
  831MOL0     H14650   7.261   3.481  11.861 -2.7942  0.2526 -0.0831
  831MOL0     H14651   7.195   3.607  11.961  3.2544  1.7587 -1.4105
  831MOL0     H14652   7.417   3.414  12.032  1.1650  1.5539  0.0159
  831MOL0     H14653   7.311   3.496  12.162 -3.9288 -3.3879 -1.2234
  831MOL0     H14654   7.525   3.615  12.108 -0.3837  0.3337  0.7121
  831MOL0     H14655   7.373   3.706  12.096 -0.8924 -1.4061  0.8278
  831MOL0     H14656   7.381   3.712  11.858  1.5721  0.1109 -2.4316
  831MOL0     H14657   7.481   3.569  11.845  1.7416  1.6809 -2.2137
  831MOL0     H14658   6.637   3.360  11.526  2.1622  0.7238  2.6146
  831MOL0     H14659   6.397   3.329  11.503  3.1293 -1.8742 -2.3579
  831MOL0     H14660   6.019   3.114  11.741 -1.7490 -0.6805  0.5967
  831MOL0     H14661   5.785   3.073  11.713 -2.3629 -0.4473 -3.0922
  831MOL0     H14662   3.598   3.128  11.045  0.3978 -1.1266  1.0446
  831MOL0     H14663   3.403   3.260  11.036 -0.3659  0.0408 -0.2855
  831MOL0     H14664   3.313   3.771  11.110 -0.0510 -0.3595 -0.9392
  831MOL0     H14665   3.119   3.920  11.056 -0.9633  0.1689  0.5233
  831MOL0     H14666   2.874   4.055  11.051 -1.9979  0.0905 -2.9899
  831MOL0     H14667   2.935   3.915  10.963  1.8941 -0.9758  0.7398
  831MOL0     H14668   2.694   3.822  11.013  1.0670 -0.4730 -1.0224
  831MOL0     H14669   2.714   3.925  10.889  1.4572 -0.3516  0.4415
  831MOL0     H14670   2.600   4.004  11.164  0.1301 -1.0405 -0.3721
  831MOL0     H14671   2.615   4.125  11.038 -1.6969 -0.2477 -0.0214
  831MOL0     H14672   2.465   3.843  11.029 -2.5074 -1.0439 -3.6793
  831MOL0     H14673   2.453   3.969  10.909 -0.7699  2.1024  0.7586
  831MOL0     H14674   2.172   4.052  11.243 -2.1807  2.6847 -1.7253
  831MOL0     H14675   2.862   3.669  11.307  0.4960 -0.3790  0.2388
  831MOL0     H14676   3.041   3.529  11.480  1.7247 -0.0073  0.4514
  831MOL0     H14677   2.945   3.446  11.350  0.5348  0.2364  0.6435
  831MOL0     H14678   3.110   3.406  11.364  0.4193 -1.4809  4.5012
  832MOL0     O14679   8.697  11.205   7.279 -0.1617 -0.3365  0.4740
  832MOL0     C14680   8.637  11.199   7.383 -0.4706 -0.1667 -0.3316
  832MOL0     O14681   8.692  11.152   7.506  0.0409  0.3197 -0.0433
  832MOL0     C14682   8.826  11.115   7.513  0.2931 -0.2197 -0.3036
  832MOL0     C14683   8.920  11.175   7.591 -0.3983  0.1392 -0.8577
  832MOL0     C14684   9.049  11.131   7.590 -0.0043 -0.8040 -0.4582
  832MOL0     C14685   9.084  11.017   7.517  0.5100  0.1874 -0.2562
  832MOL0     O14686   9.206  10.946   7.529  0.2568 -0.6546 -0.2907
  832MOL0     C14687   9.245  10.830   7.456 -1.1966  0.6927  0.0902
  832MOL0     C14688   9.396  10.812   7.498 -0.0622 -0.7791 -0.3882
  832MOL0     C14689   9.460  10.708   7.410  0.4582 -0.5528  0.3189
  832MOL0     C14690   9.599  10.675   7.456  0.0078  0.0855 -0.5091
  832MOL0     C14691   9.666  10.551   7.398 -0.7728 -0.6660 -0.5696
  832MOL0     C14692   9.726  10.588   7.261 -0.4174  0.7807 -0.7300
  832MOL0     C14693   9.775  10.468   7.182  0.8618 -0.4208 -0.4699
  832MOL0     C14694   9.818  10.492   7.032  0.0051 -0.2845 -1.1445
  832MOL0     N14695   9.874  10.380   6.959 -0.7890 -0.6238 -0.4358
  832MOL0     C14696  10.000  10.332   6.986 -0.1981 -1.1879  0.6760
  832MOL0     C14697  10.000  10.197   6.959  0.5296 -0.7186  1.2233
  832MOL0     C14698  10.119  10.106   6.949  0.3017 -0.4355 -0.1651
  832MOL0     C14699  10.246  10.167   6.886  0.4248 -0.8087  0.3818
  832MOL0     C14700  10.346  10.056   6.877 -0.0776  0.0580 -0.1838
  832MOL0     C14701  10.459  10.108   6.777  0.3236 -0.4937 -0.3365
  832MOL0     O14702  10.416  10.151   6.644  0.3157  0.6842  0.1042
  832MOL0     C14703  10.511  10.201   6.563  1.0220  0.6095  0.0890
  832MOL0     C14704  10.471  10.282   6.459  0.1262 -0.3055  0.6412
  832MOL0     C14705  10.558  10.324   6.356  0.0397  0.0474 -0.5611
  832MOL0     C14706  10.498  10.421   6.256  0.2322  0.3691  0.6731
  832MOL0     C14707  10.694  10.278   6.349 -0.3600  0.1924  0.2957
  832MOL0     C14708  10.793  10.313   6.242 -0.1140  0.2680  0.1212
  832MOL0     O14709  10.907  10.241   6.265 -0.0569 -0.6758  0.6469
  832MOL0     C14710  11.017  10.269   6.192  0.3276  1.3366  0.1549
  832MOL0     C14711  11.110  10.350   6.246  0.0103  0.2379 -0.5822
  832MOL0     C14712  11.224  10.385   6.171 -0.5859 -0.2355  0.5737
  832MOL0     C14713  11.260  10.324   6.047 -0.0866 -0.0129  0.8473
  832MOL0     O14714  11.370  10.347   5.982 -0.9906  0.3152  0.3488
  832MOL0     C14715  11.499  10.321   6.048 -0.4583 -0.6041  0.7424
  832MOL0     C14716  11.610  10.326   5.935  0.5417  0.2745 -0.3268
  832MOL0     C14717  11.724  10.252   5.995  0.4519 -1.1047 -0.2770
  832MOL0     C14718  11.844  10.281   5.906  0.3034  0.1894 -0.5827
  832MOL0     C14719  11.971  10.223   5.971  0.5105  0.6204  0.2693
  832MOL0     C14720  12.078  10.178   5.857 -0.0255 -0.6040 -0.1093
  832MOL0     C14721  12.201  10.120   5.932  1.0396 -0.3031 -1.0398
  832MOL0     C14722  12.316  10.089   5.837 -0.6645  0.1776  0.6317
  832MOL0    Cl14723  12.258   9.978   5.704  0.1006  0.1693  0.4337
  832MOL0     C14724  11.166  10.232   5.995  0.5516  0.6209 -0.3117
  832MOL0     C14725  11.042  10.214   6.064 -1.2272  0.5564 -0.2824
  832MOL0     O14726  10.777  10.399   6.150  0.1922 -0.5341 -0.3630
  832MOL0     C14727  10.722  10.179   6.445  0.4427  0.5957  0.5650
  832MOL0     C14728  10.642  10.147   6.561 -0.4264  0.4160 -0.2633
  832MOL0     N14729   9.881  10.178   6.903  0.3873  0.6806 -0.6722
  832MOL0     N14730   9.807  10.279   6.913  0.3104  0.0042  1.0749
  832MOL0     C14731   8.991  10.960   7.432  0.2278  0.3864 -0.6876
  832MOL0     C14732   8.863  11.009   7.430  0.6005  0.4150  0.0451
  832MOL0     C14733   8.495  11.224   7.375  0.7634  0.3542 -0.4134
  832MOL0     C14734   8.403  11.152   7.455 -0.3019 -0.2266 -0.1383
  832MOL0     C14735   8.273  11.185   7.453 -0.2361  0.0420  0.3671
  832MOL0     C14736   8.219  11.284   7.366  0.1731  0.0527  0.3499
  832MOL0     O14737   8.085  11.315   7.367 -0.4883  0.6698  0.0616
  832MOL0     C14738   8.022  11.408   7.274 -0.8782 -0.0960 -0.2557
  832MOL0     C14739   7.878  11.399   7.311 -0.1895  0.5894 -0.5633
  832MOL0     C14740   7.840  11.471   7.442 -0.2785 -0.2028  0.5424
  832MOL0     C14741   7.714  11.403   7.484  0.0908  0.1190 -0.8191
  832MOL0     C14742   7.642  11.463   7.595 -0.4919  0.0519 -0.5332
  832MOL0     C14743   7.587  11.506   7.698 -0.2832  0.3465  0.2719
  832MOL0     C14744   8.305  11.348   7.284 -0.3257  0.5507 -0.1676
  832MOL0     C14745   8.439  11.335   7.294 -0.4956  0.2663 -0.3828
  832MOL0     C14746   8.524  11.425   7.203  0.7037  0.1340  0.0669
  832MOL0     H14747   8.893  11.254   7.660 -1.7240  0.7400 -2.0231
  832MOL0     H14748   9.124  11.178   7.653 -1.8778 -0.0621  1.3541
  832MOL0     H14749   9.238  10.845   7.347 -1.0454  0.2055  0.0123
  832MOL0     H14750   9.186  10.743   7.483 -1.7871  1.3890  1.1238
  832MOL0     H14751   9.462  10.899   7.504  0.8584 -1.5524  1.7194
  832MOL0     H14752   9.387  10.783   7.603  0.8499  2.2719  0.6445
  832MOL0     H14753   9.391  10.623   7.408 -0.6238  0.1506  3.0951
  832MOL0     H14754   9.450  10.734   7.304 -4.6175  0.9728  0.9043
  832MOL0     H14755   9.658  10.766   7.443 -1.3438  0.9744 -0.5761
  832MOL0     H14756   9.593  10.653   7.563 -1.0213  2.2008 -0.0833
  832MOL0     H14757   9.588  10.476   7.383 -1.3756  0.2297 -2.2139
  832MOL0     H14758   9.736  10.513   7.472  0.4354  2.9493  0.3687
  832MOL0     H14759   9.644  10.639   7.210  0.1846  3.0636  0.4449
  832MOL0     H14760   9.810  10.657   7.273  0.9314 -0.7277 -1.1950
  832MOL0     H14761   9.682  10.410   7.191 -1.7530  3.4793 -0.1057
  832MOL0     H14762   9.860  10.420   7.232 -0.0969 -1.0603  0.6033
  832MOL0     H14763   9.728  10.523   6.979  0.3678  1.0972 -0.9996
  832MOL0     H14764   9.883  10.580   7.030 -0.8445  0.3439 -1.8390
  832MOL0     H14765  10.084  10.387   7.027 -0.5035 -0.1990  0.0295
  832MOL0     H14766  10.083  10.021   6.891 -0.6975 -1.0393  1.2849
  832MOL0     H14767  10.151  10.069   7.047 -1.5329  2.1162  1.5456
  832MOL0     H14768  10.216  10.206   6.789  1.6120  0.1978  0.3992
  832MOL0     H14769  10.286  10.255   6.936 -3.3395  2.8152 -2.2755
  832MOL0     H14770  10.392  10.035   6.974  2.3813 -1.7353 -1.6009
  832MOL0     H14771  10.298   9.972   6.827  1.4493 -0.4418 -0.8853
  832MOL0     H14772  10.510  10.195   6.818  0.7056 -0.3437 -1.1230
  832MOL0     H14773  10.536  10.031   6.768  4.2603  2.9645  0.6371
  832MOL0     H14774  10.371  10.322   6.448  0.4585 -0.2434 -3.8821
  832MOL0     H14775  10.489  10.375   6.157  1.1411 -1.3652  1.3521
  832MOL0     H14776  10.542  10.519   6.237  1.8285 -0.0491  1.9011
  832MOL0     H14777  10.400  10.455   6.288 -0.3570  1.8016 -2.3340
  832MOL0     H14778  11.061  10.397   6.331  0.0641  1.2221 -1.0775
  832MOL0     H14779  11.295  10.455   6.214  0.3216 -2.4315  2.9136
  832MOL0     H14780  11.514  10.402   6.120 -1.2179 -0.3884  0.6634
  832MOL0     H14781  11.492  10.230   6.108 -0.2592 -0.3685  1.1277
  832MOL0     H14782  11.570  10.273   5.847  0.5452 -0.2512 -0.0161
  832MOL0     H14783  11.628  10.428   5.900  0.3241  0.6201  0.5482
  832MOL0     H14784  11.697  10.146   5.999  0.0447 -0.9725  0.7238
  832MOL0     H14785  11.742  10.290   6.096  0.9375 -0.4115 -0.6081
  832MOL0     H14786  11.865  10.382   5.868  2.0658 -0.2211 -0.7936
  832MOL0     H14787  11.814  10.224   5.817 -4.5981 -1.1012  1.5944
  832MOL0     H14788  12.020  10.304   6.025 -0.2249  2.6838 -1.9864
  832MOL0     H14789  11.946  10.130   6.024 -0.3229 -0.8466 -2.4904
  832MOL0     H14790  12.105  10.271   5.807  2.1436 -1.0957  0.0435
  832MOL0     H14791  12.036  10.110   5.781  2.2204  0.4862 -2.4695
  832MOL0     H14792  12.178  10.024   5.981 -0.0610  0.9776  1.1429
  832MOL0     H14793  12.231  10.196   6.005 -2.5833  0.9621 -0.6323
  832MOL0     H14794  12.399  10.059   5.901 -1.7137  3.0129  3.6497
  832MOL0     H14795  12.349  10.180   5.785  0.9260 -0.5253  0.3648
  832MOL0     H14796  11.187  10.179   5.903  1.2437 -0.0249  0.2056
  832MOL0     H14797  10.966  10.150   6.022 -0.6965  0.4960 -1.1835
  832MOL0     H14798  10.817  10.128   6.440  1.3251  2.2164  0.1896
  832MOL0     H14799  10.666  10.062   6.624 -1.0137 -1.4528 -2.4199
  832MOL0     H14800   9.011  10.880   7.362 -0.0151 -0.4217  0.1459
  832MOL0     H14801   8.793  10.956   7.366  1.8281  0.7568 -1.6677
  832MOL0     H14802   8.435  11.072   7.521 -0.8216 -1.4223 -1.2817
  832MOL0     H14803   8.203  11.135   7.519 -2.1895  1.6324 -0.3731
  832MOL0     H14804   8.052  11.512   7.287  1.0106 -0.7082  0.6548
  832MOL0     H14805   8.026  11.385   7.168 -0.9668  2.0797 -0.7768
  832MOL0     H14806   7.848  11.294   7.309  0.6938  0.2928  0.4132
  832MOL0     H14807   7.830  11.457   7.232 -0.6932  0.2604 -0.5062
  832MOL0     H14808   7.917  11.465   7.519  0.0568 -1.6678  0.1379
  832MOL0     H14809   7.829  11.577   7.421 -1.1028 -0.3643  0.1237
  832MOL0     H14810   7.742  11.303   7.516  1.0028 -0.7529 -3.9749
  832MOL0     H14811   7.645  11.396   7.399  0.6990 -0.8857 -1.2482
  832MOL0     H14812   7.549  11.550   7.788 -0.2574 -0.5537  0.7346
  832MOL0     H14813   8.278  11.425   7.212  2.0372  1.1903 -0.4657
  832MOL0     H14814   8.574  11.366   7.126 -0.4552  2.0973 -2.3386
  832MOL0     H14815   8.465  11.502   7.152  1.7454  0.6633 -0.3814
  832MOL0     H14816   8.595  11.460   7.279  1.5353 -3.3792  1.0955
  833MOL0     O14817   1.247   4.173   6.319  0.2386 -1.1438  1.2118
  833MOL0     C14818   1.171   4.087   6.367 -0.3757 -0.0066  0.1599
  833MOL0     O14819   1.213   3.994   6.451  0.1129  0.8963 -0.4656
  833MOL0     C14820   1.348   3.970   6.465  0.0667  0.3003  0.4608
  833MOL0     C14821   1.400   3.844   6.444  0.1725 -0.5370  0.2393
  833MOL0     C14822   1.533   3.815   6.459 -1.1276  0.1238 -0.5298
  833MOL0     C14823   1.631   3.911   6.493 -0.5348  0.0264  0.8030
  833MOL0     O14824   1.762   3.884   6.516 -0.6830 -0.5102 -0.6398
  833MOL0     C14825   1.844   3.804   6.429 -0.1003 -0.4180  0.1254
  833MOL0     C14826   1.976   3.809   6.513 -0.5102  0.3042  0.2537
  833MOL0     C14827   2.080   3.709   6.470 -0.7140 -0.4356 -0.1191
  833MOL0     C14828   2.185   3.704   6.578 -0.5325  0.1129  0.2651
  833MOL0     C14829   2.265   3.565   6.558 -0.5455 -0.5114 -0.1936
  833MOL0     C14830   2.345   3.517   6.685  0.7669  0.2369 -0.8828
  833MOL0     C14831   2.370   3.365   6.687 -0.2775 -0.2240 -0.1909
  833MOL0     C14832   2.232   3.285   6.675 -0.9045  0.2380  0.4620
  833MOL0     N14833   2.243   3.156   6.747  1.1330  0.3552 -0.4898
  833MOL0     C14834   2.165   3.112   6.847 -0.1350  0.2080  0.2601
  833MOL0     C14835   2.208   2.983   6.872  0.8086  0.4302 -0.9239
  833MOL0     C14836   2.177   2.884   6.986  0.1389  0.2843 -0.1490
  833MOL0     C14837   2.029   2.893   7.024  0.3701  0.2412 -0.9445
  833MOL0     C14838   2.000   2.814   7.159  0.2135  1.1075  0.9363
  833MOL0     C14839   1.859   2.742   7.149 -0.4279  0.1443  0.9151
  833MOL0     O14840   1.854   2.637   7.252 -0.4564 -0.0220  0.2744
  833MOL0     C14841   1.748   2.551   7.259  0.5001 -0.2936  0.1810
  833MOL0     C14842   1.749   2.450   7.355  1.0459 -0.1254 -0.5634
  833MOL0     C14843   1.637   2.367   7.379  0.0783 -0.1589 -0.6239
  833MOL0     C14844   1.645   2.265   7.488 -0.1275  0.4132  0.0860
  833MOL0     C14845   1.523   2.390   7.301 -0.1859 -0.3107  0.2957
  833MOL0     C14846   1.387   2.329   7.316  0.8402 -1.0924  0.1113
  833MOL0     O14847   1.310   2.302   7.205  0.3216  0.5633  0.0811
  833MOL0     C14848   1.176   2.300   7.204 -0.7627  1.5789 -0.0676
  833MOL0     C14849   1.113   2.251   7.093  0.7504  0.4979  0.0685
  833MOL0     C14850   0.978   2.244   7.085  0.5523 -0.0482  0.3480
  833MOL0     C14851   0.894   2.285   7.184  1.0482  0.4152  0.4575
  833MOL0     O14852   0.761   2.277   7.155  0.1444 -0.4116 -1.0616
  833MOL0     C14853   0.669   2.347   7.243  0.0436 -0.2159  0.7665
  833MOL0     C14854   0.523   2.306   7.215 -0.5048 -0.1249  0.5323
  833MOL0     C14855   0.479   2.295   7.072  0.1048 -0.1632  0.4518
  833MOL0     C14856   0.326   2.254   7.061 -0.2856 -0.8148 -1.1439
  833MOL0     C14857   0.304   2.195   6.930 -0.2065 -0.3292  0.3246
  833MOL0     C14858   0.153   2.145   6.929 -0.2023 -0.3290 -0.3486
  833MOL0     C14859   0.120   2.066   6.798 -0.2794  0.1184 -0.2357
  833MOL0     C14860  -0.015   2.005   6.813  0.4215  0.1631 -0.8716
  833MOL0    Cl14861  -0.055   1.901   6.675 -0.0847  0.3091 -0.0526
  833MOL0     C14862   0.953   2.346   7.287 -0.0027 -0.1875 -0.4874
  833MOL0     C14863   1.091   2.353   7.297  0.5014 -0.2377 -0.8297
  833MOL0     O14864   1.345   2.320   7.429 -0.4949 -0.2525 -0.4464
  833MOL0     C14865   1.521   2.487   7.197 -0.9136 -0.3553  0.2056
  833MOL0     C14866   1.633   2.563   7.176  0.5599  0.2733 -0.3447
  833MOL0     N14867   2.294   2.949   6.779 -0.1291  0.3650 -0.3508
  833MOL0     N14868   2.316   3.050   6.705  0.6500 -0.4515  0.0919
  833MOL0     C14869   1.582   4.043   6.521 -0.1185  0.1640 -0.7370
  833MOL0     C14870   1.440   4.064   6.521  0.0036 -0.6737  0.7128
  833MOL0     C14871   1.028   4.098   6.350  0.2476 -0.2998 -0.4665
  833MOL0     C14872   0.973   4.226   6.341  0.0927  0.5775 -0.6900
  833MOL0     C14873   0.834   4.242   6.313 -0.0857 -0.6715  0.1849
  833MOL0     C14874   0.750   4.138   6.288  0.2578 -0.2408  0.0701
  833MOL0     O14875   0.621   4.145   6.242  0.1025 -0.2940 -0.1396
  833MOL0     C14876   0.568   4.275   6.202  0.1482  0.8165  0.2702
  833MOL0     C14877   0.423   4.248   6.190 -0.1811  0.2350 -0.0480
  833MOL0     C14878   0.341   4.375   6.167  0.7926 -1.5016  0.3418
  833MOL0     C14879   0.367   4.453   6.035  0.1501  0.0110 -0.2261
  833MOL0     C14880   0.318   4.381   5.918  0.4770 -0.0741  0.6261
  833MOL0     C14881   0.281   4.340   5.811 -0.2951  0.4596 -0.5075
  833MOL0     C14882   0.806   4.009   6.310  0.2628  0.9995 -0.1553
  833MOL0     C14883   0.940   3.986   6.333  0.4928 -0.3515  0.1929
  833MOL0     C14884   0.980   3.841   6.321 -0.4696 -0.3930 -0.5760
  833MOL0     H14885   1.319   3.776   6.417 -0.1537 -0.3906  0.8212
  833MOL0     H14886   1.570   3.714   6.450  1.5022  0.7010  2.4126
  833MOL0     H14887   1.856   3.859   6.335 -1.1553 -1.3684 -0.5979
  833MOL0     H14888   1.803   3.703   6.418 -0.0947 -0.2797 -1.4712
  833MOL0     H14889   2.019   3.910   6.514  4.1106 -1.4122 -1.2857
  833MOL0     H14890   1.951   3.795   6.618  0.5570  2.5381  0.8731
  833MOL0     H14891   2.020   3.618   6.466 -0.5267 -0.8146  3.0306
  833MOL0     H14892   2.115   3.736   6.370 -1.2494  2.6621  0.4263
  833MOL0     H14893   2.258   3.785   6.569 -0.1494 -0.1504  0.9359
  833MOL0     H14894   2.143   3.723   6.677  0.7934  1.2409  0.6512
  833MOL0     H14895   2.332   3.566   6.471  1.6648 -1.4763  1.4054
  833MOL0     H14896   2.184   3.493   6.547 -0.0801 -0.7710 -2.6552
  833MOL0     H14897   2.439   3.573   6.688 -0.7812  3.0493 -0.9488
  833MOL0     H14898   2.288   3.536   6.776  0.2424  0.7752 -1.3071
  833MOL0     H14899   2.417   3.344   6.783  1.6858  0.4643 -0.9307
  833MOL0     H14900   2.445   3.341   6.610  1.0749  1.2225  0.6068
  833MOL0     H14901   2.143   3.334   6.717 -2.2089  0.1076 -1.9515
  833MOL0     H14902   2.219   3.268   6.567  1.0845  0.7611  0.0926
  833MOL0     H14903   2.099   3.155   6.921 -2.0405 -2.9046  0.5710
  833MOL0     H14904   2.248   2.906   7.066 -0.6660  4.2195 -0.3209
  833MOL0     H14905   2.195   2.784   6.945 -1.9130  0.1867 -0.9257
  833MOL0     H14906   2.004   2.998   7.044  0.5592 -0.0652  1.1235
  833MOL0     H14907   1.965   2.852   6.945  0.5999 -0.4408 -0.7837
  833MOL0     H14908   2.082   2.745   7.182  0.2429 -0.4675 -3.0585
  833MOL0     H14909   1.985   2.882   7.243  0.0134 -1.8880  3.5392
  833MOL0     H14910   1.779   2.816   7.164 -2.9004 -1.3658 -3.2511
  833MOL0     H14911   1.838   2.696   7.052 -0.8074  1.6078  0.2706
  833MOL0     H14912   1.833   2.435   7.423 -0.7042 -0.6295  1.5882
  833MOL0     H14913   1.740   2.271   7.541 -2.1581 -0.6390  4.2000
  833MOL0     H14914   1.648   2.166   7.441  1.0378 -0.4905  1.9579
  833MOL0     H14915   1.561   2.271   7.558 -3.1855 -1.6119 -3.0328
  833MOL0     H14916   1.187   2.225   7.017  1.6076 -0.5304  1.2192
  833MOL0     H14917   0.927   2.199   7.001 -1.9887  0.1244  1.7016
  833MOL0     H14918   0.694   2.319   7.346  1.8904 -0.3516  0.3241
  833MOL0     H14919   0.685   2.454   7.225 -1.9629 -0.3380 -2.7553
  833MOL0     H14920   0.508   2.214   7.272 -0.6915  0.3812  1.3150
  833MOL0     H14921   0.464   2.389   7.254  0.7527  0.4867  1.1870
  833MOL0     H14922   0.547   2.231   7.016 -1.1247  0.0536 -1.4065
  833MOL0     H14923   0.497   2.398   7.039  0.6139 -0.6685 -0.8941
  833MOL0     H14924   0.267   2.343   7.085 -0.0493 -1.2919  1.4960
  833MOL0     H14925   0.307   2.188   7.146  1.4995 -0.8588 -0.7433
  833MOL0     H14926   0.331   2.262   6.847  2.6641 -0.3935  1.1071
  833MOL0     H14927   0.381   2.119   6.913  0.7485  0.4228  1.1470
  833MOL0     H14928   0.085   2.231   6.920 -1.7174 -1.5713 -1.3540
  833MOL0     H14929   0.140   2.091   7.024  2.9243  0.0012  0.3821
  833MOL0     H14930   0.198   1.989   6.795 -1.2063 -0.9911  1.8382
  833MOL0     H14931   0.117   2.130   6.710 -4.5054  1.6696  0.8163
  833MOL0     H14932  -0.090   2.085   6.807  0.3346 -0.0035 -2.4341
  833MOL0     H14933  -0.027   1.957   6.910  2.1086  0.8535 -0.2884
  833MOL0     H14934   0.894   2.393   7.365 -1.9301 -1.6154 -1.0141
  833MOL0     H14935   1.119   2.391   7.395 -0.9535  0.3741 -0.6209
  833MOL0     H14936   1.433   2.501   7.135 -1.3197 -2.8387  0.1407
  833MOL0     H14937   1.627   2.645   7.106 -0.6017 -0.1549 -0.7649
  833MOL0     H14938   1.651   4.114   6.566 -1.4489 -0.6530  2.9603
  833MOL0     H14939   1.405   4.162   6.549 -2.4970 -2.2183  3.6462
  833MOL0     H14940   1.032   4.315   6.362 -1.7028  1.7124 -0.3087
  833MOL0     H14941   0.794   4.343   6.306 -0.7897 -1.0502 -2.4840
  833MOL0     H14942   0.587   4.355   6.274 -1.8322  1.8664 -0.3012
  833MOL0     H14943   0.604   4.294   6.101  0.4274 -1.1144 -0.0204
  833MOL0     H14944   0.382   4.197   6.277  1.1553  0.2694  0.6196
  833MOL0     H14945   0.415   4.184   6.102  0.9522 -1.5673  1.1151
  833MOL0     H14946   0.238   4.342   6.180  1.0180 -2.2418  0.2486
  833MOL0     H14947   0.351   4.457   6.239  1.5054  0.8446 -2.2482
  833MOL0     H14948   0.471   4.481   6.017  0.1879  0.3867  0.5566
  833MOL0     H14949   0.305   4.543   6.028 -0.6291 -0.2491  2.3584
  833MOL0     H14950   0.249   4.290   5.722 -0.7051  1.0099 -0.6811
  833MOL0     H14951   0.739   3.923   6.307 -0.4456  1.2920  3.1236
  833MOL0     H14952   1.019   3.806   6.225 -2.1684 -3.3204 -0.3329
  833MOL0     H14953   1.050   3.820   6.403 -2.2367 -0.1219  1.0984
  833MOL0     H14954   0.892   3.777   6.339 -0.5499  0.0946  0.9846
  834MOL0     O14955   7.778   8.320  11.175  0.1652 -0.0817  0.6557
  834MOL0     C14956   7.761   8.443  11.198 -0.6054 -0.0440 -0.3385
  834MOL0     O14957   7.838   8.539  11.156 -0.4213  0.3252 -0.2918
  834MOL0     C14958   7.953   8.522  11.084 -0.0797  0.4380 -0.0403
  834MOL0     C14959   7.984   8.414  10.995 -0.4265 -0.9471 -0.1894
  834MOL0     C14960   8.103   8.398  10.934 -0.5430 -0.4155  0.3975
  834MOL0     C14961   8.199   8.496  10.950 -0.1346 -0.2931  0.1035
  834MOL0     O14962   8.314   8.491  10.880  0.0008 -0.4836 -0.0034
  834MOL0     C14963   8.434   8.546  10.931  0.6278 -0.3560  0.2620
  834MOL0     C14964   8.546   8.527  10.830 -0.2132  0.3144 -0.5383
  834MOL0     C14965   8.556   8.643  10.735 -0.8125 -0.2365  0.4358
  834MOL0     C14966   8.677   8.636  10.647  0.4453  0.2135  0.2373
  834MOL0     C14967   8.689   8.754  10.552  0.0791  0.6760  0.0990
  834MOL0     C14968   8.840   8.788  10.532 -0.2857  0.3704  0.4703
  834MOL0     C14969   8.863   8.867  10.408 -0.3215  0.4064  1.0066
  834MOL0     C14970   8.814   9.002  10.410  0.6346  0.1276  0.7287
  834MOL0     N14971   8.909   9.089  10.487 -0.3507  1.0050  0.2293
  834MOL0     C14972   9.038   9.116  10.438 -0.2141 -0.0928  0.3166
  834MOL0     C14973   9.094   9.212  10.518 -0.7268 -0.1701  0.3218
  834MOL0     C14974   9.242   9.259  10.512  0.8154  0.1356 -0.0960
  834MOL0     C14975   9.294   9.377  10.600  0.3446 -0.7071  0.2169
  834MOL0     C14976   9.435   9.409  10.567 -0.0174 -0.5481  0.8209
  834MOL0     C14977   9.519   9.474  10.682 -0.0520  1.2805 -0.1032
  834MOL0     O14978   9.519   9.614  10.657  0.8073 -0.5081  0.8414
  834MOL0     C14979   9.602   9.697  10.728 -0.3660 -0.5926 -0.7811
  834MOL0     C14980   9.719   9.656  10.805  0.6885 -0.7465  0.1111
  834MOL0     C14981   9.794   9.757  10.866  0.1556  0.2493 -0.3386
  834MOL0     C14982   9.922   9.709  10.939 -1.1873  0.2138 -0.2397
  834MOL0     C14983   9.756   9.892  10.859 -0.6100  0.2482  0.1576
  834MOL0     C14984   9.839  10.005  10.910 -0.0063 -0.5809 -0.2817
  834MOL0     O14985   9.810  10.132  10.850 -0.0640  0.3568 -0.8817
  834MOL0     C14986   9.882  10.238  10.900 -0.2757 -0.1113  0.2478
  834MOL0     C14987   9.870  10.277  11.032 -0.3382 -0.3088  0.4792
  834MOL0     C14988   9.939  10.389  11.069 -0.8595  0.0952  0.0165
  834MOL0     C14989  10.021  10.469  10.984 -0.7461 -0.3599 -0.2828
  834MOL0     O14990  10.093  10.590  11.021  0.2144 -0.4824 -0.0583
  834MOL0     C14991  10.046  10.664  11.137  0.0926 -0.2220 -0.3834
  834MOL0     C14992  10.139  10.793  11.150  0.0638 -0.0889  0.3155
  834MOL0     C14993  10.091  10.916  11.082  1.4016  0.2771  0.7038
  834MOL0     C14994   9.977  10.985  11.161 -0.1323  0.0936  0.0839
  834MOL0     C14995   9.869  11.049  11.066 -0.4218  0.2369  0.6057
  834MOL0     C14996   9.766  10.950  11.012 -0.2326 -0.6830 -0.6894
  834MOL0     C14997   9.669  10.900  11.114 -0.1447  0.9291 -1.7082
  834MOL0     C14998   9.576  10.804  11.039 -0.4494  0.1702  0.3104
  834MOL0    Cl14999   9.682  10.676  10.960 -0.2167  0.2647 -0.1370
  834MOL0     C15000  10.037  10.431  10.851  0.3946  0.8884  0.7581
  834MOL0     C15001   9.962  10.319  10.811  0.7018  0.5330 -0.1492
  834MOL0     O15002   9.913   9.982  11.006 -0.1906 -0.0860  0.4597
  834MOL0     C15003   9.641   9.924  10.776  1.1282 -0.0107  0.0988
  834MOL0     C15004   9.566   9.832  10.714 -0.2531 -0.1774  0.2234
  834MOL0     N15005   8.988   9.261  10.591 -0.3441  0.1264  0.0456
  834MOL0     N15006   8.878   9.196  10.570 -0.3348  0.0603  1.2918
  834MOL0     C15007   8.174   8.604  11.045 -1.0747 -0.0199 -0.1191
  834MOL0     C15008   8.044   8.622  11.092 -0.5073  0.3069  0.1041
  834MOL0     C15009   7.624   8.474  11.259  0.1841  0.6758 -0.3527
  834MOL0     C15010   7.555   8.589  11.217  0.3068  0.3911 -0.2798
  834MOL0     C15011   7.430   8.625  11.275 -0.8659  0.6435 -0.8187
  834MOL0     C15012   7.383   8.542  11.374 -1.1236 -0.0188 -0.3949
  834MOL0     O15013   7.253   8.571  11.406  0.1257  0.1608  0.3237
  834MOL0     C15014   7.147   8.481  11.376  0.2314  0.6578 -0.0053
  834MOL0     C15015   7.023   8.555  11.339  1.3300 -0.9687 -0.4902
  834MOL0     C15016   6.929   8.461  11.261 -0.0872  0.7386  0.8214
  834MOL0     C15017   6.777   8.490  11.271  0.2781 -0.3108 -0.5233
  834MOL0     C15018   6.701   8.474  11.147 -0.8751 -0.6403  0.1742
  834MOL0     C15019   6.643   8.470  11.040 -0.9530 -0.3826 -0.5767
  834MOL0     C15020   7.452   8.433  11.429 -0.5801  0.4986 -0.7861
  834MOL0     C15021   7.571   8.399  11.368 -0.7820  0.6058  0.2962
  834MOL0     C15022   7.635   8.270  11.425 -0.4732  0.3812  0.5943
  834MOL0     H15023   7.910   8.337  10.976  0.4928 -2.9535  3.5122
  834MOL0     H15024   8.124   8.316  10.866 -0.0268 -1.6181  1.9246
  834MOL0     H15025   8.449   8.481  11.018  0.0457  1.2979  1.6412
  834MOL0     H15026   8.430   8.654  10.948  0.8886 -0.2712 -0.1829
  834MOL0     H15027   8.635   8.522  10.894 -0.1333 -0.8095 -0.7183
  834MOL0     H15028   8.528   8.432  10.780  1.2105  0.0520 -0.5963
  834MOL0     H15029   8.477   8.643  10.658  2.2366 -0.2175 -2.9853
  834MOL0     H15030   8.566   8.728  10.802  2.3735  0.1946 -0.4073
  834MOL0     H15031   8.757   8.633  10.722 -1.8857 -0.0513  2.8508
  834MOL0     H15032   8.673   8.547  10.583 -1.3212 -0.2987  1.0081
  834MOL0     H15033   8.637   8.838  10.600  0.1357 -0.5790  2.5603
  834MOL0     H15034   8.645   8.728  10.456 -1.5226  0.4677  0.8572
  834MOL0     H15035   8.868   8.839  10.625 -1.4501  0.2241  0.9236
  834MOL0     H15036   8.911   8.707  10.514 -0.7518  0.3363 -1.3615
  834MOL0     H15037   8.811   8.811  10.329 -0.6182 -0.9409  2.1177
  834MOL0     H15038   8.968   8.869  10.378 -0.8134 -4.8228 -2.3932
  834MOL0     H15039   8.810   9.039  10.307 -0.3845 -1.8063  0.0108
  834MOL0     H15040   8.716   9.013  10.457 -0.7515  0.4120 -2.0205
  834MOL0     H15041   9.083   9.064  10.354  0.9376  0.9290  0.2806
  834MOL0     H15042   9.238   9.299  10.410 -2.1978 -2.2427 -1.0757
  834MOL0     H15043   9.306   9.170  10.517 -0.8003 -0.9663  2.7098
  834MOL0     H15044   9.237   9.469  10.587  0.8120 -0.3044  0.9090
  834MOL0     H15045   9.295   9.349  10.706 -0.1140  0.7617  0.6356
  834MOL0     H15046   9.481   9.312  10.544  0.6386 -0.1933  0.5968
  834MOL0     H15047   9.437   9.476  10.481 -0.6726  0.9231  1.9087
  834MOL0     H15048   9.492   9.443  10.783  0.3674  2.8247  0.5102
  834MOL0     H15049   9.622   9.439  10.667 -0.6266 -1.2260  1.2105
  834MOL0     H15050   9.720   9.547  10.810  0.3021 -0.8965 -2.1213
  834MOL0     H15051   9.915   9.727  11.047 -0.4192  2.3522 -0.5008
  834MOL0     H15052  10.006   9.749  10.883  0.3705 -1.6909  0.6097
  834MOL0     H15053   9.929   9.600  10.932 -1.9563  0.2521 -2.3997
  834MOL0     H15054   9.791  10.229  11.089 -3.4411  0.3191 -2.9135
  834MOL0     H15055   9.933  10.421  11.173 -0.2698  3.5805 -0.8978
  834MOL0     H15056   9.941  10.694  11.129 -0.2437 -1.1308  0.4527
  834MOL0     H15057  10.062  10.616  11.234  1.2260  2.6549  0.9813
  834MOL0     H15058  10.143  10.815  11.257 -0.5256  0.2522  0.2740
  834MOL0     H15059  10.238  10.766  11.112 -0.3119 -1.8981  0.5211
  834MOL0     H15060  10.059  10.880  10.983  2.4006 -0.7524  0.7399
  834MOL0     H15061  10.183  10.969  11.055  3.0863 -1.7706  2.1583
  834MOL0     H15062  10.020  11.081  11.193 -1.7132  0.7094  0.4728
  834MOL0     H15063   9.946  10.926  11.247  0.4057  0.0611  0.2618
  834MOL0     H15064   9.805  11.123  11.113  0.0790 -0.2808  2.1668
  834MOL0     H15065   9.921  11.084  10.976 -2.8811  0.0237 -1.0003
  834MOL0     H15066   9.820  10.868  10.965  2.0848 -0.8360  1.9601
  834MOL0     H15067   9.711  11.005  10.934 -3.4844  0.9853  2.4602
  834MOL0     H15068   9.616  10.991  11.146  1.3765  1.6464 -1.1521
  834MOL0     H15069   9.711  10.845  11.198 -0.6505 -3.6032 -4.0996
  834MOL0     H15070   9.515  10.865  10.973  2.5307  3.3854  0.2441
  834MOL0     H15071   9.518  10.747  11.112  3.3411 -2.3699  1.6968
  834MOL0     H15072  10.099  10.485  10.780 -0.9572 -1.0207 -2.0513
  834MOL0     H15073   9.958  10.304  10.703  0.1312 -2.3833  0.2006
  834MOL0     H15074   9.617  10.030  10.767  1.8518  0.1724  0.2987
  834MOL0     H15075   9.489   9.851  10.639  2.9382 -1.2634 -3.6669
  834MOL0     H15076   8.244   8.681  11.075  1.0888 -1.7870 -0.4269
  834MOL0     H15077   8.024   8.700  11.165  0.3025  0.6691 -0.0432
  834MOL0     H15078   7.596   8.647  11.135  2.5400 -0.2899  0.2922
  834MOL0     H15079   7.376   8.708  11.230 -0.8782  0.4083 -1.2449
  834MOL0     H15080   7.175   8.417  11.292 -1.6845  0.6023 -0.6531
  834MOL0     H15081   7.120   8.415  11.459  1.6541 -2.1360 -1.6100
  834MOL0     H15082   7.039   8.639  11.271  0.8296 -0.1600  0.3694
  834MOL0     H15083   6.976   8.593  11.430  2.2650 -3.7646  1.2899
  834MOL0     H15084   6.958   8.463  11.155  1.2321 -1.8760  1.0493
  834MOL0     H15085   6.940   8.356  11.287 -0.1772  0.3435 -0.6646
  834MOL0     H15086   6.768   8.595  11.300 -0.4391 -0.1927 -1.1287
  834MOL0     H15087   6.736   8.419  11.343 -2.8285 -0.0736 -1.8985
  834MOL0     H15088   6.574   8.456  10.959 -1.9900 -4.5553  0.7552
  834MOL0     H15089   7.415   8.389  11.521 -0.0682 -2.4771 -1.9240
  834MOL0     H15090   7.629   8.275  11.535  2.4916  1.0397  0.8260
  834MOL0     H15091   7.589   8.178  11.389 -2.2840 -0.7978  5.1758
  834MOL0     H15092   7.743   8.277  11.407 -0.3423 -1.1491  0.6461
  835MOL0     O15093   5.925   1.807   7.088 -0.3389  0.7372 -1.0454
  835MOL0     C15094   5.956   1.777   7.206  0.4097  0.3103 -0.0396
  835MOL0     O15095   6.085   1.775   7.256  0.5437  0.0837 -0.1231
  835MOL0     C15096   6.189   1.775   7.166  0.3817  0.2755 -1.4951
  835MOL0     C15097   6.217   1.663   7.084 -0.4329  0.3101  0.0411
  835MOL0     C15098   6.314   1.664   6.987  0.6647 -0.0669 -0.7924
  835MOL0     C15099   6.393   1.785   6.977 -0.0224  0.1957  0.1229
  835MOL0     O15100   6.508   1.784   6.904 -0.7039  0.6189 -0.0858
  835MOL0     C15101   6.554   1.671   6.836 -0.0246  0.6243 -0.1835
  835MOL0     C15102   6.696   1.689   6.790  1.0658  0.1918  1.0860
  835MOL0     C15103   6.718   1.820   6.705 -0.8351  0.3263 -0.8233
  835MOL0     C15104   6.852   1.820   6.630 -0.1578 -0.3893  0.2806
  835MOL0     C15105   6.879   1.964   6.607  0.5566  0.5453  1.7206
  835MOL0     C15106   7.031   1.981   6.567 -0.0566 -0.2990 -0.7208
  835MOL0     C15107   7.058   2.126   6.550  0.0978  0.4712 -0.0525
  835MOL0     C15108   6.997   2.198   6.423  0.3756 -0.0349  0.9030
  835MOL0     N15109   7.042   2.150   6.295 -0.2339  0.1580 -0.3853
  835MOL0     C15110   7.178   2.142   6.268  0.4766  0.4852  0.8283
  835MOL0     C15111   7.175   2.076   6.143  0.6946  0.5776 -0.9490
  835MOL0     C15112   7.300   2.062   6.072 -0.4888  0.4348  0.1930
  835MOL0     C15113   7.314   1.949   5.967  0.7892 -0.1474 -0.1664
  835MOL0     C15114   7.453   1.913   5.918  0.7654  0.0272 -0.1663
  835MOL0     C15115   7.443   1.814   5.803 -0.5336  0.3577  0.0305
  835MOL0     O15116   7.573   1.784   5.745 -0.4702  0.4665 -0.8633
  835MOL0     C15117   7.664   1.732   5.841 -1.0531 -0.2780  0.1605
  835MOL0     C15118   7.753   1.821   5.905  0.4585 -0.4807 -0.4757
  835MOL0     C15119   7.831   1.770   6.013  0.0854 -0.5573  0.4137
  835MOL0     C15120   7.911   1.874   6.091 -0.1520  0.5324  0.0111
  835MOL0     C15121   7.832   1.634   6.044 -0.4599 -0.0594 -0.7814
  835MOL0     C15122   7.909   1.576   6.160 -0.1955  0.1926  0.2479
  835MOL0     O15123   7.979   1.459   6.121  0.0103 -0.4195  0.4363
  835MOL0     C15124   8.050   1.376   6.203  0.5315  0.4778  0.0464
  835MOL0     C15125   8.019   1.356   6.338 -0.7204 -0.5062 -0.0909
  835MOL0     C15126   8.099   1.270   6.411 -0.5668 -0.1730  0.1219
  835MOL0     C15127   8.201   1.193   6.353  0.2824  0.7651 -0.0476
  835MOL0     O15128   8.281   1.102   6.424  0.8014 -0.7545 -0.3024
  835MOL0     C15129   8.304   1.140   6.555 -0.0905  0.3272  0.7268
  835MOL0     C15130   8.449   1.100   6.599 -0.1721 -0.4038 -0.6574
  835MOL0     C15131   8.514   0.978   6.528 -0.5039  0.0899  0.8686
  835MOL0     C15132   8.670   0.974   6.566  0.5925  0.6228 -0.5448
  835MOL0     C15133   8.758   0.865   6.493  0.5913 -0.3778  0.3895
  835MOL0     C15134   8.893   0.838   6.564 -0.2249 -0.6731 -0.1590
  835MOL0     C15135   8.997   0.766   6.472  0.6419  0.0294  0.2799
  835MOL0     C15136   9.125   0.771   6.554 -0.1372  0.8793  0.5361
  835MOL0    Cl15137   9.257   0.690   6.460  0.1569  0.1621  0.0040
  835MOL0     C15138   8.214   1.195   6.208  0.3792 -0.3096  0.0087
  835MOL0     C15139   8.132   1.289   6.136 -0.8446  0.6346  0.1976
  835MOL0     O15140   7.936   1.636   6.265  0.6179  0.7655 -0.1964
  835MOL0     C15141   7.757   1.542   5.969 -0.9490 -0.1982  0.2275
  835MOL0     C15142   7.666   1.595   5.870 -0.0275 -0.0657 -0.1364
  835MOL0     N15143   7.047   2.027   6.119 -0.0546  0.3119  0.6037
  835MOL0     N15144   6.971   2.066   6.213 -0.5203 -0.1487 -0.9942
  835MOL0     C15145   6.365   1.898   7.058 -0.4434 -0.3088  0.1942
  835MOL0     C15146   6.266   1.885   7.153 -0.6544  0.0918 -0.7484
  835MOL0     C15147   5.836   1.739   7.297 -0.5915  0.0882 -0.0418
  835MOL0     C15148   5.728   1.678   7.236  0.6331 -0.0878  0.3674
  835MOL0     C15149   5.620   1.627   7.300 -1.4793  0.5938  0.2231
  835MOL0     C15150   5.603   1.652   7.440  0.0460 -0.2705  0.5794
  835MOL0     O15151   5.494   1.598   7.497  0.5609  0.1744 -0.3574
  835MOL0     C15152   5.469   1.610   7.637 -0.6051 -0.5235 -0.5638
  835MOL0     C15153   5.327   1.562   7.679  0.4078  0.0871  0.5439
  835MOL0     C15154   5.281   1.426   7.627  1.2182  0.2563 -0.1090
  835MOL0     C15155   5.356   1.299   7.661 -0.6902 -0.0696  0.1641
  835MOL0     C15156   5.317   1.184   7.585  0.4076 -0.0847  0.0414
  835MOL0     C15157   5.273   1.085   7.524 -0.4462  0.2572 -0.2190
  835MOL0     C15158   5.709   1.713   7.506 -1.0612 -0.5608  0.2810
  835MOL0     C15159   5.833   1.748   7.438  0.3818  0.0473  0.2094
  835MOL0     C15160   5.949   1.795   7.524  0.4031  0.4342  0.3103
  835MOL0     H15161   6.164   1.568   7.089  1.6189 -0.8852  0.3260
  835MOL0     H15162   6.338   1.575   6.931  3.4991 -0.7779  1.3103
  835MOL0     H15163   6.483   1.656   6.753  0.6166 -0.8798 -0.4938
  835MOL0     H15164   6.548   1.580   6.895 -0.9838 -0.2023 -1.4784
  835MOL0     H15165   6.768   1.694   6.872  0.2889 -1.8277  1.9514
  835MOL0     H15166   6.718   1.606   6.723 -4.4487 -0.1711 -0.7596
  835MOL0     H15167   6.636   1.841   6.636 -1.7273  3.7968  1.0968
  835MOL0     H15168   6.714   1.900   6.779  1.3921  1.1868 -1.5528
  835MOL0     H15169   6.936   1.773   6.682 -0.5240 -1.2167  0.1395
  835MOL0     H15170   6.844   1.772   6.533  3.9522 -0.9085 -0.0066
  835MOL0     H15171   6.861   2.022   6.698 -0.2409 -0.9861  2.5793
  835MOL0     H15172   6.807   2.005   6.536 -0.1605 -0.0090  2.1076
  835MOL0     H15173   7.103   1.945   6.640  0.5592 -3.1675 -2.5810
  835MOL0     H15174   7.047   1.927   6.473 -3.2627 -3.8157  0.4828
  835MOL0     H15175   7.163   2.154   6.537  0.5110 -0.3952  1.1969
  835MOL0     H15176   7.030   2.176   6.644 -0.8351  0.4875 -0.3337
  835MOL0     H15177   6.887   2.194   6.419  0.3543  0.9471  0.1471
  835MOL0     H15178   7.028   2.300   6.447 -2.8182  1.0804  0.8326
  835MOL0     H15179   7.262   2.193   6.313  1.0904 -0.2350  0.5237
  835MOL0     H15180   7.367   2.025   6.150  2.0670  0.5857 -1.7742
  835MOL0     H15181   7.341   2.156   6.032  0.3027  0.2329  0.4958
  835MOL0     H15182   7.254   1.868   6.010 -4.6920  2.4431 -2.0532
  835MOL0     H15183   7.253   1.979   5.881  2.3620  1.3864 -0.7948
  835MOL0     H15184   7.501   2.004   5.881  1.0444 -0.7651 -1.8344
  835MOL0     H15185   7.511   1.872   6.001 -2.7913 -0.8771  2.1165
  835MOL0     H15186   7.402   1.721   5.842  3.1956 -0.2971  2.8900
  835MOL0     H15187   7.377   1.850   5.723 -0.1412  0.4021 -0.2748
  835MOL0     H15188   7.743   1.926   5.879 -1.9564  0.1530  2.5298
  835MOL0     H15189   7.933   1.963   6.031  0.2871 -1.3225 -2.7269
  835MOL0     H15190   8.006   1.833   6.127 -0.6670 -0.8704 -0.1637
  835MOL0     H15191   7.839   1.911   6.165 -2.8328 -0.0829 -2.1697
  835MOL0     H15192   7.947   1.404   6.405  0.9073 -1.9734  2.9104
  835MOL0     H15193   8.070   1.253   6.514 -1.1986 -0.9287 -0.1776
  835MOL0     H15194   8.307   1.248   6.575 -1.6745  0.2790  1.3357
  835MOL0     H15195   8.239   1.103   6.635  1.6622 -3.2297  0.6925
  835MOL0     H15196   8.523   1.179   6.580 -1.5968  1.0338 -0.5044
  835MOL0     H15197   8.443   1.077   6.705 -0.6281  0.8828 -0.3793
  835MOL0     H15198   8.499   0.988   6.420 -2.2714  2.2643  1.2239
  835MOL0     H15199   8.457   0.893   6.565 -1.7426  0.1715 -0.7465
  835MOL0     H15200   8.663   0.962   6.675  2.9187 -0.0561 -0.4229
  835MOL0     H15201   8.710   1.075   6.551 -1.5843  1.2676 -2.6870
  835MOL0     H15202   8.710   0.767   6.487 -2.0329  0.8505 -0.0686
  835MOL0     H15203   8.787   0.913   6.400 -0.3996  2.1717  1.3127
  835MOL0     H15204   8.874   0.783   6.657 -1.4605 -1.5468 -0.8917
  835MOL0     H15205   8.931   0.937   6.591 -0.7855 -1.0886  2.4528
  835MOL0     H15206   9.015   0.818   6.377 -2.2926  0.0299 -0.3597
  835MOL0     H15207   8.969   0.662   6.455 -1.3167  0.8573 -2.1362
  835MOL0     H15208   9.106   0.729   6.653  1.3269  3.1241  1.8597
  835MOL0     H15209   9.150   0.877   6.566  0.0432  1.1537 -1.7609
  835MOL0     H15210   8.294   1.133   6.171  0.5601  0.5691 -1.1152
  835MOL0     H15211   8.149   1.299   6.029 -0.1025  0.5810  0.3064
  835MOL0     H15212   7.753   1.443   6.012 -0.5831  1.5088  4.6865
  835MOL0     H15213   7.603   1.533   5.808  1.6464 -5.3165  2.7577
  835MOL0     H15214   6.425   1.988   7.051  1.8862 -1.5894  1.9673
  835MOL0     H15215   6.238   1.975   7.208 -3.0414 -1.7791  1.2933
  835MOL0     H15216   5.726   1.662   7.128 -1.2723  1.7661  0.0452
  835MOL0     H15217   5.551   1.572   7.237  0.8501 -0.7959 -1.2288
  835MOL0     H15218   5.542   1.550   7.692 -1.7247  0.5523  2.2746
  835MOL0     H15219   5.481   1.714   7.669  0.4499 -0.7945 -0.0365
  835MOL0     H15220   5.263   1.644   7.644  0.6809 -0.7058 -1.9755
  835MOL0     H15221   5.311   1.559   7.787 -0.2256  0.4866  0.4659
  835MOL0     H15222   5.182   1.420   7.673 -0.1505  4.8670 -1.9114
  835MOL0     H15223   5.265   1.423   7.518  0.7526 -1.9874 -0.0327
  835MOL0     H15224   5.352   1.289   7.770  0.4179  0.4333  0.2657
  835MOL0     H15225   5.462   1.309   7.635 -1.0497 -1.3870 -2.1637
  835MOL0     H15226   5.218   1.006   7.476 -0.9175 -2.6767  4.5239
  835MOL0     H15227   5.709   1.740   7.611 -0.1014  0.6341  0.0137
  835MOL0     H15228   6.038   1.733   7.508 -1.4069 -1.5880 -3.3379
  835MOL0     H15229   5.966   1.898   7.492 -2.2529  1.1296  0.9277
  835MOL0     H15230   5.924   1.793   7.630  4.3342  0.7429  1.4125
  836MOL0     O15231  10.005   0.027   3.368  0.3374 -0.6044  0.1044
  836MOL0     C15232   9.956   0.060   3.473  0.4572 -0.6948 -0.0939
  836MOL0     O15233  10.021   0.129   3.576  0.0028  0.0162 -0.3362
  836MOL0     C15234  10.138   0.192   3.544 -0.0721  0.3952 -0.7428
  836MOL0     C15235  10.252   0.118   3.525  0.6026 -0.0789  0.5417
  836MOL0     C15236  10.374   0.179   3.516 -0.5331 -0.0898 -0.0991
  836MOL0     C15237  10.381   0.317   3.521  0.7024 -0.2916  0.4660
  836MOL0     O15238  10.498   0.391   3.522  0.4267  0.2561  0.2483
  836MOL0     C15239  10.625   0.326   3.511 -0.2507 -0.4688  0.4772
  836MOL0     C15240  10.743   0.430   3.514 -0.5452  0.4992  0.2755
  836MOL0     C15241  10.885   0.355   3.539  1.1160 -0.2171 -0.6114
  836MOL0     C15242  10.980   0.453   3.615 -0.4850 -0.9321  0.1064
  836MOL0     C15243  11.124   0.411   3.637 -0.8026 -0.3345 -0.3988
  836MOL0     C15244  11.199   0.500   3.737  0.4696  0.4216 -0.7370
  836MOL0     C15245  11.161   0.502   3.893  0.0892 -0.7151  0.2853
  836MOL0     C15246  11.208   0.373   3.963 -1.0714 -0.8055 -0.1992
  836MOL0     N15247  11.132   0.257   3.923 -0.0433  0.1115  0.1046
  836MOL0     C15248  10.990   0.261   3.925  0.2565 -0.4425 -0.1740
  836MOL0     C15249  10.961   0.141   3.874  0.1795  0.7140  1.5830
  836MOL0     C15250  10.822   0.082   3.841 -0.4588 -0.2284  0.3613
  836MOL0     C15251  10.806  -0.055   3.894 -0.7038 -0.3837  0.5093
  836MOL0     C15252  10.816  -0.065   4.051  0.4038  0.2515 -0.4737
  836MOL0     C15253  10.776  -0.211   4.097  0.1286  0.0195 -0.6144
  836MOL0     O15254  10.858  -0.315   4.039 -0.2477 -0.7335 -0.1724
  836MOL0     C15255  10.977  -0.310   4.106 -0.1686  0.5265 -0.5483
  836MOL0     C15256  11.092  -0.261   4.040 -0.0153 -0.7623 -0.3079
  836MOL0     C15257  11.217  -0.254   4.107 -0.0601 -0.4113 -1.1068
  836MOL0     C15258  11.318  -0.162   4.046  0.7216 -0.0132 -0.2454
  836MOL0     C15259  11.232  -0.320   4.229 -0.7334  0.3735  0.0296
  836MOL0     C15260  11.370  -0.331   4.284  0.2949  0.4985  0.4259
  836MOL0     O15261  11.467  -0.375   4.207  0.9910  0.9087  0.7141
  836MOL0     C15262  11.602  -0.390   4.244 -0.5370 -0.9779 -0.1663
  836MOL0     C15263  11.660  -0.391   4.373 -0.1738  0.3478  0.7844
  836MOL0     C15264  11.798  -0.413   4.392  0.5967  0.5063 -0.3319
  836MOL0     C15265  11.878  -0.431   4.273  0.0099 -0.4614 -0.3214
  836MOL0     O15266  12.005  -0.469   4.293 -0.1616 -0.3897  0.9495
  836MOL0     C15267  12.073  -0.546   4.196 -0.8018 -0.1168 -0.2166
  836MOL0     C15268  12.151  -0.456   4.105 -0.5915  0.7273 -0.2603
  836MOL0     C15269  12.302  -0.473   4.120 -0.3275 -0.7426 -0.5669
  836MOL0     C15270  12.389  -0.377   4.039  0.2369  0.3034  0.5245
  836MOL0     C15271  12.530  -0.430   4.014  0.7494  0.0596  0.6890
  836MOL0     C15272  12.611  -0.333   3.942  0.2145  0.7493  0.6353
  836MOL0     C15273  12.754  -0.400   3.925  0.1323  0.2161 -0.0441
  836MOL0     C15274  12.831  -0.318   3.838 -0.4533  0.3813  0.0625
  836MOL0    Cl15275  12.983  -0.382   3.768  0.0589 -0.1395  0.3362
  836MOL0     C15276  11.824  -0.402   4.150 -0.5194  0.2152 -0.0719
  836MOL0     C15277  11.687  -0.391   4.137  0.1932  0.6158  0.1016
  836MOL0     O15278  11.391  -0.287   4.394  0.0493 -0.8621  0.1031
  836MOL0     C15279  11.125  -0.378   4.287 -0.2078 -0.7360  0.0633
  836MOL0     C15280  10.998  -0.368   4.229 -0.0509  0.1545  0.3164
  836MOL0     N15281  11.072   0.065   3.847  0.0931  0.9918  0.5559
  836MOL0     N15282  11.172   0.133   3.885  0.1472 -0.0307  0.0333
  836MOL0     C15283  10.267   0.397   3.540 -0.3300 -0.4265 -0.1897
  836MOL0     C15284  10.150   0.332   3.558 -0.0608 -0.4247  0.3160
  836MOL0     C15285   9.813   0.031   3.485  1.1580  0.0427 -0.1342
  836MOL0     C15286   9.772  -0.083   3.419  0.2838  0.3201 -1.2870
  836MOL0     C15287   9.638  -0.116   3.418  0.1150  0.9451 -0.6457
  836MOL0     C15288   9.549  -0.049   3.498  0.2312 -0.6000  0.0205
  836MOL0     O15289   9.413  -0.091   3.517 -0.2645  0.0049 -0.5727
  836MOL0     C15290   9.365  -0.215   3.466  0.0613  0.3963 -0.7045
  836MOL0     C15291   9.332  -0.206   3.320  0.4413  1.2131 -0.1997
  836MOL0     C15292   9.202  -0.280   3.276  0.0637  0.4310 -0.2043
  836MOL0     C15293   9.170  -0.249   3.132  0.7347 -0.1679  0.3945
  836MOL0     C15294   9.142  -0.103   3.108 -0.7532 -0.1511  0.6393
  836MOL0     C15295   9.125   0.017   3.096  0.4778 -0.9328  0.0737
  836MOL0     C15296   9.587   0.065   3.558  0.6648 -0.5766 -0.1551
  836MOL0     C15297   9.719   0.114   3.549  0.2282 -0.4429  0.0716
  836MOL0     C15298   9.754   0.240   3.623 -0.5432 -0.0132 -0.4198
  836MOL0     H15299  10.254   0.010   3.526  0.4081 -0.0792  1.3928
  836MOL0     H15300  10.464   0.117   3.511 -2.2887 -2.7735 -0.6772
  836MOL0     H15301  10.619   0.274   3.415  2.5825 -0.9989  0.5095
  836MOL0     H15302  10.626   0.262   3.600 -1.1408 -0.7514  0.2941
  836MOL0     H15303  10.746   0.477   3.415  0.7500 -0.8668 -0.3789
  836MOL0     H15304  10.726   0.503   3.594 -0.4692  1.1274 -0.2767
  836MOL0     H15305  10.859   0.263   3.591 -1.2680  2.0689  2.5995
  836MOL0     H15306  10.931   0.336   3.441 -1.6281  0.1278 -2.0711
  836MOL0     H15307  10.985   0.543   3.554 -2.0689 -1.2576 -0.5438
  836MOL0     H15308  10.928   0.485   3.705 -1.1067  0.3560 -0.6845
  836MOL0     H15309  11.180   0.419   3.543  2.2131  3.4472  1.4489
  836MOL0     H15310  11.127   0.303   3.658 -0.5941 -0.1882  0.3764
  836MOL0     H15311  11.302   0.466   3.731 -0.6140 -3.0462 -3.8916
  836MOL0     H15312  11.199   0.600   3.693 -2.3548  0.5653 -0.5998
  836MOL0     H15313  11.054   0.520   3.904  0.3666  1.9112 -0.5100
  836MOL0     H15314  11.209   0.588   3.941 -0.7851  0.6567 -1.2108
  836MOL0     H15315  11.313   0.347   3.946 -0.3087  1.2971  1.0626
  836MOL0     H15316  11.197   0.396   4.069 -0.5427 -0.0075 -0.3131
  836MOL0     H15317  10.928   0.343   3.961  3.5886  1.3636  1.8867
  836MOL0     H15318  10.830   0.083   3.732 -2.5128  1.4041  0.1674
  836MOL0     H15319  10.737   0.141   3.876 -1.7095 -0.7379 -1.6631
  836MOL0     H15320  10.708  -0.089   3.859 -1.6601  0.4635  2.2555
  836MOL0     H15321  10.879  -0.122   3.848  0.6403 -0.5861  2.7779
  836MOL0     H15322  10.915  -0.050   4.094 -0.4942  0.3415  1.6766
  836MOL0     H15323  10.745   0.005   4.096 -0.9122 -2.5551  2.1731
  836MOL0     H15324  10.770  -0.230   4.204  0.2127  4.9034  0.5195
  836MOL0     H15325  10.682  -0.244   4.054  0.3162 -2.9971  1.0626
  836MOL0     H15326  11.069  -0.220   3.943 -0.9688 -1.9619 -0.6078
  836MOL0     H15327  11.366  -0.090   4.112  1.2610  0.3314 -1.0015
  836MOL0     H15328  11.262  -0.103   3.973  1.9368  1.0848 -0.3149
  836MOL0     H15329  11.388  -0.234   4.001 -2.1505 -3.1148 -0.2257
  836MOL0     H15330  11.604  -0.374   4.465  1.0747  0.9991  1.4460
  836MOL0     H15331  11.838  -0.444   4.488  1.0352 -2.7258 -1.4419
  836MOL0     H15332  12.148  -0.609   4.244 -0.1328 -0.5258 -1.7339
  836MOL0     H15333  11.996  -0.604   4.144 -3.1116  1.3329  1.3911
  836MOL0     H15334  12.132  -0.483   4.001 -0.4466 -2.3587  0.4224
  836MOL0     H15335  12.121  -0.351   4.112 -3.2803  0.1185 -1.5138
  836MOL0     H15336  12.327  -0.576   4.092 -2.7348 -1.8320  0.9498
  836MOL0     H15337  12.324  -0.466   4.227 -1.4124 -2.5232 -0.1895
  836MOL0     H15338  12.380  -0.276   4.080  0.4317  1.8688 -2.9764
  836MOL0     H15339  12.348  -0.372   3.938 -2.0096 -0.5072  1.3194
  836MOL0     H15340  12.576  -0.455   4.110  0.9255 -0.2974  0.5157
  836MOL0     H15341  12.529  -0.528   3.966  0.0107 -0.8030  2.4003
  836MOL0     H15342  12.618  -0.238   3.996  0.2828  0.4836  1.1025
  836MOL0     H15343  12.584  -0.311   3.838  2.9273 -1.7047 -0.7180
  836MOL0     H15344  12.743  -0.499   3.879 -1.2515 -0.0155  0.7098
  836MOL0     H15345  12.810  -0.412   4.018  0.5318 -0.1706 -0.3320
  836MOL0     H15346  12.865  -0.227   3.889  0.7702  0.3063 -0.5688
  836MOL0     H15347  12.772  -0.272   3.758  1.3449 -0.4113 -1.7844
  836MOL0     H15348  11.887  -0.410   4.062  2.5972 -5.4486  2.1043
  836MOL0     H15349  11.640  -0.392   4.039 -2.4171  0.9868  1.2649
  836MOL0     H15350  11.137  -0.429   4.382 -0.1432  1.0876  1.0939
  836MOL0     H15351  10.905  -0.409   4.268  0.7909 -1.4241  0.7510
  836MOL0     H15352  10.270   0.503   3.563  0.1086 -0.9606  2.5360
  836MOL0     H15353  10.057   0.380   3.588 -1.3376 -2.2533 -0.4961
  836MOL0     H15354   9.839  -0.150   3.366 -1.0111 -0.6153 -1.7944
  836MOL0     H15355   9.607  -0.200   3.358 -1.5767  2.4561 -1.9859
  836MOL0     H15356   9.447  -0.284   3.488  0.5702  0.7058 -1.5724
  836MOL0     H15357   9.281  -0.254   3.525 -0.4185  1.6728 -0.5242
  836MOL0     H15358   9.413  -0.253   3.262  0.0067  2.4598 -1.8842
  836MOL0     H15359   9.330  -0.100   3.296  1.1085  1.1559 -0.5405
  836MOL0     H15360   9.215  -0.387   3.289 -0.3160  0.3510 -0.4549
  836MOL0     H15361   9.116  -0.256   3.339  0.6681 -0.7437  1.1000
  836MOL0     H15362   9.073  -0.293   3.108  2.2998 -4.8495  1.5085
  836MOL0     H15363   9.253  -0.283   3.068 -1.3799 -3.3653 -0.8834
  836MOL0     H15364   9.118   0.123   3.084 -0.0693 -0.5961  2.6919
  836MOL0     H15365   9.505   0.100   3.620  0.3499 -2.0067  0.2723
  836MOL0     H15366   9.841   0.228   3.688 -0.3908  0.4876 -0.5263
  836MOL0     H15367   9.781   0.318   3.551  1.5675 -0.4285 -0.1280
  836MOL0     H15368   9.679   0.278   3.693 -0.6945  0.6666 -0.9380
  837MOL0     O15369   5.789   2.207   5.647  0.1478  0.2630 -0.7378
  837MOL0     C15370   5.743   2.316   5.619 -0.8668 -0.3567  0.1186
  837MOL0     O15371   5.819   2.421   5.578 -0.5658 -0.6845 -0.1432
  837MOL0     C15372   5.952   2.411   5.587 -0.0067  0.5548  0.6738
  837MOL0     C15373   6.018   2.373   5.706 -0.7729 -0.8722 -0.1321
  837MOL0     C15374   6.159   2.342   5.707  0.1262 -0.1704 -0.6386
  837MOL0     C15375   6.235   2.361   5.584 -0.0101  0.2221  0.2816
  837MOL0     O15376   6.369   2.331   5.594 -0.4345  0.0667  0.2290
  837MOL0     C15377   6.461   2.429   5.536  0.3566 -0.5610 -0.0360
  837MOL0     C15378   6.617   2.389   5.562 -0.2480  0.0776 -0.0756
  837MOL0     C15379   6.719   2.489   5.500 -0.5609 -0.0911 -0.0815
  837MOL0     C15380   6.761   2.449   5.364 -0.9974  0.0527  0.4231
  837MOL0     C15381   6.795   2.563   5.267 -0.0292 -0.5745 -0.1900
  837MOL0     C15382   6.914   2.645   5.326 -0.7503  1.0088  0.3800
  837MOL0     C15383   6.923   2.771   5.245  0.1961 -0.9874 -0.3873
  837MOL0     C15384   7.016   2.871   5.319  0.4614 -0.5482 -0.6062
  837MOL0     N15385   7.160   2.829   5.311  0.8014 -0.1667 -0.6210
  837MOL0     C15386   7.220   2.732   5.385  0.4407  0.4550 -0.0182
  837MOL0     C15387   7.345   2.739   5.349 -0.0101  0.1002 -0.2774
  837MOL0     C15388   7.459   2.661   5.416  0.1183 -0.9909 -0.0599
  837MOL0     C15389   7.507   2.725   5.547  0.3619  0.2843  0.7165
  837MOL0     C15390   7.604   2.625   5.614  0.6246 -0.2510 -0.3931
  837MOL0     C15391   7.635   2.663   5.756 -0.2938 -1.1464  0.4691
  837MOL0     O15392   7.732   2.764   5.757 -0.2023  0.0384 -0.6446
  837MOL0     C15393   7.794   2.784   5.884  0.1358 -0.0769 -0.3357
  837MOL0     C15394   7.914   2.855   5.876  0.6318 -0.5928 -0.0686
  837MOL0     C15395   7.991   2.881   5.993  0.5825 -0.1400 -0.5977
  837MOL0     C15396   8.124   2.954   5.973  0.1902 -0.2767  0.5154
  837MOL0     C15397   7.933   2.846   6.119  0.0487 -0.4101 -0.8297
  837MOL0     C15398   8.011   2.853   6.252  0.0141  0.0139 -0.3804
  837MOL0     O15399   8.127   2.924   6.244 -0.0411  0.5113  0.9090
  837MOL0     C15400   8.181   2.980   6.359 -0.0101 -0.3385  0.1359
  837MOL0     C15401   8.182   3.112   6.396  0.2386  0.1442 -0.2680
  837MOL0     C15402   8.245   3.161   6.505  0.1808 -0.6651  0.0060
  837MOL0     C15403   8.311   3.076   6.590 -1.6645 -0.3885  0.3606
  837MOL0     O15404   8.373   3.148   6.685  0.3671 -0.3712  0.1170
  837MOL0     C15405   8.446   3.079   6.778  0.3724  0.1168  0.0687
  837MOL0     C15406   8.481   3.165   6.899  0.3378  0.5068 -0.0992
  837MOL0     C15407   8.584   3.278   6.871  0.1879  1.0333 -0.9060
  837MOL0     C15408   8.596   3.386   6.979  0.2609 -0.1479  0.3834
  837MOL0     C15409   8.691   3.348   7.086 -0.3796 -0.2130 -0.2919
  837MOL0     C15410   8.842   3.338   7.042 -0.9493 -0.9428 -0.3101
  837MOL0     C15411   8.944   3.320   7.163  0.1069 -0.5557  0.3789
  837MOL0     C15412   9.086   3.307   7.107 -0.2099  0.3647  0.1497
  837MOL0    Cl15413   9.195   3.262   7.241 -0.4878  0.5604 -0.3444
  837MOL0     C15414   8.315   2.943   6.560 -0.2531  0.4446 -1.0229
  837MOL0     C15415   8.259   2.895   6.442 -0.1847  0.1505 -0.5317
  837MOL0     O15416   7.982   2.775   6.343  0.5390  0.3990  0.2431
  837MOL0     C15417   7.806   2.782   6.134  1.1019  0.0756  0.0045
  837MOL0     C15418   7.741   2.752   6.013 -0.4246  0.8883  0.7658
  837MOL0     N15419   7.365   2.842   5.246 -0.5763  0.1206 -0.3783
  837MOL0     N15420   7.249   2.897   5.235  0.1547  0.0540  0.3143
  837MOL0     C15421   6.166   2.394   5.467  0.3439 -0.3775  0.2883
  837MOL0     C15422   6.029   2.412   5.465  0.6970 -0.4058  0.6212
  837MOL0     C15423   5.595   2.340   5.645  0.3140 -0.2319 -1.0597
  837MOL0     C15424   5.531   2.466   5.648  0.3697 -1.3800 -0.0995
  837MOL0     C15425   5.393   2.481   5.671 -0.2264 -1.1526  0.5393
  837MOL0     C15426   5.311   2.377   5.701  0.1095  0.1734 -0.3745
  837MOL0     O15427   5.184   2.402   5.742 -0.0159 -0.0917  0.0080
  837MOL0     C15428   5.083   2.340   5.650 -0.1485 -0.1767 -0.0955
  837MOL0     C15429   4.938   2.357   5.688 -1.3091 -0.6820  0.6593
  837MOL0     C15430   4.913   2.305   5.826 -0.1847 -0.4230  0.2434
  837MOL0     C15431   4.766   2.299   5.862  0.4032 -0.1924 -0.4763
  837MOL0     C15432   4.713   2.427   5.892  0.4429 -0.0741 -0.7022
  837MOL0     C15433   4.649   2.531   5.923 -0.3672 -0.6981  1.0804
  837MOL0     C15434   5.370   2.247   5.687  0.0428 -0.4982  0.1474
  837MOL0     C15435   5.503   2.227   5.655  0.2451 -0.1867 -0.1325
  837MOL0     C15436   5.540   2.081   5.650  0.8966  0.3121  0.4968
  837MOL0     H15437   5.968   2.378   5.802  1.2826 -0.9438  0.9991
  837MOL0     H15438   6.208   2.325   5.802  0.3972 -0.8029 -0.8905
  837MOL0     H15439   6.433   2.529   5.569  2.4978  0.4973 -1.2043
  837MOL0     H15440   6.462   2.437   5.427  1.0993  1.9449  0.0918
  837MOL0     H15441   6.648   2.387   5.667 -2.5965 -1.1165  0.6496
  837MOL0     H15442   6.644   2.288   5.529  0.8928  0.7086 -1.1834
  837MOL0     H15443   6.656   2.578   5.487  0.3865  0.5263 -0.6331
  837MOL0     H15444   6.803   2.512   5.566 -0.8561 -2.0786  1.0416
  837MOL0     H15445   6.840   2.373   5.368 -2.0383 -1.0220  2.6692
  837MOL0     H15446   6.686   2.388   5.313 -1.0378  1.1964 -0.9350
  837MOL0     H15447   6.706   2.627   5.256 -1.2784 -1.9462  1.3513
  837MOL0     H15448   6.825   2.525   5.169 -2.1093 -1.1854 -0.6482
  837MOL0     H15449   6.900   2.663   5.433  1.8186 -3.3823  1.7098
  837MOL0     H15450   7.011   2.596   5.334 -1.5046 -0.3329  1.9256
  837MOL0     H15451   6.823   2.808   5.223  0.2885  1.1704  2.3035
  837MOL0     H15452   6.976   2.755   5.151 -1.5102  1.9305 -1.9599
  837MOL0     H15453   7.011   2.968   5.268  1.7239  0.1109  0.4495
  837MOL0     H15454   6.985   2.883   5.423  0.2831  1.0884 -0.8172
  837MOL0     H15455   7.175   2.674   5.465  0.6930  0.4132  0.0923
  837MOL0     H15456   7.542   2.662   5.345 -1.2158  0.0234 -1.6754
  837MOL0     H15457   7.428   2.557   5.436 -2.8011 -0.7399 -2.5767
  837MOL0     H15458   7.567   2.808   5.510  1.1946 -1.4063 -2.1074
  837MOL0     H15459   7.431   2.756   5.618 -2.9884 -1.8678 -1.6342
  837MOL0     H15460   7.568   2.522   5.620 -0.1028  0.0440  0.5794
  837MOL0     H15461   7.701   2.613   5.565  0.0367 -4.0468 -0.9482
  837MOL0     H15462   7.546   2.689   5.815  0.1364 -0.0433  0.6407
  837MOL0     H15463   7.678   2.572   5.799 -2.8470 -0.8043  4.1798
  837MOL0     H15464   7.958   2.879   5.780  1.3074 -0.2971  0.3100
  837MOL0     H15465   8.199   2.899   6.031 -0.9840 -1.2602  1.1460
  837MOL0     H15466   8.126   3.055   6.016  0.1458 -0.3102  0.5971
  837MOL0     H15467   8.156   2.966   5.869  1.4040  1.2661  1.0203
  837MOL0     H15468   8.132   3.179   6.328 -0.3302 -1.0722 -1.0946
  837MOL0     H15469   8.238   3.267   6.529  0.7374 -0.6671  0.1782
  837MOL0     H15470   8.398   2.989   6.818  3.0046 -1.7477 -0.6957
  837MOL0     H15471   8.542   3.050   6.733  0.6987 -0.0805  0.8746
  837MOL0     H15472   8.390   3.208   6.941 -1.8449 -3.2843 -0.4713
  837MOL0     H15473   8.535   3.108   6.976  1.3027 -0.6929 -1.5904
  837MOL0     H15474   8.550   3.331   6.781 -0.4966  1.4400 -0.4208
  837MOL0     H15475   8.684   3.243   6.848 -0.0401  0.2939 -0.8070
  837MOL0     H15476   8.495   3.412   7.012 -0.0092 -0.0608 -0.5066
  837MOL0     H15477   8.636   3.478   6.935 -0.0053  0.7175  1.8846
  837MOL0     H15478   8.687   3.429   7.160  1.1099 -1.0787  0.7923
  837MOL0     H15479   8.672   3.247   7.124  0.6496 -0.3266 -0.0452
  837MOL0     H15480   8.865   3.433   6.993 -1.0128 -0.7477  0.0368
  837MOL0     H15481   8.864   3.256   6.973  0.9714  1.1659 -2.3717
  837MOL0     H15482   8.926   3.234   7.227  1.4824  0.1338  1.7451
  837MOL0     H15483   8.946   3.412   7.222 -2.6108 -0.0346 -0.2143
  837MOL0     H15484   9.128   3.402   7.073  0.3175 -0.1140 -0.5618
  837MOL0     H15485   9.089   3.240   7.020  2.8034 -0.1805  0.5611
  837MOL0     H15486   8.379   2.886   6.626 -2.4805 -0.5723  0.3988
  837MOL0     H15487   8.273   2.793   6.407  0.1493 -0.1620  0.4900
  837MOL0     H15488   7.766   2.765   6.234  0.7466  0.3995 -0.0766
  837MOL0     H15489   7.639   2.716   6.011 -0.5622  1.1655 -2.2699
  837MOL0     H15490   6.227   2.409   5.379  1.7112 -0.9671  1.1147
  837MOL0     H15491   5.985   2.435   5.369 -1.2852 -3.0144  0.8058
  837MOL0     H15492   5.590   2.554   5.625 -0.3234 -1.0029 -0.4708
  837MOL0     H15493   5.357   2.583   5.674  2.4511 -0.1067  0.1983
  837MOL0     H15494   5.087   2.380   5.548  1.0627 -0.5557 -0.2161
  837MOL0     H15495   5.101   2.233   5.642  2.4610  0.1143  0.9727
  837MOL0     H15496   4.886   2.306   5.606  1.3235  0.0505 -1.5985
  837MOL0     H15497   4.911   2.462   5.676 -2.7792 -1.0902  0.1112
  837MOL0     H15498   4.946   2.201   5.828 -0.4973 -0.5191  2.1984
  837MOL0     H15499   4.958   2.365   5.906  0.8593  2.2995 -2.2239
  837MOL0     H15500   4.755   2.223   5.939  0.0878 -0.2684 -0.5938
  837MOL0     H15501   4.707   2.252   5.783 -0.7681  1.9523 -0.9485
  837MOL0     H15502   4.590   2.620   5.923  1.1373  0.3713 -0.3842
  837MOL0     H15503   5.309   2.168   5.731 -1.2304  0.7638  0.7484
  837MOL0     H15504   5.449   2.021   5.657 -0.2618  1.8160 -0.8506
  837MOL0     H15505   5.599   2.064   5.559  1.3939  2.8491  0.2730
  837MOL0     H15506   5.598   2.046   5.736  2.9014 -0.8495 -1.2485
  838MOL0     O15507   2.104   3.273   3.791  0.6725 -0.7255 -0.4837
  838MOL0     C15508   2.076   3.148   3.784 -0.0967  0.3384 -0.2737
  838MOL0     O15509   2.136   3.046   3.854  0.2468 -0.1558 -0.7348
  838MOL0     C15510   2.227   3.052   3.961  0.2284 -0.6538 -0.5603
  838MOL0     C15511   2.261   2.932   4.020  0.7780 -0.1096  0.9272
  838MOL0     C15512   2.333   2.921   4.142  0.5768  0.8049 -0.2505
  838MOL0     C15513   2.362   3.032   4.217 -0.0855 -0.3143 -0.2693
  838MOL0     O15514   2.424   3.007   4.335  0.4386  0.0547 -0.2039
  838MOL0     C15515   2.401   3.107   4.438  0.4099  0.5308  0.2964
  838MOL0     C15516   2.523   3.206   4.456  0.6204  0.8682 -0.0970
  838MOL0     C15517   2.475   3.324   4.541  1.1082 -0.2946  0.3595
  838MOL0     C15518   2.599   3.410   4.595  0.3442 -0.0871  0.5012
  838MOL0     C15519   2.548   3.510   4.694  0.4120 -0.4343 -0.5408
  838MOL0     C15520   2.459   3.469   4.820  0.4287  0.7998  0.1756
  838MOL0     C15521   2.522   3.361   4.908 -0.2560 -0.3017 -0.2116
  838MOL0     C15522   2.648   3.408   4.992  0.7810 -0.8530  0.3942
  838MOL0     N15523   2.734   3.285   5.000 -0.0388 -1.0582 -0.0292
  838MOL0     C15524   2.852   3.272   4.925  0.1139  0.4871 -0.0496
  838MOL0     C15525   2.890   3.154   4.949 -0.1480  0.6011 -0.5715
  838MOL0     C15526   3.010   3.090   4.883 -0.6568  0.2582  0.2596
  838MOL0     C15527   3.147   3.133   4.941 -0.0976 -0.2826  0.2792
  838MOL0     C15528   3.162   3.104   5.086  0.0586  0.1516 -0.0334
  838MOL0     C15529   3.306   3.135   5.132 -0.0186  0.0940 -0.7158
  838MOL0     O15530   3.319   3.087   5.272  0.0250 -0.2765  0.6630
  838MOL0     C15531   3.446   3.066   5.323  0.6109 -0.6480  0.1616
  838MOL0     C15532   3.461   2.998   5.444 -0.2106  0.9485  0.8579
  838MOL0     C15533   3.587   2.985   5.499  0.4933  0.1816 -0.6961
  838MOL0     C15534   3.584   2.906   5.624 -0.3228  0.3226 -0.8389
  838MOL0     C15535   3.696   3.061   5.455  0.2347 -0.4063  0.0025
  838MOL0     C15536   3.819   3.051   5.530 -0.4558 -0.4253  0.0271
  838MOL0     O15537   3.898   3.163   5.526  0.9441 -0.3765 -0.2167
  838MOL0     C15538   4.018   3.178   5.588 -0.3860  0.2351  0.1166
  838MOL0     C15539   4.048   3.119   5.708  0.0129 -0.2641 -0.4004
  838MOL0     C15540   4.166   3.151   5.773  0.2378 -0.4515  0.9112
  838MOL0     C15541   4.258   3.243   5.718 -0.0319  0.4067 -0.3909
  838MOL0     O15542   4.369   3.295   5.781  0.2840 -0.3433  0.3443
  838MOL0     C15543   4.411   3.243   5.912  0.0899  0.1366 -0.1483
  838MOL0     C15544   4.547   3.305   5.943 -0.7788 -0.0629 -0.2626
  838MOL0     C15545   4.623   3.256   6.067  0.7165 -0.2099  0.1034
  838MOL0     C15546   4.748   3.341   6.096 -0.7344 -0.8038 -0.0470
  838MOL0     C15547   4.813   3.300   6.218 -0.8755  0.7215 -0.8167
  838MOL0     C15548   4.936   3.389   6.251 -0.6403 -0.0391  0.1374
  838MOL0     C15549   5.057   3.310   6.307  0.9557 -0.4380 -0.5378
  838MOL0     C15550   5.177   3.400   6.346  0.3708  0.2019  0.5549
  838MOL0    Cl15551   5.229   3.506   6.211 -0.5762  0.1345 -0.3842
  838MOL0     C15552   4.223   3.303   5.594 -0.4342 -0.5923  0.3460
  838MOL0     C15553   4.105   3.270   5.534 -0.2787 -0.4926  0.3332
  838MOL0     O15554   3.855   2.941   5.575  0.4670  0.6472  0.7415
  838MOL0     C15555   3.679   3.138   5.337  0.0208  0.9697  0.0133
  838MOL0     C15556   3.557   3.132   5.267 -0.1940 -0.3477 -0.6953
  838MOL0     N15557   2.814   3.090   5.039  0.2775 -0.9440 -0.4341
  838MOL0     N15558   2.727   3.176   5.081  0.4818 -0.6247 -0.6375
  838MOL0     C15559   2.338   3.157   4.156  0.0589  0.5183 -0.0420
  838MOL0     C15560   2.276   3.166   4.031 -0.6728  0.4179  0.8289
  838MOL0     C15561   1.962   3.116   3.694 -0.9599  0.3664 -0.4618
  838MOL0     C15562   1.835   3.110   3.742 -0.2307  0.2863  0.0990
  838MOL0     C15563   1.730   3.071   3.659  0.3416 -0.3983  0.2180
  838MOL0     C15564   1.744   3.046   3.520 -0.2093 -0.7080  0.2685
  838MOL0     O15565   1.628   3.025   3.448  0.4717  0.6488  0.5874
  838MOL0     C15566   1.630   2.986   3.306  0.8560 -0.0849  0.0465
  838MOL0     C15567   1.605   3.120   3.217 -0.1379 -0.0571  0.9339
  838MOL0     C15568   1.473   3.181   3.243 -0.4302  0.4968 -0.2540
  838MOL0     C15569   1.444   3.287   3.144 -0.4077 -0.6288 -0.5319
  838MOL0     C15570   1.323   3.354   3.182  0.0671 -0.8513  0.2425
  838MOL0     C15571   1.214   3.406   3.209  0.4710  0.0914 -1.0008
  838MOL0     C15572   1.876   3.069   3.469  0.1107 -0.9011 -0.1882
  838MOL0     C15573   1.983   3.081   3.556  0.9529 -0.2014 -0.1438
  838MOL0     C15574   2.126   3.076   3.510  0.3089  0.5066  0.5611
  838MOL0     H15575   2.216   2.839   3.985 -2.5747  1.2479  1.2287
  838MOL0     H15576   2.362   2.822   4.175  0.3629  0.9507  0.3810
  838MOL0     H15577   2.365   3.060   4.530  1.9180 -1.3636 -0.0190
  838MOL0     H15578   2.318   3.171   4.407  1.7854  1.5814 -1.4413
  838MOL0     H15579   2.603   3.151   4.506  1.8340  0.6755 -2.1391
  838MOL0     H15580   2.570   3.246   4.365 -0.1240  5.2074  1.1720
  838MOL0     H15581   2.408   3.383   4.477  1.7040 -1.8479 -1.8250
  838MOL0     H15582   2.420   3.286   4.627  2.3286  0.2198  1.3877
  838MOL0     H15583   2.660   3.344   4.657  2.1704  0.8715 -0.2118
  838MOL0     H15584   2.662   3.449   4.515 -0.5302 -0.5245 -0.4329
  838MOL0     H15585   2.492   3.579   4.630  0.7669  0.8548  0.4939
  838MOL0     H15586   2.629   3.577   4.725 -0.9320  2.0348 -2.0299
  838MOL0     H15587   2.446   3.558   4.881 -1.0746  0.3294  0.5807
  838MOL0     H15588   2.365   3.430   4.778  1.9135 -2.8899 -0.1388
  838MOL0     H15589   2.545   3.281   4.838  0.4487  0.9770 -1.4987
  838MOL0     H15590   2.445   3.324   4.976  0.0363  1.6781  1.2925
  838MOL0     H15591   2.700   3.493   4.946 -0.1850 -0.0031  0.8242
  838MOL0     H15592   2.623   3.447   5.091  1.3666 -1.0187  0.6119
  838MOL0     H15593   2.919   3.335   4.867  2.1941 -1.0401  0.5648
  838MOL0     H15594   3.014   3.124   4.780 -1.0209 -0.1556  0.1060
  838MOL0     H15595   2.994   2.981   4.887 -0.3356  0.1884 -0.3453
  838MOL0     H15596   3.226   3.086   4.882 -0.6313  1.9707 -2.4376
  838MOL0     H15597   3.160   3.241   4.925 -0.1906 -0.5981 -2.2996
  838MOL0     H15598   3.097   3.172   5.142  1.2175  2.5827 -1.4440
  838MOL0     H15599   3.137   3.006   5.128  1.3278  0.5362  1.7322
  838MOL0     H15600   3.382   3.081   5.073 -0.3975 -0.4795 -0.6816
  838MOL0     H15601   3.328   3.241   5.115  2.3995 -0.3254 -0.5945
  838MOL0     H15602   3.379   2.941   5.486  1.2290 -1.9482  0.0209
  838MOL0     H15603   3.645   2.952   5.703 -0.0982 -0.1932 -0.7049
  838MOL0     H15604   3.633   2.811   5.601  1.1894  1.5635 -3.0879
  838MOL0     H15605   3.482   2.891   5.659  0.0548 -0.3706  0.0007
  838MOL0     H15606   3.980   3.045   5.750 -1.2193  0.6796 -0.6523
  838MOL0     H15607   4.175   3.117   5.875 -1.0781 -1.1552  0.8192
  838MOL0     H15608   4.338   3.270   5.989 -1.3913 -0.5314 -1.2778
  838MOL0     H15609   4.411   3.135   5.894  0.0233  0.4589 -2.3591
  838MOL0     H15610   4.617   3.291   5.860  1.3086 -0.3983  1.4724
  838MOL0     H15611   4.529   3.413   5.948  1.2941  0.2484  2.0524
  838MOL0     H15612   4.646   3.150   6.050 -2.3588 -1.2096  1.6267
  838MOL0     H15613   4.552   3.262   6.149 -0.7237  0.4990 -1.1391
  838MOL0     H15614   4.722   3.447   6.095 -0.5677 -0.7322  1.2880
  838MOL0     H15615   4.822   3.332   6.015 -1.9498 -2.6926 -1.0321
  838MOL0     H15616   4.747   3.300   6.305  0.9616  0.2567  0.6595
  838MOL0     H15617   4.841   3.195   6.203 -2.2384  0.1654  0.3465
  838MOL0     H15618   4.903   3.472   6.315 -0.6784 -0.4643  0.6724
  838MOL0     H15619   4.969   3.443   6.161  0.1343  0.2372  0.5717
  838MOL0     H15620   5.092   3.248   6.224  0.1351 -1.2816 -0.2660
  838MOL0     H15621   5.026   3.249   6.393  2.1326  0.7808  0.8038
  838MOL0     H15622   5.259   3.344   6.391 -1.2180 -1.6795  1.2579
  838MOL0     H15623   5.134   3.465   6.423 -0.8935  1.2731 -0.9664
  838MOL0     H15624   4.285   3.378   5.546  0.7077 -1.9457 -0.3685
  838MOL0     H15625   4.080   3.323   5.442 -0.1248  0.2354  0.7015
  838MOL0     H15626   3.762   3.194   5.296  2.0371 -1.1986  0.8645
  838MOL0     H15627   3.553   3.198   5.180 -2.0776 -1.7503 -1.7367
  838MOL0     H15628   2.363   3.251   4.205  0.7676 -0.1126  0.8646
  838MOL0     H15629   2.257   3.268   4.001 -3.5829  0.0475  1.1624
  838MOL0     H15630   1.799   3.135   3.841 -0.2013 -1.3206  0.5432
  838MOL0     H15631   1.629   3.078   3.699 -0.5910 -1.4460 -1.8335
  838MOL0     H15632   1.717   2.927   3.276 -0.0861 -1.0222 -0.9449
  838MOL0     H15633   1.543   2.922   3.289 -1.9879  3.9737 -2.5171
  838MOL0     H15634   1.602   3.095   3.110  1.9766  0.0566  0.7969
  838MOL0     H15635   1.686   3.194   3.221  0.2916 -0.4113 -0.6427
  838MOL0     H15636   1.408   3.094   3.248  0.9979 -0.5859  0.1211
  838MOL0     H15637   1.474   3.234   3.338 -2.2615  2.5470 -1.2824
  838MOL0     H15638   1.434   3.235   3.049  2.0716 -1.5358 -0.3703
  838MOL0     H15639   1.531   3.352   3.137 -0.4452 -0.5250 -0.1127
  838MOL0     H15640   1.119   3.448   3.235 -0.2661 -0.7736 -2.2096
  838MOL0     H15641   1.885   3.076   3.361  1.0351  1.7976 -0.0125
  838MOL0     H15642   2.180   3.163   3.548  0.2655  0.6802  0.2359
  838MOL0     H15643   2.165   2.978   3.537 -1.9480 -0.4149  0.7254
  838MOL0     H15644   2.124   3.096   3.402  3.1631 -1.7586 -0.0333
  839MOL0     O15645   9.143   0.753   9.462 -0.1731 -0.1260 -0.9118
  839MOL0     C15646   9.103   0.806   9.565  0.3799 -0.3782  0.0635
  839MOL0     O15647   9.160   0.922   9.619  0.1018  0.1012 -0.1616
  839MOL0     C15648   9.252   1.003   9.558 -0.3356  0.0516 -0.4271
  839MOL0     C15649   9.344   1.060   9.652  0.7320  0.0741 -0.3115
  839MOL0     C15650   9.438   1.156   9.618  0.3387 -0.4993 -0.5854
  839MOL0     C15651   9.450   1.194   9.484  0.0355 -0.1524 -0.6879
  839MOL0     O15652   9.544   1.297   9.455  0.1663 -0.1202  0.3363
  839MOL0     C15653   9.569   1.326   9.310 -0.5870 -0.3272 -0.6212
  839MOL0     C15654   9.706   1.401   9.291 -0.4854 -0.6574  0.0588
  839MOL0     C15655   9.828   1.344   9.375  0.5651 -0.7550 -0.2636
  839MOL0     C15656   9.951   1.419   9.350  0.1200 -0.5069  0.0043
  839MOL0     C15657  10.081   1.357   9.419  0.1611 -0.6749 -0.8015
  839MOL0     C15658  10.196   1.462   9.424  0.7846 -0.6606  0.5662
  839MOL0     C15659  10.334   1.400   9.454  0.9921 -0.1019  0.1329
  839MOL0     C15660  10.448   1.508   9.483  0.1310 -0.3658 -0.3360
  839MOL0     N15661  10.456   1.593   9.365 -0.2495  0.2775 -0.0884
  839MOL0     C15662  10.479   1.560   9.230  0.3089  0.8845  0.3428
  839MOL0     C15663  10.453   1.676   9.152  0.4241 -0.6379 -0.4300
  839MOL0     C15664  10.470   1.676   9.003 -0.2965  0.0846 -1.3157
  839MOL0     C15665  10.616   1.706   8.969  0.3959 -0.6679 -0.0506
  839MOL0     C15666  10.715   1.598   9.019  0.4190 -0.6361  0.1232
  839MOL0     C15667  10.847   1.618   8.941  0.2829  0.4099 -0.0393
  839MOL0     O15668  10.913   1.743   8.968  0.8105  0.8091 -0.0865
  839MOL0     C15669  11.021   1.764   8.891 -0.3755  0.0645  0.5706
  839MOL0     C15670  11.154   1.773   8.943  0.0319 -0.0465 -0.6883
  839MOL0     C15671  11.266   1.821   8.866 -0.1684  0.4480  0.3037
  839MOL0     C15672  11.395   1.834   8.940 -0.4118 -0.0761  0.7530
  839MOL0     C15673  11.251   1.840   8.730  0.6116  0.1342  0.3750
  839MOL0     C15674  11.355   1.887   8.635  0.0710 -0.0897 -0.2706
  839MOL0     O15675  11.316   1.911   8.505 -0.0477  0.3970  0.2226
  839MOL0     C15676  11.416   1.955   8.427 -0.0876  0.0312  0.0460
  839MOL0     C15677  11.484   1.852   8.366 -0.2303  0.1340 -1.1404
  839MOL0     C15678  11.551   1.862   8.249 -0.2943  1.6263  0.5403
  839MOL0     C15679  11.580   2.000   8.203 -0.7847  1.0260  0.8954
  839MOL0     O15680  11.652   2.024   8.089 -0.1547 -0.8221  0.9401
  839MOL0     C15681  11.763   1.936   8.063  0.1249 -0.2850 -0.3452
  839MOL0     C15682  11.891   2.019   8.002 -0.5226 -0.2111  0.3712
  839MOL0     C15683  11.922   2.157   8.058  0.3732  0.1465  0.4267
  839MOL0     C15684  11.891   2.178   8.202  0.2703 -0.8951 -0.5701
  839MOL0     C15685  11.950   2.313   8.241  0.5549 -0.2220 -0.3916
  839MOL0     C15686  11.918   2.338   8.389  0.3990 -0.0524 -0.3018
  839MOL0     C15687  11.938   2.218   8.489  0.0816 -0.5794 -0.5807
  839MOL0     C15688  11.823   2.121   8.498  0.0231  0.0601 -0.0289
  839MOL0    Cl15689  11.685   2.223   8.571  0.0226  0.0601  0.1215
  839MOL0     C15690  11.512   2.103   8.268  0.2046 -0.9084  0.5086
  839MOL0     C15691  11.428   2.082   8.377  0.5938  0.5110  0.0060
  839MOL0     O15692  11.469   1.887   8.676  0.1057  0.4025  0.5187
  839MOL0     C15693  11.120   1.841   8.682 -0.1431  0.6703 -0.5060
  839MOL0     C15694  11.015   1.804   8.756  0.4305  0.4644 -0.2578
  839MOL0     N15695  10.411   1.768   9.243 -0.4493 -0.1281  1.0721
  839MOL0     N15696  10.415   1.723   9.367  0.2569 -0.2357  0.2247
  839MOL0     C15697   9.363   1.127   9.389 -0.0531  0.1901  0.1625
  839MOL0     C15698   9.271   1.036   9.425 -0.2927  0.2307 -0.2493
  839MOL0     C15699   9.000   0.738   9.648  0.5983  0.5628  0.3838
  839MOL0     C15700   8.929   0.815   9.739  0.1390  0.2361  0.8389
  839MOL0     C15701   8.819   0.761   9.809  0.2319  0.2869  0.4731
  839MOL0     C15702   8.778   0.626   9.794  0.1600 -1.3549 -0.1372
  839MOL0     O15703   8.677   0.566   9.865  0.5476 -0.2267 -0.4769
  839MOL0     C15704   8.575   0.647   9.936 -0.0664  0.8494 -0.4565
  839MOL0     C15705   8.483   0.553  10.016 -0.2814  0.2974 -0.7234
  839MOL0     C15706   8.386   0.631  10.110  0.3513  0.2762  0.1562
  839MOL0     C15707   8.299   0.525  10.172  0.2585 -0.5909  0.3532
  839MOL0     C15708   8.199   0.472  10.088 -0.0699  0.2575 -0.0367
  839MOL0     C15709   8.109   0.453  10.013  0.5288 -0.8279 -0.2623
  839MOL0     C15710   8.868   0.544   9.728 -0.1820 -0.1446  0.5188
  839MOL0     C15711   8.975   0.598   9.656 -0.2623 -0.4612 -0.6522
  839MOL0     C15712   9.066   0.498   9.586  0.1295 -0.2720  0.2879
  839MOL0     H15713   9.315   1.042   9.756 -5.1158  2.3518 -1.1818
  839MOL0     H15714   9.495   1.197   9.701 -1.4792 -2.2006  1.6539
  839MOL0     H15715   9.486   1.385   9.271  0.8123  1.6155 -0.8584
  839MOL0     H15716   9.586   1.233   9.255  7.1310 -1.3152  2.1398
  839MOL0     H15717   9.724   1.404   9.183 -0.4311  0.5397  0.0865
  839MOL0     H15718   9.711   1.505   9.325  0.7174 -1.0415  1.1559
  839MOL0     H15719   9.814   1.330   9.483 -0.6289 -0.1638 -0.3269
  839MOL0     H15720   9.856   1.243   9.346  2.5032 -1.6074  3.8482
  839MOL0     H15721   9.966   1.420   9.242 -0.6052  1.0691 -0.1139
  839MOL0     H15722   9.952   1.525   9.376  1.8358 -0.5998  0.4600
  839MOL0     H15723  10.120   1.265   9.374 -0.0098 -0.7673 -0.7615
  839MOL0     H15724  10.054   1.341   9.524 -0.9405 -0.9269 -1.1085
  839MOL0     H15725  10.199   1.522   9.333 -0.7639 -1.4224 -0.0420
  839MOL0     H15726  10.168   1.534   9.502 -2.9946 -3.7137  2.3923
  839MOL0     H15727  10.363   1.327   9.378 -1.0004 -0.6598 -0.1508
  839MOL0     H15728  10.327   1.342   9.547 -0.7283  0.9324  0.7135
  839MOL0     H15729  10.417   1.567   9.571 -0.6100 -4.6411  2.5912
  839MOL0     H15730  10.546   1.460   9.493 -0.4274 -1.6537 -0.8625
  839MOL0     H15731  10.496   1.462   9.188 -2.0324  0.2604  0.7565
  839MOL0     H15732  10.410   1.754   8.957  0.2250  1.2053 -0.1641
  839MOL0     H15733  10.450   1.577   8.962 -0.0524 -1.2724  1.5388
  839MOL0     H15734  10.625   1.711   8.860  0.7455 -0.0293  0.0043
  839MOL0     H15735  10.650   1.802   9.009 -0.2249  0.3127 -1.7561
  839MOL0     H15736  10.729   1.612   9.127  1.1358  0.4242 -0.0929
  839MOL0     H15737  10.679   1.499   8.991 -0.9205  0.3294 -1.8119
  839MOL0     H15738  10.917   1.540   8.973  1.7326  1.5544 -0.3216
  839MOL0     H15739  10.829   1.606   8.834 -2.4718 -0.9352  0.5009
  839MOL0     H15740  11.173   1.743   9.046 -0.4252 -1.8826 -1.1111
  839MOL0     H15741  11.379   1.826   9.048  0.5256  0.0215  0.9089
  839MOL0     H15742  11.450   1.924   8.910 -0.6479 -0.5089 -1.1076
  839MOL0     H15743  11.459   1.750   8.911 -2.9210 -1.5359 -0.9349
  839MOL0     H15744  11.483   1.755   8.414 -0.3708  1.5122  1.8324
  839MOL0     H15745  11.605   1.779   8.204 -3.9413 -0.2207 -0.8660
  839MOL0     H15746  11.798   1.883   8.152 -0.5226 -1.1778 -0.6102
  839MOL0     H15747  11.734   1.856   7.995  0.5858 -3.0976  2.5480
  839MOL0     H15748  11.975   1.949   8.001 -2.0451 -2.1352 -0.8392
  839MOL0     H15749  11.871   2.030   7.895  0.6884  1.3633  0.2789
  839MOL0     H15750  11.861   2.230   8.003  0.0846  0.1936  0.8035
  839MOL0     H15751  12.027   2.179   8.037  0.4241  1.7024  2.1010
  839MOL0     H15752  11.948   2.096   8.248  0.4116 -0.6293 -0.2748
  839MOL0     H15753  11.786   2.184   8.231  0.0176 -1.4783 -1.2967
  839MOL0     H15754  12.054   2.302   8.209  0.4205 -2.1252 -0.2342
  839MOL0     H15755  11.902   2.398   8.191  0.5300 -0.3772 -0.6297
  839MOL0     H15756  11.817   2.380   8.392 -0.0118 -0.8708 -1.8844
  839MOL0     H15757  11.990   2.417   8.411 -0.0520  0.8591 -1.9211
  839MOL0     H15758  11.962   2.271   8.582 -1.7557 -1.8273  0.6715
  839MOL0     H15759  12.026   2.165   8.453  2.1472  1.9144  0.4528
  839MOL0     H15760  11.865   2.049   8.570  1.6989  4.3830  3.8128
  839MOL0     H15761  11.799   2.072   8.403 -0.0194  0.3358 -0.1607
  839MOL0     H15762  11.532   2.204   8.236  0.5492 -1.3275 -0.6577
  839MOL0     H15763  11.381   2.164   8.430 -0.7869  1.0340 -1.9234
  839MOL0     H15764  11.100   1.875   8.580  0.2523 -0.8583 -1.1248
  839MOL0     H15765  10.919   1.804   8.704 -0.7243 -0.1858  1.7402
  839MOL0     H15766   9.366   1.140   9.281  2.6432 -1.7649 -0.1326
  839MOL0     H15767   9.195   1.010   9.351  0.9592 -3.4574 -0.4524
  839MOL0     H15768   8.952   0.921   9.746 -1.6330  0.9838 -2.5832
  839MOL0     H15769   8.767   0.832   9.872 -2.6758 -1.9498  0.8359
  839MOL0     H15770   8.610   0.725  10.005  2.5409  1.6554 -2.5318
  839MOL0     H15771   8.514   0.707   9.869 -0.7763  2.7779  1.7920
  839MOL0     H15772   8.543   0.490  10.082 -0.1275  0.3076 -0.8505
  839MOL0     H15773   8.436   0.498   9.934  2.3017 -0.9312 -1.4875
  839MOL0     H15774   8.445   0.676  10.191  1.6084 -4.4738  2.2452
  839MOL0     H15775   8.335   0.712  10.057 -0.5041 -0.4156 -0.0981
  839MOL0     H15776   8.235   0.549  10.258 -1.1161 -2.6004 -0.0407
  839MOL0     H15777   8.365   0.444  10.202  2.3280  0.9217  0.1372
  839MOL0     H15778   8.038   0.425   9.938  0.3514 -2.8935  0.6046
  839MOL0     H15779   8.864   0.436   9.729 -1.1504 -0.1355  1.9480
  839MOL0     H15780   9.065   0.505   9.477 -1.8610 -1.8398  0.1573
  839MOL0     H15781   9.172   0.518   9.605  0.7844 -0.9511 -2.2491
  839MOL0     H15782   9.051   0.396   9.622 -0.3204 -0.5799 -0.7243
  840MOL0     O15783  10.941   0.716   3.222  0.3233 -0.1446  0.5308
  840MOL0     C15784  10.999   0.789   3.298  0.1082  0.0001 -1.0840
  840MOL0     O15785  10.932   0.852   3.399  0.4786  0.2370 -0.2364
  840MOL0     C15786  11.005   0.931   3.484  0.5816  0.1167 -0.2686
  840MOL0     C15787  10.977   1.063   3.467  0.1233  0.7223  0.5488
  840MOL0     C15788  11.041   1.152   3.550  0.1685  0.3209 -0.5268
  840MOL0     C15789  11.139   1.115   3.643  1.0707  0.8629  0.8117
  840MOL0     O15790  11.212   1.213   3.705  0.6163 -0.4638  1.0822
  840MOL0     C15791  11.334   1.174   3.770 -0.1554  0.2193  0.2571
  840MOL0     C15792  11.421   1.302   3.792  0.4264  0.7011  0.0697
  840MOL0     C15793  11.560   1.272   3.828  0.6337  0.1231  0.5084
  840MOL0     C15794  11.626   1.397   3.892 -0.0181  0.2132  0.6380
  840MOL0     C15795  11.788   1.397   3.894 -1.8960 -0.3674  0.3859
  840MOL0     C15796  11.854   1.286   3.974  0.0546 -0.0042  0.7810
  840MOL0     C15797  12.007   1.304   3.980 -0.4274 -0.3163 -0.2348
  840MOL0     C15798  12.075   1.174   4.021 -0.1466  0.9902  0.2794
  840MOL0     N15799  12.228   1.183   4.031  1.0298  0.3144  1.3535
  840MOL0     C15800  12.304   1.267   4.110  0.1017  0.6095  0.5312
  840MOL0     C15801  12.430   1.231   4.089  0.1055 -0.1100 -0.3806
  840MOL0     C15802  12.554   1.276   4.154  0.3225 -0.5146 -0.3260
  840MOL0     C15803  12.588   1.180   4.257  0.4142 -0.4971 -0.0333
  840MOL0     C15804  12.741   1.194   4.282  0.7505  0.3922  0.2340
  840MOL0     C15805  12.784   1.341   4.325  0.4636  0.1563  0.0352
  840MOL0     O15806  12.926   1.348   4.325 -0.5233 -0.0570  0.3258
  840MOL0     C15807  12.982   1.472   4.333 -0.3786 -0.4342  0.7614
  840MOL0     C15808  12.911   1.590   4.313  0.3032  0.1862  0.7907
  840MOL0     C15809  12.968   1.712   4.334  0.1606  0.3203 -1.3157
  840MOL0     C15810  12.878   1.834   4.319 -0.5381  0.5460 -0.3319
  840MOL0     C15811  13.105   1.716   4.364 -0.0592  0.8141  0.3092
  840MOL0     C15812  13.184   1.842   4.383 -0.3553  0.1434 -0.1111
  840MOL0     O15813  13.116   1.935   4.462  0.0511 -0.4426 -0.5384
  840MOL0     C15814  13.177   2.055   4.491 -0.1783 -0.0394  0.3333
  840MOL0     C15815  13.098   2.166   4.463  0.3845  0.1596  0.0051
  840MOL0     C15816  13.152   2.297   4.454 -0.1042 -0.4641  1.7612
  840MOL0     C15817  13.286   2.317   4.495 -0.5514  0.6749 -0.2848
  840MOL0     O15818  13.325   2.452   4.500  0.3209  0.2218 -0.1209
  840MOL0     C15819  13.444   2.474   4.577 -0.8383 -0.3440 -0.3265
  840MOL0     C15820  13.483   2.615   4.562 -0.1886  0.1462 -0.4562
  840MOL0     C15821  13.611   2.646   4.644  0.3846 -0.2064 -0.9933
  840MOL0     C15822  13.588   2.794   4.695  0.3565  0.3365  0.5586
  840MOL0     C15823  13.696   2.827   4.802  0.0692  0.0362  0.3439
  840MOL0     C15824  13.845   2.817   4.750 -0.0765 -0.5463  0.5809
  840MOL0     C15825  13.933   2.882   4.855 -0.1611 -0.8006  0.3889
  840MOL0     C15826  14.075   2.888   4.829 -0.1957 -0.1136 -0.8341
  840MOL0    Cl15827  14.122   3.040   4.745 -0.1673  0.2516 -0.0086
  840MOL0     C15828  13.364   2.209   4.548  0.1641 -0.0103 -0.2612
  840MOL0     C15829  13.311   2.080   4.528  0.8698  0.0774  0.2265
  840MOL0     O15830  13.294   1.854   4.322  0.2268  0.4072  0.1412
  840MOL0     C15831  13.180   1.596   4.376 -0.7832 -0.2972  0.5750
  840MOL0     C15832  13.114   1.475   4.371  0.9720 -0.2711  0.4552
  840MOL0     N15833  12.434   1.125   4.007  0.5052 -1.1045 -0.3197
  840MOL0     N15834  12.310   1.087   3.975  0.5880 -0.2928  0.1130
  840MOL0     C15835  11.155   0.974   3.663 -0.3621  0.3081  0.0234
  840MOL0     C15836  11.079   0.883   3.596 -0.0336 -0.2680 -0.0357
  840MOL0     C15837  11.140   0.813   3.260  0.0687  1.4181 -0.0713
  840MOL0     C15838  11.166   0.932   3.195 -0.1577  0.1066 -0.0718
  840MOL0     C15839  11.288   0.963   3.139 -0.4620 -0.1216 -0.3964
  840MOL0     C15840  11.394   0.869   3.144 -0.3115 -0.6616 -0.5727
  840MOL0     O15841  11.525   0.885   3.095 -0.3972 -0.2312  0.4028
  840MOL0     C15842  11.575   1.014   3.060 -0.0585 -0.2269 -0.0258
  840MOL0     C15843  11.722   1.028   3.079  0.3623  0.0053 -0.0325
  840MOL0     C15844  11.818   0.990   2.964 -0.4230  0.1959  1.0740
  840MOL0     C15845  11.799   1.084   2.841  0.2452 -0.5702 -0.1990
  840MOL0     C15846  11.844   1.221   2.873  1.0231 -0.4672  0.5859
  840MOL0     C15847  11.873   1.334   2.902 -0.1637 -0.2888  0.3097
  840MOL0     C15848  11.365   0.747   3.208  0.3084  0.4090 -0.1472
  840MOL0     C15849  11.243   0.712   3.262 -0.4159  0.1270  0.7014
  840MOL0     C15850  11.230   0.587   3.343 -0.4179  0.3446 -0.0940
  840MOL0     H15851  10.901   1.103   3.400 -0.0374 -0.6182 -0.1140
  840MOL0     H15852  11.028   1.259   3.535 -1.8692  0.5375  2.1247
  840MOL0     H15853  11.396   1.114   3.704  1.6759  2.6680 -0.3945
  840MOL0     H15854  11.311   1.118   3.861  1.3091 -2.0584 -0.6852
  840MOL0     H15855  11.408   1.363   3.702 -4.9474 -0.9860 -0.6699
  840MOL0     H15856  11.377   1.368   3.867 -2.7238  0.1991 -1.2092
  840MOL0     H15857  11.548   1.187   3.896 -4.9778  1.6942  2.0578
  840MOL0     H15858  11.623   1.254   3.741  1.3966  2.3214  0.5487
  840MOL0     H15859  11.593   1.486   3.837  1.3842 -0.4297 -1.3660
  840MOL0     H15860  11.598   1.403   3.997  0.4822 -1.8842  0.9284
  840MOL0     H15861  11.822   1.496   3.928  0.0418 -0.8793  0.0455
  840MOL0     H15862  11.813   1.389   3.788 -0.3042  0.8213  0.6379
  840MOL0     H15863  11.817   1.281   4.077  0.3793 -1.4808  0.8479
  840MOL0     H15864  11.832   1.192   3.922 -0.7159  0.8570 -0.4959
  840MOL0     H15865  12.023   1.380   4.057  2.1348 -1.3006  0.3159
  840MOL0     H15866  12.040   1.331   3.879 -1.5751  0.6091 -0.3838
  840MOL0     H15867  12.041   1.147   4.121  1.5572 -0.4852  0.5092
  840MOL0     H15868  12.033   1.096   3.957  0.7563  0.9357 -0.2614
  840MOL0     H15869  12.259   1.326   4.190 -1.8676  0.7391 -0.6086
  840MOL0     H15870  12.539   1.378   4.188 -2.8709  0.1243 -3.1514
  840MOL0     H15871  12.634   1.276   4.079 -2.3685 -0.4324 -3.4049
  840MOL0     H15872  12.521   1.195   4.342  0.2219  3.8720 -0.7300
  840MOL0     H15873  12.571   1.079   4.217 -0.1116  0.1764 -1.5706
  840MOL0     H15874  12.777   1.130   4.363  3.3494 -0.0820 -1.1811
  840MOL0     H15875  12.794   1.174   4.189  1.4774 -1.0236  0.9256
  840MOL0     H15876  12.750   1.417   4.254 -0.2554 -1.4582 -1.4146
  840MOL0     H15877  12.744   1.366   4.424 -1.2003 -2.2186  0.0451
  840MOL0     H15878  12.806   1.592   4.286  0.1361 -2.7687  0.9222
  840MOL0     H15879  12.794   1.804   4.255 -0.8866  0.1968  0.2775
  840MOL0     H15880  12.922   1.923   4.273  2.9247 -0.8071  0.0859
  840MOL0     H15881  12.830   1.858   4.414  2.0114 -1.6163  1.6336
  840MOL0     H15882  12.999   2.153   4.421  0.8657 -0.6142 -0.9038
  840MOL0     H15883  13.096   2.385   4.423  3.3110  1.9434  1.9264
  840MOL0     H15884  13.416   2.451   4.680  0.8124  0.1780  0.2671
  840MOL0     H15885  13.526   2.412   4.538  1.1214  1.2038  1.1453
  840MOL0     H15886  13.508   2.637   4.457 -2.2460 -0.2879 -1.0759
  840MOL0     H15887  13.397   2.677   4.587 -0.5871  0.0373 -1.5080
  840MOL0     H15888  13.700   2.631   4.582  0.1970  2.0212 -1.9032
  840MOL0     H15889  13.625   2.590   4.736 -0.9937  1.6394  0.4078
  840MOL0     H15890  13.489   2.802   4.739 -0.0181 -1.2686  0.0920
  840MOL0     H15891  13.601   2.857   4.607 -0.4451 -3.6214 -2.7474
  840MOL0     H15892  13.683   2.935   4.810 -1.2833 -0.2495  2.6004
  840MOL0     H15893  13.667   2.774   4.893 -0.6727  1.0862  0.7343
  840MOL0     H15894  13.853   2.876   4.658  2.6829 -0.0002  1.0705
  840MOL0     H15895  13.874   2.714   4.730 -2.0760 -0.8078 -1.2821
  840MOL0     H15896  13.915   2.827   4.948 -3.2254 -1.1396 -0.2970
  840MOL0     H15897  13.883   2.977   4.879  1.1362 -0.3507  1.4838
  840MOL0     H15898  14.109   2.800   4.774 -1.3370 -0.0643 -1.6511
  840MOL0     H15899  14.122   2.878   4.927 -2.2108 -1.2082  0.0658
  840MOL0     H15900  13.465   2.221   4.586  0.9418 -2.6434 -1.2636
  840MOL0     H15901  13.387   2.005   4.547  3.1419  2.2185  0.1491
  840MOL0     H15902  13.287   1.604   4.393 -0.7681  0.6784  0.0817
  840MOL0     H15903  13.159   1.377   4.385  0.4907 -0.6402 -0.4771
  840MOL0     H15904  11.222   0.921   3.730 -2.7494 -3.8064 -0.4864
  840MOL0     H15905  11.088   0.781   3.632 -3.0432 -0.1430  1.3216
  840MOL0     H15906  11.082   0.997   3.174 -1.1637 -1.2856 -0.5232
  840MOL0     H15907  11.294   1.063   3.098 -0.0459 -0.3318 -0.8720
  840MOL0     H15908  11.552   1.051   2.959 -1.1214  1.8095  0.9140
  840MOL0     H15909  11.519   1.088   3.117 -0.3952  0.5538 -1.3276
  840MOL0     H15910  11.756   0.970   3.165  2.6258  0.3006 -0.6686
  840MOL0     H15911  11.742   1.133   3.103 -0.8522  0.5562 -1.2815
  840MOL0     H15912  11.922   1.008   2.994  0.1820 -1.7293  0.3484
  840MOL0     H15913  11.810   0.883   2.939  1.4972  0.4357 -0.8483
  840MOL0     H15914  11.694   1.082   2.813  0.5612 -0.3298 -1.4610
  840MOL0     H15915  11.854   1.043   2.755  2.8015 -2.2808  2.0721
  840MOL0     H15916  11.908   1.434   2.921  0.7852 -0.7559  1.0961
  840MOL0     H15917  11.447   0.678   3.230  0.1043 -0.5823 -2.2876
  840MOL0     H15918  11.175   0.515   3.281 -0.9413  0.5268  0.1543
  840MOL0     H15919  11.333   0.553   3.360 -0.1657  1.6308  1.0980
  840MOL0     H15920  11.186   0.607   3.441  0.1724 -1.2451  0.5204
  841MOL0     O15921   3.234   1.330   0.270 -0.2383  0.2215 -0.0816
  841MOL0     C15922   3.119   1.361   0.245  0.0014 -0.4171  0.5548
  841MOL0     O15923   3.076   1.390   0.114  0.5106  0.2633 -0.7343
  841MOL0     C15924   3.154   1.398   0.000  0.3791  0.4131 -0.5421
  841MOL0     C15925   3.084   1.390  -0.120  0.1544 -0.0840 -0.7236
  841MOL0     C15926   3.152   1.384  -0.245  0.8300  0.4446 -0.3755
  841MOL0     C15927   3.295   1.377  -0.243  1.5636 -0.2460 -0.2262
  841MOL0     O15928   3.355   1.369  -0.363 -0.6815 -0.2594  0.1082
  841MOL0     C15929   3.350   1.245  -0.436 -0.0516 -0.1039  0.6929
  841MOL0     C15930   3.479   1.174  -0.403  1.0659  0.3242  0.8092
  841MOL0     C15931   3.500   1.054  -0.501  0.0901 -0.1469  0.5101
  841MOL0     C15932   3.646   1.012  -0.505 -0.5394  0.7625  0.7107
  841MOL0     C15933   3.678   0.935  -0.633  0.4798 -0.0258  0.3590
  841MOL0     C15934   3.799   0.849  -0.619 -0.3313 -0.5292  0.7340
  841MOL0     C15935   3.842   0.792  -0.761  0.6163 -0.8606 -0.5089
  841MOL0     C15936   3.897   0.900  -0.858 -1.1250  0.2169  0.4351
  841MOL0     N15937   3.990   0.839  -0.957 -0.2486  0.0830  0.6351
  841MOL0     C15938   3.951   0.766  -1.065  0.9704 -0.7468 -0.5748
  841MOL0     C15939   4.067   0.733  -1.125 -0.3895  0.4148  0.4679
  841MOL0     C15940   4.092   0.655  -1.253  1.0649 -0.4006 -0.8321
  841MOL0     C15941   4.113   0.759  -1.368 -0.0584 -0.8073  1.0983
  841MOL0     C15942   4.240   0.726  -1.450 -0.6765  0.3913  0.4710
  841MOL0     C15943   4.367   0.776  -1.388 -0.6546 -0.8569  0.5656
  841MOL0     O15944   4.365   0.919  -1.376  0.5620 -0.0992 -0.0878
  841MOL0     C15945   4.475   0.970  -1.314  0.3561 -0.2988  1.3041
  841MOL0     C15946   4.502   1.106  -1.340  0.1824  0.3086  0.2187
  841MOL0     C15947   4.602   1.172  -1.283  0.4562  0.9194  0.0845
  841MOL0     C15948   4.605   1.318  -1.305  0.3867 -0.0223  0.0206
  841MOL0     C15949   4.695   1.103  -1.195 -0.3783 -0.4437  0.3940
  841MOL0     C15950   4.822   1.159  -1.143 -0.1223 -0.3817  0.4148
  841MOL0     O15951   4.876   1.098  -1.034 -0.4028  0.0119 -0.1179
  841MOL0     C15952   5.005   1.129  -0.999 -1.4349  0.2631  0.4196
  841MOL0     C15953   5.010   1.233  -0.907 -0.5061  0.0758 -1.0919
  841MOL0     C15954   5.125   1.262  -0.841 -0.6801  0.5440 -0.0898
  841MOL0     C15955   5.244   1.195  -0.870  0.5994 -0.2540 -0.8028
  841MOL0     O15956   5.365   1.248  -0.823 -1.0420  0.0654 -0.3548
  841MOL0     C15957   5.370   1.334  -0.705 -0.0546 -0.9539  0.3230
  841MOL0     C15958   5.514   1.348  -0.665 -0.1907  0.2940  0.0364
  841MOL0     C15959   5.544   1.446  -0.554  0.0038  0.5688 -0.4121
  841MOL0     C15960   5.682   1.503  -0.547  0.5438  0.2940  0.0822
  841MOL0     C15961   5.798   1.400  -0.572  1.3553  0.2339 -0.8002
  841MOL0     C15962   5.931   1.470  -0.562  0.4524  0.0402 -0.6551
  841MOL0     C15963   6.053   1.382  -0.562 -0.4219 -0.3837 -0.3240
  841MOL0     C15964   6.128   1.355  -0.691  0.0282  0.0019 -0.6886
  841MOL0    Cl15965   6.278   1.267  -0.653  0.2246 -0.3353  0.1114
  841MOL0     C15966   5.236   1.097  -0.972 -0.1766  0.0773  0.2507
  841MOL0     C15967   5.118   1.062  -1.036  0.3174  0.0372 -0.2231
  841MOL0     O15968   4.871   1.255  -1.198 -0.2223 -0.0885 -0.4407
  841MOL0     C15969   4.679   0.962  -1.179 -0.0928 -1.3086 -0.1636
  841MOL0     C15970   4.571   0.900  -1.237  0.4156 -0.0422  0.9073
  841MOL0     N15971   4.170   0.796  -1.067  0.1173  0.6429  0.4447
  841MOL0     N15972   4.126   0.864  -0.967  0.2716 -0.8144 -0.0753
  841MOL0     C15973   3.367   1.397  -0.126 -0.0960 -0.2166 -0.1810
  841MOL0     C15974   3.297   1.411  -0.000  0.3506  0.1568 -0.1725
  841MOL0     C15975   3.018   1.375   0.351 -0.4501  0.3350  1.1514
  841MOL0     C15976   2.911   1.455   0.319 -0.4160  0.1886 -0.0698
  841MOL0     C15977   2.793   1.452   0.395  0.2363  0.4984  0.1014
  841MOL0     C15978   2.796   1.376   0.517  0.5344 -0.5619 -1.1586
  841MOL0     O15979   2.690   1.369   0.605  0.9682 -0.3856  0.0204
  841MOL0     C15980   2.565   1.445   0.579 -0.1887 -0.5170  0.3722
  841MOL0     C15981   2.456   1.455   0.689  0.6219  0.0640  0.3756
  841MOL0     C15982   2.386   1.325   0.733 -0.7369  0.0007 -0.0748
  841MOL0     C15983   2.493   1.259   0.825  0.1059 -0.8975  0.8860
  841MOL0     C15984   2.496   1.112   0.809  0.2630  0.6005 -0.5335
  841MOL0     C15985   2.486   0.990   0.806 -0.9158  0.0827 -0.1464
  841MOL0     C15986   2.901   1.300   0.553 -0.1084  0.9390 -0.0558
  841MOL0     C15987   3.012   1.294   0.466  0.9305 -0.4564 -0.4649
  841MOL0     C15988   3.113   1.203   0.531  0.7553 -0.4758 -0.3308
  841MOL0     H15989   2.978   1.369  -0.110  0.4429 -0.3559  3.3869
  841MOL0     H15990   3.112   1.363  -0.344  0.9586 -2.7869  0.1297
  841MOL0     H15991   3.340   1.275  -0.541  0.7713  1.5324  1.0431
  841MOL0     H15992   3.266   1.179  -0.413 -2.8309  1.7196 -3.0981
  841MOL0     H15993   3.563   1.245  -0.399  1.8074 -0.5262  0.6375
  841MOL0     H15994   3.465   1.145  -0.299 -2.6763  2.6304  1.1610
  841MOL0     H15995   3.432   0.969  -0.486 -1.0286  0.1937 -2.0412
  841MOL0     H15996   3.475   1.085  -0.603 -3.0190 -2.5845  0.3862
  841MOL0     H15997   3.712   1.100  -0.499  1.8533 -0.7970 -0.9842
  841MOL0     H15998   3.665   0.942  -0.423 -1.1852 -1.4181 -0.9072
  841MOL0     H15999   3.673   1.011  -0.711 -2.8931 -0.8745 -0.4219
  841MOL0     H16000   3.599   0.865  -0.661  1.7568 -0.8111 -1.5694
  841MOL0     H16001   3.878   0.907  -0.569  0.1463  0.7908 -1.3899
  841MOL0     H16002   3.781   0.774  -0.542 -2.0151 -0.7817  0.1322
  841MOL0     H16003   3.750   0.751  -0.804 -0.2865  1.7832 -1.2747
  841MOL0     H16004   3.911   0.709  -0.746  1.0635 -0.7324 -1.7185
  841MOL0     H16005   3.822   0.928  -0.933  1.4615 -2.1689 -3.4557
  841MOL0     H16006   3.933   0.990  -0.808 -0.1941  0.6570 -0.9735
  841MOL0     H16007   3.854   0.741  -1.107  2.1043 -1.5785 -2.9363
  841MOL0     H16008   4.004   0.595  -1.279  1.0189 -0.2925 -0.9292
  841MOL0     H16009   4.178   0.590  -1.237  0.8217 -0.5253 -0.0406
  841MOL0     H16010   4.025   0.769  -1.432  1.8169 -0.1887 -1.5454
  841MOL0     H16011   4.128   0.857  -1.321 -1.1539 -0.7853  1.4305
  841MOL0     H16012   4.251   0.620  -1.475 -2.4486  0.8974 -3.0192
  841MOL0     H16013   4.228   0.772  -1.548  2.2964  1.1156  0.3331
  841MOL0     H16014   4.384   0.720  -1.295 -0.3026  0.3409  1.2511
  841MOL0     H16015   4.453   0.755  -1.452 -1.3599  2.7367 -1.8708
  841MOL0     H16016   4.442   1.155  -1.416  2.3617 -0.8274 -2.3943
  841MOL0     H16017   4.693   1.358  -1.357 -0.9885  2.4896 -0.5520
  841MOL0     H16018   4.604   1.365  -1.206  1.3982  0.7685 -0.3224
  841MOL0     H16019   4.517   1.363  -1.353 -0.7087  0.5834  2.4371
  841MOL0     H16020   4.917   1.276  -0.870 -1.5477 -3.4080  0.8467
  841MOL0     H16021   5.122   1.340  -0.765  1.9430 -0.2300  0.9327
  841MOL0     H16022   5.338   1.437  -0.724 -0.4824 -0.8823  1.3907
  841MOL0     H16023   5.307   1.292  -0.626 -1.9909 -4.4235 -2.7229
  841MOL0     H16024   5.534   1.245  -0.635 -0.2782  0.0002 -0.8734
  841MOL0     H16025   5.580   1.365  -0.751 -1.6101  0.9486 -0.9633
  841MOL0     H16026   5.514   1.404  -0.458  1.4873  3.6999  1.5685
  841MOL0     H16027   5.472   1.528  -0.561 -1.6543 -0.8223 -0.0854
  841MOL0     H16028   5.694   1.540  -0.445  1.6266 -2.6939  1.1597
  841MOL0     H16029   5.691   1.579  -0.625  0.8486 -2.0089 -2.2794
  841MOL0     H16030   5.787   1.332  -0.487 -3.6613  2.6367  0.8663
  841MOL0     H16031   5.788   1.351  -0.669 -2.2999  1.5722 -1.2653
  841MOL0     H16032   5.935   1.528  -0.470 -1.1661 -0.0592 -0.4983
  841MOL0     H16033   5.933   1.539  -0.647 -0.0975 -0.2123 -0.8832
  841MOL0     H16034   6.016   1.289  -0.518  0.4557 -0.8465 -0.5339
  841MOL0     H16035   6.119   1.435  -0.492 -0.6099  0.3363 -0.6859
  841MOL0     H16036   6.141   1.440  -0.758 -1.0268 -0.9305 -2.1373
  841MOL0     H16037   6.068   1.286  -0.751  1.7697 -1.5580 -0.7313
  841MOL0     H16038   5.323   1.034  -0.989  0.1722  0.2892  1.1538
  841MOL0     H16039   5.116   0.974  -1.099 -0.8335 -1.3219  1.6015
  841MOL0     H16040   4.742   0.915  -1.104  0.4289  1.8526  1.5635
  841MOL0     H16041   4.560   0.794  -1.218 -3.0429  0.0984  0.4704
  841MOL0     H16042   3.475   1.399  -0.131 -0.1656  0.8314 -3.5661
  841MOL0     H16043   3.355   1.424   0.090 -0.1788 -0.5724  0.2770
  841MOL0     H16044   2.900   1.507   0.224  1.4142 -0.0752 -0.4612
  841MOL0     H16045   2.708   1.504   0.354 -0.7800 -1.4418 -0.3864
  841MOL0     H16046   2.597   1.548   0.561  1.6157 -0.5475  2.9440
  841MOL0     H16047   2.521   1.398   0.491 -1.5001 -2.1463  1.8195
  841MOL0     H16048   2.362   1.500   0.656 -0.1885 -0.6250  1.6422
  841MOL0     H16049   2.489   1.517   0.773 -2.0732  2.4349 -0.1528
  841MOL0     H16050   2.294   1.341   0.790 -1.2471 -2.6773 -0.0497
  841MOL0     H16051   2.377   1.261   0.645  3.2532  1.3173 -1.7025
  841MOL0     H16052   2.470   1.282   0.929 -1.4530  1.1369  0.1650
  841MOL0     H16053   2.596   1.294   0.810  0.3954 -2.2912 -0.6982
  841MOL0     H16054   2.484   0.883   0.812 -1.0525 -0.0572 -2.0588
  841MOL0     H16055   2.888   1.258   0.652 -1.5772  4.6931  1.5540
  841MOL0     H16056   3.067   1.110   0.566 -2.5107  1.6894  1.6098
  841MOL0     H16057   3.184   1.173   0.453  1.4833 -1.6024  0.7229
  841MOL0     H16058   3.172   1.256   0.606  0.6920  0.2782 -0.8081
  842MOL0     O16059  10.260   0.816   7.645  0.6368  0.5016 -0.5555
  842MOL0     C16060  10.347   0.869   7.573  0.2297  0.1251 -0.3783
  842MOL0     O16061  10.317   0.959   7.477  0.0663 -0.1915  0.7532
  842MOL0     C16062  10.218   1.049   7.481 -0.0190 -0.3170 -0.8006
  842MOL0     C16063  10.146   1.091   7.373  0.7838  0.2918  0.5823
  842MOL0     C16064  10.053   1.193   7.384 -0.2747 -0.4817 -1.0044
  842MOL0     C16065  10.039   1.254   7.509 -0.5481 -0.1319 -0.0183
  842MOL0     O16066   9.955   1.364   7.501  0.6357 -0.1236 -0.7295
  842MOL0     C16067   9.905   1.423   7.617 -0.5465  0.0442 -0.6286
  842MOL0     C16068   9.802   1.540   7.585 -0.2432  0.6361 -0.7590
  842MOL0     C16069   9.662   1.490   7.564  0.3783  0.5484  0.1440
  842MOL0     C16070   9.550   1.594   7.567 -0.0681 -0.1031  0.0138
  842MOL0     C16071   9.419   1.524   7.570  0.5608  0.6699 -0.0460
  842MOL0     C16072   9.306   1.623   7.544 -0.5071 -0.2117 -0.2986
  842MOL0     C16073   9.293   1.718   7.672  0.5694  0.4228  0.0733
  842MOL0     C16074   9.185   1.829   7.663 -0.3454  0.7231 -0.2916
  842MOL0     N16075   9.217   1.903   7.539 -0.0865 -0.8135 -0.0428
  842MOL0     C16076   9.345   1.959   7.519 -0.2773 -0.3075  0.7906
  842MOL0     C16077   9.320   2.033   7.403 -0.1940 -0.0631  0.4904
  842MOL0     C16078   9.413   2.115   7.316  0.0382  1.0105  0.8631
  842MOL0     C16079   9.496   2.016   7.226 -0.4452 -0.3782 -0.4783
  842MOL0     C16080   9.602   1.927   7.296  0.0692  0.2227  0.2787
  842MOL0     C16081   9.711   2.021   7.344  0.2111 -0.3167  0.8657
  842MOL0     O16082   9.796   2.042   7.228 -0.2961  0.0221 -0.1303
  842MOL0     C16083   9.907   1.965   7.210 -0.9807 -0.0432  0.2774
  842MOL0     C16084   9.962   1.870   7.297 -0.8103  0.4714 -1.1016
  842MOL0     C16085  10.077   1.791   7.260  0.0151  0.4196 -1.0039
  842MOL0     C16086  10.138   1.705   7.369  0.0543  0.3241  0.1410
  842MOL0     C16087  10.134   1.803   7.136 -0.5734 -0.3003  0.1001
  842MOL0     C16088  10.256   1.709   7.090  0.1840  1.3492  0.5385
  842MOL0     O16089  10.307   1.611   7.175 -0.3280 -1.0394  0.0310
  842MOL0     C16090  10.418   1.534   7.140 -0.2006  0.9788 -0.1318
  842MOL0     C16091  10.541   1.583   7.094  1.3589  0.0170  0.6084
  842MOL0     C16092  10.653   1.507   7.081  0.4336 -0.2248  0.0340
  842MOL0     C16093  10.639   1.374   7.116 -0.7831  0.5585  0.5610
  842MOL0     O16094  10.759   1.298   7.111  0.4552 -0.7206 -0.0782
  842MOL0     C16095  10.757   1.179   7.034 -0.1406  0.0815  0.0764
  842MOL0     C16096  10.774   1.211   6.884  1.0214 -0.7504 -0.4279
  842MOL0     C16097  10.756   1.092   6.785  0.5444  0.0702 -0.2711
  842MOL0     C16098  10.756   1.133   6.632  0.3900  0.4230  0.2794
  842MOL0     C16099  10.735   1.010   6.548  0.0721  1.1506  0.1132
  842MOL0     C16100  10.692   1.028   6.407 -0.5829 -0.1788  0.0411
  842MOL0     C16101  10.542   1.071   6.405 -0.4556  0.0385 -0.2491
  842MOL0     C16102  10.493   1.082   6.264 -0.3812  0.0238  1.0283
  842MOL0    Cl16103  10.579   1.218   6.186  0.1463  0.2032  0.5302
  842MOL0     C16104  10.520   1.310   7.142 -0.1308 -0.2945  0.6861
  842MOL0     C16105  10.403   1.396   7.167 -0.2070 -0.8521 -0.3348
  842MOL0     O16106  10.311   1.733   6.984  0.6221 -0.4009 -0.2915
  842MOL0     C16107  10.086   1.901   7.050  0.3928 -0.3403 -0.7244
  842MOL0     C16108   9.975   1.984   7.092 -0.9522 -1.0557 -0.1642
  842MOL0     N16109   9.189   2.022   7.367 -0.7677 -0.4213  0.7508
  842MOL0     N16110   9.123   1.945   7.449  0.7677  0.6575  0.8703
  842MOL0     C16111  10.115   1.216   7.620 -0.3936  1.2287 -0.4206
  842MOL0     C16112  10.202   1.117   7.610  0.1939 -0.4711  0.0401
  842MOL0     C16113  10.493   0.825   7.586 -0.5688  0.1221  0.3466
  842MOL0     C16114  10.581   0.843   7.482  0.2460  0.7893 -0.2980
  842MOL0     C16115  10.717   0.798   7.495 -0.3606  0.3945 -0.0283
  842MOL0     C16116  10.771   0.744   7.605  0.2842 -0.8377  0.2927
  842MOL0     O16117  10.907   0.716   7.617  1.1249 -0.2513  0.0351
  842MOL0     C16118  10.970   0.635   7.507 -0.4313  0.0366  0.3349
  842MOL0     C16119  11.027   0.510   7.584  0.1739 -0.3839 -0.6752
  842MOL0     C16120  11.173   0.524   7.636  0.3644 -0.3698 -0.4892
  842MOL0     C16121  11.186   0.635   7.736 -0.8287 -0.0575  1.1004
  842MOL0     C16122  11.096   0.628   7.849  0.0920  0.0540  0.0764
  842MOL0     C16123  11.034   0.619   7.948 -0.5263 -0.5592 -0.6104
  842MOL0     C16124  10.688   0.733   7.715 -0.1091  1.0220  1.2786
  842MOL0     C16125  10.552   0.770   7.709 -0.4907 -0.2566 -0.5035
  842MOL0     C16126  10.478   0.765   7.848 -0.4608  0.3567  0.9581
  842MOL0     H16127  10.160   1.041   7.277  0.0873 -0.3738  0.8130
  842MOL0     H16128   9.994   1.233   7.302 -1.8509 -2.5019 -0.9430
  842MOL0     H16129   9.988   1.469   7.671  0.3495 -0.6528 -1.3626
  842MOL0     H16130   9.861   1.353   7.688  1.7755 -1.0629 -0.1590
  842MOL0     H16131   9.785   1.597   7.677  2.6292  1.1678 -0.4878
  842MOL0     H16132   9.823   1.601   7.497  0.8649  2.1156  0.4770
  842MOL0     H16133   9.660   1.458   7.459 -0.2723 -0.7377  0.5297
  842MOL0     H16134   9.631   1.406   7.626 -2.2809 -0.5494 -2.4046
  842MOL0     H16135   9.550   1.659   7.656  0.8090 -2.8298  2.1501
  842MOL0     H16136   9.566   1.654   7.477  2.2553 -0.0480  0.4069
  842MOL0     H16137   9.397   1.484   7.670 -3.8706  1.8732 -0.3137
  842MOL0     H16138   9.412   1.443   7.498  2.3506  0.8425 -0.4480
  842MOL0     H16139   9.318   1.683   7.453 -0.5052 -0.8676 -0.7347
  842MOL0     H16140   9.214   1.565   7.534 -1.2193  0.9982 -1.0693
  842MOL0     H16141   9.388   1.763   7.702  1.1286  0.7629 -2.0364
  842MOL0     H16142   9.275   1.648   7.753  1.0878 -2.1572 -1.8828
  842MOL0     H16143   9.093   1.772   7.644  0.6670 -0.2374 -2.6581
  842MOL0     H16144   9.165   1.894   7.749 -3.6383 -0.9715  0.4153
  842MOL0     H16145   9.438   1.934   7.570  0.1036 -0.4902  0.0115
  842MOL0     H16146   9.474   2.168   7.390  1.6419 -0.3716  0.5847
  842MOL0     H16147   9.346   2.173   7.253 -0.1972  0.1758  0.3350
  842MOL0     H16148   9.427   1.943   7.182  1.0002 -1.3842 -1.1622
  842MOL0     H16149   9.546   2.075   7.149 -1.0033  1.5394  0.5803
  842MOL0     H16150   9.560   1.873   7.382  2.4778  0.9981  2.0559
  842MOL0     H16151   9.645   1.862   7.219  0.6890  0.5336  0.3569
  842MOL0     H16152   9.670   2.117   7.377 -2.2518 -1.2094  0.6517
  842MOL0     H16153   9.766   1.974   7.425  1.6942 -2.0665 -1.0333
  842MOL0     H16154   9.912   1.851   7.391  0.1709  0.0296 -0.6543
  842MOL0     H16155  10.242   1.730   7.390 -0.4766  0.9922  2.2616
  842MOL0     H16156  10.137   1.601   7.336  0.0192  1.0595 -2.3984
  842MOL0     H16157  10.077   1.712   7.459 -0.7599 -0.9662 -0.2869
  842MOL0     H16158  10.547   1.686   7.062  1.5722  0.0079  0.6171
  842MOL0     H16159  10.741   1.551   7.036  1.8979 -2.9630  0.0483
  842MOL0     H16160  10.840   1.115   7.065  0.1427  1.0124  1.3304
  842MOL0     H16161  10.671   1.115   7.055  2.8315 -3.2867  3.6171
  842MOL0     H16162  10.691   1.276   6.855  0.2805 -0.2320  2.5573
  842MOL0     H16163  10.873   1.257   6.877  0.1643  0.8780 -3.5553
  842MOL0     H16164  10.661   1.041   6.804  3.1516 -4.5063  2.3822
  842MOL0     H16165  10.833   1.016   6.801 -0.8218 -1.2937  0.0613
  842MOL0     H16166  10.852   1.183   6.613  0.4962  0.5004  0.9672
  842MOL0     H16167  10.687   1.216   6.611  1.7053  1.2832 -0.8124
  842MOL0     H16168  10.833   0.962   6.548 -0.2737  0.3671 -1.5986
  842MOL0     H16169  10.660   0.945   6.595  0.7392 -0.6158 -1.1626
  842MOL0     H16170  10.717   0.939   6.350  0.0865  0.5387 -0.8087
  842MOL0     H16171  10.750   1.113   6.371 -1.1990  0.7702  1.1752
  842MOL0     H16172  10.528   1.170   6.449  3.7274  0.5970  0.2021
  842MOL0     H16173  10.490   0.994   6.462  3.1292 -3.4856 -1.2735
  842MOL0     H16174  10.391   1.121   6.261  0.1719  1.5193  0.6368
  842MOL0     H16175  10.493   0.985   6.214 -1.9131 -0.2584  1.5246
  842MOL0     H16176  10.514   1.202   7.155 -4.2681 -0.4353 -0.8294
  842MOL0     H16177  10.305   1.355   7.191 -0.4600  0.3297  0.7200
  842MOL0     H16178  10.149   1.928   6.966  2.4354 -1.6720  0.2912
  842MOL0     H16179   9.940   2.056   7.019  0.2480 -0.1734  0.0981
  842MOL0     H16180  10.118   1.273   7.712  0.6899  0.9029 -0.2484
  842MOL0     H16181  10.261   1.088   7.696  2.0151  0.2623 -0.9104
  842MOL0     H16182  10.557   0.882   7.383  1.0412  1.7315 -0.1365
  842MOL0     H16183  10.780   0.809   7.407 -2.1515 -0.5842 -1.4879
  842MOL0     H16184  10.897   0.609   7.429  0.3021  1.8995 -1.0360
  842MOL0     H16185  11.053   0.690   7.462 -0.4388 -1.0606 -1.0958
  842MOL0     H16186  11.038   0.437   7.503  1.0334 -0.1567 -0.7722
  842MOL0     H16187  10.958   0.468   7.657  0.4842  2.0741  1.1567
  842MOL0     H16188  11.189   0.438   7.702  0.9081 -0.2340 -0.4414
  842MOL0     H16189  11.240   0.543   7.552 -2.4202  1.0681 -2.5360
  842MOL0     H16190  11.175   0.738   7.703 -1.2748 -0.3181  0.4178
  842MOL0     H16191  11.289   0.624   7.771 -0.1844 -1.0799 -0.9653
  842MOL0     H16192  10.987   0.606   8.044  0.6767  1.5500  0.3309
  842MOL0     H16193  10.719   0.695   7.812 -0.7306  0.4664  1.2696
  842MOL0     H16194  10.531   0.788   7.941 -2.8262 -3.5572  3.5761
  842MOL0     H16195  10.403   0.842   7.829 -1.1898 -1.0002 -2.4560
  842MOL0     H16196  10.425   0.670   7.863  0.0444 -0.4804 -1.8960
  843MOL0     O16197  11.347   9.168   7.849  0.0110 -0.1242  0.1720
  843MOL0     C16198  11.467   9.180   7.866 -0.3261 -0.4794 -0.3461
  843MOL0     O16199  11.557   9.085   7.862  0.0572  0.0968  0.7006
  843MOL0     C16200  11.536   8.948   7.852 -0.1589 -0.3014 -0.1494
  843MOL0     C16201  11.627   8.870   7.784  0.2231 -0.2448 -0.3428
  843MOL0     C16202  11.616   8.730   7.788  0.0119 -0.2658 -0.1140
  843MOL0     C16203  11.501   8.672   7.850  0.5599 -0.5131 -1.0314
  843MOL0     O16204  11.495   8.535   7.846  0.2074  0.6428  0.1742
  843MOL0     C16205  11.355   8.483   7.845 -0.6961 -0.4835  0.8769
  843MOL0     C16206  11.286   8.523   7.716 -0.0530 -0.5760 -0.1262
  843MOL0     C16207  11.300   8.418   7.604  0.5826 -0.2489  0.8554
  843MOL0     C16208  11.235   8.447   7.458  0.3055 -1.0202  0.5899
  843MOL0     C16209  11.332   8.538   7.385  0.5138  0.8069 -0.2440
  843MOL0     C16210  11.256   8.652   7.327  1.0652  0.1695  0.2790
  843MOL0     C16211  11.355   8.743   7.247 -0.0552  0.3117 -0.5032
  843MOL0     C16212  11.288   8.822   7.138  0.3109 -0.0037  0.8940
  843MOL0     N16213  11.381   8.883   7.040 -0.5665 -0.7634 -0.5748
  843MOL0     C16214  11.462   8.990   7.078 -0.6474 -1.0239  0.2643
  843MOL0     C16215  11.540   9.025   6.970  0.2700  0.3487 -0.4944
  843MOL0     C16216  11.659   9.114   6.941  1.0449 -0.1040  0.0829
  843MOL0     C16217  11.652   9.251   7.010 -0.3983 -0.7599 -0.1181
  843MOL0     C16218  11.781   9.338   6.980  0.3434 -0.7664  0.0249
  843MOL0     C16219  11.906   9.276   7.057  0.6687 -0.9173 -0.3885
  843MOL0     O16220  11.899   9.249   7.198  0.5602 -0.5273 -0.2800
  843MOL0     C16221  11.924   9.344   7.305  0.0979  0.4590 -0.2501
  843MOL0     C16222  11.878   9.321   7.440  0.1515 -0.0081  0.9933
  843MOL0     C16223  11.890   9.418   7.535  0.3732 -0.3827  0.1617
  843MOL0     C16224  11.861   9.378   7.676 -0.5431 -0.5403 -0.5495
  843MOL0     C16225  11.943   9.542   7.497  0.2121 -0.2133 -0.0181
  843MOL0     C16226  11.935   9.654   7.593 -0.6116  0.3685 -1.1363
  843MOL0     O16227  12.060   9.715   7.626 -0.5115  0.4755  0.6142
  843MOL0     C16228  12.056   9.832   7.694 -0.2541 -1.0710 -0.6894
  843MOL0     C16229  12.145   9.846   7.803  0.4135  0.2710  0.6169
  843MOL0     C16230  12.138   9.956   7.882  0.8420 -0.0176 -1.3685
  843MOL0     C16231  12.044  10.058   7.860 -0.1808  0.0281  0.5923
  843MOL0     O16232  12.035  10.172   7.939 -0.5752  1.1674 -0.0919
  843MOL0     C16233  12.152  10.218   8.010  0.4800 -0.2725  0.5427
  843MOL0     C16234  12.109  10.292   8.135 -0.2177 -0.1361  0.3038
  843MOL0     C16235  12.044  10.206   8.232 -0.2379 -0.2656 -0.6198
  843MOL0     C16236  12.014  10.275   8.365 -0.0074  0.4195  0.9652
  843MOL0     C16237  12.121  10.373   8.414  0.1410 -0.7752 -0.5706
  843MOL0     C16238  12.080  10.421   8.552  0.9384  0.5603 -0.2530
  843MOL0     C16239  12.179  10.523   8.605  0.5290  0.0121 -0.0481
  843MOL0     C16240  12.150  10.548   8.753  0.7376  0.3472  0.4617
  843MOL0    Cl16241  12.228  10.699   8.810  0.0390 -0.3536 -0.4275
  843MOL0     C16242  11.950  10.048   7.752 -0.0185  0.0286  0.1207
  843MOL0     C16243  11.965   9.931   7.671 -0.5809 -0.9281  0.3921
  843MOL0     O16244  11.828   9.681   7.645 -0.5328 -0.1417 -1.0257
  843MOL0     C16245  11.999   9.563   7.373  1.0726  0.5709 -0.2449
  843MOL0     C16246  11.994   9.467   7.278 -0.7693  0.4130 -0.0484
  843MOL0     N16247  11.498   8.937   6.869  0.2166  0.5866 -0.2602
  843MOL0     N16248  11.410   8.858   6.914 -0.1440 -0.2171  0.0803
  843MOL0     C16249  11.409   8.754   7.920 -0.7333 -0.9772  0.9762
  843MOL0     C16250  11.424   8.892   7.913 -0.0947 -0.1679  0.6349
  843MOL0     C16251  11.520   9.320   7.905  0.0946 -0.4103  1.0477
  843MOL0     C16252  11.458   9.429   7.844 -0.7622  1.2573 -0.1465
  843MOL0     C16253  11.507   9.562   7.852  0.3301 -0.0855  1.2589
  843MOL0     C16254  11.622   9.585   7.923  0.7642 -0.9445  0.3492
  843MOL0     O16255  11.663   9.725   7.918  0.0961  0.4576 -0.0877
  843MOL0     C16256  11.793   9.761   7.954  0.3895 -0.0658 -0.5043
  843MOL0     C16257  11.776   9.804   8.113 -0.2154 -0.3326  0.3481
  843MOL0     C16258  11.705   9.933   8.135 -0.3831  0.0476 -0.0843
  843MOL0     C16259  11.722   9.995   8.279  1.0732 -0.1495 -0.0564
  843MOL0     C16260  11.651  10.122   8.304 -0.9950 -0.8640 -0.1312
  843MOL0     C16261  11.577  10.212   8.329  0.2569  1.4429  0.5511
  843MOL0     C16262  11.687   9.477   7.987  0.3846  0.0366  0.4609
  843MOL0     C16263  11.642   9.349   7.977 -0.0458  0.4711  0.1721
  843MOL0     C16264  11.717   9.239   8.049  0.2666  0.5002 -0.0220
  843MOL0     H16265  11.700   8.919   7.720  0.6601 -2.8445 -2.0060
  843MOL0     H16266  11.680   8.661   7.734  0.6613 -1.7994  2.4924
  843MOL0     H16267  11.296   8.526   7.926  2.6140  2.5720  1.9278
  843MOL0     H16268  11.352   8.374   7.855 -1.0557 -0.5337  0.2941
  843MOL0     H16269  11.185   8.547   7.748  0.2194  0.6853 -0.1649
  843MOL0     H16270  11.320   8.621   7.681 -0.9499 -0.9952 -2.3644
  843MOL0     H16271  11.406   8.398   7.589  0.6453  1.5918 -2.0076
  843MOL0     H16272  11.255   8.328   7.646 -0.4330  1.4195  3.6485
  843MOL0     H16273  11.205   8.360   7.399 -1.6861  0.5333 -0.8490
  843MOL0     H16274  11.144   8.503   7.482  0.3553  0.1174 -1.6162
  843MOL0     H16275  11.372   8.475   7.305 -3.3336 -1.7958 -0.4063
  843MOL0     H16276  11.408   8.581   7.450  0.1871 -0.9069  1.3546
  843MOL0     H16277  11.182   8.616   7.255  1.3435  0.2452 -0.0502
  843MOL0     H16278  11.190   8.700   7.400 -1.2636 -0.5537 -1.2417
  843MOL0     H16279  11.437   8.685   7.203 -0.1292 -0.5305  0.4295
  843MOL0     H16280  11.400   8.817   7.315  2.7204 -0.6798 -1.1474
  843MOL0     H16281  11.233   8.761   7.066 -2.0428 -0.3602  2.8642
  843MOL0     H16282  11.219   8.902   7.166 -0.5728  0.3479 -2.0177
  843MOL0     H16283  11.472   9.044   7.172 -0.9511  0.6276 -0.6217
  843MOL0     H16284  11.664   9.119   6.832  2.3143 -1.7424  0.0365
  843MOL0     H16285  11.738   9.050   6.980 -0.2471 -3.3306 -2.1557
  843MOL0     H16286  11.558   9.292   6.970  0.6149 -1.3645 -3.4683
  843MOL0     H16287  11.640   9.243   7.118  3.2386 -2.3258  0.2906
  843MOL0     H16288  11.800   9.335   6.873 -1.9335  2.2778 -0.6241
  843MOL0     H16289  11.754   9.440   7.011 -0.3054 -1.2292  1.0461
  843MOL0     H16290  11.928   9.175   7.021 -0.9863 -1.5526  0.2618
  843MOL0     H16291  11.990   9.343   7.035 -1.0704  0.6667 -2.8150
  843MOL0     H16292  11.843   9.221   7.464  1.9511 -0.6888  0.9351
  843MOL0     H16293  11.840   9.271   7.680  1.9430 -1.1396 -1.6017
  843MOL0     H16294  11.773   9.426   7.719 -1.3153 -1.0070 -1.5641
  843MOL0     H16295  11.950   9.392   7.737 -1.1688  1.4198  0.0078
  843MOL0     H16296  12.213   9.767   7.833  1.7168  1.1649  0.0869
  843MOL0     H16297  12.206   9.969   7.966  0.3541  0.0310 -0.9746
  843MOL0     H16298  12.239  10.154   8.028  1.7617  1.0713 -0.6239
  843MOL0     H16299  12.187  10.300   7.947 -2.3799  1.7232  1.3637
  843MOL0     H16300  12.207  10.318   8.175  0.7400  0.6825 -2.3438
  843MOL0     H16301  12.055  10.384   8.111 -1.5152 -0.4582  1.8009
  843MOL0     H16302  12.114  10.129   8.263 -0.3240 -0.9809 -2.0962
  843MOL0     H16303  11.956  10.162   8.182 -0.4514 -0.8051  0.2206
  843MOL0     H16304  11.980  10.206   8.442  0.1086 -0.0765  0.5812
  843MOL0     H16305  11.926  10.335   8.343  0.5282  1.6785  2.0692
  843MOL0     H16306  12.218  10.321   8.419  0.7034  0.2723 -0.2448
  843MOL0     H16307  12.137  10.457   8.345  0.0976  0.3929  0.7975
  843MOL0     H16308  12.074  10.333   8.618  2.0827 -0.8926 -1.9781
  843MOL0     H16309  11.975  10.451   8.545  0.9170  0.4926 -0.2305
  843MOL0     H16310  12.169  10.619   8.552  1.0403  1.0462  1.6307
  843MOL0     H16311  12.281  10.485   8.597  0.2426 -0.4449 -1.8536
  843MOL0     H16312  12.175  10.457   8.809 -3.2633 -0.2517  1.5851
  843MOL0     H16313  12.044  10.574   8.761 -0.0918 -1.6217 -2.4279
  843MOL0     H16314  11.895  10.136   7.719 -0.0725  0.2510  0.7872
  843MOL0     H16315  11.898   9.914   7.587 -1.2991 -0.3991  0.8450
  843MOL0     H16316  12.038   9.662   7.355  1.1451  0.3457 -1.4007
  843MOL0     H16317  12.041   9.480   7.181  3.1391 -0.4620  1.5071
  843MOL0     H16318  11.323   8.719   7.977 -1.8268 -0.5792 -0.3960
  843MOL0     H16319  11.356   8.948   7.977 -0.6365 -0.1434  0.0420
  843MOL0     H16320  11.379   9.415   7.770 -0.5519  1.4346 -0.4053
  843MOL0     H16321  11.460   9.644   7.798  1.0108 -0.1837  0.4976
  843MOL0     H16322  11.868   9.683   7.942 -0.0334 -1.0712  2.5352
  843MOL0     H16323  11.814   9.851   7.896  0.7886  0.9212  1.1249
  843MOL0     H16324  11.873   9.806   8.163  0.3924  0.8878 -0.8177
  843MOL0     H16325  11.721   9.725   8.165 -1.6063  0.5936  0.3309
  843MOL0     H16326  11.727  10.005   8.057 -2.9498  0.6313 -0.3489
  843MOL0     H16327  11.597   9.929   8.121 -0.6595  3.3867  0.4305
  843MOL0     H16328  11.827  10.018   8.296  0.6479  0.5112  1.9937
  843MOL0     H16329  11.673   9.930   8.353 -1.3468  1.9345  0.3004
  843MOL0     H16330  11.501  10.284   8.354 -2.4248 -0.8277 -0.5744
  843MOL0     H16331  11.774   9.477   8.052  0.4390 -2.8807  0.5356
  843MOL0     H16332  11.662   9.208   8.138 -0.4064 -0.5375 -0.7778
  843MOL0     H16333  11.743   9.154   7.985  1.8090 -1.6650  3.2178
  843MOL0     H16334  11.810   9.280   8.089 -0.8336  1.4943  1.6512
  844MOL0     O16335   4.905   6.791   7.557 -0.6392 -0.0280  0.5261
  844MOL0     C16336   4.860   6.702   7.624  1.1268  1.2481 -0.1389
  844MOL0     O16337   4.927   6.627   7.726  0.2294  0.4664 -0.0406
  844MOL0     C16338   5.059   6.658   7.727  0.4537 -0.2088  0.1065
  844MOL0     C16339   5.103   6.715   7.843 -0.0449  1.1605  0.0163
  844MOL0     C16340   5.244   6.728   7.852  0.3572 -0.0422  0.1509
  844MOL0     C16341   5.337   6.686   7.758 -0.0503 -0.1110  0.1517
  844MOL0     O16342   5.469   6.692   7.793 -0.1863  0.0574  0.4409
  844MOL0     C16343   5.572   6.669   7.695  0.1599 -0.5837 -0.4060
  844MOL0     C16344   5.704   6.717   7.769  0.6842 -0.0666  0.0429
  844MOL0     C16345   5.832   6.677   7.695  0.7346  0.4999 -1.1975
  844MOL0     C16346   5.956   6.741   7.763 -0.1788 -0.2039 -0.4901
  844MOL0     C16347   6.079   6.665   7.720 -0.7259  0.1768 -0.6431
  844MOL0     C16348   6.188   6.707   7.823  0.7571 -0.0389  0.1959
  844MOL0     C16349   6.325   6.667   7.773 -0.8254 -0.3004  0.6887
  844MOL0     C16350   6.389   6.773   7.679  0.3387 -0.2605 -0.3222
  844MOL0     N16351   6.531   6.773   7.658 -0.0434  0.2079 -0.4948
  844MOL0     C16352   6.623   6.810   7.748 -0.7305  0.5905  0.3284
  844MOL0     C16353   6.733   6.768   7.684  0.0943 -0.0146 -0.4551
  844MOL0     C16354   6.872   6.779   7.738 -0.0959  0.3274 -0.4458
  844MOL0     C16355   6.995   6.775   7.648  0.8300  0.5635  0.0156
  844MOL0     C16356   7.123   6.737   7.716 -0.4445  0.6099 -0.4488
  844MOL0     C16357   7.240   6.753   7.616  0.7544  0.1721 -0.0461
  844MOL0     O16358   7.361   6.732   7.695  0.0933  1.0503  0.6075
  844MOL0     C16359   7.484   6.749   7.635 -0.7457 -0.4044 -0.0085
  844MOL0     C16360   7.596   6.683   7.686 -0.5674 -0.6052  0.0230
  844MOL0     C16361   7.725   6.697   7.630 -0.5557 -0.0650  0.2845
  844MOL0     C16362   7.836   6.623   7.692  0.9364 -0.2230 -0.1045
  844MOL0     C16363   7.747   6.774   7.518 -0.6564 -0.9158 -0.1832
  844MOL0     C16364   7.870   6.780   7.448 -0.2616 -0.3282  0.3732
  844MOL0     O16365   7.910   6.671   7.365  0.6191  0.7783 -0.5026
  844MOL0     C16366   8.020   6.661   7.302 -1.2042  0.2545  1.0409
  844MOL0     C16367   8.151   6.710   7.352  0.2449  0.8213 -0.2991
  844MOL0     C16368   8.272   6.679   7.282 -0.5474 -0.0674  0.0844
  844MOL0     C16369   8.275   6.601   7.167  0.6832  0.4184 -0.1384
  844MOL0     O16370   8.393   6.551   7.127  0.6249 -0.7951 -0.0406
  844MOL0     C16371   8.399   6.491   7.000 -0.3050 -0.1138  0.0516
  844MOL0     C16372   8.551   6.463   6.985 -0.3701  0.5194 -0.0080
  844MOL0     C16373   8.568   6.386   6.848 -0.3857  0.2697 -0.8841
  844MOL0     C16374   8.714   6.425   6.797 -0.3478  0.2675 -0.6213
  844MOL0     C16375   8.722   6.402   6.649  0.4663  0.4678  1.2889
  844MOL0     C16376   8.865   6.427   6.596  0.6988 -0.2568 -0.2655
  844MOL0     C16377   8.875   6.386   6.450  0.9683 -0.9137  0.3596
  844MOL0     C16378   9.005   6.411   6.386 -0.4112  0.3561 -0.5782
  844MOL0    Cl16379   9.046   6.584   6.340 -0.3457  0.1337 -0.0440
  844MOL0     C16380   8.150   6.559   7.116 -0.7389 -0.6052 -0.2178
  844MOL0     C16381   8.023   6.598   7.176  1.0686 -0.8175 -0.7822
  844MOL0     O16382   7.942   6.878   7.467 -0.1315  0.1648 -0.8364
  844MOL0     C16383   7.637   6.837   7.457  0.0527  0.2153 -0.1198
  844MOL0     C16384   7.511   6.831   7.521 -0.4334 -0.1318 -0.6101
  844MOL0     N16385   6.701   6.696   7.572  0.3447  0.5186 -0.3892
  844MOL0     N16386   6.584   6.721   7.547 -0.0026  0.0442 -0.0265
  844MOL0     C16387   5.285   6.631   7.646 -0.4499  0.3600  0.1892
  844MOL0     C16388   5.149   6.620   7.628  0.3027 -0.0203  0.8559
  844MOL0     C16389   4.710   6.666   7.600 -0.0774  0.1501  0.2174
  844MOL0     C16390   4.654   6.568   7.682  1.0584  0.2556  0.2593
  844MOL0     C16391   4.529   6.516   7.659 -0.1218 -0.0367 -0.1722
  844MOL0     C16392   4.449   6.581   7.558  0.2652 -0.3956 -0.0320
  844MOL0     O16393   4.329   6.521   7.535 -0.0187  0.3437 -0.4405
  844MOL0     C16394   4.234   6.588   7.459  0.5155  0.1662 -0.3627
  844MOL0     C16395   4.106   6.555   7.525  0.9486  0.5986 -1.0831
  844MOL0     C16396   3.974   6.582   7.449  0.6410 -0.5311  0.2440
  844MOL0     C16397   3.887   6.695   7.517  0.0286  0.4177 -0.5436
  844MOL0     C16398   3.964   6.822   7.526 -0.0365  0.5042 -0.3615
  844MOL0     C16399   4.029   6.923   7.549  1.1504 -0.1160  0.8101
  844MOL0     C16400   4.496   6.688   7.495 -0.3056  0.3493  0.4077
  844MOL0     C16401   4.634   6.728   7.496 -0.0275 -0.2160 -0.4091
  844MOL0     C16402   4.671   6.833   7.384  0.1798  0.8419 -0.9616
  844MOL0     H16403   5.038   6.729   7.929  0.7891 -1.0892  1.0927
  844MOL0     H16404   5.277   6.767   7.948  0.6132  2.4534 -0.8686
  844MOL0     H16405   5.557   6.728   7.604  1.0102 -0.6128 -0.5776
  844MOL0     H16406   5.567   6.561   7.684 -0.8410 -0.7685  1.5242
  844MOL0     H16407   5.700   6.825   7.783 -1.2152 -0.1857  0.7606
  844MOL0     H16408   5.693   6.672   7.868 -3.2058 -3.2332 -1.5277
  844MOL0     H16409   5.843   6.571   7.715  0.8103  0.8700  0.9266
  844MOL0     H16410   5.827   6.713   7.592 -2.7599 -0.2172 -1.4125
  844MOL0     H16411   5.960   6.846   7.733  0.2545 -0.4116 -1.2006
  844MOL0     H16412   5.926   6.734   7.868  0.7859 -1.6059 -0.2758
  844MOL0     H16413   6.111   6.690   7.618 -0.0123 -1.6316 -0.9011
  844MOL0     H16414   6.064   6.557   7.730 -1.9908  0.3798 -0.1495
  844MOL0     H16415   6.177   6.816   7.835 -0.0609 -0.0100 -0.6207
  844MOL0     H16416   6.173   6.661   7.920  3.0637 -1.5059 -0.0754
  844MOL0     H16417   6.326   6.566   7.731  4.4147  0.2846 -1.3210
  844MOL0     H16418   6.395   6.655   7.857  0.5658 -4.3591 -0.7903
  844MOL0     H16419   6.342   6.760   7.581 -0.3155 -2.4952  0.2087
  844MOL0     H16420   6.374   6.874   7.718  0.5696  0.1819 -1.3455
  844MOL0     H16421   6.625   6.850   7.849  1.1322  0.7034  0.2826
  844MOL0     H16422   6.873   6.685   7.795 -0.2286  0.5855 -0.0056
  844MOL0     H16423   6.874   6.860   7.813  0.5387 -0.8713  0.8880
  844MOL0     H16424   6.977   6.698   7.573 -0.4014  1.5614 -0.7617
  844MOL0     H16425   6.992   6.871   7.595  1.0334  0.7560  0.3487
  844MOL0     H16426   7.152   6.806   7.795  1.7141 -0.2192 -0.4360
  844MOL0     H16427   7.123   6.633   7.750 -0.6866  0.5994 -0.4825
  844MOL0     H16428   7.242   6.674   7.541 -0.7425 -0.6967  0.7800
  844MOL0     H16429   7.228   6.852   7.570 -3.4679 -0.6599 -1.2163
  844MOL0     H16430   7.590   6.615   7.770  3.8197 -1.8582 -0.4216
  844MOL0     H16431   7.806   6.594   7.793  1.5808 -0.5408  0.0039
  844MOL0     H16432   7.930   6.680   7.694  0.4781  0.5805 -0.8930
  844MOL0     H16433   7.857   6.530   7.637  0.6784 -1.0296  1.1284
  844MOL0     H16434   8.169   6.759   7.447 -0.4234  0.5968 -0.0475
  844MOL0     H16435   8.359   6.720   7.332  0.1989  0.7195 -1.7696
  844MOL0     H16436   8.345   6.395   6.995 -1.5963  0.6489 -2.7810
  844MOL0     H16437   8.365   6.550   6.915  1.7026 -0.8514 -1.3386
  844MOL0     H16438   8.599   6.562   6.983 -2.2120  1.4608 -2.5319
  844MOL0     H16439   8.588   6.393   7.060 -1.4694 -0.6656 -0.5467
  844MOL0     H16440   8.484   6.415   6.784 -0.3316  5.8879  1.0333
  844MOL0     H16441   8.565   6.277   6.858 -0.6103  0.2474 -1.1801
  844MOL0     H16442   8.783   6.365   6.857 -1.1359 -0.0838 -0.0459
  844MOL0     H16443   8.742   6.529   6.815  1.6536  0.3882 -3.6471
  844MOL0     H16444   8.697   6.297   6.631 -0.9269  0.3780  3.4368
  844MOL0     H16445   8.651   6.469   6.599  0.3510  0.2159  1.1117
  844MOL0     H16446   8.934   6.363   6.652  1.7974 -0.7593 -2.1201
  844MOL0     H16447   8.897   6.532   6.605  2.1932 -0.5883 -1.3377
  844MOL0     H16448   8.796   6.431   6.391 -1.4792 -3.0409  1.8149
  844MOL0     H16449   8.838   6.285   6.432 -1.1065  0.0610 -1.2163
  844MOL0     H16450   9.003   6.342   6.302 -2.3946  0.5279 -0.7111
  844MOL0     H16451   9.074   6.362   6.455 -3.6080 -2.4111  0.9414
  844MOL0     H16452   8.138   6.487   7.035  2.0025 -0.4740 -0.8461
  844MOL0     H16453   7.933   6.566   7.124  1.7611 -0.9566 -1.9219
  844MOL0     H16454   7.649   6.890   7.364  1.0146  4.0719  1.9931
  844MOL0     H16455   7.428   6.888   7.481 -1.0665 -1.2688 -0.9836
  844MOL0     H16456   5.353   6.593   7.571 -2.6192  0.7520 -2.1283
  844MOL0     H16457   5.097   6.591   7.537  0.6564  2.0754 -0.0869
  844MOL0     H16458   4.709   6.513   7.757  0.3280  2.1771  2.3408
  844MOL0     H16459   4.494   6.422   7.701 -1.3431 -0.7238 -2.5391
  844MOL0     H16460   4.231   6.697   7.472  2.2853 -0.1437  4.3167
  844MOL0     H16461   4.234   6.556   7.354 -0.3263  1.2549 -0.7201
  844MOL0     H16462   4.104   6.602   7.624 -1.0513  0.8691 -1.2000
  844MOL0     H16463   4.097   6.449   7.548 -3.6836  1.2228  1.3257
  844MOL0     H16464   3.998   6.623   7.350 -0.5291  1.1631  0.6144
  844MOL0     H16465   3.901   6.502   7.439 -0.4133 -0.1705  3.6710
  844MOL0     H16466   3.862   6.660   7.617  2.2648 -0.8189 -0.3460
  844MOL0     H16467   3.800   6.691   7.451 -1.1477 -2.3578  0.9972
  844MOL0     H16468   4.092   7.006   7.575  2.0338 -0.1604 -0.9805
  844MOL0     H16469   4.433   6.734   7.421  0.0661 -1.6511 -1.2429
  844MOL0     H16470   4.780   6.835   7.373  1.3071 -3.5048  4.7862
  844MOL0     H16471   4.627   6.800   7.290 -0.3782 -1.6367  0.1043
  844MOL0     H16472   4.639   6.936   7.401  0.8906  1.0196 -0.6349
  845MOL0     O16473  10.459   6.135   9.686 -0.4690  0.0174  0.3999
  845MOL0     C16474  10.514   6.040   9.734 -0.5942 -0.0474 -0.1117
  845MOL0     O16475  10.466   5.910   9.733  0.8955  0.5914  0.5116
  845MOL0     C16476  10.366   5.868   9.650  0.6830 -1.2276  0.0920
  845MOL0     C16477  10.393   5.760   9.568  0.1708  0.3389  0.8287
  845MOL0     C16478  10.289   5.708   9.489  0.0210 -0.6193 -0.5325
  845MOL0     C16479  10.163   5.765   9.479  0.5759  0.3944  0.4662
  845MOL0     O16480  10.075   5.704   9.389  0.7620  0.0436  0.5971
  845MOL0     C16481   9.946   5.758   9.383 -0.3285 -0.5158 -0.2541
  845MOL0     C16482   9.868   5.692   9.275 -0.0831  0.9465 -0.3065
  845MOL0     C16483   9.734   5.751   9.275  0.1756 -0.6716  0.5012
  845MOL0     C16484   9.677   5.780   9.132  0.1880 -0.5330 -0.2108
  845MOL0     C16485   9.537   5.843   9.117  0.2383  0.5681  0.1133
  845MOL0     C16486   9.507   5.899   8.976 -0.0713  0.3066 -0.3069
  845MOL0     C16487   9.521   5.790   8.872  0.3821  0.8060 -0.1969
  845MOL0     C16488   9.441   5.799   8.744  0.3178  0.1254 -0.5453
  845MOL0     N16489   9.500   5.889   8.646 -1.5900 -0.2133  0.5951
  845MOL0     C16490   9.551   6.019   8.664  0.3136 -0.4788 -0.0525
  845MOL0     C16491   9.590   6.065   8.546  0.1629 -0.4642  0.7257
  845MOL0     C16492   9.630   6.202   8.518 -0.3396 -0.2767 -0.1531
  845MOL0     C16493   9.519   6.291   8.448  0.3191 -1.0291  0.2912
  845MOL0     C16494   9.567   6.439   8.440 -0.0962 -0.4428 -0.1439
  845MOL0     C16495   9.536   6.505   8.573 -0.2955 -0.2951 -0.2994
  845MOL0     O16496   9.394   6.516   8.610 -0.4587  0.4153 -0.5677
  845MOL0     C16497   9.310   6.582   8.519 -0.2707  0.8036  0.2749
  845MOL0     C16498   9.349   6.690   8.444  0.1204 -0.9281 -0.6341
  845MOL0     C16499   9.257   6.761   8.362 -0.1131  0.1378 -0.1482
  845MOL0     C16500   9.293   6.891   8.280  0.0302 -0.3130  0.9569
  845MOL0     C16501   9.122   6.719   8.368  0.0822  0.1521  0.2750
  845MOL0     C16502   9.014   6.783   8.293  0.1923 -0.4405  0.0776
  845MOL0     O16503   8.897   6.792   8.362  0.0408  0.4079  0.1720
  845MOL0     C16504   8.787   6.845   8.296  0.7609  0.0088 -0.1473
  845MOL0     C16505   8.700   6.760   8.232 -0.2339  0.0120 -0.0572
  845MOL0     C16506   8.592   6.826   8.177  1.0093 -0.4557 -0.0834
  845MOL0     C16507   8.570   6.964   8.180 -0.3713 -0.5055  0.1662
  845MOL0     O16508   8.467   7.032   8.122 -0.3328  0.1516  0.5285
  845MOL0     C16509   8.345   6.964   8.088  0.7636  0.0480  0.0350
  845MOL0     C16510   8.232   7.072   8.088  0.2906 -0.6028 -0.6625
  845MOL0     C16511   8.213   7.134   8.228 -1.3490  0.9798 -0.3728
  845MOL0     C16512   8.123   7.253   8.231 -0.6141 -0.1609 -0.4524
  845MOL0     C16513   8.095   7.276   8.378  1.2388 -0.7851  0.1769
  845MOL0     C16514   7.982   7.377   8.402  0.3676  0.9685  0.0533
  845MOL0     C16515   7.943   7.408   8.549  0.0396 -0.7526 -0.2265
  845MOL0     C16516   7.859   7.534   8.558  1.1491  0.0949  0.0035
  845MOL0    Cl16517   7.696   7.487   8.486 -0.2482 -0.4560  0.0761
  845MOL0     C16518   8.666   7.042   8.236  0.2504 -0.3008  0.0684
  845MOL0     C16519   8.777   6.982   8.292  0.0665  0.0577 -0.6974
  845MOL0     O16520   9.037   6.831   8.183  0.2459  0.1869  0.0332
  845MOL0     C16521   9.087   6.607   8.451  0.5084  0.0212 -0.0544
  845MOL0     C16522   9.173   6.540   8.527 -0.4929  0.8050  0.4292
  845MOL0     N16523   9.569   5.959   8.460  0.1423 -1.3003  0.4594
  845MOL0     N16524   9.529   5.859   8.518 -0.1769  0.4419 -0.0250
  845MOL0     C16525  10.136   5.880   9.562 -0.0651  0.1919 -0.7487
  845MOL0     C16526  10.238   5.933   9.638  0.2510 -0.0319 -0.0972
  845MOL0     C16527  10.645   6.070   9.810 -0.7890  0.6569  0.4628
  845MOL0     C16528  10.679   6.189   9.861  0.6079 -0.0430  0.2495
  845MOL0     C16529  10.796   6.216   9.921  0.2029  0.0602  0.1800
  845MOL0     C16530  10.899   6.123   9.931 -0.0576 -0.2162 -0.2441
  845MOL0     O16531  11.030   6.176   9.954 -0.0614 -0.3531  0.0022
  845MOL0     C16532  11.140   6.085   9.963 -0.2130 -0.0983 -0.6212
  845MOL0     C16533  11.274   6.147  10.006  0.2940  0.1630  1.0390
  845MOL0     C16534  11.293   6.176  10.159  0.2615  0.4050  0.3018
  845MOL0     C16535  11.417   6.261  10.174  0.4640 -0.2722 -0.3115
  845MOL0     C16536  11.424   6.309  10.313  0.6313  0.3392  0.4401
  845MOL0     C16537  11.427   6.369  10.417 -1.0608 -0.2745  0.1820
  845MOL0     C16538  10.867   5.993   9.892 -0.6189 -0.5210  0.1096
  845MOL0     C16539  10.741   5.965   9.842  0.3934 -0.1443 -0.5773
  845MOL0     C16540  10.721   5.811   9.824 -0.2025 -0.2885  0.6784
  845MOL0     H16541  10.484   5.701   9.574 -1.2755 -2.1082  0.2266
  845MOL0     H16542  10.309   5.618   9.432  0.8750  0.0380 -1.2970
  845MOL0     H16543   9.938   5.863   9.353 -0.6531 -0.5182 -0.1820
  845MOL0     H16544   9.899   5.753   9.481 -0.2506  2.1944  0.0186
  845MOL0     H16545   9.912   5.688   9.175 -0.1734  0.4765 -0.3311
  845MOL0     H16546   9.861   5.587   9.303  1.5745  0.0149 -3.0452
  845MOL0     H16547   9.667   5.684   9.330  0.4372 -0.4963  1.0375
  845MOL0     H16548   9.739   5.850   9.321  2.6643  0.4613 -1.8955
  845MOL0     H16549   9.738   5.858   9.085 -0.9111  1.5271  1.6339
  845MOL0     H16550   9.684   5.689   9.070  0.1805  0.0499 -1.0879
  845MOL0     H16551   9.536   5.929   9.184 -0.7494  0.0258  0.8293
  845MOL0     H16552   9.457   5.777   9.151 -0.8403  2.3345  1.1712
  845MOL0     H16553   9.406   5.941   8.970  0.0356  0.5731 -0.2107
  845MOL0     H16554   9.583   5.976   8.959 -0.1055  1.3740  3.4499
  845MOL0     H16555   9.494   5.698   8.926  0.9005  1.1224  0.6161
  845MOL0     H16556   9.627   5.798   8.848  0.3014  2.2562 -0.1698
  845MOL0     H16557   9.442   5.701   8.696  1.8240 -1.2959  2.1141
  845MOL0     H16558   9.336   5.828   8.756  0.6441  1.6027 -1.0611
  845MOL0     H16559   9.557   6.073   8.758 -0.1967  0.8533 -0.7586
  845MOL0     H16560   9.719   6.200   8.455 -0.7712 -0.0719 -0.7810
  845MOL0     H16561   9.671   6.244   8.610 -1.0798  1.1976 -0.4686
  845MOL0     H16562   9.499   6.256   8.347  2.4540  0.7939 -0.8720
  845MOL0     H16563   9.420   6.289   8.494  0.1653  2.8826  0.5073
  845MOL0     H16564   9.673   6.437   8.411  0.0086  1.9309 -0.1437
  845MOL0     H16565   9.504   6.468   8.356 -2.3391 -0.0031  1.6067
  845MOL0     H16566   9.588   6.451   8.652 -1.4244  2.5091  2.5724
  845MOL0     H16567   9.566   6.610   8.568 -2.3115  0.2744 -1.7533
  845MOL0     H16568   9.454   6.720   8.439 -0.2811  0.5696 -0.5192
  845MOL0     H16569   9.326   6.871   8.177  0.5899  0.4045  0.9896
  845MOL0     H16570   9.375   6.937   8.336  0.2939 -0.8865  1.0463
  845MOL0     H16571   9.215   6.967   8.267 -0.5280 -1.3571 -3.4479
  845MOL0     H16572   8.719   6.656   8.209 -0.0188  0.4118 -1.8057
  845MOL0     H16573   8.523   6.766   8.119  1.6641 -1.4048  0.0748
  845MOL0     H16574   8.349   6.915   7.990 -1.4432 -2.3215  1.0002
  845MOL0     H16575   8.318   6.881   8.155 -1.2999  0.0506 -0.7451
  845MOL0     H16576   8.268   7.148   8.018  0.7555 -1.0400 -0.9030
  845MOL0     H16577   8.132   7.034   8.063 -1.9243 -0.0732  5.6080
  845MOL0     H16578   8.307   7.151   8.281 -1.7424  0.3176  0.5588
  845MOL0     H16579   8.172   7.053   8.289  2.6829  0.5911  2.1600
  845MOL0     H16580   8.028   7.232   8.182 -0.7366  1.5189 -0.9975
  845MOL0     H16581   8.177   7.336   8.183  1.7940 -2.0310 -1.1796
  845MOL0     H16582   8.072   7.179   8.424 -0.7860 -1.7978 -2.6680
  845MOL0     H16583   8.178   7.320   8.433 -0.8771  2.2292  1.2511
  845MOL0     H16584   7.897   7.335   8.348  1.6910  2.1061 -3.1103
  845MOL0     H16585   8.008   7.470   8.351 -2.2102 -0.2821 -3.9952
  845MOL0     H16586   8.035   7.423   8.608 -0.8187 -0.0753  0.9840
  845MOL0     H16587   7.891   7.319   8.585 -1.9139  0.2764 -0.3505
  845MOL0     H16588   7.904   7.620   8.506 -0.2248  0.1125 -1.2154
  845MOL0     H16589   7.843   7.554   8.664 -0.7371 -0.4795 -0.1422
  845MOL0     H16590   8.661   7.149   8.251 -0.2118 -0.6824  3.4224
  845MOL0     H16591   8.841   7.040   8.359  1.0714 -2.3309  0.5314
  845MOL0     H16592   8.987   6.568   8.436  0.2741  0.3703  0.5481
  845MOL0     H16593   9.162   6.454   8.592  1.2955 -0.8223 -1.2760
  845MOL0     H16594  10.036   5.924   9.560 -0.1639  0.0075 -0.0456
  845MOL0     H16595  10.209   6.025   9.688  2.1206  0.3956  0.2939
  845MOL0     H16596  10.609   6.272   9.853  1.7266  0.8573 -0.6823
  845MOL0     H16597  10.804   6.320   9.948 -2.0516  0.0264  1.2405
  845MOL0     H16598  11.113   6.013  10.041  0.3137 -2.5045 -2.5505
  845MOL0     H16599  11.156   6.030   9.869 -2.5327 -1.4150 -0.3256
  845MOL0     H16600  11.300   6.232   9.943  0.8891 -0.7627  0.0072
  845MOL0     H16601  11.340   6.066   9.975 -3.9233 -2.1123 -3.1550
  845MOL0     H16602  11.199   6.223  10.189 -0.3535 -1.1219  0.8948
  845MOL0     H16603  11.315   6.089  10.222 -1.9007  1.5939  2.9116
  845MOL0     H16604  11.439   6.349  10.113  1.9618  0.7666  1.6101
  845MOL0     H16605  11.503   6.195  10.160 -1.3543 -2.4701 -1.8246
  845MOL0     H16606  11.430   6.427  10.508  0.1534  1.6788 -1.0223
  845MOL0     H16607  10.929   5.912   9.928 -1.3391 -0.6939  1.0282
  845MOL0     H16608  10.693   5.782   9.723  2.3959  0.9952 -0.5063
  845MOL0     H16609  10.810   5.749   9.836  0.3832 -0.2231 -2.4608
  845MOL0     H16610  10.647   5.781   9.899  0.5989 -0.4252  1.4322
  846MOL0     O16611  11.029  10.647   4.081  0.4605  0.4930  0.4762
  846MOL0     C16612  10.951  10.706   4.159 -0.0251 -0.7810  0.9080
  846MOL0     O16613  10.972  10.748   4.287 -0.9337  0.8696 -0.0285
  846MOL0     C16614  11.083  10.715   4.362 -1.1740  0.5206  0.2955
  846MOL0     C16615  11.213  10.709   4.305 -0.1505  0.0572  0.0103
  846MOL0     C16616  11.319  10.672   4.380  0.3243  0.1510  0.0496
  846MOL0     C16617  11.308  10.636   4.508 -0.3616  0.6766  0.1774
  846MOL0     O16618  11.418  10.594   4.580 -0.2489 -0.1493  0.4058
  846MOL0     C16619  11.407  10.475   4.667 -0.3885 -0.0048 -0.0827
  846MOL0     C16620  11.545  10.409   4.657 -0.0133 -0.3780 -0.6066
  846MOL0     C16621  11.545  10.292   4.758 -0.1909 -0.3498 -0.9659
  846MOL0     C16622  11.432  10.181   4.736 -0.0749  0.2189  0.9564
  846MOL0     C16623  11.473  10.057   4.815  0.5272 -0.6213 -0.4605
  846MOL0     C16624  11.392   9.921   4.816  0.0485  0.0384  0.2718
  846MOL0     C16625  11.416   9.837   4.944  0.1466  0.6932 -0.0812
  846MOL0     C16626  11.352   9.689   4.931 -0.9433  0.2995 -0.3250
  846MOL0     N16627  11.426   9.607   4.831  0.1313 -0.2589  0.4900
  846MOL0     C16628  11.525   9.522   4.867  0.7442  0.2358 -0.1369
  846MOL0     C16629  11.574   9.472   4.752 -0.1040 -0.2925 -0.2443
  846MOL0     C16630  11.690   9.369   4.751  0.3507  0.3935  0.0109
  846MOL0     C16631  11.750   9.367   4.604  0.2094 -1.0444 -0.2372
  846MOL0     C16632  11.809   9.508   4.567  0.4043 -0.1132  0.2373
  846MOL0     C16633  11.851   9.530   4.418  0.1644  0.6580 -0.5500
  846MOL0     O16634  11.946   9.428   4.365  0.3156  0.3736  0.1730
  846MOL0     C16635  12.062   9.474   4.315 -0.2516  0.4070 -0.1956
  846MOL0     C16636  12.143   9.397   4.228  0.5758 -0.3195  0.2561
  846MOL0     C16637  12.265   9.432   4.179  0.0637 -0.2252 -0.5188
  846MOL0     C16638  12.333   9.341   4.087  0.0193  0.5919 -0.4832
  846MOL0     C16639  12.313   9.557   4.217  0.5771  0.5157 -0.8847
  846MOL0     C16640  12.436   9.618   4.166  0.1541 -0.1493  0.0686
  846MOL0     O16641  12.542   9.535   4.145  0.3249 -0.0212  0.2544
  846MOL0     C16642  12.664   9.583   4.098  0.0458 -0.8599  0.6192
  846MOL0     C16643  12.749   9.474   4.079  0.2853  0.4453 -1.0487
  846MOL0     C16644  12.878   9.485   4.032  0.0209 -0.2249  0.1127
  846MOL0     C16645  12.926   9.609   3.988 -0.4093 -1.0340  0.3158
  846MOL0     O16646  13.045   9.638   3.927  0.5861 -1.0553  1.1377
  846MOL0     C16647  13.151   9.571   3.989  0.4413  0.2404  0.0069
  846MOL0     C16648  13.287   9.609   3.928 -0.0790  0.6685  0.2703
  846MOL0     C16649  13.407   9.562   4.009  0.4497  0.0175  0.2872
  846MOL0     C16650  13.535   9.579   3.929 -0.9055 -0.3690 -0.4620
  846MOL0     C16651  13.642   9.500   4.007  0.5713 -0.1295  0.5569
  846MOL0     C16652  13.776   9.494   3.929  0.7367  0.3144  0.1654
  846MOL0     C16653  13.829   9.628   3.860  0.8460 -0.4915 -0.3766
  846MOL0     C16654  13.868   9.743   3.953  0.7507 -0.1424 -0.8418
  846MOL0    Cl16655  13.992   9.851   3.889  0.5791  0.3579 -0.1100
  846MOL0     C16656  12.843   9.717   4.004  0.1499  0.0588  0.6401
  846MOL0     C16657  12.711   9.711   4.060 -0.2530 -0.2646 -0.2675
  846MOL0     O16658  12.435   9.737   4.129 -0.1982  0.5673  0.9977
  846MOL0     C16659  12.243   9.631   4.316 -0.0360 -0.6843 -0.3924
  846MOL0     C16660  12.121   9.594   4.361 -0.5876  0.3525 -0.8183
  846MOL0     N16661  11.508   9.532   4.650  0.0888  0.2756  0.1462
  846MOL0     N16662  11.420   9.603   4.695  0.4596  0.3674 -0.3687
  846MOL0     C16663  11.180  10.647   4.571  0.6654  0.3159 -0.6820
  846MOL0     C16664  11.074  10.686   4.499  0.6828  0.2477 -0.4413
  846MOL0     C16665  10.823  10.727   4.098  0.1793  0.6115  0.8625
  846MOL0     C16666  10.826  10.799   3.979  0.0045 -0.7992  0.5524
  846MOL0     C16667  10.715  10.832   3.909 -0.1489 -1.6174 -0.7045
  846MOL0     C16668  10.589  10.785   3.958 -0.7180 -0.1314  0.0940
  846MOL0     O16669  10.470  10.805   3.897  0.4858 -0.2551 -0.1298
  846MOL0     C16670  10.459  10.897   3.784 -0.2425  0.4509  1.1574
  846MOL0     C16671  10.319  10.919   3.724 -0.2709 -0.1021  0.5108
  846MOL0     C16672  10.230  10.788   3.729 -0.3607 -0.1620 -0.0633
  846MOL0     C16673  10.104  10.808   3.634  0.0964  0.2642 -0.6786
  846MOL0     C16674  10.028  10.680   3.642 -0.8850  0.5127 -0.2550
  846MOL0     C16675   9.981  10.566   3.648  0.1774  0.1190  0.0222
  846MOL0     C16676  10.586  10.711   4.075  0.3506 -0.1233 -0.4559
  846MOL0     C16677  10.701  10.676   4.147  0.1642 -0.7705 -0.0599
  846MOL0     C16678  10.696  10.566   4.238 -0.3998 -0.2208 -0.0287
  846MOL0     H16679  11.225  10.734   4.200 -1.6045 -1.4799 -0.5714
  846MOL0     H16680  11.420  10.664   4.343  0.0164  1.0161 -1.0128
  846MOL0     H16681  11.321  10.418   4.631 -2.1442  1.2845  1.8095
  846MOL0     H16682  11.391  10.501   4.772 -1.2440 -1.0983  0.0831
  846MOL0     H16683  11.558  10.375   4.554 -2.5037  3.4212 -2.3690
  846MOL0     H16684  11.623  10.480   4.688  1.3393 -1.2551 -1.8486
  846MOL0     H16685  11.644  10.244   4.762 -0.7043 -1.4459 -1.2049
  846MOL0     H16686  11.525  10.342   4.854 -1.4944 -0.5481 -1.1164
  846MOL0     H16687  11.333  10.221   4.761 -0.6501  1.0665 -2.2738
  846MOL0     H16688  11.427  10.161   4.629  2.5415  0.6761  0.6881
  846MOL0     H16689  11.456  10.101   4.913  0.0833  1.9851 -1.6197
  846MOL0     H16690  11.578  10.031   4.804  0.5656  0.2968 -3.2178
  846MOL0     H16691  11.284   9.929   4.803 -0.0713 -1.5665  0.0823
  846MOL0     H16692  11.426   9.858   4.734  0.6210 -1.0522  1.3120
  846MOL0     H16693  11.362   9.880   5.029  0.4027 -1.1642  1.0687
  846MOL0     H16694  11.523   9.843   4.964  0.1030  1.4692 -0.0372
  846MOL0     H16695  11.359   9.620   5.015  0.4806 -1.2068 -1.6134
  846MOL0     H16696  11.249   9.711   4.901 -0.9318  2.5569  1.0026
  846MOL0     H16697  11.564   9.492   4.964  0.5563  1.2077  0.2442
  846MOL0     H16698  11.661   9.270   4.786  1.8045  1.2489  4.2582
  846MOL0     H16699  11.766   9.399   4.824 -1.0615  0.5760  1.4626
  846MOL0     H16700  11.834   9.297   4.600  2.3591  1.2869  0.7346
  846MOL0     H16701  11.669   9.331   4.540 -1.0264  0.7433  0.2421
  846MOL0     H16702  11.732   9.586   4.572 -0.1194 -0.6161  0.0438
  846MOL0     H16703  11.900   9.527   4.625  1.1984 -2.0479 -0.2915
  846MOL0     H16704  11.761   9.516   4.358  0.0396 -0.8310 -0.0471
  846MOL0     H16705  11.878   9.634   4.397 -0.8191  0.3692 -3.7464
  846MOL0     H16706  12.103   9.296   4.217 -0.3428  0.1097 -0.5065
  846MOL0     H16707  12.275   9.251   4.067  0.4360  0.7602 -2.6912
  846MOL0     H16708  12.424   9.321   4.144  0.9731 -2.9110 -2.9191
  846MOL0     H16709  12.365   9.393   3.996 -0.2195 -3.8566 -3.4032
  846MOL0     H16710  12.725   9.373   4.112 -1.0600  0.5221 -1.7404
  846MOL0     H16711  12.931   9.390   4.031 -2.0171 -1.4452 -1.7709
  846MOL0     H16712  13.157   9.598   4.095  0.1798 -0.6202  0.2411
  846MOL0     H16713  13.135   9.465   3.967  1.5497  0.4514 -2.1466
  846MOL0     H16714  13.291   9.576   3.824 -2.5854  1.0879 -0.0256
  846MOL0     H16715  13.287   9.718   3.931  2.6710  0.7203  2.5335
  846MOL0     H16716  13.380   9.458   4.033  0.8637 -0.5663 -1.6397
  846MOL0     H16717  13.411   9.625   4.098 -0.3692  2.5629 -1.3942
  846MOL0     H16718  13.577   9.679   3.946  0.7530 -1.2603  0.9921
  846MOL0     H16719  13.531   9.554   3.822 -0.0811 -0.5661 -0.4502
  846MOL0     H16720  13.658   9.524   4.112 -0.0995 -5.5979  2.2736
  846MOL0     H16721  13.605   9.396   4.008  2.7002 -0.9216  0.8527
  846MOL0     H16722  13.769   9.422   3.847  1.4348  1.0445 -0.5589
  846MOL0     H16723  13.847   9.443   3.996 -0.3953 -0.7368  0.6082
  846MOL0     H16724  13.744   9.668   3.804  0.1249  0.8655  1.5498
  846MOL0     H16725  13.908   9.620   3.785  0.4997  0.3964 -0.8533
  846MOL0     H16726  13.916   9.705   4.043  1.0635  0.3042 -0.8186
  846MOL0     H16727  13.781   9.801   3.984  0.7234 -1.9719  3.0748
  846MOL0     H16728  12.897   9.803   3.965  0.6845 -0.1728  0.8599
  846MOL0     H16729  12.658   9.805   4.073 -0.0253 -0.4405  2.4556
  846MOL0     H16730  12.275   9.728   4.350  0.2912 -0.2835 -1.7766
  846MOL0     H16731  12.070   9.641   4.444 -1.4516 -3.3093  0.9195
  846MOL0     H16732  11.169  10.620   4.676 -3.2084  3.2231 -0.1350
  846MOL0     H16733  10.979  10.688   4.551  1.8374  0.0704  1.7886
  846MOL0     H16734  10.923  10.837   3.950 -0.3991  2.3872  2.8342
  846MOL0     H16735  10.730  10.895   3.822  0.8523 -1.1632 -0.2231
  846MOL0     H16736  10.490  10.999   3.811  0.0443  0.7819 -0.3272
  846MOL0     H16737  10.531  10.858   3.712 -0.4503 -1.6594  2.0327
  846MOL0     H16738  10.332  10.947   3.619 -0.8921 -2.5389 -0.2862
  846MOL0     H16739  10.271  11.003   3.776  3.4339  3.4221 -1.2139
  846MOL0     H16740  10.292  10.711   3.682 -1.0270  1.0393 -3.1900
  846MOL0     H16741  10.207  10.754   3.830  2.8229 -4.2696 -0.4410
  846MOL0     H16742  10.142  10.814   3.531 -1.2467 -2.8778 -1.4700
  846MOL0     H16743  10.052  10.899   3.668 -1.6495 -1.6220  2.1222
  846MOL0     H16744   9.925  10.476   3.657  1.4259 -0.6846  0.0215
  846MOL0     H16745  10.486  10.674   4.095 -0.7742 -0.6940 -5.7112
  846MOL0     H16746  10.721  10.467   4.201  3.5463 -0.3469  2.3526
  846MOL0     H16747  10.763  10.574   4.324 -2.6504 -0.3810  1.8499
  846MOL0     H16748  10.594  10.565   4.278 -0.2357  3.4190  0.8480
  847MOL0     O16749   8.839   9.252   3.042 -0.7418 -0.4755  0.4279
  847MOL0     C16750   8.810   9.359   2.987  0.5320 -0.2921 -0.1201
  847MOL0     O16751   8.889   9.423   2.892  0.4671  0.0336  0.4743
  847MOL0     C16752   9.014   9.382   2.875 -0.7950  0.3410 -0.7046
  847MOL0     C16753   9.117   9.432   2.962  0.1544  0.3399 -0.0792
  847MOL0     C16754   9.250   9.387   2.959 -0.5256  0.2930  1.0562
  847MOL0     C16755   9.277   9.281   2.868  0.2543  0.0459 -0.1432
  847MOL0     O16756   9.408   9.235   2.869  0.7289 -0.6335  0.3309
  847MOL0     C16757   9.485   9.284   2.757  0.0677 -0.0124  0.8841
  847MOL0     C16758   9.631   9.251   2.773 -0.1214 -0.1889 -0.1291
  847MOL0     C16759   9.659   9.100   2.794  0.9479  0.2582 -0.4640
  847MOL0     C16760   9.812   9.067   2.815  0.0974 -0.3067 -0.4933
  847MOL0     C16761   9.835   8.915   2.837  0.0767  0.0261 -0.2275
  847MOL0     C16762   9.984   8.880   2.860 -0.3683 -0.0896 -1.1445
  847MOL0     C16763  10.021   8.738   2.834 -0.5508  0.1417  0.1404
  847MOL0     C16764   9.993   8.639   2.953  1.1701  0.6563  0.2844
  847MOL0     N16765   9.849   8.611   2.964 -0.2446 -0.1163 -0.5298
  847MOL0     C16766   9.785   8.646   3.081 -1.0895 -0.5109 -0.1891
  847MOL0     C16767   9.663   8.597   3.056 -0.5433 -0.3797  0.3453
  847MOL0     C16768   9.539   8.606   3.142 -0.7696  0.1232 -0.9982
  847MOL0     C16769   9.419   8.673   3.070  0.7786  0.3539 -0.1892
  847MOL0     C16770   9.452   8.814   3.018 -0.2532  0.1851  0.0594
  847MOL0     C16771   9.327   8.888   2.988  0.4088 -0.4879  0.6268
  847MOL0     O16772   9.266   8.813   2.886 -0.5757 -0.2006 -0.1044
  847MOL0     C16773   9.137   8.827   2.847  0.8153 -0.0394 -0.6401
  847MOL0     C16774   9.064   8.731   2.766 -1.4776 -0.7757 -0.2380
  847MOL0     C16775   8.926   8.738   2.742 -0.2148 -0.6891 -0.3504
  847MOL0     C16776   8.871   8.631   2.648  0.3250 -0.5242 -0.2818
  847MOL0     C16777   8.843   8.842   2.800 -0.2935  0.5747 -0.9128
  847MOL0     C16778   8.696   8.862   2.765  0.0355 -0.8140 -0.6576
  847MOL0     O16779   8.631   8.967   2.830  0.2046 -0.4068 -0.6311
  847MOL0     C16780   8.503   9.003   2.792 -0.0942  0.7040  0.4308
  847MOL0     C16781   8.468   9.004   2.658  0.2716  0.4265  0.2285
  847MOL0     C16782   8.343   9.061   2.622 -0.1724  0.6889  0.2811
  847MOL0     C16783   8.244   9.094   2.717 -0.6969 -0.0791 -0.6023
  847MOL0     O16784   8.124   9.136   2.670 -0.2883 -1.0009  0.2798
  847MOL0     C16785   8.004   9.157   2.759 -0.7274  0.2349  1.4750
  847MOL0     C16786   7.969   9.301   2.757  0.2752  0.4147 -0.3586
  847MOL0     C16787   7.839   9.325   2.837 -0.2876 -0.3710 -0.0659
  847MOL0     C16788   7.788   9.468   2.804 -0.2948  0.7454  0.7375
  847MOL0     C16789   7.665   9.508   2.891 -0.0155  0.4715  0.1368
  847MOL0     C16790   7.625   9.657   2.890 -0.0800  0.8998 -0.6037
  847MOL0     C16791   7.499   9.684   2.980 -0.6505 -0.1519 -0.2328
  847MOL0     C16792   7.489   9.833   3.024  0.1378 -0.1209 -0.3457
  847MOL0    Cl16793   7.455   9.841   3.209 -0.5476  0.3239  0.1579
  847MOL0     C16794   8.284   9.097   2.847  0.1895  0.2932  0.6516
  847MOL0     C16795   8.417   9.049   2.886  1.1024 -0.0987 -0.3709
  847MOL0     O16796   8.644   8.781   2.688  1.0346  0.9773 -0.6652
  847MOL0     C16797   8.917   8.938   2.871  0.2122 -0.3222  0.1406
  847MOL0     C16798   9.055   8.936   2.894  1.2120 -0.4410 -0.8884
  847MOL0     N16799   9.657   8.538   2.935  0.4375  0.5016 -0.1549
  847MOL0     N16800   9.775   8.542   2.876 -0.0575  0.0144  0.2285
  847MOL0     C16801   9.182   9.232   2.785 -0.0864  0.2995  0.4211
  847MOL0     C16802   9.051   9.285   2.784 -0.5323  0.6171 -0.0481
  847MOL0     C16803   8.673   9.411   3.008 -0.3184 -0.5189  0.2668
  847MOL0     C16804   8.607   9.476   2.895  0.7696  0.1988 -0.3811
  847MOL0     C16805   8.477   9.528   2.905 -0.0033  0.3523  0.0472
  847MOL0     C16806   8.408   9.506   3.030 -1.3525  0.3670 -0.0070
  847MOL0     O16807   8.283   9.556   3.056 -0.2740  0.3717 -0.5216
  847MOL0     C16808   8.179   9.519   2.960 -0.0069  0.0347 -0.1852
  847MOL0     C16809   8.132   9.633   2.884  0.0772 -0.1660  0.9654
  847MOL0     C16810   8.035   9.720   2.968  0.0326  0.0185  0.3020
  847MOL0     C16811   7.960   9.833   2.896  0.4707  0.0486  1.3628
  847MOL0     C16812   7.882   9.917   2.994 -0.9352  0.1428  0.2418
  847MOL0     C16813   7.830   9.988   3.079 -0.1936  0.4845 -0.1528
  847MOL0     C16814   8.466   9.439   3.135 -0.5940  0.9850  0.4836
  847MOL0     C16815   8.595   9.392   3.127 -0.3211 -0.0345 -0.2608
  847MOL0     C16816   8.652   9.320   3.246  0.1798 -0.1296 -0.0646
  847MOL0     H16817   9.088   9.519   3.020  0.2611  1.2276 -1.3311
  847MOL0     H16818   9.318   9.446   3.020  1.6076 -1.3497  0.3798
  847MOL0     H16819   9.480   9.393   2.752  2.6780  0.1524  0.5260
  847MOL0     H16820   9.445   9.253   2.660 -2.3587 -0.5834  2.0029
  847MOL0     H16821   9.676   9.271   2.676 -0.0929 -5.1093 -1.4098
  847MOL0     H16822   9.670   9.308   2.858  0.3088  1.7141 -1.5438
  847MOL0     H16823   9.598   9.071   2.880 -1.4462  1.3165 -1.7386
  847MOL0     H16824   9.622   9.047   2.706 -1.9785  1.3469  0.0074
  847MOL0     H16825   9.875   9.101   2.731 -0.4033  0.1300 -0.6947
  847MOL0     H16826   9.848   9.126   2.900  0.4443 -2.7105  1.1024
  847MOL0     H16827   9.808   8.858   2.747 -1.6274  1.1982 -0.5147
  847MOL0     H16828   9.777   8.883   2.924  0.9721  1.2745  0.8694
  847MOL0     H16829  10.040   8.946   2.793 -3.1253  2.1488 -1.4281
  847MOL0     H16830   9.989   8.904   2.967 -3.7089  2.6398 -1.4023
  847MOL0     H16831  10.129   8.736   2.819 -0.6181 -0.5977 -0.3443
  847MOL0     H16832   9.984   8.700   2.738  0.3305  1.4874 -0.7600
  847MOL0     H16833  10.043   8.542   2.945  1.8098  0.9433  0.6972
  847MOL0     H16834  10.026   8.677   3.050 -2.6399  1.0052  1.6087
  847MOL0     H16835   9.830   8.699   3.164 -0.1118 -1.1272 -0.3101
  847MOL0     H16836   9.557   8.656   3.238 -1.3177 -1.1862 -0.1874
  847MOL0     H16837   9.500   8.507   3.170 -2.3066  1.3594  1.6483
  847MOL0     H16838   9.380   8.623   2.981 -1.9507  0.5826  0.8095
  847MOL0     H16839   9.339   8.670   3.144  0.7469  1.0673 -0.1953
  847MOL0     H16840   9.511   8.867   3.094 -0.0880 -1.2849  1.0049
  847MOL0     H16841   9.523   8.806   2.935 -1.3072 -2.0030 -0.6901
  847MOL0     H16842   9.264   8.907   3.075 -0.6670  1.3138 -0.4772
  847MOL0     H16843   9.363   8.986   2.955  1.1062 -0.3176  1.8324
  847MOL0     H16844   9.122   8.649   2.725 -0.3446 -0.2729  0.3304
  847MOL0     H16845   8.848   8.674   2.550  1.9835  0.7528 -0.1501
  847MOL0     H16846   8.785   8.578   2.689 -0.1490  1.2734  1.1621
  847MOL0     H16847   8.947   8.554   2.630 -1.3151 -3.4781  3.9070
  847MOL0     H16848   8.535   8.978   2.577  3.2141  1.4550  2.1849
  847MOL0     H16849   8.302   9.083   2.524  2.2008  0.2438 -0.9052
  847MOL0     H16850   7.925   9.107   2.703  1.6836  0.0994 -2.2162
  847MOL0     H16851   8.022   9.120   2.860 -0.6291 -1.0152  1.0200
  847MOL0     H16852   8.055   9.351   2.802  0.0887 -0.8786  1.5324
  847MOL0     H16853   7.957   9.354   2.661 -3.5036  1.1755  0.3648
  847MOL0     H16854   7.859   9.311   2.944  0.4446  1.7268  0.1192
  847MOL0     H16855   7.767   9.252   2.801 -0.6804 -0.3675  0.6734
  847MOL0     H16856   7.765   9.474   2.697 -0.6826  0.3894  0.8005
  847MOL0     H16857   7.876   9.532   2.816  1.1079 -0.9882  0.1289
  847MOL0     H16858   7.574   9.463   2.851  1.6899 -1.0352 -2.3185
  847MOL0     H16859   7.675   9.470   2.993 -1.9528 -2.0800 -0.4994
  847MOL0     H16860   7.599   9.683   2.787  1.9662 -0.2561 -1.4439
  847MOL0     H16861   7.707   9.722   2.923 -0.0667  0.4703  0.2468
  847MOL0     H16862   7.504   9.623   3.071  0.0594 -0.6449 -0.5910
  847MOL0     H16863   7.405   9.668   2.926  0.5566 -3.1342 -1.6932
  847MOL0     H16864   7.428   9.899   2.962  1.4971  0.0172 -1.6060
  847MOL0     H16865   7.581   9.892   3.019  0.9475 -1.4465 -2.0303
  847MOL0     H16866   8.218   9.130   2.926  2.0750  4.4493  0.7710
  847MOL0     H16867   8.440   9.039   2.992 -1.5272  2.2374  0.5443
  847MOL0     H16868   8.858   9.022   2.907 -2.8981 -2.0880 -0.5379
  847MOL0     H16869   9.094   9.017   2.956 -1.0072 -1.1385  1.6289
  847MOL0     H16870   9.211   9.150   2.721 -1.3702  1.8556 -2.3441
  847MOL0     H16871   8.972   9.249   2.719 -0.6563  0.6720  0.0709
  847MOL0     H16872   8.661   9.498   2.804 -1.1456  1.1838 -1.3499
  847MOL0     H16873   8.427   9.582   2.825 -0.4712 -1.1111 -0.6773
  847MOL0     H16874   8.222   9.439   2.899 -2.1125 -1.1824 -0.1549
  847MOL0     H16875   8.091   9.473   3.006 -0.3189  2.4102  1.8131
  847MOL0     H16876   8.093   9.591   2.791  3.5464 -0.7575 -0.3610
  847MOL0     H16877   8.223   9.692   2.867 -0.9473  0.9532 -1.0475
  847MOL0     H16878   7.961   9.653   3.012  0.7438  0.5706  2.4694
  847MOL0     H16879   8.095   9.757   3.051  0.1401 -1.0940  0.7449
  847MOL0     H16880   7.894   9.790   2.819  1.9891  0.7896 -0.4087
  847MOL0     H16881   8.034   9.898   2.850 -0.7524  1.6625  1.5949
  847MOL0     H16882   7.778  10.055   3.145  2.1082 -0.4670  2.8686
  847MOL0     H16883   8.406   9.418   3.223  1.9896  0.7418  2.3273
  847MOL0     H16884   8.620   9.215   3.246 -0.9182  0.1664 -2.0257
  847MOL0     H16885   8.761   9.323   3.259 -0.0703  0.6462  2.3663
  847MOL0     H16886   8.618   9.372   3.336  0.0752 -1.3199  0.6027
  848MOL0     O16887   7.158   0.226   8.472  0.5366  0.8394 -0.5953
  848MOL0     C16888   7.195   0.326   8.410  0.3343  0.4928 -0.0266
  848MOL0     O16889   7.118   0.424   8.363  0.5741 -0.7164 -0.3741
  848MOL0     C16890   6.994   0.455   8.420  0.3579 -0.0174  0.2222
  848MOL0     C16891   6.897   0.508   8.337  0.3684  0.6314 -0.4423
  848MOL0     C16892   6.779   0.556   8.393 -0.5113 -0.1669  1.0233
  848MOL0     C16893   6.745   0.534   8.527 -0.3391 -0.3151 -0.4532
  848MOL0     O16894   6.635   0.558   8.597  0.4222  0.6155 -0.4420
  848MOL0     C16895   6.511   0.584   8.526  0.3989  0.3916  0.0698
  848MOL0     C16896   6.414   0.467   8.563  0.1336  0.8676 -0.5043
  848MOL0     C16897   6.461   0.325   8.522  0.2055  0.3198 -0.8464
  848MOL0     C16898   6.448   0.316   8.376  0.6700  0.5604  0.2065
  848MOL0     C16899   6.570   0.234   8.321 -0.8167  0.0816 -0.3114
  848MOL0     C16900   6.583   0.231   8.168 -0.3498  0.4623  0.0654
  848MOL0     C16901   6.623   0.360   8.109 -0.2008  0.2386  0.0609
  848MOL0     C16902   6.662   0.346   7.957 -0.1816  0.2003  0.6668
  848MOL0     N16903   6.550   0.326   7.871  0.9490  0.7715  0.1249
  848MOL0     C16904   6.432   0.387   7.876 -0.3992 -1.3844  0.1304
  848MOL0     C16905   6.354   0.333   7.778 -0.7034 -0.6666 -0.5633
  848MOL0     C16906   6.211   0.368   7.739 -0.5620  0.4582  0.4628
  848MOL0     C16907   6.111   0.273   7.811  0.5648  0.5896  0.0599
  848MOL0     C16908   6.102   0.305   7.957  0.1574 -0.1192  0.3655
  848MOL0     C16909   6.006   0.223   8.041 -0.0591 -0.1854 -0.2017
  848MOL0     O16910   6.047   0.196   8.171 -0.0911  0.2204  0.7049
  848MOL0     C16911   6.152   0.106   8.194 -0.0352 -0.0031 -0.5660
  848MOL0     C16912   6.225   0.038   8.097  0.1679 -0.9809  0.0551
  848MOL0     C16913   6.345  -0.041   8.128  0.6846  0.2696 -0.2426
  848MOL0     C16914   6.425  -0.100   8.014 -0.3431  0.4101  0.0511
  848MOL0     C16915   6.382  -0.071   8.261 -0.1123 -0.3498 -0.4548
  848MOL0     C16916   6.501  -0.153   8.297 -0.5498 -0.5202 -0.6362
  848MOL0     O16917   6.533  -0.129   8.435  0.6139 -0.1859 -0.1216
  848MOL0     C16918   6.654  -0.189   8.465  0.2648  0.1566 -0.1146
  848MOL0     C16919   6.651  -0.313   8.532 -0.2841  1.4362 -0.0419
  848MOL0     C16920   6.777  -0.371   8.559 -0.4622 -0.9889 -0.2542
  848MOL0     C16921   6.899  -0.303   8.541 -0.8608  0.9660 -0.0793
  848MOL0     O16922   7.026  -0.356   8.577  0.0625 -0.2083 -0.7090
  848MOL0     C16923   7.031  -0.484   8.622 -0.3600 -0.2381 -0.2366
  848MOL0     C16924   7.178  -0.537   8.630  0.0093 -0.4328 -0.1701
  848MOL0     C16925   7.229  -0.548   8.775 -0.4569 -0.0819  0.3890
  848MOL0     C16926   7.362  -0.628   8.781 -0.2553  0.0303 -0.0098
  848MOL0     C16927   7.491  -0.569   8.715  0.3356  0.0807 -0.5705
  848MOL0     C16928   7.527  -0.433   8.775 -0.4192 -0.6329  0.4781
  848MOL0     C16929   7.664  -0.393   8.711  0.1947  0.8196  0.2104
  848MOL0     C16930   7.780  -0.480   8.767  0.1187  0.0089  0.1942
  848MOL0    Cl16931   7.935  -0.397   8.747  0.1658 -0.2943 -0.3427
  848MOL0     C16932   6.896  -0.181   8.479  0.1985 -0.6330  0.0931
  848MOL0     C16933   6.775  -0.126   8.434 -0.4306 -0.0256  0.0091
  848MOL0     O16934   6.567  -0.223   8.217 -0.0565 -0.1127  0.3589
  848MOL0     C16935   6.297  -0.020   8.361  0.8729  0.9319 -0.1233
  848MOL0     C16936   6.187   0.072   8.328  0.4759 -0.0606 -0.1458
  848MOL0     N16937   6.412   0.219   7.732  0.1014 -0.7051  0.0013
  848MOL0     N16938   6.529   0.215   7.787  0.0713 -0.5331 -0.0070
  848MOL0     C16939   6.838   0.468   8.612  0.6764 -0.0934 -0.1704
  848MOL0     C16940   6.961   0.434   8.561  0.1770  0.5660 -0.8300
  848MOL0     C16941   7.335   0.328   8.369 -0.0286 -0.1496 -0.0488
  848MOL0     C16942   7.422   0.271   8.466  0.0711 -0.3386 -0.4509
  848MOL0     C16943   7.563   0.283   8.446  0.0192 -0.4279  0.6934
  848MOL0     C16944   7.611   0.372   8.348  0.1908 -0.1115  0.0036
  848MOL0     O16945   7.744   0.393   8.358  0.2238 -1.1122  0.0783
  848MOL0     C16946   7.801   0.508   8.290 -0.2227  0.1211 -0.1543
  848MOL0     C16947   7.918   0.571   8.366  0.0026  0.4944  0.1280
  848MOL0     C16948   7.939   0.497   8.497  0.5956  0.1522  0.1629
  848MOL0     C16949   8.038   0.576   8.583 -0.3892 -0.0914 -0.6338
  848MOL0     C16950   8.067   0.501   8.706 -0.2142  0.5899 -0.8181
  848MOL0     C16951   8.085   0.453   8.819 -1.2973 -0.0783 -0.3544
  848MOL0     C16952   7.520   0.424   8.253  0.6514  0.0404  0.7788
  848MOL0     C16953   7.387   0.396   8.258 -0.1798 -0.6198 -0.0441
  848MOL0     C16954   7.305   0.442   8.139 -0.2483 -0.1570 -1.0207
  848MOL0     H16955   6.927   0.521   8.234  3.3627 -0.9243  0.1350
  848MOL0     H16956   6.707   0.619   8.341  2.1790  1.5658 -0.8540
  848MOL0     H16957   6.515   0.590   8.417 -2.4453 -2.2821 -0.3107
  848MOL0     H16958   6.467   0.677   8.563 -4.3540 -1.1331 -1.1065
  848MOL0     H16959   6.407   0.468   8.673  1.7203 -0.5738 -0.3463
  848MOL0     H16960   6.310   0.481   8.530 -0.6267 -2.0662  0.3634
  848MOL0     H16961   6.560   0.304   8.563 -1.1768 -0.3493  2.4827
  848MOL0     H16962   6.404   0.246   8.571  0.7339  0.8988  0.7978
  848MOL0     H16963   6.352   0.275   8.343  2.1429 -1.7971 -1.5673
  848MOL0     H16964   6.463   0.412   8.326 -0.3357  0.0232 -1.2068
  848MOL0     H16965   6.541   0.131   8.342  0.0386 -0.4522 -1.6319
  848MOL0     H16966   6.667   0.257   8.366 -1.2396  1.0762  0.1110
  848MOL0     H16967   6.657   0.155   8.141 -1.0704  0.5838 -2.5483
  848MOL0     H16968   6.481   0.204   8.138 -0.5324 -1.3517  2.0665
  848MOL0     H16969   6.699   0.414   8.166 -1.1210  1.5857  0.0674
  848MOL0     H16970   6.538   0.429   8.107  0.5401  1.1667 -0.2639
  848MOL0     H16971   6.705   0.446   7.941 -2.2192  0.9965 -0.1699
  848MOL0     H16972   6.736   0.268   7.938 -0.4767  0.0175  0.2425
  848MOL0     H16973   6.410   0.472   7.939  0.4600  0.7808 -2.3052
  848MOL0     H16974   6.207   0.349   7.631  3.2709 -0.6885  0.3834
  848MOL0     H16975   6.185   0.473   7.752  1.7011  1.0406  0.7985
  848MOL0     H16976   6.007   0.270   7.777  0.3259 -0.5348  0.8279
  848MOL0     H16977   6.142   0.170   7.790  1.1075  0.8190 -0.2726
  848MOL0     H16978   6.200   0.279   7.997 -0.3983 -0.5997  1.4670
  848MOL0     H16979   6.081   0.412   7.968  1.0741  0.0053  1.0382
  848MOL0     H16980   5.920   0.290   8.041  0.3600  0.3637 -0.8996
  848MOL0     H16981   5.990   0.125   7.994  2.0209  0.4746 -2.4734
  848MOL0     H16982   6.198   0.058   7.994 -2.0275  2.4237  1.1339
  848MOL0     H16983   6.524  -0.053   8.018  0.2296 -0.8420  2.5830
  848MOL0     H16984   6.381  -0.079   7.916  4.0508  0.9515 -2.0786
  848MOL0     H16985   6.429  -0.209   8.021  1.6055  0.5373  2.8031
  848MOL0     H16986   6.554  -0.358   8.550  0.7090  0.2806  3.1112
  848MOL0     H16987   6.768  -0.471   8.600  3.0529 -1.6137 -0.6577
  848MOL0     H16988   6.980  -0.494   8.718  0.9392  1.1105  0.6417
  848MOL0     H16989   6.981  -0.544   8.546  0.2476 -1.8480  0.5736
  848MOL0     H16990   7.167  -0.637   8.587 -2.9748  0.1893 -1.1292
  848MOL0     H16991   7.245  -0.481   8.565 -2.0010  1.3139 -0.8807
  848MOL0     H16992   7.173  -0.605   8.850  2.0394 -2.1885  0.7737
  848MOL0     H16993   7.245  -0.444   8.806  0.6660  0.0322 -0.5093
  848MOL0     H16994   7.347  -0.725   8.733 -0.6699  1.3596 -2.7947
  848MOL0     H16995   7.387  -0.636   8.887 -0.0744  3.3360  0.2932
  848MOL0     H16996   7.571  -0.643   8.718  0.8170  0.5666 -1.2056
  848MOL0     H16997   7.468  -0.553   8.609  1.7057  1.7387 -0.6605
  848MOL0     H16998   7.532  -0.450   8.883  0.7658  1.8888  0.9137
  848MOL0     H16999   7.447  -0.364   8.748  0.1020 -0.6827 -1.3629
  848MOL0     H17000   7.677  -0.285   8.720 -2.6810  1.3437 -0.8432
  848MOL0     H17001   7.652  -0.420   8.605  0.7833  0.7553  0.1544
  848MOL0     H17002   7.786  -0.580   8.725  3.1992 -0.5006  1.5528
  848MOL0     H17003   7.770  -0.504   8.874  3.7352 -2.1352  0.2210
  848MOL0     H17004   6.993  -0.134   8.467 -1.2060  2.9714  1.4023
  848MOL0     H17005   6.782  -0.027   8.388 -0.9204  0.9268  1.8885
  848MOL0     H17006   6.316  -0.041   8.466  0.4027  1.6723  0.1184
  848MOL0     H17007   6.136   0.127   8.407  0.8342  2.8325 -1.7809
  848MOL0     H17008   6.795   0.459   8.711 -0.7727  2.8940 -0.4312
  848MOL0     H17009   7.032   0.384   8.626 -0.3203 -0.1363 -0.8105
  848MOL0     H17010   7.391   0.216   8.554  2.0274 -2.3180 -0.9105
  848MOL0     H17011   7.642   0.247   8.511  1.6500  1.8528  0.1074
  848MOL0     H17012   7.841   0.488   8.191 -2.0043 -0.2537 -0.8371
  848MOL0     H17013   7.721   0.582   8.275  0.0357  0.5238  0.4017
  848MOL0     H17014   7.897   0.677   8.388 -0.5659  0.7119 -1.3105
  848MOL0     H17015   8.009   0.574   8.306 -0.9909  0.0720 -1.4679
  848MOL0     H17016   7.844   0.486   8.549 -0.1301  4.5679  0.1809
  848MOL0     H17017   7.997   0.406   8.477  2.1831  0.4205  3.0431
  848MOL0     H17018   7.990   0.668   8.616 -1.7388 -1.4829  1.5808
  848MOL0     H17019   8.126   0.595   8.522 -0.8024  2.6624 -0.4890
  848MOL0     H17020   8.095   0.406   8.915 -0.9179  1.6378  0.4818
  848MOL0     H17021   7.557   0.495   8.180  2.2927 -2.7453 -1.3488
  848MOL0     H17022   7.369   0.460   8.052 -0.5640  2.1207 -0.8469
  848MOL0     H17023   7.226   0.368   8.122 -2.0783  1.5622 -0.4162
  848MOL0     H17024   7.260   0.538   8.164  1.1366 -0.4487  3.3944
  849MOL0     O17025  10.926   5.518   3.773 -0.4408 -0.4415  0.0786
  849MOL0     C17026  10.983   5.410   3.787 -1.1136 -0.0142 -0.4552
  849MOL0     O17027  10.947   5.302   3.724  0.1752  0.0664 -0.5045
  849MOL0     C17028  10.813   5.284   3.703  0.7805  0.4087  0.4211
  849MOL0     C17029  10.718   5.300   3.807  0.7015  0.4992 -0.6853
  849MOL0     C17030  10.590   5.243   3.802  0.4067 -0.1593  0.5485
  849MOL0     C17031  10.539   5.188   3.684 -0.0427 -0.4686 -0.8123
  849MOL0     O17032  10.400   5.160   3.682  0.0021 -0.1658  0.2912
  849MOL0     C17033  10.365   5.045   3.596 -0.1197 -0.5584  0.6303
  849MOL0     C17034  10.214   5.023   3.616  0.3849  0.3167  0.7135
  849MOL0     C17035  10.166   4.890   3.543  0.1433 -0.2738  0.2916
  849MOL0     C17036  10.024   4.851   3.591 -0.0964  0.5726 -0.1831
  849MOL0     C17037   9.963   4.738   3.503  0.3758  0.5185 -0.4438
  849MOL0     C17038  10.001   4.591   3.552  0.1683  0.0675 -0.2225
  849MOL0     C17039   9.914   4.480   3.496 -0.1173  0.4506 -0.4377
  849MOL0     C17040   9.986   4.427   3.368 -0.0113 -0.6858 -0.8037
  849MOL0     N17041  10.088   4.332   3.408 -0.8328 -0.4001  0.0490
  849MOL0     C17042  10.073   4.214   3.465  0.1180  0.6196 -0.1637
  849MOL0     C17043  10.191   4.157   3.485 -0.1461  0.8670 -0.0827
  849MOL0     C17044  10.214   4.015   3.545 -0.7687 -0.3551  0.4038
  849MOL0     C17045  10.279   3.915   3.449  0.5199  0.7009  0.9768
  849MOL0     C17046  10.413   3.964   3.403 -0.1695  0.4945 -0.5350
  849MOL0     C17047  10.475   3.861   3.314 -0.0265  0.2804 -0.5113
  849MOL0     O17048  10.610   3.827   3.353 -0.3432  0.0769  0.4558
  849MOL0     C17049  10.702   3.791   3.253  0.0430 -1.0259 -0.5637
  849MOL0     C17050  10.657   3.743   3.134  0.5504 -0.6932 -0.1621
  849MOL0     C17051  10.744   3.712   3.027 -0.2901 -0.3185 -0.4699
  849MOL0     C17052  10.690   3.682   2.898 -0.0404  0.2746 -0.1783
  849MOL0     C17053  10.884   3.717   3.058  0.4693 -1.1625  1.5276
  849MOL0     C17054  10.986   3.685   2.957  0.3990 -0.8542  0.0155
  849MOL0     O17055  11.094   3.771   2.938  0.6953  0.2777 -0.3485
  849MOL0     C17056  11.204   3.733   2.869 -0.2379  0.4252  0.4974
  849MOL0     C17057  11.305   3.669   2.930  0.7580 -0.1195 -0.7439
  849MOL0     C17058  11.409   3.625   2.857 -0.0419  0.2308  0.1210
  849MOL0     C17059  11.419   3.646   2.719  0.4110  0.3199  0.1838
  849MOL0     O17060  11.525   3.586   2.651  0.2054  0.5157  0.0945
  849MOL0     C17061  11.485   3.505   2.543  0.0775 -0.2454  0.9937
  849MOL0     C17062  11.578   3.400   2.518  0.7620 -0.1372  0.0452
  849MOL0     C17063  11.715   3.448   2.466  0.4247  0.8347 -0.1999
  849MOL0     C17064  11.808   3.322   2.460 -0.6719  0.0296 -0.3104
  849MOL0     C17065  11.806   3.258   2.318  0.1309  0.0045 -0.4380
  849MOL0     C17066  11.923   3.171   2.282  0.0849  0.7056  0.0599
  849MOL0     C17067  11.919   3.048   2.379 -1.3980  0.0711 -0.1284
  849MOL0     C17068  12.054   2.985   2.345  0.1365 -0.8635 -0.6025
  849MOL0    Cl17069  12.199   3.072   2.392 -0.1909 -0.3344 -0.9295
  849MOL0     C17070  11.308   3.710   2.657 -0.9348 -0.1267 -0.1918
  849MOL0     C17071  11.193   3.746   2.732  0.2347  0.6578 -0.2091
  849MOL0     O17072  10.979   3.579   2.901  0.6036 -0.2276  0.0754
  849MOL0     C17073  10.928   3.756   3.182 -0.0055  0.5282 -0.9226
  849MOL0     C17074  10.837   3.786   3.284  0.7975 -0.1793 -0.6733
  849MOL0     N17075  10.281   4.246   3.443 -0.8891 -0.6314  0.1094
  849MOL0     N17076  10.220   4.358   3.410 -0.1544 -0.3533  0.1806
  849MOL0     C17077  10.635   5.184   3.581  0.0813 -0.2758 -0.5973
  849MOL0     C17078  10.765   5.225   3.582 -0.1625  0.3097  0.3444
  849MOL0     C17079  11.115   5.412   3.861 -0.6240  0.1568 -0.5140
  849MOL0     C17080  11.179   5.283   3.885 -0.3209 -0.7434 -0.3096
  849MOL0     C17081  11.293   5.270   3.958 -0.0834 -0.0212 -0.5170
  849MOL0     C17082  11.350   5.383   4.022  0.6835 -0.0961  0.4667
  849MOL0     O17083  11.454   5.367   4.104  0.4116 -0.1147  0.3846
  849MOL0     C17084  11.417   5.380   4.246 -0.0725  0.1626 -0.4055
  849MOL0     C17085  11.512   5.295   4.338  0.0006 -0.5219  0.1377
  849MOL0     C17086  11.511   5.141   4.307  0.2982 -0.6714  0.0965
  849MOL0     C17087  11.384   5.064   4.369 -1.0962  0.9110  0.3814
  849MOL0     C17088  11.383   5.069   4.520 -1.0119 -0.2111  1.1159
  849MOL0     C17089  11.377   5.085   4.641  0.1136  0.2735 -0.5170
  849MOL0     C17090  11.285   5.505   4.006  0.4790 -0.3936  0.7593
  849MOL0     C17091  11.169   5.527   3.917  0.2866  0.3489  0.3305
  849MOL0     C17092  11.130   5.674   3.897  0.0309  0.7769  0.0984
  849MOL0     H17093  10.761   5.344   3.896  1.6001 -2.9185  0.7367
  849MOL0     H17094  10.518   5.260   3.882  0.9536 -2.5304  1.6442
  849MOL0     H17095  10.426   4.963   3.633  4.6260  2.4615  0.4568
  849MOL0     H17096  10.398   5.070   3.495 -0.2103  1.0749  0.9685
  849MOL0     H17097  10.191   5.012   3.722  0.6977 -1.6319  0.6137
  849MOL0     H17098  10.174   5.101   3.550  0.4908  0.6080  0.9936
  849MOL0     H17099  10.155   4.908   3.436 -0.7251 -0.7619  0.2921
  849MOL0     H17100  10.241   4.813   3.561  0.0088 -0.5963 -0.5204
  849MOL0     H17101  10.027   4.823   3.697  1.6842  0.8537 -0.1337
  849MOL0     H17102   9.961   4.939   3.578  1.7501  1.5681 -3.3995
  849MOL0     H17103   9.997   4.752   3.400  1.1055  0.1021 -0.2713
  849MOL0     H17104   9.856   4.742   3.521  0.4487 -1.5294  0.7980
  849MOL0     H17105  10.110   4.582   3.545  0.1503  0.6083 -1.7989
  849MOL0     H17106   9.984   4.574   3.658 -0.1939 -1.5784 -0.5141
  849MOL0     H17107   9.820   4.524   3.464 -1.1713 -1.4692 -0.1252
  849MOL0     H17108   9.880   4.402   3.565  1.9148  0.1396  0.3088
  849MOL0     H17109   9.909   4.380   3.306 -1.0640  3.1771 -2.7839
  849MOL0     H17110  10.038   4.504   3.310  3.0855 -2.1735 -0.1993
  849MOL0     H17111   9.983   4.160   3.488  1.7806 -1.6909  1.4005
  849MOL0     H17112  10.122   3.968   3.583 -1.8050  0.6650 -0.7506
  849MOL0     H17113  10.276   4.043   3.630 -3.1656  1.6229  1.6030
  849MOL0     H17114  10.285   3.811   3.482  0.3527 -0.1747 -1.5024
  849MOL0     H17115  10.209   3.927   3.365  1.8071  0.6262 -0.1509
  849MOL0     H17116  10.400   4.055   3.343  0.0042  0.5556 -0.4799
  849MOL0     H17117  10.478   3.983   3.489 -2.3825  0.2015  1.3132
  849MOL0     H17118  10.417   3.768   3.305 -1.8255  1.2609  0.4520
  849MOL0     H17119  10.460   3.903   3.214 -2.6827 -0.1080 -0.3529
  849MOL0     H17120  10.549   3.741   3.118  0.7384 -1.4230 -1.4871
  849MOL0     H17121  10.761   3.693   2.816  1.1042 -0.0208  0.7492
  849MOL0     H17122  10.615   3.759   2.876  1.1590  2.5293  2.8002
  849MOL0     H17123  10.632   3.590   2.903  2.6114 -1.5900 -1.4213
  849MOL0     H17124  11.296   3.640   3.034 -1.8082 -0.4552 -0.9772
  849MOL0     H17125  11.485   3.569   2.910 -0.6673 -2.5081 -1.6868
  849MOL0     H17126  11.392   3.451   2.563  0.8199 -1.4684  1.2232
  849MOL0     H17127  11.485   3.575   2.459  4.3015  2.3103  2.8217
  849MOL0     H17128  11.585   3.335   2.606  0.1661 -0.0698  0.1417
  849MOL0     H17129  11.545   3.337   2.434  0.7301  1.2913 -1.0504
  849MOL0     H17130  11.757   3.515   2.542 -0.3625  1.3157 -0.1737
  849MOL0     H17131  11.720   3.509   2.376  2.2282  2.1686  0.7398
  849MOL0     H17132  11.782   3.248   2.537 -0.0780 -1.6382 -1.6501
  849MOL0     H17133  11.907   3.339   2.503 -0.6068 -1.9981  0.4622
  849MOL0     H17134  11.716   3.197   2.312 -0.7288  1.2229 -0.3690
  849MOL0     H17135  11.805   3.334   2.239 -1.3173  2.3361  1.6557
  849MOL0     H17136  12.017   3.227   2.283  0.5550 -0.0173 -1.2964
  849MOL0     H17137  11.908   3.136   2.180  1.9547  0.1173 -0.0436
  849MOL0     H17138  11.843   2.973   2.351  0.2089 -1.3652 -0.7934
  849MOL0     H17139  11.913   3.082   2.483  2.0034  2.8818 -0.6862
  849MOL0     H17140  12.046   2.973   2.237 -1.3653  0.5363 -0.6812
  849MOL0     H17141  12.062   2.882   2.381 -0.9461 -0.8157 -0.1680
  849MOL0     H17142  11.312   3.731   2.551 -3.9667  0.6873 -0.2514
  849MOL0     H17143  11.104   3.789   2.689 -1.7605  1.4240  4.1401
  849MOL0     H17144  11.030   3.760   3.218  0.3223 -2.1995 -1.3455
  849MOL0     H17145  10.865   3.825   3.381  1.3428 -1.6232 -0.2286
  849MOL0     H17146  10.592   5.147   3.488  0.3223  3.1601 -2.2063
  849MOL0     H17147  10.829   5.204   3.497 -0.4784 -0.2022  0.2303
  849MOL0     H17148  11.143   5.195   3.833 -1.3367 -0.2752 -0.4237
  849MOL0     H17149  11.340   5.173   3.969  0.7940  0.2967 -1.2624
  849MOL0     H17150  11.439   5.485   4.268 -3.4715  0.5810  1.6833
  849MOL0     H17151  11.311   5.358   4.260  0.5208 -2.1073  1.2276
  849MOL0     H17152  11.492   5.322   4.441 -1.3184  1.2223 -0.5369
  849MOL0     H17153  11.610   5.331   4.305 -0.5644 -0.0575 -1.0931
  849MOL0     H17154  11.509   5.126   4.199 -3.3513 -1.0995  0.1085
  849MOL0     H17155  11.600   5.094   4.351  1.1904  0.4815 -0.4175
  849MOL0     H17156  11.393   4.958   4.344  1.4302  1.2142 -0.2911
  849MOL0     H17157  11.297   5.114   4.325  1.6043  4.0901 -1.8578
  849MOL0     H17158  11.369   5.101   4.746 -1.5315 -0.5764 -0.4860
  849MOL0     H17159  11.329   5.595   4.049 -0.2573  0.9453 -1.1257
  849MOL0     H17160  11.211   5.745   3.916  0.7621  0.4344 -1.5448
  849MOL0     H17161  11.111   5.684   3.790  1.8171 -0.1771 -0.3512
  849MOL0     H17162  11.041   5.693   3.956 -1.2720  1.2579 -1.9331
  850MOL0     O17163   2.799   2.011   1.541 -0.2045 -0.1699  0.3832
  850MOL0     C17164   2.791   2.098   1.623 -0.7051  0.0074  1.3738
  850MOL0     O17165   2.883   2.192   1.638 -0.3853  0.6880 -0.2531
  850MOL0     C17166   3.001   2.194   1.571  0.8682  0.4444 -0.2770
  850MOL0     C17167   3.119   2.161   1.636 -0.2076  0.6015 -0.2746
  850MOL0     C17168   3.241   2.164   1.572 -0.1404 -0.2788 -0.3674
  850MOL0     C17169   3.255   2.231   1.444  0.0582 -0.6936 -0.7540
  850MOL0     O17170   3.380   2.264   1.403 -0.0609  0.6007  0.4125
  850MOL0     C17171   3.384   2.318   1.272  0.4408  0.3542 -0.8396
  850MOL0     C17172   3.532   2.369   1.258 -0.1617  0.4359 -0.6425
  850MOL0     C17173   3.558   2.495   1.332  0.3802  0.2625  0.4418
  850MOL0     C17174   3.687   2.562   1.296  0.0735 -0.2764  0.0676
  850MOL0     C17175   3.691   2.711   1.354  0.6803  0.1758  0.0255
  850MOL0     C17176   3.680   2.700   1.514 -0.4312  0.5490  0.1009
  850MOL0     C17177   3.711   2.838   1.585 -1.1104 -0.8163  0.2769
  850MOL0     C17178   3.734   2.836   1.740  0.1865 -0.1955 -0.0876
  850MOL0     N17179   3.851   2.763   1.775  0.2741 -0.0042 -0.4801
  850MOL0     C17180   3.972   2.825   1.782 -0.1679  0.4394 -0.0555
  850MOL0     C17181   4.063   2.723   1.803  0.2112 -0.2988  0.1482
  850MOL0     C17182   4.212   2.716   1.815 -0.0874 -0.5703 -0.2360
  850MOL0     C17183   4.247   2.644   1.942  0.4754 -0.4456  0.1911
  850MOL0     C17184   4.387   2.592   1.942 -0.3219 -0.0365 -0.7151
  850MOL0     C17185   4.503   2.690   1.906  0.2089 -0.2150 -0.2203
  850MOL0     O17186   4.511   2.800   1.994  0.1778 -0.5070 -0.0320
  850MOL0     C17187   4.557   2.932   1.957 -0.5053  0.0269 -0.8154
  850MOL0     C17188   4.490   3.045   1.999 -0.5857  0.5113  0.1356
  850MOL0     C17189   4.516   3.175   1.956  0.4981 -0.4374  0.6438
  850MOL0     C17190   4.422   3.286   2.008 -0.6945  0.0174 -0.0117
  850MOL0     C17191   4.627   3.192   1.866  0.0388  1.0677 -0.0413
  850MOL0     C17192   4.684   3.322   1.831 -0.7682 -0.5380  0.1251
  850MOL0     O17193   4.767   3.339   1.721  1.3712  0.4463 -0.4597
  850MOL0     C17194   4.852   3.450   1.708  1.0673 -0.0682 -0.1195
  850MOL0     C17195   4.818   3.549   1.610 -0.3661  0.0404 -0.8600
  850MOL0     C17196   4.894   3.665   1.608 -0.2119 -0.0340  0.6089
  850MOL0     C17197   5.006   3.685   1.686  0.1552 -0.2919  0.5987
  850MOL0     O17198   5.079   3.802   1.665  0.6319  0.1893 -0.6041
  850MOL0     C17199   5.117   3.882   1.786  0.5139  0.4303  0.2064
  850MOL0     C17200   5.190   4.010   1.748  1.0453 -0.0189  0.7832
  850MOL0     C17201   5.096   4.105   1.669 -0.2361  0.0946 -1.2684
  850MOL0     C17202   5.153   4.252   1.668  0.0848  0.9351 -0.6424
  850MOL0     C17203   5.051   4.338   1.583  0.2187 -0.0435 -0.8625
  850MOL0     C17204   5.103   4.480   1.549 -0.0101  0.4218  0.1809
  850MOL0     C17205   5.160   4.568   1.663  0.3797 -0.0385 -0.1641
  850MOL0     C17206   5.225   4.692   1.609 -0.3718 -0.9257  0.1568
  850MOL0    Cl17207   5.117   4.783   1.508 -0.2411 -0.2464  0.1105
  850MOL0     C17208   5.038   3.587   1.783 -0.5585  0.0676 -0.3549
  850MOL0     C17209   4.956   3.475   1.794 -0.2685 -0.8920 -0.2901
  850MOL0     O17210   4.664   3.409   1.917 -0.4862  0.0333  1.2974
  850MOL0     C17211   4.700   3.075   1.824 -0.1376 -0.2635 -0.5877
  850MOL0     C17212   4.664   2.950   1.870 -0.2540 -0.2821 -0.7382
  850MOL0     N17213   3.984   2.606   1.815  0.1549 -0.1463  0.3035
  850MOL0     N17214   3.859   2.630   1.804  0.6981  0.6299 -0.0087
  850MOL0     C17215   3.131   2.270   1.389  0.4654 -1.1139  0.0992
  850MOL0     C17216   3.010   2.253   1.450  0.6154 -0.9177  0.2124
  850MOL0     C17217   2.680   2.107   1.717 -0.1760  0.4854  0.3045
  850MOL0     C17218   2.557   2.072   1.661  0.4051 -0.0405  0.5451
  850MOL0     C17219   2.440   2.066   1.743  0.2718  0.9696 -0.6293
  850MOL0     C17220   2.430   2.125   1.871 -0.9320 -0.1060 -0.9322
  850MOL0     O17221   2.326   2.127   1.959 -0.4614 -1.1017 -0.0393
  850MOL0     C17222   2.193   2.102   1.910 -0.0540  0.1637 -0.4719
  850MOL0     C17223   2.134   2.233   1.864  0.4860  0.0332 -0.6814
  850MOL0     C17224   1.982   2.221   1.834 -0.4986 -0.1221 -0.0341
  850MOL0     C17225   1.916   2.356   1.771 -0.0241  0.4379  0.0491
  850MOL0     C17226   1.932   2.470   1.860  0.6084 -0.4411 -0.0305
  850MOL0     C17227   1.936   2.571   1.932  0.5984 -0.0247 -0.4090
  850MOL0     C17228   2.557   2.154   1.930 -0.0786 -0.3139 -0.3360
  850MOL0     C17229   2.679   2.134   1.852 -0.0303  0.4842  0.2720
  850MOL0     C17230   2.803   2.131   1.937 -0.5690 -0.0139 -0.4913
  850MOL0     H17231   3.103   2.125   1.737 -0.3436  0.3938 -0.3691
  850MOL0     H17232   3.327   2.134   1.632 -0.9082  2.3020  2.2974
  850MOL0     H17233   3.321   2.405   1.249  3.8354  2.6966 -1.9548
  850MOL0     H17234   3.372   2.234   1.203 -1.1782  0.4194 -0.6793
  850MOL0     H17235   3.598   2.286   1.287 -0.3403 -1.1146 -4.1526
  850MOL0     H17236   3.550   2.377   1.150  0.5319 -1.9123 -0.7668
  850MOL0     H17237   3.483   2.567   1.299 -0.3983 -1.1004 -0.8666
  850MOL0     H17238   3.543   2.476   1.439  1.6121 -0.3747  0.5154
  850MOL0     H17239   3.774   2.508   1.335  1.0529  0.3437 -1.1970
  850MOL0     H17240   3.696   2.554   1.187 -0.3594  1.7628 -0.1415
  850MOL0     H17241   3.613   2.780   1.323 -0.4512 -1.1722 -0.2490
  850MOL0     H17242   3.776   2.767   1.315  0.9900 -0.0082  0.4294
  850MOL0     H17243   3.582   2.666   1.546  0.3365 -1.9615  0.0360
  850MOL0     H17244   3.757   2.632   1.555  1.6292  1.7447 -1.5714
  850MOL0     H17245   3.631   2.905   1.555  0.2826 -0.3334 -2.8287
  850MOL0     H17246   3.804   2.884   1.549  0.8379 -2.8797  2.2915
  850MOL0     H17247   3.754   2.938   1.773  2.6053 -1.1256  1.5900
  850MOL0     H17248   3.646   2.795   1.790  0.5368  1.0571  1.6286
  850MOL0     H17249   3.993   2.931   1.793  0.1328  0.2159  1.8295
  850MOL0     H17250   4.260   2.814   1.809  1.2754 -1.1086  1.2604
  850MOL0     H17251   4.246   2.663   1.726 -1.4574 -0.5597 -0.7852
  850MOL0     H17252   4.236   2.692   2.040  0.5780 -0.6553  0.3051
  850MOL0     H17253   4.187   2.554   1.952 -0.2674 -0.4274 -3.1173
  850MOL0     H17254   4.406   2.562   2.045 -1.7699  1.1596 -0.0672
  850MOL0     H17255   4.391   2.501   1.881  0.7439 -0.5523  0.0909
  850MOL0     H17256   4.600   2.641   1.899  1.2816  1.7623  0.1706
  850MOL0     H17257   4.471   2.736   1.811  1.2702  0.3944 -0.2927
  850MOL0     H17258   4.406   3.039   2.067  0.3167  1.4703  1.3734
  850MOL0     H17259   4.411   3.366   1.934 -1.1063 -1.5684 -1.7399
  850MOL0     H17260   4.459   3.333   2.099  2.4025 -1.4412 -0.3893
  850MOL0     H17261   4.323   3.243   2.023 -2.1771  2.8616 -0.9122
  850MOL0     H17262   4.733   3.524   1.548 -1.0112  3.2989 -1.4365
  850MOL0     H17263   4.878   3.740   1.531 -0.8312 -0.3041  0.4724
  850MOL0     H17264   5.024   3.904   1.840  0.2181  2.2463 -0.9561
  850MOL0     H17265   5.186   3.828   1.852  1.3700  2.1253  0.7597
  850MOL0     H17266   5.226   4.057   1.841 -1.2886 -0.9422  2.2413
  850MOL0     H17267   5.278   3.995   1.685 -1.2792  1.3362 -3.1689
  850MOL0     H17268   4.998   4.119   1.715  1.1221 -0.5298  2.1325
  850MOL0     H17269   5.076   4.075   1.566  2.9615 -0.2924 -1.8925
  850MOL0     H17270   5.247   4.256   1.613  1.3468 -4.4491  0.5164
  850MOL0     H17271   5.163   4.297   1.767 -1.5911  0.9650 -0.4540
  850MOL0     H17272   5.029   4.281   1.492  0.4097 -2.2284  0.3809
  850MOL0     H17273   4.955   4.349   1.634  0.9588 -0.6929  0.7640
  850MOL0     H17274   5.006   4.519   1.517 -2.2386 -4.9309 -0.6033
  850MOL0     H17275   5.179   4.478   1.469 -2.1109 -2.3408 -1.9605
  850MOL0     H17276   5.242   4.514   1.710  1.0712  1.0049 -0.1203
  850MOL0     H17277   5.090   4.603   1.739 -0.2843 -0.1172 -0.7385
  850MOL0     H17278   5.307   4.651   1.548 -1.2148 -1.4595 -0.6324
  850MOL0     H17279   5.263   4.752   1.693 -0.8418  1.7512 -1.4343
  850MOL0     H17280   5.123   3.598   1.850 -1.0257 -5.1618  1.6357
  850MOL0     H17281   4.973   3.411   1.881  1.4838  1.3525  1.1271
  850MOL0     H17282   4.791   3.092   1.768 -0.7339  0.6284 -1.3181
  850MOL0     H17283   4.716   2.865   1.828 -0.8230 -1.7201  1.2988
  850MOL0     H17284   3.130   2.328   1.297 -0.9560  0.1653  0.8647
  850MOL0     H17285   2.919   2.292   1.405  2.0758 -0.5452 -2.6231
  850MOL0     H17286   2.558   2.030   1.562  3.9727 -0.6051  0.6873
  850MOL0     H17287   2.357   2.003   1.711 -0.6939  0.8147  1.9448
  850MOL0     H17288   2.191   2.039   1.820 -0.4994 -0.6634  0.1119
  850MOL0     H17289   2.132   2.045   1.980  3.3845 -3.3159  0.0086
  850MOL0     H17290   2.190   2.272   1.778  0.1550  0.5466 -0.6698
  850MOL0     H17291   2.140   2.311   1.940  3.1677  3.1830 -3.7384
  850MOL0     H17292   1.972   2.135   1.768 -1.2731  0.3257 -0.5172
  850MOL0     H17293   1.934   2.193   1.929 -2.5707  0.9746 -0.6885
  850MOL0     H17294   1.811   2.340   1.746  0.6819 -1.4578 -2.1165
  850MOL0     H17295   1.952   2.388   1.673 -3.5619 -0.7669 -1.8013
  850MOL0     H17296   1.933   2.657   1.996  3.1878  0.1228 -0.3695
  850MOL0     H17297   2.564   2.190   2.032  0.8630  0.5425 -0.6910
  850MOL0     H17298   2.795   2.183   2.033  2.6060  2.3864 -1.3428
  850MOL0     H17299   2.810   2.024   1.959 -2.7824 -0.4476 -1.5549
  850MOL0     H17300   2.894   2.177   1.898  0.4870 -0.3504  1.4422
  851MOL0     O17301   3.523   9.185   0.808 -0.2515 -0.2773  0.2956
  851MOL0     C17302   3.559   9.252   0.714  1.0142  0.6635  0.2177
  851MOL0     O17303   3.671   9.235   0.641 -0.4126  0.1720  0.0913
  851MOL0     C17304   3.769   9.163   0.704 -0.3552 -0.3008 -0.2024
  851MOL0     C17305   3.834   9.199   0.822  0.9276  0.1714  0.0893
  851MOL0     C17306   3.943   9.124   0.866 -0.1170  0.1606  0.1181
  851MOL0     C17307   3.976   8.999   0.806 -0.4134 -0.4365 -0.9425
  851MOL0     O17308   4.080   8.929   0.860  0.2345  0.9303 -0.4309
  851MOL0     C17309   4.085   8.784   0.831  0.7462 -0.9396 -0.5455
  851MOL0     C17310   4.188   8.716   0.914 -0.1408 -0.5753 -0.2441
  851MOL0     C17311   4.317   8.799   0.927  0.1749  0.4086 -0.3449
  851MOL0     C17312   4.437   8.722   0.987  0.4282  0.8918 -0.0534
  851MOL0     C17313   4.560   8.819   0.987  0.8137 -0.3281 -0.5252
  851MOL0     C17314   4.672   8.775   1.078  0.2997  0.2113  0.4237
  851MOL0     C17315   4.746   8.656   1.014  0.2370 -0.2802  0.0396
  851MOL0     C17316   4.839   8.570   1.108  0.3480 -0.0820 -0.4497
  851MOL0     N17317   4.979   8.619   1.112  0.4824  0.6305  1.0604
  851MOL0     C17318   5.023   8.737   1.054 -0.0612 -0.4331 -0.5808
  851MOL0     C17319   5.156   8.753   1.086 -0.3553 -0.0670 -0.0443
  851MOL0     C17320   5.242   8.867   1.026  0.0007  0.1043 -1.2346
  851MOL0     C17321   5.229   8.983   1.133 -0.0184 -0.4185  0.4319
  851MOL0     C17322   5.273   9.121   1.083 -0.0657 -0.3395  0.2425
  851MOL0     C17323   5.197   9.174   0.958 -0.6066 -0.1326 -0.7367
  851MOL0     O17324   5.055   9.147   0.951 -0.0331 -0.3443  0.5283
  851MOL0     C17325   4.984   9.245   0.895 -0.2449 -0.2122  0.1575
  851MOL0     C17326   5.037   9.342   0.811 -0.2305 -0.1105 -0.4411
  851MOL0     C17327   4.958   9.442   0.756  0.3343 -0.1447  0.3842
  851MOL0     C17328   5.025   9.545   0.657  0.3711 -0.4393  0.2135
  851MOL0     C17329   4.814   9.437   0.775  0.3109  0.3265 -1.1666
  851MOL0     C17330   4.714   9.519   0.708 -1.2762 -0.1044  0.2246
  851MOL0     O17331   4.601   9.541   0.790  0.2911  0.2576 -0.4769
  851MOL0     C17332   4.498   9.613   0.732  0.2910  0.2033  0.6200
  851MOL0     C17333   4.453   9.599   0.602  0.0347  0.1850 -0.6958
  851MOL0     C17334   4.376   9.702   0.547 -0.9500  0.7253  0.2010
  851MOL0     C17335   4.349   9.825   0.610 -0.3346  0.7916 -0.4714
  851MOL0     O17336   4.273   9.931   0.564 -0.7497 -0.1934  1.1075
  851MOL0     C17337   4.214   9.917   0.431  0.1265  0.1373  0.6875
  851MOL0     C17338   4.106  10.024   0.407  0.6180 -0.0794  0.5543
  851MOL0     C17339   4.040  10.037   0.270  0.3902  0.1343  0.6744
  851MOL0     C17340   3.961  10.170   0.267  0.0545 -0.2144  0.6904
  851MOL0     C17341   3.916  10.190   0.117 -0.3851  0.0959  0.8698
  851MOL0     C17342   3.838  10.326   0.105 -0.6054  0.1706 -0.2255
  851MOL0     C17343   3.782  10.343  -0.037 -0.0277  0.5077  0.9414
  851MOL0     C17344   3.665  10.438  -0.056 -0.1893 -0.1390  0.4132
  851MOL0    Cl17345   3.640  10.453  -0.234  0.5228 -0.0325 -0.1181
  851MOL0     C17346   4.401   9.834   0.734 -0.0415 -0.4627 -0.0148
  851MOL0     C17347   4.472   9.735   0.795 -0.9678 -0.1854  0.6400
  851MOL0     O17348   4.734   9.568   0.592  0.0851 -0.3890  0.1699
  851MOL0     C17349   4.768   9.336   0.866 -0.5194 -0.1952 -0.0900
  851MOL0     C17350   4.850   9.245   0.921  0.5700 -0.9838 -0.0523
  851MOL0     N17351   5.202   8.642   1.161 -0.2261  0.3248  0.0306
  851MOL0     N17352   5.096   8.563   1.165  0.3777  0.0153 -0.1928
  851MOL0     C17353   3.906   8.965   0.697  0.4266 -0.0081 -0.4677
  851MOL0     C17354   3.803   9.045   0.646 -0.3401 -0.0376 -0.9819
  851MOL0     C17355   3.480   9.370   0.676  0.8067  0.7862  0.7053
  851MOL0     C17356   3.540   9.457   0.587  0.3326 -0.4015 -0.0436
  851MOL0     C17357   3.478   9.575   0.545 -0.3907  0.3852 -0.4945
  851MOL0     C17358   3.351   9.613   0.589  0.1541  0.3735  0.3474
  851MOL0     O17359   3.301   9.733   0.557  0.2943  0.2353 -0.1785
  851MOL0     C17360   3.357   9.823   0.458 -0.6172  0.4700  0.1761
  851MOL0     C17361   3.249   9.925   0.421 -0.2800 -0.3817 -0.1614
  851MOL0     C17362   3.161   9.878   0.299 -0.0060 -0.2440  0.0058
  851MOL0     C17363   3.044   9.972   0.262  0.0011 -0.0839 -0.0636
  851MOL0     C17364   2.938   9.910   0.180 -0.1019 -1.0514 -0.5587
  851MOL0     C17365   2.857   9.859   0.117  0.7109 -0.5835  0.0843
  851MOL0     C17366   3.286   9.528   0.692  0.5562 -0.5933 -0.6883
  851MOL0     C17367   3.351   9.409   0.735 -0.5882  0.1083  0.2167
  851MOL0     C17368   3.282   9.338   0.852 -0.6112 -0.3486 -0.2869
  851MOL0     H17369   3.826   9.296   0.871  2.0141 -0.0341  0.6930
  851MOL0     H17370   3.985   9.151   0.961 -0.0368  0.1602  0.0828
  851MOL0     H17371   4.104   8.764   0.725 -0.8097  0.2768 -1.0826
  851MOL0     H17372   3.986   8.746   0.854 -0.4693  2.8831  1.3469
  851MOL0     H17373   4.138   8.700   1.010  2.3659 -0.5969  1.1445
  851MOL0     H17374   4.225   8.627   0.862  0.7955  0.5129 -1.4975
  851MOL0     H17375   4.344   8.854   0.837 -2.3673  0.2567 -1.2662
  851MOL0     H17376   4.296   8.874   1.004  0.4976 -0.8508  1.0307
  851MOL0     H17377   4.403   8.686   1.085  0.1000 -0.5220 -0.6488
  851MOL0     H17378   4.458   8.632   0.928 -0.4107  1.4110 -1.1819
  851MOL0     H17379   4.535   8.921   1.017  1.2387 -0.3839  0.0276
  851MOL0     H17380   4.606   8.824   0.888  0.5837  1.9960 -0.5693
  851MOL0     H17381   4.738   8.862   1.094  0.7101 -0.2635  1.4117
  851MOL0     H17382   4.637   8.755   1.180  0.1741 -3.0012 -0.1694
  851MOL0     H17383   4.804   8.698   0.931 -1.0173  0.4518 -0.4890
  851MOL0     H17384   4.670   8.591   0.971 -0.8066  0.5342  0.6144
  851MOL0     H17385   4.796   8.539   1.204  1.8677  1.3416  0.7514
  851MOL0     H17386   4.851   8.478   1.050  3.4560 -1.8646  2.5985
  851MOL0     H17387   4.967   8.796   0.982 -1.3473  0.8801  1.3890
  851MOL0     H17388   5.196   8.901   0.933 -1.1476  0.8153 -0.4326
  851MOL0     H17389   5.344   8.828   1.017  0.2750  1.1121 -2.8894
  851MOL0     H17390   5.129   8.986   1.176 -0.2199 -1.9855  0.1071
  851MOL0     H17391   5.298   8.951   1.212  2.1445 -0.6356 -1.4252
  851MOL0     H17392   5.268   9.190   1.168  0.4571  0.2019 -0.1554
  851MOL0     H17393   5.381   9.119   1.064  0.0867  2.1507  0.5247
  851MOL0     H17394   5.210   9.281   0.980 -0.7641  0.2323 -2.3060
  851MOL0     H17395   5.255   9.138   0.872  1.2741 -2.0364  1.2041
  851MOL0     H17396   5.140   9.343   0.780  1.9508  3.0214  5.3788
  851MOL0     H17397   4.974   9.543   0.560 -0.5555  0.5615  0.6610
  851MOL0     H17398   5.133   9.532   0.640  0.7194  1.3024  0.8389
  851MOL0     H17399   5.006   9.649   0.684 -0.4289 -0.1485 -1.3572
  851MOL0     H17400   4.477   9.510   0.544 -1.3685 -0.4432 -0.3681
  851MOL0     H17401   4.349   9.687   0.442 -1.5613 -1.6701  0.6445
  851MOL0     H17402   4.293   9.920   0.355  0.8121 -2.8734  1.1827
  851MOL0     H17403   4.160   9.823   0.415  0.3076 -0.1640  1.7776
  851MOL0     H17404   4.028  10.004   0.481  0.2832  1.2351  0.5923
  851MOL0     H17405   4.159  10.116   0.437  0.7377  0.7813 -2.0682
  851MOL0     H17406   3.982   9.946   0.253  0.6396 -0.3340  2.1349
  851MOL0     H17407   4.115  10.028   0.191  0.3115 -1.1064  0.7271
  851MOL0     H17408   4.022  10.252   0.306 -1.9933  1.4596  0.5392
  851MOL0     H17409   3.871  10.171   0.328 -1.0217 -1.7824 -0.7904
  851MOL0     H17410   4.001  10.185   0.048 -1.1126  1.8980 -0.2460
  851MOL0     H17411   3.855  10.108   0.077  0.5990  1.5346 -4.3639
  851MOL0     H17412   3.900  10.410   0.138 -3.2716  2.2875 -0.3081
  851MOL0     H17413   3.751  10.318   0.171  0.4555 -0.0159  1.1980
  851MOL0     H17414   3.757  10.241  -0.069 -3.5652  1.9463 -1.5639
  851MOL0     H17415   3.866  10.365  -0.103 -0.0816 -2.8091 -0.4287
  851MOL0     H17416   3.691  10.531  -0.006 -0.7088 -0.4722  1.3338
  851MOL0     H17417   3.581  10.400   0.004 -0.4790  0.2770  0.2747
  851MOL0     H17418   4.374   9.920   0.795 -0.4648 -0.5572 -0.0682
  851MOL0     H17419   4.512   9.755   0.893 -0.3413 -0.8374  0.5278
  851MOL0     H17420   4.661   9.318   0.870 -0.4789 -1.5122 -2.6679
  851MOL0     H17421   4.804   9.170   0.984  2.6377 -3.0659 -0.9052
  851MOL0     H17422   3.924   8.873   0.642  2.5036 -2.7771  4.3073
  851MOL0     H17423   3.749   9.013   0.558 -0.6476  0.9755 -1.1742
  851MOL0     H17424   3.634   9.423   0.544 -0.9438 -3.3008 -0.7667
  851MOL0     H17425   3.540   9.639   0.482 -1.5589  1.3144 -0.7221
  851MOL0     H17426   3.446   9.871   0.499 -0.5993 -1.2497  2.3380
  851MOL0     H17427   3.385   9.761   0.372  1.5671 -1.2115  1.9760
  851MOL0     H17428   3.293  10.021   0.393  1.6192 -1.2624 -0.3338
  851MOL0     H17429   3.197   9.945   0.515  2.0003 -0.5428  1.2050
  851MOL0     H17430   3.216   9.864   0.205 -1.0682 -0.3526 -0.6124
  851MOL0     H17431   3.116   9.784   0.332 -1.4978  0.3311 -0.3094
  851MOL0     H17432   3.084  10.060   0.210  0.5916 -0.6499 -0.5926
  851MOL0     H17433   3.010  10.010   0.359  1.0476 -1.8820  1.0605
  851MOL0     H17434   2.780   9.802   0.066 -0.8491 -1.9231  3.6147
  851MOL0     H17435   3.190   9.550   0.737  1.7659  1.9112  0.8750
  851MOL0     H17436   3.254   9.239   0.815  1.4261 -0.4864 -1.6182
  851MOL0     H17437   3.358   9.321   0.929 -0.5868 -0.6519 -0.3751
  851MOL0     H17438   3.193   9.391   0.887 -0.4251  0.5464 -1.1481
  852MOL0     O17439   4.215   3.346   6.527  0.0258  0.8887  0.2843
  852MOL0     C17440   4.252   3.308   6.417 -0.1012 -0.2339 -0.7111
  852MOL0     O17441   4.381   3.289   6.382 -0.4911 -0.2765  1.0346
  852MOL0     C17442   4.474   3.363   6.445  0.0277 -0.1316  0.4023
  852MOL0     C17443   4.532   3.473   6.386 -0.4591 -1.6429 -0.4641
  852MOL0     C17444   4.647   3.538   6.435  0.6098  0.6777  0.1035
  852MOL0     C17445   4.709   3.475   6.546  0.4304 -0.0776  0.5574
  852MOL0     O17446   4.828   3.529   6.580 -0.0229  0.7810 -0.3433
  852MOL0     C17447   4.905   3.467   6.687  0.8627 -0.3139  0.1945
  852MOL0     C17448   5.037   3.538   6.710 -0.0568 -0.6655  0.1102
  852MOL0     C17449   5.124   3.509   6.837 -1.2677 -0.4746  0.3071
  852MOL0     C17450   5.258   3.585   6.818  0.1358 -0.3682  0.3704
  852MOL0     C17451   5.334   3.605   6.951  0.2616 -0.3405  0.1349
  852MOL0     C17452   5.470   3.674   6.910  0.0514 -0.1914 -1.3044
  852MOL0     C17453   5.564   3.671   7.029  0.3508 -0.5562  0.0293
  852MOL0     C17454   5.690   3.756   7.012  0.2685  0.1761  0.3345
  852MOL0     N17455   5.806   3.666   6.971 -0.9428 -0.2960  0.5607
  852MOL0     C17456   5.824   3.598   6.853 -0.0787 -0.0696  0.4230
  852MOL0     C17457   5.951   3.551   6.861  0.4595  0.5235 -0.3801
  852MOL0     C17458   6.040   3.492   6.750 -0.0923  0.3118  0.0522
  852MOL0     C17459   5.989   3.372   6.671  0.9494  0.6010  0.5546
  852MOL0     C17460   5.954   3.249   6.757  0.0272  0.4438 -0.0646
  852MOL0     C17461   5.947   3.121   6.674  0.3858 -0.1834  0.2160
  852MOL0     O17462   5.906   3.004   6.746 -0.5375  0.6300  0.1101
  852MOL0     C17463   5.992   2.954   6.838  0.6217  0.6731 -0.2943
  852MOL0     C17464   5.946   2.906   6.966  0.3467 -0.3084  0.3249
  852MOL0     C17465   6.038   2.871   7.065  0.1475  0.3257 -0.1927
  852MOL0     C17466   5.976   2.839   7.194  0.2710 -0.4204 -0.0280
  852MOL0     C17467   6.181   2.862   7.044 -0.0464  0.0858 -0.3089
  852MOL0     C17468   6.272   2.856   7.159 -0.3451  0.3929 -1.1110
  852MOL0     O17469   6.381   2.775   7.150  0.4221 -0.1855 -0.3479
  852MOL0     C17470   6.442   2.740   7.270 -0.0961 -0.2916 -0.0294
  852MOL0     C17471   6.575   2.733   7.271  0.0430  0.4516  0.1739
  852MOL0     C17472   6.633   2.711   7.398  0.1491 -0.4877  0.1702
  852MOL0     C17473   6.562   2.667   7.506  0.0261  0.8313  0.5281
  852MOL0     O17474   6.631   2.653   7.619 -0.2664  0.3896 -0.0527
  852MOL0     C17475   6.567   2.614   7.746 -1.0654  1.3877  0.6906
  852MOL0     C17476   6.661   2.568   7.859  0.3033  0.0592  0.0485
  852MOL0     C17477   6.585   2.507   7.978 -0.0309 -0.3816 -1.0196
  852MOL0     C17478   6.685   2.481   8.099  0.5192  0.7587  0.5724
  852MOL0     C17479   6.647   2.338   8.154  0.7307  0.5080  0.0873
  852MOL0     C17480   6.530   2.352   8.253 -0.6375  0.6265 -0.4580
  852MOL0     C17481   6.468   2.216   8.285 -0.8052  0.2496  0.0288
  852MOL0     C17482   6.354   2.245   8.380  0.3317 -0.1575  0.3136
  852MOL0    Cl17483   6.217   2.325   8.291 -0.5847  0.4038  0.4031
  852MOL0     C17484   6.423   2.650   7.498 -0.7738  0.5952  0.7471
  852MOL0     C17485   6.364   2.692   7.376 -0.0579 -0.0987  0.5009
  852MOL0     O17486   6.235   2.926   7.257  0.5217  1.0918 -0.1440
  852MOL0     C17487   6.227   2.909   6.916 -0.2650  0.2381 -0.1045
  852MOL0     C17488   6.130   2.959   6.821  0.1555  0.6308  0.3527
  852MOL0     N17489   6.009   3.581   6.980 -0.2294  0.3115 -0.2677
  852MOL0     N17490   5.917   3.655   7.046  0.1312 -0.0651 -0.2291
  852MOL0     C17491   4.656   3.356   6.600 -0.2942  0.2321  0.2719
  852MOL0     C17492   4.541   3.297   6.544 -1.1321 -0.5094 -0.5615
  852MOL0     C17493   4.149   3.255   6.323  0.0123  0.3316  0.2054
  852MOL0     C17494   4.186   3.160   6.227 -0.6655 -0.6770  0.6093
  852MOL0     C17495   4.099   3.105   6.138 -0.0899  0.7122 -0.3781
  852MOL0     C17496   3.969   3.154   6.124 -0.3015  0.6102 -0.3376
  852MOL0     O17497   3.888   3.096   6.033 -0.0369  0.8279  0.9316
  852MOL0     C17498   3.753   3.136   6.010 -0.3173  0.1511  0.1277
  852MOL0     C17499   3.753   3.262   5.920  0.1216  0.0031  0.3564
  852MOL0     C17500   3.615   3.326   5.904 -0.3659  1.0386  0.0929
  852MOL0     C17501   3.526   3.252   5.795 -0.3324 -0.6771 -0.2419
  852MOL0     C17502   3.465   3.128   5.850  0.4470  0.4213  0.4677
  852MOL0     C17503   3.412   3.024   5.893  0.4684  0.5056  0.2974
  852MOL0     C17504   3.932   3.254   6.208  0.1203  0.1381 -0.1030
  852MOL0     C17505   4.015   3.315   6.302 -0.7833  0.3786  0.3787
  852MOL0     C17506   3.966   3.442   6.370 -0.9874 -0.6361 -0.0462
  852MOL0     H17507   4.477   3.519   6.305  0.0424  0.8415  0.4936
  852MOL0     H17508   4.681   3.635   6.401  0.5138  0.4599 -0.6488
  852MOL0     H17509   4.931   3.363   6.664 -2.7813 -1.2533 -0.1892
  852MOL0     H17510   4.850   3.477   6.781 -1.0162 -2.5313 -0.5697
  852MOL0     H17511   5.099   3.520   6.621 -0.1769  1.4034 -0.4313
  852MOL0     H17512   5.012   3.643   6.696 -2.7642 -1.4375 -1.6867
  852MOL0     H17513   5.069   3.548   6.924  1.2363 -0.2952  1.9126
  852MOL0     H17514   5.145   3.403   6.847  1.6498 -0.1653 -1.2404
  852MOL0     H17515   5.317   3.520   6.752 -1.4953 -1.5358  0.0197
  852MOL0     H17516   5.243   3.685   6.776 -1.3986  0.5492  2.8620
  852MOL0     H17517   5.357   3.518   7.011 -3.9946 -0.7239  1.5540
  852MOL0     H17518   5.279   3.674   7.015 -0.4800  0.2873 -1.1334
  852MOL0     H17519   5.528   3.623   6.833  3.7760  0.8083  0.5874
  852MOL0     H17520   5.456   3.778   6.880 -0.5019  0.5220  1.1497
  852MOL0     H17521   5.597   3.568   7.047  0.1451 -0.2906  2.2504
  852MOL0     H17522   5.517   3.711   7.119  0.3382 -2.2844  0.8355
  852MOL0     H17523   5.682   3.833   6.936 -3.2760  0.8629  1.1984
  852MOL0     H17524   5.710   3.807   7.106 -1.9970  0.2215  0.8613
  852MOL0     H17525   5.752   3.603   6.772  0.0429  2.5470  0.3763
  852MOL0     H17526   6.144   3.470   6.777  0.7804  1.9744 -1.7197
  852MOL0     H17527   6.051   3.572   6.677 -0.2883 -0.5411 -0.9343
  852MOL0     H17528   5.907   3.396   6.603  1.8464  0.7044 -0.5227
  852MOL0     H17529   6.060   3.332   6.599 -0.5104 -3.3734  1.0623
  852MOL0     H17530   6.034   3.228   6.828  0.8638  0.3587 -1.0183
  852MOL0     H17531   5.862   3.248   6.817 -1.9118 -2.0805 -2.8100
  852MOL0     H17532   5.864   3.138   6.604  0.7952  1.8398  0.1670
  852MOL0     H17533   6.040   3.098   6.621 -1.0367 -2.1599 -1.6057
  852MOL0     H17534   5.843   2.887   6.996  0.8486  0.7239  3.0882
  852MOL0     H17535   5.966   2.932   7.252 -0.2091  0.1535 -0.9998
  852MOL0     H17536   6.039   2.769   7.250 -2.5775 -2.9236  0.2998
  852MOL0     H17537   5.881   2.791   7.171 -0.4734  0.4081  1.2058
  852MOL0     H17538   6.631   2.773   7.187  0.1568  2.6985  1.2561
  852MOL0     H17539   6.741   2.716   7.407  0.5336  0.2397 -3.2984
  852MOL0     H17540   6.505   2.697   7.780 -2.4981  0.9448 -0.7539
  852MOL0     H17541   6.497   2.531   7.733 -1.8118  2.0818  0.1736
  852MOL0     H17542   6.731   2.498   7.812  0.4428  0.9184 -1.0541
  852MOL0     H17543   6.713   2.659   7.889 -0.1359  0.8525 -1.4674
  852MOL0     H17544   6.526   2.420   7.946 -1.6853  0.6307 -0.8247
  852MOL0     H17545   6.515   2.583   8.011 -2.2640 -3.1363  1.1105
  852MOL0     H17546   6.686   2.560   8.175  2.9675  1.6918 -0.3203
  852MOL0     H17547   6.784   2.473   8.053  0.4715 -1.5789  0.7747
  852MOL0     H17548   6.635   2.270   8.069  3.4550  1.7602 -1.4272
  852MOL0     H17549   6.731   2.294   8.209 -1.6528 -1.5408  2.3853
  852MOL0     H17550   6.453   2.418   8.211  0.3776  2.7647  0.9194
  852MOL0     H17551   6.568   2.392   8.347 -3.7070 -0.9299  1.6209
  852MOL0     H17552   6.549   2.155   8.326  0.0726  1.2297 -0.1947
  852MOL0     H17553   6.423   2.160   8.202  0.1337 -1.0021  0.3269
  852MOL0     H17554   6.402   2.298   8.463  2.1044 -0.0959 -0.7135
  852MOL0     H17555   6.318   2.146   8.410  1.9974 -0.5683  1.0899
  852MOL0     H17556   6.364   2.602   7.576 -0.1886 -1.9767 -0.2691
  852MOL0     H17557   6.255   2.688   7.374 -0.0324 -0.9311 -2.3669
  852MOL0     H17558   6.331   2.901   6.890  0.0092  5.0340 -1.5705
  852MOL0     H17559   6.174   2.990   6.726 -3.0162  1.7344 -0.9088
  852MOL0     H17560   4.707   3.316   6.686 -1.5642  0.1758  1.0163
  852MOL0     H17561   4.505   3.200   6.576  2.7892 -1.7916  0.4667
  852MOL0     H17562   4.291   3.132   6.229 -0.2291  0.4375 -2.4180
  852MOL0     H17563   4.138   3.027   6.074  2.1081  0.4542  1.1777
  852MOL0     H17564   3.703   3.053   5.959  0.6262  0.0564 -0.6720
  852MOL0     H17565   3.703   3.151   6.106  1.8266 -2.4524  1.8062
  852MOL0     H17566   3.789   3.256   5.817  1.4406  0.7919  0.7540
  852MOL0     H17567   3.821   3.334   5.967 -0.1449  0.4718  0.0308
  852MOL0     H17568   3.564   3.320   6.001  2.2503  2.6892  1.6951
  852MOL0     H17569   3.628   3.432   5.883 -0.7273  1.0275 -0.2035
  852MOL0     H17570   3.581   3.223   5.705  1.0392  1.1871 -0.0760
  852MOL0     H17571   3.459   3.333   5.762  2.1407  1.4822 -0.3132
  852MOL0     H17572   3.361   2.934   5.920  0.9836 -0.6596 -2.3282
  852MOL0     H17573   3.833   3.297   6.205  0.8030  2.0860  1.8798
  852MOL0     H17574   4.054   3.480   6.423  1.8648 -2.3581 -3.2193
  852MOL0     H17575   3.928   3.514   6.297 -0.3065  1.0428  1.1939
  852MOL0     H17576   3.886   3.424   6.444  0.0259 -1.4060  0.8985
  853MOL0     O17577   5.695   2.957   8.192 -0.4854  0.3513 -0.6940
  853MOL0     C17578   5.733   2.848   8.240 -0.3148  0.1385 -0.2397
  853MOL0     O17579   5.646   2.749   8.302  0.2247 -0.0161  0.1653
  853MOL0     C17580   5.508   2.759   8.278  0.2251 -0.2750  0.2745
  853MOL0     C17581   5.428   2.733   8.380  0.7191 -0.6111  0.0261
  853MOL0     C17582   5.285   2.738   8.360 -0.4780 -0.2225  0.0433
  853MOL0     C17583   5.238   2.761   8.230 -0.1698  0.3330 -0.0997
  853MOL0     O17584   5.105   2.773   8.199 -0.1470 -0.0532 -0.0128
  853MOL0     C17585   5.010   2.775   8.308  1.0797  0.4259  0.8806
  853MOL0     C17586   4.868   2.814   8.274  0.2488 -0.9118 -0.3015
  853MOL0     C17587   4.784   2.706   8.202  0.4578  0.2845  0.0745
  853MOL0     C17588   4.818   2.718   8.053 -0.0398  1.0443  0.4779
  853MOL0     C17589   4.752   2.600   7.973  1.0589 -0.0158  0.8684
  853MOL0     C17590   4.601   2.591   7.976  0.2027  0.2724  0.0407
  853MOL0     C17591   4.544   2.473   7.897 -0.2981  1.1391  0.3735
  853MOL0     C17592   4.589   2.336   7.945 -0.6510  0.8341  0.3071
  853MOL0     N17593   4.538   2.314   8.081  0.5465 -0.2399 -0.4022
  853MOL0     C17594   4.398   2.294   8.106  0.1136  0.1986 -0.2006
  853MOL0     C17595   4.379   2.307   8.239 -0.4357  0.2799 -0.3383
  853MOL0     C17596   4.266   2.292   8.328 -0.1660 -0.0844 -0.9491
  853MOL0     C17597   4.228   2.147   8.354  0.6267 -1.1348  0.0970
  853MOL0     C17598   4.318   2.081   8.460  0.4679  0.2374  0.1409
  853MOL0     C17599   4.324   1.930   8.447  0.7771 -0.4440  0.3668
  853MOL0     O17600   4.405   1.885   8.335  0.3733  0.0843  1.0102
  853MOL0     C17601   4.447   1.752   8.321 -0.3822 -0.2724  0.0320
  853MOL0     C17602   4.467   1.688   8.191 -0.4486  0.4864  0.1647
  853MOL0     C17603   4.519   1.557   8.179  0.4373  0.4927  0.5726
  853MOL0     C17604   4.553   1.504   8.034 -0.3215 -0.9489  0.2702
  853MOL0     C17605   4.529   1.486   8.302 -0.0185 -0.1858  0.3955
  853MOL0     C17606   4.575   1.350   8.300  0.6577  0.4106 -0.3252
  853MOL0     O17607   4.707   1.332   8.267  0.6774 -0.4559 -0.6597
  853MOL0     C17608   4.746   1.204   8.239  0.4553  0.2328 -0.2065
  853MOL0     C17609   4.815   1.137   8.337  0.1871  0.4209  0.4965
  853MOL0     C17610   4.842   0.995   8.326 -0.1715 -0.8903 -0.3504
  853MOL0     C17611   4.810   0.927   8.210  0.3955 -0.0531 -1.0108
  853MOL0     O17612   4.828   0.790   8.224 -0.1857  0.5683  0.0638
  853MOL0     C17613   4.842   0.707   8.112  0.3120  0.0453 -0.1560
  853MOL0     C17614   4.900   0.574   8.148  0.2672 -0.0387  0.2237
  853MOL0     C17615   5.031   0.578   8.234 -0.9195  0.3123 -0.4474
  853MOL0     C17616   5.138   0.668   8.172  0.0172  0.2473 -0.1457
  853MOL0     C17617   5.277   0.644   8.235  0.3962 -0.2348  0.1295
  853MOL0     C17618   5.300   0.659   8.387 -0.2741  0.3036  0.4149
  853MOL0     C17619   5.445   0.667   8.419 -0.4445 -0.0273 -0.1711
  853MOL0     C17620   5.481   0.680   8.575  0.2166 -0.0135 -0.5576
  853MOL0    Cl17621   5.415   0.544   8.660 -0.0366 -0.1182 -0.2923
  853MOL0     C17622   4.746   1.000   8.105  0.5299 -0.1513  0.1483
  853MOL0     C17623   4.715   1.136   8.123  0.2027 -1.5651 -0.1866
  853MOL0     O17624   4.493   1.266   8.336  0.3762 -0.4528 -0.6343
  853MOL0     C17625   4.487   1.542   8.423  0.4615 -0.3799 -0.8294
  853MOL0     C17626   4.457   1.674   8.438  0.5240 -0.2507  0.6902
  853MOL0     N17627   4.511   2.323   8.289 -0.0608  0.3371  0.1931
  853MOL0     N17628   4.599   2.338   8.197  0.1696 -0.1995  0.1712
  853MOL0     C17629   5.327   2.793   8.130  0.4176  0.2555 -1.0719
  853MOL0     C17630   5.465   2.783   8.150  0.9001  0.6074  0.8463
  853MOL0     C17631   5.883   2.829   8.247  0.6187 -0.3384  0.3039
  853MOL0     C17632   5.924   2.736   8.349 -0.1736 -0.1759  0.7204
  853MOL0     C17633   6.060   2.722   8.371  0.3087 -0.8002 -0.4032
  853MOL0     C17634   6.156   2.801   8.301 -0.1732 -0.5395 -0.6289
  853MOL0     O17635   6.286   2.791   8.339 -0.1100  0.1228 -0.3127
  853MOL0     C17636   6.377   2.760   8.232 -0.1343 -0.3228 -0.7025
  853MOL0     C17637   6.465   2.880   8.216  0.1233  1.1249  0.0910
  853MOL0     C17638   6.586   2.879   8.127  0.0595 -0.4088  0.2967
  853MOL0     C17639   6.655   3.011   8.113 -0.7929 -0.0102 -0.4219
  853MOL0     C17640   6.582   3.101   8.022 -0.3036  0.5078  0.0293
  853MOL0     C17641   6.505   3.172   7.962 -0.4416 -0.1143 -0.4734
  853MOL0     C17642   6.114   2.881   8.198  0.1821 -0.2830  0.3604
  853MOL0     C17643   5.980   2.892   8.166 -0.0032 -0.2046 -0.6861
  853MOL0     C17644   5.950   2.989   8.051  0.5166  0.4835 -0.2498
  853MOL0     H17645   5.475   2.721   8.477 -0.4673  1.0234  0.8481
  853MOL0     H17646   5.218   2.717   8.443 -1.0435 -1.3483 -0.6875
  853MOL0     H17647   5.038   2.850   8.382  0.8628 -0.4279  1.8344
  853MOL0     H17648   5.012   2.676   8.354  1.1368 -2.0415 -3.7549
  853MOL0     H17649   4.819   2.831   8.370  0.5114 -0.6522 -0.2126
  853MOL0     H17650   4.858   2.908   8.219 -2.8427  1.0894  3.2368
  853MOL0     H17651   4.806   2.607   8.243  1.9294  0.9409  0.9437
  853MOL0     H17652   4.683   2.742   8.225  0.6272  0.4699  0.5382
  853MOL0     H17653   4.789   2.816   8.015 -2.5437  0.2889  0.2582
  853MOL0     H17654   4.925   2.709   8.034 -0.0915  2.1070 -0.3937
  853MOL0     H17655   4.782   2.507   8.021 -1.0004 -0.4929  1.3212
  853MOL0     H17656   4.789   2.604   7.870 -4.4816 -0.7517 -1.4779
  853MOL0     H17657   4.562   2.584   8.078  2.4923 -2.9168  0.8490
  853MOL0     H17658   4.563   2.680   7.924  2.4743  2.2210  1.4834
  853MOL0     H17659   4.595   2.474   7.801 -0.4218  1.6500  0.3079
  853MOL0     H17660   4.436   2.477   7.881 -0.4021 -1.2154  0.1333
  853MOL0     H17661   4.542   2.266   7.875  2.4474 -0.8890 -0.2744
  853MOL0     H17662   4.694   2.304   7.941 -1.0244 -0.8149  2.0439
  853MOL0     H17663   4.328   2.264   8.029 -1.2638 -2.0995  1.8026
  853MOL0     H17664   4.196   2.364   8.285 -0.1122 -0.1447 -1.1375
  853MOL0     H17665   4.292   2.328   8.428 -1.9239  2.7700 -1.4124
  853MOL0     H17666   4.132   2.131   8.405  0.9773 -0.1716  1.1039
  853MOL0     H17667   4.231   2.091   8.260 -1.5955 -0.6839 -0.3118
  853MOL0     H17668   4.424   2.104   8.453  0.7992 -1.2682 -0.0450
  853MOL0     H17669   4.265   2.116   8.549 -1.4502  0.5072 -1.0273
  853MOL0     H17670   4.356   1.914   8.551 -0.1627  3.0887  1.3582
  853MOL0     H17671   4.219   1.905   8.429  0.7253 -0.1707  0.2923
  853MOL0     H17672   4.463   1.740   8.096 -0.6171 -0.9861 -0.6648
  853MOL0     H17673   4.602   1.406   8.040 -2.2663 -1.9021  1.4558
  853MOL0     H17674   4.621   1.574   7.984 -0.6627  0.8186  2.1240
  853MOL0     H17675   4.465   1.491   7.971  1.6507 -0.1420 -2.8274
  853MOL0     H17676   4.852   1.190   8.424  1.6972 -0.9965  0.7731
  853MOL0     H17677   4.884   0.940   8.410  0.7788 -0.7911 -0.7461
  853MOL0     H17678   4.741   0.679   8.081 -0.0664 -1.3349  2.0646
  853MOL0     H17679   4.911   0.751   8.041  0.9707 -1.8515 -0.7613
  853MOL0     H17680   4.820   0.517   8.198 -0.5168  1.4364  0.6959
  853MOL0     H17681   4.932   0.517   8.061  2.9568 -1.3680  1.9379
  853MOL0     H17682   5.075   0.478   8.245  0.8423  1.2339  1.7809
  853MOL0     H17683   5.000   0.608   8.334 -0.1787 -1.4976  0.3569
  853MOL0     H17684   5.114   0.773   8.187  2.1699  0.5878  1.4040
  853MOL0     H17685   5.141   0.646   8.065 -1.2772 -3.2631  0.4104
  853MOL0     H17686   5.321   0.547   8.210  2.5938  0.4900  0.9505
  853MOL0     H17687   5.334   0.727   8.191 -0.0760  0.4790  0.8254
  853MOL0     H17688   5.262   0.571   8.440 -0.7296  0.4684  0.3681
  853MOL0     H17689   5.246   0.747   8.424 -0.4692  0.7335 -0.8326
  853MOL0     H17690   5.490   0.759   8.381 -1.4326 -0.4140 -2.4006
  853MOL0     H17691   5.502   0.590   8.366  0.9489  1.0300 -0.2801
  853MOL0     H17692   5.452   0.781   8.607  3.0316  0.9465 -0.7172
  853MOL0     H17693   5.589   0.669   8.590 -0.1596 -0.8732  2.2773
  853MOL0     H17694   4.717   0.951   8.012  0.6566  0.2040 -0.0805
  853MOL0     H17695   4.657   1.183   8.044  0.8587 -2.5792 -1.2985
  853MOL0     H17696   4.477   1.486   8.516 -0.8379 -0.6669 -1.1097
  853MOL0     H17697   4.444   1.719   8.536  1.5981  1.6971 -0.0115
  853MOL0     H17698   5.291   2.817   8.031  0.8374 -0.4363 -1.3998
  853MOL0     H17699   5.537   2.797   8.070  1.7143 -0.6836  1.3155
  853MOL0     H17700   5.851   2.687   8.413  0.2932  0.8211  2.0657
  853MOL0     H17701   6.093   2.659   8.453  0.8009  0.7836  0.6633
  853MOL0     H17702   6.431   2.667   8.252  1.5717 -0.1745 -3.9707
  853MOL0     H17703   6.327   2.731   8.139  0.7192 -1.1334 -0.9370
  853MOL0     H17704   6.498   2.920   8.312 -0.5624  0.2907  0.6996
  853MOL0     H17705   6.394   2.946   8.166 -1.5414 -1.4727 -1.2605
  853MOL0     H17706   6.649   2.796   8.158 -0.4569 -2.3864 -3.3233
  853MOL0     H17707   6.553   2.854   8.025 -2.4154  0.0088  0.9198
  853MOL0     H17708   6.756   3.008   8.071  0.5338  1.1152  2.3917
  853MOL0     H17709   6.662   3.070   8.206 -0.2123  0.8093 -0.9714
  853MOL0     H17710   6.437   3.233   7.905  1.9752  3.1787 -0.1389
  853MOL0     H17711   6.184   2.938   8.137 -1.8356  1.8945 -0.0761
  853MOL0     H17712   5.899   2.938   7.969 -1.1405 -0.0366  1.0472
  853MOL0     H17713   5.880   3.068   8.078  0.4636  0.3556 -0.0113
  853MOL0     H17714   6.042   3.034   8.013 -1.7585  2.4288 -4.1454
  854MOL0     O17715   8.405   2.998  10.479  0.5262  0.8482 -0.0906
  854MOL0     C17716   8.461   2.951  10.384  0.0935  1.4769  0.0841
  854MOL0     O17717   8.595   2.971  10.349  0.2008  0.0132 -1.3412
  854MOL0     C17718   8.665   3.055  10.433 -0.6988 -0.6070  0.7080
  854MOL0     C17719   8.651   3.196  10.434 -0.0764 -0.6221  0.6413
  854MOL0     C17720   8.733   3.276  10.495 -0.2129 -0.0297 -1.1728
  854MOL0     C17721   8.841   3.223  10.572 -0.1189  0.1352 -0.2448
  854MOL0     O17722   8.917   3.306  10.643  0.1195  0.8971  0.1375
  854MOL0     C17723   8.886   3.442  10.655  0.0692 -0.4921  0.8359
  854MOL0     C17724   8.978   3.516  10.753  0.4068  0.0278  0.5083
  854MOL0     C17725   9.124   3.522  10.700 -0.4941 -0.7747  0.2543
  854MOL0     C17726   9.213   3.629  10.770  0.0158 -0.4976 -0.6774
  854MOL0     C17727   9.189   3.766  10.718  0.2888  1.3311 -0.0832
  854MOL0     C17728   9.313   3.864  10.733 -0.6295  0.2576 -0.1616
  854MOL0     C17729   9.418   3.867  10.606  0.1186  0.2700 -0.5881
  854MOL0     C17730   9.535   3.951  10.641  0.4860 -0.3065  1.1661
  854MOL0     N17731   9.635   3.968  10.535  0.6424  0.9245 -0.0099
  854MOL0     C17732   9.750   3.899  10.520  0.6014 -0.1763  0.0603
  854MOL0     C17733   9.794   3.915  10.388 -0.1146 -0.3464 -0.2452
  854MOL0     C17734   9.906   3.848  10.320  0.0506 -0.2072  0.4135
  854MOL0     C17735  10.047   3.894  10.351  0.2871  0.1184  0.3141
  854MOL0     C17736  10.051   4.040  10.316  0.0777 -0.0556  0.8323
  854MOL0     C17737  10.197   4.103  10.322  1.4476 -0.5609 -0.3305
  854MOL0     O17738  10.259   4.043  10.440 -0.5251 -0.2020  0.1709
  854MOL0     C17739  10.387   4.094  10.466  0.6998 -0.2403  0.3530
  854MOL0     C17740  10.437   4.077  10.595  0.0079 -0.4638  0.1539
  854MOL0     C17741  10.562   4.131  10.634  0.2662  0.0829  0.7226
  854MOL0     C17742  10.605   4.096  10.771  0.3384 -0.1373  0.1284
  854MOL0     C17743  10.635   4.199  10.535 -0.3994 -0.4347 -0.0395
  854MOL0     C17744  10.776   4.248  10.559  0.1838  1.0376 -0.0048
  854MOL0     O17745  10.803   4.373  10.505 -0.0018 -0.2668 -0.2471
  854MOL0     C17746  10.912   4.440  10.545 -0.0177  0.9777 -0.4027
  854MOL0     C17747  11.040   4.396  10.507  1.7655 -1.0280 -0.1696
  854MOL0     C17748  11.150   4.462  10.543 -0.0453 -0.0182 -0.1431
  854MOL0     C17749  11.133   4.566  10.633 -0.3319 -0.9774  0.9223
  854MOL0     O17750  11.237   4.631  10.691  0.1740 -0.2551  0.3262
  854MOL0     C17751  11.337   4.550  10.738 -0.0264 -0.3515  0.2617
  854MOL0     C17752  11.418   4.637  10.824 -0.4709  0.5235 -0.0591
  854MOL0     C17753  11.571   4.607  10.802 -0.6151  0.0333  0.7722
  854MOL0     C17754  11.661   4.688  10.883 -0.2004 -0.0370  0.2223
  854MOL0     C17755  11.810   4.668  10.850  0.9615 -0.2888 -0.4614
  854MOL0     C17756  11.874   4.537  10.901  0.2314  0.2792 -0.3522
  854MOL0     C17757  12.010   4.525  10.847 -0.3250 -0.6274 -0.4288
  854MOL0     C17758  12.090   4.402  10.899 -0.7973 -0.0711  0.3927
  854MOL0    Cl17759  12.251   4.416  10.817  0.1138  0.2342  0.3262
  854MOL0     C17760  11.013   4.620  10.663  0.9199 -0.0149 -0.2173
  854MOL0     C17761  10.897   4.553  10.614  0.0337 -1.2822 -0.4486
  854MOL0     O17762  10.850   4.184  10.630  0.1309 -0.0467  0.0978
  854MOL0     C17763  10.593   4.198  10.401  0.2850 -0.7012  0.5031
  854MOL0     C17764  10.472   4.142  10.360  0.1394  0.5826 -0.0568
  854MOL0     N17765   9.717   4.018  10.339 -0.2889  0.8767 -0.7043
  854MOL0     N17766   9.619   4.043  10.422 -0.0522  0.4064  0.1587
  854MOL0     C17767   8.867   3.086  10.573 -0.1071 -0.1781  0.5949
  854MOL0     C17768   8.787   3.003  10.494  0.0703  0.0094 -0.2979
  854MOL0     C17769   8.391   2.846  10.308  0.3656  0.8113  0.2267
  854MOL0     C17770   8.457   2.727  10.284 -0.3948  0.8715  0.1086
  854MOL0     C17771   8.395   2.625  10.211 -0.1109 -0.9953 -0.3746
  854MOL0     C17772   8.268   2.643  10.167 -0.6456 -0.5978  0.6159
  854MOL0     O17773   8.181   2.556  10.104 -0.1639 -0.1393 -0.3829
  854MOL0     C17774   8.203   2.411  10.128 -0.1588  0.4424 -1.1094
  854MOL0     C17775   8.151   2.355  10.263 -0.0713  0.1812  0.2479
  854MOL0     C17776   8.183   2.207  10.274 -0.0894 -0.1915 -0.4359
  854MOL0     C17777   8.200   2.164  10.423 -0.0196 -0.9093 -0.0714
  854MOL0     C17778   8.340   2.139  10.473 -0.4171 -0.2575  0.7217
  854MOL0     C17779   8.447   2.135  10.535  0.0824  0.8594  0.1527
  854MOL0     C17780   8.207   2.767  10.172 -0.7122  0.8792  0.0006
  854MOL0     C17781   8.263   2.869  10.251 -0.9442  0.1826  0.6724
  854MOL0     C17782   8.189   2.991  10.252  0.4008  0.1251 -0.1473
  854MOL0     H17783   8.561   3.237  10.390  1.1686 -0.1981 -1.6142
  854MOL0     H17784   8.716   3.383  10.490  0.1558  0.0635 -0.5083
  854MOL0     H17785   8.782   3.455  10.688  0.4480  2.5314  1.1761
  854MOL0     H17786   8.891   3.492  10.557 -0.3661  0.0233  1.0690
  854MOL0     H17787   8.943   3.619  10.765  0.3436 -0.0213  0.7590
  854MOL0     H17788   8.984   3.470  10.852  1.7395 -0.7944  0.0694
  854MOL0     H17789   9.183   3.430  10.705  1.9614  0.2489 -4.2188
  854MOL0     H17790   9.122   3.550  10.594 -0.5571  0.5119  0.5776
  854MOL0     H17791   9.175   3.625  10.872  0.2126 -0.8263 -0.6163
  854MOL0     H17792   9.317   3.594  10.765 -0.6447 -2.7357  0.1056
  854MOL0     H17793   9.107   3.811  10.774  2.1748  1.9188  2.3678
  854MOL0     H17794   9.159   3.763  10.612 -0.6541  2.3104  0.1363
  854MOL0     H17795   9.267   3.962  10.747 -1.8418 -0.3708  0.4174
  854MOL0     H17796   9.373   3.835  10.819  1.5275  2.3001 -0.8739
  854MOL0     H17797   9.356   3.917  10.531 -1.2412 -2.1747 -1.2155
  854MOL0     H17798   9.453   3.774  10.560 -0.2653  1.0929 -2.6709
  854MOL0     H17799   9.504   4.050  10.676  0.9801  0.4339 -0.4006
  854MOL0     H17800   9.582   3.905  10.729 -2.6944 -1.3877  2.4872
  854MOL0     H17801   9.789   3.825  10.589  2.0412  0.4730 -0.0079
  854MOL0     H17802   9.892   3.851  10.211  0.9261  0.9302  0.3105
  854MOL0     H17803   9.900   3.745  10.355 -1.1551  0.1953  1.4765
  854MOL0     H17804  10.077   3.873  10.454 -0.2568 -0.1538  0.4226
  854MOL0     H17805  10.114   3.839  10.284 -0.3703 -1.3821  0.8471
  854MOL0     H17806  10.023   4.044  10.210  0.1821 -1.2454  0.7502
  854MOL0     H17807   9.983   4.099  10.379  0.6925  0.5784  0.9164
  854MOL0     H17808  10.250   4.058  10.237  0.5093 -1.1037 -0.6537
  854MOL0     H17809  10.195   4.211  10.333 -2.6624 -0.6014  0.9675
  854MOL0     H17810  10.376   4.025  10.668 -2.3335  0.2557 -1.1704
  854MOL0     H17811  10.532   4.032  10.823  2.6150 -3.6385 -0.6502
  854MOL0     H17812  10.619   4.184  10.835  1.2253 -1.0275  1.1922
  854MOL0     H17813  10.696   4.036  10.779  0.2438 -0.2669  0.2378
  854MOL0     H17814  11.043   4.318  10.431 -2.5334 -0.6349 -0.9482
  854MOL0     H17815  11.247   4.427  10.509 -0.4735 -1.5873  0.1880
  854MOL0     H17816  11.296   4.467  10.798  0.9546  0.9559  2.8867
  854MOL0     H17817  11.392   4.499  10.659 -0.3342  1.0553 -0.9117
  854MOL0     H17818  11.396   4.742  10.802  0.5290  0.4348 -1.7146
  854MOL0     H17819  11.384   4.622  10.927  0.5429  5.0710  1.1568
  854MOL0     H17820  11.593   4.627  10.696  2.2033  1.6475  1.5463
  854MOL0     H17821  11.580   4.498  10.808  0.5404 -0.4304 -4.5210
  854MOL0     H17822  11.636   4.664  10.987 -2.0196  1.3977  0.1495
  854MOL0     H17823  11.631   4.791  10.866  0.5127  0.2689  0.7269
  854MOL0     H17824  11.819   4.667  10.741  3.8772 -0.1344 -0.3132
  854MOL0     H17825  11.864   4.754  10.892 -2.6356  1.8692  0.1234
  854MOL0     H17826  11.817   4.451  10.867 -0.9027  0.2413  1.4991
  854MOL0     H17827  11.878   4.535  11.010  0.6669  1.1576 -0.3437
  854MOL0     H17828  12.073   4.614  10.857 -0.1497 -0.9170  1.3916
  854MOL0     H17829  12.007   4.506  10.739  2.0893 -1.7654 -0.3712
  854MOL0     H17830  12.045   4.309  10.864 -1.1774 -0.1258  1.0181
  854MOL0     H17831  12.105   4.393  11.007  0.8502  1.0050  0.2863
  854MOL0     H17832  11.020   4.714  10.717  0.7556 -1.1080  1.7805
  854MOL0     H17833  10.798   4.590  10.640  0.9806 -0.4838  2.4084
  854MOL0     H17834  10.662   4.252  10.337  2.4847 -0.2251  3.0854
  854MOL0     H17835  10.444   4.165  10.258 -0.0776 -2.8288 -0.9064
  854MOL0     H17836   8.953   3.043  10.624  2.4005  1.8923 -1.6052
  854MOL0     H17837   8.800   2.896  10.480  0.5516 -0.0831  0.7596
  854MOL0     H17838   8.553   2.708  10.331 -0.9828  0.8802  1.3375
  854MOL0     H17839   8.448   2.530  10.203 -1.6994 -2.0627  1.1168
  854MOL0     H17840   8.155   2.349  10.052 -2.2072  0.2421  0.2728
  854MOL0     H17841   8.310   2.390  10.123 -0.2912 -0.2456 -1.1381
  854MOL0     H17842   8.043   2.370  10.266 -0.1646  0.3743 -1.9866
  854MOL0     H17843   8.204   2.411  10.341  1.8726  3.5899 -3.1664
  854MOL0     H17844   8.101   2.153  10.225  0.0444 -0.8729  0.0619
  854MOL0     H17845   8.270   2.183  10.212  0.5545 -1.0887  0.7653
  854MOL0     H17846   8.138   2.076  10.441 -0.8677 -0.1592  0.7469
  854MOL0     H17847   8.152   2.235  10.490 -0.2067 -0.4777 -0.6484
  854MOL0     H17848   8.540   2.119  10.585  3.6133  3.9608 -4.6279
  854MOL0     H17849   8.117   2.789  10.116 -0.5302 -0.0243 -0.6751
  854MOL0     H17850   8.089   2.984  10.209  0.0679 -0.3361  0.6788
  854MOL0     H17851   8.163   3.010  10.357  0.9207  0.5909 -0.0964
  854MOL0     H17852   8.246   3.067  10.198  1.5246 -0.3850  0.2803
  855MOL0     O17853   0.544  10.570   4.693  0.1555  0.2807  0.0530
  855MOL0     C17854   0.543  10.581   4.567 -0.9411  0.7574  0.5467
  855MOL0     O17855   0.606  10.676   4.489  0.0758 -0.3170 -0.0006
  855MOL0     C17856   0.722  10.729   4.515  0.7054 -0.9498 -1.1792
  855MOL0     C17857   0.726  10.868   4.558  0.5701  0.3514  0.0855
  855MOL0     C17858   0.845  10.920   4.610 -0.5632 -0.3486  0.4680
  855MOL0     C17859   0.960  10.844   4.629  1.1770  1.0856  0.0559
  855MOL0     O17860   1.068  10.909   4.684  0.4534 -0.7792 -1.0535
  855MOL0     C17861   1.190  10.834   4.686 -0.6033  0.1808 -0.1111
  855MOL0     C17862   1.297  10.909   4.759  0.3240 -0.0310 -1.1549
  855MOL0     C17863   1.425  10.838   4.749  0.0841  0.1039  0.1103
  855MOL0     C17864   1.502  10.879   4.620  0.0843  0.0603  0.0008
  855MOL0     C17865   1.631  10.793   4.618 -0.0756  0.9988  0.4024
  855MOL0     C17866   1.731  10.857   4.525  0.5288  0.6297 -0.0342
  855MOL0     C17867   1.862  10.777   4.515  0.1869 -0.4534  0.5315
  855MOL0     C17868   1.942  10.839   4.402  0.9370  0.5250  0.5398
  855MOL0     N17869   2.074  10.768   4.395  0.2966  0.9425 -0.7028
  855MOL0     C17870   2.180  10.808   4.475 -0.8700  0.1780 -0.3562
  855MOL0     C17871   2.268  10.707   4.452  0.1017  0.1100 -0.2158
  855MOL0     C17872   2.408  10.699   4.496  0.5922  0.0838  0.2065
  855MOL0     C17873   2.504  10.649   4.387 -0.2486 -0.1641  0.0677
  855MOL0     C17874   2.519  10.498   4.389  0.5827  0.9750 -1.2278
  855MOL0     C17875   2.650  10.455   4.336  0.0681 -0.2123  0.3450
  855MOL0     O17876   2.684  10.319   4.375  0.0819  0.3587  0.2217
  855MOL0     C17877   2.812  10.273   4.360  0.6073 -0.7594  0.1829
  855MOL0     C17878   2.886  10.302   4.249 -0.3101  0.4967 -0.3593
  855MOL0     C17879   3.020  10.279   4.244 -0.2974  0.4956  0.4798
  855MOL0     C17880   3.087  10.340   4.130 -0.0823  0.0966  0.5930
  855MOL0     C17881   3.078  10.197   4.345  0.9259 -0.8248  0.7602
  855MOL0     C17882   3.219  10.151   4.347 -1.1801 -0.2946 -0.5394
  855MOL0     O17883   3.266  10.086   4.458  0.1345  0.4228  0.3224
  855MOL0     C17884   3.392  10.040   4.460 -0.9758 -0.7855 -0.6433
  855MOL0     C17885   3.505  10.123   4.487  0.8436  0.9089  0.2644
  855MOL0     C17886   3.632  10.071   4.492  1.2193 -0.4964  0.7596
  855MOL0     C17887   3.657   9.938   4.465  0.6908 -1.2300  0.8580
  855MOL0     O17888   3.784   9.901   4.459  0.0740  0.4537  0.2142
  855MOL0     C17889   3.809   9.757   4.454  0.0911 -0.2727 -0.4410
  855MOL0     C17890   3.956   9.719   4.427  0.4438 -0.7455  0.2984
  855MOL0     C17891   4.010   9.762   4.283  0.2012  0.3406 -0.4288
  855MOL0     C17892   4.036   9.908   4.264 -0.1061 -0.8303  0.0880
  855MOL0     C17893   4.105   9.921   4.123 -0.3944 -0.6938 -0.5953
  855MOL0     C17894   4.031   9.857   4.004  0.2459 -0.2703  0.6834
  855MOL0     C17895   4.103   9.897   3.867 -0.1206 -0.2604 -0.2779
  855MOL0     C17896   4.248   9.842   3.850 -0.6076 -0.7888  0.1300
  855MOL0    Cl17897   4.240   9.664   3.823 -0.1974  0.3993 -0.4880
  855MOL0     C17898   3.546   9.852   4.452 -0.5403  0.1087 -0.1100
  855MOL0     C17899   3.420   9.902   4.451  0.8116 -0.4444  0.6474
  855MOL0     O17900   3.282  10.169   4.249  0.6683 -0.4724 -0.2749
  855MOL0     C17901   2.994  10.162   4.459  0.7040 -0.0576  0.2307
  855MOL0     C17902   2.860  10.207   4.472  0.0221 -0.3107  0.6639
  855MOL0     N17903   2.218  10.611   4.368 -0.1124 -0.6446  0.2144
  855MOL0     N17904   2.101  10.644   4.343  0.1693  0.1744 -0.2638
  855MOL0     C17905   0.960  10.712   4.576 -0.4073  0.3372 -0.1855
  855MOL0     C17906   0.848  10.658   4.514 -0.0142  0.2650 -0.5195
  855MOL0     C17907   0.454  10.486   4.480  0.4586  0.1471 -0.2227
  855MOL0     C17908   0.380  10.552   4.386  0.3130  0.6794 -0.2901
  855MOL0     C17909   0.287  10.493   4.299 -0.1702 -0.0291  0.0208
  855MOL0     C17910   0.262  10.355   4.321 -0.2249  0.2382 -0.2064
  855MOL0     O17911   0.172  10.293   4.230 -0.7795  0.3173 -0.5214
  855MOL0     C17912   0.074  10.194   4.266 -0.6522 -0.9103 -0.4794
  855MOL0     C17913  -0.061  10.254   4.258 -0.3458 -0.7475 -0.2992
  855MOL0     C17914  -0.117  10.260   4.122 -0.5091 -0.1125  0.4993
  855MOL0     C17915  -0.247  10.344   4.132 -0.1431  0.3645  0.2577
  855MOL0     C17916  -0.347  10.286   4.229 -0.1195  1.1612  0.0801
  855MOL0     C17917  -0.430  10.246   4.305  0.7735 -0.0460  0.2774
  855MOL0     C17918   0.343  10.288   4.415 -0.1989  0.6681 -0.4111
  855MOL0     C17919   0.427  10.352   4.501  1.3351  0.4345 -0.4007
  855MOL0     C17920   0.490  10.278   4.614 -0.5692  0.0008  0.0878
  855MOL0     H17921   0.629  10.917   4.557  0.9167  1.0385 -1.1070
  855MOL0     H17922   0.846  11.018   4.656  0.4609  0.1650 -0.5935
  855MOL0     H17923   1.215  10.830   4.580  1.6624 -0.2179  0.4042
  855MOL0     H17924   1.187  10.731   4.725  0.4418 -0.9128 -2.7337
  855MOL0     H17925   1.299  11.009   4.715  0.7189 -0.1758 -1.4725
  855MOL0     H17926   1.264  10.920   4.863 -0.4932 -0.3331 -1.3734
  855MOL0     H17927   1.483  10.851   4.841  0.8324 -1.2522 -0.1452
  855MOL0     H17928   1.397  10.733   4.738 -1.5061  0.2282  2.3824
  855MOL0     H17929   1.439  10.860   4.533 -1.4868  2.7658  0.4333
  855MOL0     H17930   1.521  10.986   4.619 -0.7435  0.2076 -0.9298
  855MOL0     H17931   1.605  10.689   4.596  0.5249  1.0162 -0.4448
  855MOL0     H17932   1.670  10.788   4.720  1.6724 -2.9453 -0.2963
  855MOL0     H17933   1.680  10.848   4.429 -2.0930 -0.9804  1.3812
  855MOL0     H17934   1.749  10.956   4.569 -4.8402  0.6586  3.0139
  855MOL0     H17935   1.866  10.669   4.498  3.4870 -0.6415  1.8362
  855MOL0     H17936   1.909  10.776   4.613  1.3380  0.7642  0.0239
  855MOL0     H17937   1.894  10.815   4.306  0.2530 -0.3570  1.0875
  855MOL0     H17938   1.974  10.942   4.417  0.8400  0.3890  1.7380
  855MOL0     H17939   2.199  10.900   4.528 -5.3076  1.2377 -0.2798
  855MOL0     H17940   2.411  10.644   4.591  0.0547  1.2873  0.9499
  855MOL0     H17941   2.442  10.798   4.528  1.9544 -0.1876 -0.3417
  855MOL0     H17942   2.474  10.687   4.289 -0.7497 -0.5538  0.0673
  855MOL0     H17943   2.606  10.688   4.395 -0.3923  0.8197 -2.1996
  855MOL0     H17944   2.519  10.453   4.488 -1.1077  1.2256 -1.0688
  855MOL0     H17945   2.433  10.454   4.336  2.7977 -1.5385 -2.9862
  855MOL0     H17946   2.646  10.457   4.227  0.4509  1.1479  0.3348
  855MOL0     H17947   2.727  10.531   4.351 -2.1345  2.6882 -1.8560
  855MOL0     H17948   2.843  10.363   4.170 -2.3724 -0.1557  0.1751
  855MOL0     H17949   3.106  10.255   4.063 -2.3078 -0.8813  1.1077
  855MOL0     H17950   3.178  10.398   4.146 -0.0287  0.2122 -0.0872
  855MOL0     H17951   3.023  10.412   4.079  0.0491  1.2701  2.0363
  855MOL0     H17952   3.481  10.226   4.509 -0.0723  0.7011  0.2930
  855MOL0     H17953   3.719  10.135   4.505  1.8824 -1.4384  1.0833
  855MOL0     H17954   3.782   9.714   4.551 -1.4563 -0.0590 -0.7581
  855MOL0     H17955   3.750   9.702   4.380  0.3359 -0.4972 -0.4720
  855MOL0     H17956   4.029   9.760   4.497 -1.4133  0.8495  1.3892
  855MOL0     H17957   3.951   9.610   4.431  0.7929 -0.8164 -0.8558
  855MOL0     H17958   3.941   9.721   4.210 -0.5035 -0.7072  0.7818
  855MOL0     H17959   4.105   9.708   4.284 -0.2883 -0.5732  1.3921
  855MOL0     H17960   4.090   9.956   4.346  2.1243 -0.8618 -1.2582
  855MOL0     H17961   3.939   9.954   4.245  0.1694 -0.3790 -0.2891
  855MOL0     H17962   4.132  10.027   4.111 -1.3971 -0.2482  0.7147
  855MOL0     H17963   4.201   9.872   4.136 -0.1049 -0.4360 -1.6824
  855MOL0     H17964   3.922   9.872   3.998  0.5988  1.9590 -2.2484
  855MOL0     H17965   4.043   9.749   4.005  1.2768 -0.3217 -3.1029
  855MOL0     H17966   4.099  10.006   3.862  2.4759 -0.1228 -0.4628
  855MOL0     H17967   4.044   9.852   3.787 -2.1016  0.7210  0.5547
  855MOL0     H17968   4.307   9.870   3.937  3.2721 -0.2900 -2.3983
  855MOL0     H17969   4.292   9.892   3.763 -3.3437  0.1847 -0.8070
  855MOL0     H17970   3.558   9.747   4.425 -0.3151  0.0957  0.0395
  855MOL0     H17971   3.340   9.829   4.448  1.5841 -1.2988  0.4159
  855MOL0     H17972   3.037  10.100   4.537 -0.5292 -0.8751  0.2679
  855MOL0     H17973   2.799  10.183   4.559  1.9103  3.6093  3.3723
  855MOL0     H17974   1.043  10.642   4.583 -0.3344  0.3829 -0.5542
  855MOL0     H17975   0.853  10.553   4.487  1.0825 -0.2246  1.4063
  855MOL0     H17976   0.392  10.660   4.393  1.0099  0.5139  1.9028
  855MOL0     H17977   0.232  10.547   4.222 -1.4633 -1.7218 -0.3090
  855MOL0     H17978   0.084  10.107   4.199  1.5397 -1.1273  0.0697
  855MOL0     H17979   0.099  10.163   4.368  0.4393 -0.7628 -0.6961
  855MOL0     H17980  -0.047  10.357   4.294  1.5128 -1.5535  1.4962
  855MOL0     H17981  -0.123  10.199   4.329  1.5916  0.6312  2.6356
  855MOL0     H17982  -0.042  10.304   4.056  0.7183 -2.0810  0.4790
  855MOL0     H17983  -0.144  10.159   4.091 -1.5500  0.1608  0.4955
  855MOL0     H17984  -0.295  10.358   4.035  0.5774 -1.6512 -0.4506
  855MOL0     H17985  -0.214  10.440   4.174  5.1972 -0.4297 -1.2961
  855MOL0     H17986  -0.501  10.225   4.382  0.5555 -1.5743 -0.2947
  855MOL0     H17987   0.318  10.183   4.418 -3.9904  1.3224 -2.2460
  855MOL0     H17988   0.598  10.294   4.605 -0.7962  1.8830  0.3700
  855MOL0     H17989   0.460  10.303   4.716 -0.4957 -2.4695  0.7836
  855MOL0     H17990   0.480  10.170   4.597 -2.3693  0.5411 -3.2711
  856MOL0     O17991   4.753   4.291  10.743  0.4007 -0.4681  0.9189
  856MOL0     C17992   4.852   4.247  10.800 -0.5016 -0.5246 -0.9350
  856MOL0     O17993   4.857   4.180  10.921  0.7343 -0.0621  0.7552
  856MOL0     C17994   4.754   4.186  11.015  0.0621  0.8653 -0.9656
  856MOL0     C17995   4.771   4.197  11.149  1.0306 -0.1874 -0.6512
  856MOL0     C17996   4.673   4.191  11.250  0.1065 -0.3068 -1.0765
  856MOL0     C17997   4.548   4.157  11.212  0.0911  0.4111 -1.0464
  856MOL0     O17998   4.451   4.138  11.310 -0.1141 -0.0770  0.0869
  856MOL0     C17999   4.323   4.075  11.285  0.3230 -0.5588  0.7815
  856MOL0     C18000   4.230   4.084  11.407  0.2316 -0.8921 -0.4648
  856MOL0     C18001   4.159   4.226  11.435 -0.3312  0.5930  0.3607
  856MOL0     C18002   4.102   4.294  11.312 -0.0914  0.0696  0.3095
  856MOL0     C18003   3.992   4.392  11.351  0.2357  0.3501  0.3317
  856MOL0     C18004   3.858   4.315  11.357  0.1742 -0.2607 -0.1374
  856MOL0     C18005   3.743   4.408  11.320 -0.5040 -0.1807  0.7175
  856MOL0     C18006   3.615   4.340  11.300 -0.3408 -0.6291  0.5347
  856MOL0     N18007   3.510   4.443  11.293  0.4338  0.1511  0.2487
  856MOL0     C18008   3.450   4.497  11.183 -1.2085  0.7104 -0.7579
  856MOL0     C18009   3.353   4.574  11.222  0.2833  0.1929 -0.0492
  856MOL0     C18010   3.297   4.672  11.128 -0.3280 -0.5384 -0.1822
  856MOL0     C18011   3.366   4.812  11.112  0.0930 -0.3157 -1.2701
  856MOL0     C18012   3.505   4.807  11.052 -0.7825 -0.0654  0.2017
  856MOL0     C18013   3.503   4.770  10.901 -0.7054 -0.2062 -0.3812
  856MOL0     O18014   3.556   4.640  10.879 -0.0141 -0.4571 -0.0963
  856MOL0     C18015   3.692   4.632  10.903  0.0606  0.1787 -0.0106
  856MOL0     C18016   3.731   4.502  10.930 -0.8084  0.3587  0.7584
  856MOL0     C18017   3.874   4.469  10.948 -0.0961  0.0732 -0.3609
  856MOL0     C18018   3.903   4.327  10.984  0.8348  0.5168  0.2954
  856MOL0     C18019   3.970   4.574  10.940  1.0747  0.2148 -0.2160
  856MOL0     C18020   4.115   4.544  10.967 -1.1348  0.8425  0.3921
  856MOL0     O18021   4.166   4.644  11.039 -0.1542 -0.2989 -0.5796
  856MOL0     C18022   4.304   4.653  11.051 -0.2519 -0.3144  0.2506
  856MOL0     C18023   4.363   4.784  11.021 -0.3309 -0.1531 -0.0016
  856MOL0     C18024   4.492   4.800  11.052  0.1893 -0.1862 -0.4817
  856MOL0     C18025   4.574   4.695  11.095  0.0616  0.2782 -0.5749
  856MOL0     O18026   4.703   4.721  11.114 -0.6191 -0.2731 -0.2229
  856MOL0     C18027   4.808   4.617  11.109 -0.1519 -1.2585 -0.4882
  856MOL0     C18028   4.834   4.580  10.968 -0.0707 -0.1098  0.4759
  856MOL0     C18029   4.916   4.692  10.901  0.5870  0.1645 -0.8597
  856MOL0     C18030   4.941   4.665  10.752  0.2667  0.3677  0.2522
  856MOL0     C18031   5.048   4.757  10.689 -0.1761  0.1367 -0.1666
  856MOL0     C18032   5.109   4.681  10.570  0.0676  0.2536  0.0812
  856MOL0     C18033   5.218   4.747  10.492  0.0887 -0.6055  0.3388
  856MOL0     C18034   5.170   4.858  10.396  0.2729  0.4815  0.5239
  856MOL0    Cl18035   5.304   4.929  10.305  0.1056  0.5389  0.1214
  856MOL0     C18036   4.514   4.568  11.127  0.2174 -0.4532  0.5706
  856MOL0     C18037   4.375   4.548  11.110 -0.3614 -0.3565 -0.5590
  856MOL0     O18038   4.177   4.442  10.932 -0.5552  0.0374  0.7448
  856MOL0     C18039   3.928   4.709  10.917  0.3199 -0.2237 -0.8712
  856MOL0     C18040   3.792   4.739  10.895 -0.6020 -0.9073 -0.6074
  856MOL0     N18041   3.347   4.567  11.355  0.0855  0.3458 -0.3623
  856MOL0     N18042   3.440   4.487  11.396  0.4810 -0.1676  0.7813
  856MOL0     C18043   4.518   4.135  11.072 -0.3826 -0.6719 -1.1288
  856MOL0     C18044   4.622   4.150  10.977  0.5511  0.8270 -0.3494
  856MOL0     C18045   4.989   4.258  10.733  0.2827  0.4337 -0.3806
  856MOL0     C18046   5.101   4.240  10.817 -0.3180 -1.2116  0.2200
  856MOL0     C18047   5.229   4.231  10.762  1.1088  0.0634 -0.1791
  856MOL0     C18048   5.253   4.250  10.623  0.2745  0.7531 -0.3873
  856MOL0     O18049   5.378   4.255  10.563 -0.1506  0.1821 -0.0448
  856MOL0     C18050   5.493   4.259  10.645 -1.1270  0.3160  0.1407
  856MOL0     C18051   5.596   4.331  10.560  0.2540 -0.7898 -0.5975
  856MOL0     C18052   5.536   4.470  10.514  0.1410  0.3426  0.4920
  856MOL0     C18053   5.645   4.565  10.483  1.1734  0.1867  0.9913
  856MOL0     C18054   5.586   4.701  10.471  0.2594  0.9456 -0.5286
  856MOL0     C18055   5.545   4.815  10.468  0.3527  0.5644 -0.0262
  856MOL0     C18056   5.141   4.273  10.541  0.9786 -0.7923 -0.2769
  856MOL0     C18057   5.010   4.275  10.595  0.1831 -0.1441  0.3383
  856MOL0     C18058   4.901   4.302  10.496 -0.7978  0.4156  0.7211
  856MOL0     H18059   4.877   4.205  11.171  0.9116 -2.0277  0.8108
  856MOL0     H18060   4.700   4.197  11.355 -0.6263  0.3812 -0.9148
  856MOL0     H18061   4.338   3.970  11.260 -2.9046 -0.8355 -0.4577
  856MOL0     H18062   4.279   4.136  11.205 -0.4632  0.8809  2.2423
  856MOL0     H18063   4.155   4.004  11.402  2.3111 -2.8625 -2.1152
  856MOL0     H18064   4.287   4.066  11.498  0.4651 -0.2513 -0.4745
  856MOL0     H18065   4.086   4.224  11.517  0.3957  1.8441  1.0564
  856MOL0     H18066   4.229   4.291  11.488 -1.2793  0.7873  1.4177
  856MOL0     H18067   4.187   4.349  11.272  0.9541 -0.1111  2.1563
  856MOL0     H18068   4.065   4.213  11.248  0.2891 -0.9540  1.3572
  856MOL0     H18069   3.994   4.472  11.276  5.0416 -1.9865 -2.5466
  856MOL0     H18070   4.006   4.420  11.455 -3.4846 -0.1357  1.1083
  856MOL0     H18071   3.844   4.220  11.305  1.6309 -0.9679  0.7046
  856MOL0     H18072   3.851   4.288  11.462 -1.5293  0.9212  0.0845
  856MOL0     H18073   3.761   4.469  11.231 -1.8052  1.2836  1.4059
  856MOL0     H18074   3.724   4.473  11.406 -1.0625  1.6719 -0.7470
  856MOL0     H18075   3.626   4.282  11.208  0.2376 -3.4600  2.2662
  856MOL0     H18076   3.586   4.271  11.380 -0.4288 -1.4082 -0.1663
  856MOL0     H18077   3.485   4.483  11.081  0.2827 -0.9788 -0.0465
  856MOL0     H18078   3.201   4.691  11.177 -0.9825 -4.2298  0.2848
  856MOL0     H18079   3.270   4.630  11.031 -1.7045  2.2570 -1.1081
  856MOL0     H18080   3.304   4.876  11.048  1.4991 -0.1915 -2.5910
  856MOL0     H18081   3.382   4.856  11.211  1.0191 -0.5260 -1.3141
  856MOL0     H18082   3.537   4.912  11.049 -2.8611  0.6338  0.9105
  856MOL0     H18083   3.577   4.746  11.107  0.3198 -0.2088 -1.3175
  856MOL0     H18084   3.400   4.771  10.865 -1.1593 -0.7616  0.8315
  856MOL0     H18085   3.559   4.847  10.848  2.3863 -0.2336  2.4539
  856MOL0     H18086   3.664   4.417  10.929  2.0114 -2.0138  0.9040
  856MOL0     H18087   3.962   4.271  10.912 -0.7422 -1.6521  0.5941
  856MOL0     H18088   3.812   4.267  10.990  1.3277 -0.3790 -0.8488
  856MOL0     H18089   3.959   4.329  11.078  0.0967 -1.2933  0.8093
  856MOL0     H18090   4.320   4.873  10.976 -0.5290 -1.0445 -1.6320
  856MOL0     H18091   4.542   4.895  11.030 -0.0591  0.0025 -0.2397
  856MOL0     H18092   4.902   4.642  11.158  0.0318 -0.8184 -1.0496
  856MOL0     H18093   4.763   4.533  11.163 -3.9201 -0.0664 -1.4308
  856MOL0     H18094   4.886   4.485  10.965 -2.6330 -1.5881 -0.6113
  856MOL0     H18095   4.745   4.548  10.912  1.5457 -0.4469 -2.0275
  856MOL0     H18096   4.999   4.698  10.972 -0.7139  1.0497  0.6446
  856MOL0     H18097   4.872   4.792  10.907  1.3065  0.5355 -1.5938
  856MOL0     H18098   4.849   4.683  10.695  1.4067  0.1916 -1.7671
  856MOL0     H18099   4.980   4.563  10.750  1.0125  0.5906 -3.0779
  856MOL0     H18100   5.005   4.853  10.661 -1.9624 -0.6828 -0.3647
  856MOL0     H18101   5.129   4.782  10.758 -0.3687  0.7226 -0.1536
  856MOL0     H18102   5.041   4.653  10.489 -0.2294  2.2116 -0.3947
  856MOL0     H18103   5.152   4.588  10.608  1.6177  0.5697 -0.8502
  856MOL0     H18104   5.266   4.667  10.435 -0.1695  0.4620 -1.4703
  856MOL0     H18105   5.298   4.786  10.557  1.0827 -2.1723  0.1058
  856MOL0     H18106   5.100   4.918  10.455 -0.6493  0.3397 -0.3806
  856MOL0     H18107   5.095   4.822  10.325  0.2398  0.6076  0.4943
  856MOL0     H18108   4.566   4.481  11.165  1.4722 -0.6720 -1.4458
  856MOL0     H18109   4.317   4.467  11.153  0.0084  0.2141  1.0681
  856MOL0     H18110   4.010   4.780  10.918 -0.0602  0.2426  1.3320
  856MOL0     H18111   3.773   4.844  10.871 -2.3563 -0.5943  1.8295
  856MOL0     H18112   4.419   4.102  11.044 -0.5854 -3.6848  2.3389
  856MOL0     H18113   4.599   4.137  10.872 -0.5335  1.2828 -0.1807
  856MOL0     H18114   5.096   4.232  10.926 -0.6695  0.8521  0.3960
  856MOL0     H18115   5.311   4.214  10.831 -0.3264 -0.5315  1.4549
  856MOL0     H18116   5.480   4.317  10.737  1.5455  0.7639  0.3092
  856MOL0     H18117   5.531   4.159  10.670  2.6569  0.8455 -2.6250
  856MOL0     H18118   5.630   4.268  10.478 -0.9428 -0.8002 -1.1161
  856MOL0     H18119   5.690   4.346  10.614  1.2164 -1.6654 -1.9625
  856MOL0     H18120   5.466   4.459  10.431 -1.4927 -0.9036  1.9735
  856MOL0     H18121   5.486   4.518  10.599 -0.4585  0.9315 -0.1807
  856MOL0     H18122   5.691   4.541  10.386 -1.3904  3.0394 -1.1346
  856MOL0     H18123   5.720   4.566  10.562  1.3486 -1.3921  0.8845
  856MOL0     H18124   5.507   4.912  10.491 -1.0140  0.6321 -2.2852
  856MOL0     H18125   5.167   4.292  10.438 -1.8485 -0.5434 -1.0145
  856MOL0     H18126   4.826   4.374  10.530 -0.0987  0.2608  2.7065
  856MOL0     H18127   4.951   4.340  10.406  2.3870  0.0012  2.2127
  856MOL0     H18128   4.851   4.208  10.470 -1.4388  0.9952 -0.2234
  857MOL0     O18129  10.278   6.181   7.355 -0.0150 -0.1275  0.3929
  857MOL0     C18130  10.339   6.098   7.420  0.6465  1.0656  0.3686
  857MOL0     O18131  10.472   6.071   7.399 -0.6940 -0.0843  0.2005
  857MOL0     C18132  10.547   6.154   7.317  0.2015  0.4154 -1.0685
  857MOL0     C18133  10.652   6.097   7.253  0.7236  0.1241 -0.6882
  857MOL0     C18134  10.738   6.174   7.179  0.5558 -0.9390  0.1564
  857MOL0     C18135  10.738   6.313   7.177 -0.0446  0.3232  0.4098
  857MOL0     O18136  10.826   6.368   7.091  0.1776  0.5073 -0.2666
  857MOL0     C18137  10.831   6.511   7.091 -0.2873  0.4119 -0.0790
  857MOL0     C18138  10.956   6.553   7.011  0.0747  0.0413  0.6262
  857MOL0     C18139  11.079   6.566   7.103 -0.1565  0.9779 -0.4683
  857MOL0     C18140  11.126   6.436   7.183 -0.5603 -0.8049  0.8750
  857MOL0     C18141  11.261   6.432   7.259 -0.0797 -0.4559  0.3357
  857MOL0     C18142  11.296   6.315   7.340  0.6247  0.0835 -0.4286
  857MOL0     C18143  11.298   6.181   7.260  0.4369 -0.1442 -0.2723
  857MOL0     C18144  11.356   6.061   7.338 -0.4286  0.6338  0.0383
  857MOL0     N18145  11.499   6.073   7.356  0.3674  0.7929 -0.8825
  857MOL0     C18146  11.594   6.062   7.258  0.2185 -0.3640  0.3641
  857MOL0     C18147  11.705   6.113   7.312  0.0325 -0.3961 -0.5825
  857MOL0     C18148  11.846   6.113   7.249  0.2694 -0.9962  0.5585
  857MOL0     C18149  11.845   6.149   7.102 -0.6796  0.2654 -0.2642
  857MOL0     C18150  11.981   6.169   7.031 -0.3674  0.4940  0.3406
  857MOL0     C18151  11.973   6.166   6.876 -0.0964 -0.0838 -0.4440
  857MOL0     O18152  11.901   6.281   6.824  0.3755 -0.2205 -0.1677
  857MOL0     C18153  11.963   6.403   6.811  0.3502  0.7625  0.0714
  857MOL0     C18154  11.891   6.507   6.750  0.0301 -0.4590  0.5925
  857MOL0     C18155  11.940   6.639   6.738  0.5155 -1.1531  0.3392
  857MOL0     C18156  11.857   6.741   6.669 -0.1140 -0.5335 -0.2520
  857MOL0     C18157  12.069   6.663   6.800  0.0849 -0.7095  0.6965
  857MOL0     C18158  12.130   6.803   6.795 -0.0310 -0.0405  0.0865
  857MOL0     O18159  12.099   6.891   6.700 -0.5381  0.5350  0.6331
  857MOL0     C18160  12.119   7.021   6.723  0.1957  1.1627  0.1925
  857MOL0     C18161  12.022   7.072   6.811  0.4927  0.0388  0.2992
  857MOL0     C18162  12.036   7.209   6.841 -0.2979  0.9868  0.8802
  857MOL0     C18163  12.136   7.286   6.780 -0.3924 -0.7347 -0.5551
  857MOL0     O18164  12.145   7.422   6.808 -0.3959  0.7277  0.5929
  857MOL0     C18165  12.220   7.498   6.710  0.2979 -0.3588 -0.2556
  857MOL0     C18166  12.197   7.655   6.728 -0.2253  0.3780  0.3751
  857MOL0     C18167  12.310   7.738   6.663 -0.2983  0.5890  1.2045
  857MOL0     C18168  12.263   7.879   6.634 -0.3401 -0.1652 -0.1123
  857MOL0     C18169  12.215   7.889   6.486  0.5744 -0.2624 -0.1533
  857MOL0     C18170  12.337   7.902   6.392 -0.4592  0.6197  0.1956
  857MOL0     C18171  12.390   8.051   6.401 -0.1134 -0.5754  0.3378
  857MOL0     C18172  12.525   8.069   6.332 -0.3028 -0.1694  0.4783
  857MOL0    Cl18173  12.609   8.236   6.378  0.0817 -0.6705  0.3300
  857MOL0     C18174  12.231   7.227   6.696 -0.0757  0.5076 -0.2821
  857MOL0     C18175  12.220   7.092   6.669  0.2850 -0.1286  0.8438
  857MOL0     O18176  12.204   6.827   6.888  0.0010  0.7364  0.2574
  857MOL0     C18177  12.135   6.562   6.864 -0.1508  0.4220 -0.5413
  857MOL0     C18178  12.091   6.436   6.862  0.2008 -0.7949 -0.0619
  857MOL0     N18179  11.684   6.132   7.448 -0.7558  0.9164  0.5534
  857MOL0     N18180  11.560   6.109   7.475 -0.5106 -0.3676 -0.0345
  857MOL0     C18181  10.638   6.371   7.246 -0.3964  0.1515  0.5002
  857MOL0     C18182  10.542   6.295   7.314 -0.1866 -0.1687  0.0350
  857MOL0     C18183  10.277   6.034   7.536  1.1049 -0.4874 -0.3908
  857MOL0     C18184  10.358   5.974   7.631 -0.5816 -0.7804  0.4652
  857MOL0     C18185  10.308   5.920   7.747  1.0759  1.2708  0.3327
  857MOL0     C18186  10.172   5.917   7.773  0.4432  0.3272  0.2728
  857MOL0     O18187  10.113   5.862   7.888  0.2863  0.0875  0.0915
  857MOL0     C18188  10.132   5.919   8.021  0.4457  0.0872  0.0215
  857MOL0     C18189  10.235   5.853   8.104  0.2019 -0.9201  0.4514
  857MOL0     C18190  10.202   5.701   8.141 -0.3478 -0.3673 -0.7754
  857MOL0     C18191  10.322   5.611   8.194  0.8785  1.1229 -0.2802
  857MOL0     C18192  10.365   5.679   8.314 -0.4878  0.1404 -0.1377
  857MOL0     C18193  10.404   5.739   8.416 -0.3496  0.5358  0.0446
  857MOL0     C18194  10.088   5.976   7.685  0.4056  0.3905  0.0949
  857MOL0     C18195  10.142   6.042   7.574  0.6077 -0.5020  0.3329
  857MOL0     C18196  10.037   6.096   7.486 -0.0438  0.6069  0.8284
  857MOL0     H18197  10.677   5.992   7.254 -0.0094 -0.0635 -1.4353
  857MOL0     H18198  10.825   6.136   7.128  2.4714  0.4528  2.2036
  857MOL0     H18199  10.848   6.549   7.192 -1.6323  2.6259 -0.6300
  857MOL0     H18200  10.741   6.558   7.053 -1.5478 -0.4055  1.7610
  857MOL0     H18201  10.988   6.477   6.939 -1.0166 -0.5753  0.7807
  857MOL0     H18202  10.923   6.644   6.961  0.4645 -2.3191 -4.6348
  857MOL0     H18203  11.162   6.612   7.048  0.0556  3.4171  1.6890
  857MOL0     H18204  11.061   6.646   7.175  0.6288  1.0211 -0.3124
  857MOL0     H18205  11.044   6.401   7.245 -0.6721 -2.9073 -0.3592
  857MOL0     H18206  11.131   6.354   7.110 -0.8011  0.1492 -0.2502
  857MOL0     H18207  11.255   6.511   7.333 -0.6570 -2.3068  2.3641
  857MOL0     H18208  11.342   6.464   7.193 -1.2136 -1.9958 -1.9682
  857MOL0     H18209  11.398   6.335   7.374 -0.1685  0.6987  1.6940
  857MOL0     H18210  11.228   6.319   7.425  0.1121  3.0835 -0.8562
  857MOL0     H18211  11.360   6.195   7.171 -1.0702 -0.1713 -1.3618
  857MOL0     H18212  11.202   6.152   7.216  0.2664 -1.2079  0.7366
  857MOL0     H18213  11.293   6.039   7.425 -1.0216  1.2378 -0.2260
  857MOL0     H18214  11.335   5.974   7.276 -0.1559  0.5507  0.0659
  857MOL0     H18215  11.582   6.036   7.154 -0.3757 -2.6416  0.9530
  857MOL0     H18216  11.897   6.018   7.265  1.1582 -0.3788  1.5059
  857MOL0     H18217  11.910   6.190   7.294  1.0441 -0.4037 -1.4395
  857MOL0     H18218  11.799   6.055   7.070 -2.3780  1.2025 -0.6596
  857MOL0     H18219  11.775   6.229   7.080 -1.8092  0.2004  2.7169
  857MOL0     H18220  12.036   6.258   7.061  2.6188 -0.3768 -2.0238
  857MOL0     H18221  12.051   6.089   7.058  1.3309  1.7927 -0.0546
  857MOL0     H18222  12.076   6.151   6.841 -0.2046 -3.7848  0.3862
  857MOL0     H18223  11.925   6.074   6.840 -2.4561  0.7067  0.5253
  857MOL0     H18224  11.792   6.498   6.707  0.0117  1.0165  0.2558
  857MOL0     H18225  11.836   6.822   6.740  1.5677  1.0750 -1.4848
  857MOL0     H18226  11.766   6.700   6.625  0.6495 -0.3837 -2.0542
  857MOL0     H18227  11.908   6.786   6.583 -0.1466  1.5647  0.7524
  857MOL0     H18228  11.936   7.020   6.852 -1.6763  0.1267 -3.6099
  857MOL0     H18229  11.967   7.248   6.915  2.6944 -1.0655  5.2230
  857MOL0     H18230  12.327   7.485   6.724  0.4163 -0.6146 -1.3202
  857MOL0     H18231  12.194   7.465   6.609 -0.2043  0.2605 -0.3377
  857MOL0     H18232  12.104   7.685   6.679 -1.3985 -1.5559  1.2912
  857MOL0     H18233  12.194   7.679   6.835 -0.0007  0.5305  0.3477
  857MOL0     H18234  12.336   7.697   6.565 -1.8769  2.6073 -0.1483
  857MOL0     H18235  12.406   7.733   6.715  0.2436  0.2733  0.2057
  857MOL0     H18236  12.348   7.944   6.652 -1.3334  0.7868  1.3345
  857MOL0     H18237  12.195   7.906   6.715  1.4512  1.4917  0.9102
  857MOL0     H18238  12.151   7.801   6.477  0.9545 -0.5678  0.1123
  857MOL0     H18239  12.148   7.975   6.480  0.1414 -0.5588  0.3983
  857MOL0     H18240  12.307   7.878   6.289  2.1520 -2.1714 -0.0524
  857MOL0     H18241  12.417   7.837   6.430  1.1737  3.2102  1.4440
  857MOL0     H18242  12.421   8.085   6.501 -0.3923  1.6706 -0.2909
  857MOL0     H18243  12.322   8.128   6.364 -0.0759  0.4962  2.3115
  857MOL0     H18244  12.517   8.058   6.223  2.8973  1.0061  0.0257
  857MOL0     H18245  12.585   7.982   6.358 -1.9295 -2.0279 -1.6061
  857MOL0     H18246  12.314   7.286   6.659 -0.2841  0.8846 -0.1565
  857MOL0     H18247  12.299   7.044   6.613 -0.8081  0.3947 -1.2686
  857MOL0     H18248  12.232   6.586   6.905  0.3400 -4.3435  1.7538
  857MOL0     H18249  12.161   6.360   6.895 -1.9739 -3.0828 -0.4011
  857MOL0     H18250  10.637   6.479   7.256 -1.5662  0.1691  0.3761
  857MOL0     H18251  10.463   6.344   7.370  0.2533 -0.0172  0.5376
  857MOL0     H18252  10.465   5.957   7.621 -0.4861  0.4297 -0.9084
  857MOL0     H18253  10.382   5.873   7.812 -2.2158 -3.1930  1.3593
  857MOL0     H18254  10.171   6.020   8.007  1.2606 -0.2591 -0.3344
  857MOL0     H18255  10.037   5.925   8.074  0.5366 -0.7162  0.3009
  857MOL0     H18256  10.261   5.907   8.196  0.5559  1.4170 -0.9552
  857MOL0     H18257  10.332   5.853   8.053  1.2844  1.0097  2.3274
  857MOL0     H18258  10.120   5.683   8.210  2.5400 -2.2961  2.4795
  857MOL0     H18259  10.178   5.651   8.047 -1.0727  0.2910 -0.9457
  857MOL0     H18260  10.405   5.611   8.124  0.6970  0.0451 -0.5053
  857MOL0     H18261  10.270   5.519   8.221 -3.4620  3.6795  1.2210
  857MOL0     H18262  10.434   5.792   8.504  0.8937  0.6492 -0.4363
  857MOL0     H18263   9.982   5.976   7.706  0.2733 -2.1265 -0.3466
  857MOL0     H18264  10.040   6.205   7.487  1.8927  0.8515 -4.3101
  857MOL0     H18265  10.058   6.063   7.384 -1.7327  3.1124 -0.4262
  857MOL0     H18266   9.939   6.054   7.512 -0.9758  0.3069 -2.6436
  858MOL0     O18267  11.136   1.353   3.240 -0.0612 -0.9278  0.0837
  858MOL0     C18268  11.128   1.419   3.345 -0.1964  0.5784  0.0535
  858MOL0     O18269  11.233   1.436   3.431 -0.1269  0.0843 -0.6679
  858MOL0     C18270  11.350   1.365   3.405 -0.7711 -0.0524  1.1071
  858MOL0     C18271  11.458   1.447   3.389  0.6210 -0.4659 -1.6189
  858MOL0     C18272  11.583   1.392   3.377  0.4874 -0.7481  0.3040
  858MOL0     C18273  11.602   1.256   3.377  0.3398 -0.0321 -0.1527
  858MOL0     O18274  11.735   1.215   3.356 -0.2374 -0.3377  0.3240
  858MOL0     C18275  11.812   1.203   3.483 -0.0081 -0.8611 -0.7993
  858MOL0     C18276  11.955   1.188   3.441  0.6362 -0.0613 -0.6983
  858MOL0     C18277  12.049   1.196   3.565 -0.0087  0.1504 -0.3373
  858MOL0     C18278  12.193   1.156   3.530  0.1300  0.2310  0.9212
  858MOL0     C18279  12.305   1.188   3.636 -1.0741 -1.1118  0.7907
  858MOL0     C18280  12.445   1.180   3.561 -0.2777  0.0874 -1.3160
  858MOL0     C18281  12.570   1.218   3.647 -0.0801 -0.5824  0.4869
  858MOL0     C18282  12.686   1.126   3.616 -0.3010  0.4532  0.6994
  858MOL0     N18283  12.812   1.182   3.681 -0.1129  0.2129  0.1897
  858MOL0     C18284  12.845   1.167   3.815  0.2969  0.3457 -0.7577
  858MOL0     C18285  12.951   1.245   3.823 -0.4778 -0.6604 -0.1293
  858MOL0     C18286  13.015   1.268   3.959  0.2448 -0.7482  0.5298
  858MOL0     C18287  13.148   1.345   3.942 -0.5989 -0.0543  1.0985
  858MOL0     C18288  13.253   1.311   4.057  0.3434 -0.6886 -0.1473
  858MOL0     C18289  13.336   1.433   4.084 -0.7500 -0.0567  0.6055
  858MOL0     O18290  13.397   1.453   3.957  0.0325 -0.4359  0.9842
  858MOL0     C18291  13.508   1.538   3.961  0.2830  0.1548  0.2121
  858MOL0     C18292  13.608   1.537   3.870 -0.6567 -0.4279 -0.2978
  858MOL0     C18293  13.712   1.632   3.861  0.3131  0.2543  0.6576
  858MOL0     C18294  13.807   1.619   3.742  1.2068  0.3164 -0.3685
  858MOL0     C18295  13.718   1.734   3.961 -0.4786  0.3120 -0.9813
  858MOL0     C18296  13.830   1.836   3.965 -0.0152 -0.7128 -0.0652
  858MOL0     O18297  13.822   1.938   4.061 -0.4363 -1.3831 -0.2363
  858MOL0     C18298  13.925   2.035   4.051  0.3376  0.8525 -0.9777
  858MOL0     C18299  14.051   2.000   4.099 -0.0781  0.0829 -0.0080
  858MOL0     C18300  14.149   2.093   4.119 -0.3474  0.3496  0.0335
  858MOL0     C18301  14.126   2.224   4.080 -0.0505 -0.3573  0.3175
  858MOL0     O18302  14.233   2.305   4.087  0.5313  0.7224  0.1740
  858MOL0     C18303  14.209   2.444   4.079  0.2241  1.3109 -0.6174
  858MOL0     C18304  14.327   2.527   4.122 -0.0075  0.2882 -0.5655
  858MOL0     C18305  14.440   2.497   4.026 -0.0727 -0.0593 -0.2877
  858MOL0     C18306  14.562   2.591   4.042  0.0596  0.3553  0.1698
  858MOL0     C18307  14.678   2.564   3.944  0.1396 -0.3679 -0.3794
  858MOL0     C18308  14.760   2.700   3.920 -0.2862 -0.2505  0.2705
  858MOL0     C18309  14.906   2.675   3.937 -0.6920  0.4946  0.3183
  858MOL0     C18310  14.981   2.809   3.936  0.3952  0.1612  1.1812
  858MOL0    Cl18311  15.160   2.791   3.980 -0.6624  0.0497  0.4139
  858MOL0     C18312  14.005   2.265   4.035 -0.4138  0.5787 -1.2744
  858MOL0     C18313  13.904   2.167   4.022 -0.3534 -0.1796  0.0743
  858MOL0     O18314  13.910   1.830   3.873  0.2053 -0.1249 -0.0612
  858MOL0     C18315  13.609   1.740   4.056 -1.0149  0.0329 -0.2088
  858MOL0     C18316  13.511   1.643   4.057  0.1451  0.0515 -0.1474
  858MOL0     N18317  12.984   1.304   3.704  1.0324  0.0993  0.4805
  858MOL0     N18318  12.907   1.253   3.616  0.4945 -0.4878 -0.0662
  858MOL0     C18319  11.499   1.165   3.394 -0.3891  0.6565  1.2071
  858MOL0     C18320  11.368   1.222   3.406  0.2363  0.3136  0.0258
  858MOL0     C18321  10.989   1.469   3.388  0.0539  0.2378  0.4905
  858MOL0     C18322  10.973   1.522   3.515  0.0602  1.2716  0.1783
  858MOL0     C18323  10.852   1.560   3.567  0.0309 -0.0228  0.6132
  858MOL0     C18324  10.739   1.559   3.487 -0.3692 -0.0755 -0.2711
  858MOL0     O18325  10.626   1.616   3.537 -0.6337 -0.3479  0.8093
  858MOL0     C18326  10.525   1.526   3.585  0.1319 -0.4143 -0.9662
  858MOL0     C18327  10.394   1.586   3.606  0.1586  0.0659  0.4899
  858MOL0     C18328  10.312   1.474   3.672 -0.3001  0.6563  0.2942
  858MOL0     C18329  10.171   1.523   3.703 -0.4991  0.2586  0.3780
  858MOL0     C18330  10.082   1.409   3.727  0.3057  0.2592  0.2379
  858MOL0     C18331  10.007   1.314   3.762  0.5466  0.2764 -0.4528
  858MOL0     C18332  10.750   1.524   3.350  0.1392  0.0615 -0.1039
  858MOL0     C18333  10.873   1.473   3.297 -0.5123 -0.4671  0.3912
  858MOL0     C18334  10.867   1.428   3.154  0.7377  0.8439 -0.3675
  858MOL0     H18335  11.456   1.554   3.406  1.3079 -0.6541 -0.1662
  858MOL0     H18336  11.675   1.450   3.380 -1.3652  2.4837 -0.3775
  858MOL0     H18337  11.791   1.116   3.546 -0.8663 -0.8839 -1.1046
  858MOL0     H18338  11.798   1.297   3.537  3.1568 -0.5232 -0.3881
  858MOL0     H18339  11.966   1.090   3.394  1.8036 -0.9172  1.2227
  858MOL0     H18340  11.992   1.260   3.367  3.8029 -0.7695  0.0171
  858MOL0     H18341  12.046   1.292   3.618 -1.8407 -1.2004  2.2576
  858MOL0     H18342  12.015   1.114   3.630  0.1643  0.9396  0.7765
  858MOL0     H18343  12.191   1.050   3.506 -1.6490  1.1293 -4.1915
  858MOL0     H18344  12.220   1.205   3.436  2.3917 -1.4103  0.6525
  858MOL0     H18345  12.303   1.121   3.722  1.0848 -2.6696 -0.3034
  858MOL0     H18346  12.284   1.286   3.681 -2.4755 -1.4336  0.8980
  858MOL0     H18347  12.455   1.073   3.539  2.2749 -0.6061  2.2190
  858MOL0     H18348  12.453   1.239   3.470 -0.3148  1.3225 -0.5408
  858MOL0     H18349  12.552   1.204   3.754 -0.1365  1.2476  0.7402
  858MOL0     H18350  12.602   1.320   3.626 -1.0911  0.0188  1.7073
  858MOL0     H18351  12.667   1.025   3.652  1.1023 -0.8627 -1.9133
  858MOL0     H18352  12.705   1.102   3.511  1.4319  3.2148  0.2997
  858MOL0     H18353  12.803   1.106   3.894 -1.5296  2.0690 -0.3066
  858MOL0     H18354  13.032   1.166   3.997 -0.9829 -1.5178 -0.8539
  858MOL0     H18355  12.954   1.332   4.023 -0.2333  2.1277 -2.5453
  858MOL0     H18356  13.207   1.316   3.855  1.0558  1.6433  1.5762
  858MOL0     H18357  13.129   1.453   3.940  2.8000  0.6540 -1.3756
  858MOL0     H18358  13.196   1.297   4.150  0.9960 -0.1696  0.3383
  858MOL0     H18359  13.314   1.222   4.040  1.1195 -0.4179  1.0833
  858MOL0     H18360  13.269   1.515   4.112 -1.9096 -0.4748 -0.8152
  858MOL0     H18361  13.405   1.395   4.159  0.0522  0.7449  0.2914
  858MOL0     H18362  13.620   1.455   3.800 -1.1270 -0.1763 -0.6773
  858MOL0     H18363  13.757   1.560   3.665  1.2452  0.1020 -0.2313
  858MOL0     H18364  13.896   1.564   3.776  3.1697  2.6326 -1.4654
  858MOL0     H18365  13.831   1.712   3.690  0.4557  1.2032  0.8299
  858MOL0     H18366  14.075   1.901   4.136  2.5056 -0.0533 -1.7540
  858MOL0     H18367  14.247   2.065   4.158  0.6966  0.1844 -2.4872
  858MOL0     H18368  14.180   2.457   3.974  1.0920 -1.1856 -1.2261
  858MOL0     H18369  14.128   2.474   4.146 -0.4036 -1.0952 -0.2099
  858MOL0     H18370  14.307   2.635   4.121  0.6151  0.4103 -1.8363
  858MOL0     H18371  14.356   2.516   4.227  0.8205  4.4429 -0.1687
  858MOL0     H18372  14.413   2.490   3.920 -0.3287  0.8855 -0.2932
  858MOL0     H18373  14.472   2.400   4.064  1.6211  1.1033  1.4521
  858MOL0     H18374  14.601   2.586   4.145 -0.5371 -2.9677  0.3481
  858MOL0     H18375  14.515   2.687   4.020 -2.2174 -0.2310  2.0561
  858MOL0     H18376  14.745   2.492   3.992  0.9701  3.0589  4.2568
  858MOL0     H18377  14.644   2.539   3.843 -0.5016 -0.8678 -0.0460
  858MOL0     H18378  14.730   2.784   3.984  2.2721  2.6800 -2.0473
  858MOL0     H18379  14.734   2.735   3.820  1.4169  0.9499  0.2058
  858MOL0     H18380  14.946   2.622   3.850  3.6847  3.4778  0.1430
  858MOL0     H18381  14.937   2.613   4.022  2.6238  0.4272 -0.7710
  858MOL0     H18382  14.931   2.883   3.999 -2.5476 -0.2152 -0.5138
  858MOL0     H18383  14.972   2.856   3.837  1.2104 -0.1922  0.9310
  858MOL0     H18384  13.988   2.368   4.005 -0.0934  1.9167  2.5843
  858MOL0     H18385  13.804   2.192   3.989  0.5077  1.1895 -1.6614
  858MOL0     H18386  13.617   1.825   4.122  0.2276  3.5708 -4.3939
  858MOL0     H18387  13.436   1.649   4.135  0.5200 -1.4181  0.3679
  858MOL0     H18388  11.516   1.059   3.402 -0.2101  0.4197 -1.3404
  858MOL0     H18389  11.285   1.152   3.415  0.8371 -0.3599  0.5093
  858MOL0     H18390  11.059   1.546   3.577 -1.6879  4.1660  1.7120
  858MOL0     H18391  10.848   1.602   3.667  0.6702 -1.2638  1.1832
  858MOL0     H18392  10.512   1.430   3.533 -2.7645 -1.8595  2.0323
  858MOL0     H18393  10.558   1.502   3.686 -3.1844 -1.8866 -0.0716
  858MOL0     H18394  10.356   1.611   3.507  0.4617 -1.1320  0.0516
  858MOL0     H18395  10.408   1.670   3.675 -0.3173 -0.8757  1.7819
  858MOL0     H18396  10.306   1.399   3.593 -0.1874  1.4433 -0.4732
  858MOL0     H18397  10.357   1.419   3.755  2.7782  0.1418 -1.5270
  858MOL0     H18398  10.135   1.576   3.614  1.1706 -2.1347 -1.8788
  858MOL0     H18399  10.176   1.598   3.782  0.8015 -0.5998  1.1558
  858MOL0     H18400   9.923   1.251   3.782 -0.9894  2.2601 -0.2590
  858MOL0     H18401  10.669   1.558   3.286 -0.5653 -0.7062  0.3688
  858MOL0     H18402  10.766   1.408   3.116  0.3182  1.0444  0.6065
  858MOL0     H18403  10.902   1.503   3.083 -1.0957  2.0026 -0.1244
  858MOL0     H18404  10.927   1.337   3.143 -0.0698  0.3917 -1.2912
  859MOL0     O18405   0.233   1.312   1.264 -0.0661  0.5305  0.2541
  859MOL0     C18406   0.159   1.353   1.176  0.5158 -0.3185  0.0782
  859MOL0     O18407   0.195   1.420   1.069  0.7251 -0.6222  0.0131
  859MOL0     C18408   0.326   1.461   1.061 -0.2075  1.0858  0.4739
  859MOL0     C18409   0.421   1.360   1.035 -0.1441  0.6328  0.5491
  859MOL0     C18410   0.562   1.396   1.030  0.1036  0.8256  0.2401
  859MOL0     C18411   0.601   1.528   1.051  0.0969 -0.6926 -0.6360
  859MOL0     O18412   0.735   1.566   1.047 -0.2301  0.0517 -0.5677
  859MOL0     C18413   0.847   1.471   1.003  0.6021 -0.6661 -0.3050
  859MOL0     C18414   0.850   1.469   0.853 -0.2829 -0.3451  0.7519
  859MOL0     C18415   0.957   1.388   0.797  0.0820 -0.1372 -0.6172
  859MOL0     C18416   0.978   1.418   0.656  0.1690 -0.0160 -0.4925
  859MOL0     C18417   1.124   1.452   0.628 -0.6132 -0.5976  0.3657
  859MOL0     C18418   1.137   1.500   0.479  1.1779 -0.3156 -0.4733
  859MOL0     C18419   1.278   1.504   0.428  0.4432 -0.2139  0.3212
  859MOL0     C18420   1.357   1.372   0.411 -0.2070 -1.6548 -0.3850
  859MOL0     N18421   1.489   1.403   0.371 -0.2934  0.3325  0.6485
  859MOL0     C18422   1.584   1.446   0.455 -0.4930  0.5303  0.4600
  859MOL0     C18423   1.694   1.481   0.378 -0.1016  0.5046  0.0831
  859MOL0     C18424   1.824   1.538   0.429 -1.1275  0.3365 -0.2335
  859MOL0     C18425   1.903   1.429   0.513  0.1111  0.0261 -0.0089
  859MOL0     C18426   2.042   1.476   0.538  0.2945  0.3994  0.1004
  859MOL0     C18427   2.150   1.449   0.431 -0.0795  0.0293  0.1350
  859MOL0     O18428   2.140   1.312   0.388 -0.1189  0.1193 -0.3249
  859MOL0     C18429   2.266   1.254   0.366  0.6789 -0.5091  0.2329
  859MOL0     C18430   2.350   1.320   0.280 -0.5076  1.0180  0.0619
  859MOL0     C18431   2.473   1.273   0.238 -0.2095 -0.2557 -0.1427
  859MOL0     C18432   2.555   1.360   0.150 -0.4079  1.4870  0.2705
  859MOL0     C18433   2.516   1.151   0.281 -0.1805  0.1619  0.0139
  859MOL0     C18434   2.637   1.077   0.230  0.2797 -0.1095  0.1946
  859MOL0     O18435   2.678   0.980   0.315  0.1816  0.3530 -0.0329
  859MOL0     C18436   2.807   0.929   0.312  0.8787  0.1820  0.1672
  859MOL0     C18437   2.922   1.000   0.280 -0.3177  0.7102 -0.2246
  859MOL0     C18438   3.049   0.937   0.288  0.0131 -0.6548 -0.2936
  859MOL0     C18439   3.067   0.806   0.326 -0.6487  0.1366  0.4107
  859MOL0     O18440   3.200   0.761   0.321 -0.1619 -0.5273  0.2231
  859MOL0     C18441   3.215   0.625   0.278  0.2639 -0.4269  0.0513
  859MOL0     C18442   3.361   0.586   0.255 -0.2358 -0.0192  0.1161
  859MOL0     C18443   3.393   0.433   0.232  0.9280  0.0840 -0.7977
  859MOL0     C18444   3.312   0.377   0.118 -0.3896 -0.2211  0.1640
  859MOL0     C18445   3.323   0.229   0.098 -0.6121 -0.3480  0.4949
  859MOL0     C18446   3.232   0.196  -0.021 -0.2876  0.0872 -0.1045
  859MOL0     C18447   3.204   0.051  -0.052 -0.6004 -0.1015 -0.1827
  859MOL0     C18448   3.110  -0.016   0.053  0.7085  0.1232  0.3676
  859MOL0    Cl18449   3.047  -0.179  -0.001  0.1959 -0.4251  0.3929
  859MOL0     C18450   2.948   0.732   0.348  0.6491 -0.3027 -0.8943
  859MOL0     C18451   2.819   0.796   0.339  0.4637  0.0665 -0.1253
  859MOL0     O18452   2.691   1.096   0.119 -0.0691 -1.0403 -0.2784
  859MOL0     C18453   2.437   1.086   0.385  0.2534 -1.0667 -0.0069
  859MOL0     C18454   2.311   1.132   0.426  0.1682 -0.0556  0.0470
  859MOL0     N18455   1.659   1.464   0.244  0.3335 -0.1704  0.3578
  859MOL0     N18456   1.532   1.418   0.245 -0.5483  0.0584 -0.2121
  859MOL0     C18457   0.504   1.630   1.067  0.2273  0.3948  0.0530
  859MOL0     C18458   0.367   1.591   1.077  0.1021  0.6034 -1.4246
  859MOL0     C18459   0.015   1.340   1.210  0.6518  0.6107 -0.3151
  859MOL0     C18460  -0.022   1.338   1.349  0.0915  0.3182  0.8175
  859MOL0     C18461  -0.152   1.336   1.388  0.1222  0.4772  0.4636
  859MOL0     C18462  -0.257   1.329   1.296 -0.1605 -0.1278  0.2050
  859MOL0     O18463  -0.392   1.321   1.322  0.0906 -0.5521 -0.2256
  859MOL0     C18464  -0.444   1.309   1.453  0.3998 -0.0354 -0.1146
  859MOL0     C18465  -0.431   1.170   1.513 -0.3570  0.3023  0.4494
  859MOL0     C18466  -0.501   1.068   1.420 -0.2352 -0.8479  1.0181
  859MOL0     C18467  -0.565   0.952   1.497  0.5094  0.3518 -0.5045
  859MOL0     C18468  -0.454   0.863   1.540  0.4405 -0.1345  0.2182
  859MOL0     C18469  -0.373   0.802   1.600 -0.6262 -0.3183 -0.4688
  859MOL0     C18470  -0.219   1.325   1.159 -0.6234 -0.5330  0.4797
  859MOL0     C18471  -0.090   1.335   1.115  0.0288 -0.5963  0.1660
  859MOL0     C18472  -0.054   1.336   0.963 -0.7156 -0.4908 -0.5087
  859MOL0     H18473   0.385   1.258   1.032 -0.0885  0.4283  3.7109
  859MOL0     H18474   0.643   1.326   1.016  0.6211  1.2190  1.1922
  859MOL0     H18475   0.825   1.371   1.043  0.0576 -1.2034 -1.8579
  859MOL0     H18476   0.938   1.509   1.049 -0.9849 -0.1349  2.6074
  859MOL0     H18477   0.754   1.440   0.810 -0.9080  1.0425  1.1811
  859MOL0     H18478   0.863   1.572   0.819 -1.6195 -0.1817  0.6979
  859MOL0     H18479   1.048   1.425   0.844 -1.3548  0.4013  1.9306
  859MOL0     H18480   0.946   1.282   0.824  0.8299 -0.2190 -0.6042
  859MOL0     H18481   0.952   1.333   0.592  3.0178 -1.6021  0.3043
  859MOL0     H18482   0.917   1.501   0.618  2.1084  1.1783 -1.1305
  859MOL0     H18483   1.187   1.364   0.645 -0.4290  0.0047  3.3114
  859MOL0     H18484   1.159   1.526   0.701 -1.6818 -0.2835  0.5872
  859MOL0     H18485   1.079   1.432   0.415  0.6546  1.1472 -1.5876
  859MOL0     H18486   1.092   1.599   0.473  1.6296  0.0081  0.9158
  859MOL0     H18487   1.330   1.570   0.498 -1.1128  2.7882 -1.1731
  859MOL0     H18488   1.264   1.557   0.334 -0.6030  1.6718  1.4843
  859MOL0     H18489   1.353   1.323   0.509 -0.8650  0.8977  0.9376
  859MOL0     H18490   1.315   1.312   0.330  0.6384  2.2642 -4.0947
  859MOL0     H18491   1.589   1.450   0.563  2.4192 -0.0324  0.4462
  859MOL0     H18492   1.798   1.624   0.491  2.4627  3.0465 -2.1071
  859MOL0     H18493   1.884   1.551   0.338 -0.4310  0.5397  0.2480
  859MOL0     H18494   1.862   1.406   0.611 -1.9863 -1.0683 -1.0818
  859MOL0     H18495   1.900   1.339   0.451  0.1062  0.7470 -1.0903
  859MOL0     H18496   2.041   1.584   0.560 -1.7973  0.4763 -0.2133
  859MOL0     H18497   2.070   1.425   0.631 -1.0765 -1.9632 -0.7070
  859MOL0     H18498   2.143   1.522   0.349  1.6523  0.4672  0.3391
  859MOL0     H18499   2.250   1.461   0.475 -0.7343  1.2886  1.3526
  859MOL0     H18500   2.319   1.414   0.235  0.3357  1.2542 -0.0406
  859MOL0     H18501   2.657   1.353   0.190 -0.3663 -3.6423 -0.0472
  859MOL0     H18502   2.520   1.464   0.148  1.7684  2.3322  1.8784
  859MOL0     H18503   2.554   1.329   0.045 -1.1111  0.5325  0.5511
  859MOL0     H18504   2.924   1.101   0.239  1.9204  1.4263  1.4129
  859MOL0     H18505   3.144   0.982   0.262  1.0901 -1.4890  1.9288
  859MOL0     H18506   3.170   0.558   0.351 -1.2314 -0.1398 -0.5433
  859MOL0     H18507   3.155   0.599   0.190  3.4209 -0.2193 -2.3496
  859MOL0     H18508   3.399   0.639   0.168 -2.1837 -0.7237 -1.2244
  859MOL0     H18509   3.406   0.618   0.349  1.0840  2.4584 -1.2844
  859MOL0     H18510   3.374   0.382   0.327  0.1318  2.0001  0.1380
  859MOL0     H18511   3.500   0.420   0.212  1.5178  3.1589 -0.1111
  859MOL0     H18512   3.335   0.428   0.024  0.8171  0.7510  0.9644
  859MOL0     H18513   3.207   0.394   0.142 -0.9427 -1.1778 -1.4417
  859MOL0     H18514   3.424   0.194   0.076 -0.1915 -1.8555  4.1937
  859MOL0     H18515   3.286   0.181   0.188  1.1273  0.1842  1.5371
  859MOL0     H18516   3.270   0.249  -0.109  0.4356 -0.3468 -0.0589
  859MOL0     H18517   3.134   0.244  -0.009  0.2396  1.6072 -1.4373
  859MOL0     H18518   3.291  -0.016  -0.054 -2.3331 -2.5090  0.0002
  859MOL0     H18519   3.171   0.050  -0.156 -0.7976  0.7967 -0.1303
  859MOL0     H18520   3.018   0.043   0.061  0.2846 -0.2900 -1.0971
  859MOL0     H18521   3.151  -0.026   0.154 -0.7431 -0.8003  0.9003
  859MOL0     H18522   2.956   0.630   0.384  1.0527 -0.0515 -0.2512
  859MOL0     H18523   2.728   0.743   0.367 -0.1960  1.6258  0.8141
  859MOL0     H18524   2.462   0.987   0.423 -2.1810 -1.8914 -0.3195
  859MOL0     H18525   2.245   1.080   0.495  1.2600  0.0549  1.2210
  859MOL0     H18526   0.535   1.734   1.076 -0.7134  0.6682  0.3284
  859MOL0     H18527   0.287   1.664   1.081  0.7783  1.3341  1.9408
  859MOL0     H18528   0.052   1.356   1.426  0.9540  0.5626 -0.0480
  859MOL0     H18529  -0.182   1.346   1.492  2.3704 -0.1774  1.2389
  859MOL0     H18530  -0.402   1.383   1.522  0.2301 -0.5536  0.5597
  859MOL0     H18531  -0.551   1.332   1.456  0.6175  0.9787  0.2107
  859MOL0     H18532  -0.482   1.180   1.609 -3.3375 -0.1329 -0.9796
  859MOL0     H18533  -0.325   1.144   1.521  0.1969  2.4823  0.8681
  859MOL0     H18534  -0.575   1.111   1.352  2.1712  0.3154 -1.0823
  859MOL0     H18535  -0.433   1.022   1.348 -1.6106 -0.0008 -0.9047
  859MOL0     H18536  -0.630   0.906   1.422 -1.2911  1.3037  0.4038
  859MOL0     H18537  -0.626   0.973   1.585 -0.8864 -2.6886 -0.6347
  859MOL0     H18538  -0.286   0.761   1.648 -0.1161  0.6393 -0.5445
  859MOL0     H18539  -0.304   1.315   1.092  0.6832  1.3807 -1.6027
  859MOL0     H18540  -0.132   1.305   0.892  1.0091  2.0566 -3.8539
  859MOL0     H18541  -0.037   1.436   0.921 -1.1290  0.5078  1.5983
  859MOL0     H18542   0.031   1.272   0.941 -2.1636 -2.7129  0.0509
  860MOL0     O18543   2.704   7.681   2.960  0.2219 -0.2953  0.4512
  860MOL0     C18544   2.656   7.777   3.025  0.0620  0.0393 -0.4216
  860MOL0     O18545   2.735   7.881   3.076  0.4738  0.1284 -0.2839
  860MOL0     C18546   2.872   7.861   3.075 -0.2132 -1.1154  0.4300
  860MOL0     C18547   2.960   7.964   3.029 -0.0822  0.1737  0.5665
  860MOL0     C18548   3.094   7.957   3.031  0.2798  0.5049 -0.6726
  860MOL0     C18549   3.153   7.840   3.082 -0.9450 -0.2281  0.0864
  860MOL0     O18550   3.292   7.821   3.080  0.5479 -0.4417 -0.0233
  860MOL0     C18551   3.373   7.913   3.016 -1.0746  0.2506 -0.2970
  860MOL0     C18552   3.503   7.849   2.995  0.6353 -0.1340  0.6458
  860MOL0     C18553   3.608   7.956   2.972 -0.5419 -0.3325 -0.0852
  860MOL0     C18554   3.736   7.901   2.917  1.2408  0.4338  0.0111
  860MOL0     C18555   3.838   8.006   2.874 -0.0738  0.5922 -0.4455
  860MOL0     C18556   3.883   8.095   2.998  0.5702  1.0071 -0.2376
  860MOL0     C18557   3.976   8.200   2.952 -0.4953 -0.8315 -0.0940
  860MOL0     C18558   4.097   8.147   2.870  0.3681  0.5335 -0.0125
  860MOL0     N18559   4.207   8.237   2.856 -0.5127 -0.2800 -0.0297
  860MOL0     C18560   4.311   8.246   2.945 -0.9150 -0.7728  0.4438
  860MOL0     C18561   4.408   8.317   2.874  0.4471 -0.7530  1.7379
  860MOL0     C18562   4.548   8.353   2.906 -0.3205 -0.9636 -0.2815
  860MOL0     C18563   4.557   8.401   3.051  0.4982 -0.8082  1.3945
  860MOL0     C18564   4.699   8.408   3.099 -0.2496 -0.0172  0.0894
  860MOL0     C18565   4.801   8.485   3.004 -0.2575  0.1907 -1.0396
  860MOL0     O18566   4.817   8.616   3.060 -0.0729 -0.1543 -0.3477
  860MOL0     C18567   4.928   8.695   3.029 -0.5800  0.3678  0.3665
  860MOL0     C18568   4.947   8.820   3.097  0.2535  0.4566  0.1960
  860MOL0     C18569   5.058   8.903   3.080 -0.8429 -0.0546  0.5742
  860MOL0     C18570   5.064   9.027   3.171  0.0415 -0.6545  0.4304
  860MOL0     C18571   5.160   8.864   2.992  1.0933  0.7665  0.4414
  860MOL0     C18572   5.266   8.959   2.953  0.5137  0.4256  0.7229
  860MOL0     O18573   5.296   9.061   3.036 -0.0043  0.5873  0.1618
  860MOL0     C18574   5.382   9.160   3.001  0.0438 -1.0563  0.0233
  860MOL0     C18575   5.335   9.294   2.997  0.0775  0.0344 -0.3076
  860MOL0     C18576   5.424   9.398   2.984 -0.2613 -0.4447 -0.4584
  860MOL0     C18577   5.558   9.373   2.963 -0.5959  0.6709  0.9068
  860MOL0     O18578   5.634   9.484   2.923  0.5414 -0.3888 -0.4094
  860MOL0     C18579   5.733   9.472   2.827 -0.3348 -0.2909  0.0470
  860MOL0     C18580   5.868   9.435   2.892  0.5563 -0.1382 -0.0291
  860MOL0     C18581   5.970   9.415   2.777 -0.0630  0.5125 -0.3544
  860MOL0     C18582   6.119   9.413   2.832 -0.2655  0.9960  0.0858
  860MOL0     C18583   6.229   9.447   2.735 -0.4210 -1.3125 -0.3609
  860MOL0     C18584   6.368   9.453   2.812  0.4802  0.5150  0.1545
  860MOL0     C18585   6.480   9.471   2.711  1.0457  0.4756  0.0615
  860MOL0     C18586   6.621   9.449   2.777 -0.4665  0.4116  0.0839
  860MOL0    Cl18587   6.619   9.523   2.934 -0.2353  0.1037  0.0533
  860MOL0     C18588   5.607   9.238   2.974 -0.3691 -0.7099  0.3389
  860MOL0     C18589   5.522   9.130   2.989 -0.6362 -1.0639  0.0678
  860MOL0     O18590   5.307   8.951   2.834  0.0049 -0.2701  0.5500
  860MOL0     C18591   5.137   8.737   2.916  0.7057  0.0650  0.8955
  860MOL0     C18592   5.030   8.657   2.944  0.5881 -0.3155 -0.3536
  860MOL0     N18593   4.355   8.362   2.750 -0.4872  0.7322 -0.2439
  860MOL0     N18594   4.237   8.313   2.743  0.7099  0.5041 -0.2826
  860MOL0     C18595   3.072   7.744   3.128  0.2153  0.0062  0.1930
  860MOL0     C18596   2.929   7.756   3.130 -0.2604  0.2202  0.2732
  860MOL0     C18597   2.508   7.810   3.036 -0.4035 -0.2844  0.0454
  860MOL0     C18598   2.475   7.946   3.006  0.9438  0.2830  0.2207
  860MOL0     C18599   2.338   7.970   2.994  0.2182 -0.0592  0.1221
  860MOL0     C18600   2.243   7.868   3.003  0.5196 -0.2078  0.2351
  860MOL0     O18601   2.113   7.900   2.987 -0.6757  0.2343 -0.6203
  860MOL0     C18602   2.025   7.837   2.892 -0.1248  0.1396 -0.1417
  860MOL0     C18603   1.884   7.912   2.876  0.2938  0.4438  0.2451
  860MOL0     C18604   1.801   7.840   2.772 -1.1127 -1.0178  0.2118
  860MOL0     C18605   1.676   7.915   2.735 -0.1187  0.5898  0.4782
  860MOL0     C18606   1.591   7.929   2.853  0.0269 -0.1522  0.3399
  860MOL0     C18607   1.530   7.949   2.952  1.0263  0.0982 -0.2380
  860MOL0     C18608   2.286   7.735   3.013 -0.2904 -0.4633  0.1240
  860MOL0     C18609   2.419   7.707   3.049  0.2978  0.2058 -0.5089
  860MOL0     C18610   2.451   7.554   3.064  0.5301 -0.1537 -0.8206
  860MOL0     H18611   2.919   8.052   2.980 -0.1330 -0.0197  0.2501
  860MOL0     H18612   3.147   8.038   2.982  0.2435  1.9710  1.5918
  860MOL0     H18613   3.388   8.003   3.076 -1.8593  2.0297 -2.6047
  860MOL0     H18614   3.329   7.937   2.918 -2.2310 -1.2779 -0.1909
  860MOL0     H18615   3.539   7.786   3.077  1.1311 -1.8843 -0.8510
  860MOL0     H18616   3.494   7.789   2.904  0.3330 -1.5528  1.5984
  860MOL0     H18617   3.575   8.038   2.909  1.4492 -0.9753 -2.1030
  860MOL0     H18618   3.630   8.005   3.068  1.5679  1.9150 -1.5966
  860MOL0     H18619   3.777   7.835   2.994 -0.0315 -0.8980 -0.4086
  860MOL0     H18620   3.716   7.841   2.828  0.1603 -0.7751  1.0201
  860MOL0     H18621   3.796   8.070   2.796  3.2948  1.5985 -1.5918
  860MOL0     H18622   3.923   7.953   2.830 -0.8253 -0.7102 -0.3875
  860MOL0     H18623   3.804   8.145   3.055 -0.3971  1.2756 -1.7519
  860MOL0     H18624   3.943   8.033   3.065 -0.6713  0.0957  0.0719
  860MOL0     H18625   4.000   8.253   3.044 -4.7801 -1.4390  1.6376
  860MOL0     H18626   3.915   8.272   2.895  0.4288 -1.2574 -1.6842
  860MOL0     H18627   4.138   8.053   2.909 -1.3681 -1.0602 -1.8493
  860MOL0     H18628   4.075   8.101   2.773  1.3234  0.6254 -0.2889
  860MOL0     H18629   4.317   8.205   3.046  0.2822  0.2975  0.8357
  860MOL0     H18630   4.588   8.430   2.839  0.3251 -0.1146  1.0366
  860MOL0     H18631   4.604   8.262   2.882 -0.8832 -0.3554 -4.8213
  860MOL0     H18632   4.514   8.502   3.053  2.2623  0.1275 -1.3410
  860MOL0     H18633   4.497   8.331   3.109 -0.1935 -2.5971 -1.2778
  860MOL0     H18634   4.691   8.464   3.193 -3.9113  2.1982 -1.3313
  860MOL0     H18635   4.734   8.305   3.114  0.2217  0.2192  0.6218
  860MOL0     H18636   4.897   8.433   3.010 -1.3375 -2.0671 -2.2531
  860MOL0     H18637   4.769   8.495   2.900 -3.3101  0.0750 -0.2104
  860MOL0     H18638   4.863   8.840   3.162 -0.3746 -2.6008  0.4810
  860MOL0     H18639   5.051   9.124   3.122  0.4670  0.3957  2.2987
  860MOL0     H18640   5.163   9.019   3.218  1.5345 -0.1167 -2.3688
  860MOL0     H18641   5.000   9.006   3.257  0.3542 -0.9780  0.5867
  860MOL0     H18642   5.229   9.310   3.015 -0.7100 -1.5524 -2.9269
  860MOL0     H18643   5.387   9.499   2.970  0.8076 -0.1679 -1.4938
  860MOL0     H18644   5.707   9.401   2.749  1.4635  0.5327 -1.3656
  860MOL0     H18645   5.739   9.572   2.782  1.4997 -1.0385 -1.5000
  860MOL0     H18646   5.907   9.521   2.947 -0.6484 -0.3597  1.2406
  860MOL0     H18647   5.870   9.351   2.962  0.6978  1.3090  1.7844
  860MOL0     H18648   5.953   9.488   2.698 -0.1745 -1.4357 -2.2078
  860MOL0     H18649   5.946   9.318   2.733 -2.8914  0.1037  1.8007
  860MOL0     H18650   6.146   9.324   2.888 -0.3640 -0.1736 -1.6276
  860MOL0     H18651   6.116   9.490   2.909  1.0935  0.9746  0.1715
  860MOL0     H18652   6.238   9.371   2.656  2.5263 -1.9427  0.4779
  860MOL0     H18653   6.207   9.545   2.691  1.7138  0.9758  3.1913
  860MOL0     H18654   6.381   9.355   2.859 -2.1601 -1.6737 -3.1881
  860MOL0     H18655   6.360   9.535   2.884  0.6996  0.1083  0.6525
  860MOL0     H18656   6.463   9.572   2.672 -1.4981  0.2931  0.5791
  860MOL0     H18657   6.463   9.405   2.626 -3.5932  1.9948 -0.4777
  860MOL0     H18658   6.694   9.493   2.708  1.9539  0.6958  2.6607
  860MOL0     H18659   6.643   9.342   2.772  0.6734  0.6730 -3.4104
  860MOL0     H18660   5.710   9.212   2.954 -0.1593  0.1188  0.3241
  860MOL0     H18661   5.559   9.028   2.995  0.4931 -0.7291 -0.7557
  860MOL0     H18662   5.197   8.713   2.829 -0.2095 -0.2817  0.3429
  860MOL0     H18663   5.014   8.568   2.884  0.5168 -0.4101 -0.1940
  860MOL0     H18664   3.122   7.657   3.169 -0.9682 -1.5354 -1.4585
  860MOL0     H18665   2.874   7.677   3.181  3.2646 -1.5838  1.6611
  860MOL0     H18666   2.553   8.018   2.985  2.3968 -1.7914 -1.9860
  860MOL0     H18667   2.315   8.071   2.963  4.2391  1.0827  0.3806
  860MOL0     H18668   2.075   7.836   2.795 -0.1142  1.5204 -0.1722
  860MOL0     H18669   1.996   7.736   2.921 -0.9967  0.2358 -0.6451
  860MOL0     H18670   1.901   8.011   2.832 -0.2332  0.9941  1.2575
  860MOL0     H18671   1.838   7.916   2.975  2.1524  0.4526  1.1411
  860MOL0     H18672   1.872   7.840   2.688  0.8976  1.0313  1.7733
  860MOL0     H18673   1.788   7.734   2.798  1.4568 -1.2829  0.7621
  860MOL0     H18674   1.623   7.853   2.662  1.6343  0.3598 -0.6660
  860MOL0     H18675   1.694   8.012   2.687  0.5195 -0.1892 -0.9259
  860MOL0     H18676   1.465   7.984   3.030 -0.4369 -1.1391 -0.8495
  860MOL0     H18677   2.223   7.647   3.011 -0.0822 -0.6208  0.3831
  860MOL0     H18678   2.502   7.509   2.979 -0.5021  0.6106 -1.8708
  860MOL0     H18679   2.519   7.535   3.148 -1.4771 -0.8176  0.7436
  860MOL0     H18680   2.355   7.503   3.079  0.3999  0.5260  0.8539
  861MOL0     O18681  10.351   4.673   0.948 -0.6190  0.2271 -0.0467
  861MOL0     C18682  10.377   4.571   0.879 -1.2085 -0.0714  0.8603
  861MOL0     O18683  10.284   4.491   0.809  0.3347 -1.3019  0.9163
  861MOL0     C18684  10.162   4.545   0.802 -0.3586  0.0803  0.5763
  861MOL0     C18685  10.056   4.468   0.851 -0.6178  0.8451 -0.8584
  861MOL0     C18686   9.932   4.535   0.865 -1.0018  0.0104  0.1092
  861MOL0     C18687   9.904   4.666   0.804 -0.5694  0.4156  1.1142
  861MOL0     O18688   9.782   4.733   0.811 -0.9030 -0.4865  0.0358
  861MOL0     C18689   9.674   4.670   0.883  0.0039  0.2224 -0.4787
  861MOL0     C18690   9.549   4.754   0.859 -0.1401  0.0467 -0.0897
  861MOL0     C18691   9.449   4.746   0.971 -0.6789  0.4880 -0.0590
  861MOL0     C18692   9.321   4.804   0.910 -0.4790 -0.2203  0.5997
  861MOL0     C18693   9.223   4.835   1.019  1.2161 -0.2812  0.2879
  861MOL0     C18694   9.077   4.866   0.966  0.0108  0.4246  0.2639
  861MOL0     C18695   8.991   4.914   1.077  0.7707  0.6149 -0.6454
  861MOL0     C18696   8.850   4.856   1.057 -0.6435 -0.0038 -0.0433
  861MOL0     N18697   8.751   4.904   1.151  0.6954 -0.4941 -0.5930
  861MOL0     C18698   8.724   5.033   1.174 -0.9088 -0.5809 -0.1308
  861MOL0     C18699   8.616   5.032   1.254  0.5315 -0.7634 -0.6406
  861MOL0     C18700   8.535   5.146   1.307  0.3696  0.4053  0.4147
  861MOL0     C18701   8.542   5.189   1.463 -0.1786 -0.3877  0.1249
  861MOL0     C18702   8.666   5.279   1.479  0.3014 -0.0963 -0.4632
  861MOL0     C18703   8.780   5.202   1.545  0.1375  0.1450  0.2570
  861MOL0     O18704   8.831   5.109   1.453 -0.5854  0.4349  0.6346
  861MOL0     C18705   8.921   5.008   1.484  0.8785  0.0304 -0.3426
  861MOL0     C18706   8.917   4.937   1.606  0.1536  0.4880 -0.0406
  861MOL0     C18707   9.021   4.844   1.634 -0.4019  0.4375  0.4988
  861MOL0     C18708   9.004   4.776   1.766 -0.6972  0.4092 -0.0476
  861MOL0     C18709   9.123   4.823   1.534  1.0759 -0.5049  0.2329
  861MOL0     C18710   9.219   4.717   1.534 -0.2010 -0.2324  0.7177
  861MOL0     O18711   9.306   4.712   1.425 -0.4932 -0.3656 -0.7742
  861MOL0     C18712   9.389   4.606   1.403  0.6500 -0.1405  0.3983
  861MOL0     C18713   9.521   4.628   1.361 -0.4377 -0.2411 -0.5247
  861MOL0     C18714   9.612   4.525   1.341  0.4791 -1.1234 -0.3945
  861MOL0     C18715   9.568   4.395   1.352 -0.7585 -0.2245  0.4053
  861MOL0     O18716   9.640   4.285   1.325 -0.2254 -0.3395 -0.5052
  861MOL0     C18717   9.769   4.307   1.252  0.1767 -1.1211 -0.0662
  861MOL0     C18718   9.837   4.174   1.205 -0.8887 -0.4280 -0.8573
  861MOL0     C18719   9.932   4.100   1.302  0.1812  0.6136  0.2190
  861MOL0     C18720  10.053   4.190   1.343  0.7400 -0.2504  0.0622
  861MOL0     C18721  10.169   4.092   1.385  0.4605 -0.3292 -0.4974
  861MOL0     C18722  10.300   4.173   1.396  0.0987 -0.0643  0.2992
  861MOL0     C18723  10.368   4.216   1.262 -0.3010  0.2019  0.7263
  861MOL0     C18724  10.465   4.331   1.289 -0.2339  0.3091 -0.8201
  861MOL0    Cl18725  10.606   4.293   1.399  0.2520  0.2517 -0.0191
  861MOL0     C18726   9.440   4.369   1.392  2.1126 -0.1777  0.3953
  861MOL0     C18727   9.343   4.470   1.406 -0.8083  0.8325 -0.7798
  861MOL0     O18728   9.233   4.647   1.635  0.1199  0.4435  0.0731
  861MOL0     C18729   9.124   4.904   1.425  0.0201 -0.3327 -0.6462
  861MOL0     C18730   9.021   4.993   1.405  0.1023  0.7768  0.3491
  861MOL0     N18731   8.590   4.907   1.289 -0.1060  0.1677  0.1783
  861MOL0     N18732   8.670   4.830   1.224  0.4334 -0.6456 -0.2612
  861MOL0     C18733  10.011   4.730   0.743 -0.9874  0.0330 -0.3922
  861MOL0     C18734  10.143   4.673   0.742 -0.0840  0.4264 -0.3767
  861MOL0     C18735  10.510   4.503   0.894 -0.1807 -0.5340 -0.5183
  861MOL0     C18736  10.524   4.366   0.880  0.3578 -0.2319 -0.3914
  861MOL0     C18737  10.640   4.302   0.910 -0.1908  0.7639  0.2406
  861MOL0     C18738  10.755   4.367   0.933 -0.3082 -0.6743 -0.1642
  861MOL0     O18739  10.873   4.298   0.952  0.2336  0.1273  0.6161
  861MOL0     C18740  10.971   4.359   1.033  0.0094 -0.2919 -0.7099
  861MOL0     C18741  10.928   4.380   1.183  0.4388 -0.2643 -0.2276
  861MOL0     C18742  11.016   4.473   1.265  0.0441  0.0437  0.5257
  861MOL0     C18743  10.973   4.472   1.418 -0.3281  0.3064  0.7532
  861MOL0     C18744  11.083   4.548   1.473  0.1135  0.1990 -0.1041
  861MOL0     C18745  11.190   4.610   1.492  0.2822  0.2622 -0.1947
  861MOL0     C18746  10.755   4.508   0.921 -0.0080 -0.0755  0.4029
  861MOL0     C18747  10.636   4.575   0.903 -0.2585 -0.7024 -0.2780
  861MOL0     C18748  10.648   4.731   0.908 -0.0238  0.2411  0.1451
  861MOL0     H18749  10.077   4.367   0.885  0.2955  1.3898  0.2562
  861MOL0     H18750   9.856   4.487   0.925 -1.6764 -0.7660 -1.3136
  861MOL0     H18751   9.697   4.671   0.990 -0.1030  2.0677 -0.4338
  861MOL0     H18752   9.656   4.569   0.847  0.3014  0.0786 -0.2308
  861MOL0     H18753   9.588   4.856   0.851  4.5440 -1.5572 -0.7855
  861MOL0     H18754   9.500   4.728   0.765  1.0112 -0.9648 -0.4247
  861MOL0     H18755   9.433   4.646   1.014 -0.3726  1.6640  3.0761
  861MOL0     H18756   9.480   4.809   1.055 -1.1405  0.1135  0.4016
  861MOL0     H18757   9.350   4.897   0.861 -1.6605 -0.5738 -0.8517
  861MOL0     H18758   9.279   4.747   0.826  1.5352 -1.5862  0.4584
  861MOL0     H18759   9.268   4.921   1.069 -0.6729 -0.4254  2.3616
  861MOL0     H18760   9.203   4.751   1.087  1.2794 -2.3431 -2.0890
  861MOL0     H18761   9.072   4.936   0.882 -0.2966 -0.6857 -0.6677
  861MOL0     H18762   9.045   4.767   0.932  0.4224  0.2014  0.5269
  861MOL0     H18763   8.975   5.022   1.073  0.2611  0.5273 -1.1278
  861MOL0     H18764   9.023   4.880   1.176 -3.6381  2.4643  1.7126
  861MOL0     H18765   8.817   4.896   0.960  0.2196 -1.7283 -1.1005
  861MOL0     H18766   8.845   4.747   1.068 -2.1318  0.2164  2.1177
  861MOL0     H18767   8.776   5.118   1.132 -0.3480 -1.1854 -0.6958
  861MOL0     H18768   8.429   5.118   1.300  0.3047  0.3406  1.4259
  861MOL0     H18769   8.546   5.236   1.247 -5.0537  0.9315 -0.3111
  861MOL0     H18770   8.455   5.252   1.486 -2.0077 -3.1693  1.4047
  861MOL0     H18771   8.558   5.103   1.529  5.3627 -0.7133 -1.1400
  861MOL0     H18772   8.705   5.315   1.383 -1.6582 -1.7111 -1.9674
  861MOL0     H18773   8.640   5.359   1.548 -1.5665 -0.5603 -0.5603
  861MOL0     H18774   8.863   5.267   1.571 -0.8449  0.3004  3.4918
  861MOL0     H18775   8.745   5.161   1.641 -0.5004  3.2660  1.4840
  861MOL0     H18776   8.831   4.950   1.672  2.2703  6.2041  2.2914
  861MOL0     H18777   8.920   4.815   1.824 -1.2437 -0.5138 -0.1988
  861MOL0     H18778   9.096   4.791   1.822  0.2177  0.6240 -1.5349
  861MOL0     H18779   8.986   4.668   1.757  2.3280 -0.0427 -2.2138
  861MOL0     H18780   9.551   4.733   1.360 -0.4267 -0.2290  0.2356
  861MOL0     H18781   9.709   4.571   1.327 -0.6722  0.8114 -3.1074
  861MOL0     H18782   9.766   4.373   1.165  3.9189 -0.2279  0.3241
  861MOL0     H18783   9.841   4.347   1.324 -1.8644  0.8920  0.9699
  861MOL0     H18784   9.756   4.106   1.176 -0.2166 -1.5395 -0.2105
  861MOL0     H18785   9.890   4.191   1.110  0.8812 -2.3002 -0.2617
  861MOL0     H18786   9.953   4.006   1.250 -1.1829  1.3454 -1.7868
  861MOL0     H18787   9.884   4.072   1.396  0.1896 -1.6812 -0.4099
  861MOL0     H18788  10.016   4.260   1.418  0.1053 -0.6480  0.1351
  861MOL0     H18789  10.099   4.245   1.261  1.3033  1.2481  1.3473
  861MOL0     H18790  10.142   4.057   1.486  2.3315  0.5250  0.3439
  861MOL0     H18791  10.180   4.016   1.307  0.9155 -0.7209 -0.0697
  861MOL0     H18792  10.369   4.110   1.454  0.0793 -0.9474 -0.6018
  861MOL0     H18793  10.274   4.263   1.452  0.5418  2.1571 -2.8382
  861MOL0     H18794  10.295   4.244   1.185  0.5277 -0.5091 -0.3350
  861MOL0     H18795  10.413   4.133   1.207 -1.2557  1.4579 -2.1331
  861MOL0     H18796  10.407   4.409   1.338  0.1358 -0.1612  0.3910
  861MOL0     H18797  10.502   4.353   1.188 -2.1317  0.2639 -1.5673
  861MOL0     H18798   9.395   4.271   1.399 -0.5026  0.7600 -1.4620
  861MOL0     H18799   9.247   4.448   1.452 -0.0780 -2.0188 -0.3932
  861MOL0     H18800   9.201   4.917   1.350  0.4879 -0.1153 -0.1386
  861MOL0     H18801   9.021   5.055   1.316 -0.9215  1.8464  1.0547
  861MOL0     H18802   9.996   4.823   0.691 -2.2226 -2.2065 -4.5012
  861MOL0     H18803  10.224   4.726   0.693 -1.5151  1.5840 -1.5862
  861MOL0     H18804  10.444   4.301   0.847 -1.7959  0.2412  3.2963
  861MOL0     H18805  10.636   4.194   0.900  0.5921  0.8998 -2.3432
  861MOL0     H18806  11.051   4.284   1.033 -0.0096 -0.3148 -1.5296
  861MOL0     H18807  11.012   4.450   0.988 -0.6147 -0.3073 -1.3109
  861MOL0     H18808  10.938   4.283   1.233 -2.0832 -0.7304 -0.5178
  861MOL0     H18809  10.821   4.397   1.195 -0.0453 -2.3020 -1.2114
  861MOL0     H18810  11.116   4.439   1.238  0.0979  1.3255 -0.9936
  861MOL0     H18811  11.012   4.577   1.232  4.2414  1.2622  3.1142
  861MOL0     H18812  10.987   4.372   1.460  3.2000  0.5843  0.5407
  861MOL0     H18813  10.874   4.514   1.439 -1.5417 -0.5180 -2.6924
  861MOL0     H18814  11.266   4.672   1.536  0.5341  1.5090 -2.2806
  861MOL0     H18815  10.844   4.568   0.940 -0.2070  0.0679  0.9146
  861MOL0     H18816  10.622   4.770   1.007 -1.8045 -0.6410  0.0665
  861MOL0     H18817  10.742   4.756   0.858  0.0402 -3.0506 -1.6323
  861MOL0     H18818  10.573   4.783   0.848 -0.5841 -1.0368 -0.3006
  862MOL0     O18819   7.763  11.389   3.585 -0.3040  0.0159 -0.3826
  862MOL0     C18820   7.810  11.286   3.637 -0.0665 -0.2699  0.3843
  862MOL0     O18821   7.892  11.200   3.574  0.3783 -0.1576 -0.9836
  862MOL0     C18822   7.950  11.212   3.455  0.1236 -0.1886 -0.6369
  862MOL0     C18823   7.931  11.308   3.362  0.4736  0.3091  0.1618
  862MOL0     C18824   8.024  11.326   3.256 -0.7178  0.5211  0.2008
  862MOL0     C18825   8.138  11.245   3.246 -0.2382 -1.1034  0.4457
  862MOL0     O18826   8.233  11.261   3.156 -0.2129  0.4224 -0.2549
  862MOL0     C18827   8.210  11.226   3.025  0.3869 -1.1217  0.4487
  862MOL0     C18828   8.274  11.326   2.935 -0.4522  0.3593  0.4231
  862MOL0     C18829   8.187  11.449   2.935 -0.5949  0.8020  0.1919
  862MOL0     C18830   8.228  11.549   2.830  0.4868 -0.5355 -0.0769
  862MOL0     C18831   8.365  11.614   2.841 -0.6014  0.6157  1.2026
  862MOL0     C18832   8.381  11.734   2.750  1.6506 -0.3952 -0.3723
  862MOL0     C18833   8.494  11.824   2.799  0.3591  0.7675  0.5297
  862MOL0     C18834   8.509  11.947   2.711  0.4313  0.5352 -0.4804
  862MOL0     N18835   8.383  12.034   2.727 -0.2187 -0.7027 -0.1207
  862MOL0     C18836   8.269  12.024   2.647  0.2959 -0.3936  0.6111
  862MOL0     C18837   8.194  12.133   2.687  0.5919 -0.5657  0.1312
  862MOL0     C18838   8.070  12.177   2.628  0.2168 -0.3162  0.3344
  862MOL0     C18839   8.064  12.253   2.490 -0.1562 -0.4301 -0.1572
  862MOL0     C18840   8.058  12.162   2.374  1.1185 -1.3268  0.4328
  862MOL0     C18841   7.916  12.127   2.333 -0.2801 -1.1334 -0.0863
  862MOL0     O18842   7.843  12.069   2.435  0.4586  0.2406  0.0261
  862MOL0     C18843   7.717  12.020   2.401 -0.0996 -0.2339  0.0828
  862MOL0     C18844   7.646  11.969   2.512  0.2145 -1.0589  1.0620
  862MOL0     C18845   7.510  11.934   2.492  0.5737  0.2618  0.2560
  862MOL0     C18846   7.446  11.876   2.626  0.0159 -0.0133 -0.3501
  862MOL0     C18847   7.448  11.933   2.365  0.4631  0.0030  0.5095
  862MOL0     C18848   7.308  11.890   2.335  0.1675 -0.7337 -0.0191
  862MOL0     O18849   7.249  11.922   2.217 -1.4080  0.2541  0.0747
  862MOL0     C18850   7.135  11.857   2.173 -0.3697  0.5428  0.1744
  862MOL0     C18851   7.011  11.862   2.241 -0.0009 -0.1402  0.2643
  862MOL0     C18852   6.899  11.794   2.203  0.1872  0.5297  0.1170
  862MOL0     C18853   6.898  11.744   2.076  0.1580 -0.9945 -0.6262
  862MOL0     O18854   6.794  11.675   2.035 -0.5163 -0.2287  0.2068
  862MOL0     C18855   6.685  11.760   1.999 -0.4931 -0.2681  0.2508
  862MOL0     C18856   6.575  11.669   1.952  0.3330  0.4661  0.3362
  862MOL0     C18857   6.441  11.751   1.924 -0.1158 -0.1787  0.8711
  862MOL0     C18858   6.338  11.665   1.856  0.0270 -0.0355  0.0832
  862MOL0     C18859   6.193  11.715   1.881 -0.6582 -0.3190 -0.5689
  862MOL0     C18860   6.081  11.636   1.802  0.5922 -0.9089 -0.7504
  862MOL0     C18861   5.935  11.670   1.840  0.2939 -0.5295 -0.2995
  862MOL0     C18862   5.891  11.801   1.779 -0.8218  0.4035 -0.3730
  862MOL0    Cl18863   5.717  11.831   1.791  0.0362  0.1336  0.3492
  862MOL0     C18864   7.016  11.735   2.005  0.2767  0.3545  0.2841
  862MOL0     C18865   7.138  11.789   2.051 -0.2746  0.3926 -0.5260
  862MOL0     O18866   7.244  11.832   2.425 -0.0252 -0.0867  0.3307
  862MOL0     C18867   7.526  11.991   2.258 -0.0158  0.3683 -0.6860
  862MOL0     C18868   7.655  12.025   2.276 -0.6624  0.5479  0.5954
  862MOL0     N18869   8.271  12.203   2.782  0.4428  0.0721 -0.3968
  862MOL0     N18870   8.376  12.144   2.802 -0.8463  0.6458  0.3040
  862MOL0     C18871   8.155  11.141   3.332 -0.1407  0.2939  0.5036
  862MOL0     C18872   8.056  11.120   3.437 -0.5083  0.2786  0.2697
  862MOL0     C18873   7.736  11.248   3.761  0.0312 -0.2557  0.9854
  862MOL0     C18874   7.729  11.106   3.783  0.3040 -0.8908  1.1576
  862MOL0     C18875   7.648  11.047   3.873  0.0555 -0.0411  0.0568
  862MOL0     C18876   7.563  11.127   3.963 -0.3681 -0.4781 -0.2972
  862MOL0     O18877   7.487  11.054   4.053 -0.4498 -0.5482 -0.3959
  862MOL0     C18878   7.388  11.128   4.128  0.7446 -0.8409 -0.7011
  862MOL0     C18879   7.310  11.033   4.209 -0.2183 -0.1281  0.2896
  862MOL0     C18880   7.224  10.942   4.114 -0.5678 -1.0273  0.2230
  862MOL0     C18881   7.093  10.892   4.167  0.4877 -0.0161  1.0897
  862MOL0     C18882   7.113  10.789   4.273  1.3029 -0.4007 -0.5575
  862MOL0     C18883   7.133  10.700   4.359 -1.0406  0.5712  0.4207
  862MOL0     C18884   7.571  11.275   3.952  0.1418  0.3472  0.5533
  862MOL0     C18885   7.664  11.334   3.852  0.0398 -0.5214 -0.3381
  862MOL0     C18886   7.679  11.488   3.849 -0.0091  0.6504  0.9656
  862MOL0     H18887   7.849  11.379   3.364 -1.7506 -2.1504  0.0824
  862MOL0     H18888   7.996  11.394   3.176  0.0561 -0.9491 -1.3881
  862MOL0     H18889   8.102  11.225   3.005  0.1602  0.3629  1.4261
  862MOL0     H18890   8.244  11.123   3.013  0.9295 -1.0718  1.4774
  862MOL0     H18891   8.379  11.349   2.955  0.1978 -1.7486 -0.2636
  862MOL0     H18892   8.264  11.278   2.837  1.2714 -1.8940  1.2680
  862MOL0     H18893   8.083  11.418   2.922 -0.2442 -0.9253  1.1295
  862MOL0     H18894   8.206  11.487   3.036  1.2585 -2.8803  1.4183
  862MOL0     H18895   8.214  11.509   2.729 -0.6867 -2.7550  0.9006
  862MOL0     H18896   8.162  11.634   2.843  1.9398  0.8575 -1.3560
  862MOL0     H18897   8.438  11.538   2.810 -0.8968  0.9632 -0.4192
  862MOL0     H18898   8.377  11.644   2.946 -0.2436  0.7816  1.1181
  862MOL0     H18899   8.399  11.691   2.651  0.4932 -3.4078  0.6165
  862MOL0     H18900   8.285  11.784   2.762  1.0972 -2.0366  3.5321
  862MOL0     H18901   8.583  11.760   2.801 -0.4799 -0.4886 -0.2130
  862MOL0     H18902   8.470  11.863   2.898 -0.5006 -1.9424  1.4767
  862MOL0     H18903   8.607  11.980   2.746  0.8973 -3.1486  2.3664
  862MOL0     H18904   8.521  11.920   2.606 -0.2588 -0.3824 -0.3335
  862MOL0     H18905   8.242  11.962   2.563  0.3633 -3.0585  2.4478
  862MOL0     H18906   8.020  12.253   2.689 -2.3859  2.7873 -4.8722
  862MOL0     H18907   7.992  12.100   2.624  0.1799 -0.2599 -0.1226
  862MOL0     H18908   7.977  12.320   2.481  0.8774  0.7040 -2.7260
  862MOL0     H18909   8.140  12.330   2.475 -2.5244  2.0920 -0.0784
  862MOL0     H18910   8.107  12.214   2.290 -0.7244  0.7716  0.5454
  862MOL0     H18911   8.112  12.073   2.407  3.2642 -0.2899 -0.0418
  862MOL0     H18912   7.869  12.217   2.294  3.2739 -0.9871 -4.9812
  862MOL0     H18913   7.924  12.070   2.240 -1.7124  1.9346 -2.2238
  862MOL0     H18914   7.684  11.968   2.614 -0.7054  0.8675  1.4746
  862MOL0     H18915   7.505  11.896   2.716  0.8264  1.3050 -1.1446
  862MOL0     H18916   7.441  11.770   2.599  0.2870  0.3017 -1.7253
  862MOL0     H18917   7.346  11.918   2.642 -0.0561 -0.3402  0.0751
  862MOL0     H18918   7.003  11.901   2.342  3.1119 -0.9777  0.9338
  862MOL0     H18919   6.803  11.797   2.254  0.2798  1.5079  0.2385
  862MOL0     H18920   6.651  11.834   2.072  0.3563 -0.2681  0.6653
  862MOL0     H18921   6.720  11.816   1.912  1.4097 -1.7807 -0.0339
  862MOL0     H18922   6.604  11.599   1.874 -1.1722  2.5062 -2.2662
  862MOL0     H18923   6.550  11.601   2.033  1.4153 -1.4151 -0.8357
  862MOL0     H18924   6.463  11.843   1.868  0.0637 -2.0756 -2.3940
  862MOL0     H18925   6.391  11.780   2.017 -1.3193 -2.5820  1.0309
  862MOL0     H18926   6.362  11.566   1.896  2.0408  0.4303  0.1647
  862MOL0     H18927   6.364  11.664   1.750  0.0306  1.0994  0.0631
  862MOL0     H18928   6.186  11.700   1.990  1.1628  0.0099 -0.3809
  862MOL0     H18929   6.178  11.822   1.862 -1.6303 -0.1582  0.9219
  862MOL0     H18930   6.088  11.528   1.819 -3.5939 -1.1158  0.8300
  862MOL0     H18931   6.100  11.649   1.695  0.6210  0.7368 -0.5836
  862MOL0     H18932   5.918  11.666   1.948 -1.0073  2.5101 -0.2766
  862MOL0     H18933   5.877  11.591   1.791  3.0262 -1.5420 -2.1427
  862MOL0     H18934   5.916  11.803   1.672  0.8951 -1.8759 -0.0836
  862MOL0     H18935   5.947  11.879   1.831  2.7797 -1.9083 -0.4155
  862MOL0     H18936   7.027  11.672   1.918 -1.6221  0.3218  0.0195
  862MOL0     H18937   7.229  11.764   1.998 -1.5470 -0.9902 -2.1655
  862MOL0     H18938   7.482  12.013   2.160  0.9438  1.8927 -0.8077
  862MOL0     H18939   7.711  12.047   2.186  0.3955 -2.4242  0.4169
  862MOL0     H18940   8.232  11.066   3.316 -0.3216 -0.1304  1.5220
  862MOL0     H18941   8.076  11.038   3.505 -0.1817  0.1234 -0.0089
  862MOL0     H18942   7.775  11.033   3.717  2.7187  0.7620  0.8828
  862MOL0     H18943   7.640  10.939   3.868 -0.3018 -0.1063  1.5838
  862MOL0     H18944   7.435  11.204   4.191 -1.7434  1.0513 -0.9752
  862MOL0     H18945   7.317  11.178   4.062  1.1058  0.6732  0.0317
  862MOL0     H18946   7.239  11.082   4.276  2.3481  0.5038  2.7249
  862MOL0     H18947   7.374  10.970   4.272  0.1128 -1.4939 -1.3447
  862MOL0     H18948   7.191  10.992   4.022 -2.2818 -2.6279 -0.1074
  862MOL0     H18949   7.287  10.862   4.074 -0.1295  0.2872 -1.9349
  862MOL0     H18950   7.039  10.850   4.082  0.9217 -0.5099  1.0577
  862MOL0     H18951   7.028  10.973   4.203 -0.4193 -1.0664  1.8800
  862MOL0     H18952   7.138  10.628   4.438 -0.5938 -0.4893 -0.5459
  862MOL0     H18953   7.508  11.331   4.020 -2.9652 -3.3028  1.0006
  862MOL0     H18954   7.611  11.520   3.769  4.4790  0.4422 -3.4675
  862MOL0     H18955   7.642  11.523   3.946  0.8770 -1.2163  2.0277
  862MOL0     H18956   7.778  11.523   3.819 -1.5567  1.5310 -4.1900
  863MOL0     O18957   4.609   1.488   1.869  0.8306  0.4623 -0.0257
  863MOL0     C18958   4.585   1.598   1.827  0.1427 -0.6833  0.0103
  863MOL0     O18959   4.680   1.689   1.789 -0.2541  0.6459  0.1316
  863MOL0     C18960   4.819   1.668   1.800  0.1509 -0.1234  0.6385
  863MOL0     C18961   4.895   1.677   1.688  0.6534  0.8309 -0.1662
  863MOL0     C18962   5.030   1.659   1.700 -0.5471  0.7099 -0.0810
  863MOL0     C18963   5.086   1.628   1.820 -0.3749  0.1336  0.2113
  863MOL0     O18964   5.221   1.602   1.826  0.2772 -0.3154  0.2251
  863MOL0     C18965   5.315   1.682   1.748 -0.1682 -0.3834  0.0959
  863MOL0     C18966   5.440   1.697   1.833 -0.2196  0.5630  0.3404
  863MOL0     C18967   5.544   1.780   1.756  0.7332 -1.1264 -0.2752
  863MOL0     C18968   5.663   1.815   1.844  1.0157 -0.5420 -0.0178
  863MOL0     C18969   5.673   1.969   1.852  0.3992 -0.2704 -0.7416
  863MOL0     C18970   5.803   2.018   1.928 -0.7002  0.7953 -1.1450
  863MOL0     C18971   5.795   2.169   1.931  0.3859 -0.8276 -0.3865
  863MOL0     C18972   5.936   2.229   1.960 -0.1170 -0.4236  0.1144
  863MOL0     N18973   5.939   2.367   1.970  0.7507 -0.6547  1.1514
  863MOL0     C18974   5.927   2.445   2.089  0.0723 -0.4089 -0.1778
  863MOL0     C18975   5.939   2.578   2.055  0.0867  0.2057 -0.7810
  863MOL0     C18976   5.932   2.698   2.144  0.4772 -0.0045  0.2102
  863MOL0     C18977   6.007   2.676   2.282 -0.0410 -0.0785  0.1016
  863MOL0     C18978   6.004   2.793   2.380  0.1007 -0.3959  0.0974
  863MOL0     C18979   6.114   2.890   2.353 -0.7455 -0.1462  0.3164
  863MOL0     O18980   6.127   2.987   2.454  0.0722  0.3879 -0.0086
  863MOL0     C18981   6.202   2.952   2.569  0.7612 -0.5067 -0.4022
  863MOL0     C18982   6.137   2.946   2.692 -0.5437  0.0373  0.1433
  863MOL0     C18983   6.214   2.949   2.812 -0.9746 -0.0488 -0.7894
  863MOL0     C18984   6.143   2.909   2.938 -0.3504 -0.4588 -0.4919
  863MOL0     C18985   6.357   2.985   2.808 -0.6619 -0.0629 -0.3288
  863MOL0     C18986   6.434   3.018   2.929  0.1005 -0.8453 -0.8069
  863MOL0     O18987   6.520   3.128   2.919 -0.1349  0.0924  0.0088
  863MOL0     C18988   6.613   3.149   3.017 -0.1691 -0.3390  1.2090
  863MOL0     C18989   6.722   3.068   3.023  0.3244 -0.0546  0.6536
  863MOL0     C18990   6.809   3.073   3.130  0.5395 -1.2965  0.3277
  863MOL0     C18991   6.793   3.164   3.236  0.6308 -0.7473 -0.2705
  863MOL0     O18992   6.874   3.176   3.347 -0.6124 -0.2988  0.2283
  863MOL0     C18993   6.977   3.070   3.365  0.2788 -0.7065 -0.0595
  863MOL0     C18994   7.063   3.122   3.491  0.3766 -0.2653  0.0251
  863MOL0     C18995   6.986   3.094   3.624 -0.7313  0.0877 -0.6879
  863MOL0     C18996   7.048   3.169   3.738 -0.3557 -0.2614 -0.3033
  863MOL0     C18997   6.977   3.168   3.871 -0.1771  0.0805  0.2145
  863MOL0     C18998   6.972   3.028   3.916 -0.6378 -0.0609 -0.8872
  863MOL0     C18999   6.924   2.994   4.056 -0.5059 -0.7173  0.4409
  863MOL0     C19000   6.953   2.850   4.091  1.0831  0.3519 -0.0964
  863MOL0    Cl19001   7.128   2.806   4.084  0.1497  0.1823  0.1758
  863MOL0     C19002   6.680   3.243   3.229 -0.1915 -0.6584 -0.4362
  863MOL0     C19003   6.591   3.239   3.118 -0.6354  1.1112  0.1258
  863MOL0     O19004   6.428   2.938   3.024 -0.4581 -0.6857  0.4594
  863MOL0     C19005   6.409   3.009   2.672 -0.3385  1.0189  0.3797
  863MOL0     C19006   6.334   2.990   2.564  0.6497 -0.1902  0.3983
  863MOL0     N19007   5.962   2.576   1.921  0.3105  0.4748  0.3359
  863MOL0     N19008   5.958   2.459   1.867  0.0896  0.3778  0.0770
  863MOL0     C19009   5.002   1.607   1.930 -1.7628 -0.1784  0.1760
  863MOL0     C19010   4.870   1.624   1.917 -0.3700  0.6833  0.1095
  863MOL0     C19011   4.451   1.656   1.828 -0.6022 -0.4066 -0.3027
  863MOL0     C19012   4.432   1.788   1.870  0.1656 -0.5698  0.3311
  863MOL0     C19013   4.309   1.850   1.854 -0.2007 -0.0885 -0.1353
  863MOL0     C19014   4.196   1.778   1.819 -0.6222 -0.2492 -0.5728
  863MOL0     O19015   4.078   1.855   1.829 -0.4437  0.0461  0.1600
  863MOL0     C19016   3.950   1.790   1.828  0.5124  0.4644 -0.2537
  863MOL0     C19017   3.903   1.760   1.681 -0.3375  0.3085 -0.5154
  863MOL0     C19018   3.759   1.712   1.670  0.2980 -0.8308  0.1707
  863MOL0     C19019   3.753   1.560   1.662  0.6401 -0.0681  0.1121
  863MOL0     C19020   3.635   1.512   1.718  0.0429  0.4729 -0.1387
  863MOL0     C19021   3.531   1.462   1.747  0.7182 -0.5414  0.4746
  863MOL0     C19022   4.211   1.644   1.801 -0.1016  1.5983 -0.0884
  863MOL0     C19023   4.337   1.580   1.799  0.6403 -0.0055  0.0549
  863MOL0     C19024   4.354   1.436   1.750  0.3475  0.1404  0.0811
  863MOL0     H19025   4.859   1.705   1.590  0.4672 -1.1903 -0.7308
  863MOL0     H19026   5.103   1.670   1.620  0.3574  1.6481  0.8359
  863MOL0     H19027   5.276   1.780   1.718  1.2787 -0.7243 -3.4029
  863MOL0     H19028   5.346   1.626   1.659  2.0479  1.0377 -0.1251
  863MOL0     H19029   5.406   1.740   1.927  3.6725  2.2975  1.1723
  863MOL0     H19030   5.488   1.602   1.860  2.8702  0.0646 -5.2660
  863MOL0     H19031   5.571   1.727   1.665  0.9188  0.0738 -0.9514
  863MOL0     H19032   5.494   1.876   1.739 -0.2449 -1.6963 -0.6975
  863MOL0     H19033   5.656   1.770   1.944 -0.5690 -2.6853 -1.0121
  863MOL0     H19034   5.760   1.783   1.804  1.0554  0.7460 -1.0039
  863MOL0     H19035   5.586   2.008   1.905 -0.9798 -3.2103 -0.6400
  863MOL0     H19036   5.673   2.002   1.748  2.1363  0.2921 -0.5988
  863MOL0     H19037   5.818   1.973   2.026  1.0550  0.4686 -1.5322
  863MOL0     H19038   5.893   2.003   1.867  0.3444  1.1296  0.2629
  863MOL0     H19039   5.730   2.208   2.009 -1.9559 -1.2009 -2.0199
  863MOL0     H19040   5.754   2.205   1.836  1.0871 -1.4118 -0.9284
  863MOL0     H19041   5.970   2.174   2.048  0.7012  0.3201  0.2757
  863MOL0     H19042   6.001   2.190   1.880 -0.6365  0.5550 -0.8162
  863MOL0     H19043   5.905   2.407   2.189  1.8117 -0.3337  0.2722
  863MOL0     H19044   5.826   2.720   2.162  0.9967  0.8968  2.5102
  863MOL0     H19045   5.979   2.779   2.087  3.1926 -3.0649 -2.2650
  863MOL0     H19046   5.952   2.591   2.325 -1.7226  0.2848 -1.2316
  863MOL0     H19047   6.107   2.640   2.257 -0.7284 -0.8992 -1.5900
  863MOL0     H19048   5.906   2.842   2.374  0.6573  0.5918 -1.6369
  863MOL0     H19049   6.013   2.758   2.483 -1.6836 -1.9149 -0.1964
  863MOL0     H19050   6.205   2.829   2.348  0.7181  1.9022  0.9241
  863MOL0     H19051   6.118   2.931   2.252  2.2938  0.7774  0.6988
  863MOL0     H19052   6.033   2.916   2.683 -0.2643 -0.3347 -2.8857
  863MOL0     H19053   6.109   2.991   3.001  2.2803 -1.4082  2.4306
  863MOL0     H19054   6.195   2.854   3.016 -1.5490  1.8039  2.0692
  863MOL0     H19055   6.055   2.856   2.901 -0.4065 -1.0210  0.4074
  863MOL0     H19056   6.738   3.007   2.934  3.1216  3.7380 -1.7734
  863MOL0     H19057   6.899   3.014   3.113  1.0317 -0.0528 -1.6882
  863MOL0     H19058   6.928   2.974   3.382 -0.2878 -0.0141  2.6702
  863MOL0     H19059   7.041   3.075   3.276  1.9711 -0.8100  1.1007
  863MOL0     H19060   7.159   3.069   3.491  0.3296 -0.3627 -0.9197
  863MOL0     H19061   7.067   3.231   3.483  1.4298 -0.0686  2.3886
  863MOL0     H19062   6.981   2.987   3.646 -1.1474  0.3571  0.6277
  863MOL0     H19063   6.882   3.126   3.612 -1.4434 -1.8361  0.0271
  863MOL0     H19064   7.049   3.274   3.707 -2.9323 -1.0774 -3.8248
  863MOL0     H19065   7.153   3.146   3.759 -0.2143  0.7638  0.1604
  863MOL0     H19066   7.009   3.237   3.950 -0.1621  1.8431 -1.2796
  863MOL0     H19067   6.877   3.211   3.860  0.4464  1.3549 -0.7042
  863MOL0     H19068   7.074   2.991   3.904 -0.7295 -1.3870  1.8332
  863MOL0     H19069   6.908   2.971   3.847 -0.5651  0.9292 -1.8113
  863MOL0     H19070   6.815   3.004   4.056 -0.8335 -2.3617 -3.5409
  863MOL0     H19071   6.970   3.052   4.137  1.1685 -3.5215  1.6389
  863MOL0     H19072   6.907   2.775   4.025  0.9721 -1.3945  1.8462
  863MOL0     H19073   6.915   2.832   4.192  0.9144  0.1114 -0.2013
  863MOL0     H19074   6.655   3.314   3.307  2.2117  1.7625 -1.6876
  863MOL0     H19075   6.508   3.307   3.102 -0.9255  0.7147 -0.1036
  863MOL0     H19076   6.504   3.059   2.655 -0.1956  0.6334  0.0433
  863MOL0     H19077   6.380   3.010   2.468  0.0590 -0.3829  0.0697
  863MOL0     H19078   5.046   1.580   2.025  1.8555  2.3182 -0.5562
  863MOL0     H19079   4.809   1.618   2.006  1.6626 -0.7641  1.4749
  863MOL0     H19080   4.515   1.846   1.907  0.4278 -1.6898  1.5570
  863MOL0     H19081   4.309   1.953   1.889  2.0173 -0.4635  1.1921
  863MOL0     H19082   3.950   1.702   1.894  1.4431  1.4687  1.1491
  863MOL0     H19083   3.883   1.865   1.871  2.7463  1.8150  1.0471
  863MOL0     H19084   3.980   1.697   1.635  1.5003  1.9652  0.1797
  863MOL0     H19085   3.902   1.852   1.622 -1.5649  0.1699 -0.7484
  863MOL0     H19086   3.695   1.753   1.749  1.1247  0.9910 -0.0585
  863MOL0     H19087   3.715   1.769   1.587  1.1842  0.6130  0.6590
  863MOL0     H19088   3.834   1.508   1.715  0.4995 -0.3088  0.0906
  863MOL0     H19089   3.762   1.526   1.558 -0.0183  0.9984 -0.3101
  863MOL0     H19090   3.438   1.424   1.784  0.3343  0.3756  0.4743
  863MOL0     H19091   4.134   1.578   1.763  0.4157  0.2139  1.1567
  863MOL0     H19092   4.356   1.380   1.844  2.5844 -0.6359 -0.3660
  863MOL0     H19093   4.272   1.392   1.691  1.6646 -2.2505 -0.0983
  863MOL0     H19094   4.445   1.423   1.690  0.2998  1.8907 -0.4017
  864MOL0     O19095   8.601   9.261   6.119  0.2698 -0.2256  0.0793
  864MOL0     C19096   8.524   9.206   6.203  0.2423  0.4949  0.5668
  864MOL0     O19097   8.554   9.178   6.332 -0.6939  0.4158  0.3440
  864MOL0     C19098   8.688   9.199   6.381 -0.3951 -0.1852  0.1919
  864MOL0     C19099   8.706   9.224   6.508 -0.5531  0.4219  0.0369
  864MOL0     C19100   8.825   9.274   6.563  0.5157  0.2816  0.0213
  864MOL0     C19101   8.940   9.294   6.481  0.3780 -0.0677 -0.1773
  864MOL0     O19102   9.048   9.344   6.542 -0.5743  0.1234  0.3777
  864MOL0     C19103   9.177   9.297   6.496 -0.1481  0.3791  0.1299
  864MOL0     C19104   9.278   9.371   6.574  0.0198 -0.6623  0.4459
  864MOL0     C19105   9.414   9.324   6.548 -0.6426 -0.2272 -0.3524
  864MOL0     C19106   9.492   9.418   6.464  0.4861 -0.7886  0.8634
  864MOL0     C19107   9.634   9.370   6.427  0.6537  0.7719  1.0450
  864MOL0     C19108   9.709   9.476   6.345  0.5336 -0.3018 -0.5811
  864MOL0     C19109   9.850   9.418   6.311 -0.2955 -0.0119  0.8328
  864MOL0     C19110   9.835   9.332   6.189  0.6842  0.2505  0.3368
  864MOL0     N19111   9.957   9.251   6.159 -0.2064 -0.0651  0.1727
  864MOL0     C19112  10.017   9.148   6.224  0.4195  0.3101 -0.2211
  864MOL0     C19113  10.134   9.126   6.167 -1.1710 -0.1807  0.5464
  864MOL0     C19114  10.234   9.022   6.211 -0.2681 -0.4204  0.4415
  864MOL0     C19115  10.294   8.957   6.085  0.0502 -0.6944 -0.7800
  864MOL0     C19116  10.387   8.842   6.140 -0.5836 -0.1155  0.1985
  864MOL0     C19117  10.494   8.802   6.040 -0.1868 -0.2400 -0.3900
  864MOL0     O19118  10.435   8.686   5.959  0.0541 -0.0562  0.2599
  864MOL0     C19119  10.501   8.651   5.840  0.2827 -0.2355 -0.7550
  864MOL0     C19120  10.455   8.529   5.792 -0.4756  0.6851  1.2690
  864MOL0     C19121  10.518   8.470   5.682 -0.7502 -0.9743  0.2929
  864MOL0     C19122  10.484   8.329   5.660 -0.2870 -0.1221 -0.1995
  864MOL0     C19123  10.627   8.532   5.617  0.2914 -0.3091 -0.6807
  864MOL0     C19124  10.698   8.481   5.499  0.5891  0.1111  0.1316
  864MOL0     O19125  10.817   8.538   5.459  0.2939  0.0119 -0.0946
  864MOL0     C19126  10.914   8.469   5.401 -0.5681 -0.5393 -0.3599
  864MOL0     C19127  10.920   8.337   5.358  0.4696 -1.1890  0.3449
  864MOL0     C19128  11.037   8.286   5.297 -0.3711 -0.2563 -0.5800
  864MOL0     C19129  11.151   8.369   5.272  1.2163  0.1044 -0.7414
  864MOL0     O19130  11.258   8.343   5.193 -0.7276  0.4258 -0.2979
  864MOL0     C19131  11.261   8.221   5.120  0.1494 -0.3600  0.9104
  864MOL0     C19132  11.299   8.106   5.205  0.0647  0.3244  0.4427
  864MOL0     C19133  11.458   8.073   5.205 -0.0124 -0.4974 -0.0763
  864MOL0     C19134  11.538   8.180   5.282  0.2397  0.1673  0.0323
  864MOL0     C19135  11.691   8.156   5.258 -1.0482  0.5716  1.1358
  864MOL0     C19136  11.776   8.279   5.317 -0.5297  1.1153 -0.6311
  864MOL0     C19137  11.928   8.291   5.272  0.8961 -0.2535  0.3425
  864MOL0     C19138  11.953   8.263   5.120 -0.0113  0.0822  0.1677
  864MOL0    Cl19139  11.840   8.358   5.008 -0.1127  0.0721 -0.1351
  864MOL0     C19140  11.148   8.498   5.332  0.2350  0.6111 -0.1976
  864MOL0     C19141  11.029   8.545   5.384 -0.7539  0.3287 -0.3732
  864MOL0     O19142  10.634   8.405   5.429  0.7373  0.3703  0.3539
  864MOL0     C19143  10.677   8.651   5.675  0.3376 -0.0289 -0.3515
  864MOL0     C19144  10.614   8.709   5.786 -0.3660 -0.3106 -0.2249
  864MOL0     N19145  10.140   9.215   6.063  0.3078  0.4314  0.2204
  864MOL0     N19146  10.031   9.278   6.050  0.1110 -0.2172  0.4871
  864MOL0     C19147   8.928   9.254   6.348 -0.4046  0.1500 -0.1719
  864MOL0     C19148   8.806   9.213   6.302  0.1938 -0.3097  0.2102
  864MOL0     C19149   8.397   9.156   6.144 -0.9364 -1.5400 -0.1924
  864MOL0     C19150   8.306   9.096   6.231 -0.0165  0.0821  0.4190
  864MOL0     C19151   8.180   9.045   6.192  0.1771 -0.2103 -0.4479
  864MOL0     C19152   8.134   9.053   6.066  0.0332 -0.8404  0.2978
  864MOL0     O19153   8.010   9.024   6.018 -0.2964 -1.3798 -0.1271
  864MOL0     C19154   7.894   8.989   6.103 -0.0200 -0.4096  0.0770
  864MOL0     C19155   7.834   9.109   6.169  0.4394 -0.1528 -0.1527
  864MOL0     C19156   7.819   9.231   6.076 -0.7023  0.2480  0.7211
  864MOL0     C19157   7.721   9.213   5.957 -1.1202  0.4320 -0.0060
  864MOL0     C19158   7.585   9.181   5.993  0.5557 -0.4758  0.2183
  864MOL0     C19159   7.470   9.158   6.003  0.0354 -0.5732 -0.0477
  864MOL0     C19160   8.224   9.113   5.973 -0.1408  0.6806  0.9974
  864MOL0     C19161   8.350   9.170   6.010  0.3566  0.0498  0.2123
  864MOL0     C19162   8.422   9.238   5.897 -0.8909 -0.3389 -1.3420
  864MOL0     H19163   8.623   9.226   6.577  1.7042 -1.3603  3.0865
  864MOL0     H19164   8.826   9.294   6.670 -0.5100 -2.4458  0.6345
  864MOL0     H19165   9.203   9.322   6.393 -2.7047 -4.0425 -1.8571
  864MOL0     H19166   9.197   9.191   6.512  4.2074  0.4667 -2.8362
  864MOL0     H19167   9.271   9.476   6.544  0.2827  0.1909  3.0562
  864MOL0     H19168   9.252   9.378   6.680  1.9898  3.0852  0.8589
  864MOL0     H19169   9.470   9.310   6.642  0.7753 -1.0578 -1.2807
  864MOL0     H19170   9.423   9.228   6.498 -1.2989 -0.3691 -0.2104
  864MOL0     H19171   9.443   9.414   6.366  2.1130 -0.9386  0.0344
  864MOL0     H19172   9.495   9.519   6.508 -1.1125 -0.4507  0.2937
  864MOL0     H19173   9.635   9.278   6.368  1.1523  0.9197  0.8243
  864MOL0     H19174   9.684   9.346   6.522  0.9502  0.2833  0.7634
  864MOL0     H19175   9.658   9.508   6.254 -0.9571  1.3276  0.7548
  864MOL0     H19176   9.718   9.568   6.403 -0.8576  0.2115 -1.1276
  864MOL0     H19177   9.893   9.360   6.393  1.0081  0.1389  0.2845
  864MOL0     H19178   9.914   9.505   6.293 -0.3907 -0.2053 -0.5870
  864MOL0     H19179   9.755   9.258   6.200  0.2974  0.6080 -0.0337
  864MOL0     H19180   9.811   9.401   6.108  0.6882  1.5644  1.4142
  864MOL0     H19181   9.980   9.101   6.315 -0.2682  3.1998  1.0858
  864MOL0     H19182  10.177   8.948   6.268 -3.1382  1.3521  0.0880
  864MOL0     H19183  10.319   9.072   6.259  1.5772 -0.7592 -2.2419
  864MOL0     H19184  10.223   8.935   6.004  1.6845 -0.7149 -2.2758
  864MOL0     H19185  10.364   9.024   6.035  3.7989 -1.3342  3.0593
  864MOL0     H19186  10.446   8.870   6.228  2.8849  0.5905 -2.1655
  864MOL0     H19187  10.345   8.746   6.172  4.1921 -2.7155 -0.3558
  864MOL0     H19188  10.518   8.894   5.985 -0.3864  0.4718  0.6786
  864MOL0     H19189  10.581   8.773   6.100 -0.9532  0.9525  1.3672
  864MOL0     H19190  10.380   8.482   5.854 -0.8626  2.0400  1.8629
  864MOL0     H19191  10.463   8.289   5.760  2.3605  1.2135  0.9909
  864MOL0     H19192  10.558   8.267   5.608 -0.6345 -1.0654  0.3937
  864MOL0     H19193  10.400   8.321   5.589  1.1947  0.8218 -2.1546
  864MOL0     H19194  10.831   8.281   5.384 -1.4690  2.2258  1.7271
  864MOL0     H19195  11.053   8.179   5.284  1.9911  0.2651 -2.9761
  864MOL0     H19196  11.164   8.197   5.075  0.6934 -1.7588  0.4035
  864MOL0     H19197  11.334   8.224   5.039 -0.3506  1.8743  0.4826
  864MOL0     H19198  11.262   8.120   5.307 -1.2507  2.5659 -0.2991
  864MOL0     H19199  11.249   8.019   5.162 -0.5093  1.2868 -0.8936
  864MOL0     H19200  11.495   8.067   5.102  1.1866  0.3284  0.2834
  864MOL0     H19201  11.494   7.979   5.248  0.0097 -1.6006 -2.3677
  864MOL0     H19202  11.508   8.172   5.387  0.2904 -3.5515 -0.1158
  864MOL0     H19203  11.508   8.277   5.240  0.3169 -0.3375 -1.2186
  864MOL0     H19204  11.723   8.066   5.312  2.0919  2.1246  2.1206
  864MOL0     H19205  11.713   8.146   5.152  1.1118 -1.6876  1.7066
  864MOL0     H19206  11.765   8.265   5.425  0.4057  0.1658 -0.6416
  864MOL0     H19207  11.718   8.370   5.301 -1.6237  0.3893 -0.8960
  864MOL0     H19208  11.983   8.213   5.326  0.2454 -0.5034  0.6682
  864MOL0     H19209  11.970   8.390   5.292  0.7401  0.3892 -2.1805
  864MOL0     H19210  11.925   8.158   5.112 -2.5596  0.7273 -0.3005
  864MOL0     H19211  12.058   8.278   5.092 -0.4537 -0.9731 -2.2560
  864MOL0     H19212  11.230   8.569   5.322 -0.9481  1.8576 -1.5039
  864MOL0     H19213  11.048   8.644   5.423 -1.4078 -0.2024  1.3607
  864MOL0     H19214  10.769   8.688   5.630  0.5583 -0.8274 -0.5829
  864MOL0     H19215  10.659   8.801   5.824  0.2255  0.5310 -2.7742
  864MOL0     H19216   9.024   9.250   6.297  0.0171  0.0464  0.6130
  864MOL0     H19217   8.794   9.200   6.195  1.8889  2.3058 -0.3994
  864MOL0     H19218   8.322   9.089   6.339 -0.3429  1.5715  0.5886
  864MOL0     H19219   8.122   9.010   6.276  2.6596  0.1672  1.5707
  864MOL0     H19220   7.818   8.932   6.048 -1.0440  2.0195 -1.2034
  864MOL0     H19221   7.941   8.935   6.186  0.7332  3.2275  2.2088
  864MOL0     H19222   7.869   9.115   6.272 -3.0144 -2.5002  1.3380
  864MOL0     H19223   7.732   9.077   6.192  0.6560  0.4485  1.8046
  864MOL0     H19224   7.791   9.317   6.137 -0.9082  1.4147 -0.9562
  864MOL0     H19225   7.918   9.254   6.036 -0.0821  0.6752  2.3873
  864MOL0     H19226   7.756   9.136   5.887  0.4637  0.9312  0.1896
  864MOL0     H19227   7.710   9.305   5.898 -1.6044  1.8315  2.1489
  864MOL0     H19228   7.365   9.147   6.017 -0.2575  0.6018 -1.1379
  864MOL0     H19229   8.195   9.123   5.869  0.6976 -0.8198  0.5840
  864MOL0     H19230   8.510   9.177   5.875 -0.5815 -0.4459  0.1338
  864MOL0     H19231   8.358   9.236   5.808 -2.0421 -3.2251 -0.5701
  864MOL0     H19232   8.456   9.340   5.917 -0.1277 -1.0343  1.2567
  865MOL0     O19233   4.897   6.839   9.544  0.3128  0.4071  0.2212
  865MOL0     C19234   4.912   6.774   9.435 -0.1267 -0.1713 -0.9594
  865MOL0     O19235   4.903   6.638   9.426 -0.4432 -0.1900  0.1262
  865MOL0     C19236   4.921   6.558   9.544 -0.5491 -0.4860  0.5376
  865MOL0     C19237   4.889   6.424   9.528  0.2885 -0.1856  0.5569
  865MOL0     C19238   4.890   6.331   9.634 -0.3412 -0.1132 -0.3790
  865MOL0     C19239   4.948   6.361   9.756 -0.7723 -0.0440 -0.0298
  865MOL0     O19240   4.965   6.253   9.836  0.4162 -0.4141 -0.3802
  865MOL0     C19241   5.000   6.273   9.980  0.8602  1.1741  0.1669
  865MOL0     C19242   5.147   6.288  10.001  0.2875  0.0340 -0.1322
  865MOL0     C19243   5.224   6.160  10.018 -0.5962  0.1525 -0.2454
  865MOL0     C19244   5.232   6.082   9.892  0.4680 -0.1731 -0.4178
  865MOL0     C19245   5.314   5.957   9.889 -0.2278 -0.7631 -0.3161
  865MOL0     C19246   5.286   5.855  10.010  0.5330 -0.1059  0.2650
  865MOL0     C19247   5.383   5.743   9.993  0.2408 -0.2520 -0.9818
  865MOL0     C19248   5.384   5.655  10.122  0.0447 -0.6327  0.4353
  865MOL0     N19249   5.466   5.540  10.080 -0.1405 -0.5040 -0.4428
  865MOL0     C19250   5.432   5.414  10.108 -0.3306 -0.0725  1.3377
  865MOL0     C19251   5.550   5.339  10.104  0.5331 -0.0960 -0.2905
  865MOL0     C19252   5.563   5.184  10.119 -0.2141 -0.2984 -0.3787
  865MOL0     C19253   5.709   5.141  10.171 -0.8613  0.1663  0.1227
  865MOL0     C19254   5.724   5.115  10.325  0.8276 -0.7672  0.4060
  865MOL0     C19255   5.858   5.054  10.361  0.5681 -0.3891 -0.1883
  865MOL0     O19256   5.866   4.909  10.335 -0.1473 -0.3707  0.1072
  865MOL0     C19257   5.968   4.855  10.416  0.8036  0.3888  0.6839
  865MOL0     C19258   6.103   4.835  10.373  0.0407 -0.2104 -0.1969
  865MOL0     C19259   6.198   4.778  10.456 -0.1893  0.1939 -0.5978
  865MOL0     C19260   6.339   4.765  10.391  0.6640 -1.2343  0.4479
  865MOL0     C19261   6.159   4.734  10.586  0.1041  0.2958  0.0409
  865MOL0     C19262   6.255   4.675  10.683  0.1311 -0.9390 -0.3924
  865MOL0     O19263   6.383   4.720  10.671  0.1144  1.1996  0.2262
  865MOL0     C19264   6.485   4.656  10.742  0.6763  0.1388 -0.2290
  865MOL0     C19265   6.515   4.521  10.710 -0.2907  0.3315  0.1911
  865MOL0     C19266   6.617   4.461  10.780  0.1822  0.9155 -0.1055
  865MOL0     C19267   6.694   4.525  10.886  0.0032  0.4123  0.2726
  865MOL0     O19268   6.799   4.471  10.952  0.8028 -0.2046 -0.1016
  865MOL0     C19269   6.884   4.384  10.878  1.1446 -0.4580  0.5632
  865MOL0     C19270   6.886   4.236  10.930  0.9925 -0.0387 -0.5778
  865MOL0     C19271   6.989   4.199  11.040 -0.1903  0.1332  1.0873
  865MOL0     C19272   7.136   4.202  10.976  0.3610 -0.6250 -0.3742
  865MOL0     C19273   7.240   4.143  11.073 -0.6935 -0.6212 -0.8001
  865MOL0     C19274   7.368   4.134  10.994  0.6163  0.7969  0.1770
  865MOL0     C19275   7.478   4.076  11.084 -0.8394 -0.1374  0.4354
  865MOL0     C19276   7.592   4.053  10.993 -0.1448 -0.3669  0.4036
  865MOL0    Cl19277   7.701   3.961  11.096 -0.3695  0.1764 -0.1685
  865MOL0     C19278   6.651   4.649  10.921 -0.2231 -0.4420  0.0927
  865MOL0     C19279   6.551   4.713  10.849 -0.2793  0.7402  0.4614
  865MOL0     O19280   6.213   4.603  10.779  0.8403  0.1068 -0.2573
  865MOL0     C19281   6.027   4.757  10.623  0.2966  0.0654  0.2800
  865MOL0     C19282   5.926   4.813  10.537 -0.3893  0.3624 -0.0995
  865MOL0     N19283   5.658   5.423  10.064  0.2513  0.4972  0.2419
  865MOL0     N19284   5.607   5.541  10.066  0.3484 -0.5808 -0.1548
  865MOL0     C19285   4.990   6.499   9.773  0.0960  0.3201 -0.2257
  865MOL0     C19286   4.988   6.586   9.666 -0.0092  0.0697 -0.7791
  865MOL0     C19287   4.958   6.842   9.313 -0.0441  0.0043 -0.2095
  865MOL0     C19288   5.005   6.755   9.209  0.3826  0.7667  0.0962
  865MOL0     C19289   5.028   6.805   9.089 -0.0762  0.5945 -0.3913
  865MOL0     C19290   5.021   6.941   9.062 -0.8491  0.5487  0.3401
  865MOL0     O19291   5.017   6.994   8.936  0.9304 -0.6440 -0.3577
  865MOL0     C19292   4.925   6.933   8.846  0.5952 -0.1324  0.7256
  865MOL0     C19293   4.839   7.048   8.810  1.5327 -0.2773 -0.6952
  865MOL0     C19294   4.719   7.012   8.725 -0.0001 -0.0229 -1.1092
  865MOL0     C19295   4.752   6.968   8.584 -0.5797 -0.7238 -0.2757
  865MOL0     C19296   4.640   6.995   8.498  0.2289  0.2050  0.2682
  865MOL0     C19297   4.540   7.009   8.438 -0.1250 -0.3064  1.1203
  865MOL0     C19298   4.986   7.030   9.157  0.0732 -0.8476  0.1996
  865MOL0     C19299   4.953   6.979   9.290 -0.4253 -0.4456  0.3524
  865MOL0     C19300   4.909   7.077   9.391  0.5223 -0.2086 -0.6045
  865MOL0     H19301   4.863   6.383   9.431 -0.7491  0.2624  0.6232
  865MOL0     H19302   4.853   6.230   9.619  3.8829 -1.9973  0.5567
  865MOL0     H19303   4.973   6.189  10.044 -1.0440  1.1937 -0.5413
  865MOL0     H19304   4.945   6.357  10.023  3.9308  2.9246  0.9640
  865MOL0     H19305   5.190   6.342   9.916  2.1016 -0.9181  0.1252
  865MOL0     H19306   5.154   6.355  10.087  0.9966  1.2468 -1.0988
  865MOL0     H19307   5.322   6.199  10.048 -2.0086  1.0603  3.9080
  865MOL0     H19308   5.191   6.108  10.109  1.4620  1.9894  1.6948
  865MOL0     H19309   5.131   6.047   9.870 -1.0286  1.4356  3.1776
  865MOL0     H19310   5.265   6.138   9.804  3.0940 -0.8831  0.0315
  865MOL0     H19311   5.421   5.979   9.892 -0.5072  0.7803 -0.7137
  865MOL0     H19312   5.298   5.903   9.795 -1.8477 -0.2514 -0.3748
  865MOL0     H19313   5.288   5.898  10.111 -1.1972  2.0752 -0.5348
  865MOL0     H19314   5.186   5.812  10.000 -1.3398  3.8862  0.0207
  865MOL0     H19315   5.481   5.789   9.981 -0.1123  0.5553 -0.8721
  865MOL0     H19316   5.379   5.692   9.897  4.1309  2.3022 -2.7554
  865MOL0     H19317   5.431   5.719  10.197  2.3473 -1.3405 -0.3137
  865MOL0     H19318   5.284   5.630  10.158 -0.8319 -0.1383 -1.4781
  865MOL0     H19319   5.335   5.377  10.141  1.0595 -0.4442  5.7032
  865MOL0     H19320   5.558   5.157  10.014  1.2243  3.3648 -1.5636
  865MOL0     H19321   5.481   5.134  10.172 -0.9108  0.0846 -1.0749
  865MOL0     H19322   5.718   5.040  10.131  0.8504  0.4326 -0.2250
  865MOL0     H19323   5.793   5.202  10.137  1.0995 -0.7961  2.9248
  865MOL0     H19324   5.707   5.206  10.383  3.6452  1.2138 -1.5826
  865MOL0     H19325   5.645   5.044  10.348 -0.6245  0.3577 -0.8839
  865MOL0     H19326   5.936   5.105  10.303 -1.4796 -0.9636 -3.7606
  865MOL0     H19327   5.879   5.071  10.467 -0.1075  1.0071 -0.2526
  865MOL0     H19328   6.125   4.860  10.270 -0.2520  0.5560 -0.0808
  865MOL0     H19329   6.383   4.669  10.421  0.8752 -1.5108 -0.7052
  865MOL0     H19330   6.406   4.843  10.428  0.8387 -0.4220 -1.4846
  865MOL0     H19331   6.337   4.764  10.281 -2.1676  3.4142  0.1955
  865MOL0     H19332   6.458   4.469  10.634 -0.4031  2.2314 -1.1178
  865MOL0     H19333   6.639   4.356  10.762  0.4344  1.2622 -2.1166
  865MOL0     H19334   6.858   4.374  10.773  0.0840  0.5565  0.7144
  865MOL0     H19335   6.984   4.429  10.877  0.5932  0.7839  0.4185
  865MOL0     H19336   6.790   4.208  10.975  1.1853 -0.1488 -0.2310
  865MOL0     H19337   6.884   4.168  10.844  0.2062 -0.0819 -0.5351
  865MOL0     H19338   6.963   4.098  11.073 -2.0938 -0.0446 -0.7134
  865MOL0     H19339   6.983   4.265  11.126 -0.3981  0.9450  0.4650
  865MOL0     H19340   7.166   4.302  10.944  0.8492 -0.9528 -0.9720
  865MOL0     H19341   7.135   4.150  10.880  0.4667  0.6175 -1.0684
  865MOL0     H19342   7.237   4.217  11.154  0.3091 -0.9195 -0.4840
  865MOL0     H19343   7.213   4.045  11.113 -0.5420 -0.5508 -0.5227
  865MOL0     H19344   7.402   4.233  10.962 -0.2039  1.9440  2.5995
  865MOL0     H19345   7.352   4.064  10.911  0.4615 -0.6154  1.3648
  865MOL0     H19346   7.443   3.979  11.122  0.7583 -0.3165  1.5814
  865MOL0     H19347   7.501   4.147  11.164 -2.3264  6.1987 -4.0222
  865MOL0     H19348   7.639   4.141  10.948  1.3184 -1.6627 -0.7584
  865MOL0     H19349   7.575   3.986  10.908  3.1194 -1.4164  0.4228
  865MOL0     H19350   6.700   4.705  11.000 -0.3980 -2.3493  1.6351
  865MOL0     H19351   6.537   4.817  10.877  1.0553  1.5270 -1.5472
  865MOL0     H19352   5.996   4.726  10.722  0.2763  0.5838  0.4377
  865MOL0     H19353   5.820   4.809  10.563 -0.5708 -0.9975 -0.9342
  865MOL0     H19354   5.034   6.527   9.869 -1.4157  1.5828  0.1410
  865MOL0     H19355   5.024   6.686   9.691  0.0347  0.2859 -1.6714
  865MOL0     H19356   5.002   6.649   9.229  2.4067  0.2569 -1.9677
  865MOL0     H19357   5.066   6.733   9.016  2.0998 -1.0556  2.1511
  865MOL0     H19358   4.968   6.902   8.750 -0.5451  1.6692 -0.4403
  865MOL0     H19359   4.869   6.844   8.878 -1.1730 -1.0773 -4.1413
  865MOL0     H19360   4.890   7.125   8.752  0.0212  0.6622 -0.7987
  865MOL0     H19361   4.811   7.092   8.906  4.6475  2.3920 -0.8366
  865MOL0     H19362   4.671   6.929   8.776  2.7143 -1.1608 -0.2199
  865MOL0     H19363   4.658   7.102   8.716  2.4787  2.0489  1.0104
  865MOL0     H19364   4.778   6.862   8.583 -2.7491 -1.3607 -2.9379
  865MOL0     H19365   4.837   7.031   8.554 -0.7615 -0.6125 -0.5656
  865MOL0     H19366   4.455   7.028   8.374  0.3784  1.4747  0.9261
  865MOL0     H19367   4.987   7.138   9.147  1.4843 -0.8618 -0.0572
  865MOL0     H19368   4.961   7.173   9.378 -0.6570  0.5310  0.0032
  865MOL0     H19369   4.801   7.093   9.397  0.5534 -0.4139  0.6542
  865MOL0     H19370   4.937   7.037   9.489  0.1929  1.3586  0.1526
  866MOL0     O19371   2.373   4.856   2.644  0.9843  0.1758  0.7490
  866MOL0     C19372   2.342   4.966   2.676  0.2643  0.8753  0.4810
  866MOL0     O19373   2.414   5.080   2.646  0.5254 -0.8544 -0.1642
  866MOL0     C19374   2.517   5.068   2.558  0.4721 -0.1124  0.8596
  866MOL0     C19375   2.645   5.031   2.598 -0.5612 -0.1810 -0.4510
  866MOL0     C19376   2.750   5.031   2.510 -0.0467  0.5678  0.2119
  866MOL0     C19377   2.726   5.078   2.375 -0.3635  0.3647 -0.9682
  866MOL0     O19378   2.833   5.076   2.288  0.7332 -1.0536 -0.2290
  866MOL0     C19379   2.815   5.046   2.148 -0.1955 -0.5423  0.0493
  866MOL0     C19380   2.828   4.898   2.124 -0.2192  0.5199 -0.0272
  866MOL0     C19381   2.965   4.849   2.182 -0.0183  0.1260  1.3290
  866MOL0     C19382   3.084   4.853   2.069  0.4368 -0.2978  0.3265
  866MOL0     C19383   3.224   4.848   2.117 -0.6993  0.0122  0.1674
  866MOL0     C19384   3.315   4.871   1.999  0.9273 -0.5587  0.0426
  866MOL0     C19385   3.460   4.849   2.052  1.1392 -0.3201 -0.0578
  866MOL0     C19386   3.575   4.868   1.962 -0.2127 -0.5008 -0.2396
  866MOL0     N19387   3.655   4.988   1.998 -0.2137  0.4056 -0.2130
  866MOL0     C19388   3.656   5.105   1.931 -0.1792 -0.0710  0.7192
  866MOL0     C19389   3.728   5.180   2.018 -0.2778 -0.8632 -0.2052
  866MOL0     C19390   3.753   5.329   2.009 -0.8281 -1.1459  0.4028
  866MOL0     C19391   3.800   5.368   1.875  1.0541 -0.1811 -0.2389
  866MOL0     C19392   3.936   5.319   1.831 -0.4457  0.7234  0.3297
  866MOL0     C19393   4.001   5.426   1.739  0.4927 -0.0916  0.0017
  866MOL0     O19394   4.129   5.383   1.694  0.5819 -0.0365  0.2943
  866MOL0     C19395   4.241   5.402   1.768  1.0434 -0.7330  0.5671
  866MOL0     C19396   4.351   5.332   1.718 -0.1159  0.6254 -0.1547
  866MOL0     C19397   4.477   5.353   1.766  0.3610 -0.6537 -0.0151
  866MOL0     C19398   4.576   5.266   1.701  0.5901  0.1421 -0.3126
  866MOL0     C19399   4.500   5.458   1.870 -0.2727  0.1780  0.3515
  866MOL0     C19400   4.636   5.485   1.925  0.2047  0.6410  0.1228
  866MOL0     O19401   4.700   5.377   1.961 -0.4116  0.3870  0.1992
  866MOL0     C19402   4.832   5.400   2.000  0.7184  0.5359  0.1033
  866MOL0     C19403   4.939   5.422   1.910 -1.0026 -0.5142  1.1315
  866MOL0     C19404   5.070   5.433   1.959 -0.7780  0.2908 -0.6760
  866MOL0     C19405   5.091   5.458   2.096  0.6825 -0.1595  0.0288
  866MOL0     O19406   5.220   5.493   2.129  0.3581  0.2793 -0.0333
  866MOL0     C19407   5.267   5.462   2.259  0.4549 -0.5692  0.0521
  866MOL0     C19408   5.421   5.476   2.260 -1.1731 -0.3975  0.0894
  866MOL0     C19409   5.492   5.387   2.163 -1.3578  0.4687 -0.1289
  866MOL0     C19410   5.494   5.426   2.007 -1.1214 -0.7224  0.1401
  866MOL0     C19411   5.594   5.347   1.927 -1.0791 -0.6439 -0.4216
  866MOL0     C19412   5.555   5.351   1.780 -0.5731  0.6370 -0.0306
  866MOL0     C19413   5.685   5.328   1.703  0.3060  0.0626 -0.0198
  866MOL0     C19414   5.742   5.195   1.737 -0.2446  1.3451  0.1919
  866MOL0    Cl19415   5.872   5.152   1.623  0.1895  0.7050  0.3292
  866MOL0     C19416   4.990   5.442   2.186  0.5079  0.9226  0.3397
  866MOL0     C19417   4.861   5.413   2.138  1.0868 -0.4457  0.7187
  866MOL0     O19418   4.682   5.597   1.939  0.1534 -0.1108  0.0831
  866MOL0     C19419   4.398   5.532   1.912  0.6989  0.4400 -0.2461
  866MOL0     C19420   4.272   5.504   1.862 -0.4204  0.1550  0.4055
  866MOL0     N19421   3.794   5.097   2.113  1.0915 -0.1638 -0.3234
  866MOL0     N19422   3.746   4.985   2.106  0.5199  0.3629 -0.7154
  866MOL0     C19423   2.593   5.114   2.337  0.3502 -0.9581  0.2099
  866MOL0     C19424   2.495   5.121   2.431  0.1144 -0.1465 -0.4712
  866MOL0     C19425   2.200   4.991   2.718 -0.3680 -0.1087 -0.5364
  866MOL0     C19426   2.135   5.103   2.665  0.7347 -0.4805  0.0501
  866MOL0     C19427   1.998   5.138   2.691 -0.1096 -0.0915 -0.8939
  866MOL0     C19428   1.933   5.069   2.795 -1.0340  0.2997  0.1539
  866MOL0     O19429   1.820   5.116   2.857  0.9916 -0.0595  0.8175
  866MOL0     C19430   1.739   5.216   2.787 -0.7136 -0.1368 -0.4029
  866MOL0     C19431   1.792   5.353   2.827  0.2799 -1.1203 -0.1352
  866MOL0     C19432   1.754   5.459   2.716 -0.3418  0.2111 -0.2698
  866MOL0     C19433   1.607   5.494   2.719 -0.9172 -0.5155  0.3393
  866MOL0     C19434   1.576   5.581   2.833  0.4691 -0.2147 -0.4429
  866MOL0     C19435   1.550   5.652   2.932 -0.7591 -0.7377 -1.2878
  866MOL0     C19436   1.998   4.959   2.847 -0.1445  0.9465  0.1380
  866MOL0     C19437   2.126   4.917   2.812 -0.7446  0.7394 -0.2076
  866MOL0     C19438   2.177   4.785   2.862 -0.2631  1.4651  0.1212
  866MOL0     H19439   2.659   4.996   2.700 -0.5340  0.1179 -0.3526
  866MOL0     H19440   2.848   5.000   2.545 -1.6727  0.5072  5.6941
  866MOL0     H19441   2.896   5.091   2.090 -1.1637  2.1156  0.6250
  866MOL0     H19442   2.724   5.088   2.105  0.6867 -0.0277 -1.3678
  866MOL0     H19443   2.748   4.852   2.183 -0.5951  1.5953  0.3287
  866MOL0     H19444   2.826   4.874   2.018  1.1914  2.9363 -0.6812
  866MOL0     H19445   2.993   4.900   2.275 -0.3996  0.1764  1.4212
  866MOL0     H19446   2.944   4.749   2.223  3.7166 -1.0611  0.7122
  866MOL0     H19447   3.066   4.779   1.991  0.5548  2.2895 -2.3449
  866MOL0     H19448   3.074   4.951   2.021 -2.5198  0.4913  2.2469
  866MOL0     H19449   3.236   4.745   2.151  0.7933  0.5116  1.2687
  866MOL0     H19450   3.243   4.919   2.198  3.0257 -1.7014  0.9879
  866MOL0     H19451   3.301   4.795   1.921 -2.6377 -0.7552  0.7016
  866MOL0     H19452   3.304   4.976   1.970  0.3732  0.4244  3.3315
  866MOL0     H19453   3.468   4.744   2.082  1.6549  0.3270  2.3513
  866MOL0     H19454   3.469   4.908   2.144 -0.9079 -0.5477  0.3236
  866MOL0     H19455   3.637   4.778   1.972 -0.6673 -0.6688  1.5377
  866MOL0     H19456   3.545   4.864   1.857 -0.1573 -3.1955 -0.2221
  866MOL0     H19457   3.594   5.128   1.845  0.6313 -2.9557 -0.7884
  866MOL0     H19458   3.825   5.362   2.084 -0.4927  0.8989 -0.7425
  866MOL0     H19459   3.660   5.385   2.025 -1.2896 -1.8043  0.1077
  866MOL0     H19460   3.728   5.325   1.805  2.0280 -0.8302 -0.8597
  866MOL0     H19461   3.800   5.477   1.885  0.5455 -0.2685  0.7860
  866MOL0     H19462   3.998   5.290   1.916  1.3516 -0.3103 -1.2372
  866MOL0     H19463   3.927   5.223   1.779 -2.8781 -0.7651  3.1939
  866MOL0     H19464   3.935   5.444   1.653  1.3892 -2.8351 -1.3796
  866MOL0     H19465   4.016   5.518   1.796 -1.6441  0.3143 -0.0054
  866MOL0     H19466   4.332   5.270   1.631  0.1355 -1.1987  1.0261
  866MOL0     H19467   4.672   5.317   1.688  0.7404 -0.7000 -3.0697
  866MOL0     H19468   4.550   5.224   1.603  0.1675 -0.8243  0.1981
  866MOL0     H19469   4.594   5.177   1.762 -1.2721  1.2470  1.9943
  866MOL0     H19470   4.923   5.421   1.803  1.3215  0.8414  0.7118
  866MOL0     H19471   5.159   5.419   1.897 -0.9372  2.9792 -1.6308
  866MOL0     H19472   5.237   5.526   2.343  1.1793 -0.5475  0.3021
  866MOL0     H19473   5.240   5.358   2.278  2.0846 -1.2928 -1.3962
  866MOL0     H19474   5.441   5.581   2.235 -3.4775 -0.0986 -0.7782
  866MOL0     H19475   5.467   5.462   2.358  2.2012  2.2316 -0.9180
  866MOL0     H19476   5.460   5.283   2.168  2.0166 -0.7843 -1.4750
  866MOL0     H19477   5.599   5.392   2.186 -0.7453 -0.5084 -2.4239
  866MOL0     H19478   5.532   5.528   1.995  3.7846 -2.2381  0.6043
  866MOL0     H19479   5.392   5.424   1.969 -0.4722 -2.1218 -1.6775
  866MOL0     H19480   5.692   5.387   1.954 -2.0745  1.7341 -0.0401
  866MOL0     H19481   5.599   5.247   1.970 -3.9154 -0.3297  0.8371
  866MOL0     H19482   5.534   5.457   1.764 -0.5528  0.2647 -3.2152
  866MOL0     H19483   5.476   5.284   1.747  2.6480 -3.9720  0.6349
  866MOL0     H19484   5.763   5.400   1.729  1.0891  0.5430 -3.2906
  866MOL0     H19485   5.660   5.342   1.597  0.2149  0.4223  0.0493
  866MOL0     H19486   5.665   5.117   1.736 -0.7479  1.8382 -0.4290
  866MOL0     H19487   5.793   5.197   1.834  1.8604 -1.6641 -0.6992
  866MOL0     H19488   5.003   5.449   2.293  0.5467 -0.5913  0.4558
  866MOL0     H19489   4.771   5.408   2.199  0.8416 -0.2453  0.3787
  866MOL0     H19490   4.406   5.616   1.980  0.6504  0.1233  0.1540
  866MOL0     H19491   4.200   5.578   1.897 -0.9600  0.0758 -0.5038
  866MOL0     H19492   2.565   5.142   2.236 -1.3262  0.0299  0.9157
  866MOL0     H19493   2.394   5.151   2.407 -0.1093  0.6269  1.2827
  866MOL0     H19494   2.181   5.177   2.600 -0.4140  1.8419  1.7140
  866MOL0     H19495   1.958   5.222   2.636  0.5658  0.9478  0.1722
  866MOL0     H19496   1.753   5.202   2.679 -0.6055  0.9808 -0.5523
  866MOL0     H19497   1.635   5.197   2.813 -0.8133 -2.1655 -2.0583
  866MOL0     H19498   1.901   5.353   2.831  0.4767  1.0838 -2.7088
  866MOL0     H19499   1.754   5.385   2.924 -1.3612 -0.9616 -0.7956
  866MOL0     H19500   1.796   5.558   2.735 -0.9175  0.7402 -1.6181
  866MOL0     H19501   1.782   5.421   2.617  1.3243 -1.6151  0.8301
  866MOL0     H19502   1.548   5.402   2.722 -0.9322 -0.4821  1.3619
  866MOL0     H19503   1.583   5.555   2.631  4.5067  1.2807 -0.2644
  866MOL0     H19504   1.532   5.719   3.014  1.7849 -0.3710 -0.9498
  866MOL0     H19505   1.942   4.902   2.921  2.2242 -0.4543  0.9754
  866MOL0     H19506   2.285   4.774   2.849 -0.2393 -1.9927  2.0348
  866MOL0     H19507   2.151   4.769   2.967 -1.6843 -2.8118 -0.6805
  866MOL0     H19508   2.138   4.697   2.810 -0.1568  0.6606  1.3686
  867MOL0     O19509   6.218   8.732   6.375  0.2024 -0.4504 -0.3043
  867MOL0     C19510   6.213   8.607   6.371  0.7315  0.0307  0.6269
  867MOL0     O19511   6.324   8.526   6.384 -1.0721 -0.0588 -0.2496
  867MOL0     C19512   6.437   8.600   6.413 -0.4984  0.4298 -0.2376
  867MOL0     C19513   6.562   8.552   6.358 -0.1371  0.2512 -1.0398
  867MOL0     C19514   6.685   8.604   6.391  0.2453  0.4017  0.0343
  867MOL0     C19515   6.689   8.708   6.479 -0.1562 -0.7340  0.0864
  867MOL0     O19516   6.811   8.769   6.514  0.3850  0.8451  0.3493
  867MOL0     C19517   6.809   8.896   6.574  0.3151 -0.3617 -0.4987
  867MOL0     C19518   6.811   8.880   6.725  0.4515  0.6830  0.0918
  867MOL0     C19519   6.921   8.772   6.770 -0.1640 -0.8445  0.3910
  867MOL0     C19520   6.945   8.760   6.925 -0.1054  0.4180  0.5734
  867MOL0     C19521   7.026   8.880   6.974  0.4950 -0.0016 -0.4682
  867MOL0     C19522   7.084   8.862   7.117 -0.1727 -0.8867  0.0229
  867MOL0     C19523   7.178   8.969   7.177  0.2382  0.3727 -1.0794
  867MOL0     C19524   7.320   8.930   7.132  1.1012 -0.4328 -0.6902
  867MOL0     N19525   7.346   8.894   6.997 -0.1734  0.6437  0.4405
  867MOL0     C19526   7.352   8.766   6.945  0.4007  0.4768 -0.5333
  867MOL0     C19527   7.395   8.777   6.820  0.3123 -0.9056  0.6984
  867MOL0     C19528   7.428   8.673   6.710  0.5631 -0.2747 -0.0236
  867MOL0     C19529   7.574   8.673   6.679 -1.0640  0.4189  0.4220
  867MOL0     C19530   7.639   8.592   6.785  0.2081  0.4303  0.0318
  867MOL0     C19531   7.786   8.608   6.767 -0.7987 -0.5103  0.2393
  867MOL0     O19532   7.860   8.521   6.850 -0.1253  0.2216  0.1307
  867MOL0     C19533   8.000   8.537   6.853  0.2247  0.4471 -0.4022
  867MOL0     C19534   8.090   8.577   6.756  0.1739 -0.2217 -0.0056
  867MOL0     C19535   8.228   8.595   6.775  1.0841 -0.2655 -0.4347
  867MOL0     C19536   8.312   8.650   6.663  0.7447 -0.8642  0.2844
  867MOL0     C19537   8.279   8.546   6.900  0.5733 -0.0226  0.5839
  867MOL0     C19538   8.428   8.552   6.933  0.9953  0.7850 -0.5598
  867MOL0     O19539   8.466   8.444   7.015 -0.1659  0.4650  0.4324
  867MOL0     C19540   8.579   8.450   7.067  0.2082  0.9199 -0.4897
  867MOL0     C19541   8.598   8.519   7.186 -0.0471 -0.1497  0.5458
  867MOL0     C19542   8.728   8.528   7.243  0.9111  0.5503  0.0837
  867MOL0     C19543   8.832   8.463   7.182 -0.8709 -1.2571  0.4382
  867MOL0     O19544   8.957   8.470   7.240 -0.4114  0.2806 -0.5580
  867MOL0     C19545   9.071   8.471   7.149 -0.5230 -0.2787  0.3849
  867MOL0     C19546   9.208   8.476   7.225 -0.0448 -0.4115  0.0589
  867MOL0     C19547   9.323   8.467   7.122 -0.9057 -0.3188 -0.7021
  867MOL0     C19548   9.453   8.540   7.159 -0.7459  0.1833 -0.5157
  867MOL0     C19549   9.553   8.537   7.037 -1.2335  0.1984  0.1173
  867MOL0     C19550   9.690   8.597   7.058  0.2899 -0.0364 -0.1311
  867MOL0     C19551   9.784   8.509   7.133 -0.7439 -0.0112 -0.7220
  867MOL0     C19552   9.909   8.573   7.204  0.4125 -0.6893  0.6670
  867MOL0    Cl19553  10.018   8.456   7.284 -0.3416 -0.0810  0.3957
  867MOL0     C19554   8.816   8.398   7.057 -0.3908  0.0466  0.5319
  867MOL0     C19555   8.688   8.390   7.003  0.2800  0.2217  0.0206
  867MOL0     O19556   8.493   8.642   6.890  0.6638 -0.3591 -0.3648
  867MOL0     C19557   8.189   8.485   6.994  0.9460 -0.5905  0.4923
  867MOL0     C19558   8.051   8.492   6.974 -0.0255 -0.0082 -0.1626
  867MOL0     N19559   7.406   8.908   6.788 -0.8248 -0.6211  0.2993
  867MOL0     N19560   7.378   8.977   6.890  0.0001 -0.2889 -0.7975
  867MOL0     C19561   6.573   8.747   6.546 -0.4763 -0.0617  0.5708
  867MOL0     C19562   6.450   8.693   6.514 -0.6948 -0.0366  0.7439
  867MOL0     C19563   6.080   8.538   6.342  1.2509 -0.8493  0.9402
  867MOL0     C19564   6.087   8.402   6.311 -0.5382  0.0919  1.0474
  867MOL0     C19565   5.975   8.328   6.268 -0.5336 -0.8625  0.4512
  867MOL0     C19566   5.858   8.392   6.252 -0.0648 -0.2766  0.1644
  867MOL0     O19567   5.745   8.335   6.203 -0.0812  0.3256 -0.5400
  867MOL0     C19568   5.762   8.195   6.154  0.6177  0.9103  0.0278
  867MOL0     C19569   5.630   8.152   6.097 -0.4360  0.4952 -0.5731
  867MOL0     C19570   5.651   8.014   6.018 -0.3812 -0.5278 -0.3123
  867MOL0     C19571   5.602   8.046   5.874  0.5715  2.0471  0.4043
  867MOL0     C19572   5.700   8.118   5.802 -0.6449  0.1256 -0.4687
  867MOL0     C19573   5.790   8.180   5.741 -0.5017 -0.2535 -0.8843
  867MOL0     C19574   5.841   8.523   6.285 -0.1509  0.5024 -0.0281
  867MOL0     C19575   5.953   8.595   6.333  0.5812  0.7693 -0.4138
  867MOL0     C19576   5.940   8.739   6.360  0.0595  0.3523 -0.4333
  867MOL0     H19577   6.562   8.475   6.282  0.3442  0.4250 -1.2183
  867MOL0     H19578   6.772   8.562   6.342  0.5711  0.1069  0.8489
  867MOL0     H19579   6.725   8.956   6.537 -0.7815 -1.3968  0.2326
  867MOL0     H19580   6.899   8.954   6.553 -1.0834  2.6628  1.1574
  867MOL0     H19581   6.848   8.972   6.772  1.0753 -1.0028  3.2089
  867MOL0     H19582   6.719   8.854   6.780  1.6507  1.0348  2.4021
  867MOL0     H19583   6.890   8.679   6.723  0.1769  0.2745 -2.1981
  867MOL0     H19584   7.017   8.800   6.726  1.4410 -0.8293  3.6129
  867MOL0     H19585   6.847   8.764   6.973 -1.2392 -0.9990 -1.4597
  867MOL0     H19586   6.992   8.665   6.950 -2.3993 -0.1434  3.1902
  867MOL0     H19587   6.966   8.971   6.966  0.5391 -0.0770 -1.8041
  867MOL0     H19588   7.110   8.896   6.905  1.7098 -0.9863  0.7104
  867MOL0     H19589   6.995   8.867   7.181 -0.1935 -3.0015  0.2000
  867MOL0     H19590   7.137   8.768   7.133  1.2187 -0.3390 -1.1168
  867MOL0     H19591   7.174   8.979   7.286 -0.9784 -3.3336 -0.6428
  867MOL0     H19592   7.151   9.070   7.144 -0.4307  0.6163  0.1565
  867MOL0     H19593   7.393   9.001   7.173 -1.0096 -0.0002  2.7179
  867MOL0     H19594   7.330   8.836   7.187  0.2467 -0.2201 -0.1527
  867MOL0     H19595   7.324   8.675   6.997 -0.5575  1.9626  1.6536
  867MOL0     H19596   7.376   8.704   6.619  2.6141 -0.5378 -1.3609
  867MOL0     H19597   7.398   8.569   6.727 -1.5147 -0.4804 -3.7708
  867MOL0     H19598   7.593   8.622   6.584  0.8010 -1.8324  1.8863
  867MOL0     H19599   7.617   8.773   6.683 -0.7718  0.3399 -0.4595
  867MOL0     H19600   7.613   8.637   6.881  0.8124  0.7006  0.0740
  867MOL0     H19601   7.602   8.489   6.782 -0.9876  0.5623  3.7541
  867MOL0     H19602   7.802   8.579   6.663 -0.6389 -2.0336  0.6728
  867MOL0     H19603   7.823   8.711   6.774  1.2127 -1.0373 -1.6401
  867MOL0     H19604   8.045   8.605   6.661 -3.2032 -1.5076  1.0503
  867MOL0     H19605   8.409   8.600   6.656  2.5317  1.5342  4.2421
  867MOL0     H19606   8.342   8.753   6.682 -0.2334 -0.1554 -1.6989
  867MOL0     H19607   8.268   8.645   6.563  1.2798 -0.9804  0.0491
  867MOL0     H19608   8.508   8.564   7.227 -1.9358 -1.7907 -1.5313
  867MOL0     H19609   8.731   8.595   7.328  1.8677 -1.5068  1.7522
  867MOL0     H19610   9.066   8.373   7.100 -0.8842 -0.8368  1.4956
  867MOL0     H19611   9.054   8.545   7.071 -0.8304 -2.0392 -1.3152
  867MOL0     H19612   9.215   8.561   7.294 -1.1627 -1.8976  2.1379
  867MOL0     H19613   9.207   8.392   7.295 -3.3858 -2.6885 -2.4232
  867MOL0     H19614   9.303   8.515   7.025  2.4056  1.2241 -0.7715
  867MOL0     H19615   9.352   8.364   7.102  1.4588  0.3473 -0.9966
  867MOL0     H19616   9.498   8.486   7.243 -2.6172  0.0546  0.4626
  867MOL0     H19617   9.437   8.643   7.191  2.3866  0.0861  1.8699
  867MOL0     H19618   9.559   8.441   6.985 -2.4939  0.5207 -0.6664
  867MOL0     H19619   9.510   8.608   6.966  0.4396  1.2142  0.0811
  867MOL0     H19620   9.675   8.687   7.119  0.9996  0.6106 -0.8835
  867MOL0     H19621   9.745   8.619   6.966 -0.0975  1.2028 -0.0889
  867MOL0     H19622   9.822   8.428   7.070  1.1717 -0.7462  1.2404
  867MOL0     H19623   9.748   8.444   7.214  1.0238 -3.3614 -2.3813
  867MOL0     H19624   9.870   8.649   7.273 -1.3123 -0.1522 -0.8081
  867MOL0     H19625   9.969   8.621   7.126  2.4524 -3.5056  0.3433
  867MOL0     H19626   8.896   8.360   6.994 -0.7172 -0.5289  0.4616
  867MOL0     H19627   8.666   8.330   6.915  1.6401 -1.8751  1.0170
  867MOL0     H19628   8.231   8.451   7.089 -3.1351 -0.0899  2.7072
  867MOL0     H19629   7.984   8.447   7.046 -0.0211 -0.4846 -0.4542
  867MOL0     H19630   6.574   8.830   6.616  4.2744 -0.0822  0.8196
  867MOL0     H19631   6.359   8.733   6.558 -0.6898  1.3519 -0.4243
  867MOL0     H19632   6.179   8.345   6.305  0.4102  1.5092  1.6627
  867MOL0     H19633   5.999   8.224   6.248  1.3277 -0.5316  0.8304
  867MOL0     H19634   5.837   8.192   6.075  0.0641 -2.2960 -0.5014
  867MOL0     H19635   5.795   8.136   6.240  1.0751  0.9519 -0.1159
  867MOL0     H19636   5.600   8.233   6.030  0.9088  3.2871  1.9683
  867MOL0     H19637   5.561   8.143   6.181 -0.8672  1.2344 -0.8443
  867MOL0     H19638   5.753   7.978   6.029  0.4200  1.6053 -0.2972
  867MOL0     H19639   5.583   7.949   6.075 -0.8375 -0.5659 -0.8919
  867MOL0     H19640   5.505   8.095   5.866 -1.1539 -1.2899 -1.4263
  867MOL0     H19641   5.603   7.953   5.817 -1.5164  1.3105  1.4607
  867MOL0     H19642   5.857   8.229   5.673 -1.6787  2.7743 -0.0428
  867MOL0     H19643   5.748   8.570   6.256 -1.1396 -0.5340  1.3255
  867MOL0     H19644   5.975   8.764   6.460  2.0360  3.7777 -1.8133
  867MOL0     H19645   6.001   8.794   6.288  0.1868  1.6648  0.6472
  867MOL0     H19646   5.838   8.778   6.368  0.6672  2.0029 -0.3660
  868MOL0     O19647   3.102   3.327   9.638 -0.8102 -0.4223 -0.3049
  868MOL0     C19648   3.065   3.414   9.715 -0.2629 -0.2677  0.3387
  868MOL0     O19649   2.941   3.438   9.744  0.9906  1.5265  0.3862
  868MOL0     C19650   2.848   3.332   9.747  0.0747  0.6988 -0.3313
  868MOL0     C19651   2.822   3.255   9.857  0.2717  0.1688  0.4603
  868MOL0     C19652   2.728   3.154   9.856  0.3833  0.6040 -0.2199
  868MOL0     C19653   2.635   3.146   9.750  0.4255 -0.2749 -0.4683
  868MOL0     O19654   2.535   3.045   9.757 -0.3845 -0.3263  0.0422
  868MOL0     C19655   2.403   3.078   9.726  0.4493 -0.9942  0.1671
  868MOL0     C19656   2.345   3.159   9.835 -0.4539  0.1051  0.3172
  868MOL0     C19657   2.192   3.180   9.855 -0.6502 -0.1679  0.1853
  868MOL0     C19658   2.115   3.167   9.721 -0.9467 -0.2741  0.1923
  868MOL0     C19659   1.988   3.245   9.727  0.3112  0.6426 -0.3015
  868MOL0     C19660   1.887   3.184   9.821 -0.1934  0.0242  0.4884
  868MOL0     C19661   1.758   3.265   9.814  0.5929 -0.1503 -0.5188
  868MOL0     C19662   1.626   3.196   9.865  0.1508 -0.2308 -0.6057
  868MOL0     N19663   1.660   3.116   9.982 -0.2180  0.2441  0.3547
  868MOL0     C19664   1.673   3.178  10.104  0.2697  0.3272 -0.1389
  868MOL0     C19665   1.722   3.088  10.182 -0.7948 -0.9565  0.3679
  868MOL0     C19666   1.771   3.118  10.325  0.4399 -0.5109 -0.0765
  868MOL0     C19667   1.919   3.089  10.340  0.2419  0.0323 -0.7106
  868MOL0     C19668   1.964   3.090  10.485  0.0911 -0.8792 -0.2769
  868MOL0     C19669   2.108   3.037  10.506  0.4983 -0.7267  0.7550
  868MOL0     O19670   2.197   3.145  10.467  0.5689  0.5416 -0.3967
  868MOL0     C19671   2.319   3.093  10.434  0.1850  0.1000 -0.0661
  868MOL0     C19672   2.396   3.012  10.520 -0.5498 -0.6005  0.4253
  868MOL0     C19673   2.521   2.970  10.489 -0.6616  0.3391 -0.1877
  868MOL0     C19674   2.579   2.847  10.563 -0.1519 -0.4753 -0.4640
  868MOL0     C19675   2.589   3.040  10.375  0.3135  0.2304 -0.1535
  868MOL0     C19676   2.731   3.019  10.345 -0.7030 -0.5307 -0.5717
  868MOL0     O19677   2.811   3.005  10.451  0.2366  0.5507  0.2025
  868MOL0     C19678   2.933   2.948  10.419 -0.0680 -0.5113  0.0817
  868MOL0     C19679   3.026   3.027  10.362  0.3302 -0.7888  0.7114
  868MOL0     C19680   3.151   2.988  10.329  0.5223 -0.1974 -0.4650
  868MOL0     C19681   3.191   2.858  10.369 -1.1134  0.6357  0.8988
  868MOL0     O19682   3.315   2.806  10.326 -0.0211 -0.1163 -0.5515
  868MOL0     C19683   3.423   2.895  10.295  0.0098 -0.6489  0.2380
  868MOL0     C19684   3.554   2.820  10.280 -0.0084 -0.5644  1.0330
  868MOL0     C19685   3.673   2.917  10.237 -0.7590 -0.2009 -0.6760
  868MOL0     C19686   3.808   2.858  10.269  0.3783 -0.0406  0.3276
  868MOL0     C19687   3.923   2.914  10.179 -0.6635 -0.2507  0.3719
  868MOL0     C19688   4.059   2.861  10.221 -0.5924  0.2945 -0.0711
  868MOL0     C19689   4.181   2.933  10.158  0.9613  0.6703  0.3229
  868MOL0     C19690   4.309   2.871  10.208  0.4701 -0.0455 -0.2214
  868MOL0    Cl19691   4.444   2.975  10.164  0.4999  0.5078 -0.3132
  868MOL0     C19692   3.108   2.775  10.434 -0.1510  0.2728 -0.1016
  868MOL0     C19693   2.978   2.818  10.451  0.3261  0.4079  0.0154
  868MOL0     O19694   2.774   3.038  10.236  0.2261 -0.3903 -0.1484
  868MOL0     C19695   2.506   3.110  10.282 -0.3931  0.5789  0.5676
  868MOL0     C19696   2.374   3.141  10.314 -0.0866  0.0171  0.1860
  868MOL0     N19697   1.738   2.969  10.112  0.4786 -0.0804 -0.6689
  868MOL0     N19698   1.688   2.981   9.992 -0.8411  0.7432  0.9799
  868MOL0     C19699   2.654   3.227   9.643  0.3960  0.1346 -0.7342
  868MOL0     C19700   2.764   3.314   9.635 -0.0148  0.5169  0.5935
  868MOL0     C19701   3.159   3.495   9.796  0.9838 -0.4803  0.8497
  868MOL0     C19702   3.112   3.593   9.889 -1.0130 -0.0882 -0.1700
  868MOL0     C19703   3.198   3.655   9.980 -0.1197  0.6185 -0.0662
  868MOL0     C19704   3.332   3.637   9.983 -0.4227 -0.6508 -0.2803
  868MOL0     O19705   3.406   3.702  10.086 -0.2952 -0.4825 -0.0633
  868MOL0     C19706   3.543   3.670  10.111  0.0370 -0.1066  0.3197
  868MOL0     C19707   3.635   3.746  10.023 -0.5691 -0.3291  0.7236
  868MOL0     C19708   3.765   3.661  10.008  0.0814  0.0311 -0.1462
  868MOL0     C19709   3.867   3.725   9.913 -0.0284 -0.4284 -0.3893
  868MOL0     C19710   3.975   3.633   9.893 -0.4419  0.6271 -0.0973
  868MOL0     C19711   4.058   3.553   9.856 -1.0422  0.4951  0.1070
  868MOL0     C19712   3.383   3.557   9.878  0.1092 -0.3957  0.3200
  868MOL0     C19713   3.301   3.481   9.798 -1.3529  0.5651  1.0317
  868MOL0     C19714   3.378   3.377   9.711  0.2620  0.2447 -0.2533
  868MOL0     H19715   2.890   3.271   9.940 -1.8519  2.5545  1.8979
  868MOL0     H19716   2.723   3.091   9.945  2.0709 -1.4066 -1.4581
  868MOL0     H19717   2.335   2.992   9.720 -0.8155 -0.1437  1.7370
  868MOL0     H19718   2.388   3.128   9.629  0.8902 -2.9066 -0.9422
  868MOL0     H19719   2.376   3.109   9.927 -0.0610 -1.7364 -0.7751
  868MOL0     H19720   2.391   3.257   9.820 -3.2846  1.0346 -4.6005
  868MOL0     H19721   2.150   3.114   9.932 -4.2199 -2.3190 -3.2395
  868MOL0     H19722   2.187   3.283   9.891  1.6098  0.7381 -1.8430
  868MOL0     H19723   2.165   3.208   9.634 -0.3693 -2.5916 -0.6548
  868MOL0     H19724   2.094   3.060   9.708 -1.3944 -0.6207  3.1527
  868MOL0     H19725   1.947   3.253   9.626  1.2652  1.3868 -0.6505
  868MOL0     H19726   2.003   3.351   9.749 -1.9137  0.4638  2.5666
  868MOL0     H19727   1.861   3.081   9.795  1.2050 -0.4035  0.7147
  868MOL0     H19728   1.917   3.187   9.926 -3.9802  2.0038  1.7378
  868MOL0     H19729   1.731   3.294   9.711  0.1733 -0.3428 -0.4645
  868MOL0     H19730   1.771   3.354   9.876  2.6995 -0.2215 -0.7935
  868MOL0     H19731   1.550   3.275   9.872  0.2604  0.0122 -1.8866
  868MOL0     H19732   1.583   3.128   9.791 -0.5546  1.0820 -1.4616
  868MOL0     H19733   1.654   3.285  10.115 -1.6818 -0.1407  1.5697
  868MOL0     H19734   1.711   3.061  10.397 -1.0422  0.8904 -0.1654
  868MOL0     H19735   1.740   3.217  10.358  2.3595  0.3514 -0.7138
  868MOL0     H19736   1.951   2.992  10.298  2.7479  0.0883  0.8248
  868MOL0     H19737   1.969   3.164  10.278  0.8067  0.7687  0.6082
  868MOL0     H19738   1.942   3.189  10.527  0.9261 -0.9675  0.3888
  868MOL0     H19739   1.907   3.014  10.539  0.8962 -0.9225  0.5311
  868MOL0     H19740   2.131   3.018  10.611  4.9829  2.0708  0.5886
  868MOL0     H19741   2.135   2.948  10.448  3.6811  0.8033 -0.3637
  868MOL0     H19742   2.347   2.980  10.611 -0.3981 -1.2729  0.2763
  868MOL0     H19743   2.506   2.766  10.571  1.1512 -1.5108  2.1587
  868MOL0     H19744   2.635   2.869  10.655 -0.5826 -3.5114  0.6462
  868MOL0     H19745   2.649   2.805  10.490  1.8275  0.4878  0.8013
  868MOL0     H19746   2.982   3.124  10.343  0.3089 -0.5850  1.7454
  868MOL0     H19747   3.222   3.053  10.277  3.4536 -2.6499  0.1664
  868MOL0     H19748   3.393   2.945  10.203 -0.2252 -1.6857 -0.2675
  868MOL0     H19749   3.437   2.973  10.370  2.0147 -0.7971  0.0576
  868MOL0     H19750   3.594   2.767  10.367  2.2433 -0.4558  0.1155
  868MOL0     H19751   3.551   2.744  10.201  0.0546  0.5207 -0.0295
  868MOL0     H19752   3.671   3.016  10.284 -1.6643 -1.1444  1.4004
  868MOL0     H19753   3.665   2.931  10.129 -2.6611 -0.9790 -0.6758
  868MOL0     H19754   3.812   2.751  10.249  3.5677  0.5210 -3.0066
  868MOL0     H19755   3.824   2.874  10.376 -1.2215  1.4121  0.4129
  868MOL0     H19756   3.908   2.890  10.074 -0.9018  2.4433 -0.2804
  868MOL0     H19757   3.922   3.023  10.187 -0.2824 -0.2005 -0.1901
  868MOL0     H19758   4.057   2.754  10.199  2.9910  0.1544 -0.3920
  868MOL0     H19759   4.066   2.864  10.330  0.0055  0.3243 -0.1065
  868MOL0     H19760   4.162   3.039  10.179  0.0906  0.6493 -0.2832
  868MOL0     H19761   4.178   2.918  10.050  2.0134  2.5908 -0.0234
  868MOL0     H19762   4.320   2.770  10.169  0.4074 -0.1197 -0.0459
  868MOL0     H19763   4.308   2.867  10.317 -1.7141  0.7123 -0.1654
  868MOL0     H19764   3.133   2.675  10.466  1.3748  0.6372 -0.0823
  868MOL0     H19765   2.914   2.743  10.495  0.8160  1.2720  2.3644
  868MOL0     H19766   2.539   3.140  10.183 -0.8642  0.3852  0.3491
  868MOL0     H19767   2.305   3.191  10.246 -0.1229  0.5593  0.6134
  868MOL0     H19768   2.589   3.217   9.557 -0.6042  0.6107 -0.0478
  868MOL0     H19769   2.777   3.366   9.541 -0.6303 -1.3177 -0.5608
  868MOL0     H19770   3.008   3.625   9.890 -0.1791  3.0088  1.8772
  868MOL0     H19771   3.143   3.694  10.065 -0.8388  0.5465 -0.4803
  868MOL0     H19772   3.560   3.710  10.212 -4.1078 -2.4098  2.1867
  868MOL0     H19773   3.565   3.563  10.113  0.7290 -0.0298 -1.6521
  868MOL0     H19774   3.671   3.840  10.064 -0.9558  0.9223 -1.6367
  868MOL0     H19775   3.595   3.775   9.926 -1.3468  1.0758  1.4388
  868MOL0     H19776   3.813   3.644  10.105 -0.4199 -1.6853 -0.1651
  868MOL0     H19777   3.739   3.566   9.960 -1.8223  0.2947  0.2709
  868MOL0     H19778   3.912   3.809   9.966 -1.3963 -0.1141  0.3276
  868MOL0     H19779   3.827   3.757   9.817 -2.5476 -1.0424  0.3912
  868MOL0     H19780   4.129   3.475   9.836 -0.7705  1.2996 -2.4143
  868MOL0     H19781   3.490   3.569   9.865  0.4427 -2.1156  1.1735
  868MOL0     H19782   3.366   3.395   9.604 -0.1803 -1.2724 -0.4834
  868MOL0     H19783   3.482   3.375   9.745  0.2388 -3.7493 -0.0230
  868MOL0     H19784   3.351   3.273   9.732  1.2980 -0.7653 -3.4035
  869MOL0     O19785   1.227   9.259   7.283  0.3873 -0.2168  0.1917
  869MOL0     C19786   1.201   9.163   7.342 -0.6194  0.6306  1.1080
  869MOL0     O19787   1.288   9.053   7.348  0.1635  0.3199  1.0133
  869MOL0     C19788   1.417   9.060   7.288 -0.2849 -0.0310  0.7446
  869MOL0     C19789   1.430   9.038   7.152 -1.3458 -0.1927 -0.2268
  869MOL0     C19790   1.560   9.028   7.108  0.2223 -0.1760  0.2328
  869MOL0     C19791   1.676   9.034   7.185  0.5545 -0.1275  0.0961
  869MOL0     O19792   1.805   9.050   7.133  0.5566  0.3159  0.3186
  869MOL0     C19793   1.843   8.972   7.018 -0.4025 -0.8420 -0.1339
  869MOL0     C19794   1.983   8.918   7.043 -1.1374 -0.0771  0.3690
  869MOL0     C19795   2.022   8.820   6.929  0.1603 -0.4597 -0.2628
  869MOL0     C19796   2.139   8.733   6.973 -0.9477 -0.6237  0.4991
  869MOL0     C19797   2.231   8.684   6.861 -0.6213 -0.3746 -0.3626
  869MOL0     C19798   2.352   8.601   6.920 -0.3003  0.8063 -0.5664
  869MOL0     C19799   2.426   8.530   6.797  0.1047 -0.4594  0.9227
  869MOL0     C19800   2.518   8.636   6.716  0.2374  0.4274  0.2046
  869MOL0     N19801   2.600   8.712   6.801 -0.2462 -0.7606  1.0317
  869MOL0     C19802   2.688   8.657   6.898 -0.9468  0.4132 -0.2248
  869MOL0     C19803   2.735   8.769   6.963  0.1578 -0.9370  0.3045
  869MOL0     C19804   2.820   8.783   7.081 -0.0818 -0.8434 -0.6537
  869MOL0     C19805   2.917   8.906   7.068  0.1221  0.2177  0.2653
  869MOL0     C19806   2.999   8.929   7.194 -0.2903  0.3056 -0.9534
  869MOL0     C19807   2.915   8.928   7.322 -0.1582  0.4012  0.2745
  869MOL0     O19808   3.000   8.990   7.425  0.2811 -0.8313  0.7918
  869MOL0     C19809   2.942   9.007   7.549  0.3006 -0.0342  0.3381
  869MOL0     C19810   2.810   8.971   7.594 -0.7701  1.0558  0.8070
  869MOL0     C19811   2.764   8.978   7.725  0.3651  0.1616 -0.9337
  869MOL0     C19812   2.628   8.931   7.765 -0.4355 -0.6396 -0.5249
  869MOL0     C19813   2.847   9.038   7.827 -0.4541  0.9886  0.7844
  869MOL0     C19814   2.817   9.044   7.971  0.9998 -0.9322 -0.0913
  869MOL0     O19815   2.912   9.105   8.053  0.5340  0.3187 -0.9461
  869MOL0     C19816   2.898   9.104   8.189 -0.0431 -0.4179  0.0974
  869MOL0     C19817   2.972   9.006   8.258  0.4612 -0.1187 -0.2658
  869MOL0     C19818   2.968   9.001   8.397  0.1316  0.6806 -0.3760
  869MOL0     C19819   2.887   9.087   8.467  0.2700 -0.1702  0.5020
  869MOL0     O19820   2.886   9.082   8.603 -0.1414  0.7561 -0.0671
  869MOL0     C19821   2.787   9.165   8.675  0.4119  0.0810  0.6086
  869MOL0     C19822   2.799   9.133   8.818  0.4025 -0.2309 -0.3875
  869MOL0     C19823   2.756   9.261   8.898 -0.0228 -0.4634  0.2063
  869MOL0     C19824   2.676   9.253   9.035 -0.4317 -0.5706 -0.7639
  869MOL0     C19825   2.770   9.229   9.139  0.1273  0.6485 -0.5650
  869MOL0     C19826   2.791   9.078   9.175 -0.0676 -0.2994  0.5740
  869MOL0     C19827   2.891   9.070   9.296 -0.5640  0.5060  0.4387
  869MOL0     C19828   2.881   8.944   9.365 -0.3853 -0.7701 -0.4376
  869MOL0    Cl19829   2.955   8.816   9.266 -0.3864  0.0273 -0.1957
  869MOL0     C19830   2.810   9.180   8.397  1.0916  0.8747  0.0428
  869MOL0     C19831   2.826   9.200   8.256 -0.1852  0.6379  0.2978
  869MOL0     O19832   2.707   9.010   8.011  0.4129  0.8263  0.1843
  869MOL0     C19833   2.971   9.076   7.782  0.2595 -0.7682  0.7067
  869MOL0     C19834   3.015   9.068   7.646 -0.6257  0.7088  0.4802
  869MOL0     N19835   2.672   8.877   6.909 -0.8173  0.4354 -0.5763
  869MOL0     N19836   2.596   8.842   6.806 -0.2009  0.3833  0.6706
  869MOL0     C19837   1.665   9.064   7.319  0.6130 -0.5495  0.8468
  869MOL0     C19838   1.534   9.075   7.370  0.0717  0.9187 -0.7132
  869MOL0     C19839   1.060   9.134   7.406 -0.2820  0.2694  0.2757
  869MOL0     C19840   1.064   9.041   7.519 -0.0474  1.3145  0.3631
  869MOL0     C19841   0.950   9.007   7.587  0.2048 -0.6691  0.2553
  869MOL0     C19842   0.829   9.058   7.548  0.3306 -0.3254  0.2278
  869MOL0     O19843   0.705   9.010   7.590  0.3769 -0.0143  1.0559
  869MOL0     C19844   0.694   8.960   7.724 -0.3743  0.9495  0.5002
  869MOL0     C19845   0.711   9.084   7.818 -0.4746 -0.3224  0.1696
  869MOL0     C19846   0.643   9.054   7.954 -0.7982  0.0022 -0.7284
  869MOL0     C19847   0.688   9.160   8.063 -0.3127  0.1076 -0.4485
  869MOL0     C19848   0.671   9.295   8.027 -0.3063 -0.7469  0.6764
  869MOL0     C19849   0.660   9.417   7.999  0.4138  0.4028  0.2496
  869MOL0     C19850   0.823   9.142   7.440 -0.5487 -0.0320  0.8767
  869MOL0     C19851   0.933   9.186   7.366  0.3272 -0.2635  0.4794
  869MOL0     C19852   0.917   9.284   7.259 -1.0524  0.2565 -1.1163
  869MOL0     H19853   1.343   9.047   7.088 -0.7730  1.4883 -0.8371
  869MOL0     H19854   1.568   9.013   7.000  4.0086 -0.9067  0.4761
  869MOL0     H19855   1.861   9.043   6.937  2.6314 -0.0023  1.1757
  869MOL0     H19856   1.762   8.904   6.989 -0.0321 -1.3358 -0.0171
  869MOL0     H19857   2.056   8.998   7.056  1.4257 -1.8615 -1.8660
  869MOL0     H19858   1.981   8.859   7.135  0.6093 -1.9935 -0.7497
  869MOL0     H19859   1.931   8.762   6.911 -1.3468  1.9619 -0.9643
  869MOL0     H19860   2.045   8.878   6.839 -2.4749  1.2872  0.0835
  869MOL0     H19861   2.206   8.791   7.036  0.0543 -0.9068 -0.2769
  869MOL0     H19862   2.087   8.652   7.025 -3.9805 -0.8130 -2.4093
  869MOL0     H19863   2.261   8.768   6.797 -1.3207 -0.4037 -0.7436
  869MOL0     H19864   2.168   8.628   6.791 -1.3321  0.3877 -0.3507
  869MOL0     H19865   2.415   8.671   6.974 -2.0653  1.2106  1.0937
  869MOL0     H19866   2.313   8.513   6.972 -1.7686  1.2860 -0.8126
  869MOL0     H19867   2.348   8.498   6.726  0.9860 -0.0433 -0.2637
  869MOL0     H19868   2.493   8.452   6.833  1.1902  0.2001  0.3769
  869MOL0     H19869   2.571   8.584   6.636  0.1901  1.6999 -0.6795
  869MOL0     H19870   2.451   8.708   6.667 -0.0734  1.0697  1.5443
  869MOL0     H19871   2.704   8.554   6.930 -1.2280 -0.6412 -3.1343
  869MOL0     H19872   2.888   8.700   7.099  0.7018  0.1401  1.1473
  869MOL0     H19873   2.756   8.779   7.169 -0.4713 -1.2447 -0.9541
  869MOL0     H19874   2.984   8.876   6.987 -0.5487 -1.6681  0.3438
  869MOL0     H19875   2.867   8.999   7.040 -1.3241 -0.3728  0.7839
  869MOL0     H19876   3.079   8.855   7.204 -0.2657  0.6661  3.3302
  869MOL0     H19877   3.056   9.023   7.193  2.1387 -0.9428  2.3244
  869MOL0     H19878   2.829   8.993   7.303  1.5634  2.5275 -0.6576
  869MOL0     H19879   2.892   8.822   7.341  1.2083 -0.0989 -0.6661
  869MOL0     H19880   2.740   8.914   7.533  1.6745 -2.6675  1.1653
  869MOL0     H19881   2.632   8.843   7.830 -1.7153 -0.1846  0.2275
  869MOL0     H19882   2.584   8.897   7.671  1.4299 -2.7875 -0.6885
  869MOL0     H19883   2.561   9.007   7.807 -0.9262 -1.2350 -0.2079
  869MOL0     H19884   3.021   8.928   8.200 -4.5847 -2.1490 -2.3142
  869MOL0     H19885   3.023   8.934   8.463  0.3610  2.1030  0.9316
  869MOL0     H19886   2.817   9.270   8.662  2.3734 -0.3945  0.9503
  869MOL0     H19887   2.681   9.150   8.652  0.7307 -0.9741 -0.2488
  869MOL0     H19888   2.724   9.059   8.845  1.6085 -0.2149  3.6766
  869MOL0     H19889   2.895   9.089   8.846  0.8352  1.4746  0.9954
  869MOL0     H19890   2.688   9.323   8.839 -0.4591 -0.5504  0.6107
  869MOL0     H19891   2.854   9.310   8.903  0.8255 -1.7424 -2.1686
  869MOL0     H19892   2.593   9.181   9.030 -1.1656  0.1180  0.7466
  869MOL0     H19893   2.636   9.354   9.051  1.5528 -0.1006  1.8356
  869MOL0     H19894   2.864   9.281   9.123  0.0487  1.4070  1.1577
  869MOL0     H19895   2.717   9.274   9.224 -0.1757  1.3306 -1.1103
  869MOL0     H19896   2.830   9.015   9.094 -0.6302 -1.7770  1.4050
  869MOL0     H19897   2.691   9.043   9.201  0.3445 -0.0673  2.6219
  869MOL0     H19898   2.869   9.146   9.372 -0.1081  0.5741  0.5072
  869MOL0     H19899   2.994   9.088   9.263 -0.7006  1.7164  0.6360
  869MOL0     H19900   2.776   8.919   9.380 -0.3166  1.2678  7.4833
  869MOL0     H19901   2.922   8.943   9.466 -2.0636 -0.0322  0.2751
  869MOL0     H19902   2.726   9.239   8.434 -1.3509  0.1003 -3.6682
  869MOL0     H19903   2.774   9.276   8.199  0.9447  1.6645  0.5835
  869MOL0     H19904   3.052   9.131   7.829  0.4907  1.2615 -1.8548
  869MOL0     H19905   3.114   9.103   7.619  0.4218 -2.0394  0.4734
  869MOL0     H19906   1.758   9.092   7.367  1.4295 -2.5964  0.5517
  869MOL0     H19907   1.514   9.090   7.476 -1.2302  2.2991 -1.1229
  869MOL0     H19908   1.158   8.992   7.542 -2.2346 -2.6777  1.6426
  869MOL0     H19909   0.947   8.945   7.676 -1.8368  1.4692  1.8043
  869MOL0     H19910   0.592   8.926   7.741 -1.3311  1.4115 -3.4236
  869MOL0     H19911   0.770   8.884   7.744 -0.4432  0.8352  0.3314
  869MOL0     H19912   0.655   9.169   7.777 -1.2765 -1.1219 -0.4341
  869MOL0     H19913   0.814   9.116   7.836 -1.0457  0.2788  2.7655
  869MOL0     H19914   0.534   9.057   7.952 -0.8834  0.6819  1.7118
  869MOL0     H19915   0.668   8.955   7.994 -1.4315 -0.6391 -1.8559
  869MOL0     H19916   0.793   9.137   8.083 -0.3158  0.7062  0.2427
  869MOL0     H19917   0.634   9.142   8.156  1.7105 -1.5231  0.4871
  869MOL0     H19918   0.661   9.520   7.971  1.8491  1.5668  4.1058
  869MOL0     H19919   0.725   9.179   7.411  0.8591  2.2056 -1.5227
  869MOL0     H19920   1.000   9.283   7.187  0.1931 -1.9143  0.2537
  869MOL0     H19921   0.821   9.272   7.209 -1.0579 -0.4248 -0.9475
  869MOL0     H19922   0.919   9.382   7.308 -0.2340 -0.7200  0.9449
  870MOL0     O19923  10.922   2.283   9.492  0.7875 -0.1919 -0.3343
  870MOL0     C19924  10.832   2.212   9.544 -0.6445 -0.1151  0.5792
  870MOL0     O19925  10.719   2.259   9.612  0.0393  0.1817  0.0039
  870MOL0     C19926  10.708   2.392   9.640  0.0364 -0.2312  0.2149
  870MOL0     C19927  10.799   2.454   9.724 -0.2722  0.3206 -0.0451
  870MOL0     C19928  10.791   2.590   9.749  0.1935 -0.6437  0.4010
  870MOL0     C19929  10.708   2.675   9.677 -0.3172 -0.4875 -0.4145
  870MOL0     O19930  10.730   2.811   9.691 -0.4719  0.5096  0.9636
  870MOL0     C19931  10.767   2.864   9.816  0.0975 -0.2780 -1.5260
  870MOL0     C19932  10.881   2.962   9.797 -0.6015  0.0009  0.1465
  870MOL0     C19933  10.857   3.074   9.695 -0.1174  0.2597 -0.6669
  870MOL0     C19934  10.968   3.184   9.712  0.1038 -0.0121  0.2434
  870MOL0     C19935  10.968   3.282   9.592 -0.2362 -1.2521  0.9317
  870MOL0     C19936  11.010   3.217   9.467 -0.3518  0.0340  0.6976
  870MOL0     C19937  11.021   3.321   9.349 -0.1536  0.0178  0.0146
  870MOL0     C19938  11.090   3.276   9.223  0.0947  0.5219  0.5875
  870MOL0     N19939  11.230   3.236   9.249  0.2803  0.0708 -0.4312
  870MOL0     C19940  11.333   3.318   9.280 -0.3238 -0.1851 -0.4103
  870MOL0     C19941  11.448   3.240   9.302 -0.5736 -0.3736  0.4239
  870MOL0     C19942  11.593   3.271   9.347 -0.5026 -0.0013  0.0841
  870MOL0     C19943  11.679   3.263   9.218  0.0100 -0.4958  0.0884
  870MOL0     C19944  11.821   3.297   9.262 -1.2065 -0.4153  0.0840
  870MOL0     C19945  11.919   3.298   9.145 -0.2532  0.6180 -0.9382
  870MOL0     O19946  12.056   3.298   9.204 -0.1412  0.3034 -0.0025
  870MOL0     C19947  12.119   3.417   9.232  0.1551 -0.4386  0.7569
  870MOL0     C19948  12.252   3.416   9.280  0.2270  0.0836 -0.5931
  870MOL0     C19949  12.326   3.528   9.310  0.5701 -0.1407 -0.3553
  870MOL0     C19950  12.452   3.508   9.397  0.3425  0.0693 -0.7082
  870MOL0     C19951  12.270   3.660   9.277 -0.8998  0.5008 -0.4139
  870MOL0     C19952  12.331   3.797   9.301 -0.1787 -0.9340 -0.5498
  870MOL0     O19953  12.469   3.811   9.284  0.1508 -0.5296 -0.1039
  870MOL0     C19954  12.540   3.929   9.306 -0.5195  0.3161  0.0522
  870MOL0     C19955  12.485   4.062   9.311 -0.2383  0.6728 -1.2866
  870MOL0     C19956  12.574   4.166   9.305 -0.3656 -0.8619 -0.5045
  870MOL0     C19957  12.715   4.151   9.319 -0.2171  0.1955  0.1222
  870MOL0     O19958  12.810   4.247   9.341 -0.1337  0.2325 -0.1677
  870MOL0     C19959  12.771   4.376   9.383  0.0211 -0.3652  0.1904
  870MOL0     C19960  12.898   4.435   9.428 -1.3593  0.7396  0.1753
  870MOL0     C19961  13.015   4.460   9.325 -0.3202  1.0957 -0.2993
  870MOL0     C19962  12.964   4.497   9.180  0.9494 -0.3851  0.9163
  870MOL0     C19963  13.097   4.529   9.113  0.3309  0.5912  0.2079
  870MOL0     C19964  13.087   4.583   8.974 -0.9857 -0.1694 -1.0040
  870MOL0     C19965  12.999   4.507   8.874  0.6927 -0.6725 -0.1345
  870MOL0     C19966  13.043   4.368   8.841 -0.5439  0.4184 -0.3954
  870MOL0    Cl19967  13.204   4.359   8.758 -0.0201 -0.0333 -0.0957
  870MOL0     C19968  12.769   4.023   9.324 -0.3187 -0.1768  0.0211
  870MOL0     C19969  12.685   3.921   9.304  0.0365  0.9618 -0.4179
  870MOL0     O19970  12.251   3.885   9.333  0.1378  0.3145  0.1722
  870MOL0     C19971  12.135   3.662   9.239  0.0033  0.0900 -0.2793
  870MOL0     C19972  12.059   3.545   9.208  0.3122  0.2050  0.2077
  870MOL0     N19973  11.400   3.110   9.301 -0.7504  0.4501 -0.1978
  870MOL0     N19974  11.278   3.105   9.273 -0.0821  0.2835  0.1978
  870MOL0     C19975  10.625   2.617   9.588 -0.0769 -0.2853  0.4337
  870MOL0     C19976  10.622   2.475   9.569  0.2490 -0.2721 -0.1847
  870MOL0     C19977  10.835   2.065   9.520  0.1786  0.0525  0.0391
  870MOL0     C19978  10.961   2.004   9.520  0.5215  0.9120  0.6124
  870MOL0     C19979  10.971   1.861   9.493  0.5300 -0.0033 -0.8659
  870MOL0     C19980  10.852   1.785   9.467 -0.5628  0.0233  0.8571
  870MOL0     O19981  10.851   1.646   9.454  0.3431  0.1789 -0.1559
  870MOL0     C19982  10.950   1.579   9.530 -0.1316 -0.0514  0.0552
  870MOL0     C19983  10.941   1.427   9.502  0.0802 -0.3493 -0.0462
  870MOL0     C19984  10.849   1.358   9.604 -0.2302 -0.2918 -0.1909
  870MOL0     C19985  10.788   1.233   9.542 -0.0889  0.1697  0.3680
  870MOL0     C19986  10.698   1.165   9.643  0.9205  1.2065 -0.1234
  870MOL0     C19987  10.617   1.123   9.724 -0.6692  0.5798  0.2777
  870MOL0     C19988  10.735   1.846   9.475  0.3268  0.2808  1.0022
  870MOL0     C19989  10.724   1.984   9.492  0.3557 -0.3284  0.8400
  870MOL0     C19990  10.587   2.034   9.476 -0.0701  0.1047 -0.1104
  870MOL0     H19991  10.879   2.388   9.758  0.1883 -0.3491 -2.2396
  870MOL0     H19992  10.874   2.634   9.804  0.3802  0.6644 -0.8429
  870MOL0     H19993  10.786   2.795   9.898 -1.5962 -0.6582 -1.4132
  870MOL0     H19994  10.676   2.915   9.851  0.7899 -0.7939  1.1988
  870MOL0     H19995  10.916   3.009   9.889  0.2991 -0.2893 -0.0355
  870MOL0     H19996  10.959   2.903   9.748 -0.0390  1.2152 -0.4475
  870MOL0     H19997  10.852   3.030   9.595 -0.9345  0.1731 -0.5920
  870MOL0     H19998  10.760   3.121   9.717  0.2526  1.4395 -1.4429
  870MOL0     H19999  10.937   3.228   9.807  0.4120 -1.8290  1.2200
  870MOL0     H20000  11.062   3.130   9.724  0.6904  0.1196 -2.8366
  870MOL0     H20001  11.042   3.361   9.614 -2.8792  0.8890  2.7916
  870MOL0     H20002  10.869   3.328   9.587  0.7105  1.4383  3.7692
  870MOL0     H20003  11.111   3.177   9.478 -0.6078 -0.8418  0.0058
  870MOL0     H20004  10.945   3.138   9.429 -0.4331  1.0954 -1.5979
  870MOL0     H20005  11.064   3.419   9.374 -1.3909  0.5228  0.2536
  870MOL0     H20006  10.916   3.349   9.331  0.9548  3.6445 -1.8290
  870MOL0     H20007  11.055   3.182   9.179  1.8123 -0.6708  1.6166
  870MOL0     H20008  11.090   3.361   9.154 -0.4328  0.6150  0.6990
  870MOL0     H20009  11.327   3.426   9.284  0.3586 -0.0503  5.4316
  870MOL0     H20010  11.618   3.188   9.414 -0.3698 -2.9888 -3.3408
  870MOL0     H20011  11.596   3.362   9.408 -0.7022  0.5767 -0.7546
  870MOL0     H20012  11.678   3.161   9.179 -1.4489  0.8916 -4.0657
  870MOL0     H20013  11.645   3.328   9.136  1.3896  0.3173  0.1247
  870MOL0     H20014  11.818   3.394   9.314 -2.4794 -0.3432 -0.0943
  870MOL0     H20015  11.845   3.217   9.332  1.2040  0.4917  0.3718
  870MOL0     H20016  11.906   3.200   9.099 -0.7824 -1.2036  2.7542
  870MOL0     H20017  11.899   3.375   9.070 -1.3776  1.8008  0.5195
  870MOL0     H20018  12.310   3.326   9.300 -0.1473  0.1499  0.9324
  870MOL0     H20019  12.533   3.497   9.324  0.5258 -1.6711 -0.2858
  870MOL0     H20020  12.452   3.416   9.457  1.4043  0.5695  0.0778
  870MOL0     H20021  12.484   3.598   9.450  5.5285 -1.4159 -0.7732
  870MOL0     H20022  12.378   4.081   9.320 -0.2946  0.2140 -0.9214
  870MOL0     H20023  12.547   4.271   9.309  3.2738  0.2556 -1.6450
  870MOL0     H20024  12.729   4.440   9.305  0.7648 -0.2750 -0.1428
  870MOL0     H20025  12.707   4.373   9.472  0.3401  2.5572  0.6003
  870MOL0     H20026  12.869   4.534   9.465  1.1959  1.9941 -0.9588
  870MOL0     H20027  12.937   4.369   9.507 -0.0271 -2.4799 -2.8878
  870MOL0     H20028  13.083   4.374   9.328 -1.8279 -0.0868  1.9877
  870MOL0     H20029  13.074   4.547   9.357 -1.2982  0.3589  4.0330
  870MOL0     H20030  12.893   4.581   9.182  1.1366 -0.0889 -1.7688
  870MOL0     H20031  12.917   4.413   9.128 -0.8635  1.5427 -0.7190
  870MOL0     H20032  13.152   4.600   9.175  2.5202 -1.7372  1.1198
  870MOL0     H20033  13.149   4.433   9.109 -3.4236 -1.6099 -2.2793
  870MOL0     H20034  13.190   4.605   8.945 -0.9774  1.4750  0.1398
  870MOL0     H20035  13.039   4.680   8.991 -0.7313 -0.3222  0.8473
  870MOL0     H20036  13.009   4.566   8.782  2.8497 -0.5566  0.1432
  870MOL0     H20037  12.894   4.501   8.906 -0.0451  1.1906 -1.9359
  870MOL0     H20038  12.965   4.328   8.776  0.7488 -0.5486 -1.4035
  870MOL0     H20039  13.052   4.309   8.932  2.1472  1.3355  0.0260
  870MOL0     H20040  12.874   4.011   9.350 -0.9665  3.3011  6.3009
  870MOL0     H20041  12.735   3.824   9.303  2.2273  1.9793  1.2637
  870MOL0     H20042  12.075   3.752   9.228 -1.2893 -0.5323  1.2591
  870MOL0     H20043  11.959   3.564   9.169  0.4715  1.7182  0.5130
  870MOL0     H20044  10.567   2.686   9.527  4.0292  2.1796 -1.1141
  870MOL0     H20045  10.545   2.426   9.510  1.2508  1.0562 -2.7902
  870MOL0     H20046  11.053   2.059   9.532  1.6069 -0.4530 -1.1211
  870MOL0     H20047  11.070   1.817   9.494 -0.8223 -3.3015 -1.4859
  870MOL0     H20048  11.049   1.618   9.505  0.1255 -0.0790  0.9888
  870MOL0     H20049  10.929   1.595   9.636 -1.2749 -1.7130  0.1226
  870MOL0     H20050  11.038   1.376   9.506  0.1950 -0.0744  1.2170
  870MOL0     H20051  10.910   1.408   9.399  4.1428 -2.2362 -1.0921
  870MOL0     H20052  10.911   1.318   9.685 -0.0687 -0.0027 -0.1694
  870MOL0     H20053  10.773   1.423   9.649 -1.3466 -1.0088 -0.9712
  870MOL0     H20054  10.862   1.161   9.507 -1.1357 -1.0799  0.6293
  870MOL0     H20055  10.723   1.254   9.456  2.9989 -1.3509 -2.5793
  870MOL0     H20056  10.548   1.096   9.802 -1.1022 -1.9673 -0.8756
  870MOL0     H20057  10.644   1.787   9.472 -1.6261  3.1181 -1.9436
  870MOL0     H20058  10.535   2.013   9.570  0.5799  1.8870  0.6770
  870MOL0     H20059  10.577   2.140   9.451 -0.7981  0.1852  0.5036
  870MOL0     H20060  10.528   1.969   9.410 -1.3926 -2.6037  3.4243
  871MOL0     O20061  10.308   2.651   9.400 -0.4441 -0.9388  0.4266
  871MOL0     C20062  10.217   2.569   9.412 -0.6187  0.3401 -0.2288
  871MOL0     O20063  10.231   2.432   9.373 -0.2650 -0.8124 -1.2617
  871MOL0     C20064  10.342   2.381   9.305 -0.5133  0.1599  0.1117
  871MOL0     C20065  10.458   2.449   9.262  0.2280 -1.3645  0.0920
  871MOL0     C20066  10.557   2.384   9.184 -0.4454  0.7714  0.1607
  871MOL0     C20067  10.549   2.250   9.157  0.9240  0.8341 -0.1743
  871MOL0     O20068  10.640   2.194   9.083 -0.5726  0.3928 -0.0976
  871MOL0     C20069  10.728   2.108   9.155 -0.1241 -0.4990  0.8962
  871MOL0     C20070  10.840   2.062   9.056 -0.0923 -0.1559 -0.1946
  871MOL0     C20071  10.925   2.179   9.004  0.7559 -0.1863 -0.5922
  871MOL0     C20072  11.056   2.133   8.944  0.3797  0.6013 -0.0320
  871MOL0     C20073  11.131   2.244   8.875 -0.1392 -0.3107 -0.8839
  871MOL0     C20074  11.247   2.185   8.797 -0.2047 -0.1267  0.2775
  871MOL0     C20075  11.324   2.295   8.724  0.0324 -0.8800 -0.2202
  871MOL0     C20076  11.237   2.367   8.621  0.3407  0.1419  0.1590
  871MOL0     N20077  11.326   2.457   8.540  0.6185  0.2444  0.0888
  871MOL0     C20078  11.345   2.599   8.554  1.3670  0.9855  0.6420
  871MOL0     C20079  11.443   2.623   8.460 -0.1732 -0.5226 -0.7171
  871MOL0     C20080  11.492   2.761   8.448 -0.6219 -1.1177  0.7205
  871MOL0     C20081  11.643   2.786   8.449 -0.2592  0.4998  0.0283
  871MOL0     C20082  11.707   2.733   8.578 -0.1446  0.5038 -0.2389
  871MOL0     C20083  11.849   2.792   8.594 -0.0873 -0.2032  0.6461
  871MOL0     O20084  11.839   2.932   8.595 -0.2627  0.2106 -0.3126
  871MOL0     C20085  11.949   3.002   8.557  0.0419 -0.6656 -1.1217
  871MOL0     C20086  12.084   2.959   8.570  0.0960 -0.2677  0.4950
  871MOL0     C20087  12.194   3.039   8.545 -0.1138 -0.1586  0.2343
  871MOL0     C20088  12.330   2.976   8.573  0.2136  0.3873 -0.1981
  871MOL0     C20089  12.171   3.172   8.497 -0.5313 -0.2442 -0.4242
  871MOL0     C20090  12.277   3.266   8.473 -0.2168  0.5127  0.6318
  871MOL0     O20091  12.248   3.396   8.507 -0.0800  0.1987  0.3035
  871MOL0     C20092  12.326   3.494   8.448  0.4355 -0.1006 -1.1666
  871MOL0     C20093  12.300   3.537   8.319  0.3121 -0.7702 -0.0963
  871MOL0     C20094  12.390   3.618   8.250 -0.0427  0.8701  0.7994
  871MOL0     C20095  12.508   3.656   8.315 -1.2686  0.8300 -0.5440
  871MOL0     O20096  12.616   3.718   8.262 -0.0329 -0.1696  0.3492
  871MOL0     C20097  12.594   3.806   8.149 -0.1241 -0.0693 -0.0843
  871MOL0     C20098  12.600   3.735   8.016  0.4634 -0.4568 -0.5676
  871MOL0     C20099  12.745   3.712   7.975 -0.3577 -0.6522  1.0097
  871MOL0     C20100  12.761   3.680   7.823  0.4784 -0.4996 -0.2180
  871MOL0     C20101  12.708   3.542   7.801 -0.1699 -0.4867  0.2506
  871MOL0     C20102  12.686   3.500   7.658  0.6045 -0.2833  0.1270
  871MOL0     C20103  12.737   3.367   7.622 -0.7272  0.2482  0.0916
  871MOL0     C20104  12.732   3.348   7.472 -0.7906 -0.5195 -0.5476
  871MOL0    Cl20105  12.574   3.290   7.407 -0.0054  0.0239 -0.3976
  871MOL0     C20106  12.536   3.625   8.449 -0.7318 -0.2263  0.3487
  871MOL0     C20107  12.445   3.536   8.516  0.0706 -0.5593  0.1469
  871MOL0     O20108  12.377   3.231   8.410  0.8556 -0.7081 -0.4274
  871MOL0     C20109  12.035   3.220   8.491 -0.1850  0.7860 -0.2871
  871MOL0     C20110  11.929   3.131   8.520  0.0720  0.1796  0.3680
  871MOL0     N20111  11.474   2.505   8.397 -0.4566  0.9089 -0.1260
  871MOL0     N20112  11.401   2.408   8.435  0.3156 -0.7694 -0.3159
  871MOL0     C20113  10.437   2.183   9.206  0.2814 -0.0844 -0.7580
  871MOL0     C20114  10.334   2.246   9.276 -0.6449  0.2862 -0.7292
  871MOL0     C20115  10.094   2.615   9.465  0.1238 -0.2961 -0.5525
  871MOL0     C20116   9.988   2.524   9.475 -0.7582 -0.2958  0.2022
  871MOL0     C20117   9.868   2.559   9.527  1.4638  0.1146  0.9749
  871MOL0     C20118   9.836   2.691   9.554  0.1981 -0.2216  0.1264
  871MOL0     O20119   9.706   2.708   9.592  0.0066  0.3475  0.5572
  871MOL0     C20120   9.664   2.840   9.643 -0.5797  0.0448  1.1993
  871MOL0     C20121   9.719   2.870   9.783 -0.6117  0.3014  0.6011
  871MOL0     C20122   9.645   2.988   9.848 -0.0834  0.2102 -0.1802
  871MOL0     C20123   9.654   2.995  10.002 -0.3764  0.5638  0.2515
  871MOL0     C20124   9.547   3.077  10.069 -1.0004  0.4926  1.4101
  871MOL0     C20125   9.457   3.136  10.126  0.0650  0.2885 -0.0501
  871MOL0     C20126   9.930   2.787   9.527  0.7443  0.3916  0.2391
  871MOL0     C20127  10.060   2.752   9.496 -0.1738  0.2384  0.3297
  871MOL0     C20128  10.161   2.868   9.477  0.1166  0.7258 -0.5916
  871MOL0     H20129  10.474   2.556   9.270 -1.0837 -1.2686  2.1270
  871MOL0     H20130  10.648   2.429   9.145 -0.6678  2.8868  1.8676
  871MOL0     H20131  10.675   2.018   9.189 -2.8776  1.1249  1.2357
  871MOL0     H20132  10.768   2.159   9.243  0.9876  1.6263 -0.7616
  871MOL0     H20133  10.894   1.985   9.112  3.3894  0.3039 -2.5809
  871MOL0     H20134  10.792   2.005   8.976 -1.1663 -1.4192  1.2764
  871MOL0     H20135  10.873   2.229   8.922  1.6638 -0.7160 -1.5294
  871MOL0     H20136  10.948   2.252   9.082 -0.1906 -1.1385  0.6216
  871MOL0     H20137  11.113   2.062   9.005 -1.6892 -3.2286 -2.1715
  871MOL0     H20138  11.016   2.071   8.864 -1.9757  0.7849  0.9098
  871MOL0     H20139  11.172   2.311   8.952 -2.6069 -0.8623  1.0378
  871MOL0     H20140  11.060   2.306   8.820 -1.7491  1.8038  3.1354
  871MOL0     H20141  11.315   2.125   8.857 -2.0307 -2.3123  0.3074
  871MOL0     H20142  11.216   2.114   8.720 -0.2998 -0.8292  0.9529
  871MOL0     H20143  11.407   2.254   8.667 -0.4047 -0.3408 -1.2687
  871MOL0     H20144  11.375   2.366   8.790  0.6526 -0.6264 -0.9630
  871MOL0     H20145  11.189   2.298   8.550 -2.5511  0.8288  1.3211
  871MOL0     H20146  11.155   2.421   8.669  1.5594  2.5777 -0.3562
  871MOL0     H20147  11.291   2.666   8.619 -1.3317  0.7844 -1.2066
  871MOL0     H20148  11.445   2.829   8.519  2.4574 -0.4810  2.3360
  871MOL0     H20149  11.449   2.781   8.350 -3.7486 -3.6846  1.3831
  871MOL0     H20150  11.683   2.733   8.362 -0.8670  0.1141 -0.0172
  871MOL0     H20151  11.662   2.893   8.434  1.3525  0.1218 -0.8490
  871MOL0     H20152  11.650   2.750   8.670 -0.6874  0.9046 -0.6465
  871MOL0     H20153  11.723   2.627   8.556  2.2701  0.2154  2.2920
  871MOL0     H20154  11.884   2.772   8.695  0.4654  1.5521  0.8350
  871MOL0     H20155  11.909   2.748   8.514 -0.4756 -0.0711  0.2760
  871MOL0     H20156  12.102   2.869   8.627 -0.8439 -0.4988  0.4455
  871MOL0     H20157  12.344   2.989   8.681 -1.0331 -1.3878  0.2338
  871MOL0     H20158  12.408   3.028   8.518  2.0973 -3.4138 -1.5062
  871MOL0     H20159  12.346   2.871   8.545  2.6729  0.0264  2.2009
  871MOL0     H20160  12.207   3.510   8.271  0.0809 -1.2223  0.5913
  871MOL0     H20161  12.364   3.660   8.153  2.3649  0.7922  0.0740
  871MOL0     H20162  12.491   3.842   8.164 -0.9348 -1.9202 -0.9031
  871MOL0     H20163  12.662   3.892   8.156 -1.5173  1.0013  1.0069
  871MOL0     H20164  12.557   3.638   8.043 -0.4164 -0.0978 -0.6558
  871MOL0     H20165  12.544   3.779   7.933  0.9850 -0.4917 -0.9430
  871MOL0     H20166  12.789   3.632   8.035  1.2203 -0.9763 -0.4926
  871MOL0     H20167  12.792   3.809   7.991 -1.9830  0.3482  0.1046
  871MOL0     H20168  12.869   3.674   7.809  0.6132  1.1628 -0.0582
  871MOL0     H20169  12.710   3.755   7.762 -0.8877 -1.0176  0.2434
  871MOL0     H20170  12.766   3.467   7.856 -2.5514  0.6800  4.9058
  871MOL0     H20171  12.607   3.533   7.845 -0.2878  1.0465  0.3527
  871MOL0     H20172  12.731   3.564   7.581 -0.8348  0.5426 -0.0579
  871MOL0     H20173  12.579   3.496   7.637  0.2187  1.6872  1.4054
  871MOL0     H20174  12.671   3.294   7.671 -1.8765  2.5335  2.1657
  871MOL0     H20175  12.842   3.358   7.651 -1.3273 -1.2775  2.0457
  871MOL0     H20176  12.806   3.272   7.447 -0.0195  0.0526 -0.0504
  871MOL0     H20177  12.759   3.437   7.415 -0.3320 -0.5906 -0.4454
  871MOL0     H20178  12.625   3.654   8.504  0.1512 -0.1407 -1.0645
  871MOL0     H20179  12.460   3.505   8.619 -2.0189  2.5680  1.5206
  871MOL0     H20180  12.010   3.321   8.460 -0.7226  0.2488 -1.7031
  871MOL0     H20181  11.835   3.180   8.496  1.0920  2.3732  0.6145
  871MOL0     H20182  10.440   2.076   9.192 -1.0568 -0.1828 -0.3972
  871MOL0     H20183  10.252   2.184   9.311  2.0817 -2.1913  1.9135
  871MOL0     H20184  10.005   2.422   9.441  0.5504 -0.1472  0.3473
  871MOL0     H20185   9.793   2.481   9.516  0.9045  0.7680  0.0267
  871MOL0     H20186   9.696   2.918   9.574  3.9601 -0.1086  2.8053
  871MOL0     H20187   9.555   2.827   9.649 -0.6299  0.4826  1.2710
  871MOL0     H20188   9.824   2.896   9.771 -0.4039 -0.5153  0.6045
  871MOL0     H20189   9.721   2.780   9.844 -0.1307 -1.0169 -1.2695
  871MOL0     H20190   9.686   3.077   9.800 -0.5392 -1.2204 -3.5039
  871MOL0     H20191   9.540   2.990   9.815 -0.1574 -3.5372 -0.5557
  871MOL0     H20192   9.749   3.046  10.012  0.1551 -0.5839  1.3175
  871MOL0     H20193   9.654   2.894  10.044  0.6980  0.6201  0.3918
  871MOL0     H20194   9.388   3.210  10.158 -1.4047 -0.8213 -0.5496
  871MOL0     H20195   9.917   2.891   9.559  0.9686 -0.1090  2.0698
  871MOL0     H20196  10.172   2.895   9.372  1.8190 -1.1896 -0.9557
  871MOL0     H20197  10.126   2.960   9.526  1.0419 -0.3612  2.3502
  871MOL0     H20198  10.257   2.845   9.524  1.2288 -0.9474 -3.4889
  872MOL0     O20199   1.925   5.914   6.343  0.0027 -0.6431 -0.0474
  872MOL0     C20200   1.883   5.975   6.439 -0.0621  0.4592  0.8264
  872MOL0     O20201   1.957   6.038   6.530 -0.5808  0.1419 -0.6837
  872MOL0     C20202   2.081   5.997   6.562 -0.0977  0.6700 -0.9642
  872MOL0     C20203   2.177   6.088   6.593 -1.1731 -0.6703  0.1808
  872MOL0     C20204   2.312   6.055   6.627  0.0784 -0.3023 -0.8521
  872MOL0     C20205   2.344   5.920   6.636  0.4268 -1.1525 -0.4353
  872MOL0     O20206   2.471   5.894   6.670  0.6537  0.8262 -0.3977
  872MOL0     C20207   2.503   5.913   6.804  0.3392 -0.3018 -0.2651
  872MOL0     C20208   2.649   5.964   6.823  0.2041  0.7306  0.4659
  872MOL0     C20209   2.691   5.958   6.969  0.4225 -0.5482 -0.1471
  872MOL0     C20210   2.828   6.002   6.982 -0.1325  0.2220  0.6106
  872MOL0     C20211   2.883   6.018   7.127 -0.2523  0.0049 -0.1168
  872MOL0     C20212   3.037   6.012   7.130  0.6463  0.0529  0.1224
  872MOL0     C20213   3.078   6.016   7.279  0.1745 -0.3217 -0.6534
  872MOL0     C20214   3.228   6.021   7.291  0.9281  0.7271  0.9021
  872MOL0     N20215   3.282   6.149   7.260 -1.1541  0.0625 -0.1975
  872MOL0     C20216   3.346   6.190   7.143  0.7832 -0.8476  0.8093
  872MOL0     C20217   3.380   6.321   7.159  0.1552  0.6362 -0.4422
  872MOL0     C20218   3.468   6.394   7.052 -0.9296  0.6511 -0.4253
  872MOL0     C20219   3.391   6.527   6.989  0.6475  0.6824  0.1005
  872MOL0     C20220   3.295   6.488   6.877 -0.4327  0.7686 -0.2840
  872MOL0     C20221   3.223   6.608   6.820  0.8003 -0.1860  0.3494
  872MOL0     O20222   3.113   6.562   6.744  0.2365 -0.4594  0.0796
  872MOL0     C20223   2.996   6.627   6.738 -0.5369 -0.7693  0.2827
  872MOL0     C20224   2.943   6.718   6.834  0.3491 -0.6705  0.6332
  872MOL0     C20225   2.807   6.752   6.843  0.3911  0.1471  0.1437
  872MOL0     C20226   2.764   6.821   6.967 -0.1561  0.1980  0.4057
  872MOL0     C20227   2.714   6.698   6.746  0.2618 -0.2325  0.0865
  872MOL0     C20228   2.561   6.718   6.754 -0.1586 -0.1091  0.6015
  872MOL0     O20229   2.492   6.681   6.644  1.2125  0.3016 -0.6161
  872MOL0     C20230   2.354   6.687   6.647  0.3306 -0.5736  0.2291
  872MOL0     C20231   2.272   6.582   6.675 -0.9998  0.0227  0.3986
  872MOL0     C20232   2.135   6.591   6.672  0.5439 -0.0091  0.7071
  872MOL0     C20233   2.076   6.709   6.633 -0.6266  0.3142 -1.6549
  872MOL0     O20234   1.941   6.702   6.633  0.3144 -0.3066  0.5038
  872MOL0     C20235   1.875   6.822   6.598  0.1317  0.1531  0.1108
  872MOL0     C20236   1.725   6.813   6.634  0.3569 -0.3537  0.1594
  872MOL0     C20237   1.644   6.703   6.560 -0.3740 -0.5417  0.1051
  872MOL0     C20238   1.494   6.723   6.536  0.5138 -0.1436 -0.3335
  872MOL0     C20239   1.417   6.711   6.674  0.4192  0.1998 -0.9458
  872MOL0     C20240   1.265   6.692   6.649 -0.3052  0.0889 -0.2718
  872MOL0     C20241   1.186   6.680   6.783 -0.0908  0.3953  0.0274
  872MOL0     C20242   1.066   6.772   6.774  0.4205 -0.4446 -0.0826
  872MOL0    Cl20243   0.960   6.720   6.651 -0.0748 -0.1590  0.6571
  872MOL0     C20244   2.159   6.812   6.597 -0.4665 -0.5329 -0.1197
  872MOL0     C20245   2.298   6.802   6.596 -0.1858  0.2151 -0.2138
  872MOL0     O20246   2.522   6.751   6.860  1.3029  0.4232  0.1794
  872MOL0     C20247   2.768   6.621   6.637 -0.3312 -1.2178 -0.1455
  872MOL0     C20248   2.905   6.578   6.644  0.3278 -1.4252  0.0699
  872MOL0     N20249   3.348   6.351   7.287 -0.5557  0.0556  0.0477
  872MOL0     N20250   3.297   6.251   7.348  0.5678 -0.8850  0.5742
  872MOL0     C20251   2.243   5.825   6.604 -0.6265 -0.1227  0.7630
  872MOL0     C20252   2.113   5.864   6.573 -0.0805  0.5143  0.1669
  872MOL0     C20253   1.734   5.981   6.458  0.6109  1.0087 -0.2741
  872MOL0     C20254   1.689   6.003   6.586 -0.0141  0.9259 -0.2257
  872MOL0     C20255   1.554   6.008   6.612 -0.0279  0.3362 -0.5654
  872MOL0     C20256   1.458   5.990   6.510 -0.6375 -1.2109 -0.5887
  872MOL0     O20257   1.318   5.986   6.519 -0.0173  0.4979 -0.3047
  872MOL0     C20258   1.254   5.985   6.647 -0.5098 -0.0437  0.6450
  872MOL0     C20259   1.210   6.129   6.667 -0.0830  0.7940  0.4725
  872MOL0     C20260   1.137   6.142   6.800 -0.3890  0.6363  0.4732
  872MOL0     C20261   1.100   6.285   6.817  0.0849 -0.6343  0.0673
  872MOL0     C20262   0.999   6.323   6.721 -0.5948  0.7540 -0.1369
  872MOL0     C20263   0.902   6.359   6.660  0.6082  0.1702 -0.3556
  872MOL0     C20264   1.507   5.984   6.385  0.5541 -0.0282  0.8610
  872MOL0     C20265   1.642   5.970   6.354 -0.4166  0.5420  0.7672
  872MOL0     C20266   1.681   5.956   6.210  0.1185  1.4688  0.3534
  872MOL0     H20267   2.161   6.191   6.562  0.0454 -1.4719 -3.6312
  872MOL0     H20268   2.382   6.137   6.630  2.0119 -1.8938 -0.7411
  872MOL0     H20269   2.486   5.820   6.860 -1.7211 -0.5558 -1.2304
  872MOL0     H20270   2.446   5.992   6.854  3.5574  2.1013 -0.0676
  872MOL0     H20271   2.711   5.894   6.767 -0.9569  0.3287 -0.3593
  872MOL0     H20272   2.658   6.066   6.784 -0.1789  0.8473  0.6764
  872MOL0     H20273   2.625   6.029   7.020  0.6922  1.0000 -1.8411
  872MOL0     H20274   2.672   5.858   7.010 -0.5381 -0.9331 -1.4513
  872MOL0     H20275   2.895   5.928   6.937  0.0990 -0.6096  2.2440
  872MOL0     H20276   2.843   6.100   6.935  0.0380 -0.0764  0.0279
  872MOL0     H20277   2.845   5.935   7.187 -2.5071  1.5690  0.7489
  872MOL0     H20278   2.855   6.106   7.185  0.1373 -0.4683  0.8025
  872MOL0     H20279   3.085   5.925   7.083  1.5022  0.1747  0.7344
  872MOL0     H20280   3.086   6.095   7.079 -1.0005  0.5235 -0.7571
  872MOL0     H20281   3.033   5.926   7.321 -2.0785  1.2421  0.4408
  872MOL0     H20282   3.033   6.108   7.317 -3.8874 -3.1424  2.2190
  872MOL0     H20283   3.264   5.996   7.392  1.9771  0.0937  0.3890
  872MOL0     H20284   3.279   5.945   7.231  0.1197  1.4611 -0.7572
  872MOL0     H20285   3.365   6.134   7.052  0.4530  2.7300 -1.7046
  872MOL0     H20286   3.485   6.329   6.965 -0.7040  0.5120 -0.2772
  872MOL0     H20287   3.564   6.429   7.092  1.5894 -3.3473 -2.3267
  872MOL0     H20288   3.328   6.573   7.065  1.0244  5.7880 -2.2613
  872MOL0     H20289   3.461   6.600   6.948  0.5532  1.1181  0.7088
  872MOL0     H20290   3.350   6.434   6.800 -0.4850  1.7352 -1.0179
  872MOL0     H20291   3.220   6.422   6.921 -0.8073  1.8370  0.7442
  872MOL0     H20292   3.186   6.669   6.903  1.1800  0.1624  0.2703
  872MOL0     H20293   3.282   6.664   6.746 -1.7047 -1.9503 -3.3272
  872MOL0     H20294   3.009   6.756   6.912  1.0668 -1.5765  0.4809
  872MOL0     H20295   2.682   6.892   6.956 -1.5745 -1.2207  1.3680
  872MOL0     H20296   2.853   6.874   7.003 -0.9756  0.4468  2.1848
  872MOL0     H20297   2.730   6.744   7.037 -2.9792  1.8719  1.0316
  872MOL0     H20298   2.314   6.494   6.722 -0.5684  0.3137  0.5639
  872MOL0     H20299   2.075   6.508   6.706 -0.8182  1.0608  0.9998
  872MOL0     H20300   1.911   6.910   6.651  0.1343 -1.2719  2.6281
  872MOL0     H20301   1.898   6.852   6.495 -0.6451  2.6010  0.5919
  872MOL0     H20302   1.718   6.792   6.741  0.6221 -0.5239  0.1455
  872MOL0     H20303   1.681   6.911   6.616  4.5005  1.6026 -0.6429
  872MOL0     H20304   1.665   6.604   6.602 -1.4000 -0.0489  1.9064
  872MOL0     H20305   1.693   6.695   6.463 -1.2074 -1.2206 -0.2664
  872MOL0     H20306   1.473   6.641   6.467 -0.0214 -2.0488  1.9446
  872MOL0     H20307   1.477   6.825   6.499 -1.5024 -0.5143 -0.5786
  872MOL0     H20308   1.451   6.624   6.732  0.4472  0.9073  0.1208
  872MOL0     H20309   1.428   6.799   6.738 -2.4710  0.4973 -0.7155
  872MOL0     H20310   1.257   6.604   6.585  0.5588  0.2668 -0.6365
  872MOL0     H20311   1.228   6.780   6.596 -2.7433 -1.4184 -1.1933
  872MOL0     H20312   1.246   6.723   6.863 -0.6465  1.6389 -0.2074
  872MOL0     H20313   1.177   6.571   6.793 -0.8797  0.2254 -1.9651
  872MOL0     H20314   1.089   6.879   6.774 -1.0452 -0.1099  0.2588
  872MOL0     H20315   1.012   6.768   6.869 -0.1397 -1.3360 -0.4266
  872MOL0     H20316   2.114   6.902   6.556  0.6996 -0.4928 -1.3869
  872MOL0     H20317   2.373   6.871   6.559  1.2402 -0.2459  1.6896
  872MOL0     H20318   2.718   6.588   6.547  1.5689 -0.1793 -1.6738
  872MOL0     H20319   2.942   6.514   6.564  0.0464 -0.5977 -0.7378
  872MOL0     H20320   2.278   5.723   6.610  0.4142  0.1685  0.0461
  872MOL0     H20321   2.040   5.787   6.552  2.1727 -1.5460 -0.5945
  872MOL0     H20322   1.753   6.022   6.671 -2.2416  0.8719  1.5624
  872MOL0     H20323   1.516   6.023   6.713 -1.2885 -5.2134  0.0630
  872MOL0     H20324   1.169   5.916   6.648 -3.3853  3.2277  1.1800
  872MOL0     H20325   1.326   5.956   6.724  1.9174 -0.9356 -1.8013
  872MOL0     H20326   1.148   6.144   6.578  1.7023  2.2310 -0.6021
  872MOL0     H20327   1.302   6.187   6.658  0.6799 -0.0822  2.1510
  872MOL0     H20328   1.049   6.079   6.819  1.2089 -0.5848  5.0836
  872MOL0     H20329   1.200   6.106   6.881 -0.7047 -0.4226  0.2642
  872MOL0     H20330   1.178   6.361   6.826 -0.2002 -0.3678  0.2919
  872MOL0     H20331   1.052   6.295   6.914 -1.8996 -0.2840 -0.9021
  872MOL0     H20332   0.814   6.401   6.616  1.1168  2.2188  0.4408
  872MOL0     H20333   1.424   5.984   6.314  2.4576  2.9401 -1.6309
  872MOL0     H20334   1.591   5.975   6.150 -1.8312 -2.6051  1.6582
  872MOL0     H20335   1.765   6.020   6.183  1.7550 -1.1148 -1.0533
  872MOL0     H20336   1.724   5.857   6.196  0.8770  1.3583  2.9841
  873MOL0     O20337   5.604   8.330   6.619 -1.0637  0.3595  0.2138
  873MOL0     C20338   5.518   8.295   6.702  0.0407 -0.4953  0.6475
  873MOL0     O20339   5.539   8.268   6.839  0.0925  0.1615 -0.2467
  873MOL0     C20340   5.670   8.290   6.885  0.4525 -0.0502 -0.5445
  873MOL0     C20341   5.754   8.181   6.903  0.5765 -0.6589  0.0905
  873MOL0     C20342   5.892   8.193   6.949 -0.1570 -0.1376  0.0642
  873MOL0     C20343   5.943   8.325   6.962 -0.0339 -0.4672 -0.3780
  873MOL0     O20344   6.079   8.341   6.977  0.3116 -0.1993 -0.0546
  873MOL0     C20345   6.140   8.453   7.041  0.0842  0.4284 -0.2753
  873MOL0     C20346   6.283   8.417   7.072 -0.0675  0.1019 -0.5572
  873MOL0     C20347   6.372   8.509   7.161  0.6378  0.6810 -0.2077
  873MOL0     C20348   6.392   8.661   7.130 -0.3039  0.3005  0.0230
  873MOL0     C20349   6.543   8.711   7.142 -0.3286  0.2463 -1.1303
  873MOL0     C20350   6.571   8.725   7.296  0.6889  0.3912 -0.5659
  873MOL0     C20351   6.717   8.763   7.325  0.4850  0.3435 -0.0403
  873MOL0     C20352   6.749   8.766   7.473 -0.2342 -0.2050 -0.5221
  873MOL0     N20353   6.897   8.788   7.496 -1.2416 -0.6464 -0.3240
  873MOL0     C20354   6.984   8.697   7.466 -0.2972 -0.7422 -0.6087
  873MOL0     C20355   7.084   8.725   7.551 -0.8403 -0.7494 -0.3013
  873MOL0     C20356   7.214   8.652   7.577 -0.5403  0.1196  0.0578
  873MOL0     C20357   7.341   8.703   7.506  0.1827  0.1266 -0.3338
  873MOL0     C20358   7.381   8.841   7.540  0.2352 -0.2179  0.1789
  873MOL0     C20359   7.407   8.865   7.688  0.0536 -0.1784 -0.5161
  873MOL0     O20360   7.492   8.984   7.703 -0.2783  0.7591 -0.0464
  873MOL0     C20361   7.622   8.956   7.699 -0.0235  1.1353  0.0425
  873MOL0     C20362   7.703   8.979   7.579  0.5470  0.5685 -0.5329
  873MOL0     C20363   7.842   8.948   7.591  0.2243  1.3490  0.6150
  873MOL0     C20364   7.931   8.972   7.470  0.0359  0.0399 -0.2408
  873MOL0     C20365   7.904   8.902   7.704 -0.2383 -0.5580 -0.8276
  873MOL0     C20366   8.049   8.883   7.728  0.0332 -0.6017  0.8398
  873MOL0     O20367   8.089   8.919   7.854  0.6536 -0.1843  0.5026
  873MOL0     C20368   8.211   8.957   7.868 -1.0372 -0.1120 -0.4284
  873MOL0     C20369   8.284   9.045   7.787  0.4238 -0.1048  0.6916
  873MOL0     C20370   8.410   9.096   7.821  0.9719  0.1453 -0.3647
  873MOL0     C20371   8.473   9.052   7.942  0.4252  0.1977  0.1317
  873MOL0     O20372   8.602   9.087   7.985 -0.3164 -0.6781 -0.3173
  873MOL0     C20373   8.700   9.106   7.882 -0.4825  0.0960  0.1921
  873MOL0     C20374   8.839   9.154   7.926 -0.8651 -0.7014  0.0096
  873MOL0     C20375   8.930   9.202   7.817 -0.0755  0.2841  0.8815
  873MOL0     C20376   9.067   9.248   7.861  0.4662 -0.5348 -0.3973
  873MOL0     C20377   9.166   9.136   7.891 -0.5893  0.1093 -0.3151
  873MOL0     C20378   9.302   9.174   7.861 -0.5150  0.4393 -0.1881
  873MOL0     C20379   9.353   9.184   7.718 -0.5472  0.6969  0.1699
  873MOL0     C20380   9.332   9.047   7.644  0.9834 -0.0447  0.0881
  873MOL0    Cl20381   9.413   8.921   7.733  0.0729  0.4480 -0.0493
  873MOL0     C20382   8.397   8.967   8.026 -0.2573  0.9092 -0.1065
  873MOL0     C20383   8.271   8.920   7.990  0.1229 -0.4563  0.1956
  873MOL0     O20384   8.117   8.834   7.638 -0.6107  0.1238 -0.2193
  873MOL0     C20385   7.818   8.862   7.812 -0.3116 -0.3285 -0.7784
  873MOL0     C20386   7.684   8.893   7.808  0.0056 -1.1192 -0.8686
  873MOL0     N20387   7.057   8.826   7.642 -0.1767 -0.7376 -0.5910
  873MOL0     N20388   6.942   8.857   7.603 -0.4341  0.5140  0.7081
  873MOL0     C20389   5.859   8.437   6.956  0.0863  0.4429 -0.0452
  873MOL0     C20390   5.721   8.414   6.917  0.1422  0.0857 -0.1646
  873MOL0     C20391   5.379   8.289   6.649  0.9128 -0.3458 -0.0986
  873MOL0     C20392   5.282   8.248   6.742 -0.3429  0.3065  0.4394
  873MOL0     C20393   5.146   8.231   6.701 -0.4877  0.5229 -0.4164
  873MOL0     C20394   5.110   8.268   6.574 -0.0586 -0.3109  0.8571
  873MOL0     O20395   4.979   8.226   6.533  0.5081  1.2054  0.4034
  873MOL0     C20396   4.912   8.279   6.420 -0.5070  0.3040 -0.1605
  873MOL0     C20397   4.835   8.414   6.447 -0.8744 -0.1525 -0.1559
  873MOL0     C20398   4.767   8.427   6.583 -0.8855  0.6415  0.5807
  873MOL0     C20399   4.643   8.334   6.584 -0.2162 -0.8443 -0.0336
  873MOL0     C20400   4.527   8.387   6.517  1.1270  0.4681 -0.3772
  873MOL0     C20401   4.439   8.438   6.452 -0.1746  0.1194 -0.0479
  873MOL0     C20402   5.203   8.317   6.484 -0.0695  0.1533 -0.6857
  873MOL0     C20403   5.337   8.325   6.515  0.0388  0.3332 -0.6359
  873MOL0     C20404   5.431   8.374   6.404 -0.9743  0.0842 -0.4691
  873MOL0     H20405   5.709   8.086   6.879 -1.3176  1.2037 -5.1618
  873MOL0     H20406   5.964   8.112   6.944  0.3809  0.0884  2.8519
  873MOL0     H20407   6.088   8.478   7.134 -1.3890 -1.5096 -0.5166
  873MOL0     H20408   6.141   8.542   6.978 -1.1434  1.7839  1.5074
  873MOL0     H20409   6.274   8.321   7.125  0.6573  0.9163  1.1365
  873MOL0     H20410   6.336   8.394   6.979 -0.3358 -2.7980 -0.0766
  873MOL0     H20411   6.333   8.514   7.263  1.4897 -0.2518  0.1768
  873MOL0     H20412   6.474   8.470   7.164  0.1679 -0.6028 -0.2099
  873MOL0     H20413   6.358   8.675   7.027 -1.5081 -0.7256  0.2586
  873MOL0     H20414   6.333   8.730   7.191 -2.2060 -2.0875  1.0578
  873MOL0     H20415   6.561   8.805   7.090  0.2111 -0.8032 -2.9021
  873MOL0     H20416   6.625   8.647   7.111  1.9815  2.1667  0.5667
  873MOL0     H20417   6.521   8.808   7.347  0.1775  0.0304 -0.4716
  873MOL0     H20418   6.535   8.632   7.342 -0.0729 -0.0574 -2.0312
  873MOL0     H20419   6.733   8.863   7.284  0.0933  1.3123  2.0668
  873MOL0     H20420   6.779   8.683   7.283 -2.1736 -1.2812 -1.1376
  873MOL0     H20421   6.684   8.842   7.518 -2.3890 -0.6693 -2.6529
  873MOL0     H20422   6.718   8.674   7.523  1.4438 -0.1659  0.6808
  873MOL0     H20423   6.983   8.615   7.395 -1.4075 -0.0928 -1.3866
  873MOL0     H20424   7.217   8.548   7.544 -2.5299 -0.1319  0.5227
  873MOL0     H20425   7.239   8.652   7.684  0.4336  0.7508 -0.1576
  873MOL0     H20426   7.424   8.634   7.526  0.3238  0.4294  0.1614
  873MOL0     H20427   7.331   8.688   7.398 -1.2617 -3.9863  0.2129
  873MOL0     H20428   7.468   8.856   7.475 -0.0988 -3.0348 -1.0590
  873MOL0     H20429   7.295   8.901   7.507  0.6999 -0.2840 -1.2125
  873MOL0     H20430   7.313   8.878   7.741  0.0101 -0.8359 -0.4325
  873MOL0     H20431   7.452   8.771   7.720 -2.2675 -0.7183  1.4171
  873MOL0     H20432   7.650   9.019   7.493 -1.9829  1.2810  1.2188
  873MOL0     H20433   8.019   9.032   7.495  0.7595 -1.0149 -0.2114
  873MOL0     H20434   7.869   9.030   7.401  0.1982  2.4589  1.5147
  873MOL0     H20435   7.967   8.876   7.432 -0.2063 -0.4346  0.7124
  873MOL0     H20436   8.214   9.090   7.717 -0.9408 -0.8961  1.4930
  873MOL0     H20437   8.449   9.176   7.760  1.1945  0.2172 -0.1295
  873MOL0     H20438   8.713   9.016   7.823  0.5947  0.0736  0.4477
  873MOL0     H20439   8.657   9.185   7.820 -2.3587 -0.9421  0.0901
  873MOL0     H20440   8.826   9.231   8.002  1.6377 -0.1033 -0.1012
  873MOL0     H20441   8.897   9.073   7.970  2.1818 -0.8329 -3.7414
  873MOL0     H20442   8.886   9.289   7.769 -0.5589 -0.3653  0.1348
  873MOL0     H20443   8.941   9.124   7.741 -1.6857  1.3898 -0.5359
  873MOL0     H20444   9.068   9.314   7.948 -1.3433 -1.4701  0.3770
  873MOL0     H20445   9.092   9.313   7.777 -1.3391 -1.5869 -1.8063
  873MOL0     H20446   9.157   9.104   7.995 -1.3455  1.7109  0.1500
  873MOL0     H20447   9.143   9.042   7.839  0.7267 -0.6712  0.4755
  873MOL0     H20448   9.374   9.100   7.899  3.7851  3.4108 -1.8411
  873MOL0     H20449   9.332   9.267   7.909  1.8629 -0.1149 -0.4691
  873MOL0     H20450   9.456   9.220   7.714  0.1563 -1.2733 -1.5979
  873MOL0     H20451   9.282   9.252   7.670  1.2893  1.4610 -1.6622
  873MOL0     H20452   9.374   9.038   7.543  0.1545 -3.1028 -0.0694
  873MOL0     H20453   9.226   9.023   7.646  0.7951  0.7316 -0.0828
  873MOL0     H20454   8.444   8.935   8.119 -0.4226 -0.3858 -0.4429
  873MOL0     H20455   8.218   8.850   8.053 -0.3631 -0.0068  0.2972
  873MOL0     H20456   7.844   8.809   7.902 -1.1272 -0.1207 -0.4096
  873MOL0     H20457   7.627   8.882   7.900 -1.7623  1.3211 -1.5558
  873MOL0     H20458   5.908   8.533   6.964 -0.5662  0.6875  1.1435
  873MOL0     H20459   5.652   8.497   6.900  0.3586 -0.2909 -3.4949
  873MOL0     H20460   5.310   8.232   6.846 -0.4459  3.2692  1.0275
  873MOL0     H20461   5.080   8.193   6.779 -3.2137 -0.2311 -2.9137
  873MOL0     H20462   4.980   8.300   6.337 -0.0199  2.9917  0.7852
  873MOL0     H20463   4.831   8.213   6.391 -1.4051  1.2220  0.1859
  873MOL0     H20464   4.767   8.432   6.364 -0.0699  0.4730 -0.6981
  873MOL0     H20465   4.914   8.489   6.434  0.1210 -1.5284 -2.8939
  873MOL0     H20466   4.839   8.402   6.661  4.5259 -2.0400 -4.5294
  873MOL0     H20467   4.742   8.533   6.599  0.2251  1.3488 -1.9300
  873MOL0     H20468   4.608   8.328   6.688  1.2827  0.8102  0.6092
  873MOL0     H20469   4.653   8.232   6.545 -3.5269 -1.1048 -0.5430
  873MOL0     H20470   4.369   8.502   6.402  1.1125  1.8246  0.2246
  873MOL0     H20471   5.171   8.352   6.386  1.4177  2.2965 -0.4900
  873MOL0     H20472   5.372   8.390   6.313  0.3852 -0.4230 -1.4772
  873MOL0     H20473   5.472   8.472   6.431  2.5138 -0.9310 -1.5997
  873MOL0     H20474   5.511   8.309   6.370  1.0373  1.7659  0.8267
  874MOL0     O20475  11.134   6.859   6.137  0.1044 -0.2959  0.2571
  874MOL0     C20476  11.037   6.892   6.074 -0.0297 -0.7813 -0.4499
  874MOL0     O20477  11.024   7.000   5.979 -0.2188  0.4093  1.0860
  874MOL0     C20478  11.121   7.088   5.949  0.4898  0.2163 -0.9064
  874MOL0     C20479  11.160   7.098   5.816 -1.1389  0.4207  0.2019
  874MOL0     C20480  11.248   7.205   5.778  0.3643  0.3049 -0.4467
  874MOL0     C20481  11.289   7.296   5.875 -0.0174  0.7382 -0.5459
  874MOL0     O20482  11.364   7.401   5.826 -0.1276 -1.0667  0.1594
  874MOL0     C20483  11.286   7.517   5.794  0.0771 -0.3007  0.2444
  874MOL0     C20484  11.309   7.531   5.646 -0.3873  0.3799 -0.1129
  874MOL0     C20485  11.453   7.567   5.606 -0.1240  0.4620  0.3222
  874MOL0     C20486  11.463   7.545   5.455 -0.2750 -0.9399 -0.8531
  874MOL0     C20487  11.591   7.602   5.396  0.7091 -0.4800  0.6766
  874MOL0     C20488  11.585   7.631   5.241  0.5308 -0.2928 -0.4591
  874MOL0     C20489  11.692   7.735   5.193  0.8773  0.0412 -0.6879
  874MOL0     C20490  11.827   7.680   5.218  0.3838  0.4644  0.7671
  874MOL0     N20491  11.931   7.754   5.152 -0.5209 -0.1898  0.0928
  874MOL0     C20492  12.006   7.867   5.201  1.2071  0.3048 -0.0639
  874MOL0     C20493  12.103   7.885   5.111  0.5114  0.6157  0.1817
  874MOL0     C20494  12.199   7.993   5.128 -0.4829  1.1936 -0.7998
  874MOL0     C20495  12.340   7.933   5.164  0.4167 -0.1811  0.0764
  874MOL0     C20496  12.403   7.867   5.046 -0.2600 -0.1001  1.0410
  874MOL0     C20497  12.545   7.821   5.089 -0.0104  0.8788 -0.7209
  874MOL0     O20498  12.638   7.928   5.126 -0.5074 -0.7430  0.6565
  874MOL0     C20499  12.695   8.003   5.024  0.0593 -0.5044  0.0093
  874MOL0     C20500  12.682   7.973   4.889 -0.0787  0.4403 -0.5644
  874MOL0     C20501  12.738   8.060   4.796  0.3951 -0.1775  0.0923
  874MOL0     C20502  12.722   8.024   4.650  0.1248  0.4039  0.0972
  874MOL0     C20503  12.825   8.165   4.832  0.5815 -0.1859  0.6898
  874MOL0     C20504  12.916   8.243   4.741  0.5132  0.4879 -0.7461
  874MOL0     O20505  12.978   8.188   4.629  0.2005 -0.1533 -0.1213
  874MOL0     C20506  13.071   8.255   4.552  0.8046  0.1748  0.3033
  874MOL0     C20507  13.059   8.240   4.413 -0.5266 -0.7292 -0.7681
  874MOL0     C20508  13.152   8.311   4.330  0.1012  0.6629 -0.7494
  874MOL0     C20509  13.245   8.391   4.389  0.3799 -0.3354  0.0064
  874MOL0     O20510  13.335   8.449   4.301 -0.0694 -0.7476 -0.0823
  874MOL0     C20511  13.465   8.496   4.356 -0.5943  0.1027  0.7752
  874MOL0     C20512  13.568   8.503   4.243 -0.5978 -0.3847  0.3222
  874MOL0     C20513  13.698   8.569   4.275 -0.5013  0.0676  0.1913
  874MOL0     C20514  13.808   8.547   4.171 -0.7101 -0.2633 -0.5102
  874MOL0     C20515  13.920   8.655   4.199  0.2546 -0.0354  0.0668
  874MOL0     C20516  14.057   8.601   4.152 -0.6488  0.2783  0.2552
  874MOL0     C20517  14.076   8.576   4.005 -0.8189 -0.4949 -0.7489
  874MOL0     C20518  14.156   8.678   3.930  0.1680 -0.4583 -0.1207
  874MOL0    Cl20519  14.173   8.635   3.758 -0.4183 -0.0572 -0.3705
  874MOL0     C20520  13.250   8.408   4.531 -0.7175 -0.0713  0.1199
  874MOL0     C20521  13.163   8.345   4.617 -0.0073  0.3729  0.0473
  874MOL0     O20522  12.918   8.362   4.775 -0.8991  0.2976  0.1206
  874MOL0     C20523  12.832   8.195   4.971  0.3544 -1.4700 -0.0873
  874MOL0     C20524  12.766   8.114   5.068 -0.2015  0.0681  0.3888
  874MOL0     N20525  12.092   7.789   5.011 -0.5853 -0.6555 -0.5540
  874MOL0     N20526  11.997   7.706   5.043  0.5960  1.3019 -0.4555
  874MOL0     C20527  11.256   7.281   6.009 -0.4217 -0.2882  0.2225
  874MOL0     C20528  11.175   7.178   6.045 -0.2615 -0.3886  0.5595
  874MOL0     C20529  10.909   6.815   6.108 -0.5205 -0.4358  0.1069
  874MOL0     C20530  10.799   6.869   6.044  0.3481 -0.7459 -0.5233
  874MOL0     C20531  10.670   6.820   6.066 -0.0046 -0.0637 -0.1403
  874MOL0     C20532  10.657   6.703   6.149  0.1889 -1.3290 -0.9200
  874MOL0     O20533  10.539   6.638   6.179 -0.2620  0.1533 -0.8316
  874MOL0     C20534  10.424   6.719   6.180  0.0812 -0.8446  1.1804
  874MOL0     C20535  10.289   6.641   6.204 -0.4215 -0.4690 -0.4682
  874MOL0     C20536  10.176   6.727   6.147 -0.6713 -0.3445 -1.1526
  874MOL0     C20537  10.039   6.698   6.204 -0.3883  0.0870 -0.0141
  874MOL0     C20538   9.972   6.581   6.151 -0.6008  0.2930  0.4822
  874MOL0     C20539   9.947   6.464   6.119  0.3699  0.0529 -0.2225
  874MOL0     C20540  10.770   6.648   6.202 -0.5279  0.6781  0.0202
  874MOL0     C20541  10.900   6.702   6.190 -0.6727 -0.4952  0.0649
  874MOL0     C20542  11.008   6.623   6.256  0.8200 -0.1047 -0.1202
  874MOL0     H20543  11.125   7.030   5.739 -1.2046  0.1035  0.5100
  874MOL0     H20544  11.277   7.223   5.675  1.5714  1.4266  0.0582
  874MOL0     H20545  11.328   7.597   5.856  0.0846  0.3310 -0.5700
  874MOL0     H20546  11.178   7.508   5.810 -0.4442  2.2525 -1.2697
  874MOL0     H20547  11.289   7.432   5.604 -1.5475  0.9807 -1.0264
  874MOL0     H20548  11.241   7.604   5.601 -0.1401  0.3513 -0.5423
  874MOL0     H20549  11.485   7.665   5.643 -0.3694  0.7097 -0.1195
  874MOL0     H20550  11.520   7.493   5.651  0.8576  1.4802  0.5514
  874MOL0     H20551  11.458   7.438   5.432  1.9630 -0.9936 -1.3292
  874MOL0     H20552  11.384   7.595   5.400  0.7065 -1.0409 -2.4192
  874MOL0     H20553  11.676   7.535   5.411  0.1188 -1.5968 -0.7799
  874MOL0     H20554  11.614   7.695   5.450 -0.5440  0.9750 -1.1571
  874MOL0     H20555  11.601   7.535   5.191  1.6166  1.0367 -2.8292
  874MOL0     H20556  11.483   7.658   5.214  0.0480 -2.1434 -0.6431
  874MOL0     H20557  11.683   7.841   5.215  1.2617  1.3456 -5.6611
  874MOL0     H20558  11.675   7.733   5.085  0.1635  1.5274 -0.6191
  874MOL0     H20559  11.843   7.671   5.326  0.1510 -0.5651  0.7278
  874MOL0     H20560  11.818   7.578   5.179  3.5904  0.1286  0.6155
  874MOL0     H20561  11.999   7.904   5.303 -0.2529 -2.5869  1.0103
  874MOL0     H20562  12.176   8.061   5.210 -1.7021 -2.1730  1.8942
  874MOL0     H20563  12.204   8.038   5.029 -1.1533  0.1973 -1.3036
  874MOL0     H20564  12.408   8.013   5.196  2.9113 -2.4334  0.8043
  874MOL0     H20565  12.335   7.850   5.236  1.5226  0.4741  0.9416
  874MOL0     H20566  12.351   7.774   5.022  0.6354 -1.5768  4.2449
  874MOL0     H20567  12.410   7.941   4.965 -0.5559 -1.3756 -0.1888
  874MOL0     H20568  12.528   7.757   5.176  0.3836 -2.3338 -2.8234
  874MOL0     H20569  12.585   7.745   5.021 -1.2259  2.1513 -2.9794
  874MOL0     H20570  12.618   7.888   4.868 -2.2487  0.7532  3.7377
  874MOL0     H20571  12.759   7.926   4.618 -1.6610 -0.3832  0.3754
  874MOL0     H20572  12.749   8.100   4.576  1.0812  0.9125  0.9406
  874MOL0     H20573  12.613   8.021   4.641 -0.1431  2.6041  1.7100
  874MOL0     H20574  12.980   8.176   4.374 -1.0438 -0.1134 -0.7360
  874MOL0     H20575  13.143   8.302   4.222  0.1938  1.2406 -0.8107
  874MOL0     H20576  13.455   8.592   4.407 -1.0823 -0.2956  1.4409
  874MOL0     H20577  13.505   8.424   4.428 -2.6984 -1.0491  0.8717
  874MOL0     H20578  13.603   8.409   4.201  1.7391  0.6880 -0.2814
  874MOL0     H20579  13.522   8.563   4.164 -1.3302 -2.1279 -0.6224
  874MOL0     H20580  13.720   8.531   4.376 -1.0655  1.3598  0.8290
  874MOL0     H20581  13.674   8.676   4.280 -1.1715 -0.0946  0.6761
  874MOL0     H20582  13.770   8.555   4.069  0.7587 -3.0340 -1.3667
  874MOL0     H20583  13.837   8.442   4.180  2.9685  0.5658 -0.9495
  874MOL0     H20584  13.887   8.750   4.155  0.6774  0.6972  1.2560
  874MOL0     H20585  13.931   8.676   4.306  0.2668 -0.4982  0.1550
  874MOL0     H20586  14.092   8.515   4.209 -1.7407  0.1868  0.8083
  874MOL0     H20587  14.130   8.672   4.192  0.0938 -0.1911 -0.2426
  874MOL0     H20588  13.979   8.570   3.955  0.1810 -2.2018 -2.6307
  874MOL0     H20589  14.132   8.484   3.988  0.2605 -0.0437  0.1899
  874MOL0     H20590  14.255   8.688   3.974  1.2888 -0.3642 -2.5048
  874MOL0     H20591  14.107   8.774   3.948  0.0885 -1.0427  3.2783
  874MOL0     H20592  13.328   8.469   4.575 -0.0576 -0.6387 -0.2430
  874MOL0     H20593  13.171   8.349   4.725 -3.0169 -0.3872  0.3746
  874MOL0     H20594  12.896   8.270   5.018 -0.8182 -0.1171 -0.5780
  874MOL0     H20595  12.765   8.140   5.173  0.0828  1.9443 -0.0368
  874MOL0     H20596  11.292   7.348   6.086 -1.7465 -1.6482  2.0901
  874MOL0     H20597  11.159   7.168   6.152  4.1114  2.8209  1.7985
  874MOL0     H20598  10.792   6.947   5.969  0.3263 -0.7555 -0.5310
  874MOL0     H20599  10.588   6.876   6.022  1.1809 -0.3391 -2.9371
  874MOL0     H20600  10.432   6.808   6.243 -1.4074  1.8882 -2.1679
  874MOL0     H20601  10.411   6.766   6.082  0.0002 -1.6291  0.8059
  874MOL0     H20602  10.278   6.634   6.313  1.1311 -2.1963 -0.3705
  874MOL0     H20603  10.297   6.538   6.167  0.0143  0.2786 -2.5792
  874MOL0     H20604  10.194   6.834   6.162  0.3528 -0.6437 -0.1169
  874MOL0     H20605  10.172   6.720   6.038  0.3356  0.2341 -1.2378
  874MOL0     H20606   9.974   6.765   6.148  0.5722 -0.2650 -1.6081
  874MOL0     H20607  10.022   6.704   6.312 -1.3464 -0.0977 -0.1524
  874MOL0     H20608   9.931   6.362   6.093  0.7324 -0.5235  1.6328
  874MOL0     H20609  10.749   6.557   6.258 -0.3361 -1.3708 -2.9763
  874MOL0     H20610  11.063   6.564   6.182 -0.4671  0.1165 -1.2789
  874MOL0     H20611  11.074   6.684   6.319  2.6109 -1.1060 -0.9540
  874MOL0     H20612  10.969   6.543   6.320  0.1689  1.4355  1.4934
  875MOL0     O20613   0.664   0.693   3.378 -0.2796 -0.1009 -0.2665
  875MOL0     C20614   0.689   0.691   3.262  0.2904 -0.2614 -0.0912
  875MOL0     O20615   0.810   0.722   3.211  0.0570  0.3692 -0.0080
  875MOL0     C20616   0.926   0.744   3.285  0.2052  0.6270 -0.0124
  875MOL0     C20617   0.958   0.660   3.395 -0.3671  0.3036 -0.7992
  875MOL0     C20618   1.082   0.674   3.455  0.0317 -0.5065 -0.8347
  875MOL0     C20619   1.176   0.764   3.411 -0.3802 -0.0212 -0.0746
  875MOL0     O20620   1.294   0.766   3.487  0.2679 -0.6759 -0.2349
  875MOL0     C20621   1.404   0.844   3.429  0.8620 -0.5473 -0.8621
  875MOL0     C20622   1.491   0.856   3.553 -0.2547 -0.5087  0.1373
  875MOL0     C20623   1.628   0.925   3.523  0.3674 -0.6825  0.1657
  875MOL0     C20624   1.727   0.909   3.645  0.7392 -0.6545 -0.7352
  875MOL0     C20625   1.864   0.974   3.608 -0.3286  0.0611 -0.6979
  875MOL0     C20626   1.953   0.993   3.723 -0.0392 -0.2652 -0.3853
  875MOL0     C20627   2.093   1.041   3.679 -0.2999  0.1720  0.1983
  875MOL0     C20628   2.174   1.078   3.806  0.5626 -0.0814 -0.0996
  875MOL0     N20629   2.302   1.140   3.789  0.4777 -0.2095 -0.4181
  875MOL0     C20630   2.369   1.181   3.673  1.1680  0.0230 -0.1368
  875MOL0     C20631   2.480   1.234   3.723 -0.0623  1.1947  0.9047
  875MOL0     C20632   2.592   1.275   3.630 -0.1716 -0.1215 -0.7126
  875MOL0     C20633   2.593   1.425   3.588 -0.2754 -0.1263 -0.3911
  875MOL0     C20634   2.675   1.434   3.454 -0.4605  0.2430 -0.1889
  875MOL0     C20635   2.652   1.571   3.381  0.2002 -0.3567  0.0629
  875MOL0     O20636   2.655   1.687   3.467  0.6125  0.0948  0.1862
  875MOL0     C20637   2.772   1.744   3.519 -0.1469 -1.5314  0.3216
  875MOL0     C20638   2.766   1.838   3.628  1.0006 -0.0245  0.4238
  875MOL0     C20639   2.872   1.898   3.684 -0.8430  0.2625 -0.2462
  875MOL0     C20640   2.839   2.001   3.790  0.5505  0.0551  0.1872
  875MOL0     C20641   3.002   1.865   3.638 -0.9422  0.6316  0.2440
  875MOL0     C20642   3.124   1.940   3.675 -0.0638 -0.6230  0.7274
  875MOL0     O20643   3.112   2.071   3.720  0.0646 -0.0045 -0.2511
  875MOL0     C20644   3.222   2.138   3.765  0.0856 -0.7042  0.4232
  875MOL0     C20645   3.245   2.156   3.900  0.0416  1.1984 -0.4110
  875MOL0     C20646   3.355   2.225   3.953  0.1618 -0.3377  0.5273
  875MOL0     C20647   3.457   2.283   3.872  0.3798  0.9682  0.8509
  875MOL0     O20648   3.571   2.344   3.915  0.0268 -0.3098  0.1183
  875MOL0     C20649   3.681   2.258   3.957 -0.4939 -0.0302 -0.2939
  875MOL0     C20650   3.787   2.259   3.853  0.1504  0.5363  0.4523
  875MOL0     C20651   3.927   2.254   3.925 -0.2268  0.9096  0.7984
  875MOL0     C20652   4.040   2.229   3.819  0.3867 -0.3093  0.7761
  875MOL0     C20653   4.174   2.269   3.878  0.0622  0.6099 -0.1629
  875MOL0     C20654   4.290   2.192   3.798 -1.0038 -0.0702 -0.6187
  875MOL0     C20655   4.434   2.238   3.847  0.1049 -0.4347  0.1082
  875MOL0     C20656   4.539   2.131   3.805  0.4558 -0.2134 -0.6363
  875MOL0    Cl20657   4.703   2.188   3.848 -0.6114  0.3902  0.1869
  875MOL0     C20658   3.431   2.269   3.741 -0.9570  0.6866  0.5982
  875MOL0     C20659   3.316   2.210   3.683  0.1752 -0.1223  0.6041
  875MOL0     O20660   3.225   1.867   3.680 -0.5274 -0.3170 -0.1693
  875MOL0     C20661   3.016   1.770   3.542  0.2718 -0.2844  0.0324
  875MOL0     C20662   2.904   1.719   3.470 -0.3627 -0.4830 -0.3275
  875MOL0     N20663   2.472   1.238   3.856 -0.5585  0.1793 -0.6710
  875MOL0     N20664   2.369   1.185   3.903 -0.1012  0.3680 -0.1002
  875MOL0     C20665   1.152   0.841   3.300 -1.0104  0.5717 -0.4387
  875MOL0     C20666   1.028   0.834   3.236  0.0842  0.7088 -0.1635
  875MOL0     C20667   0.581   0.673   3.159 -0.1191 -0.1677 -0.2012
  875MOL0     C20668   0.615   0.620   3.032 -0.3837 -0.9217 -0.3459
  875MOL0     C20669   0.508   0.572   2.951 -0.3717 -0.5836  0.0354
  875MOL0     C20670   0.371   0.576   2.998  0.3537 -0.8157  0.6217
  875MOL0     O20671   0.269   0.534   2.928 -0.6861 -0.0197 -0.3439
  875MOL0     C20672   0.271   0.398   2.876  1.5836 -0.3931 -0.2407
  875MOL0     C20673   0.139   0.355   2.822  0.6874  0.1603 -0.4551
  875MOL0     C20674   0.049   0.330   2.939 -0.5681  0.4090  0.0944
  875MOL0     C20675  -0.094   0.296   2.884  0.4817 -0.0845  0.3531
  875MOL0     C20676  -0.179   0.273   3.003 -0.5092  0.3599  0.6052
  875MOL0     C20677  -0.251   0.254   3.102 -0.6849 -0.3547  0.1838
  875MOL0     C20678   0.339   0.638   3.114 -0.9204  0.1445 -0.0686
  875MOL0     C20679   0.441   0.686   3.196 -0.6412  1.0627  0.4745
  875MOL0     C20680   0.391   0.755   3.322 -0.0569 -0.2055  0.5948
  875MOL0     H20681   0.880   0.593   3.430  0.8385 -0.0048  1.4751
  875MOL0     H20682   1.111   0.604   3.533 -1.7532 -2.2490 -1.6720
  875MOL0     H20683   1.381   0.945   3.394  0.0814 -1.8083 -4.3890
  875MOL0     H20684   1.461   0.788   3.355  1.5765 -3.4763  1.6948
  875MOL0     H20685   1.440   0.919   3.626  1.1560 -1.0769  1.6864
  875MOL0     H20686   1.511   0.754   3.589 -1.3375 -0.9124 -0.3584
  875MOL0     H20687   1.666   0.880   3.431  0.8785 -1.2690  0.6519
  875MOL0     H20688   1.618   1.032   3.503  1.5525 -0.6527 -0.4002
  875MOL0     H20689   1.688   0.975   3.724  1.4380  0.5076 -1.3454
  875MOL0     H20690   1.741   0.804   3.671 -0.1396 -0.5999  0.0340
  875MOL0     H20691   1.843   1.070   3.559  0.9187  0.1135 -1.1617
  875MOL0     H20692   1.927   0.916   3.540  1.6663 -0.6896  1.6569
  875MOL0     H20693   1.908   1.067   3.790  0.3763 -1.2294  1.0040
  875MOL0     H20694   1.966   0.896   3.771  0.3927 -1.6230 -3.0520
  875MOL0     H20695   2.071   1.130   3.619 -0.0611 -0.9784 -1.6982
  875MOL0     H20696   2.152   0.969   3.621  0.0733  0.7067 -0.0865
  875MOL0     H20697   2.111   1.145   3.865  0.8673  0.3390 -0.2486
  875MOL0     H20698   2.196   0.982   3.855  0.0602 -0.5674 -0.8073
  875MOL0     H20699   2.340   1.171   3.569 -2.7826  0.4586  0.7603
  875MOL0     H20700   2.576   1.214   3.541  1.3877 -0.0257 -1.0979
  875MOL0     H20701   2.689   1.248   3.674  0.5290 -1.0051 -2.6845
  875MOL0     H20702   2.496   1.468   3.558 -0.4507 -0.1839  0.0947
  875MOL0     H20703   2.644   1.489   3.660  0.7695  0.3146 -1.4905
  875MOL0     H20704   2.784   1.431   3.467 -0.1088 -0.7298 -2.7258
  875MOL0     H20705   2.652   1.352   3.386 -3.0298 -0.2593  1.1698
  875MOL0     H20706   2.731   1.582   3.307  0.3505 -1.6579 -0.0036
  875MOL0     H20707   2.554   1.572   3.332 -0.9477 -2.4117  2.1092
  875MOL0     H20708   2.668   1.855   3.671 -0.2705  1.9889 -2.8697
  875MOL0     H20709   2.745   1.968   3.836 -2.9801  2.0747 -4.7085
  875MOL0     H20710   2.823   2.102   3.749 -1.4053 -0.1730  0.2865
  875MOL0     H20711   2.908   2.023   3.872 -3.4876 -2.1977  4.7524
  875MOL0     H20712   3.169   2.110   3.963  2.3473  1.0497  2.4833
  875MOL0     H20713   3.357   2.249   4.059 -0.8289  0.0912  0.4585
  875MOL0     H20714   3.711   2.301   4.053 -2.7987  2.8126 -0.6975
  875MOL0     H20715   3.650   2.154   3.973 -4.4049  0.8627 -0.9639
  875MOL0     H20716   3.769   2.170   3.793  1.2860  1.0401 -0.6706
  875MOL0     H20717   3.776   2.355   3.803 -1.0816  0.2210  0.0987
  875MOL0     H20718   3.913   2.175   3.999 -3.7398 -0.0614 -0.6934
  875MOL0     H20719   3.954   2.351   3.966  0.8803  0.7009  0.6036
  875MOL0     H20720   4.036   2.288   3.727 -2.5810  1.9244  2.1825
  875MOL0     H20721   4.029   2.122   3.797 -0.7158  0.0303 -0.4087
  875MOL0     H20722   4.184   2.374   3.850  0.1436  0.4757 -0.6564
  875MOL0     H20723   4.184   2.248   3.985  0.1343  2.7739  0.2942
  875MOL0     H20724   4.285   2.210   3.690 -0.4641  1.0910 -0.4660
  875MOL0     H20725   4.283   2.085   3.819  0.3060  0.0596  0.6196
  875MOL0     H20726   4.426   2.259   3.954 -0.6348 -0.5522  0.0824
  875MOL0     H20727   4.464   2.331   3.798 -0.5435 -1.9606 -3.5518
  875MOL0     H20728   4.529   2.084   3.707  1.4583  1.8320 -1.7841
  875MOL0     H20729   4.530   2.041   3.868  1.5733  2.4005  3.7248
  875MOL0     H20730   3.510   2.315   3.683  0.4865 -1.0478  1.0893
  875MOL0     H20731   3.297   2.224   3.577  1.5171 -0.3822  0.3172
  875MOL0     H20732   3.115   1.754   3.500 -0.5736  2.9474 -3.8756
  875MOL0     H20733   2.920   1.654   3.384 -2.2116 -0.3421 -0.8064
  875MOL0     H20734   1.233   0.906   3.270  3.1860 -3.3047  1.3842
  875MOL0     H20735   1.011   0.898   3.150  2.3051  2.2879  0.4875
  875MOL0     H20736   0.718   0.596   3.009 -0.9772 -0.4938 -4.1481
  875MOL0     H20737   0.526   0.521   2.857 -3.2755 -3.1483  0.6725
  875MOL0     H20738   0.348   0.382   2.800  0.8158 -2.5219 -0.6566
  875MOL0     H20739   0.302   0.337   2.962  1.7449  0.6846  0.4916
  875MOL0     H20740   0.160   0.264   2.766 -0.8890  0.0091 -0.8623
  875MOL0     H20741   0.106   0.429   2.749  0.2563  0.6616  0.2329
  875MOL0     H20742   0.087   0.245   2.997 -2.2193 -1.2189 -1.0958
  875MOL0     H20743   0.060   0.419   3.001  1.1150 -0.6586  1.4252
  875MOL0     H20744  -0.082   0.203   2.828 -2.1179 -0.3317  0.1027
  875MOL0     H20745  -0.141   0.369   2.818  0.3162  0.2037  0.7859
  875MOL0     H20746  -0.315   0.253   3.188  2.2412  1.4945  2.5847
  875MOL0     H20747   0.231   0.643   3.129 -0.5243  1.4295  3.2843
  875MOL0     H20748   0.424   0.707   3.414 -1.0377  0.5074  1.3430
  875MOL0     H20749   0.429   0.857   3.328 -1.1830  0.2675  0.0862
  875MOL0     H20750   0.281   0.762   3.318  0.0542  3.0314 -3.2516
  876MOL0     O20751   6.501   9.202   5.783 -0.4130  0.1208  0.2922
  876MOL0     C20752   6.517   9.236   5.669  0.7382  0.1633 -0.1874
  876MOL0     O20753   6.636   9.274   5.614  0.1770  0.2804 -0.6839
  876MOL0     C20754   6.756   9.278   5.683 -0.2970  0.4185 -0.4501
  876MOL0     C20755   6.801   9.177   5.771 -0.0348  0.3460  0.3808
  876MOL0     C20756   6.929   9.192   5.828  0.2380  0.0339 -0.7208
  876MOL0     C20757   7.012   9.304   5.811 -0.3023  0.1153 -0.2179
  876MOL0     O20758   7.135   9.304   5.882 -0.2169  0.1300 -0.4603
  876MOL0     C20759   7.211   9.428   5.888 -0.2583 -0.5978  0.4873
  876MOL0     C20760   7.156   9.522   5.994  0.2208  0.0299  0.5292
  876MOL0     C20761   7.169   9.661   5.937 -0.5690 -0.3122  0.0171
  876MOL0     C20762   7.172   9.757   6.054  0.1460 -0.2298 -1.2384
  876MOL0     C20763   7.044   9.760   6.146 -0.2979 -0.1365 -0.4327
  876MOL0     C20764   6.907   9.797   6.066  0.6612 -0.2709 -0.8607
  876MOL0     C20765   6.781   9.795   6.151  0.0482 -0.1034  0.3099
  876MOL0     C20766   6.745   9.658   6.199  0.0668 -0.2189  0.7586
  876MOL0     N20767   6.616   9.659   6.270 -0.2677 -0.2970  0.4241
  876MOL0     C20768   6.502   9.594   6.231  0.0865  0.0667 -0.1976
  876MOL0     C20769   6.414   9.584   6.334 -0.7652  0.6729 -0.7080
  876MOL0     C20770   6.272   9.534   6.329  0.3904 -0.3633 -0.0305
  876MOL0     C20771   6.174   9.650   6.347 -0.7374  0.2465 -0.0558
  876MOL0     C20772   6.031   9.614   6.329  0.4416 -0.0084  0.3122
  876MOL0     C20773   5.946   9.740   6.338 -1.8133  0.4612  0.6418
  876MOL0     O20774   5.815   9.714   6.298 -0.1450  0.1542  0.0680
  876MOL0     C20775   5.735   9.649   6.394 -0.0794 -0.1722  0.2108
  876MOL0     C20776   5.598   9.629   6.356  1.0804  0.0382 -0.7630
  876MOL0     C20777   5.501   9.563   6.431  0.0020 -0.2242  0.3154
  876MOL0     C20778   5.366   9.543   6.352 -0.3012  0.2743  0.2207
  876MOL0     C20779   5.530   9.508   6.560 -0.2678 -0.5321 -0.2444
  876MOL0     C20780   5.425   9.451   6.656 -0.7147  0.0891  0.0649
  876MOL0     O20781   5.294   9.478   6.633  0.5415 -0.0123  0.0487
  876MOL0     C20782   5.211   9.413   6.725  0.0966  0.0922  0.4739
  876MOL0     C20783   5.213   9.448   6.865 -0.2129  0.2987 -0.0375
  876MOL0     C20784   5.119   9.384   6.946  0.4384 -0.3400  0.2145
  876MOL0     C20785   5.030   9.289   6.899  0.1059  1.0239  0.5324
  876MOL0     O20786   4.944   9.228   6.989 -0.8933 -0.8141  0.0856
  876MOL0     C20787   4.960   9.090   7.006  0.5236  0.7044 -0.3002
  876MOL0     C20788   4.831   9.042   7.091 -0.3767 -0.5077 -0.6613
  876MOL0     C20789   4.711   9.039   6.987 -0.2405 -0.4399 -0.4449
  876MOL0     C20790   4.596   8.970   7.052  0.1184  0.5793 -0.1616
  876MOL0     C20791   4.489   8.918   6.950 -0.4272 -0.6860 -1.2207
  876MOL0     C20792   4.362   8.879   7.018 -0.9138 -0.7318  0.5899
  876MOL0     C20793   4.363   8.810   7.150  0.3322  0.6645  0.2063
  876MOL0     C20794   4.225   8.823   7.200  0.3539  0.1134  0.4575
  876MOL0    Cl20795   4.190   8.990   7.268 -0.7350  0.2579 -0.3007
  876MOL0     C20796   5.032   9.255   6.766  0.9899  0.3942  0.4930
  876MOL0     C20797   5.117   9.318   6.676  0.5989  0.0703  0.1508
  876MOL0     O20798   5.473   9.384   6.744  0.5137  0.7125  1.4180
  876MOL0     C20799   5.670   9.526   6.593 -1.1710  1.3674  0.2470
  876MOL0     C20800   5.764   9.599   6.519  0.4556  0.4629 -0.1012
  876MOL0     N20801   6.474   9.654   6.438  0.6382  0.3444  0.0607
  876MOL0     N20802   6.597   9.688   6.394  0.0045  0.0607 -0.0628
  876MOL0     C20803   6.956   9.408   5.733 -0.5355 -0.7936  1.3741
  876MOL0     C20804   6.838   9.394   5.666  0.7214  0.0277  0.4282
  876MOL0     C20805   6.407   9.237   5.568 -0.1083 -0.1509 -0.3150
  876MOL0     C20806   6.432   9.305   5.450  0.1449 -0.7660  0.0244
  876MOL0     C20807   6.331   9.322   5.345 -0.8299  0.3256 -0.5458
  876MOL0     C20808   6.212   9.264   5.356  0.1777  0.1861  0.1298
  876MOL0     O20809   6.118   9.291   5.259  0.0366 -0.2645  0.2955
  876MOL0     C20810   5.979   9.273   5.293 -0.3565 -0.5088  0.8168
  876MOL0     C20811   5.889   9.330   5.180 -0.6980  0.2843  0.2330
  876MOL0     C20812   5.736   9.317   5.230 -0.1049  0.7016  0.2471
  876MOL0     C20813   5.678   9.177   5.240  0.1903  0.6366  0.3008
  876MOL0     C20814   5.557   9.156   5.164 -0.3413  0.2586  0.5498
  876MOL0     C20815   5.448   9.129   5.110 -0.4448 -0.0995 -0.5971
  876MOL0     C20816   6.185   9.193   5.476  0.8128 -1.3513  0.7843
  876MOL0     C20817   6.275   9.175   5.575  0.6317  1.2120 -0.9267
  876MOL0     C20818   6.225   9.098   5.696 -0.2617  0.0159 -0.4574
  876MOL0     H20819   6.746   9.084   5.779  1.2923 -0.2929  3.4919
  876MOL0     H20820   6.979   9.108   5.876 -0.5145  0.7635  1.4960
  876MOL0     H20821   7.212   9.470   5.787 -2.7641  3.5740  1.9658
  876MOL0     H20822   7.315   9.407   5.914 -0.4359 -1.0331  0.8627
  876MOL0     H20823   7.053   9.499   6.024  0.3595 -0.2402  0.8015
  876MOL0     H20824   7.214   9.505   6.085  1.0053  1.8061  0.4103
  876MOL0     H20825   7.267   9.676   5.891  0.2944 -1.5869  1.3402
  876MOL0     H20826   7.086   9.679   5.867  0.1232  0.1143 -0.7019
  876MOL0     H20827   7.258   9.753   6.122  0.3766  0.3596 -1.4864
  876MOL0     H20828   7.178   9.857   6.010  1.3526 -0.7400 -2.3081
  876MOL0     H20829   7.065   9.845   6.212  2.3412 -0.8522 -0.2292
  876MOL0     H20830   7.031   9.674   6.211  0.2813 -0.0474 -0.1926
  876MOL0     H20831   6.906   9.900   6.030 -1.5033  1.3671  3.1591
  876MOL0     H20832   6.891   9.734   5.978  0.0387  0.7562 -1.4980
  876MOL0     H20833   6.691   9.832   6.100 -0.2411  0.4095  1.1814
  876MOL0     H20834   6.782   9.856   6.241 -4.2131 -1.0342  1.2222
  876MOL0     H20835   6.739   9.584   6.119  4.2939 -2.2712  2.0643
  876MOL0     H20836   6.824   9.627   6.267  2.0023  0.5634 -1.0295
  876MOL0     H20837   6.488   9.548   6.134  2.0897  0.0888 -0.5318
  876MOL0     H20838   6.249   9.450   6.395 -0.3063 -1.0204 -1.0790
  876MOL0     H20839   6.249   9.497   6.228  0.5299  1.0582 -0.6061
  876MOL0     H20840   6.190   9.691   6.447  0.9629  0.9903 -0.5864
  876MOL0     H20841   6.194   9.726   6.271 -2.3783  0.1376 -0.6334
  876MOL0     H20842   6.004   9.582   6.228  2.2911  2.1805 -0.9708
  876MOL0     H20843   6.007   9.534   6.399 -0.6514  1.6746  1.9472
  876MOL0     H20844   5.952   9.779   6.440  2.3012  0.7792  0.4276
  876MOL0     H20845   5.987   9.811   6.266  2.0843 -0.4172  1.7508
  876MOL0     H20846   5.564   9.668   6.260 -3.1182  0.1605  0.5774
  876MOL0     H20847   5.275   9.513   6.406 -1.0127  0.2128 -0.9704
  876MOL0     H20848   5.374   9.465   6.276  0.7273 -0.4012  1.0073
  876MOL0     H20849   5.326   9.631   6.300 -3.2709 -0.1880  1.4661
  876MOL0     H20850   5.259   9.541   6.898  1.2898 -0.2851 -0.4184
  876MOL0     H20851   5.099   9.427   7.044 -2.1240  2.0154 -1.1829
  876MOL0     H20852   4.945   9.031   6.915 -3.5232 -0.5267  0.9648
  876MOL0     H20853   5.053   9.061   7.055  0.7514 -0.2360 -1.2375
  876MOL0     H20854   4.849   8.945   7.139  0.3777  1.0047  2.4087
  876MOL0     H20855   4.821   9.108   7.177 -2.0673 -1.8350  0.2323
  876MOL0     H20856   4.747   8.993   6.894 -0.1182  0.9271 -1.1014
  876MOL0     H20857   4.678   9.140   6.962  1.7123  1.0358  2.4375
  876MOL0     H20858   4.547   9.034   7.126  0.5965  1.0852 -0.2693
  876MOL0     H20859   4.639   8.882   7.100  0.2941 -0.3497 -1.9264
  876MOL0     H20860   4.472   9.007   6.889  0.4400  0.8386  0.6469
  876MOL0     H20861   4.521   8.835   6.886 -1.0608 -1.0639 -1.0581
  876MOL0     H20862   4.304   8.820   6.947  2.4633  0.5513 -3.7000
  876MOL0     H20863   4.317   8.978   7.025 -0.9683 -0.5605 -1.4381
  876MOL0     H20864   4.427   8.860   7.224  1.0852  1.2048 -0.7878
  876MOL0     H20865   4.396   8.706   7.145 -0.5678  0.3393  0.7525
  876MOL0     H20866   4.215   8.739   7.269  2.5427 -1.8919 -1.4728
  876MOL0     H20867   4.159   8.791   7.118  0.1883 -1.4952  1.1833
  876MOL0     H20868   4.973   9.170   6.733  0.4383  1.1462 -0.5307
  876MOL0     H20869   5.125   9.299   6.569  0.1857  1.7399 -0.2080
  876MOL0     H20870   5.714   9.479   6.681  0.9455 -0.9801 -1.9242
  876MOL0     H20871   5.864   9.606   6.562  0.1757 -2.7487  1.3631
  876MOL0     H20872   7.023   9.491   5.712 -1.3961  0.4854  3.3478
  876MOL0     H20873   6.792   9.465   5.598 -1.4623 -1.5176  0.2076
  876MOL0     H20874   6.518   9.360   5.413  0.7975 -0.6114  1.6889
  876MOL0     H20875   6.344   9.390   5.261 -0.7689 -1.8464 -2.3801
  876MOL0     H20876   5.968   9.164   5.303 -1.5403 -0.4529  0.2955
  876MOL0     H20877   5.940   9.306   5.390  3.4227 -1.1163  2.7515
  876MOL0     H20878   5.907   9.286   5.082  0.7472 -0.2461  0.7113
  876MOL0     H20879   5.921   9.434   5.170  1.8789 -0.2917  1.6859
  876MOL0     H20880   5.731   9.363   5.329 -0.6604 -2.1642  1.6598
  876MOL0     H20881   5.673   9.384   5.171  1.1854  0.7630 -1.1321
  876MOL0     H20882   5.636   9.173   5.341  0.2313  1.0437  0.3345
  876MOL0     H20883   5.754   9.101   5.223 -1.5537 -0.8813 -1.1777
  876MOL0     H20884   5.353   9.099   5.072  0.4190 -0.8084 -2.3181
  876MOL0     H20885   6.083   9.161   5.490 -0.3534  1.9232  0.7041
  876MOL0     H20886   6.222   9.175   5.774  0.1940  0.1005 -0.5163
  876MOL0     H20887   6.128   9.048   5.687 -0.5860  0.2333  1.4234
  876MOL0     H20888   6.294   9.021   5.734 -0.5799  0.4279  1.0365
  877MOL0     O20889   9.322   7.427   8.027 -0.0035  0.8307 -0.0477
  877MOL0     C20890   9.273   7.308   8.042 -0.4129 -0.5956 -0.3363
  877MOL0     O20891   9.340   7.200   8.094 -0.6041 -0.2143 -0.3527
  877MOL0     C20892   9.453   7.223   8.171 -0.2191 -0.0274  0.3318
  877MOL0     C20893   9.556   7.125   8.156 -0.6760 -0.8511 -1.0649
  877MOL0     C20894   9.665   7.116   8.237  0.4926  0.4542 -0.4473
  877MOL0     C20895   9.686   7.219   8.331 -0.0565  0.5880  0.5169
  877MOL0     O20896   9.801   7.203   8.407  0.1052  0.2757 -0.4056
  877MOL0     C20897   9.824   7.281   8.520  0.3791 -0.1382 -0.2282
  877MOL0     C20898   9.905   7.403   8.488 -0.4564 -0.0537 -0.6856
  877MOL0     C20899   9.894   7.515   8.600  0.2559 -0.1190 -0.2374
  877MOL0     C20900   9.859   7.657   8.544  0.2221  0.7585 -0.7253
  877MOL0     C20901   9.767   7.735   8.638 -1.3780 -0.8661 -0.6220
  877MOL0     C20902   9.826   7.778   8.772  0.0117 -0.4201  0.0246
  877MOL0     C20903   9.957   7.857   8.770  0.7283 -0.0364  0.8005
  877MOL0     C20904   9.992   7.901   8.911  0.2577  0.2924  0.3432
  877MOL0     N20905  10.141   7.925   8.916  0.2340  0.8487 -0.0881
  877MOL0     C20906  10.218   8.037   8.890 -0.2641 -0.4315 -0.3129
  877MOL0     C20907  10.346   7.992   8.903 -0.1641 -1.1553  0.1885
  877MOL0     C20908  10.462   8.087   8.878  0.5252  0.4739 -0.1316
  877MOL0     C20909  10.496   8.095   8.725  0.2839 -0.0412 -0.2011
  877MOL0     C20910  10.554   7.961   8.673  0.5230 -0.5232 -0.4827
  877MOL0     C20911  10.622   7.972   8.535  0.5620  0.3254 -1.1848
  877MOL0     O20912  10.755   8.030   8.560 -0.6115  0.4518 -0.6377
  877MOL0     C20913  10.862   8.006   8.473  1.2356 -0.4531 -0.2107
  877MOL0     C20914  10.859   7.912   8.373  0.9384 -0.6105  0.5454
  877MOL0     C20915  10.966   7.914   8.284 -0.7592 -0.3734 -0.2642
  877MOL0     C20916  10.956   7.829   8.161  0.0452  0.1851 -0.3678
  877MOL0     C20917  11.083   7.995   8.313 -0.6671 -0.2900  0.0827
  877MOL0     C20918  11.206   7.988   8.229 -0.9226 -1.1217  0.4393
  877MOL0     O20919  11.251   7.875   8.191 -0.5971  1.3275  0.2603
  877MOL0     C20920  11.376   7.856   8.137 -0.6469 -0.0167  0.5425
  877MOL0     C20921  11.394   7.760   8.036  0.3557  0.4084 -0.3764
  877MOL0     C20922  11.519   7.727   7.989  0.2241 -0.5404  0.1886
  877MOL0     C20923  11.634   7.790   8.034  0.5639  0.7465 -0.3035
  877MOL0     O20924  11.748   7.751   7.976  0.2301  0.3746 -0.2738
  877MOL0     C20925  11.874   7.823   8.000  0.6350  0.4825 -0.3570
  877MOL0     C20926  11.990   7.726   7.978  0.0371  0.2178 -0.0404
  877MOL0     C20927  12.118   7.800   8.027  0.1651 -0.3671 -0.7183
  877MOL0     C20928  12.247   7.806   7.937  0.5087  0.1292 -0.3552
  877MOL0     C20929  12.365   7.888   7.983 -0.6483  0.4897  0.6112
  877MOL0     C20930  12.355   8.036   7.944  0.5376  0.5621  0.1425
  877MOL0     C20931  12.479   8.105   8.002 -0.3991 -0.0892  0.5470
  877MOL0     C20932  12.460   8.251   7.976 -0.3350 -0.0163 -0.3061
  877MOL0    Cl20933  12.374   8.322   8.124  0.3906  0.5043 -0.1933
  877MOL0     C20934  11.617   7.883   8.135 -1.3449  0.4516  0.9446
  877MOL0     C20935  11.491   7.909   8.184 -0.8759 -0.6904 -0.0454
  877MOL0     O20936  11.263   8.096   8.211  0.4403 -0.7094  0.5382
  877MOL0     C20937  11.072   8.085   8.418 -0.9382 -0.0113  0.3728
  877MOL0     C20938  10.961   8.087   8.505 -0.1313  0.1699 -0.6616
  877MOL0     N20939  10.341   7.871   8.952 -0.6362  0.3409  0.2824
  877MOL0     N20940  10.226   7.827   8.959  0.6048 -0.1849 -0.0342
  877MOL0     C20941   9.593   7.326   8.351  0.5500  1.0459  0.9032
  877MOL0     C20942   9.479   7.333   8.265 -0.1735 -0.1790 -0.0564
  877MOL0     C20943   9.132   7.282   7.992 -0.6065 -0.6136 -0.1197
  877MOL0     C20944   9.062   7.159   8.022 -0.2916 -0.6986 -0.6614
  877MOL0     C20945   8.933   7.139   7.963  0.1425  0.2251 -0.0489
  877MOL0     C20946   8.870   7.236   7.885  0.8756 -0.2422  0.4222
  877MOL0     O20947   8.758   7.226   7.811  1.3496 -0.1565  0.3414
  877MOL0     C20948   8.667   7.126   7.855 -0.0872  0.9223 -0.1826
  877MOL0     C20949   8.530   7.135   7.792  0.2711  0.3250  0.5103
  877MOL0     C20950   8.524   7.050   7.667  0.8000 -0.4303 -0.0690
  877MOL0     C20951   8.387   7.076   7.581  0.4206  0.0015 -0.4029
  877MOL0     C20952   8.271   6.995   7.636 -0.4750 -0.6030 -0.5918
  877MOL0     C20953   8.180   6.920   7.648  0.1852  0.2965  0.8818
  877MOL0     C20954   8.930   7.367   7.878 -0.2725  0.2480  0.6971
  877MOL0     C20955   9.055   7.386   7.939  0.0906 -0.9920 -0.2527
  877MOL0     C20956   9.093   7.535   7.923 -0.0813 -0.4801 -0.6511
  877MOL0     H20957   9.548   7.044   8.085  2.9704 -0.9116 -1.6455
  877MOL0     H20958   9.734   7.033   8.249  1.4169  1.5102  2.2390
  877MOL0     H20959   9.890   7.226   8.589  2.9093  1.2358 -1.4199
  877MOL0     H20960   9.729   7.309   8.566 -1.4606  0.5921 -4.0775
  877MOL0     H20961  10.011   7.376   8.494 -0.3288  0.6330  0.5305
  877MOL0     H20962   9.875   7.441   8.391  0.9553  0.5484 -0.9066
  877MOL0     H20963   9.825   7.484   8.680  1.5056  0.9260  1.3195
  877MOL0     H20964   9.988   7.536   8.653  0.7691  0.1475 -1.2439
  877MOL0     H20965   9.951   7.710   8.517  3.5389 -2.5688  2.7465
  877MOL0     H20966   9.794   7.636   8.459 -1.9413 -1.9181  1.4003
  877MOL0     H20967   9.681   7.681   8.677 -2.6684  0.9271 -0.8792
  877MOL0     H20968   9.746   7.829   8.586  1.1087 -0.3427 -0.8398
  877MOL0     H20969   9.766   7.852   8.826  0.7070  1.2860 -1.4203
  877MOL0     H20970   9.835   7.687   8.831  0.4948 -0.3334  0.0871
  877MOL0     H20971   9.938   7.944   8.707  2.0987 -0.7350 -0.6647
  877MOL0     H20972  10.037   7.798   8.723  0.1190  1.7396 -2.8295
  877MOL0     H20973   9.944   7.992   8.948  2.2007  1.2396  0.6528
  877MOL0     H20974   9.967   7.824   8.984 -1.6906 -1.1695 -1.7279
  877MOL0     H20975  10.186   8.138   8.863  1.2237 -0.2517 -1.5462
  877MOL0     H20976  10.551   8.060   8.936  0.7291  1.8200  0.2226
  877MOL0     H20977  10.451   8.189   8.917  0.8712  0.5806 -0.3137
  877MOL0     H20978  10.404   8.132   8.680  0.3098 -1.7343 -1.7693
  877MOL0     H20979  10.581   8.164   8.717  0.5317 -0.1889  0.9490
  877MOL0     H20980  10.620   7.922   8.750  0.0634  2.2707  1.4765
  877MOL0     H20981  10.467   7.897   8.655 -0.4465  0.8865 -0.9448
  877MOL0     H20982  10.616   7.869   8.500 -2.3324 -0.2320  0.5806
  877MOL0     H20983  10.573   8.040   8.465  0.3886  3.3286  1.6205
  877MOL0     H20984  10.771   7.853   8.348 -0.6330  1.0947  1.7576
  877MOL0     H20985  11.023   7.742   8.163 -0.5702 -0.3392 -1.2248
  877MOL0     H20986  10.990   7.897   8.082  2.3656  2.3237  2.2743
  877MOL0     H20987  10.850   7.801   8.156 -0.6569  1.7273  3.0984
  877MOL0     H20988  11.302   7.724   7.993  1.1445 -2.9599  0.4673
  877MOL0     H20989  11.530   7.655   7.908 -0.1222  1.1980 -1.4662
  877MOL0     H20990  11.877   7.927   7.968 -3.5732  0.7508 -0.4865
  877MOL0     H20991  11.868   7.831   8.109 -0.5628  3.1917 -0.5466
  877MOL0     H20992  11.964   7.631   8.024  0.7024 -0.3918 -0.8824
  877MOL0     H20993  12.005   7.704   7.872  1.4293  1.7430 -0.2022
  877MOL0     H20994  12.147   7.752   8.121 -1.8002 -2.9637 -1.3254
  877MOL0     H20995  12.088   7.903   8.045 -0.6252 -1.0230  2.3054
  877MOL0     H20996  12.214   7.837   7.837 -2.7949 -1.6425  0.0407
  877MOL0     H20997  12.280   7.702   7.936 -2.1890 -0.8066 -0.5397
  877MOL0     H20998  12.377   7.878   8.092 -1.0867  3.1318  0.9721
  877MOL0     H20999  12.455   7.852   7.933  0.1046  0.1645  2.1288
  877MOL0     H21000  12.263   8.069   7.993  1.4075  3.2393  0.1339
  877MOL0     H21001  12.329   8.049   7.839 -2.3593 -0.6985  0.5918
  877MOL0     H21002  12.572   8.068   7.956  0.5000 -0.2534  2.4024
  877MOL0     H21003  12.497   8.097   8.109 -0.9330  2.8189  0.9240
  877MOL0     H21004  12.410   8.265   7.880  0.8208 -1.1703 -1.1166
  877MOL0     H21005  12.555   8.306   7.970  0.6795 -1.3306  2.1417
  877MOL0     H21006  11.703   7.933   8.177 -0.1510 -0.4414 -0.3474
  877MOL0     H21007  11.486   7.971   8.273 -0.9216  0.5726 -0.9043
  877MOL0     H21008  11.160   8.145   8.436  0.9853 -1.3676 -3.4141
  877MOL0     H21009  10.957   8.162   8.583  2.1054 -0.5016  0.1697
  877MOL0     H21010   9.612   7.404   8.425  3.5645 -0.2504  1.6078
  877MOL0     H21011   9.413   7.420   8.271  1.4576  1.0204  2.0087
  877MOL0     H21012   9.106   7.081   8.083 -0.9339 -0.2199  0.4371
  877MOL0     H21013   8.881   7.044   7.960  1.6584 -0.6421  0.1127
  877MOL0     H21014   8.707   7.024   7.847  0.7581  1.3183 -1.1541
  877MOL0     H21015   8.651   7.143   7.962  0.6564  0.4629  0.0104
  877MOL0     H21016   8.506   7.240   7.773  0.2334  0.2899  0.3580
  877MOL0     H21017   8.461   7.101   7.870  1.2003  2.7066  2.4895
  877MOL0     H21018   8.613   7.068   7.606  0.6708 -2.6558 -1.0093
  877MOL0     H21019   8.529   6.943   7.688  3.2410 -0.7765 -1.9275
  877MOL0     H21020   8.404   7.054   7.475 -1.7880  1.5986 -1.1858
  877MOL0     H21021   8.372   7.185   7.582  3.7046  0.5499 -0.8797
  877MOL0     H21022   8.092   6.857   7.650  1.9520 -2.3053  1.9164
  877MOL0     H21023   8.873   7.444   7.828  1.4071  0.9433 -0.2251
  877MOL0     H21024   9.009   7.598   7.892  1.1981  2.4033  1.2726
  877MOL0     H21025   9.114   7.583   8.019 -1.8324  0.5735 -0.7385
  877MOL0     H21026   9.176   7.552   7.854  1.5038 -0.3535  1.1764
  878MOL0     O21027  10.428   1.542   2.479 -0.0410 -0.2430 -0.4574
  878MOL0     C21028  10.357   1.553   2.576 -0.1452  0.2651  0.1857
  878MOL0     O21029  10.406   1.573   2.700 -1.0309  0.0179  0.0650
  878MOL0     C21030  10.541   1.577   2.711 -0.7289 -0.2627  0.4384
  878MOL0     C21031  10.610   1.701   2.657 -0.1973  0.5177  0.4046
  878MOL0     C21032  10.750   1.717   2.665  0.9301  0.0315  0.3062
  878MOL0     C21033  10.822   1.614   2.725 -0.2913 -0.9250 -0.7594
  878MOL0     O21034  10.969   1.621   2.724 -0.2606 -0.2748 -1.0815
  878MOL0     C21035  11.058   1.528   2.797  0.0527 -0.3992 -0.3512
  878MOL0     C21036  11.202   1.586   2.809 -0.5958  0.0037  0.4691
  878MOL0     C21037  11.250   1.648   2.676  0.1506 -0.0879 -0.3814
  878MOL0     C21038  11.365   1.751   2.701 -0.5256  0.4458 -0.0483
  878MOL0     C21039  11.499   1.683   2.710  0.0197  0.2078 -0.3367
  878MOL0     C21040  11.614   1.790   2.707 -0.8801  0.0717 -0.1084
  878MOL0     C21041  11.754   1.749   2.749 -0.0092  0.1853  0.4490
  878MOL0     C21042  11.801   1.620   2.684 -0.1581  0.3784  0.0292
  878MOL0     N21043  11.856   1.634   2.548 -0.2787 -0.8946  0.4742
  878MOL0     C21044  11.808   1.699   2.431 -0.0740  0.2219 -0.7126
  878MOL0     C21045  11.908   1.694   2.345  0.5245  0.4402 -0.4454
  878MOL0     C21046  11.899   1.737   2.201 -0.3885  0.3710 -0.3788
  878MOL0     C21047  11.947   1.623   2.108 -0.2414 -1.3184  0.4722
  878MOL0     C21048  11.957   1.673   1.957 -0.8010  0.0789 -1.2716
  878MOL0     C21049  12.016   1.571   1.861  0.9041 -0.3999  0.4796
  878MOL0     O21050  12.144   1.522   1.888  0.2328  0.2394 -0.9663
  878MOL0     C21051  12.251   1.594   1.841 -0.3714 -0.5516 -0.6592
  878MOL0     C21052  12.247   1.720   1.791 -0.8085 -1.3632 -0.3636
  878MOL0     C21053  12.357   1.793   1.739 -0.4675  0.2535 -0.0667
  878MOL0     C21054  12.343   1.938   1.702 -0.2698  0.5611  0.0858
  878MOL0     C21055  12.478   1.726   1.722 -0.6777  0.2810  0.3322
  878MOL0     C21056  12.598   1.778   1.640 -0.1691  0.3328 -0.3113
  878MOL0     O21057  12.577   1.895   1.569 -0.3889  0.1230 -0.1119
  878MOL0     C21058  12.695   1.967   1.554  0.2832 -0.1049  0.0491
  878MOL0     C21059  12.716   2.031   1.432  0.1565 -0.7575  0.0891
  878MOL0     C21060  12.822   2.131   1.423 -0.7339  0.3063  0.1774
  878MOL0     C21061  12.893   2.178   1.538  0.1045 -0.4843 -0.1826
  878MOL0     O21062  12.995   2.268   1.528  0.3497  0.0741  0.5639
  878MOL0     C21063  13.002   2.351   1.408  0.7266  0.7084  0.0165
  878MOL0     C21064  13.123   2.448   1.419  0.5298 -0.6463 -0.3038
  878MOL0     C21065  13.202   2.438   1.284 -0.1221 -0.8071  0.5836
  878MOL0     C21066  13.314   2.537   1.282  0.3914 -0.9215  0.5055
  878MOL0     C21067  13.359   2.592   1.149 -0.2327 -0.1706  0.6076
  878MOL0     C21068  13.390   2.468   1.056 -0.3286 -0.0517  0.1195
  878MOL0     C21069  13.477   2.501   0.933  0.8309 -0.0231  0.4691
  878MOL0     C21070  13.623   2.482   0.961  0.3381 -0.5346 -0.3677
  878MOL0    Cl21071  13.668   2.312   0.978 -0.0227  0.1217  0.2281
  878MOL0     C21072  12.877   2.107   1.655  0.3854 -0.0921  0.2172
  878MOL0     C21073  12.773   2.016   1.660  0.1080 -0.9546  0.2431
  878MOL0     O21074  12.702   1.716   1.644 -0.2105  0.4450 -0.4253
  878MOL0     C21075  12.484   1.586   1.780  0.6520  0.1122  1.0485
  878MOL0     C21076  12.375   1.525   1.838  0.1098  0.0870 -0.5061
  878MOL0     N21077  12.020   1.643   2.403 -0.8108 -0.0022 -0.2590
  878MOL0     N21078  11.984   1.604   2.517 -0.3088  0.0570  0.5055
  878MOL0     C21079  10.759   1.498   2.775 -0.0511  0.0952  0.6262
  878MOL0     C21080  10.620   1.481   2.774 -0.7465 -0.0422 -1.0247
  878MOL0     C21081  10.214   1.549   2.552  0.0788 -0.0116 -0.1829
  878MOL0     C21082  10.130   1.662   2.512  0.5485  0.0408  0.5893
  878MOL0     C21083  10.004   1.648   2.465 -0.1738  0.4787  0.1906
  878MOL0     C21084   9.949   1.520   2.463  0.2633 -0.1415 -0.0794
  878MOL0     O21085   9.821   1.504   2.417 -0.8413  0.0918  0.4876
  878MOL0     C21086   9.767   1.573   2.306 -0.0350 -0.5545  0.7804
  878MOL0     C21087   9.835   1.530   2.176  0.0996 -0.4598  0.2992
  878MOL0     C21088   9.826   1.380   2.149  0.4050 -0.2697  0.3541
  878MOL0     C21089   9.691   1.302   2.159  0.1508 -1.3526  0.2152
  878MOL0     C21090   9.599   1.345   2.057  0.3198 -0.5177  0.4340
  878MOL0     C21091   9.516   1.381   1.978  0.1084  0.7571  0.7500
  878MOL0     C21092  10.023   1.411   2.518  0.6339  0.5145  0.2343
  878MOL0     C21093  10.156   1.422   2.558  0.9150  0.3138  0.0414
  878MOL0     C21094  10.230   1.301   2.604  0.0136 -0.0572 -0.0124
  878MOL0     H21095  10.544   1.777   2.617 -1.7175 -1.2979 -0.6738
  878MOL0     H21096  10.802   1.803   2.624  3.7626 -2.4738 -1.8001
  878MOL0     H21097  11.055   1.430   2.750  1.9968 -1.0177  0.7212
  878MOL0     H21098  11.021   1.501   2.896  4.7615 -2.0743  1.2330
  878MOL0     H21099  11.197   1.667   2.881  0.3283  2.4277 -2.0127
  878MOL0     H21100  11.268   1.503   2.835  3.0446  2.7452  0.7339
  878MOL0     H21101  11.265   1.568   2.603 -3.0162 -0.4195 -0.8186
  878MOL0     H21102  11.176   1.716   2.632 -0.2552  0.4793  1.1077
  878MOL0     H21103  11.363   1.830   2.625 -1.0968  2.6416  2.1292
  878MOL0     H21104  11.359   1.795   2.801  2.1371 -2.9064  1.8034
  878MOL0     H21105  11.520   1.610   2.632  3.6380  2.1931 -1.4553
  878MOL0     H21106  11.494   1.626   2.803 -4.0849  2.4709  1.1073
  878MOL0     H21107  11.624   1.828   2.605 -1.0606  3.5560  1.0357
  878MOL0     H21108  11.582   1.876   2.766 -2.0373 -0.5622  0.2145
  878MOL0     H21109  11.755   1.734   2.857  3.6733 -1.1764  0.3652
  878MOL0     H21110  11.832   1.818   2.716  0.7276 -0.4135  0.8995
  878MOL0     H21111  11.886   1.591   2.747 -1.7056  2.1442  3.2054
  878MOL0     H21112  11.729   1.537   2.691  1.1353 -0.7960 -0.0609
  878MOL0     H21113  11.710   1.741   2.407 -0.3719  0.4119  0.7186
  878MOL0     H21114  11.958   1.827   2.180 -0.6487  0.2219 -1.8308
  878MOL0     H21115  11.797   1.771   2.178  0.1389  3.1036  0.9085
  878MOL0     H21116  12.048   1.593   2.137  0.3208  0.5480  0.5829
  878MOL0     H21117  11.876   1.539   2.106 -0.1312 -1.4400 -2.0931
  878MOL0     H21118  11.861   1.699   1.910 -0.1459  2.3579 -1.4604
  878MOL0     H21119  12.022   1.760   1.948 -1.4464  0.4559 -2.7385
  878MOL0     H21120  11.950   1.484   1.859  2.1457 -1.3800 -1.5126
  878MOL0     H21121  12.022   1.610   1.759  0.8776 -0.7796  0.3320
  878MOL0     H21122  12.155   1.775   1.773  0.6159  1.1050 -0.5158
  878MOL0     H21123  12.432   1.985   1.745 -0.1365 -2.0077  2.9298
  878MOL0     H21124  12.255   1.994   1.735 -0.7297  0.8920 -1.5832
  878MOL0     H21125  12.346   1.949   1.593  0.2201  2.6240  0.2680
  878MOL0     H21126  12.653   2.006   1.347 -2.1902 -3.2412  2.3806
  878MOL0     H21127  12.838   2.166   1.322  0.0972  0.1061  0.2287
  878MOL0     H21128  13.026   2.286   1.324 -1.2839  1.5469 -1.2909
  878MOL0     H21129  12.913   2.409   1.382  1.7148  1.8423 -0.9756
  878MOL0     H21130  13.092   2.552   1.437 -0.8699 -0.8856 -1.1879
  878MOL0     H21131  13.195   2.413   1.494 -0.7441 -1.2887  0.6653
  878MOL0     H21132  13.129   2.451   1.204  0.1161 -2.0413  0.1477
  878MOL0     H21133  13.236   2.335   1.274  1.0805 -0.3409 -0.3296
  878MOL0     H21134  13.403   2.494   1.329  1.3526  0.8807  0.4454
  878MOL0     H21135  13.293   2.617   1.354  1.0723 -2.2466  2.2568
  878MOL0     H21136  13.286   2.660   1.105  2.5525  1.9741 -1.0187
  878MOL0     H21137  13.450   2.652   1.162  0.3532 -1.1213  1.0293
  878MOL0     H21138  13.297   2.422   1.019 -0.0214 -0.5930  0.0007
  878MOL0     H21139  13.436   2.390   1.117 -1.7081 -1.2880 -0.3532
  878MOL0     H21140  13.466   2.608   0.913  0.6192  0.1719  1.5749
  878MOL0     H21141  13.447   2.441   0.846 -2.4826 -0.9096  2.0661
  878MOL0     H21142  13.660   2.534   1.050 -1.2632  1.0665 -0.6025
  878MOL0     H21143  13.685   2.529   0.885  2.5974  1.2663  2.3711
  878MOL0     H21144  12.932   2.116   1.748  1.0685  1.7416 -0.3403
  878MOL0     H21145  12.744   1.960   1.749 -2.4948 -0.1302 -0.0107
  878MOL0     H21146  12.567   1.516   1.780  0.8973  0.3503  2.7710
  878MOL0     H21147  12.390   1.426   1.880 -0.5897  0.4171  0.5663
  878MOL0     H21148  10.820   1.427   2.828  0.3565  0.5891  0.8212
  878MOL0     H21149  10.571   1.394   2.817 -0.7739 -0.0901 -1.1544
  878MOL0     H21150  10.186   1.755   2.518  0.0555  0.2267  3.4537
  878MOL0     H21151   9.940   1.731   2.438 -0.3153  0.3881  0.2425
  878MOL0     H21152   9.658   1.567   2.305  0.0026 -1.9752 -1.4255
  878MOL0     H21153   9.785   1.681   2.309  0.5060 -0.3954 -3.1348
  878MOL0     H21154   9.938   1.567   2.178 -0.2182  0.4091  1.3265
  878MOL0     H21155   9.792   1.580   2.089 -0.2384 -1.3684 -0.0687
  878MOL0     H21156   9.866   1.363   2.049 -1.0029  1.6951 -0.6010
  878MOL0     H21157   9.885   1.328   2.225 -1.7890 -1.5138  1.3295
  878MOL0     H21158   9.643   1.319   2.256 -3.6809 -3.2344 -1.1659
  878MOL0     H21159   9.702   1.195   2.145  1.2192 -0.9960 -2.1134
  878MOL0     H21160   9.436   1.409   1.912  2.6698  2.5959 -1.8407
  878MOL0     H21161   9.988   1.310   2.506  4.2518 -0.9503  0.6996
  878MOL0     H21162  10.165   1.214   2.618 -0.4008  0.4320  1.1357
  878MOL0     H21163  10.301   1.267   2.527  0.3872 -0.0605  0.3306
  878MOL0     H21164  10.274   1.310   2.703 -0.3340 -1.8457  0.3438
  879MOL0     O21165   6.013   8.507   1.502 -0.6491  0.2591  0.1198
  879MOL0     C21166   5.912   8.552   1.462 -0.4498 -1.2598  0.1030
  879MOL0     O21167   5.869   8.672   1.505  0.3730 -0.6207  0.0908
  879MOL0     C21168   5.962   8.756   1.544 -0.0861  0.0460  0.1643
  879MOL0     C21169   5.986   8.784   1.679  0.0678  0.0460  0.4506
  879MOL0     C21170   6.075   8.884   1.714 -0.1398  0.0357 -0.5968
  879MOL0     C21171   6.161   8.939   1.617  0.7091 -0.5319 -0.4805
  879MOL0     O21172   6.254   9.030   1.650  0.1647 -0.6128  0.5720
  879MOL0     C21173   6.358   8.968   1.720 -0.3308  0.7617 -0.4252
  879MOL0     C21174   6.444   8.859   1.649 -1.1268  0.0381 -0.4507
  879MOL0     C21175   6.542   8.914   1.550 -0.3168  0.5980  0.0303
  879MOL0     C21176   6.655   8.815   1.516 -0.0248 -1.0105  0.5342
  879MOL0     C21177   6.746   8.869   1.408  0.2551  0.7433 -0.1606
  879MOL0     C21178   6.803   9.000   1.447  0.0473  0.0637 -0.2421
  879MOL0     C21179   6.943   9.024   1.394 -0.7547  0.1597 -0.3091
  879MOL0     C21180   7.049   8.957   1.480  0.1761  0.6257 -0.4823
  879MOL0     N21181   7.188   8.957   1.415  0.0978 -0.8048  0.2262
  879MOL0     C21182   7.245   8.855   1.342  0.8944  0.4062 -0.7479
  879MOL0     C21183   7.370   8.889   1.332  0.2271 -0.2337 -1.0095
  879MOL0     C21184   7.478   8.803   1.274  0.0537  0.2292  0.9523
  879MOL0     C21185   7.617   8.858   1.286 -0.1532 -0.2573  0.1805
  879MOL0     C21186   7.657   8.955   1.180  0.2411 -0.3265  0.9909
  879MOL0     C21187   7.811   8.972   1.158  0.2747  0.2749 -0.6743
  879MOL0     O21188   7.873   9.008   1.280 -0.6282 -0.0289 -0.2160
  879MOL0     C21189   8.006   8.997   1.291  0.8294 -0.4922 -0.2882
  879MOL0     C21190   8.094   9.027   1.185 -0.4258  0.5149 -0.4002
  879MOL0     C21191   8.236   9.014   1.205  0.4992 -1.0470  0.5131
  879MOL0     C21192   8.326   9.050   1.086 -0.4057 -0.6621 -0.2191
  879MOL0     C21193   8.289   8.976   1.328  0.1004 -0.1655 -0.4315
  879MOL0     C21194   8.436   8.965   1.358 -0.1948 -0.6812 -0.2295
  879MOL0     O21195   8.467   8.949   1.494 -0.3413 -0.4929  0.6409
  879MOL0     C21196   8.586   8.908   1.548  0.2321  0.3418  0.0923
  879MOL0     C21197   8.605   8.914   1.684  0.7587  0.6008 -0.0602
  879MOL0     C21198   8.716   8.863   1.749 -0.8628  0.2204  0.1692
  879MOL0     C21199   8.825   8.817   1.677  0.1371  0.2111 -0.3862
  879MOL0     O21200   8.941   8.777   1.744 -0.0572  0.8610 -0.2097
  879MOL0     C21201   9.041   8.877   1.742  0.3753 -0.4035  0.3052
  879MOL0     C21202   9.183   8.812   1.744  0.2939 -0.1286  0.1527
  879MOL0     C21203   9.214   8.711   1.621 -0.0644 -0.8957  0.1694
  879MOL0     C21204   9.246   8.787   1.490 -0.4532  0.1300 -0.4235
  879MOL0     C21205   9.340   8.712   1.392  0.1949  0.1852  0.3813
  879MOL0     C21206   9.413   8.801   1.291 -0.2420 -0.5251  0.6831
  879MOL0     C21207   9.522   8.876   1.367  0.3949  0.6659  0.4665
  879MOL0     C21208   9.628   8.923   1.263  0.5824  0.3236 -0.5597
  879MOL0    Cl21209   9.713   8.785   1.175  0.2454 -0.5284  0.2591
  879MOL0     C21210   8.810   8.811   1.534 -0.1676 -0.7580  0.6931
  879MOL0     C21211   8.688   8.858   1.475  0.0830  0.7321 -0.2410
  879MOL0     O21212   8.508   8.966   1.259 -0.3190  0.2617 -0.1447
  879MOL0     C21213   8.194   8.946   1.433  0.2527  0.0569 -0.0326
  879MOL0     C21214   8.056   8.966   1.414 -0.9286 -0.6353  0.5932
  879MOL0     N21215   7.388   9.018   1.384  0.1122  0.3474 -0.4988
  879MOL0     N21216   7.271   9.059   1.431 -0.6857 -0.0442 -0.1015
  879MOL0     C21217   6.135   8.916   1.478 -0.6110 -0.0039  0.7230
  879MOL0     C21218   6.031   8.831   1.446  0.8579  0.0023  1.2980
  879MOL0     C21219   5.854   8.491   1.345  0.0738 -0.4504  0.3377
  879MOL0     C21220   5.758   8.563   1.276  0.7708 -0.5747 -0.2299
  879MOL0     C21221   5.704   8.518   1.150  0.7343  0.1073  0.8052
  879MOL0     C21222   5.754   8.399   1.089  0.7989  0.3957 -0.2107
  879MOL0     O21223   5.680   8.338   0.984 -0.2030  0.0438 -0.1696
  879MOL0     C21224   5.581   8.230   1.017 -0.1331  0.4656 -0.5162
  879MOL0     C21225   5.449   8.295   1.038 -0.8345 -0.4327  0.2782
  879MOL0     C21226   5.365   8.180   1.098 -0.0389 -0.4934  0.2224
  879MOL0     C21227   5.234   8.237   1.160  0.0007 -0.1061 -0.2755
  879MOL0     C21228   5.137   8.122   1.175 -0.4394 -0.3413 -0.2281
  879MOL0     C21229   5.055   8.030   1.179 -0.4466  0.2785  0.1337
  879MOL0     C21230   5.848   8.324   1.162  0.2944  0.6877 -0.3958
  879MOL0     C21231   5.892   8.367   1.289 -1.5540  0.8182  0.9363
  879MOL0     C21232   5.985   8.261   1.346 -1.0365  0.1669  0.6317
  879MOL0     H21233   5.909   8.748   1.748 -1.2153 -1.3094 -1.5705
  879MOL0     H21234   6.089   8.914   1.818  0.3520  1.1918 -0.9721
  879MOL0     H21235   6.333   8.929   1.819  2.7519  1.9933  0.9940
  879MOL0     H21236   6.419   9.057   1.740  1.5610 -0.6024  0.2541
  879MOL0     H21237   6.492   8.797   1.726 -2.3745  0.8696  1.0655
  879MOL0     H21238   6.382   8.786   1.596 -2.8733  1.9237 -1.1111
  879MOL0     H21239   6.489   8.939   1.458 -0.7111 -1.3724 -0.3177
  879MOL0     H21240   6.580   9.008   1.592  3.1411 -0.6171 -0.0563
  879MOL0     H21241   6.714   8.811   1.608  1.9961 -1.5582 -0.7235
  879MOL0     H21242   6.618   8.713   1.504 -1.1613 -0.6536  0.8356
  879MOL0     H21243   6.688   8.876   1.316 -0.8355  0.2036  0.4603
  879MOL0     H21244   6.830   8.799   1.397 -1.4221 -1.2063 -1.1425
  879MOL0     H21245   6.737   9.073   1.399  0.4736  3.0148  3.2147
  879MOL0     H21246   6.805   9.026   1.554 -3.4374  0.3475 -0.1231
  879MOL0     H21247   6.977   9.127   1.382 -0.3655  0.8938  4.9035
  879MOL0     H21248   6.944   8.981   1.293 -0.1278 -0.9521  0.1573
  879MOL0     H21249   7.050   9.003   1.579 -2.9565  1.0217 -0.5480
  879MOL0     H21250   7.014   8.855   1.502 -0.2816  1.0880  1.0038
  879MOL0     H21251   7.194   8.762   1.320 -0.4121  0.9474 -0.1391
  879MOL0     H21252   7.464   8.781   1.167  2.1347 -0.7428  0.8284
  879MOL0     H21253   7.484   8.704   1.319  2.2493 -0.0405  0.1889
  879MOL0     H21254   7.641   8.891   1.387  3.6175 -0.1027 -0.6485
  879MOL0     H21255   7.686   8.777   1.261 -0.0510  0.3626 -1.7082
  879MOL0     H21256   7.619   8.922   1.084  2.4452 -0.7380  0.1963
  879MOL0     H21257   7.615   9.056   1.190  1.2094  0.2598 -0.4789
  879MOL0     H21258   7.851   8.878   1.119 -1.1331 -0.8510  0.4563
  879MOL0     H21259   7.833   9.045   1.080 -1.5904  0.1930 -1.3321
  879MOL0     H21260   8.050   9.056   1.090 -3.2404 -3.4046 -0.5328
  879MOL0     H21261   8.391   8.962   1.075 -2.0984 -2.6644  3.8421
  879MOL0     H21262   8.382   9.137   1.120  0.8214 -0.8050 -1.7588
  879MOL0     H21263   8.283   9.078   0.989  3.1557 -0.5912 -1.9586
  879MOL0     H21264   8.516   8.953   1.733  0.0344 -0.8467 -0.1668
  879MOL0     H21265   8.736   8.853   1.855  0.4874 -0.9099 -0.1560
  879MOL0     H21266   9.027   8.942   1.655  2.2873  1.3364  1.2172
  879MOL0     H21267   9.042   8.937   1.833 -2.8423  1.7683 -0.9211
  879MOL0     H21268   9.259   8.891   1.732  0.4059  0.1958  2.5703
  879MOL0     H21269   9.198   8.757   1.837 -0.0658 -2.8072 -1.2662
  879MOL0     H21270   9.127   8.645   1.613  1.7937 -3.5363  0.5537
  879MOL0     H21271   9.297   8.647   1.652  0.0652 -0.4884  0.6684
  879MOL0     H21272   9.294   8.881   1.518  0.5894 -0.3078 -0.6866
  879MOL0     H21273   9.155   8.820   1.440 -0.3188 -0.2360 -0.9303
  879MOL0     H21274   9.415   8.660   1.452  1.6468  0.6327 -0.9980
  879MOL0     H21275   9.292   8.627   1.342  1.6242 -1.0225  0.9813
  879MOL0     H21276   9.343   8.873   1.248  3.5408  3.1124 -0.0579
  879MOL0     H21277   9.458   8.739   1.213 -0.1441  0.7429 -0.3077
  879MOL0     H21278   9.572   8.809   1.437  0.5021 -1.3326 -1.4207
  879MOL0     H21279   9.493   8.966   1.423  1.3234  0.9474  0.5143
  879MOL0     H21280   9.696   8.983   1.324 -0.2205  1.4506 -0.7396
  879MOL0     H21281   9.589   8.992   1.188  0.9992  0.5272 -0.5930
  879MOL0     H21282   8.885   8.787   1.460 -1.0030  0.4488 -0.5892
  879MOL0     H21283   8.688   8.859   1.366  2.0413 -1.1890 -0.3180
  879MOL0     H21284   8.231   8.911   1.528 -1.5105  2.2872  1.5916
  879MOL0     H21285   7.993   8.945   1.500 -1.5704  1.8382  0.7926
  879MOL0     H21286   6.193   8.970   1.404  0.5570 -0.5628  1.2068
  879MOL0     H21287   6.003   8.823   1.342 -2.3136  3.1920  1.7109
  879MOL0     H21288   5.722   8.656   1.319  0.1999 -0.1226 -1.6314
  879MOL0     H21289   5.626   8.576   1.102 -1.5573 -2.6375  1.0114
  879MOL0     H21290   5.566   8.143   0.953 -0.2732 -0.6202  0.9338
  879MOL0     H21291   5.618   8.183   1.108 -0.4716 -1.6484 -1.4053
  879MOL0     H21292   5.414   8.325   0.939 -2.4158  2.2954  1.5736
  879MOL0     H21293   5.455   8.389   1.093 -0.1703 -1.1029  1.3950
  879MOL0     H21294   5.330   8.116   1.017  0.3730  0.1098 -0.4464
  879MOL0     H21295   5.416   8.128   1.179  0.0099  0.7553  1.0288
  879MOL0     H21296   5.187   8.312   1.096  2.1495  1.8948  0.3593
  879MOL0     H21297   5.264   8.280   1.256  1.4173 -3.7833  1.1079
  879MOL0     H21298   4.985   7.949   1.179  2.7551 -2.7358 -0.5449
  879MOL0     H21299   5.872   8.227   1.119 -1.8918  0.0113 -0.2599
  879MOL0     H21300   6.000   8.275   1.454  1.0600  0.8351  0.2908
  879MOL0     H21301   5.940   8.163   1.328  0.0639 -0.9248  3.2960
  879MOL0     H21302   6.084   8.269   1.302 -0.1378 -1.4103  2.2097
  880MOL0     O21303   3.614  10.338   7.733 -0.2707 -0.1881  0.3385
  880MOL0     C21304   3.595  10.451   7.778  0.0053  0.0511 -0.6292
  880MOL0     O21305   3.545  10.549   7.708 -0.2141 -0.2733  0.4827
  880MOL0     C21306   3.487  10.529   7.579  0.3720 -0.0831 -0.0601
  880MOL0     C21307   3.379  10.431   7.559 -0.4914 -0.3926 -0.0966
  880MOL0     C21308   3.313  10.420   7.440 -0.6430 -0.0953 -0.8061
  880MOL0     C21309   3.340  10.497   7.333 -0.7542  0.1570  0.4654
  880MOL0     O21310   3.271  10.464   7.220 -0.1253  0.3242  1.0131
  880MOL0     C21311   3.321  10.506   7.088  0.2380 -0.0483 -0.7583
  880MOL0     C21312   3.227  10.456   6.989 -0.4408 -0.5673  0.4129
  880MOL0     C21313   3.226  10.550   6.866  0.0350 -0.5270 -0.2947
  880MOL0     C21314   3.138  10.684   6.888 -0.0420  0.1642 -1.1336
  880MOL0     C21315   3.087  10.744   6.755  0.0172  0.2550 -0.3481
  880MOL0     C21316   3.201  10.790   6.674 -0.1686 -0.0398 -0.1035
  880MOL0     C21317   3.153  10.842   6.539  0.2524  0.5186 -0.1770
  880MOL0     C21318   3.261  10.879   6.437  1.6512  0.1655 -0.2619
  880MOL0     N21319   3.356  10.982   6.487  0.2013  0.5181  0.3793
  880MOL0     C21320   3.310  11.105   6.521  0.2876  0.3817  0.3657
  880MOL0     C21321   3.424  11.171   6.551 -0.5472 -0.1029 -0.2242
  880MOL0     C21322   3.423  11.305   6.621 -0.7558 -0.5590  0.7641
  880MOL0     C21323   3.574  11.336   6.662  0.8136 -0.5232 -0.6231
  880MOL0     C21324   3.582  11.478   6.723  1.1806  0.4083 -0.0306
  880MOL0     C21325   3.506  11.500   6.858 -0.0838  0.3975 -0.5656
  880MOL0     O21326   3.453  11.629   6.876  0.8154 -0.1467 -0.2002
  880MOL0     C21327   3.519  11.717   6.961 -0.1140  0.2806 -0.6744
  880MOL0     C21328   3.545  11.681   7.099  0.3595 -0.8987 -0.0714
  880MOL0     C21329   3.616  11.758   7.188 -0.0999 -0.0427  0.2220
  880MOL0     C21330   3.647  11.702   7.328 -0.1345 -0.1915 -0.5100
  880MOL0     C21331   3.643  11.891   7.143  0.1936  0.5784  0.3389
  880MOL0     C21332   3.733  11.997   7.224 -1.1372  0.0480  0.6597
  880MOL0     O21333   3.817  11.945   7.311  0.7464  0.2772 -0.4407
  880MOL0     C21334   3.901  12.016   7.388 -0.4587  0.1465 -0.0234
  880MOL0     C21335   4.024  12.062   7.336 -0.3733  1.0294  0.8165
  880MOL0     C21336   4.113  12.130   7.419 -0.4001  0.0836 -0.5941
  880MOL0     C21337   4.094  12.145   7.554  0.1621 -0.4157  1.1091
  880MOL0     O21338   4.197  12.200   7.627  0.1492 -0.5843  0.2109
  880MOL0     C21339   4.221  12.166   7.764 -0.6255  0.0727 -0.4807
  880MOL0     C21340   4.363  12.198   7.792 -0.3303  0.2995 -0.5003
  880MOL0     C21341   4.461  12.080   7.757  0.8641  0.1774  0.3176
  880MOL0     C21342   4.498  12.000   7.880  0.3772 -0.2594  0.4129
  880MOL0     C21343   4.573  11.873   7.861  0.2187  0.1590  0.0130
  880MOL0     C21344   4.700  11.910   7.777 -0.0041 -0.0615 -1.1125
  880MOL0     C21345   4.807  11.815   7.827 -0.4433 -0.2776 -0.3531
  880MOL0     C21346   4.951  11.847   7.783  0.3688 -0.4830  0.0996
  880MOL0    Cl21347   5.065  11.733   7.884  0.0323  0.0269  0.2435
  880MOL0     C21348   3.974  12.098   7.611  0.1639 -0.2346 -0.0342
  880MOL0     C21349   3.876  12.038   7.528 -0.7928 -1.0651  0.2751
  880MOL0     O21350   3.734  12.118   7.194  0.2017  0.5516  0.2817
  880MOL0     C21351   3.599  11.937   7.016  0.3229 -0.2921 -0.6239
  880MOL0     C21352   3.546  11.848   6.929  0.1685  0.2173 -0.2567
  880MOL0     N21353   3.537  11.088   6.531  0.6379 -0.2115  0.4751
  880MOL0     N21354   3.492  10.973   6.497  0.2236  0.2384 -0.3131
  880MOL0     C21355   3.448  10.589   7.346  0.9756 -0.7193 -0.1211
  880MOL0     C21356   3.519  10.597   7.465  0.2078  1.2073 -0.2997
  880MOL0     C21357   3.631  10.491   7.911  0.5156 -0.8217 -0.1412
  880MOL0     C21358   3.683  10.623   7.935  0.3975 -0.0352 -0.0440
  880MOL0     C21359   3.726  10.665   8.060 -0.5020 -0.5796  0.9136
  880MOL0     C21360   3.703  10.586   8.176  0.1870 -0.1995 -0.0066
  880MOL0     O21361   3.731  10.619   8.306  0.3677 -0.1272 -0.3044
  880MOL0     C21362   3.823  10.724   8.335 -0.3561 -0.2150 -0.2416
  880MOL0     C21363   3.968  10.693   8.301  0.5563  0.3040  0.3127
  880MOL0     C21364   4.080  10.799   8.320  0.2767  0.6375  0.1216
  880MOL0     C21365   4.136  10.808   8.463  0.4541 -0.7510 -0.0672
  880MOL0     C21366   4.254  10.898   8.458  0.2519  0.4006 -0.2269
  880MOL0     C21367   4.356  10.958   8.443 -0.5184 -0.2112  1.2694
  880MOL0     C21368   3.651  10.449   8.157  0.5095 -0.1465  0.6565
  880MOL0     C21369   3.614  10.409   8.023  0.4269  0.5024  0.0556
  880MOL0     C21370   3.554  10.269   8.015 -0.0308 -1.1362 -0.3926
  880MOL0     H21371   3.352  10.377   7.650  2.6060 -1.8420  0.1072
  880MOL0     H21372   3.242  10.338   7.437 -0.2180 -0.4738 -3.4991
  880MOL0     H21373   3.409  10.448   7.058  0.3098  0.6308 -1.9097
  880MOL0     H21374   3.330  10.615   7.093 -0.5236 -0.0143  3.5037
  880MOL0     H21375   3.252  10.360   6.944 -1.3140  0.5005 -2.6374
  880MOL0     H21376   3.131  10.448   7.040 -0.3935 -2.2820  0.2844
  880MOL0     H21377   3.330  10.572   6.840  1.3642 -3.4195  1.9860
  880MOL0     H21378   3.190  10.494   6.779 -0.3593 -2.2680  0.9317
  880MOL0     H21379   3.049  10.654   6.944  0.3112  2.0390  0.5370
  880MOL0     H21380   3.184  10.759   6.953 -0.3062 -1.0375  0.4944
  880MOL0     H21381   3.016  10.823   6.781 -0.3083  0.1737 -0.9831
  880MOL0     H21382   3.040  10.660   6.702 -0.3449  0.6175 -0.6088
  880MOL0     H21383   3.246  10.870   6.733  1.1703 -1.6708  1.1927
  880MOL0     H21384   3.278  10.715   6.658 -0.7622 -0.4434 -1.1434
  880MOL0     H21385   3.085  10.927   6.551  0.3340  0.9009 -2.0459
  880MOL0     H21386   3.091  10.771   6.484  2.1494 -2.0039  0.7366
  880MOL0     H21387   3.323  10.800   6.394  1.1029  0.1189 -0.9845
  880MOL0     H21388   3.199  10.909   6.352  1.6037 -1.1464 -0.7120
  880MOL0     H21389   3.207  11.140   6.522 -0.2258 -1.0680 -0.0320
  880MOL0     H21390   3.360  11.291   6.709  1.4995 -1.7449  2.2978
  880MOL0     H21391   3.385  11.389   6.563  1.7762  0.2216  0.1108
  880MOL0     H21392   3.621  11.260   6.724  0.9948 -0.8322 -1.1388
  880MOL0     H21393   3.641  11.334   6.576  0.1460 -0.5404 -1.1453
  880MOL0     H21394   3.685  11.511   6.740  1.1261  0.4621  0.1970
  880MOL0     H21395   3.547  11.541   6.641  2.7942 -1.8548 -2.6081
  880MOL0     H21396   3.427  11.424   6.856 -2.8109  3.0478 -0.6726
  880MOL0     H21397   3.578  11.487   6.939 -0.9906  0.5999  0.3030
  880MOL0     H21398   3.518  11.583   7.136  0.4666 -1.2214 -0.8301
  880MOL0     H21399   3.590  11.609   7.341  0.9359 -0.6126  1.4727
  880MOL0     H21400   3.622  11.767   7.412  1.0410 -2.2338  1.5171
  880MOL0     H21401   3.756  11.690   7.335 -0.0432  1.6591  2.8078
  880MOL0     H21402   4.053  12.044   7.233  3.1593 -2.1193  2.1138
  880MOL0     H21403   4.212  12.162   7.388  0.4138 -1.6985  0.0114
  880MOL0     H21404   4.157  12.226   7.830  1.0469  0.4526  0.9114
  880MOL0     H21405   4.197  12.064   7.794  0.0571  0.9637  3.7707
  880MOL0     H21406   4.389  12.295   7.749 -0.3597  0.2742 -0.5747
  880MOL0     H21407   4.357  12.221   7.899 -0.4806  1.7075 -0.7883
  880MOL0     H21408   4.548  12.124   7.709 -0.8818  0.2563 -3.0017
  880MOL0     H21409   4.416  12.022   7.675 -0.9176  3.1291 -0.9339
  880MOL0     H21410   4.414  11.961   7.938 -1.3496  2.6419  0.0444
  880MOL0     H21411   4.548  12.071   7.947 -0.8613  0.7856  0.2687
  880MOL0     H21412   4.602  11.831   7.958 -0.8161  0.9619  0.6979
  880MOL0     H21413   4.497  11.816   7.807 -2.0033  2.8103  0.1436
  880MOL0     H21414   4.730  12.012   7.800  0.8810 -0.6013  0.2461
  880MOL0     H21415   4.681  11.902   7.669 -1.9470 -2.6554 -0.6833
  880MOL0     H21416   4.786  11.716   7.788  0.7487  0.2108 -2.3797
  880MOL0     H21417   4.802  11.808   7.936  0.9079 -0.2854 -0.2692
  880MOL0     H21418   4.972  11.954   7.792 -0.7825 -0.2348 -0.0019
  880MOL0     H21419   4.959  11.810   7.680  0.5158 -0.1584 -0.0077
  880MOL0     H21420   3.956  12.100   7.718 -3.4781  2.2894 -0.5077
  880MOL0     H21421   3.784  12.003   7.576  0.5225 -2.8358  1.6588
  880MOL0     H21422   3.619  12.038   6.983  4.8757 -0.7116  0.1528
  880MOL0     H21423   3.531  11.881   6.826 -0.0773 -3.2692 -1.4761
  880MOL0     H21424   3.475  10.670   7.278  0.2642  0.5967  1.1010
  880MOL0     H21425   3.584  10.683   7.480 -1.2421  2.1072  1.3228
  880MOL0     H21426   3.716  10.684   7.852  1.8963 -1.8390 -0.8320
  880MOL0     H21427   3.760  10.763   8.089  0.0060 -0.9572  1.6248
  880MOL0     H21428   3.799  10.822   8.293  2.1881 -0.2027 -1.8798
  880MOL0     H21429   3.825  10.741   8.443 -1.3004 -0.9460 -0.0913
  880MOL0     H21430   3.970  10.652   8.199 -1.9688 -2.1191  1.1179
  880MOL0     H21431   3.991  10.599   8.352 -3.6442 -0.9324  0.2767
  880MOL0     H21432   4.168  10.767   8.263  0.4431 -0.4926  0.9780
  880MOL0     H21433   4.046  10.895   8.282 -1.7010  0.4915  1.4028
  880MOL0     H21434   4.166  10.709   8.500  3.8876 -0.8125 -2.5188
  880MOL0     H21435   4.062  10.834   8.539  1.1208  0.0614  0.3248
  880MOL0     H21436   4.451  11.001   8.421 -1.0362  0.5530  0.4549
  880MOL0     H21437   3.632  10.385   8.242 -2.8738 -2.0612 -1.2990
  880MOL0     H21438   3.529  10.243   7.912  1.5460 -1.4137 -0.7273
  880MOL0     H21439   3.625  10.198   8.057 -0.1738  0.5279  3.0535
  880MOL0     H21440   3.466  10.268   8.081 -0.9667 -1.5848 -1.6256
  881MOL0     O21441   2.274   4.074   4.772 -0.9301 -0.2962 -0.5265
  881MOL0     C21442   2.292   3.956   4.804 -0.4038  0.3909 -0.7784
  881MOL0     O21443   2.412   3.903   4.842  0.0275 -0.3600 -0.5957
  881MOL0     C21444   2.523   3.975   4.866  0.4591  0.3882  0.2336
  881MOL0     C21445   2.523   4.098   4.937  0.0988  0.0382  0.0338
  881MOL0     C21446   2.644   4.172   4.958 -0.3340  0.7189 -0.0378
  881MOL0     C21447   2.767   4.126   4.914 -0.2638  0.2348 -0.8147
  881MOL0     O21448   2.868   4.220   4.937 -0.4519  0.1732  0.0230
  881MOL0     C21449   2.995   4.205   4.861  0.0301 -0.2685  1.5459
  881MOL0     C21450   3.073   4.328   4.890 -0.7952  0.9645 -0.3263
  881MOL0     C21451   3.214   4.339   4.833 -0.7011  0.2717 -0.4348
  881MOL0     C21452   3.329   4.284   4.926  0.4630 -0.2944  0.1549
  881MOL0     C21453   3.326   4.136   4.947 -0.0737 -0.2660  0.0416
  881MOL0     C21454   3.439   4.090   5.027  1.0017  0.8488  0.1440
  881MOL0     C21455   3.572   4.081   4.949  0.4285 -0.0324 -0.3709
  881MOL0     C21456   3.675   4.006   5.030 -0.0961  0.1111 -0.4681
  881MOL0     N21457   3.807   3.992   4.965 -0.2802 -0.3782 -0.0252
  881MOL0     C21458   3.813   3.943   4.843 -1.2303 -0.0343  0.3583
  881MOL0     C21459   3.934   3.980   4.796  0.2396 -0.1107 -0.2438
  881MOL0     C21460   3.999   3.950   4.669 -0.5616 -0.0960 -0.5531
  881MOL0     C21461   4.005   3.798   4.636  0.0336 -0.4069  0.1156
  881MOL0     C21462   4.061   3.709   4.746 -0.1230  0.0677 -0.3546
  881MOL0     C21463   4.206   3.756   4.786 -0.4789 -0.3665 -0.7112
  881MOL0     O21464   4.280   3.790   4.663  0.2088  0.8454 -0.4215
  881MOL0     C21465   4.411   3.789   4.686  0.3795  0.1459  0.2201
  881MOL0     C21466   4.482   3.690   4.632 -0.1251 -0.4126 -0.0866
  881MOL0     C21467   4.620   3.681   4.662  0.1634 -0.2190 -0.2190
  881MOL0     C21468   4.692   3.562   4.602 -0.1934  0.4784  0.3249
  881MOL0     C21469   4.681   3.773   4.751 -0.8273 -0.0021  0.2043
  881MOL0     C21470   4.829   3.760   4.792  0.0681 -0.6120 -0.1234
  881MOL0     O21471   4.865   3.834   4.902 -0.2852  0.0045  0.0547
  881MOL0     C21472   4.998   3.838   4.938 -0.9059 -0.2818  0.4277
  881MOL0     C21473   5.108   3.843   4.849  0.1110  0.3924  0.6151
  881MOL0     C21474   5.240   3.835   4.900 -0.1287 -0.4896 -1.2354
  881MOL0     C21475   5.257   3.830   5.039 -0.8551  0.9913  0.6494
  881MOL0     O21476   5.392   3.810   5.076  0.4630 -0.3003  0.3142
  881MOL0     C21477   5.427   3.814   5.218  0.5499  0.0508  0.0222
  881MOL0     C21478   5.567   3.878   5.222  0.1027  0.4232  0.0296
  881MOL0     C21479   5.665   3.795   5.130  0.4983 -0.4326  0.9959
  881MOL0     C21480   5.676   3.651   5.169 -0.1253  0.2292 -0.5183
  881MOL0     C21481   5.734   3.625   5.306 -0.0269  0.1672 -0.9710
  881MOL0     C21482   5.714   3.469   5.344  0.9085 -0.5508 -0.4626
  881MOL0     C21483   5.770   3.442   5.481  0.1703 -0.4007  0.2830
  881MOL0     C21484   5.766   3.294   5.508 -0.7992 -0.3876  0.1857
  881MOL0    Cl21485   5.889   3.225   5.614  0.2600  0.0900 -0.2424
  881MOL0     C21486   5.151   3.843   5.122  0.4223  0.0348  0.3196
  881MOL0     C21487   5.020   3.855   5.077  1.2003  0.5985  0.7310
  881MOL0     O21488   4.909   3.702   4.718 -0.3069 -0.7526 -0.2756
  881MOL0     C21489   4.606   3.883   4.801 -0.5757  0.3777 -0.0034
  881MOL0     C21490   4.472   3.887   4.770  0.6345  0.4263 -0.3148
  881MOL0     N21491   3.984   4.073   4.886  0.3828  0.3537 -0.0486
  881MOL0     N21492   3.904   4.075   4.989 -0.2565 -1.0109 -0.0570
  881MOL0     C21493   2.766   4.002   4.853  0.2151  0.8049  0.4048
  881MOL0     C21494   2.649   3.927   4.834  0.0707  1.3640  0.2129
  881MOL0     C21495   2.185   3.848   4.795 -0.2324 -0.8292  0.4622
  881MOL0     C21496   2.221   3.719   4.755  0.6366  0.0292 -0.6309
  881MOL0     C21497   2.121   3.629   4.719  1.2360 -0.3111  0.3065
  881MOL0     C21498   1.989   3.664   4.725  1.5143  0.1523 -0.7803
  881MOL0     O21499   1.900   3.573   4.679 -0.5664  0.6585  0.1387
  881MOL0     C21500   1.754   3.602   4.693 -0.1557 -0.1461 -1.0248
  881MOL0     C21501   1.686   3.466   4.671 -0.0788  0.2992  0.6513
  881MOL0     C21502   1.698   3.424   4.521  0.2969  0.2897 -0.7142
  881MOL0     C21503   1.631   3.289   4.491 -1.0847 -0.0822 -0.1753
  881MOL0     C21504   1.486   3.300   4.504  0.6548 -0.4730 -0.0792
  881MOL0     C21505   1.368   3.327   4.517  0.1181 -0.1236 -0.5239
  881MOL0     C21506   1.955   3.791   4.770 -0.6072  0.1077 -0.2369
  881MOL0     C21507   2.053   3.877   4.820  0.4441  0.0410 -0.5166
  881MOL0     C21508   2.011   4.001   4.887 -0.2653 -0.1774 -0.0654
  881MOL0     H21509   2.418   4.121   4.955 -0.9327 -1.9343 -2.7647
  881MOL0     H21510   2.624   4.269   5.003 -0.6707  0.9421 -0.6586
  881MOL0     H21511   2.972   4.189   4.756 -1.1554 -0.2356  1.7908
  881MOL0     H21512   3.065   4.128   4.897 -0.6100 -1.4703  0.3196
  881MOL0     H21513   3.017   4.415   4.855 -1.7132  0.0332 -1.2077
  881MOL0     H21514   3.077   4.336   5.000 -1.3366  0.6915 -0.2883
  881MOL0     H21515   3.205   4.274   4.746 -3.7219  1.7696 -1.3920
  881MOL0     H21516   3.233   4.443   4.803 -5.0924  1.6807  0.8094
  881MOL0     H21517   3.425   4.311   4.880  0.4374  0.6552  0.6255
  881MOL0     H21518   3.336   4.339   5.020 -1.4082 -0.3850  0.3850
  881MOL0     H21519   3.310   4.089   4.850 -1.3088  1.7239 -0.7847
  881MOL0     H21520   3.238   4.114   5.009  3.8123 -1.9279  5.8258
  881MOL0     H21521   3.456   4.160   5.109 -0.5761 -0.0427  1.2901
  881MOL0     H21522   3.408   3.995   5.072 -2.2828  1.7104 -0.0436
  881MOL0     H21523   3.614   4.181   4.944  0.9555  0.0970  3.4098
  881MOL0     H21524   3.553   4.025   4.857  0.9891 -3.6939  1.5563
  881MOL0     H21525   3.683   4.052   5.129 -2.3916 -0.0074 -0.1586
  881MOL0     H21526   3.636   3.904   5.038 -0.2573  0.2833  1.3172
  881MOL0     H21527   3.740   3.877   4.798  0.4195 -1.9843  0.3910
  881MOL0     H21528   4.102   3.983   4.685 -0.6288 -0.2812  0.3058
  881MOL0     H21529   3.950   4.006   4.589 -0.9066  3.1862  1.7491
  881MOL0     H21530   3.899   3.773   4.624 -0.1572 -1.0896  2.5997
  881MOL0     H21531   4.051   3.778   4.539 -3.3871 -1.9746 -1.3474
  881MOL0     H21532   4.000   3.707   4.837  0.1269 -0.5234 -0.1982
  881MOL0     H21533   4.058   3.607   4.709  3.3585  0.1622 -1.1645
  881MOL0     H21534   4.205   3.847   4.848  1.5211 -0.4219 -0.5513
  881MOL0     H21535   4.252   3.682   4.851 -2.7276 -1.9883 -0.8457
  881MOL0     H21536   4.430   3.624   4.564  0.1547 -0.3635 -0.3477
  881MOL0     H21537   4.721   3.502   4.688  1.8767 -0.6722 -1.0955
  881MOL0     H21538   4.779   3.582   4.539  0.6398 -1.6242  0.7460
  881MOL0     H21539   4.621   3.507   4.539  1.0781 -1.4758  0.5351
  881MOL0     H21540   5.096   3.868   4.744  1.2238  1.3908  0.7002
  881MOL0     H21541   5.321   3.844   4.829  1.4375  0.6668  0.5961
  881MOL0     H21542   5.358   3.874   5.278  1.9006 -0.0948  1.8037
  881MOL0     H21543   5.426   3.719   5.273 -1.0543  2.1793  4.0164
  881MOL0     H21544   5.553   3.974   5.173 -1.6782  0.2828  0.2044
  881MOL0     H21545   5.605   3.883   5.325  1.8141 -0.4074 -0.5192
  881MOL0     H21546   5.768   3.831   5.129  1.3814 -2.7760  0.7838
  881MOL0     H21547   5.636   3.815   5.027  3.8718  1.5204  0.2670
  881MOL0     H21548   5.740   3.612   5.089  1.3664  0.9818  0.2656
  881MOL0     H21549   5.580   3.602   5.154 -0.6826  1.0719  0.1649
  881MOL0     H21550   5.843   3.637   5.310  0.5935 -3.9000 -0.7770
  881MOL0     H21551   5.688   3.680   5.389 -2.5070 -4.5901  1.2524
  881MOL0     H21552   5.781   3.413   5.279 -0.2562 -3.2506  0.5245
  881MOL0     H21553   5.608   3.441   5.341  0.1255  0.5121  5.0949
  881MOL0     H21554   5.703   3.495   5.551  0.7549 -1.0487  1.3520
  881MOL0     H21555   5.874   3.474   5.493 -0.0640  0.0325  1.3098
  881MOL0     H21556   5.784   3.250   5.409  1.1760  1.6993 -0.4652
  881MOL0     H21557   5.670   3.258   5.547 -0.1005 -6.0197 -2.3679
  881MOL0     H21558   5.162   3.847   5.229 -1.5754 -4.0816  0.8759
  881MOL0     H21559   4.941   3.868   5.151  1.2685  3.8240  0.3701
  881MOL0     H21560   4.659   3.947   4.871  0.3494  0.5262 -0.8189
  881MOL0     H21561   4.412   3.976   4.790  1.5198  0.7549  0.9261
  881MOL0     H21562   2.864   3.975   4.814 -0.2756 -2.7171  1.2001
  881MOL0     H21563   2.659   3.836   4.775  1.6941  1.4509  0.3004
  881MOL0     H21564   2.326   3.696   4.745  0.9214  0.9289  0.0893
  881MOL0     H21565   2.140   3.525   4.692 -2.4407 -0.5760 -1.9791
  881MOL0     H21566   1.741   3.639   4.795  0.8028  1.2178 -1.3641
  881MOL0     H21567   1.710   3.678   4.626 -0.2664  0.4879 -0.2500
  881MOL0     H21568   1.583   3.477   4.706  1.1078  2.1345  4.1457
  881MOL0     H21569   1.729   3.397   4.745 -2.9024 -0.4161  1.7454
  881MOL0     H21570   1.665   3.504   4.454 -0.9297  1.1707  0.8700
  881MOL0     H21571   1.806   3.420   4.502  0.6262 -1.3578  1.1987
  881MOL0     H21572   1.666   3.217   4.565 -0.2044 -0.6717 -1.1432
  881MOL0     H21573   1.669   3.242   4.400  2.2794 -1.3903  1.7322
  881MOL0     H21574   1.266   3.358   4.525  0.5526  0.9628  1.4020
  881MOL0     H21575   1.851   3.819   4.766 -0.8444 -0.8424 -1.3993
  881MOL0     H21576   2.056   4.021   4.984  2.9309  1.5961 -1.7724
  881MOL0     H21577   2.022   4.081   4.814 -2.4399 -0.8980 -1.2761
  881MOL0     H21578   1.903   4.007   4.903 -0.5670  0.6032 -2.1182
  882MOL0     O21579   3.318   2.487   7.975 -0.0947  0.0719 -0.5977
  882MOL0     C21580   3.276   2.587   7.914  0.7841 -0.6688  0.4028
  882MOL0     O21581   3.349   2.702   7.895 -0.3751 -0.2994  0.1952
  882MOL0     C21582   3.472   2.721   7.967  0.0544  0.6522 -0.1632
  882MOL0     C21583   3.487   2.826   8.058  0.9645 -0.7750  0.2430
  882MOL0     C21584   3.597   2.840   8.138 -0.7961  0.1975  0.4218
  882MOL0     C21585   3.704   2.741   8.123  0.5373 -0.3571  0.2624
  882MOL0     O21586   3.802   2.744   8.210 -0.7772 -0.7012 -0.7974
  882MOL0     C21587   3.805   2.640   8.314  0.9273  1.2523 -0.1643
  882MOL0     C21588   3.920   2.670   8.413 -0.9326  0.5313 -0.2289
  882MOL0     C21589   3.922   2.813   8.470 -0.0480  0.6639 -0.2520
  882MOL0     C21590   4.040   2.814   8.569  0.2735 -0.3746  0.1156
  882MOL0     C21591   4.049   2.950   8.640  0.3147  0.4723 -0.3085
  882MOL0     C21592   4.191   2.953   8.701  0.3096  0.1398  0.4311
  882MOL0     C21593   4.190   3.063   8.803 -0.1585  0.5801  0.4145
  882MOL0     C21594   4.082   3.043   8.919  0.4963 -0.5667  0.3716
  882MOL0     N21595   4.090   2.908   8.976 -0.7204 -0.1998 -0.0331
  882MOL0     C21596   4.168   2.872   9.083 -0.8274  0.5412 -0.0298
  882MOL0     C21597   4.139   2.744   9.112  0.4706 -0.1268  0.1838
  882MOL0     C21598   4.207   2.678   9.228  0.4595 -0.2774  0.2135
  882MOL0     C21599   4.277   2.557   9.173  0.3356  0.2092  0.1257
  882MOL0     C21600   4.331   2.483   9.286  0.0034 -0.7163 -0.0356
  882MOL0     C21601   4.398   2.351   9.241  0.0313 -0.1104 -0.1873
  882MOL0     O21602   4.502   2.324   9.329 -0.2362  0.0344 -0.4384
  882MOL0     C21603   4.615   2.250   9.295  0.3897 -0.1481  0.3094
  882MOL0     C21604   4.707   2.218   9.393  0.1766  0.4651  0.5696
  882MOL0     C21605   4.831   2.150   9.359  0.5203 -0.3417 -0.5942
  882MOL0     C21606   4.920   2.116   9.477 -0.5267 -0.9913 -0.3172
  882MOL0     C21607   4.866   2.120   9.226  0.4466  0.5951 -0.5337
  882MOL0     C21608   4.990   2.055   9.174  0.3211 -0.2722 -0.1563
  882MOL0     O21609   4.980   2.005   9.045 -0.2147  0.2273 -0.1824
  882MOL0     C21610   5.067   1.907   9.011 -0.1190  0.5811  0.4097
  882MOL0     C21611   5.131   1.807   9.089  0.5415 -0.1811  0.7208
  882MOL0     C21612   5.234   1.732   9.031 -0.1452  0.3088  0.4866
  882MOL0     C21613   5.269   1.746   8.899 -0.1060  0.4174  0.1386
  882MOL0     O21614   5.379   1.675   8.866  0.1470  0.6094  0.0106
  882MOL0     C21615   5.468   1.722   8.766  0.5195  0.2208  0.1971
  882MOL0     C21616   5.574   1.804   8.836 -0.3291  0.1911 -0.6536
  882MOL0     C21617   5.686   1.834   8.739  0.0005 -0.5776  0.4096
  882MOL0     C21618   5.770   1.954   8.795  0.6147 -0.2009 -1.1717
  882MOL0     C21619   5.831   2.045   8.687  0.4632 -0.4117 -0.1557
  882MOL0     C21620   5.975   1.991   8.665  0.4177  0.1926  0.1755
  882MOL0     C21621   6.039   2.074   8.547 -0.4990 -0.1322  0.7473
  882MOL0     C21622   5.976   2.064   8.404  0.1556  0.2965 -0.1440
  882MOL0    Cl21623   5.940   1.896   8.355  0.0103  0.7905  0.4252
  882MOL0     C21624   5.193   1.832   8.816 -0.9186 -0.4629 -0.3072
  882MOL0     C21625   5.104   1.920   8.877  0.1840 -0.5191 -1.6577
  882MOL0     O21626   5.093   2.050   9.241  0.1343 -0.3918  0.4335
  882MOL0     C21627   4.772   2.158   9.132  0.1662  0.3724 -0.3025
  882MOL0     C21628   4.648   2.214   9.161 -0.3424 -0.9128  0.1389
  882MOL0     N21629   4.046   2.704   9.022  0.0047 -0.0663 -0.4197
  882MOL0     N21630   4.008   2.806   8.950  0.0308  0.7214  0.2678
  882MOL0     C21631   3.693   2.635   8.029  0.1943  0.4731 -0.2963
  882MOL0     C21632   3.582   2.627   7.942  0.3581 -0.6489  0.2424
  882MOL0     C21633   3.156   2.570   7.832  0.3998  0.0398 -0.8285
  882MOL0     C21634   3.150   2.641   7.710 -0.7803 -0.1410 -0.6421
  882MOL0     C21635   3.037   2.632   7.632 -0.1250 -0.2154 -0.6637
  882MOL0     C21636   2.931   2.555   7.668 -0.5845  0.2816  0.6919
  882MOL0     O21637   2.815   2.537   7.587 -0.6678 -0.5295  0.5788
  882MOL0     C21638   2.815   2.419   7.504 -0.0526 -0.0437  0.2099
  882MOL0     C21639   2.737   2.296   7.551  0.2362 -0.1607  0.5308
  882MOL0     C21640   2.588   2.311   7.527 -0.9924 -0.0572 -0.9112
  882MOL0     C21641   2.544   2.179   7.482 -0.6549  0.5233 -0.1578
  882MOL0     C21642   2.401   2.181   7.449 -0.4915  0.0701 -0.8574
  882MOL0     C21643   2.286   2.186   7.419 -0.4105 -0.0891 -0.1445
  882MOL0     C21644   2.939   2.479   7.782  0.2175 -0.2417 -0.7384
  882MOL0     C21645   3.052   2.480   7.874 -0.0350 -0.0048  0.8966
  882MOL0     C21646   3.046   2.377   7.986  0.8332 -0.0624 -0.4147
  882MOL0     H21647   3.413   2.905   8.064  0.1378 -1.6541  3.7821
  882MOL0     H21648   3.610   2.923   8.207 -3.5691  0.4629  0.7091
  882MOL0     H21649   3.832   2.550   8.258  0.3285  0.1916  1.1916
  882MOL0     H21650   3.709   2.628   8.364  0.7180  3.3819  0.0518
  882MOL0     H21651   3.907   2.591   8.488 -3.3572  0.5620 -0.5523
  882MOL0     H21652   4.015   2.658   8.358  0.5566  1.0551  2.0944
  882MOL0     H21653   3.942   2.894   8.400 -3.6245  2.7525  0.8936
  882MOL0     H21654   3.825   2.830   8.516 -0.5360 -2.1476 -0.0435
  882MOL0     H21655   4.025   2.734   8.642  0.3807  0.1203  0.6827
  882MOL0     H21656   4.133   2.790   8.516 -0.0983 -0.2769 -0.5944
  882MOL0     H21657   3.971   2.947   8.716  0.3581  0.1508 -0.2734
  882MOL0     H21658   4.037   3.033   8.570  0.8866  0.3988 -0.4944
  882MOL0     H21659   4.219   2.860   8.752 -3.0887  0.3149  2.9585
  882MOL0     H21660   4.263   2.969   8.620 -1.1728  1.0425 -0.7567
  882MOL0     H21661   4.165   3.158   8.754 -0.7371  0.7793  1.0822
  882MOL0     H21662   4.289   3.083   8.846 -0.0077  0.9435 -0.0967
  882MOL0     H21663   4.118   3.117   8.991  0.0804  0.6049 -0.5790
  882MOL0     H21664   3.979   3.066   8.891  0.3658 -1.2022  0.3230
  882MOL0     H21665   4.236   2.933   9.141  2.0895 -2.6178  0.1946
  882MOL0     H21666   4.125   2.646   9.292  0.8960 -1.9968 -0.0415
  882MOL0     H21667   4.279   2.737   9.286 -0.6570 -1.0685  2.5574
  882MOL0     H21668   4.209   2.493   9.115  3.0235 -2.1536 -0.6727
  882MOL0     H21669   4.349   2.581   9.095 -0.5763 -0.1595 -0.8653
  882MOL0     H21670   4.405   2.548   9.335  0.9590 -3.0542  1.7803
  882MOL0     H21671   4.252   2.465   9.358 -2.9526  1.0016 -2.5963
  882MOL0     H21672   4.327   2.267   9.235  1.0380 -0.9108 -1.1487
  882MOL0     H21673   4.444   2.374   9.145  0.6651  0.7874  0.3250
  882MOL0     H21674   4.687   2.251   9.494 -3.4245 -1.0617  0.5106
  882MOL0     H21675   4.928   2.008   9.498 -0.0460 -0.7880  0.6262
  882MOL0     H21676   4.866   2.157   9.563 -0.0406  1.6981 -1.2148
  882MOL0     H21677   5.023   2.150   9.482 -1.0436  0.5194  3.2024
  882MOL0     H21678   5.106   1.793   9.194 -0.8190 -0.4567  0.3773
  882MOL0     H21679   5.294   1.661   9.088  2.6522  1.0566 -1.3433
  882MOL0     H21680   5.504   1.635   8.711 -2.1231 -0.8698  0.0241
  882MOL0     H21681   5.411   1.779   8.692 -0.4509  0.0786  0.8039
  882MOL0     H21682   5.526   1.897   8.868 -2.3380 -0.6393 -1.1003
  882MOL0     H21683   5.606   1.757   8.929  1.0061  1.9535 -0.1687
  882MOL0     H21684   5.643   1.868   8.644  0.2177  0.3807  0.6412
  882MOL0     H21685   5.748   1.747   8.717 -1.8828 -2.1939  1.2503
  882MOL0     H21686   5.838   1.922   8.874  0.3691 -0.7692 -1.1851
  882MOL0     H21687   5.697   2.018   8.846  0.5058  0.5740 -2.2689
  882MOL0     H21688   5.769   2.042   8.597  0.8934 -1.2380 -0.4308
  882MOL0     H21689   5.840   2.145   8.730 -2.0929 -0.1022 -0.2053
  882MOL0     H21690   5.970   1.885   8.640 -2.6213  0.4968 -0.8549
  882MOL0     H21691   6.031   2.009   8.758 -1.3136 -0.3424  1.3896
  882MOL0     H21692   6.145   2.052   8.531 -0.3969  2.1191 -2.6480
  882MOL0     H21693   6.041   2.177   8.582  0.9620 -0.2047  0.9229
  882MOL0     H21694   6.038   2.114   8.329 -0.8125  1.6225 -0.0897
  882MOL0     H21695   5.881   2.117   8.405  0.9581  1.7829  0.5858
  882MOL0     H21696   5.219   1.836   8.711  0.1730 -4.1273 -0.3329
  882MOL0     H21697   5.071   2.005   8.818  2.6097  2.0880  0.4496
  882MOL0     H21698   4.789   2.125   9.030  3.4243 -2.6246  0.9913
  882MOL0     H21699   4.589   2.238   9.073 -0.0820  1.2900  0.5302
  882MOL0     H21700   3.766   2.555   8.036  2.4811  2.5533  1.6617
  882MOL0     H21701   3.584   2.544   7.872  3.6009 -0.0221 -0.5827
  882MOL0     H21702   3.221   2.716   7.678 -1.4328  0.0287 -1.7283
  882MOL0     H21703   3.030   2.686   7.538  0.1048  1.6280  0.3232
  882MOL0     H21704   2.796   2.444   7.399  1.9097  3.3068  0.5017
  882MOL0     H21705   2.917   2.382   7.494 -1.0585 -2.5565 -1.8113
  882MOL0     H21706   2.757   2.291   7.658  0.7608  2.2524  0.5981
  882MOL0     H21707   2.776   2.213   7.491 -2.4148 -1.0446 -0.0790
  882MOL0     H21708   2.535   2.317   7.623 -1.3381 -3.1704 -0.8079
  882MOL0     H21709   2.571   2.392   7.455  2.2522  1.2180 -0.4248
  882MOL0     H21710   2.570   2.102   7.556 -0.9405 -0.5824 -1.1831
  882MOL0     H21711   2.596   2.159   7.388  1.3554  0.0043  0.9911
  882MOL0     H21712   2.192   2.188   7.368 -0.0502  0.8129 -0.8031
  882MOL0     H21713   2.857   2.419   7.817  1.7837 -0.9534  2.0714
  882MOL0     H21714   2.966   2.398   8.057  0.8314 -0.7488 -0.2064
  882MOL0     H21715   3.033   2.275   7.948 -2.8421 -0.5335  1.6418
  882MOL0     H21716   3.136   2.373   8.049  1.8700  0.4385 -1.7985
  883MOL0     O21717   0.109   1.465   4.770  0.3854 -0.0551  0.8766
  883MOL0     C21718   0.081   1.498   4.653  0.1966 -0.0895 -0.3399
  883MOL0     O21719   0.129   1.428   4.547  0.5498  0.7100  0.4139
  883MOL0     C21720   0.197   1.316   4.578  0.1854 -0.3677  0.1052
  883MOL0     C21721   0.332   1.324   4.628  0.0841  0.0848  0.6195
  883MOL0     C21722   0.398   1.198   4.652  0.5746  0.4062  0.1425
  883MOL0     C21723   0.338   1.072   4.629  1.5152 -0.8967 -0.3637
  883MOL0     O21724   0.391   0.966   4.696 -0.6357 -0.0631 -0.4128
  883MOL0     C21725   0.521   0.922   4.653 -0.3483 -0.0078 -0.2181
  883MOL0     C21726   0.607   0.887   4.771  0.4464  1.0532 -1.2209
  883MOL0     C21727   0.570   0.767   4.862  0.0644 -0.5143  0.0766
  883MOL0     C21728   0.645   0.635   4.834  0.0566 -0.7313 -0.0422
  883MOL0     C21729   0.637   0.527   4.948  0.2206 -0.2379 -0.7027
  883MOL0     C21730   0.732   0.408   4.908 -0.1328  0.5813 -0.3870
  883MOL0     C21731   0.780   0.323   5.033 -0.3687 -0.9789  0.1432
  883MOL0     C21732   0.875   0.207   4.983 -0.3313 -0.1721 -0.2227
  883MOL0     N21733   0.931   0.133   5.103  0.0303 -0.0647  0.8480
  883MOL0     C21734   1.055   0.139   5.163  0.6112 -1.1483 -0.1399
  883MOL0     C21735   1.060   0.042   5.253 -0.1305 -0.2246  0.2290
  883MOL0     C21736   1.169   0.028   5.353 -0.0146 -0.0136  0.9575
  883MOL0     C21737   1.149  -0.097   5.444  0.4294 -0.9990  0.3330
  883MOL0     C21738   1.266  -0.124   5.538  0.5288 -0.3611 -0.1489
  883MOL0     C21739   1.388  -0.190   5.479  0.0792  0.5891  0.2555
  883MOL0     O21740   1.361  -0.307   5.394  0.3735 -0.2545 -0.2629
  883MOL0     C21741   1.469  -0.366   5.331  0.2761 -0.5674  0.4697
  883MOL0     C21742   1.594  -0.312   5.311 -0.1859 -0.1271  0.9388
  883MOL0     C21743   1.696  -0.389   5.251  0.1349  0.1924  0.2002
  883MOL0     C21744   1.829  -0.329   5.231  0.3454  0.0096 -0.0257
  883MOL0     C21745   1.666  -0.523   5.206  0.1032  0.0798 -0.2307
  883MOL0     C21746   1.771  -0.604   5.147 -0.2402 -0.5003  0.1096
  883MOL0     O21747   1.904  -0.589   5.166 -0.7274  0.2112 -0.1423
  883MOL0     C21748   1.999  -0.652   5.085 -0.4080  0.3319 -0.0459
  883MOL0     C21749   1.992  -0.650   4.941 -0.1105 -0.2876 -0.4948
  883MOL0     C21750   2.084  -0.724   4.867 -0.6637  0.7293  0.7727
  883MOL0     C21751   2.182  -0.799   4.925  0.0351 -0.0657  0.2648
  883MOL0     O21752   2.269  -0.868   4.845 -0.1629  0.2487 -0.4141
  883MOL0     C21753   2.271  -1.008   4.864 -0.0485  0.9458  0.4221
  883MOL0     C21754   2.395  -1.083   4.810  0.2401 -1.0081 -0.2049
  883MOL0     C21755   2.531  -1.041   4.868 -0.0918  0.2704 -0.0615
  883MOL0     C21756   2.639  -1.143   4.830  0.2726 -0.2141  0.4314
  883MOL0     C21757   2.767  -1.159   4.917 -0.0621  0.1736 -0.6615
  883MOL0     C21758   2.874  -1.048   4.899 -0.6147 -0.3497  0.1257
  883MOL0     C21759   2.971  -1.065   4.784  0.1212 -0.4945  0.3445
  883MOL0     C21760   3.047  -0.931   4.744  0.3308 -0.5583 -0.0101
  883MOL0    Cl21761   3.159  -0.882   4.874  0.1397  0.0330  0.4062
  883MOL0     C21762   2.180  -0.806   5.064 -0.0756 -0.3491  0.1661
  883MOL0     C21763   2.097  -0.732   5.139  0.0313 -0.1563  0.4748
  883MOL0     O21764   1.727  -0.681   5.063  0.1445 -0.6304  0.5331
  883MOL0     C21765   1.537  -0.571   5.221  0.9438 -0.1465 -0.6513
  883MOL0     C21766   1.439  -0.492   5.285 -0.6994 -0.7084 -0.4417
  883MOL0     N21767   0.938  -0.015   5.258  1.2866  0.7221  0.1369
  883MOL0     N21768   0.868   0.030   5.159 -0.5808  0.2272 -0.0710
  883MOL0     C21769   0.215   1.074   4.563 -0.0522  0.3721  0.4830
  883MOL0     C21770   0.142   1.194   4.547  0.3676  0.7085 -0.0722
  883MOL0     C21771  -0.012   1.613   4.618  1.1534 -0.6000 -0.6174
  883MOL0     C21772  -0.067   1.628   4.482  0.3673 -0.0441  0.4596
  883MOL0     C21773  -0.149   1.732   4.435 -0.6382  0.2640  0.3613
  883MOL0     C21774  -0.207   1.813   4.532  0.0656  0.2131  0.3488
  883MOL0     O21775  -0.310   1.894   4.492 -0.3451 -0.0110  0.0569
  883MOL0     C21776  -0.395   1.966   4.575  0.0814 -0.3287  0.2545
  883MOL0     C21777  -0.514   1.897   4.652  0.5734 -0.2019 -0.2420
  883MOL0     C21778  -0.626   1.842   4.571  0.9247 -0.0650  0.2425
  883MOL0     C21779  -0.602   1.705   4.508  0.7062  0.3682  0.2374
  883MOL0     C21780  -0.722   1.647   4.444 -0.7678 -0.2675  0.1792
  883MOL0     C21781  -0.815   1.582   4.395  0.2405 -0.2628  0.7486
  883MOL0     C21782  -0.162   1.806   4.666 -0.4911 -1.0784  1.2237
  883MOL0     C21783  -0.060   1.713   4.713  0.1118  0.1149  0.0087
  883MOL0     C21784  -0.041   1.696   4.857 -0.0012 -0.5513  0.6998
  883MOL0     H21785   0.373   1.420   4.656 -2.4006  0.7595  2.3489
  883MOL0     H21786   0.491   1.208   4.707  2.4930  1.2745 -2.9666
  883MOL0     H21787   0.581   1.000   4.606 -0.0854 -0.1804 -0.1734
  883MOL0     H21788   0.498   0.834   4.592  1.1956 -0.7412  0.1975
  883MOL0     H21789   0.710   0.867   4.739  0.2956  0.3903 -1.3111
  883MOL0     H21790   0.608   0.978   4.831  0.2109  1.0752 -1.2484
  883MOL0     H21791   0.586   0.795   4.966  2.9143 -1.2063 -0.0862
  883MOL0     H21792   0.462   0.748   4.855 -0.4500  2.4939 -4.0972
  883MOL0     H21793   0.618   0.604   4.733 -3.2661 -1.7090  1.0068
  883MOL0     H21794   0.749   0.667   4.831 -0.2262  0.3992  1.1525
  883MOL0     H21795   0.531   0.499   4.949 -0.4167  1.9598 -0.8411
  883MOL0     H21796   0.661   0.570   5.046 -0.8843  0.8125 -0.8686
  883MOL0     H21797   0.681   0.353   4.829 -1.0125  1.7399 -0.6579
  883MOL0     H21798   0.820   0.454   4.862  1.6547 -0.8963  1.3885
  883MOL0     H21799   0.698   0.279   5.090  0.0504 -3.1953 -0.8656
  883MOL0     H21800   0.837   0.386   5.103 -0.1204 -1.9025  0.7864
  883MOL0     H21801   0.823   0.141   4.914 -0.5899 -0.0831 -0.1118
  883MOL0     H21802   0.962   0.242   4.926 -0.4299 -1.9593 -1.5365
  883MOL0     H21803   1.127   0.219   5.150  1.6688 -2.2212 -1.2217
  883MOL0     H21804   1.164   0.114   5.420 -1.1960  1.7088 -1.2049
  883MOL0     H21805   1.262   0.025   5.296  0.9322  1.1112  2.3866
  883MOL0     H21806   1.052  -0.093   5.495 -0.1333  1.9104 -0.7858
  883MOL0     H21807   1.143  -0.184   5.376  0.3356 -0.8878  0.1988
  883MOL0     H21808   1.299  -0.031   5.585  0.2163 -0.3285  0.0125
  883MOL0     H21809   1.236  -0.189   5.621  1.4974  0.6457  1.0291
  883MOL0     H21810   1.445  -0.109   5.432  0.4098  0.9184  1.2132
  883MOL0     H21811   1.439  -0.229   5.567  0.9874 -1.9813 -1.3071
  883MOL0     H21812   1.608  -0.210   5.346 -1.0174 -0.3030  1.8030
  883MOL0     H21813   1.817  -0.222   5.249  1.4437  0.0814  0.3127
  883MOL0     H21814   1.871  -0.338   5.131 -3.3819  0.7970 -1.8619
  883MOL0     H21815   1.901  -0.373   5.301  2.3534  0.3469 -1.7993
  883MOL0     H21816   1.904  -0.606   4.895  0.9672  1.0458 -1.3587
  883MOL0     H21817   2.083  -0.721   4.759  1.3706 -2.8569  0.5241
  883MOL0     H21818   2.271  -1.029   4.971  0.9855 -0.8821  0.0959
  883MOL0     H21819   2.187  -1.061   4.818 -1.8364  2.5678  1.6703
  883MOL0     H21820   2.386  -1.191   4.827  0.6016 -1.3999 -2.2785
  883MOL0     H21821   2.396  -1.065   4.702  1.4495  1.0369  0.1079
  883MOL0     H21822   2.526  -1.030   4.977 -4.2678  2.5607 -0.2694
  883MOL0     H21823   2.552  -0.937   4.843 -0.7891  0.4659  0.1404
  883MOL0     H21824   2.663  -1.120   4.725 -3.0066  0.5821 -0.2458
  883MOL0     H21825   2.586  -1.239   4.831 -2.5425  1.2065  2.7109
  883MOL0     H21826   2.745  -1.183   5.022  4.1022 -0.9643  0.1675
  883MOL0     H21827   2.806  -1.256   4.885 -0.0691  0.3292 -1.1432
  883MOL0     H21828   2.933  -1.037   4.990 -1.8495  2.5223  0.6768
  883MOL0     H21829   2.820  -0.955   4.884 -3.9938 -1.4211  3.8963
  883MOL0     H21830   2.920  -1.104   4.696 -1.1673  0.1273  0.7937
  883MOL0     H21831   3.048  -1.140   4.802  2.5382  1.4671 -1.1062
  883MOL0     H21832   2.975  -0.849   4.737  0.6252  0.5376  5.5992
  883MOL0     H21833   3.103  -0.933   4.650 -0.6725 -2.1835 -0.6193
  883MOL0     H21834   2.255  -0.857   5.124 -0.0646  1.0281  1.4125
  883MOL0     H21835   2.115  -0.737   5.246  1.2870 -0.5667  0.2640
  883MOL0     H21836   1.504  -0.669   5.186  0.3624  0.3970 -1.6898
  883MOL0     H21837   1.334  -0.517   5.294 -0.5178 -1.1697  0.5882
  883MOL0     H21838   0.178   0.973   4.551  1.9898 -0.4113  0.3489
  883MOL0     H21839   0.044   1.190   4.500  0.8994 -0.2994 -1.1617
  883MOL0     H21840  -0.026   1.559   4.409  0.2557 -0.0276  0.3825
  883MOL0     H21841  -0.183   1.726   4.332  0.0007 -3.7389  0.2184
  883MOL0     H21842  -0.337   2.011   4.656 -1.1839  1.3699  0.2596
  883MOL0     H21843  -0.430   2.053   4.520 -1.1195 -0.8177  0.2029
  883MOL0     H21844  -0.555   1.975   4.716 -1.1949 -2.5925  1.7255
  883MOL0     H21845  -0.466   1.818   4.712  0.2088 -0.6664 -0.5553
  883MOL0     H21846  -0.715   1.848   4.634  1.1161 -0.3501  0.5460
  883MOL0     H21847  -0.652   1.909   4.489 -2.9991 -2.6015 -0.8310
  883MOL0     H21848  -0.580   1.647   4.598 -0.4028 -0.5321 -0.0532
  883MOL0     H21849  -0.525   1.703   4.429 -2.1143  1.0813 -2.7468
  883MOL0     H21850  -0.892   1.519   4.353 -0.8344  1.3339  0.2102
  883MOL0     H21851  -0.207   1.865   4.745 -0.3989 -0.1076  0.5668
  883MOL0     H21852   0.063   1.677   4.884 -0.1374 -1.0561  0.8655
  883MOL0     H21853  -0.064   1.790   4.908  1.3652 -0.2237  0.7294
  883MOL0     H21854  -0.108   1.617   4.892 -1.0211 -0.0266 -0.0119
  884MOL0     O21855   3.127   2.304   0.390 -0.4718 -0.1096  0.2858
  884MOL0     C21856   3.074   2.377   0.474  0.4476  0.4252 -0.7491
  884MOL0     O21857   2.943   2.410   0.485  0.6075  0.0148  0.6333
  884MOL0     C21858   2.851   2.367   0.401 -0.0534 -0.8674  0.4948
  884MOL0     C21859   2.794   2.240   0.396 -0.1079  0.6538  0.2149
  884MOL0     C21860   2.678   2.206   0.317 -0.2713 -0.3750 -0.2348
  884MOL0     C21861   2.606   2.300   0.243 -0.6519 -1.4651 -0.4032
  884MOL0     O21862   2.510   2.257   0.163 -1.1939  0.8279 -0.2793
  884MOL0     C21863   2.431   2.357   0.091 -0.2607  0.0830 -0.2608
  884MOL0     C21864   2.296   2.301   0.034 -0.4374  0.9100 -0.0834
  884MOL0     C21865   2.319   2.223  -0.101  0.3821  0.4912  0.7087
  884MOL0     C21866   2.258   2.080  -0.094  0.9194  0.3421 -0.2888
  884MOL0     C21867   2.305   1.994  -0.207  0.4108 -0.0380 -0.4531
  884MOL0     C21868   2.220   1.864  -0.206  0.1201 -0.0276  0.4294
  884MOL0     C21869   2.260   1.762  -0.316 -0.4707  0.5084 -1.5452
  884MOL0     C21870   2.223   1.802  -0.456 -0.5936  0.6785  0.6886
  884MOL0     N21871   2.081   1.824  -0.466  1.1794 -0.6747 -1.0925
  884MOL0     C21872   1.984   1.735  -0.431 -0.0741 -0.1765  0.9309
  884MOL0     C21873   1.866   1.788  -0.454 -0.6644  0.6483 -0.2163
  884MOL0     C21874   1.731   1.722  -0.437  0.3196  0.1455 -0.1004
  884MOL0     C21875   1.686   1.682  -0.582 -0.5456  0.6281 -0.6611
  884MOL0     C21876   1.578   1.567  -0.595  0.0539  0.4915 -0.2026
  884MOL0     C21877   1.454   1.605  -0.535  0.0097 -0.4295  0.2676
  884MOL0     O21878   1.401   1.707  -0.627  0.0338  0.1051  0.3661
  884MOL0     C21879   1.263   1.725  -0.620 -0.7006  0.5875 -0.5341
  884MOL0     C21880   1.191   1.782  -0.727 -0.3301  0.1741  0.3658
  884MOL0     C21881   1.051   1.788  -0.726 -0.0596 -0.6054  0.4354
  884MOL0     C21882   0.979   1.838  -0.852 -0.1127  0.4005 -0.5919
  884MOL0     C21883   0.976   1.737  -0.617 -0.1570 -0.5744 -0.4267
  884MOL0     C21884   0.822   1.741  -0.603 -0.3288 -0.4605 -0.0270
  884MOL0     O21885   0.766   1.648  -0.511 -0.1542  0.0502 -0.1993
  884MOL0     C21886   0.635   1.672  -0.471 -0.6676 -0.7984  0.5148
  884MOL0     C21887   0.609   1.692  -0.332  1.1568  0.0866 -0.6527
  884MOL0     C21888   0.485   1.738  -0.278 -0.5529  0.9753 -0.0086
  884MOL0     C21889   0.383   1.755  -0.373 -0.3477  0.3478 -0.0590
  884MOL0     O21890   0.260   1.779  -0.312 -0.7144 -0.4040  0.4382
  884MOL0     C21891   0.135   1.773  -0.388 -0.5585  0.6004  0.3171
  884MOL0     C21892   0.017   1.830  -0.316  0.2362  0.3669 -0.6318
  884MOL0     C21893  -0.111   1.797  -0.393 -0.2342  0.4584  0.5806
  884MOL0     C21894  -0.233   1.841  -0.321  0.3551  0.2453  0.2412
  884MOL0     C21895  -0.349   1.778  -0.391 -0.5698  0.3799  0.4945
  884MOL0     C21896  -0.487   1.813  -0.332  0.2671 -1.4256 -0.0599
  884MOL0     C21897  -0.595   1.724  -0.379 -0.8075 -0.7935  0.1710
  884MOL0     C21898  -0.728   1.759  -0.320 -0.2590  0.0525 -0.5317
  884MOL0    Cl21899  -0.833   1.869  -0.425 -0.3231  0.1600  0.2156
  884MOL0     C21900   0.404   1.738  -0.507 -0.1607 -0.1931  0.8540
  884MOL0     C21901   0.528   1.693  -0.558 -0.5754 -0.2892 -0.2858
  884MOL0     O21902   0.756   1.828  -0.667 -0.3145  0.3408  0.4160
  884MOL0     C21903   1.042   1.691  -0.514  0.0205 -0.0987 -0.4706
  884MOL0     C21904   1.182   1.677  -0.514 -0.7245 -0.8816 -0.4163
  884MOL0     N21905   1.884   1.918  -0.488 -1.4996 -0.4947 -0.1901
  884MOL0     N21906   2.013   1.937  -0.500 -0.0223 -0.4252 -0.6025
  884MOL0     C21907   2.664   2.433   0.247  0.1960  0.4675 -0.5363
  884MOL0     C21908   2.788   2.462   0.313  0.0998  0.3399 -0.8832
  884MOL0     C21909   3.163   2.433   0.572 -0.2508 -0.7881 -0.2349
  884MOL0     C21910   3.175   2.567   0.596 -0.2696  0.5642  0.1690
  884MOL0     C21911   3.266   2.625   0.682  0.1273  0.9795  0.1832
  884MOL0     C21912   3.359   2.538   0.739  0.4422  0.2510  0.1809
  884MOL0     O21913   3.464   2.581   0.821 -0.3870  1.1216 -0.2767
  884MOL0     C21914   3.520   2.712   0.811  0.6433 -0.0739 -0.4367
  884MOL0     C21915   3.454   2.834   0.871 -0.2584  0.9997  0.2187
  884MOL0     C21916   3.406   2.804   1.014 -0.1608 -0.1928 -0.4861
  884MOL0     C21917   3.331   2.923   1.078 -0.6284  0.1209 -0.1554
  884MOL0     C21918   3.397   3.053   1.071  0.3966 -0.5479 -0.1385
  884MOL0     C21919   3.441   3.164   1.056 -1.0977  0.6934 -0.5277
  884MOL0     C21920   3.339   2.401   0.732 -0.5958  0.2745  0.6304
  884MOL0     C21921   3.247   2.348   0.648 -0.1010 -0.0610 -0.0367
  884MOL0     C21922   3.231   2.199   0.644 -0.3725  0.6869  0.8182
  884MOL0     H21923   2.851   2.162   0.444 -0.5926  0.5982  0.7116
  884MOL0     H21924   2.639   2.104   0.320 -4.7990  1.1400  2.1991
  884MOL0     H21925   2.490   2.386   0.003  0.3599  1.6945  0.6534
  884MOL0     H21926   2.399   2.439   0.156 -0.4282 -0.5820  0.5039
  884MOL0     H21927   2.230   2.245   0.101 -0.7774  1.0133 -0.3298
  884MOL0     H21928   2.244   2.391  -0.000  2.6371  2.6120 -0.6862
  884MOL0     H21929   2.269   2.275  -0.183  2.0087 -0.4886 -0.9702
  884MOL0     H21930   2.426   2.212  -0.119  0.6985  2.4417  1.1714
  884MOL0     H21931   2.281   2.029  -0.001 -0.5306  1.4656  0.7426
  884MOL0     H21932   2.149   2.085  -0.084  1.0568  3.4669  0.7914
  884MOL0     H21933   2.413   1.976  -0.198  0.6761  0.9650 -1.4026
  884MOL0     H21934   2.280   2.037  -0.304 -3.4929  0.3767  0.5525
  884MOL0     H21935   2.236   1.813  -0.110 -0.2231 -0.7726  0.0968
  884MOL0     H21936   2.115   1.894  -0.214  0.7960  2.1374 -1.3038
  884MOL0     H21937   2.205   1.669  -0.299 -3.2564  2.0094 -1.6660
  884MOL0     H21938   2.366   1.739  -0.308  0.1145  1.6257 -4.5817
  884MOL0     H21939   2.271   1.897  -0.484  4.2639 -2.2443 -2.6539
  884MOL0     H21940   2.255   1.721  -0.521 -0.0056 -0.5279  2.4157
  884MOL0     H21941   2.003   1.632  -0.401  2.3736 -0.5668 -1.5240
  884MOL0     H21942   1.663   1.796  -0.394  0.5303  1.2948 -1.6506
  884MOL0     H21943   1.731   1.631  -0.377 -1.3659 -1.3631 -2.2403
  884MOL0     H21944   1.647   1.770  -0.633  1.9621  1.5713 -1.1029
  884MOL0     H21945   1.777   1.652  -0.636  0.9836  0.1674  1.9694
  884MOL0     H21946   1.557   1.539  -0.698  0.5814  1.4002 -0.5745
  884MOL0     H21947   1.625   1.483  -0.542 -0.3682  1.4946  1.8558
  884MOL0     H21948   1.396   1.512  -0.538 -3.5825  1.4480 -5.4423
  884MOL0     H21949   1.465   1.641  -0.433  3.5739 -1.3959  0.3381
  884MOL0     H21950   1.253   1.825  -0.805 -1.9947  0.6160 -0.7666
  884MOL0     H21951   0.917   1.753  -0.882  1.6113 -2.1864  2.4088
  884MOL0     H21952   1.056   1.856  -0.927  2.5440  1.6400  2.2055
  884MOL0     H21953   0.923   1.930  -0.839 -2.1488 -0.9173  0.5022
  884MOL0     H21954   0.684   1.661  -0.259  0.6082 -2.2330 -0.9872
  884MOL0     H21955   0.464   1.751  -0.172 -2.7870  1.5164 -0.4510
  884MOL0     H21956   0.151   1.829  -0.481  0.3387  0.8643  0.6197
  884MOL0     H21957   0.129   1.665  -0.409  1.2270 -0.2272  3.4285
  884MOL0     H21958   0.020   1.791  -0.213  3.5863  1.3188 -0.2386
  884MOL0     H21959   0.031   1.937  -0.300  3.7281 -0.3020  2.2605
  884MOL0     H21960  -0.105   1.688  -0.404 -1.0116  0.3382  1.2576
  884MOL0     H21961  -0.114   1.839  -0.494 -4.0733  0.7907  0.7025
  884MOL0     H21962  -0.239   1.950  -0.325  0.9486  0.2717 -0.0317
  884MOL0     H21963  -0.227   1.811  -0.216 -1.3915  1.5578  0.7790
  884MOL0     H21964  -0.350   1.799  -0.499  0.2516  0.3618  0.4802
  884MOL0     H21965  -0.338   1.670  -0.378  3.0929  0.6413  0.4976
  884MOL0     H21966  -0.504   1.916  -0.365  2.6301 -0.8919  0.1463
  884MOL0     H21967  -0.481   1.801  -0.224 -0.3444 -0.9947  0.0212
  884MOL0     H21968  -0.567   1.623  -0.348  1.8075 -1.5505 -3.8596
  884MOL0     H21969  -0.600   1.714  -0.488  1.0360  0.4083 -0.0753
  884MOL0     H21970  -0.726   1.794  -0.217 -1.1152 -1.8229  0.1753
  884MOL0     H21971  -0.786   1.665  -0.317  3.0062 -2.1049  0.4626
  884MOL0     H21972   0.331   1.773  -0.579  1.3028 -0.0116 -0.5840
  884MOL0     H21973   0.558   1.686  -0.662  1.5701  1.7873  0.0909
  884MOL0     H21974   0.989   1.660  -0.425 -2.1471  1.4182 -1.1490
  884MOL0     H21975   1.224   1.637  -0.422 -1.0239 -0.3894 -0.0603
  884MOL0     H21976   2.616   2.515   0.195 -0.4286  1.9690  2.2011
  884MOL0     H21977   2.834   2.561   0.306  1.1298 -0.1777 -1.7788
  884MOL0     H21978   3.103   2.636   0.554 -1.8153 -0.2345  1.3848
  884MOL0     H21979   3.254   2.732   0.692 -0.6073  0.9316 -0.0568
  884MOL0     H21980   3.616   2.708   0.862 -0.2999 -3.2422  1.3687
  884MOL0     H21981   3.536   2.730   0.704 -0.8946  3.3365 -0.2368
  884MOL0     H21982   3.366   2.860   0.812  0.7816 -2.1707 -3.1178
  884MOL0     H21983   3.524   2.918   0.868  2.3717 -1.0885  0.0115
  884MOL0     H21984   3.342   2.716   1.007  2.4849 -2.2313 -0.5873
  884MOL0     H21985   3.494   2.780   1.075 -0.3930 -0.1673 -0.1404
  884MOL0     H21986   3.319   2.904   1.185 -0.9295 -0.2234 -0.2474
  884MOL0     H21987   3.232   2.920   1.032 -2.3709  2.7665  3.0006
  884MOL0     H21988   3.479   3.264   1.062 -3.2054  1.4447  1.6281
  884MOL0     H21989   3.400   2.327   0.783  0.3824 -0.0558 -0.9610
  884MOL0     H21990   3.307   2.163   0.574  0.6034  0.4400  1.9841
  884MOL0     H21991   3.245   2.162   0.746  2.8357 -1.4137 -0.2105
  884MOL0     H21992   3.133   2.167   0.607  1.0659  0.0547 -2.8861
  885MOL0     O21993   6.280   6.979   3.622  0.0846 -0.4432 -0.1900
  885MOL0     C21994   6.310   7.037   3.731  0.8314 -0.0750 -0.7754
  885MOL0     O21995   6.442   7.056   3.780  0.8431  0.0593  0.2809
  885MOL0     C21996   6.552   7.036   3.701  0.1110  1.1231 -0.0835
  885MOL0     C21997   6.649   6.958   3.764  0.1443 -0.2222  0.4161
  885MOL0     C21998   6.772   6.941   3.711 -0.8700  0.1617  0.3037
  885MOL0     C21999   6.802   6.994   3.584  0.2516 -0.4028  0.1623
  885MOL0     O22000   6.923   6.971   3.521 -0.2741  0.4063  0.0195
  885MOL0     C22001   7.043   6.908   3.569  1.0296 -0.3323 -0.1573
  885MOL0     C22002   7.132   6.892   3.446  0.4649 -0.4202  0.3312
  885MOL0     C22003   7.068   6.802   3.345  0.3433  0.5176 -0.4042
  885MOL0     C22004   7.156   6.773   3.224 -0.0788 -0.1427  0.3757
  885MOL0     C22005   7.077   6.680   3.125 -0.0506 -0.6866 -0.1385
  885MOL0     C22006   7.137   6.684   2.981 -0.0007  0.5673  0.6311
  885MOL0     C22007   7.262   6.591   2.981 -0.0208  0.3695  0.7181
  885MOL0     C22008   7.318   6.573   2.842 -0.9806  0.3947  0.2996
  885MOL0     N22009   7.412   6.459   2.819 -0.5474  0.4551 -0.2421
  885MOL0     C22010   7.549   6.482   2.792  1.0814  0.6496 -0.2277
  885MOL0     C22011   7.598   6.359   2.743  0.1857  0.0313 -0.1784
  885MOL0     C22012   7.738   6.308   2.703  0.5543  0.8205  0.3406
  885MOL0     C22013   7.819   6.423   2.620  0.7019  0.2139 -0.0643
  885MOL0     C22014   7.963   6.400   2.615 -1.4153  0.8253  0.9516
  885MOL0     C22015   8.033   6.523   2.567  0.3607  0.4386  0.1925
  885MOL0     O22016   8.155   6.496   2.502  0.4830  0.2661  0.3041
  885MOL0     C22017   8.245   6.602   2.483 -0.1459  0.8245 -0.3066
  885MOL0     C22018   8.363   6.559   2.421 -0.3890 -0.2933  0.3063
  885MOL0     C22019   8.468   6.638   2.394  0.4046  0.2148  0.1628
  885MOL0     C22020   8.590   6.580   2.325  0.7137  1.4701  0.3432
  885MOL0     C22021   8.457   6.777   2.422 -0.0172 -0.1431 -0.3007
  885MOL0     C22022   8.550   6.887   2.375 -0.0032  0.1634 -0.6405
  885MOL0     O22023   8.526   7.010   2.413  0.8180  0.3431 -0.0163
  885MOL0     C22024   8.616   7.106   2.376  0.5979 -0.1873  0.2283
  885MOL0     C22025   8.722   7.139   2.456  0.9994  0.8600  0.1102
  885MOL0     C22026   8.823   7.238   2.434  0.6619 -0.1387 -0.2190
  885MOL0     C22027   8.806   7.309   2.316  0.3510  0.3574 -0.3854
  885MOL0     O22028   8.884   7.416   2.269  0.3458  0.0703 -0.4296
  885MOL0     C22029   9.016   7.368   2.241 -0.8560 -0.6456  0.0594
  885MOL0     C22030   9.086   7.477   2.160  0.6055  0.3769 -0.2334
  885MOL0     C22031   9.067   7.466   2.012  0.8417 -0.7477 -0.2092
  885MOL0     C22032   9.069   7.323   1.956  0.6044  0.1650  0.1279
  885MOL0     C22033   9.076   7.316   1.804 -0.1504 -0.3169  0.3993
  885MOL0     C22034   9.005   7.199   1.725 -0.6427  0.2395  0.1640
  885MOL0     C22035   9.079   7.061   1.746  0.0646 -0.1078  0.6930
  885MOL0     C22036   9.180   7.023   1.635 -0.1295 -0.2560 -0.5483
  885MOL0    Cl22037   9.264   6.872   1.688  0.2988  0.3400  0.4088
  885MOL0     C22038   8.707   7.270   2.224 -0.2011  0.1304  0.0163
  885MOL0     C22039   8.620   7.168   2.249  0.1748  0.0980 -0.5463
  885MOL0     O22040   8.641   6.855   2.304 -0.1977  0.7684  0.5041
  885MOL0     C22041   8.334   6.821   2.481 -0.3166  0.2755 -1.1693
  885MOL0     C22042   8.224   6.738   2.514 -0.3245 -0.2127 -0.3073
  885MOL0     N22043   7.488   6.267   2.748 -0.8196  0.1362  0.6203
  885MOL0     N22044   7.383   6.332   2.793 -0.5143  0.3261  0.3793
  885MOL0     C22045   6.705   7.072   3.519  0.2997  0.2669 -0.1281
  885MOL0     C22046   6.578   7.094   3.572 -0.3406 -0.2903 -0.4605
  885MOL0     C22047   6.193   7.082   3.813 -0.4249 -0.7296 -0.1116
  885MOL0     C22048   6.229   7.117   3.940  0.7614 -0.0830 -0.3885
  885MOL0     C22049   6.138   7.165   4.032 -0.0457  0.3664 -0.2797
  885MOL0     C22050   5.996   7.178   4.002 -0.3052 -0.0186 -0.1580
  885MOL0     O22051   5.916   7.230   4.096  0.0350  1.1796 -0.0375
  885MOL0     C22052   5.793   7.290   4.062 -0.3341  0.2537  0.0799
  885MOL0     C22053   5.819   7.442   4.038  0.1168 -0.4287 -0.1919
  885MOL0     C22054   5.712   7.508   3.949 -0.6152 -0.4706 -0.4876
  885MOL0     C22055   5.737   7.656   3.927 -0.1776  0.0199 -0.4659
  885MOL0     C22056   5.612   7.698   3.862 -0.2697  0.1540  0.3811
  885MOL0     C22057   5.500   7.731   3.828  0.4463  0.6615  0.1071
  885MOL0     C22058   5.964   7.120   3.872 -0.0907  0.9417 -0.7028
  885MOL0     C22059   6.060   7.082   3.773  0.6076  0.1846  0.4461
  885MOL0     C22060   5.993   7.036   3.638 -0.0275  0.4430  0.2823
  885MOL0     H22061   6.636   6.911   3.861 -1.6863 -0.2084  0.2129
  885MOL0     H22062   6.848   6.890   3.770  0.4529 -0.5462 -1.9248
  885MOL0     H22063   7.011   6.810   3.608  0.6292 -0.3725 -0.5833
  885MOL0     H22064   7.090   6.967   3.649  0.3393 -1.2946  1.0071
  885MOL0     H22065   7.139   6.991   3.401 -2.1380  1.3436  3.3832
  885MOL0     H22066   7.236   6.864   3.460  0.1164 -2.0825 -0.1731
  885MOL0     H22067   7.060   6.708   3.400 -0.4396  0.4034 -0.7000
  885MOL0     H22068   6.970   6.844   3.320  1.0635  1.4257 -1.8155
  885MOL0     H22069   7.173   6.866   3.168 -0.5647  0.0223  0.4972
  885MOL0     H22070   7.258   6.745   3.251 -0.2553 -0.5755  0.5994
  885MOL0     H22071   6.975   6.719   3.119 -0.0917 -0.7799 -0.0524
  885MOL0     H22072   7.066   6.581   3.169 -0.7376 -0.3023  0.5909
  885MOL0     H22073   7.061   6.639   2.916 -1.0642  0.6557  1.7837
  885MOL0     H22074   7.154   6.785   2.942 -1.9894  0.5627 -0.3542
  885MOL0     H22075   7.210   6.496   3.000 -1.6496 -0.3489 -5.1519
  885MOL0     H22076   7.347   6.621   3.042  3.4179 -2.3448 -2.2670
  885MOL0     H22077   7.225   6.544   2.792 -1.5532  0.5389  1.2620
  885MOL0     H22078   7.373   6.658   2.800  0.5115 -0.1864  0.9861
  885MOL0     H22079   7.600   6.577   2.805  1.2388  0.5937 -0.4464
  885MOL0     H22080   7.734   6.220   2.638  1.0054  1.1777 -0.1815
  885MOL0     H22081   7.793   6.294   2.797  0.6682  0.1966  0.1885
  885MOL0     H22082   7.776   6.429   2.520 -3.2746  2.4401  1.5324
  885MOL0     H22083   7.803   6.519   2.671  1.0093  0.4265 -0.3674
  885MOL0     H22084   8.001   6.379   2.716  3.3115 -0.4779 -0.8465
  885MOL0     H22085   7.984   6.319   2.545 -1.1854  2.3137 -0.7617
  885MOL0     H22086   7.974   6.567   2.486  1.1349 -2.0718 -1.8682
  885MOL0     H22087   8.055   6.587   2.653  3.3972 -0.1119 -0.0482
  885MOL0     H22088   8.374   6.455   2.392  1.6090 -0.0735  0.1344
  885MOL0     H22089   8.669   6.594   2.398  0.1615  4.5053  0.4974
  885MOL0     H22090   8.619   6.632   2.233  0.4947 -0.0398 -0.6196
  885MOL0     H22091   8.578   6.472   2.309 -0.6904  1.3819  1.7252
  885MOL0     H22092   8.717   7.081   2.547 -3.2712 -0.9053 -0.9899
  885MOL0     H22093   8.908   7.238   2.503  1.8238  2.5551 -1.4890
  885MOL0     H22094   9.077   7.353   2.331 -1.3415 -0.5309  0.4083
  885MOL0     H22095   9.020   7.270   2.193  1.0286 -0.8736  0.5716
  885MOL0     H22096   9.068   7.577   2.200 -1.7536 -0.9345  2.3220
  885MOL0     H22097   9.191   7.454   2.180 -0.2518 -3.0417  1.0722
  885MOL0     H22098   9.159   7.513   1.974  0.0155  3.4842  2.3615
  885MOL0     H22099   8.987   7.526   1.968 -1.2630 -3.2117  0.0556
  885MOL0     H22100   8.973   7.280   1.983 -0.4087 -0.2605 -3.6470
  885MOL0     H22101   9.152   7.260   1.990  3.0615  1.0170 -3.5905
  885MOL0     H22102   9.039   7.409   1.762  0.6792 -0.6952 -1.2770
  885MOL0     H22103   9.180   7.324   1.770 -0.7016  1.3439 -1.0065
  885MOL0     H22104   9.010   7.230   1.620 -0.4365  1.0698  0.4104
  885MOL0     H22105   8.899   7.197   1.752 -1.0113 -1.2129 -1.2444
  885MOL0     H22106   9.003   6.984   1.731  1.7988 -1.6021 -1.0380
  885MOL0     H22107   9.103   7.051   1.852 -6.7656 -1.8320  2.5324
  885MOL0     H22108   9.254   7.099   1.608  0.3942 -1.1823 -1.8323
  885MOL0     H22109   9.122   7.006   1.544 -2.5519 -0.1285  0.8921
  885MOL0     H22110   8.709   7.324   2.130 -3.8493 -2.4653 -1.7751
  885MOL0     H22111   8.541   7.154   2.176  1.2232 -2.1990 -1.3265
  885MOL0     H22112   8.325   6.928   2.500  4.0999  0.8657 -1.3258
  885MOL0     H22113   8.134   6.785   2.554 -1.4519 -0.4234 -2.4865
  885MOL0     H22114   6.748   7.118   3.431  1.6223  1.0281  0.8841
  885MOL0     H22115   6.513   7.152   3.507  0.2380  0.9616  0.0351
  885MOL0     H22116   6.330   7.098   3.975  0.6190 -0.6474 -0.2737
  885MOL0     H22117   6.175   7.182   4.133  2.3650 -2.7690 -0.4511
  885MOL0     H22118   5.742   7.244   3.976  3.1646 -0.0997 -1.9944
  885MOL0     H22119   5.729   7.280   4.150  0.0060 -3.9132  0.0217
  885MOL0     H22120   5.917   7.450   3.990 -1.0684  1.1121 -2.5309
  885MOL0     H22121   5.814   7.490   4.136 -0.3779 -0.2293 -0.3125
  885MOL0     H22122   5.715   7.463   3.849  2.2160  2.2863 -1.8352
  885MOL0     H22123   5.618   7.484   3.998 -0.7777  0.4547 -0.3188
  885MOL0     H22124   5.825   7.677   3.866  1.0832  1.8518  1.8030
  885MOL0     H22125   5.742   7.717   4.018 -3.3794  0.4853 -0.5097
  885MOL0     H22126   5.397   7.754   3.807 -0.1423 -0.1913  1.8692
  885MOL0     H22127   5.858   7.120   3.850  0.3513  1.5954 -3.1903
  885MOL0     H22128   5.890   7.007   3.661  0.1137 -2.0811 -1.7851
  885MOL0     H22129   6.001   7.117   3.565  0.2853 -1.5860 -2.0681
  885MOL0     H22130   6.045   6.949   3.596  0.2273  0.1243  1.2442
  886MOL0     O22131   7.520   0.881   4.107 -0.1967 -0.5053 -0.2847
  886MOL0     C22132   7.405   0.841   4.127 -0.3666 -0.2928 -1.0045
  886MOL0     O22133   7.342   0.742   4.066 -0.0640 -0.5458  0.1226
  886MOL0     C22134   7.417   0.681   3.967 -0.2745  0.4117 -0.5255
  886MOL0     C22135   7.484   0.564   3.999  0.1497  0.0220  0.6626
  886MOL0     C22136   7.559   0.479   3.909  0.3785 -1.2359  0.4325
  886MOL0     C22137   7.556   0.524   3.777 -0.2020  0.0666 -0.6832
  886MOL0     O22138   7.624   0.438   3.693  0.2117  0.5002 -0.0102
  886MOL0     C22139   7.684   0.479   3.575 -0.4349 -0.8101  0.1353
  886MOL0     C22140   7.785   0.373   3.521 -0.4524 -0.2134  0.9492
  886MOL0     C22141   7.902   0.332   3.622  0.4850  0.2992  0.0818
  886MOL0     C22142   8.011   0.245   3.561  0.4159  0.0998 -0.4052
  886MOL0     C22143   8.098   0.193   3.669 -0.4127 -0.0593  0.5755
  886MOL0     C22144   8.234   0.162   3.622 -0.2409  0.4751  0.5077
  886MOL0     C22145   8.322   0.104   3.736 -0.1496  1.1251  0.0437
  886MOL0     C22146   8.464   0.078   3.697  0.0675 -0.6591  0.7105
  886MOL0     N22147   8.475  -0.052   3.639 -0.7770  0.1912  0.2724
  886MOL0     C22148   8.598  -0.119   3.637 -0.1402 -0.4171  0.3127
  886MOL0     C22149   8.589  -0.231   3.568 -0.4083  0.5602  0.8411
  886MOL0     C22150   8.696  -0.342   3.562 -0.2497  0.1848 -0.7021
  886MOL0     C22151   8.728  -0.379   3.415 -0.7781  0.3311 -0.3708
  886MOL0     C22152   8.829  -0.499   3.417  0.0056 -0.1809  1.1004
  886MOL0     C22153   8.882  -0.529   3.272  0.1715 -0.2267 -0.1860
  886MOL0     O22154   8.974  -0.628   3.300  0.6215  0.5431 -0.1636
  886MOL0     C22155   9.084  -0.633   3.228  0.0369  0.4384  0.3168
  886MOL0     C22156   9.108  -0.586   3.098  0.9021  0.0934  0.2121
  886MOL0     C22157   9.220  -0.624   3.023  0.3209  0.3160  0.6917
  886MOL0     C22158   9.227  -0.569   2.882 -0.3643 -0.0968 -0.5166
  886MOL0     C22159   9.322  -0.696   3.089 -0.1738  0.6352 -0.2912
  886MOL0     C22160   9.452  -0.720   3.021 -0.0929  0.4337  0.8749
  886MOL0     O22161   9.469  -0.731   2.885 -0.8689  0.0655  0.3237
  886MOL0     C22162   9.601  -0.737   2.836  1.2510 -0.5980  0.9132
  886MOL0     C22163   9.625  -0.665   2.712 -0.1898 -0.2585 -0.0575
  886MOL0     C22164   9.744  -0.661   2.648 -0.6923 -0.1681  0.4555
  886MOL0     C22165   9.856  -0.724   2.715 -0.0296 -0.1014 -0.6377
  886MOL0     O22166   9.982  -0.714   2.666  0.5373 -0.6892  0.1127
  886MOL0     C22167  10.077  -0.631   2.746  1.1277 -0.1884 -1.6741
  886MOL0     C22168  10.207  -0.637   2.671  0.4534 -0.8390 -0.0007
  886MOL0     C22169  10.311  -0.548   2.732 -0.1628  0.0131  0.6685
  886MOL0     C22170  10.381  -0.625   2.849  0.6557 -0.0423  0.0142
  886MOL0     C22171  10.512  -0.550   2.886  0.3808 -0.4022 -0.0991
  886MOL0     C22172  10.618  -0.623   2.972 -0.2582  0.1654  0.2821
  886MOL0     C22173  10.752  -0.538   2.969 -0.0326 -0.7475 -0.1389
  886MOL0     C22174  10.850  -0.598   3.063  0.3260 -0.6644  0.1122
  886MOL0    Cl22175  10.911  -0.733   2.979  0.2278  0.1510  0.3517
  886MOL0     C22176   9.841  -0.776   2.848  0.1741  0.3806 -0.4680
  886MOL0     C22177   9.708  -0.795   2.898 -0.3379 -0.6954 -0.0206
  886MOL0     O22178   9.544  -0.719   3.108 -1.0685 -0.5001 -0.3508
  886MOL0     C22179   9.299  -0.743   3.218 -0.0110  0.1978  0.0268
  886MOL0     C22180   9.177  -0.714   3.288  0.4977  0.5566  0.4330
  886MOL0     N22181   8.461  -0.241   3.521  1.0840 -0.3826  0.3155
  886MOL0     N22182   8.391  -0.135   3.561  0.2871  0.1678  0.0802
  886MOL0     C22183   7.470   0.630   3.730 -0.7554 -1.0757 -0.6720
  886MOL0     C22184   7.412   0.708   3.835  0.5832 -0.2429  0.3348
  886MOL0     C22185   7.311   0.920   4.213 -0.2513 -0.1782 -0.2554
  886MOL0     C22186   7.188   0.956   4.163  1.1906 -0.0512  0.9031
  886MOL0     C22187   7.113   1.048   4.237 -0.3612 -0.8071  1.2208
  886MOL0     C22188   7.154   1.085   4.361  0.0978  0.2946 -0.0478
  886MOL0     O22189   7.078   1.153   4.452 -0.3261  0.0909  1.1153
  886MOL0     C22190   6.936   1.175   4.439  0.0147 -0.5396  0.1112
  886MOL0     C22191   6.885   1.246   4.570 -0.0582  0.1721  0.1678
  886MOL0     C22192   6.931   1.390   4.587 -0.1434  1.1680 -0.1603
  886MOL0     C22193   6.884   1.463   4.710 -0.7839 -0.0708  0.1396
  886MOL0     C22194   6.751   1.415   4.764  0.7604  0.9788 -0.5206
  886MOL0     C22195   6.648   1.374   4.812 -0.9321  0.1396  1.1759
  886MOL0     C22196   7.278   1.056   4.411  1.1422  0.9491  0.0486
  886MOL0     C22197   7.357   0.972   4.335  0.1739 -0.0347  0.0891
  886MOL0     C22198   7.492   0.952   4.396  0.8116  0.7114  0.4744
  886MOL0     H22199   7.493   0.549   4.106 -4.3376 -0.0629  1.2243
  886MOL0     H22200   7.608   0.390   3.946 -0.7781 -1.6593  1.0154
  886MOL0     H22201   7.742   0.566   3.606  1.2345 -0.2587 -3.8730
  886MOL0     H22202   7.615   0.511   3.496  0.2298  2.3938  0.7236
  886MOL0     H22203   7.736   0.284   3.480 -3.4348  1.3356  0.9181
  886MOL0     H22204   7.837   0.422   3.439 -1.9304 -1.3827 -0.7824
  886MOL0     H22205   7.957   0.420   3.656  0.2368  1.4776 -2.3017
  886MOL0     H22206   7.844   0.269   3.690  0.8753 -0.7574 -0.5429
  886MOL0     H22207   7.968   0.162   3.503 -0.4736 -1.0302  1.7730
  886MOL0     H22208   8.073   0.303   3.491  0.2269  3.9013  2.2970
  886MOL0     H22209   8.053   0.101   3.708  2.2284 -1.6643  0.0860
  886MOL0     H22210   8.102   0.273   3.742 -0.3590  0.2712  0.2148
  886MOL0     H22211   8.232   0.091   3.539 -1.0180 -0.6252  1.4497
  886MOL0     H22212   8.283   0.252   3.582  1.8417 -1.6344 -2.0489
  886MOL0     H22213   8.282   0.007   3.770 -0.6323  1.0954 -0.5913
  886MOL0     H22214   8.320   0.172   3.821  0.0937 -1.4041  2.2237
  886MOL0     H22215   8.502   0.163   3.640 -0.0527 -1.2053 -0.1984
  886MOL0     H22216   8.522   0.090   3.789 -2.7507  0.5417  2.5009
  886MOL0     H22217   8.688  -0.107   3.697 -0.6122  2.3005  0.5723
  886MOL0     H22218   8.667  -0.430   3.621 -1.0629  0.6329 -0.4068
  886MOL0     H22219   8.794  -0.310   3.600 -1.1373  0.5181  1.4881
  886MOL0     H22220   8.641  -0.422   3.366  0.2145 -0.8435 -1.1702
  886MOL0     H22221   8.759  -0.288   3.364  1.2120  0.2200  0.5469
  886MOL0     H22222   8.910  -0.464   3.480  0.4331 -1.4604  1.2945
  886MOL0     H22223   8.775  -0.586   3.457  1.7408 -2.0499 -0.3902
  886MOL0     H22224   8.809  -0.569   3.202 -1.1234 -0.4974  1.2783
  886MOL0     H22225   8.922  -0.442   3.218  0.9595 -1.6874 -2.0714
  886MOL0     H22226   9.031  -0.531   3.045  0.3065 -0.2240  0.7378
  886MOL0     H22227   9.313  -0.502   2.871 -0.7121  0.3200 -0.7399
  886MOL0     H22228   9.137  -0.512   2.858  0.2176  1.0430 -0.1048
  886MOL0     H22229   9.235  -0.652   2.812  1.8298 -0.5267  0.1586
  886MOL0     H22230   9.538  -0.621   2.664 -0.4946 -1.2879 -0.4685
  886MOL0     H22231   9.752  -0.614   2.551 -0.0173 -0.4437  0.3703
  886MOL0     H22232  10.049  -0.526   2.756 -0.7780 -0.8503  1.9895
  886MOL0     H22233  10.091  -0.671   2.847  2.5654  3.5923 -0.2256
  886MOL0     H22234  10.239  -0.742   2.663  0.5954 -0.7178 -1.1875
  886MOL0     H22235  10.187  -0.610   2.567 -0.0870 -1.5493 -0.0907
  886MOL0     H22236  10.270  -0.453   2.767  1.8918  0.5579  1.7168
  886MOL0     H22237  10.371  -0.516   2.647 -1.5419  0.8591 -0.0243
  886MOL0     H22238  10.402  -0.729   2.822 -0.2101  0.1252 -1.4022
  886MOL0     H22239  10.312  -0.626   2.934  0.8594 -0.8788  0.1728
  886MOL0     H22240  10.564  -0.527   2.792  1.5618  2.2589  1.0892
  886MOL0     H22241  10.484  -0.452   2.926  0.7414 -0.2510 -0.2102
  886MOL0     H22242  10.634  -0.725   2.937  2.1028  0.3103  0.7609
  886MOL0     H22243  10.572  -0.624   3.071 -2.4565 -0.6165 -0.6814
  886MOL0     H22244  10.741  -0.430   2.984  4.1171  0.0919 -1.8679
  886MOL0     H22245  10.792  -0.534   2.867 -1.7939 -4.2114 -1.1126
  886MOL0     H22246  10.806  -0.625   3.160  1.2544  2.3567  1.5210
  886MOL0     H22247  10.936  -0.532   3.074  0.3913 -0.7164 -0.0964
  886MOL0     H22248   9.931  -0.817   2.893  0.2762  1.6064  0.5057
  886MOL0     H22249   9.687  -0.845   2.992 -1.6387  0.8762  0.5653
  886MOL0     H22250   9.377  -0.805   3.261  1.0335  0.7105 -1.0895
  886MOL0     H22251   9.144  -0.753   3.384 -1.1412  0.2368 -0.2248
  886MOL0     H22252   7.469   0.667   3.628  0.7143  0.2880 -0.2383
  886MOL0     H22253   7.346   0.789   3.807 -2.2857 -2.2669  0.8759
  886MOL0     H22254   7.159   0.921   4.065  0.1598  0.2686  1.0874
  886MOL0     H22255   7.023   1.087   4.191  0.0788 -2.0022 -0.7560
  886MOL0     H22256   6.919   1.239   4.352  3.3153  0.4851  0.0814
  886MOL0     H22257   6.882   1.080   4.434 -3.6244  1.3808 -0.7100
  886MOL0     H22258   6.921   1.187   4.656 -0.7873 -1.2231 -0.4523
  886MOL0     H22259   6.777   1.234   4.570  0.1006 -1.9553  1.3126
  886MOL0     H22260   7.040   1.403   4.587  0.0505  0.0586  2.2255
  886MOL0     H22261   6.885   1.442   4.502  1.0147 -1.6673 -2.7151
  886MOL0     H22262   6.890   1.569   4.687  3.4409 -0.2018 -0.2200
  886MOL0     H22263   6.962   1.452   4.786 -0.7903  0.1183  0.1740
  886MOL0     H22264   6.561   1.327   4.854  0.4835 -0.5076  3.5985
  886MOL0     H22265   7.315   1.118   4.491  0.8963  0.9108  0.1938
  886MOL0     H22266   7.481   0.899   4.492 -0.5513 -2.6144 -1.3576
  886MOL0     H22267   7.558   0.889   4.335 -0.9876 -1.1257  0.3061
  886MOL0     H22268   7.554   1.039   4.420  2.5370 -0.7950  1.7375
  887MOL0     O22269  11.062   0.018   8.161  0.0367 -1.1389  0.0426
  887MOL0     C22270  11.019  -0.045   8.253 -1.3648  0.1604 -0.5163
  887MOL0     O22271  11.095  -0.077   8.359  0.1590  0.2591 -0.1995
  887MOL0     C22272  11.208  -0.013   8.408  0.7703  1.0300  0.3590
  887MOL0     C22273  11.296  -0.095   8.475  0.1765 -0.1634 -0.7508
  887MOL0     C22274  11.410  -0.036   8.538  1.0543  0.3175 -0.3255
  887MOL0     C22275  11.434   0.101   8.521 -0.4155  0.4827  0.2962
  887MOL0     O22276  11.554   0.166   8.556  0.1363  0.8429  0.7065
  887MOL0     C22277  11.673   0.091   8.550 -0.2566 -0.1117 -0.3660
  887MOL0     C22278  11.792   0.177   8.514 -0.2145 -0.1345  0.0391
  887MOL0     C22279  11.927   0.108   8.490  0.4809 -0.1529  0.3267
  887MOL0     C22280  11.982   0.059   8.631  0.3023 -0.0350  0.0477
  887MOL0     C22281  12.117  -0.010   8.637  0.2361 -0.8378  0.5332
  887MOL0     C22282  12.233   0.079   8.592 -0.5454 -0.0498  0.1559
  887MOL0     C22283  12.357   0.013   8.638  0.3901  0.0040  0.2020
  887MOL0     C22284  12.404  -0.111   8.560 -0.4691 -0.1462 -0.2681
  887MOL0     N22285  12.419  -0.090   8.409  0.5467 -0.1967 -0.0212
  887MOL0     C22286  12.327  -0.052   8.305  0.0392 -0.0577 -0.7284
  887MOL0     C22287  12.386  -0.073   8.197 -0.1843  0.0924 -0.0675
  887MOL0     C22288  12.320  -0.062   8.065 -0.3765 -0.4298  0.2538
  887MOL0     C22289  12.301  -0.196   7.998  0.0006 -0.0284 -0.0559
  887MOL0     C22290  12.202  -0.285   8.081  0.2965 -0.6031 -0.4149
  887MOL0     C22291  12.179  -0.416   8.012  0.5096 -0.7737  0.1303
  887MOL0     O22292  12.122  -0.401   7.884 -0.4780  0.4477  0.6337
  887MOL0     C22293  12.095  -0.517   7.815 -0.2376  0.5323 -0.4797
  887MOL0     C22294  12.117  -0.656   7.856  0.1509  0.4070  0.2006
  887MOL0     C22295  12.093  -0.773   7.777  0.3116  0.0461 -0.7394
  887MOL0     C22296  12.118  -0.902   7.846  0.3498  0.5260 -0.3209
  887MOL0     C22297  12.013  -0.754   7.659 -0.5682 -0.5610 -0.3499
  887MOL0     C22298  11.965  -0.849   7.559  0.5036  0.6201 -0.0030
  887MOL0     O22299  11.876  -0.816   7.462  0.6340  0.1746  0.0750
  887MOL0     C22300  11.849  -0.924   7.385 -0.4968  0.0411  0.6766
  887MOL0     C22301  11.954  -0.962   7.291  0.7790 -0.0213 -0.7439
  887MOL0     C22302  11.924  -1.068   7.207 -0.5603  0.0277 -0.3929
  887MOL0     C22303  11.805  -1.137   7.219 -0.6310 -1.3139  0.5777
  887MOL0     O22304  11.784  -1.243   7.140  0.2609 -0.6910 -0.6873
  887MOL0     C22305  11.653  -1.246   7.068  1.0619  0.8491 -0.2337
  887MOL0     C22306  11.662  -1.338   6.947 -0.3860  0.5496 -0.9487
  887MOL0     C22307  11.524  -1.384   6.907 -0.1641  0.6181 -0.5303
  887MOL0     C22308  11.474  -1.497   7.004 -0.0124  0.4562  0.4625
  887MOL0     C22309  11.332  -1.537   6.944  0.6984 -0.5279 -0.1751
  887MOL0     C22310  11.266  -1.629   7.041 -0.0736 -0.3447 -0.4700
  887MOL0     C22311  11.134  -1.674   6.998  0.0825 -0.1091 -0.0752
  887MOL0     C22312  11.085  -1.784   7.094  0.0896  1.0367 -0.6171
  887MOL0    Cl22313  10.972  -1.716   7.203  0.0769  0.2838 -0.3455
  887MOL0     C22314  11.717  -1.115   7.321  0.3474 -0.7091 -0.3620
  887MOL0     C22315  11.736  -0.996   7.397 -0.0236  0.7028  0.0445
  887MOL0     O22316  12.009  -0.963   7.576  0.5862  0.1220 -0.2280
  887MOL0     C22317  11.983  -0.620   7.620 -0.3474 -0.1886  0.9890
  887MOL0     C22318  12.021  -0.507   7.697 -0.8083  0.8474  0.4601
  887MOL0     N22319  12.517  -0.112   8.225  0.8307  0.0304 -0.0653
  887MOL0     N22320  12.537  -0.107   8.352 -0.3992  0.2496 -0.1952
  887MOL0     C22321  11.347   0.176   8.444  0.0773  0.4714 -1.3420
  887MOL0     C22322  11.231   0.121   8.386 -0.2525  0.2539  1.1847
  887MOL0     C22323  10.884  -0.102   8.247 -0.6470  0.0428  0.9465
  887MOL0     C22324  10.812  -0.078   8.130 -0.3601  0.5863 -0.2126
  887MOL0     C22325  10.693  -0.142   8.102  0.4961 -1.2196 -0.2912
  887MOL0     C22326  10.632  -0.218   8.207  0.8426  0.1534 -0.0525
  887MOL0     O22327  10.502  -0.259   8.183 -0.2223  0.2962 -0.3926
  887MOL0     C22328  10.421  -0.321   8.278 -0.6544 -0.3200  0.8075
  887MOL0     C22329  10.285  -0.342   8.215  0.3136 -0.0802  1.0650
  887MOL0     C22330  10.191  -0.414   8.320 -0.3519 -0.1349 -0.2093
  887MOL0     C22331  10.074  -0.496   8.266  0.3176 -0.4194  0.6648
  887MOL0     C22332   9.967  -0.411   8.207  0.0080  0.0262 -0.2730
  887MOL0     C22333   9.893  -0.336   8.142  0.2818  0.8084  0.4233
  887MOL0     C22334  10.697  -0.236   8.327 -0.1740  0.3948  0.0511
  887MOL0     C22335  10.831  -0.191   8.341  1.0905 -0.3419  0.3686
  887MOL0     C22336  10.898  -0.230   8.465  0.6234  0.4598 -0.6683
  887MOL0     H22337  11.283  -0.203   8.472 -1.3872  0.0186 -2.2189
  887MOL0     H22338  11.483  -0.097   8.591  2.3075  0.5318 -1.7631
  887MOL0     H22339  11.660   0.008   8.480  1.4866 -0.0914 -0.7568
  887MOL0     H22340  11.700   0.043   8.645 -2.5177 -2.0416 -0.5765
  887MOL0     H22341  11.771   0.220   8.416 -0.5657  0.4608  0.3685
  887MOL0     H22342  11.811   0.261   8.582  0.3877  0.8615 -1.3016
  887MOL0     H22343  11.905   0.043   8.405 -0.7602  1.2375 -0.4663
  887MOL0     H22344  11.995   0.185   8.452  1.7272  0.0832  2.8159
  887MOL0     H22345  11.983   0.142   8.702 -1.9411 -1.3914  1.7848
  887MOL0     H22346  11.918  -0.018   8.676  2.0486 -3.1527 -2.3409
  887MOL0     H22347  12.112  -0.102   8.578 -2.3191 -1.8545  2.1406
  887MOL0     H22348  12.130  -0.044   8.740 -2.2451 -2.5036  0.4085
  887MOL0     H22349  12.232   0.101   8.485  0.6295  1.5150  0.4203
  887MOL0     H22350  12.234   0.177   8.641 -0.1877  0.5402 -1.0037
  887MOL0     H22351  12.349  -0.015   8.743 -0.6388 -0.5375 -0.0144
  887MOL0     H22352  12.435   0.090   8.634 -0.7443  1.1548 -0.1234
  887MOL0     H22353  12.502  -0.135   8.602  0.2514  2.7530 -0.1270
  887MOL0     H22354  12.333  -0.191   8.584  0.3656 -0.4519  1.2877
  887MOL0     H22355  12.226  -0.013   8.317  0.6105  1.1283  0.4091
  887MOL0     H22356  12.390  -0.010   7.998 -0.2810 -0.2321  0.5065
  887MOL0     H22357  12.231   0.001   8.069  0.1185  0.2945  0.2003
  887MOL0     H22358  12.265  -0.173   7.897 -3.0380 -0.6716  0.7692
  887MOL0     H22359  12.393  -0.254   7.987 -0.5279 -0.6239 -1.5490
  887MOL0     H22360  12.234  -0.304   8.184  1.3236 -1.4647 -0.8694
  887MOL0     H22361  12.104  -0.240   8.097  0.8720 -0.1577  2.3543
  887MOL0     H22362  12.280  -0.454   7.997  0.7277  0.8070 -3.4452
  887MOL0     H22363  12.133  -0.491   8.076  0.8374 -0.9090  0.2123
  887MOL0     H22364  12.143  -0.678   7.959  2.2978 -2.6865 -0.8653
  887MOL0     H22365  12.170  -0.897   7.943 -1.3460  1.3901  0.5937
  887MOL0     H22366  12.177  -0.965   7.779  1.3777  0.8522  0.2571
  887MOL0     H22367  12.016  -0.941   7.852  0.9149 -1.7272 -3.2061
  887MOL0     H22368  12.048  -0.908   7.278  1.3729 -0.8397  0.0310
  887MOL0     H22369  11.994  -1.097   7.129 -1.1108 -0.8394 -0.5689
  887MOL0     H22370  11.572  -1.277   7.135 -0.8790 -0.4270 -3.0016
  887MOL0     H22371  11.622  -1.144   7.042 -1.7700  0.3255  0.7627
  887MOL0     H22372  11.715  -1.283   6.870  0.7415  1.1842  0.2451
  887MOL0     H22373  11.727  -1.421   6.976  0.4365  1.8471  1.1358
  887MOL0     H22374  11.523  -1.415   6.802 -4.4001 -0.0342 -0.4660
  887MOL0     H22375  11.457  -1.298   6.908 -1.8066 -0.5990 -0.8882
  887MOL0     H22376  11.464  -1.454   7.104  2.9397 -0.8321  1.4346
  887MOL0     H22377  11.550  -1.576   7.001  1.3761  1.6515  2.2608
  887MOL0     H22378  11.276  -1.443   6.951  2.8849  0.8629 -0.3813
  887MOL0     H22379  11.330  -1.573   6.841  1.9245 -2.3636  0.3916
  887MOL0     H22380  11.250  -1.584   7.139  0.3100 -0.1429 -0.4967
  887MOL0     H22381  11.342  -1.708   7.045 -0.7584 -1.2569 -3.1703
  887MOL0     H22382  11.141  -1.711   6.895  0.6655 -2.8759  0.8760
  887MOL0     H22383  11.065  -1.589   6.989 -1.8678 -1.7498 -1.6368
  887MOL0     H22384  11.172  -1.829   7.144  1.1892  0.6465 -2.7692
  887MOL0     H22385  11.033  -1.864   7.041 -0.7348  0.1955  1.3408
  887MOL0     H22386  11.633  -1.180   7.343 -0.8071  1.0427  0.7634
  887MOL0     H22387  11.660  -0.956   7.463  1.4452  3.6049  0.1401
  887MOL0     H22388  11.920  -0.595   7.536  0.5332 -0.3645  0.2608
  887MOL0     H22389  11.990  -0.408   7.666  3.7313  1.7534 -1.9502
  887MOL0     H22390  11.389   0.276   8.437 -1.2005  0.9802 -1.8979
  887MOL0     H22391  11.159   0.173   8.324 -1.3527 -2.2968  0.1873
  887MOL0     H22392  10.848  -0.027   8.042 -0.3893 -2.0631 -1.8872
  887MOL0     H22393  10.641  -0.124   8.009 -0.3407  0.8979  0.5240
  887MOL0     H22394  10.463  -0.417   8.309  1.0760  0.1464  0.0327
  887MOL0     H22395  10.417  -0.256   8.366  2.3288  2.8679 -1.1665
  887MOL0     H22396  10.304  -0.405   8.127 -2.5912  1.6828 -1.0065
  887MOL0     H22397  10.232  -0.250   8.188 -0.4784 -0.9048 -0.2740
  887MOL0     H22398  10.256  -0.481   8.377 -0.9791 -0.3779  0.2289
  887MOL0     H22399  10.153  -0.336   8.388 -0.6653 -1.2458  0.9205
  887MOL0     H22400  10.021  -0.560   8.338 -1.4713  0.6213  0.3235
  887MOL0     H22401  10.112  -0.568   8.193  1.6487  0.4460  0.4790
  887MOL0     H22402   9.840  -0.273   8.074  3.1821  1.8771 -1.0312
  887MOL0     H22403  10.643  -0.296   8.399 -2.1259  0.7126 -1.0728
  887MOL0     H22404  10.907  -0.144   8.531 -0.8460 -0.3370  0.6225
  887MOL0     H22405  10.839  -0.303   8.521 -0.3015  1.8666  0.2591
  887MOL0     H22406  10.992  -0.282   8.443  0.4384 -0.3950  0.4731
  888MOL0     O22407   7.436   3.511   2.080 -0.0875  0.4387  0.0044
  888MOL0     C22408   7.427   3.410   2.017 -0.0471  0.2113 -0.1808
  888MOL0     O22409   7.527   3.332   1.974  0.4914 -0.4276  1.6055
  888MOL0     C22410   7.655   3.380   2.012  0.1445 -0.2867 -0.4468
  888MOL0     C22411   7.723   3.467   1.925  0.7849  0.3583 -0.4448
  888MOL0     C22412   7.840   3.545   1.957  0.4929  0.5562 -0.3865
  888MOL0     C22413   7.888   3.532   2.083  0.3819  0.5841 -0.3777
  888MOL0     O22414   7.999   3.594   2.123  0.1132 -0.6558  0.1110
  888MOL0     C22415   7.985   3.684   2.239 -0.2593 -0.1078  0.6158
  888MOL0     C22416   8.116   3.702   2.313  0.8092 -0.6374  1.0416
  888MOL0     C22417   8.115   3.837   2.385 -0.6286  0.5111  0.3727
  888MOL0     C22418   8.262   3.878   2.430 -0.1901 -0.3972 -0.3604
  888MOL0     C22419   8.307   3.772   2.540  0.2842 -0.5821  0.1207
  888MOL0     C22420   8.420   3.828   2.623 -0.4273 -0.3790 -0.4485
  888MOL0     C22421   8.484   3.728   2.721  0.1724  0.3837  0.3767
  888MOL0     C22422   8.616   3.774   2.780  0.7174  0.2906 -0.3396
  888MOL0     N22423   8.733   3.767   2.696  0.0588 -0.0415  0.0098
  888MOL0     C22424   8.839   3.859   2.711 -0.4953  0.3633  0.7825
  888MOL0     C22425   8.943   3.796   2.656 -0.3642  0.3499 -0.1606
  888MOL0     C22426   9.089   3.837   2.631  0.3585  0.6550  0.3155
  888MOL0     C22427   9.172   3.843   2.760 -0.0315 -0.7014 -0.1258
  888MOL0     C22428   9.322   3.902   2.742  0.6251  0.5946 -0.3637
  888MOL0     C22429   9.392   3.880   2.884 -0.0492 -0.8778 -0.7327
  888MOL0     O22430   9.393   3.738   2.917  0.2263 -0.5611  0.3542
  888MOL0     C22431   9.488   3.659   2.857 -0.0701 -0.1583  0.2653
  888MOL0     C22432   9.500   3.529   2.900  0.0647  0.3201  0.1818
  888MOL0     C22433   9.600   3.441   2.860 -0.0804  0.6366 -0.4547
  888MOL0     C22434   9.600   3.302   2.930 -0.9922  1.7387  0.3308
  888MOL0     C22435   9.697   3.477   2.765 -1.4651 -0.5262  0.6576
  888MOL0     C22436   9.804   3.387   2.706  0.2912 -0.4987  0.1220
  888MOL0     O22437   9.864   3.422   2.588  0.5513  0.0117 -0.0234
  888MOL0     C22438   9.972   3.354   2.532  0.3428 -0.2321  0.3768
  888MOL0     C22439  10.086   3.339   2.614 -0.4028  0.1308 -0.1506
  888MOL0     C22440  10.183   3.251   2.563 -0.5442  0.6878 -0.4302
  888MOL0     C22441  10.178   3.194   2.433 -0.6272 -0.0398 -0.1407
  888MOL0     O22442  10.280   3.110   2.381 -0.0194 -0.0453 -0.6435
  888MOL0     C22443  10.234   2.988   2.318  0.1398 -0.0313 -0.0528
  888MOL0     C22444  10.348   2.902   2.252 -1.0365 -0.1056 -0.4128
  888MOL0     C22445  10.410   2.970   2.135 -0.4313  0.6437  0.0380
  888MOL0     C22446  10.507   2.867   2.066 -0.8305 -1.1480  0.2081
  888MOL0     C22447  10.590   2.947   1.957 -0.1119  0.5688 -0.7287
  888MOL0     C22448  10.691   2.864   1.880  0.1091 -0.3883 -0.5244
  888MOL0     C22449  10.615   2.753   1.808  0.7882  0.0451  0.0275
  888MOL0     C22450  10.699   2.687   1.701 -0.1816  0.7376 -0.0807
  888MOL0    Cl22451  10.768   2.808   1.606 -0.5721  0.3225  0.0611
  888MOL0     C22452  10.070   3.223   2.354  0.4957  1.1350 -0.8841
  888MOL0     C22453   9.966   3.306   2.403 -0.4564  0.3303 -0.2897
  888MOL0     O22454   9.845   3.299   2.782 -0.0829 -0.4706  0.2965
  888MOL0     C22455   9.677   3.601   2.698 -0.7477 -0.1674  0.5113
  888MOL0     C22456   9.585   3.696   2.750 -0.2577 -0.5814  0.3845
  888MOL0     N22457   8.898   3.675   2.614 -0.0252  0.0192  0.1446
  888MOL0     N22458   8.784   3.654   2.653 -0.5733 -0.4634  0.3165
  888MOL0     C22459   7.829   3.437   2.176  0.3695 -0.1624  0.5742
  888MOL0     C22460   7.717   3.359   2.138  0.6699 -0.8447 -0.1156
  888MOL0     C22461   7.294   3.343   1.994  0.6085  0.9659  0.3988
  888MOL0     C22462   7.296   3.229   1.911 -0.2927 -0.3346 -0.1812
  888MOL0     C22463   7.184   3.156   1.882  0.1116  0.3822 -0.1501
  888MOL0     C22464   7.065   3.188   1.943 -0.2214  0.6319 -0.1806
  888MOL0     O22465   6.962   3.104   1.909  0.2910 -0.3921  0.0633
  888MOL0     C22466   6.826   3.156   1.910  0.0728 -0.3426 -0.4808
  888MOL0     C22467   6.787   3.250   1.787  0.4636  0.7215 -0.0046
  888MOL0     C22468   6.638   3.243   1.746  0.4030 -0.4951  0.4945
  888MOL0     C22469   6.542   3.313   1.837  0.2510 -0.2620 -0.2994
  888MOL0     C22470   6.410   3.303   1.792  0.7826 -0.0271  0.8420
  888MOL0     C22471   6.299   3.282   1.757  0.0968 -0.5198 -0.2479
  888MOL0     C22472   7.054   3.308   2.021  0.2096  0.7680 -0.5439
  888MOL0     C22473   7.165   3.378   2.058 -0.1847 -0.8883  0.2200
  888MOL0     C22474   7.159   3.511   2.136 -0.6252  0.5956  0.2035
  888MOL0     H22475   7.665   3.489   1.836 -2.0610 -0.4762  1.0954
  888MOL0     H22476   7.881   3.621   1.890 -0.2440  1.2888 -0.0257
  888MOL0     H22477   7.905   3.646   2.302 -0.5271 -0.3125  0.1622
  888MOL0     H22478   7.956   3.782   2.201  3.6786  1.0070 -0.0272
  888MOL0     H22479   8.140   3.613   2.372 -1.5167 -1.0805  1.4254
  888MOL0     H22480   8.195   3.709   2.237 -1.5606 -1.4358 -1.6611
  888MOL0     H22481   8.073   3.912   2.317  2.3408 -0.2634 -2.5941
  888MOL0     H22482   8.056   3.838   2.477 -0.1568  4.4526  0.7981
  888MOL0     H22483   8.317   3.883   2.336 -0.1106 -0.0672 -0.2968
  888MOL0     H22484   8.267   3.974   2.481  1.0931 -1.0950  0.9390
  888MOL0     H22485   8.337   3.683   2.485 -2.0463 -1.9891  0.9838
  888MOL0     H22486   8.221   3.747   2.603 -1.9560  1.3877 -1.9407
  888MOL0     H22487   8.499   3.863   2.555  2.1173  0.6669  2.7844
  888MOL0     H22488   8.388   3.914   2.682  4.3387  1.5462 -0.1881
  888MOL0     H22489   8.503   3.635   2.667 -3.2549  0.0398 -0.5135
  888MOL0     H22490   8.405   3.705   2.793 -3.0153 -0.6085 -3.0643
  888MOL0     H22491   8.597   3.874   2.821 -1.6000 -0.9471  1.8663
  888MOL0     H22492   8.640   3.706   2.862  0.8289 -2.2077 -2.3077
  888MOL0     H22493   8.834   3.956   2.761 -1.9693 -0.8034  3.0828
  888MOL0     H22494   9.070   3.936   2.587 -2.0712 -0.4981 -1.4792
  888MOL0     H22495   9.144   3.771   2.563 -1.4155 -1.2938  0.6905
  888MOL0     H22496   9.135   3.912   2.837  0.0598  1.1307 -1.6479
  888MOL0     H22497   9.174   3.740   2.797  1.8554  0.3702  3.2824
  888MOL0     H22498   9.371   3.849   2.660 -0.7283  1.2276 -1.6246
  888MOL0     H22499   9.321   4.008   2.715  2.1646  0.7114 -0.0215
  888MOL0     H22500   9.489   3.929   2.878 -0.7991  1.0870  1.5221
  888MOL0     H22501   9.333   3.926   2.964 -1.3726  1.2781 -2.8312
  888MOL0     H22502   9.432   3.505   2.981  1.7450  1.1912  1.9467
  888MOL0     H22503   9.612   3.227   2.851  0.7443  0.4618  1.7236
  888MOL0     H22504   9.504   3.289   2.981 -1.0241  2.5549  0.5052
  888MOL0     H22505   9.674   3.291   3.009 -1.0402 -0.6850  0.1075
  888MOL0     H22506  10.101   3.397   2.705  1.8220  1.6515 -1.3971
  888MOL0     H22507  10.272   3.240   2.623  0.1154 -0.6228 -1.5693
  888MOL0     H22508  10.194   2.933   2.404  3.3223 -1.5485  0.6013
  888MOL0     H22509  10.169   3.013   2.234  0.9104 -1.0914 -0.9902
  888MOL0     H22510  10.419   2.885   2.333 -0.3185  0.5550 -0.9008
  888MOL0     H22511  10.304   2.803   2.238 -4.4503  0.5876  3.3405
  888MOL0     H22512  10.464   3.064   2.155 -0.5792  1.4658 -2.9105
  888MOL0     H22513  10.338   2.999   2.058  0.5092 -0.3902 -1.2850
  888MOL0     H22514  10.448   2.784   2.027 -1.1876 -1.3335  1.1204
  888MOL0     H22515  10.580   2.830   2.138  0.4905  0.0384 -0.4795
  888MOL0     H22516  10.518   3.002   1.895  1.3706  1.9066 -1.3353
  888MOL0     H22517  10.631   3.026   2.021 -1.8595 -0.0243  1.2287
  888MOL0     H22518  10.766   2.824   1.949 -0.3936  1.6658  1.3264
  888MOL0     H22519  10.740   2.935   1.813  0.1682 -0.3568 -0.4488
  888MOL0     H22520  10.531   2.799   1.754  0.4254 -2.0530 -1.3172
  888MOL0     H22521  10.585   2.677   1.880 -0.2823  0.0798 -0.3629
  888MOL0     H22522  10.634   2.635   1.630  0.6777 -0.9861  0.3542
  888MOL0     H22523  10.768   2.615   1.744  0.7558  0.7342 -1.5195
  888MOL0     H22524  10.045   3.179   2.258 -0.9130  1.3208 -0.6220
  888MOL0     H22525   9.888   3.333   2.332 -0.4233  0.8050 -0.1506
  888MOL0     H22526   9.740   3.632   2.616 -2.0152 -1.0920 -0.8600
  888MOL0     H22527   9.593   3.794   2.705  1.9153  0.2862  2.4707
  888MOL0     H22528   7.881   3.416   2.270 -1.5051  2.1870  2.2584
  888MOL0     H22529   7.669   3.286   2.202 -2.3233 -1.2073 -2.5626
  888MOL0     H22530   7.384   3.182   1.866 -0.3582 -1.4935  0.8399
  888MOL0     H22531   7.191   3.071   1.815  2.3139  1.5166 -1.5014
  888MOL0     H22532   6.761   3.068   1.902  0.5985 -0.6367 -1.7084
  888MOL0     H22533   6.802   3.198   2.008  2.4751 -1.4751  0.6536
  888MOL0     H22534   6.841   3.205   1.703  2.4570 -0.8542  1.9789
  888MOL0     H22535   6.809   3.356   1.802 -2.3823  1.4113 -0.1122
  888MOL0     H22536   6.633   3.287   1.646  0.0345 -0.0144  0.7218
  888MOL0     H22537   6.608   3.138   1.735  2.0488 -1.2635  2.7634
  888MOL0     H22538   6.570   3.417   1.853 -0.4479 -0.1725  0.3789
  888MOL0     H22539   6.542   3.272   1.939  1.2476 -0.1054 -0.2253
  888MOL0     H22540   6.201   3.257   1.721  0.0546  0.6971 -1.0117
  888MOL0     H22541   6.958   3.322   2.070  1.7472  0.7691  2.7395
  888MOL0     H22542   7.055   3.522   2.170 -0.9206  0.9381 -0.7552
  888MOL0     H22543   7.230   3.515   2.219  1.2086  1.0132 -1.3031
  888MOL0     H22544   7.173   3.595   2.067 -2.4948  1.7992  1.1664
  889MOL0     O22545   7.294   2.427   8.062 -0.1804 -0.1085 -0.0403
  889MOL0     C22546   7.248   2.408   7.947  0.0879 -0.5975  0.0115
  889MOL0     O22547   7.159   2.303   7.904 -0.2414  0.1960 -1.0041
  889MOL0     C22548   7.144   2.196   7.994 -0.0003 -0.3264  0.2860
  889MOL0     C22549   7.047   2.202   8.096  0.3926 -0.3617  0.1296
  889MOL0     C22550   7.056   2.106   8.201  0.5791 -0.4512  0.6502
  889MOL0     C22551   7.153   2.005   8.197  0.1964 -0.1297 -0.0230
  889MOL0     O22552   7.154   1.912   8.297 -0.1193 -0.8977  0.6313
  889MOL0     C22553   7.234   1.798   8.271  0.1533  0.1063 -0.1187
  889MOL0     C22554   7.220   1.688   8.367 -0.8396 -0.1185 -0.3866
  889MOL0     C22555   7.255   1.739   8.514 -0.2473  0.2096 -0.3939
  889MOL0     C22556   7.256   1.622   8.613  0.2976  0.4189  0.3224
  889MOL0     C22557   7.118   1.578   8.661  0.0598  0.0324  0.9696
  889MOL0     C22558   7.053   1.666   8.764  1.1994 -1.2704 -0.3259
  889MOL0     C22559   7.129   1.673   8.893 -0.0072 -0.3637 -0.6725
  889MOL0     C22560   7.057   1.774   8.994  0.5160 -0.7990  0.1481
  889MOL0     N22561   6.917   1.733   9.010 -0.3709  0.5554 -0.1734
  889MOL0     C22562   6.883   1.598   9.035  0.0060 -0.7689 -0.1147
  889MOL0     C22563   6.741   1.607   9.048  0.1153 -1.0838 -1.1288
  889MOL0     C22564   6.637   1.512   9.098  0.2012 -0.4244  0.5010
  889MOL0     C22565   6.634   1.528   9.249 -0.2555  1.0464 -0.7066
  889MOL0     C22566   6.531   1.430   9.314  0.7633 -0.2571 -0.8144
  889MOL0     C22567   6.579   1.382   9.452 -0.3387 -0.0851  0.1372
  889MOL0     O22568   6.617   1.496   9.527  0.2676  0.4975  0.1442
  889MOL0     C22569   6.716   1.478   9.619 -1.1720 -0.5442 -0.3152
  889MOL0     C22570   6.688   1.486   9.755  0.2524 -0.1613  0.2634
  889MOL0     C22571   6.793   1.469   9.843 -1.2470 -1.1049 -0.0824
  889MOL0     C22572   6.759   1.505   9.986  0.4095 -0.5084 -0.3516
  889MOL0     C22573   6.928   1.444   9.807 -0.9460  0.4821  0.3135
  889MOL0     C22574   7.052   1.455   9.892  0.1684  0.4521 -0.0770
  889MOL0     O22575   7.178   1.445   9.825 -0.3876 -0.0220 -0.5645
  889MOL0     C22576   7.301   1.467   9.887  0.1783 -0.6095 -0.1505
  889MOL0     C22577   7.339   1.463  10.023  0.4931 -0.5058  0.7361
  889MOL0     C22578   7.468   1.473  10.063  0.5107 -0.6285 -0.3191
  889MOL0     C22579   7.571   1.518   9.983  1.3573  0.0976  0.1631
  889MOL0     O22580   7.695   1.533  10.033 -0.2492 -0.4689  0.2168
  889MOL0     C22581   7.812   1.510   9.945 -0.5643  0.1970  0.2217
  889MOL0     C22582   7.829   1.370   9.882 -0.5555 -0.4617 -0.2170
  889MOL0     C22583   7.960   1.299   9.908  0.5402  0.0045  0.9393
  889MOL0     C22584   8.096   1.367   9.864  1.3827 -0.5660  0.2181
  889MOL0     C22585   8.225   1.290   9.894 -0.2573  0.0530  0.1690
  889MOL0     C22586   8.359   1.366   9.900 -0.4233 -0.6782 -0.6844
  889MOL0     C22587   8.362   1.455  10.029  0.1583 -0.1840 -0.2692
  889MOL0     C22588   8.511   1.483  10.064  0.9196 -0.5891  0.4569
  889MOL0    Cl22589   8.575   1.630   9.990 -0.4004 -0.0722 -0.2264
  889MOL0     C22590   7.546   1.520   9.846  0.6921 -0.9139  0.0167
  889MOL0     C22591   7.407   1.503   9.796  0.5694  0.5944 -0.3213
  889MOL0     O22592   7.038   1.473  10.010  0.2685 -0.3141 -0.6869
  889MOL0     C22593   6.938   1.414   9.669  0.2946 -0.4318  0.1743
  889MOL0     C22594   6.842   1.445   9.576 -0.0540 -0.3637 -0.3923
  889MOL0     N22595   6.702   1.745   9.034 -0.6180  0.6190  0.5577
  889MOL0     N22596   6.813   1.819   9.016 -0.1191 -0.2589  0.4847
  889MOL0     C22597   7.245   2.003   8.087  1.1773  0.7003  0.7669
  889MOL0     C22598   7.235   2.101   7.989  0.0828  0.2072  0.0492
  889MOL0     C22599   7.279   2.502   7.837  0.4440 -0.9955  0.3488
  889MOL0     C22600   7.193   2.508   7.729  0.1388 -0.1564  0.7239
  889MOL0     C22601   7.214   2.602   7.623 -0.2052 -0.3899  0.1176
  889MOL0     C22602   7.337   2.670   7.612  0.3527 -0.7973  1.4891
  889MOL0     O22603   7.354   2.750   7.497 -0.7099 -0.1641  0.0081
  889MOL0     C22604   7.466   2.847   7.491  0.4461 -0.4194 -0.6353
  889MOL0     C22605   7.452   2.951   7.594  0.7235 -0.4488 -0.5695
  889MOL0     C22606   7.423   3.086   7.536  0.3562  0.4103 -0.1418
  889MOL0     C22607   7.427   3.196   7.638  0.4321 -0.0043  0.0722
  889MOL0     C22608   7.308   3.200   7.729  0.4012  0.0412  0.0445
  889MOL0     C22609   7.221   3.202   7.817  0.7940 -0.8877 -0.4036
  889MOL0     C22610   7.422   2.663   7.719 -0.5998 -0.4430 -0.4999
  889MOL0     C22611   7.390   2.583   7.831  0.0039 -0.4020  1.1440
  889MOL0     C22612   7.502   2.584   7.937  0.9164  0.1036 -0.2726
  889MOL0     H22613   6.972   2.280   8.098  1.3172  0.5879 -0.8234
  889MOL0     H22614   6.977   2.099   8.275 -1.7943  3.2863 -1.1635
  889MOL0     H22615   7.338   1.830   8.267 -0.1745  1.0940 -1.7491
  889MOL0     H22616   7.198   1.748   8.180  0.8708 -2.5507  0.9785
  889MOL0     H22617   7.118   1.648   8.360 -0.9169 -0.4501  1.8861
  889MOL0     H22618   7.288   1.606   8.340  1.8819  1.2487  1.8777
  889MOL0     H22619   7.358   1.775   8.504  1.3949 -3.5489  0.9579
  889MOL0     H22620   7.198   1.826   8.547  0.2119  0.6506 -0.7479
  889MOL0     H22621   7.307   1.538   8.566  0.1995  0.6155 -0.1433
  889MOL0     H22622   7.315   1.650   8.700 -0.2867  2.6948  0.0543
  889MOL0     H22623   7.131   1.474   8.695  2.0264 -0.8080 -1.9934
  889MOL0     H22624   7.052   1.569   8.575 -0.1241  1.8177  0.8972
  889MOL0     H22625   7.034   1.765   8.723  3.8205 -0.3968  0.3627
  889MOL0     H22626   6.954   1.624   8.786 -0.4228  3.4997  3.3120
  889MOL0     H22627   7.232   1.707   8.881  0.3593 -1.3739 -0.4723
  889MOL0     H22628   7.129   1.577   8.945 -1.1302  1.1290  2.3338
  889MOL0     H22629   7.100   1.789   9.093  1.4314 -0.1310 -0.3369
  889MOL0     H22630   7.069   1.874   8.952  1.9534 -0.1635  1.9323
  889MOL0     H22631   6.941   1.510   9.064  2.5029  0.9111  0.2880
  889MOL0     H22632   6.668   1.412   9.069  2.1657  0.4196 -0.5255
  889MOL0     H22633   6.546   1.531   9.041  0.6654  0.3870  0.0035
  889MOL0     H22634   6.736   1.507   9.283 -0.5910 -0.8160 -0.7171
  889MOL0     H22635   6.600   1.629   9.271  2.4964  2.1952 -1.3726
  889MOL0     H22636   6.437   1.484   9.330 -0.3214 -2.1654 -0.3924
  889MOL0     H22637   6.487   1.344   9.262 -2.8884 -1.4421  3.5674
  889MOL0     H22638   6.499   1.333   9.507  1.4672 -1.1418  1.9699
  889MOL0     H22639   6.660   1.310   9.436 -2.2085 -1.5348 -4.0886
  889MOL0     H22640   6.586   1.513   9.779 -0.3799 -2.2395  0.1600
  889MOL0     H22641   6.787   1.432  10.063 -1.3411 -2.2997 -1.3363
  889MOL0     H22642   6.652   1.521  10.003  0.8621 -0.4449  3.1748
  889MOL0     H22643   6.783   1.611  10.002 -0.1985  0.8238 -6.0872
  889MOL0     H22644   7.260   1.440  10.093 -0.5386  0.4089 -0.0943
  889MOL0     H22645   7.481   1.464  10.170  1.7934  0.7331 -0.3256
  889MOL0     H22646   7.817   1.584   9.864  1.8325 -0.0702  0.0625
  889MOL0     H22647   7.901   1.534  10.004 -1.3912  2.6991  0.6022
  889MOL0     H22648   7.746   1.306   9.914 -0.3381  0.2042  1.8331
  889MOL0     H22649   7.823   1.381   9.773 -0.3112 -1.3238 -0.3233
  889MOL0     H22650   7.964   1.197   9.868  4.3570 -0.4503  2.0791
  889MOL0     H22651   7.963   1.285  10.017 -4.2924 -1.6183  1.1389
  889MOL0     H22652   8.104   1.456   9.927  0.7820 -1.6218  1.8703
  889MOL0     H22653   8.088   1.398   9.760 -1.5212  0.5441  0.6690
  889MOL0     H22654   8.235   1.232   9.986  1.6708 -2.6143 -1.5864
  889MOL0     H22655   8.227   1.225   9.806 -1.1765  2.1218 -1.4647
  889MOL0     H22656   8.369   1.421   9.806 -1.8178  1.5765  0.4088
  889MOL0     H22657   8.443   1.295   9.894  1.6698  1.4842  0.9946
  889MOL0     H22658   8.317   1.404  10.115 -1.3535  0.2510 -0.7608
  889MOL0     H22659   8.316   1.553  10.010  1.8350  0.3093 -2.0854
  889MOL0     H22660   8.571   1.395  10.038 -0.1183 -1.1196 -0.2213
  889MOL0     H22661   8.510   1.493  10.173  1.4600 -5.3900  1.1194
  889MOL0     H22662   7.621   1.560   9.780 -0.1232  2.7726  1.0881
  889MOL0     H22663   7.390   1.517   9.690 -0.1794 -1.3580 -0.4836
  889MOL0     H22664   7.036   1.401   9.622  0.4819  0.4119  0.3147
  889MOL0     H22665   6.854   1.427   9.470 -2.0475  0.1782 -0.7589
  889MOL0     H22666   7.322   1.927   8.077  2.9724  2.5267 -0.0469
  889MOL0     H22667   7.295   2.096   7.899 -1.8067 -0.2554 -1.2281
  889MOL0     H22668   7.096   2.460   7.730 -1.2794  2.4837 -0.1934
  889MOL0     H22669   7.134   2.618   7.552 -0.7143  2.5504  1.2125
  889MOL0     H22670   7.562   2.795   7.503  2.1387  1.9814 -2.6423
  889MOL0     H22671   7.474   2.884   7.388  2.6368  1.8206  0.2276
  889MOL0     H22672   7.544   2.960   7.654  0.6026 -0.8563 -0.3229
  889MOL0     H22673   7.370   2.931   7.663 -1.1555  2.0498 -1.9090
  889MOL0     H22674   7.504   3.110   7.466  0.2930  0.1996 -0.2872
  889MOL0     H22675   7.325   3.089   7.486  0.8660  2.6117 -1.1597
  889MOL0     H22676   7.433   3.294   7.591  0.7182  0.0672  0.2562
  889MOL0     H22677   7.516   3.171   7.696 -0.0052 -0.8594  0.4026
  889MOL0     H22678   7.148   3.212   7.894  0.7543  0.6756 -0.6016
  889MOL0     H22679   7.520   2.711   7.724 -1.4185  1.4229 -1.2680
  889MOL0     H22680   7.589   2.643   7.907  1.1124  0.9274  1.7616
  889MOL0     H22681   7.475   2.611   8.039 -0.0774 -2.0304  0.0931
  889MOL0     H22682   7.533   2.479   7.935 -0.0054 -0.1826 -0.2667
  890MOL0     O22683  10.905  10.935   3.335 -0.9103  0.3163 -0.2742
  890MOL0     C22684  10.917  10.873   3.439 -0.8608  0.2932 -0.1028
  890MOL0     O22685  11.024  10.886   3.519 -0.1659 -0.1214  0.0627
  890MOL0     C22686  11.145  10.922   3.460 -0.3276  1.1022  0.4661
  890MOL0     C22687  11.220  11.012   3.528 -0.2488 -0.5817  0.3383
  890MOL0     C22688  11.342  11.066   3.469 -0.2368  0.1326  0.0069
  890MOL0     C22689  11.385  11.020   3.345 -0.3106  0.0020  0.9066
  890MOL0     O22690  11.496  11.082   3.293 -0.5208  0.1979 -1.3019
  890MOL0     C22691  11.602  11.002   3.242 -0.0727  0.6015 -0.0654
  890MOL0     C22692  11.714  11.077   3.170  0.8332 -0.6682  0.0588
  890MOL0     C22693  11.833  10.980   3.147  0.2827 -0.1078 -0.1528
  890MOL0     C22694  11.947  11.067   3.120  0.7427 -0.0543  0.2307
  890MOL0     C22695  12.075  10.988   3.096 -0.9035  0.0289  0.0234
  890MOL0     C22696  12.188  11.078   3.029 -0.3560  0.2813  0.1959
  890MOL0     C22697  12.323  11.006   3.022  0.1779  0.2091 -0.4621
  890MOL0     C22698  12.444  11.094   3.063 -0.4056  0.1571  0.1886
  890MOL0     N22699  12.504  11.174   2.953  0.7138 -0.2797  0.0733
  890MOL0     C22700  12.614  11.147   2.878  0.0264  0.1822 -0.0123
  890MOL0     C22701  12.627  11.256   2.804  0.3001  0.4196  0.9036
  890MOL0     C22702  12.740  11.263   2.705  0.4864 -0.2172 -0.3039
  890MOL0     C22703  12.877  11.316   2.762 -0.5919  0.3041 -0.7163
  890MOL0     C22704  12.976  11.328   2.650 -0.4246  0.4922 -0.7576
  890MOL0     C22705  13.038  11.195   2.619 -0.0822 -0.2788 -0.6097
  890MOL0     O22706  13.177  11.200   2.640 -0.3066  0.6061 -0.2898
  890MOL0     C22707  13.273  11.200   2.537 -0.0784  0.5328 -0.9809
  890MOL0     C22708  13.253  11.237   2.404  0.3487  0.1165 -0.4562
  890MOL0     C22709  13.357  11.238   2.311 -0.3360  0.3444  0.4944
  890MOL0     C22710  13.318  11.247   2.169 -0.2481 -0.5622  0.1705
  890MOL0     C22711  13.488  11.204   2.357 -0.7874 -1.2393 -0.2034
  890MOL0     C22712  13.605  11.209   2.255  0.7758  0.0832 -0.6395
  890MOL0     O22713  13.610  11.282   2.140  0.6576  0.1182  0.3964
  890MOL0     C22714  13.700  11.272   2.042  0.6448  0.5861  0.5068
  890MOL0     C22715  13.737  11.148   1.996  0.7932  0.6090 -0.0481
  890MOL0     C22716  13.833  11.128   1.899  0.0182  1.2993  0.9028
  890MOL0     C22717  13.898  11.240   1.838  0.1746 -0.4281 -1.0860
  890MOL0     O22718  13.992  11.215   1.737 -0.0821  0.1891 -0.0623
  890MOL0     C22719  14.070  11.318   1.674  0.1557  0.3943 -1.0433
  890MOL0     C22720  14.101  11.287   1.526  0.1550  0.5872  0.8495
  890MOL0     C22721  14.189  11.400   1.471  0.5504  0.6335 -0.2094
  890MOL0     C22722  14.196  11.366   1.319 -1.1445 -0.0056  0.7270
  890MOL0     C22723  14.252  11.492   1.251  0.2052 -0.0576  0.7355
  890MOL0     C22724  14.285  11.463   1.105  0.5450  0.4691 -0.3822
  890MOL0     C22725  14.317  11.595   1.041 -0.0467 -0.3785  0.3571
  890MOL0     C22726  14.347  11.562   0.895  0.6832 -0.1959  0.4173
  890MOL0    Cl22727  14.198  11.495   0.814 -0.0668 -0.1011  0.2334
  890MOL0     C22728  13.862  11.370   1.880  0.1639 -0.2171 -0.1519
  890MOL0     C22729  13.767  11.387   1.985  0.5378  0.3099  0.1805
  890MOL0     O22730  13.701  11.142   2.298 -0.1506  0.2619  0.2080
  890MOL0     C22731  13.506  11.166   2.494 -0.5538 -0.1039  0.1040
  890MOL0     C22732  13.400  11.166   2.582 -0.4058 -0.2628 -0.3413
  890MOL0     N22733  12.528  11.337   2.817 -0.0176 -0.0860  0.0003
  890MOL0     N22734  12.469  11.295   2.916  0.1958 -0.0468 -0.8851
  890MOL0     C22735  11.308  10.916   3.279 -0.6065 -0.2420  0.3728
  890MOL0     C22736  11.190  10.876   3.332  0.0079  0.3048  0.3156
  890MOL0     C22737  10.803  10.787   3.496 -0.7945 -0.5679  0.6292
  890MOL0     C22738  10.847  10.680   3.571  0.0989  0.3676 -0.6460
  890MOL0     C22739  10.763  10.586   3.621  0.3352  0.0647  0.1788
  890MOL0     C22740  10.626  10.595   3.589 -0.6806 -0.1065 -0.0268
  890MOL0     O22741  10.533  10.505   3.632  0.2099 -0.1614 -0.9583
  890MOL0     C22742  10.547  10.447   3.770 -0.3508  0.0879  1.1316
  890MOL0     C22743  10.423  10.389   3.817 -0.8447  1.1618  0.6740
  890MOL0     C22744  10.419  10.364   3.970  0.0416  0.3157 -1.2009
  890MOL0     C22745  10.284  10.305   4.029  0.1783  0.5195  0.7791
  890MOL0     C22746  10.178  10.405   4.007 -0.1165  0.2541  0.2138
  890MOL0     C22747  10.076  10.469   3.976  0.4947  0.9092 -0.1891
  890MOL0     C22748  10.583  10.705   3.520  0.8588  0.6255 -0.6521
  890MOL0     C22749  10.672  10.804   3.470  0.5993 -0.4823 -0.5079
  890MOL0     C22750  10.619  10.927   3.396  0.1441  0.3893  1.0016
  890MOL0     H22751  11.194  11.041   3.629 -2.6682 -0.6982 -0.1927
  890MOL0     H22752  11.406  11.135   3.523  3.5231 -3.2536  0.2598
  890MOL0     H22753  11.555  10.933   3.172 -1.0238  2.6655 -1.5815
  890MOL0     H22754  11.647  10.947   3.325 -0.5146  3.2614  2.0833
  890MOL0     H22755  11.668  11.105   3.074 -0.1980  1.7594  1.1576
  890MOL0     H22756  11.733  11.170   3.224 -0.4359  0.2061 -0.9285
  890MOL0     H22757  11.848  10.921   3.238  0.3914 -0.3491 -0.3290
  890MOL0     H22758  11.812  10.905   3.071  2.9708 -2.0869  0.9037
  890MOL0     H22759  11.917  11.127   3.034 -0.4052  0.0565  0.6985
  890MOL0     H22760  11.964  11.139   3.201 -2.8837  0.7358  0.4450
  890MOL0     H22761  12.058  10.905   3.027  1.4440 -0.1634 -0.4082
  890MOL0     H22762  12.123  10.948   3.186  2.7768 -1.0208 -2.1785
  890MOL0     H22763  12.152  11.093   2.927 -0.5338  1.5455  0.4261
  890MOL0     H22764  12.194  11.173   3.084 -0.7142  0.5763 -0.2624
  890MOL0     H22765  12.346  10.975   2.920  1.8044  0.8201 -0.2988
  890MOL0     H22766  12.324  10.912   3.079 -1.4393 -2.1357 -3.9712
  890MOL0     H22767  12.409  11.165   3.139  1.6079  2.1144 -0.5788
  890MOL0     H22768  12.515  11.030   3.116 -3.9226 -2.7407  1.7780
  890MOL0     H22769  12.676  11.062   2.906 -0.0718  0.8408  2.4108
  890MOL0     H22770  12.710  11.333   2.626 -0.3829  2.1631  1.9788
  890MOL0     H22771  12.749  11.157   2.678 -1.7071  0.0115 -2.3402
  890MOL0     H22772  12.868  11.414   2.809 -2.2890 -1.1032  2.2119
  890MOL0     H22773  12.916  11.254   2.844  1.2125  0.9241 -1.0537
  890MOL0     H22774  12.921  11.366   2.563 -0.5834 -0.9112 -1.2948
  890MOL0     H22775  13.053  11.405   2.663 -1.2459  1.4670 -1.4577
  890MOL0     H22776  13.003  11.118   2.688  1.1329 -0.6234 -0.3622
  890MOL0     H22777  13.011  11.172   2.516  1.3297 -0.8945 -0.8608
  890MOL0     H22778  13.152  11.234   2.365  0.8279 -1.3847 -1.6646
  890MOL0     H22779  13.350  11.346   2.134  1.6405 -1.8661 -2.0872
  890MOL0     H22780  13.209  11.251   2.158 -0.0113 -0.1693 -2.7478
  890MOL0     H22781  13.372  11.166   2.120  3.9974  0.1724  3.0592
  890MOL0     H22782  13.692  11.065   2.050  2.3653  0.0036  0.4041
  890MOL0     H22783  13.860  11.026   1.874 -2.2182  0.9447 -0.3029
  890MOL0     H22784  14.010  11.409   1.684 -0.0648  0.0191  2.5504
  890MOL0     H22785  14.167  11.327   1.724 -0.1194 -1.1633 -0.1597
  890MOL0     H22786  14.161  11.196   1.518  0.1462  0.5582  1.1094
  890MOL0     H22787  14.014  11.274   1.461  1.4539  1.2906 -1.1198
  890MOL0     H22788  14.287  11.398   1.519 -0.3735  0.8370  1.8237
  890MOL0     H22789  14.139  11.497   1.481 -1.0301 -0.2759  1.3686
  890MOL0     H22790  14.107  11.327   1.270 -0.0416 -1.8448  0.1042
  890MOL0     H22791  14.271  11.287   1.308 -1.1101  0.2817 -1.5541
  890MOL0     H22792  14.175  11.569   1.260 -0.1111 -0.2658 -0.2064
  890MOL0     H22793  14.341  11.528   1.305  0.0427  3.2914 -0.9379
  890MOL0     H22794  14.202  11.399   1.072 -0.6054 -0.2746  3.3951
  890MOL0     H22795  14.374  11.400   1.099 -0.9580 -1.8698  0.5252
  890MOL0     H22796  14.406  11.643   1.083  1.7618 -2.2498 -1.1005
  890MOL0     H22797  14.229  11.658   1.059 -0.9721 -1.4396 -0.3311
  890MOL0     H22798  14.416  11.477   0.892 -0.3507 -1.2721  3.2159
  890MOL0     H22799  14.395  11.642   0.839 -0.2699 -0.2411 -0.4877
  890MOL0     H22800  13.916  11.461   1.853 -3.9406  1.9599 -2.0316
  890MOL0     H22801  13.742  11.486   2.021 -2.0641 -0.2130  0.0032
  890MOL0     H22802  13.606  11.142   2.529 -1.5422 -0.1645  3.1605
  890MOL0     H22803  13.423  11.153   2.687  1.6349  0.6133 -0.6472
  890MOL0     H22804  11.325  10.889   3.175 -0.9415  3.9239 -0.9479
  890MOL0     H22805  11.129  10.803   3.279  0.2298  0.3027  0.0625
  890MOL0     H22806  10.952  10.683   3.599 -0.3062  0.1539  1.0123
  890MOL0     H22807  10.780  10.496   3.679 -2.0316 -0.4527  0.2030
  890MOL0     H22808  10.625  10.371   3.780 -1.3391 -1.3539 -1.2499
  890MOL0     H22809  10.587  10.518   3.844 -2.1919 -0.5874  2.8763
  890MOL0     H22810  10.404  10.298   3.760  0.6554  1.4621 -0.3592
  890MOL0     H22811  10.345  10.460   3.788  1.5913  2.1820 -4.3896
  890MOL0     H22812  10.498  10.291   3.992 -2.4761 -2.0665  0.6477
  890MOL0     H22813  10.443  10.455   4.026 -1.0353 -0.8393  1.3002
  890MOL0     H22814  10.301  10.304   4.137 -3.2986  1.8190  1.4474
  890MOL0     H22815  10.260  10.205   3.993 -0.0945 -0.1983  2.8697
  890MOL0     H22816   9.991  10.519   3.934 -0.2955 -0.9066 -0.8432
  890MOL0     H22817  10.477  10.720   3.506  0.3532 -2.0225 -0.2221
  890MOL0     H22818  10.517  10.949   3.427  0.5652  4.1001  0.1476
  890MOL0     H22819  10.676  11.018   3.416 -0.1842  0.7150  0.4543
  890MOL0     H22820  10.621  10.902   3.290  2.7530 -0.6131  1.1965
  891MOL0     O22821  10.976   2.488   6.340 -0.1032 -0.0993  0.0236
  891MOL0     C22822  10.856   2.465   6.338 -0.3861  1.3210 -0.2401
  891MOL0     O22823  10.779   2.481   6.232  0.0441  0.1269  0.2702
  891MOL0     C22824  10.805   2.549   6.111  0.1790  0.2345 -0.1424
  891MOL0     C22825  10.687   2.560   6.025  0.8678 -0.1153 -0.2431
  891MOL0     C22826  10.697   2.632   5.902  0.2020 -0.1571  0.3127
  891MOL0     C22827  10.822   2.671   5.851  0.9025  0.3248 -0.2490
  891MOL0     O22828  10.817   2.740   5.733 -0.0217  0.3736 -0.1088
  891MOL0     C22829  10.922   2.826   5.695 -0.4737 -0.4991 -0.1072
  891MOL0     C22830  10.943   2.947   5.786 -0.2885 -0.5542 -0.6055
  891MOL0     C22831  10.834   3.043   5.762 -0.9034 -0.1038  0.6644
  891MOL0     C22832  10.762   3.071   5.886  0.1330 -0.0439  0.4306
  891MOL0     C22833  10.620   3.112   5.839  0.9375 -0.0906  0.2252
  891MOL0     C22834  10.534   2.992   5.830  0.0873 -0.4679  0.4696
  891MOL0     C22835  10.394   3.027   5.780  0.4846 -0.3921 -0.8874
  891MOL0     C22836  10.301   2.898   5.777 -0.2016  0.3995  0.7026
  891MOL0     N22837  10.339   2.808   5.670 -0.3015 -0.0933  0.4071
  891MOL0     C22838  10.367   2.824   5.535 -0.6934 -0.1298 -0.3078
  891MOL0     C22839  10.419   2.703   5.494  0.6053 -0.1493  0.2492
  891MOL0     C22840  10.449   2.673   5.352  0.6715 -0.2878 -0.1786
  891MOL0     C22841  10.592   2.628   5.343 -0.4563  0.1423  0.2489
  891MOL0     C22842  10.710   2.725   5.359  1.0198  0.6109  0.0403
  891MOL0     C22843  10.836   2.641   5.357 -0.3290  0.0027 -0.3140
  891MOL0     O22844  10.937   2.738   5.324 -0.2547  0.1279 -0.0338
  891MOL0     C22845  11.065   2.681   5.292 -0.2760  0.3344  0.3872
  891MOL0     C22846  11.098   2.547   5.282  0.6491 -0.0937  0.9149
  891MOL0     C22847  11.229   2.502   5.243  0.0841 -0.1987  0.6529
  891MOL0     C22848  11.239   2.352   5.251 -0.2667  0.2831 -0.5346
  891MOL0     C22849  11.326   2.597   5.214 -0.0021  0.6094  0.5325
  891MOL0     C22850  11.465   2.561   5.181  0.0217 -0.0387 -0.3255
  891MOL0     O22851  11.539   2.649   5.112 -0.9612 -0.1108  1.4886
  891MOL0     C22852  11.668   2.630   5.072 -0.6569  0.4352  0.5790
  891MOL0     C22853  11.761   2.563   5.140  0.2662 -0.1387  0.3146
  891MOL0     C22854  11.886   2.551   5.096 -0.1004 -1.5848 -0.4110
  891MOL0     C22855  11.929   2.611   4.969  0.5456  0.1495  0.6275
  891MOL0     O22856  12.052   2.593   4.910 -0.5826  0.0940 -0.3540
  891MOL0     C22857  12.147   2.517   4.991  0.7114 -0.3064  0.5971
  891MOL0     C22858  12.290   2.522   4.924  0.4677 -0.8755 -0.6472
  891MOL0     C22859  12.315   2.441   4.798  0.4274  0.6825  0.6339
  891MOL0     C22860  12.452   2.458   4.732  0.7446 -0.6459  0.6481
  891MOL0     C22861  12.478   2.349   4.636  0.9454  1.1797  0.2681
  891MOL0     C22862  12.608   2.369   4.560 -0.0570 -0.1155 -0.0180
  891MOL0     C22863  12.657   2.244   4.487 -0.3533  0.2948  0.4004
  891MOL0     C22864  12.553   2.164   4.403  0.8508 -1.0701 -0.2142
  891MOL0    Cl22865  12.485   2.272   4.280 -0.2103  0.1751 -0.5121
  891MOL0     C22866  11.836   2.690   4.904 -0.2542  0.3826 -0.5138
  891MOL0     C22867  11.706   2.690   4.950  0.0595 -0.6219 -0.5901
  891MOL0     O22868  11.503   2.455   5.219 -0.9877 -0.4589  0.1613
  891MOL0     C22869  11.300   2.729   5.205 -0.0667 -1.1827  0.4526
  891MOL0     C22870  11.171   2.772   5.255  0.1686  0.7869  0.1984
  891MOL0     N22871  10.418   2.614   5.596 -0.0100  0.3672 -0.1075
  891MOL0     N22872  10.358   2.673   5.694 -0.2135 -0.0247  0.4871
  891MOL0     C22873  10.932   2.639   5.927  0.0387 -0.9888  0.0757
  891MOL0     C22874  10.931   2.577   6.054  0.4380  0.3835 -0.4547
  891MOL0     C22875  10.791   2.416   6.464 -0.6227 -0.7932  0.1588
  891MOL0     C22876  10.658   2.372   6.454  0.0953 -0.3043  0.3710
  891MOL0     C22877  10.593   2.320   6.567  0.1064  0.2227 -0.7422
  891MOL0     C22878  10.664   2.312   6.684  0.0161 -0.6419 -0.2116
  891MOL0     O22879  10.598   2.253   6.783  0.4672  0.1057  0.1265
  891MOL0     C22880  10.663   2.142   6.843 -0.2424  0.1870  0.5858
  891MOL0     C22881  10.550   2.067   6.913 -0.6732  0.0372 -0.6962
  891MOL0     C22882  10.486   2.137   7.036  0.8885 -0.6261 -0.0219
  891MOL0     C22883  10.420   2.050   7.143  0.2640  1.0924 -0.4169
  891MOL0     C22884  10.523   1.961   7.194 -0.0566  0.2245  0.2232
  891MOL0     C22885  10.607   1.889   7.234  0.2412 -0.5049 -0.1404
  891MOL0     C22886  10.786   2.370   6.702  0.0326  0.4389  0.3057
  891MOL0     C22887  10.853   2.424   6.595 -0.3159  0.0240 -0.8024
  891MOL0     C22888  10.981   2.496   6.626 -0.0494 -0.0882 -0.2396
  891MOL0     H22889  10.593   2.526   6.070  0.1857  1.4039 -0.4726
  891MOL0     H22890  10.607   2.650   5.843 -0.7777  0.2253  1.8544
  891MOL0     H22891  10.908   2.863   5.593  3.3479 -0.2565 -0.6912
  891MOL0     H22892  11.012   2.765   5.685 -1.2258 -1.5097 -0.8653
  891MOL0     H22893  10.967   2.922   5.890 -2.2900  0.8407  0.2586
  891MOL0     H22894  11.035   3.000   5.762  0.1086  0.9396  3.4583
  891MOL0     H22895  10.872   3.137   5.721 -0.3230  0.4683  2.3897
  891MOL0     H22896  10.771   3.004   5.682 -0.5010 -1.3085  0.9164
  891MOL0     H22897  10.749   2.987   5.956 -3.2947 -0.5782 -0.6302
  891MOL0     H22898  10.809   3.151   5.944  1.6716 -0.8262  0.2977
  891MOL0     H22899  10.626   3.156   5.739  1.9185  0.4431  0.5061
  891MOL0     H22900  10.587   3.186   5.913  2.2356 -0.8612  1.6423
  891MOL0     H22901  10.573   2.923   5.754 -1.8724  1.9870 -3.0587
  891MOL0     H22902  10.533   2.950   5.931 -2.6734  1.9268  1.6009
  891MOL0     H22903  10.395   3.078   5.683 -0.0885 -0.3912 -0.8954
  891MOL0     H22904  10.346   3.093   5.852 -3.1469 -2.3094 -1.2929
  891MOL0     H22905  10.306   2.840   5.870  1.9936  1.1855  1.1410
  891MOL0     H22906  10.201   2.937   5.754  0.4786  2.3043  0.7996
  891MOL0     H22907  10.329   2.903   5.471  2.1559  1.1472 -0.5800
  891MOL0     H22908  10.440   2.757   5.282  3.4806 -1.6827 -2.4231
  891MOL0     H22909  10.377   2.601   5.312  2.0328 -0.3161 -2.8459
  891MOL0     H22910  10.605   2.548   5.416  0.2206  0.9987  1.0895
  891MOL0     H22911  10.602   2.589   5.241 -0.1818 -0.3973  0.4827
  891MOL0     H22912  10.702   2.803   5.284 -1.2669  1.6127  1.2155
  891MOL0     H22913  10.706   2.778   5.455  1.4924 -2.1677  1.7409
  891MOL0     H22914  10.862   2.618   5.461 -3.1085 -0.8597  0.2896
  891MOL0     H22915  10.831   2.564   5.280  1.5500  2.0445 -2.6583
  891MOL0     H22916  11.028   2.470   5.313  0.4983 -0.9895 -1.4522
  891MOL0     H22917  11.147   2.294   5.245 -0.3882  0.6369 -3.2440
  891MOL0     H22918  11.292   2.333   5.345  0.5033  0.7791 -0.8586
  891MOL0     H22919  11.290   2.317   5.161 -0.8869  0.5814 -1.0053
  891MOL0     H22920  11.747   2.509   5.233  0.9504  1.9487  1.7091
  891MOL0     H22921  11.946   2.491   5.165  0.0287  0.9479  1.8498
  891MOL0     H22922  12.147   2.558   5.092 -1.4381 -0.1631  0.5761
  891MOL0     H22923  12.120   2.413   5.010 -2.4940  0.0081 -1.4014
  891MOL0     H22924  12.309   2.627   4.901  2.3247 -0.9038  0.5372
  891MOL0     H22925  12.359   2.492   5.004 -4.3461 -1.1173  3.9104
  891MOL0     H22926  12.249   2.462   4.713  3.3918 -0.3518 -2.0993
  891MOL0     H22927  12.290   2.339   4.829  1.2141  1.0317  2.5759
  891MOL0     H22928  12.527   2.451   4.811  0.3815  1.2246  1.1989
  891MOL0     H22929  12.447   2.558   4.688 -3.9285 -0.2172  1.6044
  891MOL0     H22930  12.466   2.252   4.685 -0.5017  1.0974 -0.1782
  891MOL0     H22931  12.404   2.357   4.556 -0.8620 -0.2648  1.6966
  891MOL0     H22932  12.688   2.385   4.634 -2.5829  1.7858  2.5340
  891MOL0     H22933  12.604   2.456   4.494  2.4746  1.6376  1.9525
  891MOL0     H22934  12.704   2.176   4.558 -2.5423  0.8659  2.5094
  891MOL0     H22935  12.731   2.281   4.416 -0.7625  3.3299  1.4356
  891MOL0     H22936  12.474   2.108   4.454 -0.2665  0.0114 -0.7378
  891MOL0     H22937  12.607   2.088   4.345  2.8141 -0.4947  0.7501
  891MOL0     H22938  11.857   2.727   4.805  0.4735  0.7085 -0.2388
  891MOL0     H22939  11.633   2.745   4.891  0.2789  0.4919  0.1297
  891MOL0     H22940  11.366   2.805   5.164 -1.8212 -0.6669 -1.5837
  891MOL0     H22941  11.168   2.879   5.275  2.1786  0.9076  0.0092
  891MOL0     H22942  11.028   2.671   5.888  0.4755  0.2044  1.9845
  891MOL0     H22943  11.023   2.535   6.093  0.1391 -1.7652 -1.8656
  891MOL0     H22944  10.615   2.366   6.355  2.0182  2.0942 -0.7026
  891MOL0     H22945  10.500   2.267   6.547 -0.1586 -0.5856  2.1974
  891MOL0     H22946  10.712   2.079   6.769  2.0141  2.2070  0.2361
  891MOL0     H22947  10.742   2.168   6.914 -0.8293  1.6294  0.7669
  891MOL0     H22948  10.593   1.975   6.953 -1.6961  0.4756  1.5797
  891MOL0     H22949  10.470   2.034   6.847  0.1372 -0.7573 -1.3069
  891MOL0     H22950  10.566   2.198   7.079  0.8235  1.3054 -2.4102
  891MOL0     H22951  10.406   2.193   6.987 -0.4777 -2.4170  0.0593
  891MOL0     H22952  10.344   1.985   7.098  1.1716 -1.5856  1.6203
  891MOL0     H22953  10.369   2.104   7.223  0.3824  0.5031  0.0708
  891MOL0     H22954  10.675   1.819   7.277 -0.4462 -1.4690 -0.5654
  891MOL0     H22955  10.823   2.379   6.803  0.8042 -0.6864  0.1352
  891MOL0     H22956  11.065   2.445   6.579  1.2650  2.1440 -0.4587
  891MOL0     H22957  10.969   2.596   6.583 -0.7569  0.6801  1.6123
  891MOL0     H22958  10.989   2.510   6.734  0.0707 -1.0245 -0.1224
  892MOL0     O22959   4.445   7.079   9.063 -0.4326  0.9428  0.6727
  892MOL0     C22960   4.550   7.025   9.098  0.1521  0.6350 -0.4249
  892MOL0     O22961   4.661   7.093   9.156 -0.1411  0.3341 -0.8346
  892MOL0     C22962   4.652   7.222   9.187  0.1286  0.3413 -0.0481
  892MOL0     C22963   4.752   7.304   9.133  0.0477 -0.1142 -0.0586
  892MOL0     C22964   4.744   7.443   9.149 -0.0016  0.9687  0.2174
  892MOL0     C22965   4.639   7.506   9.224  0.0974 -0.6782 -0.0053
  892MOL0     O22966   4.644   7.645   9.212 -0.1119 -0.3296 -0.1122
  892MOL0     C22967   4.579   7.710   9.319 -0.2551 -0.7089 -0.5549
  892MOL0     C22968   4.614   7.859   9.298  0.2036  0.0861 -0.6086
  892MOL0     C22969   4.770   7.877   9.303  0.3967 -0.4333 -0.7520
  892MOL0     C22970   4.820   8.020   9.295  0.5554  0.9568 -0.3194
  892MOL0     C22971   4.962   8.033   9.355  0.6872 -0.6611 -0.5527
  892MOL0     C22972   5.052   7.944   9.277  0.6714  0.5406  0.4406
  892MOL0     C22973   5.204   7.952   9.316  0.3274 -0.0823  0.5711
  892MOL0     C22974   5.207   7.911   9.464  0.0983 -0.0590 -1.8405
  892MOL0     N22975   5.346   7.884   9.506 -0.4509 -0.4907  0.6635
  892MOL0     C22976   5.449   7.976   9.496  0.1809  0.4567  0.2509
  892MOL0     C22977   5.562   7.906   9.506  0.2043 -0.6119 -0.4034
  892MOL0     C22978   5.704   7.958   9.492 -0.1751 -0.7356 -0.2705
  892MOL0     C22979   5.796   7.894   9.591  0.4518 -0.9936  0.0630
  892MOL0     C22980   5.932   7.966   9.560  0.6585  0.0670 -0.2114
  892MOL0     C22981   6.041   7.898   9.647 -0.1701  0.4501 -0.2743
  892MOL0     O22982   6.031   7.760   9.671 -0.1722  0.5007  1.5197
  892MOL0     C22983   6.137   7.695   9.727 -0.1859  0.2108 -0.3196
  892MOL0     C22984   6.208   7.756   9.833 -0.3028 -0.3398 -0.3381
  892MOL0     C22985   6.332   7.700   9.878 -0.5428  0.4624  1.2058
  892MOL0     C22986   6.403   7.778   9.981  0.2895 -0.3974 -0.6045
  892MOL0     C22987   6.384   7.580   9.804  0.6467 -0.5530  0.0055
  892MOL0     C22988   6.510   7.512   9.843 -0.2311  0.4914 -1.1394
  892MOL0     O22989   6.590   7.464   9.744  0.4624 -0.9568 -0.5826
  892MOL0     C22990   6.688   7.375   9.785  0.1032  0.2283  0.2660
  892MOL0     C22991   6.648   7.242   9.774 -0.0988 -0.8151 -1.3467
  892MOL0     C22992   6.739   7.150   9.833 -0.1468 -0.8717 -0.2673
  892MOL0     C22993   6.868   7.193   9.883 -0.3987 -0.0085  0.1303
  892MOL0     O22994   6.959   7.106   9.952  0.1222 -0.2106 -0.5404
  892MOL0     C22995   6.980   6.972   9.898  0.0443  0.8868  0.2637
  892MOL0     C22996   7.096   6.892   9.966 -0.7930  0.2609 -0.5685
  892MOL0     C22997   7.226   6.914   9.897 -0.4020 -0.4449  0.8496
  892MOL0     C22998   7.355   6.852   9.953  0.1698  0.0237  0.3728
  892MOL0     C22999   7.485   6.873   9.865 -0.5170 -0.2549 -0.0336
  892MOL0     C23000   7.625   6.816   9.913  0.5947  0.4844  0.4606
  892MOL0     C23001   7.730   6.848   9.804 -0.2077 -0.1213 -0.7732
  892MOL0     C23002   7.861   6.796   9.861 -0.3581 -0.1799 -0.0254
  892MOL0    Cl23003   7.996   6.884   9.780 -0.1632  0.1697  0.5011
  892MOL0     C23004   6.898   7.330   9.882 -0.3756  0.0096  0.3171
  892MOL0     C23005   6.813   7.424   9.828 -0.7554  0.2503  0.1002
  892MOL0     O23006   6.521   7.486   9.962  0.4047 -0.9028  0.4718
  892MOL0     C23007   6.298   7.514   9.710  0.0534 -0.0916 -0.0778
  892MOL0     C23008   6.187   7.576   9.666  0.6660 -0.5277 -0.6293
  892MOL0     N23009   5.534   7.774   9.532  0.1263  0.4052 -0.1448
  892MOL0     N23010   5.412   7.764   9.524  0.4472  0.0839  0.3039
  892MOL0     C23011   4.538   7.422   9.286  0.5450  0.5524  1.2281
  892MOL0     C23012   4.547   7.283   9.268  0.7125 -0.0806  0.7560
  892MOL0     C23013   4.563   6.882   9.068 -0.8005 -0.1442  0.4243
  892MOL0     C23014   4.629   6.801   9.159 -0.1079  0.1132 -0.6170
  892MOL0     C23015   4.652   6.667   9.132  0.1400  0.7109  0.0077
  892MOL0     C23016   4.596   6.602   9.022  0.3570  0.8689 -0.6232
  892MOL0     O23017   4.623   6.468   9.010 -0.6965 -0.1390 -0.2411
  892MOL0     C23018   4.627   6.403   8.883 -0.2675 -0.7518 -1.0955
  892MOL0     C23019   4.712   6.263   8.903 -0.2811 -0.3701 -0.0133
  892MOL0     C23020   4.867   6.291   8.913  0.4887  0.8792  0.5718
  892MOL0     C23021   4.957   6.177   8.941  0.3056 -0.5330 -0.0171
  892MOL0     C23022   5.088   6.237   8.956  0.0081  0.6592 -0.0254
  892MOL0     C23023   5.196   6.291   8.965 -0.2542 -1.3263 -0.0621
  892MOL0     C23024   4.518   6.672   8.940  0.8627 -0.7130 -0.1174
  892MOL0     C23025   4.498   6.812   8.956  0.5234 -0.2157  0.1429
  892MOL0     C23026   4.420   6.881   8.842 -0.3584 -0.3107 -0.3811
  892MOL0     H23027   4.835   7.264   9.075 -0.9395 -2.4523  0.0021
  892MOL0     H23028   4.828   7.502   9.112 -0.1954  1.7702  1.0054
  892MOL0     H23029   4.604   7.666   9.416 -1.3086  1.1048  0.5960
  892MOL0     H23030   4.471   7.694   9.308  0.2539 -3.5084 -2.5703
  892MOL0     H23031   4.566   7.897   9.208 -4.1995  0.7612  1.7629
  892MOL0     H23032   4.579   7.919   9.382 -0.1323  0.4725 -1.0207
  892MOL0     H23033   4.791   7.855   9.408  0.3556  0.0937 -0.6282
  892MOL0     H23034   4.824   7.812   9.234  4.0786  3.0798 -1.5976
  892MOL0     H23035   4.833   8.042   9.188  3.0977 -1.6044 -0.6613
  892MOL0     H23036   4.759   8.098   9.341  0.4080  2.1081 -2.3434
  892MOL0     H23037   4.955   8.008   9.461 -1.7680 -1.6104 -0.8715
  892MOL0     H23038   4.983   8.140   9.342 -2.9003  0.0153 -2.0744
  892MOL0     H23039   5.024   7.839   9.281 -0.3741  0.8435  2.9979
  892MOL0     H23040   5.050   7.977   9.173 -0.5181 -2.5225 -0.6027
  892MOL0     H23041   5.243   8.054   9.308 -0.8585  0.3031 -0.7122
  892MOL0     H23042   5.260   7.877   9.261 -0.7458  0.3351 -1.1551
  892MOL0     H23043   5.163   7.977   9.539  3.3431 -0.1040  0.3131
  892MOL0     H23044   5.161   7.812   9.476  2.0984 -1.0595 -2.0816
  892MOL0     H23045   5.437   8.084   9.488 -1.2548  0.3408  0.5617
  892MOL0     H23046   5.706   8.067   9.506  2.6621 -0.7382 -0.0644
  892MOL0     H23047   5.735   7.946   9.388  0.1448 -1.2930 -0.1147
  892MOL0     H23048   5.761   7.906   9.694 -0.4026  0.5973 -0.3805
  892MOL0     H23049   5.802   7.791   9.556  0.3271 -1.3910  1.1836
  892MOL0     H23050   5.946   7.985   9.453  0.4827  3.4566  0.2363
  892MOL0     H23051   5.939   8.064   9.609  1.4240 -0.9621  1.8441
  892MOL0     H23052   6.137   7.919   9.599 -0.0048  1.5858  0.5129
  892MOL0     H23053   6.043   7.942   9.748  0.9022  1.4593 -0.7061
  892MOL0     H23054   6.178   7.854   9.869  2.7590  1.1034 -1.3849
  892MOL0     H23055   6.500   7.731  10.001 -0.1703 -0.1596  2.7310
  892MOL0     H23056   6.335   7.772  10.066  0.5813 -1.2246 -0.4190
  892MOL0     H23057   6.405   7.883   9.953 -0.0019 -0.4564 -0.8516
  892MOL0     H23058   6.548   7.225   9.734 -1.3642 -1.2297  1.7216
  892MOL0     H23059   6.725   7.043   9.840  4.1901 -1.5221  2.3177
  892MOL0     H23060   6.890   6.909   9.903  0.4340  0.3820  1.0976
  892MOL0     H23061   7.007   6.985   9.793  4.4489  1.4310  1.2663
  892MOL0     H23062   7.097   6.920  10.072 -0.5393 -0.6255 -0.3280
  892MOL0     H23063   7.077   6.784   9.962  3.5164 -0.6320 -2.1867
  892MOL0     H23064   7.246   7.021   9.900  0.7812 -0.6619  1.0466
  892MOL0     H23065   7.234   6.886   9.792  1.4831 -3.5536  1.6728
  892MOL0     H23066   7.342   6.750   9.989 -1.1556 -0.4011 -1.2281
  892MOL0     H23067   7.382   6.917  10.037  0.3921  0.5544 -0.0993
  892MOL0     H23068   7.470   6.823   9.769  0.0227  0.5733 -0.5637
  892MOL0     H23069   7.502   6.979   9.846  4.0787 -0.9613 -1.0154
  892MOL0     H23070   7.615   6.708   9.926  1.3125 -0.2381 -3.6409
  892MOL0     H23071   7.655   6.862  10.008  2.8268  3.2076 -1.3944
  892MOL0     H23072   7.739   6.955   9.784 -1.6963 -0.4754 -4.0009
  892MOL0     H23073   7.713   6.797   9.709  0.2518 -1.2212 -0.2842
  892MOL0     H23074   7.867   6.690   9.836 -1.7355  0.3681 -3.3499
  892MOL0     H23075   7.862   6.814   9.969  1.8781 -0.6001  0.0701
  892MOL0     H23076   6.992   7.356   9.930  0.1988 -1.4774  0.0352
  892MOL0     H23077   6.837   7.529   9.817 -0.0055 -0.1119 -2.2204
  892MOL0     H23078   6.330   7.433   9.646 -0.6558 -0.9989  0.6894
  892MOL0     H23079   6.125   7.540   9.585 -1.0493 -1.2308  0.9274
  892MOL0     H23080   4.446   7.470   9.317 -0.5236 -0.0021 -0.9195
  892MOL0     H23081   4.474   7.226   9.323 -0.7977  1.5727  0.5348
  892MOL0     H23082   4.690   6.846   9.236 -2.3133 -2.4273  2.9340
  892MOL0     H23083   4.712   6.609   9.201 -0.0922 -1.9518 -1.8434
  892MOL0     H23084   4.526   6.382   8.846 -0.4124 -1.1079 -0.5041
  892MOL0     H23085   4.682   6.460   8.808  0.3087 -1.1768 -1.0084
  892MOL0     H23086   4.704   6.194   8.819 -0.8293  0.5041 -0.7013
  892MOL0     H23087   4.673   6.214   8.992 -1.2292  1.6821  0.7644
  892MOL0     H23088   4.902   6.333   8.818  0.9926 -0.0142  0.3460
  892MOL0     H23089   4.880   6.367   8.991 -0.7112  1.4314  0.2551
  892MOL0     H23090   4.946   6.106   8.858 -0.4678 -0.0892 -0.2965
  892MOL0     H23091   4.929   6.108   9.021 -2.4427 -2.6635 -2.5837
  892MOL0     H23092   5.291   6.341   8.972 -0.4790 -0.9888  0.7383
  892MOL0     H23093   4.464   6.619   8.863  1.2791  0.7490 -1.4525
  892MOL0     H23094   4.459   6.983   8.829  4.3011 -1.7622  0.7217
  892MOL0     H23095   4.445   6.822   8.754 -1.5277 -1.1421 -0.1713
  892MOL0     H23096   4.313   6.868   8.864 -0.3814 -0.2991 -0.4867
  893MOL0     O23097   8.844   5.706   0.426  0.1578 -0.6312 -1.0355
  893MOL0     C23098   8.777   5.678   0.528 -0.6191  0.0466 -0.0886
  893MOL0     O23099   8.836   5.612   0.636 -0.3595  0.6770 -0.2561
  893MOL0     C23100   8.975   5.647   0.652  0.0282  0.3742 -0.3515
  893MOL0     C23101   9.023   5.781   0.677 -0.7787  0.4892  0.4586
  893MOL0     C23102   9.166   5.807   0.681  1.0271 -0.7804  0.8334
  893MOL0     C23103   9.249   5.704   0.667  0.0511  0.9901 -0.4671
  893MOL0     O23104   9.385   5.718   0.675  0.0461 -0.1550 -0.2306
  893MOL0     C23105   9.476   5.644   0.589  0.4717  0.2026 -0.0302
  893MOL0     C23106   9.615   5.654   0.640 -0.8653 -0.1781 -0.4928
  893MOL0     C23107   9.712   5.564   0.563  0.2271 -0.2810  0.0377
  893MOL0     C23108   9.849   5.547   0.637 -0.1773 -0.5059 -0.5491
  893MOL0     C23109   9.971   5.551   0.544 -0.4931  0.0996  0.4192
  893MOL0     C23110  10.095   5.506   0.632  0.3689 -0.1152  0.5544
  893MOL0     C23111  10.226   5.493   0.545 -0.5909 -0.0204 -0.4149
  893MOL0     C23112  10.342   5.434   0.636  1.3505 -0.3477 -0.5089
  893MOL0     N23113  10.465   5.381   0.570  0.0835 -0.4513 -0.1882
  893MOL0     C23114  10.589   5.437   0.573  1.0105 -0.0201 -0.9167
  893MOL0     C23115  10.682   5.352   0.531 -0.0724  0.3860 -0.6995
  893MOL0     C23116  10.827   5.388   0.519 -1.0869 -0.2360 -0.5448
  893MOL0     C23117  10.866   5.470   0.390  0.2062 -0.4318  0.3669
  893MOL0     C23118  11.011   5.519   0.380 -0.1230  0.5084 -0.6658
  893MOL0     C23119  11.095   5.400   0.338 -0.0931  0.6206 -0.5755
  893MOL0     O23120  11.236   5.434   0.358  0.8061 -0.1898 -0.5022
  893MOL0     C23121  11.324   5.332   0.322 -0.2182 -0.4267  0.3223
  893MOL0     C23122  11.313   5.267   0.194  0.2402  0.2861 -0.0957
  893MOL0     C23123  11.408   5.183   0.148  0.6932  0.3841  0.2593
  893MOL0     C23124  11.384   5.112   0.015 -0.0320  0.3999 -0.9556
  893MOL0     C23125  11.520   5.158   0.233  0.1777 -1.0754  0.0533
  893MOL0     C23126  11.649   5.098   0.191  0.0586 -0.0414  0.5216
  893MOL0     O23127  11.724   5.033   0.287 -0.0152 -0.1896 -0.4046
  893MOL0     C23128  11.858   4.998   0.263 -0.2177 -0.3367  1.1956
  893MOL0     C23129  11.946   5.061   0.165  0.4938  0.5606 -0.2097
  893MOL0     C23130  12.071   5.004   0.152 -0.3355 -0.0379 -0.8354
  893MOL0     C23131  12.111   4.894   0.227  0.0256 -0.0367 -0.0906
  893MOL0     O23132  12.237   4.855   0.223 -0.0493 -0.2021 -0.2315
  893MOL0     C23133  12.307   4.939   0.314  0.3637  0.6462  1.3503
  893MOL0     C23134  12.453   4.924   0.304  0.1791 -0.8860 -0.5046
  893MOL0     C23135  12.532   5.026   0.391  0.6824  0.2943 -0.0479
  893MOL0     C23136  12.671   4.963   0.404  0.3734 -0.0298  0.5565
  893MOL0     C23137  12.752   5.081   0.464 -0.5275 -0.4510 -0.3173
  893MOL0     C23138  12.892   5.024   0.478 -0.2216 -0.0689 -0.4176
  893MOL0     C23139  12.977   5.121   0.563 -0.7562 -0.0574  0.1136
  893MOL0     C23140  13.002   5.259   0.509 -0.7209 -1.4778 -0.3384
  893MOL0    Cl23141  13.123   5.327   0.607 -0.1052 -0.0664  0.1804
  893MOL0     C23142  12.025   4.835   0.313 -0.3380 -0.5126 -1.2419
  893MOL0     C23143  11.903   4.889   0.332  0.2107 -0.7254  0.0516
  893MOL0     O23144  11.672   5.118   0.073  0.2636 -0.4522  0.3663
  893MOL0     C23145  11.527   5.213   0.364  0.1460  0.0303 -0.4457
  893MOL0     C23146  11.427   5.306   0.411 -0.4116 -0.1002 -0.2699
  893MOL0     N23147  10.618   5.234   0.507  0.5402 -0.3905 -0.1132
  893MOL0     N23148  10.491   5.251   0.532  0.7953  0.4446  0.2677
  893MOL0     C23149   9.200   5.579   0.661 -0.2184  0.0670 -0.0924
  893MOL0     C23150   9.067   5.542   0.644  0.8761  0.7869 -0.0820
  893MOL0     C23151   8.632   5.669   0.538 -0.1242 -1.3795 -0.6485
  893MOL0     C23152   8.578   5.562   0.598  0.1512  0.8301  0.1391
  893MOL0     C23153   8.436   5.547   0.613  0.3123 -1.5854  0.2671
  893MOL0     C23154   8.357   5.644   0.549  0.2019 -0.2182  0.1450
  893MOL0     O23155   8.219   5.636   0.543 -0.1268 -0.6413  1.2157
  893MOL0     C23156   8.160   5.519   0.602 -0.7752 -0.3527  0.3471
  893MOL0     C23157   8.012   5.510   0.563  0.6921 -0.9459 -0.0355
  893MOL0     C23158   8.005   5.496   0.412  0.3472  0.5895 -0.3361
  893MOL0     C23159   7.854   5.474   0.371  0.4167 -0.3708 -0.0635
  893MOL0     C23160   7.791   5.360   0.445  0.3093  0.3131 -0.4876
  893MOL0     C23161   7.727   5.265   0.488  0.3474  0.0957 -0.1811
  893MOL0     C23162   8.424   5.747   0.478 -0.1177  0.5420 -0.4634
  893MOL0     C23163   8.562   5.769   0.477 -0.1674 -0.1208 -1.4588
  893MOL0     C23164   8.610   5.892   0.404 -0.4707 -1.0400  0.5134
  893MOL0     H23165   8.946   5.858   0.685 -0.0824  1.2801 -0.2097
  893MOL0     H23166   9.205   5.907   0.695  3.1733 -1.2362 -1.3117
  893MOL0     H23167   9.465   5.686   0.488  4.1042  2.0247  0.1648
  893MOL0     H23168   9.447   5.539   0.582 -1.8864  0.8956 -1.8762
  893MOL0     H23169   9.653   5.757   0.647  1.8405 -1.2386  2.2640
  893MOL0     H23170   9.606   5.620   0.743 -1.5332 -0.9913 -0.8102
  893MOL0     H23171   9.666   5.469   0.534  0.2559 -0.3833  0.3255
  893MOL0     H23172   9.739   5.616   0.471  0.5140 -0.6996 -0.1190
  893MOL0     H23173   9.859   5.626   0.713 -0.5325  1.0287 -2.0431
  893MOL0     H23174   9.847   5.457   0.699 -0.1733 -0.8253 -1.0087
  893MOL0     H23175   9.992   5.657   0.526  0.4973  0.1348  1.5821
  893MOL0     H23176   9.964   5.488   0.455 -1.0474 -2.2324  2.0116
  893MOL0     H23177  10.123   5.569   0.718  3.4157 -1.1560  0.4587
  893MOL0     H23178  10.075   5.412   0.686  2.1693 -1.5570 -1.1578
  893MOL0     H23179  10.241   5.596   0.511 -2.6700 -0.4878 -3.0809
  893MOL0     H23180  10.223   5.436   0.452  2.4754  1.4348 -1.5460
  893MOL0     H23181  10.367   5.523   0.693 -2.5254  0.5797  0.0388
  893MOL0     H23182  10.302   5.359   0.705 -0.9054  1.7234  0.5981
  893MOL0     H23183  10.603   5.541   0.604 -0.2372  0.1376 -0.8233
  893MOL0     H23184  10.897   5.306   0.537  1.5332 -0.1791 -7.5725
  893MOL0     H23185  10.854   5.446   0.608 -0.5274 -1.1255 -0.1194
  893MOL0     H23186  10.835   5.421   0.297  1.1067  1.2880 -0.8982
  893MOL0     H23187  10.818   5.568   0.388 -1.7015 -1.3282 -1.0625
  893MOL0     H23188  11.017   5.591   0.298  0.2929  3.2406  1.6123
  893MOL0     H23189  11.058   5.562   0.469 -1.3008  2.3459 -0.8967
  893MOL0     H23190  11.081   5.312   0.401  0.2387 -0.3268 -1.7939
  893MOL0     H23191  11.071   5.364   0.238 -0.9087  0.1131 -0.2101
  893MOL0     H23192  11.235   5.286   0.121  2.3774  0.1930 -2.5665
  893MOL0     H23193  11.295   5.154  -0.030 -1.0197  2.9002  2.8259
  893MOL0     H23194  11.370   5.006   0.036  0.2834  0.8175  1.7534
  893MOL0     H23195  11.455   5.130  -0.066  1.2119 -1.2367 -0.2907
  893MOL0     H23196  11.917   5.147   0.106  1.0692  0.0685 -1.2304
  893MOL0     H23197  12.144   5.047   0.085 -0.5902  0.1664 -0.9866
  893MOL0     H23198  12.280   5.044   0.300 -2.8446 -0.4961 -3.0713
  893MOL0     H23199  12.288   4.902   0.415  2.3840  1.6576  2.1641
  893MOL0     H23200  12.479   4.824   0.340 -0.2762 -0.3761  1.3336
  893MOL0     H23201  12.488   4.926   0.200 -0.8649  2.1228 -0.8938
  893MOL0     H23202  12.498   5.041   0.494  0.9416 -2.8680  0.6028
  893MOL0     H23203  12.535   5.127   0.350  1.6312  1.2693  2.2508
  893MOL0     H23204  12.718   4.937   0.309  0.4201 -0.9761  0.8317
  893MOL0     H23205  12.669   4.881   0.476 -4.0480  0.3409  1.1528
  893MOL0     H23206  12.757   5.158   0.387  1.1529 -0.5324 -0.3318
  893MOL0     H23207  12.717   5.109   0.564 -1.0094 -1.1744 -0.2758
  893MOL0     H23208  12.940   5.006   0.381  0.1562  0.1919 -0.2832
  893MOL0     H23209  12.883   4.930   0.534 -0.6680  1.5459  2.4217
  893MOL0     H23210  13.071   5.073   0.590 -1.9260 -1.2372  2.2940
  893MOL0     H23211  12.921   5.129   0.656 -0.6001 -1.5411  0.3465
  893MOL0     H23212  12.912   5.320   0.520 -0.0405 -0.5373  0.2269
  893MOL0     H23213  13.026   5.252   0.403  1.1090  0.5865 -0.1473
  893MOL0     H23214  12.064   4.749   0.366  1.9457 -0.4892 -2.7612
  893MOL0     H23215  11.837   4.850   0.409  0.7081 -1.4163  0.1335
  893MOL0     H23216  11.605   5.190   0.436 -1.4777 -0.3125  1.2846
  893MOL0     H23217  11.426   5.355   0.508 -0.9146 -0.8030  0.0884
  893MOL0     H23218   9.275   5.501   0.672 -2.1918 -1.7365  1.3116
  893MOL0     H23219   9.023   5.444   0.627 -0.0924  1.0571  0.7563
  893MOL0     H23220   8.636   5.482   0.641  1.4825  0.2874 -2.4421
  893MOL0     H23221   8.397   5.460   0.665  0.8221 -1.6900  0.4787
  893MOL0     H23222   8.202   5.422   0.573  1.2613  1.1329 -1.9786
  893MOL0     H23223   8.181   5.535   0.708  0.6254 -0.9610  0.1777
  893MOL0     H23224   7.958   5.599   0.596  0.2016 -0.6166 -1.6507
  893MOL0     H23225   7.970   5.421   0.610  3.0539 -1.4816  1.2236
  893MOL0     H23226   8.050   5.582   0.360 -0.2409 -0.6848 -3.1628
  893MOL0     H23227   8.060   5.406   0.385 -1.4116 -1.3826  2.1699
  893MOL0     H23228   7.860   5.446   0.265  0.2938 -1.0035  0.0943
  893MOL0     H23229   7.799   5.567   0.355 -1.3011 -1.4735 -0.8621
  893MOL0     H23230   7.680   5.183   0.537  3.3561 -2.8458 -1.8383
  893MOL0     H23231   8.365   5.820   0.424  0.5197  0.8987 -0.6861
  893MOL0     H23232   8.627   5.864   0.300 -0.5349 -1.1787  0.5397
  893MOL0     H23233   8.544   5.979   0.398 -1.0692 -1.4410  1.0637
  893MOL0     H23234   8.702   5.936   0.444 -0.2322  0.3522 -1.4362
  894MOL0     O23235   8.817   9.455  11.388 -0.9759 -0.2370  0.4758
  894MOL0     C23236   8.729   9.540  11.374  0.2117 -0.0378 -0.8258
  894MOL0     O23237   8.736   9.670  11.416  0.4829 -0.2353  1.1353
  894MOL0     C23238   8.856   9.717  11.470 -0.3103 -0.2117  0.4447
  894MOL0     C23239   8.923   9.829  11.417  0.9264  0.6941 -0.2040
  894MOL0     C23240   9.049   9.865  11.474 -0.1283  0.3839 -0.1546
  894MOL0     C23241   9.096   9.806  11.591  0.1687 -0.4406 -0.0719
  894MOL0     O23242   9.215   9.850  11.638 -0.1656  0.2654 -0.1500
  894MOL0     C23243   9.230   9.883  11.778 -0.2344 -0.4231  0.8945
  894MOL0     C23244   9.325  10.006  11.762  0.0646  0.0804  0.4030
  894MOL0     C23245   9.377  10.047  11.899 -0.1977 -0.3986  0.1827
  894MOL0     C23246   9.462  10.180  11.897 -0.4446  0.5497  0.0424
  894MOL0     C23247   9.555  10.180  12.019 -1.2255  0.2458  0.1764
  894MOL0     C23248   9.621  10.317  12.035  0.4649  0.2573 -0.8641
  894MOL0     C23249   9.721  10.324  12.151  0.1102  0.2690  0.5395
  894MOL0     C23250   9.783  10.472  12.162  0.8893 -0.0584  0.4243
  894MOL0     N23251   9.902  10.493  12.078 -0.7146  0.0398 -0.1994
  894MOL0     C23252   9.987  10.599  12.102  0.0001  0.1417 -0.3551
  894MOL0     C23253  10.079  10.607  12.002  0.0899 -0.3339 -0.1920
  894MOL0     C23254  10.197  10.697  11.994  0.0247  1.0745  1.2689
  894MOL0     C23255  10.166  10.849  11.978  0.3425 -0.0528  0.0432
  894MOL0     C23256  10.267  10.944  12.044 -0.7295 -1.1917  0.2446
  894MOL0     C23257  10.401  10.950  11.969 -0.8343  0.7905 -0.3277
  894MOL0     O23258  10.395  10.992  11.824 -0.1552 -0.0317  0.5256
  894MOL0     C23259  10.511  11.020  11.763 -0.2598 -0.0922  0.0673
  894MOL0     C23260  10.549  11.150  11.732 -0.3017 -0.6555  0.4994
  894MOL0     C23261  10.676  11.182  11.678 -0.1248 -0.0004  0.6510
  894MOL0     C23262  10.710  11.318  11.636  0.2717 -0.1936  0.2424
  894MOL0     C23263  10.772  11.085  11.671  0.3989  0.6760  0.7700
  894MOL0     C23264  10.906  11.103  11.619 -0.4070  0.5132 -0.1634
  894MOL0     O23265  10.991  11.005  11.653 -0.2711  0.8899 -0.4362
  894MOL0     C23266  11.126  11.035  11.670 -0.1577 -0.0259  0.2882
  894MOL0     C23267  11.169  11.147  11.744 -0.2051 -0.8104  0.1721
  894MOL0     C23268  11.300  11.182  11.735 -0.3322  0.3242  0.2648
  894MOL0     C23269  11.395  11.100  11.672 -0.2122  0.3174 -0.7178
  894MOL0     O23270  11.529  11.118  11.688 -0.1250 -0.4635 -0.1013
  894MOL0     C23271  11.591  11.145  11.560 -0.1072  0.1878  0.3371
  894MOL0     C23272  11.613  11.290  11.519  0.6872 -0.5487  0.0558
  894MOL0     C23273  11.503  11.360  11.442  0.2936  0.3630  0.5037
  894MOL0     C23274  11.553  11.487  11.366 -0.8749 -0.8643 -0.9251
  894MOL0     C23275  11.571  11.601  11.467  0.9259 -0.1498  0.3506
  894MOL0     C23276  11.631  11.723  11.409  0.0972 -0.2329 -0.0638
  894MOL0     C23277  11.705  11.809  11.513  0.1338  0.8138 -0.6391
  894MOL0     C23278  11.699  11.957  11.481 -0.2145 -0.1353  0.8215
  894MOL0    Cl23279  11.533  12.022  11.481 -0.0806  0.0069  0.1109
  894MOL0     C23280  11.351  10.995  11.597  0.2928 -0.1510 -0.7819
  894MOL0     C23281  11.216  10.963  11.592  0.7415 -0.3884 -0.0011
  894MOL0     O23282  10.935  11.191  11.542  0.2534 -0.0886 -0.1179
  894MOL0     C23283  10.732  10.952  11.702  0.4711  0.0907  0.2153
  894MOL0     C23284  10.607  10.923  11.742  0.5339  0.5571 -0.7097
  894MOL0     N23285  10.046  10.517  11.909  0.9497  0.3960  0.5916
  894MOL0     N23286   9.944  10.448  11.961 -0.1979  1.1801  0.4863
  894MOL0     C23287   9.014   9.711  11.650 -0.0761  0.5686  0.0312
  894MOL0     C23288   8.892   9.669  11.594  0.1595 -0.0918 -0.6347
  894MOL0     C23289   8.590   9.495  11.342  0.4378 -0.4654 -0.1105
  894MOL0     C23290   8.493   9.580  11.363 -0.9144 -0.1961 -1.0927
  894MOL0     C23291   8.365   9.553  11.331 -0.1970  1.1002  0.4637
  894MOL0     C23292   8.321   9.438  11.267 -0.3561  0.4975 -0.4323
  894MOL0     O23293   8.191   9.404  11.249 -0.4492  0.2426 -0.2281
  894MOL0     C23294   8.096   9.503  11.294 -0.2869 -0.1294 -1.3758
  894MOL0     C23295   8.080   9.625  11.196 -0.0402  0.6565  0.5708
  894MOL0     C23296   8.012   9.577  11.067  0.0362  0.1596 -1.0634
  894MOL0     C23297   7.996   9.689  10.954 -0.0651 -0.2853 -0.8401
  894MOL0     C23298   8.118   9.737  10.891  0.1678  0.5869  0.1245
  894MOL0     C23299   8.220   9.777  10.839 -0.7322  0.3216 -0.2763
  894MOL0     C23300   8.422   9.344  11.250 -0.5994  0.5581 -0.0453
  894MOL0     C23301   8.556   9.372  11.290 -0.1374  0.8007  0.8751
  894MOL0     C23302   8.660   9.261  11.268  0.3002 -0.8388 -0.5647
  894MOL0     H23303   8.886   9.879  11.328 -1.7860  0.1249  0.5325
  894MOL0     H23304   9.110   9.946  11.435  0.8163 -0.7165 -1.0425
  894MOL0     H23305   9.274   9.798  11.832 -2.8397 -0.1980  3.6247
  894MOL0     H23306   9.137   9.913  11.826 -0.5925 -0.3182  0.1428
  894MOL0     H23307   9.412   9.973  11.704 -0.0564  1.6055 -0.7205
  894MOL0     H23308   9.266  10.080  11.708  0.8156  0.3174 -0.1188
  894MOL0     H23309   9.289  10.054  11.964  0.2739 -3.2134  1.3083
  894MOL0     H23310   9.438   9.963  11.935 -0.6916 -0.3734  1.1107
  894MOL0     H23311   9.515  10.195  11.803 -0.8220  0.7157 -0.1487
  894MOL0     H23312   9.397  10.268  11.903 -2.5364 -0.9369  0.3350
  894MOL0     H23313   9.631  10.103  12.002  1.1181  1.5210  3.6281
  894MOL0     H23314   9.493  10.153  12.105  0.6382 -1.8381  0.9667
  894MOL0     H23315   9.655  10.359  11.940  0.1408  1.9710 -0.2610
  894MOL0     H23316   9.544  10.391  12.061  1.1501 -0.2599  3.3971
  894MOL0     H23317   9.807  10.256  12.148  0.4529  0.4666  3.3886
  894MOL0     H23318   9.662  10.300  12.240 -2.1110 -1.9764 -1.3885
  894MOL0     H23319   9.712  10.553  12.143  0.9691 -0.0396  0.1990
  894MOL0     H23320   9.816  10.491  12.264  2.9810 -1.3242  0.0451
  894MOL0     H23321   9.992  10.645  12.200  0.3536  1.3776 -0.9415
  894MOL0     H23322  10.272  10.670  11.919  1.5437  3.6936  1.6845
  894MOL0     H23323  10.235  10.701  12.097  0.9264 -0.1397  1.0085
  894MOL0     H23324  10.158  10.863  11.869  1.2908  1.4797  0.1363
  894MOL0     H23325  10.070  10.869  12.027  1.2887 -0.9056  2.3335
  894MOL0     H23326  10.232  11.046  12.054 -2.2545 -1.4520 -1.7565
  894MOL0     H23327  10.286  10.907  12.145 -0.1690 -1.0909  0.1796
  894MOL0     H23328  10.476  11.013  12.018 -1.4033  2.8456 -1.9344
  894MOL0     H23329  10.435  10.847  11.973 -1.0137  0.6605 -1.5252
  894MOL0     H23330  10.477  11.231  11.742 -1.9053 -1.9231 -0.4161
  894MOL0     H23331  10.627  11.387  11.650  0.7052 -0.0602  2.7416
  894MOL0     H23332  10.739  11.329  11.531 -0.3410 -0.4852  0.0443
  894MOL0     H23333  10.785  11.360  11.704 -1.1497  1.7462  0.6895
  894MOL0     H23334  11.095  11.209  11.794  0.4972  2.7490 -2.7797
  894MOL0     H23335  11.331  11.271  11.789  2.1146 -1.0445  1.3179
  894MOL0     H23336  11.686  11.093  11.574 -0.2927 -0.4268 -0.5968
  894MOL0     H23337  11.546  11.098  11.472 -0.1727  0.2476  0.3391
  894MOL0     H23338  11.630  11.350  11.608  0.7617  1.1160 -1.0367
  894MOL0     H23339  11.701  11.280  11.455 -1.2462 -2.2125 -2.5984
  894MOL0     H23340  11.413  11.386  11.499 -2.1368  2.9350 -3.9092
  894MOL0     H23341  11.468  11.291  11.365  1.9021  0.8860 -0.7443
  894MOL0     H23342  11.482  11.518  11.289  1.1419 -0.8587 -2.9014
  894MOL0     H23343  11.651  11.470  11.320 -0.9021  1.4303 -2.0172
  894MOL0     H23344  11.478  11.631  11.515  0.9233  0.0758  0.2067
  894MOL0     H23345  11.640  11.560  11.542  1.4267 -2.1452 -1.1243
  894MOL0     H23346  11.556  11.784  11.360 -2.1831 -1.5857  1.5618
  894MOL0     H23347  11.708  11.700  11.335  1.1252 -1.1935  1.2461
  894MOL0     H23348  11.813  11.794  11.521  0.1082  1.2196  0.5755
  894MOL0     H23349  11.663  11.800  11.613 -2.2590  4.7813 -1.0818
  894MOL0     H23350  11.759  11.979  11.393  0.6974 -2.0615  0.9095
  894MOL0     H23351  11.744  12.012  11.564 -0.2766 -0.7249  1.2493
  894MOL0     H23352  11.409  10.921  11.543 -0.4210 -3.3760  2.4306
  894MOL0     H23353  11.179  10.879  11.534  2.2927 -0.1825 -1.3629
  894MOL0     H23354  10.803  10.870  11.692  0.6081 -0.3144  3.4360
  894MOL0     H23355  10.566  10.827  11.771  1.0032  0.9514  1.4509
  894MOL0     H23356   9.046   9.654  11.736  1.3693  0.6396 -0.4277
  894MOL0     H23357   8.834   9.599  11.653 -1.8791  2.9411  1.2517
  894MOL0     H23358   8.506   9.666  11.428  0.3687  0.2108 -1.8499
  894MOL0     H23359   8.304   9.642  11.345  2.5026  2.9138  1.5552
  894MOL0     H23360   8.001   9.449  11.297  0.4694 -1.4724 -0.4134
  894MOL0     H23361   8.123   9.535  11.395  1.7949 -0.1325 -1.8772
  894MOL0     H23362   8.175   9.673  11.169 -0.0859  0.4331 -0.0064
  894MOL0     H23363   8.007   9.699  11.231 -1.5314 -0.9515  1.0180
  894MOL0     H23364   8.083   9.501  11.035  1.3106  0.9440 -0.1995
  894MOL0     H23365   7.912   9.549  11.102  1.1192  0.9902  3.4098
  894MOL0     H23366   7.932   9.771  10.990  0.9822 -0.5313  1.8685
  894MOL0     H23367   7.933   9.643  10.878 -0.5258 -2.4419  0.7400
  894MOL0     H23368   8.317   9.795  10.797 -1.6669  0.9339 -2.3202
  894MOL0     H23369   8.397   9.246  11.212 -0.5075  0.1183  1.0044
  894MOL0     H23370   8.674   9.216  11.366 -0.1189  0.4819  0.1244
  894MOL0     H23371   8.615   9.193  11.194 -1.2541 -0.0821 -0.3438
  894MOL0     H23372   8.755   9.303  11.232  0.1111  0.9669  0.9374
  895MOL0     O23373   7.872   7.741  10.900 -0.7465  0.2974  0.1285
  895MOL0     C23374   7.834   7.856  10.898  0.0780 -0.5054 -0.4703
  895MOL0     O23375   7.905   7.958  10.847 -0.7449 -0.6625 -0.3031
  895MOL0     C23376   8.024   7.927  10.797 -1.6141  0.3968  0.6736
  895MOL0     C23377   8.137   7.917  10.884 -1.1632 -0.0593 -0.3975
  895MOL0     C23378   8.264   7.884  10.836 -0.2232  0.1634 -0.3937
  895MOL0     C23379   8.283   7.846  10.701  0.3477  0.5945 -0.5044
  895MOL0     O23380   8.411   7.803  10.667 -1.2793  0.7262  0.5562
  895MOL0     C23381   8.443   7.667  10.692 -0.3588  0.6089  0.2883
  895MOL0     C23382   8.551   7.652  10.795  0.0789 -0.2029 -0.1566
  895MOL0     C23383   8.699   7.669  10.744  0.4166  0.7103 -0.3234
  895MOL0     C23384   8.708   7.805  10.658 -0.5818  0.6864 -0.4304
  895MOL0     C23385   8.857   7.833  10.650  0.7544  0.4587 -0.3158
  895MOL0     C23386   8.892   7.960  10.564  0.3027  0.4163  0.2604
  895MOL0     C23387   9.042   7.953  10.532  0.0541 -0.5121  0.0111
  895MOL0     C23388   9.082   8.045  10.420 -0.6417 -0.2019  0.2439
  895MOL0     N23389   9.214   7.993  10.378 -0.8739 -0.5096 -0.1423
  895MOL0     C23390   9.326   7.970  10.456 -0.2634 -0.0617  0.9256
  895MOL0     C23391   9.419   7.925  10.371 -0.6033  0.7794 -1.2021
  895MOL0     C23392   9.563   7.889  10.420  0.8454 -0.7139 -0.4643
  895MOL0     C23393   9.666   7.963  10.340  0.3793 -0.1535  0.6123
  895MOL0     C23394   9.799   7.928  10.401 -0.1749 -0.1323 -0.0847
  895MOL0     C23395   9.920   7.985  10.324  1.0816  0.2705  0.1297
  895MOL0     O23396  10.021   7.887  10.337 -0.3790  0.0973 -0.2549
  895MOL0     C23397  10.153   7.913  10.288  0.7150 -0.1178  0.5678
  895MOL0     C23398  10.188   8.037  10.224  0.3808 -0.4104 -0.9640
  895MOL0     C23399  10.312   8.056  10.166  0.0512 -1.0742  0.8005
  895MOL0     C23400  10.352   8.186  10.093  0.7035 -1.0607 -0.4124
  895MOL0     C23401  10.416   7.958  10.190  0.7891 -0.6483 -0.1810
  895MOL0     C23402  10.558   7.974  10.151  0.7279  0.4981 -1.0313
  895MOL0     O23403  10.653   7.968  10.253  0.4369 -0.1561 -0.2372
  895MOL0     C23404  10.783   8.002  10.251 -0.2176 -0.4047 -0.5871
  895MOL0     C23405  10.854   8.051  10.132 -0.1863 -0.1707 -0.5539
  895MOL0     C23406  10.987   8.097  10.141  0.4576  0.3442 -0.5561
  895MOL0     C23407  11.048   8.094  10.270 -0.0415  0.4271 -0.1306
  895MOL0     O23408  11.184   8.117  10.291  0.8444 -0.0639 -0.3091
  895MOL0     C23409  11.263   8.160  10.176 -0.7539  0.3820 -0.0419
  895MOL0     C23410  11.408   8.204  10.228  1.4619  0.5823  0.1301
  895MOL0     C23411  11.487   8.223  10.100 -0.0080 -0.1540  0.8727
  895MOL0     C23412  11.613   8.303  10.132  0.4906 -0.8449  0.1162
  895MOL0     C23413  11.730   8.280  10.040 -0.2605 -0.2253 -0.5300
  895MOL0     C23414  11.838   8.389  10.052 -0.1252 -0.4859 -0.7606
  895MOL0     C23415  11.950   8.374   9.942 -0.2736 -0.0242 -0.1868
  895MOL0     C23416  12.058   8.475   9.943  0.2612 -1.1650 -0.0777
  895MOL0    Cl23417  11.982   8.643   9.959 -0.1719  0.2008 -0.3562
  895MOL0     C23418  10.976   8.065  10.387  0.6673 -1.0132  0.1623
  895MOL0     C23419  10.846   8.012  10.378 -0.6339  0.1445 -0.3117
  895MOL0     O23420  10.575   7.987  10.034 -0.6899  0.1248  0.1353
  895MOL0     C23421  10.377   7.845  10.246  0.2570  0.5910 -0.2496
  895MOL0     C23422  10.248   7.818  10.298  0.6353 -0.0176 -0.1696
  895MOL0     N23423   9.370   7.913  10.248  0.0770  0.4314  0.7039
  895MOL0     N23424   9.241   7.946  10.255 -0.3269 -0.4340 -0.5621
  895MOL0     C23425   8.182   7.855  10.616 -0.1817  0.2250  0.1791
  895MOL0     C23426   8.051   7.891  10.661  0.4115 -1.1955 -0.7364
  895MOL0     C23427   7.713   7.888  10.965 -0.2929  0.4054 -0.1671
  895MOL0     C23428   7.709   8.001  11.047  0.0439  0.7044 -0.2993
  895MOL0     C23429   7.593   8.036  11.121  0.2982 -0.5793 -1.4308
  895MOL0     C23430   7.480   7.955  11.100 -0.2414 -0.8438  0.3263
  895MOL0     O23431   7.361   7.990  11.157 -0.1257  0.0292  0.2468
  895MOL0     C23432   7.334   8.129  11.191 -0.3831  1.1883 -0.0389
  895MOL0     C23433   7.335   8.229  11.076  0.9434  0.3989 -0.6000
  895MOL0     C23434   7.233   8.186  10.971  0.8954 -0.0187  0.4916
  895MOL0     C23435   7.087   8.218  11.019 -0.9158  0.3210 -1.0468
  895MOL0     C23436   7.021   8.109  11.101 -0.4376 -0.1327 -1.2456
  895MOL0     C23437   6.983   8.019  11.177  0.3118 -0.3760  0.6726
  895MOL0     C23438   7.482   7.840  11.016  1.2239 -0.4531  0.2666
  895MOL0     C23439   7.598   7.808  10.947  0.1441 -0.0731  0.2965
  895MOL0     C23440   7.581   7.697  10.847 -0.0566 -0.4316 -0.3768
  895MOL0     H23441   8.118   7.937  10.989 -0.3582  0.8693 -0.4132
  895MOL0     H23442   8.350   7.876  10.902 -0.0128 -2.0897 -0.8413
  895MOL0     H23443   8.480   7.620  10.601  1.0455 -0.5231  1.4134
  895MOL0     H23444   8.353   7.612  10.724 -0.8791  2.2525  1.7976
  895MOL0     H23445   8.546   7.722  10.878  2.3277  2.6001 -2.1944
  895MOL0     H23446   8.545   7.552  10.840  2.6163  0.2706  1.4179
  895MOL0     H23447   8.768   7.682  10.827 -0.1654  3.6691 -0.1731
  895MOL0     H23448   8.728   7.580  10.688 -4.3543 -2.6557  1.9117
  895MOL0     H23449   8.660   7.793  10.560  1.3905 -1.1846 -1.2540
  895MOL0     H23450   8.669   7.887  10.718 -1.7200 -0.3302  0.2837
  895MOL0     H23451   8.914   7.741  10.633  1.1125  0.1000  2.3581
  895MOL0     H23452   8.878   7.849  10.756  0.7329  3.3719 -0.6860
  895MOL0     H23453   8.838   7.952  10.470  0.4126 -0.8803  0.2847
  895MOL0     H23454   8.865   8.053  10.615 -0.7685  0.3632 -0.1816
  895MOL0     H23455   9.058   7.848  10.507  0.3394  0.2755 -3.8325
  895MOL0     H23456   9.109   7.973  10.615 -0.4679  2.5250 -0.1781
  895MOL0     H23457   9.007   8.041  10.340  0.8533 -1.5219 -1.1537
  895MOL0     H23458   9.103   8.149  10.445 -1.7330  0.1541 -0.2910
  895MOL0     H23459   9.337   7.994  10.561  0.6427 -2.9314  1.5697
  895MOL0     H23460   9.586   7.783  10.411 -1.1068 -1.0811 -1.8438
  895MOL0     H23461   9.570   7.918  10.525 -0.5127 -0.5634 -0.4026
  895MOL0     H23462   9.659   7.940  10.234 -4.2784 -0.9026  0.8826
  895MOL0     H23463   9.672   8.072  10.351  2.3326  0.3021 -3.3521
  895MOL0     H23464   9.795   7.967  10.503 -1.8164 -1.8972  0.6144
  895MOL0     H23465   9.807   7.818  10.405 -3.6146 -0.4969  0.1104
  895MOL0     H23466   9.898   8.010  10.220 -1.2887 -1.5492  0.1263
  895MOL0     H23467   9.946   8.074  10.383 -1.4449  2.2545 -1.5211
  895MOL0     H23468  10.112   8.112  10.240 -1.2209 -2.5648  2.8053
  895MOL0     H23469  10.271   8.259  10.096  0.5132 -1.2620 -0.6590
  895MOL0     H23470  10.371   8.151   9.992 -1.1840 -2.8828 -0.1812
  895MOL0     H23471  10.444   8.235  10.128 -0.7929  1.1020  0.7898
  895MOL0     H23472  10.808   8.030  10.036 -3.2926 -0.5108  0.8871
  895MOL0     H23473  11.039   8.129  10.051  4.3705  0.2046  1.4468
  895MOL0     H23474  11.270   8.074  10.110 -0.7056  0.1074  0.3174
  895MOL0     H23475  11.216   8.245  10.126 -1.2210 -0.2450 -0.6828
  895MOL0     H23476  11.400   8.291  10.293 -2.6487  0.0971  0.4785
  895MOL0     H23477  11.452   8.124  10.289  2.0494 -1.5242 -2.8127
  895MOL0     H23478  11.422   8.276  10.029  0.3194  0.2851  0.9024
  895MOL0     H23479  11.524   8.124  10.073  1.2869  0.4569  0.3631
  895MOL0     H23480  11.646   8.259  10.226  0.9296 -1.0815 -0.1434
  895MOL0     H23481  11.601   8.412  10.139  4.1745 -0.2908 -0.1548
  895MOL0     H23482  11.766   8.178  10.057  1.0313  0.3739  0.5688
  895MOL0     H23483  11.687   8.291   9.940  2.1990 -1.5537 -1.8226
  895MOL0     H23484  11.874   8.388  10.155  0.8722  3.3180 -0.9262
  895MOL0     H23485  11.794   8.487  10.030 -0.2162 -0.8706 -2.4594
  895MOL0     H23486  11.908   8.373   9.841 -0.5311 -3.3680 -0.1765
  895MOL0     H23487  12.009   8.283   9.958  0.0057 -0.0064 -1.0459
  895MOL0     H23488  12.111   8.471   9.848 -3.2499 -0.5887 -2.2273
  895MOL0     H23489  12.128   8.457  10.026 -0.6558  1.7112  1.4554
  895MOL0     H23490  11.022   8.078  10.485  0.3308  0.0288  0.2006
  895MOL0     H23491  10.791   7.980  10.466  1.2300  2.2672  1.7444
  895MOL0     H23492  10.444   7.763  10.270 -0.3804 -0.5435 -2.0951
  895MOL0     H23493  10.225   7.720  10.339  1.6410  0.4180  1.5165
  895MOL0     H23494   8.191   7.815  10.515  5.2584 -2.8849  1.4798
  895MOL0     H23495   7.965   7.905  10.596  0.9862  1.6922 -1.0232
  895MOL0     H23496   7.795   8.068  11.053  0.6992 -0.0876 -0.7352
  895MOL0     H23497   7.593   8.129  11.176 -1.5134 -2.3720  1.9582
  895MOL0     H23498   7.239   8.140  11.244 -0.3918 -0.3472  0.3224
  895MOL0     H23499   7.408   8.154  11.268  0.0507  1.2313 -0.4668
  895MOL0     H23500   7.434   8.239  11.031 -0.0964  0.6459 -2.9935
  895MOL0     H23501   7.313   8.328  11.117 -1.6913 -0.7969  1.1735
  895MOL0     H23502   7.249   8.255  10.887  2.4785  0.7071  1.3369
  895MOL0     H23503   7.245   8.081  10.944  3.4850 -0.0008  1.2461
  895MOL0     H23504   7.011   8.230  10.942 -0.6196 -1.4806 -1.6702
  895MOL0     H23505   7.094   8.317  11.065  1.7106  0.1844 -1.0359
  895MOL0     H23506   6.945   7.942  11.240 -4.5881 -0.8951 -2.4471
  895MOL0     H23507   7.382   7.799  11.011  0.5022  1.2932 -0.8457
  895MOL0     H23508   7.498   7.703  10.776 -1.3031 -1.1507  0.9571
  895MOL0     H23509   7.668   7.669  10.787 -1.0927 -2.1868 -1.1499
  895MOL0     H23510   7.563   7.604  10.902 -2.6985 -0.5034 -1.2404
  896MOL0     O23511   5.871   2.142   9.216  0.2139 -0.9494  0.1346
  896MOL0     C23512   5.854   2.211   9.120  0.5684 -0.8381  0.1155
  896MOL0     O23513   5.952   2.274   9.053  0.1198  0.5613 -0.3578
  896MOL0     C23514   6.078   2.266   9.114 -0.4349  0.4532 -0.1434
  896MOL0     C23515   6.151   2.147   9.090  0.6609  0.3707 -0.1231
  896MOL0     C23516   6.286   2.134   9.123 -0.1258  0.0537  0.4835
  896MOL0     C23517   6.347   2.239   9.195 -0.3711  0.3023 -0.1191
  896MOL0     O23518   6.475   2.232   9.223 -0.4453  0.2138 -0.0048
  896MOL0     C23519   6.546   2.111   9.227 -0.1208  0.3458 -0.2767
  896MOL0     C23520   6.670   2.132   9.304  0.1995 -0.3512  0.1296
  896MOL0     C23521   6.755   2.005   9.296 -0.8985 -0.2091 -0.8296
  896MOL0     C23522   6.833   1.981   9.425 -0.3966 -0.5699 -0.3046
  896MOL0     C23523   6.962   1.911   9.410  0.1473 -0.2849  0.5428
  896MOL0     C23524   7.040   1.868   9.534  0.6713 -0.1017  0.4310
  896MOL0     C23525   7.158   1.776   9.511  0.9546 -0.2374 -0.6347
  896MOL0     C23526   7.272   1.833   9.432 -0.7032  0.4142 -0.3964
  896MOL0     N23527   7.350   1.737   9.366  0.3062 -0.5058  0.0680
  896MOL0     C23528   7.435   1.650   9.418  0.1417 -0.5213  0.0263
  896MOL0     C23529   7.506   1.596   9.309  0.4599 -0.0964  0.2596
  896MOL0     C23530   7.625   1.496   9.304  0.2468 -0.0783 -0.0989
  896MOL0     C23531   7.690   1.475   9.165  0.5106  0.4670 -0.1096
  896MOL0     C23532   7.790   1.573   9.108  0.2797 -0.7683  0.3145
  896MOL0     C23533   7.927   1.574   9.171  0.1909  0.1006 -1.3509
  896MOL0     O23534   8.012   1.645   9.081  0.2730  0.6092 -0.0191
  896MOL0     C23535   8.118   1.707   9.142  0.1574  0.3086  0.1715
  896MOL0     C23536   8.148   1.836   9.087  0.1515  0.1344  0.2321
  896MOL0     C23537   8.260   1.910   9.142  0.1438 -0.7055  0.0647
  896MOL0     C23538   8.281   2.054   9.093 -0.5859 -0.1864  0.0784
  896MOL0     C23539   8.339   1.859   9.250 -0.4401 -0.8378  0.5321
  896MOL0     C23540   8.452   1.930   9.317 -0.0785 -0.9994  0.1921
  896MOL0     O23541   8.467   1.905   9.448 -1.0126  0.0762  0.5791
  896MOL0     C23542   8.556   1.965   9.534  0.1671  0.2151  1.2719
  896MOL0     C23543   8.593   2.102   9.521 -0.7996 -0.4206 -1.0056
  896MOL0     C23544   8.678   2.155   9.613  0.5025 -0.0737  0.1307
  896MOL0     C23545   8.725   2.085   9.722  0.0200  0.1362  0.4289
  896MOL0     O23546   8.805   2.140   9.820 -0.2432 -0.5802 -0.2526
  896MOL0     C23547   8.895   2.243   9.785 -0.5184  0.8790 -0.1165
  896MOL0     C23548   8.981   2.262   9.912  0.2337  0.3839 -0.1363
  896MOL0     C23549   9.025   2.406   9.914 -0.7122 -0.3904  0.0325
  896MOL0     C23550   9.124   2.441   9.807 -0.5546  1.1659  0.1315
  896MOL0     C23551   9.181   2.579   9.846 -0.6022 -0.2629 -0.2007
  896MOL0     C23552   9.075   2.693   9.845 -0.3692  0.0474  0.1200
  896MOL0     C23553   9.126   2.835   9.861  0.8084 -0.8158  0.1304
  896MOL0     C23554   9.127   2.880  10.004 -0.3995  0.3322  0.0755
  896MOL0    Cl23555   9.231   2.773  10.098  0.5580 -0.0855  0.2984
  896MOL0     C23556   8.684   1.957   9.742 -0.0931  0.2938 -0.4117
  896MOL0     C23557   8.608   1.891   9.639 -0.1795  0.9019  0.3283
  896MOL0     O23558   8.525   2.006   9.257 -0.2541 -0.0293 -0.4628
  896MOL0     C23559   8.311   1.729   9.295  0.1928 -0.2556 -0.6241
  896MOL0     C23560   8.207   1.654   9.244  0.4499  0.1728  0.2298
  896MOL0     N23561   7.448   1.644   9.196  0.0491  0.1577 -0.0901
  896MOL0     N23562   7.371   1.740   9.228 -0.0901 -0.3545  0.1376
  896MOL0     C23563   6.274   2.362   9.208 -0.5420 -0.0067  0.1414
  896MOL0     C23564   6.143   2.378   9.166  0.2537 -0.2718 -0.1676
  896MOL0     C23565   5.713   2.222   9.074  0.6230 -0.4784 -0.2643
  896MOL0     C23566   5.677   2.314   8.972 -0.3602 -0.7108  0.0066
  896MOL0     C23567   5.549   2.334   8.928  0.2015  0.2004  0.4854
  896MOL0     C23568   5.441   2.277   8.989  0.4050  0.6830 -0.2223
  896MOL0     O23569   5.319   2.314   8.952  0.2782 -0.2842 -0.0028
  896MOL0     C23570   5.205   2.246   9.005 -0.7638  0.3487 -0.1016
  896MOL0     C23571   5.101   2.354   8.970 -1.1581 -0.8516 -1.2161
  896MOL0     C23572   5.019   2.299   8.858 -0.1548  0.2476  0.2748
  896MOL0     C23573   4.977   2.412   8.770 -0.0818 -0.0295 -0.0134
  896MOL0     C23574   4.888   2.359   8.674  0.3298  0.2018  0.1877
  896MOL0     C23575   4.817   2.327   8.582 -0.6165 -0.6197  0.3462
  896MOL0     C23576   5.470   2.173   9.079  0.0669 -0.2545 -0.3220
  896MOL0     C23577   5.600   2.142   9.120  0.2021 -0.6730 -0.2119
  896MOL0     C23578   5.621   2.033   9.221 -0.4407  0.1034  0.1357
  896MOL0     H23579   6.117   2.069   9.023  0.3536  0.4723 -0.0874
  896MOL0     H23580   6.332   2.040   9.092 -0.8564 -1.2584  3.0924
  896MOL0     H23581   6.555   2.076   9.124 -4.3621 -1.0950 -0.3760
  896MOL0     H23582   6.491   2.032   9.279  1.5557  0.4778  1.8148
  896MOL0     H23583   6.725   2.216   9.261 -2.4504  2.4357  1.7641
  896MOL0     H23584   6.656   2.163   9.408  1.1620  3.3213 -0.7068
  896MOL0     H23585   6.696   1.912   9.295 -0.7244 -0.3326 -0.3042
  896MOL0     H23586   6.825   2.001   9.212  2.0520 -0.4402  1.4972
  896MOL0     H23587   6.858   2.083   9.457 -1.3170 -0.7501  1.0830
  896MOL0     H23588   6.776   1.939   9.508  0.8279  1.2469  1.5638
  896MOL0     H23589   7.026   1.972   9.344 -0.1207 -1.0467 -0.4436
  896MOL0     H23590   6.940   1.819   9.355 -0.9004 -0.0137  0.5027
  896MOL0     H23591   7.080   1.960   9.579  1.0270  1.0150 -2.0013
  896MOL0     H23592   6.963   1.828   9.600 -0.7736 -0.0930 -1.1953
  896MOL0     H23593   7.128   1.676   9.477 -0.2678  0.2453 -1.0459
  896MOL0     H23594   7.193   1.748   9.611 -2.6272 -2.1774  0.2717
  896MOL0     H23595   7.224   1.894   9.355 -0.8913  1.3467  0.4399
  896MOL0     H23596   7.337   1.895   9.495  1.4625 -0.0644 -2.0329
  896MOL0     H23597   7.450   1.626   9.523 -1.9806  1.8202  0.9617
  896MOL0     H23598   7.602   1.399   9.350  0.1198  0.0350  0.0796
  896MOL0     H23599   7.710   1.525   9.366 -1.4723 -0.2954  2.5337
  896MOL0     H23600   7.739   1.377   9.173 -1.5899 -0.5032  3.5441
  896MOL0     H23601   7.611   1.471   9.090 -0.3471 -1.6686  0.8133
  896MOL0     H23602   7.805   1.547   9.003  1.2385  1.3514 -0.1278
  896MOL0     H23603   7.741   1.671   9.114  1.1751 -0.1573 -1.6949
  896MOL0     H23604   7.917   1.612   9.274 -2.0625 -0.0877 -1.4441
  896MOL0     H23605   7.965   1.472   9.175  0.8485  0.3602 -0.6529
  896MOL0     H23606   8.079   1.874   9.013 -2.3070  0.6272  2.6328
  896MOL0     H23607   8.299   2.109   9.186 -1.6871  3.3294 -1.6010
  896MOL0     H23608   8.197   2.107   9.048  1.2733  1.3634 -1.7456
  896MOL0     H23609   8.368   2.065   9.027 -0.2877  0.5445  0.5750
  896MOL0     H23610   8.559   2.169   9.443  0.7549 -2.2516 -3.3929
  896MOL0     H23611   8.710   2.256   9.589  0.6494  0.2475  1.5809
  896MOL0     H23612   8.955   2.200   9.705 -0.8953 -3.2120  1.5563
  896MOL0     H23613   8.837   2.332   9.758 -0.9822  0.4851 -0.4369
  896MOL0     H23614   8.921   2.257  10.003 -2.0737 -0.6487 -1.6215
  896MOL0     H23615   9.059   2.187   9.901 -0.7913 -0.4533 -2.1735
  896MOL0     H23616   9.077   2.434  10.006  1.8427 -0.1790 -1.3677
  896MOL0     H23617   8.934   2.464   9.895 -1.6079 -1.9612 -0.6598
  896MOL0     H23618   9.075   2.435   9.709 -1.4498 -3.9123  0.6429
  896MOL0     H23619   9.212   2.377   9.798  0.0501  2.0002 -0.0685
  896MOL0     H23620   9.213   2.571   9.950  1.3712 -1.3706 -0.8491
  896MOL0     H23621   9.266   2.602   9.780  0.1049  2.2337  1.4352
  896MOL0     H23622   8.996   2.677   9.918 -0.2761 -0.3268  0.1441
  896MOL0     H23623   9.031   2.700   9.745 -1.1713 -1.8699  0.2895
  896MOL0     H23624   9.076   2.908   9.796  3.7597  0.9257 -0.3837
  896MOL0     H23625   9.233   2.841   9.839  1.2253  0.3213  2.2298
  896MOL0     H23626   9.025   2.889  10.042  0.6543  1.8297  2.8663
  896MOL0     H23627   9.163   2.984  10.008 -2.7626  1.3182 -1.6268
  896MOL0     H23628   8.725   1.910   9.831  0.1436  1.3224  0.0350
  896MOL0     H23629   8.579   1.787   9.653 -0.4966  1.2876  3.2804
  896MOL0     H23630   8.373   1.680   9.371 -2.0405 -0.5291  1.1255
  896MOL0     H23631   8.177   1.561   9.291 -2.2456 -1.3123 -3.8189
  896MOL0     H23632   6.329   2.433   9.268  1.9326 -3.3978  2.2836
  896MOL0     H23633   6.083   2.468   9.174 -0.7995 -0.7776 -1.8480
  896MOL0     H23634   5.756   2.379   8.934  0.0675 -0.1311  1.8164
  896MOL0     H23635   5.512   2.399   8.850 -0.7564 -0.6656  0.1927
  896MOL0     H23636   5.179   2.147   8.966 -0.0885  0.4302 -0.7886
  896MOL0     H23637   5.215   2.256   9.114  2.5628 -0.3841 -0.2287
  896MOL0     H23638   5.151   2.448   8.945  0.5426 -1.9183 -1.9805
  896MOL0     H23639   5.035   2.366   9.056  0.1237  0.5458 -0.3627
  896MOL0     H23640   5.077   2.227   8.799  3.5460  2.2773  1.0989
  896MOL0     H23641   4.924   2.265   8.900 -1.8501  0.5934 -2.9457
  896MOL0     H23642   5.056   2.468   8.720 -1.0302  0.0546 -1.4532
  896MOL0     H23643   4.912   2.469   8.837 -1.1494 -0.9268 -0.2340
  896MOL0     H23644   4.749   2.315   8.500  0.1205  4.4123 -1.3138
  896MOL0     H23645   5.393   2.110   9.122  1.4430 -2.2001 -0.6109
  896MOL0     H23646   5.641   2.084   9.316  0.4517 -0.8713  0.4750
  896MOL0     H23647   5.528   1.984   9.252 -1.2997  1.3672 -0.3369
  896MOL0     H23648   5.687   1.955   9.185  0.5666  2.4048 -3.4856
  897MOL0     O23649   8.613   2.417   3.127 -0.1221 -0.4580  0.3375
  897MOL0     C23650   8.702   2.347   3.170  0.1653 -0.5667  0.6106
  897MOL0     O23651   8.736   2.223   3.126  0.7635  0.2279 -0.3165
  897MOL0     C23652   8.692   2.172   3.005  0.2334 -0.5943 -0.1633
  897MOL0     C23653   8.785   2.151   2.895  0.8899 -0.6124 -0.4238
  897MOL0     C23654   8.731   2.098   2.774  0.2340 -0.1373  0.6868
  897MOL0     C23655   8.597   2.059   2.769  0.0611 -0.6481  0.9039
  897MOL0     O23656   8.521   2.000   2.669  1.0900 -0.6519  1.0795
  897MOL0     C23657   8.597   1.960   2.551  0.0899 -0.6336  0.6776
  897MOL0     C23658   8.507   1.953   2.420  0.7316  0.4209 -0.0620
  897MOL0     C23659   8.380   1.871   2.430  0.0063 -0.9273  0.3548
  897MOL0     C23660   8.412   1.734   2.477 -0.0082  0.3701  0.1522
  897MOL0     C23661   8.294   1.640   2.485 -0.4786  0.2173  0.1619
  897MOL0     C23662   8.338   1.520   2.574  0.7675  0.3450  0.4400
  897MOL0     C23663   8.232   1.403   2.580 -0.8959 -0.0137 -0.7707
  897MOL0     C23664   8.198   1.350   2.441  0.4055  1.0168 -0.3461
  897MOL0     N23665   8.313   1.315   2.360 -0.3177  0.1238 -0.6394
  897MOL0     C23666   8.331   1.378   2.234 -0.3268 -0.4588  0.3009
  897MOL0     C23667   8.421   1.290   2.175  0.2066 -1.1557  0.4057
  897MOL0     C23668   8.484   1.318   2.034  0.4902  0.2319  0.0309
  897MOL0     C23669   8.621   1.247   2.021  1.4383 -0.3856 -0.3194
  897MOL0     C23670   8.722   1.278   2.139  0.4018 -0.2301  0.0495
  897MOL0     C23671   8.870   1.267   2.101 -0.0656 -0.3171 -0.9628
  897MOL0     O23672   8.943   1.275   2.227 -0.6303  0.5791  0.8971
  897MOL0     C23673   9.062   1.352   2.230 -0.5171 -0.6395 -0.7426
  897MOL0     C23674   9.096   1.397   2.358 -1.0572 -0.8464 -0.0566
  897MOL0     C23675   9.193   1.500   2.370 -0.1984  0.5465  0.5289
  897MOL0     C23676   9.203   1.546   2.515 -0.3381 -0.0550  0.0908
  897MOL0     C23677   9.272   1.546   2.262 -0.0535 -0.6583 -0.8520
  897MOL0     C23678   9.372   1.650   2.279 -0.7282  0.2073  1.2585
  897MOL0     O23679   9.419   1.682   2.402  0.5538  0.3408  0.0294
  897MOL0     C23680   9.494   1.792   2.420  0.0021 -0.2190  0.2998
  897MOL0     C23681   9.457   1.919   2.368  0.0884  0.6638 -0.3698
  897MOL0     C23682   9.523   2.036   2.409  0.2964  0.0646 -0.0221
  897MOL0     C23683   9.638   2.022   2.484 -0.9217  1.2956 -0.3218
  897MOL0     O23684   9.722   2.118   2.514  0.1967 -0.7295  0.2960
  897MOL0     C23685   9.661   2.248   2.527 -0.1672 -0.1298  1.2330
  897MOL0     C23686   9.740   2.317   2.632  0.0530 -0.3941  0.2824
  897MOL0     C23687   9.723   2.467   2.640 -1.7401 -0.5015  0.5705
  897MOL0     C23688   9.814   2.509   2.761 -0.5221  0.6830 -0.3487
  897MOL0     C23689   9.801   2.655   2.778 -0.0300 -0.3133  0.3839
  897MOL0     C23690   9.874   2.744   2.661  1.2784 -0.9740  0.2821
  897MOL0     C23691   9.858   2.892   2.692 -0.4310 -0.4752  0.0294
  897MOL0     C23692   9.958   2.966   2.590  1.1022 -0.2960 -0.1655
  897MOL0    Cl23693   9.918   2.929   2.418  0.4069 -0.1858 -0.4731
  897MOL0     C23694   9.667   1.900   2.542 -0.3023 -0.7092  0.3146
  897MOL0     C23695   9.600   1.786   2.509 -0.6220  0.6259  0.4361
  897MOL0     O23696   9.403   1.702   2.170 -0.3336  0.3154  0.2648
  897MOL0     C23697   9.237   1.496   2.135  0.1274  0.8173  0.8193
  897MOL0     C23698   9.144   1.386   2.122 -0.2898 -0.6291  0.3234
  897MOL0     N23699   8.440   1.179   2.252 -0.2191 -0.4849 -0.5111
  897MOL0     N23700   8.377   1.193   2.364  0.4875 -0.4911  0.1606
  897MOL0     C23701   8.517   2.074   2.882 -0.4979  0.4117 -0.0383
  897MOL0     C23702   8.556   2.129   3.006 -0.5499 -0.1266  0.0717
  897MOL0     C23703   8.780   2.399   3.284 -0.5810  0.7368  0.4329
  897MOL0     C23704   8.846   2.304   3.365 -0.1447 -0.3256  0.3152
  897MOL0     C23705   8.934   2.347   3.467 -0.1453  0.3957  1.1490
  897MOL0     C23706   8.960   2.481   3.490 -0.4665 -0.0685  0.5636
  897MOL0     O23707   9.065   2.510   3.581  0.1075 -0.4629 -0.1534
  897MOL0     C23708   9.190   2.523   3.504 -0.0149  0.2743  0.3270
  897MOL0     C23709   9.319   2.539   3.587  0.7023 -0.0817  0.0757
  897MOL0     C23710   9.330   2.665   3.659 -0.2634 -0.3798  0.6410
  897MOL0     C23711   9.365   2.800   3.587 -0.5691  0.1198 -0.2083
  897MOL0     C23712   9.506   2.796   3.547  0.4139  0.1735  0.6653
  897MOL0     C23713   9.611   2.808   3.498 -0.4633 -0.9905 -0.4487
  897MOL0     C23714   8.902   2.574   3.409 -0.3463 -0.5591  0.8891
  897MOL0     C23715   8.815   2.537   3.307  0.1779  0.1841  0.2172
  897MOL0     C23716   8.771   2.646   3.208  0.7811  0.4242  0.7513
  897MOL0     H23717   8.886   2.189   2.890  1.2492 -1.6355 -2.6403
  897MOL0     H23718   8.805   2.098   2.694 -0.1361  1.7323  0.2876
  897MOL0     H23719   8.646   1.866   2.579 -0.3938 -0.2096  3.1247
  897MOL0     H23720   8.676   2.032   2.528  0.2270 -0.3297  2.0475
  897MOL0     H23721   8.488   2.058   2.399  1.9521  0.8136  0.6892
  897MOL0     H23722   8.566   1.919   2.334 -1.1779 -0.9970 -0.8844
  897MOL0     H23723   8.310   1.922   2.497  0.7128 -1.2351  1.3466
  897MOL0     H23724   8.333   1.866   2.332  0.0298 -1.8170  0.3763
  897MOL0     H23725   8.479   1.686   2.406  0.4146 -3.0793  2.6246
  897MOL0     H23726   8.457   1.743   2.576 -0.6172  1.4915  0.3478
  897MOL0     H23727   8.251   1.616   2.387 -2.3788  1.9567  0.4886
  897MOL0     H23728   8.212   1.688   2.540  0.5288  1.3381  0.7236
  897MOL0     H23729   8.434   1.482   2.537  0.7381  1.6556 -1.0819
  897MOL0     H23730   8.353   1.550   2.678 -2.2745 -1.2925  1.4961
  897MOL0     H23731   8.146   1.438   2.637 -0.6476  0.8477 -0.8943
  897MOL0     H23732   8.276   1.326   2.643 -2.4886 -1.6155 -1.5355
  897MOL0     H23733   8.134   1.265   2.468 -0.2483  1.7328  0.3880
  897MOL0     H23734   8.135   1.409   2.374  0.0563 -0.0971 -1.0384
  897MOL0     H23735   8.301   1.475   2.197 -0.1994 -1.0292 -1.3453
  897MOL0     H23736   8.491   1.423   2.004  0.4066  1.4060  3.6480
  897MOL0     H23737   8.411   1.267   1.969  0.3058 -0.8807  1.0770
  897MOL0     H23738   8.602   1.139   2.020 -0.7514 -0.0564 -0.9433
  897MOL0     H23739   8.658   1.294   1.930  1.8845 -1.9294 -0.9744
  897MOL0     H23740   8.707   1.377   2.183 -3.0807 -0.7521  0.2654
  897MOL0     H23741   8.689   1.212   2.220 -2.2763 -0.8760 -1.4430
  897MOL0     H23742   8.899   1.175   2.050  0.7318 -1.2402  1.0581
  897MOL0     H23743   8.881   1.355   2.037 -0.0111 -0.8115 -1.6434
  897MOL0     H23744   9.047   1.369   2.451 -1.2922 -0.4645 -0.0611
  897MOL0     H23745   9.205   1.655   2.516 -0.7933 -0.0038  2.5963
  897MOL0     H23746   9.298   1.520   2.563  0.2851  0.9165 -0.5725
  897MOL0     H23747   9.125   1.517   2.587 -0.3235  1.5353  0.7840
  897MOL0     H23748   9.366   1.932   2.311 -0.6828  4.2502  1.3512
  897MOL0     H23749   9.477   2.129   2.377 -4.3294 -1.9956 -0.0828
  897MOL0     H23750   9.671   2.313   2.439  1.0971  1.1051  2.2489
  897MOL0     H23751   9.555   2.247   2.554 -0.0249  0.0257  1.8012
  897MOL0     H23752   9.713   2.270   2.728  1.4196 -1.0480  0.3712
  897MOL0     H23753   9.847   2.296   2.623 -0.1121 -2.6426  2.2923
  897MOL0     H23754   9.618   2.491   2.662 -1.1616  0.3765  2.5799
  897MOL0     H23755   9.743   2.523   2.548  0.2374  0.0571  1.2823
  897MOL0     H23756   9.921   2.487   2.756 -0.5744  0.7614 -3.0731
  897MOL0     H23757   9.771   2.459   2.848  0.2955 -1.1415 -0.9476
  897MOL0     H23758   9.695   2.683   2.787  0.4319  2.4012 -1.4212
  897MOL0     H23759   9.851   2.670   2.874  2.6801 -0.3551 -0.9490
  897MOL0     H23760   9.831   2.715   2.565 -0.0428 -1.7294  1.0665
  897MOL0     H23761   9.981   2.722   2.659  1.7899  1.1977  0.7386
  897MOL0     H23762   9.910   2.920   2.784  1.5338  0.2383 -1.2212
  897MOL0     H23763   9.758   2.934   2.682  0.3659  1.1494 -1.8888
  897MOL0     H23764  10.059   2.933   2.616  0.0702  0.1290  5.7255
  897MOL0     H23765   9.951   3.075   2.583  2.6892 -0.1939 -0.4710
  897MOL0     H23766   9.756   1.904   2.603 -0.6568  0.2278  0.7885
  897MOL0     H23767   9.624   1.687   2.546  2.0208  0.8814 -0.3784
  897MOL0     H23768   9.282   1.533   2.043  2.7163 -1.2334  1.1348
  897MOL0     H23769   9.148   1.342   2.023  1.9076  0.2652 -0.0458
  897MOL0     H23770   8.411   2.050   2.884 -1.1013  2.4297 -2.7465
  897MOL0     H23771   8.500   2.145   3.097 -0.7821  0.2157 -0.1272
  897MOL0     H23772   8.843   2.197   3.350 -2.7051 -0.4714  1.3605
  897MOL0     H23773   8.976   2.264   3.523  3.9301  1.1493 -0.4652
  897MOL0     H23774   9.208   2.426   3.457  0.8934  1.4782 -1.9381
  897MOL0     H23775   9.193   2.603   3.430 -0.8102  1.7382  1.8066
  897MOL0     H23776   9.401   2.550   3.516  0.1229  1.7471 -0.3553
  897MOL0     H23777   9.332   2.460   3.662 -0.2573 -0.4701 -0.1499
  897MOL0     H23778   9.233   2.688   3.704  0.3143  2.7255  0.5005
  897MOL0     H23779   9.405   2.643   3.735  0.6965  1.1568  0.1832
  897MOL0     H23780   9.361   2.885   3.656 -1.7674 -1.6339  2.0324
  897MOL0     H23781   9.301   2.815   3.500  1.3565 -0.7296 -1.8840
  897MOL0     H23782   9.711   2.831   3.466 -0.1043  0.4345  1.5405
  897MOL0     H23783   8.936   2.676   3.423  2.3256 -1.1082 -0.7084
  897MOL0     H23784   8.810   2.745   3.231  0.4244  0.1727  2.5284
  897MOL0     H23785   8.805   2.618   3.107  0.6156  1.8000  0.2908
  897MOL0     H23786   8.662   2.649   3.205  0.4060 -4.0824  1.7714
  898MOL0     O23787   6.149  11.231   5.819  0.2051 -0.7656  0.6122
  898MOL0     C23788   6.098  11.330   5.765 -0.7919 -0.1488  0.0775
  898MOL0     O23789   6.120  11.463   5.800 -0.3723 -0.5229 -0.0316
  898MOL0     C23790   6.247  11.477   5.855  0.0085 -1.1251  0.1623
  898MOL0     C23791   6.256  11.512   5.989  0.5038 -0.3141 -0.2690
  898MOL0     C23792   6.379  11.529   6.049  0.0354  0.1327  0.0980
  898MOL0     C23793   6.496  11.512   5.978 -0.0281 -0.2336 -0.2601
  898MOL0     O23794   6.612  11.545   6.032 -0.2591  0.1218 -0.4579
  898MOL0     C23795   6.636  11.472   6.159  0.3394 -0.3779  0.0605
  898MOL0     C23796   6.779  11.468   6.219  1.0608  0.3749  0.1800
  898MOL0     C23797   6.849  11.604   6.225 -0.2160  0.4294  0.4345
  898MOL0     C23798   6.983  11.584   6.289 -0.2174  0.0585  0.4146
  898MOL0     C23799   7.021  11.710   6.376  0.6735  0.3391 -0.2794
  898MOL0     C23800   7.102  11.817   6.307  0.2604 -0.1236 -1.0163
  898MOL0     C23801   7.124  11.949   6.384  0.7615  0.7697  0.1079
  898MOL0     C23802   7.180  11.925   6.527 -0.3651 -0.5338  0.5858
  898MOL0     N23803   7.303  11.848   6.528 -0.2041 -0.2809 -0.3944
  898MOL0     C23804   7.434  11.890   6.536  0.5182  0.2619 -0.4979
  898MOL0     C23805   7.513  11.785   6.562  0.0041 -0.2403 -0.1085
  898MOL0     C23806   7.660  11.787   6.544 -0.4604  0.1915 -0.3277
  898MOL0     C23807   7.728  11.887   6.639  1.0731 -0.3643  0.6894
  898MOL0     C23808   7.878  11.888   6.625  0.2562 -0.3222  0.5811
  898MOL0     C23809   7.929  11.951   6.493  0.1210  0.9208  0.2613
  898MOL0     O23810   8.066  11.907   6.494  0.3484  0.5587 -0.5664
  898MOL0     C23811   8.160  11.970   6.420  0.0157 -0.2800 -0.0558
  898MOL0     C23812   8.141  12.078   6.340 -0.4232  0.4241 -0.0075
  898MOL0     C23813   8.245  12.138   6.260  0.2119  0.0086 -0.1783
  898MOL0     C23814   8.203  12.253   6.172  0.6862 -0.5487  1.6234
  898MOL0     C23815   8.367  12.064   6.262 -1.2140 -0.9436 -0.0658
  898MOL0     C23816   8.488  12.122   6.196 -0.0016  0.0471 -0.3669
  898MOL0     O23817   8.578  12.039   6.136 -0.0637  0.1163 -0.6909
  898MOL0     C23818   8.702  12.096   6.118 -0.1550  0.1257 -0.4305
  898MOL0     C23819   8.720  12.189   6.026 -0.3380  0.3686  0.0278
  898MOL0     C23820   8.838  12.257   6.016  0.2044 -0.1773  0.8057
  898MOL0     C23821   8.953  12.213   6.085 -0.3330 -0.9358 -0.4328
  898MOL0     O23822   9.075  12.280   6.067 -0.3861 -0.2808 -0.0405
  898MOL0     C23823   9.200  12.202   6.083  0.3023 -0.5041  0.0319
  898MOL0     C23824   9.288  12.248   5.964 -0.6403 -0.6507  0.4947
  898MOL0     C23825   9.229  12.241   5.826  0.5526 -0.2165  0.1039
  898MOL0     C23826   9.289  12.347   5.739 -0.1086  0.3923 -0.0968
  898MOL0     C23827   9.248  12.305   5.598 -0.0740 -0.6724 -0.2564
  898MOL0     C23828   9.285  12.412   5.501 -0.4174 -0.4535  0.0473
  898MOL0     C23829   9.269  12.362   5.351 -0.4000 -0.0068  0.2508
  898MOL0     C23830   9.302  12.468   5.250  0.2255  0.0259  0.1879
  898MOL0    Cl23831   9.341  12.372   5.113  0.0809  0.0828 -0.0050
  898MOL0     C23832   8.940  12.099   6.161 -0.5495 -0.1776  0.7471
  898MOL0     C23833   8.811  12.047   6.183 -0.0274 -0.0208  0.3640
  898MOL0     O23834   8.495  12.248   6.200 -0.2233  0.3816 -0.2683
  898MOL0     C23835   8.395  11.967   6.350 -0.6614  0.5150 -0.0444
  898MOL0     C23836   8.293  11.921   6.436  0.2981 -0.2093  1.0961
  898MOL0     N23837   7.428  11.674   6.577 -0.3702 -0.3558 -0.5455
  898MOL0     N23838   7.309  11.724   6.567  0.1246  0.3840 -0.7583
  898MOL0     C23839   6.496  11.471   5.843 -0.1684 -0.2647 -0.1693
  898MOL0     C23840   6.371  11.469   5.784  0.8657 -0.1299  0.8183
  898MOL0     C23841   5.982  11.316   5.668  0.1216 -0.0666  0.8487
  898MOL0     C23842   5.985  11.404   5.572  0.2370  0.8594 -1.0093
  898MOL0     C23843   5.878  11.402   5.483  1.5180  0.7077  0.0585
  898MOL0     C23844   5.774  11.308   5.493 -1.2283  0.3948 -0.4131
  898MOL0     O23845   5.690  11.301   5.390 -0.1216 -0.3779  0.3173
  898MOL0     C23846   5.545  11.323   5.407  0.2523  0.0569  0.3213
  898MOL0     C23847   5.488  11.300   5.265 -0.1062  0.6731  1.2768
  898MOL0     C23848   5.549  11.372   5.150  0.4717  0.0057 -0.4190
  898MOL0     C23849   5.452  11.406   5.040  0.5250 -0.3291 -0.2495
  898MOL0     C23850   5.520  11.478   4.937 -0.0622 -0.5617  0.4587
  898MOL0     C23851   5.575  11.540   4.849  0.6008 -0.4828 -0.4669
  898MOL0     C23852   5.769  11.227   5.605  0.0420  0.2970  1.1556
  898MOL0     C23853   5.878  11.227   5.694 -0.0804 -0.3284 -0.0597
  898MOL0     C23854   5.884  11.134   5.814  1.0333 -0.4762  0.2534
  898MOL0     H23855   6.162  11.520   6.041  0.3763  0.0909 -0.5516
  898MOL0     H23856   6.388  11.559   6.153 -2.5045  0.0605  0.4039
  898MOL0     H23857   6.600  11.369   6.148  0.2942 -0.2769 -0.7538
  898MOL0     H23858   6.578  11.530   6.232 -1.3848 -3.5131  1.3812
  898MOL0     H23859   6.769  11.429   6.321  0.1047  3.7863  1.5244
  898MOL0     H23860   6.837  11.397   6.160  2.1202  0.1623  1.4389
  898MOL0     H23861   6.852  11.632   6.119 -1.6145 -4.8139 -1.2710
  898MOL0     H23862   6.777  11.666   6.280 -0.6007  1.8001 -1.4892
  898MOL0     H23863   6.974  11.504   6.363  1.7437 -0.8451 -0.2662
  898MOL0     H23864   7.054  11.554   6.212 -0.5693 -0.3142  0.2328
  898MOL0     H23865   7.079  11.675   6.462  2.4976  1.8968 -0.7982
  898MOL0     H23866   6.940  11.744   6.440  0.5629 -0.7586  0.1859
  898MOL0     H23867   7.200  11.780   6.274  1.4577 -2.0275  3.7669
  898MOL0     H23868   7.034  11.850   6.228 -2.4895 -1.4272  0.6504
  898MOL0     H23869   7.026  11.997   6.394  0.2813 -0.2091  0.2141
  898MOL0     H23870   7.183  12.017   6.323 -1.5448  1.4651 -1.5034
  898MOL0     H23871   7.205  12.020   6.575  0.0678 -0.3913  0.0817
  898MOL0     H23872   7.108  11.885   6.600  1.2646 -0.9476  2.0398
  898MOL0     H23873   7.463  11.994   6.531 -1.0148  0.7338 -0.1990
  898MOL0     H23874   7.677  11.812   6.439 -1.7043  1.1532 -0.3287
  898MOL0     H23875   7.698  11.687   6.566 -3.0750 -0.6922  0.5849
  898MOL0     H23876   7.690  11.987   6.616  5.0402  0.8725 -1.3728
  898MOL0     H23877   7.693  11.867   6.740  2.2644 -0.5987  1.0801
  898MOL0     H23878   7.922  11.951   6.702 -0.2393  0.0253  0.5852
  898MOL0     H23879   7.920  11.787   6.631  0.5427 -0.3021 -0.7215
  898MOL0     H23880   7.873  11.917   6.405 -2.8540  0.3712  2.2098
  898MOL0     H23881   7.924  12.059   6.507 -0.2145  0.8466  0.7255
  898MOL0     H23882   8.042  12.120   6.325  0.9557  3.0104 -2.8039
  898MOL0     H23883   8.094  12.257   6.163  0.7915  0.9270  0.6758
  898MOL0     H23884   8.231  12.233   6.068 -3.4107 -0.9640  0.4189
  898MOL0     H23885   8.245  12.351   6.198  2.6124 -0.6530 -0.7039
  898MOL0     H23886   8.639  12.216   5.959  0.8977 -0.0162 -1.7012
  898MOL0     H23887   8.854  12.343   5.952  0.8650 -1.1873 -0.4418
  898MOL0     H23888   9.250  12.224   6.178  2.1646 -1.9825 -0.5486
  898MOL0     H23889   9.188  12.094   6.074 -1.7937 -0.1718 -2.4640
  898MOL0     H23890   9.306  12.352   5.994 -1.3294 -0.5329  0.5295
  898MOL0     H23891   9.385  12.200   5.973  0.7143  2.1963  2.6534
  898MOL0     H23892   9.120  12.249   5.825  0.3650 -1.2358  2.8717
  898MOL0     H23893   9.240  12.141   5.782 -1.3652 -0.4873  0.1619
  898MOL0     H23894   9.398  12.338   5.733 -0.0764  0.6156  0.1705
  898MOL0     H23895   9.249  12.444   5.767  0.5456  0.6625 -0.0928
  898MOL0     H23896   9.303  12.213   5.578  1.5743 -0.0935  1.3833
  898MOL0     H23897   9.142  12.280   5.599  0.0744 -1.3051 -0.1208
  898MOL0     H23898   9.386  12.446   5.521  0.2726 -2.3680  0.0006
  898MOL0     H23899   9.210  12.490   5.517 -2.8302 -2.5851 -0.1175
  898MOL0     H23900   9.166  12.327   5.339 -0.5987 -0.9425  3.7434
  898MOL0     H23901   9.351  12.290   5.348  2.7785  3.2200  2.1024
  898MOL0     H23902   9.399  12.514   5.271  1.0312 -1.1188 -0.8670
  898MOL0     H23903   9.214  12.532   5.248  0.2193  0.0113 -0.1079
  898MOL0     H23904   9.023  12.058   6.217 -0.6539 -1.3921  0.0369
  898MOL0     H23905   8.796  11.968   6.255 -0.6750  0.7741  1.1117
  898MOL0     H23906   8.489  11.913   6.350 -1.2904 -0.6057 -0.1504
  898MOL0     H23907   8.319  11.839   6.502 -1.4158 -0.5919  1.3454
  898MOL0     H23908   6.591  11.459   5.792  2.6574 -1.0454  4.7257
  898MOL0     H23909   6.355  11.438   5.682 -1.6461  0.3493  0.9798
  898MOL0     H23910   6.063  11.479   5.558  0.9814  0.1754 -0.6192
  898MOL0     H23911   5.891  11.473   5.402 -0.5225 -0.9032 -1.7799
  898MOL0     H23912   5.505  11.247   5.474 -1.9378  0.3946 -0.5194
  898MOL0     H23913   5.516  11.424   5.436 -3.8138 -1.6921  3.2980
  898MOL0     H23914   5.385  11.334   5.269 -0.7130 -0.9812  0.5958
  898MOL0     H23915   5.494  11.193   5.248 -0.1540  0.7745  0.5985
  898MOL0     H23916   5.592  11.458   5.202 -1.7306  2.1196 -1.9002
  898MOL0     H23917   5.620  11.305   5.099  0.5512  1.2218 -1.9841
  898MOL0     H23918   5.369  11.466   5.077 -0.0893 -0.7127 -0.9837
  898MOL0     H23919   5.406  11.321   4.990 -1.9335  0.2088  0.9369
  898MOL0     H23920   5.624  11.593   4.770  0.6486  1.7449  0.9760
  898MOL0     H23921   5.681  11.167   5.627  0.4728 -1.2078 -0.8596
  898MOL0     H23922   5.781  11.109   5.841  0.4185  0.7616 -0.8447
  898MOL0     H23923   5.942  11.042   5.800  1.2801 -0.5409  1.6321
  898MOL0     H23924   5.923  11.198   5.893  1.6607 -0.7979  0.2112
  899MOL0     O23925   6.941   0.542   4.326 -0.6237  0.1976  0.0077
  899MOL0     C23926   7.030   0.524   4.241  0.6244  0.2619 -0.3587
  899MOL0     O23927   7.159   0.540   4.264  0.4296 -0.2548 -0.4186
  899MOL0     C23928   7.213   0.597   4.384 -0.0118 -0.0145 -0.7733
  899MOL0     C23929   7.336   0.538   4.422 -0.2739 -0.4368  0.0389
  899MOL0     C23930   7.408   0.585   4.531  0.2672  0.4079 -0.2560
  899MOL0     C23931   7.356   0.688   4.608 -0.3679  0.1840  0.3929
  899MOL0     O23932   7.421   0.719   4.726  0.1016 -0.2738 -0.0318
  899MOL0     C23933   7.386   0.842   4.795  1.3841 -0.1964  1.0102
  899MOL0     C23934   7.469   0.845   4.927  0.2792  0.5470  0.3080
  899MOL0     C23935   7.411   0.745   5.032  0.9078  0.2424 -0.1159
  899MOL0     C23936   7.498   0.738   5.157 -0.3022  0.0035 -0.5634
  899MOL0     C23937   7.422   0.720   5.296  0.1780 -0.1214  0.2502
  899MOL0     C23938   7.383   0.860   5.362  0.2233 -0.0765 -0.1460
  899MOL0     C23939   7.285   0.833   5.482  1.1739 -0.1832  0.1903
  899MOL0     C23940   7.263   0.969   5.553 -0.2583  0.5296 -0.1724
  899MOL0     N23941   7.177   0.981   5.672 -0.2730 -0.8220 -0.2272
  899MOL0     C23942   7.039   0.957   5.660  0.2112 -0.7980 -0.4115
  899MOL0     C23943   6.993   1.004   5.785  0.5040  0.4612  0.5786
  899MOL0     C23944   6.844   1.005   5.823 -0.4555 -0.1609 -0.1618
  899MOL0     C23945   6.761   1.064   5.715  0.1882 -0.6564  0.3237
  899MOL0     C23946   6.779   1.212   5.690 -0.4330 -0.1277  0.3806
  899MOL0     C23947   6.886   1.247   5.582  1.1445  1.0515  1.1778
  899MOL0     O23948   6.831   1.175   5.466  0.0299 -0.1125 -0.1715
  899MOL0     C23949   6.925   1.148   5.373  0.7913  0.2385  0.2392
  899MOL0     C23950   6.876   1.077   5.259  0.1672 -0.3897 -0.6841
  899MOL0     C23951   6.959   1.070   5.144  0.2447 -0.5415 -0.5787
  899MOL0     C23952   6.895   1.032   5.013  0.4029 -0.5954 -0.1835
  899MOL0     C23953   7.094   1.118   5.136  0.1299  0.3393 -0.0848
  899MOL0     C23954   7.180   1.116   5.010 -0.2300 -0.7603 -0.8124
  899MOL0     O23955   7.280   1.210   5.015 -0.2381  0.1358 -0.7157
  899MOL0     C23956   7.336   1.261   4.901 -1.2749 -0.4368 -0.5643
  899MOL0     C23957   7.473   1.248   4.874  0.0189 -0.0641 -0.5783
  899MOL0     C23958   7.536   1.284   4.751 -0.4174  0.0286  0.3046
  899MOL0     C23959   7.454   1.335   4.649  0.4894  0.0362 -0.8065
  899MOL0     O23960   7.511   1.361   4.533  0.6197  0.0324  0.2512
  899MOL0     C23961   7.428   1.413   4.421  0.1449 -0.3790 -0.4591
  899MOL0     C23962   7.501   1.400   4.287 -0.1427  0.2704 -0.1342
  899MOL0     C23963   7.648   1.455   4.278 -0.0975 -0.1660 -0.2872
  899MOL0     C23964   7.730   1.420   4.153  0.6302 -0.6506  0.1420
  899MOL0     C23965   7.854   1.510   4.146  0.5612 -1.3290  0.4304
  899MOL0     C23966   7.935   1.491   4.017 -0.0834 -1.2757 -0.0932
  899MOL0     C23967   7.989   1.633   3.985  0.1461 -0.2713 -0.5033
  899MOL0     C23968   8.076   1.650   3.859 -0.4632 -0.0677 -0.6648
  899MOL0    Cl23969   8.241   1.592   3.879  0.3049  0.1286 -0.2081
  899MOL0     C23970   7.318   1.361   4.678  0.7621  0.2816 -0.2486
  899MOL0     C23971   7.259   1.328   4.805 -0.8985  0.6209  0.9453
  899MOL0     O23972   7.153   1.037   4.915 -0.4972 -0.8912 -1.0110
  899MOL0     C23973   7.138   1.182   5.254 -0.9750  0.5010  0.2795
  899MOL0     C23974   7.060   1.198   5.367  0.5856  0.7153 -0.0951
  899MOL0     N23975   7.098   1.053   5.859  0.0217 -0.3196 -0.5438
  899MOL0     N23976   7.205   1.047   5.794 -0.1360  0.0915  0.1772
  899MOL0     C23977   7.225   0.735   4.577 -0.1143 -0.3290 -1.3780
  899MOL0     C23978   7.155   0.698   4.467 -0.5593 -1.1320 -0.2917
  899MOL0     C23979   6.997   0.480   4.108 -0.0233  0.6928 -0.2794
  899MOL0     C23980   7.037   0.556   4.000 -0.3729 -0.0114 -0.0102
  899MOL0     C23981   6.997   0.519   3.869 -0.1180 -0.6572 -0.6031
  899MOL0     C23982   6.923   0.403   3.851  0.1391  0.6906 -1.0167
  899MOL0     O23983   6.881   0.348   3.735 -0.7276 -0.2778 -0.0716
  899MOL0     C23984   6.958   0.366   3.619 -0.0638 -0.3728  0.6325
  899MOL0     C23985   7.084   0.274   3.630 -0.0204 -0.3576 -0.8037
  899MOL0     C23986   7.179   0.302   3.517  0.0833  0.5591 -0.5288
  899MOL0     C23987   7.130   0.239   3.386 -0.1601 -0.4335 -0.7101
  899MOL0     C23988   7.040   0.330   3.313 -0.4576  0.4905 -0.3539
  899MOL0     C23989   6.962   0.412   3.269 -0.0963 -0.7685  0.1998
  899MOL0     C23990   6.891   0.324   3.963  0.2612 -0.1208  0.6306
  899MOL0     C23991   6.922   0.367   4.085 -0.8870 -0.4464 -0.6720
  899MOL0     C23992   6.877   0.278   4.198 -0.8988  1.1482 -0.0019
  899MOL0     H23993   7.375   0.457   4.361 -1.4769  0.7183 -2.3590
  899MOL0     H23994   7.503   0.539   4.555 -0.9313 -0.9804  2.4242
  899MOL0     H23995   7.281   0.844   4.823  0.8418  1.5286 -0.9508
  899MOL0     H23996   7.400   0.928   4.729  1.8899 -0.6682  0.4902
  899MOL0     H23997   7.573   0.809   4.929  0.7005  1.6810  3.0451
  899MOL0     H23998   7.473   0.944   4.972 -1.2249  1.0113 -0.5322
  899MOL0     H23999   7.317   0.795   5.060  2.1813  1.6324  1.9438
  899MOL0     H24000   7.386   0.647   4.991 -1.0357  0.4709  0.3890
  899MOL0     H24001   7.572   0.660   5.140 -0.0691  0.0964 -0.0153
  899MOL0     H24002   7.555   0.831   5.166  2.1312 -1.5338  0.8251
  899MOL0     H24003   7.478   0.653   5.362 -1.7093 -2.7163 -0.6313
  899MOL0     H24004   7.332   0.663   5.271  0.0893 -0.2565  0.8643
  899MOL0     H24005   7.477   0.905   5.395 -0.2505  0.5821  0.3172
  899MOL0     H24006   7.325   0.915   5.286 -3.1340 -3.7247 -0.5528
  899MOL0     H24007   7.324   0.765   5.559 -0.9539 -0.1870  1.3448
  899MOL0     H24008   7.185   0.796   5.456  0.8286 -0.7397  2.1272
  899MOL0     H24009   7.361   0.991   5.598  0.0577  1.0695 -1.0990
  899MOL0     H24010   7.234   1.027   5.465 -0.1470  0.2640 -0.3859
  899MOL0     H24011   6.971   0.932   5.579 -0.8863  3.4089 -1.0234
  899MOL0     H24012   6.828   1.049   5.922 -0.5775  0.2479 -0.3634
  899MOL0     H24013   6.814   0.901   5.841  0.2308 -0.2094  0.7527
  899MOL0     H24014   6.774   1.005   5.624  1.5176 -0.8500  0.6154
  899MOL0     H24015   6.658   1.054   5.752  0.1476  0.6987  0.6299
  899MOL0     H24016   6.684   1.257   5.663  0.2333  1.1132  0.0155
  899MOL0     H24017   6.815   1.253   5.785  2.5509 -1.1292 -0.1796
  899MOL0     H24018   6.901   1.352   5.555  1.5547  0.6348 -0.3066
  899MOL0     H24019   6.976   1.202   5.625  0.2001 -0.3228  1.8137
  899MOL0     H24020   6.770   1.057   5.250  0.6531 -4.3744  0.5802
  899MOL0     H24021   6.922   1.107   4.938 -2.9966  1.1557  0.1330
  899MOL0     H24022   6.785   1.032   5.015  0.3340 -3.3190  1.1316
  899MOL0     H24023   6.919   0.929   4.985 -4.6802 -1.6350 -1.7386
  899MOL0     H24024   7.534   1.205   4.952 -1.9205 -3.0589 -0.5353
  899MOL0     H24025   7.640   1.267   4.727 -0.7608 -0.8699 -0.6182
  899MOL0     H24026   7.337   1.351   4.423 -0.6214  0.6932  1.6248
  899MOL0     H24027   7.396   1.516   4.438  1.2447 -0.0806 -0.1061
  899MOL0     H24028   7.511   1.295   4.260 -0.6996  0.0897  0.3391
  899MOL0     H24029   7.431   1.447   4.216 -1.7453 -1.0400  0.5201
  899MOL0     H24030   7.709   1.415   4.359  1.2650 -3.8460 -2.8587
  899MOL0     H24031   7.631   1.563   4.284 -0.0638 -0.0677 -1.6913
  899MOL0     H24032   7.664   1.432   4.066  2.7029  0.7314 -1.3258
  899MOL0     H24033   7.753   1.313   4.154 -2.2413 -1.4100 -1.7131
  899MOL0     H24034   7.806   1.608   4.154 -1.2788 -2.2952  1.7776
  899MOL0     H24035   7.919   1.495   4.233  2.0769  1.7456 -0.0117
  899MOL0     H24036   7.868   1.467   3.934 -1.2989 -0.6463  0.6773
  899MOL0     H24037   8.012   1.415   4.034 -0.9469 -2.2527 -0.4276
  899MOL0     H24038   8.032   1.671   4.079  1.5105 -3.9942  0.5683
  899MOL0     H24039   7.903   1.698   3.966 -1.1185 -0.6858  2.9444
  899MOL0     H24040   8.075   1.755   3.826 -1.7416  0.3471  0.6268
  899MOL0     H24041   8.023   1.594   3.782 -2.6576 -2.0302  2.0930
  899MOL0     H24042   7.247   1.410   4.612  0.1247 -0.9565 -0.5021
  899MOL0     H24043   7.159   1.362   4.832 -1.7624  0.9116 -2.2341
  899MOL0     H24044   7.238   1.223   5.251 -0.8637  0.2856 -3.5601
  899MOL0     H24045   7.118   1.247   5.444  1.6285  2.8031 -2.0575
  899MOL0     H24046   7.187   0.811   4.645 -3.8191 -2.2635 -0.9986
  899MOL0     H24047   7.067   0.753   4.437  0.1809  1.5493  2.0522
  899MOL0     H24048   7.106   0.638   4.017 -2.7264  1.9159  0.7985
  899MOL0     H24049   7.024   0.591   3.792 -0.8299  0.3125  0.0204
  899MOL0     H24050   6.899   0.340   3.531 -0.5011 -2.4038  1.4774
  899MOL0     H24051   6.980   0.471   3.600 -1.2053  0.2961  2.7054
  899MOL0     H24052   7.034   0.177   3.625 -1.3457 -0.0276  2.7569
  899MOL0     H24053   7.139   0.295   3.723 -1.2202  2.4046 -0.6311
  899MOL0     H24054   7.204   0.407   3.498  0.1038  0.8837  1.1338
  899MOL0     H24055   7.270   0.253   3.552  0.5913  1.7530 -0.1148
  899MOL0     H24056   7.068   0.154   3.417 -3.1054  2.0386  0.8323
  899MOL0     H24057   7.218   0.213   3.326 -0.6505  0.4362 -1.8514
  899MOL0     H24058   6.891   0.478   3.223  0.7719 -0.9863 -1.5730
  899MOL0     H24059   6.850   0.223   3.957 -2.2612  0.9083 -0.9448
  899MOL0     H24060   6.802   0.343   4.244 -1.0499 -1.2780  3.5288
  899MOL0     H24061   6.840   0.180   4.166 -0.7422  1.2963 -0.6628
  899MOL0     H24062   6.961   0.265   4.266 -2.1735  3.4578  2.1721
  900MOL0     O24063   9.623   3.403   6.737 -0.4400 -0.6958  0.3890
  900MOL0     C24064   9.605   3.306   6.805  0.4542  0.3232  0.9917
  900MOL0     O24065   9.691   3.248   6.892  0.1252 -0.1827  0.3303
  900MOL0     C24066   9.818   3.295   6.905  0.0067  0.4152  0.4348
  900MOL0     C24067   9.908   3.292   6.800 -1.3604 -0.6937  0.1820
  900MOL0     C24068  10.045   3.330   6.827 -0.5567  0.4317  0.0389
  900MOL0     C24069  10.099   3.365   6.953 -0.0751  1.0672  0.1953
  900MOL0     O24070  10.232   3.393   6.970 -0.0706  0.1233  0.1866
  900MOL0     C24071  10.283   3.410   7.100 -0.8365  0.5336 -0.2847
  900MOL0     C24072  10.431   3.447   7.093 -0.5773  0.2913 -0.2599
  900MOL0     C24073  10.474   3.490   7.233 -0.5125  0.4565 -1.3189
  900MOL0     C24074  10.612   3.557   7.240 -0.8727 -0.4746  0.2888
  900MOL0     C24075  10.729   3.450   7.237 -0.6387  0.3362 -0.0379
  900MOL0     C24076  10.864   3.520   7.238 -0.5445 -0.0671  0.4256
  900MOL0     C24077  10.909   3.592   7.112 -0.2725 -0.2838  0.0755
  900MOL0     C24078  11.061   3.633   7.111 -0.3051  0.0656 -0.3227
  900MOL0     N24079  11.096   3.722   6.994  0.8516 -0.4870 -0.8525
  900MOL0     C24080  11.079   3.865   7.009 -0.3295  0.7258 -0.7062
  900MOL0     C24081  11.148   3.919   6.908  0.6604  1.1374 -0.0723
  900MOL0     C24082  11.181   4.062   6.877 -0.0750 -0.1191  0.0951
  900MOL0     C24083  11.316   4.103   6.929  0.4211 -0.0462 -0.4486
  900MOL0     C24084  11.363   4.056   7.072 -0.0320  0.5250 -0.0779
  900MOL0     C24085  11.518   4.061   7.104 -0.2292  0.2186  0.1194
  900MOL0     O24086  11.597   3.997   7.001  0.3179 -0.4809 -0.0617
  900MOL0     C24087  11.730   3.993   7.028 -0.1904 -0.7423 -0.2137
  900MOL0     C24088  11.790   3.870   7.023  0.2386 -0.0990  0.2251
  900MOL0     C24089  11.928   3.856   7.026  0.3652 -1.0338  0.3370
  900MOL0     C24090  11.982   3.717   7.024  0.3007  0.6463 -0.9754
  900MOL0     C24091  12.008   3.968   7.041 -0.4572  0.4828  0.2601
  900MOL0     C24092  12.162   3.962   7.059 -0.1560 -0.1665 -0.4847
  900MOL0     O24093  12.210   4.068   7.114 -0.9285  0.4797 -0.4121
  900MOL0     C24094  12.311   4.065   7.210  0.3221 -0.2074  0.0720
  900MOL0     C24095  12.444   4.110   7.173 -0.9413 -0.6799 -0.7680
  900MOL0     C24096  12.544   4.113   7.272  0.0351 -0.6793 -0.1279
  900MOL0     C24097  12.524   4.078   7.407  0.1178  0.6182  2.1051
  900MOL0     O24098  12.627   4.087   7.494 -0.5554 -0.1631  0.2696
  900MOL0     C24099  12.651   4.221   7.526 -0.2308  0.1616  0.4753
  900MOL0     C24100  12.772   4.230   7.626 -0.2630  1.1288 -0.6218
  900MOL0     C24101  12.726   4.194   7.770  0.3220  0.0825  0.1581
  900MOL0     C24102  12.843   4.166   7.858 -0.3105 -0.2104  0.0941
  900MOL0     C24103  12.789   4.095   7.981 -0.1109 -0.1801 -0.4470
  900MOL0     C24104  12.715   4.183   8.081 -0.1198 -1.2793 -0.0975
  900MOL0     C24105  12.754   4.334   8.089  1.2010 -0.5453 -0.5896
  900MOL0     C24106  12.686   4.403   8.199  0.1735 -0.3599 -0.8249
  900MOL0    Cl24107  12.719   4.580   8.194 -0.2965 -0.1668  0.0469
  900MOL0     C24108  12.401   4.016   7.433  0.2767  0.3269  0.2295
  900MOL0     C24109  12.293   4.011   7.340  0.4793  0.0984  0.7316
  900MOL0     O24110  12.231   3.862   7.026 -0.2157 -0.5170 -0.4047
  900MOL0     C24111  11.945   4.089   7.044 -0.2978  0.9650 -0.1721
  900MOL0     C24112  11.812   4.104   7.049  1.4110  0.6837 -0.7348
  900MOL0     N24113  11.217   3.816   6.840  0.1996  0.3536 -1.0208
  900MOL0     N24114  11.188   3.701   6.889  0.8135 -0.0278  0.3351
  900MOL0     C24115  10.000   3.375   7.050 -0.5791 -0.2802 -0.5688
  900MOL0     C24116   9.865   3.339   7.029 -0.3070 -0.9287  0.3819
  900MOL0     C24117   9.472   3.240   6.798 -1.0519 -0.1490 -0.0104
  900MOL0     C24118   9.463   3.105   6.818 -0.5012 -0.4978  0.0087
  900MOL0     C24119   9.347   3.034   6.806  0.2546  1.1256 -0.5282
  900MOL0     C24120   9.228   3.093   6.778  1.0574 -0.4639 -0.3023
  900MOL0     O24121   9.118   3.024   6.778 -0.0697  0.1586  0.5322
  900MOL0     C24122   9.113   2.907   6.688  0.0589  0.2315  0.1719
  900MOL0     C24123   9.057   2.946   6.558 -0.1958  0.1403 -0.3229
  900MOL0     C24124   8.916   3.007   6.558 -0.3740 -0.3118  0.0225
  900MOL0     C24125   8.887   3.022   6.406  0.8049 -0.1424 -0.2482
  900MOL0     C24126   8.748   3.070   6.398  0.4453 -0.8397 -0.8675
  900MOL0     C24127   8.629   3.097   6.380  0.2829 -0.1519  0.1641
  900MOL0     C24128   9.231   3.234   6.754  0.7598  0.0908 -0.2184
  900MOL0     C24129   9.347   3.305   6.764 -0.8297 -0.1841  0.0586
  900MOL0     C24130   9.353   3.455   6.755 -0.3530 -0.6815 -0.0738
  900MOL0     H24131   9.886   3.256   6.700  1.4636 -0.0070 -0.7840
  900MOL0     H24132  10.113   3.339   6.743 -1.9658  2.2052 -1.0006
  900MOL0     H24133  10.274   3.310   7.144  3.0580 -0.3280 -1.1074
  900MOL0     H24134  10.216   3.483   7.147 -2.9312 -0.2968 -1.8195
  900MOL0     H24135  10.490   3.360   7.061  2.1940  1.9812 -0.1129
  900MOL0     H24136  10.438   3.533   7.025 -2.3362  0.8961  0.2635
  900MOL0     H24137  10.397   3.558   7.271  1.0450  0.2039  2.6936
  900MOL0     H24138  10.471   3.394   7.284 -1.2070  0.3169 -1.6119
  900MOL0     H24139  10.619   3.633   7.162 -1.3083  1.0104  1.6424
  900MOL0     H24140  10.631   3.598   7.339 -0.1669 -2.7508  1.1603
  900MOL0     H24141  10.726   3.393   7.144  2.4080 -2.2118  1.2342
  900MOL0     H24142  10.721   3.382   7.323  0.0499  0.8400  0.4361
  900MOL0     H24143  10.859   3.597   7.315 -0.0012 -0.5818  0.9866
  900MOL0     H24144  10.949   3.458   7.268  1.2550  2.4337  0.8370
  900MOL0     H24145  10.849   3.683   7.105  1.4370  0.7790 -2.0057
  900MOL0     H24146  10.873   3.536   7.025  0.1644 -0.8177  0.2272
  900MOL0     H24147  11.078   3.681   7.208  2.2079 -0.2191 -0.5667
  900MOL0     H24148  11.123   3.544   7.099 -1.0508 -0.4405 -0.4444
  900MOL0     H24149  11.013   3.902   7.087  0.1439 -2.7137  1.5504
  900MOL0     H24150  11.106   4.122   6.929  0.8727  2.3220 -1.2224
  900MOL0     H24151  11.167   4.070   6.769  0.2036  3.1388  0.2113
  900MOL0     H24152  11.396   4.053   6.875  2.1128  0.4206  1.4936
  900MOL0     H24153  11.336   4.211   6.930  0.4221 -0.0240  1.3101
  900MOL0     H24154  11.303   4.106   7.148 -3.9820 -2.9735 -0.5328
  900MOL0     H24155  11.330   3.953   7.086 -1.7098  1.1975  1.2710
  900MOL0     H24156  11.561   4.161   7.101  4.0142 -1.3957 -2.3077
  900MOL0     H24157  11.547   4.031   7.206  0.4149  0.5854  0.0478
  900MOL0     H24158  11.731   3.784   6.992 -2.1977  1.3357  0.6404
  900MOL0     H24159  12.044   3.708   6.934  0.6181  3.7685 -1.1643
  900MOL0     H24160  11.909   3.637   7.036 -0.6110  1.3523 -1.7031
  900MOL0     H24161  12.049   3.716   7.110  0.1594  1.7148 -0.8473
  900MOL0     H24162  12.466   4.144   7.072 -2.0791  2.4766 -0.0695
  900MOL0     H24163  12.641   4.146   7.236 -0.4514  1.2835  0.2004
  900MOL0     H24164  12.658   4.292   7.443 -0.4315 -1.1839 -0.7425
  900MOL0     H24165  12.565   4.256   7.583 -0.0560  0.2558  0.6810
  900MOL0     H24166  12.855   4.165   7.599 -0.9528  0.1890 -0.5371
  900MOL0     H24167  12.807   4.333   7.643  2.3036 -0.1724  3.2632
  900MOL0     H24168  12.664   4.104   7.767 -1.2864  1.1805 -1.2888
  900MOL0     H24169  12.650   4.268   7.799  0.3875  1.1928 -2.2594
  900MOL0     H24170  12.892   4.262   7.878  2.1449 -0.9537 -1.9145
  900MOL0     H24171  12.910   4.101   7.803 -1.8772 -0.3754 -1.7058
  900MOL0     H24172  12.719   4.018   7.949 -1.4474  1.3047 -1.1971
  900MOL0     H24173  12.876   4.043   8.022  0.3826 -0.2148 -1.4972
  900MOL0     H24174  12.731   4.150   8.184  0.4199  1.8414  0.9316
  900MOL0     H24175  12.611   4.175   8.050 -0.2263  0.4915 -0.3206
  900MOL0     H24176  12.703   4.382   8.005  1.2160  1.4907  0.5181
  900MOL0     H24177  12.862   4.345   8.097  0.8791  1.2653  4.2364
  900MOL0     H24178  12.720   4.360   8.294 -1.7692 -0.1187  0.0257
  900MOL0     H24179  12.578   4.386   8.199 -0.8873  4.7748 -1.7645
  900MOL0     H24180  12.408   3.966   7.528 -0.9140  0.3025  0.3211
  900MOL0     H24181  12.197   3.961   7.352 -0.1198  0.8058 -0.7928
  900MOL0     H24182  12.013   4.173   7.057  1.1794 -0.0828 -0.7861
  900MOL0     H24183  11.771   4.204   7.054 -0.6313 -0.0907 -0.9913
  900MOL0     H24184  10.028   3.398   7.152 -2.9481 -2.6428  0.7535
  900MOL0     H24185   9.791   3.339   7.108 -0.3955 -1.4754  0.3000
  900MOL0     H24186   9.559   3.057   6.831 -0.9522 -2.1385 -2.1109
  900MOL0     H24187   9.345   2.926   6.815 -1.4799  1.1831  0.2284
  900MOL0     H24188   9.212   2.871   6.658 -0.5206 -0.4321 -0.9905
  900MOL0     H24189   9.055   2.828   6.736 -0.8981 -0.9532 -2.7535
  900MOL0     H24190   9.055   2.860   6.491 -1.0202 -1.2532  1.4091
  900MOL0     H24191   9.133   3.016   6.522  1.9821 -1.1525  1.4369
  900MOL0     H24192   8.846   2.933   6.599  0.1543 -0.2127  1.1361
  900MOL0     H24193   8.901   3.100   6.613 -1.4695 -0.6359  0.3083
  900MOL0     H24194   8.884   2.923   6.359 -4.4962 -1.1811  1.6135
  900MOL0     H24195   8.961   3.094   6.371  0.9249  0.9053  2.0243
  900MOL0     H24196   8.524   3.111   6.362  0.4026 -1.0063 -1.2967
  900MOL0     H24197   9.130   3.272   6.746 -0.0793 -2.1431 -1.3003
  900MOL0     H24198   9.256   3.505   6.748 -0.2083 -0.6350 -3.9306
  900MOL0     H24199   9.402   3.497   6.843  0.5127 -0.6164 -0.5795
  900MOL0     H24200   9.411   3.483   6.666 -1.8042  0.9563 -0.5656
  901MOL0     O24201   1.662   7.182   2.431  0.1778  0.3732  0.5517
  901MOL0     C24202   1.641   7.280   2.361  0.8015  0.1570  1.3497
  901MOL0     O24203   1.720   7.397   2.362 -0.0679  0.1175 -0.4978
  901MOL0     C24204   1.837   7.418   2.429  0.6390 -0.1645 -0.5164
  901MOL0     C24205   1.875   7.345   2.544 -0.9930 -0.8650 -0.7996
  901MOL0     C24206   2.001   7.384   2.597  0.8834  0.5819  0.5984
  901MOL0     C24207   2.089   7.484   2.557  1.1117 -0.2057  0.0305
  901MOL0     O24208   2.195   7.520   2.640 -0.0960 -1.3375 -0.0246
  901MOL0     C24209   2.259   7.647   2.615 -0.8016  0.3178 -0.3622
  901MOL0     C24210   2.398   7.642   2.685 -0.2900 -0.7890 -0.7413
  901MOL0     C24211   2.481   7.537   2.618 -0.7567  0.0379  0.3124
  901MOL0     C24212   2.611   7.513   2.688 -0.6525 -0.6867  0.3749
  901MOL0     C24213   2.681   7.408   2.602  1.4677 -0.5337 -0.0202
  901MOL0     C24214   2.783   7.335   2.684 -0.2518  0.1411  0.0511
  901MOL0     C24215   2.902   7.296   2.595  0.1677  0.1437  1.3086
  901MOL0     C24216   2.958   7.156   2.622 -0.1610 -0.0960  0.5359
  901MOL0     N24217   3.083   7.108   2.555  0.4282  0.3172 -0.4044
  901MOL0     C24218   3.124   6.974   2.562  0.4878  0.1470 -0.0970
  901MOL0     C24219   3.253   6.970   2.532  0.1420  0.5587  0.1091
  901MOL0     C24220   3.333   6.849   2.522 -0.3108  0.2132 -0.8052
  901MOL0     C24221   3.357   6.775   2.662  0.4658  0.0376 -0.2563
  901MOL0     C24222   3.467   6.670   2.649 -0.7503  0.5556  0.7004
  901MOL0     C24223   3.480   6.584   2.775  0.2991 -0.9498  0.5722
  901MOL0     O24224   3.597   6.491   2.772 -0.4078 -0.0025 -0.5591
  901MOL0     C24225   3.732   6.528   2.771 -0.4808  0.1772 -0.1438
  901MOL0     C24226   3.769   6.650   2.812 -0.1318 -0.0694  0.7485
  901MOL0     C24227   3.907   6.682   2.820  0.2510 -0.3292 -0.8383
  901MOL0     C24228   3.948   6.820   2.861  1.1915  0.1844 -0.4522
  901MOL0     C24229   4.003   6.583   2.799  0.6977  0.5911  0.0969
  901MOL0     C24230   4.148   6.601   2.819 -0.1498  0.8504  0.1422
  901MOL0     O24231   4.224   6.533   2.731 -0.9215 -0.3375 -0.9822
  901MOL0     C24232   4.363   6.547   2.748 -0.1131 -0.8499  0.7060
  901MOL0     C24233   4.445   6.442   2.792  0.2730 -0.3890  0.4854
  901MOL0     C24234   4.579   6.458   2.806  0.3702  0.4719 -0.3825
  901MOL0     C24235   4.643   6.582   2.780  0.1158  0.0320  0.7181
  901MOL0     O24236   4.784   6.596   2.788 -0.1845  0.4503 -0.3421
  901MOL0     C24237   4.865   6.480   2.764 -0.2355 -0.5344 -0.7430
  901MOL0     C24238   5.010   6.533   2.740  0.2411  0.7282  0.8933
  901MOL0     C24239   5.078   6.576   2.861 -0.5226  0.1570  0.1838
  901MOL0     C24240   5.225   6.624   2.839 -0.0833 -0.7410  0.3319
  901MOL0     C24241   5.323   6.534   2.931  0.1230 -0.5218  0.4660
  901MOL0     C24242   5.469   6.570   2.926 -0.4449 -0.3067 -0.6396
  901MOL0     C24243   5.528   6.566   2.781  0.6948 -0.1750  1.0958
  901MOL0     C24244   5.684   6.597   2.777  0.6234  0.2143 -0.1156
  901MOL0    Cl24245   5.770   6.446   2.811 -0.1499 -0.1509 -0.0756
  901MOL0     C24246   4.566   6.684   2.724  0.3490 -0.2801 -0.5594
  901MOL0     C24247   4.429   6.672   2.709  0.6937 -0.1655  0.9438
  901MOL0     O24248   4.199   6.677   2.902 -0.0189  0.2632 -0.0339
  901MOL0     C24249   3.954   6.454   2.765  0.5986  0.7658 -0.6312
  901MOL0     C24250   3.819   6.425   2.749  0.3344 -0.1937 -0.1056
  901MOL0     N24251   3.295   7.094   2.508 -0.0952  0.5071  0.7083
  901MOL0     N24252   3.201   7.176   2.518 -0.7012 -0.5015  0.0898
  901MOL0     C24253   2.049   7.556   2.444 -0.2657 -0.0738 -0.4413
  901MOL0     C24254   1.929   7.516   2.386 -0.1646 -0.6213  0.0298
  901MOL0     C24255   1.516   7.278   2.280 -0.2985  0.0216 -0.7971
  901MOL0     C24256   1.508   7.377   2.177 -0.3240 -0.5535 -0.6016
  901MOL0     C24257   1.403   7.372   2.092 -0.6709 -0.7239  0.9478
  901MOL0     C24258   1.305   7.269   2.105 -0.0660  0.1877  1.2661
  901MOL0     O24259   1.204   7.256   2.014 -0.6903  0.5163 -0.1698
  901MOL0     C24260   1.218   7.159   1.917  0.5658  0.5629  0.4005
  901MOL0     C24261   1.141   7.032   1.949 -0.3982 -0.1704 -0.5903
  901MOL0     C24262   0.995   7.056   1.989 -0.2509  0.4545 -0.4153
  901MOL0     C24263   0.938   7.002   2.122 -0.6945  0.1565 -0.2676
  901MOL0     C24264   0.896   6.864   2.097 -0.8677  0.7216  0.7825
  901MOL0     C24265   0.859   6.754   2.056 -0.6105 -0.0284 -0.9079
  901MOL0     C24266   1.302   7.182   2.210 -0.2737 -0.2212 -0.6087
  901MOL0     C24267   1.409   7.190   2.306  0.6863 -0.1142  0.0999
  901MOL0     C24268   1.407   7.104   2.428  0.5790  0.5394  0.7422
  901MOL0     H24269   1.819   7.265   2.592 -0.3801  0.1422  1.7391
  901MOL0     H24270   2.037   7.342   2.690  1.6631  4.7538  2.4102
  901MOL0     H24271   2.199   7.726   2.663 -0.4366  2.1961 -2.8110
  901MOL0     H24272   2.289   7.669   2.512  0.1992  0.0356 -0.1372
  901MOL0     H24273   2.453   7.736   2.697  1.3108 -1.9169  1.5866
  901MOL0     H24274   2.387   7.612   2.790  2.4412  1.6405  0.4035
  901MOL0     H24275   2.429   7.441   2.613  0.9999 -0.9469  0.2848
  901MOL0     H24276   2.506   7.576   2.519 -0.1482 -0.5146  0.2480
  901MOL0     H24277   2.670   7.604   2.697  1.7067 -2.2096  1.2626
  901MOL0     H24278   2.597   7.463   2.785  1.4489 -3.8092 -0.7571
  901MOL0     H24279   2.737   7.472   2.533  0.0878  0.5594 -0.1656
  901MOL0     H24280   2.619   7.342   2.541 -0.5295  2.4534 -1.4694
  901MOL0     H24281   2.813   7.405   2.763 -1.9609  0.0322  0.8379
  901MOL0     H24282   2.748   7.246   2.737  1.1207  0.0033  0.7615
  901MOL0     H24283   2.974   7.377   2.606  1.0356  0.0332 -2.1916
  901MOL0     H24284   2.881   7.303   2.488  0.9409 -1.7272  0.9854
  901MOL0     H24285   2.987   7.162   2.727 -1.2477 -2.1344  1.0078
  901MOL0     H24286   2.874   7.087   2.611 -1.1743  0.0299  5.2154
  901MOL0     H24287   3.064   6.889   2.593 -0.1011  1.5108  2.9253
  901MOL0     H24288   3.427   6.885   2.478 -0.5536  0.0478 -1.4560
  901MOL0     H24289   3.291   6.765   2.467 -0.9136 -1.6337  2.2448
  901MOL0     H24290   3.385   6.852   2.735  3.5123  1.1421 -2.4120
  901MOL0     H24291   3.264   6.724   2.687  1.5833 -1.3822  1.2246
  901MOL0     H24292   3.454   6.601   2.566 -0.6956  2.8685 -1.3484
  901MOL0     H24293   3.559   6.717   2.613 -0.3911  0.2056  1.1526
  901MOL0     H24294   3.491   6.653   2.859  0.2921 -1.0163  0.6278
  901MOL0     H24295   3.381   6.541   2.791  0.5936 -2.4381 -1.2250
  901MOL0     H24296   3.696   6.728   2.830  0.2996  1.2059 -2.4984
  901MOL0     H24297   4.054   6.842   2.846  0.7496  2.8702 -0.0107
  901MOL0     H24298   3.924   6.832   2.966  3.9286  2.4662  0.0398
  901MOL0     H24299   3.895   6.896   2.803  0.9439 -0.3540 -0.9578
  901MOL0     H24300   4.396   6.348   2.818 -0.6148  0.9236  4.0809
  901MOL0     H24301   4.628   6.373   2.853 -1.9067 -0.5695  0.2597
  901MOL0     H24302   4.855   6.413   2.850 -2.2406  1.7771  0.9655
  901MOL0     H24303   4.834   6.432   2.671 -1.2582 -2.3311  0.4636
  901MOL0     H24304   5.070   6.449   2.704 -1.2750 -0.8797  1.9758
  901MOL0     H24305   5.028   6.609   2.663  0.5831 -0.2253  0.0121
  901MOL0     H24306   5.065   6.496   2.935 -0.7635  1.3527  1.4884
  901MOL0     H24307   5.021   6.662   2.901  0.1086  0.0692  1.3190
  901MOL0     H24308   5.244   6.730   2.858 -1.2607 -0.3339 -0.6457
  901MOL0     H24309   5.248   6.615   2.732  0.1324 -0.0662  0.3150
  901MOL0     H24310   5.289   6.548   3.035  0.6451  0.3312  0.5324
  901MOL0     H24311   5.302   6.429   2.910 -2.4269 -0.2224  1.1149
  901MOL0     H24312   5.519   6.500   2.994 -1.1243 -0.7865 -0.6137
  901MOL0     H24313   5.487   6.668   2.972 -1.2728 -0.8195  0.8562
  901MOL0     H24314   5.491   6.655   2.729  3.0851 -0.9390 -2.2848
  901MOL0     H24315   5.501   6.479   2.720  0.8405 -0.5059  1.4985
  901MOL0     H24316   5.715   6.673   2.850 -3.6065  0.2737  1.8832
  901MOL0     H24317   5.707   6.651   2.685  0.5045  2.8331  1.2999
  901MOL0     H24318   4.604   6.781   2.693  0.0394 -0.0069 -0.0922
  901MOL0     H24319   4.377   6.759   2.671  0.7610  0.1096  1.4819
  901MOL0     H24320   4.025   6.374   2.747 -3.5408 -3.1363 -1.3477
  901MOL0     H24321   3.785   6.323   2.731  2.4638 -0.8884 -0.4028
  901MOL0     H24322   2.116   7.632   2.407 -1.3443  2.0744  1.7394
  901MOL0     H24323   1.904   7.575   2.298  3.0299  0.8441 -0.0438
  901MOL0     H24324   1.589   7.450   2.173  0.1217 -0.9612  0.4246
  901MOL0     H24325   1.402   7.443   2.010  0.9247 -2.4151 -0.6005
  901MOL0     H24326   1.171   7.198   1.827  1.3005  1.7399  0.5032
  901MOL0     H24327   1.319   7.128   1.889 -0.9092 -2.7200 -1.8684
  901MOL0     H24328   1.179   6.982   2.039  1.1875  2.9552  0.6295
  901MOL0     H24329   1.143   6.967   1.861  1.1341  0.5350 -1.1146
  901MOL0     H24330   0.980   7.164   1.990  0.2142  0.5541  2.0298
  901MOL0     H24331   0.938   7.008   1.909 -0.4664  1.5555 -0.9334
  901MOL0     H24332   0.849   7.058   2.149 -0.8552 -0.4058  0.3887
  901MOL0     H24333   1.018   7.008   2.197  0.9852  0.2233 -1.9832
  901MOL0     H24334   0.821   6.656   2.037 -1.7622  0.5321 -1.5703
  901MOL0     H24335   1.226   7.105   2.224 -1.8124  1.1900 -0.8110
  901MOL0     H24336   1.439   7.154   2.519 -0.9235  0.1564  1.5081
  901MOL0     H24337   1.303   7.076   2.445  0.9093 -0.4344  1.2356
  901MOL0     H24338   1.468   7.013   2.422 -1.4211 -1.0873  2.9845
  902MOL0     O24339   8.832   3.368   4.122 -0.4233  0.7113 -0.0013
  902MOL0     C24340   8.752   3.313   4.038 -0.4783  0.7186  0.6739
  902MOL0     O24341   8.796   3.234   3.934 -0.1654 -0.0327 -0.1350
  902MOL0     C24342   8.924   3.183   3.953  0.3049 -0.5414  0.5583
  902MOL0     C24343   8.953   3.091   4.051 -0.0978  0.0931 -0.5886
  902MOL0     C24344   9.082   3.044   4.068  0.1824 -0.0377 -0.0550
  902MOL0     C24345   9.185   3.098   3.994  0.3258  0.0535 -0.1526
  902MOL0     O24346   9.303   3.045   4.002  0.4794  0.1764  0.3119
  902MOL0     C24347   9.377   3.073   4.124 -0.8237 -0.7864 -1.3112
  902MOL0     C24348   9.527   3.051   4.101 -0.0219 -0.2159 -0.7478
  902MOL0     C24349   9.544   2.899   4.065 -0.3774 -0.1787 -0.2881
  902MOL0     C24350   9.577   2.859   3.918  0.1816 -0.4681  0.6935
  902MOL0     C24351   9.687   2.914   3.830  0.0888 -0.5113  0.8068
  902MOL0     C24352   9.818   2.926   3.912  0.5308 -0.2116  0.6864
  902MOL0     C24353   9.945   2.948   3.824  0.7871  1.0336  0.0707
  902MOL0     C24354   9.981   2.827   3.730 -0.3168  0.4369  0.3887
  902MOL0     N24355  10.113   2.846   3.664 -0.6836  0.3507  0.4516
  902MOL0     C24356  10.234   2.813   3.722  0.4295 -1.4677 -0.9671
  902MOL0     C24357  10.324   2.847   3.630 -0.2238  0.0433 -0.0576
  902MOL0     C24358  10.479   2.855   3.644 -0.7934 -0.5224  0.0356
  902MOL0     C24359  10.531   2.716   3.675 -0.3183 -0.2578 -0.3139
  902MOL0     C24360  10.684   2.712   3.673 -0.5427  0.6178  0.1986
  902MOL0     C24361  10.736   2.613   3.778 -0.2792 -0.6301  0.1043
  902MOL0     O24362  10.877   2.583   3.738  0.7734 -0.5611 -0.1027
  902MOL0     C24363  10.976   2.669   3.791  0.4563  0.3328  0.5006
  902MOL0     C24364  10.970   2.795   3.852 -0.0061  0.2187  0.0017
  902MOL0     C24365  11.079   2.859   3.914  0.2818  0.7196 -0.5667
  902MOL0     C24366  11.059   2.961   4.019 -0.2624 -0.5474  0.1347
  902MOL0     C24367  11.209   2.801   3.904 -0.4897 -0.7004  0.5747
  902MOL0     C24368  11.335   2.855   3.961 -0.5005  0.4292  0.1349
  902MOL0     O24369  11.443   2.765   3.974 -0.3151  0.3809 -0.7708
  902MOL0     C24370  11.563   2.831   3.977 -0.3531 -0.0817  0.3517
  902MOL0     C24371  11.639   2.814   4.093 -0.4362  0.5468 -0.4669
  902MOL0     C24372  11.764   2.877   4.107  0.4162  0.2030  0.2345
  902MOL0     C24373  11.809   2.967   4.009 -0.0455  0.3524  0.2063
  902MOL0     O24374  11.909   3.052   4.043  0.1070  0.5199 -0.2171
  902MOL0     C24375  11.948   3.169   3.975  0.0036 -0.3232  0.2927
  902MOL0     C24376  12.087   3.123   3.908  0.7276 -0.0412  0.3079
  902MOL0     C24377  12.131   3.245   3.818  0.0298 -0.4717 -0.7885
  902MOL0     C24378  12.265   3.207   3.761 -1.4659  0.5482 -0.3956
  902MOL0     C24379  12.328   3.299   3.648 -0.2221 -0.2254  0.2010
  902MOL0     C24380  12.311   3.450   3.673  0.6218 -1.0912 -0.0628
  902MOL0     C24381  12.370   3.504   3.809  0.3137 -0.3364 -0.1239
  902MOL0     C24382  12.393   3.654   3.799 -0.2083  0.2857  0.2891
  902MOL0    Cl24383  12.484   3.714   3.936 -0.0114  0.6939  0.4540
  902MOL0     C24384  11.749   2.965   3.884  0.2764  0.2965  0.0839
  902MOL0     C24385  11.619   2.901   3.869 -0.0027 -0.1695 -0.2979
  902MOL0     O24386  11.348   2.974   3.981  0.5541  0.0404  0.2073
  902MOL0     C24387  11.220   2.683   3.835  0.4360 -0.7677 -0.1915
  902MOL0     C24388  11.107   2.621   3.776 -1.1732 -0.5884  0.2368
  902MOL0     N24389  10.261   2.890   3.515  0.5462 -0.8660 -0.1367
  902MOL0     N24390  10.134   2.879   3.534  0.0424 -0.3742  0.3669
  902MOL0     C24391   9.163   3.200   3.900 -0.4908  0.2112 -0.4566
  902MOL0     C24392   9.033   3.247   3.883  0.0060 -0.5147 -0.1284
  902MOL0     C24393   8.613   3.344   4.060  0.8868 -0.8073 -0.3957
  902MOL0     C24394   8.574   3.444   4.151  0.0101  0.2256  0.1163
  902MOL0     C24395   8.445   3.500   4.174  0.1074 -0.1656 -0.1172
  902MOL0     C24396   8.341   3.436   4.116 -0.3874  0.2736 -0.4775
  902MOL0     O24397   8.217   3.493   4.118 -0.5909  0.1900  0.1062
  902MOL0     C24398   8.112   3.427   4.187 -0.3089 -0.0990 -0.1836
  902MOL0     C24399   8.144   3.362   4.324  0.9532 -0.2093  0.7099
  902MOL0     C24400   8.028   3.275   4.378 -0.5799 -0.1691 -0.5013
  902MOL0     C24401   7.900   3.360   4.421 -0.8202  0.7237 -0.3174
  902MOL0     C24402   7.781   3.279   4.419 -0.1332  0.2856 -0.4156
  902MOL0     C24403   7.673   3.215   4.425 -0.5462 -0.1485  0.0431
  902MOL0     C24404   8.363   3.321   4.025 -0.2013  0.2564 -0.0601
  902MOL0     C24405   8.496   3.285   3.990 -0.3816 -0.5552 -0.2819
  902MOL0     C24406   8.520   3.189   3.879  0.3535 -0.6560 -0.1089
  902MOL0     H24407   8.875   3.049   4.114  1.9647 -2.6339  0.3780
  902MOL0     H24408   9.106   2.963   4.138  2.7274  0.3185 -0.4018
  902MOL0     H24409   9.359   3.006   4.209  3.6712 -2.4330 -1.3991
  902MOL0     H24410   9.354   3.178   4.146 -1.8678 -0.7962 -2.2484
  902MOL0     H24411   9.551   3.108   4.011 -1.3424  0.2622 -0.8190
  902MOL0     H24412   9.586   3.083   4.188 -0.5960  0.4889 -0.6028
  902MOL0     H24413   9.632   2.871   4.123 -0.0928 -3.1333 -1.9424
  902MOL0     H24414   9.453   2.841   4.084  0.1360 -0.2788  2.2106
  902MOL0     H24415   9.580   2.749   3.913  1.7302 -0.4383  0.2712
  902MOL0     H24416   9.487   2.882   3.861 -0.3842 -0.8165  1.4220
  902MOL0     H24417   9.665   3.016   3.797 -1.2040 -0.3697  2.0088
  902MOL0     H24418   9.702   2.852   3.741  0.5957 -3.3751  2.7180
  902MOL0     H24419   9.823   2.990   4.001 -1.8358  1.5515 -0.3349
  902MOL0     H24420   9.833   2.833   3.968 -1.6281 -1.8170 -1.2416
  902MOL0     H24421  10.028   2.963   3.895  0.4993 -0.8540  0.8603
  902MOL0     H24422   9.933   3.037   3.763 -2.2192 -0.7726 -2.2170
  902MOL0     H24423   9.993   2.740   3.795  0.4479  0.9971  1.0056
  902MOL0     H24424   9.911   2.809   3.647  2.0920  1.3477 -2.0082
  902MOL0     H24425  10.261   2.790   3.825  0.8002  4.0892  0.5260
  902MOL0     H24426  10.510   2.926   3.721 -0.7242 -1.4898  0.9161
  902MOL0     H24427  10.533   2.890   3.556 -1.7816 -0.8060 -0.7036
  902MOL0     H24428  10.495   2.682   3.772 -2.3931 -0.3362 -1.0741
  902MOL0     H24429  10.494   2.657   3.590 -1.5286  0.7060 -0.4843
  902MOL0     H24430  10.737   2.690   3.580  1.8808  2.2201  1.0687
  902MOL0     H24431  10.717   2.814   3.696  2.5895  0.0272 -1.1428
  902MOL0     H24432  10.741   2.660   3.877  0.7840 -1.7388  0.6143
  902MOL0     H24433  10.668   2.527   3.783 -1.6301  0.4851  2.6367
  902MOL0     H24434  10.867   2.821   3.877 -0.6222 -1.1216 -1.0677
  902MOL0     H24435  10.967   3.010   3.986 -1.3259 -0.9315  2.3434
  902MOL0     H24436  11.139   3.034   4.037 -0.1495 -0.8292  0.8318
  902MOL0     H24437  11.037   2.911   4.114 -1.3045 -2.2856 -0.9641
  902MOL0     H24438  11.591   2.761   4.175  0.2668 -1.6034 -1.3643
  902MOL0     H24439  11.814   2.876   4.204  1.6724  0.4646 -0.3915
  902MOL0     H24440  11.874   3.203   3.902  2.6079  0.9447 -1.9335
  902MOL0     H24441  11.966   3.245   4.052 -1.2177 -0.5760  0.8390
  902MOL0     H24442  12.168   3.113   3.981  3.1023  1.5115 -1.8931
  902MOL0     H24443  12.073   3.036   3.843 -1.4079  0.4884 -0.0240
  902MOL0     H24444  12.137   3.332   3.884  0.1433 -0.5184 -0.7365
  902MOL0     H24445  12.058   3.255   3.737  0.6642 -0.1594 -1.3400
  902MOL0     H24446  12.270   3.115   3.703  5.4462 -0.3666  0.8720
  902MOL0     H24447  12.341   3.184   3.836 -0.0246 -1.9006 -2.4693
  902MOL0     H24448  12.429   3.262   3.627 -0.2327  0.1608 -0.5842
  902MOL0     H24449  12.263   3.274   3.563  0.9191 -0.1350 -0.7203
  902MOL0     H24450  12.207   3.482   3.655 -0.3440 -0.8278  4.6844
  902MOL0     H24451  12.364   3.493   3.588  0.2102  0.1133  0.2642
  902MOL0     H24452  12.463   3.450   3.827 -0.2804 -1.2681  0.2204
  902MOL0     H24453  12.316   3.483   3.901 -0.2265 -1.4452 -0.6743
  902MOL0     H24454  12.302   3.709   3.773  0.9905  1.8616 -0.8141
  902MOL0     H24455  12.457   3.671   3.712  0.2014 -0.3525  0.4592
  902MOL0     H24456  11.779   3.012   3.791  2.3526  0.5969  0.8424
  902MOL0     H24457  11.559   2.889   3.780  0.5022  1.7008 -0.9332
  902MOL0     H24458  11.314   2.632   3.815  1.1321  0.2789  0.3384
  902MOL0     H24459  11.114   2.524   3.729  1.2939 -1.1385  1.5472
  902MOL0     H24460   9.240   3.237   3.834 -0.3701 -0.6886 -0.8283
  902MOL0     H24461   9.012   3.318   3.804 -1.9340 -0.6269  0.2130
  902MOL0     H24462   8.648   3.484   4.219  1.1244 -0.6865 -0.5234
  902MOL0     H24463   8.428   3.583   4.242  4.0536  1.3294 -0.6936
  902MOL0     H24464   8.032   3.500   4.189  1.8189  2.5948 -3.2830
  902MOL0     H24465   8.065   3.353   4.122  0.9828  0.0822 -1.3800
  902MOL0     H24466   8.171   3.438   4.399  1.3039  1.8364 -1.3706
  902MOL0     H24467   8.233   3.298   4.321  1.8031  0.9438  0.2858
  902MOL0     H24468   8.003   3.201   4.302 -1.9991  1.8822 -2.1318
  902MOL0     H24469   8.073   3.233   4.468  0.0343 -0.2654 -0.8428
  902MOL0     H24470   7.890   3.443   4.351  0.7900  2.0115  0.9143
  902MOL0     H24471   7.914   3.404   4.520 -0.5043  3.4835 -1.5065
  902MOL0     H24472   7.582   3.158   4.419  0.8324 -2.2913 -2.8440
  902MOL0     H24473   8.270   3.289   3.980 -2.3351  3.3184  1.7499
  902MOL0     H24474   8.569   3.234   3.792  0.5136  0.4219  0.5238
  902MOL0     H24475   8.581   3.103   3.909 -1.1113 -1.7701 -0.2413
  902MOL0     H24476   8.424   3.144   3.853  0.6060 -1.9377  1.0516
  903MOL0     O24477   3.655   9.912   2.860  0.2037  0.2518  0.5662
  903MOL0     C24478   3.625   9.882   2.746  0.5878 -0.6117  0.1143
  903MOL0     O24479   3.708   9.832   2.657 -0.6076  1.2828 -0.4780
  903MOL0     C24480   3.833   9.794   2.700 -0.5296 -0.0084 -0.5911
  903MOL0     C24481   3.934   9.883   2.683 -0.1921 -0.5153 -0.9294
  903MOL0     C24482   4.064   9.858   2.723  0.1625 -1.1042  0.0362
  903MOL0     C24483   4.086   9.732   2.779  0.3644  0.3379  0.7981
  903MOL0     O24484   4.222   9.705   2.809  0.0830 -0.3727  0.1614
  903MOL0     C24485   4.251   9.578   2.858 -1.7148  0.4743  0.4663
  903MOL0     C24486   4.395   9.562   2.898 -0.5571 -1.2111 -0.0920
  903MOL0     C24487   4.493   9.605   2.786 -0.3079  1.0891 -0.7382
  903MOL0     C24488   4.642   9.596   2.841  0.2442  0.2647 -0.3375
  903MOL0     C24489   4.750   9.631   2.734  0.4727 -0.6401  0.0874
  903MOL0     C24490   4.723   9.749   2.637 -0.7393  0.4596 -0.2465
  903MOL0     C24491   4.691   9.883   2.701  0.3301  0.8753  0.0033
  903MOL0     C24492   4.681   9.989   2.594  0.5974 -0.2614  0.3264
  903MOL0     N24493   4.808  10.056   2.559  1.0073  0.8882 -0.1036
  903MOL0     C24494   4.864  10.057   2.432  0.8181 -0.9898  0.3056
  903MOL0     C24495   4.956  10.156   2.436 -0.3342 -0.2120  0.2392
  903MOL0     C24496   5.014  10.227   2.320  0.0038  0.4481  0.3722
  903MOL0     C24497   5.168  10.218   2.320  0.5598  0.4767 -0.3518
  903MOL0     C24498   5.242  10.270   2.201 -0.8541  0.3097 -0.2228
  903MOL0     C24499   5.404  10.263   2.213  0.5773  0.7649  0.7989
  903MOL0     O24500   5.440  10.337   2.336 -0.4434 -0.4838 -0.0237
  903MOL0     C24501   5.568  10.391   2.344 -0.4513 -0.5378 -0.8888
  903MOL0     C24502   5.590  10.488   2.448 -0.2005 -1.3604 -0.4249
  903MOL0     C24503   5.721  10.541   2.465  0.1089 -0.5283  0.0488
  903MOL0     C24504   5.733  10.626   2.590  0.5991  0.4115 -0.4639
  903MOL0     C24505   5.833  10.505   2.386 -0.0294 -0.8886 -0.2210
  903MOL0     C24506   5.967  10.560   2.402 -0.5250  0.6219  0.5626
  903MOL0     O24507   6.062  10.502   2.319  0.4476 -0.3289  0.0738
  903MOL0     C24508   6.187  10.564   2.321 -0.7067  0.3350  0.8052
  903MOL0     C24509   6.211  10.657   2.219 -0.2093  0.9181 -0.0653
  903MOL0     C24510   6.321  10.741   2.219 -0.2780 -0.6837 -0.1889
  903MOL0     C24511   6.415  10.725   2.325  0.3548 -0.2015 -0.3251
  903MOL0     O24512   6.528  10.808   2.333 -0.5446  0.0729  0.1373
  903MOL0     C24513   6.528  10.933   2.265  0.3217 -0.4160 -0.8975
  903MOL0     C24514   6.650  11.018   2.305 -0.1961  0.7829 -0.1105
  903MOL0     C24515   6.738  10.945   2.410 -1.4998  0.5257 -0.1003
  903MOL0     C24516   6.859  11.024   2.451 -0.7388 -0.3880  0.2602
  903MOL0     C24517   6.923  10.977   2.580 -0.8361 -0.3918 -0.2905
  903MOL0     C24518   7.023  11.081   2.636 -0.3286  0.2627  0.5421
  903MOL0     C24519   7.115  11.037   2.753 -1.0492 -0.2581  0.4072
  903MOL0     C24520   7.197  11.151   2.814 -0.1525 -1.1305  0.8259
  903MOL0    Cl24521   7.326  11.198   2.697  0.3683 -0.2249 -0.5350
  903MOL0     C24522   6.398  10.627   2.424 -1.0261  0.3633 -0.1730
  903MOL0     C24523   6.282  10.545   2.422  0.1713 -0.2744  0.1741
  903MOL0     O24524   5.993  10.646   2.481  0.9142 -0.2376 -0.4688
  903MOL0     C24525   5.804  10.415   2.282  0.4163 -0.1128  0.1088
  903MOL0     C24526   5.677  10.361   2.258 -0.0409  0.0739 -0.3764
  903MOL0     N24527   4.952  10.210   2.564  0.0364 -0.2623 -0.4940
  903MOL0     N24528   4.867  10.148   2.643 -0.2424 -0.5348 -0.0787
  903MOL0     C24529   3.979   9.636   2.799 -0.1103 -0.3503  0.6239
  903MOL0     C24530   3.846   9.668   2.755  0.1577 -0.4880  0.7614
  903MOL0     C24531   3.501   9.961   2.695 -1.1517  0.3133  0.4327
  903MOL0     C24532   3.451  10.070   2.768 -1.1527  0.6495 -0.9534
  903MOL0     C24533   3.339  10.141   2.727 -0.1320  0.0922  0.0095
  903MOL0     C24534   3.279  10.115   2.606 -0.8800  0.4993  0.1793
  903MOL0     O24535   3.163  10.173   2.554 -0.5742 -0.4276  0.9960
  903MOL0     C24536   3.075  10.226   2.650 -0.3421 -0.0766 -0.5828
  903MOL0     C24537   3.000  10.122   2.734  0.5756 -0.2994 -0.3342
  903MOL0     C24538   2.917  10.029   2.642  0.2936  0.2383 -0.2417
  903MOL0     C24539   2.835   9.950   2.735 -0.2153  0.0007 -0.3258
  903MOL0     C24540   2.740   9.875   2.648  0.2798  0.5860  1.2389
  903MOL0     C24541   2.660   9.811   2.589  0.2619  0.1243  0.3699
  903MOL0     C24542   3.326  10.002   2.535  0.4511  0.1707  0.1594
  903MOL0     C24543   3.434   9.928   2.576  0.3572 -0.2574  0.6490
  903MOL0     C24544   3.481   9.822   2.483 -0.8664  0.1373  0.1484
  903MOL0     H24545   3.914   9.970   2.620  0.2677 -0.3320 -0.8296
  903MOL0     H24546   4.144   9.928   2.704  0.0174 -1.5481 -2.6777
  903MOL0     H24547   4.231   9.502   2.782  1.3874 -0.2652  0.2527
  903MOL0     H24548   4.195   9.539   2.944  0.4930 -0.2107  1.6761
  903MOL0     H24549   4.419   9.609   2.994 -0.8211 -0.3073 -0.4615
  903MOL0     H24550   4.418   9.457   2.921 -0.4846 -1.3503 -0.7922
  903MOL0     H24551   4.494   9.532   2.705 -0.8321 -0.1755  0.3664
  903MOL0     H24552   4.472   9.706   2.750  0.5318  1.5626  0.0458
  903MOL0     H24553   4.660   9.659   2.929 -0.0342  0.5629 -0.4905
  903MOL0     H24554   4.662   9.492   2.866 -0.6715  0.0288 -0.5274
  903MOL0     H24555   4.753   9.543   2.670 -0.5219  0.4675 -1.5516
  903MOL0     H24556   4.843   9.641   2.790  0.4491 -1.3696  0.2607
  903MOL0     H24557   4.812   9.770   2.577  1.0129  0.6007  2.2452
  903MOL0     H24558   4.652   9.724   2.558  0.5157 -3.3757 -0.3380
  903MOL0     H24559   4.759   9.927   2.775  1.2687  0.5951 -0.6688
  903MOL0     H24560   4.599   9.878   2.761 -0.2785  2.7492 -0.6909
  903MOL0     H24561   4.635   9.945   2.505  1.1143 -0.7972  0.3281
  903MOL0     H24562   4.608  10.066   2.622  0.2179 -0.6819  0.5037
  903MOL0     H24563   4.822  10.012   2.343  1.0739  3.1989 -2.1994
  903MOL0     H24564   4.981  10.330   2.339 -1.5753 -0.3135  2.0864
  903MOL0     H24565   4.967  10.192   2.228 -0.3916  2.2849 -0.1737
  903MOL0     H24566   5.188  10.270   2.414 -1.8641  2.1552 -0.6694
  903MOL0     H24567   5.202  10.114   2.329 -0.0163  0.1082 -2.1041
  903MOL0     H24568   5.202  10.227   2.109 -2.3072  1.9423 -0.4096
  903MOL0     H24569   5.226  10.378   2.206 -1.2583  0.2187  0.9367
  903MOL0     H24570   5.438  10.159   2.221 -2.1697 -0.3197 -0.5599
  903MOL0     H24571   5.451  10.310   2.126  3.4497 -2.6158  0.2518
  903MOL0     H24572   5.504  10.519   2.507 -0.5974 -2.5568 -0.3473
  903MOL0     H24573   5.637  10.624   2.641  0.4782 -0.2418 -0.7084
  903MOL0     H24574   5.755  10.731   2.567 -0.1251  0.1664 -2.4698
  903MOL0     H24575   5.806  10.580   2.657  1.6882 -0.9872 -2.5051
  903MOL0     H24576   6.134  10.672   2.144  2.9905 -0.0864 -3.9298
  903MOL0     H24577   6.317  10.825   2.150  0.2681 -0.1773  0.3797
  903MOL0     H24578   6.541  10.914   2.158  1.1051 -1.1801 -0.6777
  903MOL0     H24579   6.437  10.992   2.280 -0.7138 -1.8866 -1.1619
  903MOL0     H24580   6.708  11.037   2.214 -2.5935 -0.4147 -1.9986
  903MOL0     H24581   6.628  11.118   2.342 -0.2538  0.2701  1.2845
  903MOL0     H24582   6.766  10.844   2.378  0.4885  0.5053  1.5641
  903MOL0     H24583   6.678  10.925   2.499  0.5131 -2.3892  0.7725
  903MOL0     H24584   6.834  11.129   2.468  1.8730  0.4782 -0.7666
  903MOL0     H24585   6.931  11.033   2.369 -4.1205 -0.6206 -3.0106
  903MOL0     H24586   6.843  10.957   2.652 -0.7786 -0.6090 -0.2862
  903MOL0     H24587   6.971  10.879   2.568 -0.8231 -0.9683  3.2496
  903MOL0     H24588   6.966  11.173   2.655 -3.4839 -0.5486 -3.6156
  903MOL0     H24589   7.090  11.097   2.551 -0.6221  0.3944  0.3370
  903MOL0     H24590   7.177  10.949   2.729 -1.9640 -0.2223 -2.5181
  903MOL0     H24591   7.044  10.999   2.826 -1.3713 -1.3679 -0.4554
  903MOL0     H24592   7.236  11.118   2.911 -2.1556  1.6174  2.7149
  903MOL0     H24593   7.137  11.239   2.839  0.5565 -0.5511  0.5352
  903MOL0     H24594   6.476  10.595   2.491 -1.5693 -0.2433  0.1766
  903MOL0     H24595   6.266  10.460   2.489  1.1849 -2.2081 -1.9074
  903MOL0     H24596   5.886  10.386   2.218 -1.1273 -3.9859 -0.3920
  903MOL0     H24597   5.668  10.288   2.178 -0.0831 -1.4194  0.9518
  903MOL0     H24598   3.987   9.535   2.838 -3.2278 -2.3909 -3.2785
  903MOL0     H24599   3.756   9.608   2.764  0.5901 -1.2349  0.1799
  903MOL0     H24600   3.502  10.092   2.862  0.4400 -1.0542 -1.3588
  903MOL0     H24601   3.300  10.222   2.789  0.9244  1.9886 -1.6619
  903MOL0     H24602   3.119  10.296   2.722 -0.7114  0.9249 -1.3050
  903MOL0     H24603   2.998  10.283   2.597 -0.5756  2.2489  1.9718
  903MOL0     H24604   2.938  10.182   2.802  0.6630  2.2693 -2.4029
  903MOL0     H24605   3.070  10.078   2.806  0.6292  1.3399  0.6743
  903MOL0     H24606   2.852  10.093   2.582 -3.3745 -1.2240  1.8302
  903MOL0     H24607   2.985   9.968   2.581 -0.0281 -1.4961  1.0605
  903MOL0     H24608   2.773  10.006   2.806  3.2494  2.1009  1.3097
  903MOL0     H24609   2.897   9.883   2.795  2.6449  1.2662 -1.6890
  903MOL0     H24610   2.603   9.737   2.538  0.6556  0.5227 -0.6882
  903MOL0     H24611   3.261   9.962   2.458 -0.4693  2.0826 -0.1124
  903MOL0     H24612   3.505   9.730   2.536 -1.5809 -0.5056 -0.6200
  903MOL0     H24613   3.418   9.798   2.397 -0.4030 -0.8884  0.0833
  903MOL0     H24614   3.567   9.858   2.424 -0.6259 -0.0348  0.3918
  904MOL0     O24615   6.692   3.281   2.495 -0.0855 -0.3236  0.1835
  904MOL0     C24616   6.733   3.243   2.381 -0.9700 -0.4899 -0.2511
  904MOL0     O24617   6.851   3.269   2.322 -0.3787 -0.3457  0.1082
  904MOL0     C24618   6.944   3.344   2.396  0.3271 -0.4047 -0.4777
  904MOL0     C24619   6.919   3.474   2.453  0.7150  0.7376  0.7509
  904MOL0     C24620   7.015   3.535   2.535  0.2899  0.2328 -0.4126
  904MOL0     C24621   7.133   3.477   2.560  0.9860 -0.6164  0.5473
  904MOL0     O24622   7.229   3.528   2.645  0.7322 -0.9155 -0.5700
  904MOL0     C24623   7.211   3.651   2.718  0.2563 -0.6922 -0.7223
  904MOL0     C24624   7.339   3.700   2.777  0.0216  0.4547 -0.5847
  904MOL0     C24625   7.306   3.819   2.878 -0.0388 -0.0031  0.1179
  904MOL0     C24626   7.416   3.846   2.977  0.0142  0.2597  1.0700
  904MOL0     C24627   7.537   3.900   2.908  0.2395 -0.8007 -0.1751
  904MOL0     C24628   7.644   3.920   3.013 -0.1859  1.2591 -0.0528
  904MOL0     C24629   7.613   4.031   3.109 -0.8165 -1.1711  0.3338
  904MOL0     C24630   7.738   4.079   3.189 -0.7772 -0.0025  0.3248
  904MOL0     N24631   7.855   4.101   3.107  0.1948 -0.3269  0.7320
  904MOL0     C24632   7.877   4.206   3.021 -0.1247 -0.7947  0.7394
  904MOL0     C24633   8.006   4.179   2.984  0.2127 -0.7118  0.2529
  904MOL0     C24634   8.104   4.258   2.904  0.3537 -0.5573  0.4515
  904MOL0     C24635   8.209   4.333   2.996 -0.4343 -0.3765 -0.0290
  904MOL0     C24636   8.306   4.414   2.905  1.0858  0.1945 -0.2512
  904MOL0     C24637   8.429   4.466   2.990 -0.0455 -0.7370 -0.0422
  904MOL0     O24638   8.382   4.561   3.091  0.2107  1.0030  1.0346
  904MOL0     C24639   8.473   4.651   3.144  0.2384 -0.1842  0.3691
  904MOL0     C24640   8.427   4.748   3.239 -0.7391  0.4863 -0.2266
  904MOL0     C24641   8.505   4.847   3.290 -0.5842 -0.1198 -0.4560
  904MOL0     C24642   8.434   4.956   3.365  0.6115 -0.8001 -0.2878
  904MOL0     C24643   8.643   4.851   3.264  0.0212 -0.8392 -0.0477
  904MOL0     C24644   8.738   4.951   3.329 -0.8279 -0.5750 -0.2867
  904MOL0     O24645   8.724   5.003   3.462 -0.0998 -1.1618  0.4368
  904MOL0     C24646   8.838   5.043   3.536 -0.3895 -0.2537 -0.8510
  904MOL0     C24647   8.977   5.012   3.506  0.1532 -0.6474 -0.1157
  904MOL0     C24648   9.083   5.037   3.604  0.0584 -0.5536  0.9207
  904MOL0     C24649   9.045   5.099   3.723 -0.7056  0.1134  0.1000
  904MOL0     O24650   9.144   5.120   3.812  0.5133 -0.2211 -0.2502
  904MOL0     C24651   9.118   5.214   3.923  0.4529  0.4581  0.1124
  904MOL0     C24652   9.243   5.268   3.995  0.2631 -0.2919 -0.1282
  904MOL0     C24653   9.304   5.164   4.087  0.3007  0.0008  0.2917
  904MOL0     C24654   9.458   5.168   4.096 -0.0996 -0.0917 -0.1102
  904MOL0     C24655   9.515   5.300   4.149 -0.4549 -0.3911  0.5603
  904MOL0     C24656   9.664   5.286   4.152 -0.0293 -0.0264  0.0911
  904MOL0     C24657   9.737   5.392   4.220 -0.4095  0.1515 -0.4948
  904MOL0     C24658   9.881   5.377   4.190 -0.5522 -0.4192  0.7897
  904MOL0    Cl24659   9.936   5.209   4.232  0.1833  0.2788 -0.1474
  904MOL0     C24660   8.909   5.113   3.750 -0.3822  0.7952 -1.1765
  904MOL0     C24661   8.814   5.092   3.661  0.2143  0.7591  0.1310
  904MOL0     O24662   8.833   4.990   3.252  0.3785  0.4492 -0.6597
  904MOL0     C24663   8.693   4.757   3.172 -0.8797 -0.4715 -0.0386
  904MOL0     C24664   8.614   4.658   3.118 -0.4063 -0.5182 -0.3029
  904MOL0     N24665   8.040   4.056   3.032  0.6258  0.3661  0.3243
  904MOL0     N24666   7.959   4.012   3.113  0.0112  0.2744  0.0554
  904MOL0     C24667   7.155   3.348   2.502  0.3171 -0.2559 -0.2395
  904MOL0     C24668   7.066   3.284   2.413 -0.2038 -1.2666  0.1474
  904MOL0     C24669   6.639   3.173   2.279 -0.0336 -0.3489  0.2229
  904MOL0     C24670   6.515   3.239   2.255  0.7167 -0.7618  0.9281
  904MOL0     C24671   6.409   3.177   2.185 -0.0511  0.3183 -0.1990
  904MOL0     C24672   6.435   3.061   2.123 -0.1405 -0.6382 -0.0081
  904MOL0     O24673   6.326   3.014   2.049 -0.5977 -0.4183  0.1123
  904MOL0     C24674   6.367   2.931   1.939  0.4458  0.0366 -0.4458
  904MOL0     C24675   6.262   2.938   1.830  0.2733 -0.1057 -0.0592
  904MOL0     C24676   6.297   2.847   1.705 -0.4674 -0.4642 -0.2453
  904MOL0     C24677   6.225   2.900   1.586  0.1868 -0.5462  0.0938
  904MOL0     C24678   6.300   2.998   1.507 -0.4220 -0.3481 -0.3972
  904MOL0     C24679   6.374   3.071   1.444  0.2513  0.0128 -0.3352
  904MOL0     C24680   6.566   2.999   2.129 -0.7969 -0.9175  0.4967
  904MOL0     C24681   6.659   3.049   2.218 -0.1909 -0.3648  0.1204
  904MOL0     C24682   6.786   2.966   2.237 -0.3284  0.0058  0.9232
  904MOL0     H24683   6.821   3.517   2.433 -0.8027 -1.1593  3.3694
  904MOL0     H24684   6.989   3.635   2.567 -0.3357  2.1042 -5.7255
  904MOL0     H24685   7.127   3.652   2.788 -1.1934  0.9219 -2.3848
  904MOL0     H24686   7.186   3.734   2.652 -0.5551 -0.2407  0.1258
  904MOL0     H24687   7.385   3.622   2.838 -4.7177 -1.6489  0.8325
  904MOL0     H24688   7.405   3.737   2.699 -1.1661  0.2649 -1.7269
  904MOL0     H24689   7.296   3.912   2.821  4.8010  1.9604  1.9511
  904MOL0     H24690   7.213   3.801   2.934 -0.5461  1.3518 -0.2609
  904MOL0     H24691   7.374   3.908   3.056 -4.5071 -1.6780  0.4609
  904MOL0     H24692   7.441   3.751   3.024  0.1997  1.7879  4.3521
  904MOL0     H24693   7.501   3.993   2.862  0.2686 -0.1355  1.1183
  904MOL0     H24694   7.570   3.831   2.830  0.0697  0.3537 -1.3047
  904MOL0     H24695   7.668   3.831   3.072  0.0770  1.0407 -0.4788
  904MOL0     H24696   7.737   3.931   2.956  0.8346  1.7875  1.6681
  904MOL0     H24697   7.530   3.998   3.173 -0.5119 -0.4053  1.1521
  904MOL0     H24698   7.575   4.121   3.061 -0.8123 -1.6033 -0.4984
  904MOL0     H24699   7.726   4.168   3.251 -0.5106  1.0524 -1.0920
  904MOL0     H24700   7.769   3.996   3.254  0.4708 -0.6217 -0.9974
  904MOL0     H24701   7.831   4.303   3.001  0.2600 -0.5083  1.2313
  904MOL0     H24702   8.055   4.333   2.842  1.7478 -1.2157 -1.5744
  904MOL0     H24703   8.155   4.196   2.830 -0.8377 -0.0202 -0.8710
  904MOL0     H24704   8.149   4.395   3.063 -1.7700 -1.2473 -0.3647
  904MOL0     H24705   8.272   4.259   3.044 -1.8013 -1.1484  0.6395
  904MOL0     H24706   8.334   4.372   2.807 -2.4695 -0.5399 -1.1167
  904MOL0     H24707   8.254   4.506   2.875  0.0653  0.4090  2.0240
  904MOL0     H24708   8.480   4.382   3.039  1.1135  0.1296  0.2649
  904MOL0     H24709   8.488   4.518   2.915  0.4256  0.0643  0.8656
  904MOL0     H24710   8.328   4.752   3.284 -0.5157  3.2563  0.2274
  904MOL0     H24711   8.479   5.052   3.337  1.9974 -1.4070 -0.2635
  904MOL0     H24712   8.445   4.937   3.472 -2.5885  0.6235  0.4031
  904MOL0     H24713   8.329   4.954   3.337  0.8986 -1.4322 -1.4129
  904MOL0     H24714   9.002   4.968   3.410  0.8965  1.7601 -1.1048
  904MOL0     H24715   9.190   5.016   3.595  0.5334  1.9828 -0.1873
  904MOL0     H24716   9.071   5.303   3.880 -0.6323 -0.5434 -0.8150
  904MOL0     H24717   9.063   5.151   3.993  2.8316 -2.3963 -0.3699
  904MOL0     H24718   9.322   5.306   3.929 -0.0765  1.6573  0.5268
  904MOL0     H24719   9.204   5.361   4.038 -1.3778 -0.8803 -0.2800
  904MOL0     H24720   9.276   5.064   4.053 -1.5602  0.0335  1.5543
  904MOL0     H24721   9.261   5.175   4.187 -0.8892  0.8325 -0.2788
  904MOL0     H24722   9.509   5.144   4.002  1.9069  1.3078  0.5535
  904MOL0     H24723   9.482   5.087   4.166  0.1181  0.2553  0.2212
  904MOL0     H24724   9.474   5.382   4.089  1.9405 -0.1126 -0.8527
  904MOL0     H24725   9.467   5.315   4.246 -2.1138  1.4504 -0.4651
  904MOL0     H24726   9.701   5.284   4.048  2.3597  0.2643  0.8669
  904MOL0     H24727   9.700   5.190   4.192  0.5788 -1.3350 -3.2419
  904MOL0     H24728   9.718   5.384   4.327  0.6139 -0.3860 -0.3401
  904MOL0     H24729   9.706   5.493   4.192  0.0923 -0.0589 -1.8686
  904MOL0     H24730   9.937   5.444   4.256  1.2318 -1.4667  0.3822
  904MOL0     H24731   9.908   5.402   4.087 -2.2295  2.0693  0.8382
  904MOL0     H24732   8.881   5.154   3.847 -0.5652  1.5446 -1.5428
  904MOL0     H24733   8.712   5.104   3.694 -0.0536 -1.0210  0.0357
  904MOL0     H24734   8.796   4.752   3.140 -0.8595  2.1241 -0.5544
  904MOL0     H24735   8.656   4.573   3.065  2.4986  0.1045  0.8164
  904MOL0     H24736   7.253   3.306   2.526  1.4139  2.6069  0.6446
  904MOL0     H24737   7.091   3.193   2.360  0.8831 -0.7603 -0.2229
  904MOL0     H24738   6.491   3.336   2.299  1.2782 -0.0081 -0.3609
  904MOL0     H24739   6.309   3.219   2.180  0.3137  1.1951 -0.2413
  904MOL0     H24740   6.460   2.944   1.881 -0.3652  1.5681 -1.4811
  904MOL0     H24741   6.367   2.829   1.976  1.8073 -0.0226 -0.5441
  904MOL0     H24742   6.242   3.043   1.808  0.7689 -0.4767 -2.5490
  904MOL0     H24743   6.163   2.918   1.873  0.5729 -1.2544  0.1236
  904MOL0     H24744   6.406   2.845   1.703 -0.4040 -2.4342  1.6370
  904MOL0     H24745   6.275   2.742   1.722  2.7231 -1.3207 -0.8347
  904MOL0     H24746   6.125   2.940   1.609  0.8357 -0.3171  2.8140
  904MOL0     H24747   6.220   2.824   1.508 -1.9915 -0.5759  0.1856
  904MOL0     H24748   6.442   3.124   1.381 -1.6357  2.6820 -0.2924
  904MOL0     H24749   6.594   2.917   2.064  0.9217  1.3377 -1.8071
  904MOL0     H24750   6.814   2.940   2.340 -1.6989 -2.1536  0.8115
  904MOL0     H24751   6.780   2.873   2.180 -0.1734  0.9722 -0.7338
  904MOL0     H24752   6.868   3.026   2.197  1.3583  0.4715  4.6378
  905MOL0     O24753   7.916   8.401   4.019  0.1555 -0.5241 -0.0431
  905MOL0     C24754   7.903   8.465   4.118  1.1638 -0.6274 -0.9783
  905MOL0     O24755   8.001   8.493   4.213 -0.5244 -0.9947 -0.1464
  905MOL0     C24756   8.109   8.414   4.196 -0.0006 -0.2971  0.0439
  905MOL0     C24757   8.122   8.314   4.291 -0.8606  0.0217 -0.0779
  905MOL0     C24758   8.240   8.241   4.301 -0.3376  0.8719  0.2230
  905MOL0     C24759   8.348   8.262   4.214  1.1198  0.2850 -0.5054
  905MOL0     O24760   8.470   8.200   4.224 -0.1853  0.4887 -0.7056
  905MOL0     C24761   8.476   8.083   4.311 -0.0838  0.6462  0.8139
  905MOL0     C24762   8.601   8.002   4.286  0.6630  0.2005 -0.6648
  905MOL0     C24763   8.728   8.060   4.350  0.2062 -0.0549  0.2016
  905MOL0     C24764   8.835   7.948   4.358  0.6047 -0.5597 -0.2914
  905MOL0     C24765   8.966   7.990   4.431  0.5251 -0.5178 -0.0381
  905MOL0     C24766   9.068   7.893   4.391 -0.3330  0.7534 -0.0916
  905MOL0     C24767   9.142   7.936   4.263  0.4529  0.3138  0.2989
  905MOL0     C24768   9.234   7.829   4.211  0.0316  0.3533  0.6522
  905MOL0     N24769   9.329   7.888   4.113 -0.5045 -0.4654 -0.1637
  905MOL0     C24770   9.281   7.930   3.990 -1.1932 -1.1901  0.4298
  905MOL0     C24771   9.395   7.969   3.923  0.1284 -0.7171 -0.5474
  905MOL0     C24772   9.392   8.023   3.781  0.0580  0.3470  0.4599
  905MOL0     C24773   9.395   7.902   3.691 -0.0863 -0.3336  1.5401
  905MOL0     C24774   9.525   7.830   3.692  0.2987  0.1930 -0.0698
  905MOL0     C24775   9.642   7.922   3.668 -0.4346  0.0219  0.4163
  905MOL0     O24776   9.750   7.839   3.629  0.5196  0.1206 -0.5792
  905MOL0     C24777   9.854   7.893   3.566 -1.1200 -0.0611  0.7948
  905MOL0     C24778   9.876   8.027   3.549  0.1037  0.0378  0.8466
  905MOL0     C24779   9.997   8.073   3.489 -0.0483 -0.2252  0.2990
  905MOL0     C24780  10.018   8.224   3.489 -0.7988  0.3540  0.7237
  905MOL0     C24781  10.098   7.984   3.443  0.2094 -1.1292  0.9271
  905MOL0     C24782  10.230   8.019   3.380  0.6471 -0.0767 -1.0488
  905MOL0     O24783  10.333   7.948   3.441  0.7018  0.1004  0.0294
  905MOL0     C24784  10.443   7.918   3.366  0.6224  0.0893 -0.6126
  905MOL0     C24785  10.564   7.891   3.428  0.6655  0.2561 -1.0232
  905MOL0     C24786  10.683   7.856   3.355 -0.0484 -0.3637 -0.0433
  905MOL0     C24787  10.681   7.867   3.219  0.2083 -0.4377 -0.2343
  905MOL0     O24788  10.793   7.839   3.153  0.1813 -0.4365 -0.5403
  905MOL0     C24789  10.816   7.706   3.095 -1.0232 -0.1338 -0.1386
  905MOL0     C24790  10.942   7.730   3.013  0.7080 -1.2676  0.3786
  905MOL0     C24791  11.058   7.742   3.103 -0.2772  0.1311 -0.7157
  905MOL0     C24792  11.187   7.762   3.027 -0.3075  0.5813  0.0621
  905MOL0     C24793  11.299   7.737   3.124  0.6735  0.3519 -0.7664
  905MOL0     C24794  11.433   7.724   3.065 -0.2554  0.2729 -0.0136
  905MOL0     C24795  11.472   7.846   2.980 -0.0831 -0.1354  0.5017
  905MOL0     C24796  11.624   7.841   2.955 -0.5489 -0.5696 -0.5911
  905MOL0    Cl24797  11.675   7.677   2.908 -0.0484  0.1185 -0.4201
  905MOL0     C24798  10.563   7.892   3.150  0.3143  0.1108 -0.5518
  905MOL0     C24799  10.444   7.916   3.224  0.2120 -0.2002 -0.1636
  905MOL0     O24800  10.236   8.099   3.290 -0.1092  0.1256 -0.7587
  905MOL0     C24801  10.072   7.851   3.456  0.2145  0.5017  0.3971
  905MOL0     C24802   9.958   7.805   3.523  0.1236 -1.0576  0.6268
  905MOL0     N24803   9.500   7.939   4.006 -0.1486  0.0127 -0.2331
  905MOL0     N24804   9.467   7.899   4.117  0.0656 -0.4203  0.1080
  905MOL0     C24805   8.324   8.356   4.111  0.2689  0.7660  0.4950
  905MOL0     C24806   8.209   8.431   4.095 -0.0944  0.6968 -0.8451
  905MOL0     C24807   7.769   8.538   4.139  0.4097  0.1574  0.0328
  905MOL0     C24808   7.725   8.554   4.273 -0.6135  0.2207  0.2147
  905MOL0     C24809   7.609   8.628   4.299  0.1314  0.9011 -0.7787
  905MOL0     C24810   7.543   8.693   4.200  0.5169 -0.4188 -0.4758
  905MOL0     O24811   7.440   8.778   4.227  0.5208  0.2849 -0.4153
  905MOL0     C24812   7.369   8.793   4.353 -0.2740  0.3662  0.4995
  905MOL0     C24813   7.271   8.674   4.373 -0.5952  1.0608 -0.1785
  905MOL0     C24814   7.159   8.678   4.279 -0.3463  0.6671 -0.9726
  905MOL0     C24815   7.038   8.608   4.328  0.0286  0.5366 -0.1650
  905MOL0     C24816   7.059   8.460   4.336 -0.0203  0.4666  0.8502
  905MOL0     C24817   7.087   8.339   4.333 -0.2026 -0.5659 -0.8679
  905MOL0     C24818   7.581   8.672   4.073  0.4243 -0.1452  0.4453
  905MOL0     C24819   7.694   8.591   4.033 -0.1182 -0.1823  0.4251
  905MOL0     C24820   7.727   8.578   3.887 -0.8722  0.5404  0.5045
  905MOL0     H24821   8.039   8.304   4.361  0.1346 -1.2203  0.9813
  905MOL0     H24822   8.245   8.159   4.372  0.7480  1.4279  0.8049
  905MOL0     H24823   8.395   8.010   4.307  0.4517  0.1151 -1.0968
  905MOL0     H24824   8.459   8.120   4.413 -2.7586  2.0140 -0.0450
  905MOL0     H24825   8.578   7.907   4.335  1.7902  0.0834 -0.3505
  905MOL0     H24826   8.618   7.976   4.181  2.2106 -0.7545 -0.1979
  905MOL0     H24827   8.768   8.144   4.293  1.3830  1.0587  2.5216
  905MOL0     H24828   8.705   8.094   4.451 -0.7567  1.7067 -0.5696
  905MOL0     H24829   8.801   7.848   4.387  2.4761 -1.7536 -1.9565
  905MOL0     H24830   8.860   7.941   4.252 -0.4019 -1.4931 -0.4832
  905MOL0     H24831   8.948   7.975   4.538  1.4131 -2.5657 -0.1255
  905MOL0     H24832   8.996   8.092   4.406 -2.3311 -0.0048 -1.7884
  905MOL0     H24833   9.143   7.882   4.470 -0.1127 -1.4305 -0.5301
  905MOL0     H24834   9.021   7.795   4.380 -0.1973  0.7920 -1.1055
  905MOL0     H24835   9.204   8.017   4.302  0.1302 -0.3197  2.2783
  905MOL0     H24836   9.064   7.957   4.190  0.0573 -1.4352  0.1812
  905MOL0     H24837   9.295   7.797   4.296 -2.8023 -0.9758  2.3141
  905MOL0     H24838   9.192   7.733   4.181  0.4889 -0.5257  2.6910
  905MOL0     H24839   9.177   7.953   3.971 -0.2815  3.7720  0.1527
  905MOL0     H24840   9.484   8.080   3.768  1.2613 -1.5721  0.1506
  905MOL0     H24841   9.301   8.081   3.763  0.0442  1.0495  2.4687
  905MOL0     H24842   9.317   7.834   3.727 -1.5139  1.8744  2.8698
  905MOL0     H24843   9.376   7.934   3.588  3.0292  0.4794  1.1061
  905MOL0     H24844   9.539   7.770   3.782  1.5485  1.7903  0.8760
  905MOL0     H24845   9.518   7.762   3.607  1.5999 -0.8843  0.6286
  905MOL0     H24846   9.613   7.990   3.587 -1.7014 -1.5139 -0.4885
  905MOL0     H24847   9.676   7.979   3.755  0.0062  1.2868 -0.5516
  905MOL0     H24848   9.820   8.111   3.588 -0.1233  1.2528 -1.8328
  905MOL0     H24849  10.074   8.248   3.579  2.8944 -0.6776 -1.1107
  905MOL0     H24850   9.925   8.281   3.488  0.3234  2.2539  0.5106
  905MOL0     H24851  10.086   8.256   3.409 -0.3787  1.1805  1.3979
  905MOL0     H24852  10.565   7.867   3.534  3.9797  0.8863 -0.7869
  905MOL0     H24853  10.770   7.829   3.415  1.1311  2.5745 -0.3022
  905MOL0     H24854  10.826   7.632   3.175 -1.7007  1.8353  1.8651
  905MOL0     H24855  10.731   7.676   3.033 -1.5978 -1.5291  1.2684
  905MOL0     H24856  10.968   7.640   2.956  1.4813 -0.1432 -1.1230
  905MOL0     H24857  10.920   7.803   2.934  2.7582 -1.4110 -0.3810
  905MOL0     H24858  11.060   7.651   3.163  1.4599  0.5633 -0.0597
  905MOL0     H24859  11.048   7.824   3.175 -2.4010 -0.8926  0.2487
  905MOL0     H24860  11.193   7.865   2.993  0.0856  0.7310  0.5749
  905MOL0     H24861  11.199   7.692   2.943 -0.8515  0.0138  0.4409
  905MOL0     H24862  11.302   7.815   3.200  1.6138 -1.4713  1.1606
  905MOL0     H24863  11.287   7.647   3.184  0.9566  0.8663  0.0793
  905MOL0     H24864  11.444   7.630   3.010  3.7647  0.1296  0.7223
  905MOL0     H24865  11.512   7.715   3.140  0.6492  1.0244 -0.8569
  905MOL0     H24866  11.448   7.943   3.024  2.2954  1.8078 -2.1026
  905MOL0     H24867  11.420   7.841   2.883 -0.8471 -3.5629  0.9532
  905MOL0     H24868  11.669   7.880   3.047  0.9104 -0.7859 -1.1873
  905MOL0     H24869  11.645   7.905   2.869  3.7679  0.3368  0.8530
  905MOL0     H24870  10.575   7.900   3.042 -0.7651  1.0700 -0.6241
  905MOL0     H24871  10.350   7.930   3.171 -0.8583  2.5136  2.1905
  905MOL0     H24872  10.144   7.778   3.421 -0.4901  0.8457 -1.8846
  905MOL0     H24873   9.935   7.700   3.543 -0.7915 -1.1833 -0.8815
  905MOL0     H24874   8.401   8.369   4.035  0.5610  2.5654  1.0591
  905MOL0     H24875   8.200   8.514   4.026 -3.0267  0.3885 -0.9357
  905MOL0     H24876   7.783   8.512   4.355  1.6668  0.6346 -1.1152
  905MOL0     H24877   7.589   8.644   4.404  3.5610 -1.3868  0.4048
  905MOL0     H24878   7.444   8.789   4.433  1.8846  0.9070 -1.3805
  905MOL0     H24879   7.318   8.889   4.361 -0.0041  0.4635  1.1137
  905MOL0     H24880   7.237   8.680   4.477 -1.5788  0.8811 -0.4801
  905MOL0     H24881   7.324   8.578   4.367 -2.4174  0.0077 -0.0134
  905MOL0     H24882   7.129   8.784   4.277  0.5245  0.9107 -1.3727
  905MOL0     H24883   7.181   8.644   4.178 -2.3994 -0.4621 -1.0788
  905MOL0     H24884   6.949   8.624   4.267 -0.8935 -1.0032  0.7091
  905MOL0     H24885   7.019   8.655   4.425  2.1469  0.1900  0.4653
  905MOL0     H24886   7.124   8.239   4.331  0.5094 -0.3026 -1.3211
  905MOL0     H24887   7.526   8.721   3.994 -0.5888  1.5724  2.1201
  905MOL0     H24888   7.769   8.481   3.859 -1.4335 -0.4428  2.8182
  905MOL0     H24889   7.632   8.577   3.834 -3.1014 -5.2732  3.7656
  905MOL0     H24890   7.803   8.655   3.867  0.6213 -0.2760  2.6681
  906MOL0     O24891   7.371   8.908   8.012  0.2332 -0.5933 -0.0234
  906MOL0     C24892   7.309   8.851   8.099 -0.4851  0.1812 -0.3136
  906MOL0     O24893   7.376   8.780   8.206  0.6399 -0.5224 -0.4290
  906MOL0     C24894   7.502   8.743   8.185 -0.4743  0.1525  0.9483
  906MOL0     C24895   7.528   8.663   8.076  0.3071  0.5530  0.9874
  906MOL0     C24896   7.657   8.609   8.058 -0.1278  0.2238  0.7110
  906MOL0     C24897   7.761   8.648   8.134  0.0095 -0.5257 -1.0028
  906MOL0     O24898   7.888   8.609   8.102 -0.0604 -0.3985  0.9811
  906MOL0     C24899   7.970   8.570   8.222  0.2164  0.7421  0.4180
  906MOL0     C24900   8.091   8.484   8.175 -0.7923 -0.7839 -0.8374
  906MOL0     C24901   8.121   8.388   8.293 -0.8871 -0.4565 -0.5436
  906MOL0     C24902   8.266   8.332   8.286  0.2257 -0.6144 -0.3620
  906MOL0     C24903   8.302   8.271   8.425  0.5093  0.2449  0.3428
  906MOL0     C24904   8.456   8.228   8.413  0.4225 -0.7121 -0.1606
  906MOL0     C24905   8.526   8.157   8.527 -0.5222 -0.8186  0.0955
  906MOL0     C24906   8.545   8.249   8.655 -0.2586  1.1789 -0.5193
  906MOL0     N24907   8.628   8.180   8.754 -0.9499 -0.0404 -0.1265
  906MOL0     C24908   8.582   8.162   8.886  0.5083  0.5813  0.7867
  906MOL0     C24909   8.695   8.134   8.955  0.3231 -0.1715  0.6769
  906MOL0     C24910   8.713   8.127   9.107 -0.3302 -0.5178 -0.7633
  906MOL0     C24911   8.840   8.073   9.170 -0.5432  0.6029  0.5650
  906MOL0     C24912   8.855   7.919   9.121  0.1119 -0.1135 -0.7463
  906MOL0     C24913   8.974   7.848   9.195  0.0971  0.7563 -0.3184
  906MOL0     O24914   9.099   7.912   9.159  0.4818 -0.3723  0.3359
  906MOL0     C24915   9.209   7.836   9.173  1.2659  0.2917 -0.2874
  906MOL0     C24916   9.316   7.889   9.107 -0.6451 -0.5377  0.3536
  906MOL0     C24917   9.446   7.826   9.092  0.1425 -0.6497 -0.3825
  906MOL0     C24918   9.559   7.879   9.025  1.0172 -0.5752  0.2227
  906MOL0     C24919   9.455   7.701   9.154  0.4908 -0.1879 -0.3726
  906MOL0     C24920   9.569   7.610   9.139  0.3651  0.8883  0.3525
  906MOL0     O24921   9.616   7.599   9.011  0.5779  0.1041 -0.0889
  906MOL0     C24922   9.706   7.490   8.980  0.6725 -0.2255  0.3598
  906MOL0     C24923   9.664   7.384   8.905 -0.3702  0.1547  0.6607
  906MOL0     C24924   9.747   7.278   8.865 -1.1110 -0.0873 -0.1224
  906MOL0     C24925   9.885   7.287   8.893 -0.4446  1.0221 -0.1601
  906MOL0     O24926   9.981   7.197   8.846  0.4083 -0.8303 -0.2940
  906MOL0     C24927   9.969   7.068   8.912  0.0156 -0.2127  0.3946
  906MOL0     C24928  10.088   7.000   8.889  0.3959  0.7142 -0.1386
  906MOL0     C24929  10.096   6.846   8.934 -0.3779  0.2893  0.2826
  906MOL0     C24930  10.072   6.834   9.084  0.9384 -1.3419 -0.0152
  906MOL0     C24931  10.095   6.689   9.137 -0.0859 -1.4613  0.5812
  906MOL0     C24932  10.232   6.635   9.118  0.3031 -1.0219  0.7680
  906MOL0     C24933  10.248   6.506   9.197 -0.3868 -0.1619  0.6242
  906MOL0     C24934  10.154   6.395   9.148 -0.6738  0.2349  0.0939
  906MOL0    Cl24935  10.217   6.336   8.984  0.1531 -0.1323  0.1482
  906MOL0     C24936   9.929   7.399   8.969 -0.0910  0.3292  0.2876
  906MOL0     C24937   9.842   7.497   9.014 -0.2991 -0.0196  0.4753
  906MOL0     O24938   9.603   7.536   9.231 -0.5339 -0.0494 -0.0597
  906MOL0     C24939   9.342   7.646   9.233  0.4946 -0.8175  0.6028
  906MOL0     C24940   9.228   7.713   9.244  0.4607  0.2222  0.5916
  906MOL0     N24941   8.806   8.139   8.862  0.5282  0.1194  0.3323
  906MOL0     N24942   8.762   8.161   8.742 -0.1468 -0.3005 -0.0442
  906MOL0     C24943   7.732   8.722   8.246 -0.3872  0.0289  0.3501
  906MOL0     C24944   7.601   8.769   8.283  0.4290 -0.1550 -0.4878
  906MOL0     C24945   7.162   8.865   8.103  0.4653  0.1918 -0.8359
  906MOL0     C24946   7.092   8.892   7.991  1.0249 -0.1509  0.7305
  906MOL0     C24947   6.959   8.921   7.984 -0.3813  0.7243 -0.1066
  906MOL0     C24948   6.884   8.936   8.103  0.0607  0.9346  0.6048
  906MOL0     O24949   6.747   8.952   8.102  0.3357 -0.3881  0.0529
  906MOL0     C24950   6.699   9.082   8.075 -0.9119 -0.8937 -0.6289
  906MOL0     C24951   6.668   9.094   7.925 -0.1228 -0.8139 -0.3047
  906MOL0     C24952   6.599   9.229   7.899  0.1500 -0.0394  0.0683
  906MOL0     C24953   6.542   9.215   7.763 -0.4929 -0.2000 -0.2407
  906MOL0     C24954   6.451   9.323   7.744 -0.0273  0.4511  0.6097
  906MOL0     C24955   6.367   9.414   7.743  0.0740 -0.0474  0.0643
  906MOL0     C24956   6.957   8.913   8.221 -0.2102  0.5125  0.6299
  906MOL0     C24957   7.088   8.874   8.228 -0.5872  0.3978  0.6947
  906MOL0     C24958   7.143   8.853   8.374 -0.2792 -0.3600  0.4596
  906MOL0     H24959   7.457   8.637   7.998  1.4023 -3.2419  1.0289
  906MOL0     H24960   7.672   8.551   7.967  2.1084  0.7420  0.6931
  906MOL0     H24961   7.900   8.513   8.283 -1.9246  2.8762  0.1063
  906MOL0     H24962   8.020   8.653   8.272  2.3934 -1.3942  2.0057
  906MOL0     H24963   8.065   8.416   8.094  0.3883 -1.1448 -0.9367
  906MOL0     H24964   8.169   8.556   8.148 -0.6151  0.0248  1.5432
  906MOL0     H24965   8.113   8.450   8.383 -0.5605 -2.4869  0.9454
  906MOL0     H24966   8.046   8.308   8.292 -1.9898  0.5391 -0.0343
  906MOL0     H24967   8.274   8.257   8.206  1.1978 -1.4320  0.4753
  906MOL0     H24968   8.331   8.417   8.266 -1.4310  0.8643  0.2652
  906MOL0     H24969   8.242   8.183   8.447 -0.0278  1.0150  2.1589
  906MOL0     H24970   8.280   8.349   8.499 -0.3404 -1.0902  1.5656
  906MOL0     H24971   8.457   8.170   8.320 -3.2136  0.9788 -1.4527
  906MOL0     H24972   8.518   8.314   8.385  1.0732 -1.6930 -1.9207
  906MOL0     H24973   8.619   8.103   8.510 -0.3249 -0.9808  1.5648
  906MOL0     H24974   8.464   8.071   8.555 -1.6157 -0.5133 -1.2690
  906MOL0     H24975   8.598   8.341   8.627  1.7026  1.1322  2.5333
  906MOL0     H24976   8.446   8.275   8.691 -0.3857 -0.8372  0.7408
  906MOL0     H24977   8.485   8.164   8.935  0.1479 -0.8526  0.1918
  906MOL0     H24978   8.629   8.070   9.149  1.1308 -2.0689  0.1497
  906MOL0     H24979   8.703   8.225   9.154  0.1738 -0.2148 -1.2776
  906MOL0     H24980   8.916   8.141   9.130 -3.8229  4.0829 -0.3737
  906MOL0     H24981   8.842   8.081   9.279  2.8705  1.3743  0.5433
  906MOL0     H24982   8.766   7.873   9.164  0.8091 -2.7481 -1.9217
  906MOL0     H24983   8.859   7.902   9.013 -0.1362 -1.1168 -0.6117
  906MOL0     H24984   8.968   7.863   9.303  2.7753  2.6401 -0.3427
  906MOL0     H24985   8.966   7.744   9.162 -0.0882  1.2278 -1.8678
  906MOL0     H24986   9.299   7.993   9.081  1.5356  0.4668  2.5476
  906MOL0     H24987   9.646   7.848   9.084  1.9511 -1.2483 -1.4265
  906MOL0     H24988   9.550   7.987   9.013  0.0198 -0.2525  3.0516
  906MOL0     H24989   9.563   7.831   8.927  1.3464 -1.6627  0.7449
  906MOL0     H24990   9.560   7.401   8.881 -0.6629 -4.0177 -2.0601
  906MOL0     H24991   9.711   7.201   8.797  0.3014  0.0956 -1.1199
  906MOL0     H24992   9.948   7.075   9.019 -0.0928  1.7588  0.2855
  906MOL0     H24993   9.891   7.008   8.864 -0.0177 -1.5799  2.0595
  906MOL0     H24994  10.118   6.983   8.785 -2.9725 -4.8193 -0.6016
  906MOL0     H24995  10.161   7.059   8.946  0.5747  1.8376 -1.4506
  906MOL0     H24996  10.203   6.833   8.920 -0.3265 -2.4105  2.4427
  906MOL0     H24997  10.042   6.768   8.879  2.2313 -1.2092 -0.3192
  906MOL0     H24998   9.972   6.871   9.107  1.1696  1.6385 -3.0032
  906MOL0     H24999  10.134   6.908   9.137 -0.6569  1.2498 -1.5506
  906MOL0     H25000  10.071   6.684   9.244 -1.1016 -1.1489  0.3808
  906MOL0     H25001  10.026   6.623   9.084 -0.8507 -1.0956  1.1002
  906MOL0     H25002  10.304   6.708   9.157 -1.5242  1.9914 -1.1520
  906MOL0     H25003  10.241   6.621   9.010  4.3507 -0.1511  0.8263
  906MOL0     H25004  10.230   6.533   9.302 -1.9167 -0.1286  0.3724
  906MOL0     H25005  10.345   6.455   9.187 -0.7991 -1.2549  1.8212
  906MOL0     H25006  10.050   6.430   9.143 -0.2288  2.3548  2.8812
  906MOL0     H25007  10.155   6.321   9.228 -1.4994  2.4761  2.3142
  906MOL0     H25008  10.034   7.411   8.991 -0.0719  0.6022  0.0574
  906MOL0     H25009   9.875   7.577   9.080  3.7154 -2.0182  1.1997
  906MOL0     H25010   9.352   7.545   9.273  0.7449 -1.1156 -0.1788
  906MOL0     H25011   9.146   7.667   9.299 -1.9222  3.3446 -0.0479
  906MOL0     H25012   7.806   8.737   8.324 -0.7877 -2.1850  1.2237
  906MOL0     H25013   7.590   8.823   8.376  0.9842 -0.5645 -0.1734
  906MOL0     H25014   7.141   8.894   7.894 -1.2339 -1.0861 -0.5057
  906MOL0     H25015   6.919   8.932   7.884  3.9954 -0.8954 -2.2742
  906MOL0     H25016   6.616   9.093   8.145 -0.5602 -1.0175 -0.1882
  906MOL0     H25017   6.770   9.164   8.086 -1.9939  0.0423 -0.4581
  906MOL0     H25018   6.603   9.011   7.895 -0.4301  0.0724 -2.2715
  906MOL0     H25019   6.756   9.079   7.860 -1.8891  0.2066 -3.1432
  906MOL0     H25020   6.515   9.247   7.966 -1.2040 -0.8919 -1.3535
  906MOL0     H25021   6.671   9.311   7.907 -0.3987  0.3187  1.5305
  906MOL0     H25022   6.480   9.125   7.761 -0.3442 -0.5325  3.3071
  906MOL0     H25023   6.619   9.220   7.685  1.1847 -1.0971  1.2835
  906MOL0     H25024   6.298   9.496   7.745 -0.1253 -0.0571 -2.5970
  906MOL0     H25025   6.900   8.906   8.313 -0.7882  2.5802  0.4859
  906MOL0     H25026   7.187   8.754   8.385 -3.6590 -2.0676 -0.0793
  906MOL0     H25027   7.216   8.933   8.389 -1.2953  0.3202  2.0766
  906MOL0     H25028   7.059   8.864   8.444 -0.4462 -0.8080  0.3275
  907MOL0     O25029   4.395   7.912   3.000 -0.3191  0.1422  0.4455
  907MOL0     C25030   4.330   7.849   2.909  0.0065  0.3478 -0.9108
  907MOL0     O25031   4.368   7.840   2.785  0.5469 -0.6042  0.9034
  907MOL0     C25032   4.481   7.904   2.741 -0.2114 -0.0335 -0.2176
  907MOL0     C25033   4.464   8.019   2.657 -0.0815  0.2337 -0.0775
  907MOL0     C25034   4.576   8.102   2.626  1.4161 -0.1274  0.7562
  907MOL0     C25035   4.709   8.051   2.651  0.6556  0.3560  0.1173
  907MOL0     O25036   4.819   8.127   2.622  1.0155 -0.3357 -0.3415
  907MOL0     C25037   4.811   8.212   2.509 -0.1382 -0.3188  0.7443
  907MOL0     C25038   4.949   8.272   2.471 -0.6452 -0.2825 -0.0435
  907MOL0     C25039   5.074   8.181   2.464 -0.6448  0.9719  0.0744
  907MOL0     C25040   5.206   8.249   2.425  0.7109  0.7453  0.0049
  907MOL0     C25041   5.288   8.136   2.364  0.0887 -0.1960 -0.0776
  907MOL0     C25042   5.426   8.194   2.335 -1.2770  0.6782 -0.0504
  907MOL0     C25043   5.506   8.112   2.238 -0.2787 -0.2140  0.1900
  907MOL0     C25044   5.659   8.152   2.221 -0.2768  0.5552  0.3152
  907MOL0     N25045   5.733   8.191   2.339 -0.3508 -0.3329 -0.7513
  907MOL0     C25046   5.746   8.133   2.465  0.8037 -0.4816  0.0560
  907MOL0     C25047   5.819   8.219   2.536 -0.9410  0.3015  0.3482
  907MOL0     C25048   5.862   8.217   2.677  0.5724  0.0600 -0.4653
  907MOL0     C25049   5.990   8.131   2.708 -0.2499 -0.9099 -0.6304
  907MOL0     C25050   5.958   7.985   2.718  0.4059 -0.4412 -0.0115
  907MOL0     C25051   6.092   7.914   2.753  1.0706  0.1873  0.0115
  907MOL0     O25052   6.058   7.783   2.803 -0.2534 -0.2617  0.3708
  907MOL0     C25053   6.150   7.700   2.867  0.3091  0.7119  0.7451
  907MOL0     C25054   6.264   7.745   2.919  0.4123 -0.1485 -0.3168
  907MOL0     C25055   6.345   7.665   2.996 -0.4012 -0.1241  0.1384
  907MOL0     C25056   6.474   7.732   3.057 -0.5235 -0.6100 -0.2126
  907MOL0     C25057   6.308   7.530   3.009 -0.3862  0.0915 -0.4214
  907MOL0     C25058   6.400   7.430   3.080  0.5133  0.4962 -0.1094
  907MOL0     O25059   6.417   7.315   3.011 -0.4161 -0.4416 -0.3448
  907MOL0     C25060   6.543   7.253   3.016 -0.2469  0.5831 -0.9240
  907MOL0     C25061   6.662   7.321   3.009 -0.2422  0.9749 -0.7062
  907MOL0     C25062   6.779   7.257   3.035 -0.4634  0.0116  0.3265
  907MOL0     C25063   6.792   7.119   3.054 -0.4064 -0.5596  0.3192
  907MOL0     O25064   6.912   7.057   3.074 -0.1078 -0.3778  0.3524
  907MOL0     C25065   7.018   7.135   3.132 -1.2866 -0.0669  0.3061
  907MOL0     C25066   7.120   7.216   3.042  0.0810  1.1240  1.4295
  907MOL0     C25067   7.265   7.167   3.055 -0.0368  0.8491  0.3059
  907MOL0     C25068   7.339   7.232   3.185  0.4120 -0.0866 -0.3642
  907MOL0     C25069   7.493   7.224   3.188 -0.4707  0.0513 -0.1803
  907MOL0     C25070   7.572   7.348   3.237  0.4420 -0.4612 -0.6230
  907MOL0     C25071   7.723   7.302   3.245 -0.1054  0.6576  0.3631
  907MOL0     C25072   7.811   7.404   3.307  0.1966 -0.8444 -0.5076
  907MOL0    Cl25073   7.982   7.344   3.362  0.3892  0.0217 -0.4965
  907MOL0     C25074   6.673   7.048   3.057  0.2820  0.5264  1.4816
  907MOL0     C25075   6.554   7.113   3.031 -0.3551 -0.5967 -0.7136
  907MOL0     O25076   6.465   7.452   3.183  0.1201 -0.2699  0.3294
  907MOL0     C25077   6.191   7.480   2.954 -0.0476  0.2202 -0.2562
  907MOL0     C25078   6.104   7.565   2.887  0.2981 -0.7084  0.0539
  907MOL0     N25079   5.868   8.321   2.448  0.5676  0.2708  0.1479
  907MOL0     N25080   5.810   8.302   2.333  0.0582 -0.6731  0.2254
  907MOL0     C25081   4.724   7.936   2.725  0.0882  0.0231 -0.3400
  907MOL0     C25082   4.609   7.871   2.776 -0.6236  0.4456 -0.7517
  907MOL0     C25083   4.203   7.788   2.962  0.8051 -0.7493 -0.3549
  907MOL0     C25084   4.176   7.785   3.104  0.3561 -0.2278  0.9981
  907MOL0     C25085   4.063   7.721   3.163 -0.4888  0.2484 -0.0636
  907MOL0     C25086   3.971   7.656   3.085 -0.0002  0.0987 -0.1265
  907MOL0     O25087   3.863   7.602   3.152  0.4595  0.9240  0.6290
  907MOL0     C25088   3.779   7.518   3.066  0.6243 -0.0832  0.1771
  907MOL0     C25089   3.647   7.477   3.134  0.3097 -0.4824  0.0335
  907MOL0     C25090   3.665   7.426   3.281  0.0672 -0.5232  0.8007
  907MOL0     C25091   3.541   7.352   3.329 -0.8143  0.1564  0.1767
  907MOL0     C25092   3.412   7.421   3.320  1.0597 -1.1511  0.2642
  907MOL0     C25093   3.308   7.480   3.336  1.3183 -0.2294  0.1755
  907MOL0     C25094   3.993   7.657   2.946  0.3375 -0.1359 -0.1512
  907MOL0     C25095   4.100   7.718   2.890 -1.4216 -1.0084  0.4726
  907MOL0     C25096   4.103   7.731   2.731 -0.7124 -0.2335 -0.7864
  907MOL0     H25097   4.365   8.058   2.636 -1.2296 -0.2310  3.6311
  907MOL0     H25098   4.560   8.201   2.584 -0.0106 -0.2692  0.9130
  907MOL0     H25099   4.741   8.295   2.519 -0.5354 -0.4784 -0.4735
  907MOL0     H25100   4.768   8.147   2.433 -1.6425 -0.8234  1.9840
  907MOL0     H25101   4.924   8.321   2.377 -3.1434 -2.4610 -0.6463
  907MOL0     H25102   4.972   8.354   2.540  1.9136 -0.7691 -0.2208
  907MOL0     H25103   5.086   8.124   2.557  0.2674  1.9728  0.5831
  907MOL0     H25104   5.046   8.108   2.387 -0.8161  0.8455  0.2561
  907MOL0     H25105   5.182   8.326   2.352 -1.3174  1.4195  1.2717
  907MOL0     H25106   5.259   8.301   2.506  1.0921  1.6850 -0.8332
  907MOL0     H25107   5.236   8.108   2.272 -4.3233  0.6117  1.8706
  907MOL0     H25108   5.288   8.046   2.427 -0.4086 -2.2538 -2.8361
  907MOL0     H25109   5.416   8.298   2.301  1.6618  1.8256  2.2092
  907MOL0     H25110   5.474   8.192   2.433 -0.3424  0.7969 -0.4935
  907MOL0     H25111   5.457   8.119   2.140  0.1568  2.5378  0.0755
  907MOL0     H25112   5.505   8.005   2.260  2.1575 -0.0387  1.4699
  907MOL0     H25113   5.706   8.060   2.186  1.3100  0.4584  2.4828
  907MOL0     H25114   5.671   8.224   2.139 -0.7738 -0.3111 -0.5388
  907MOL0     H25115   5.709   8.035   2.495  1.3621 -0.5517  0.5355
  907MOL0     H25116   5.783   8.190   2.747  1.2946  3.5389  1.9372
  907MOL0     H25117   5.887   8.321   2.699  2.2770  0.1674 -2.4866
  907MOL0     H25118   6.063   8.154   2.630 -0.6301  0.1620 -0.6847
  907MOL0     H25119   6.032   8.155   2.807  1.8169  0.8730 -1.8495
  907MOL0     H25120   5.890   7.964   2.801  1.0882 -3.3131 -0.0707
  907MOL0     H25121   5.921   7.942   2.625 -3.6517 -1.5879  1.9106
  907MOL0     H25122   6.155   7.905   2.664  0.9155  1.7679 -0.2853
  907MOL0     H25123   6.146   7.970   2.829  0.7007 -0.4022  0.7297
  907MOL0     H25124   6.278   7.852   2.906 -0.1258 -0.1196 -0.7279
  907MOL0     H25125   6.557   7.662   3.067 -1.5317 -1.5309  2.8716
  907MOL0     H25126   6.452   7.780   3.153  1.2298  2.6597 -1.2832
  907MOL0     H25127   6.511   7.811   2.991  1.8582 -3.2664 -2.2911
  907MOL0     H25128   6.662   7.429   2.994 -1.6790  0.9466 -0.9914
  907MOL0     H25129   6.865   7.322   3.046 -0.6433  0.0065  2.0324
  907MOL0     H25130   6.970   7.205   3.201 -1.4758 -0.6292  0.7569
  907MOL0     H25131   7.076   7.062   3.188 -0.1477  1.4457  1.1652
  907MOL0     H25132   7.099   7.208   2.935 -3.8613 -0.1350  2.1190
  907MOL0     H25133   7.111   7.322   3.065  1.0264  1.4897  0.1884
  907MOL0     H25134   7.309   7.200   2.960 -0.0824 -1.2001 -0.4641
  907MOL0     H25135   7.266   7.058   3.050  0.6141  0.8470  0.4027
  907MOL0     H25136   7.298   7.189   3.276  1.7920 -0.8943 -0.1049
  907MOL0     H25137   7.309   7.337   3.185  0.6684 -0.0022  1.0501
  907MOL0     H25138   7.514   7.142   3.257  1.6860  0.4203 -0.3353
  907MOL0     H25139   7.524   7.208   3.085 -1.6303 -3.1536 -0.1401
  907MOL0     H25140   7.536   7.377   3.336 -3.5608 -1.5197 -1.5826
  907MOL0     H25141   7.559   7.432   3.168 -1.3708 -0.6774 -0.6084
  907MOL0     H25142   7.763   7.275   3.147  0.0697 -1.5694  0.9983
  907MOL0     H25143   7.733   7.211   3.305  3.0808 -0.5339 -1.7180
  907MOL0     H25144   7.757   7.448   3.392  1.6520 -0.5419  0.2868
  907MOL0     H25145   7.822   7.483   3.232  1.5477 -1.7311 -1.2829
  907MOL0     H25146   6.664   6.941   3.041 -0.1944  0.9623 -1.8880
  907MOL0     H25147   6.459   7.062   3.023 -2.3731  2.5600  0.9518
  907MOL0     H25148   6.175   7.373   2.960 -0.6707  0.2545 -1.0773
  907MOL0     H25149   6.021   7.524   2.831 -0.4229 -2.3233  2.1642
  907MOL0     H25150   4.826   7.902   2.740  0.1477 -0.0389 -0.8787
  907MOL0     H25151   4.608   7.791   2.850 -3.3576  1.8348  0.8471
  907MOL0     H25152   4.250   7.837   3.163  0.2003  0.3185  0.7148
  907MOL0     H25153   4.044   7.724   3.270  0.9469 -1.2141  0.2546
  907MOL0     H25154   3.747   7.577   2.980  1.6959 -0.5659 -0.5643
  907MOL0     H25155   3.837   7.430   3.037  1.8064  0.6276  0.2921
  907MOL0     H25156   3.592   7.399   3.081  2.5022 -1.7630 -0.4780
  907MOL0     H25157   3.582   7.565   3.139 -1.4420 -1.6980 -0.6859
  907MOL0     H25158   3.751   7.358   3.285 -0.4133 -1.3361 -1.4681
  907MOL0     H25159   3.678   7.510   3.350 -1.6263 -0.2352  0.8139
  907MOL0     H25160   3.559   7.326   3.434 -0.4492  1.3372  0.4144
  907MOL0     H25161   3.547   7.256   3.276 -1.8128  0.4337 -0.4660
  907MOL0     H25162   3.217   7.534   3.354  0.7114 -1.6038  1.5023
  907MOL0     H25163   3.914   7.617   2.883 -0.6100  0.2639  0.7464
  907MOL0     H25164   4.165   7.645   2.705  1.8395  1.1106  0.4823
  907MOL0     H25165   4.000   7.731   2.694 -0.6470  1.4899 -1.0727
  907MOL0     H25166   4.147   7.823   2.691 -0.9497 -0.6822 -2.1542
  908MOL0     O25167   7.869   4.039   6.364 -0.9400 -0.4821  0.1196
  908MOL0     C25168   7.860   3.944   6.285  0.4361 -0.3115  0.3453
  908MOL0     O25169   7.957   3.884   6.221  0.5055  0.1116 -0.4125
  908MOL0     C25170   8.088   3.920   6.249 -0.5359 -0.1164  0.2992
  908MOL0     C25171   8.179   3.920   6.141 -0.5142  0.0327  0.6159
  908MOL0     C25172   8.311   3.945   6.168 -0.1002  0.0342  0.9476
  908MOL0     C25173   8.362   3.974   6.296 -0.5388  0.2267  0.0006
  908MOL0     O25174   8.492   4.012   6.312 -0.2739 -0.8445  0.1772
  908MOL0     C25175   8.581   3.902   6.309 -0.9473  0.5156 -0.2454
  908MOL0     C25176   8.725   3.940   6.349 -0.0394  0.5586 -0.0730
  908MOL0     C25177   8.782   4.051   6.264 -0.4440 -0.1466  0.2372
  908MOL0     C25178   8.921   4.092   6.317 -1.5288 -0.5053  0.0443
  908MOL0     C25179   8.986   4.210   6.251  0.9119 -0.3511 -0.1594
  908MOL0     C25180   9.116   4.260   6.323 -0.4171 -0.9342  0.1264
  908MOL0     C25181   9.167   4.394   6.269 -0.2620  0.5205  0.7380
  908MOL0     C25182   9.147   4.520   6.357 -0.2547 -0.7104 -0.2426
  908MOL0     N25183   9.008   4.540   6.400 -0.0721 -0.0517  0.4897
  908MOL0     C25184   8.948   4.493   6.516 -0.2977 -0.4186  0.0255
  908MOL0     C25185   8.821   4.534   6.508 -0.0348  0.0823  0.3402
  908MOL0     C25186   8.713   4.524   6.615 -0.1635  0.6497 -0.4027
  908MOL0     C25187   8.600   4.422   6.598  0.4721  1.2984 -0.4972
  908MOL0     C25188   8.640   4.264   6.584  0.7228 -0.4392 -0.4835
  908MOL0     C25189   8.516   4.181   6.610  0.6835 -0.1548  0.8824
  908MOL0     O25190   8.453   4.183   6.735 -0.0567 -0.5613 -0.0916
  908MOL0     C25191   8.386   4.070   6.778 -0.2137 -0.2459  1.0195
  908MOL0     C25192   8.247   4.076   6.777 -1.6272  0.2546  0.3909
  908MOL0     C25193   8.169   3.970   6.813  0.8583  0.5778 -1.1730
  908MOL0     C25194   8.012   3.983   6.807  0.1506 -0.5897  0.1932
  908MOL0     C25195   8.235   3.847   6.859  0.5206 -0.0501  0.1654
  908MOL0     C25196   8.161   3.730   6.911  0.2018  0.3582 -0.3257
  908MOL0     O25197   8.233   3.633   6.977 -0.9686  0.0058 -0.0575
  908MOL0     C25198   8.183   3.501   6.974 -0.1578 -1.5221  0.0668
  908MOL0     C25199   8.192   3.430   7.094  0.0932 -0.4489 -0.0876
  908MOL0     C25200   8.150   3.295   7.097 -0.8422 -0.2016  0.0355
  908MOL0     C25201   8.109   3.237   6.982 -0.2887  0.2127  0.5092
  908MOL0     O25202   8.074   3.107   6.972  0.2465 -0.1526 -0.0404
  908MOL0     C25203   8.069   3.025   7.092  0.9653 -0.7365 -0.6872
  908MOL0     C25204   7.966   2.923   7.088  0.5445  0.3243  0.8441
  908MOL0     C25205   7.949   2.842   6.959  0.7213 -0.1105 -0.0695
  908MOL0     C25206   7.814   2.855   6.892 -0.6156 -0.3094  0.0985
  908MOL0     C25207   7.811   2.979   6.800 -0.2304  0.1369 -0.0013
  908MOL0     C25208   7.881   2.954   6.666  0.0620  0.5537  0.7572
  908MOL0     C25209   7.849   3.051   6.553  0.4108 -0.7535  1.8522
  908MOL0     C25210   7.703   3.041   6.502  0.2182  0.4690 -0.7743
  908MOL0    Cl25211   7.650   2.869   6.486  0.0380  0.1025 -0.0913
  908MOL0     C25212   8.095   3.311   6.865  0.3759 -0.4295 -0.4445
  908MOL0     C25213   8.137   3.442   6.861  0.1806  0.2926  0.8781
  908MOL0     O25214   8.041   3.725   6.902  0.3921  0.5359 -0.0820
  908MOL0     C25215   8.377   3.849   6.865 -0.3172 -0.1142 -0.0891
  908MOL0     C25216   8.455   3.955   6.819  0.1123 -0.4545 -0.3956
  908MOL0     N25217   8.805   4.597   6.387 -0.3109 -0.1167  0.5117
  908MOL0     N25218   8.918   4.592   6.317  1.2107  0.4828 -0.5045
  908MOL0     C25219   8.269   3.978   6.398  0.3951 -0.0243 -0.2064
  908MOL0     C25220   8.134   3.950   6.372 -0.2935  0.5504 -0.2566
  908MOL0     C25221   7.718   3.897   6.263 -0.3031 -0.3220  0.2728
  908MOL0     C25222   7.628   3.910   6.376  0.2414 -0.5269  1.1095
  908MOL0     C25223   7.500   3.874   6.360 -0.1463  1.0108 -0.0788
  908MOL0     C25224   7.445   3.820   6.242 -0.0773  0.4138  0.6079
  908MOL0     O25225   7.313   3.782   6.237 -0.4723 -0.5367 -0.4221
  908MOL0     C25226   7.229   3.841   6.336  0.1674  0.0912  0.0000
  908MOL0     C25227   7.088   3.830   6.279 -0.2124  0.1990  0.2202
  908MOL0     C25228   6.986   3.873   6.391  0.4144 -0.4294  0.1525
  908MOL0     C25229   7.012   4.016   6.449  0.2641  0.3073  0.2585
  908MOL0     C25230   6.917   4.050   6.560 -0.7045 -0.0028 -0.3191
  908MOL0     C25231   6.839   4.051   6.652 -0.0832 -1.0279 -0.8425
  908MOL0     C25232   7.532   3.807   6.141  0.1576 -0.2450  0.0951
  908MOL0     C25233   7.667   3.838   6.141  0.2871  0.6250  0.3056
  908MOL0     C25234   7.740   3.819   6.009  0.8072  0.1432 -0.1531
  908MOL0     H25235   8.148   3.906   6.038  0.0350 -1.8233  0.6744
  908MOL0     H25236   8.373   3.964   6.080  0.0260  1.8814  1.4029
  908MOL0     H25237   8.573   3.843   6.217 -2.3366 -2.6791  1.7387
  908MOL0     H25238   8.537   3.834   6.383  1.6309  0.0965  1.0441
  908MOL0     H25239   8.728   3.967   6.455  0.8061  0.9517 -0.1910
  908MOL0     H25240   8.799   3.860   6.341  1.0321  1.5472 -0.1781
  908MOL0     H25241   8.791   4.010   6.163 -0.0027 -2.5919  1.2123
  908MOL0     H25242   8.708   4.131   6.269 -1.5943 -1.2390  1.2351
  908MOL0     H25243   8.914   4.126   6.420 -1.3741  2.5061 -0.8246
  908MOL0     H25244   8.995   4.014   6.297 -0.2795  0.7091 -0.2852
  908MOL0     H25245   8.908   4.287   6.248 -0.8879 -2.0472  0.9474
  908MOL0     H25246   9.004   4.183   6.146 -2.0351 -1.9090 -0.3726
  908MOL0     H25247   9.091   4.271   6.428 -1.7977  1.9889 -0.4001
  908MOL0     H25248   9.203   4.193   6.330  0.3296 -0.0894 -0.6773
  908MOL0     H25249   9.135   4.407   6.165  1.2452 -0.4872  0.1251
  908MOL0     H25250   9.275   4.379   6.268 -0.1050  1.4678 -1.7786
  908MOL0     H25251   9.216   4.509   6.441  2.0646  1.0406 -1.8014
  908MOL0     H25252   9.175   4.611   6.302 -1.7100 -0.7072 -1.0239
  908MOL0     H25253   8.988   4.446   6.606  0.9318  1.5167  0.5432
  908MOL0     H25254   8.668   4.623   6.629  1.3066  1.0997  1.5785
  908MOL0     H25255   8.768   4.511   6.709  0.2165 -4.9331 -1.0584
  908MOL0     H25256   8.531   4.434   6.682  0.2777 -1.3717 -0.2034
  908MOL0     H25257   8.550   4.445   6.504 -0.6395  1.9528  0.2392
  908MOL0     H25258   8.661   4.237   6.480  0.6741  1.1021 -0.9107
  908MOL0     H25259   8.722   4.235   6.650 -0.6402 -1.7640  0.7255
  908MOL0     H25260   8.452   4.219   6.530  1.2551  1.5531  1.1997
  908MOL0     H25261   8.545   4.077   6.592  0.6355  0.0391 -0.4165
  908MOL0     H25262   8.203   4.161   6.726  1.7592  0.9841 -1.5838
  908MOL0     H25263   7.990   4.089   6.820 -2.8432 -1.2163  1.0782
  908MOL0     H25264   7.958   3.933   6.889  0.9604  0.5847  1.4937
  908MOL0     H25265   7.985   3.939   6.711  0.7132  0.2927 -0.3873
  908MOL0     H25266   8.233   3.492   7.174  0.6611  1.2004 -1.5919
  908MOL0     H25267   8.178   3.238   7.185 -2.4222 -1.5084 -0.2578
  908MOL0     H25268   8.167   2.980   7.113  2.1665  2.9849  3.0444
  908MOL0     H25269   8.043   3.082   7.181 -2.8204 -0.6880 -1.6606
  908MOL0     H25270   7.985   2.846   7.164 -2.3434 -2.3560 -0.9055
  908MOL0     H25271   7.869   2.963   7.118 -0.2323 -1.4555  0.8454
  908MOL0     H25272   7.960   2.736   6.985  1.8330 -0.0954 -0.4438
  908MOL0     H25273   8.031   2.861   6.889 -0.3450 -1.0377 -1.6648
  908MOL0     H25274   7.739   2.879   6.968 -0.3714  1.7849 -0.2535
  908MOL0     H25275   7.807   2.761   6.837  0.3947 -0.0333 -0.5396
  908MOL0     H25276   7.704   2.995   6.786 -0.0533  1.8668  0.4414
  908MOL0     H25277   7.859   3.069   6.839  0.3367  0.1817 -0.7832
  908MOL0     H25278   7.860   2.852   6.633 -1.2369  1.6752 -2.3444
  908MOL0     H25279   7.987   2.965   6.690 -0.7720  1.1994  4.9163
  908MOL0     H25280   7.914   3.032   6.467 -2.4154 -4.2529  0.2289
  908MOL0     H25281   7.871   3.154   6.581 -1.2473 -0.2497  1.3794
  908MOL0     H25282   7.685   3.097   6.409  0.1459  0.0331 -1.0233
  908MOL0     H25283   7.637   3.094   6.572 -0.0587 -0.5888 -0.2265
  908MOL0     H25284   8.056   3.265   6.775  0.7390 -0.2576 -0.6959
  908MOL0     H25285   8.136   3.502   6.770  4.4392 -0.8623 -0.1974
  908MOL0     H25286   8.423   3.768   6.920 -1.1220 -0.3927  0.1805
  908MOL0     H25287   8.564   3.962   6.823  0.0505  0.0759  1.1241
  908MOL0     H25288   8.287   3.996   6.504  0.8195  0.2247 -0.3195
  908MOL0     H25289   8.061   3.948   6.452 -1.3793  3.5503 -1.0277
  908MOL0     H25290   7.661   3.945   6.473 -0.1346  1.0105  0.7089
  908MOL0     H25291   7.444   3.879   6.452  0.5161  2.2480  0.2745
  908MOL0     H25292   7.220   3.769   6.418  0.1097 -0.6604 -0.6462
  908MOL0     H25293   7.261   3.943   6.359 -0.9901  0.7116 -0.9956
  908MOL0     H25294   7.074   3.725   6.254 -2.8824  0.1992  1.3486
  908MOL0     H25295   7.084   3.892   6.188 -0.3244 -0.5980 -0.3305
  908MOL0     H25296   6.889   3.874   6.340  0.9718  0.1434 -0.9301
  908MOL0     H25297   6.987   3.795   6.467  1.0719 -1.9756 -1.3946
  908MOL0     H25298   6.985   4.084   6.368 -2.4665  0.9943  1.6068
  908MOL0     H25299   7.109   4.031   6.497  0.5967  1.6638 -0.7719
  908MOL0     H25300   6.780   4.053   6.741 -1.7897  1.4429 -1.9316
  908MOL0     H25301   7.491   3.769   6.048  0.2651 -0.1910  0.0243
  908MOL0     H25302   7.667   3.820   5.928 -1.4581 -0.3533  1.7819
  908MOL0     H25303   7.811   3.899   5.985  0.6089  0.4674  0.3262
  908MOL0     H25304   7.795   3.725   6.023 -1.2114 -1.1787 -0.6501
  909MOL0     O25305   7.621   1.292   5.657 -0.1735 -0.1239  0.0043
  909MOL0     C25306   7.532   1.314   5.578  1.4229  0.4741 -0.2634
  909MOL0     O25307   7.534   1.284   5.445  0.3072  0.1346 -0.2859
  909MOL0     C25308   7.623   1.187   5.393  0.0322 -0.1365 -0.1391
  909MOL0     C25309   7.686   1.073   5.465  0.7539 -0.1278  0.9733
  909MOL0     C25310   7.783   0.997   5.401 -0.2401 -0.2331  0.8230
  909MOL0     C25311   7.796   1.010   5.262  0.3608 -0.1626  0.0778
  909MOL0     O25312   7.875   0.930   5.179 -0.0781 -0.4985 -0.0883
  909MOL0     C25313   7.940   0.819   5.238  0.1071 -0.7567  0.4948
  909MOL0     C25314   8.017   0.759   5.122 -0.2573 -0.2770  0.0981
  909MOL0     C25315   8.109   0.641   5.165 -0.3563  1.1162  0.0694
  909MOL0     C25316   8.258   0.682   5.210 -0.0779 -0.0152 -0.1321
  909MOL0     C25317   8.355   0.570   5.193  0.6694  0.5972  0.6167
  909MOL0     C25318   8.503   0.603   5.240  0.5432  0.4196  0.5234
  909MOL0     C25319   8.575   0.466   5.228  1.3946  0.2442 -0.4256
  909MOL0     C25320   8.726   0.476   5.213 -0.4543 -0.4139  1.1134
  909MOL0     N25321   8.796   0.348   5.206  0.9902  0.2975 -0.7694
  909MOL0     C25322   8.799   0.278   5.087 -0.0962  0.2762 -0.2049
  909MOL0     C25323   8.841   0.154   5.129  0.6264 -0.0980  0.0976
  909MOL0     C25324   8.858   0.039   5.046 -0.1330  0.5648  0.2569
  909MOL0     C25325   8.997  -0.032   5.065 -0.4323 -1.0617 -0.5698
  909MOL0     C25326   9.115   0.042   5.006 -0.7322 -0.9040 -0.8696
  909MOL0     C25327   9.256  -0.005   5.034 -0.5702  0.0254 -0.2929
  909MOL0     O25328   9.272  -0.012   5.181  0.3174 -0.2251  0.2698
  909MOL0     C25329   9.393  -0.060   5.217 -0.2544  0.2446  0.2234
  909MOL0     C25330   9.412  -0.037   5.352  0.6073  0.1238  0.6018
  909MOL0     C25331   9.528  -0.095   5.411  0.4225 -0.3100 -0.0878
  909MOL0     C25332   9.566  -0.043   5.551 -0.5617  0.2557 -0.7185
  909MOL0     C25333   9.619  -0.180   5.341 -0.5467  0.3210  0.4423
  909MOL0     C25334   9.736  -0.252   5.402 -0.1121 -0.9709 -0.6609
  909MOL0     O25335   9.831  -0.307   5.318 -0.3882 -0.3330 -0.0019
  909MOL0     C25336   9.937  -0.353   5.380 -0.8588 -0.4586  0.1814
  909MOL0     C25337   9.938  -0.465   5.457  0.2963 -0.1156 -0.6869
  909MOL0     C25338  10.047  -0.505   5.534 -0.0210  0.4841 -0.6529
  909MOL0     C25339  10.165  -0.433   5.535  0.3720  0.6244  0.5360
  909MOL0     O25340  10.260  -0.466   5.628  0.7807 -0.5344 -0.3379
  909MOL0     C25341  10.399  -0.419   5.600  0.3630 -0.5232 -0.2994
  909MOL0     C25342  10.457  -0.486   5.482 -0.3373 -0.2150  0.2550
  909MOL0     C25343  10.579  -0.408   5.403  1.0297 -0.4574 -0.5755
  909MOL0     C25344  10.537  -0.281   5.323 -0.3047  0.0731  0.5034
  909MOL0     C25345  10.656  -0.230   5.243 -0.0219  0.9180  0.9926
  909MOL0     C25346  10.623  -0.108   5.155  0.7830 -0.1573  0.1533
  909MOL0     C25347  10.537  -0.140   5.022  0.6417  0.0519  0.1115
  909MOL0     C25348  10.600  -0.102   4.895  0.2764  0.3478  0.7225
  909MOL0    Cl25349  10.637   0.070   4.902  0.0535 -0.0437  0.1419
  909MOL0     C25350  10.165  -0.317   5.448  0.0691  0.4743  0.4624
  909MOL0     C25351  10.057  -0.276   5.378 -0.2549  0.4538  0.4956
  909MOL0     O25352   9.739  -0.259   5.523 -0.3734  0.2576  0.2547
  909MOL0     C25353   9.603  -0.185   5.201 -0.0833 -0.1522  0.5293
  909MOL0     C25354   9.494  -0.121   5.139 -0.0492  0.1042  0.1119
  909MOL0     N25355   8.844   0.154   5.272  0.4047  0.0524  0.1889
  909MOL0     N25356   8.820   0.272   5.312 -0.0680 -0.6229 -0.0791
  909MOL0     C25357   7.723   1.105   5.188  0.6109  0.0252 -0.8745
  909MOL0     C25358   7.638   1.197   5.256 -1.4601  1.1227 -0.0722
  909MOL0     C25359   7.400   1.372   5.615 -0.2946  0.1370 -0.2243
  909MOL0     C25360   7.321   1.437   5.519 -0.1304  0.5414  0.1546
  909MOL0     C25361   7.202   1.496   5.552  0.5308 -0.1250 -0.4408
  909MOL0     C25362   7.157   1.501   5.692 -0.2908  0.0962  0.3231
  909MOL0     O25363   7.035   1.567   5.717 -0.1181  0.0542 -0.2265
  909MOL0     C25364   7.009   1.619   5.847  0.4306  0.3915 -0.8985
  909MOL0     C25365   6.873   1.688   5.847  0.6227  0.8346  0.3762
  909MOL0     C25366   6.765   1.585   5.815 -0.7690  0.9411  0.1383
  909MOL0     C25367   6.632   1.665   5.811 -1.0552  0.2051 -0.5734
  909MOL0     C25368   6.524   1.575   5.794  0.4846  0.5622 -0.5915
  909MOL0     C25369   6.433   1.495   5.782  0.1407 -0.2672 -0.3496
  909MOL0     C25370   7.237   1.440   5.789  0.1224 -0.1355 -0.7191
  909MOL0     C25371   7.362   1.379   5.750 -0.6457 -0.3197 -1.6546
  909MOL0     C25372   7.423   1.310   5.870  0.0878  0.7232  0.2031
  909MOL0     H25373   7.664   1.069   5.571 -3.6384  1.5497  0.3300
  909MOL0     H25374   7.844   0.938   5.468  0.5482 -0.6896 -0.2551
  909MOL0     H25375   7.869   0.750   5.285 -1.8291  0.3637 -0.6507
  909MOL0     H25376   8.004   0.861   5.316 -0.1321 -0.8259  0.7294
  909MOL0     H25377   7.963   0.720   5.035  3.8732 -1.3855 -2.2709
  909MOL0     H25378   8.079   0.835   5.073 -1.2774  1.8340  1.9175
  909MOL0     H25379   8.062   0.586   5.247  1.4367 -0.0466  0.3579
  909MOL0     H25380   8.113   0.574   5.079 -1.6443  2.0086 -0.7284
  909MOL0     H25381   8.290   0.760   5.141  2.8400 -0.7437  0.2855
  909MOL0     H25382   8.258   0.721   5.312 -3.6904 -1.2792  0.5104
  909MOL0     H25383   8.359   0.531   5.091 -2.1809 -1.3235  1.1214
  909MOL0     H25384   8.317   0.498   5.266 -0.3700  2.4056  1.9488
  909MOL0     H25385   8.545   0.677   5.171  0.4053  0.2092  0.2108
  909MOL0     H25386   8.497   0.643   5.341  0.2908  2.5278 -0.2704
  909MOL0     H25387   8.538   0.412   5.140  0.8886 -2.5141  1.3715
  909MOL0     H25388   8.551   0.396   5.308  1.5564  0.1526 -0.4553
  909MOL0     H25389   8.760   0.534   5.128  3.8764 -1.7314  1.7149
  909MOL0     H25390   8.768   0.521   5.303 -0.0635 -0.7079  1.0813
  909MOL0     H25391   8.772   0.313   4.988  0.9612  3.0220  0.4038
  909MOL0     H25392   8.853   0.062   4.939  0.2436 -1.5398 -0.2591
  909MOL0     H25393   8.771  -0.025   5.064 -0.7274  0.9767 -1.0720
  909MOL0     H25394   9.019  -0.041   5.171  1.6756 -0.6440 -0.9307
  909MOL0     H25395   9.002  -0.130   5.017  0.6503 -0.2654 -2.1721
  909MOL0     H25396   9.102   0.056   4.898  0.1725  1.4661 -0.7324
  909MOL0     H25397   9.109   0.143   5.046 -3.8865 -0.4449 -2.2339
  909MOL0     H25398   9.267  -0.108   5.002 -0.2896 -0.0309 -0.0198
  909MOL0     H25399   9.325   0.068   4.990 -0.8780  0.4063 -0.1592
  909MOL0     H25400   9.337   0.026   5.399 -1.4367  0.3669 -2.6996
  909MOL0     H25401   9.497   0.041   5.564  2.6892  2.9861  0.3089
  909MOL0     H25402   9.665   0.004   5.546 -1.1996  1.5505 -1.6416
  909MOL0     H25403   9.550  -0.109   5.637 -2.4700  3.5108  1.6262
  909MOL0     H25404   9.846  -0.523   5.457  0.5515 -0.5424 -1.6561
  909MOL0     H25405  10.052  -0.586   5.606  0.2209  2.2563  1.4008
  909MOL0     H25406  10.415  -0.311   5.592  2.7602 -0.7580  0.6416
  909MOL0     H25407  10.462  -0.440   5.686 -0.6455  0.3601  0.6938
  909MOL0     H25408  10.496  -0.587   5.498 -0.7094 -0.9396 -2.7911
  909MOL0     H25409  10.381  -0.494   5.404  1.5716  1.1361 -1.8544
  909MOL0     H25410  10.618  -0.478   5.329  1.8441 -0.1455 -0.4512
  909MOL0     H25411  10.663  -0.386   5.468  2.8124 -0.7464 -2.6472
  909MOL0     H25412  10.520  -0.190   5.383  0.6035  1.4478 -1.2142
  909MOL0     H25413  10.452  -0.297   5.256  2.5228  1.2097 -3.7972
  909MOL0     H25414  10.742  -0.204   5.306 -1.5893  3.5130  2.1964
  909MOL0     H25415  10.693  -0.312   5.181 -3.2923 -0.4356  0.6294
  909MOL0     H25416  10.721  -0.069   5.128  1.3866 -1.2905  0.6427
  909MOL0     H25417  10.572  -0.027   5.208  1.0632  1.9018 -2.4965
  909MOL0     H25418  10.440  -0.089   5.025  0.5216 -0.2243  1.7240
  909MOL0     H25419  10.503  -0.244   5.020  2.2593 -0.5092  0.6780
  909MOL0     H25420  10.534  -0.114   4.809 -2.2393  2.8538  2.1461
  909MOL0     H25421  10.697  -0.150   4.876 -0.4976 -1.0303  0.0541
  909MOL0     H25422  10.261  -0.266   5.442  1.6036 -2.0763  1.7140
  909MOL0     H25423  10.052  -0.182   5.325 -0.6725  1.9120  2.9315
  909MOL0     H25424   9.675  -0.243   5.144  0.6773  1.8612 -0.6589
  909MOL0     H25425   9.485  -0.147   5.034 -2.9382  3.8600 -0.7797
  909MOL0     H25426   7.715   1.106   5.080 -2.0414 -1.4719 -0.7739
  909MOL0     H25427   7.582   1.271   5.199 -0.2005  1.8311 -0.4382
  909MOL0     H25428   7.351   1.445   5.416 -0.2497 -2.8694 -0.2531
  909MOL0     H25429   7.148   1.549   5.474 -0.1685 -0.5701 -0.2760
  909MOL0     H25430   7.009   1.543   5.926  2.2314  1.4746  0.2236
  909MOL0     H25431   7.082   1.696   5.871  0.0929  1.2618 -2.5021
  909MOL0     H25432   6.875   1.764   5.769  0.4943 -3.0008 -3.7117
  909MOL0     H25433   6.858   1.736   5.945  1.3636  0.0626  0.8810
  909MOL0     H25434   6.802   1.541   5.722 -0.2014 -0.3698  0.9524
  909MOL0     H25435   6.771   1.505   5.888 -0.5734  0.6839 -0.1577
  909MOL0     H25436   6.641   1.723   5.719 -1.0477 -0.5023 -1.0301
  909MOL0     H25437   6.619   1.727   5.900 -2.2981  0.0098 -0.6024
  909MOL0     H25438   6.348   1.431   5.769 -1.2409  1.8889 -2.9666
  909MOL0     H25439   7.189   1.430   5.886  0.1982  2.7131 -0.2890
  909MOL0     H25440   7.532   1.306   5.873  0.2007  0.6971 -2.2088
  909MOL0     H25441   7.395   1.360   5.963 -3.8078 -1.8284  0.6239
  909MOL0     H25442   7.376   1.211   5.872  2.5180 -0.6478 -2.4118
  910MOL0     O25443   7.102   2.524   3.199  0.5057 -0.2840  0.2182
  910MOL0     C25444   7.022   2.599   3.144  1.6149  0.6978  0.4036
  910MOL0     O25445   7.029   2.628   3.009 -0.2431  0.3188  0.0432
  910MOL0     C25446   7.144   2.587   2.943 -0.1600  0.2997  0.1174
  910MOL0     C25447   7.145   2.486   2.843 -0.1336  0.1327 -0.0210
  910MOL0     C25448   7.266   2.456   2.778  1.4174  0.9860 -0.1037
  910MOL0     C25449   7.382   2.529   2.798 -0.8173  0.4732 -0.5599
  910MOL0     O25450   7.500   2.513   2.717 -0.1818  0.0660  0.5079
  910MOL0     C25451   7.520   2.622   2.628 -0.1566  0.0244 -0.5376
  910MOL0     C25452   7.665   2.631   2.600 -0.7244 -0.5115 -0.1046
  910MOL0     C25453   7.759   2.630   2.730 -0.4560 -0.5500 -0.3767
  910MOL0     C25454   7.908   2.606   2.705 -0.7664 -0.1514 -0.0164
  910MOL0     C25455   7.967   2.743   2.646  0.6346 -0.2382  0.0331
  910MOL0     C25456   8.122   2.718   2.621 -0.2115 -0.4358  0.3573
  910MOL0     C25457   8.176   2.815   2.512  0.5985 -0.4802 -0.7005
  910MOL0     C25458   8.324   2.820   2.486 -0.4737  0.5895  0.8504
  910MOL0     N25459   8.384   2.701   2.532  0.0832  0.0798 -0.1168
  910MOL0     C25460   8.429   2.678   2.657  0.3564  0.3653  0.4954
  910MOL0     C25461   8.495   2.559   2.659  0.1178 -0.1361  1.1056
  910MOL0     C25462   8.572   2.503   2.777  0.2671  0.8595  0.6013
  910MOL0     C25463   8.727   2.506   2.774  0.0381 -0.8113  0.5382
  910MOL0     C25464   8.800   2.419   2.663  0.1548 -0.8522  0.4869
  910MOL0     C25465   8.949   2.436   2.666 -0.1407 -0.1112 -0.2853
  910MOL0     O25466   9.001   2.407   2.794 -0.2713 -0.2808  0.2648
  910MOL0     C25467   9.031   2.514   2.883  0.4926 -0.5134 -0.5144
  910MOL0     C25468   9.034   2.652   2.849  0.3943 -0.3750 -1.0209
  910MOL0     C25469   9.082   2.753   2.941  0.1769 -0.0055 -0.1877
  910MOL0     C25470   9.115   2.887   2.880 -0.9962 -0.5841 -0.6631
  910MOL0     C25471   9.101   2.713   3.074 -0.4204  0.7449 -0.1666
  910MOL0     C25472   9.136   2.808   3.175 -0.8527  0.5163  0.4735
  910MOL0     O25473   9.061   2.922   3.181  0.4194  0.3150  0.0124
  910MOL0     C25474   9.106   3.011   3.278  0.4814  0.6017  0.1422
  910MOL0     C25475   9.101   2.985   3.418  0.2903  0.3224  0.1917
  910MOL0     C25476   9.142   3.076   3.515  0.1151  0.8402 -0.1746
  910MOL0     C25477   9.174   3.195   3.475 -0.4433 -0.0367  0.0930
  910MOL0     O25478   9.222   3.278   3.579  0.0618 -0.0598  0.2989
  910MOL0     C25479   9.242   3.413   3.555  0.1883 -0.5700  0.7598
  910MOL0     C25480   9.312   3.471   3.676 -0.0920  0.0619 -0.6234
  910MOL0     C25481   9.469   3.421   3.700  0.5644 -0.0200 -0.2748
  910MOL0     C25482   9.521   3.442   3.840 -0.4236  0.1480 -0.1097
  910MOL0     C25483   9.659   3.378   3.862 -0.3349  0.0329  0.2378
  910MOL0     C25484   9.768   3.478   3.819  0.2467  0.1927 -0.1980
  910MOL0     C25485   9.910   3.446   3.879 -0.6005 -0.4130  1.0037
  910MOL0     C25486   9.980   3.375   3.765 -0.6055 -0.2211 -1.4710
  910MOL0    Cl25487  10.122   3.282   3.824  0.4463  0.3065  0.0720
  910MOL0     C25488   9.184   3.231   3.333  0.1305  0.2302  0.2656
  910MOL0     C25489   9.143   3.136   3.237  0.2911  0.6829 -0.2663
  910MOL0     O25490   9.231   2.782   3.250  0.3983 -0.1689  0.3074
  910MOL0     C25491   9.106   2.578   3.112  0.0183  0.0866  0.9247
  910MOL0     C25492   9.059   2.481   3.022 -0.2460 -0.1525 -0.9317
  910MOL0     N25493   8.485   2.513   2.531  0.1257  0.2429 -0.4259
  910MOL0     N25494   8.437   2.599   2.449  0.4791  0.0066 -0.6260
  910MOL0     C25495   7.387   2.611   2.912  0.6731  0.1056  0.4548
  910MOL0     C25496   7.268   2.641   2.989 -0.3235  0.2939 -0.3873
  910MOL0     C25497   6.899   2.653   3.223  0.1636  0.1609  0.3843
  910MOL0     C25498   6.814   2.738   3.155  0.2452  0.8024  0.3705
  910MOL0     C25499   6.699   2.794   3.217 -0.0642  0.5444  0.0651
  910MOL0     C25500   6.671   2.759   3.353 -0.3671 -0.6330 -0.3272
  910MOL0     O25501   6.564   2.804   3.428 -0.6645 -0.2939 -0.1914
  910MOL0     C25502   6.509   2.932   3.413 -0.3752 -0.5189 -0.0017
  910MOL0     C25503   6.597   3.026   3.496  0.1062  0.4515 -0.1673
  910MOL0     C25504   6.586   3.028   3.648  0.3007  0.2030  0.6892
  910MOL0     C25505   6.593   2.888   3.701  0.1437 -1.0746 -0.7464
  910MOL0     C25506   6.595   2.899   3.849 -0.6469 -0.2507 -0.0436
  910MOL0     C25507   6.585   2.903   3.968  0.3093 -1.1561  0.3356
  910MOL0     C25508   6.743   2.660   3.410  0.3691 -0.5261 -0.5031
  910MOL0     C25509   6.859   2.612   3.346 -0.2012 -0.5185  0.3902
  910MOL0     C25510   6.937   2.506   3.421  0.0769 -0.4477  0.1102
  910MOL0     H25511   7.055   2.429   2.827 -0.1395  0.1665 -0.1065
  910MOL0     H25512   7.269   2.382   2.698  2.5796  2.1359 -1.1628
  910MOL0     H25513   7.483   2.717   2.668 -0.8252 -0.2974 -0.3827
  910MOL0     H25514   7.475   2.592   2.533  1.9511 -2.2373 -0.9200
  910MOL0     H25515   7.692   2.541   2.544 -1.0551 -0.5959 -0.1282
  910MOL0     H25516   7.685   2.718   2.536  4.7487 -0.2317  1.4900
  910MOL0     H25517   7.767   2.724   2.785  2.1837 -0.3225 -1.0078
  910MOL0     H25518   7.720   2.558   2.804  1.0139  0.9576  1.9983
  910MOL0     H25519   7.954   2.592   2.804 -3.4042  1.1855  1.5281
  910MOL0     H25520   7.928   2.510   2.657  1.1172 -0.3225  1.0024
  910MOL0     H25521   7.955   2.827   2.715 -0.4086 -1.0468  0.8764
  910MOL0     H25522   7.918   2.767   2.551  1.0776 -5.0226 -1.6924
  910MOL0     H25523   8.165   2.719   2.722 -0.7313 -0.9645  0.5916
  910MOL0     H25524   8.135   2.620   2.574 -0.0664  1.5463 -4.2703
  910MOL0     H25525   8.127   2.912   2.528 -3.1491 -2.2703 -0.2136
  910MOL0     H25526   8.139   2.773   2.418  1.5807  0.7428 -1.6817
  910MOL0     H25527   8.343   2.831   2.379  0.4226  1.2591  1.0723
  910MOL0     H25528   8.364   2.908   2.536 -1.2652  0.8979  0.9617
  910MOL0     H25529   8.418   2.749   2.738  0.2432  3.3845 -1.9576
  910MOL0     H25530   8.535   2.401   2.789 -0.5662  1.1526  0.6034
  910MOL0     H25531   8.548   2.559   2.868 -0.2807 -1.0798  1.7124
  910MOL0     H25532   8.760   2.607   2.749 -0.2189 -1.1738 -1.4393
  910MOL0     H25533   8.758   2.466   2.871  1.0370 -2.1930 -0.3203
  910MOL0     H25534   8.770   2.314   2.672 -0.9022 -0.6064 -0.0189
  910MOL0     H25535   8.772   2.444   2.561  2.2552 -3.4878 -0.8807
  910MOL0     H25536   8.993   2.361   2.598 -2.0447  0.9575 -2.8328
  910MOL0     H25537   8.981   2.538   2.644 -0.2053  0.0090  0.1663
  910MOL0     H25538   9.024   2.684   2.746  2.3255  0.9900 -0.8458
  910MOL0     H25539   9.086   2.897   2.775 -2.0112  3.2851 -0.1885
  910MOL0     H25540   9.222   2.912   2.886 -1.4807  1.5281  0.0467
  910MOL0     H25541   9.070   2.971   2.933  2.6101  0.3329  1.3250
  910MOL0     H25542   9.074   2.885   3.452 -0.7966  0.7779  0.6925
  910MOL0     H25543   9.147   3.052   3.621  3.1257 -0.8094 -0.5617
  910MOL0     H25544   9.310   3.425   3.470 -0.7861 -0.9705 -0.0928
  910MOL0     H25545   9.149   3.467   3.537 -0.0360 -1.5898 -1.3518
  910MOL0     H25546   9.317   3.580   3.669  2.0464  0.1642  1.2844
  910MOL0     H25547   9.249   3.450   3.763  1.1663  0.3997  0.4006
  910MOL0     H25548   9.544   3.474   3.639  0.9661 -0.1939  0.0667
  910MOL0     H25549   9.472   3.315   3.675 -0.1412 -0.0036 -0.4610
  910MOL0     H25550   9.457   3.391   3.911  2.4602 -2.5526  0.7889
  910MOL0     H25551   9.522   3.547   3.870 -1.3597  0.0658  0.2326
  910MOL0     H25552   9.680   3.349   3.965  4.8720  1.3760 -0.2032
  910MOL0     H25553   9.663   3.282   3.808 -0.6652 -1.2453  2.3712
  910MOL0     H25554   9.740   3.576   3.860 -0.4974 -0.3056  0.5006
  910MOL0     H25555   9.767   3.487   3.710 -1.6233 -2.8307 -0.5283
  910MOL0     H25556   9.913   3.390   3.973  5.2875 -0.2889  1.2653
  910MOL0     H25557   9.959   3.543   3.890  0.9914 -0.8787 -1.2735
  910MOL0     H25558  10.029   3.449   3.700  0.8394 -1.8957 -2.3594
  910MOL0     H25559   9.912   3.315   3.705  1.1889 -2.0814 -1.7253
  910MOL0     H25560   9.216   3.327   3.294  0.4111  1.5061  3.3210
  910MOL0     H25561   9.147   3.169   3.134  2.1055 -2.5292 -1.3527
  910MOL0     H25562   9.147   2.551   3.209  0.7043 -2.2740  0.0519
  910MOL0     H25563   9.050   2.374   3.040 -3.1196 -0.3085 -2.7292
  910MOL0     H25564   7.472   2.669   2.946 -2.3180  3.6748  2.5912
  910MOL0     H25565   7.262   2.710   3.072 -5.0404 -1.3362  0.9092
  910MOL0     H25566   6.835   2.765   3.052  0.4382  3.4341  1.0309
  910MOL0     H25567   6.621   2.854   3.170 -1.9074  0.0521  2.3623
  910MOL0     H25568   6.507   2.972   3.311  0.7754  2.4312  1.0003
  910MOL0     H25569   6.409   2.937   3.456 -0.9319 -2.2961 -1.0015
  910MOL0     H25570   6.569   3.119   3.447 -1.4202 -0.1972 -0.5945
  910MOL0     H25571   6.701   3.004   3.470  0.6136  0.4071  1.7455
  910MOL0     H25572   6.666   3.087   3.693 -0.6015  0.6423  1.7607
  910MOL0     H25573   6.495   3.076   3.687  0.6384  0.8810  0.6587
  910MOL0     H25574   6.686   2.842   3.668  0.6090  0.8645 -2.3095
  910MOL0     H25575   6.506   2.833   3.664 -1.0149  0.6834 -0.7794
  910MOL0     H25576   6.564   2.880   4.071  2.6355 -0.8925  0.9287
  910MOL0     H25577   6.722   2.619   3.508  0.8296  2.0767  0.7688
  910MOL0     H25578   7.045   2.521   3.423  0.4335 -2.1862 -1.9851
  910MOL0     H25579   6.887   2.498   3.518 -0.4801 -0.8437 -0.2057
  910MOL0     H25580   6.915   2.408   3.377  1.0757 -0.1521 -1.1082
  911MOL0     O25581   9.352   9.960   8.824  0.6244 -0.5581  0.3132
  911MOL0     C25582   9.335   9.879   8.740  0.4061 -0.2186  0.4344
  911MOL0     O25583   9.398   9.757   8.732  0.4643  0.0485 -0.2254
  911MOL0     C25584   9.492   9.725   8.825 -0.1435  0.3664  0.3996
  911MOL0     C25585   9.469   9.657   8.941 -0.1895  0.4811  0.2401
  911MOL0     C25586   9.574   9.629   9.034  0.8829 -0.5273 -0.4083
  911MOL0     C25587   9.710   9.663   9.006  0.3959  0.4035  0.2580
  911MOL0     O25588   9.819   9.624   9.077 -0.0817  0.5321 -0.2794
  911MOL0     C25589   9.822   9.561   9.199 -0.7047  0.0019  0.1170
  911MOL0     C25590   9.812   9.672   9.314 -0.0036  0.4912 -0.1176
  911MOL0     C25591   9.920   9.772   9.310 -0.5116  0.7261 -0.7490
  911MOL0     C25592   9.943   9.844   9.442  0.0558 -0.1314  0.3886
  911MOL0     C25593  10.011   9.976   9.436 -0.6128 -0.3889  1.3077
  911MOL0     C25594  10.132   9.974   9.343  0.2613  1.2388  0.2161
  911MOL0     C25595  10.210  10.098   9.358  0.4245 -0.4304 -0.6921
  911MOL0     C25596  10.135  10.226   9.293  0.0567 -0.6810  0.5970
  911MOL0     N25597  10.234  10.339   9.277  0.4545 -0.2097  0.1733
  911MOL0     C25598  10.289  10.403   9.381  1.2739  0.4501 -0.9484
  911MOL0     C25599  10.379  10.487   9.319 -0.0114  0.0513 -0.8403
  911MOL0     C25600  10.460  10.601   9.367 -0.3842  0.0240  0.2607
  911MOL0     C25601  10.596  10.577   9.427  0.2064 -0.1046 -0.4519
  911MOL0     C25602  10.667  10.709   9.481  0.1862  0.3560  0.9478
  911MOL0     C25603  10.782  10.679   9.577  0.2550 -0.2685 -0.3667
  911MOL0     O25604  10.880  10.594   9.509  0.5044  0.2086 -0.5539
  911MOL0     C25605  11.004  10.644   9.500  0.4346  0.3855  0.6706
  911MOL0     C25606  11.041  10.688   9.373 -0.1294 -0.2241 -0.2924
  911MOL0     C25607  11.173  10.748   9.359  0.1505 -0.0884  0.1293
  911MOL0     C25608  11.212  10.778   9.219  0.0247 -0.3959 -0.2171
  911MOL0     C25609  11.261  10.775   9.473 -0.4475  0.4593 -0.3376
  911MOL0     C25610  11.394  10.836   9.470 -0.5083 -0.4229  0.4147
  911MOL0     O25611  11.463  10.832   9.585  0.0899 -0.6868  0.4124
  911MOL0     C25612  11.592  10.874   9.607  0.3218  0.8178  0.4139
  911MOL0     C25613  11.703  10.860   9.521 -0.2921  0.0994  0.1159
  911MOL0     C25614  11.830  10.891   9.561 -0.9479 -0.5299 -0.7363
  911MOL0     C25615  11.851  10.949   9.694  1.1465 -0.0122  0.1405
  911MOL0     O25616  11.970  10.994   9.747 -0.8314 -0.1003  0.4889
  911MOL0     C25617  12.084  10.947   9.668 -0.1291 -0.5483  0.4949
  911MOL0     C25618  12.202  10.989   9.743  0.2154  0.3499 -0.0489
  911MOL0     C25619  12.330  10.986   9.654  0.7389  0.3857  0.6630
  911MOL0     C25620  12.442  11.025   9.744  0.1081 -0.2872  0.1611
  911MOL0     C25621  12.568  11.020   9.653  0.5268  1.1059  0.3488
  911MOL0     C25622  12.700  11.047   9.732  0.4142 -0.0691  0.2601
  911MOL0     C25623  12.815  11.035   9.638 -0.0955 -0.3214  1.1605
  911MOL0     C25624  12.943  11.075   9.715  0.0182 -0.8727 -0.5177
  911MOL0    Cl25625  12.949  11.219   9.818 -0.2881 -0.0826 -0.3147
  911MOL0     C25626  11.733  10.950   9.778 -0.0460  0.5909 -0.6439
  911MOL0     C25627  11.611  10.912   9.735  0.0514  1.2093  0.5156
  911MOL0     O25628  11.433  10.890   9.371  0.1465  0.4218  0.2277
  911MOL0     C25629  11.218  10.727   9.598  0.4887  0.0666 -0.5898
  911MOL0     C25630  11.097  10.661   9.610  0.3959 -0.4220  0.1297
  911MOL0     N25631  10.379  10.466   9.187 -0.0207 -0.0147  0.2870
  911MOL0     N25632  10.290  10.382   9.164 -0.1614 -0.5094  0.0115
  911MOL0     C25633   9.729   9.736   8.889 -0.0697  0.5269  1.0388
  911MOL0     C25634   9.627   9.757   8.794  0.2236 -0.2289 -0.4320
  911MOL0     C25635   9.223   9.890   8.630 -0.8549 -0.0810  0.0609
  911MOL0     C25636   9.253   9.824   8.509 -1.0617 -0.5053 -0.0456
  911MOL0     C25637   9.158   9.821   8.400 -0.5243  0.3978 -1.0200
  911MOL0     C25638   9.035   9.886   8.415 -0.2489  0.1185  0.4537
  911MOL0     O25639   8.939   9.884   8.316  0.1599  1.0790 -0.2430
  911MOL0     C25640   8.952   9.808   8.193 -0.0330  0.7849 -0.4836
  911MOL0     C25641   8.815   9.751   8.152 -0.1070  0.2090 -0.2268
  911MOL0     C25642   8.825   9.655   8.034 -0.4534 -0.4079  0.0044
  911MOL0     C25643   8.815   9.733   7.900  0.8748 -0.4008  0.9797
  911MOL0     C25644   8.822   9.880   7.888 -0.0727  0.0213  0.0994
  911MOL0     C25645   8.844  10.001   7.886  0.3657  1.2145  0.1298
  911MOL0     C25646   9.013   9.962   8.531 -0.2607 -0.5293  0.7108
  911MOL0     C25647   9.101   9.953   8.637 -0.2480 -0.2137  0.8968
  911MOL0     C25648   9.048  10.010   8.770  0.0897  0.0695 -0.1254
  911MOL0     H25649   9.367   9.621   8.946  0.5455 -1.6108  1.4207
  911MOL0     H25650   9.552   9.575   9.126  1.6177  1.1030  0.7623
  911MOL0     H25651   9.915   9.507   9.223  1.1879  2.0670 -2.0001
  911MOL0     H25652   9.739   9.490   9.192 -0.9855 -0.0508  2.7724
  911MOL0     H25653   9.718   9.727   9.303 -1.4485 -1.3454  2.0687
  911MOL0     H25654   9.799   9.621   9.409 -0.3557  1.7261  0.5234
  911MOL0     H25655  10.012   9.721   9.280  0.5070  1.2091  1.3111
  911MOL0     H25656   9.895   9.844   9.232  1.1095 -0.3644 -2.3604
  911MOL0     H25657   9.846   9.865   9.488 -0.5155  0.8805 -1.2017
  911MOL0     H25658   9.994   9.773   9.508 -0.5415 -3.0077 -1.9769
  911MOL0     H25659  10.036   9.999   9.540 -3.5920  1.7563  1.6931
  911MOL0     H25660   9.939  10.053   9.407  1.4629  0.8317 -0.9563
  911MOL0     H25661  10.189   9.888   9.379 -1.4994  0.1691  0.6024
  911MOL0     H25662  10.099   9.956   9.240 -0.9526 -1.4316  0.9592
  911MOL0     H25663  10.307  10.087   9.310  2.9144 -0.6069  3.7740
  911MOL0     H25664  10.238  10.122   9.461  1.5230 -0.4803 -0.9693
  911MOL0     H25665  10.102  10.219   9.189  1.8092  3.3080 -0.4201
  911MOL0     H25666  10.050  10.253   9.356  0.9400 -1.5452  2.2271
  911MOL0     H25667  10.258  10.398   9.485  1.8184  1.2404 -0.7377
  911MOL0     H25668  10.392  10.655   9.433 -2.7531  0.1444 -2.1181
  911MOL0     H25669  10.479  10.658   9.275 -1.1292 -1.5313 -0.8947
  911MOL0     H25670  10.576  10.506   9.509 -1.4673 -0.0819 -0.8077
  911MOL0     H25671  10.659  10.525   9.354  0.6673 -1.7414  1.0180
  911MOL0     H25672  10.711  10.765   9.398 -2.0099 -0.5625 -0.9659
  911MOL0     H25673  10.586  10.769   9.524 -0.5696 -1.2276  1.8316
  911MOL0     H25674  10.824  10.776   9.606 -2.4455  1.0769 -0.6609
  911MOL0     H25675  10.739  10.632   9.667 -1.0202 -0.6624 -1.1487
  911MOL0     H25676  10.962  10.702   9.299 -0.7555 -0.7582  0.2587
  911MOL0     H25677  11.155  10.723   9.144 -2.3398 -0.8025  1.7657
  911MOL0     H25678  11.317  10.761   9.193  0.0199 -0.5371 -0.1447
  911MOL0     H25679  11.197  10.883   9.192  3.7033 -0.1280 -1.8046
  911MOL0     H25680  11.685  10.825   9.420  1.9407 -1.7723  0.2712
  911MOL0     H25681  11.916  10.903   9.495 -1.2235  4.4027 -0.6103
  911MOL0     H25682  12.082  10.841   9.641 -1.4934 -0.3812 -0.1413
  911MOL0     H25683  12.083  10.988   9.566 -1.6113 -1.3005  0.1756
  911MOL0     H25684  12.189  11.087   9.790  1.2013  0.6219 -0.3154
  911MOL0     H25685  12.212  10.913   9.821 -2.2475  1.4237  1.4423
  911MOL0     H25686  12.317  11.060   9.574  0.6197  4.3859  4.0250
  911MOL0     H25687  12.349  10.889   9.606  2.0146  0.4835  0.9380
  911MOL0     H25688  12.452  10.951   9.824 -1.8107 -2.3939 -1.4340
  911MOL0     H25689  12.421  11.125   9.781 -2.4358  0.0199 -1.8615
  911MOL0     H25690  12.571  10.922   9.605 -2.5421  1.1873 -0.1610
  911MOL0     H25691  12.559  11.096   9.575  4.5619  3.3964  1.7726
  911MOL0     H25692  12.712  10.972   9.810 -0.7999  0.0329  0.5702
  911MOL0     H25693  12.696  11.143   9.784 -0.7294 -0.5422  1.1016
  911MOL0     H25694  12.793  11.097   9.550  0.3597 -0.5998  0.8419
  911MOL0     H25695  12.835  10.934   9.599 -3.4428 -0.2853 -1.0975
  911MOL0     H25696  13.018  11.084   9.635 -0.5902  1.9802 -0.8667
  911MOL0     H25697  12.968  10.987   9.775 -2.6480 -1.0355  0.4614
  911MOL0     H25698  11.754  10.969   9.882  2.3936 -0.3907 -0.8827
  911MOL0     H25699  11.527  10.911   9.804  0.8230 -0.4323  1.4803
  911MOL0     H25700  11.273  10.745   9.690  0.9515 -0.2630 -0.8008
  911MOL0     H25701  11.058  10.629   9.706 -0.3709  0.1334  0.0100
  911MOL0     H25702   9.831   9.760   8.862 -0.1350 -1.4233 -1.2645
  911MOL0     H25703   9.654   9.818   8.709  0.7413 -1.8905 -1.5074
  911MOL0     H25704   9.353   9.784   8.495 -0.0249  0.4839  3.5560
  911MOL0     H25705   9.177   9.774   8.304  3.3953 -0.5074  0.0399
  911MOL0     H25706   8.990   9.872   8.113 -0.6347  0.6825 -0.8591
  911MOL0     H25707   9.019   9.723   8.208 -1.5918  0.1346  4.3703
  911MOL0     H25708   8.749   9.836   8.130  0.8488  1.5607  1.8147
  911MOL0     H25709   8.765   9.705   8.238  2.9387 -0.9884  1.0195
  911MOL0     H25710   8.925   9.611   8.038  0.4710  1.6570  1.6194
  911MOL0     H25711   8.744   9.582   8.040 -1.0199 -0.0093 -2.0368
  911MOL0     H25712   8.719   9.711   7.853  1.8779  0.4219 -1.6528
  911MOL0     H25713   8.885   9.695   7.825 -1.3224 -0.7229 -1.0123
  911MOL0     H25714   8.876  10.103   7.876 -0.2362  1.3232 -0.8818
  911MOL0     H25715   8.919  10.013   8.547  0.3367  0.9101 -0.1407
  911MOL0     H25716   8.950  10.056   8.756  1.7421  3.5613 -1.5348
  911MOL0     H25717   9.044   9.936   8.850  0.4372  1.1251  0.9002
  911MOL0     H25718   9.112  10.094   8.798 -0.1009  0.4680 -0.8587
  912MOL0     O25719   1.802   1.458   1.536 -0.7837  0.4269 -0.2531
  912MOL0     C25720   1.687   1.492   1.530  0.0876 -0.8125  0.1336
  912MOL0     O25721   1.629   1.611   1.461 -0.4186 -0.4474  0.1367
  912MOL0     C25722   1.707   1.718   1.444 -0.7114  1.4076  0.0971
  912MOL0     C25723   1.642   1.835   1.440  0.9560 -0.3839  0.1050
  912MOL0     C25724   1.697   1.957   1.416  0.1030  0.0923  0.6151
  912MOL0     C25725   1.835   1.967   1.401 -1.5287 -0.2491 -0.1548
  912MOL0     O25726   1.887   2.091   1.390  0.1290 -0.0898  0.7352
  912MOL0     C25727   2.028   2.114   1.404  0.1330  0.8092  0.6623
  912MOL0     C25728   2.067   2.259   1.387 -1.2515 -0.2088 -0.6757
  912MOL0     C25729   2.196   2.298   1.452 -0.1872 -0.0785 -0.0312
  912MOL0     C25730   2.221   2.450   1.454 -0.1041 -1.3181  0.4060
  912MOL0     C25731   2.362   2.498   1.513  0.3827 -0.4564  0.0132
  912MOL0     C25732   2.486   2.437   1.438  0.0937  0.0261 -0.1277
  912MOL0     C25733   2.609   2.516   1.468  0.3367  0.0250 -0.4197
  912MOL0     C25734   2.647   2.591   1.344 -0.1771 -0.3943  0.0624
  912MOL0     N25735   2.778   2.660   1.348 -0.1162  0.6843 -0.1471
  912MOL0     C25736   2.888   2.587   1.377 -0.4819 -0.5884 -0.2533
  912MOL0     C25737   2.990   2.668   1.326 -0.8035  1.8820  0.3129
  912MOL0     C25738   3.135   2.661   1.352  0.1734  0.3091 -0.5201
  912MOL0     C25739   3.174   2.734   1.489  0.6459  0.3658 -0.4834
  912MOL0     C25740   3.312   2.695   1.531 -0.6263  0.4373  0.2612
  912MOL0     C25741   3.320   2.561   1.597 -0.1933  0.4242 -0.9854
  912MOL0     O25742   3.433   2.532   1.687 -0.5118 -0.0890 -0.2045
  912MOL0     C25743   3.433   2.574   1.821  0.0984 -0.2902  0.3945
  912MOL0     C25744   3.322   2.636   1.885 -0.2536 -0.5329  0.4552
  912MOL0     C25745   3.341   2.685   2.013  0.2171  0.8750 -0.5475
  912MOL0     C25746   3.227   2.755   2.075 -0.0638  0.5551  0.0735
  912MOL0     C25747   3.465   2.668   2.090 -0.0412 -0.0157 -0.9333
  912MOL0     C25748   3.495   2.709   2.233 -0.0721 -0.3592 -0.6780
  912MOL0     O25749   3.626   2.717   2.271 -0.0287 -0.1234  0.2702
  912MOL0     C25750   3.652   2.761   2.395 -0.3079 -0.1516  0.1397
  912MOL0     C25751   3.758   2.684   2.449 -1.0139 -1.2106  0.5018
  912MOL0     C25752   3.821   2.730   2.559  0.0164 -0.1674 -1.0353
  912MOL0     C25753   3.789   2.848   2.633  0.4847  1.8351  0.6176
  912MOL0     O25754   3.856   2.903   2.732  0.1438  0.2890 -0.3636
  912MOL0     C25755   3.977   2.950   2.688 -0.3527 -0.0711  0.1292
  912MOL0     C25756   4.035   3.054   2.782 -0.5786 -0.2656  0.3901
  912MOL0     C25757   3.957   3.187   2.781 -0.0008  0.8737  0.1663
  912MOL0     C25758   3.830   3.181   2.867  0.1550  0.1147  0.0296
  912MOL0     C25759   3.730   3.301   2.840 -1.2328 -0.1685 -0.3141
  912MOL0     C25760   3.599   3.267   2.885  0.3656 -0.0826  0.2990
  912MOL0     C25761   3.506   3.393   2.855 -0.3750 -0.2622  0.3327
  912MOL0     C25762   3.426   3.447   2.976 -0.2047 -0.7834  0.4507
  912MOL0    Cl25763   3.296   3.331   3.038 -0.4633 -0.3240  0.0761
  912MOL0     C25764   3.677   2.916   2.579 -0.1596 -0.2534 -0.3186
  912MOL0     C25765   3.605   2.879   2.467  0.4503 -0.0857  0.5260
  912MOL0     O25766   3.402   2.732   2.313 -0.4999 -0.1764  0.2209
  912MOL0     C25767   3.569   2.601   2.023 -0.4593 -0.3898 -0.2396
  912MOL0     C25768   3.551   2.557   1.891 -0.1354  0.7769  0.6099
  912MOL0     N25769   2.930   2.777   1.264  0.1258  0.1416 -0.5543
  912MOL0     N25770   2.802   2.773   1.275  0.6155 -0.1367 -0.7555
  912MOL0     C25771   1.913   1.844   1.400  0.1296  0.2861  0.0241
  912MOL0     C25772   1.851   1.716   1.418 -0.5798 -0.4759 -1.2167
  912MOL0     C25773   1.587   1.389   1.567 -0.0368  0.3375  0.8253
  912MOL0     C25774   1.452   1.416   1.551  0.2136 -0.7914 -0.0618
  912MOL0     C25775   1.346   1.333   1.587 -0.0991 -0.0486 -0.8161
  912MOL0     C25776   1.385   1.201   1.616 -0.7399 -0.3688 -0.1442
  912MOL0     O25777   1.298   1.099   1.628  0.1823  0.2521 -0.2959
  912MOL0     C25778   1.173   1.131   1.685 -0.8137  0.4635 -0.5678
  912MOL0     C25779   1.094   1.002   1.703 -0.1115 -0.0780  0.5434
  912MOL0     C25780   1.072   0.940   1.563  0.4904  0.1968  0.2340
  912MOL0     C25781   1.003   0.798   1.572  0.3553  0.9868 -0.4645
  912MOL0     C25782   0.855   0.814   1.571 -0.7185 -0.0705 -0.1065
  912MOL0     C25783   0.745   0.836   1.606  0.5298  0.1114 -0.9097
  912MOL0     C25784   1.521   1.163   1.613  1.0008  0.2570  0.0089
  912MOL0     C25785   1.619   1.252   1.591 -0.2419 -0.2333  0.9812
  912MOL0     C25786   1.759   1.188   1.584 -0.5325  0.5051 -0.2054
  912MOL0     H25787   1.535   1.838   1.454  1.0556 -1.5742  1.3240
  912MOL0     H25788   1.641   2.049   1.407  2.4005  1.3807 -1.7594
  912MOL0     H25789   2.081   2.054   1.330 -1.5247  2.1083 -1.7341
  912MOL0     H25790   2.061   2.080   1.503 -0.8689 -0.1378  0.6820
  912MOL0     H25791   2.086   2.281   1.282 -3.0216 -2.4858 -1.5669
  912MOL0     H25792   1.987   2.324   1.424  0.3121  1.1735  0.4177
  912MOL0     H25793   2.201   2.262   1.555  1.8311 -3.0708 -1.0183
  912MOL0     H25794   2.276   2.248   1.397 -1.0483 -1.3944 -0.1437
  912MOL0     H25795   2.221   2.482   1.350 -0.6252 -0.6592  0.6048
  912MOL0     H25796   2.141   2.501   1.509  3.3523  1.5385  3.2843
  912MOL0     H25797   2.359   2.459   1.615  2.2072 -1.7444 -0.3632
  912MOL0     H25798   2.362   2.607   1.520 -0.8029 -0.5469  2.5257
  912MOL0     H25799   2.497   2.329   1.456  1.5444  0.0489 -0.7199
  912MOL0     H25800   2.464   2.442   1.331 -0.6964 -1.5523 -0.0754
  912MOL0     H25801   2.691   2.451   1.499  1.0806  0.9633 -0.3578
  912MOL0     H25802   2.598   2.581   1.555  1.1504 -1.5838  0.9450
  912MOL0     H25803   2.641   2.525   1.257 -0.9910  1.0231 -1.0003
  912MOL0     H25804   2.572   2.670   1.343 -1.0740 -1.1256 -3.2386
  912MOL0     H25805   2.909   2.495   1.431  0.0699 -0.3041  0.0296
  912MOL0     H25806   3.187   2.711   1.270  1.6042  1.2974  0.9093
  912MOL0     H25807   3.171   2.558   1.352 -3.3045 -1.0909  1.2710
  912MOL0     H25808   3.177   2.842   1.471 -0.4493  0.2944 -1.1746
  912MOL0     H25809   3.106   2.709   1.572 -0.7728  0.7748 -1.4812
  912MOL0     H25810   3.374   2.694   1.441  0.2781  0.1558  0.8611
  912MOL0     H25811   3.347   2.771   1.601  1.3218 -1.3246  1.3509
  912MOL0     H25812   3.226   2.541   1.649 -0.5713  1.2108 -1.3504
  912MOL0     H25813   3.321   2.485   1.518 -0.5471  0.5067 -1.0723
  912MOL0     H25814   3.224   2.657   1.843  0.8234 -0.5133 -2.2665
  912MOL0     H25815   3.252   2.858   2.103  1.4902  0.5192 -1.0282
  912MOL0     H25816   3.199   2.695   2.162  2.4213  0.1369  0.6729
  912MOL0     H25817   3.131   2.763   2.023 -1.2217  1.7302  2.2335
  912MOL0     H25818   3.808   2.611   2.387  0.8298  2.1900 -2.3673
  912MOL0     H25819   3.905   2.673   2.599 -1.1832 -0.3223  1.4129
  912MOL0     H25820   4.046   2.867   2.671  0.0766  0.4072 -0.5624
  912MOL0     H25821   3.964   3.005   2.594 -2.1249  0.1720  0.4792
  912MOL0     H25822   4.036   3.013   2.883  1.8835 -0.2062  0.4464
  912MOL0     H25823   4.138   3.071   2.749 -0.8322  1.6967  0.4582
  912MOL0     H25824   3.933   3.223   2.680  1.2670  0.5418 -0.2734
  912MOL0     H25825   4.023   3.259   2.830  0.4836 -0.5518  1.7071
  912MOL0     H25826   3.859   3.175   2.972  0.5024 -1.9761 -0.1523
  912MOL0     H25827   3.763   3.097   2.844  0.1927  0.0802  0.0456
  912MOL0     H25828   3.750   3.396   2.892 -1.2288 -0.0526 -0.5233
  912MOL0     H25829   3.742   3.328   2.734 -0.4766 -3.4277 -1.1554
  912MOL0     H25830   3.597   3.229   2.988 -2.1086 -2.2732 -0.4410
  912MOL0     H25831   3.558   3.185   2.825  2.3178 -1.8467  1.2634
  912MOL0     H25832   3.431   3.354   2.787  2.9397 -0.7329 -3.4552
  912MOL0     H25833   3.553   3.481   2.808 -0.9942  0.0586  0.3120
  912MOL0     H25834   3.374   3.535   2.939 -0.7814 -1.8201 -1.3549
  912MOL0     H25835   3.486   3.474   3.063 -2.3114 -2.4198  2.5432
  912MOL0     H25836   3.641   3.001   2.636 -0.0278 -0.2945 -0.1737
  912MOL0     H25837   3.529   2.934   2.413  2.4815 -0.6823 -3.3451
  912MOL0     H25838   3.662   2.582   2.076 -1.5416 -1.4635  1.3362
  912MOL0     H25839   3.640   2.516   1.844 -0.9700  1.1198 -1.3485
  912MOL0     H25840   2.019   1.826   1.384  0.2813  1.6765 -0.6144
  912MOL0     H25841   1.914   1.628   1.422  0.6711  0.4342  1.3099
  912MOL0     H25842   1.409   1.511   1.520 -0.3547 -0.7650  0.7723
  912MOL0     H25843   1.245   1.370   1.576 -0.0119  0.0490 -1.3000
  912MOL0     H25844   1.179   1.176   1.784  0.4930 -0.1664 -0.3435
  912MOL0     H25845   1.124   1.210   1.628 -0.3205  0.2963 -1.2339
  912MOL0     H25846   0.995   1.025   1.744 -1.5879 -1.6624 -1.8617
  912MOL0     H25847   1.149   0.941   1.775 -2.1247 -0.6838  1.6746
  912MOL0     H25848   1.007   1.011   1.512  0.6494  0.4556  0.3934
  912MOL0     H25849   1.170   0.927   1.514  2.3836 -0.6691  3.8810
  912MOL0     H25850   1.034   0.755   1.667 -2.6653  0.2061  0.2719
  912MOL0     H25851   1.019   0.738   1.482  0.3687 -1.4910  1.1036
  912MOL0     H25852   0.654   0.875   1.648  0.3884 -0.7901 -0.3670
  912MOL0     H25853   1.541   1.061   1.643 -1.1601  0.8511  4.3362
  912MOL0     H25854   1.814   1.212   1.675 -2.3563  0.8949  0.8475
  912MOL0     H25855   1.740   1.080   1.585  0.2788  0.3218 -1.6211
  912MOL0     H25856   1.809   1.204   1.488 -2.7173  0.6177 -1.3904
  913MOL0     O25857   7.629   7.164   4.679  0.1655 -0.4995 -0.1810
  913MOL0     C25858   7.532   7.156   4.753  0.4164  0.2979  1.4826
  913MOL0     O25859   7.532   7.150   4.893  1.1002  0.6231  0.0782
  913MOL0     C25860   7.653   7.169   4.951 -0.1998  0.5663  0.1695
  913MOL0     C25861   7.781   7.106   4.913  0.7959  0.0965 -0.7590
  913MOL0     C25862   7.894   7.123   4.995 -0.6351  0.5708  0.2471
  913MOL0     C25863   7.881   7.195   5.113  0.6123 -0.2874  0.3152
  913MOL0     O25864   7.990   7.206   5.196  0.0426 -0.0858  0.4830
  913MOL0     C25865   8.107   7.246   5.125 -0.0672 -0.0378  0.4953
  913MOL0     C25866   8.210   7.247   5.235  0.6825 -0.3727  0.0374
  913MOL0     C25867   8.351   7.280   5.185 -0.3433 -0.6419  0.8811
  913MOL0     C25868   8.450   7.288   5.304  0.8081  0.3543 -0.6296
  913MOL0     C25869   8.590   7.321   5.248  0.0168 -0.5531 -0.5156
  913MOL0     C25870   8.686   7.354   5.365  0.6218  0.5575 -0.2223
  913MOL0     C25871   8.818   7.406   5.310  0.1000 -0.0953  0.0821
  913MOL0     C25872   8.911   7.432   5.427 -0.8363 -0.5004 -0.4396
  913MOL0     N25873   9.052   7.448   5.393  0.1105  0.3721 -1.0847
  913MOL0     C25874   9.149   7.491   5.482 -0.0003  0.1087  0.1747
  913MOL0     C25875   9.268   7.460   5.437  0.6650  0.3788  0.6553
  913MOL0     C25876   9.394   7.495   5.515  0.3765 -0.6835  1.4600
  913MOL0     C25877   9.514   7.543   5.432  0.9167 -0.5965 -0.2709
  913MOL0     C25878   9.585   7.666   5.484  0.1928 -0.4266 -1.2569
  913MOL0     C25879   9.691   7.712   5.389  0.0620  0.1619  0.7462
  913MOL0     O25880   9.711   7.855   5.394  1.4888 -0.4185  0.3018
  913MOL0     C25881   9.841   7.881   5.419  0.0269  0.1306 -1.1756
  913MOL0     C25882   9.910   7.839   5.536  0.2109 -0.2503 -0.2173
  913MOL0     C25883  10.050   7.875   5.557  0.4713 -0.5325 -0.6783
  913MOL0     C25884  10.107   7.832   5.692  0.2948  0.4524 -0.0864
  913MOL0     C25885  10.121   7.958   5.462 -0.4979 -0.1271  0.4916
  913MOL0     C25886  10.258   8.013   5.474 -0.2796  1.0301  0.3100
  913MOL0     O25887  10.303   8.078   5.370 -0.3842  0.1825  0.0671
  913MOL0     C25888  10.433   8.075   5.311  1.3912  0.6924  0.0456
  913MOL0     C25889  10.534   7.984   5.351  0.7860  0.3500 -0.6264
  913MOL0     C25890  10.657   7.983   5.284 -0.0447  0.6762 -0.0729
  913MOL0     C25891  10.691   8.068   5.184  0.6282  0.1153  0.8971
  913MOL0     O25892  10.809   8.046   5.124  0.5056 -0.2898  0.0302
  913MOL0     C25893  10.821   8.108   4.996  0.3574  0.1184 -1.4102
  913MOL0     C25894  10.933   8.051   4.919 -0.1499  0.3751 -0.4208
  913MOL0     C25895  10.953   8.097   4.779 -0.0528 -0.6478  0.8958
  913MOL0     C25896  11.075   8.027   4.734 -0.3511 -0.2243  0.5415
  913MOL0     C25897  11.043   7.898   4.665  0.4789  0.0094  0.0339
  913MOL0     C25898  11.163   7.804   4.622 -0.1920  0.5617 -0.5088
  913MOL0     C25899  11.135   7.647   4.578  0.0992 -0.2384  0.3626
  913MOL0     C25900  11.074   7.577   4.697  0.2681  0.0975  0.6301
  913MOL0    Cl25901  11.045   7.401   4.678  0.3023  0.0343 -0.0496
  913MOL0     C25902  10.592   8.168   5.159 -0.2270 -0.9037 -0.5717
  913MOL0     C25903  10.455   8.167   5.209 -0.4475 -0.0244 -0.1803
  913MOL0     O25904  10.321   7.994   5.575  0.4835 -0.0928 -0.7914
  913MOL0     C25905  10.046   7.993   5.350 -0.3065  0.5483 -0.4782
  913MOL0     C25906   9.911   7.957   5.331 -0.8907 -0.0962  0.0681
  913MOL0     N25907   9.246   7.394   5.312  0.6875 -0.3162  0.0043
  913MOL0     N25908   9.117   7.381   5.295  0.2308  0.1028  0.4642
  913MOL0     C25909   7.748   7.244   5.150 -0.5215  0.4749 -0.9835
  913MOL0     C25910   7.641   7.234   5.070 -0.6532  0.0056  0.0143
  913MOL0     C25911   7.407   7.136   4.683  0.2603  0.4847  0.1556
  913MOL0     C25912   7.386   7.185   4.551 -0.0097 -0.6794  0.9816
  913MOL0     C25913   7.254   7.181   4.498  0.5465 -0.3163 -0.1639
  913MOL0     C25914   7.150   7.112   4.551  0.2459  0.4632 -0.7372
  913MOL0     O25915   7.025   7.097   4.494 -0.0324 -0.3364 -0.0772
  913MOL0     C25916   6.995   7.173   4.374 -0.5401 -0.8071 -0.2892
  913MOL0     C25917   6.875   7.126   4.302  0.0932 -0.8658  0.0623
  913MOL0     C25918   6.845   7.202   4.173 -0.2042 -0.8117  0.0619
  913MOL0     C25919   6.725   7.131   4.110 -0.0480  0.0573  0.0049
  913MOL0     C25920   6.612   7.102   4.208 -0.1090  0.9813 -0.6937
  913MOL0     C25921   6.513   7.072   4.276 -0.6864  0.4996 -0.1608
  913MOL0     C25922   7.179   7.049   4.671  0.3970  0.9739 -0.7061
  913MOL0     C25923   7.298   7.054   4.734 -0.3515  0.7092  0.2115
  913MOL0     C25924   7.320   6.965   4.855  0.0724 -1.1318  0.2941
  913MOL0     H25925   7.786   7.052   4.819 -1.7062 -1.2698 -0.1950
  913MOL0     H25926   7.975   7.060   4.959 -2.0531 -0.6117 -1.0412
  913MOL0     H25927   8.102   7.339   5.067  1.5379 -0.0206  0.3485
  913MOL0     H25928   8.129   7.163   5.057 -2.4532  0.0263 -0.4634
  913MOL0     H25929   8.184   7.324   5.309 -1.7334 -1.2207  0.1349
  913MOL0     H25930   8.211   7.151   5.287  3.4004 -0.6413 -0.3798
  913MOL0     H25931   8.389   7.213   5.108  0.0029 -0.0450  0.5287
  913MOL0     H25932   8.352   7.376   5.133  0.8469 -1.6453 -1.0584
  913MOL0     H25933   8.414   7.352   5.385  1.4723 -2.8893  2.4879
  913MOL0     H25934   8.450   7.186   5.345 -4.6546  0.9370  1.7287
  913MOL0     H25935   8.580   7.410   5.186 -0.7049  1.1989  1.9486
  913MOL0     H25936   8.637   7.244   5.186 -1.1279 -2.6943  1.1220
  913MOL0     H25937   8.645   7.432   5.431  0.9468  0.5406  0.0051
  913MOL0     H25938   8.715   7.266   5.423 -1.2911 -1.2983 -1.9092
  913MOL0     H25939   8.803   7.496   5.251  0.0009 -0.0829  0.1267
  913MOL0     H25940   8.859   7.328   5.244 -1.0384  0.9880 -2.0139
  913MOL0     H25941   8.880   7.530   5.464  2.0950  0.8466 -1.2784
  913MOL0     H25942   8.905   7.350   5.500 -2.1037  0.0792  0.1423
  913MOL0     H25943   9.129   7.542   5.576  1.1241 -1.9161  1.5897
  913MOL0     H25944   9.431   7.400   5.553 -1.0643 -1.6710  0.4632
  913MOL0     H25945   9.377   7.557   5.604  0.6228 -0.5315  1.4036
  913MOL0     H25946   9.582   7.458   5.422  0.8082 -0.7285  0.1207
  913MOL0     H25947   9.478   7.581   5.335 -0.6972  1.1475  0.9328
  913MOL0     H25948   9.510   7.743   5.501 -1.6296 -2.7068  2.2698
  913MOL0     H25949   9.636   7.654   5.580 -3.0776 -3.1918  0.3497
  913MOL0     H25950   9.779   7.647   5.399 -0.4386 -0.7642 -0.6249
  913MOL0     H25951   9.663   7.685   5.286  1.7125 -2.4132  0.8787
  913MOL0     H25952   9.857   7.789   5.617  3.2107  1.9304  3.4595
  913MOL0     H25953  10.215   7.813   5.682 -0.4070 -2.7921 -3.8058
  913MOL0     H25954  10.058   7.741   5.726 -0.2940  0.6766 -0.3240
  913MOL0     H25955  10.087   7.920   5.754  1.5833  1.1106 -0.5598
  913MOL0     H25956  10.512   7.926   5.440 -1.3860  0.6882 -0.8801
  913MOL0     H25957  10.718   7.898   5.314 -2.3310 -0.4120  1.8622
  913MOL0     H25958  10.731   8.094   4.935 -0.6473  0.9861 -0.1704
  913MOL0     H25959  10.837   8.215   5.007  1.2956  0.0090 -1.5853
  913MOL0     H25960  11.024   8.068   4.978 -1.3967 -0.9893  2.0898
  913MOL0     H25961  10.917   7.943   4.913  0.4896  0.3142 -1.1649
  913MOL0     H25962  10.968   8.205   4.765  2.0871 -0.9078  0.9041
  913MOL0     H25963  10.864   8.076   4.718 -1.4381 -1.0104  2.9632
  913MOL0     H25964  11.151   8.002   4.808 -0.5148  2.2069  1.6272
  913MOL0     H25965  11.116   8.096   4.660  1.1635 -3.3210 -1.7272
  913MOL0     H25966  10.981   7.839   4.733 -2.0337  0.1172 -2.0301
  913MOL0     H25967  10.993   7.917   4.570  3.3928  0.6974 -1.5020
  913MOL0     H25968  11.237   7.811   4.702 -1.0550 -1.9986  0.6324
  913MOL0     H25969  11.200   7.859   4.535 -1.5477  2.2796 -0.0428
  913MOL0     H25970  11.225   7.595   4.545 -0.5973 -1.4974  0.3972
  913MOL0     H25971  11.070   7.644   4.490 -1.5158  1.7752  1.3877
  913MOL0     H25972  10.977   7.626   4.714  0.3352  1.1806 -1.7310
  913MOL0     H25973  11.133   7.576   4.789 -0.3807 -1.6389  1.0510
  913MOL0     H25974  10.615   8.249   5.090 -0.7741  1.5583  1.9571
  913MOL0     H25975  10.394   8.244   5.165 -0.5755 -0.0547 -0.0529
  913MOL0     H25976  10.097   8.049   5.272  2.4200  1.1391  1.5783
  913MOL0     H25977   9.854   8.000   5.249 -0.5021  3.1605  1.3798
  913MOL0     H25978   7.739   7.302   5.241  2.5770 -3.0058  1.8991
  913MOL0     H25979   7.546   7.280   5.097 -1.3527 -2.3563  1.8402
  913MOL0     H25980   7.463   7.245   4.504 -1.0863 -1.0148 -1.3617
  913MOL0     H25981   7.245   7.234   4.404 -4.1383  0.4068  0.4533
  913MOL0     H25982   6.978   7.274   4.411  0.5663 -1.0587  0.9914
  913MOL0     H25983   7.079   7.160   4.305  0.9801 -0.6598  1.4568
  913MOL0     H25984   6.786   7.137   4.366  0.3296  2.3590 -0.0129
  913MOL0     H25985   6.879   7.019   4.276 -2.2819 -0.3922 -2.8740
  913MOL0     H25986   6.842   7.307   4.204  0.1984 -1.0349  0.8933
  913MOL0     H25987   6.935   7.209   4.111 -0.3505  4.2319 -0.0076
  913MOL0     H25988   6.759   7.035   4.072  0.9253  0.9810 -1.5267
  913MOL0     H25989   6.688   7.186   4.024  2.7858  2.7883  0.3442
  913MOL0     H25990   6.424   7.039   4.325 -1.4781 -0.4952 -2.1515
  913MOL0     H25991   7.100   6.988   4.713  2.2620 -2.1895 -1.4268
  913MOL0     H25992   7.405   6.898   4.841  0.5596 -0.3814 -0.4354
  913MOL0     H25993   7.339   7.023   4.946 -0.1421 -1.1894  0.3749
  913MOL0     H25994   7.233   6.899   4.866  1.7401 -3.4583  0.3678
  914MOL0     O25995   6.480   1.240   1.488  0.0104 -0.4983  0.6507
  914MOL0     C25996   6.409   1.308   1.416 -0.3029 -0.2643 -0.7202
  914MOL0     O25997   6.454   1.429   1.354  0.1995  0.1654  0.3020
  914MOL0     C25998   6.575   1.480   1.368  0.1262 -0.2795  1.3861
  914MOL0     C25999   6.633   1.485   1.493 -0.0144  0.8726  0.6892
  914MOL0     C26000   6.742   1.575   1.502 -0.0094  0.7474  0.5555
  914MOL0     C26001   6.790   1.654   1.400 -0.4359  0.0571  0.0019
  914MOL0     O26002   6.889   1.744   1.418  0.2720 -0.1075 -0.4245
  914MOL0     C26003   6.972   1.810   1.320  0.0821  0.1175 -0.6128
  914MOL0     C26004   7.059   1.916   1.380  0.5181 -0.8930 -0.2826
  914MOL0     C26005   7.182   1.862   1.453  1.0071 -1.0007  0.4635
  914MOL0     C26006   7.206   1.925   1.577  1.5643 -0.5815 -0.0164
  914MOL0     C26007   7.340   1.889   1.637 -0.1214 -0.2960 -0.2478
  914MOL0     C26008   7.334   1.918   1.787  1.0518 -0.2858 -0.0557
  914MOL0     C26009   7.460   1.872   1.858  0.1230 -0.5689  0.8534
  914MOL0     C26010   7.487   1.939   1.989 -0.1069 -0.2369  0.2600
  914MOL0     N26011   7.534   2.075   1.952  0.5363 -0.1123 -0.3492
  914MOL0     C26012   7.668   2.091   1.916  1.1019 -0.0269 -0.3643
  914MOL0     C26013   7.689   2.233   1.922  0.1842  0.6062  0.0907
  914MOL0     C26014   7.813   2.307   1.885 -0.2305  0.2065 -0.2030
  914MOL0     C26015   7.874   2.240   1.754 -1.4894  1.0037 -0.5010
  914MOL0     C26016   7.783   2.240   1.633 -0.7619  0.2657 -0.0701
  914MOL0     C26017   7.763   2.384   1.589 -0.1540 -0.0973 -0.7546
  914MOL0     O26018   7.703   2.408   1.457 -0.0629 -0.7049  0.6035
  914MOL0     C26019   7.699   2.544   1.422  1.0999 -0.0736  0.3010
  914MOL0     C26020   7.577   2.588   1.368 -0.1483  0.0623  0.0277
  914MOL0     C26021   7.562   2.717   1.316 -0.1940  0.3192 -0.5729
  914MOL0     C26022   7.422   2.762   1.291 -0.5302  0.3918  0.1746
  914MOL0     C26023   7.677   2.797   1.304 -0.1748 -0.3273 -0.4671
  914MOL0     C26024   7.693   2.916   1.224  0.8624 -0.3182 -0.7498
  914MOL0     O26025   7.797   3.000   1.254  0.0845  0.3650  0.2359
  914MOL0     C26026   7.804   3.137   1.222 -0.5861 -0.4612 -0.0893
  914MOL0     C26027   7.714   3.214   1.150  0.2540 -0.1244 -1.3299
  914MOL0     C26028   7.733   3.350   1.130 -0.3569 -1.2319 -0.4972
  914MOL0     C26029   7.855   3.406   1.164 -0.5528 -0.4161 -0.7210
  914MOL0     O26030   7.895   3.538   1.153  0.5447  0.2358 -0.6952
  914MOL0     C26031   7.809   3.642   1.096 -1.0690 -0.0038  0.1685
  914MOL0     C26032   7.857   3.702   0.954  0.0159  0.2853  0.3491
  914MOL0     C26033   7.748   3.800   0.889 -0.1135  0.4747 -0.6408
  914MOL0     C26034   7.767   3.815   0.743 -0.0365  0.6311 -0.1926
  914MOL0     C26035   7.883   3.905   0.705  0.2957  0.2451  0.0434
  914MOL0     C26036   7.889   3.936   0.550  0.1609  0.4414 -0.2185
  914MOL0     C26037   7.979   4.064   0.553 -0.3228  0.1212 -0.3066
  914MOL0     C26038   8.034   4.091   0.413 -0.4480 -0.6513 -0.5434
  914MOL0    Cl26039   8.155   4.215   0.415  0.2417  0.1528 -0.1240
  914MOL0     C26040   7.949   3.328   1.237  0.1400  0.2711 -0.0992
  914MOL0     C26041   7.928   3.196   1.266 -0.6145  0.1747 -0.0420
  914MOL0     O26042   7.612   2.938   1.133  0.2426  0.0535  0.2693
  914MOL0     C26043   7.798   2.745   1.356  0.1119 -0.0188  0.0172
  914MOL0     C26044   7.814   2.621   1.408 -0.5670 -0.2300 -0.2673
  914MOL0     N26045   7.576   2.286   1.966 -0.0264  0.7398 -0.2700
  914MOL0     N26046   7.477   2.197   1.980 -0.7355  0.1868  0.3124
  914MOL0     C26047   6.735   1.632   1.274  0.2186  0.7004  0.1753
  914MOL0     C26048   6.626   1.546   1.258 -0.7762 -0.0456 -0.1559
  914MOL0     C26049   6.277   1.247   1.380 -0.0191  0.8413 -0.9492
  914MOL0     C26050   6.252   1.112   1.402  0.2028  0.3510 -0.0118
  914MOL0     C26051   6.138   1.048   1.354  0.3846 -0.3550 -0.6749
  914MOL0     C26052   6.029   1.117   1.294 -0.8050  0.1305  0.0502
  914MOL0     O26053   5.912   1.066   1.248  0.5449 -0.4897  0.6854
  914MOL0     C26054   5.884   0.927   1.273  0.3181 -0.1028  0.4099
  914MOL0     C26055   5.742   0.891   1.264  0.4791 -0.2742 -0.1856
  914MOL0     C26056   5.673   0.929   1.128 -0.1960  0.2781 -0.5900
  914MOL0     C26057   5.523   0.890   1.133 -0.3125 -0.5140  0.7111
  914MOL0     C26058   5.460   0.970   1.028  0.2252 -0.9340 -0.9460
  914MOL0     C26059   5.390   1.031   0.942 -0.3707  0.0508  0.4315
  914MOL0     C26060   6.050   1.250   1.276  0.0011 -0.0048 -0.6126
  914MOL0     C26061   6.170   1.321   1.326  0.0211 -0.1683  1.1881
  914MOL0     C26062   6.176   1.473   1.311 -0.4851  0.4450  0.3739
  914MOL0     H26063   6.602   1.431   1.583  0.3583  3.0109  2.1756
  914MOL0     H26064   6.801   1.576   1.594 -0.9184 -0.3167  1.1768
  914MOL0     H26065   6.906   1.860   1.249 -0.6450 -0.8286 -0.6252
  914MOL0     H26066   7.026   1.742   1.254  0.1884  0.2874 -0.7017
  914MOL0     H26067   7.095   1.984   1.303 -0.2842 -0.1262  0.0032
  914MOL0     H26068   6.995   1.974   1.447  0.4780 -2.5102  1.1452
  914MOL0     H26069   7.166   1.760   1.488 -0.9168 -1.1563 -0.7013
  914MOL0     H26070   7.274   1.868   1.395  0.4916 -2.5298 -0.5711
  914MOL0     H26071   7.193   2.034   1.572 -1.0076 -0.8176  0.3160
  914MOL0     H26072   7.121   1.894   1.638 -0.8780  1.4595 -2.1584
  914MOL0     H26073   7.407   1.966   1.598  1.3415 -0.3189  2.0350
  914MOL0     H26074   7.374   1.790   1.606 -1.6857 -0.5856 -1.1423
  914MOL0     H26075   7.301   2.021   1.806 -1.4562 -1.1205  0.3737
  914MOL0     H26076   7.251   1.861   1.829 -0.7964 -0.1616 -3.1941
  914MOL0     H26077   7.550   1.894   1.800 -0.0501  1.9742  1.4162
  914MOL0     H26078   7.450   1.763   1.865  2.5025 -0.9711 -0.7526
  914MOL0     H26079   7.395   1.945   2.048 -0.9097  1.8351 -1.0960
  914MOL0     H26080   7.563   1.878   2.039 -1.6968 -1.4750  1.2757
  914MOL0     H26081   7.743   2.021   1.883  0.8815  0.5672 -2.2730
  914MOL0     H26082   7.886   2.300   1.966  0.6502 -3.2245 -1.1060
  914MOL0     H26083   7.791   2.413   1.867 -2.2316 -0.6283 -3.6225
  914MOL0     H26084   7.968   2.290   1.729 -1.0967 -0.4286 -2.0546
  914MOL0     H26085   7.903   2.139   1.783  1.3519  1.3354 -1.8487
  914MOL0     H26086   7.820   2.181   1.549 -1.3207  1.1379 -0.9365
  914MOL0     H26087   7.684   2.205   1.663  0.4783 -1.0127  3.0343
  914MOL0     H26088   7.693   2.426   1.662 -0.5462  0.4620 -1.4407
  914MOL0     H26089   7.857   2.440   1.589 -0.5022  0.5164  0.3532
  914MOL0     H26090   7.486   2.531   1.373 -0.8887  1.0895 -1.1641
  914MOL0     H26091   7.345   2.692   1.326 -1.1229  0.5009 -0.8722
  914MOL0     H26092   7.399   2.763   1.184  1.3501  1.3440 -0.2611
  914MOL0     H26093   7.397   2.856   1.342 -0.2690 -0.8248  2.7197
  914MOL0     H26094   7.624   3.183   1.099  0.7201  1.0752 -2.9529
  914MOL0     H26095   7.648   3.408   1.096 -0.3305  0.8070  2.4585
  914MOL0     H26096   7.705   3.612   1.083 -1.7033  2.1572 -0.1759
  914MOL0     H26097   7.818   3.729   1.162 -1.1428 -0.2677  0.5270
  914MOL0     H26098   7.952   3.754   0.960  0.0533  0.2933 -0.2538
  914MOL0     H26099   7.857   3.611   0.893 -2.8700  0.2742  0.2330
  914MOL0     H26100   7.760   3.894   0.943  1.4593 -0.2139  0.2852
  914MOL0     H26101   7.651   3.761   0.922  0.4505  1.1946  2.1337
  914MOL0     H26102   7.679   3.872   0.712 -0.6455  1.2110  2.3051
  914MOL0     H26103   7.783   3.719   0.694 -0.8897 -0.2959  1.2473
  914MOL0     H26104   7.864   3.999   0.758 -1.9622 -0.5775  0.7722
  914MOL0     H26105   7.977   3.859   0.735 -0.7154 -1.0720  1.2781
  914MOL0     H26106   7.789   3.944   0.507 -0.5552 -0.7971  1.0976
  914MOL0     H26107   7.935   3.857   0.490 -0.1765 -1.5895  2.0460
  914MOL0     H26108   8.063   4.053   0.622 -0.9930 -0.7198  0.3865
  914MOL0     H26109   7.925   4.156   0.576 -0.4077 -0.0346  0.1236
  914MOL0     H26110   7.952   4.136   0.355 -0.8778 -0.7042  0.0148
  914MOL0     H26111   8.076   4.006   0.359  1.4270  0.0297 -0.2506
  914MOL0     H26112   8.037   3.385   1.266  1.6414 -2.1137  0.2817
  914MOL0     H26113   8.000   3.132   1.316 -0.2405 -0.1992 -1.0274
  914MOL0     H26114   7.890   2.791   1.321  0.5072 -0.2908  0.6820
  914MOL0     H26115   7.906   2.569   1.434 -0.1187  1.1884  1.1365
  914MOL0     H26116   6.756   1.690   1.185 -3.1458 -0.9956 -1.9165
  914MOL0     H26117   6.587   1.535   1.157 -0.6200  0.3395 -0.2612
  914MOL0     H26118   6.327   1.049   1.449  0.4894 -0.8424 -1.9128
  914MOL0     H26119   6.128   0.941   1.368  1.9052 -0.6052 -1.3640
  914MOL0     H26120   5.937   0.876   1.193 -3.3477 -0.5162 -2.0000
  914MOL0     H26121   5.919   0.897   1.372  1.3357 -2.1884 -0.5348
  914MOL0     H26122   5.679   0.941   1.338  3.9996  1.0110  2.2126
  914MOL0     H26123   5.726   0.783   1.275 -0.1936 -0.1991 -0.3592
  914MOL0     H26124   5.674   1.038   1.124  0.3864  0.3653  1.0819
  914MOL0     H26125   5.726   0.878   1.047  0.8440 -2.0611  1.4323
  914MOL0     H26126   5.473   0.919   1.226 -3.4838 -0.6499 -0.8453
  914MOL0     H26127   5.523   0.783   1.113  2.9386 -0.5315  0.3148
  914MOL0     H26128   5.314   1.065   0.875 -0.3949 -0.6423  0.0988
  914MOL0     H26129   5.974   1.313   1.231 -1.2277 -0.8984  0.1277
  914MOL0     H26130   6.191   1.534   1.401 -0.9715  0.6973  0.2877
  914MOL0     H26131   6.253   1.504   1.239  0.7052 -0.5736  1.1561
  914MOL0     H26132   6.076   1.494   1.273  0.2692  1.8733 -0.9328
  915MOL0     O26133   9.442  11.367   8.264  0.3094  0.2728 -0.4788
  915MOL0     C26134   9.397  11.483   8.243 -0.2322 -1.1001  0.7560
  915MOL0     O26135   9.464  11.590   8.174 -0.1403 -0.2086  0.4144
  915MOL0     C26136   9.580  11.558   8.116  0.0136  0.7270 -1.5298
  915MOL0     C26137   9.702  11.589   8.177  0.0282  0.7079 -0.9472
  915MOL0     C26138   9.823  11.561   8.112 -0.1288  0.5119  0.1987
  915MOL0     C26139   9.821  11.487   7.989 -0.4783  0.1756 -0.3691
  915MOL0     O26140   9.940  11.465   7.929 -0.4485  0.5651  0.2465
  915MOL0     C26141   9.956  11.357   7.832  0.5738 -0.7896  0.3511
  915MOL0     C26142  10.096  11.337   7.777 -0.1596  0.6120  0.0379
  915MOL0     C26143  10.200  11.264   7.868 -0.0406 -0.2015 -0.0400
  915MOL0     C26144  10.350  11.283   7.827  0.7397  0.6407  0.4468
  915MOL0     C26145  10.397  11.178   7.727 -0.1678  1.2856  0.0105
  915MOL0     C26146  10.548  11.200   7.694 -0.0074 -0.5067 -0.7370
  915MOL0     C26147  10.583  11.327   7.613 -0.7291  0.9510  0.7452
  915MOL0     C26148  10.579  11.295   7.464  0.6387  0.1017 -0.0539
  915MOL0     N26149  10.629  11.402   7.379  0.1880 -0.4106  0.3993
  915MOL0     C26150  10.582  11.532   7.390  0.5269  0.6290  1.0688
  915MOL0     C26151  10.659  11.601   7.301  0.1649 -0.6070  0.1104
  915MOL0     C26152  10.665  11.750   7.290 -0.5107 -0.1778  0.1902
  915MOL0     C26153  10.633  11.830   7.424  0.8240 -0.1786 -0.0555
  915MOL0     C26154  10.494  11.900   7.415  0.1234 -0.1166  0.6992
  915MOL0     C26155  10.374  11.807   7.429  0.2223 -0.1962 -0.0862
  915MOL0     O26156  10.380  11.734   7.552  0.0917 -0.6466 -0.4257
  915MOL0     C26157  10.308  11.788   7.654  0.6890  0.5970 -0.7767
  915MOL0     C26158  10.287  11.698   7.763 -0.4625  0.1717 -0.3551
  915MOL0     C26159  10.248  11.747   7.895 -0.3119 -0.0929 -0.4516
  915MOL0     C26160  10.240  11.647   8.007  1.0835 -0.5463 -0.1556
  915MOL0     C26161  10.223  11.887   7.909 -0.1621  0.0072  0.4847
  915MOL0     C26162  10.190  11.937   8.041 -0.4605  0.1739 -0.0361
  915MOL0     O26163  10.272  12.034   8.094  0.6360 -0.1818 -0.1343
  915MOL0     C26164  10.270  12.063   8.226  0.3179  1.1891  0.7195
  915MOL0     C26165  10.272  11.957   8.317  0.7127  0.5257 -0.5708
  915MOL0     C26166  10.294  11.988   8.446 -0.8806 -0.0712 -0.1134
  915MOL0     C26167  10.303  12.119   8.494 -0.6741  0.3458  0.3999
  915MOL0     O26168  10.334  12.157   8.626  0.3502  0.4899 -0.3598
  915MOL0     C26169  10.418  12.071   8.704  0.5628  0.1181  0.0158
  915MOL0     C26170  10.457  12.126   8.842 -0.8453 -0.7422  1.2365
  915MOL0     C26171  10.339  12.190   8.915 -0.2523  0.0089 -0.5774
  915MOL0     C26172  10.230  12.097   8.970  0.1282  0.3138 -0.2838
  915MOL0     C26173  10.161  12.168   9.090  0.0789 -0.1813 -0.3481
  915MOL0     C26174  10.084  12.292   9.044  0.4300  0.1447  0.8295
  915MOL0     C26175   9.992  12.347   9.162 -1.0016  0.8999 -0.5259
  915MOL0     C26176   9.900  12.457   9.131  0.5944 -0.5351  0.7587
  915MOL0    Cl26177   9.968  12.595   9.034  0.2889 -0.2078  0.1314
  915MOL0     C26178  10.300  12.222   8.402  0.2306 -0.3114 -0.0399
  915MOL0     C26179  10.285  12.188   8.269  0.1192  0.4588 -0.1538
  915MOL0     O26180  10.097  11.891   8.105  0.0247 -0.0025 -0.0395
  915MOL0     C26181  10.243  11.971   7.796 -0.1285 -0.7474 -0.2720
  915MOL0     C26182  10.283  11.927   7.672  0.0542 -0.2548 -0.5890
  915MOL0     N26183  10.765  11.520   7.263 -0.7182  0.7435 -0.2862
  915MOL0     N26184  10.751  11.406   7.321  0.0392  0.3446 -0.7835
  915MOL0     C26185   9.697  11.450   7.934 -0.5614 -0.2877 -0.8612
  915MOL0     C26186   9.576  11.487   7.998 -0.1255 -0.2075 -0.3030
  915MOL0     C26187   9.264  11.519   8.283 -0.4059  0.3405 -0.1420
  915MOL0     C26188   9.214  11.657   8.252  0.4795 -0.1919 -1.2329
  915MOL0     C26189   9.087  11.701   8.289  0.0696 -0.5218 -0.3203
  915MOL0     C26190   9.015  11.617   8.379  0.1186  1.0600  0.6465
  915MOL0     O26191   8.893  11.654   8.436  0.8162  0.4043 -0.3925
  915MOL0     C26192   8.800  11.736   8.367  0.6654 -0.8570  0.3098
  915MOL0     C26193   8.660  11.754   8.444  0.2584  0.1710  0.2143
  915MOL0     C26194   8.548  11.775   8.337  1.4263  0.1409  0.4010
  915MOL0     C26195   8.403  11.760   8.383  0.0794 -0.2209  0.0209
  915MOL0     C26196   8.308  11.824   8.297  0.9162  0.8009  0.7511
  915MOL0     C26197   8.227  11.861   8.210 -0.8711  0.5903  0.1224
  915MOL0     C26198   9.065  11.497   8.408 -0.3146  0.3225 -0.0719
  915MOL0     C26199   9.186  11.448   8.367  0.1724  0.8494  0.1504
  915MOL0     C26200   9.202  11.297   8.392 -0.0793 -0.7695 -0.6485
  915MOL0     H26201   9.699  11.629   8.278  3.1798 -1.9445  0.3649
  915MOL0     H26202   9.924  11.594   8.138  0.8345  0.0240 -2.5625
  915MOL0     H26203   9.889  11.376   7.747  0.8241 -0.3501  0.2509
  915MOL0     H26204   9.914  11.267   7.878 -1.4663  0.5788  1.3462
  915MOL0     H26205  10.087  11.279   7.685  0.8343 -0.6012  0.6682
  915MOL0     H26206  10.139  11.431   7.741 -2.3080  1.2422 -1.0780
  915MOL0     H26207  10.197  11.293   7.973 -1.3903 -3.4201  0.9260
  915MOL0     H26208  10.176  11.158   7.884  0.1020 -0.1121  0.7764
  915MOL0     H26209  10.368  11.386   7.796  1.4709  0.6741  0.9587
  915MOL0     H26210  10.399  11.275   7.924 -1.6544  3.1985  2.0337
  915MOL0     H26211  10.339  11.164   7.635 -0.0169 -0.8156  0.1841
  915MOL0     H26212  10.388  11.082   7.778 -0.7150  1.3150 -0.0202
  915MOL0     H26213  10.595  11.206   7.793  2.6766  1.5019 -1.9707
  915MOL0     H26214  10.590  11.111   7.647 -0.8887 -1.6838  0.6086
  915MOL0     H26215  10.685  11.351   7.646 -0.6026  0.2884  0.8478
  915MOL0     H26216  10.508  11.404   7.629 -1.6579  0.0218  0.9600
  915MOL0     H26217  10.635  11.203   7.446  0.7338 -0.4704  2.7008
  915MOL0     H26218  10.475  11.267   7.442  0.2154 -0.8894  2.7979
  915MOL0     H26219  10.500  11.573   7.448 -0.5285 -0.8473  0.6910
  915MOL0     H26220  10.600  11.793   7.212 -1.1514  2.1332  1.8998
  915MOL0     H26221  10.771  11.771   7.273 -0.7157  2.2116  1.5130
  915MOL0     H26222  10.630  11.771   7.516 -2.3827  2.2424  1.5652
  915MOL0     H26223  10.709  11.907   7.441  0.4084  0.0293  0.9078
  915MOL0     H26224  10.487  11.975   7.494 -0.6073  0.8522 -0.2562
  915MOL0     H26225  10.483  11.953   7.320 -0.2631 -0.3390  0.6150
  915MOL0     H26226  10.287  11.873   7.418  1.2670  0.9728 -1.8046
  915MOL0     H26227  10.365  11.755   7.333 -1.4465  0.7085 -0.4676
  915MOL0     H26228  10.291  11.594   7.735 -1.1732 -0.0356  0.2811
  915MOL0     H26229  10.304  11.680   8.090  1.1911 -1.1512  0.0053
  915MOL0     H26230  10.287  11.552   7.980  2.2381 -0.4029  1.2207
  915MOL0     H26231  10.137  11.636   8.041  1.5470 -2.5969  0.7707
  915MOL0     H26232  10.266  11.850   8.302 -0.7578  0.5482 -0.2830
  915MOL0     H26233  10.314  11.905   8.513  2.9876 -0.4802 -1.5139
  915MOL0     H26234  10.354  11.984   8.722  0.7761 -0.1954 -0.7189
  915MOL0     H26235  10.508  12.038   8.652 -0.0814 -1.0091 -0.4248
  915MOL0     H26236  10.502  12.051   8.907 -1.1911 -2.1251 -0.0549
  915MOL0     H26237  10.534  12.198   8.814 -1.1869 -0.8148  0.0494
  915MOL0     H26238  10.296  12.269   8.853 -0.3014 -1.2107 -2.1202
  915MOL0     H26239  10.384  12.238   9.003 -2.6744  0.5356  0.4514
  915MOL0     H26240  10.279  12.006   9.007  2.6530  2.2965  1.6299
  915MOL0     H26241  10.151  12.066   8.901 -0.2759 -2.7145  1.3152
  915MOL0     H26242  10.093  12.099   9.141  0.4842  1.3077  2.3754
  915MOL0     H26243  10.239  12.203   9.159 -0.8343 -1.0459  1.1674
  915MOL0     H26244  10.026  12.269   8.954  1.3251  0.8619  0.0555
  915MOL0     H26245  10.149  12.376   9.021  1.4192 -0.0774  2.6141
  915MOL0     H26246  10.070  12.391   9.224 -1.4506  1.4176 -0.3181
  915MOL0     H26247   9.937  12.274   9.222 -0.6371  1.5234  0.5977
  915MOL0     H26248   9.855  12.505   9.218 -0.9903 -0.9989  0.2261
  915MOL0     H26249   9.813  12.415   9.080  3.5646 -2.0789 -3.6708
  915MOL0     H26250  10.315  12.323   8.437 -2.9861 -0.1336  1.1374
  915MOL0     H26251  10.293  12.267   8.195 -1.2613 -0.6280 -1.5269
  915MOL0     H26252  10.199  12.069   7.807 -2.0534 -1.7537  1.7829
  915MOL0     H26253  10.297  11.993   7.587  1.5749  0.3173  0.0771
  915MOL0     H26254   9.689  11.396   7.840  1.4254 -0.1325 -1.1539
  915MOL0     H26255   9.480  11.453   7.960 -0.6933 -0.8192  1.5812
  915MOL0     H26256   9.261  11.743   8.205 -1.0051  2.6912  2.0692
  915MOL0     H26257   9.055  11.802   8.265  2.1865 -0.1830 -2.1037
  915MOL0     H26258   8.838  11.837   8.350 -1.6753  0.2952  1.3705
  915MOL0     H26259   8.781  11.695   8.268 -0.1622  1.2192 -0.4468
  915MOL0     H26260   8.664  11.837   8.515 -1.7205 -0.4952  1.1708
  915MOL0     H26261   8.628  11.671   8.507 -1.8890  0.0609 -0.9229
  915MOL0     H26262   8.570  11.875   8.298 -0.5121  0.8432  0.9796
  915MOL0     H26263   8.564  11.707   8.253 -1.8551 -0.1104 -0.1428
  915MOL0     H26264   8.393  11.801   8.484 -0.4665 -0.1620 -0.0555
  915MOL0     H26265   8.383  11.653   8.391  1.5816 -0.5811 -0.6403
  915MOL0     H26266   8.152  11.897   8.143 -0.1487 -0.4702 -1.3097
  915MOL0     H26267   8.996  11.442   8.472 -1.4322 -1.3463 -2.5582
  915MOL0     H26268   9.109  11.255   8.430 -2.1300  1.7436 -2.5850
  915MOL0     H26269   9.228  11.238   8.303  0.1370 -0.3809 -0.8457
  915MOL0     H26270   9.278  11.285   8.471  2.0186  0.6253 -2.3403
  916MOL0     O26271   4.910   5.812   4.439  0.5307  0.2407 -0.4693
  916MOL0     C26272   4.897   5.856   4.324 -0.6617  0.5067  0.0019
  916MOL0     O26273   4.996   5.877   4.236 -0.5923 -0.1037  0.4488
  916MOL0     C26274   5.127   5.857   4.273 -1.1044 -0.0763  0.7829
  916MOL0     C26275   5.194   5.933   4.371 -1.4741  0.7229  0.5661
  916MOL0     C26276   5.336   5.912   4.388  0.5093  0.2357 -0.4971
  916MOL0     C26277   5.410   5.818   4.314 -0.5411  0.3667  0.3580
  916MOL0     O26278   5.542   5.787   4.337 -0.1514 -0.0584  0.0884
  916MOL0     C26279   5.623   5.881   4.401  0.8172 -0.7661  0.3139
  916MOL0     C26280   5.765   5.891   4.333  0.4116 -0.4810 -0.8943
  916MOL0     C26281   5.860   5.795   4.380  0.4274  0.7762 -0.9763
  916MOL0     C26282   5.970   5.764   4.274 -0.1131  0.4756 -0.8518
  916MOL0     C26283   6.085   5.871   4.255  0.5028 -0.5387 -0.3127
  916MOL0     C26284   6.151   5.916   4.394 -0.3077  0.7269  0.2825
  916MOL0     C26285   6.287   5.984   4.382 -0.3438  0.6882  1.0119
  916MOL0     C26286   6.294   6.093   4.491 -0.1187 -0.5930  0.5196
  916MOL0     N26287   6.423   6.157   4.502  0.5140 -0.2805 -0.6646
  916MOL0     C26288   6.451   6.281   4.456  0.0445 -0.0650  0.2809
  916MOL0     C26289   6.581   6.301   4.462 -0.0308  0.5425  0.0687
  916MOL0     C26290   6.662   6.410   4.412 -0.0778 -0.3580 -0.0663
  916MOL0     C26291   6.807   6.405   4.475  0.0256  0.1495  0.6657
  916MOL0     C26292   6.895   6.522   4.433 -0.5818 -0.7074  0.0221
  916MOL0     C26293   7.025   6.524   4.512 -0.4570 -0.9858 -0.4293
  916MOL0     O26294   7.096   6.626   4.447 -0.3343  0.5759 -0.0395
  916MOL0     C26295   7.215   6.670   4.484 -0.8303 -0.6664  0.4312
  916MOL0     C26296   7.260   6.779   4.408  0.0062  0.5539  0.1492
  916MOL0     C26297   7.395   6.822   4.413  0.4948 -0.0971  0.3589
  916MOL0     C26298   7.444   6.927   4.316  0.4317  0.7269  0.3408
  916MOL0     C26299   7.480   6.764   4.508 -0.7918  0.9846 -1.1932
  916MOL0     C26300   7.612   6.811   4.530  0.1036 -0.8419  0.8298
  916MOL0     O26301   7.669   6.797   4.649  0.2872 -1.1735  0.6233
  916MOL0     C26302   7.796   6.836   4.678 -0.7324 -0.4858 -0.7166
  916MOL0     C26303   7.851   6.764   4.787 -0.3906  0.4267  0.1117
  916MOL0     C26304   7.984   6.780   4.825  0.3119  0.4303  0.8648
  916MOL0     C26305   8.066   6.865   4.754  0.4560 -0.3741 -0.4373
  916MOL0     O26306   8.197   6.866   4.798  0.2475 -0.1595 -0.2701
  916MOL0     C26307   8.308   6.909   4.713 -0.3668 -0.5033  0.0314
  916MOL0     C26308   8.421   6.930   4.819 -1.2544  0.8471 -0.5265
  916MOL0     C26309   8.555   6.978   4.757 -0.0638  0.0344  0.3051
  916MOL0     C26310   8.641   7.052   4.859  0.8226 -0.2474  0.7319
  916MOL0     C26311   8.720   6.967   4.964 -0.1219 -0.2618 -0.5439
  916MOL0     C26312   8.827   6.884   4.889  0.1378  0.4953 -0.0509
  916MOL0     C26313   8.953   6.884   4.975  0.1580 -0.2766  0.0341
  916MOL0     C26314   8.944   6.818   5.111 -0.2460  0.4436 -0.1079
  916MOL0    Cl26315   8.911   6.640   5.092  0.2118 -0.5662 -0.3539
  916MOL0     C26316   8.016   6.944   4.649  0.0331  0.3422  0.3341
  916MOL0     C26317   7.883   6.918   4.604  0.2175  0.6508 -0.4905
  916MOL0     O26318   7.674   6.833   4.428 -0.1132 -0.4364 -0.3858
  916MOL0     C26319   7.431   6.658   4.587 -0.5504  0.2637 -1.2390
  916MOL0     C26320   7.301   6.612   4.572 -0.4164 -0.0439  0.2161
  916MOL0     N26321   6.636   6.181   4.496 -0.3497  0.3538 -0.3321
  916MOL0     N26322   6.538   6.093   4.516 -0.2201 -0.0539 -0.3768
  916MOL0     C26323   5.339   5.747   4.209  0.1562  1.1449 -0.2959
  916MOL0     C26324   5.200   5.775   4.185  0.5351 -0.0740  0.0468
  916MOL0     C26325   4.762   5.870   4.276 -0.2746 -0.1750 -0.2092
  916MOL0     C26326   4.747   5.867   4.132 -0.4517 -0.3817 -0.0598
  916MOL0     C26327   4.622   5.891   4.089  0.5165  0.0397  0.9692
  916MOL0     C26328   4.508   5.924   4.163  0.3327 -0.6930 -0.7608
  916MOL0     O26329   4.387   5.948   4.094  0.1984 -0.7927  0.5690
  916MOL0     C26330   4.268   5.960   4.170 -1.0197 -0.2484  0.3930
  916MOL0     C26331   4.139   5.941   4.094 -0.5638 -0.3996  0.0192
  916MOL0     C26332   4.131   5.807   4.022  0.2999  0.0002  0.5754
  916MOL0     C26333   3.978   5.789   4.004 -0.6914  1.2713  0.0548
  916MOL0     C26334   3.957   5.673   3.916 -0.0541 -0.6151 -0.6701
  916MOL0     C26335   3.931   5.580   3.851 -0.0777  0.9144  0.5092
  916MOL0     C26336   4.531   5.930   4.300  0.3072  0.0355 -0.3774
  916MOL0     C26337   4.653   5.897   4.361  0.9486 -0.3130  0.0438
  916MOL0     C26338   4.658   5.901   4.515  0.1784 -0.4376  0.2814
  916MOL0     H26339   5.148   6.017   4.423  0.7585  2.4286 -0.0923
  916MOL0     H26340   5.369   5.959   4.480  0.8929 -0.8796 -0.0558
  916MOL0     H26341   5.629   5.852   4.506 -1.8086 -1.1723  0.4177
  916MOL0     H26342   5.574   5.977   4.383 -2.7223 -2.3813  0.4271
  916MOL0     H26343   5.761   5.881   4.225  0.0781 -0.9937 -0.8392
  916MOL0     H26344   5.797   5.991   4.364  2.7613 -1.7328  1.1212
  916MOL0     H26345   5.901   5.827   4.476 -0.4753 -2.5750  0.7014
  916MOL0     H26346   5.816   5.697   4.399 -1.4160  1.9508  1.2171
  916MOL0     H26347   6.026   5.677   4.308 -0.1844  0.0715 -1.7226
  916MOL0     H26348   5.930   5.739   4.175 -0.8407  2.0695 -0.9894
  916MOL0     H26349   6.038   5.962   4.218  2.0903  0.8912  1.0630
  916MOL0     H26350   6.157   5.847   4.176  2.6077 -1.4283  1.7403
  916MOL0     H26351   6.098   5.991   4.454  1.9575  1.8201  1.0371
  916MOL0     H26352   6.158   5.829   4.460  0.6948  1.0070  0.5625
  916MOL0     H26353   6.279   6.034   4.285 -1.7243 -2.5873 -0.7027
  916MOL0     H26354   6.362   5.904   4.387 -2.3796 -1.2333  2.1479
  916MOL0     H26355   6.218   6.169   4.472  0.9463  0.7278  1.3772
  916MOL0     H26356   6.261   6.048   4.586  0.3732 -0.1708  0.8934
  916MOL0     H26357   6.373   6.348   4.422 -0.2686 -0.6902 -0.2410
  916MOL0     H26358   6.608   6.500   4.442 -0.3887 -1.1151  1.7758
  916MOL0     H26359   6.680   6.397   4.304  2.1744 -2.0644  0.4411
  916MOL0     H26360   6.793   6.409   4.584 -0.2056 -0.5879  0.6685
  916MOL0     H26361   6.857   6.310   4.456 -0.7414 -0.3473  1.0528
  916MOL0     H26362   6.906   6.524   4.324 -0.8086 -1.1600 -0.0122
  916MOL0     H26363   6.846   6.611   4.474 -1.0757 -1.4645  1.1349
  916MOL0     H26364   7.022   6.554   4.617 -1.0310 -2.0611 -0.1224
  916MOL0     H26365   7.086   6.434   4.522  0.9013  0.1560  4.1282
  916MOL0     H26366   7.200   6.827   4.331  2.0232  2.0435 -0.5984
  916MOL0     H26367   7.523   6.876   4.262  1.6019 -0.9926  3.4278
  916MOL0     H26368   7.480   7.019   4.363 -2.1242  3.6545 -2.8483
  916MOL0     H26369   7.369   6.966   4.246  1.7517 -0.2339 -1.6836
  916MOL0     H26370   7.778   6.700   4.837 -1.4164  1.3985 -0.0915
  916MOL0     H26371   8.027   6.721   4.906 -0.4663 -1.2861  0.0752
  916MOL0     H26372   8.340   6.844   4.631  0.8653 -2.7365  2.1377
  916MOL0     H26373   8.283   7.005   4.668 -1.6461  0.6245  2.8525
  916MOL0     H26374   8.381   7.009   4.883 -2.0573  1.2580 -1.5119
  916MOL0     H26375   8.443   6.838   4.874 -1.6111  0.5730 -0.8371
  916MOL0     H26376   8.526   7.033   4.666  0.8487  3.1826  1.7550
  916MOL0     H26377   8.613   6.891   4.728  0.7204  0.5320  0.3430
  916MOL0     H26378   8.590   7.129   4.918 -0.2413  0.6879 -1.2934
  916MOL0     H26379   8.705   7.107   4.790  0.8187  2.1981  2.5488
  916MOL0     H26380   8.772   7.035   5.031  3.7112 -1.8454 -1.5947
  916MOL0     H26381   8.657   6.902   5.025  1.2022  1.4216  2.8531
  916MOL0     H26382   8.843   6.923   4.788  2.0736 -1.8608 -0.7538
  916MOL0     H26383   8.792   6.780   4.884  0.6913  0.3479 -1.3906
  916MOL0     H26384   8.980   6.990   4.989  1.9615 -1.0390  3.2175
  916MOL0     H26385   9.031   6.837   4.916 -0.6205  2.8614 -4.0073
  916MOL0     H26386   8.863   6.863   5.169  0.0608  2.1202 -0.9266
  916MOL0     H26387   9.040   6.830   5.163  0.6016  0.3561 -1.6021
  916MOL0     H26388   8.063   7.024   4.593  1.3868  0.0409  1.0114
  916MOL0     H26389   7.842   6.967   4.516 -0.4269 -0.3670 -0.7724
  916MOL0     H26390   7.489   6.596   4.655 -0.9625 -0.0788 -1.1986
  916MOL0     H26391   7.276   6.516   4.615 -1.1765  0.0345 -0.0384
  916MOL0     H26392   5.387   5.662   4.161 -0.5866 -0.0209  0.9332
  916MOL0     H26393   5.133   5.737   4.108 -2.0862  2.7381  0.7332
  916MOL0     H26394   4.817   5.836   4.055  1.3883  0.5607  1.1658
  916MOL0     H26395   4.606   5.875   3.983  0.0683 -1.5349  1.2567
  916MOL0     H26396   4.270   5.874   4.237  1.1779 -1.5612 -1.2425
  916MOL0     H26397   4.273   6.047   4.237 -1.4609 -2.9932  4.3569
  916MOL0     H26398   4.115   6.019   4.021  0.5398  0.5730  0.6563
  916MOL0     H26399   4.061   5.936   4.170 -0.4223  0.7691  0.2664
  916MOL0     H26400   4.185   5.821   3.929 -0.3325  3.0540  0.5461
  916MOL0     H26401   4.177   5.724   4.077 -1.1909 -0.8684  0.5790
  916MOL0     H26402   3.927   5.874   3.959 -0.2176  0.6145 -1.8141
  916MOL0     H26403   3.936   5.778   4.105  0.9587  1.9261  0.8440
  916MOL0     H26404   3.919   5.498   3.783  1.9147 -0.1286  1.3204
  916MOL0     H26405   4.449   5.958   4.365  1.2101  2.3329 -0.1361
  916MOL0     H26406   4.567   5.945   4.555  0.5743  1.2891 -0.6485
  916MOL0     H26407   4.659   5.798   4.554 -4.3837  0.1717  2.6569
  916MOL0     H26408   4.735   5.969   4.552 -1.6357  1.9356 -0.0815
  917MOL0     O26409   9.628  10.819   4.603  0.6075 -0.4772 -0.0768
  917MOL0     C26410   9.517  10.785   4.630  0.1929  0.0489  0.3754
  917MOL0     O26411   9.460  10.672   4.595 -0.2282 -0.8027 -0.9404
  917MOL0     C26412   9.540  10.566   4.542  0.4860 -0.7588  1.5981
  917MOL0     C26413   9.517  10.437   4.575  0.3668 -0.5341  0.1263
  917MOL0     C26414   9.607  10.345   4.521  0.3106 -0.0010 -1.1084
  917MOL0     C26415   9.717  10.377   4.442 -0.0535 -0.1110 -0.0616
  917MOL0     O26416   9.794  10.268   4.402 -0.1547 -0.1000  0.7179
  917MOL0     C26417   9.928  10.290   4.351 -0.0570  0.0521 -0.0307
  917MOL0     C26418   9.986  10.169   4.298 -0.2395 -0.9967  0.1255
  917MOL0     C26419  10.002  10.041   4.389  0.5505  0.1916 -0.1787
  917MOL0     C26420   9.869   9.954   4.391 -1.1635 -0.4373 -0.7313
  917MOL0     C26421   9.892   9.843   4.495 -0.0940 -0.1194  0.1724
  917MOL0     C26422   9.780   9.733   4.486  0.4473 -0.6182 -0.7719
  917MOL0     C26423   9.810   9.608   4.583  0.7784  0.3732  0.4573
  917MOL0     C26424   9.752   9.633   4.725 -0.0769 -0.3216 -0.0797
  917MOL0     N26425   9.651   9.524   4.750  0.2810  0.5940  0.0147
  917MOL0     C26426   9.683   9.393   4.761 -0.4797 -0.2295 -1.0425
  917MOL0     C26427   9.574   9.329   4.792 -0.1299 -0.0855  0.4582
  917MOL0     C26428   9.558   9.178   4.807  0.2395 -0.1213  0.2043
  917MOL0     C26429   9.583   9.089   4.686 -0.6895  0.4658 -0.1820
  917MOL0     C26430   9.524   9.157   4.559  0.4805  0.1422  0.0978
  917MOL0     C26431   9.546   9.064   4.442  0.1542 -0.3508  0.1002
  917MOL0     O26432   9.686   9.055   4.428  0.4077  0.2445  0.4341
  917MOL0     C26433   9.754   9.152   4.354 -0.0349  0.0560 -0.1036
  917MOL0     C26434   9.887   9.114   4.305 -0.7618 -0.0490 -0.1739
  917MOL0     C26435   9.967   9.211   4.238 -0.0041 -0.0511 -0.3399
  917MOL0     C26436  10.113   9.172   4.214  0.2126  0.2312  0.5337
  917MOL0     C26437   9.913   9.345   4.204  0.9366  0.0108 -0.8878
  917MOL0     C26438   9.983   9.450   4.126 -0.2256  0.1737 -0.0430
  917MOL0     O26439   9.951   9.579   4.167  0.0791 -0.0661  1.0935
  917MOL0     C26440  10.004   9.683   4.090 -0.1994  0.0483 -0.9507
  917MOL0     C26441  10.100   9.773   4.149  1.2451 -0.9664 -0.4028
  917MOL0     C26442  10.144   9.879   4.074 -1.1345 -0.2788  0.3341
  917MOL0     C26443  10.106   9.893   3.939 -1.1610  0.5891  0.4300
  917MOL0     O26444  10.138  10.021   3.884  0.4533  0.3230 -0.3523
  917MOL0     C26445  10.088  10.058   3.750 -0.1688  0.2466  0.5965
  917MOL0     C26446  10.167  10.176   3.689 -0.0629 -0.2320  0.6031
  917MOL0     C26447  10.129  10.204   3.540 -0.0278 -0.4974 -0.8530
  917MOL0     C26448  10.197  10.325   3.489  0.4311  0.0275 -0.2903
  917MOL0     C26449  10.156  10.343   3.340 -0.4846 -0.3804 -0.1758
  917MOL0     C26450  10.197  10.464   3.265  0.0504 -0.5569  1.2106
  917MOL0     C26451  10.135  10.594   3.336 -0.3275 -0.6734  1.4548
  917MOL0     C26452  10.126  10.706   3.234  0.5565 -0.3112 -0.0291
  917MOL0    Cl26453  10.280  10.748   3.175 -0.2850  0.4094  0.0617
  917MOL0     C26454  10.012   9.804   3.882 -1.0858  0.0111  0.1898
  917MOL0     C26455   9.968   9.697   3.954  0.7969  0.1282 -0.3429
  917MOL0     O26456  10.069   9.418   4.048  0.0542 -0.0871  0.2018
  917MOL0     C26457   9.779   9.369   4.241  0.4563 -0.6325  0.3502
  917MOL0     C26458   9.708   9.272   4.304 -0.8507  0.1358 -0.1184
  917MOL0     N26459   9.476   9.421   4.813 -0.6571 -0.2248  0.0200
  917MOL0     N26460   9.520   9.545   4.791 -0.4430  0.3153  0.7455
  917MOL0     C26461   9.732  10.505   4.402 -0.8309 -0.8890  0.6023
  917MOL0     C26462   9.633  10.600   4.447 -0.5942  0.4473  0.5070
  917MOL0     C26463   9.424  10.869   4.706 -0.2303 -1.0236 -0.2666
  917MOL0     C26464   9.360  10.806   4.815 -0.0109 -0.4941  0.4195
  917MOL0     C26465   9.261  10.872   4.884  0.9987  0.0673 -0.4457
  917MOL0     C26466   9.243  11.011   4.883 -0.1902  0.4901 -0.3887
  917MOL0     O26467   9.160  11.078   4.959  0.1131 -0.2032 -0.6494
  917MOL0     C26468   9.136  11.018   5.091 -0.3588 -0.0577  0.2155
  917MOL0     C26469   9.264  11.034   5.173  0.5995 -0.1330 -0.7470
  917MOL0     C26470   9.251  10.946   5.298 -0.5702 -0.3095  0.3114
  917MOL0     C26471   9.384  10.939   5.383  0.0498  0.1049  0.4027
  917MOL0     C26472   9.501  10.903   5.301  0.2756 -0.5125 -0.3145
  917MOL0     C26473   9.598  10.882   5.235 -0.6445 -0.7669 -0.5930
  917MOL0     C26474   9.313  11.071   4.777 -0.4363 -0.0786  0.2606
  917MOL0     C26475   9.401  11.000   4.694 -0.3133 -1.0488  0.4814
  917MOL0     C26476   9.476  11.086   4.594 -0.0565 -0.2307  0.2532
  917MOL0     H26477   9.436  10.413   4.644 -1.3490  0.1757 -1.5563
  917MOL0     H26478   9.596  10.241   4.553 -1.2209  0.6058  0.4879
  917MOL0     H26479  10.004  10.313   4.426  0.8177  0.3185 -0.9764
  917MOL0     H26480   9.928  10.367   4.273 -1.7512  0.6982  0.5609
  917MOL0     H26481   9.928  10.138   4.211 -0.2000  1.7932 -1.0116
  917MOL0     H26482  10.083  10.195   4.253  0.7038 -2.6457  1.1145
  917MOL0     H26483  10.088   9.979   4.360  1.9336  0.7651  2.4058
  917MOL0     H26484  10.020  10.085   4.487 -1.1353  2.4023 -0.7929
  917MOL0     H26485   9.790  10.020   4.427 -2.1143 -0.6062 -2.3958
  917MOL0     H26486   9.840   9.920   4.291 -0.3358 -0.6868 -0.9007
  917MOL0     H26487   9.896   9.879   4.599  0.9149 -0.2195  0.1803
  917MOL0     H26488   9.988   9.793   4.478  0.1871  0.2508  0.6405
  917MOL0     H26489   9.689   9.782   4.521  1.3548 -0.5109  1.6354
  917MOL0     H26490   9.773   9.698   4.383  2.4506  1.3885 -1.6766
  917MOL0     H26491   9.918   9.588   4.579  1.0773  2.0162 -1.8244
  917MOL0     H26492   9.773   9.520   4.529  0.9343  0.4422  0.2349
  917MOL0     H26493   9.831   9.631   4.800  1.4943 -1.0870 -1.6796
  917MOL0     H26494   9.694   9.726   4.729 -1.1065 -0.9134 -0.6072
  917MOL0     H26495   9.780   9.347   4.744  0.7051  1.4166  0.8591
  917MOL0     H26496   9.452   9.160   4.827 -0.0025  1.8927  0.9554
  917MOL0     H26497   9.620   9.145   4.891  1.3221  1.7071  0.1809
  917MOL0     H26498   9.689   9.068   4.674 -0.8082  1.0782 -2.9535
  917MOL0     H26499   9.541   8.991   4.710  1.1448 -0.2522  0.2304
  917MOL0     H26500   9.420   9.185   4.574 -0.1391 -0.5086 -2.5755
  917MOL0     H26501   9.577   9.249   4.534 -0.8765  0.7446 -0.6369
  917MOL0     H26502   9.496   8.969   4.460  0.4504 -0.4526  0.3931
  917MOL0     H26503   9.502   9.101   4.349 -0.9405 -0.5769  0.5160
  917MOL0     H26504   9.916   9.010   4.314 -1.2901 -0.0237  3.1470
  917MOL0     H26505  10.172   9.263   4.227 -1.0374  1.2328 -0.5895
  917MOL0     H26506  10.132   9.127   4.116  1.9458 -0.7697  1.2632
  917MOL0     H26507  10.134   9.084   4.276 -0.5355 -1.2365 -1.2058
  917MOL0     H26508  10.119   9.765   4.256 -1.4766  2.5578  0.5439
  917MOL0     H26509  10.207   9.956   4.117 -0.6038 -2.2800  3.4815
  917MOL0     H26510  10.103   9.977   3.679 -1.0111  1.3502 -0.8929
  917MOL0     H26511   9.981  10.080   3.761  0.0144  1.7665 -0.3835
  917MOL0     H26512  10.153  10.269   3.745  0.6759  0.4656 -0.3387
  917MOL0     H26513  10.275  10.156   3.691  0.1786  1.0226  0.7247
  917MOL0     H26514  10.020  10.216   3.538  0.0818  1.3405  0.9269
  917MOL0     H26515  10.154  10.112   3.486 -2.6355 -2.4912  1.0865
  917MOL0     H26516  10.304  10.303   3.489  0.8007  1.6640 -0.3106
  917MOL0     H26517  10.184  10.409   3.558  0.3685 -1.7550  1.9779
  917MOL0     H26518  10.186  10.250   3.290 -1.8050 -0.2429 -1.2885
  917MOL0     H26519  10.047  10.349   3.333 -0.3063  3.0078 -2.6613
  917MOL0     H26520  10.150  10.465   3.166  0.3364  2.6571  1.0119
  917MOL0     H26521  10.306  10.461   3.265  0.0568 -3.4521  0.7719
  917MOL0     H26522  10.195  10.631   3.420 -0.8064  0.2958  1.3858
  917MOL0     H26523  10.039  10.564   3.379 -0.2426  1.1318  3.0286
  917MOL0     H26524  10.065  10.794   3.253  1.8967  0.9327 -1.2108
  917MOL0     H26525  10.065  10.668   3.151 -2.1523  0.8210  1.3241
  917MOL0     H26526   9.978   9.816   3.779  1.8433 -4.9400 -1.7517
  917MOL0     H26527   9.899   9.623   3.915  2.0772 -0.9693 -0.5751
  917MOL0     H26528   9.730   9.462   4.213  0.8444 -1.2692 -2.9560
  917MOL0     H26529   9.611   9.310   4.335 -0.7134  1.9103 -1.6846
  917MOL0     H26530   9.801  10.543   4.328 -0.1474 -1.0157  1.1617
  917MOL0     H26531   9.632  10.695   4.395  0.0976  0.0991 -0.1596
  917MOL0     H26532   9.379  10.702   4.837 -1.5302 -0.9064 -0.0963
  917MOL0     H26533   9.208  10.806   4.951 -0.0050 -0.6915 -1.9353
  917MOL0     H26534   9.059  11.067   5.150 -0.0805  2.0853 -1.0784
  917MOL0     H26535   9.104  10.914   5.089  0.0379 -0.1838 -1.6640
  917MOL0     H26536   9.287  11.138   5.197  3.9135 -0.9408  0.0849
  917MOL0     H26537   9.351  10.999   5.116  0.8785 -0.2568 -0.2537
  917MOL0     H26538   9.179  10.986   5.370 -0.7213 -0.2120  0.1073
  917MOL0     H26539   9.220  10.849   5.258  2.5520  0.0266 -3.5833
  917MOL0     H26540   9.379  10.869   5.467  1.2033  0.0259  0.4086
  917MOL0     H26541   9.394  11.040   5.423 -0.2609  1.9720 -3.7397
  917MOL0     H26542   9.682  10.871   5.170 -0.4885 -1.1392 -0.3332
  917MOL0     H26543   9.303  11.177   4.762  0.7718  0.0939  0.5378
  917MOL0     H26544   9.482  11.024   4.504  4.9758 -1.6029  1.2354
  917MOL0     H26545   9.419  11.178   4.576 -0.3530 -0.4518  0.0432
  917MOL0     H26546   9.578  11.113   4.620  0.1149  0.6468 -1.2234
  918MOL0     O26547   3.183   8.993   0.191 -0.2192  0.9728  0.4629
  918MOL0     C26548   3.144   8.942   0.082 -0.0032  0.9194 -0.1333
  918MOL0     O26549   3.010   8.919   0.041  0.0772 -0.5358  0.9694
  918MOL0     C26550   2.912   8.969   0.111  0.4173 -0.5084  0.5027
  918MOL0     C26551   2.799   8.886   0.137  0.4422  0.1599  0.5610
  918MOL0     C26552   2.680   8.944   0.194  0.0393  0.0186  0.3996
  918MOL0     C26553   2.668   9.079   0.216 -0.3837 -0.4712  0.0601
  918MOL0     O26554   2.557   9.116   0.290 -0.5712  0.5606 -0.0191
  918MOL0     C26555   2.562   9.223   0.388 -0.2658 -0.2230 -0.7298
  918MOL0     C26556   2.656   9.192   0.506 -0.3218 -0.9147  0.1544
  918MOL0     C26557   2.641   9.039   0.554 -0.4813 -0.8134  0.6319
  918MOL0     C26558   2.769   8.958   0.557 -0.4929  0.1495 -0.1247
  918MOL0     C26559   2.744   8.805   0.580 -1.1323 -0.7426 -0.3855
  918MOL0     C26560   2.722   8.781   0.735  1.2987  0.4135 -0.2468
  918MOL0     C26561   2.691   8.634   0.768  0.8514  0.0460  0.6072
  918MOL0     C26562   2.713   8.613   0.914 -0.0834  0.5359  0.1179
  918MOL0     N26563   2.844   8.553   0.928 -0.4161  0.4042 -0.7978
  918MOL0     C26564   2.942   8.607   1.006  0.4351 -0.2512  0.2089
  918MOL0     C26565   3.047   8.512   1.000  0.7134 -0.7481 -0.6718
  918MOL0     C26566   3.177   8.521   1.069  0.7338  0.1015  0.1020
  918MOL0     C26567   3.173   8.425   1.187 -0.3085 -0.3141  0.2663
  918MOL0     C26568   3.303   8.455   1.268  0.2376  0.0497 -0.1480
  918MOL0     C26569   3.307   8.346   1.385  0.0623  0.5129  0.9070
  918MOL0     O26570   3.413   8.357   1.485  0.1873  0.0517  0.3132
  918MOL0     C26571   3.546   8.333   1.458 -0.1190  0.2139  0.4314
  918MOL0     C26572   3.626   8.338   1.568 -0.7593  0.1070 -0.1418
  918MOL0     C26573   3.767   8.321   1.557  0.1260  0.0537  1.1115
  918MOL0     C26574   3.848   8.327   1.673 -0.4007  0.0835 -0.0745
  918MOL0     C26575   3.818   8.285   1.430  0.9885  0.4764  0.0655
  918MOL0     C26576   3.958   8.275   1.406 -0.0258  0.2635  0.5494
  918MOL0     O26577   4.049   8.352   1.467  0.3769  0.2011  0.5996
  918MOL0     C26578   4.184   8.315   1.458 -0.3502 -0.2252  0.3896
  918MOL0     C26579   4.257   8.219   1.521  1.2800 -0.5727 -0.0962
  918MOL0     C26580   4.397   8.213   1.509  0.0670 -0.1050  0.4507
  918MOL0     C26581   4.471   8.303   1.430 -0.4970  0.2008  0.2550
  918MOL0     O26582   4.607   8.308   1.438 -0.8030 -0.2956  0.2422
  918MOL0     C26583   4.673   8.186   1.407  0.0707  0.4824  0.3562
  918MOL0     C26584   4.825   8.201   1.387 -0.3697 -0.7502 -0.3270
  918MOL0     C26585   4.895   8.252   1.521  0.2837  1.3292  0.1268
  918MOL0     C26586   5.036   8.296   1.494 -0.5830 -0.0668  1.1601
  918MOL0     C26587   5.124   8.295   1.618  0.2829 -0.2871  0.6562
  918MOL0     C26588   5.282   8.328   1.589 -0.0158 -0.2538  0.3920
  918MOL0     C26589   5.308   8.456   1.515  1.0911 -0.3947  0.3040
  918MOL0     C26590   5.442   8.481   1.451 -0.3536  0.0379  0.3553
  918MOL0    Cl26591   5.564   8.546   1.568  0.0755 -0.1461  0.1149
  918MOL0     C26592   4.395   8.389   1.358  0.1488  0.2596 -0.3602
  918MOL0     C26593   4.254   8.392   1.365 -0.1039 -0.6107  0.6710
  918MOL0     O26594   3.985   8.174   1.334 -0.6599 -0.2208  0.7811
  918MOL0     C26595   3.734   8.265   1.316  0.2890  0.2656  0.1826
  918MOL0     C26596   3.596   8.294   1.334 -0.7489  0.4319 -0.4070
  918MOL0     N26597   3.016   8.408   0.907 -0.0483  0.2318  0.3111
  918MOL0     N26598   2.896   8.439   0.869 -0.1309 -0.2942  0.4527
  918MOL0     C26599   2.776   9.171   0.176  0.6100 -0.6692 -0.1743
  918MOL0     C26600   2.896   9.115   0.121 -0.0215 -0.4851 -0.1821
  918MOL0     C26601   3.256   8.901  -0.003  1.1656 -0.4928 -0.2256
  918MOL0     C26602   3.362   8.990  -0.017 -0.6964  0.6254  0.4394
  918MOL0     C26603   3.465   8.951  -0.108  0.8025  0.6535  0.2664
  918MOL0     C26604   3.455   8.826  -0.173 -0.0847  0.0363 -0.7159
  918MOL0     O26605   3.557   8.775  -0.263 -0.6930 -0.1623  0.1435
  918MOL0     C26606   3.698   8.820  -0.247  0.6532  1.1041  0.2244
  918MOL0     C26607   3.764   8.767  -0.124 -0.3202  0.4857 -0.4874
  918MOL0     C26608   3.917   8.801  -0.126  0.1978 -0.1732  0.0362
  918MOL0     C26609   3.982   8.688  -0.200 -0.1604  0.7177  0.3420
  918MOL0     C26610   4.125   8.720  -0.196  1.0496 -0.1809 -0.2172
  918MOL0     C26611   4.244   8.743  -0.184 -0.4777  0.6068  0.7144
  918MOL0     C26612   3.352   8.744  -0.153  0.1110  1.0241  0.3327
  918MOL0     C26613   3.246   8.778  -0.075 -1.1259 -0.1595 -0.2264
  918MOL0     C26614   3.139   8.678  -0.054  0.1691  0.6518 -0.4968
  918MOL0     H26615   2.817   8.780   0.122  0.9577  0.3023  0.1166
  918MOL0     H26616   2.612   8.872   0.238  1.5735 -0.1554  2.6832
  918MOL0     H26617   2.460   9.226   0.428  0.2833 -0.1412  0.7024
  918MOL0     H26618   2.589   9.319   0.342  2.5604 -1.6033 -2.2613
  918MOL0     H26619   2.760   9.218   0.485 -0.7774  1.0097  0.0513
  918MOL0     H26620   2.632   9.265   0.584  2.0349 -1.7273  1.7429
  918MOL0     H26621   2.596   9.038   0.654 -2.0963 -0.8383 -0.0759
  918MOL0     H26622   2.562   8.992   0.496 -1.5579  2.5538 -0.8647
  918MOL0     H26623   2.809   8.964   0.456 -0.9452 -0.1507 -0.3243
  918MOL0     H26624   2.832   9.005   0.634 -2.2670  0.7223  1.0542
  918MOL0     H26625   2.834   8.760   0.536 -0.2094 -0.4934  1.1659
  918MOL0     H26626   2.664   8.767   0.516 -1.5719 -0.8759  0.2423
  918MOL0     H26627   2.803   8.826   0.794  0.5673  2.3960 -0.6495
  918MOL0     H26628   2.635   8.841   0.765 -0.1984 -2.0660  0.6107
  918MOL0     H26629   2.750   8.563   0.709 -1.4448 -1.5857  0.1600
  918MOL0     H26630   2.585   8.615   0.751  0.7968  0.5804  0.3383
  918MOL0     H26631   2.706   8.705   0.973  1.8471  1.3102 -0.7860
  918MOL0     H26632   2.634   8.544   0.946 -0.2488  0.1511 -1.0717
  918MOL0     H26633   2.931   8.699   1.063  3.9327 -1.1386  2.6338
  918MOL0     H26634   3.188   8.622   1.109 -2.2512  0.1354  1.0872
  918MOL0     H26635   3.258   8.497   0.999  2.6913  2.2494  1.5004
  918MOL0     H26636   3.088   8.450   1.251 -0.3247  3.1227 -0.8832
  918MOL0     H26637   3.174   8.321   1.155  0.6442 -1.4674  3.6385
  918MOL0     H26638   3.387   8.447   1.198 -0.3877  0.4057 -0.9581
  918MOL0     H26639   3.296   8.553   1.317  3.2761 -0.2384  1.1251
  918MOL0     H26640   3.206   8.354   1.427 -1.0256  1.1195 -1.6170
  918MOL0     H26641   3.302   8.246   1.340 -3.6317  0.0793  1.9474
  918MOL0     H26642   3.578   8.367   1.661  0.7874  1.9363  0.1590
  918MOL0     H26643   3.943   8.381   1.668 -0.0693 -0.3637  1.0213
  918MOL0     H26644   3.876   8.227   1.707  2.8659  1.0800  0.5036
  918MOL0     H26645   3.784   8.369   1.751  0.9714 -1.7514  2.1985
  918MOL0     H26646   4.209   8.156   1.594 -3.0877  1.8075 -0.5663
  918MOL0     H26647   4.453   8.146   1.575  1.1731 -1.1712 -1.4804
  918MOL0     H26648   4.646   8.115   1.486 -0.8211  1.9900  1.4609
  918MOL0     H26649   4.641   8.136   1.316  1.4376 -1.8492  1.0560
  918MOL0     H26650   4.877   8.110   1.357  2.0695 -0.7513  3.3088
  918MOL0     H26651   4.840   8.275   1.308  0.7055  0.0550  0.5928
  918MOL0     H26652   4.907   8.166   1.588  1.4763  2.7270  1.7861
  918MOL0     H26653   4.837   8.328   1.574 -0.9356 -0.0520  0.8721
  918MOL0     H26654   5.037   8.396   1.451  0.9438 -0.7692 -0.5842
  918MOL0     H26655   5.103   8.245   1.424  1.3282  2.4421  1.0420
  918MOL0     H26656   5.075   8.369   1.682 -0.3282 -1.3574  1.4524
  918MOL0     H26657   5.118   8.200   1.672  1.0535 -0.2071  0.8894
  918MOL0     H26658   5.348   8.253   1.543 -0.2685 -0.2001 -0.0670
  918MOL0     H26659   5.329   8.343   1.686  4.2738 -0.6011 -1.4057
  918MOL0     H26660   5.287   8.544   1.577  1.5905  1.5834 -2.1927
  918MOL0     H26661   5.244   8.465   1.427  1.5628  0.9265  0.0783
  918MOL0     H26662   5.430   8.560   1.376  1.2894 -1.5479 -1.6667
  918MOL0     H26663   5.469   8.387   1.404 -1.9840 -0.2269 -0.1284
  918MOL0     H26664   4.445   8.461   1.294 -0.4609  0.1698 -0.9435
  918MOL0     H26665   4.190   8.446   1.295  1.7241  2.2719  1.0295
  918MOL0     H26666   3.773   8.224   1.223 -0.3344 -1.7914  0.7786
  918MOL0     H26667   3.538   8.273   1.245 -0.4333 -0.2502 -0.4609
  918MOL0     H26668   2.763   9.277   0.200  4.8188  0.2995 -1.3382
  918MOL0     H26669   2.981   9.182   0.113 -0.1979 -0.4689 -2.4394
  918MOL0     H26670   3.371   9.078   0.046  2.6794 -1.7477  3.7278
  918MOL0     H26671   3.551   9.016  -0.122 -0.8410  2.6420 -1.2044
  918MOL0     H26672   3.752   8.774  -0.330  1.5488 -0.5890  1.6662
  918MOL0     H26673   3.709   8.928  -0.242  3.9679  0.8249  1.4596
  918MOL0     H26674   3.741   8.660  -0.126 -1.5258  0.6975 -3.8447
  918MOL0     H26675   3.720   8.828  -0.045 -3.1316 -0.3853 -1.2704
  918MOL0     H26676   3.931   8.903  -0.162 -3.2133  0.4361  0.0950
  918MOL0     H26677   3.948   8.814  -0.022 -1.5224  3.4896  0.2310
  918MOL0     H26678   3.938   8.686  -0.300 -1.9764  2.4596  1.0434
  918MOL0     H26679   3.974   8.594  -0.144  2.9403  0.0724 -0.1119
  918MOL0     H26680   4.350   8.752  -0.183 -0.1924 -1.7540 -0.4160
  918MOL0     H26681   3.357   8.648  -0.202 -3.2087  1.4453 -1.0961
  918MOL0     H26682   3.168   8.580  -0.093 -1.7246 -0.3242  0.3708
  918MOL0     H26683   3.109   8.668   0.051 -1.8491  2.0186 -0.8944
  918MOL0     H26684   3.053   8.719  -0.106  0.0282  0.6472 -0.2707
  919MOL0     O26685   6.861   7.216   7.774  0.3017  0.0933  0.2040
  919MOL0     C26686   6.844   7.334   7.732 -0.3913  1.0339  0.1523
  919MOL0     O26687   6.941   7.423   7.717  0.4923  0.9191 -0.2012
  919MOL0     C26688   7.068   7.365   7.698  1.3053  0.6793  0.4835
  919MOL0     C26689   7.108   7.312   7.572 -1.2313 -0.2214  0.4833
  919MOL0     C26690   7.241   7.275   7.552  0.7637  0.1160 -0.6118
  919MOL0     C26691   7.333   7.279   7.666 -0.3879 -0.3199 -0.0575
  919MOL0     O26692   7.463   7.238   7.644  0.3680 -0.1115 -0.3730
  919MOL0     C26693   7.543   7.222   7.767  0.0662  0.0490  0.9998
  919MOL0     C26694   7.679   7.163   7.751 -0.0794 -0.3640  0.7647
  919MOL0     C26695   7.756   7.237   7.630  0.3645  0.0574 -0.2764
  919MOL0     C26696   7.905   7.210   7.624 -0.3659 -0.5680  0.5792
  919MOL0     C26697   7.966   7.303   7.520  0.5795 -0.2526 -0.3452
  919MOL0     C26698   8.108   7.265   7.488  0.1417 -0.5858 -0.8137
  919MOL0     C26699   8.159   7.359   7.376 -0.0806  0.2746  0.0854
  919MOL0     C26700   8.308   7.351   7.362 -0.3112  0.3350  0.7329
  919MOL0     N26701   8.356   7.448   7.261 -0.6614  0.9217 -0.4883
  919MOL0     C26702   8.401   7.418   7.137  0.7026  0.1956  0.4184
  919MOL0     C26703   8.449   7.537   7.090 -0.6620 -0.6304 -0.4796
  919MOL0     C26704   8.502   7.574   6.958 -0.0553  0.7636  0.3186
  919MOL0     C26705   8.477   7.711   6.896  0.4094  0.2825 -0.6217
  919MOL0     C26706   8.556   7.713   6.768 -0.0879  0.1402  0.7378
  919MOL0     C26707   8.707   7.731   6.792 -0.4199  1.0835  0.0813
  919MOL0     O26708   8.782   7.726   6.669 -0.0606 -1.2066 -0.3630
  919MOL0     C26709   8.916   7.756   6.680 -1.3053  0.5517  0.2318
  919MOL0     C26710   8.997   7.714   6.573 -0.6625  0.5902  0.1611
  919MOL0     C26711   9.135   7.709   6.580 -0.2299 -0.9637 -0.1610
  919MOL0     C26712   9.207   7.676   6.445  0.9130 -0.2172 -0.0366
  919MOL0     C26713   9.203   7.762   6.695  0.3569 -0.6568  0.0447
  919MOL0     C26714   9.348   7.757   6.718  0.0634  0.4201 -0.9096
  919MOL0     O26715   9.400   7.839   6.819  0.0164  0.3190  0.3095
  919MOL0     C26716   9.528   7.813   6.854  0.0311  0.4342  0.0117
  919MOL0     C26717   9.565   7.769   6.984  1.0814  1.0898 -0.6701
  919MOL0     C26718   9.704   7.738   7.013  0.6294  0.2358 -0.3538
  919MOL0     C26719   9.805   7.750   6.918  1.0689  0.5171 -1.1945
  919MOL0     O26720   9.924   7.696   6.959 -0.5991 -1.2683  0.0473
  919MOL0     C26721  10.023   7.677   6.863  0.2575 -0.0457  0.4254
  919MOL0     C26722  10.136   7.591   6.927  0.4566 -0.6401  0.0752
  919MOL0     C26723  10.255   7.579   6.836 -0.6855  0.2288  0.0779
  919MOL0     C26724  10.346   7.466   6.892 -0.2731 -0.5937  0.2187
  919MOL0     C26725  10.456   7.426   6.798  1.1923 -0.4647  0.2343
  919MOL0     C26726  10.571   7.348   6.864 -0.1726 -0.8519 -0.6825
  919MOL0     C26727  10.671   7.297   6.766 -0.1498  0.1144  0.0969
  919MOL0     C26728  10.790   7.244   6.840  0.1635  0.0113  0.5217
  919MOL0    Cl26729  10.902   7.367   6.906  0.2276 -0.4160 -0.4683
  919MOL0     C26730   9.769   7.805   6.795 -0.3243 -0.2485  0.4785
  919MOL0     C26731   9.637   7.835   6.768 -0.2572  0.9816 -0.6337
  919MOL0     O26732   9.415   7.679   6.646  1.0256 -0.2645 -0.5499
  919MOL0     C26733   9.114   7.818   6.793 -0.7125  0.3025  0.0492
  919MOL0     C26734   8.977   7.801   6.796  0.6705 -0.1813  0.2670
  919MOL0     N26735   8.435   7.629   7.191 -0.4335  0.7496  0.0554
  919MOL0     N26736   8.380   7.577   7.294 -0.1706 -0.7032  0.4462
  919MOL0     C26737   7.282   7.303   7.791 -0.2691 -1.1715 -0.3385
  919MOL0     C26738   7.153   7.343   7.809  0.3383 -0.7044  0.0746
  919MOL0     C26739   6.706   7.383   7.702  0.5712  0.1892 -0.7862
  919MOL0     C26740   6.688   7.520   7.682 -0.3691 -0.4344 -0.0815
  919MOL0     C26741   6.571   7.579   7.652 -0.1425  0.2033  0.0316
  919MOL0     C26742   6.457   7.500   7.647 -0.1206  0.5378 -0.2826
  919MOL0     O26743   6.339   7.562   7.615  0.7443 -0.4017  0.4292
  919MOL0     C26744   6.228   7.477   7.561 -0.8940  0.5549 -0.2698
  919MOL0     C26745   6.120   7.575   7.545  0.8368 -0.6583 -0.0765
  919MOL0     C26746   6.146   7.678   7.434 -0.4969 -0.3496 -0.3655
  919MOL0     C26747   6.042   7.792   7.414 -0.4552 -0.1360  0.1340
  919MOL0     C26748   5.995   7.864   7.530  0.4611 -0.5509 -0.7224
  919MOL0     C26749   5.942   7.926   7.628  0.5436 -0.6300  0.7643
  919MOL0     C26750   6.475   7.362   7.662  0.4105  0.1323 -0.1900
  919MOL0     C26751   6.593   7.297   7.694  0.5402  0.1981  0.4448
  919MOL0     C26752   6.590   7.149   7.694  0.3016  0.8429  0.4056
  919MOL0     H26753   7.035   7.307   7.492  0.5273 -2.2076 -1.0971
  919MOL0     H26754   7.287   7.252   7.456  1.9552 -0.1829 -0.0006
  919MOL0     H26755   7.492   7.157   7.838 -1.1095 -0.1288  0.0315
  919MOL0     H26756   7.550   7.321   7.814  0.1990 -0.2946  1.7166
  919MOL0     H26757   7.731   7.174   7.846 -1.0265 -0.6862  1.3363
  919MOL0     H26758   7.674   7.056   7.726  0.0509  0.3040 -2.6365
  919MOL0     H26759   7.709   7.199   7.538 -2.0593 -2.0360  1.6644
  919MOL0     H26760   7.738   7.344   7.639 -1.3748 -0.3170  0.9416
  919MOL0     H26761   7.940   7.241   7.723 -1.0995 -0.5035  0.8213
  919MOL0     H26762   7.924   7.104   7.604  1.0948 -0.4456  1.1360
  919MOL0     H26763   7.972   7.408   7.552  0.0225 -0.2576 -0.2139
  919MOL0     H26764   7.905   7.306   7.429  0.8627 -2.3446 -0.6394
  919MOL0     H26765   8.154   7.285   7.585 -0.5287  0.8412 -0.7584
  919MOL0     H26766   8.115   7.161   7.458  0.2136 -1.0518  0.7439
  919MOL0     H26767   8.128   7.463   7.389  0.5600  0.4445  0.2564
  919MOL0     H26768   8.111   7.331   7.282 -1.6669  0.3831  0.8152
  919MOL0     H26769   8.348   7.379   7.460 -1.4841 -0.6130  1.5095
  919MOL0     H26770   8.354   7.253   7.344  0.2965  0.4372  1.6479
  919MOL0     H26771   8.417   7.319   7.095 -1.8252 -0.1848  0.2014
  919MOL0     H26772   8.456   7.496   6.895 -1.3231  2.9833 -1.6812
  919MOL0     H26773   8.608   7.547   6.955 -0.0560  0.3161  2.5586
  919MOL0     H26774   8.370   7.725   6.877  0.6273  0.2890 -1.9762
  919MOL0     H26775   8.501   7.795   6.962 -0.0548 -1.9813  2.6327
  919MOL0     H26776   8.528   7.619   6.718 -2.0647  0.8368  0.4589
  919MOL0     H26777   8.519   7.792   6.703  2.3990 -2.1888 -4.0657
  919MOL0     H26778   8.713   7.825   6.847  1.1236  0.0279  1.8049
  919MOL0     H26779   8.754   7.650   6.848  0.1165  1.0233 -0.4403
  919MOL0     H26780   8.948   7.661   6.492  1.5890 -2.9343  0.9132
  919MOL0     H26781   9.130   7.656   6.370 -0.5286  0.3620  1.2526
  919MOL0     H26782   9.265   7.584   6.454  2.6581  0.8715  0.4776
  919MOL0     H26783   9.277   7.754   6.411  2.4124 -1.2508  0.5621
  919MOL0     H26784   9.483   7.755   7.054  0.7356 -0.7850 -1.3992
  919MOL0     H26785   9.744   7.687   7.100 -0.1551 -0.5435 -0.4493
  919MOL0     H26786   9.981   7.621   6.779  1.6719  2.4347 -2.1238
  919MOL0     H26787  10.070   7.768   6.824  4.5089 -1.7225  1.0228
  919MOL0     H26788  10.169   7.632   7.022 -1.3928 -1.5085  1.1654
  919MOL0     H26789  10.084   7.495   6.943 -0.3737 -0.3377 -0.6968
  919MOL0     H26790  10.320   7.667   6.833  0.3977 -0.5707 -0.0544
  919MOL0     H26791  10.234   7.553   6.731  3.8090  1.9002 -1.4506
  919MOL0     H26792  10.283   7.381   6.920 -3.5426  1.4449 -0.3614
  919MOL0     H26793  10.376   7.508   6.988 -4.1993  0.1684  1.2911
  919MOL0     H26794  10.414   7.364   6.719  2.3136 -0.9340 -0.0141
  919MOL0     H26795  10.498   7.516   6.753  2.0172 -1.0131 -0.1366
  919MOL0     H26796  10.524   7.269   6.924 -0.9347 -0.7984 -1.1897
  919MOL0     H26797  10.624   7.420   6.927 -1.9062  0.0947 -0.2408
  919MOL0     H26798  10.702   7.371   6.691 -1.3445  0.0503 -0.4775
  919MOL0     H26799  10.624   7.211   6.717 -0.0612  0.1679 -0.0836
  919MOL0     H26800  10.850   7.186   6.768  2.7243  0.7924  1.8870
  919MOL0     H26801  10.753   7.192   6.929 -0.5294  3.9829  2.7625
  919MOL0     H26802   9.842   7.807   6.714  0.3147  0.5210  1.0515
  919MOL0     H26803   9.612   7.873   6.670 -1.2971  1.3327 -0.2472
  919MOL0     H26804   9.167   7.845   6.884  2.7371 -3.6424 -0.4879
  919MOL0     H26805   8.927   7.830   6.888  1.1329  1.3126  0.0839
  919MOL0     H26806   7.343   7.292   7.880  0.0833 -1.2741 -0.5925
  919MOL0     H26807   7.111   7.370   7.905  1.7634  4.3059 -0.4675
  919MOL0     H26808   6.776   7.585   7.690  1.0173 -2.4073  1.6495
  919MOL0     H26809   6.551   7.686   7.646  0.4213  0.3258  0.2660
  919MOL0     H26810   6.243   7.414   7.473 -3.9812 -0.6627 -0.0485
  919MOL0     H26811   6.196   7.410   7.641  0.6529 -0.3736 -0.3967
  919MOL0     H26812   6.098   7.618   7.643  0.7285 -3.3691  1.1914
  919MOL0     H26813   6.028   7.524   7.516 -0.5617  1.2259  0.8010
  919MOL0     H26814   6.247   7.716   7.451 -1.0273  0.8270  0.2770
  919MOL0     H26815   6.147   7.621   7.340  3.6059 -1.8441  0.3739
  919MOL0     H26816   5.959   7.738   7.367 -0.5174  1.3690 -1.5746
  919MOL0     H26817   6.078   7.865   7.340 -1.8806  1.8226  1.2793
  919MOL0     H26818   5.888   7.973   7.708  0.8049  1.2828 -0.1310
  919MOL0     H26819   6.380   7.310   7.664  0.8416 -0.7304 -1.1901
  919MOL0     H26820   6.600   7.107   7.795 -2.6984  2.1751  1.3606
  919MOL0     H26821   6.497   7.111   7.652  2.2728 -3.1266 -0.8382
  919MOL0     H26822   6.667   7.116   7.624  0.3409  1.8705 -0.0540
  920MOL0     O26823   5.713   4.904   0.304  0.2749  0.2551 -0.2019
  920MOL0     C26824   5.629   4.878   0.220  0.0055  0.7010 -0.7086
  920MOL0     O26825   5.631   4.904   0.082 -0.4845  0.7629 -0.4992
  920MOL0     C26826   5.732   4.983   0.032 -0.5805  0.0758 -0.6532
  920MOL0     C26827   5.727   5.123   0.054  0.5471  0.7907 -0.2598
  920MOL0     C26828   5.824   5.200  -0.005 -0.4395 -0.6209  0.0035
  920MOL0     C26829   5.939   5.145  -0.057 -0.4449 -1.4486  0.3630
  920MOL0     O26830   6.051   5.222  -0.104 -0.2146  0.3311 -0.4224
  920MOL0     C26831   6.125   5.281   0.009  0.3663 -0.0153 -0.1332
  920MOL0     C26832   6.251   5.204   0.033 -0.1242  0.6374 -1.0554
  920MOL0     C26833   6.339   5.175  -0.088 -0.1448 -0.5773  0.3746
  920MOL0     C26834   6.458   5.088  -0.051 -0.1563 -0.6184  0.7390
  920MOL0     C26835   6.548   5.055  -0.169  1.0915 -0.5452  0.8364
  920MOL0     C26836   6.666   4.988  -0.116  0.0754 -0.7532 -0.3938
  920MOL0     C26837   6.768   4.954  -0.227 -0.4639 -0.6320  0.1666
  920MOL0     C26838   6.883   4.870  -0.163  0.2415 -0.6532 -0.0863
  920MOL0     N26839   6.988   4.835  -0.255 -0.6421 -0.3636  0.1431
  920MOL0     C26840   6.992   4.820  -0.395 -0.4685  0.1454 -0.6745
  920MOL0     C26841   7.121   4.828  -0.429  0.6289  0.3641  0.2793
  920MOL0     C26842   7.178   4.823  -0.571 -0.5404 -0.1773  0.1246
  920MOL0     C26843   7.209   4.683  -0.631  0.2802  0.2206  0.6611
  920MOL0     C26844   7.295   4.591  -0.532 -0.1921 -0.0914  0.8359
  920MOL0     C26845   7.433   4.640  -0.502 -0.1873 -0.1745 -0.3718
  920MOL0     O26846   7.530   4.544  -0.515  0.9487  0.2770  0.4172
  920MOL0     C26847   7.657   4.583  -0.477 -0.5455  0.3337 -0.3027
  920MOL0     C26848   7.739   4.480  -0.435 -0.3158 -0.3928  0.2605
  920MOL0     C26849   7.867   4.494  -0.391  0.1131 -0.2855  0.1606
  920MOL0     C26850   7.951   4.376  -0.395 -0.0756  1.1199  0.3832
  920MOL0     C26851   7.919   4.619  -0.359 -0.3401 -0.1744  0.3788
  920MOL0     C26852   8.066   4.646  -0.303  0.1229  0.0821  0.3106
  920MOL0     O26853   8.147   4.745  -0.360 -0.2537 -0.0473  0.0236
  920MOL0     C26854   8.269   4.764  -0.305  0.5168  0.0269  0.6378
  920MOL0     C26855   8.371   4.763  -0.398 -0.7488 -0.3066 -0.2990
  920MOL0     C26856   8.503   4.785  -0.358  0.8957 -0.8551 -0.0777
  920MOL0     C26857   8.540   4.803  -0.221 -0.1553 -0.3888 -0.3214
  920MOL0     O26858   8.666   4.821  -0.166 -0.1669  0.1194  0.4185
  920MOL0     C26859   8.755   4.914  -0.230 -0.4120 -0.9702 -0.4762
  920MOL0     C26860   8.852   4.850  -0.338  0.1784 -0.0651 -0.0122
  920MOL0     C26861   9.005   4.878  -0.323  0.3645 -0.5414 -0.2724
  920MOL0     C26862   9.071   4.821  -0.445  0.2914 -0.9631 -0.3050
  920MOL0     C26863   9.229   4.836  -0.445 -0.3702 -0.1351  0.1696
  920MOL0     C26864   9.298   4.755  -0.562 -0.7024  0.5967 -0.8010
  920MOL0     C26865   9.252   4.770  -0.698 -0.5408  0.2971  0.9662
  920MOL0     C26866   9.264   4.922  -0.741  0.3277  0.1603  0.1273
  920MOL0    Cl26867   9.434   4.960  -0.778 -0.2951 -0.2035 -0.6140
  920MOL0     C26868   8.430   4.810  -0.128  0.0120  1.1472 -0.6940
  920MOL0     C26869   8.295   4.789  -0.168 -0.4385 -0.5932 -0.4596
  920MOL0     O26870   8.095   4.582  -0.208 -0.4041  0.7843  0.2732
  920MOL0     C26871   7.829   4.726  -0.374  0.4832 -0.3942  1.1780
  920MOL0     C26872   7.705   4.708  -0.438 -0.8035 -0.5586  0.2835
  920MOL0     N26873   7.194   4.819  -0.313  0.4248 -0.0729 -0.0956
  920MOL0     N26874   7.112   4.839  -0.207  0.0611  0.4484 -0.7535
  920MOL0     C26875   5.954   5.010  -0.071  0.2530  0.5091 -0.3908
  920MOL0     C26876   5.847   4.924  -0.027 -0.5965  0.0374 -0.1269
  920MOL0     C26877   5.523   4.786   0.272  0.2939  0.6119 -0.8074
  920MOL0     C26878   5.519   4.748   0.403 -0.1541 -1.0658  0.1023
  920MOL0     C26879   5.419   4.672   0.461 -0.3103  0.8126 -0.1448
  920MOL0     C26880   5.301   4.632   0.391  0.1797 -1.3020 -0.0659
  920MOL0     O26881   5.189   4.580   0.432 -0.0359  0.2398 -0.0770
  920MOL0     C26882   5.164   4.579   0.572  0.1849 -0.6575  0.0256
  920MOL0     C26883   5.022   4.523   0.610 -1.1969  0.0142  0.0140
  920MOL0     C26884   4.904   4.609   0.581 -0.1497 -0.2403  0.3267
  920MOL0     C26885   4.764   4.559   0.635 -0.7395 -0.3476  0.5993
  920MOL0     C26886   4.669   4.647   0.576 -0.5021 -0.8705  0.7193
  920MOL0     C26887   4.588   4.737   0.543  0.2136 -0.5656  0.9749
  920MOL0     C26888   5.303   4.673   0.259  0.0781 -0.1477  0.8462
  920MOL0     C26889   5.406   4.750   0.195  0.4469  0.1351 -0.5653
  920MOL0     C26890   5.367   4.807   0.059  0.2695  0.4276  0.0243
  920MOL0     H26891   5.632   5.163   0.087 -1.3073 -1.3095 -2.6854
  920MOL0     H26892   5.810   5.307   0.004  1.0577 -0.4974  1.4729
  920MOL0     H26893   6.070   5.286   0.103  1.5950 -1.0685  0.6847
  920MOL0     H26894   6.154   5.385  -0.010 -0.3194 -0.0459 -1.4584
  920MOL0     H26895   6.310   5.261   0.105 -2.9100 -0.3543  2.2759
  920MOL0     H26896   6.223   5.117   0.093 -2.5101  2.6600  1.0332
  920MOL0     H26897   6.279   5.125  -0.164  0.8475 -0.5712 -0.4435
  920MOL0     H26898   6.371   5.272  -0.127 -1.2919 -0.3204  0.0344
  920MOL0     H26899   6.513   5.148   0.022 -2.6714 -0.6209  2.8012
  920MOL0     H26900   6.427   4.999   0.005 -2.6984  0.4514  1.1838
  920MOL0     H26901   6.575   5.147  -0.221 -2.0910 -0.0793 -0.2374
  920MOL0     H26902   6.502   4.986  -0.241 -1.0435  1.8465 -0.2311
  920MOL0     H26903   6.715   5.059  -0.048  0.3088  0.6082 -1.9093
  920MOL0     H26904   6.636   4.895  -0.068 -2.5901  1.6426  3.1120
  920MOL0     H26905   6.816   5.038  -0.277  0.4286 -2.8502 -3.0580
  920MOL0     H26906   6.718   4.898  -0.308 -1.6060  1.0088 -0.3091
  920MOL0     H26907   6.933   4.913  -0.076  2.0431 -0.7388 -1.0427
  920MOL0     H26908   6.831   4.783  -0.121 -0.6850  0.2874  0.7675
  920MOL0     H26909   6.908   4.797  -0.460 -0.2641  0.2934 -0.9872
  920MOL0     H26910   7.265   4.890  -0.571 -2.1893  2.1012  1.2570
  920MOL0     H26911   7.105   4.872  -0.636  0.5395 -1.4906 -2.1817
  920MOL0     H26912   7.115   4.634  -0.658 -0.1903  0.8829  1.0786
  920MOL0     H26913   7.269   4.695  -0.721  1.2195 -2.3813  0.8259
  920MOL0     H26914   7.237   4.577  -0.441 -0.2746  1.3100  1.0151
  920MOL0     H26915   7.291   4.490  -0.575 -0.6396  0.1435  0.3194
  920MOL0     H26916   7.463   4.727  -0.560 -1.7208  0.4269 -0.3166
  920MOL0     H26917   7.427   4.670  -0.397 -1.4986 -0.3485 -0.3736
  920MOL0     H26918   7.693   4.382  -0.442 -3.4940  0.8692  1.8648
  920MOL0     H26919   7.896   4.283  -0.415 -1.4258  2.1195 -0.7140
  920MOL0     H26920   8.001   4.358  -0.299  2.7091  0.3824 -1.0707
  920MOL0     H26921   8.030   4.367  -0.470  1.5097 -0.1912  2.0952
  920MOL0     H26922   8.349   4.749  -0.503 -1.6705  0.8036 -0.2691
  920MOL0     H26923   8.587   4.785  -0.426 -1.0748 -0.7011 -2.6886
  920MOL0     H26924   8.695   4.994  -0.275  1.7537  1.9628  1.4766
  920MOL0     H26925   8.820   4.958  -0.154 -0.5985  1.0313 -1.4062
  920MOL0     H26926   8.839   4.742  -0.328  0.5425 -0.4558 -2.8133
  920MOL0     H26927   8.825   4.881  -0.440  3.4579 -0.0294 -0.9935
  920MOL0     H26928   9.042   4.813  -0.244  0.4904 -1.4790 -1.0891
  920MOL0     H26929   9.037   4.981  -0.303  1.5717 -1.2741  1.8855
  920MOL0     H26930   9.022   4.870  -0.530  0.2897 -0.7185 -0.1658
  920MOL0     H26931   9.053   4.714  -0.450 -1.0687 -0.7919  0.4916
  920MOL0     H26932   9.239   4.941  -0.474 -1.8291 -0.6086 -2.3890
  920MOL0     H26933   9.273   4.823  -0.346  1.7748 -2.9620 -1.0221
  920MOL0     H26934   9.288   4.651  -0.529  0.9226  1.1859  1.9602
  920MOL0     H26935   9.400   4.794  -0.565  0.3593 -1.7627  0.9007
  920MOL0     H26936   9.152   4.730  -0.717 -0.1183 -0.0338 -0.7418
  920MOL0     H26937   9.307   4.707  -0.769 -3.3696  0.8627 -1.9721
  920MOL0     H26938   9.226   4.995  -0.669  1.4798  1.6159 -0.6918
  920MOL0     H26939   9.200   4.932  -0.829 -0.0688 -0.3186  0.3576
  920MOL0     H26940   8.449   4.820  -0.022 -0.7611 -0.6490 -0.3539
  920MOL0     H26941   8.211   4.807  -0.101  0.2746 -1.0626  0.5650
  920MOL0     H26942   7.855   4.829  -0.349 -3.0562  0.2533  2.7967
  920MOL0     H26943   7.639   4.794  -0.449  2.7862  2.2096 -1.7434
  920MOL0     H26944   6.031   4.973  -0.138 -1.5020 -0.6938 -1.8962
  920MOL0     H26945   5.848   4.817  -0.044 -0.2848 -0.2663  1.6050
  920MOL0     H26946   5.608   4.773   0.460 -0.3872  0.0627  0.0044
  920MOL0     H26947   5.429   4.632   0.561  0.4646 -1.9805 -1.2609
  920MOL0     H26948   5.239   4.516   0.621  3.0783  2.5185  0.0534
  920MOL0     H26949   5.174   4.679   0.615 -3.0277  0.2194 -0.9763
  920MOL0     H26950   5.022   4.511   0.719  0.9852  0.5306  0.1034
  920MOL0     H26951   5.003   4.429   0.557 -0.0700  0.5620 -1.4283
  920MOL0     H26952   4.911   4.710   0.623  2.2289  0.2497 -1.0896
  920MOL0     H26953   4.894   4.612   0.472 -1.1158 -1.7182  0.3542
  920MOL0     H26954   4.771   4.569   0.744 -2.8825  0.1313  0.7425
  920MOL0     H26955   4.724   4.461   0.609  0.1213 -1.5917  3.5870
  920MOL0     H26956   4.519   4.818   0.527  0.8355 -0.3526 -0.8733
  920MOL0     H26957   5.216   4.644   0.200  0.2487 -0.4792  0.7556
  920MOL0     H26958   5.260   4.817   0.042  0.2857  1.7622  0.5774
  920MOL0     H26959   5.412   4.906   0.047  0.7295  0.3529  0.9801
  920MOL0     H26960   5.407   4.741  -0.018  0.4830  1.0582 -0.4055
  921MOL0     O26961   4.954   7.783   0.391  0.4970 -0.5840  0.6013
  921MOL0     C26962   4.954   7.678   0.329 -0.4662 -0.3284 -0.1263
  921MOL0     O26963   5.047   7.653   0.233  0.3490  0.3788  0.6045
  921MOL0     C26964   5.157   7.726   0.206  0.3336  0.4634 -0.2125
  921MOL0     C26965   5.150   7.833   0.124  0.2331  0.1764  0.2267
  921MOL0     C26966   5.259   7.918   0.094  0.0500  0.1297  0.1923
  921MOL0     C26967   5.381   7.893   0.152 -0.2820 -0.4090  0.1992
  921MOL0     O26968   5.486   7.976   0.131 -0.4677  0.1784  0.5615
  921MOL0     C26969   5.480   8.080   0.034 -0.4189 -0.4493 -0.1615
  921MOL0     C26970   5.613   8.125  -0.022  0.9692  0.4026  0.5168
  921MOL0     C26971   5.599   8.227  -0.134  0.2018 -0.5545  0.2807
  921MOL0     C26972   5.504   8.344  -0.096 -0.4384 -0.3547 -0.8188
  921MOL0     C26973   5.499   8.450  -0.204  0.0492 -0.5960 -0.7858
  921MOL0     C26974   5.422   8.575  -0.174  0.1411  0.7521  0.3844
  921MOL0     C26975   5.443   8.675  -0.286  0.7854  0.3608 -0.5811
  921MOL0     C26976   5.329   8.779  -0.289 -0.2604  0.0361 -0.5578
  921MOL0     N26977   5.210   8.753  -0.373  0.2204 -0.0631  0.4082
  921MOL0     C26978   5.092   8.799  -0.329  1.0387 -0.3054  0.1961
  921MOL0     C26979   5.001   8.739  -0.412  0.7953 -0.6988 -0.7115
  921MOL0     C26980   4.856   8.756  -0.405  0.1287  0.5848  0.0720
  921MOL0     C26981   4.772   8.651  -0.483  0.1252  0.1584  0.7550
  921MOL0     C26982   4.626   8.640  -0.439 -0.6063 -0.1499 -0.1426
  921MOL0     C26983   4.555   8.517  -0.492  1.0884 -0.1796 -0.3432
  921MOL0     O26984   4.436   8.498  -0.418 -1.2397 -0.2674 -0.8680
  921MOL0     C26985   4.372   8.377  -0.406 -0.3118  1.1978  0.1083
  921MOL0     C26986   4.386   8.266  -0.497  0.2741 -0.6307  0.2983
  921MOL0     C26987   4.302   8.152  -0.490 -0.3824  0.8826  0.1833
  921MOL0     C26988   4.314   8.047  -0.595  0.5707  0.2151  0.1746
  921MOL0     C26989   4.209   8.131  -0.379 -0.4766 -0.2296  0.0566
  921MOL0     C26990   4.142   8.006  -0.346  0.0851  0.6069 -0.6474
  921MOL0     O26991   4.020   8.024  -0.295 -0.5614  0.7067 -0.0989
  921MOL0     C26992   3.915   7.934  -0.291  0.5991  0.1381 -0.1460
  921MOL0     C26993   3.912   7.815  -0.364  0.3201  0.4310 -0.2191
  921MOL0     C26994   3.787   7.738  -0.382 -0.0180 -0.3990 -0.3269
  921MOL0     C26995   3.673   7.776  -0.306 -0.8054 -0.3602  0.0254
  921MOL0     O26996   3.548   7.716  -0.299 -0.4930  0.4214 -0.3315
  921MOL0     C26997   3.537   7.597  -0.380 -0.7051  0.0284  0.5653
  921MOL0     C26998   3.400   7.527  -0.394  0.5182  0.1405 -1.1432
  921MOL0     C26999   3.355   7.477  -0.258  0.1710  0.1388  0.2246
  921MOL0     C27000   3.244   7.376  -0.260 -0.0005 -0.3691 -0.0997
  921MOL0     C27001   3.229   7.305  -0.119  0.3416  0.8937  0.2303
  921MOL0     C27002   3.099   7.223  -0.134  0.3645  0.0138 -0.1025
  921MOL0     C27003   2.961   7.295  -0.127 -0.1974  0.0238  0.3540
  921MOL0     C27004   2.856   7.189  -0.098 -0.4796 -0.6570  0.4229
  921MOL0    Cl27005   2.696   7.276  -0.076  0.5160  0.4013  0.2176
  921MOL0     C27006   3.681   7.893  -0.222 -0.3913  0.3459 -0.0355
  921MOL0     C27007   3.798   7.968  -0.221  0.6699  0.2283  0.1490
  921MOL0     O27008   4.199   7.905  -0.379 -0.1976  0.0751 -0.2636
  921MOL0     C27009   4.208   8.238  -0.283  0.8826  0.1193  0.4131
  921MOL0     C27010   4.280   8.356  -0.300  1.0196 -0.1258  0.3304
  921MOL0     N27011   5.066   8.653  -0.502 -0.7698  0.7106 -0.2154
  921MOL0     N27012   5.192   8.667  -0.474  0.4065  0.3176 -0.3639
  921MOL0     C27013   5.393   7.785   0.234 -0.7530 -0.1425  0.5950
  921MOL0     C27014   5.284   7.699   0.261 -0.1844 -0.1251 -0.3511
  921MOL0     C27015   4.861   7.562   0.365  0.7053 -0.4299 -0.0140
  921MOL0     C27016   4.774   7.585   0.481  0.2463  0.0063  0.4332
  921MOL0     C27017   4.683   7.485   0.523  0.4341 -0.2383  0.0070
  921MOL0     C27018   4.654   7.376   0.440 -1.1327 -0.3483 -0.8569
  921MOL0     O27019   4.572   7.279   0.490  0.0493  0.6625  0.4868
  921MOL0     C27020   4.486   7.221   0.390 -1.4447 -0.9898 -0.4415
  921MOL0     C27021   4.334   7.249   0.414  0.1673  0.3624 -0.1131
  921MOL0     C27022   4.252   7.211   0.301 -0.0212 -0.3610 -0.1381
  921MOL0     C27023   4.115   7.163   0.336 -0.5194 -0.6978  0.2021
  921MOL0     C27024   4.033   7.273   0.367 -0.7808  0.2046 -0.8856
  921MOL0     C27025   3.957   7.363   0.389 -0.0971 -0.0943 -0.4126
  921MOL0     C27026   4.741   7.355   0.331 -0.1732 -0.8704  0.2215
  921MOL0     C27027   4.845   7.449   0.292  0.6455 -0.0190 -0.0872
  921MOL0     C27028   4.914   7.426   0.165  0.0077 -0.0874 -0.0982
  921MOL0     H27029   5.059   7.855   0.070 -0.4770 -2.1076  0.4163
  921MOL0     H27030   5.245   7.996   0.020  2.0652 -0.8469 -1.2817
  921MOL0     H27031   5.444   8.171   0.083  2.7810  1.7314 -1.5279
  921MOL0     H27032   5.409   8.059  -0.046 -0.0563 -3.2113  0.1391
  921MOL0     H27033   5.674   8.162   0.061  0.7399 -1.0528  1.3710
  921MOL0     H27034   5.666   8.039  -0.063 -1.1918 -1.3949  1.2693
  921MOL0     H27035   5.693   8.274  -0.165 -1.7306  2.8405 -0.9935
  921MOL0     H27036   5.559   8.179  -0.223 -0.7881  1.5785 -0.4827
  921MOL0     H27037   5.409   8.294  -0.074 -0.2627 -0.4168 -0.1579
  921MOL0     H27038   5.543   8.387  -0.003 -1.0296  0.0767 -0.7631
  921MOL0     H27039   5.466   8.403  -0.298 -1.1265  3.0433 -2.3696
  921MOL0     H27040   5.598   8.494  -0.216 -1.3753  2.9789 -0.5190
  921MOL0     H27041   5.323   8.528  -0.175  0.4802 -0.0620 -2.1914
  921MOL0     H27042   5.423   8.615  -0.073 -0.6126 -2.9533  2.0487
  921MOL0     H27043   5.455   8.623  -0.382  1.2449 -1.7843  0.5834
  921MOL0     H27044   5.537   8.726  -0.261 -0.0382  0.8769  1.6197
  921MOL0     H27045   5.299   8.790  -0.184 -0.7167  1.4725 -0.8200
  921MOL0     H27046   5.378   8.871  -0.322 -1.2335  0.7512 -0.0378
  921MOL0     H27047   5.070   8.857  -0.240  0.3253 -3.7210  2.4224
  921MOL0     H27048   4.830   8.856  -0.439  3.3897  2.9866  3.8264
  921MOL0     H27049   4.814   8.750  -0.304 -2.1828 -0.3015 -0.8790
  921MOL0     H27050   4.773   8.679  -0.589  0.5507 -2.3968 -0.0037
  921MOL0     H27051   4.818   8.553  -0.466  0.8272  0.6125  1.5561
  921MOL0     H27052   4.636   8.633  -0.330  1.7616 -1.0101 -0.3578
  921MOL0     H27053   4.570   8.731  -0.461 -2.6224 -1.1055  0.7078
  921MOL0     H27054   4.541   8.521  -0.601  0.9226 -3.1741 -0.5294
  921MOL0     H27055   4.623   8.431  -0.482 -0.7350 -1.4045  3.8697
  921MOL0     H27056   4.452   8.276  -0.583  0.3383  1.6455  0.5503
  921MOL0     H27057   4.225   7.983  -0.606  0.9109  0.0776 -2.4803
  921MOL0     H27058   4.409   7.994  -0.589  0.3344 -0.0308  2.1124
  921MOL0     H27059   4.324   8.096  -0.693 -2.9313 -3.9161 -2.6624
  921MOL0     H27060   3.997   7.779  -0.421 -1.1004 -0.3934 -1.9230
  921MOL0     H27061   3.761   7.657  -0.450 -2.5181 -0.4165  0.5321
  921MOL0     H27062   3.548   7.629  -0.484 -0.8508 -1.9485 -0.0970
  921MOL0     H27063   3.602   7.512  -0.358  0.2210 -0.1993 -2.5731
  921MOL0     H27064   3.322   7.577  -0.452 -1.2070 -1.5244 -0.3455
  921MOL0     H27065   3.417   7.436  -0.452 -1.0019  0.6482 -2.4532
  921MOL0     H27066   3.326   7.559  -0.193  1.5528 -1.1063  2.5675
  921MOL0     H27067   3.442   7.426  -0.214 -2.2943 -2.5889  2.3613
  921MOL0     H27068   3.262   7.306  -0.342  1.4795 -0.3808  0.1983
  921MOL0     H27069   3.154   7.436  -0.279 -0.6469 -1.3352 -0.1270
  921MOL0     H27070   3.320   7.250  -0.096  2.7125  2.1741 -4.7044
  921MOL0     H27071   3.216   7.380  -0.040  0.8235  2.4602 -1.1298
  921MOL0     H27072   3.104   7.155  -0.049 -0.4827  2.0763  1.6861
  921MOL0     H27073   3.101   7.158  -0.223  2.5914 -0.6076  0.3385
  921MOL0     H27074   2.928   7.347  -0.218 -3.3588 -0.8909  0.8467
  921MOL0     H27075   2.966   7.364  -0.043 -0.5972 -1.8045  1.9662
  921MOL0     H27076   2.886   7.137  -0.007  0.5125  1.6884  1.5158
  921MOL0     H27077   2.862   7.112  -0.175 -0.7389 -0.9984  0.7395
  921MOL0     H27078   3.587   7.936  -0.190 -0.1942  1.1438 -0.5098
  921MOL0     H27079   3.792   8.066  -0.175 -1.0596  0.4724 -0.5458
  921MOL0     H27080   4.154   8.232  -0.190  3.0201  0.2151  1.7315
  921MOL0     H27081   4.264   8.428  -0.220  0.9931 -2.0355  2.1345
  921MOL0     H27082   5.496   7.786   0.268  0.6080 -4.7057 -2.4014
  921MOL0     H27083   5.290   7.611   0.325  0.8225 -0.4300 -0.8419
  921MOL0     H27084   4.780   7.679   0.536 -0.6558  0.3299 -0.0014
  921MOL0     H27085   4.644   7.498   0.624  4.5261  1.5411  1.6062
  921MOL0     H27086   4.512   7.263   0.293 -0.7041  0.9379  0.5383
  921MOL0     H27087   4.506   7.114   0.377  0.0715 -0.6530 -1.1697
  921MOL0     H27088   4.328   7.358   0.419  3.0401  0.5660  0.7170
  921MOL0     H27089   4.294   7.200   0.503  1.0679 -0.1148  0.0470
  921MOL0     H27090   4.240   7.303   0.242  0.0971  0.0888  0.5343
  921MOL0     H27091   4.305   7.135   0.242 -0.9526 -0.2341 -1.1930
  921MOL0     H27092   4.131   7.088   0.413  0.4259 -1.3274 -0.5715
  921MOL0     H27093   4.062   7.112   0.255 -0.8191  0.1652 -0.1639
  921MOL0     H27094   3.891   7.444   0.412  0.7957  0.7085 -0.6319
  921MOL0     H27095   4.744   7.265   0.272  2.9357  0.3603 -1.7672
  921MOL0     H27096   4.898   7.509   0.095  2.2534  1.7016  1.3741
  921MOL0     H27097   5.022   7.420   0.175  0.2712 -0.7912 -2.6647
  921MOL0     H27098   4.879   7.338   0.111  2.8654 -1.2155 -0.2579
  922MOL0     O27099   7.898  11.356   0.371  0.2395  0.5607 -0.4344
  922MOL0     C27100   7.958  11.451   0.327 -0.5809  0.0009  0.3158
  922MOL0     O27101   8.035  11.540   0.401  0.4206 -0.1141  0.8038
  922MOL0     C27102   8.035  11.674   0.376  0.0069  0.7563 -0.0628
  922MOL0     C27103   8.160  11.728   0.357  0.5238 -0.2945 -0.2059
  922MOL0     C27104   8.171  11.863   0.329 -0.5124 -0.3051 -0.9734
  922MOL0     C27105   8.062  11.949   0.318  0.0662 -0.1457 -1.4271
  922MOL0     O27106   8.076  12.080   0.284  0.1532  0.0958  0.1019
  922MOL0     C27107   8.204  12.135   0.265  0.1620 -0.0862  0.0277
  922MOL0     C27108   8.208  12.280   0.216  0.3440 -1.1131 -0.1860
  922MOL0     C27109   8.363  12.315   0.219  0.7107 -0.1383 -0.0349
  922MOL0     C27110   8.393  12.440   0.299  0.2464  0.3419  0.2652
  922MOL0     C27111   8.544  12.438   0.328 -0.1908 -0.9661  0.0248
  922MOL0     C27112   8.583  12.555   0.407 -0.2624 -0.2800  0.3627
  922MOL0     C27113   8.736  12.552   0.429 -0.2554 -0.3570 -0.4097
  922MOL0     C27114   8.786  12.673   0.516  0.1150  0.2680 -0.0742
  922MOL0     N27115   8.751  12.800   0.462 -0.6000  0.1949  0.1029
  922MOL0     C27116   8.824  12.881   0.379 -0.0073 -0.1366  0.4287
  922MOL0     C27117   8.746  12.988   0.367 -0.0156 -1.1424  1.5191
  922MOL0     C27118   8.787  13.117   0.305 -0.6521 -0.4323  0.7343
  922MOL0     C27119   8.678  13.150   0.202  0.1677  0.7391  0.8099
  922MOL0     C27120   8.695  13.295   0.155  0.9433 -0.5945  0.1739
  922MOL0     C27121   8.806  13.304   0.049  0.0064  0.6681 -0.8430
  922MOL0     O27122   8.790  13.421  -0.027  0.3467  0.0452 -0.5544
  922MOL0     C27123   8.895  13.467  -0.095  1.0568 -0.1183 -0.1345
  922MOL0     C27124   9.026  13.416  -0.088 -0.5344  0.2444  0.6983
  922MOL0     C27125   9.129  13.451  -0.178 -0.1853  0.7148  0.0640
  922MOL0     C27126   9.254  13.377  -0.161  0.0454 -1.2825  0.5999
  922MOL0     C27127   9.108  13.540  -0.286  0.1508  0.3375 -1.7263
  922MOL0     C27128   9.204  13.588  -0.390  0.0641  0.8809  0.6457
  922MOL0     O27129   9.155  13.658  -0.496 -0.7105 -0.6834 -0.2335
  922MOL0     C27130   9.236  13.708  -0.595  0.7586  0.3278  0.1584
  922MOL0     C27131   9.153  13.756  -0.701 -0.4292  0.0898  0.0100
  922MOL0     C27132   9.218  13.802  -0.812  0.5043 -0.1670  0.6102
  922MOL0     C27133   9.356  13.823  -0.824  0.2093 -0.1349  0.2837
  922MOL0     O27134   9.416  13.890  -0.927 -0.2173 -0.1500 -0.0511
  922MOL0     C27135   9.353  13.884  -1.049  0.1985  0.5735 -0.7500
  922MOL0     C27136   9.448  13.942  -1.155 -0.0330  0.7891  1.0060
  922MOL0     C27137   9.438  13.883  -1.300 -0.5317 -0.0696  0.4759
  922MOL0     C27138   9.545  13.962  -1.373  0.2833  0.6924  0.4898
  922MOL0     C27139   9.607  13.877  -1.484 -0.5802 -0.3996  0.8831
  922MOL0     C27140   9.507  13.835  -1.592  0.1401 -0.8444  0.9157
  922MOL0     C27141   9.582  13.750  -1.698  0.2567 -0.2698 -0.2332
  922MOL0     C27142   9.618  13.607  -1.652 -0.0158 -0.2564 -0.7627
  922MOL0    Cl27143   9.697  13.507  -1.777  0.0330 -0.4515 -0.2099
  922MOL0     C27144   9.434  13.781  -0.718  0.6241  0.7645 -1.0185
  922MOL0     C27145   9.374  13.718  -0.603 -0.0542 -0.3327  1.0138
  922MOL0     O27146   9.315  13.551  -0.377  0.1588 -0.0301  0.9519
  922MOL0     C27147   8.974  13.591  -0.287 -0.2482  1.0398  0.4345
  922MOL0     C27148   8.872  13.556  -0.199 -0.0087  0.4619 -0.4307
  922MOL0     N27149   8.630  12.975   0.439  0.1062 -0.5132 -0.0031
  922MOL0     N27150   8.640  12.862   0.507  0.1574 -0.5495 -1.1098
  922MOL0     C27151   7.934  11.890   0.342  0.1227 -0.0239  0.5750
  922MOL0     C27152   7.922  11.753   0.366  0.5181 -0.2827 -0.4022
  922MOL0     C27153   7.968  11.459   0.180  0.0411 -0.5053  0.9865
  922MOL0     C27154   8.098  11.476   0.126  0.1147 -0.7906  0.2992
  922MOL0     C27155   8.125  11.459  -0.014  0.2859  0.4976 -0.2947
  922MOL0     C27156   8.021  11.453  -0.103  0.1650  0.3139 -0.3622
  922MOL0     O27157   8.048  11.473  -0.242 -0.0263 -0.2047 -0.3505
  922MOL0     C27158   7.935  11.528  -0.320 -1.2267 -0.1412 -1.0502
  922MOL0     C27159   7.969  11.557  -0.464 -0.4056 -0.5691  0.0176
  922MOL0     C27160   7.970  11.424  -0.545  1.2579  0.1668 -0.6093
  922MOL0     C27161   8.020  11.445  -0.690 -0.0116 -0.0892 -0.3615
  922MOL0     C27162   8.016  11.316  -0.750 -0.1212 -0.9388  0.8049
  922MOL0     C27163   8.015  11.208  -0.795  0.0519 -0.1005 -0.4423
  922MOL0     C27164   7.899  11.453  -0.042  0.3587 -0.3108  0.9998
  922MOL0     C27165   7.866  11.442   0.090 -0.2293 -0.0843  0.1275
  922MOL0     C27166   7.724  11.431   0.138  0.1923 -0.7576  0.1187
  922MOL0     H27167   8.244  11.663   0.382 -1.8963 -3.5409  0.0582
  922MOL0     H27168   8.268  11.911   0.342 -0.6574 -0.8547  3.1930
  922MOL0     H27169   8.257  12.070   0.195  0.6983  0.8556 -0.4599
  922MOL0     H27170   8.250  12.134   0.364  1.8640 -1.7135 -0.7268
  922MOL0     H27171   8.169  12.287   0.115 -0.4335 -1.4437  0.0848
  922MOL0     H27172   8.151  12.354   0.272  1.2873 -2.2314  2.4650
  922MOL0     H27173   8.416  12.230   0.262 -0.0798 -0.7503 -0.2310
  922MOL0     H27174   8.387  12.325   0.113 -0.7319  1.0080 -0.2940
  922MOL0     H27175   8.362  12.531   0.247  0.0772 -1.0705 -2.2714
  922MOL0     H27176   8.335  12.435   0.391 -2.2502 -0.7822 -1.2562
  922MOL0     H27177   8.595  12.438   0.231 -1.0265 -3.6515 -0.4961
  922MOL0     H27178   8.568  12.347   0.384  1.7493  0.0939  0.9910
  922MOL0     H27179   8.558  12.651   0.359  0.0071  1.7060  3.8838
  922MOL0     H27180   8.536  12.549   0.505  0.9894  1.8126  1.1526
  922MOL0     H27181   8.789  12.554   0.334 -1.6868  1.0766 -1.2160
  922MOL0     H27182   8.764  12.456   0.474 -0.4160 -0.1447  0.1478
  922MOL0     H27183   8.749  12.654   0.617  0.1503 -0.3292 -0.1715
  922MOL0     H27184   8.896  12.674   0.517  0.1109  0.3592  0.2520
  922MOL0     H27185   8.927  12.878   0.347  0.1065  2.8628  0.2008
  922MOL0     H27186   8.883  13.106   0.255 -1.9049 -5.1102 -1.2109
  922MOL0     H27187   8.789  13.186   0.390 -2.9110 -0.4491  0.8644
  922MOL0     H27188   8.681  13.081   0.118  4.4475 -0.6751  1.8406
  922MOL0     H27189   8.583  13.127   0.251  0.7156  1.2012  2.1536
  922MOL0     H27190   8.600  13.320   0.106  1.7114 -0.8370 -1.5213
  922MOL0     H27191   8.711  13.370   0.232  0.0008  0.4154 -0.5730
  922MOL0     H27192   8.897  13.293   0.108 -0.7337  1.9038  0.6094
  922MOL0     H27193   8.807  13.222  -0.023  5.1998 -2.1332  1.8530
  922MOL0     H27194   9.052  13.363   0.003 -0.0679  3.1676  2.3833
  922MOL0     H27195   9.296  13.335  -0.253  3.0319  0.7405  0.8985
  922MOL0     H27196   9.243  13.299  -0.085  0.5156  0.1795  2.2428
  922MOL0     H27197   9.336  13.443  -0.131 -0.2108 -0.4420 -0.5029
  922MOL0     H27198   9.047  13.742  -0.686 -0.7095  3.5453  2.4063
  922MOL0     H27199   9.153  13.822  -0.897 -0.8652  0.7168  1.8151
  922MOL0     H27200   9.335  13.777  -1.065  1.5228  0.2384 -0.1059
  922MOL0     H27201   9.261  13.944  -1.054  0.7722  1.3932 -2.3875
  922MOL0     H27202   9.420  14.046  -1.176 -0.9036 -0.0288 -2.6660
  922MOL0     H27203   9.552  13.928  -1.122 -0.2728  2.7865  2.8623
  922MOL0     H27204   9.342  13.899  -1.349  0.0374  1.6146 -0.1223
  922MOL0     H27205   9.448  13.774  -1.306 -3.6695 -0.3817 -1.0478
  922MOL0     H27206   9.619  14.008  -1.307  0.3886  0.8354  0.2732
  922MOL0     H27207   9.488  14.045  -1.415  0.2900  0.2913 -0.3373
  922MOL0     H27208   9.682  13.941  -1.531 -0.2087 -1.8780 -0.6313
  922MOL0     H27209   9.657  13.792  -1.437  1.0592  0.5326  0.9048
  922MOL0     H27210   9.475  13.934  -1.625 -0.9195 -2.2536 -2.8160
  922MOL0     H27211   9.421  13.786  -1.548  2.0120 -1.4856  4.1531
  922MOL0     H27212   9.672  13.802  -1.734  2.4596  1.0272  5.8952
  922MOL0     H27213   9.508  13.732  -1.776 -2.4010 -1.6441  2.4077
  922MOL0     H27214   9.529  13.558  -1.611 -0.3538  0.4927 -0.5866
  922MOL0     H27215   9.689  13.614  -1.569 -2.7463 -0.1243  1.7479
  922MOL0     H27216   9.542  13.769  -0.716  0.4422 -2.5725 -2.9378
  922MOL0     H27217   9.448  13.671  -0.539  0.9684 -1.2210 -0.7388
  922MOL0     H27218   8.943  13.661  -0.364  0.8163  1.5509  0.4519
  922MOL0     H27219   8.775  13.597  -0.223 -2.1241 -2.3222  2.4911
  922MOL0     H27220   7.844  11.950   0.342 -0.2553 -0.5890  0.5215
  922MOL0     H27221   7.828  11.701   0.383  1.0888 -1.4174 -0.6416
  922MOL0     H27222   8.187  11.479   0.188  0.7197  4.0790 -0.4386
  922MOL0     H27223   8.226  11.471  -0.052  1.2103  1.4675  2.2737
  922MOL0     H27224   7.852  11.456  -0.331  0.0581 -2.2833  1.8315
  922MOL0     H27225   7.902  11.619  -0.269  0.8756  0.4140 -0.5960
  922MOL0     H27226   8.065  11.607  -0.478 -1.5461  1.9754  0.7400
  922MOL0     H27227   7.890  11.626  -0.495  1.3212  1.3469 -0.3279
  922MOL0     H27228   8.035  11.348  -0.502 -1.4489 -1.8906  0.1533
  922MOL0     H27229   7.869  11.381  -0.541  1.3594 -0.1550  4.6298
  922MOL0     H27230   8.113  11.503  -0.698  0.9304 -1.1551  2.1167
  922MOL0     H27231   7.940  11.491  -0.749 -0.2936 -1.2120 -0.8714
  922MOL0     H27232   8.008  11.109  -0.835  1.9691 -0.3840 -0.1799
  922MOL0     H27233   7.810  11.459  -0.104  1.0585  1.0324  0.0606
  922MOL0     H27234   7.659  11.440   0.051 -1.0017 -1.3283  0.9241
  922MOL0     H27235   7.711  11.335   0.189  0.8822  0.1030  2.0010
  922MOL0     H27236   7.692  11.510   0.206 -0.4596  0.0656 -1.1135
  923MOL0     O27237  10.777   0.413   0.761 -0.6194 -0.1082 -0.0737
  923MOL0     C27238  10.727   0.315   0.809  0.5859  0.3754  0.3126
  923MOL0     O27239  10.741   0.187   0.771 -0.1005 -0.9160  0.1289
  923MOL0     C27240  10.832   0.155   0.679  0.3365  0.1808 -0.1429
  923MOL0     C27241  10.951   0.229   0.645 -0.8723 -0.7483 -0.4384
  923MOL0     C27242  11.041   0.184   0.547 -0.0769 -0.0988 -0.4815
  923MOL0     C27243  11.019   0.060   0.488 -0.9962  0.2358  0.2634
  923MOL0     O27244  11.094  -0.009   0.395 -0.2920 -0.3908  0.0009
  923MOL0     C27245  11.163   0.077   0.297 -1.1467 -0.1151 -0.4533
  923MOL0     C27246  11.094   0.049   0.155 -0.0514 -0.5144  0.0209
  923MOL0     C27247  11.136   0.163   0.063 -0.0312  0.7167 -1.3176
  923MOL0     C27248  11.099   0.119  -0.076  0.4792 -0.3677  0.0853
  923MOL0     C27249  11.089   0.229  -0.175 -0.4095  0.6379 -0.4838
  923MOL0     C27250  11.224   0.306  -0.196  0.5139 -0.1503 -0.1884
  923MOL0     C27251  11.229   0.399  -0.328 -0.0675  1.3355 -0.2753
  923MOL0     C27252  11.321   0.512  -0.308 -0.6349  0.4157 -1.2540
  923MOL0     N27253  11.356   0.598  -0.422 -0.2723  0.3492  0.2116
  923MOL0     C27254  11.393   0.551  -0.548 -0.0742  0.0561  1.1099
  923MOL0     C27255  11.385   0.666  -0.623  0.3402  0.3476  0.3721
  923MOL0     C27256  11.391   0.671  -0.776 -0.1441  0.6071 -0.8608
  923MOL0     C27257  11.519   0.725  -0.832  0.9047 -0.2936  0.3733
  923MOL0     C27258  11.643   0.677  -0.749 -0.5757  0.7157  0.0554
  923MOL0     C27259  11.778   0.704  -0.826  0.4426  0.0872 -0.7897
  923MOL0     O27260  11.878   0.699  -0.731 -0.0286  0.4817  0.5411
  923MOL0     C27261  12.001   0.734  -0.769 -0.2012 -0.1362 -0.6930
  923MOL0     C27262  12.067   0.822  -0.684 -0.5837  0.3461  0.4959
  923MOL0     C27263  12.197   0.859  -0.707  0.0587  0.1850 -1.0346
  923MOL0     C27264  12.253   0.963  -0.607  0.0777 -0.3005  1.2369
  923MOL0     C27265  12.269   0.800  -0.820 -0.4631 -0.4077 -0.1972
  923MOL0     C27266  12.412   0.824  -0.861 -0.0170  0.3414  0.2295
  923MOL0     O27267  12.485   0.863  -0.754  0.5868  0.3073 -0.8720
  923MOL0     C27268  12.620   0.866  -0.767 -0.6129  0.4280 -1.1245
  923MOL0     C27269  12.692   0.751  -0.736  0.0007  0.2623  0.4096
  923MOL0     C27270  12.835   0.754  -0.744 -0.1104 -0.2143  1.0692
  923MOL0     C27271  12.902   0.875  -0.780  0.5512  0.2437 -0.0736
  923MOL0     O27272  13.037   0.858  -0.806  0.5082  0.2770  1.4311
  923MOL0     C27273  13.095   0.917  -0.927 -0.4454  0.3356  0.2008
  923MOL0     C27274  13.206   0.820  -0.965 -0.4205 -1.0920 -0.5195
  923MOL0     C27275  13.268   0.860  -1.096 -0.5139  0.6912 -0.7019
  923MOL0     C27276  13.383   0.760  -1.137 -0.6914  0.0711 -0.1993
  923MOL0     C27277  13.482   0.829  -1.236 -1.1896  0.4358  0.0949
  923MOL0     C27278  13.633   0.790  -1.211 -0.8233 -0.8504 -0.5191
  923MOL0     C27279  13.673   0.637  -1.196  0.3607  0.1633 -0.0191
  923MOL0     C27280  13.602   0.545  -1.293  0.7602 -0.4726  0.4447
  923MOL0    Cl27281  13.648   0.587  -1.460 -0.3434  0.0328 -0.4960
  923MOL0     C27282  12.822   0.990  -0.813 -0.5367  0.8229 -0.4916
  923MOL0     C27283  12.691   0.985  -0.806  0.1463  0.6571  0.2448
  923MOL0     O27284  12.463   0.792  -0.970  0.7787  0.2039  0.1543
  923MOL0     C27285  12.206   0.700  -0.895  0.5027  0.3481  0.4583
  923MOL0     C27286  12.074   0.667  -0.866  0.1965  0.3110 -0.0327
  923MOL0     N27287  11.349   0.765  -0.543  0.3071 -0.3855 -0.0121
  923MOL0     N27288  11.318   0.725  -0.426  0.1409 -0.0594  0.3613
  923MOL0     C27289  10.904  -0.013   0.523 -0.7879  0.2350  0.6282
  923MOL0     C27290  10.812   0.039   0.611  0.4872  0.9957  0.5315
  923MOL0     C27291  10.630   0.337   0.923  0.8730 -0.4381 -1.1513
  923MOL0     C27292  10.569   0.223   0.979 -0.9258 -0.3730 -0.7673
  923MOL0     C27293  10.470   0.235   1.067 -0.2863 -0.2084 -0.4261
  923MOL0     C27294  10.418   0.361   1.117 -0.1708  0.1313 -0.2390
  923MOL0     O27295  10.311   0.364   1.200 -0.1188  0.0640  0.4143
  923MOL0     C27296  10.201   0.435   1.153  0.1798 -0.3747  0.1044
  923MOL0     C27297  10.094   0.339   1.100  0.2293 -0.5465  0.0372
  923MOL0     C27298  10.122   0.250   0.975 -0.2615  0.4370 -0.0877
  923MOL0     C27299   9.992   0.177   0.929  0.3942  0.6056  0.2579
  923MOL0     C27300   9.928   0.094   1.035 -0.3631 -0.3716  0.0407
  923MOL0     C27301   9.870   0.025   1.126 -0.2498 -0.6147 -0.1184
  923MOL0     C27302  10.480   0.467   1.064 -0.8043 -0.4380  0.8007
  923MOL0     C27303  10.580   0.464   0.968 -0.0694  1.0315  0.1223
  923MOL0     C27304  10.626   0.599   0.920 -0.2594 -1.5543  0.4578
  923MOL0     H27305  10.980   0.313   0.707  0.1858 -3.1905  2.6439
  923MOL0     H27306  11.120   0.258   0.534 -0.5735  0.8164  1.3168
  923MOL0     H27307  11.266   0.041   0.293 -1.8216 -2.1927 -0.4720
  923MOL0     H27308  11.158   0.183   0.321 -2.5310 -0.1910 -0.2971
  923MOL0     H27309  11.133  -0.045   0.116  1.3261 -0.8908  2.1069
  923MOL0     H27310  10.985   0.044   0.157 -0.0160 -1.4113  0.9300
  923MOL0     H27311  11.085   0.256   0.092  0.9196  0.8480  0.0149
  923MOL0     H27312  11.243   0.181   0.071  0.1798 -1.1484  1.1328
  923MOL0     H27313  11.158   0.039  -0.120 -0.7168 -1.0364 -0.3555
  923MOL0     H27314  11.005   0.065  -0.086  1.9457 -3.3246  1.0910
  923MOL0     H27315  11.011   0.300  -0.147 -0.3080  0.7843 -0.5689
  923MOL0     H27316  11.074   0.193  -0.277  2.2835 -0.8052 -0.4730
  923MOL0     H27317  11.261   0.363  -0.110 -1.4240  0.4152  0.3098
  923MOL0     H27318  11.300   0.229  -0.217  3.1941  1.9114  1.2272
  923MOL0     H27319  11.128   0.429  -0.358 -1.7104 -1.7221  1.5424
  923MOL0     H27320  11.256   0.332  -0.410 -1.8586 -1.3889  1.2004
  923MOL0     H27321  11.289   0.576  -0.226  1.3944  1.6442 -1.3494
  923MOL0     H27322  11.418   0.466  -0.285 -0.4230  0.4478 -2.0548
  923MOL0     H27323  11.432   0.458  -0.587  2.1430  1.3285  0.1204
  923MOL0     H27324  11.303   0.722  -0.816 -1.1489  1.1512  1.8345
  923MOL0     H27325  11.395   0.570  -0.817 -0.2881 -0.5031  1.6751
  923MOL0     H27326  11.523   0.692  -0.936 -1.7792 -1.6533  0.6125
  923MOL0     H27327  11.511   0.835  -0.833 -4.2405 -0.4443 -0.0921
  923MOL0     H27328  11.642   0.732  -0.655  0.4446  2.9430 -1.1544
  923MOL0     H27329  11.638   0.569  -0.737  0.1284  0.7600  0.8135
  923MOL0     H27330  11.780   0.621  -0.898 -4.5610 -2.5131  1.5280
  923MOL0     H27331  11.783   0.798  -0.882  3.6605 -0.2068 -1.1718
  923MOL0     H27332  12.012   0.877  -0.608 -2.4899 -0.0699 -0.5243
  923MOL0     H27333  12.166   1.009  -0.559  0.3417  1.7431 -0.1122
  923MOL0     H27334  12.311   1.041  -0.657  0.0809 -0.3449  1.1725
  923MOL0     H27335  12.322   0.916  -0.535  1.1988 -1.3405 -0.4410
  923MOL0     H27336  12.634   0.659  -0.730 -0.8939  0.7675 -0.2634
  923MOL0     H27337  12.888   0.659  -0.737 -0.9039 -0.8743 -0.8993
  923MOL0     H27338  13.024   0.922  -1.011  1.5751  0.0919 -1.6168
  923MOL0     H27339  13.130   1.020  -0.913 -0.5130  0.6451 -1.6626
  923MOL0     H27340  13.275   0.829  -0.881 -0.8360  0.7828 -0.3392
  923MOL0     H27341  13.166   0.719  -0.975  0.2551 -1.5415  1.0985
  923MOL0     H27342  13.318   0.957  -1.089  1.7742 -0.3223 -1.7515
  923MOL0     H27343  13.196   0.855  -1.178 -0.1439  1.0097 -1.0564
  923MOL0     H27344  13.332   0.671  -1.175 -3.0042  0.5464  1.5312
  923MOL0     H27345  13.439   0.735  -1.047 -0.8341  3.1083  0.8624
  923MOL0     H27346  13.463   0.795  -1.338  2.7034  3.4465 -1.9494
  923MOL0     H27347  13.475   0.939  -1.234  2.0938  0.7402  1.7168
  923MOL0     H27348  13.687   0.838  -1.130 -1.8854 -2.1380  1.0112
  923MOL0     H27349  13.695   0.821  -1.296  0.4849 -2.1727 -0.1044
  923MOL0     H27350  13.641   0.605  -1.097  2.3817  1.7933  1.2462
  923MOL0     H27351  13.782   0.625  -1.206  0.2929 -0.8930  0.3878
  923MOL0     H27352  13.497   0.572  -1.278 -0.2062 -0.8186 -4.0789
  923MOL0     H27353  13.608   0.438  -1.275  0.3266 -0.9162 -1.7328
  923MOL0     H27354  12.869   1.084  -0.840  0.4357  0.5281  0.1049
  923MOL0     H27355  12.635   1.071  -0.842 -1.8541 -0.8208 -0.3500
  923MOL0     H27356  12.245   0.648  -0.981  1.9106 -1.0082  1.8411
  923MOL0     H27357  12.020   0.592  -0.922 -0.8543 -1.0079  2.5509
  923MOL0     H27358  10.894  -0.110   0.475  2.4602  1.2337 -2.5244
  923MOL0     H27359  10.727  -0.021   0.642  0.8749 -0.0819 -0.4379
  923MOL0     H27360  10.611   0.124   0.965 -2.5014 -1.1408 -0.2772
  923MOL0     H27361  10.426   0.143   1.103 -1.3744  0.7967  0.9057
  923MOL0     H27362  10.157   0.489   1.237  1.8092 -0.5454  1.1054
  923MOL0     H27363  10.225   0.497   1.066 -1.1521 -0.2920 -0.2336
  923MOL0     H27364  10.008   0.400   1.070  1.2926 -0.3326 -2.9579
  923MOL0     H27365  10.065   0.267   1.177  0.0143 -1.5247 -0.9285
  923MOL0     H27366  10.152   0.314   0.891 -1.6978  0.1772 -0.8275
  923MOL0     H27367  10.188   0.168   1.005  0.0390  1.8026  3.4252
  923MOL0     H27368  10.017   0.116   0.841  1.4272  0.5828  0.5612
  923MOL0     H27369   9.925   0.252   0.886  0.3467 -0.2784 -1.3155
  923MOL0     H27370   9.835  -0.051   1.193  0.7120 -0.1714  0.9242
  923MOL0     H27371  10.436   0.561   1.098  1.3290  0.7521  0.4358
  923MOL0     H27372  10.666   0.606   0.818 -2.3810 -0.4181 -0.3648
  923MOL0     H27373  10.544   0.670   0.912  1.4039  0.5316  1.0444
  923MOL0     H27374  10.709   0.629   0.985  2.9893 -4.1636 -2.0624
  924MOL0     O27375   5.562  10.349   9.894  0.2141  0.0221  0.2252
  924MOL0     C27376   5.569  10.427   9.804  0.1667 -0.2758  0.5064
  924MOL0     O27377   5.676  10.499   9.770 -0.1809 -0.0231 -0.2818
  924MOL0     C27378   5.801  10.474   9.827 -0.1206 -0.0136 -0.2492
  924MOL0     C27379   5.860  10.341   9.842 -0.1188  0.0159  0.0940
  924MOL0     C27380   5.993  10.324   9.885 -0.5298 -1.0225  0.1213
  924MOL0     C27381   6.064  10.440   9.915  0.6664 -0.1904  0.5826
  924MOL0     O27382   6.194  10.425   9.943 -0.7586 -0.6299  0.2919
  924MOL0     C27383   6.273  10.440   9.827 -0.1164  0.5830  0.6604
  924MOL0     C27384   6.399  10.357   9.820  0.4327  0.3904 -0.3766
  924MOL0     C27385   6.509  10.404   9.910 -0.4913 -0.0681  0.5931
  924MOL0     C27386   6.607  10.289   9.937  0.0332  0.2247  0.0648
  924MOL0     C27387   6.730  10.340  10.019  0.3475 -0.4475  1.2706
  924MOL0     C27388   6.825  10.225  10.054  0.9260 -0.1680 -0.2856
  924MOL0     C27389   6.897  10.161   9.944 -1.1773  0.1342  0.4203
  924MOL0     C27390   6.984  10.261   9.857  0.3257  0.3791 -0.3368
  924MOL0     N27391   7.078  10.345   9.924 -0.8744  0.4324 -0.3246
  924MOL0     C27392   7.185  10.307  10.005 -0.4945  0.0400  0.1634
  924MOL0     C27393   7.241  10.421  10.045 -0.7076  0.3020 -0.3056
  924MOL0     C27394   7.366  10.434  10.132 -0.3236  0.4345  0.4187
  924MOL0     C27395   7.419  10.578  10.144 -0.1576  0.0367 -0.8039
  924MOL0     C27396   7.488  10.643  10.019  0.3338  0.0954  0.8450
  924MOL0     C27397   7.583  10.547   9.941 -0.6943 -0.6338 -0.4783
  924MOL0     O27398   7.618  10.615   9.819  0.1634 -0.3188  0.3524
  924MOL0     C27399   7.712  10.551   9.741  0.1008 -0.2222 -0.1759
  924MOL0     C27400   7.711  10.412   9.711  0.3597 -0.3865  0.8537
  924MOL0     C27401   7.816  10.353   9.627  0.0717 -0.0448 -0.2611
  924MOL0     C27402   7.823  10.204   9.621 -1.0363  0.4667 -0.1174
  924MOL0     C27403   7.910  10.437   9.567 -0.3292 -0.3404  0.2125
  924MOL0     C27404   8.031  10.404   9.492 -0.3736  0.3771  0.2939
  924MOL0     O27405   8.082  10.509   9.425 -0.1925 -0.2023  0.5518
  924MOL0     C27406   8.190  10.490   9.342 -0.1332  1.2361  0.0847
  924MOL0     C27407   8.294  10.579   9.343 -0.7307 -0.2936 -0.2144
  924MOL0     C27408   8.407  10.577   9.257 -0.1362 -0.2013 -0.3508
  924MOL0     C27409   8.413  10.480   9.152  0.2789  0.3276 -0.1568
  924MOL0     O27410   8.524  10.491   9.063  0.2910  0.0197  0.5915
  924MOL0     C27411   8.538  10.386   8.964  0.0387  0.1180  0.6765
  924MOL0     C27412   8.486  10.436   8.829 -0.5337  0.3933  0.0278
  924MOL0     C27413   8.530  10.345   8.704 -0.4753  0.4616 -0.0712
  924MOL0     C27414   8.676  10.373   8.652 -0.1103 -0.1203 -0.2805
  924MOL0     C27415   8.685  10.376   8.499  0.4204 -0.4456 -0.2731
  924MOL0     C27416   8.640  10.252   8.420 -0.5492  0.1805 -0.5086
  924MOL0     C27417   8.666  10.247   8.269 -0.5667  1.2178 -0.2953
  924MOL0     C27418   8.629  10.109   8.205 -0.3967 -0.6124 -0.1203
  924MOL0    Cl27419   8.457  10.080   8.232 -0.2319  0.4091  0.1566
  924MOL0     C27420   8.306  10.386   9.141  0.1475 -0.3925 -0.7166
  924MOL0     C27421   8.204  10.389   9.240  0.3369 -0.2432  0.6065
  924MOL0     O27422   8.075  10.289   9.481 -0.1046  0.3650 -0.5400
  924MOL0     C27423   7.896  10.580   9.602 -0.4220  0.1180 -0.5599
  924MOL0     C27424   7.801  10.636   9.685 -0.2051 -1.2672  0.5001
  924MOL0     N27425   7.171  10.529   9.999  0.2361  0.6121  0.3644
  924MOL0     N27426   7.071  10.480   9.925  0.2768 -0.0843  0.2537
  924MOL0     C27427   6.012  10.571   9.902  0.0139  0.2015 -1.5158
  924MOL0     C27428   5.878  10.589   9.855 -0.6431 -0.4313  0.0665
  924MOL0     C27429   5.437  10.464   9.737  0.2072  0.0924 -0.2041
  924MOL0     C27430   5.438  10.595   9.670  0.6494  0.0527 -0.1826
  924MOL0     C27431   5.310  10.635   9.609  0.0115  0.0337 -0.4199
  924MOL0     C27432   5.197  10.554   9.617  0.2388 -0.0718 -0.4979
  924MOL0     O27433   5.064  10.581   9.564  0.3651 -0.1118  0.3139
  924MOL0     C27434   5.042  10.718   9.521 -0.3627 -0.2256  0.3011
  924MOL0     C27435   5.091  10.737   9.375 -0.2470  0.2218  0.0944
  924MOL0     C27436   5.053  10.626   9.280 -0.3519  0.1797  0.0674
  924MOL0     C27437   4.902  10.610   9.256  0.0563  0.3155  0.8738
  924MOL0     C27438   4.848  10.707   9.158  0.4582 -0.4900 -0.2768
  924MOL0     C27439   4.791  10.777   9.086  0.0517  1.0142 -0.5229
  924MOL0     C27440   5.202  10.428   9.676 -0.4630  0.7681  0.0559
  924MOL0     C27441   5.319  10.384   9.740 -0.1892 -0.3586 -0.2664
  924MOL0     C27442   5.317  10.242   9.789  0.6189 -0.2136  0.0884
  924MOL0     H27443   5.798  10.254   9.822 -0.4961  0.6509 -1.6832
  924MOL0     H27444   6.033  10.224   9.900 -2.3182 -1.4552  2.8652
  924MOL0     H27445   6.309  10.542   9.809 -2.2004  1.4117  0.9317
  924MOL0     H27446   6.222  10.413   9.734  3.1624 -1.5871 -0.7340
  924MOL0     H27447   6.379  10.251   9.836  0.4209  0.6998  2.0678
  924MOL0     H27448   6.440  10.360   9.718  0.8946 -4.4292 -0.5628
  924MOL0     H27449   6.571  10.478   9.857  0.3867 -1.2385 -0.0590
  924MOL0     H27450   6.478  10.457  10.001 -3.1217 -2.3636  1.1864
  924MOL0     H27451   6.554  10.208   9.987 -1.0523  1.3684  0.8279
  924MOL0     H27452   6.632  10.251   9.837  0.2475 -0.3695  0.3467
  924MOL0     H27453   6.711  10.401  10.108 -1.9098 -0.1583  0.6424
  924MOL0     H27454   6.785  10.404   9.948  1.6907  1.1442  3.6046
  924MOL0     H27455   6.898  10.276  10.119 -0.2211 -1.3680  2.0645
  924MOL0     H27456   6.771  10.151  10.113  1.0048 -0.1367 -0.1710
  924MOL0     H27457   6.819  10.108   9.888 -1.9656  0.0679  1.5498
  924MOL0     H27458   6.968  10.084   9.974  1.8554  0.3693 -4.9035
  924MOL0     H27459   7.030  10.190   9.788 -1.4880 -1.5666  0.3395
  924MOL0     H27460   6.927  10.326   9.789 -0.4156 -1.5246 -1.6027
  924MOL0     H27461   7.216  10.206  10.029 -0.6645  0.0856  0.5760
  924MOL0     H27462   7.438  10.365  10.086 -1.8964 -0.8787 -0.1678
  924MOL0     H27463   7.339  10.391  10.229  0.7361  1.0595  1.0103
  924MOL0     H27464   7.337  10.643  10.178  0.7775  0.0817  1.5822
  924MOL0     H27465   7.493  10.578  10.225 -0.1738 -0.0475 -0.7896
  924MOL0     H27466   7.417  10.671   9.942  2.1309  0.8789 -0.6011
  924MOL0     H27467   7.535  10.740  10.037  1.0802 -0.0635 -0.1846
  924MOL0     H27468   7.666  10.519  10.006  1.2836  1.2232 -2.0774
  924MOL0     H27469   7.519  10.461   9.916  0.3142 -0.7721 -2.8359
  924MOL0     H27470   7.629  10.361   9.761 -2.5539  1.8674 -1.2486
  924MOL0     H27471   7.902  10.171   9.690  0.7742  0.8151 -1.9243
  924MOL0     H27472   7.860  10.159   9.529 -2.1359 -0.9946  0.1121
  924MOL0     H27473   7.729  10.153   9.643 -0.6465 -0.8539 -1.3093
  924MOL0     H27474   8.297  10.664   9.410 -0.2425  0.4992 -1.2115
  924MOL0     H27475   8.486  10.650   9.267  1.1803 -1.3700 -1.7038
  924MOL0     H27476   8.645  10.369   8.956 -0.0032 -1.0081  2.0274
  924MOL0     H27477   8.507  10.287   8.998  2.9021 -0.9197  0.5459
  924MOL0     H27478   8.377  10.441   8.837 -0.5099 -0.2910  0.8811
  924MOL0     H27479   8.515  10.539   8.805  0.7881  0.0110 -0.0905
  924MOL0     H27480   8.452  10.371   8.632 -1.9723  1.6558  1.8606
  924MOL0     H27481   8.518  10.238   8.726 -0.6412  0.2143 -1.3222
  924MOL0     H27482   8.744  10.298   8.695  0.1093 -0.2871 -0.9085
  924MOL0     H27483   8.711  10.470   8.690  1.1663 -0.8395  0.4791
  924MOL0     H27484   8.631  10.461   8.455 -0.3870 -0.5512  0.4740
  924MOL0     H27485   8.788  10.394   8.468  0.1246  0.4522 -0.7750
  924MOL0     H27486   8.533  10.243   8.441  0.1313  1.0513  4.3008
  924MOL0     H27487   8.697  10.167   8.458  1.5982  0.5433 -2.6304
  924MOL0     H27488   8.771  10.257   8.238 -0.6925  0.4793 -0.9992
  924MOL0     H27489   8.605  10.328   8.228 -0.6022  1.0904 -0.4972
  924MOL0     H27490   8.681  10.025   8.251  0.2809 -0.3453 -0.3806
  924MOL0     H27491   8.644  10.105   8.096 -1.7767 -3.2381 -0.2777
  924MOL0     H27492   8.295  10.299   9.077 -1.7440 -1.2447  0.6341
  924MOL0     H27493   8.119  10.325   9.216 -0.3434  1.5739 -2.5833
  924MOL0     H27494   7.967  10.653   9.563 -0.0713 -1.5163 -3.1464
  924MOL0     H27495   7.811  10.742   9.705 -0.5134 -1.4406  1.6149
  924MOL0     H27496   6.051  10.668   9.933  1.1299 -0.7335  0.1559
  924MOL0     H27497   5.837  10.690   9.856 -1.5990 -0.8003  1.4603
  924MOL0     H27498   5.518  10.667   9.670 -0.4335  1.4208 -2.9465
  924MOL0     H27499   5.291  10.725   9.552  1.8960 -0.2900 -1.6255
  924MOL0     H27500   4.936  10.746   9.528 -0.2746 -0.0682  1.0643
  924MOL0     H27501   5.099  10.787   9.583  0.5380  0.3614 -1.1403
  924MOL0     H27502   5.197  10.754   9.356 -0.1840 -1.3200 -1.0922
  924MOL0     H27503   5.053  10.834   9.339 -0.8725  0.7941  2.1322
  924MOL0     H27504   5.085  10.667   9.184 -1.6489  2.8232  0.6598
  924MOL0     H27505   5.101  10.530   9.299  1.7918  1.6224  2.5970
  924MOL0     H27506   4.840  10.622   9.345 -0.5407  1.7406  0.2959
  924MOL0     H27507   4.888  10.507   9.222 -0.5818  0.4675  0.6647
  924MOL0     H27508   4.738  10.837   9.015 -0.7931  1.2383  0.2849
  924MOL0     H27509   5.112  10.367   9.681 -0.1085  0.1650 -0.6530
  924MOL0     H27510   5.365  10.176   9.716 -4.0602 -0.5313 -3.1212
  924MOL0     H27511   5.344  10.243   9.895 -0.7552 -0.6381  0.4675
  924MOL0     H27512   5.213  10.212   9.774  0.4711  0.8701 -1.2483
  925MOL0     O27513  10.010   6.135  10.819 -0.2059  0.0689  0.3517
  925MOL0     C27514   9.954   6.031  10.818 -0.6177  0.3618 -0.9992
  925MOL0     O27515  10.015   5.901  10.823  0.0157 -0.3468 -0.1061
  925MOL0     C27516  10.145   5.902  10.790  0.1291  0.0144 -0.1836
  925MOL0     C27517  10.254   5.890  10.880 -0.5955  0.9817 -0.5209
  925MOL0     C27518  10.387   5.880  10.845  0.3625  0.1662 -0.5418
  925MOL0     C27519  10.423   5.880  10.708 -0.2696  0.2078  0.0594
  925MOL0     O27520  10.552   5.870  10.667  0.4600  0.1489  0.2401
  925MOL0     C27521  10.596   5.738  10.632  0.0496  0.7735 -0.1920
  925MOL0     C27522  10.688   5.669  10.729 -0.4343 -0.4361 -0.2333
  925MOL0     C27523  10.833   5.710  10.697 -0.0703 -0.4916 -0.6689
  925MOL0     C27524  10.927   5.640  10.800 -0.6393  0.4080  0.0884
  925MOL0     C27525  11.071   5.696  10.802  0.1014 -0.1574  0.0073
  925MOL0     C27526  11.154   5.638  10.915 -0.0178 -0.5554 -0.4574
  925MOL0     C27527  11.307   5.633  10.897 -0.0052  0.0695 -0.2231
  925MOL0     C27528  11.367   5.507  10.971 -0.4555  0.0503  0.6491
  925MOL0     N27529  11.331   5.509  11.116  0.1795  0.8062 -0.1905
  925MOL0     C27530  11.395   5.584  11.210  0.1749 -0.3877  0.2030
  925MOL0     C27531  11.372   5.530  11.333 -0.1664  0.4975  0.2125
  925MOL0     C27532  11.431   5.572  11.467  0.0620 -0.4035  0.2193
  925MOL0     C27533  11.571   5.520  11.474 -0.2239 -0.5718  0.3457
  925MOL0     C27534  11.637   5.561  11.601 -0.4316 -0.4517 -0.7253
  925MOL0     C27535  11.783   5.507  11.610  0.1759  0.1443  0.1716
  925MOL0     O27536  11.865   5.569  11.509 -0.2613  0.1663  0.0552
  925MOL0     C27537  12.001   5.544  11.507  0.8399  0.1714  0.1953
  925MOL0     C27538  12.072   5.469  11.602  0.6332 -0.8889 -0.1678
  925MOL0     C27539  12.209   5.468  11.600 -0.1063 -0.1700 -0.4902
  925MOL0     C27540  12.274   5.379  11.709 -0.3560  0.4516  0.6352
  925MOL0     C27541  12.280   5.544  11.504  0.0719 -0.3132  0.0039
  925MOL0     C27542  12.425   5.576  11.491 -0.1340  0.1252 -0.5779
  925MOL0     O27543  12.478   5.640  11.379 -0.0136  1.0239 -0.1139
  925MOL0     C27544  12.613   5.651  11.368  0.3462 -0.1392 -0.4534
  925MOL0     C27545  12.697   5.536  11.384  0.0460 -0.2091  0.6180
  925MOL0     C27546  12.841   5.553  11.378  1.2461 -0.2315 -0.0022
  925MOL0     C27547  12.892   5.682  11.355  0.2349  0.2516 -0.1096
  925MOL0     O27548  13.031   5.700  11.339  0.1196 -0.2495 -0.4115
  925MOL0     C27549  13.113   5.626  11.434 -0.5593 -0.2482  0.3978
  925MOL0     C27550  13.260   5.665  11.410 -0.1980 -1.0559 -0.9276
  925MOL0     C27551  13.288   5.779  11.502 -0.3877  0.4744 -1.0900
  925MOL0     C27552  13.424   5.834  11.484 -1.2103 -0.5109 -0.6215
  925MOL0     C27553  13.465   5.946  11.576 -0.5099 -0.1200 -0.5935
  925MOL0     C27554  13.612   6.003  11.539  0.3752  0.7070  0.1965
  925MOL0     C27555  13.602   6.156  11.553 -0.1727  0.1901 -0.8501
  925MOL0     C27556  13.727   6.229  11.504 -0.3622  0.2232 -0.2409
  925MOL0    Cl27557  13.867   6.204  11.616 -0.1327 -0.0813  0.2865
  925MOL0     C27558  12.801   5.790  11.335 -0.1498  0.4635 -0.3076
  925MOL0     C27559  12.667   5.779  11.333  0.3948  0.2816 -0.4657
  925MOL0     O27560  12.494   5.529  11.581 -0.0374 -0.8479 -0.1545
  925MOL0     C27561  12.202   5.615  11.407 -0.1274 -0.5889 -0.0795
  925MOL0     C27562  12.064   5.612  11.409  0.4661  0.4388 -0.2022
  925MOL0     N27563  11.306   5.413  11.308  0.3770 -0.5713  0.3937
  925MOL0     N27564  11.265   5.408  11.182 -0.0882  0.4986  0.1820
  925MOL0     C27565  10.315   5.906  10.617  0.6037  0.6751  0.3856
  925MOL0     C27566  10.182   5.911  10.653 -0.8255  0.6974  0.4821
  925MOL0     C27567   9.806   6.041  10.830  0.1031  0.6583 -0.5024
  925MOL0     C27568   9.738   5.936  10.898  0.0188  0.2950  0.6831
  925MOL0     C27569   9.601   5.943  10.909  0.7083  0.8193  0.1097
  925MOL0     C27570   9.527   6.047  10.854 -0.6602 -0.3138 -0.0970
  925MOL0     O27571   9.392   6.042  10.873  0.2519  0.0986 -0.2029
  925MOL0     C27572   9.315   6.133  10.791 -0.5078  0.1359  0.0863
  925MOL0     C27573   9.166   6.100  10.805 -0.3543 -0.7635 -0.6318
  925MOL0     C27574   9.060   6.199  10.781 -0.1119 -0.4504 -0.4190
  925MOL0     C27575   8.928   6.147  10.847  0.2659  0.1000  0.3076
  925MOL0     C27576   8.878   6.030  10.757 -0.3360  0.2760  0.5748
  925MOL0     C27577   8.836   5.929  10.696 -0.0575  0.2910 -1.0998
  925MOL0     C27578   9.593   6.148  10.776 -0.0956 -0.3738 -0.8643
  925MOL0     C27579   9.730   6.140  10.768  0.1385 -0.1253 -0.3211
  925MOL0     C27580   9.792   6.244  10.674  0.1835  0.3598  0.2719
  925MOL0     H27581  10.225   5.865  10.981  1.0742 -3.0119 -0.8596
  925MOL0     H27582  10.455   5.858  10.927 -0.6180  2.0616  0.8615
  925MOL0     H27583  10.650   5.741  10.538 -1.1375  2.5426 -0.8651
  925MOL0     H27584  10.505   5.679  10.617 -0.3822  0.9968  1.3786
  925MOL0     H27585  10.666   5.705  10.829 -2.1841 -0.8483 -0.4324
  925MOL0     H27586  10.674   5.560  10.723  3.9323 -1.1945 -0.4044
  925MOL0     H27587  10.866   5.692  10.595  1.3373 -1.6540 -0.0540
  925MOL0     H27588  10.835   5.814  10.731 -0.2223 -1.0719  1.2597
  925MOL0     H27589  10.885   5.643  10.901 -0.7388  0.9591  0.0359
  925MOL0     H27590  10.936   5.533  10.778  0.7518  0.1077  1.9151
  925MOL0     H27591  11.063   5.803  10.828  0.4250 -0.2260  0.4056
  925MOL0     H27592  11.107   5.676  10.701 -2.4168  0.6262 -1.1070
  925MOL0     H27593  11.125   5.677  11.013  1.4125 -0.1418 -0.1672
  925MOL0     H27594  11.128   5.532  10.924 -1.3052 -0.2529 -0.4834
  925MOL0     H27595  11.343   5.730  10.932  0.8637 -0.3434  0.0659
  925MOL0     H27596  11.342   5.621  10.794  0.0675 -0.3194 -0.1533
  925MOL0     H27597  11.332   5.418  10.918 -0.5864  0.7490 -0.4718
  925MOL0     H27598  11.475   5.503  10.955  0.0162 -2.1563  3.5528
  925MOL0     H27599  11.452   5.674  11.192 -2.6620  1.0099 -2.6967
  925MOL0     H27600  11.376   5.521  11.547 -1.1643 -1.9753 -1.5318
  925MOL0     H27601  11.446   5.680  11.473  1.8597 -0.6825  1.3622
  925MOL0     H27602  11.571   5.411  11.461  3.0073 -0.5705 -0.7135
  925MOL0     H27603  11.620   5.567  11.388 -1.0078 -1.9109 -0.8849
  925MOL0     H27604  11.631   5.669  11.611  3.4968 -0.1767  0.3601
  925MOL0     H27605  11.581   5.508  11.679  1.4106 -2.2594 -0.5519
  925MOL0     H27606  11.819   5.533  11.710  1.9122 -1.1750 -0.0668
  925MOL0     H27607  11.788   5.399  11.590 -0.0919 -0.3773  2.5878
  925MOL0     H27608  12.018   5.406  11.671 -0.8876 -1.6925 -2.0039
  925MOL0     H27609  12.200   5.313  11.753 -1.5652 -0.1531 -2.0960
  925MOL0     H27610  12.325   5.430  11.791  1.2658  0.1285 -0.1269
  925MOL0     H27611  12.346   5.306  11.670 -0.7896  0.8350 -0.9827
  925MOL0     H27612  12.651   5.441  11.410 -0.6551  0.7575  3.2585
  925MOL0     H27613  12.892   5.459  11.398  1.3860  0.1683  1.7296
  925MOL0     H27614  13.080   5.629  11.538  0.1296  0.4905  0.6045
  925MOL0     H27615  13.102   5.524  11.397  2.4940 -0.9221  1.0444
  925MOL0     H27616  13.338   5.593  11.435 -0.7397 -1.2518  0.3044
  925MOL0     H27617  13.281   5.696  11.307 -2.8713 -1.9537 -1.8209
  925MOL0     H27618  13.274   5.735  11.601  1.8351 -1.4106 -1.5168
  925MOL0     H27619  13.212   5.853  11.476  1.6046  1.5516 -4.5002
  925MOL0     H27620  13.431   5.865  11.380 -0.4805 -0.1136 -0.4575
  925MOL0     H27621  13.507   5.762  11.491  2.1268  3.1601  1.8731
  925MOL0     H27622  13.385   6.021  11.578 -1.0621 -0.6924  2.0605
  925MOL0     H27623  13.471   5.896  11.673  2.4856  0.7190 -0.2404
  925MOL0     H27624  13.639   5.965  11.441 -0.6876  0.2593  0.0636
  925MOL0     H27625  13.683   5.972  11.616 -0.1134  0.7041  0.6549
  925MOL0     H27626  13.574   6.182  11.655 -2.6986 -1.7503 -0.9594
  925MOL0     H27627  13.525   6.199  11.488 -0.5109 -0.4382 -0.8695
  925MOL0     H27628  13.699   6.335  11.495 -0.7469  0.0481 -1.3781
  925MOL0     H27629  13.757   6.200  11.403  0.9828 -1.1118  0.5075
  925MOL0     H27630  12.839   5.889  11.310  0.9101  1.5495  4.6485
  925MOL0     H27631  12.589   5.852  11.311 -1.0930 -0.9237  0.5929
  925MOL0     H27632  12.234   5.677  11.325  0.8709 -0.3359  0.4888
  925MOL0     H27633  12.012   5.667  11.331  2.1630  1.7901 -0.4215
  925MOL0     H27634  10.350   5.905  10.514 -0.7370 -1.7078 -0.1333
  925MOL0     H27635  10.108   5.913  10.574 -0.8095 -0.7089  0.4080
  925MOL0     H27636   9.782   5.851  10.949  0.2952 -1.2180 -1.9094
  925MOL0     H27637   9.535   5.867  10.949 -0.6654  0.9061 -1.8273
  925MOL0     H27638   9.335   6.235  10.823  1.0343  0.8326 -2.8106
  925MOL0     H27639   9.346   6.122  10.687  2.2406 -1.6439  0.9857
  925MOL0     H27640   9.153   6.064  10.908  1.0698 -1.7683 -0.7835
  925MOL0     H27641   9.156   6.012  10.740  0.6284 -1.8601  0.6371
  925MOL0     H27642   9.094   6.291  10.829 -2.6756 -1.0190  2.7655
  925MOL0     H27643   9.047   6.211  10.673  2.3881  1.2658 -0.6180
  925MOL0     H27644   8.859   6.232  10.842  1.9282  1.4652 -0.6518
  925MOL0     H27645   8.944   6.119  10.951 -0.3942  0.8892  0.6316
  925MOL0     H27646   8.803   5.840  10.647 -1.1319  0.4654 -0.7100
  925MOL0     H27647   9.534   6.226  10.729 -0.8817 -1.1471 -1.1739
  925MOL0     H27648   9.871   6.307  10.714 -1.3790  2.7182 -0.1754
  925MOL0     H27649   9.822   6.188  10.584 -2.2891  2.2322 -1.8656
  925MOL0     H27650   9.715   6.308  10.631 -1.4747  0.2024  2.8387
  926MOL0     O27651   3.411   5.889   0.078  0.2329  0.0770 -0.5112
  926MOL0     C27652   3.399   5.884  -0.041 -0.6238  0.3079  0.1520
  926MOL0     O27653   3.478   5.956  -0.134 -0.0440  0.0784 -0.7798
  926MOL0     C27654   3.586   6.031  -0.078  0.2844  0.0950  0.1410
  926MOL0     C27655   3.563   6.160  -0.027  0.0359  0.3848 -0.3458
  926MOL0     C27656   3.666   6.242   0.019 -0.1731 -0.5191  0.2599
  926MOL0     C27657   3.797   6.191   0.019  0.2903 -0.3010 -0.7674
  926MOL0     O27658   3.896   6.284   0.050  0.7520  0.1907  0.2354
  926MOL0     C27659   4.024   6.240   0.091  0.6575 -0.0049 -0.2108
  926MOL0     C27660   4.121   6.344   0.123 -1.7873  0.6561  0.3965
  926MOL0     C27661   4.253   6.270   0.142  0.0127 -0.5490  0.0751
  926MOL0     C27662   4.373   6.370   0.158  0.3926 -0.4908  0.6931
  926MOL0     C27663   4.511   6.301   0.150 -0.0623  0.5342  0.1456
  926MOL0     C27664   4.615   6.403   0.192  0.4669  0.1345 -0.9758
  926MOL0     C27665   4.602   6.524   0.106 -0.6842 -0.4952  0.3773
  926MOL0     C27666   4.723   6.614   0.079 -0.0884 -0.4027 -0.4551
  926MOL0     N27667   4.834   6.544   0.009 -0.5606 -0.4592  0.2412
  926MOL0     C27668   4.942   6.471   0.061 -0.7348 -0.4460 -0.1472
  926MOL0     C27669   5.005   6.406  -0.036  0.1445  0.0385 -0.0494
  926MOL0     C27670   5.104   6.286  -0.030 -0.9927 -0.6722 -0.5453
  926MOL0     C27671   5.259   6.318  -0.014  0.0967  0.6972  0.8195
  926MOL0     C27672   5.310   6.410  -0.127 -0.4045 -0.0445 -0.4590
  926MOL0     C27673   5.397   6.527  -0.076  0.8806  0.5539  0.5002
  926MOL0     O27674   5.421   6.624  -0.183  0.9398  0.5711  0.1262
  926MOL0     C27675   5.501   6.733  -0.169 -0.5025 -0.7216 -0.8253
  926MOL0     C27676   5.575   6.767  -0.047  0.7583 -0.7884 -0.1932
  926MOL0     C27677   5.657   6.878  -0.041 -0.2872  0.7750  0.9017
  926MOL0     C27678   5.727   6.908   0.090 -0.5992  0.7189  1.6134
  926MOL0     C27679   5.686   6.949  -0.163  1.1059 -0.0967 -0.0297
  926MOL0     C27680   5.773   7.066  -0.173 -0.0278  0.9632 -0.6708
  926MOL0     O27681   5.899   7.068  -0.123  0.2025 -0.5373 -0.3935
  926MOL0     C27682   5.971   7.185  -0.101  0.3716  0.3712 -0.2932
  926MOL0     C27683   5.905   7.289  -0.034  0.2213  1.1244 -0.1091
  926MOL0     C27684   5.973   7.413  -0.013 -0.1421 -0.7335 -0.1421
  926MOL0     C27685   6.101   7.435  -0.070  0.1568 -0.2873 -0.6969
  926MOL0     O27686   6.171   7.553  -0.044 -1.1873 -0.0825  0.6535
  926MOL0     C27687   6.258   7.602  -0.148 -0.7114 -0.1842  0.6125
  926MOL0     C27688   6.322   7.738  -0.104  0.6155  0.2205 -0.1525
  926MOL0     C27689   6.376   7.734   0.047 -0.4317  0.0392 -0.3076
  926MOL0     C27690   6.401   7.872   0.102 -0.1063  0.2342 -0.5854
  926MOL0     C27691   6.468   7.872   0.239  0.1671  0.2894 -0.0176
  926MOL0     C27692   6.385   7.817   0.358  0.3189 -0.3239 -0.7316
  926MOL0     C27693   6.264   7.901   0.407 -0.5043 -0.5951  0.2570
  926MOL0     C27694   6.208   7.856   0.542  0.7447  0.1413 -0.0747
  926MOL0    Cl27695   6.332   7.864   0.676 -0.0866 -0.4563  0.3129
  926MOL0     C27696   6.159   7.325  -0.130 -0.9806 -0.1597 -0.4374
  926MOL0     C27697   6.105   7.196  -0.146  0.0706 -0.3944  0.2673
  926MOL0     O27698   5.706   7.161  -0.214  0.6878 -0.4721 -0.2929
  926MOL0     C27699   5.599   6.921  -0.275  0.1990 -0.1392 -0.3673
  926MOL0     C27700   5.510   6.817  -0.283 -0.2576  1.2310 -0.2808
  926MOL0     N27701   4.940   6.444  -0.151  0.6770 -0.2863 -0.5226
  926MOL0     N27702   4.839   6.517  -0.126 -0.4286  0.0745  0.0125
  926MOL0     C27703   3.816   6.062  -0.032  0.4853  0.0162  0.1200
  926MOL0     C27704   3.712   5.981  -0.078  0.4559 -0.6691  0.1073
  926MOL0     C27705   3.291   5.818  -0.099  1.8409 -0.5645  0.0693
  926MOL0     C27706   3.157   5.837  -0.055 -1.0172  0.1316 -0.3364
  926MOL0     C27707   3.054   5.775  -0.121  0.3884  1.1190 -0.1891
  926MOL0     C27708   3.076   5.681  -0.218  0.5335  1.0328 -0.8596
  926MOL0     O27709   2.968   5.627  -0.284 -0.5080 -0.9531 -0.2871
  926MOL0     C27710   2.971   5.620  -0.427  0.5825 -0.6949  0.2623
  926MOL0     C27711   2.830   5.636  -0.500 -0.2835  0.2267 -1.0251
  926MOL0     C27712   2.721   5.715  -0.421 -0.7721 -0.1414  0.6916
  926MOL0     C27713   2.596   5.691  -0.498  0.2084  0.2414  0.2535
  926MOL0     C27714   2.483   5.766  -0.437 -0.9328 -0.6160  1.4660
  926MOL0     C27715   2.391   5.831  -0.384  0.4554 -0.2887 -0.0001
  926MOL0     C27716   3.209   5.651  -0.259  0.0569  1.1984 -0.1296
  926MOL0     C27717   3.311   5.727  -0.205 -0.7801  0.6086 -0.3354
  926MOL0     C27718   3.446   5.690  -0.258 -0.4688 -0.5919  0.4646
  926MOL0     H27719   3.456   6.176  -0.027 -0.1795 -0.8451 -1.6793
  926MOL0     H27720   3.645   6.344   0.051 -1.7866 -0.2254 -1.5247
  926MOL0     H27721   4.071   6.174   0.017  1.5818 -0.2834  0.6043
  926MOL0     H27722   4.013   6.168   0.173 -0.0792 -1.2347 -1.3454
  926MOL0     H27723   4.143   6.414   0.042  0.1239  0.7582  0.9423
  926MOL0     H27724   4.107   6.414   0.206  0.4030 -0.2372  1.5839
  926MOL0     H27725   4.243   6.218   0.238  1.2553 -4.0766 -1.5257
  926MOL0     H27726   4.274   6.203   0.058  0.0574  0.7012 -0.9301
  926MOL0     H27727   4.363   6.449   0.084 -0.8106  0.5700  1.9402
  926MOL0     H27728   4.366   6.426   0.251  1.0676  1.5244 -0.4261
  926MOL0     H27729   4.532   6.259   0.051  0.9147 -2.4812  1.4984
  926MOL0     H27730   4.516   6.215   0.218 -0.6436 -0.0562 -0.5373
  926MOL0     H27731   4.596   6.422   0.298 -0.4919 -2.6022 -0.5834
  926MOL0     H27732   4.713   6.353   0.188  2.7889  3.9806  1.0041
  926MOL0     H27733   4.521   6.588   0.142 -0.3462  0.1572  0.0062
  926MOL0     H27734   4.570   6.493   0.007 -5.3721 -0.4156  1.6216
  926MOL0     H27735   4.697   6.711   0.037  1.8033  0.5920  0.5652
  926MOL0     H27736   4.769   6.652   0.170  3.0333  0.3036 -2.2060
  926MOL0     H27737   4.955   6.452   0.167  0.0682 -0.6485 -0.2775
  926MOL0     H27738   5.088   6.229  -0.122 -1.6596 -0.0020 -0.8597
  926MOL0     H27739   5.066   6.226   0.053 -1.3232 -1.5239 -1.2976
  926MOL0     H27740   5.280   6.362   0.084  1.9618 -0.5841  1.0542
  926MOL0     H27741   5.318   6.227  -0.028 -0.3858  0.7006 -1.8292
  926MOL0     H27742   5.368   6.346  -0.194  0.5325  1.0595 -0.7420
  926MOL0     H27743   5.228   6.452  -0.186 -0.2251  0.2791 -0.4829
  926MOL0     H27744   5.359   6.569   0.017  1.2424  1.1641  0.3748
  926MOL0     H27745   5.497   6.489  -0.056  3.0200  4.6227 -1.2455
  926MOL0     H27746   5.570   6.710   0.046  4.2566 -1.3212 -0.1875
  926MOL0     H27747   5.727   7.016   0.108  1.0800  1.6033 -2.4782
  926MOL0     H27748   5.830   6.871   0.095 -0.5867  0.6784  1.1065
  926MOL0     H27749   5.673   6.856   0.169  0.3834 -1.1301  1.1325
  926MOL0     H27750   5.803   7.272   0.000  0.7238  0.6835  1.2415
  926MOL0     H27751   5.923   7.494   0.038 -1.1807 -0.8140 -1.0017
  926MOL0     H27752   6.329   7.523  -0.176 -1.2451  0.3949 -2.8164
  926MOL0     H27753   6.206   7.626  -0.242  1.0909 -1.0404 -0.6678
  926MOL0     H27754   6.408   7.755  -0.168  1.1164  2.5398  1.0415
  926MOL0     H27755   6.258   7.826  -0.116 -0.2896 -0.0768  1.9253
  926MOL0     H27756   6.469   7.676   0.046 -0.8567 -0.6869  0.8979
  926MOL0     H27757   6.300   7.688   0.110 -0.9399  1.6464  0.2968
  926MOL0     H27758   6.304   7.921   0.111  0.2115  0.9701 -1.0460
  926MOL0     H27759   6.463   7.931   0.034  2.3767  0.4758  1.6887
  926MOL0     H27760   6.554   7.806   0.224 -0.0330 -0.3325  1.3709
  926MOL0     H27761   6.504   7.973   0.262 -0.2189  0.7125 -1.2155
  926MOL0     H27762   6.449   7.814   0.446 -0.8917  2.9393  0.4061
  926MOL0     H27763   6.360   7.712   0.339  0.7563 -0.5061 -0.3161
  926MOL0     H27764   6.191   7.890   0.327 -0.3553  1.2422 -0.1707
  926MOL0     H27765   6.299   8.004   0.420  3.6626 -1.6323 -1.0119
  926MOL0     H27766   6.177   7.751   0.536 -0.5267  0.4730  0.3846
  926MOL0     H27767   6.127   7.927   0.563  0.1880 -0.1359 -1.1621
  926MOL0     H27768   6.267   7.325  -0.145 -0.7940 -1.9856  0.6672
  926MOL0     H27769   6.163   7.123  -0.201  2.5012  0.6939  1.2115
  926MOL0     H27770   5.602   6.982  -0.364 -0.6728 -0.8590 -0.9156
  926MOL0     H27771   5.445   6.797  -0.367 -0.2267  2.2678 -0.5711
  926MOL0     H27772   3.917   6.022  -0.031  0.5350 -0.0856 -2.5365
  926MOL0     H27773   3.718   5.876  -0.103 -0.5015 -0.6521 -0.2299
  926MOL0     H27774   3.142   5.912   0.022 -0.6104  1.3804 -1.4207
  926MOL0     H27775   2.954   5.807  -0.096 -1.9156 -3.3819 -2.5951
  926MOL0     H27776   3.032   5.703  -0.465 -0.5788  0.4251  0.7469
  926MOL0     H27777   3.021   5.527  -0.453 -0.8658 -1.4993  0.2823
  926MOL0     H27778   2.801   5.535  -0.528 -2.8598  0.7694 -0.5384
  926MOL0     H27779   2.854   5.686  -0.594 -4.6632 -0.5709 -2.7622
  926MOL0     H27780   2.705   5.674  -0.320 -0.8819 -2.9841 -0.3975
  926MOL0     H27781   2.749   5.821  -0.420  2.0812 -0.8069  0.6074
  926MOL0     H27782   2.562   5.587  -0.497 -1.9864  0.8502 -1.6333
  926MOL0     H27783   2.607   5.730  -0.600 -1.1044  1.2902  0.4779
  926MOL0     H27784   2.312   5.872  -0.325  0.5743 -0.9650  0.6351
  926MOL0     H27785   3.229   5.589  -0.346 -0.3504  1.1765 -0.2079
  926MOL0     H27786   3.470   5.763  -0.336  0.7389 -0.0307  1.3292
  926MOL0     H27787   3.523   5.689  -0.180 -0.0673 -0.3351  0.0768
  926MOL0     H27788   3.449   5.589  -0.299  1.0899 -0.6013  0.5648
  927MOL0     O27789  10.212   9.557   0.517 -0.2503  0.1119 -0.5365
  927MOL0     C27790  10.264   9.450   0.482 -0.2002 -0.6980  1.0388
  927MOL0     O27791  10.385   9.453   0.413  0.9966  0.1823 -0.3171
  927MOL0     C27792  10.467   9.566   0.404 -0.2735  0.5107 -0.2495
  927MOL0     C27793  10.550   9.572   0.294  0.0582 -0.2770  0.3594
  927MOL0     C27794  10.625   9.682   0.255  0.1318 -0.8071  0.0780
  927MOL0     C27795  10.626   9.794   0.337  0.0521 -0.2385 -0.4670
  927MOL0     O27796  10.707   9.899   0.299  0.0989  0.4061  0.3577
  927MOL0     C27797  10.794   9.941   0.404 -0.7906 -0.6349  0.5475
  927MOL0     C27798  10.914   9.996   0.342  0.2686 -0.2020  0.1853
  927MOL0     C27799  10.988  10.098   0.434  0.3370  1.0024 -0.1074
  927MOL0     C27800  11.130  10.106   0.400  0.2806 -0.3162  0.1431
  927MOL0     C27801  11.202  10.182   0.515  0.6680  1.3329 -0.3916
  927MOL0     C27802  11.344  10.211   0.481 -1.0290  0.2642  0.0669
  927MOL0     C27803  11.413  10.313   0.577 -0.6020 -0.4975  0.0099
  927MOL0     C27804  11.555  10.340   0.525  0.9833  0.1101  0.4835
  927MOL0     N27805  11.627  10.431   0.622  0.1679  0.4115  0.0131
  927MOL0     C27806  11.729  10.385   0.703 -0.1542 -0.4891 -0.3919
  927MOL0     C27807  11.770  10.493   0.775 -0.0025 -0.1462 -0.2524
  927MOL0     C27808  11.872  10.495   0.895 -0.8857 -0.5903  0.1008
  927MOL0     C27809  11.797  10.482   1.032 -1.0188  0.4532  0.4235
  927MOL0     C27810  11.900  10.519   1.149 -0.1008  0.6501 -0.6392
  927MOL0     C27811  11.818  10.539   1.278 -0.0088 -0.6632  0.2282
  927MOL0     O27812  11.757  10.412   1.322 -0.1613 -1.1033 -0.6153
  927MOL0     C27813  11.664  10.415   1.424 -0.1347  0.4758 -0.0224
  927MOL0     C27814  11.615  10.280   1.441 -1.0921 -0.3774 -0.1671
  927MOL0     C27815  11.537  10.247   1.551 -0.1241 -0.5778 -0.0832
  927MOL0     C27816  11.483  10.106   1.537 -0.2915  0.0798 -0.2019
  927MOL0     C27817  11.504  10.349   1.649 -0.0103  0.0017 -0.1455
  927MOL0     C27818  11.423  10.310   1.768 -0.2828 -0.5187  0.4836
  927MOL0     O27819  11.388  10.184   1.781 -0.3801  0.1957  0.0511
  927MOL0     C27820  11.324  10.144   1.892  0.0915 -0.0893 -0.7136
  927MOL0     C27821  11.364  10.177   2.028  0.2711  1.4157  0.2377
  927MOL0     C27822  11.283  10.137   2.144  0.3602 -0.3031  0.4954
  927MOL0     C27823  11.160  10.078   2.112 -1.0769 -0.4574  0.0259
  927MOL0     O27824  11.063  10.070   2.215 -0.7778 -0.0372 -0.2095
  927MOL0     C27825  11.073  10.152   2.337  0.1837  0.5432  0.1210
  927MOL0     C27826  10.931  10.161   2.408  0.0004 -0.4638  0.2245
  927MOL0     C27827  10.877  10.051   2.495 -0.0374  0.0695 -0.5439
  927MOL0     C27828  10.856   9.922   2.416  0.4889  0.3248  0.6312
  927MOL0     C27829  10.833   9.792   2.502 -0.3130  0.0226  0.4550
  927MOL0     C27830  10.701   9.792   2.588  0.8658  0.0291  0.5577
  927MOL0     C27831  10.584   9.744   2.501  0.2288 -0.3167 -0.2556
  927MOL0     C27832  10.463   9.830   2.533 -0.6024 -1.2093 -0.1524
  927MOL0    Cl27833  10.315   9.780   2.465 -0.3036  0.3144  0.4348
  927MOL0     C27834  11.122  10.046   1.983 -0.3010  0.8677 -0.5364
  927MOL0     C27835  11.213  10.065   1.877  0.5014 -0.3353 -0.1674
  927MOL0     O27836  11.390  10.400   1.841  0.4346 -0.8442  0.2190
  927MOL0     C27837  11.549  10.486   1.621  0.7442  0.5026  0.1743
  927MOL0     C27838  11.636  10.522   1.512 -0.6371 -0.7115 -0.0329
  927MOL0     N27839  11.694  10.609   0.739  0.3910 -0.0427 -0.1643
  927MOL0     N27840  11.602  10.561   0.648  0.4726 -1.0205  0.9883
  927MOL0     C27841  10.547   9.792   0.454  0.3135 -0.1204 -0.6191
  927MOL0     C27842  10.472   9.676   0.494 -0.0795 -0.2137  0.5960
  927MOL0     C27843  10.194   9.319   0.496 -0.0422  0.2931 -0.2600
  927MOL0     C27844  10.235   9.217   0.396  0.3212 -0.0010  0.6354
  927MOL0     C27845  10.165   9.090   0.394 -0.0787  0.0435  0.4012
  927MOL0     C27846  10.067   9.067   0.486 -0.2727 -0.0129 -0.0894
  927MOL0     O27847   9.990   8.956   0.481 -0.7388 -0.1246 -0.1965
  927MOL0     C27848   9.969   8.908   0.617  0.0918  1.1958  0.2822
  927MOL0     C27849   9.886   8.786   0.614 -0.3186  0.8255 -0.3855
  927MOL0     C27850   9.740   8.816   0.560 -0.2725  0.1668 -0.2675
  927MOL0     C27851   9.635   8.708   0.597  0.1281 -0.0013  0.3518
  927MOL0     C27852   9.662   8.576   0.542 -0.3026  0.2887  0.2989
  927MOL0     C27853   9.708   8.471   0.507 -0.1856  0.1964  0.4091
  927MOL0     C27854  10.037   9.171   0.577  1.1246 -0.3162 -0.2185
  927MOL0     C27855  10.094   9.294   0.590 -0.6123 -0.6573 -0.2085
  927MOL0     C27856  10.019   9.410   0.664 -0.0985 -0.0808  0.3311
  927MOL0     H27857  10.547   9.480   0.236 -1.3270 -1.1173  1.7059
  927MOL0     H27858  10.687   9.682   0.166 -0.0852  3.2618 -0.2263
  927MOL0     H27859  10.831   9.858   0.464  2.5600  0.6510  0.4772
  927MOL0     H27860  10.754  10.024   0.463  1.0679  0.8868 -0.2262
  927MOL0     H27861  10.980   9.913   0.316  1.5175  0.8639 -0.1538
  927MOL0     H27862  10.900  10.043   0.244 -1.5700 -1.9584 -0.4595
  927MOL0     H27863  10.939  10.195   0.421 -2.5272 -0.2495  0.5810
  927MOL0     H27864  10.976  10.058   0.535 -0.8218 -0.7275 -0.8665
  927MOL0     H27865  11.168  10.006   0.376  2.1865  0.2863  0.4268
  927MOL0     H27866  11.149  10.167   0.311  0.4231  2.1138  1.7405
  927MOL0     H27867  11.193  10.141   0.616 -0.0114 -1.5875 -1.5375
  927MOL0     H27868  11.149  10.276   0.530 -0.5675  0.3396  2.1655
  927MOL0     H27869  11.402  10.118   0.484  0.3728  1.1142  3.1775
  927MOL0     H27870  11.345  10.247   0.378 -0.8200 -3.1043 -1.2453
  927MOL0     H27871  11.415  10.270   0.678 -1.1001  1.6834  1.0029
  927MOL0     H27872  11.359  10.408   0.578 -1.9678 -1.1949 -1.7308
  927MOL0     H27873  11.611  10.247   0.514  1.0225  0.3783 -2.4313
  927MOL0     H27874  11.539  10.378   0.424 -0.4953 -2.2395 -0.2415
  927MOL0     H27875  11.768  10.284   0.700  0.5706 -0.1848 -2.3034
  927MOL0     H27876  11.921  10.593   0.901 -0.6549 -0.6885 -0.1310
  927MOL0     H27877  11.945  10.417   0.875 -0.0564 -0.0195  0.8193
  927MOL0     H27878  11.716  10.555   1.044 -1.9420 -0.6759  1.3452
  927MOL0     H27879  11.747  10.385   1.041 -0.2172  0.0960  1.1338
  927MOL0     H27880  11.969  10.436   1.160 -0.5899  0.2417 -0.6072
  927MOL0     H27881  11.947  10.616   1.130 -1.2390  0.9914 -1.8661
  927MOL0     H27882  11.877  10.575   1.363 -0.9167 -2.2253  1.5755
  927MOL0     H27883  11.751  10.625   1.267  2.1927  1.0412 -0.7571
  927MOL0     H27884  11.646  10.202   1.372 -0.8581 -0.7977  0.3967
  927MOL0     H27885  11.551  10.043   1.595  0.0267 -1.4060 -2.0818
  927MOL0     H27886  11.494  10.072   1.434 -5.3898  1.3796 -1.4570
  927MOL0     H27887  11.378  10.081   1.557 -0.4306  0.2393 -0.7368
  927MOL0     H27888  11.463  10.222   2.038  0.3173  1.7719 -1.4129
  927MOL0     H27889  11.324  10.143   2.245  3.0121 -1.0192 -0.4590
  927MOL0     H27890  11.143  10.107   2.409  0.5723  0.0151 -0.5788
  927MOL0     H27891  11.105  10.249   2.299 -0.2858  0.2390 -1.0918
  927MOL0     H27892  10.945  10.256   2.460 -2.1019  0.2435 -0.3811
  927MOL0     H27893  10.861  10.195   2.331 -0.0965  1.5579  1.1488
  927MOL0     H27894  10.780  10.084   2.534  1.1926 -0.1222  3.1397
  927MOL0     H27895  10.937  10.044   2.587  1.5726  0.8933 -1.4744
  927MOL0     H27896  10.937   9.893   2.348 -0.7416 -0.4531 -0.5503
  927MOL0     H27897  10.769   9.942   2.353 -0.5009 -0.9087  1.5575
  927MOL0     H27898  10.833   9.709   2.430  1.3675  0.7622 -0.4557
  927MOL0     H27899  10.921   9.770   2.562  0.4843  0.5910 -0.4698
  927MOL0     H27900  10.684   9.893   2.626 -1.9585 -0.9335  2.0755
  927MOL0     H27901  10.707   9.723   2.673 -0.9935 -1.4203 -0.4080
  927MOL0     H27902  10.576   9.637   2.520  2.2915 -0.4390  0.1710
  927MOL0     H27903  10.617   9.764   2.399 -0.3900 -3.3835 -1.1576
  927MOL0     H27904  10.480   9.928   2.486 -1.6558 -1.2094 -0.5538
  927MOL0     H27905  10.448   9.840   2.641  2.5447  0.7873  0.2375
  927MOL0     H27906  11.025  10.002   1.959 -0.1013  1.2385 -2.2118
  927MOL0     H27907  11.168  10.046   1.780 -3.2638 -0.9665  1.5444
  927MOL0     H27908  11.508  10.569   1.679  0.1757 -0.2532  0.8776
  927MOL0     H27909  11.675  10.622   1.501 -1.4142 -0.0413  2.6465
  927MOL0     H27910  10.558   9.871   0.528  3.3468  0.0898 -1.1609
  927MOL0     H27911  10.412   9.672   0.585 -1.0004  2.2358  0.1760
  927MOL0     H27912  10.321   9.239   0.332  1.1444 -1.6224  1.1422
  927MOL0     H27913  10.183   9.006   0.329 -1.4349 -1.0932  1.4236
  927MOL0     H27914  10.062   8.896   0.674 -0.3030  2.4911  1.2277
  927MOL0     H27915   9.913   8.975   0.683 -4.1324 -0.8432 -0.8876
  927MOL0     H27916   9.884   8.731   0.708 -0.9190  0.8780 -0.3606
  927MOL0     H27917   9.936   8.720   0.543 -1.0829 -1.3069  0.9622
  927MOL0     H27918   9.712   8.913   0.603  0.1169  0.6663 -1.1200
  927MOL0     H27919   9.734   8.829   0.452 -2.6772 -1.4739 -0.4269
  927MOL0     H27920   9.535   8.745   0.572 -0.7237 -1.7462  0.9929
  927MOL0     H27921   9.637   8.701   0.706 -0.9342  0.0740  0.3840
  927MOL0     H27922   9.746   8.378   0.471 -0.6140 -0.1114  0.7573
  927MOL0     H27923   9.948   9.168   0.639  1.5021 -0.9215  0.3117
  927MOL0     H27924   9.923   9.381   0.708 -0.4542  0.8999  0.2233
  927MOL0     H27925  10.071   9.469   0.739 -2.2776  5.1601 -1.7917
  927MOL0     H27926   9.994   9.492   0.596  1.7991  1.3931  1.3012
  928MOL0     O27927   5.135   1.900   6.615  0.6597  0.0383 -0.3071
  928MOL0     C27928   5.129   2.013   6.661 -0.2011 -0.9189  0.4125
  928MOL0     O27929   5.040   2.063   6.752  0.1393 -0.0979  0.5747
  928MOL0     C27930   4.976   1.954   6.816 -0.0422 -0.2871  0.1856
  928MOL0     C27931   5.043   1.884   6.923 -0.6730  0.9466  0.5491
  928MOL0     C27932   4.978   1.772   6.986  0.8864 -0.0534  0.1939
  928MOL0     C27933   4.847   1.746   6.958 -0.3396  0.2917  0.8228
  928MOL0     O27934   4.763   1.660   7.025 -0.5155  0.0749 -0.2120
  928MOL0     C27935   4.802   1.596   7.147 -0.0856  0.2322 -0.1051
  928MOL0     C27936   4.737   1.470   7.177 -0.3716  0.5204 -0.2869
  928MOL0     C27937   4.596   1.499   7.225 -0.6245  0.7478  0.8136
  928MOL0     C27938   4.530   1.362   7.248 -0.4710  0.1095  0.1231
  928MOL0     C27939   4.399   1.370   7.328 -0.3509 -0.3323  0.1182
  928MOL0     C27940   4.368   1.219   7.364  1.1884  0.8570 -0.4361
  928MOL0     C27941   4.241   1.226   7.448 -0.4218  0.4982 -0.0148
  928MOL0     C27942   4.194   1.090   7.485 -0.3650 -0.2610 -0.1553
  928MOL0     N27943   4.080   1.104   7.574  0.7116 -0.2234  0.0896
  928MOL0     C27944   3.959   1.162   7.544 -0.1783 -0.0009  0.9803
  928MOL0     C27945   3.888   1.135   7.658 -0.4552 -0.5864 -0.7510
  928MOL0     C27946   3.760   1.200   7.684  0.3664 -0.1460 -0.6448
  928MOL0     C27947   3.760   1.329   7.762 -1.1390  0.1411  0.0258
  928MOL0     C27948   3.849   1.438   7.696  0.0996  0.6359  0.3428
  928MOL0     C27949   3.850   1.572   7.773 -0.9080 -0.3731 -0.3393
  928MOL0     O27950   3.913   1.677   7.705 -0.4724  0.1535  1.0238
  928MOL0     C27951   4.042   1.694   7.728 -0.7995 -0.0630 -0.1617
  928MOL0     C27952   4.076   1.758   7.840  0.3855  0.1098 -0.0526
  928MOL0     C27953   4.198   1.802   7.872 -0.7456 -0.7992 -0.1079
  928MOL0     C27954   4.219   1.891   7.994 -0.3040  0.0401  0.6297
  928MOL0     C27955   4.305   1.762   7.787 -0.7069  0.0247  0.0837
  928MOL0     C27956   4.449   1.803   7.799  0.5886  0.5918 -1.4738
  928MOL0     O27957   4.482   1.889   7.894 -0.0170 -0.1621 -0.2995
  928MOL0     C27958   4.606   1.955   7.910 -0.0107 -0.0155  0.5153
  928MOL0     C27959   4.689   1.982   7.800 -0.6018 -0.0899 -0.5881
  928MOL0     C27960   4.814   2.049   7.828  0.5643 -0.0434 -0.1462
  928MOL0     C27961   4.847   2.096   7.961  0.7656 -0.5830  0.0682
  928MOL0     O27962   4.962   2.174   7.965 -0.1039 -0.1263 -0.2508
  928MOL0     C27963   4.961   2.284   8.059  0.4656 -0.3077 -0.3538
  928MOL0     C27964   5.052   2.250   8.177  0.3068  0.5487  1.5806
  928MOL0     C27965   5.075   2.377   8.258 -0.1402 -0.7339 -0.4641
  928MOL0     C27966   5.159   2.355   8.381  0.1854  0.1504  0.5447
  928MOL0     C27967   5.304   2.295   8.342  0.1986  0.3499 -0.5838
  928MOL0     C27968   5.393   2.282   8.467 -0.0996 -0.1896  0.7973
  928MOL0     C27969   5.334   2.235   8.597 -0.5975 -0.5907  0.4066
  928MOL0     C27970   5.305   2.087   8.607 -0.1048  0.9161  0.4406
  928MOL0    Cl27971   5.136   2.046   8.554 -0.1375  0.0304  0.3116
  928MOL0     C27972   4.759   2.068   8.063 -0.3177  0.1428 -1.2177
  928MOL0     C27973   4.646   1.993   8.038  1.2930 -0.4460  0.8525
  928MOL0     O27974   4.527   1.755   7.721 -1.0257  0.0166  0.4288
  928MOL0     C27975   4.272   1.685   7.670 -0.3731  0.0153 -0.1664
  928MOL0     C27976   4.139   1.661   7.640  0.1713 -1.1628 -0.1876
  928MOL0     N27977   3.972   1.073   7.748  0.7398  0.1986  0.3932
  928MOL0     N27978   4.090   1.063   7.700 -0.3211  0.6503 -0.0485
  928MOL0     C27979   4.785   1.819   6.858  0.0221 -0.2264  1.4043
  928MOL0     C27980   4.842   1.927   6.790 -0.2775 -0.6154  0.3459
  928MOL0     C27981   5.226   2.103   6.600  0.2456 -0.5987 -0.4275
  928MOL0     C27982   5.353   2.050   6.582  0.5575  0.5478 -0.0535
  928MOL0     C27983   5.453   2.138   6.544 -0.5129  0.4317  0.7612
  928MOL0     C27984   5.435   2.273   6.531 -0.0780 -0.4704 -0.2008
  928MOL0     O27985   5.547   2.351   6.510  0.2191 -0.1491 -0.3913
  928MOL0     C27986   5.545   2.487   6.543 -0.2501  1.5752  0.9532
  928MOL0     C27987   5.575   2.506   6.697  0.3740 -0.5415  0.6662
  928MOL0     C27988   5.648   2.638   6.723  0.9483  0.5862  0.1168
  928MOL0     C27989   5.784   2.638   6.666 -0.2267 -0.8463  0.0110
  928MOL0     C27990   5.864   2.522   6.721 -0.3922  1.0887  0.1609
  928MOL0     C27991   5.907   2.415   6.756 -0.1447 -0.1564 -0.7043
  928MOL0     C27992   5.304   2.319   6.534 -0.2673 -0.2721  0.4032
  928MOL0     C27993   5.195   2.238   6.571  0.5226 -0.1467 -0.6101
  928MOL0     C27994   5.054   2.287   6.561 -0.3325  0.1256 -0.8966
  928MOL0     H27995   5.147   1.900   6.950 -0.6780  0.6912  0.7137
  928MOL0     H27996   5.037   1.722   7.061  2.0246 -0.4421 -0.9341
  928MOL0     H27997   4.799   1.655   7.239  2.9047  1.0710 -0.4492
  928MOL0     H27998   4.907   1.578   7.123  0.5292  3.4857 -0.3387
  928MOL0     H27999   4.743   1.402   7.092  0.0868  0.6309 -0.3450
  928MOL0     H28000   4.794   1.414   7.252  0.4670 -0.4187 -1.5948
  928MOL0     H28001   4.599   1.545   7.324 -0.7337  0.9758  0.7115
  928MOL0     H28002   4.536   1.552   7.152  0.8608  1.9050  0.3857
  928MOL0     H28003   4.514   1.304   7.156 -0.7773 -1.5096  1.1622
  928MOL0     H28004   4.594   1.296   7.306  0.6004  0.7373 -0.3076
  928MOL0     H28005   4.318   1.402   7.263 -1.2536 -2.6629 -0.0063
  928MOL0     H28006   4.415   1.436   7.414 -0.7656  1.5234 -1.1762
  928MOL0     H28007   4.371   1.158   7.273  0.4286  1.0824 -0.6156
  928MOL0     H28008   4.443   1.174   7.429 -0.6388  2.3275  2.8998
  928MOL0     H28009   4.170   1.264   7.374  0.6067  1.1161 -0.7213
  928MOL0     H28010   4.246   1.304   7.524  0.7261  0.2542  0.1734
  928MOL0     H28011   4.168   1.031   7.396 -1.2025  0.1773 -0.2070
  928MOL0     H28012   4.280   1.058   7.544  0.8632  1.9447 -0.6415
  928MOL0     H28013   3.923   1.220   7.460  1.0448 -0.0170  0.4203
  928MOL0     H28014   3.688   1.129   7.725  2.1179 -1.2986  0.5916
  928MOL0     H28015   3.717   1.228   7.588  3.9752  0.7575 -2.1829
  928MOL0     H28016   3.658   1.369   7.770 -0.8434  0.8767  0.2140
  928MOL0     H28017   3.785   1.295   7.863 -0.1929  0.5898 -0.0463
  928MOL0     H28018   3.956   1.427   7.676  0.2031 -1.9525  1.9198
  928MOL0     H28019   3.801   1.470   7.602  0.4315  4.0003  1.1814
  928MOL0     H28020   3.746   1.606   7.785 -0.8455 -0.6821  1.1776
  928MOL0     H28021   3.897   1.567   7.871  2.0443 -1.7138 -1.6934
  928MOL0     H28022   3.997   1.803   7.900  0.6421  2.0421 -1.0746
  928MOL0     H28023   4.132   1.882   8.059 -0.7608  0.2946  0.0652
  928MOL0     H28024   4.228   1.990   7.948  1.2164 -1.5001 -2.7628
  928MOL0     H28025   4.303   1.869   8.060  0.6128  0.0292 -0.4979
  928MOL0     H28026   4.652   1.964   7.700 -3.7426  1.4145  0.1920
  928MOL0     H28027   4.877   2.083   7.747 -0.5441 -0.5131 -1.2286
  928MOL0     H28028   5.000   2.372   8.007  1.9025 -0.4237  0.4656
  928MOL0     H28029   4.870   2.324   8.104  1.6683  0.3687  1.5915
  928MOL0     H28030   5.000   2.172   8.232 -0.3410  0.6377  1.1075
  928MOL0     H28031   5.146   2.210   8.138  0.7050  4.0685 -1.7269
  928MOL0     H28032   4.980   2.426   8.282 -0.0010  0.2979 -1.8724
  928MOL0     H28033   5.121   2.450   8.191 -0.2913  1.1046  1.3424
  928MOL0     H28034   5.113   2.280   8.446  0.0985  0.3210  0.6811
  928MOL0     H28035   5.167   2.451   8.434  1.8631 -0.1074  0.8218
  928MOL0     H28036   5.287   2.193   8.305 -1.1339  0.5563 -0.6119
  928MOL0     H28037   5.362   2.353   8.271  2.8994 -0.7279  0.6148
  928MOL0     H28038   5.446   2.377   8.478  1.9917 -1.3280  1.0950
  928MOL0     H28039   5.468   2.208   8.439  0.4392  0.8145 -0.5725
  928MOL0     H28040   5.242   2.291   8.617  0.8552  1.6839  1.0697
  928MOL0     H28041   5.396   2.266   8.681 -2.7199  1.4587  1.3222
  928MOL0     H28042   5.332   2.050   8.706 -2.1267 -2.7199 -0.1665
  928MOL0     H28043   5.376   2.031   8.546 -2.5593 -2.8641  0.6924
  928MOL0     H28044   4.770   2.107   8.164  0.6919 -0.7702 -0.9568
  928MOL0     H28045   4.575   1.983   8.119  1.9507  1.0217  1.6509
  928MOL0     H28046   4.347   1.664   7.595 -0.9113  0.5075 -0.8539
  928MOL0     H28047   4.126   1.615   7.542  1.2046  0.9212 -1.3699
  928MOL0     H28048   4.678   1.807   6.845  0.4083 -0.9563 -1.9533
  928MOL0     H28049   4.791   1.991   6.719  0.4980 -1.0779 -0.6407
  928MOL0     H28050   5.375   1.948   6.609  2.0321  1.0650  0.8285
  928MOL0     H28051   5.553   2.097   6.542 -0.0594  1.4754  1.2505
  928MOL0     H28052   5.621   2.534   6.479 -1.1919  0.4108 -1.1091
  928MOL0     H28053   5.452   2.537   6.514 -0.1385  0.0002 -2.6789
  928MOL0     H28054   5.623   2.416   6.737  1.0204 -2.0217 -3.0863
  928MOL0     H28055   5.479   2.517   6.749 -0.1816 -2.3806  0.0761
  928MOL0     H28056   5.583   2.720   6.690 -0.4746  1.1944  3.8987
  928MOL0     H28057   5.650   2.637   6.833 -3.9007 -2.2417  0.4732
  928MOL0     H28058   5.829   2.731   6.703  0.0729 -1.3649  0.9938
  928MOL0     H28059   5.775   2.634   6.557 -0.8532 -0.4237  0.0422
  928MOL0     H28060   5.951   2.326   6.796 -0.3456 -1.7425 -3.7574
  928MOL0     H28061   5.289   2.424   6.510  0.0712 -0.6891 -1.8380
  928MOL0     H28062   5.014   2.292   6.662  0.5067  2.7927 -0.6252
  928MOL0     H28063   5.059   2.389   6.522 -1.4463  0.1502 -0.9930
  928MOL0     H28064   4.983   2.221   6.510 -2.4245 -0.2137  2.1746
  929MOL0     O28065   0.347   3.684   0.076 -0.3469 -0.5462  0.6532
  929MOL0     C28066   0.288   3.715  -0.023 -1.0483 -0.3022 -0.0057
  929MOL0     O28067   0.351   3.760  -0.138  0.0246  0.5896  0.4437
  929MOL0     C28068   0.488   3.747  -0.147  0.0873 -0.2421  0.4562
  929MOL0     C28069   0.542   3.673  -0.261  0.2733  1.0234 -0.5357
  929MOL0     C28070   0.683   3.672  -0.289 -0.2956 -0.9335  0.1364
  929MOL0     C28071   0.764   3.753  -0.215  0.0958  0.4745  0.3517
  929MOL0     O28072   0.897   3.750  -0.246 -0.4639 -0.4030  0.3127
  929MOL0     C28073   0.982   3.846  -0.184 -0.2168 -0.2694 -0.7373
  929MOL0     C28074   1.114   3.830  -0.258 -0.4432  0.4892  0.2771
  929MOL0     C28075   1.196   3.722  -0.190 -0.3443 -0.0126 -0.1398
  929MOL0     C28076   1.334   3.695  -0.271  0.1585  0.2512  0.0345
  929MOL0     C28077   1.435   3.612  -0.197 -0.1771 -0.0974  0.2931
  929MOL0     C28078   1.545   3.565  -0.294  0.5355  0.5702 -0.6322
  929MOL0     C28079   1.660   3.492  -0.219  0.6951  0.0326  0.1816
  929MOL0     C28080   1.718   3.379  -0.313 -0.1255 -0.6636  0.2609
  929MOL0     N28081   1.791   3.427  -0.430  0.2941  0.1363 -0.5020
  929MOL0     C28082   1.917   3.472  -0.425  0.1318 -0.3934  0.4595
  929MOL0     C28083   1.944   3.497  -0.550  0.5648 -0.6611  0.5328
  929MOL0     C28084   2.070   3.545  -0.612 -0.8594 -0.7196 -0.2830
  929MOL0     C28085   2.175   3.421  -0.631 -0.1189 -0.3453  0.6505
  929MOL0     C28086   2.253   3.445  -0.762 -0.9837  0.3902  0.2065
  929MOL0     C28087   2.382   3.356  -0.771  0.6274 -0.7772  0.7293
  929MOL0     O28088   2.450   3.383  -0.650  0.2627 -0.5000  0.6581
  929MOL0     C28089   2.590   3.376  -0.642  0.0806  1.0576  0.7856
  929MOL0     C28090   2.660   3.419  -0.527  0.1583  0.2082  0.5052
  929MOL0     C28091   2.796   3.378  -0.506 -0.5286 -0.5932 -0.5799
  929MOL0     C28092   2.857   3.431  -0.373  0.4634 -0.5717 -0.2829
  929MOL0     C28093   2.870   3.306  -0.609 -1.4865 -0.1024  0.6445
  929MOL0     C28094   3.015   3.279  -0.594 -0.4296 -0.0778  0.4780
  929MOL0     O28095   3.076   3.238  -0.711 -0.0873  0.2230 -0.2332
  929MOL0     C28096   3.207   3.196  -0.708 -0.3104  0.3659  0.2727
  929MOL0     C28097   3.214   3.058  -0.735 -0.3103  0.8390  0.4162
  929MOL0     C28098   3.340   2.994  -0.732 -0.3950  0.9593  0.3503
  929MOL0     C28099   3.449   3.087  -0.707  0.0388  0.6337 -0.2781
  929MOL0     O28100   3.575   3.037  -0.702  0.4974  0.4523 -1.4107
  929MOL0     C28101   3.656   3.071  -0.812 -0.3463  0.3042 -0.0638
  929MOL0     C28102   3.795   3.084  -0.757 -0.1894 -0.2409 -0.3560
  929MOL0     C28103   3.897   3.151  -0.852  0.7548  0.1807 -0.0901
  929MOL0     C28104   4.026   3.065  -0.850  0.3548 -0.4527 -0.4535
  929MOL0     C28105   4.141   3.141  -0.915  0.4313 -0.0983 -0.7981
  929MOL0     C28106   4.273   3.063  -0.879 -0.2939  0.0214 -0.9507
  929MOL0     C28107   4.397   3.149  -0.914  0.5415 -0.3110  0.0709
  929MOL0     C28108   4.529   3.073  -0.904 -0.3050 -0.0992  0.7086
  929MOL0    Cl28109   4.677   3.173  -0.924 -0.0651 -0.0715 -0.0691
  929MOL0     C28110   3.444   3.226  -0.679 -0.5435 -0.1917 -0.2851
  929MOL0     C28111   3.320   3.282  -0.683  0.1167  0.3912 -0.2501
  929MOL0     O28112   3.073   3.293  -0.495  0.3466  0.1583 -0.2757
  929MOL0     C28113   2.809   3.283  -0.733 -0.6462  0.3315 -0.1033
  929MOL0     C28114   2.672   3.312  -0.746 -0.1200  0.2631  0.1916
  929MOL0     N28115   1.826   3.496  -0.628 -0.4023  0.0840 -0.5362
  929MOL0     N28116   1.735   3.453  -0.550 -0.5967 -0.1286 -0.1248
  929MOL0     C28117   0.712   3.829  -0.106  0.6406  0.7453 -0.5571
  929MOL0     C28118   0.576   3.825  -0.072  0.1008  0.4507 -0.1886
  929MOL0     C28119   0.146   3.718  -0.025 -0.0050 -0.5958  0.0453
  929MOL0     C28120   0.072   3.784  -0.126  0.4688  0.4958 -0.1616
  929MOL0     C28121  -0.068   3.798  -0.121  0.1089  0.4247 -0.1543
  929MOL0     C28122  -0.143   3.755  -0.011  0.0425 -0.7202 -0.7718
  929MOL0     O28123  -0.275   3.775  -0.002 -0.0358  0.3722 -0.1881
  929MOL0     C28124  -0.354   3.817  -0.115  0.6333 -0.0789 -0.6982
  929MOL0     C28125  -0.513   3.831  -0.091  0.5820  0.0090  0.2703
  929MOL0     C28126  -0.600   3.893  -0.203  0.0403  0.1045 -0.2613
  929MOL0     C28127  -0.611   3.799  -0.320 -0.3869  0.3583 -0.0001
  929MOL0     C28128  -0.493   3.795  -0.412 -0.5615  0.4009  0.0420
  929MOL0     C28129  -0.408   3.776  -0.492  0.0271  0.7391 -0.5450
  929MOL0     C28130  -0.075   3.690   0.084  0.0582 -0.8093 -0.3732
  929MOL0     C28131   0.065   3.678   0.084 -0.3473 -0.2094 -0.3805
  929MOL0     C28132   0.113   3.617   0.218 -0.6996 -0.0131  0.6227
  929MOL0     H28133   0.480   3.609  -0.325  3.0393 -2.5452  0.0350
  929MOL0     H28134   0.724   3.619  -0.373  0.2365 -1.1083  0.5023
  929MOL0     H28135   0.991   3.825  -0.077  0.2622  1.1669 -0.4821
  929MOL0     H28136   0.942   3.948  -0.187 -0.3429 -0.0030  3.5967
  929MOL0     H28137   1.098   3.800  -0.362  2.1347 -1.0965  0.2437
  929MOL0     H28138   1.160   3.930  -0.253  0.2211  0.2505 -0.6481
  929MOL0     H28139   1.213   3.754  -0.087 -1.0454  0.2751 -0.1063
  929MOL0     H28140   1.135   3.631  -0.185 -0.2292 -0.0849 -0.0316
  929MOL0     H28141   1.297   3.625  -0.347 -2.2856  1.7204 -0.2251
  929MOL0     H28142   1.388   3.780  -0.314  2.6902 -1.1570  0.2400
  929MOL0     H28143   1.388   3.518  -0.167 -0.2344  0.0230  0.5778
  929MOL0     H28144   1.486   3.657  -0.112  4.0920 -2.7964 -0.4669
  929MOL0     H28145   1.505   3.506  -0.378 -2.9312 -0.7247  1.7157
  929MOL0     H28146   1.578   3.657  -0.344 -1.1575 -0.1418 -3.2819
  929MOL0     H28147   1.618   3.445  -0.129  0.4134  0.5610  0.3262
  929MOL0     H28148   1.734   3.568  -0.194  1.4287  0.0842 -2.0053
  929MOL0     H28149   1.782   3.317  -0.250  3.3083  3.5323  1.4409
  929MOL0     H28150   1.637   3.318  -0.353 -0.8948 -0.8486  2.0297
  929MOL0     H28151   1.985   3.456  -0.342  1.8263 -0.8468 -0.9527
  929MOL0     H28152   2.112   3.622  -0.548 -0.5207 -1.4654  0.4046
  929MOL0     H28153   2.043   3.593  -0.706  0.6516 -1.0800 -0.9304
  929MOL0     H28154   2.245   3.414  -0.548  2.9387 -0.7420 -1.7689
  929MOL0     H28155   2.127   3.324  -0.645  2.7076 -1.4375 -2.9557
  929MOL0     H28156   2.193   3.423  -0.850  0.0135 -1.1703 -0.1096
  929MOL0     H28157   2.286   3.549  -0.771  1.5330 -0.0188  2.9558
  929MOL0     H28158   2.352   3.251  -0.766 -1.9151 -0.1016  0.6501
  929MOL0     H28159   2.437   3.375  -0.864  2.5495 -0.7686  1.8074
  929MOL0     H28160   2.605   3.472  -0.449  0.7651 -0.8695  1.7005
  929MOL0     H28161   2.874   3.343  -0.309  1.1914 -0.3071 -0.1001
  929MOL0     H28162   2.781   3.496  -0.328  1.0758 -0.2126  0.2465
  929MOL0     H28163   2.947   3.488  -0.398 -0.8830  2.0625  0.6279
  929MOL0     H28164   3.135   2.987  -0.755  1.4952 -0.8468 -1.1881
  929MOL0     H28165   3.367   2.890  -0.748 -0.3751  1.1160 -0.7464
  929MOL0     H28166   3.654   2.994  -0.890 -0.5177 -0.6132  0.8322
  929MOL0     H28167   3.623   3.156  -0.873  2.2769  1.4017 -0.0993
  929MOL0     H28168   3.791   3.168  -0.687  1.1296  0.6204 -1.2552
  929MOL0     H28169   3.824   2.990  -0.709 -0.8113 -2.3938 -3.8422
  929MOL0     H28170   3.916   3.252  -0.813  0.6715  0.3009 -0.3550
  929MOL0     H28171   3.851   3.165  -0.951 -2.4093 -0.8856  1.0990
  929MOL0     H28172   4.013   2.968  -0.898  0.5919 -0.3474 -0.7358
  929MOL0     H28173   4.063   3.046  -0.748  1.9757  2.9158 -0.2545
  929MOL0     H28174   4.127   3.138  -1.023  0.0266 -0.2942 -0.7391
  929MOL0     H28175   4.135   3.247  -0.889 -0.4437 -0.1738 -0.6583
  929MOL0     H28176   4.274   2.967  -0.931 -1.3638 -0.6459  0.2167
  929MOL0     H28177   4.276   3.032  -0.774  3.6210  1.3606 -0.4744
  929MOL0     H28178   4.408   3.242  -0.857  3.4889 -0.9742  0.7279
  929MOL0     H28179   4.381   3.172  -1.020  0.3244 -1.3405 -0.1331
  929MOL0     H28180   4.538   3.002  -0.987  0.3315  1.5478 -0.6812
  929MOL0     H28181   4.533   3.022  -0.807  0.7752 -0.6335  0.3926
  929MOL0     H28182   3.539   3.278  -0.667  0.4751 -1.8074 -0.8928
  929MOL0     H28183   3.314   3.391  -0.685 -2.2152  0.2959 -1.4390
  929MOL0     H28184   2.860   3.232  -0.814  0.7647  2.7856 -0.8610
  929MOL0     H28185   2.635   3.281  -0.844 -0.0013 -0.8253  0.4857
  929MOL0     H28186   0.767   3.894  -0.039  1.4656 -0.2216 -0.2805
  929MOL0     H28187   0.536   3.883   0.011  1.0537  1.8903 -0.6857
  929MOL0     H28188   0.122   3.822  -0.214 -1.5609 -1.7453 -2.4736
  929MOL0     H28189  -0.115   3.856  -0.200 -0.1311 -0.2568 -0.5134
  929MOL0     H28190  -0.306   3.909  -0.148  3.2870 -0.8833  0.5867
  929MOL0     H28191  -0.341   3.753  -0.203 -0.9305  0.2608 -1.1918
  929MOL0     H28192  -0.538   3.888  -0.001 -1.8800 -0.7765  0.1465
  929MOL0     H28193  -0.536   3.726  -0.070  0.5574 -0.6305 -2.5356
  929MOL0     H28194  -0.703   3.913  -0.173 -0.3499 -0.1923 -1.3578
  929MOL0     H28195  -0.560   3.991  -0.230 -0.0946  0.6201  1.3204
  929MOL0     H28196  -0.697   3.835  -0.377  0.1049 -0.1910 -1.1342
  929MOL0     H28197  -0.629   3.700  -0.277 -2.3329 -0.0629 -1.6192
  929MOL0     H28198  -0.326   3.771  -0.561  1.3095  0.2235  0.9632
  929MOL0     H28199  -0.141   3.655   0.163 -0.5049  1.8695  0.4504
  929MOL0     H28200   0.203   3.668   0.254 -0.3677  0.6155 -0.9895
  929MOL0     H28201   0.039   3.609   0.298 -2.8993  0.2260 -1.2445
  929MOL0     H28202   0.158   3.520   0.193  2.7219  1.2491  1.3222
  930MOL0     O28203   9.642   0.724   5.874 -0.1349 -0.1930  0.7229
  930MOL0     C28204   9.669   0.836   5.916  0.0323  0.0983  1.1289
  930MOL0     O28205   9.723   0.938   5.838 -0.2540 -0.6669  0.2076
  930MOL0     C28206   9.767   0.901   5.714 -0.9501 -0.0863  0.1127
  930MOL0     C28207   9.901   0.881   5.700 -0.2263  0.2013 -0.0309
  930MOL0     C28208   9.966   0.860   5.577 -0.1128 -0.2875 -1.0448
  930MOL0     C28209   9.886   0.874   5.464 -0.4803  0.5271 -0.2467
  930MOL0     O28210   9.922   0.858   5.334  1.1786 -0.6173  0.4369
  930MOL0     C28211  10.049   0.796   5.306  0.4518 -0.5309 -0.1734
  930MOL0     C28212  10.143   0.906   5.252  0.6616 -0.2968  0.2545
  930MOL0     C28213  10.289   0.859   5.224  0.3162  1.2392 -0.4744
  930MOL0     C28214  10.361   0.968   5.158 -0.3231 -0.2167  0.0587
  930MOL0     C28215  10.503   0.935   5.117 -0.4588  0.1024 -0.3441
  930MOL0     C28216  10.507   0.891   4.976 -0.6227  0.1998  0.6176
  930MOL0     C28217  10.653   0.858   4.933 -0.8662  0.1414  0.6427
  930MOL0     C28218  10.735   0.977   4.892  0.3595 -0.0193 -0.6341
  930MOL0     N28219  10.867   0.926   4.850 -0.5612 -0.3459  0.9211
  930MOL0     C28220  10.986   0.926   4.915  0.5126  0.4663  0.0943
  930MOL0     C28221  11.082   0.890   4.821  0.4133 -0.6020 -0.2552
  930MOL0     C28222  11.224   0.859   4.849  0.0027  0.3622 -0.1539
  930MOL0     C28223  11.309   0.874   4.716 -0.4457 -0.3629 -0.1487
  930MOL0     C28224  11.437   0.786   4.722 -0.5110 -0.4301 -0.3607
  930MOL0     C28225  11.544   0.804   4.835  0.0369 -1.1975  0.2372
  930MOL0     O28226  11.551   0.943   4.851 -0.6782 -0.2981 -0.3987
  930MOL0     C28227  11.650   0.978   4.946 -0.3834  0.4172 -0.2862
  930MOL0     C28228  11.714   0.896   5.039 -0.4762 -0.1152  0.4224
  930MOL0     C28229  11.810   0.942   5.127 -0.3897  0.5866 -0.5291
  930MOL0     C28230  11.863   0.837   5.228  0.3595  0.1057  0.7389
  930MOL0     C28231  11.856   1.073   5.122  0.1264 -0.7074 -0.4961
  930MOL0     C28232  11.979   1.123   5.200 -0.1851  0.0186  0.5351
  930MOL0     O28233  11.973   1.256   5.232 -0.5420 -0.0522 -0.3607
  930MOL0     C28234  12.068   1.302   5.320 -0.4315  0.7453 -0.1517
  930MOL0     C28235  12.143   1.408   5.279  1.2054  0.1042 -0.5360
  930MOL0     C28236  12.234   1.477   5.354  0.2663  0.0519 -1.0819
  930MOL0     C28237  12.267   1.419   5.478  0.0019 -1.4949  0.3767
  930MOL0     O28238  12.370   1.476   5.543  0.4280 -0.6212  0.1123
  930MOL0     C28239  12.424   1.411   5.659  0.2845 -0.8915  0.0870
  930MOL0     C28240  12.511   1.290   5.620 -0.7288 -0.5909 -0.4861
  930MOL0     C28241  12.634   1.362   5.549 -0.4479  0.6883  0.5648
  930MOL0     C28242  12.724   1.261   5.479 -0.3081  0.0347  0.4533
  930MOL0     C28243  12.863   1.313   5.458 -0.0489 -0.5917 -1.1538
  930MOL0     C28244  12.933   1.231   5.356 -0.1416  0.5629  1.0107
  930MOL0     C28245  13.091   1.222   5.365  0.1622 -0.3582  0.2800
  930MOL0     C28246  13.138   1.146   5.234 -0.1735 -0.2830  0.3772
  930MOL0    Cl28247  13.312   1.181   5.211  0.5842  0.3570  0.5181
  930MOL0     C28248  12.183   1.310   5.521  0.4128  0.0439 -0.8461
  930MOL0     C28249  12.082   1.258   5.450 -0.7827 -0.1480 -0.0870
  930MOL0     O28250  12.079   1.055   5.223 -0.2643  0.0173 -0.1860
  930MOL0     C28251  11.784   1.164   5.034  0.5879  1.0466  0.4624
  930MOL0     C28252  11.667   1.113   4.963 -0.7793 -0.4312 -0.5000
  930MOL0     N28253  11.019   0.865   4.700  0.5916 -0.3373  0.0400
  930MOL0     N28254  10.893   0.898   4.719 -0.0508 -0.5160 -0.2531
  930MOL0     C28255   9.746   0.906   5.474  0.1358  0.0976 -1.1872
  930MOL0     C28256   9.689   0.924   5.602  0.2398  0.5872 -0.0422
  930MOL0     C28257   9.630   0.875   6.054 -0.0123  0.3508  0.0425
  930MOL0     C28258   9.611   1.013   6.089 -1.0553  0.0716  0.3303
  930MOL0     C28259   9.555   1.048   6.212 -0.6005  0.2194  0.3033
  930MOL0     C28260   9.524   0.955   6.316 -0.7424 -0.0239  0.0320
  930MOL0     O28261   9.468   0.990   6.434  0.3533 -0.2044 -0.9660
  930MOL0     C28262   9.551   0.974   6.545  0.1145 -0.5149  0.5354
  930MOL0     C28263   9.658   1.079   6.548 -0.1218  0.5991  0.2704
  930MOL0     C28264   9.720   1.082   6.695  0.1959 -1.1811  0.1817
  930MOL0     C28265   9.809   1.198   6.711 -0.4187 -0.7096  0.0325
  930MOL0     C28266   9.915   1.196   6.613 -0.0992 -0.4715  0.7255
  930MOL0     C28267  10.020   1.192   6.549  0.1442 -0.4067 -0.3181
  930MOL0     C28268   9.553   0.828   6.284  0.3127  1.3689 -0.4618
  930MOL0     C28269   9.600   0.782   6.161 -0.0356 -0.3869 -0.3636
  930MOL0     C28270   9.613   0.632   6.154 -0.1460 -0.6192  0.3124
  930MOL0     H28271   9.953   0.873   5.795 -0.8730 -1.9057  0.2037
  930MOL0     H28272  10.075   0.861   5.574 -0.0567 -0.2959  0.2697
  930MOL0     H28273  10.032   0.729   5.221  1.1183  0.0360 -0.7583
  930MOL0     H28274  10.097   0.728   5.377  0.8540 -0.2090 -0.1374
  930MOL0     H28275  10.103   0.948   5.160 -2.3541  0.7824  1.9180
  930MOL0     H28276  10.143   0.995   5.315  1.4285 -0.1241  0.0205
  930MOL0     H28277  10.338   0.843   5.320 -2.4483 -0.0689  0.8639
  930MOL0     H28278  10.299   0.767   5.165  0.2035  0.9873 -0.1060
  930MOL0     H28279  10.303   0.989   5.068 -0.4481 -1.0093 -0.0533
  930MOL0     H28280  10.353   1.057   5.222 -1.0337 -0.9867  1.0724
  930MOL0     H28281  10.558   0.863   5.178  0.6719 -0.0747 -1.5328
  930MOL0     H28282  10.553   1.032   5.123 -1.6976  0.6802  1.1037
  930MOL0     H28283  10.440   0.804   4.969  0.2457 -0.4678  0.4404
  930MOL0     H28284  10.469   0.960   4.901  1.2495 -0.0492 -0.6166
  930MOL0     H28285  10.646   0.794   4.845 -2.9686 -0.1845  0.9940
  930MOL0     H28286  10.705   0.807   5.015  3.4894  0.6300 -1.5149
  930MOL0     H28287  10.693   1.032   4.807 -0.1898  0.9448  0.2522
  930MOL0     H28288  10.749   1.042   4.978 -4.0535  3.6236 -2.2462
  930MOL0     H28289  11.013   0.968   5.012  1.8790 -0.5340  0.1692
  930MOL0     H28290  11.220   0.758   4.891  2.9026  0.7116  1.2178
  930MOL0     H28291  11.269   0.928   4.921  1.2641  1.5750 -2.0289
  930MOL0     H28292  11.262   0.844   4.622  1.2295  1.4968 -1.6927
  930MOL0     H28293  11.340   0.979   4.708  0.8648 -0.8126 -1.9175
  930MOL0     H28294  11.397   0.685   4.711  3.1779 -1.8094 -3.1165
  930MOL0     H28295  11.485   0.807   4.627  2.8709  1.7350  1.6024
  930MOL0     H28296  11.507   0.757   4.927 -1.5779  0.9029  0.7539
  930MOL0     H28297  11.642   0.765   4.805 -0.6867 -2.4856 -0.5291
  930MOL0     H28298  11.679   0.794   5.045 -4.5887  1.0930 -0.2589
  930MOL0     H28299  11.972   0.821   5.229  0.5282  1.1760  0.6205
  930MOL0     H28300  11.829   0.734   5.221  2.3683 -0.6816  1.6290
  930MOL0     H28301  11.833   0.860   5.331  1.4451 -2.3428  1.6817
  930MOL0     H28302  12.130   1.443   5.178  0.4109 -1.0014 -0.8359
  930MOL0     H28303  12.281   1.566   5.314  2.1924  0.2032  1.3042
  930MOL0     H28304  12.489   1.485   5.707 -1.7412  1.5887 -0.8448
  930MOL0     H28305  12.344   1.374   5.724  0.0188 -0.7820 -0.1792
  930MOL0     H28306  12.547   1.236   5.708 -1.4201  1.5596  1.2200
  930MOL0     H28307  12.451   1.225   5.556 -2.3878  1.0377 -0.6630
  930MOL0     H28308  12.689   1.417   5.625 -1.4146 -2.2006  3.6061
  930MOL0     H28309  12.589   1.418   5.466  1.6484 -1.4241 -2.1925
  930MOL0     H28310  12.683   1.222   5.386 -4.9919  1.7862  1.4933
  930MOL0     H28311  12.735   1.172   5.542 -0.6870 -0.8040 -0.6273
  930MOL0     H28312  12.855   1.418   5.425  3.3550 -0.0133 -0.5060
  930MOL0     H28313  12.914   1.309   5.554 -1.9547 -0.7000 -0.0924
  930MOL0     H28314  12.893   1.246   5.255  0.5814  0.4684  0.7060
  930MOL0     H28315  12.898   1.127   5.358  0.9335  0.1477 -0.2804
  930MOL0     H28316  13.128   1.183   5.460 -0.4496 -1.3345  0.1245
  930MOL0     H28317  13.144   1.318   5.360  0.4418 -0.2784  3.0654
  930MOL0     H28318  13.082   1.185   5.149  0.0966  0.7805  0.6702
  930MOL0     H28319  13.121   1.038   5.236 -1.2586 -0.1989 -1.7639
  930MOL0     H28320  12.185   1.268   5.621 -0.9601 -2.4489 -1.7838
  930MOL0     H28321  12.022   1.181   5.495 -1.3937  1.9332  2.9631
  930MOL0     H28322  11.809   1.269   5.025 -0.9139  1.4657  0.8584
  930MOL0     H28323  11.612   1.180   4.898  1.0735  1.4120 -0.3096
  930MOL0     H28324   9.684   0.906   5.385 -1.3426  0.6766 -0.1998
  930MOL0     H28325   9.585   0.958   5.600 -0.5206 -1.5797 -0.1333
  930MOL0     H28326   9.641   1.094   6.023  1.8184  0.5819  2.0633
  930MOL0     H28327   9.543   1.153   6.236  2.2840  0.7552 -0.1993
  930MOL0     H28328   9.492   0.970   6.637  2.2202 -1.2392  1.9155
  930MOL0     H28329   9.600   0.876   6.542  0.7516 -0.1896 -0.1916
  930MOL0     H28330   9.620   1.181   6.534  0.2018  0.6297 -0.3836
  930MOL0     H28331   9.730   1.060   6.469 -0.9068  1.0762 -0.5713
  930MOL0     H28332   9.655   1.067   6.782  2.2098 -3.5667  1.4193
  930MOL0     H28333   9.789   0.998   6.707  1.5642 -0.2773 -1.0687
  930MOL0     H28334   9.853   1.203   6.810 -1.4136 -1.0496  0.5065
  930MOL0     H28335   9.743   1.284   6.700 -3.5249 -2.9753 -0.3532
  930MOL0     H28336  10.116   1.193   6.502  1.0253  0.6558  1.4022
  930MOL0     H28337   9.544   0.748   6.356 -1.4090 -0.1588 -2.2599
  930MOL0     H28338   9.601   0.578   6.249  1.8325 -1.2541  0.2320
  930MOL0     H28339   9.539   0.598   6.081  0.7907  2.4775 -2.3121
  930MOL0     H28340   9.707   0.597   6.112 -2.2855 -2.2069 -3.8012
  931MOL0     O28341   8.160   0.107   8.061 -0.6823 -0.2698  0.1469
  931MOL0     C28342   8.111   0.036   7.977  0.7752 -0.7973 -0.8529
  931MOL0     O28343   8.170  -0.022   7.869  0.1784 -0.0485 -0.0724
  931MOL0     C28344   8.273   0.036   7.797 -0.0840 -0.0169 -0.3650
  931MOL0     C28345   8.316   0.172   7.809 -0.2231  1.0569 -0.4567
  931MOL0     C28346   8.414   0.232   7.722  1.1206 -0.4983 -0.1371
  931MOL0     C28347   8.497   0.152   7.647  0.4253  0.1916  0.5800
  931MOL0     O28348   8.599   0.217   7.594  0.3432  0.0428 -0.3512
  931MOL0     C28349   8.713   0.146   7.547 -0.5778 -0.2739  0.8559
  931MOL0     C28350   8.824   0.243   7.503  0.0494  0.3628  0.4155
  931MOL0     C28351   8.956   0.153   7.468  0.3908  0.0714  0.4732
  931MOL0     C28352   9.084   0.236   7.455 -0.1209  0.0506 -0.4560
  931MOL0     C28353   9.207   0.154   7.407  0.1872 -0.2012 -0.0976
  931MOL0     C28354   9.229   0.019   7.469 -0.7028 -0.9762  0.2760
  931MOL0     C28355   9.368  -0.027   7.421  1.0822 -0.1771 -0.5343
  931MOL0     C28356   9.393  -0.177   7.459 -0.0151 -0.1818  0.3767
  931MOL0     N28357   9.523  -0.229   7.404 -0.1176  0.0089 -0.1931
  931MOL0     C28358   9.528  -0.323   7.305 -0.2941  0.1343 -0.4222
  931MOL0     C28359   9.656  -0.369   7.297  0.2072  0.0230  0.0828
  931MOL0     C28360   9.709  -0.477   7.213 -0.2336  0.1999 -0.3233
  931MOL0     C28361   9.739  -0.427   7.064 -0.2017 -0.2024 -0.6000
  931MOL0     C28362   9.772  -0.557   6.984 -0.4597 -0.1549  0.0156
  931MOL0     C28363   9.852  -0.516   6.853 -0.0406 -0.4117  0.5538
  931MOL0     O28364   9.877  -0.643   6.789 -0.5346 -0.0237  0.0715
  931MOL0     C28365   9.953  -0.647   6.673 -0.3485 -0.7201 -0.2336
  931MOL0     C28366   9.987  -0.774   6.628 -0.0820 -1.0903  0.5936
  931MOL0     C28367  10.081  -0.787   6.518 -0.2825  0.2779  0.2902
  931MOL0     C28368  10.118  -0.920   6.475  0.5518  0.2216 -0.4220
  931MOL0     C28369  10.140  -0.673   6.459 -0.1950 -0.3307 -0.5770
  931MOL0     C28370  10.241  -0.676   6.349 -0.2178  0.1468  0.0627
  931MOL0     O28371  10.323  -0.570   6.343  0.4742 -0.5131 -0.2630
  931MOL0     C28372  10.400  -0.549   6.225  0.3615  0.3093 -1.2411
  931MOL0     C28373  10.357  -0.487   6.108 -0.6412 -0.0167  0.1349
  931MOL0     C28374  10.445  -0.473   6.002 -0.7684  0.4702 -0.2316
  931MOL0     C28375  10.582  -0.508   6.012 -0.0592  0.1992  0.1329
  931MOL0     O28376  10.662  -0.493   5.906 -1.0597  0.6782  0.2347
  931MOL0     C28377  10.808  -0.519   5.925  0.5728 -0.3705  0.3470
  931MOL0     C28378  10.880  -0.506   5.780 -0.5326 -0.2229  0.6121
  931MOL0     C28379  11.030  -0.495   5.796 -0.0722  0.2212 -0.2121
  931MOL0     C28380  11.092  -0.504   5.661 -0.5718  0.2592  1.0338
  931MOL0     C28381  11.252  -0.512   5.661  0.4642  0.3276  0.0299
  931MOL0     C28382  11.300  -0.495   5.514  0.0170 -0.1500  0.0514
  931MOL0     C28383  11.450  -0.452   5.502  1.3441  0.9941 -0.2965
  931MOL0     C28384  11.499  -0.429   5.355 -0.2040  0.3806  0.8528
  931MOL0    Cl28385  11.493  -0.591   5.277  0.0858  0.3717  0.1725
  931MOL0     C28386  10.629  -0.566   6.130  1.3812  0.1410  0.1043
  931MOL0     C28387  10.531  -0.579   6.238 -0.4073 -0.4208 -0.5569
  931MOL0     O28388  10.253  -0.768   6.270  0.1432  0.7570  0.6818
  931MOL0     C28389  10.103  -0.542   6.507  0.4677  0.2054 -0.1072
  931MOL0     C28390  10.018  -0.535   6.622 -0.6381 -0.0400 -0.2403
  931MOL0     N28391   9.724  -0.307   7.406  0.0202 -0.0991  0.8537
  931MOL0     N28392   9.652  -0.215   7.460  0.9400 -0.1760  0.1877
  931MOL0     C28393   8.472   0.009   7.651 -0.3750  0.7207  0.5989
  931MOL0     C28394   8.356  -0.041   7.720 -0.5583  0.4160  0.7789
  931MOL0     C28395   7.971   0.005   8.004 -0.1643 -0.6620  0.1754
  931MOL0     C28396   7.913   0.051   8.131  0.9552 -1.5911  0.6069
  931MOL0     C28397   7.772   0.029   8.160 -0.5983  0.4782 -0.5046
  931MOL0     C28398   7.690  -0.023   8.060  0.0069 -0.3073 -0.4749
  931MOL0     O28399   7.554  -0.057   8.072 -0.4180 -0.5280 -0.1813
  931MOL0     C28400   7.484   0.024   8.163 -0.5515  0.0729  0.1956
  931MOL0     C28401   7.334   0.006   8.140  0.5900  0.2564  0.0431
  931MOL0     C28402   7.284   0.059   8.000  0.0208 -0.1698 -0.6902
  931MOL0     C28403   7.126   0.055   7.994 -1.0534 -0.4251  0.4120
  931MOL0     C28404   7.052   0.122   8.104  0.3858  0.1774  0.4221
  931MOL0     C28405   6.987   0.187   8.183 -0.1650 -0.8505 -1.2769
  931MOL0     C28406   7.751  -0.072   7.942 -0.3071  0.3860 -0.1099
  931MOL0     C28407   7.888  -0.061   7.913 -0.5550 -0.1056  0.8259
  931MOL0     C28408   7.940  -0.134   7.794  0.4522 -0.0763 -0.2018
  931MOL0     H28409   8.269   0.244   7.877 -2.4775  0.7574 -1.5987
  931MOL0     H28410   8.437   0.338   7.722  1.0714 -0.3968 -3.0084
  931MOL0     H28411   8.683   0.088   7.459 -2.8832  2.4715 -0.3497
  931MOL0     H28412   8.755   0.079   7.623 -0.0126  0.2491  1.0069
  931MOL0     H28413   8.791   0.303   7.418  0.9187  3.2715  1.9883
  931MOL0     H28414   8.843   0.319   7.579 -2.3601 -0.1920  1.6905
  931MOL0     H28415   8.963   0.074   7.543 -1.2090  0.2800  0.8871
  931MOL0     H28416   8.928   0.114   7.370 -1.6205 -1.5661  1.6192
  931MOL0     H28417   9.063   0.318   7.385  0.8578 -1.0653 -2.1460
  931MOL0     H28418   9.110   0.281   7.551  0.1222 -2.1097  0.5617
  931MOL0     H28419   9.289   0.227   7.414  1.3508 -1.1991 -2.3391
  931MOL0     H28420   9.186   0.151   7.299 -2.0194  3.5651  0.0237
  931MOL0     H28421   9.240   0.038   7.577  0.3412  0.3683 -0.0305
  931MOL0     H28422   9.144  -0.044   7.442 -1.4140 -0.9444  2.2091
  931MOL0     H28423   9.447   0.036   7.463  2.4369 -2.0828 -0.0793
  931MOL0     H28424   9.359  -0.009   7.313 -5.2065  1.5925 -0.1061
  931MOL0     H28425   9.387  -0.190   7.567 -1.6354 -2.1870  0.0982
  931MOL0     H28426   9.315  -0.244   7.422 -0.8151  0.9743 -0.0895
  931MOL0     H28427   9.449  -0.358   7.239  1.1938  1.6738 -3.2294
  931MOL0     H28428   9.645  -0.565   7.219 -0.1693  0.2017  0.5741
  931MOL0     H28429   9.803  -0.513   7.254  0.4491  0.0166 -1.9859
  931MOL0     H28430   9.645  -0.382   7.029 -1.2025 -0.1635  1.9436
  931MOL0     H28431   9.813  -0.347   7.056 -2.0490  1.8200  1.1797
  931MOL0     H28432   9.833  -0.621   7.049 -2.2070  0.3567  2.2708
  931MOL0     H28433   9.683  -0.609   6.949 -0.7169  0.6293 -0.5128
  931MOL0     H28434   9.789  -0.451   6.792  0.2786  1.9130  2.5779
  931MOL0     H28435   9.943  -0.467   6.886  1.1153 -1.7281 -0.5413
  931MOL0     H28436   9.949  -0.862   6.680  0.2827  0.1183  3.0494
  931MOL0     H28437  10.225  -0.937   6.467  0.5785  0.9673 -2.3394
  931MOL0     H28438  10.072  -0.934   6.376 -2.2474 -2.0634  1.0681
  931MOL0     H28439  10.065  -1.001   6.526 -2.0854  1.5520 -0.8600
  931MOL0     H28440  10.260  -0.439   6.101 -0.1334  1.1827  1.1078
  931MOL0     H28441  10.402  -0.431   5.912  2.0567 -0.5186 -2.1756
  931MOL0     H28442  10.849  -0.443   5.992  1.1318  0.2137 -0.6530
  931MOL0     H28443  10.836  -0.611   5.978  1.3093  1.3691  3.1869
  931MOL0     H28444  10.864  -0.600   5.726 -1.0465  1.7340 -2.9287
  931MOL0     H28445  10.845  -0.419   5.724 -0.1750 -0.7395 -0.4344
  931MOL0     H28446  11.067  -0.574   5.862 -1.2943  0.9792  1.4491
  931MOL0     H28447  11.059  -0.399   5.841  1.2263 -0.2067 -0.0812
  931MOL0     H28448  11.062  -0.417   5.601  0.1156 -1.4859 -2.0444
  931MOL0     H28449  11.053  -0.591   5.607 -0.2457 -0.5893  2.1244
  931MOL0     H28450  11.301  -0.435   5.722  2.5832  0.5824 -1.8587
  931MOL0     H28451  11.277  -0.610   5.701  2.6377  1.3689  1.4812
  931MOL0     H28452  11.253  -0.406   5.471 -1.3264 -0.4802  0.7824
  931MOL0     H28453  11.293  -0.590   5.459 -0.0112  0.9955 -2.0223
  931MOL0     H28454  11.514  -0.526   5.551  1.6702  1.6671  0.3082
  931MOL0     H28455  11.450  -0.359   5.560 -2.4784 -0.0941  1.7974
  931MOL0     H28456  11.598  -0.384   5.343 -0.5980  1.6529  2.0681
  931MOL0     H28457  11.436  -0.359   5.299  0.1281 -2.5065 -3.6845
  931MOL0     H28458  10.734  -0.566   6.156  1.2901 -0.3210  0.5003
  931MOL0     H28459  10.573  -0.610   6.333  1.9427  1.8482 -0.7541
  931MOL0     H28460  10.153  -0.457   6.463  0.9670 -0.8628 -1.7348
  931MOL0     H28461  10.013  -0.436   6.666  1.4562 -0.0717  0.1768
  931MOL0     H28462   8.539  -0.057   7.597 -1.5939 -1.8191  2.0111
  931MOL0     H28463   8.328  -0.146   7.713 -0.5486  0.5082 -2.0505
  931MOL0     H28464   7.961   0.111   8.208  0.5847  0.8885 -0.9818
  931MOL0     H28465   7.738   0.056   8.260  1.4519  0.8197  0.1526
  931MOL0     H28466   7.511  -0.000   8.266 -2.1582  0.9316  0.8492
  931MOL0     H28467   7.504   0.131   8.154  2.1490  0.5690  6.5027
  931MOL0     H28468   7.282   0.063   8.218 -0.8148  0.7331 -1.1778
  931MOL0     H28469   7.312  -0.100   8.157 -1.3516  0.4143 -1.1166
  931MOL0     H28470   7.321   0.160   7.982  1.1125 -0.6350 -1.1787
  931MOL0     H28471   7.324   0.000   7.917  1.1761 -1.6393  0.8283
  931MOL0     H28472   7.097  -0.051   7.986  1.2708 -1.2008  1.1803
  931MOL0     H28473   7.092   0.096   7.898 -0.8582 -0.7613  0.1950
  931MOL0     H28474   6.930   0.239   8.257 -0.9894 -2.3430 -0.8184
  931MOL0     H28475   7.693  -0.115   7.862  2.9756  2.0988 -3.7501
  931MOL0     H28476   8.013  -0.210   7.826  1.2201  0.4056 -0.7727
  931MOL0     H28477   7.863  -0.180   7.732  0.7965  0.0369 -0.7195
  931MOL0     H28478   7.995  -0.073   7.722  1.1760 -1.8615 -1.2422
  932MOL0     O28479   3.249   7.201   9.421 -0.6255 -0.1870 -0.6255
  932MOL0     C28480   3.158   7.272   9.390 -0.0099  1.0770  0.1465
  932MOL0     O28481   3.161   7.404   9.363  0.6190 -0.1243  0.7490
  932MOL0     C28482   3.263   7.493   9.387  0.9248  0.2352  0.4739
  932MOL0     C28483   3.227   7.618   9.430  0.0995 -0.8739 -0.5756
  932MOL0     C28484   3.311   7.711   9.502 -0.7133 -0.5533  0.5060
  932MOL0     C28485   3.456   7.676   9.510  0.3692  0.3283 -0.4836
  932MOL0     O28486   3.545   7.779   9.555  0.5507  0.6192 -0.1318
  932MOL0     C28487   3.680   7.769   9.507  0.6767 -0.8412 -1.0735
  932MOL0     C28488   3.756   7.906   9.529  0.6738  1.3348 -0.1555
  932MOL0     C28489   3.904   7.898   9.498  0.3484  0.1618  0.1008
  932MOL0     C28490   3.946   7.951   9.357  0.1896  0.2760  0.0565
  932MOL0     C28491   4.088   7.957   9.339 -0.1241  1.1675  0.2607
  932MOL0     C28492   4.160   8.087   9.381 -0.1318 -0.6507  1.5519
  932MOL0     C28493   4.282   8.117   9.284 -0.6926 -0.1885 -0.8491
  932MOL0     C28494   4.342   8.250   9.329 -0.4416  0.5662 -0.5652
  932MOL0     N28495   4.422   8.246   9.454 -0.4143 -0.3719  0.1831
  932MOL0     C28496   4.359   8.258   9.575  0.2805 -0.1345 -0.3159
  932MOL0     C28497   4.458   8.281   9.662 -0.4184 -0.2694 -0.0048
  932MOL0     C28498   4.441   8.333   9.796 -1.0081 -0.6233 -0.2451
  932MOL0     C28499   4.359   8.238   9.881  0.0816 -0.5490  0.4503
  932MOL0     C28500   4.361   8.291  10.024  0.4557 -1.2751 -0.3412
  932MOL0     C28501   4.287   8.196  10.114 -0.5086  0.4375 -0.3833
  932MOL0     O28502   4.361   8.077  10.155  0.3477 -0.1330  0.1728
  932MOL0     C28503   4.308   7.987  10.248 -0.4763  0.0856 -0.6496
  932MOL0     C28504   4.384   7.871  10.280  0.2110  0.0581 -0.2744
  932MOL0     C28505   4.347   7.786  10.382 -0.1634  0.5726 -0.4143
  932MOL0     C28506   4.431   7.669  10.410 -0.9934 -0.1696  0.4816
  932MOL0     C28507   4.233   7.818  10.468  0.7291 -0.0809  0.6887
  932MOL0     C28508   4.206   7.748  10.593 -0.1324  0.5205  0.2600
  932MOL0     O28509   4.083   7.751  10.648  0.6680 -0.3930 -0.2847
  932MOL0     C28510   4.029   7.649  10.715 -0.4063 -0.0794  0.2626
  932MOL0     C28511   4.086   7.584  10.826 -1.0561  0.1986 -0.1534
  932MOL0     C28512   4.035   7.465  10.879  0.1450  0.9331 -0.1683
  932MOL0     C28513   3.905   7.413  10.836 -0.2756  0.2693  0.4962
  932MOL0     O28514   3.842   7.304  10.883 -0.1977  0.3457  0.6139
  932MOL0     C28515   3.885   7.228  11.004  0.3916 -0.6119  0.1165
  932MOL0     C28516   3.773   7.222  11.111  0.7139  0.0358  1.2848
  932MOL0     C28517   3.711   7.089  11.130  0.4804 -0.1774  0.4065
  932MOL0     C28518   3.590   7.066  11.034 -0.2183  0.9787  0.2189
  932MOL0     C28519   3.490   6.970  11.098 -0.4708 -0.0259 -0.4874
  932MOL0     C28520   3.357   6.971  11.027  0.7749 -0.4754 -0.4415
  932MOL0     C28521   3.285   6.835  11.041  0.3105  0.4079  0.3101
  932MOL0     C28522   3.154   6.852  10.968  0.3272  0.2603  0.4445
  932MOL0    Cl28523   3.053   6.996  11.024 -0.2525 -0.4850 -0.5811
  932MOL0     C28524   3.840   7.492  10.739  0.3294  0.8058 -0.5349
  932MOL0     C28525   3.896   7.606  10.682  0.1009 -0.3239 -0.7217
  932MOL0     O28526   4.297   7.685  10.643 -0.1975  0.2951 -0.9919
  932MOL0     C28527   4.150   7.926  10.418 -0.4450 -0.9423  0.5263
  932MOL0     C28528   4.192   8.012  10.314  0.1713 -0.2448 -0.8980
  932MOL0     N28529   4.574   8.262   9.587  0.6116  0.6856  0.8220
  932MOL0     N28530   4.556   8.247   9.457  1.1122  0.3522  0.2823
  932MOL0     C28531   3.498   7.542   9.468  0.5988 -0.4315  0.0560
  932MOL0     C28532   3.403   7.464   9.402 -0.7561  0.4301 -1.3975
  932MOL0     C28533   3.021   7.207   9.387  0.3707  0.2781 -0.3500
  932MOL0     C28534   2.987   7.132   9.501  0.0272  0.4101 -0.1523
  932MOL0     C28535   2.859   7.086   9.514  0.8573  0.4056  0.3198
  932MOL0     C28536   2.762   7.098   9.408 -0.2900 -0.5177  0.2014
  932MOL0     O28537   2.634   7.045   9.420  0.0642 -0.2406 -0.0811
  932MOL0     C28538   2.609   6.936   9.498 -1.0452 -0.0739 -0.7559
  932MOL0     C28539   2.477   6.868   9.471  1.1158  0.0190  0.0339
  932MOL0     C28540   2.452   6.820   9.334 -0.2352  0.1233 -0.7548
  932MOL0     C28541   2.314   6.761   9.307  0.6219  0.2937 -0.1053
  932MOL0     C28542   2.305   6.702   9.176 -0.3060 -0.3009  0.6748
  932MOL0     C28543   2.298   6.647   9.070  0.0414 -0.2275  1.0235
  932MOL0     C28544   2.792   7.180   9.296 -0.5372 -1.0912 -0.7036
  932MOL0     C28545   2.930   7.227   9.286  0.6443  0.9859  0.0898
  932MOL0     C28546   2.961   7.294   9.153  0.2039  0.2594  0.4400
  932MOL0     H28547   3.121   7.643   9.425  0.0509 -0.9195  0.1105
  932MOL0     H28548   3.272   7.805   9.540  0.3297  0.1309 -0.0917
  932MOL0     H28549   3.672   7.753   9.400  1.5495 -0.1069 -1.2630
  932MOL0     H28550   3.740   7.688   9.550  0.3185 -0.0913  0.9998
  932MOL0     H28551   3.721   7.979   9.456  1.6630  1.7366 -0.2381
  932MOL0     H28552   3.740   7.950   9.628 -0.1308  1.8789 -0.5229
  932MOL0     H28553   3.956   7.953   9.576 -0.3431  0.5008  0.3264
  932MOL0     H28554   3.945   7.797   9.503  3.2289  0.9185 -3.7372
  932MOL0     H28555   3.895   7.886   9.285 -2.3643 -0.9159  2.7084
  932MOL0     H28556   3.918   8.055   9.335  1.4687  0.5780 -0.2006
  932MOL0     H28557   4.104   7.933   9.234  0.8880  0.0599  0.6502
  932MOL0     H28558   4.140   7.884   9.401 -0.0456 -0.2402 -1.4025
  932MOL0     H28559   4.093   8.172   9.367 -0.1207 -1.0942 -2.4457
  932MOL0     H28560   4.190   8.084   9.486  2.8128 -0.4138  0.8137
  932MOL0     H28561   4.237   8.135   9.186 -4.6566 -1.7028  0.4966
  932MOL0     H28562   4.351   8.033   9.280 -1.2793 -0.7788  0.5989
  932MOL0     H28563   4.412   8.292   9.256  4.1261 -1.3263  2.2971
  932MOL0     H28564   4.268   8.330   9.321 -0.4085  0.5064 -1.7353
  932MOL0     H28565   4.253   8.263   9.599  0.5554  0.3166  0.8808
  932MOL0     H28566   4.403   8.435   9.807 -0.1485 -0.1263 -1.6357
  932MOL0     H28567   4.546   8.334   9.827 -0.1816 -5.4272 -1.9961
  932MOL0     H28568   4.255   8.233   9.849 -0.1959  0.1697  1.2120
  932MOL0     H28569   4.400   8.138   9.891 -0.1789 -0.9240 -1.7589
  932MOL0     H28570   4.465   8.302  10.057  1.3886  0.0361 -3.3820
  932MOL0     H28571   4.290   8.374  10.036 -2.1575 -3.2718 -1.0754
  932MOL0     H28572   4.269   8.242  10.211  0.4054 -0.3608  0.1879
  932MOL0     H28573   4.196   8.152  10.071 -0.3341  1.7837 -2.2474
  932MOL0     H28574   4.470   7.847  10.219  1.9377 -2.2944  2.7669
  932MOL0     H28575   4.503   7.688  10.490 -1.5052 -1.8751  1.4024
  932MOL0     H28576   4.477   7.632  10.317 -0.0431  1.7879  0.1030
  932MOL0     H28577   4.378   7.583  10.451 -0.9531 -0.4623 -0.0704
  932MOL0     H28578   4.177   7.619  10.872 -0.4315 -1.1158 -0.3271
  932MOL0     H28579   4.096   7.412  10.952 -2.1096 -1.1650  0.3358
  932MOL0     H28580   3.932   7.130  10.991 -0.5237 -1.2846  1.6486
  932MOL0     H28581   3.965   7.284  11.053  1.4485 -1.9255 -0.0585
  932MOL0     H28582   3.826   7.239  11.205  0.5187 -3.0043  2.0421
  932MOL0     H28583   3.691   7.293  11.094  0.0095 -1.1476 -0.5332
  932MOL0     H28584   3.684   7.086  11.236 -1.7494 -1.7980 -0.1261
  932MOL0     H28585   3.790   7.014  11.121  0.8330  0.1620  0.6406
  932MOL0     H28586   3.636   7.014  10.950  1.7588  0.6345  1.4520
  932MOL0     H28587   3.545   7.160  11.001  0.0970  0.9002 -0.4488
  932MOL0     H28588   3.534   6.870  11.088  1.8303  0.8451  0.5594
  932MOL0     H28589   3.471   6.990  11.203 -1.5698  1.1813 -0.8894
  932MOL0     H28590   3.380   6.994  10.923  0.1630 -1.6680 -0.8654
  932MOL0     H28591   3.292   7.049  11.068  0.9261 -1.3076  1.5197
  932MOL0     H28592   3.274   6.800  11.144 -2.5732 -0.7406 -0.2921
  932MOL0     H28593   3.343   6.760  10.985  0.4250  1.7107 -1.3805
  932MOL0     H28594   3.093   6.763  10.989  0.4042  0.4545  1.5265
  932MOL0     H28595   3.170   6.870  10.861  2.8306  2.6379  1.1103
  932MOL0     H28596   3.736   7.467  10.719  0.7003 -0.0177 -1.5030
  932MOL0     H28597   3.823   7.663  10.627 -0.5428 -3.1190 -2.9849
  932MOL0     H28598   4.068   7.952  10.485 -0.3332  0.5866  0.1105
  932MOL0     H28599   4.126   8.097  10.303  1.0527  0.3262 -2.0177
  932MOL0     H28600   3.600   7.506   9.482  1.9911  2.3748 -1.9826
  932MOL0     H28601   3.430   7.367   9.360  0.8443 -1.3574  3.1128
  932MOL0     H28602   3.044   7.125   9.593 -2.6724  0.0102  1.5842
  932MOL0     H28603   2.820   7.053   9.610 -3.3933  2.6896 -0.3724
  932MOL0     H28604   2.690   6.864   9.483 -1.3545 -0.9075  1.1737
  932MOL0     H28605   2.608   6.973   9.602  1.2786  0.3444 -0.8357
  932MOL0     H28606   2.391   6.929   9.501  0.2882 -1.7338  1.4362
  932MOL0     H28607   2.462   6.784   9.539  0.2261  0.5341  0.4793
  932MOL0     H28608   2.468   6.892   9.254  1.3223  0.3878 -0.2478
  932MOL0     H28609   2.525   6.740   9.318  0.4840  0.6668 -0.2923
  932MOL0     H28610   2.235   6.835   9.319 -0.3850 -1.2195  4.1902
  932MOL0     H28611   2.292   6.684   9.381 -1.7628 -0.8397 -1.8999
  932MOL0     H28612   2.290   6.621   8.966 -0.0158  1.7689  0.4870
  932MOL0     H28613   2.720   7.189   9.215 -1.8421  3.6670  0.6382
  932MOL0     H28614   3.039   7.368   9.170 -2.6355  3.4580  0.5661
  932MOL0     H28615   2.985   7.227   9.070 -1.5291  1.5663 -1.2204
  932MOL0     H28616   2.874   7.355   9.125  0.7916  0.5097 -0.9497
  933MOL0     O28617   2.302   7.031   5.672  0.6834 -0.3926  0.4708
  933MOL0     C28618   2.234   6.933   5.683  0.4693 -0.0216  0.8683
  933MOL0     O28619   2.286   6.810   5.693  0.2441  0.2951 -0.5255
  933MOL0     C28620   2.417   6.802   5.721 -0.3218  0.9514 -0.8536
  933MOL0     C28621   2.512   6.779   5.627  0.2539  0.0608 -0.1423
  933MOL0     C28622   2.648   6.773   5.655  0.4016  0.3079  0.5062
  933MOL0     C28623   2.690   6.788   5.785 -0.6602 -1.1134 -0.9290
  933MOL0     O28624   2.822   6.765   5.819 -0.1447 -0.6328  0.5457
  933MOL0     C28625   2.911   6.874   5.799 -0.1065 -0.3747  0.2289
  933MOL0     C28626   3.049   6.806   5.770 -0.1582 -0.2658  0.1392
  933MOL0     C28627   3.164   6.881   5.826 -0.2578 -0.8847 -0.1017
  933MOL0     C28628   3.302   6.835   5.794 -0.2535 -0.2130  0.9361
  933MOL0     C28629   3.404   6.934   5.829 -0.0591  0.3235  0.3060
  933MOL0     C28630   3.544   6.901   5.767 -0.2020  0.5292 -1.0605
  933MOL0     C28631   3.625   6.780   5.826 -0.0812  0.4170 -0.3160
  933MOL0     C28632   3.654   6.793   5.980  0.2098  0.1790  0.9241
  933MOL0     N28633   3.728   6.666   6.032  0.3146  0.2380 -0.1319
  933MOL0     C28634   3.691   6.534   6.065  0.4837  0.0756 -0.1091
  933MOL0     C28635   3.797   6.472   6.113  0.0591  0.7926  0.3563
  933MOL0     C28636   3.794   6.331   6.163 -1.1784 -1.1833  0.8690
  933MOL0     C28637   3.801   6.237   6.032  0.2364 -0.2235  0.8840
  933MOL0     C28638   3.791   6.090   6.072 -0.5964 -0.5258 -0.8211
  933MOL0     C28639   3.653   6.033   6.040  0.5704 -0.1950 -0.0725
  933MOL0     O28640   3.618   6.019   5.897 -0.2593  0.3780 -0.1856
  933MOL0     C28641   3.484   5.996   5.869 -0.4582  0.3784  0.2468
  933MOL0     C28642   3.446   5.961   5.743 -0.2870 -1.4099  0.4410
  933MOL0     C28643   3.307   5.953   5.709 -0.0415  1.0603 -0.0964
  933MOL0     C28644   3.279   5.932   5.556 -0.7336  0.5709  0.2345
  933MOL0     C28645   3.210   5.965   5.802  0.4801  0.7079 -0.1853
  933MOL0     C28646   3.063   5.941   5.776  0.9335  0.4534 -0.1689
  933MOL0     O28647   3.017   5.993   5.657  0.4493 -0.5691 -0.9739
  933MOL0     C28648   2.882   5.967   5.628 -0.7236  0.8230  0.9705
  933MOL0     C28649   2.786   6.071   5.588 -0.8881  0.1104  0.0342
  933MOL0     C28650   2.662   6.035   5.544  0.7318  0.4740  1.1477
  933MOL0     C28651   2.619   5.897   5.531 -0.6952 -0.6370 -0.5071
  933MOL0     O28652   2.496   5.855   5.486  0.1116 -0.1086  0.0013
  933MOL0     C28653   2.398   5.951   5.477  0.1586  0.0018  0.0125
  933MOL0     C28654   2.269   5.882   5.445  0.3185 -0.0932 -0.0917
  933MOL0     C28655   2.145   5.974   5.467  0.1895  0.4510  0.5732
  933MOL0     C28656   2.039   5.969   5.355  1.0665 -0.0308 -0.3614
  933MOL0     C28657   1.946   5.841   5.346  0.8547  0.3033 -0.0617
  933MOL0     C28658   1.830   5.856   5.251  0.4288  0.0888  1.0951
  933MOL0     C28659   1.868   5.881   5.095  0.9198 -0.7890 -0.1628
  933MOL0     C28660   1.970   5.785   5.049 -0.2681 -0.2295 -1.2476
  933MOL0    Cl28661   1.924   5.742   4.872  0.3091 -0.4004 -0.2253
  933MOL0     C28662   2.720   5.799   5.567 -0.0274  0.0916 -0.5376
  933MOL0     C28663   2.848   5.831   5.617 -0.1476  0.3149  0.3002
  933MOL0     O28664   3.002   5.879   5.864  0.4353  0.1053 -0.3009
  933MOL0     C28665   3.247   5.980   5.939 -0.7920  0.5791 -0.1991
  933MOL0     C28666   3.379   5.992   5.970  0.2309  0.6624 -0.1305
  933MOL0     N28667   3.904   6.567   6.116 -0.3586 -0.7536 -0.2065
  933MOL0     N28668   3.861   6.679   6.077 -0.0084 -0.1505  0.0257
  933MOL0     C28669   2.604   6.814   5.891  0.9328 -0.8677 -0.8350
  933MOL0     C28670   2.467   6.815   5.855  0.1924  0.1582  0.8682
  933MOL0     C28671   2.087   6.953   5.634  0.6645  0.5490 -0.1900
  933MOL0     C28672   2.047   7.080   5.583 -0.5098 -0.0325  0.3598
  933MOL0     C28673   1.923   7.117   5.539  0.0035  0.7444 -0.1303
  933MOL0     C28674   1.829   7.015   5.541  0.2983 -0.0677 -0.4233
  933MOL0     O28675   1.702   7.049   5.493  0.3474  0.1314 -0.5205
  933MOL0     C28676   1.601   6.954   5.471  0.3021  0.6287 -0.5297
  933MOL0     C28677   1.485   7.013   5.403  0.2602  0.0751  0.2199
  933MOL0     C28678   1.365   6.919   5.403  0.2101  0.1776  0.0200
  933MOL0     C28679   1.232   6.988   5.433 -0.4568 -0.2872  0.0823
  933MOL0     C28680   1.125   6.900   5.424 -0.0660  0.0283 -0.0355
  933MOL0     C28681   1.046   6.813   5.427  0.2875 -0.6031  0.8252
  933MOL0     C28682   1.853   6.887   5.590  0.2290 -0.0302  0.6832
  933MOL0     C28683   1.981   6.853   5.647  1.3408  0.1750  0.3440
  933MOL0     C28684   1.997   6.712   5.694 -0.3543 -1.0858  0.4072
  933MOL0     H28685   2.466   6.763   5.530 -3.7324  1.6154  1.2688
  933MOL0     H28686   2.723   6.751   5.579  1.7762 -1.1314  2.2099
  933MOL0     H28687   2.914   6.937   5.888  1.0398 -0.0865 -0.0059
  933MOL0     H28688   2.867   6.937   5.721 -0.9320 -0.8456  0.2949
  933MOL0     H28689   3.043   6.708   5.817  2.6340 -0.1934  0.8442
  933MOL0     H28690   3.061   6.787   5.663  1.8544 -4.6450  0.9362
  933MOL0     H28691   3.142   6.980   5.785 -3.3510 -2.3522 -2.3263
  933MOL0     H28692   3.158   6.895   5.935  0.3212 -1.6101  0.0278
  933MOL0     H28693   3.318   6.747   5.857 -0.3411  1.3911  3.3573
  933MOL0     H28694   3.313   6.810   5.688  1.3501  0.1845  0.9735
  933MOL0     H28695   3.415   6.956   5.936  3.6614 -0.3827  0.1960
  933MOL0     H28696   3.374   7.029   5.784  0.0925 -0.3086 -1.1784
  933MOL0     H28697   3.541   6.887   5.658  0.0700 -0.1478 -0.9873
  933MOL0     H28698   3.606   6.989   5.786  0.8145 -0.4358  0.2754
  933MOL0     H28699   3.712   6.763   5.762  0.8352  2.6796  0.2118
  933MOL0     H28700   3.559   6.693   5.818 -0.2401  0.4661  0.4364
  933MOL0     H28701   3.713   6.882   6.006 -0.5606  1.3970 -1.1979
  933MOL0     H28702   3.555   6.796   6.026 -0.0630 -1.7429  0.5381
  933MOL0     H28703   3.592   6.490   6.063  0.4853  0.0905 -1.1363
  933MOL0     H28704   3.703   6.312   6.220 -2.8416  3.0652 -0.0232
  933MOL0     H28705   3.882   6.316   6.227 -1.2566  1.2592  1.6375
  933MOL0     H28706   3.726   6.270   5.961  2.5530 -1.3846 -2.3614
  933MOL0     H28707   3.893   6.259   5.976 -0.4601 -0.7190 -0.4961
  933MOL0     H28708   3.864   6.028   6.019 -0.4942 -3.7158  2.6053
  933MOL0     H28709   3.815   6.078   6.178 -1.9140 -0.0571 -0.4450
  933MOL0     H28710   3.646   5.937   6.091 -0.7429  1.3031  2.8010
  933MOL0     H28711   3.578   6.084   6.100  1.0491  1.2960 -0.6981
  933MOL0     H28712   3.512   5.956   5.657 -0.2533 -1.6930  0.4805
  933MOL0     H28713   3.369   5.882   5.518 -0.1772  1.6395  0.1016
  933MOL0     H28714   3.257   6.026   5.504  0.8988  1.2861  0.7432
  933MOL0     H28715   3.190   5.869   5.546 -1.2758  1.3924 -0.2382
  933MOL0     H28716   2.835   6.168   5.584 -0.3258 -0.1018  1.4704
  933MOL0     H28717   2.597   6.115   5.510  2.6136  0.7594 -2.2451
  933MOL0     H28718   2.387   6.016   5.564  1.5877 -0.4523  0.5625
  933MOL0     H28719   2.423   6.015   5.391  1.7709 -2.8570 -1.8068
  933MOL0     H28720   2.258   5.860   5.339 -3.1397 -0.9368  0.3435
  933MOL0     H28721   2.253   5.789   5.500  0.4836 -1.3006 -2.0168
  933MOL0     H28722   2.191   6.072   5.484  1.8376 -0.4357  1.4239
  933MOL0     H28723   2.097   5.949   5.562  2.0308  1.0087  1.6799
  933MOL0     H28724   2.089   5.970   5.258  0.2561 -0.1684 -0.7947
  933MOL0     H28725   1.990   6.066   5.350  1.2224  0.0458 -0.4091
  933MOL0     H28726   1.998   5.748   5.324 -0.4505 -0.0573 -1.7815
  933MOL0     H28727   1.906   5.817   5.445 -0.3178 -1.2615 -0.8808
  933MOL0     H28728   1.773   5.938   5.294 -0.5535 -0.6312  1.1858
  933MOL0     H28729   1.770   5.766   5.264  0.3547  0.2557  1.9430
  933MOL0     H28730   1.906   5.983   5.084 -0.1205  0.2158  3.7050
  933MOL0     H28731   1.780   5.877   5.030 -0.1017 -0.9578  1.1723
  933MOL0     H28732   1.976   5.691   5.105  1.7461 -0.2029 -1.3208
  933MOL0     H28733   2.069   5.831   5.059 -0.1237 -0.9660  1.3707
  933MOL0     H28734   2.703   5.692   5.562  2.1266 -0.4457  1.7542
  933MOL0     H28735   2.911   5.748   5.648  1.8956  1.3085 -1.0291
  933MOL0     H28736   3.174   5.981   6.019 -0.7868 -0.0392 -0.1801
  933MOL0     H28737   3.404   5.996   6.076  0.7772 -1.8159 -0.1151
  933MOL0     H28738   2.626   6.838   5.994  2.5543  2.1268 -1.7823
  933MOL0     H28739   2.391   6.820   5.933  0.6663 -1.2945  1.4691
  933MOL0     H28740   2.123   7.157   5.586  2.0413 -2.2957 -1.2929
  933MOL0     H28741   1.910   7.213   5.489 -0.6371 -0.5624 -2.6781
  933MOL0     H28742   1.638   6.865   5.419 -1.1237  0.0138 -0.5397
  933MOL0     H28743   1.573   6.903   5.564  2.0294 -1.3787 -1.0278
  933MOL0     H28744   1.507   7.066   5.310 -0.6011 -0.9932 -0.6175
  933MOL0     H28745   1.471   7.097   5.471  2.9812  1.3657 -0.6441
  933MOL0     H28746   1.368   6.873   5.304 -1.1843 -0.5721  0.3011
  933MOL0     H28747   1.389   6.850   5.484  1.9159 -2.6564 -2.6748
  933MOL0     H28748   1.221   7.072   5.364 -0.3868 -0.8100 -0.5822
  933MOL0     H28749   1.232   7.025   5.536 -1.1338 -0.6316  0.2100
  933MOL0     H28750   0.962   6.747   5.419 -0.2171  0.2612 -2.1790
  933MOL0     H28751   1.779   6.807   5.595 -1.6105  1.4649 -0.8924
  933MOL0     H28752   2.031   6.642   5.618  0.1022 -0.5867  0.1416
  933MOL0     H28753   2.068   6.711   5.777 -1.2246 -0.1274  1.2059
  933MOL0     H28754   1.899   6.675   5.727 -1.0267 -0.1552 -0.4464
  934MOL0     O28755   5.602   5.210   4.409 -0.1368 -1.1642 -0.1345
  934MOL0     C28756   5.516   5.256   4.328 -0.7917  0.7116 -0.3115
  934MOL0     O28757   5.552   5.340   4.218  0.1266 -0.1428  0.3859
  934MOL0     C28758   5.679   5.385   4.207 -0.7701 -0.4673 -0.5351
  934MOL0     C28759   5.730   5.381   4.074  0.1988  0.0152 -0.0726
  934MOL0     C28760   5.868   5.400   4.055  0.1895  0.0147 -0.1902
  934MOL0     C28761   5.950   5.426   4.168  0.4833  0.1716 -0.9708
  934MOL0     O28762   6.084   5.434   4.170  0.6890 -0.3164  0.3338
  934MOL0     C28763   6.147   5.425   4.034  1.3472  0.4478  0.8200
  934MOL0     C28764   6.293   5.430   4.058 -0.6635  0.2337 -0.2534
  934MOL0     C28765   6.383   5.437   3.924  0.0400  0.4453  0.1328
  934MOL0     C28766   6.329   5.526   3.813  0.0963 -0.9126 -0.4051
  934MOL0     C28767   6.448   5.580   3.733  0.6444 -1.0600  0.4938
  934MOL0     C28768   6.511   5.462   3.653  0.6332  0.5224  0.5224
  934MOL0     C28769   6.630   5.505   3.567 -0.0630  0.4439 -0.2047
  934MOL0     C28770   6.616   5.610   3.454  0.6462  0.8582 -0.7078
  934MOL0     N28771   6.733   5.625   3.377 -1.0401 -0.1803  0.0990
  934MOL0     C28772   6.830   5.718   3.395 -0.0681 -0.6453 -0.4514
  934MOL0     C28773   6.915   5.704   3.285  0.0576 -0.7909 -1.0405
  934MOL0     C28774   7.050   5.768   3.270  0.1175  0.4999 -0.1378
  934MOL0     C28775   7.063   5.900   3.343 -1.1129 -0.2150 -0.9631
  934MOL0     C28776   7.209   5.948   3.358  0.6270  0.0782  0.4250
  934MOL0     C28777   7.222   6.094   3.411  0.3890  0.3058 -1.3996
  934MOL0     O28778   7.193   6.184   3.300 -0.0073  0.1006 -0.2270
  934MOL0     C28779   7.303   6.252   3.256 -0.2972  0.2090 -0.0412
  934MOL0     C28780   7.345   6.354   3.343  0.0512  0.5660  0.2426
  934MOL0     C28781   7.456   6.433   3.313 -0.4034  0.0279  0.2140
  934MOL0     C28782   7.492   6.540   3.410  1.2484  1.0837  0.7306
  934MOL0     C28783   7.528   6.402   3.194 -0.1544  0.0773 -0.0301
  934MOL0     C28784   7.650   6.477   3.149 -0.2103 -0.2243  0.6578
  934MOL0     O28785   7.721   6.421   3.056 -0.5608  0.1948  0.8553
  934MOL0     C28786   7.846   6.470   3.020  1.0470  0.0195  0.9020
  934MOL0     C28787   7.848   6.599   2.965 -1.5791 -0.2548  0.1656
  934MOL0     C28788   7.972   6.646   2.926 -0.9755  0.1246  0.2282
  934MOL0     C28789   8.086   6.562   2.921  0.4515 -0.8779 -0.2120
  934MOL0     O28790   8.196   6.611   2.859  1.0657  0.5445  0.5127
  934MOL0     C28791   8.334   6.567   2.887 -0.5813 -0.5410 -0.1774
  934MOL0     C28792   8.396   6.453   2.802 -0.4023  0.5400 -0.9352
  934MOL0     C28793   8.550   6.449   2.807  0.1385 -0.6687  1.0079
  934MOL0     C28794   8.615   6.352   2.902 -0.8631  0.2871 -0.1053
  934MOL0     C28795   8.768   6.363   2.878 -0.2995  1.2697  0.5437
  934MOL0     C28796   8.835   6.418   3.006 -1.1145 -0.3113  0.3060
  934MOL0     C28797   8.969   6.495   2.991  0.0454  0.1868 -0.3972
  934MOL0     C28798   9.077   6.414   2.934 -0.3759  0.5181  0.0878
  934MOL0    Cl28799   9.122   6.460   2.769  0.3316 -0.1578  0.2588
  934MOL0     C28800   8.072   6.433   2.968 -0.4473  0.0068 -0.5184
  934MOL0     C28801   7.952   6.382   3.019  0.0188  0.1862  0.2405
  934MOL0     O28802   7.667   6.586   3.190  0.0346 -0.1126 -0.2804
  934MOL0     C28803   7.483   6.299   3.110  0.7150  0.0465  0.3403
  934MOL0     C28804   7.370   6.227   3.141  0.2271 -0.2316  0.7438
  934MOL0     N28805   6.876   5.598   3.212  0.4760 -0.7212 -0.1815
  934MOL0     N28806   6.763   5.557   3.256 -0.1133 -0.3512 -0.7820
  934MOL0     C28807   5.894   5.447   4.294 -0.6632 -0.5294  0.3771
  934MOL0     C28808   5.752   5.432   4.312 -0.1136 -0.0187 -0.2110
  934MOL0     C28809   5.381   5.218   4.366  0.1418 -0.5841 -0.0714
  934MOL0     C28810   5.354   5.076   4.386  0.2536 -0.3665  0.0882
  934MOL0     C28811   5.221   5.030   4.408 -0.0353 -0.6035 -0.1783
  934MOL0     C28812   5.117   5.127   4.417 -0.1244  0.2540  0.0287
  934MOL0     O28813   4.988   5.094   4.441  0.7024  0.1737 -0.9234
  934MOL0     C28814   4.948   4.965   4.487  0.6134 -0.3728 -0.6260
  934MOL0     C28815   4.932   4.859   4.374 -0.7045 -0.5736  0.5184
  934MOL0     C28816   4.801   4.894   4.281 -0.6917  0.0780  0.1317
  934MOL0     C28817   4.667   4.903   4.352 -0.4200 -0.4995 -0.3660
  934MOL0     C28818   4.550   4.949   4.277  0.0482 -0.4996 -0.7690
  934MOL0     C28819   4.449   4.984   4.222 -0.1211  0.3833 -0.2152
  934MOL0     C28820   5.148   5.262   4.407 -0.7833 -1.1060 -0.3404
  934MOL0     C28821   5.275   5.304   4.392 -0.0958 -0.5669  0.4055
  934MOL0     C28822   5.286   5.452   4.382  0.2295 -0.5970 -0.2265
  934MOL0     H28823   5.669   5.346   3.991  0.7109  0.2571 -0.5569
  934MOL0     H28824   5.906   5.393   3.953 -3.6615  1.1920 -1.8725
  934MOL0     H28825   6.118   5.491   3.952 -2.0641  0.5777  1.9832
  934MOL0     H28826   6.119   5.326   3.996 -0.5069  1.7934 -1.6576
  934MOL0     H28827   6.327   5.499   4.136  1.6307 -1.1154  0.0428
  934MOL0     H28828   6.321   5.334   4.101  2.0857  0.7584 -0.6659
  934MOL0     H28829   6.484   5.465   3.957  0.3361  0.9289 -1.1357
  934MOL0     H28830   6.382   5.339   3.876 -0.7231 -0.2028  1.4237
  934MOL0     H28831   6.255   5.470   3.755 -1.2578  1.4548 -1.1026
  934MOL0     H28832   6.275   5.613   3.852  1.7514  0.3238 -0.7594
  934MOL0     H28833   6.513   5.633   3.804 -1.5010 -1.1917  2.7390
  934MOL0     H28834   6.415   5.647   3.653 -1.3075 -2.8843 -0.3395
  934MOL0     H28835   6.555   5.389   3.723  1.8802  1.6878  1.0190
  934MOL0     H28836   6.440   5.400   3.599  0.9727 -0.1591  0.8397
  934MOL0     H28837   6.664   5.410   3.525 -2.4655 -0.1095 -1.0212
  934MOL0     H28838   6.713   5.537   3.632  0.0918 -0.7503  0.2076
  934MOL0     H28839   6.531   5.585   3.390  0.0709  1.3353 -0.1389
  934MOL0     H28840   6.595   5.710   3.492  1.1807  0.9383 -0.6077
  934MOL0     H28841   6.833   5.788   3.477  0.1359  0.0634 -1.0520
  934MOL0     H28842   7.057   5.792   3.163 -3.0294  0.4608 -0.4403
  934MOL0     H28843   7.128   5.700   3.305 -0.1728 -0.2158 -0.8521
  934MOL0     H28844   6.996   5.970   3.292 -0.4740 -0.6704 -2.5089
  934MOL0     H28845   7.031   5.886   3.446  1.2687 -0.7327 -0.2214
  934MOL0     H28846   7.263   5.874   3.418  1.7284 -0.0618 -0.6916
  934MOL0     H28847   7.256   5.948   3.259 -1.0371  0.7079 -0.3846
  934MOL0     H28848   7.136   6.109   3.477 -0.6264 -0.0693 -2.6041
  934MOL0     H28849   7.312   6.100   3.474  0.2725 -2.0078 -0.9090
  934MOL0     H28850   7.304   6.375   3.441 -0.0464 -1.0645  0.5739
  934MOL0     H28851   7.590   6.513   3.449  1.5158  2.1120  0.8027
  934MOL0     H28852   7.416   6.549   3.489 -1.9124  1.3281 -2.0877
  934MOL0     H28853   7.514   6.631   3.352  1.7123  0.0501 -0.7775
  934MOL0     H28854   7.758   6.659   2.970 -0.6452  1.1619  0.4012
  934MOL0     H28855   7.981   6.745   2.881  2.0027 -0.2581 -0.2299
  934MOL0     H28856   8.389   6.661   2.882 -0.7916 -0.4374 -0.6173
  934MOL0     H28857   8.337   6.546   2.994  0.5410  2.0788  0.3730
  934MOL0     H28858   8.362   6.351   2.825  0.9710  0.4022  0.6733
  934MOL0     H28859   8.376   6.485   2.700 -0.7474  1.1497 -0.6802
  934MOL0     H28860   8.594   6.549   2.803 -0.1114 -0.5567 -2.7081
  934MOL0     H28861   8.580   6.416   2.707 -0.1555 -0.7961  0.9607
  934MOL0     H28862   8.578   6.251   2.882  3.5556 -1.4986 -0.5636
  934MOL0     H28863   8.590   6.363   3.008  0.8211 -5.2314  1.2004
  934MOL0     H28864   8.814   6.266   2.861 -1.9127  0.9456 -2.5883
  934MOL0     H28865   8.803   6.410   2.785  3.0917 -1.7911  0.0467
  934MOL0     H28866   8.853   6.338   3.079 -2.5172 -1.6747 -0.7861
  934MOL0     H28867   8.761   6.489   3.042 -0.5769  1.6348 -2.1303
  934MOL0     H28868   9.005   6.517   3.092 -1.1148 -3.9438  1.1137
  934MOL0     H28869   8.952   6.592   2.943  2.7026  1.0550  0.2819
  934MOL0     H28870   9.054   6.308   2.947 -1.1217  0.5135 -1.1454
  934MOL0     H28871   9.169   6.438   2.989 -0.1283  2.3882 -1.0456
  934MOL0     H28872   8.162   6.371   2.964  0.2063  0.9461 -0.7793
  934MOL0     H28873   7.947   6.282   3.060  1.4463  0.0449  0.1282
  934MOL0     H28874   7.525   6.275   3.013 -2.0037  2.0966 -1.4984
  934MOL0     H28875   7.335   6.150   3.073  0.7435  1.7651 -1.9149
  934MOL0     H28876   5.954   5.470   4.382 -0.1659 -0.9121  0.1414
  934MOL0     H28877   5.705   5.443   4.408  0.2266 -4.6280  0.7147
  934MOL0     H28878   5.421   4.992   4.369 -0.5065 -0.6303 -2.0086
  934MOL0     H28879   5.212   4.922   4.399  1.9673 -0.6948 -1.7284
  934MOL0     H28880   5.021   4.929   4.561  0.1463  1.0849  0.6062
  934MOL0     H28881   4.852   4.965   4.539  0.8902  0.7168 -0.0799
  934MOL0     H28882   4.921   4.758   4.413 -1.8785 -0.5037  0.4026
  934MOL0     H28883   5.016   4.867   4.305  1.6406 -4.8239  2.4792
  934MOL0     H28884   4.816   4.988   4.225 -1.3603  1.3626  2.0025
  934MOL0     H28885   4.791   4.825   4.197  2.5302  1.2008 -1.3398
  934MOL0     H28886   4.670   4.977   4.432  1.3079 -0.6923 -0.2099
  934MOL0     H28887   4.638   4.812   4.407 -3.6536  0.5063 -0.1708
  934MOL0     H28888   4.360   5.009   4.168  0.8680  2.5855 -0.9348
  934MOL0     H28889   5.064   5.328   4.424 -0.5718 -0.5179 -1.4749
  934MOL0     H28890   5.386   5.495   4.369 -0.7099  0.8323 -4.4396
  934MOL0     H28891   5.236   5.491   4.293  1.0669  0.0749 -0.4166
  934MOL0     H28892   5.234   5.498   4.466  2.1985  1.8043 -0.2055
  935MOL0     O28893   7.608   0.803   7.841  0.0424  0.2462  0.0107
  935MOL0     C28894   7.573   0.779   7.955 -0.0725 -0.2777  0.4525
  935MOL0     O28895   7.663   0.748   8.050 -0.5915 -0.0273 -0.3742
  935MOL0     C28896   7.800   0.752   8.029  0.6121 -0.0454  0.2150
  935MOL0     C28897   7.841   0.683   7.912  0.4008 -0.6775 -0.0703
  935MOL0     C28898   7.977   0.673   7.891 -0.1553  0.1930 -0.2046
  935MOL0     C28899   8.073   0.712   7.996  0.4900  0.9995  0.2441
  935MOL0     O28900   8.207   0.698   7.975 -0.2283 -1.1311 -0.5421
  935MOL0     C28901   8.261   0.627   7.868  0.0990 -0.2153  0.4911
  935MOL0     C28902   8.414   0.616   7.870  0.6899  0.5551  0.2101
  935MOL0     C28903   8.474   0.584   8.001 -0.5617 -0.2714 -0.5918
  935MOL0     C28904   8.625   0.587   7.994 -0.0919 -0.1320  0.4012
  935MOL0     C28905   8.675   0.730   7.990  0.6505 -0.3905 -0.0131
  935MOL0     C28906   8.827   0.723   8.012 -0.5309 -0.4025 -0.1001
  935MOL0     C28907   8.882   0.868   8.053 -0.3361  0.2243 -0.7416
  935MOL0     C28908   9.040   0.872   8.053  0.2835  0.0347 -0.5157
  935MOL0     N28909   9.110   0.746   8.100  0.0871 -0.0705  0.0424
  935MOL0     C28910   9.237   0.712   8.050  0.9264  0.1922 -0.3756
  935MOL0     C28911   9.282   0.598   8.112  0.2453  0.1943 -0.0610
  935MOL0     C28912   9.412   0.533   8.094  0.3625  0.4924  0.2587
  935MOL0     C28913   9.532   0.615   8.142  0.6692  0.5163  0.6916
  935MOL0     C28914   9.670   0.547   8.148 -1.2017  0.0240  0.3128
  935MOL0     C28915   9.737   0.518   8.014 -0.4655 -0.3596 -0.2502
  935MOL0     O28916   9.751   0.636   7.930 -0.0688  0.3731  0.3380
  935MOL0     C28917   9.815   0.628   7.806 -0.6028 -0.3926 -0.6332
  935MOL0     C28918   9.812   0.740   7.721 -0.3363 -0.1717 -0.4719
  935MOL0     C28919   9.868   0.737   7.597 -0.3264 -0.0522 -0.3308
  935MOL0     C28920   9.865   0.877   7.529 -0.2105  0.5784  0.0543
  935MOL0     C28921   9.916   0.621   7.541  0.3286  0.3260  1.0480
  935MOL0     C28922   9.967   0.609   7.400 -0.7410 -0.4665 -0.2139
  935MOL0     O28923   9.973   0.480   7.358  0.1776 -0.8020  0.4482
  935MOL0     C28924   9.995   0.446   7.222 -1.3043  0.2978  0.1394
  935MOL0     C28925   9.911   0.347   7.168  0.5220  0.0289 -0.0083
  935MOL0     C28926   9.930   0.305   7.036  0.5505  0.5748  0.4700
  935MOL0     C28927  10.034   0.359   6.955 -0.2678  0.6998 -0.3778
  935MOL0     O28928  10.041   0.314   6.830  0.1125 -0.3944  0.4638
  935MOL0     C28929  10.106   0.400   6.732 -0.0014  0.1008  0.7631
  935MOL0     C28930  10.090   0.348   6.592 -0.5592 -1.1900 -0.9381
  935MOL0     C28931  10.174   0.435   6.501  0.3828  1.1980  0.8299
  935MOL0     C28932  10.122   0.431   6.359 -0.5668  0.1443 -0.1971
  935MOL0     C28933  10.122   0.293   6.287 -1.0432 -0.8580  0.6671
  935MOL0     C28934  10.261   0.255   6.226  0.3832  0.6024 -0.5356
  935MOL0     C28935  10.294   0.332   6.098 -0.0804  0.5962  0.6698
  935MOL0     C28936  10.413   0.268   6.036 -0.3733 -0.0831  0.7074
  935MOL0    Cl28937  10.510   0.348   5.910  0.1629  0.2096 -0.1088
  935MOL0     C28938  10.125   0.448   7.016 -0.2929  0.9486  0.8311
  935MOL0     C28939  10.108   0.493   7.149  0.2999  0.2445 -0.8198
  935MOL0     O28940   9.993   0.703   7.332  0.3445 -0.1158  0.3641
  935MOL0     C28941   9.917   0.506   7.624  0.3367  0.1368  0.9735
  935MOL0     C28942   9.852   0.510   7.750 -0.9200 -0.4500  0.5131
  935MOL0     N28943   9.180   0.561   8.204 -0.8524 -0.2745  0.3516
  935MOL0     N28944   9.084   0.652   8.196 -0.2570  1.0859  0.1582
  935MOL0     C28945   8.020   0.782   8.115 -0.6274 -0.4791  0.5002
  935MOL0     C28946   7.882   0.804   8.121 -0.1419  0.4939 -0.3994
  935MOL0     C28947   7.427   0.803   7.984  0.5392  0.2263  0.2195
  935MOL0     C28948   7.329   0.767   7.891 -0.9226  0.0785  0.2277
  935MOL0     C28949   7.192   0.779   7.904  0.2943  0.0246 -0.5246
  935MOL0     C28950   7.136   0.823   8.023 -0.1282  0.1144  0.0017
  935MOL0     O28951   7.007   0.835   8.056 -0.2010 -0.0088  0.0864
  935MOL0     C28952   6.917   0.759   7.975  0.0882  0.2006  0.6840
  935MOL0     C28953   6.778   0.742   8.024  0.7508  0.8756 -0.2928
  935MOL0     C28954   6.703   0.878   8.022  0.0392  0.1391  0.0747
  935MOL0     C28955   6.552   0.856   8.008 -0.4655 -0.5580  0.4570
  935MOL0     C28956   6.479   0.746   8.081  0.0363 -0.6621 -0.6543
  935MOL0     C28957   6.419   0.672   8.149  0.4924 -0.0838  0.1028
  935MOL0     C28958   7.231   0.852   8.125  0.2384 -0.2847  0.7226
  935MOL0     C28959   7.370   0.849   8.103  0.0047 -0.6549 -0.2740
  935MOL0     C28960   7.449   0.892   8.222  0.7618  0.8466  0.2275
  935MOL0     H28961   7.776   0.631   7.842  0.6345 -3.4041  1.5947
  935MOL0     H28962   8.018   0.627   7.802  3.1690 -0.1464  1.3398
  935MOL0     H28963   8.226   0.669   7.773  1.7768  3.1863  1.2245
  935MOL0     H28964   8.228   0.523   7.876  1.0115 -0.5653 -0.1612
  935MOL0     H28965   8.438   0.529   7.809 -1.5665 -1.9210  2.5666
  935MOL0     H28966   8.461   0.709   7.837 -0.0196  1.1302  0.7877
  935MOL0     H28967   8.444   0.663   8.070 -1.5389  0.4504 -1.7869
  935MOL0     H28968   8.439   0.485   8.032 -0.1985  0.5548  2.8739
  935MOL0     H28969   8.662   0.526   8.077 -1.0951  1.3289  1.9946
  935MOL0     H28970   8.660   0.539   7.902 -0.9299 -1.6564  0.8512
  935MOL0     H28971   8.625   0.787   8.069 -1.8956 -0.5428 -1.4431
  935MOL0     H28972   8.660   0.777   7.893 -1.0720 -1.7004 -0.4319
  935MOL0     H28973   8.842   0.653   8.094 -1.1113  2.0218  2.2096
  935MOL0     H28974   8.872   0.683   7.920  0.6873  1.0176 -0.1461
  935MOL0     H28975   8.840   0.881   8.153 -2.7451  0.8498 -1.7473
  935MOL0     H28976   8.842   0.958   8.005 -1.5631  0.9893  1.5560
  935MOL0     H28977   9.082   0.897   7.955  2.3223 -0.3279  0.2059
  935MOL0     H28978   9.073   0.950   8.122  2.7714 -0.0246 -1.5158
  935MOL0     H28979   9.295   0.764   7.975 -0.3636  1.7148 -0.3728
  935MOL0     H28980   9.426   0.488   7.995 -1.9149 -0.8582  0.4851
  935MOL0     H28981   9.414   0.444   8.157  0.1932 -0.4843 -1.0650
  935MOL0     H28982   9.542   0.701   8.075 -1.8023 -0.0285 -0.5009
  935MOL0     H28983   9.502   0.643   8.243 -0.8409 -2.7332  1.2826
  935MOL0     H28984   9.749   0.608   8.192  1.3309 -2.5923 -0.2841
  935MOL0     H28985   9.669   0.456   8.209  3.4974 -1.7033 -1.6997
  935MOL0     H28986   9.835   0.480   8.045 -2.2617 -2.4395  3.6229
  935MOL0     H28987   9.684   0.438   7.962 -2.1835  0.5452  0.0670
  935MOL0     H28988   9.769   0.830   7.762  0.2516 -0.5154  0.9623
  935MOL0     H28989   9.786   0.882   7.454 -0.8112  0.9496  0.6945
  935MOL0     H28990   9.962   0.898   7.482  0.4951 -2.8787 -0.3099
  935MOL0     H28991   9.845   0.958   7.600 -3.3831 -0.0315 -0.0205
  935MOL0     H28992   9.825   0.302   7.216 -0.3032  1.9216  0.4049
  935MOL0     H28993   9.877   0.225   6.985  2.6308 -1.1234  0.8177
  935MOL0     H28994  10.058   0.496   6.751  0.1491 -0.3526  3.9763
  935MOL0     H28995  10.214   0.406   6.749 -0.0429 -1.0833  1.5508
  935MOL0     H28996  10.136   0.248   6.592  0.8163 -0.6456  2.1775
  935MOL0     H28997   9.983   0.347   6.567 -1.6624  1.2534  2.9417
  935MOL0     H28998  10.276   0.398   6.514 -0.0719 -1.1834 -1.4682
  935MOL0     H28999  10.172   0.542   6.525 -0.6605  1.2921  0.4083
  935MOL0     H29000  10.180   0.506   6.304 -2.8871  1.2787 -1.2614
  935MOL0     H29001  10.014   0.447   6.357 -0.6678 -0.5599 -1.8316
  935MOL0     H29002  10.096   0.219   6.364 -2.3389 -0.5401  0.5609
  935MOL0     H29003  10.047   0.286   6.208  1.2352 -1.2381 -1.5954
  935MOL0     H29004  10.258   0.149   6.200 -2.9034 -0.0185  1.7410
  935MOL0     H29005  10.343   0.265   6.297  0.2978 -0.4933 -0.2652
  935MOL0     H29006  10.316   0.438   6.116 -0.1946  0.6188  0.6737
  935MOL0     H29007  10.217   0.320   6.021 -0.1091 -0.0501  0.7965
  935MOL0     H29008  10.391   0.171   5.990 -0.6509  0.3569 -0.1117
  935MOL0     H29009  10.479   0.240   6.118 -0.7548 -2.7468  0.2093
  935MOL0     H29010  10.215   0.470   6.961  1.6134 -0.9072  2.9731
  935MOL0     H29011  10.177   0.546   7.215 -0.6591 -0.3275  0.7096
  935MOL0     H29012   9.962   0.415   7.588  0.5777  0.6135  0.0268
  935MOL0     H29013   9.861   0.417   7.804 -0.0523 -2.1761 -2.3677
  935MOL0     H29014   8.092   0.816   8.189  0.4567  3.0114 -1.9006
  935MOL0     H29015   7.835   0.861   8.201  0.8644  3.2848 -1.6759
  935MOL0     H29016   7.357   0.724   7.796 -3.7161 -2.2723  0.3526
  935MOL0     H29017   7.120   0.752   7.828 -0.6495  0.8014  0.0630
  935MOL0     H29018   6.909   0.808   7.878 -1.6338  0.1125  0.7532
  935MOL0     H29019   6.960   0.662   7.951  0.2070  0.5889 -0.7476
  935MOL0     H29020   6.779   0.704   8.127  1.3256  0.6102 -0.3942
  935MOL0     H29021   6.729   0.662   7.968  1.3700  0.5052 -0.3131
  935MOL0     H29022   6.717   0.933   8.116 -0.2625 -0.3009  0.3827
  935MOL0     H29023   6.738   0.943   7.941  0.6580  0.3166  0.4711
  935MOL0     H29024   6.536   0.853   7.900 -1.3263 -1.9074  0.5968
  935MOL0     H29025   6.504   0.951   8.035  0.5466  1.5545 -4.1452
  935MOL0     H29026   6.356   0.600   8.197  1.0873 -1.6924 -1.3810
  935MOL0     H29027   7.179   0.862   8.220  0.6899 -0.8089  1.0334
  935MOL0     H29028   7.383   0.945   8.292 -0.4994  2.3472 -1.9702
  935MOL0     H29029   7.484   0.799   8.267 -2.1361 -0.7926 -0.6773
  935MOL0     H29030   7.525   0.967   8.198 -0.2160  1.7926 -0.0354
  936MOL0     O29031   1.798   9.598   4.837 -0.0198  1.1140  0.6193
  936MOL0     C29032   1.771   9.498   4.908 -0.3972  0.2334 -0.1700
  936MOL0     O29033   1.864   9.409   4.971  0.2628 -0.3927 -0.1416
  936MOL0     C29034   1.986   9.377   4.923  0.3765  1.1847 -0.8827
  936MOL0     C29035   2.025   9.241   4.933 -1.2040  0.9700 -0.1535
  936MOL0     C29036   2.151   9.206   4.894  0.3725 -0.0946 -0.3510
  936MOL0     C29037   2.240   9.311   4.847 -0.2111  0.1983 -0.2262
  936MOL0     O29038   2.366   9.279   4.798 -0.1791  0.3416 -0.2264
  936MOL0     C29039   2.404   9.136   4.780 -0.8918 -0.2512 -0.1251
  936MOL0     C29040   2.543   9.100   4.732  0.5690 -0.2153 -0.8908
  936MOL0     C29041   2.646   9.200   4.770 -0.6548  0.8028  0.0865
  936MOL0     C29042   2.776   9.167   4.691 -0.2035 -0.8178 -0.0394
  936MOL0     C29043   2.875   9.287   4.676 -0.6108  0.0039 -0.7205
  936MOL0     C29044   2.950   9.331   4.804  0.1782  0.5337  0.2682
  936MOL0     C29045   2.854   9.415   4.896  0.0790  0.6596  0.1007
  936MOL0     C29046   2.923   9.508   4.986 -0.2814 -0.6137 -0.8782
  936MOL0     N29047   2.994   9.435   5.097  0.4046  0.0163 -0.1179
  936MOL0     C29048   2.935   9.334   5.177  0.1464 -0.8358  0.0849
  936MOL0     C29049   3.038   9.281   5.240  0.3877  0.4914 -0.0185
  936MOL0     C29050   3.047   9.163   5.339 -0.2465 -0.5487 -0.7245
  936MOL0     C29051   3.074   9.209   5.488  0.2098 -0.4467 -0.6629
  936MOL0     C29052   3.199   9.279   5.521 -0.7472  0.8089  0.6749
  936MOL0     C29053   3.316   9.176   5.534  0.3541 -0.0620  0.8663
  936MOL0     O29054   3.287   9.103   5.657  0.3609 -0.6919  0.7263
  936MOL0     C29055   3.389   9.044   5.720  0.0204  0.7646 -0.5206
  936MOL0     C29056   3.527   9.051   5.687 -0.4678  0.2217 -0.1753
  936MOL0     C29057   3.618   8.982   5.763  0.2961  0.7161 -0.4806
  936MOL0     C29058   3.766   9.000   5.736 -0.1354 -0.4106  0.7641
  936MOL0     C29059   3.576   8.910   5.875  0.1928  0.0966 -0.2457
  936MOL0     C29060   3.669   8.825   5.968  0.5605 -0.1161  0.2213
  936MOL0     O29061   3.613   8.761   6.070 -0.0695  0.5518  0.2526
  936MOL0     C29062   3.694   8.684   6.153  0.6715  0.7055  0.3964
  936MOL0     C29063   3.686   8.550   6.163 -0.0053 -0.0664 -0.2280
  936MOL0     C29064   3.770   8.479   6.251 -0.3231  0.2465  0.0858
  936MOL0     C29065   3.858   8.544   6.331  0.2386 -0.7863 -0.1904
  936MOL0     O29066   3.940   8.488   6.419 -0.5642  0.0830  0.7823
  936MOL0     C29067   3.997   8.359   6.397  0.5046 -1.0014 -0.0868
  936MOL0     C29068   4.059   8.299   6.523  0.2215 -0.6815 -0.5749
  936MOL0     C29069   3.961   8.279   6.637 -0.8888 -0.3474 -0.0411
  936MOL0     C29070   4.025   8.168   6.723 -0.1108  0.3278 -0.0581
  936MOL0     C29071   3.956   8.164   6.865 -0.0347 -0.0394  0.5877
  936MOL0     C29072   3.811   8.129   6.843 -0.2328 -0.0176  0.1826
  936MOL0     C29073   3.751   8.146   6.983 -0.0407  0.2411 -0.0697
  936MOL0     C29074   3.603   8.100   6.984 -0.4895 -0.1656 -0.1216
  936MOL0    Cl29075   3.548   8.118   7.161 -0.2165  0.1575 -0.1873
  936MOL0     C29076   3.858   8.676   6.324 -0.1527 -0.0493 -0.0147
  936MOL0     C29077   3.772   8.749   6.246 -0.0678  0.0998 -0.3593
  936MOL0     O29078   3.789   8.817   5.945  0.0429 -0.0079  0.3909
  936MOL0     C29079   3.439   8.916   5.918  0.6847 -0.5487 -1.4143
  936MOL0     C29080   3.348   8.977   5.834 -0.2601  1.0181 -0.0156
  936MOL0     N29081   3.155   9.347   5.209  0.7798 -0.3013 -0.0871
  936MOL0     N29082   3.135   9.433   5.119  0.0610 -0.9511  1.1168
  936MOL0     C29083   2.212   9.443   4.849 -0.8065 -0.3380 -0.5036
  936MOL0     C29084   2.083   9.476   4.887  0.7067 -0.4751  0.2161
  936MOL0     C29085   1.635   9.499   4.956 -0.4317 -0.2318 -0.9683
  936MOL0     C29086   1.536   9.510   4.855  0.0051  0.4376  0.5872
  936MOL0     C29087   1.404   9.502   4.879  0.4695  0.3039 -0.6755
  936MOL0     C29088   1.352   9.490   5.007 -0.1023  0.3634 -0.2078
  936MOL0     O29089   1.217   9.477   5.023 -0.2951 -0.0392 -0.8698
  936MOL0     C29090   1.169   9.443   5.154 -0.1556  0.4926 -0.7563
  936MOL0     C29091   1.112   9.565   5.226 -0.2649 -0.8349 -0.5099
  936MOL0     C29092   0.987   9.610   5.148 -0.0019 -0.6634 -0.1251
  936MOL0     C29093   0.939   9.747   5.201 -0.6547 -0.1535  0.0134
  936MOL0     C29094   0.867   9.817   5.096  1.6765  0.5509 -0.2198
  936MOL0     C29095   0.796   9.873   5.020  0.0048  0.3859  0.1647
  936MOL0     C29096   1.450   9.494   5.106  0.7476 -0.2986 -0.1906
  936MOL0     C29097   1.587   9.501   5.086  0.3995 -0.2288 -0.4406
  936MOL0     C29098   1.673   9.504   5.202 -0.5805  0.3450 -0.7162
  936MOL0     H29099   1.953   9.173   4.978 -1.7234  1.3238 -0.4321
  936MOL0     H29100   2.182   9.103   4.906  0.9986  0.1107 -0.1825
  936MOL0     H29101   2.330   9.081   4.721 -1.8487  0.1260  0.7004
  936MOL0     H29102   2.400   9.087   4.878 -1.9729  1.6650  0.8407
  936MOL0     H29103   2.562   9.005   4.783 -0.1598  0.7482  1.2740
  936MOL0     H29104   2.545   9.086   4.623 -3.0039 -1.2046 -0.9516
  936MOL0     H29105   2.613   9.302   4.750  0.0117  1.0243  0.0747
  936MOL0     H29106   2.675   9.199   4.875  1.7919  1.1909 -0.5006
  936MOL0     H29107   2.823   9.077   4.732  0.7550 -0.4961 -0.3903
  936MOL0     H29108   2.752   9.142   4.587  1.1578 -0.2740 -0.5081
  936MOL0     H29109   2.825   9.374   4.634  0.7085  1.8509  1.2974
  936MOL0     H29110   2.955   9.247   4.613  1.3079 -0.5177  1.8453
  936MOL0     H29111   2.975   9.240   4.859  3.7779  1.1327 -0.1538
  936MOL0     H29112   3.040   9.392   4.792 -1.1564  2.0742 -3.0215
  936MOL0     H29113   2.785   9.348   4.947  4.1787 -1.8741  2.8868
  936MOL0     H29114   2.794   9.475   4.827  0.4630  1.4028  0.4103
  936MOL0     H29115   2.995   9.573   4.935 -0.1763  0.6703  0.8354
  936MOL0     H29116   2.840   9.565   5.027 -2.2622 -2.6928 -1.7892
  936MOL0     H29117   2.832   9.299   5.184 -0.4811  1.1715  2.2770
  936MOL0     H29118   3.114   9.083   5.307  0.4945 -0.1493 -0.1861
  936MOL0     H29119   2.946   9.119   5.343 -0.3996 -0.3186 -1.8625
  936MOL0     H29120   2.994   9.279   5.513 -1.2968 -1.5068 -2.2351
  936MOL0     H29121   3.061   9.120   5.550  1.7834 -0.4025 -0.2170
  936MOL0     H29122   3.219   9.348   5.438  1.8346 -1.8479 -1.0901
  936MOL0     H29123   3.184   9.336   5.614 -0.8788 -2.8035  3.0717
  936MOL0     H29124   3.310   9.104   5.451  2.9394  2.2266 -1.5278
  936MOL0     H29125   3.410   9.232   5.537 -0.8130  2.0277  0.6539
  936MOL0     H29126   3.567   9.114   5.608 -0.3152  0.1217 -0.1786
  936MOL0     H29127   3.805   9.038   5.831  0.3035  0.3481  0.2983
  936MOL0     H29128   3.786   9.070   5.654  0.1292 -0.5294  0.7274
  936MOL0     H29129   3.814   8.906   5.709  1.3706  0.2588  1.0103
  936MOL0     H29130   3.627   8.499   6.088 -1.3481  2.9070 -1.3772
  936MOL0     H29131   3.764   8.370   6.251 -0.9655  0.2641  1.3618
  936MOL0     H29132   3.913   8.293   6.376  0.2973 -1.4824  2.0094
  936MOL0     H29133   4.066   8.355   6.312  0.4983  1.1253 -0.2632
  936MOL0     H29134   4.116   8.209   6.498  1.0090 -0.1254 -0.8180
  936MOL0     H29135   4.138   8.362   6.564  1.4810 -1.3764 -1.8501
  936MOL0     H29136   3.862   8.249   6.601 -1.1210  1.5529 -1.1573
  936MOL0     H29137   3.953   8.370   6.697 -0.9013 -1.6385  1.9713
  936MOL0     H29138   4.130   8.186   6.746 -0.8590  2.7663  1.9924
  936MOL0     H29139   4.008   8.072   6.674 -0.9410  0.1240  0.5952
  936MOL0     H29140   4.008   8.095   6.931 -0.1723  1.0250  1.8719
  936MOL0     H29141   3.960   8.258   6.922 -0.3353 -1.1363  2.4756
  936MOL0     H29142   3.799   8.026   6.809  1.5611 -0.3947  0.6302
  936MOL0     H29143   3.748   8.188   6.776 -4.5116 -2.1852  1.8319
  936MOL0     H29144   3.745   8.252   7.011  4.4693  0.6077  0.3908
  936MOL0     H29145   3.807   8.095   7.063 -0.6723 -0.2539  0.0679
  936MOL0     H29146   3.598   7.995   6.954  2.2737 -1.1174  2.2101
  936MOL0     H29147   3.548   8.164   6.914  0.4536  0.0516 -0.6826
  936MOL0     H29148   3.917   8.729   6.398  0.0710  0.2894 -0.4353
  936MOL0     H29149   3.776   8.857   6.260 -1.8463 -0.0524  1.7524
  936MOL0     H29150   3.406   8.869   6.010  0.6460 -2.2392 -2.2575
  936MOL0     H29151   3.242   8.983   5.854 -0.2399  0.9788  0.1070
  936MOL0     H29152   2.289   9.512   4.817  0.9430 -2.7874 -1.9149
  936MOL0     H29153   2.048   9.578   4.884 -0.2894 -0.6935  2.7240
  936MOL0     H29154   1.567   9.510   4.751 -0.7648 -1.8728  0.2992
  936MOL0     H29155   1.337   9.504   4.794  1.9004 -1.3895 -1.9301
  936MOL0     H29156   1.077   9.385   5.145  0.8534 -1.5112  1.0516
  936MOL0     H29157   1.240   9.389   5.218 -0.3994  2.6469  1.5263
  936MOL0     H29158   1.187   9.644   5.231 -0.6776 -0.5356  2.9198
  936MOL0     H29159   1.084   9.532   5.326 -1.3798 -0.5181 -0.6993
  936MOL0     H29160   1.011   9.613   5.041  0.9908 -2.3485  0.0126
  936MOL0     H29161   0.903   9.544   5.167  0.9313 -1.4460  1.5339
  936MOL0     H29162   1.025   9.809   5.231  0.2502 -0.9873 -0.7879
  936MOL0     H29163   0.875   9.733   5.288  2.6465  0.0689  2.6974
  936MOL0     H29164   0.740   9.926   4.946  0.6569 -1.0136 -1.3955
  936MOL0     H29165   1.411   9.505   5.206  1.4966 -0.1040  0.0882
  936MOL0     H29166   1.778   9.492   5.174 -1.1381  0.0308 -2.8474
  936MOL0     H29167   1.647   9.588   5.267 -0.6108  0.6983 -1.1747
  936MOL0     H29168   1.647   9.415   5.261 -4.2205  1.6738 -0.0652
  937MOL0     O29169   8.955   3.586   8.684 -0.7420  0.0208 -0.0469
  937MOL0     C29170   8.887   3.486   8.676  0.4860  1.1798  0.1727
  937MOL0     O29171   8.926   3.368   8.609 -0.1943 -0.1599 -0.5869
  937MOL0     C29172   9.064   3.355   8.588  1.0638 -0.3003 -0.4424
  937MOL0     C29173   9.098   3.301   8.464 -0.1738 -0.4796 -0.5561
  937MOL0     C29174   9.228   3.263   8.436  0.4781  0.2917  1.0588
  937MOL0     C29175   9.335   3.299   8.525  0.2264 -0.1147  0.6562
  937MOL0     O29176   9.462   3.269   8.522 -0.0888 -0.4751  0.0366
  937MOL0     C29177   9.508   3.170   8.428 -0.5967  0.1193  0.1488
  937MOL0     C29178   9.659   3.150   8.437 -0.0620  0.0949 -0.5276
  937MOL0     C29179   9.713   3.064   8.565  0.7119 -0.1844  0.3606
  937MOL0     C29180   9.788   3.146   8.665  0.3079  0.6315 -0.0051
  937MOL0     C29181   9.810   3.068   8.799  0.1976 -0.5847 -0.4125
  937MOL0     C29182   9.878   3.166   8.897 -0.6962 -0.6687 -0.0959
  937MOL0     C29183  10.007   3.237   8.843 -0.3651 -0.0699  0.1327
  937MOL0     C29184  10.100   3.150   8.773  0.1409 -0.2513  0.1940
  937MOL0     N29185  10.163   3.064   8.871 -0.4770  0.7553  0.1946
  937MOL0     C29186  10.159   2.923   8.865 -0.5858 -1.1252  0.0963
  937MOL0     C29187  10.197   2.884   8.988 -0.2493 -0.5633 -0.2391
  937MOL0     C29188  10.208   2.742   9.042  0.2600  0.1690 -0.4472
  937MOL0     C29189  10.080   2.697   9.117 -0.4198  0.1763  0.1644
  937MOL0     C29190   9.953   2.764   9.072  0.0904  0.0883  0.0731
  937MOL0     C29191   9.830   2.691   9.139  0.5142  0.2655 -0.0184
  937MOL0     O29192   9.714   2.775   9.152 -0.1688  0.1580 -1.2143
  937MOL0     C29193   9.594   2.705   9.174 -0.5034 -1.0686  0.4000
  937MOL0     C29194   9.587   2.574   9.235  0.1033  0.2907 -0.2446
  937MOL0     C29195   9.467   2.533   9.296 -0.0671 -0.5062  0.6181
  937MOL0     C29196   9.468   2.419   9.398 -0.3104  0.5529  0.0647
  937MOL0     C29197   9.345   2.604   9.270 -0.0685  0.1366 -0.4794
  937MOL0     C29198   9.212   2.556   9.317 -0.8608  0.3873 -0.0667
  937MOL0     O29199   9.120   2.651   9.318  0.6579 -0.0513 -0.0764
  937MOL0     C29200   8.992   2.606   9.295 -0.8145 -0.1879  0.4818
  937MOL0     C29201   8.937   2.608   9.164 -0.2322 -0.0990  0.1071
  937MOL0     C29202   8.800   2.579   9.142 -0.8991  0.4947 -0.1647
  937MOL0     C29203   8.723   2.517   9.247 -0.6188 -0.3213  0.9263
  937MOL0     O29204   8.601   2.455   9.231 -0.0827 -0.6762 -0.6056
  937MOL0     C29205   8.559   2.421   9.105 -0.3090 -0.8720  0.7054
  937MOL0     C29206   8.463   2.523   9.067  0.1683  0.2302  0.4635
  937MOL0     C29207   8.325   2.460   9.059 -0.2221 -0.5019 -0.0930
  937MOL0     C29208   8.216   2.559   9.048  0.4014  0.4781 -0.8660
  937MOL0     C29209   8.081   2.513   9.092 -0.6158  0.3903  0.2686
  937MOL0     C29210   8.006   2.411   9.008 -0.2316  0.3041 -0.5749
  937MOL0     C29211   7.879   2.358   9.083 -0.3726  0.1040 -0.1296
  937MOL0     C29212   7.825   2.239   9.003 -0.4926  0.2243 -0.4478
  937MOL0    Cl29213   7.900   2.088   9.079 -0.0672 -0.3861  0.0349
  937MOL0     C29214   8.777   2.520   9.374  0.4941  0.1027  0.5280
  937MOL0     C29215   8.906   2.565   9.396  0.0495 -0.1571  0.0833
  937MOL0     O29216   9.194   2.439   9.337 -0.5285 -0.2013 -0.2464
  937MOL0     C29217   9.360   2.724   9.197 -1.0454  0.3861 -0.9918
  937MOL0     C29218   9.482   2.770   9.162  0.9114 -0.4535  0.4454
  937MOL0     N29219  10.238   2.999   9.056  0.1343  0.5838  0.1517
  937MOL0     N29220  10.222   3.106   8.986 -0.7290  0.8834 -0.1342
  937MOL0     C29221   9.294   3.364   8.642  0.7166  1.0620  0.0283
  937MOL0     C29222   9.160   3.386   8.676 -0.6282 -0.1902 -0.1465
  937MOL0     C29223   8.749   3.490   8.740  0.9155  0.6664  0.9302
  937MOL0     C29224   8.663   3.382   8.718 -0.4036  0.1805  0.1534
  937MOL0     C29225   8.531   3.379   8.768 -0.3220 -0.8196  1.5051
  937MOL0     C29226   8.481   3.491   8.838  0.0238 -0.4560 -0.4060
  937MOL0     O29227   8.346   3.485   8.876 -0.0290 -0.7157  0.0863
  937MOL0     C29228   8.306   3.576   8.983 -0.4376  0.5162  0.6870
  937MOL0     C29229   8.165   3.548   9.036 -0.3900 -0.4276 -0.7076
  937MOL0     C29230   8.138   3.638   9.165 -0.7516  0.3159  0.0104
  937MOL0     C29231   8.153   3.788   9.146  0.1941  0.3981 -0.0554
  937MOL0     C29232   8.118   3.840   9.278  0.6674 -0.1106 -0.0894
  937MOL0     C29233   8.081   3.875   9.386  0.1749 -0.7618 -0.1040
  937MOL0     C29234   8.563   3.599   8.869  0.7589 -0.1051  0.3574
  937MOL0     C29235   8.700   3.601   8.821  0.8369  0.2907 -1.0753
  937MOL0     C29236   8.771   3.731   8.853 -0.3125 -0.2931 -0.5220
  937MOL0     H29237   9.030   3.297   8.379  2.1321 -1.6987 -2.4628
  937MOL0     H29238   9.251   3.236   8.334 -1.0289  2.0155  0.1822
  937MOL0     H29239   9.492   3.200   8.324  2.6458 -0.6121 -0.6931
  937MOL0     H29240   9.462   3.076   8.460  1.6709 -0.7213  1.2115
  937MOL0     H29241   9.686   3.092   8.349  0.7115 -1.4258  0.6742
  937MOL0     H29242   9.713   3.246   8.437  2.3240 -1.1117  1.3286
  937MOL0     H29243   9.627   3.015   8.613  0.8485  0.8829  1.7652
  937MOL0     H29244   9.783   2.988   8.528 -0.3607 -0.4674 -1.1764
  937MOL0     H29245   9.881   3.189   8.628 -0.0397  2.3320  0.9996
  937MOL0     H29246   9.725   3.234   8.679  0.0679  0.3808  0.5336
  937MOL0     H29247   9.877   2.981   8.791  0.4310 -0.5629  1.0637
  937MOL0     H29248   9.715   3.032   8.839  0.3436 -0.8562 -0.3091
  937MOL0     H29249   9.800   3.235   8.930 -1.5568 -0.8918 -1.5910
  937MOL0     H29250   9.911   3.111   8.986  0.9153  0.3298 -0.0298
  937MOL0     H29251  10.050   3.275   8.936  2.0915 -1.0912 -0.4977
  937MOL0     H29252   9.986   3.320   8.775  1.0675  0.5289  0.3842
  937MOL0     H29253  10.054   3.102   8.686  0.1962  1.3029 -0.7246
  937MOL0     H29254  10.184   3.210   8.737 -1.3493  0.7003 -1.8759
  937MOL0     H29255  10.140   2.857   8.780  0.5157 -0.7513 -0.4650
  937MOL0     H29256  10.288   2.742   9.116 -0.3685 -1.8688  0.2880
  937MOL0     H29257  10.223   2.670   8.961 -0.0002  0.5002 -0.7984
  937MOL0     H29258  10.064   2.589   9.106  0.1923  0.0648  0.3071
  937MOL0     H29259  10.093   2.708   9.225  1.9807 -2.3181  0.2515
  937MOL0     H29260   9.953   2.867   9.108 -0.7810  0.0493  0.2051
  937MOL0     H29261   9.958   2.759   8.963  1.3597 -2.6787  0.1848
  937MOL0     H29262   9.798   2.606   9.078 -0.6686  1.5856 -1.3150
  937MOL0     H29263   9.864   2.656   9.237 -0.5612  0.5900  0.4870
  937MOL0     H29264   9.663   2.500   9.258 -0.0395  0.6660  1.5051
  937MOL0     H29265   9.411   2.431   9.492 -0.8422 -2.1529  0.1518
  937MOL0     H29266   9.570   2.400   9.432 -0.8290 -0.3954  1.1579
  937MOL0     H29267   9.444   2.325   9.348  0.4029  0.7130 -0.5828
  937MOL0     H29268   8.993   2.631   9.073 -1.3662  2.5496 -0.0063
  937MOL0     H29269   8.756   2.595   9.044 -2.0894 -2.1776 -0.1435
  937MOL0     H29270   8.646   2.433   9.039 -0.4592  0.0262  0.6627
  937MOL0     H29271   8.523   2.318   9.098 -2.1680 -0.1367 -2.8792
  937MOL0     H29272   8.459   2.613   9.129  0.6984  0.3884  0.2817
  937MOL0     H29273   8.490   2.572   8.973  2.1359  0.0152  0.8595
  937MOL0     H29274   8.304   2.393   9.142  0.0250  1.1923  1.4048
  937MOL0     H29275   8.331   2.394   8.972 -0.2305 -0.3974 -0.1741
  937MOL0     H29276   8.204   2.590   8.943  0.5975 -0.4642 -1.1710
  937MOL0     H29277   8.243   2.637   9.120 -0.7240 -1.2139  1.5161
  937MOL0     H29278   8.100   2.467   9.189  0.8511 -2.0961 -1.0877
  937MOL0     H29279   8.027   2.605   9.117  0.1222 -0.0248  3.9979
  937MOL0     H29280   8.064   2.320   8.991 -0.0764  0.4975 -1.1002
  937MOL0     H29281   7.979   2.453   8.911 -0.8672 -1.8420 -1.3905
  937MOL0     H29282   7.794   2.427   9.085 -0.6563 -0.2362 -0.3235
  937MOL0     H29283   7.903   2.341   9.188 -0.3660  2.5754  0.3246
  937MOL0     H29284   7.850   2.256   8.897 -1.7623  2.2337 -0.4710
  937MOL0     H29285   7.717   2.226   9.010 -0.1731 -2.4418  0.8711
  937MOL0     H29286   8.717   2.477   9.454 -1.2316 -0.8068 -1.1487
  937MOL0     H29287   8.934   2.569   9.501 -0.4520 -0.9173  0.2560
  937MOL0     H29288   9.271   2.778   9.166  0.2014  1.9611 -1.9513
  937MOL0     H29289   9.462   2.857   9.101 -0.2877 -0.8832  0.1864
  937MOL0     H29290   9.374   3.393   8.710  1.9397  0.0254 -0.9139
  937MOL0     H29291   9.135   3.436   8.768 -0.8163 -2.1707  0.9386
  937MOL0     H29292   8.703   3.297   8.663 -1.7383 -0.4854  0.1631
  937MOL0     H29293   8.465   3.299   8.736  1.2812 -0.7197 -2.6565
  937MOL0     H29294   8.378   3.573   9.065 -1.4332  3.8120  1.8063
  937MOL0     H29295   8.305   3.677   8.942 -3.1285  0.3246  0.0890
  937MOL0     H29296   8.159   3.446   9.075 -2.9113 -0.3163 -0.6088
  937MOL0     H29297   8.088   3.562   8.959 -1.2646  2.5627  0.5416
  937MOL0     H29298   8.034   3.617   9.190 -1.0816 -0.8756 -2.1192
  937MOL0     H29299   8.197   3.597   9.247 -0.6965 -0.1532 -0.2579
  937MOL0     H29300   8.090   3.841   9.074 -0.4394 -0.9596 -0.5377
  937MOL0     H29301   8.259   3.808   9.129 -0.1142  1.2186 -1.1074
  937MOL0     H29302   8.032   3.916   9.472  2.8829  2.5945  0.0417
  937MOL0     H29303   8.521   3.682   8.925  0.6314 -1.0538  1.6934
  937MOL0     H29304   8.872   3.718   8.893 -0.5102 -1.4448 -0.3612
  937MOL0     H29305   8.783   3.798   8.768  0.9920 -0.6762 -0.6580
  937MOL0     H29306   8.708   3.771   8.933 -1.9569 -3.4538 -0.0902
  938MOL0     O29307   2.805   1.055   1.886  0.7489  0.2044  0.5315
  938MOL0     C29308   2.738   1.024   1.791  0.0579  0.0180 -0.2299
  938MOL0     O29309   2.761   0.908   1.722  0.5852 -0.4039  0.1055
  938MOL0     C29310   2.888   0.861   1.725 -0.6841  0.5138  0.5299
  938MOL0     C29311   2.915   0.761   1.814 -0.1403 -0.1618  0.2354
  938MOL0     C29312   3.043   0.702   1.821  0.3635 -0.1063 -0.3666
  938MOL0     C29313   3.139   0.741   1.724  0.9045  0.2646  1.0893
  938MOL0     O29314   3.265   0.680   1.716 -0.0363  0.0235  0.6641
  938MOL0     C29315   3.298   0.576   1.812  0.0582 -0.7351  0.0658
  938MOL0     C29316   3.438   0.520   1.790  0.7118 -0.4427 -0.7367
  938MOL0     C29317   3.544   0.614   1.838  0.0764 -0.4501  0.7354
  938MOL0     C29318   3.672   0.547   1.856 -0.9933  0.7565 -0.5653
  938MOL0     C29319   3.773   0.644   1.924 -0.1678  0.4864 -0.9506
  938MOL0     C29320   3.909   0.569   1.931 -0.0694 -1.0080  0.3285
  938MOL0     C29321   4.028   0.656   1.976 -0.3642  0.3897  0.0711
  938MOL0     C29322   4.007   0.717   2.114 -0.3601 -0.5982 -1.1366
  938MOL0     N29323   4.009   0.626   2.233  0.2687 -0.5984  0.1695
  938MOL0     C29324   4.123   0.595   2.307 -0.9520  0.3925  0.4072
  938MOL0     C29325   4.083   0.490   2.391 -0.2694 -0.1784  0.6361
  938MOL0     C29326   4.156   0.412   2.497  0.0367 -0.1574  0.0205
  938MOL0     C29327   4.069   0.334   2.596  0.3433 -0.0189  0.0156
  938MOL0     C29328   4.149   0.231   2.681 -0.1475  0.0601  0.0243
  938MOL0     C29329   4.201   0.114   2.598 -0.2592  0.0451 -1.0602
  938MOL0     O29330   4.245   0.014   2.693 -0.0008  0.2131 -0.4607
  938MOL0     C29331   4.322  -0.096   2.660 -0.4695 -0.3640 -0.1617
  938MOL0     C29332   4.354  -0.182   2.760  0.2834 -0.3479 -0.1237
  938MOL0     C29333   4.419  -0.303   2.725 -1.5195 -0.2024  0.0812
  938MOL0     C29334   4.454  -0.400   2.839 -0.4021 -0.0522 -0.0485
  938MOL0     C29335   4.468  -0.330   2.596  0.2731 -0.7740  0.1863
  938MOL0     C29336   4.554  -0.440   2.552  0.6572  0.5289 -0.3354
  938MOL0     O29337   4.627  -0.418   2.431 -0.2228 -0.5104 -0.3393
  938MOL0     C29338   4.680  -0.528   2.376  0.0492 -0.4719  0.2630
  938MOL0     C29339   4.615  -0.625   2.306  0.1271 -0.0321 -0.5746
  938MOL0     C29340   4.688  -0.717   2.229 -0.7007  0.9890  0.3704
  938MOL0     C29341   4.832  -0.722   2.244  0.7347  0.2051 -1.0111
  938MOL0     O29342   4.901  -0.821   2.182 -0.6053  0.0197 -0.0705
  938MOL0     C29343   5.046  -0.813   2.182 -0.7032 -0.1009  0.4833
  938MOL0     C29344   5.082  -0.698   2.078  0.2192 -0.0241 -0.0079
  938MOL0     C29345   5.221  -0.725   2.023 -0.2165  0.9799  0.8097
  938MOL0     C29346   5.324  -0.692   2.128  0.6291  0.5624 -0.8823
  938MOL0     C29347   5.460  -0.738   2.080 -0.2113 -0.7407  0.5915
  938MOL0     C29348   5.573  -0.674   2.160  0.2569  0.4188  0.6267
  938MOL0     C29349   5.707  -0.690   2.089  0.6485  0.4542 -0.2721
  938MOL0     C29350   5.791  -0.573   2.118  0.0945  0.4395  0.2481
  938MOL0    Cl29351   5.948  -0.622   2.060 -0.1550 -0.2215  0.2297
  938MOL0     C29352   4.896  -0.630   2.332 -0.0526  0.3315  0.1328
  938MOL0     C29353   4.819  -0.538   2.400 -0.0597 -0.3227 -0.4201
  938MOL0     O29354   4.569  -0.545   2.617  0.6803 -0.0943  0.3010
  938MOL0     C29355   4.426  -0.240   2.493 -0.9132 -0.4802  0.0524
  938MOL0     C29356   4.360  -0.123   2.529 -0.1856 -0.6470 -0.1933
  938MOL0     N29357   3.953   0.462   2.357 -0.3929 -0.5142 -0.3773
  938MOL0     N29358   3.908   0.550   2.271 -0.0355 -0.2659 -0.4136
  938MOL0     C29359   3.109   0.836   1.624 -0.2025  0.9894 -0.2330
  938MOL0     C29360   2.981   0.899   1.622 -0.3850  0.1468  0.2797
  938MOL0     C29361   2.622   1.117   1.766  0.2535  0.7085  0.3481
  938MOL0     C29362   2.540   1.170   1.863  0.9613 -0.2034 -1.2253
  938MOL0     C29363   2.431   1.258   1.835 -0.7669  1.7923  0.3976
  938MOL0     C29364   2.391   1.274   1.705  0.2703 -0.3126  0.0834
  938MOL0     O29365   2.276   1.352   1.675  0.2384  0.9301 -0.1481
  938MOL0     C29366   2.166   1.267   1.613  0.0969  0.1845 -0.3607
  938MOL0     C29367   2.100   1.166   1.714 -0.7672 -0.5271  0.5511
  938MOL0     C29368   2.040   1.253   1.826  0.1060  0.8049  0.0581
  938MOL0     C29369   1.987   1.170   1.940 -0.2615 -0.2247 -0.1569
  938MOL0     C29370   1.898   1.260   2.023  0.1502 -0.5123  0.0686
  938MOL0     C29371   1.843   1.341   2.092  1.3054  0.7841  0.0152
  938MOL0     C29372   2.479   1.225   1.610  0.2148 -1.0199  0.0606
  938MOL0     C29373   2.591   1.155   1.634  0.2245  0.1116 -0.2706
  938MOL0     C29374   2.672   1.105   1.514 -0.4127  0.1752  0.0352
  938MOL0     H29375   2.839   0.727   1.884 -0.2365  0.5381  0.4794
  938MOL0     H29376   3.068   0.627   1.895  1.2033  1.6840  1.2607
  938MOL0     H29377   3.214   0.506   1.800 -0.6351  0.4961 -3.1262
  938MOL0     H29378   3.290   0.613   1.915  0.7145 -1.5014  0.4060
  938MOL0     H29379   3.438   0.418   1.828 -3.3932 -1.5287 -2.9426
  938MOL0     H29380   3.435   0.507   1.681 -1.5866  1.2489 -0.9596
  938MOL0     H29381   3.558   0.690   1.760  0.3489  0.7989  1.9506
  938MOL0     H29382   3.507   0.669   1.925 -3.7548  2.1380 -2.2279
  938MOL0     H29383   3.647   0.464   1.922 -1.7102  1.3879 -0.0223
  938MOL0     H29384   3.701   0.500   1.761 -1.4017 -2.7224  0.8807
  938MOL0     H29385   3.733   0.672   2.022  1.4867  1.4716 -0.5126
  938MOL0     H29386   3.791   0.735   1.865  1.4762  0.3880 -0.6470
  938MOL0     H29387   3.885   0.486   1.999  0.3622 -0.1882  1.5136
  938MOL0     H29388   3.933   0.524   1.834  4.0944 -1.2002  1.2187
  938MOL0     H29389   4.038   0.727   1.894 -2.3031  0.0281 -0.5265
  938MOL0     H29390   4.120   0.598   1.986  1.1539  2.9891  2.8314
  938MOL0     H29391   4.078   0.799   2.126 -1.4819  0.0558  2.2628
  938MOL0     H29392   3.912   0.771   2.109  0.5458  1.2331  0.3329
  938MOL0     H29393   4.226   0.627   2.302 -0.2829 -0.8368  3.5715
  938MOL0     H29394   4.214   0.486   2.553 -1.1918  0.4320  0.5650
  938MOL0     H29395   4.232   0.342   2.461  0.1575  0.8373 -1.7910
  938MOL0     H29396   4.018   0.405   2.662  3.0495  0.6716  1.5168
  938MOL0     H29397   3.995   0.274   2.542  0.0784  2.0065 -2.0079
  938MOL0     H29398   4.233   0.284   2.728 -0.3198  0.2263  0.1480
  938MOL0     H29399   4.083   0.201   2.763 -2.7382  3.2653 -0.6478
  938MOL0     H29400   4.117   0.085   2.534  1.2743 -3.2553 -1.7669
  938MOL0     H29401   4.282   0.142   2.530  1.1391  0.5603  0.7312
  938MOL0     H29402   4.308  -0.166   2.857 -2.3605 -1.3697 -1.1349
  938MOL0     H29403   4.414  -0.379   2.938  5.0212 -1.6358  2.8726
  938MOL0     H29404   4.560  -0.379   2.855 -1.0249  4.0702 -0.1248
  938MOL0     H29405   4.440  -0.508   2.837  1.9693 -0.4169  0.5307
  938MOL0     H29406   4.507  -0.619   2.299  0.0778  0.4869  0.4946
  938MOL0     H29407   4.627  -0.778   2.162 -0.7370  4.3033 -2.9705
  938MOL0     H29408   5.096  -0.805   2.279  0.3952  1.7051 -0.1839
  938MOL0     H29409   5.082  -0.906   2.136 -1.7157  0.0224 -0.6004
  938MOL0     H29410   5.008  -0.709   1.999  1.7756 -3.2713 -1.1652
  938MOL0     H29411   5.079  -0.593   2.110  1.5915 -0.2264  0.8886
  938MOL0     H29412   5.245  -0.662   1.937  1.1168  0.6540  0.9356
  938MOL0     H29413   5.228  -0.830   1.993  0.8630  0.5344  2.4880
  938MOL0     H29414   5.306  -0.740   2.225 -0.1188 -0.5906 -1.5559
  938MOL0     H29415   5.318  -0.584   2.139 -1.2324  0.2921  1.5561
  938MOL0     H29416   5.482  -0.845   2.083  1.1602 -0.4831  0.4839
  938MOL0     H29417   5.463  -0.701   1.978 -0.6980 -0.0272  0.8262
  938MOL0     H29418   5.589  -0.714   2.261 -4.3472  3.0189  2.7361
  938MOL0     H29419   5.548  -0.569   2.176 -0.9830 -0.2806  4.1515
  938MOL0     H29420   5.697  -0.694   1.980 -1.2278 -4.1191 -0.1490
  938MOL0     H29421   5.759  -0.775   2.133 -1.4280 -0.7514  0.0042
  938MOL0     H29422   5.798  -0.546   2.224 -1.6194 -2.0108  1.0769
  938MOL0     H29423   5.757  -0.483   2.067  0.0264  0.5618  0.5069
  938MOL0     H29424   5.004  -0.634   2.345 -0.2230 -1.1758  1.3371
  938MOL0     H29425   4.862  -0.452   2.451 -1.3681 -0.6301  1.2735
  938MOL0     H29426   4.451  -0.256   2.388  1.3912  0.0030  0.4676
  938MOL0     H29427   4.328  -0.072   2.439 -0.1612 -1.9050 -0.9464
  938MOL0     H29428   3.188   0.863   1.554  2.4718 -0.6745  1.9049
  938MOL0     H29429   2.950   0.973   1.549 -0.7843  2.3488  2.5399
  938MOL0     H29430   2.550   1.146   1.968 -1.0248  2.3649 -0.3363
  938MOL0     H29431   2.359   1.292   1.909 -1.8133  1.5751 -0.4940
  938MOL0     H29432   2.086   1.327   1.569  0.7846 -0.9043 -3.3857
  938MOL0     H29433   2.206   1.205   1.531 -3.2161 -2.0568 -0.4734
  938MOL0     H29434   2.182   1.105   1.753 -0.8348  0.3848  2.2235
  938MOL0     H29435   2.034   1.101   1.656  1.7691 -1.0580 -1.9535
  938MOL0     H29436   2.122   1.306   1.875  0.3305 -1.9633  3.0349
  938MOL0     H29437   1.960   1.314   1.784 -2.6852 -2.0111  0.8805
  938MOL0     H29438   2.072   1.134   1.999 -1.9855 -1.6297  1.6165
  938MOL0     H29439   1.940   1.085   1.890  0.2294  2.3360 -5.6940
  938MOL0     H29440   1.785   1.410   2.150 -1.2968 -1.7743  0.7228
  938MOL0     H29441   2.443   1.249   1.511 -0.5640  1.1252  0.8033
  938MOL0     H29442   2.673   0.995   1.516  1.6233  0.0968 -1.8674
  938MOL0     H29443   2.626   1.125   1.417 -1.3059 -0.0164  0.4032
  938MOL0     H29444   2.774   1.142   1.506 -0.4932  0.9280  1.9553
  939MOL0     O29445   3.080   5.084   3.718  0.1789 -0.4753 -0.0379
  939MOL0     C29446   2.955   5.082   3.701  0.0734  0.3954 -0.7734
  939MOL0     O29447   2.868   5.186   3.744 -0.6678  0.2629  0.3684
  939MOL0     C29448   2.900   5.275   3.839 -0.0642 -0.5367 -0.4574
  939MOL0     C29449   3.000   5.265   3.933 -0.0765 -0.3591  0.7792
  939MOL0     C29450   3.003   5.355   4.036 -0.1369 -0.5966 -0.0285
  939MOL0     C29451   2.909   5.465   4.044 -0.7684  0.2542  0.0882
  939MOL0     O29452   2.912   5.559   4.142  0.6696 -0.4924 -0.0174
  939MOL0     C29453   3.034   5.626   4.138  0.1625 -0.6539  0.1287
  939MOL0     C29454   3.012   5.753   4.221 -0.3257  0.1944 -0.1840
  939MOL0     C29455   3.149   5.821   4.257 -0.1537  0.0767  0.6450
  939MOL0     C29456   3.113   5.945   4.343 -0.2873 -0.5491  0.4789
  939MOL0     C29457   3.208   6.066   4.310  0.2082 -0.2366 -0.8540
  939MOL0     C29458   3.147   6.198   4.369  0.0475  1.0186  1.4418
  939MOL0     C29459   3.229   6.314   4.319  0.5143  0.6327 -0.8830
  939MOL0     C29460   3.185   6.432   4.400  0.3098  0.4761  0.7752
  939MOL0     N29461   3.264   6.557   4.361 -0.0922 -0.4057 -0.0159
  939MOL0     C29462   3.230   6.661   4.280 -0.3222  0.1668  0.1259
  939MOL0     C29463   3.341   6.741   4.262  0.6072 -0.0324 -0.2908
  939MOL0     C29464   3.338   6.869   4.186 -1.0440 -0.2678 -0.4551
  939MOL0     C29465   3.482   6.933   4.190  0.2585  0.5360  0.3988
  939MOL0     C29466   3.472   7.074   4.134 -0.4565 -0.0304  0.6978
  939MOL0     C29467   3.609   7.154   4.134  0.8764 -0.0541 -0.4252
  939MOL0     O29468   3.694   7.094   4.043  0.8708  0.3368 -0.1607
  939MOL0     C29469   3.814   7.158   4.020  0.1803 -0.5108  0.6789
  939MOL0     C29470   3.854   7.281   4.069 -0.3480  0.0279 -0.1463
  939MOL0     C29471   3.976   7.340   4.043 -1.0274 -0.4222  0.0146
  939MOL0     C29472   4.009   7.472   4.105 -0.7310 -0.1432 -0.7450
  939MOL0     C29473   4.067   7.275   3.954  0.3186  0.9436 -0.5154
  939MOL0     C29474   4.199   7.334   3.917  0.3016  0.3541 -1.1113
  939MOL0     O29475   4.229   7.330   3.783 -0.0673 -0.1889 -0.1989
  939MOL0     C29476   4.361   7.351   3.750  0.4223 -0.2595 -0.5146
  939MOL0     C29477   4.414   7.481   3.752  0.1339  0.1910 -0.0268
  939MOL0     C29478   4.550   7.498   3.708 -0.8282  0.0968  0.2030
  939MOL0     C29479   4.634   7.394   3.663 -0.0530 -0.7018  0.0691
  939MOL0     O29480   4.768   7.408   3.632  0.2368  0.0598 -0.3783
  939MOL0     C29481   4.812   7.496   3.526 -0.1355 -0.2719 -0.4225
  939MOL0     C29482   4.936   7.445   3.455  0.5272  0.7091 -0.2230
  939MOL0     C29483   5.064   7.457   3.534 -1.2109  0.1362  0.9636
  939MOL0     C29484   5.187   7.436   3.441 -0.3892 -0.9870 -0.9083
  939MOL0     C29485   5.321   7.413   3.526 -0.0721 -0.4484  0.3569
  939MOL0     C29486   5.439   7.494   3.466  0.3770 -0.3387 -0.5539
  939MOL0     C29487   5.553   7.505   3.565  0.0277  0.1837  0.3700
  939MOL0     C29488   5.651   7.599   3.511  0.8404 -0.4534  0.2988
  939MOL0    Cl29489   5.587   7.761   3.508 -0.2582  0.5789  0.0646
  939MOL0     C29490   4.578   7.270   3.668  1.3659 -0.7268  1.0173
  939MOL0     C29491   4.446   7.247   3.703  0.4036 -0.1551 -0.1398
  939MOL0     O29492   4.266   7.387   4.008  0.1837 -0.5567  0.0204
  939MOL0     C29493   4.020   7.156   3.898  0.1116 -0.5018  0.0399
  939MOL0     C29494   3.902   7.100   3.930 -0.5415  0.5087  0.1474
  939MOL0     N29495   3.440   6.687   4.337 -0.3502 -0.2200  0.0624
  939MOL0     N29496   3.404   6.577   4.389  1.1721  0.0347  0.0995
  939MOL0     C29497   2.822   5.483   3.938 -0.4844  0.3590  1.0607
  939MOL0     C29498   2.805   5.379   3.849 -0.1675 -0.1122  0.2036
  939MOL0     C29499   2.895   4.975   3.620 -0.0174  0.0357  0.0620
  939MOL0     C29500   2.750   4.975   3.623 -0.1478  0.2569  0.0329
  939MOL0     C29501   2.683   4.876   3.540 -0.1340  0.3032 -0.1257
  939MOL0     C29502   2.753   4.775   3.469  0.2680 -0.4552  0.1061
  939MOL0     O29503   2.702   4.668   3.404  0.5653 -0.3220 -0.4037
  939MOL0     C29504   2.607   4.694   3.296  0.8730 -1.2798 -0.0726
  939MOL0     C29505   2.544   4.572   3.241 -0.5371  0.5198  0.8820
  939MOL0     C29506   2.430   4.603   3.138  0.2827 -0.1062  0.4600
  939MOL0     C29507   2.357   4.482   3.070 -0.6912  0.0092  0.0833
  939MOL0     C29508   2.267   4.411   3.164  0.3994 -0.7675  0.2428
  939MOL0     C29509   2.182   4.352   3.236  0.3685 -0.2003  0.0472
  939MOL0     C29510   2.888   4.775   3.475 -1.5018 -0.2141  0.2290
  939MOL0     C29511   2.966   4.876   3.539  0.4407  0.1508  0.2984
  939MOL0     C29512   3.116   4.869   3.520  0.5844 -0.1394 -0.1629
  939MOL0     H29513   3.067   5.180   3.940  1.5897  0.7224 -0.9921
  939MOL0     H29514   3.062   5.342   4.126 -0.9740  1.0423  0.7908
  939MOL0     H29515   3.080   5.644   4.041  1.8848 -0.6690  0.9188
  939MOL0     H29516   3.109   5.562   4.185  0.0226 -1.6270 -0.9488
  939MOL0     H29517   2.963   5.828   4.159  0.4802  1.2604  0.4259
  939MOL0     H29518   2.953   5.735   4.311  0.4476 -1.5327  0.0210
  939MOL0     H29519   3.207   5.757   4.323  0.7812  1.3255  1.0667
  939MOL0     H29520   3.209   5.830   4.166 -2.4221 -2.1678 -1.2566
  939MOL0     H29521   3.009   5.979   4.338 -0.0857  0.0160 -0.0528
  939MOL0     H29522   3.139   5.930   4.448  1.5504 -2.8305 -0.2178
  939MOL0     H29523   3.214   6.086   4.203 -1.6365 -1.8692 -1.3134
  939MOL0     H29524   3.302   6.052   4.364 -1.5214 -1.2318  2.1250
  939MOL0     H29525   3.046   6.202   4.328  0.2435  0.5404  0.9051
  939MOL0     H29526   3.133   6.201   4.478  1.1497  0.2854  1.6233
  939MOL0     H29527   3.203   6.329   4.214 -2.2438 -1.6442 -0.6575
  939MOL0     H29528   3.335   6.303   4.340  0.0361  0.2791  1.6240
  939MOL0     H29529   3.077   6.448   4.393  0.2766 -0.1628 -0.4647
  939MOL0     H29530   3.211   6.398   4.500  1.3649 -1.0900  0.0195
  939MOL0     H29531   3.132   6.671   4.234 -0.8269 -2.3445  0.5456
  939MOL0     H29532   3.262   6.927   4.238  0.2588  2.8788 -1.7350
  939MOL0     H29533   3.293   6.853   4.088 -6.0822  0.0817  1.5315
  939MOL0     H29534   3.522   6.928   4.292  1.6731  2.6208  0.0142
  939MOL0     H29535   3.549   6.879   4.123 -1.0463  0.1796 -0.6396
  939MOL0     H29536   3.434   7.088   4.032 -0.4921 -0.2988  0.6730
  939MOL0     H29537   3.405   7.134   4.196 -1.7783 -0.9689  0.2334
  939MOL0     H29538   3.575   7.251   4.095 -0.0519 -0.4565 -0.6547
  939MOL0     H29539   3.646   7.164   4.237 -1.1348 -1.1222  0.4578
  939MOL0     H29540   3.777   7.335   4.125  0.0750  1.0907 -0.5560
  939MOL0     H29541   4.077   7.456   4.189  0.8465  1.7544 -1.5709
  939MOL0     H29542   3.919   7.513   4.152 -1.0559 -0.5645 -0.9914
  939MOL0     H29543   4.047   7.548   4.036  0.3924 -0.1139 -0.1107
  939MOL0     H29544   4.361   7.563   3.800 -1.3837 -0.1165 -1.0858
  939MOL0     H29545   4.599   7.591   3.735  0.1229 -0.8819  2.0752
  939MOL0     H29546   4.734   7.482   3.451  0.8240 -1.1485 -1.2836
  939MOL0     H29547   4.814   7.599   3.562  3.5682 -0.3335 -0.0750
  939MOL0     H29548   4.920   7.337   3.446 -0.7471  1.0049 -2.1635
  939MOL0     H29549   4.943   7.491   3.356  1.8525 -0.4207 -0.6895
  939MOL0     H29550   5.072   7.379   3.609  3.7912 -1.1744 -0.5107
  939MOL0     H29551   5.069   7.560   3.572 -1.8341  0.4267  0.2949
  939MOL0     H29552   5.197   7.532   3.390 -2.1596  0.6407  1.5258
  939MOL0     H29553   5.162   7.360   3.367  1.6175 -1.5422 -1.0575
  939MOL0     H29554   5.299   7.454   3.625  0.8914  2.5947 -0.5664
  939MOL0     H29555   5.335   7.307   3.546 -1.5405 -0.5726  0.8502
  939MOL0     H29556   5.408   7.597   3.447  1.7231  0.2631  0.3774
  939MOL0     H29557   5.489   7.451   3.379  2.8503 -1.7092  1.4216
  939MOL0     H29558   5.603   7.409   3.583  1.1740  0.9552  1.4041
  939MOL0     H29559   5.509   7.541   3.659 -1.7717  0.3725 -0.5065
  939MOL0     H29560   5.687   7.564   3.414  2.4991 -1.8539  1.3414
  939MOL0     H29561   5.743   7.595   3.571  0.2716  0.7165  1.2869
  939MOL0     H29562   4.635   7.188   3.626 -0.7825 -0.4957 -2.8243
  939MOL0     H29563   4.408   7.146   3.698 -3.0866  1.0820 -1.5638
  939MOL0     H29564   4.085   7.095   3.836 -1.7079  0.6173 -3.2274
  939MOL0     H29565   3.878   7.008   3.877 -1.6885  0.6291  0.4458
  939MOL0     H29566   2.753   5.565   3.948 -2.3164 -1.1404  1.2499
  939MOL0     H29567   2.724   5.400   3.780 -0.6453  2.8052  1.4943
  939MOL0     H29568   2.700   5.051   3.683  2.2216  0.6565  1.6392
  939MOL0     H29569   2.575   4.876   3.528  0.0062  1.4374 -1.7455
  939MOL0     H29570   2.530   4.765   3.328 -1.5956 -3.1340 -1.5739
  939MOL0     H29571   2.655   4.754   3.218 -1.6952  2.0572  0.7025
  939MOL0     H29572   2.503   4.508   3.319 -1.8607 -0.8653 -0.8433
  939MOL0     H29573   2.618   4.518   3.181 -1.5325 -0.7057  0.7268
  939MOL0     H29574   2.356   4.645   3.207  0.8861 -1.4137  1.9798
  939MOL0     H29575   2.463   4.681   3.069 -0.5476  1.2957  1.5904
  939MOL0     H29576   2.432   4.410   3.037  0.1799  0.6778  0.5735
  939MOL0     H29577   2.302   4.522   2.984  4.3380  0.8821 -3.0918
  939MOL0     H29578   2.107   4.319   3.305  0.5489 -0.3068  0.1931
  939MOL0     H29579   2.937   4.698   3.416 -0.5873  0.3062  0.2951
  939MOL0     H29580   3.136   4.794   3.442 -2.9621  1.7282 -3.1943
  939MOL0     H29581   3.157   4.969   3.500 -0.3762 -0.1909 -2.8331
  939MOL0     H29582   3.167   4.842   3.613  1.8233 -2.6217 -1.4641
  940MOL0     O29583  10.567   8.757   5.014 -0.0691  0.4320  0.2370
  940MOL0     C29584  10.529   8.642   5.038  0.1150 -0.6196  0.4978
  940MOL0     O29585  10.588   8.523   4.994 -0.7956 -0.0435 -0.2664
  940MOL0     C29586  10.712   8.542   4.947  0.4991 -1.0036  0.6074
  940MOL0     C29587  10.820   8.536   5.032  0.6713 -0.2781 -0.0168
  940MOL0     C29588  10.950   8.539   4.978 -1.0023  0.0094  0.2292
  940MOL0     C29589  10.969   8.559   4.847 -1.2231 -0.2782  0.3237
  940MOL0     O29590  11.090   8.551   4.787 -0.4694 -0.7310 -0.3530
  940MOL0     C29591  11.208   8.598   4.863  0.4075 -0.3044 -0.6480
  940MOL0     C29592  11.333   8.576   4.772 -0.2977 -0.7081  0.4973
  940MOL0     C29593  11.357   8.432   4.726 -0.0461  0.5368 -0.1300
  940MOL0     C29594  11.501   8.414   4.681 -0.0055 -0.0869  0.1065
  940MOL0     C29595  11.558   8.493   4.559  0.9993  0.3221 -0.5828
  940MOL0     C29596  11.706   8.468   4.545 -0.0621  0.4572 -0.3239
  940MOL0     C29597  11.767   8.539   4.431  0.8519 -0.0825 -0.4474
  940MOL0     C29598  11.897   8.480   4.400 -1.0344 -0.4706  0.0252
  940MOL0     N29599  11.976   8.548   4.299  0.2526  0.1640  0.0561
  940MOL0     C29600  12.086   8.617   4.331 -1.0408 -0.6193 -0.3104
  940MOL0     C29601  12.141   8.655   4.212 -0.0496 -0.1924 -0.8880
  940MOL0     C29602  12.258   8.742   4.190  0.6272 -0.2155 -0.0486
  940MOL0     C29603  12.374   8.644   4.160 -0.0060 -0.9174  0.2215
  940MOL0     C29604  12.369   8.611   4.012 -0.0627 -0.0979 -0.2370
  940MOL0     C29605  12.424   8.711   3.915 -0.0771  0.3995  0.0327
  940MOL0     O29606  12.562   8.749   3.936 -1.1535 -0.2212  0.5779
  940MOL0     C29607  12.664   8.660   3.903  0.6582 -0.1528 -0.3505
  940MOL0     C29608  12.651   8.535   3.834 -0.1378 -0.5949 -0.3402
  940MOL0     C29609  12.767   8.447   3.815  0.4967 -0.6928  0.2594
  940MOL0     C29610  12.736   8.314   3.750 -0.1319  0.0364 -0.1916
  940MOL0     C29611  12.893   8.485   3.862  0.5878  0.1431  0.1063
  940MOL0     C29612  13.020   8.414   3.828  0.0262  0.5345 -0.3032
  940MOL0     O29613  13.130   8.458   3.903  0.2802  0.3186  0.3599
  940MOL0     C29614  13.256   8.406   3.879  0.7603 -0.0214 -0.1740
  940MOL0     C29615  13.353   8.501   3.851 -0.4452  0.6304 -0.5857
  940MOL0     C29616  13.485   8.455   3.817  0.5272  0.6216  0.3919
  940MOL0     C29617  13.509   8.318   3.801 -0.3654 -0.2059  0.0616
  940MOL0     O29618  13.643   8.286   3.776 -0.1475  1.1328 -0.7046
  940MOL0     C29619  13.710   8.262   3.905  0.1114 -0.1788 -0.2446
  940MOL0     C29620  13.856   8.263   3.885 -0.6675 -0.3450 -0.3165
  940MOL0     C29621  13.913   8.127   3.825  0.3030  0.0217  0.4557
  940MOL0     C29622  14.055   8.129   3.765  0.3139 -0.4642  0.6070
  940MOL0     C29623  14.167   8.165   3.866  0.5313  0.0167  0.3792
  940MOL0     C29624  14.209   8.048   3.950  0.6883 -0.1029  0.3914
  940MOL0     C29625  14.119   8.024   4.073  0.2179  0.6494 -0.1597
  940MOL0     C29626  14.220   8.056   4.191 -0.2643  0.7866  0.5264
  940MOL0    Cl29627  14.264   8.229   4.196  0.0902  0.4619 -0.0621
  940MOL0     C29628  13.410   8.223   3.813 -0.3218 -0.1884 -0.0999
  940MOL0     C29629  13.286   8.269   3.857 -0.2499  0.1410  0.1498
  940MOL0     O29630  13.022   8.326   3.742 -0.9637  0.5045 -1.0880
  940MOL0     C29631  12.900   8.606   3.932 -0.3051  0.6339  0.2485
  940MOL0     C29632  12.794   8.691   3.954  0.1489  0.7674 -0.4212
  940MOL0     N29633  12.043   8.630   4.115 -0.6090  0.1136 -0.3489
  940MOL0     N29634  11.947   8.568   4.164 -0.1273  0.5012  0.6324
  940MOL0     C29635  10.866   8.579   4.758  0.5235 -0.0195 -0.7058
  940MOL0     C29636  10.737   8.574   4.809 -0.4017 -0.0331  0.1838
  940MOL0     C29637  10.411   8.631   5.129  0.1227  0.4152 -0.0424
  940MOL0     C29638  10.401   8.520   5.206 -0.1913  0.0712  0.6190
  940MOL0     C29639  10.284   8.484   5.290 -1.1307 -0.7360  0.2513
  940MOL0     C29640  10.169   8.561   5.263 -0.5987  0.4414 -0.0281
  940MOL0     O29641  10.041   8.527   5.318  0.3001  0.7072  0.3844
  940MOL0     C29642  10.032   8.406   5.400  0.0149  0.2237  0.1440
  940MOL0     C29643  10.066   8.447   5.543  0.7237 -0.5297 -0.5503
  940MOL0     C29644  10.082   8.325   5.637  0.4258  0.3081  0.4759
  940MOL0     C29645   9.938   8.269   5.663 -0.3470  0.2353  0.6783
  940MOL0     C29646   9.878   8.370   5.745  0.2354  0.4811 -0.0125
  940MOL0     C29647   9.813   8.453   5.809 -0.3419 -0.1699  0.6775
  940MOL0     C29648  10.179   8.673   5.183  0.5846 -0.3923  0.1528
  940MOL0     C29649  10.300   8.720   5.126  0.2438  0.3859 -0.0081
  940MOL0     C29650  10.297   8.855   5.055  0.0029 -0.2536 -0.8023
  940MOL0     H29651  10.800   8.516   5.137  0.8016  0.9515  0.2704
  940MOL0     H29652  11.031   8.515   5.046 -0.8940  0.6069  0.3212
  940MOL0     H29653  11.221   8.549   4.960 -0.1653 -0.4555 -0.6496
  940MOL0     H29654  11.196   8.706   4.876  2.8005  0.1005 -1.2187
  940MOL0     H29655  11.325   8.648   4.691 -0.1719 -0.9359  0.2788
  940MOL0     H29656  11.425   8.605   4.824 -0.4313 -1.6022  1.2568
  940MOL0     H29657  11.336   8.350   4.795  1.0855 -1.2422 -1.7701
  940MOL0     H29658  11.300   8.427   4.633  0.0407  2.1188 -0.3018
  940MOL0     H29659  11.562   8.438   4.768  2.2198 -2.9483 -0.5143
  940MOL0     H29660  11.522   8.310   4.655 -1.7438 -0.1685 -1.1222
  940MOL0     H29661  11.546   8.600   4.577 -1.0295 -0.1137  1.1050
  940MOL0     H29662  11.504   8.463   4.468 -0.4006 -0.0190  0.3151
  940MOL0     H29663  11.769   8.483   4.633  3.1147  0.0977 -2.3541
  940MOL0     H29664  11.718   8.362   4.522 -2.8736  0.1251 -0.6163
  940MOL0     H29665  11.773   8.646   4.454  3.0136 -0.6721  2.3311
  940MOL0     H29666  11.705   8.529   4.341 -0.6044 -0.0209  0.5128
  940MOL0     H29667  11.955   8.475   4.492 -0.3886  0.5475 -0.3057
  940MOL0     H29668  11.882   8.378   4.361 -0.6806 -0.0658 -1.2378
  940MOL0     H29669  12.136   8.645   4.424 -1.5638  2.0174 -0.7406
  940MOL0     H29670  12.278   8.795   4.284 -2.3819 -0.9056  1.0758
  940MOL0     H29671  12.239   8.808   4.105  0.9024 -1.4917 -1.1407
  940MOL0     H29672  12.469   8.691   4.185  1.7403 -3.5843 -1.0021
  940MOL0     H29673  12.363   8.557   4.226  0.5227  0.4912  2.2589
  940MOL0     H29674  12.420   8.515   3.998  1.2425 -0.1874  3.7284
  940MOL0     H29675  12.264   8.595   3.986  0.1160  0.3702 -1.2639
  940MOL0     H29676  12.424   8.666   3.815  3.4942 -0.9969  0.5160
  940MOL0     H29677  12.365   8.803   3.915  1.1391  1.2045  1.1417
  940MOL0     H29678  12.554   8.499   3.800 -0.4835  0.2133 -0.2350
  940MOL0     H29679  12.798   8.235   3.794  1.1216 -0.1429 -2.1408
  940MOL0     H29680  12.768   8.320   3.646  0.8391 -0.7000  0.0480
  940MOL0     H29681  12.631   8.285   3.755 -0.1386 -0.0913 -1.0041
  940MOL0     H29682  13.330   8.607   3.858 -0.4986  0.7073 -1.6702
  940MOL0     H29683  13.566   8.519   3.784  0.2038  0.5365 -0.5860
  940MOL0     H29684  13.678   8.342   3.973 -1.7837 -0.7466 -0.4156
  940MOL0     H29685  13.675   8.162   3.932  2.6129 -1.5697 -1.7704
  940MOL0     H29686  13.877   8.342   3.813 -0.8863 -0.5157 -0.5736
  940MOL0     H29687  13.903   8.286   3.981 -0.3042  2.3364 -1.0573
  940MOL0     H29688  13.849   8.102   3.741 -0.7697  1.5627  0.7789
  940MOL0     H29689  13.902   8.044   3.895 -0.4971 -2.5819 -2.5295
  940MOL0     H29690  14.070   8.201   3.683  2.8355  0.7596  2.0098
  940MOL0     H29691  14.079   8.029   3.727  0.3120 -0.6521  1.1021
  940MOL0     H29692  14.262   8.185   3.816 -0.1737 -1.4311 -1.7118
  940MOL0     H29693  14.136   8.248   3.930 -2.1825  1.0134 -2.0001
  940MOL0     H29694  14.314   8.066   3.977  0.3596  1.9439  0.4445
  940MOL0     H29695  14.212   7.956   3.891 -0.7334 -0.0061  0.1384
  940MOL0     H29696  14.095   7.918   4.078 -1.3531  1.0365  2.3329
  940MOL0     H29697  14.027   8.083   4.080  0.7975  1.5743 -0.1771
  940MOL0     H29698  14.306   7.989   4.205 -1.1193 -0.1650  1.4507
  940MOL0     H29699  14.165   8.035   4.284 -0.8392 -0.2439 -0.0305
  940MOL0     H29700  13.426   8.116   3.818  0.9892  0.0239  3.5433
  940MOL0     H29701  13.207   8.200   3.884 -0.3303  0.2226  0.1241
  940MOL0     H29702  12.993   8.644   3.971 -0.7202  3.0204 -0.9425
  940MOL0     H29703  12.804   8.784   4.009 -2.2747  0.4100  0.7538
  940MOL0     H29704  10.874   8.603   4.652 -0.0499  0.6293 -0.6085
  940MOL0     H29705  10.652   8.593   4.744  1.5652  1.5841 -2.0981
  940MOL0     H29706  10.488   8.456   5.216 -0.5492 -1.7410 -4.7573
  940MOL0     H29707  10.283   8.397   5.355 -2.1821 -0.5005  0.5653
  940MOL0     H29708   9.935   8.356   5.400  1.8492 -3.7444  0.0271
  940MOL0     H29709  10.108   8.333   5.371  0.4005  0.0086  1.6068
  940MOL0     H29710   9.999   8.521   5.587  4.2517  2.3916  0.4714
  940MOL0     H29711  10.161   8.501   5.553  0.8368 -1.1192  2.2369
  940MOL0     H29712  10.154   8.255   5.593 -0.7166  0.0471 -1.0732
  940MOL0     H29713  10.117   8.365   5.732  0.8197  2.9221 -0.6814
  940MOL0     H29714   9.938   8.181   5.728  1.0199 -0.5070 -0.2787
  940MOL0     H29715   9.880   8.243   5.574 -0.9404 -1.1070  1.4186
  940MOL0     H29716   9.767   8.527   5.871  0.5885 -0.1693  1.3893
  940MOL0     H29717  10.092   8.738   5.175  0.4459 -0.4965  0.7474
  940MOL0     H29718  10.190   8.876   5.045 -1.1649 -0.8632  6.0231
  940MOL0     H29719  10.342   8.927   5.123 -0.0832 -2.4420  1.7435
  940MOL0     H29720  10.340   8.845   4.955  2.0513 -2.1650  0.1934
  941MOL0     O29721   3.514   5.611   1.224 -0.0736 -0.2074  0.0335
  941MOL0     C29722   3.500   5.488   1.230  0.2710  0.6268 -0.5198
  941MOL0     O29723   3.597   5.398   1.193 -0.4964  0.1247  0.5720
  941MOL0     C29724   3.723   5.447   1.205 -0.7914 -0.1129 -0.4612
  941MOL0     C29725   3.809   5.461   1.090  0.4760  0.4834  0.5719
  941MOL0     C29726   3.945   5.488   1.118  0.1184 -0.6874  0.5967
  941MOL0     C29727   3.993   5.512   1.244  0.1357 -0.5834 -1.0487
  941MOL0     O29728   4.126   5.549   1.241 -0.4043 -0.4207 -0.2290
  941MOL0     C29729   4.209   5.527   1.362 -0.2950  1.1155  0.4925
  941MOL0     C29730   4.351   5.571   1.336 -0.0420 -0.1981 -0.0009
  941MOL0     C29731   4.453   5.557   1.455  1.2915 -1.3840  0.3212
  941MOL0     C29732   4.576   5.642   1.442  0.6825  0.1610 -0.6222
  941MOL0     C29733   4.672   5.620   1.564  0.5104  0.1812  0.4266
  941MOL0     C29734   4.810   5.684   1.524  0.5523 -0.3514 -0.0697
  941MOL0     C29735   4.892   5.726   1.648  0.9115 -0.4562  0.1386
  941MOL0     C29736   4.836   5.853   1.719 -1.0294 -0.4550  0.6550
  941MOL0     N29737   4.926   5.899   1.825 -0.0019 -0.0034  0.0070
  941MOL0     C29738   4.961   5.828   1.934 -0.1073  0.0396 -0.4591
  941MOL0     C29739   5.052   5.902   1.990  0.4770  0.0139 -0.6444
  941MOL0     C29740   5.121   5.888   2.121 -0.4140 -0.5567  0.0314
  941MOL0     C29741   5.271   5.911   2.096  0.0382  0.0588 -0.6210
  941MOL0     C29742   5.312   6.043   2.149 -0.4482 -0.3802 -0.1086
  941MOL0     C29743   5.458   6.073   2.136 -0.5962 -0.1841  0.6724
  941MOL0     O29744   5.549   5.960   2.140 -0.1460  0.1534 -0.1249
  941MOL0     C29745   5.678   5.977   2.112  0.2042 -0.4048  0.2123
  941MOL0     C29746   5.757   6.081   2.158  0.1512 -0.3982 -0.5991
  941MOL0     C29747   5.896   6.084   2.146  0.7181  0.0727  0.5742
  941MOL0     C29748   5.965   6.209   2.208 -0.2042 -0.1534  0.1627
  941MOL0     C29749   5.959   5.993   2.059 -0.3907 -0.9188 -0.7076
  941MOL0     C29750   6.097   6.006   2.017 -0.2007  0.0296  0.3864
  941MOL0     O29751   6.194   6.066   2.097  0.1954 -0.6292  0.2308
  941MOL0     C29752   6.318   6.095   2.043 -0.0499  0.5502  0.0642
  941MOL0     C29753   6.434   6.048   2.114 -0.1770 -0.2641 -0.3687
  941MOL0     C29754   6.565   6.082   2.077  0.5188  0.2766  1.2666
  941MOL0     C29755   6.587   6.170   1.967  0.6605 -0.3052 -0.7496
  941MOL0     O29756   6.711   6.215   1.911  0.0999 -0.5786 -0.7342
  941MOL0     C29757   6.785   6.283   2.015 -0.3101 -1.9664 -0.1185
  941MOL0     C29758   6.922   6.318   1.962  0.5648  1.0871  0.6243
  941MOL0     C29759   7.017   6.376   2.070  0.1858  0.5488 -0.4093
  941MOL0     C29760   7.146   6.427   2.032 -0.1662 -0.2579  0.3003
  941MOL0     C29761   7.139   6.579   2.010 -0.9220 -0.4981 -0.9206
  941MOL0     C29762   7.254   6.633   1.924  0.6581  0.1531 -0.0264
  941MOL0     C29763   7.397   6.613   1.989 -0.7216  0.0010  1.0696
  941MOL0     C29764   7.512   6.591   1.884  0.1563 -0.0788 -0.7185
  941MOL0    Cl29765   7.674   6.641   1.944  0.2325  0.2057 -0.7005
  941MOL0     C29766   6.471   6.210   1.902  0.0391  1.2994 -0.1844
  941MOL0     C29767   6.339   6.179   1.936  0.0304 -1.1069  0.2757
  941MOL0     O29768   6.126   5.961   1.907 -0.1873 -0.0407 -0.2050
  941MOL0     C29769   5.874   5.906   1.992  0.5642  0.1655  0.4627
  941MOL0     C29770   5.736   5.889   2.023  0.1433  0.1135  0.0275
  941MOL0     N29771   5.085   6.013   1.909 -1.2822 -0.2628 -0.1741
  941MOL0     N29772   5.009   6.005   1.804 -1.2092 -0.0399 -0.5909
  941MOL0     C29773   3.911   5.499   1.364 -0.1826  0.4788 -0.2285
  941MOL0     C29774   3.773   5.477   1.337  0.3343  0.8122  0.0568
  941MOL0     C29775   3.364   5.428   1.232  0.1057  0.0737  0.6352
  941MOL0     C29776   3.323   5.323   1.140 -0.9874  0.0959 -0.0511
  941MOL0     C29777   3.190   5.273   1.143 -0.4088 -0.2036 -0.0013
  941MOL0     C29778   3.088   5.322   1.230  0.2309 -0.8944  0.2147
  941MOL0     O29779   2.955   5.290   1.229 -0.6755  0.4014 -0.4919
  941MOL0     C29780   2.895   5.208   1.126 -0.1218 -0.1133 -0.4735
  941MOL0     C29781   2.736   5.221   1.133  0.3216 -1.1694  0.2133
  941MOL0     C29782   2.671   5.210   1.266 -0.7921 -0.5310 -0.7813
  941MOL0     C29783   2.633   5.064   1.299  0.0240  0.0788  0.2923
  941MOL0     C29784   2.506   5.035   1.230  1.2496  0.1971 -0.3504
  941MOL0     C29785   2.408   4.992   1.170  0.1730  0.4945  0.3394
  941MOL0     C29786   3.133   5.420   1.320  0.5549 -0.7205 -0.5790
  941MOL0     C29787   3.259   5.477   1.325  0.4622  0.2340  0.7098
  941MOL0     C29788   3.272   5.602   1.411  0.5295 -0.0529 -0.3929
  941MOL0     H29789   3.775   5.440   0.989  2.2395  0.8293 -0.1216
  941MOL0     H29790   4.014   5.495   1.034 -1.0659  2.6848 -0.2141
  941MOL0     H29791   4.208   5.419   1.378  1.6477  1.1403  1.0435
  941MOL0     H29792   4.171   5.573   1.454 -0.1066  2.2330  0.0315
  941MOL0     H29793   4.399   5.515   1.255 -1.2476  1.5949 -2.0646
  941MOL0     H29794   4.342   5.675   1.305 -0.2457  0.0169  0.7505
  941MOL0     H29795   4.388   5.579   1.541 -0.3859  0.9632 -1.4148
  941MOL0     H29796   4.499   5.459   1.456  1.6740 -1.2071  0.0205
  941MOL0     H29797   4.626   5.625   1.346  2.6576  2.5917 -0.1418
  941MOL0     H29798   4.551   5.748   1.447 -1.3763 -0.2536 -1.4244
  941MOL0     H29799   4.686   5.512   1.576  3.3974  0.6163  1.9863
  941MOL0     H29800   4.633   5.653   1.661  0.5093 -3.9071  2.0361
  941MOL0     H29801   4.861   5.607   1.464 -3.1413 -3.0773 -0.0739
  941MOL0     H29802   4.786   5.763   1.452  2.6178 -1.5949 -2.3013
  941MOL0     H29803   4.993   5.754   1.617 -0.3154  1.5306 -2.4452
  941MOL0     H29804   4.897   5.640   1.716  0.5307 -0.2236  0.4717
  941MOL0     H29805   4.812   5.932   1.648 -0.8636 -0.6579  0.3693
  941MOL0     H29806   4.742   5.822   1.765 -1.9072  3.0709  1.5335
  941MOL0     H29807   4.917   5.739   1.979 -1.3227  0.6304 -0.4473
  941MOL0     H29808   5.114   5.780   2.136 -1.3475 -0.5414 -0.2489
  941MOL0     H29809   5.066   5.934   2.203  4.0445  1.5355  2.2150
  941MOL0     H29810   5.323   5.823   2.134  0.6055 -1.2608 -4.0925
  941MOL0     H29811   5.288   5.899   1.989  0.5603 -0.8985 -0.4368
  941MOL0     H29812   5.255   6.117   2.092  0.7440 -0.4944 -1.5124
  941MOL0     H29813   5.288   6.052   2.255  0.7695 -3.0628  0.4704
  941MOL0     H29814   5.484   6.119   2.041  2.0675  0.9784  1.8505
  941MOL0     H29815   5.478   6.144   2.217  3.0471  0.6166 -0.7087
  941MOL0     H29816   5.709   6.153   2.224  1.5574 -0.7427  0.8667
  941MOL0     H29817   5.891   6.272   2.259  2.4517  0.8042  3.2316
  941MOL0     H29818   6.020   6.261   2.129  0.0749  0.0833  0.5073
  941MOL0     H29819   6.037   6.170   2.280  0.8544 -1.1257 -1.3625
  941MOL0     H29820   6.426   6.004   2.213 -2.1851  0.6348 -0.0727
  941MOL0     H29821   6.648   6.038   2.130  2.4158  2.3336  0.1557
  941MOL0     H29822   6.741   6.378   2.046  0.7465 -1.6805  0.5672
  941MOL0     H29823   6.797   6.227   2.108 -0.0835 -2.7220 -0.5964
  941MOL0     H29824   6.963   6.223   1.927 -2.2539 -0.8102  2.1524
  941MOL0     H29825   6.912   6.388   1.878  0.5759 -1.1877 -1.3701
  941MOL0     H29826   7.034   6.291   2.137 -1.9724  0.0717 -0.3857
  941MOL0     H29827   6.963   6.448   2.132 -2.6923  1.3261 -3.5435
  941MOL0     H29828   7.170   6.391   1.931  1.0842  0.1285  0.4370
  941MOL0     H29829   7.223   6.411   2.107  0.7736  3.7551  0.4459
  941MOL0     H29830   7.050   6.609   1.954 -1.8608 -1.0533  0.2067
  941MOL0     H29831   7.140   6.627   2.109  1.1629 -2.3846  0.0729
  941MOL0     H29832   7.238   6.741   1.909 -1.1608  0.0711  1.0576
  941MOL0     H29833   7.244   6.577   1.831 -0.2533 -2.1795  1.3892
  941MOL0     H29834   7.415   6.526   2.053 -2.1613  0.6106  2.3448
  941MOL0     H29835   7.432   6.698   2.046 -0.2829  0.3349  0.3222
  941MOL0     H29836   7.499   6.662   1.802  0.0304  2.2212  1.1754
  941MOL0     H29837   7.519   6.494   1.834 -0.3595  0.4476 -1.8621
  941MOL0     H29838   6.492   6.269   1.814 -1.2119  4.6712  1.6045
  941MOL0     H29839   6.257   6.222   1.880  1.4640 -0.7802 -1.6409
  941MOL0     H29840   5.916   5.828   1.929  1.1803  0.8639 -0.0121
  941MOL0     H29841   5.676   5.813   1.974  0.9090 -0.4291 -0.0796
  941MOL0     H29842   3.948   5.523   1.463  0.3927 -1.1757 -0.0177
  941MOL0     H29843   3.710   5.489   1.424  2.4292  0.0101  1.7865
  941MOL0     H29844   3.390   5.282   1.065  1.4259  1.3963  1.2632
  941MOL0     H29845   3.165   5.186   1.083  0.2697  0.1950 -0.8847
  941MOL0     H29846   2.927   5.234   1.025 -1.3555  2.7766 -0.2132
  941MOL0     H29847   2.920   5.103   1.149  0.0686  0.1423  0.5541
  941MOL0     H29848   2.698   5.142   1.068 -0.4915 -0.3819 -0.2956
  941MOL0     H29849   2.719   5.320   1.089  2.4233  0.3180  2.4429
  941MOL0     H29850   2.745   5.236   1.342 -0.5523  0.6203 -1.3883
  941MOL0     H29851   2.582   5.274   1.267  1.0757  2.2208  0.0320
  941MOL0     H29852   2.638   5.055   1.408  2.8061 -1.1636  0.1492
  941MOL0     H29853   2.708   4.996   1.258  1.3011 -0.3111  2.9967
  941MOL0     H29854   2.327   4.974   1.102  0.0300 -1.4820  0.9723
  941MOL0     H29855   3.060   5.470   1.382  0.9367 -0.1898 -0.5467
  941MOL0     H29856   3.375   5.618   1.443  1.2269 -3.4672 -0.5817
  941MOL0     H29857   3.238   5.692   1.358  2.2895  0.0320 -1.4234
  941MOL0     H29858   3.224   5.580   1.508  2.6194 -2.0938  0.2530
  942MOL0     O29859  10.129   5.757   5.785 -0.5728  0.0374 -0.3709
  942MOL0     C29860  10.026   5.775   5.840  0.1654  0.0579 -0.1265
  942MOL0     O29861   9.997   5.889   5.919 -0.9198 -0.0412 -0.3512
  942MOL0     C29862  10.101   5.979   5.931 -0.1634  0.2876 -0.2560
  942MOL0     C29863  10.164   6.003   6.054  0.2270 -0.6940 -0.3995
  942MOL0     C29864  10.288   6.087   6.062 -0.8391  0.9838  0.0068
  942MOL0     C29865  10.332   6.155   5.949  0.2581  0.5697  0.6919
  942MOL0     O29866  10.449   6.224   5.970  0.0234 -0.3410 -0.5803
  942MOL0     C29867  10.464   6.339   5.880 -0.4075  0.4219  0.3444
  942MOL0     C29868  10.603   6.398   5.908 -0.6600 -0.5897  0.2111
  942MOL0     C29869  10.719   6.308   5.873  0.3069  0.1729 -0.3174
  942MOL0     C29870  10.845   6.349   5.951  0.8753  0.3640  0.1564
  942MOL0     C29871  10.946   6.234   5.925 -0.0390  0.6250  0.2092
  942MOL0     C29872  11.086   6.262   5.972 -0.5816 -0.2935  0.1243
  942MOL0     C29873  11.176   6.143   5.934 -0.5303 -0.9674 -0.7543
  942MOL0     C29874  11.310   6.157   6.018  0.5295 -0.1282  0.1614
  942MOL0     N29875  11.389   6.048   5.971  0.8028 -0.1868  0.9008
  942MOL0     C29876  11.472   6.043   5.860  0.6916  0.1439  0.0618
  942MOL0     C29877  11.556   5.945   5.901 -0.5424  0.0241  0.3657
  942MOL0     C29878  11.649   5.886   5.795 -0.9293 -0.5463 -0.4678
  942MOL0     C29879  11.612   5.751   5.781  0.2773 -0.8650 -0.1782
  942MOL0     C29880  11.721   5.667   5.713  0.3814  0.4416  1.3890
  942MOL0     C29881  11.699   5.521   5.737  0.0142  0.1933  0.3622
  942MOL0     O29882  11.834   5.469   5.745  0.9170  0.2421 -0.5529
  942MOL0     C29883  11.866   5.434   5.870  0.3611  0.0741 -0.4225
  942MOL0     C29884  11.953   5.324   5.884 -0.3767 -0.2883  0.3786
  942MOL0     C29885  11.998   5.288   6.014  0.2308 -0.2871  0.6519
  942MOL0     C29886  12.067   5.156   6.035 -0.7851 -0.1028 -0.3040
  942MOL0     C29887  11.964   5.367   6.127 -0.7081  0.0839  0.2172
  942MOL0     C29888  12.025   5.362   6.257 -0.2604  0.7627 -0.6386
  942MOL0     O29889  12.143   5.297   6.270 -0.4877  0.1790  0.3561
  942MOL0     C29890  12.201   5.250   6.387 -0.6980 -0.1813  1.1923
  942MOL0     C29891  12.179   5.297   6.516  0.1196  0.0056  0.0697
  942MOL0     C29892  12.248   5.245   6.620 -1.1656  0.0165 -0.3259
  942MOL0     C29893  12.356   5.152   6.605  0.3965  0.0822 -0.2430
  942MOL0     O29894  12.430   5.121   6.718 -0.8318  0.1248 -0.0229
  942MOL0     C29895  12.562   5.081   6.689 -0.6700  0.5030 -0.1484
  942MOL0     C29896  12.631   5.033   6.828  0.4317  0.2612 -0.0160
  942MOL0     C29897  12.549   4.936   6.909 -0.4299 -0.2295  0.8028
  942MOL0     C29898  12.615   4.933   7.047  0.4320 -0.2697  0.8413
  942MOL0     C29899  12.527   4.878   7.162  0.7894 -0.9859  0.6767
  942MOL0     C29900  12.443   4.976   7.254  0.4925  0.1394  0.1360
  942MOL0     C29901  12.320   5.029   7.170 -1.1458  0.3643 -1.0320
  942MOL0     C29902  12.243   5.122   7.264  0.4741  0.0862 -0.4659
  942MOL0    Cl29903  12.112   5.194   7.160 -0.0613  0.3350 -0.0537
  942MOL0     C29904  12.377   5.111   6.471 -1.2942 -0.4333  0.2926
  942MOL0     C29905  12.302   5.154   6.365  0.1439 -0.0614 -0.6750
  942MOL0     O29906  11.946   5.380   6.345  0.1870 -0.3196 -0.7306
  942MOL0     C29907  11.873   5.472   6.117  0.2535 -0.7753  0.5679
  942MOL0     C29908  11.829   5.506   5.989  0.4170  0.4055  0.5522
  942MOL0     N29909  11.526   5.892   6.025  0.4978 -0.2112  0.0580
  942MOL0     N29910  11.427   5.962   6.061  0.8796  0.1322 -0.5696
  942MOL0     C29911  10.255   6.140   5.829 -0.1231  0.4283 -0.6384
  942MOL0     C29912  10.146   6.059   5.825 -0.2334 -0.5723  0.1097
  942MOL0     C29913   9.915   5.678   5.819  0.5694  0.1832 -0.6110
  942MOL0     C29914   9.787   5.716   5.873 -0.6747 -0.5081 -0.0041
  942MOL0     C29915   9.672   5.632   5.867  0.9364 -0.6433 -0.4949
  942MOL0     C29916   9.682   5.522   5.782  0.9803 -0.4903  0.2106
  942MOL0     O29917   9.578   5.433   5.760  0.4952  0.1428 -0.5376
  942MOL0     C29918   9.441   5.487   5.773  0.4784 -1.0948 -1.2196
  942MOL0     C29919   9.346   5.395   5.700  0.8986  1.2392  0.3082
  942MOL0     C29920   9.194   5.411   5.743  0.3275 -0.4334 -0.5830
  942MOL0     C29921   9.098   5.385   5.625 -0.0261  0.3567  0.0229
  942MOL0     C29922   9.046   5.511   5.578 -0.8023  1.1536  1.1936
  942MOL0     C29923   8.988   5.608   5.528 -0.1977  1.0460 -0.0737
  942MOL0     C29924   9.800   5.487   5.732 -0.5374 -0.0687 -0.4809
  942MOL0     C29925   9.923   5.555   5.746 -0.0446 -0.0107  0.1244
  942MOL0     C29926  10.043   5.488   5.683 -0.3800  0.1757 -0.7028
  942MOL0     H29927  10.129   5.949   6.141  3.1593 -1.5568  0.3690
  942MOL0     H29928  10.352   6.096   6.149 -1.1386  1.5301  0.1723
  942MOL0     H29929  10.384   6.410   5.905  0.5271  1.2969  0.9327
  942MOL0     H29930  10.465   6.298   5.779  4.8955  1.5752 -0.3791
  942MOL0     H29931  10.621   6.495   5.861  3.4202 -2.0243 -1.6719
  942MOL0     H29932  10.623   6.421   6.013  4.1723 -0.8674 -0.4097
  942MOL0     H29933  10.695   6.205   5.900  4.7450 -1.5289 -1.8098
  942MOL0     H29934  10.720   6.300   5.764 -1.5888 -0.0189 -0.3561
  942MOL0     H29935  10.885   6.447   5.922 -0.2598  0.8559  0.2034
  942MOL0     H29936  10.823   6.357   6.058 -2.7630 -2.0219 -0.2303
  942MOL0     H29937  10.948   6.213   5.817  0.8765 -0.7275  0.4646
  942MOL0     H29938  10.910   6.141   5.970  2.2832 -0.3501  0.1763
  942MOL0     H29939  11.123   6.356   5.931 -1.1961  2.7349  5.6853
  942MOL0     H29940  11.095   6.277   6.080  0.6052 -1.1481  0.1720
  942MOL0     H29941  11.190   6.153   5.826  0.5896  2.6481 -0.4261
  942MOL0     H29942  11.124   6.052   5.964 -0.0998 -0.8852  0.3111
  942MOL0     H29943  11.358   6.251   5.988 -0.3607  0.0996 -0.5737
  942MOL0     H29944  11.283   6.160   6.124 -4.8771  1.7228 -0.9687
  942MOL0     H29945  11.454   6.082   5.760 -3.3219 -0.5163  0.3347
  942MOL0     H29946  11.754   5.890   5.825 -0.6201  0.3495 -1.5952
  942MOL0     H29947  11.645   5.945   5.703  1.2054  0.1615 -0.1489
  942MOL0     H29948  11.594   5.700   5.876  0.7584  0.0888  0.4451
  942MOL0     H29949  11.521   5.747   5.719  1.0569  1.2755 -1.5798
  942MOL0     H29950  11.716   5.681   5.605 -2.9653 -0.0673  1.3715
  942MOL0     H29951  11.816   5.693   5.759  2.6026 -1.9896 -1.4408
  942MOL0     H29952  11.649   5.499   5.831 -0.9932 -4.6783 -1.0441
  942MOL0     H29953  11.648   5.468   5.656  3.0462 -0.5372 -1.2511
  942MOL0     H29954  12.001   5.270   5.803 -0.7086  0.9096 -0.6605
  942MOL0     H29955  12.008   5.086   6.095  1.8885 -1.1581  1.2804
  942MOL0     H29956  12.161   5.167   6.090 -0.5663  0.4871 -0.7802
  942MOL0     H29957  12.101   5.106   5.944 -2.6373  2.8213 -2.8172
  942MOL0     H29958  12.114   5.378   6.547  2.2046  1.5765  0.6242
  942MOL0     H29959  12.218   5.273   6.720 -1.0380 -0.6867 -0.0786
  942MOL0     H29960  12.555   4.999   6.617  2.3233  2.6408 -3.2027
  942MOL0     H29961  12.621   5.161   6.644  1.0858 -0.7870 -0.2534
  942MOL0     H29962  12.733   4.995   6.817  0.0134 -0.9847  0.2885
  942MOL0     H29963  12.638   5.124   6.888 -0.7455  1.2655 -1.3264
  942MOL0     H29964  12.550   4.838   6.861  4.5975  0.7211 -1.7480
  942MOL0     H29965  12.449   4.977   6.921  0.5971  2.1333  1.8920
  942MOL0     H29966  12.650   5.030   7.083  2.7482 -0.3189 -1.0854
  942MOL0     H29967  12.703   4.871   7.034 -0.2516 -1.0926  0.0432
  942MOL0     H29968  12.455   4.809   7.117 -0.0586 -0.5069  1.2665
  942MOL0     H29969  12.593   4.822   7.228 -0.9636 -4.8592 -0.5799
  942MOL0     H29970  12.503   5.064   7.278  1.2800 -0.2995 -0.1978
  942MOL0     H29971  12.411   4.928   7.347 -0.5244 -0.9743 -0.7529
  942MOL0     H29972  12.261   4.949   7.124  0.9278 -2.0499  0.3159
  942MOL0     H29973  12.373   5.090   7.096 -0.1628 -1.4780 -1.8996
  942MOL0     H29974  12.309   5.197   7.308  2.5415 -1.3574 -0.9290
  942MOL0     H29975  12.211   5.061   7.348 -0.9935 -0.7898 -1.5996
  942MOL0     H29976  12.448   5.032   6.448  2.4324  2.3239  1.3818
  942MOL0     H29977  12.314   5.107   6.268 -0.7540 -2.4829  0.3189
  942MOL0     H29978  11.851   5.544   6.195  2.0890 -0.9676  1.3171
  942MOL0     H29979  11.760   5.589   5.983  1.3547  1.3896  2.3937
  942MOL0     H29980  10.276   6.187   5.734 -0.4880 -0.9877 -1.4516
  942MOL0     H29981  10.093   6.048   5.731  2.6901 -0.3086 -1.6922
  942MOL0     H29982   9.783   5.808   5.931  1.2351 -0.7861  0.6320
  942MOL0     H29983   9.578   5.657   5.916  0.2394 -2.0857 -1.0480
  942MOL0     H29984   9.410   5.481   5.878  0.5340 -0.8670 -1.1890
  942MOL0     H29985   9.432   5.589   5.735 -2.5482 -2.0754 -3.5574
  942MOL0     H29986   9.372   5.294   5.732 -3.6301  0.0036  0.7461
  942MOL0     H29987   9.350   5.404   5.591 -3.3837 -2.7447 -0.5207
  942MOL0     H29988   9.174   5.353   5.834 -1.5505  0.4784 -0.3520
  942MOL0     H29989   9.185   5.516   5.775  0.7344 -0.6772  0.3662
  942MOL0     H29990   9.014   5.331   5.669 -0.9185 -0.0621 -2.0718
  942MOL0     H29991   9.130   5.323   5.540  0.2670 -1.9348  1.6959
  942MOL0     H29992   8.939   5.701   5.506 -1.4772  1.0229  2.3242
  942MOL0     H29993   9.786   5.399   5.669 -0.5652 -1.1865  1.0349
  942MOL0     H29994  10.129   5.480   5.750 -0.7863 -0.4400 -0.2341
  942MOL0     H29995  10.018   5.386   5.653  1.7263 -1.5571  2.7543
  942MOL0     H29996  10.072   5.546   5.595  1.1542 -0.5051 -0.6854
  943MOL0     O29997   2.422  10.685  10.025  0.1504  0.0885 -0.4983
  943MOL0     C29998   2.405  10.787   9.956 -0.6570  0.3596 -0.4732
  943MOL0     O29999   2.439  10.797   9.822  1.1495  0.0817  0.1872
  943MOL0     C30000   2.411  10.696   9.732 -0.0546 -0.3284  0.0330
  943MOL0     C30001   2.291  10.631   9.725  0.6006 -0.7248 -0.2073
  943MOL0     C30002   2.276  10.524   9.645  0.3753 -0.4946 -0.2673
  943MOL0     C30003   2.373  10.497   9.544 -0.4097 -1.0875  0.1987
  943MOL0     O30004   2.341  10.399   9.451  0.6487  0.2351  0.1813
  943MOL0     C30005   2.441  10.355   9.354 -0.1312 -0.1945  0.3661
  943MOL0     C30006   2.380  10.257   9.262 -0.0549 -0.0263 -0.4453
  943MOL0     C30007   2.264  10.310   9.175  0.9957 -0.3850  0.2338
  943MOL0     C30008   2.204  10.216   9.076  0.5739 -0.1516  0.1651
  943MOL0     C30009   2.317  10.146   8.997 -0.4068  0.2026 -0.3940
  943MOL0     C30010   2.279  10.076   8.870 -0.6087 -0.1433  0.2925
  943MOL0     C30011   2.401  10.047   8.782 -0.0082 -0.0130 -0.7838
  943MOL0     C30012   2.359   9.965   8.655 -1.0313 -0.1010  0.3976
  943MOL0     N30013   2.292   9.838   8.682  0.4031 -0.3717 -0.4886
  943MOL0     C30014   2.363   9.724   8.680  0.1103  0.6038 -0.0226
  943MOL0     C30015   2.280   9.618   8.649 -0.3891  0.1415  0.3611
  943MOL0     C30016   2.315   9.468   8.639 -1.5516  0.5688 -0.2069
  943MOL0     C30017   2.408   9.424   8.743  0.3217 -0.0769  0.0760
  943MOL0     C30018   2.342   9.388   8.872 -0.0073  0.5144 -0.3440
  943MOL0     C30019   2.266   9.495   8.956  0.0546  1.0436  0.1456
  943MOL0     O30020   2.349   9.606   8.991  0.2879  0.4333 -0.1129
  943MOL0     C30021   2.456   9.583   9.080 -0.1889 -0.2274  0.2952
  943MOL0     C30022   2.575   9.634   9.031 -0.5836 -0.3805  0.0109
  943MOL0     C30023   2.696   9.632   9.107 -0.3094 -1.5985  0.1308
  943MOL0     C30024   2.814   9.691   9.045  0.1953  0.1400  0.5727
  943MOL0     C30025   2.698   9.564   9.234  0.0633 -0.4806  0.6515
  943MOL0     C30026   2.810   9.546   9.318  1.0243  0.1021 -0.4728
  943MOL0     O30027   2.816   9.432   9.391  0.6103 -0.5400  0.3871
  943MOL0     C30028   2.919   9.435   9.479  0.0474 -0.0729  0.8469
  943MOL0     C30029   2.882   9.465   9.614  0.5832  0.0775 -0.1095
  943MOL0     C30030   2.984   9.467   9.715 -0.2397 -0.2149  0.6687
  943MOL0     C30031   3.124   9.444   9.677  0.2344  0.4724 -0.1863
  943MOL0     O30032   3.224   9.453   9.771  0.1612 -0.4188  0.0750
  943MOL0     C30033   3.200   9.514   9.899  0.2099  0.8482  0.7075
  943MOL0     C30034   3.331   9.514   9.979 -0.3209 -0.5720  0.0905
  943MOL0     C30035   3.325   9.600  10.106  0.1744 -0.2163 -0.4638
  943MOL0     C30036   3.239   9.540  10.215 -0.5713 -0.7642  0.8359
  943MOL0     C30037   3.280   9.588  10.358  0.6454 -0.5100 -0.0543
  943MOL0     C30038   3.231   9.496  10.471  0.3957 -0.6965  0.0302
  943MOL0     C30039   3.079   9.496  10.497 -0.4864 -0.8779 -0.4604
  943MOL0     C30040   3.032   9.388  10.589  0.7957  0.2442  0.2922
  943MOL0    Cl30041   3.105   9.396  10.754 -0.0857  0.0095  0.4504
  943MOL0     C30042   3.152   9.421   9.539  0.4849  0.7955  0.3729
  943MOL0     C30043   3.051   9.419   9.443  0.5684 -0.7497  0.2279
  943MOL0     O30044   2.893   9.632   9.316 -0.0124  0.0036  0.0848
  943MOL0     C30045   2.583   9.509   9.276  0.0147  0.4058  0.4584
  943MOL0     C30046   2.463   9.519   9.198 -0.8012 -0.0104  0.0907
  943MOL0     N30047   2.157   9.674   8.630  0.5793  0.7472  0.6903
  943MOL0     N30048   2.165   9.800   8.651 -0.4951 -0.2711  0.2807
  943MOL0     C30049   2.498  10.572   9.543  0.2734 -0.1140  0.0375
  943MOL0     C30050   2.512  10.671   9.643  0.4055  0.0728  0.5347
  943MOL0     C30051   2.367  10.911  10.023  0.6905 -0.1652 -0.6430
  943MOL0     C30052   2.406  11.034   9.976  0.4592  0.8880  0.7115
  943MOL0     C30053   2.360  11.158  10.031 -0.7534 -0.2185  0.7379
  943MOL0     C30054   2.284  11.155  10.148 -1.0547 -0.2590 -0.5997
  943MOL0     O30055   2.239  11.268  10.222 -0.3816  0.6633 -0.7248
  943MOL0     C30056   2.304  11.400  10.205  0.6176 -0.1543 -0.6162
  943MOL0     C30057   2.201  11.512  10.161  0.2089  0.1380  0.5499
  943MOL0     C30058   2.124  11.474  10.038  0.0869  0.3729 -0.4037
  943MOL0     C30059   1.994  11.553  10.012  1.4929  0.1736  1.1428
  943MOL0     C30060   1.913  11.476   9.909 -0.8301  0.2301  0.1776
  943MOL0     C30061   1.834  11.415   9.832  0.2997  0.2045 -0.0341
  943MOL0     C30062   2.234  11.031  10.192  0.1422 -0.1005 -0.6509
  943MOL0     C30063   2.272  10.915  10.129  0.0719  0.2002  0.1830
  943MOL0     C30064   2.209  10.792  10.181  0.3827  0.0197 -0.1939
  943MOL0     H30065   2.209  10.678   9.780  0.8222 -0.2092 -0.3085
  943MOL0     H30066   2.186  10.463   9.646  0.9598 -1.3894 -0.6164
  943MOL0     H30067   2.524  10.314   9.413  0.0190 -0.4323  0.0003
  943MOL0     H30068   2.482  10.437   9.295 -0.5976  0.3148  0.7474
  943MOL0     H30069   2.456  10.198   9.209 -0.9590 -3.0355  1.3517
  943MOL0     H30070   2.325  10.188   9.326  0.5590  0.1488  0.2882
  943MOL0     H30071   2.185  10.336   9.246 -0.0089  0.1769 -1.0472
  943MOL0     H30072   2.295  10.405   9.130 -3.3099  1.0868 -0.1015
  943MOL0     H30073   2.135  10.142   9.119  2.6296 -2.5278 -0.4006
  943MOL0     H30074   2.145  10.269   9.002  2.6110 -0.8855 -2.1021
  943MOL0     H30075   2.374  10.083   9.066  1.9395  1.0216 -1.4808
  943MOL0     H30076   2.391  10.218   8.960  2.7118 -1.1762  2.5174
  943MOL0     H30077   2.238   9.982   8.907  3.0511 -0.8431  3.1660
  943MOL0     H30078   2.206  10.133   8.812 -0.2569  0.1102  0.0930
  943MOL0     H30079   2.479   9.995   8.838  0.5824  3.2909  1.8276
  943MOL0     H30080   2.458  10.138   8.759 -0.0242  0.9699  2.5798
  943MOL0     H30081   2.291  10.030   8.599  0.6087  0.2831 -1.2335
  943MOL0     H30082   2.448   9.952   8.593  0.0497  0.4636  1.7650
  943MOL0     H30083   2.467   9.714   8.705 -0.0640  0.5050  0.6657
  943MOL0     H30084   2.356   9.439   8.542  1.1130 -2.0568  1.5216
  943MOL0     H30085   2.231   9.397   8.646  0.7709 -2.5319 -1.3865
  943MOL0     H30086   2.449   9.328   8.711 -1.5606 -1.3917  1.3846
  943MOL0     H30087   2.493   9.492   8.751  0.9903 -1.0432  1.6907
  943MOL0     H30088   2.265   9.317   8.843 -0.3703  0.0980  1.4948
  943MOL0     H30089   2.417   9.335   8.931 -1.0278 -0.9415 -0.3250
  943MOL0     H30090   2.178   9.533   8.903 -2.5806 -3.1210  1.0591
  943MOL0     H30091   2.233   9.444   9.047  3.1075  0.1749  0.8553
  943MOL0     H30092   2.578   9.669   8.928 -1.7750 -1.7030 -0.5110
  943MOL0     H30093   2.839   9.795   9.070  0.5243  0.4708 -1.0614
  943MOL0     H30094   2.796   9.683   8.938  0.3845 -3.7361  0.6715
  943MOL0     H30095   2.902   9.629   9.064  0.6040  0.9270  1.3073
  943MOL0     H30096   2.781   9.496   9.637  1.0783 -0.6906  3.6124
  943MOL0     H30097   2.962   9.493   9.818 -0.5622  0.1816  0.5030
  943MOL0     H30098   3.156   9.613   9.886 -3.6207  0.0901  5.0751
  943MOL0     H30099   3.134   9.454   9.962  0.4463  2.6392  2.7692
  943MOL0     H30100   3.354   9.414  10.018  3.0732  1.3819  3.7587
  943MOL0     H30101   3.407   9.555   9.913 -0.1074  1.0628  1.3076
  943MOL0     H30102   3.294   9.700  10.073 -0.8333 -0.4596 -0.2971
  943MOL0     H30103   3.425   9.610  10.149  0.1361 -3.1013  0.5504
  943MOL0     H30104   3.251   9.431  10.210 -2.1504 -0.9150 -1.7202
  943MOL0     H30105   3.135   9.558  10.187 -0.6245  1.8152  2.3869
  943MOL0     H30106   3.388   9.598  10.366  0.4634  1.2038  0.7062
  943MOL0     H30107   3.237   9.689  10.360 -0.9943 -1.1326 -1.0740
  943MOL0     H30108   3.275   9.521  10.568 -1.9245 -1.3936  1.3254
  943MOL0     H30109   3.266   9.399  10.435 -2.2852 -0.9133 -2.4039
  943MOL0     H30110   3.036   9.494  10.397  2.2806 -0.6485 -1.7497
  943MOL0     H30111   3.053   9.587  10.553  1.0646 -1.0256  0.5729
  943MOL0     H30112   3.065   9.294  10.545  0.3690 -0.1242  0.7483
  943MOL0     H30113   2.923   9.401  10.596  0.8854  3.6462 -1.8789
  943MOL0     H30114   3.251   9.386   9.512  0.4221  2.2874 -2.1288
  943MOL0     H30115   3.082   9.394   9.342  0.2959 -0.8359  0.1661
  943MOL0     H30116   2.587   9.439   9.359  0.8467 -2.0992 -1.5803
  943MOL0     H30117   2.378   9.460   9.232 -1.1410  1.2075  1.4465
  943MOL0     H30118   2.578  10.553   9.473 -0.5624  0.4377 -1.0899
  943MOL0     H30119   2.601  10.734   9.645  1.7903 -1.8160  0.6005
  943MOL0     H30120   2.461  11.040   9.883  0.0860  1.1145  0.5016
  943MOL0     H30121   2.399  11.246   9.982  1.9175 -0.7621  1.7046
  943MOL0     H30122   2.345  11.438  10.299 -2.4629  1.5331  0.2105
  943MOL0     H30123   2.377  11.398  10.124  0.7471  1.9886 -0.6042
  943MOL0     H30124   2.267  11.594  10.130  1.4512 -1.1686 -0.3874
  943MOL0     H30125   2.136  11.531  10.247 -2.1483  0.6494 -1.2023
  943MOL0     H30126   2.201  11.486   9.962  0.8740 -0.6516  0.2153
  943MOL0     H30127   2.096  11.369  10.040  0.1823  0.2368 -2.9718
  943MOL0     H30128   2.013  11.651   9.965 -0.7647  0.4401  0.6810
  943MOL0     H30129   1.931  11.555  10.101 -3.4407 -1.8163 -1.9198
  943MOL0     H30130   1.760  11.368   9.771 -0.6354  3.7852 -1.9844
  943MOL0     H30131   2.184  11.024  10.289 -1.7397  0.5344 -1.5386
  943MOL0     H30132   2.129  10.826  10.248  1.3884 -0.4069  1.2979
  943MOL0     H30133   2.158  10.741  10.099  0.4755 -2.0952  0.9743
  943MOL0     H30134   2.280  10.729  10.235 -2.2708 -2.0767  1.1397
  944MOL0     O30135   8.895   1.316  11.372 -0.6258  0.3219 -0.5724
  944MOL0     C30136   8.796   1.328  11.295  0.0654  0.0094  0.7331
  944MOL0     O30137   8.791   1.365  11.165 -0.0026  0.4830 -0.2367
  944MOL0     C30138   8.916   1.391  11.111 -0.0842 -0.0754 -0.2245
  944MOL0     C30139   9.017   1.305  11.102 -0.6083 -0.3792  0.2072
  944MOL0     C30140   9.137   1.333  11.040 -0.6325  0.3237  0.2540
  944MOL0     C30141   9.167   1.462  10.989  0.7885  0.4294 -0.7222
  944MOL0     O30142   9.275   1.500  10.914  0.4992 -0.6065 -0.2251
  944MOL0     C30143   9.368   1.403  10.867  0.5578 -0.2263 -0.5366
  944MOL0     C30144   9.492   1.383  10.957  0.8923  0.2179 -0.3214
  944MOL0     C30145   9.604   1.302  10.893  0.6605  0.0859  0.3960
  944MOL0     C30146   9.662   1.352  10.762  0.7682 -0.4513 -0.2581
  944MOL0     C30147   9.786   1.272  10.718  0.2165  0.5839 -0.6216
  944MOL0     C30148   9.831   1.310  10.578  0.1504  0.3291  0.3513
  944MOL0     C30149   9.938   1.219  10.536 -0.6607 -0.7471 -0.0673
  944MOL0     C30150  10.078   1.240  10.607  0.2830 -0.1814  0.4376
  944MOL0     N30151  10.120   1.385  10.595  0.7325 -0.3351  0.1587
  944MOL0     C30152  10.124   1.473  10.699  0.3369  0.6805 -0.4708
  944MOL0     C30153  10.165   1.587  10.638 -0.2514  0.8437  0.5728
  944MOL0     C30154  10.192   1.721  10.702 -0.2019 -0.5111 -0.0326
  944MOL0     C30155  10.338   1.731  10.748 -0.2646  0.4845 -0.9953
  944MOL0     C30156  10.428   1.758  10.629 -0.3840  0.0148 -0.0364
  944MOL0     C30157  10.559   1.816  10.677  0.6857  0.7889  0.9184
  944MOL0     O30158  10.632   1.856  10.556  0.1298  0.1943  0.2476
  944MOL0     C30159  10.733   1.951  10.555  0.4164 -0.4861  0.8203
  944MOL0     C30160  10.811   1.982  10.666 -0.7119 -0.1101 -0.3917
  944MOL0     C30161  10.921   2.075  10.659 -0.1569  0.4028 -0.2438
  944MOL0     C30162  10.997   2.101  10.791 -0.8698 -0.4062  0.1161
  944MOL0     C30163  10.952   2.146  10.544 -0.1285  0.9539  0.2316
  944MOL0     C30164  11.058   2.249  10.517  0.2777  1.0463  0.1043
  944MOL0     O30165  11.137   2.285  10.626 -0.0962 -0.3180  0.3739
  944MOL0     C30166  11.261   2.330  10.594  0.3799 -0.2524  0.0444
  944MOL0     C30167  11.376   2.241  10.582  0.2293 -0.2680  0.6118
  944MOL0     C30168  11.503   2.296  10.581  0.4509 -0.0642  1.0504
  944MOL0     C30169  11.528   2.435  10.588 -0.0754  1.2365  0.3802
  944MOL0     O30170  11.650   2.495  10.599  0.0537 -0.1566 -0.0823
  944MOL0     C30171  11.761   2.389  10.602 -0.0650 -0.6910 -0.0396
  944MOL0     C30172  11.908   2.443  10.607 -0.2495  0.4477 -0.3702
  944MOL0     C30173  11.939   2.543  10.724 -0.5284 -0.7737  0.9164
  944MOL0     C30174  11.947   2.463  10.858  0.0026 -0.6312 -0.3570
  944MOL0     C30175  11.928   2.554  10.982  0.1404  0.3830  0.0831
  944MOL0     C30176  12.014   2.689  10.977  0.1861 -0.3061  0.6630
  944MOL0     C30177  12.009   2.756  11.113 -0.2923 -0.7698 -0.5168
  944MOL0     C30178  11.973   2.910  11.102 -0.0323 -0.0610  1.1385
  944MOL0    Cl30179  12.120   2.989  11.025 -0.3642  0.5105 -0.3579
  944MOL0     C30180  11.415   2.519  10.611 -0.9318 -0.7200  0.3503
  944MOL0     C30181  11.293   2.464  10.610  0.2320  0.0502  0.3214
  944MOL0     O30182  11.078   2.287  10.393 -0.1287 -0.4638 -0.6248
  944MOL0     C30183  10.863   2.122  10.430 -0.0402  0.0839 -0.2463
  944MOL0     C30184  10.757   2.029  10.439 -0.2844  0.2175 -0.0987
  944MOL0     N30185  10.174   1.569  10.504  0.2946  0.0447  0.7368
  944MOL0     N30186  10.144   1.443  10.478 -0.2633  0.3092 -0.1252
  944MOL0     C30187   9.073   1.556  11.017  0.0774 -0.6268 -0.5821
  944MOL0     C30188   8.958   1.525  11.071  0.6504  0.4127 -0.3155
  944MOL0     C30189   8.672   1.282  11.352 -0.1275 -0.8853  1.0961
  944MOL0     C30190   8.641   1.336  11.480  0.2197 -0.4344 -0.2192
  944MOL0     C30191   8.509   1.334  11.530 -0.7348 -0.1500  0.4434
  944MOL0     C30192   8.410   1.268  11.448 -0.9454  0.3150  0.1701
  944MOL0     O30193   8.274   1.265  11.505 -1.1241  0.3642 -0.6726
  944MOL0     C30194   8.173   1.219  11.426 -0.0577  0.5792  0.3093
  944MOL0     C30195   8.061   1.189  11.519  0.5582  0.6270 -0.3359
  944MOL0     C30196   7.929   1.154  11.448 -0.4836  0.5168 -0.2403
  944MOL0     C30197   7.818   1.198  11.542  0.2573 -0.0776  0.3258
  944MOL0     C30198   7.689   1.143  11.499  0.2119 -0.3180  0.2596
  944MOL0     C30199   7.588   1.077  11.456 -0.2487  0.4515 -0.2406
  944MOL0     C30200   8.442   1.202  11.329  0.7452  0.0888  0.2241
  944MOL0     C30201   8.571   1.200  11.282 -1.1258 -0.2699 -0.5335
  944MOL0     C30202   8.596   1.108  11.161  0.5639  0.1447  0.2344
  944MOL0     H30203   9.000   1.204  11.138 -2.5354 -1.1627 -2.5294
  944MOL0     H30204   9.205   1.248  11.035 -1.9346 -0.6883 -2.8871
  944MOL0     H30205   9.405   1.432  10.768  0.7356 -2.5962 -1.2227
  944MOL0     H30206   9.325   1.304  10.852 -0.2954 -0.0171  0.4247
  944MOL0     H30207   9.531   1.480  10.990 -0.5474  0.4683  0.7573
  944MOL0     H30208   9.459   1.330  11.047  0.6282 -2.1961 -1.7506
  944MOL0     H30209   9.684   1.305  10.967 -0.4943  2.0793  1.6511
  944MOL0     H30210   9.577   1.196  10.889 -2.9073  0.8081 -4.2769
  944MOL0     H30211   9.592   1.337  10.680 -1.9996  1.7381  1.5369
  944MOL0     H30212   9.688   1.458  10.762  1.5490 -0.5800  2.2854
  944MOL0     H30213   9.766   1.164  10.720 -1.5724  0.8781  1.1578
  944MOL0     H30214   9.865   1.287  10.792 -1.3392 -2.1444  1.8306
  944MOL0     H30215   9.755   1.298  10.501 -0.8209 -0.9978  1.4740
  944MOL0     H30216   9.855   1.417  10.572  0.5545  0.1666 -1.9194
  944MOL0     H30217   9.949   1.235  10.428  2.9261 -1.6032  0.0274
  944MOL0     H30218   9.904   1.117  10.554 -2.3519 -0.1459  0.3410
  944MOL0     H30219  10.084   1.205  10.711 -0.4151 -1.4606  0.0761
  944MOL0     H30220  10.155   1.179  10.560  1.7808  1.4434  0.6802
  944MOL0     H30221  10.090   1.468  10.802 -0.1850  3.3759 -0.4413
  944MOL0     H30222  10.139   1.727  10.798  0.4776 -1.7595  0.4530
  944MOL0     H30223  10.160   1.806  10.642  0.5140  0.5133  0.9859
  944MOL0     H30224  10.354   1.814  10.817  0.4378  1.3889 -2.1967
  944MOL0     H30225  10.358   1.646  10.814 -1.4689  0.5720 -0.4975
  944MOL0     H30226  10.455   1.656  10.600 -0.6232 -0.9969  2.9371
  944MOL0     H30227  10.380   1.814  10.548 -0.0687  0.3335 -0.0053
  944MOL0     H30228  10.528   1.901  10.739 -0.9690  0.5582  0.4410
  944MOL0     H30229  10.621   1.745  10.731 -0.2561  0.2131  1.2582
  944MOL0     H30230  10.787   1.935  10.761 -1.5320  0.5516 -0.2639
  944MOL0     H30231  10.973   2.205  10.816  2.3173  0.6681 -0.7808
  944MOL0     H30232  11.106   2.094  10.785 -1.0177 -1.4881 -3.2250
  944MOL0     H30233  10.971   2.034  10.873 -2.4512 -0.6542 -0.5544
  944MOL0     H30234  11.371   2.133  10.586  0.9021 -0.4890 -2.4015
  944MOL0     H30235  11.587   2.227  10.571 -1.2768 -2.2859  0.9094
  944MOL0     H30236  11.751   2.319  10.685  5.8944 -0.1599  1.5855
  944MOL0     H30237  11.756   2.323  10.515  0.5054 -1.7171  0.6933
  944MOL0     H30238  11.972   2.356  10.619  0.3201  0.4441 -2.8877
  944MOL0     H30239  11.933   2.483  10.509 -3.1272  0.0934 -1.3427
  944MOL0     H30240  11.862   2.620  10.738  0.5629  0.4364  0.5000
  944MOL0     H30241  12.033   2.595  10.701  0.0076 -1.6818  1.0257
  944MOL0     H30242  12.042   2.410  10.852  0.7377  0.6559 -0.4996
  944MOL0     H30243  11.868   2.387  10.862 -0.6728  0.0976  1.1884
  944MOL0     H30244  11.821   2.577  10.989  0.1028  0.4483 -0.6901
  944MOL0     H30245  11.972   2.496  11.064  2.5805  2.4765  0.3580
  944MOL0     H30246  11.982   2.761  10.901 -0.3361 -0.3281  0.8612
  944MOL0     H30247  12.116   2.662  10.946 -0.2842  0.1600 -1.4694
  944MOL0     H30248  12.104   2.742  11.165  1.2774 -1.6508 -3.3911
  944MOL0     H30249  11.926   2.714  11.169 -1.5611  0.8962 -1.0809
  944MOL0     H30250  11.949   2.962  11.195 -2.0626  1.1277  0.0104
  944MOL0     H30251  11.897   2.930  11.027  1.7154 -2.9855 -1.6830
  944MOL0     H30252  11.430   2.627  10.613  2.4666 -1.0652 -0.8199
  944MOL0     H30253  11.215   2.538  10.627 -2.2342 -2.2584 -0.2412
  944MOL0     H30254  10.873   2.184  10.342  0.2646 -1.1223 -1.0875
  944MOL0     H30255  10.699   2.029  10.347  0.4139 -0.5998 -0.5661
  944MOL0     H30256   9.081   1.653  10.969 -0.9245 -0.0055  0.4555
  944MOL0     H30257   8.890   1.606  11.095  0.1801 -0.2649  0.7323
  944MOL0     H30258   8.723   1.389  11.527 -0.5517 -2.6886  4.3333
  944MOL0     H30259   8.483   1.377  11.627 -0.8335  1.9754 -0.4674
  944MOL0     H30260   8.146   1.290  11.348  2.1681  1.0110 -0.1303
  944MOL0     H30261   8.188   1.124  11.375  2.1120  1.2287 -0.3718
  944MOL0     H30262   8.040   1.275  11.583  0.0953 -0.9904  1.7994
  944MOL0     H30263   8.093   1.104  11.580 -2.6256 -1.5571 -1.4067
  944MOL0     H30264   7.920   1.205  11.352  1.9011 -0.0028 -0.7990
  944MOL0     H30265   7.921   1.045  11.442  1.9832  0.0709  2.4922
  944MOL0     H30266   7.817   1.306  11.560  4.0621 -0.3344  3.1481
  944MOL0     H30267   7.837   1.151  11.638 -0.1177 -1.0963 -0.0897
  944MOL0     H30268   7.501   1.024  11.423  0.0457 -1.0547  1.2721
  944MOL0     H30269   8.365   1.143  11.279  0.5787  0.1251  0.4336
  944MOL0     H30270   8.665   1.147  11.085  0.1180 -1.1881 -0.8815
  944MOL0     H30271   8.636   1.019  11.211 -1.5725 -0.0127  1.7886
  944MOL0     H30272   8.502   1.075  11.118  1.2313 -1.0189 -0.3958
  945MOL0     O30273   5.032  11.065   8.062 -0.1120  0.4183 -0.2081
  945MOL0     C30274   5.018  10.983   7.973  0.3026 -0.0327  0.0851
  945MOL0     O30275   5.076  10.859   7.966 -0.2739  1.1470 -0.2558
  945MOL0     C30276   5.145  10.807   8.072  0.5630  0.4711  0.7954
  945MOL0     C30277   5.103  10.683   8.129 -0.1829 -0.0721  0.6634
  945MOL0     C30278   5.161  10.636   8.243  0.2011  0.2694 -0.1246
  945MOL0     C30279   5.280  10.702   8.294  0.1075 -0.8047  0.8868
  945MOL0     O30280   5.353  10.656   8.406  0.1953  0.0086  0.2375
  945MOL0     C30281   5.283  10.636   8.523  0.3065 -0.0134  0.4574
  945MOL0     C30282   5.387  10.616   8.643  0.5182 -0.3106 -0.2604
  945MOL0     C30283   5.422  10.472   8.687 -0.0832 -0.4152  0.2340
  945MOL0     C30284   5.512  10.462   8.813  0.7635  0.7375 -0.5269
  945MOL0     C30285   5.637  10.534   8.777 -0.1952 -0.1376 -0.1295
  945MOL0     C30286   5.750  10.485   8.868 -0.0299  0.0084 -0.1033
  945MOL0     C30287   5.799  10.343   8.833  0.2285  0.2465 -0.3672
  945MOL0     C30288   5.918  10.305   8.912  0.6758 -0.6358 -0.3839
  945MOL0     N30289   5.989  10.190   8.867  0.1501  0.1712 -0.2094
  945MOL0     C30290   6.054  10.174   8.742  0.0354 -0.1065 -0.1632
  945MOL0     C30291   6.112  10.051   8.747 -0.2178 -0.1013 -0.0718
  945MOL0     C30292   6.180   9.978   8.642 -0.1175 -0.4690 -0.6651
  945MOL0     C30293   6.301   9.888   8.674  0.1710  0.5251 -0.5536
  945MOL0     C30294   6.344   9.817   8.544 -0.1874  0.3168  0.0742
  945MOL0     C30295   6.479   9.737   8.552  0.0244  0.1757  0.2062
  945MOL0     O30296   6.480   9.648   8.657  0.2092 -0.1699 -0.0856
  945MOL0     C30297   6.596   9.570   8.674 -0.6736 -0.9364  0.9954
  945MOL0     C30298   6.707   9.568   8.591  0.0081  0.1085 -0.6711
  945MOL0     C30299   6.809   9.473   8.619  0.2383 -0.4205 -0.4344
  945MOL0     C30300   6.916   9.481   8.515 -0.1271  0.5046 -0.6948
  945MOL0     C30301   6.816   9.392   8.736 -0.6882 -0.0583 -0.1498
  945MOL0     C30302   6.928   9.300   8.769  0.6932 -0.4436 -0.1436
  945MOL0     O30303   7.036   9.304   8.686 -0.2383 -0.3474 -0.3710
  945MOL0     C30304   7.138   9.220   8.692 -0.4159  0.1290 -0.0495
  945MOL0     C30305   7.271   9.263   8.652  0.8241  0.5333 -0.0197
  945MOL0     C30306   7.383   9.184   8.670 -0.4613 -0.3511 -0.0928
  945MOL0     C30307   7.376   9.054   8.719 -0.0636  0.3525 -0.3592
  945MOL0     O30308   7.472   8.956   8.732 -0.5195  0.2489 -0.1164
  945MOL0     C30309   7.435   8.818   8.764 -0.1449 -0.0184 -0.1029
  945MOL0     C30310   7.552   8.727   8.755  0.3903 -0.3508  0.1792
  945MOL0     C30311   7.656   8.766   8.863  0.4055  0.2982  0.2115
  945MOL0     C30312   7.753   8.645   8.871 -0.1698 -0.5972 -0.0067
  945MOL0     C30313   7.870   8.647   8.970  0.1365  0.0607 -0.4916
  945MOL0     C30314   7.951   8.515   8.963  1.3665 -0.2720 -0.3360
  945MOL0     C30315   8.081   8.521   9.056 -1.6326 -0.2088 -0.1166
  945MOL0     C30316   8.198   8.427   9.007  0.6635  0.3384 -0.5035
  945MOL0    Cl30317   8.350   8.433   9.101  0.0209  0.6375  0.3501
  945MOL0     C30318   7.242   9.023   8.767  1.0481  0.0719  1.0074
  945MOL0     C30319   7.132   9.100   8.750  0.1493  1.0719 -0.4166
  945MOL0     O30320   6.927   9.255   8.884 -0.3361 -0.0637  0.1906
  945MOL0     C30321   6.697   9.395   8.817 -0.0256 -0.1968 -0.5552
  945MOL0     C30322   6.591   9.486   8.783 -0.2900  0.4573  0.2862
  945MOL0     N30323   6.095  10.005   8.877  0.1424 -0.0544 -0.2638
  945MOL0     N30324   6.018  10.086   8.949  0.0693  0.3154  0.3798
  945MOL0     C30325   5.331  10.807   8.218  0.3751 -0.2028 -0.3031
  945MOL0     C30326   5.265  10.868   8.118  0.3338  0.3396  0.1530
  945MOL0     C30327   4.937  11.015   7.858 -0.2756 -0.0551  0.0345
  945MOL0     C30328   4.826  10.944   7.828  0.0693 -0.0624 -0.1143
  945MOL0     C30329   4.754  10.973   7.707 -0.2063  0.7507 -0.0626
  945MOL0     C30330   4.808  11.050   7.613 -0.8829 -0.9821  1.0303
  945MOL0     O30331   4.756  11.065   7.482  0.1152  0.7848  0.4753
  945MOL0     C30332   4.654  10.979   7.430  0.0174  0.2420 -0.1511
  945MOL0     C30333   4.682  10.831   7.406 -1.2360  0.6941  0.1283
  945MOL0     C30334   4.562  10.752   7.356 -0.5491  0.0670  0.4861
  945MOL0     C30335   4.533  10.786   7.206 -0.8316  0.4298  0.1493
  945MOL0     C30336   4.435  10.694   7.147  0.0183 -0.1584  0.1524
  945MOL0     C30337   4.345  10.635   7.091  1.2279 -0.3431 -0.2705
  945MOL0     C30338   4.926  11.120   7.644  0.5067 -0.3320 -0.2273
  945MOL0     C30339   4.988  11.112   7.769 -0.4126 -0.3321 -0.1258
  945MOL0     C30340   5.117  11.182   7.784 -0.1639 -0.5743 -1.2070
  945MOL0     H30341   5.007  10.645   8.094 -0.1729  0.0203  0.5356
  945MOL0     H30342   5.106  10.563   8.301 -0.3695 -1.2587 -2.4492
  945MOL0     H30343   5.209  10.556   8.519 -1.2167  1.3831 -3.2799
  945MOL0     H30344   5.227  10.729   8.539  2.7474  1.6946 -0.3382
  945MOL0     H30345   5.478  10.673   8.621  0.5813  0.2712  1.3865
  945MOL0     H30346   5.353  10.668   8.733 -1.1980 -0.7248 -0.6390
  945MOL0     H30347   5.329  10.414   8.689 -1.1248  1.1886  0.9550
  945MOL0     H30348   5.472  10.422   8.604 -2.3253 -2.9895  0.3118
  945MOL0     H30349   5.466  10.501   8.904  1.9275  1.5272 -0.2451
  945MOL0     H30350   5.526  10.354   8.817 -0.7108  0.5120 -1.0786
  945MOL0     H30351   5.630  10.643   8.782  0.2775 -0.0591 -1.0132
  945MOL0     H30352   5.676  10.517   8.676  2.3109 -1.3182  0.9497
  945MOL0     H30353   5.836  10.553   8.866 -0.3513  0.6119  2.4111
  945MOL0     H30354   5.718  10.491   8.973 -1.9356 -2.5165 -0.4635
  945MOL0     H30355   5.825  10.352   8.727  0.9071 -1.4112 -0.3864
  945MOL0     H30356   5.729  10.260   8.841 -0.7531  1.0976  0.0663
  945MOL0     H30357   5.984  10.392   8.918  1.2078 -1.0394  5.3436
  945MOL0     H30358   5.889  10.287   9.016  0.5965 -0.3175 -0.3493
  945MOL0     H30359   6.044  10.245   8.661 -1.3635  1.1692  1.0898
  945MOL0     H30360   6.229  10.059   8.586 -0.2917  2.5694  3.1334
  945MOL0     H30361   6.104   9.921   8.589 -1.6864  1.6861 -0.8690
  945MOL0     H30362   6.389   9.943   8.706 -0.2178  0.9840 -0.2587
  945MOL0     H30363   6.259   9.818   8.747 -1.7015  0.9827 -1.1277
  945MOL0     H30364   6.264   9.749   8.513  1.5717 -1.6391 -0.3320
  945MOL0     H30365   6.351   9.893   8.465 -0.0769 -0.5997 -0.8254
  945MOL0     H30366   6.481   9.678   8.460  0.6724  0.8795 -0.2454
  945MOL0     H30367   6.554   9.817   8.558  0.8095 -0.4587 -0.7805
  945MOL0     H30368   6.725   9.635   8.507  2.0285  0.8944  0.3077
  945MOL0     H30369   7.012   9.526   8.543  0.7234 -2.3548  1.5577
  945MOL0     H30370   6.877   9.514   8.419  0.4618 -2.7580 -2.2010
  945MOL0     H30371   6.951   9.382   8.482  0.6655  0.6609 -0.3516
  945MOL0     H30372   7.275   9.363   8.610 -3.1688  1.0718  0.5182
  945MOL0     H30373   7.482   9.202   8.629 -1.0159  2.8039 -0.2904
  945MOL0     H30374   7.403   8.805   8.867  0.6246 -1.8417 -0.0664
  945MOL0     H30375   7.363   8.788   8.688 -1.0586 -2.9096  1.7508
  945MOL0     H30376   7.519   8.622   8.760 -0.4795 -0.0826  0.2369
  945MOL0     H30377   7.599   8.748   8.658 -0.3034  1.4556  0.2047
  945MOL0     H30378   7.600   8.782   8.955 -1.5487  1.3786 -1.0973
  945MOL0     H30379   7.717   8.855   8.841 -2.9874  3.1464  1.3927
  945MOL0     H30380   7.784   8.632   8.767 -0.4190  2.9782 -0.6495
  945MOL0     H30381   7.698   8.558   8.908  2.3718 -2.1116  0.4467
  945MOL0     H30382   7.936   8.733   8.956  0.7379  0.0989  2.1868
  945MOL0     H30383   7.816   8.648   9.065  0.4694  0.3126 -0.3045
  945MOL0     H30384   7.973   8.509   8.857 -1.2742  3.3937 -1.3153
  945MOL0     H30385   7.888   8.429   8.989 -0.3794  1.6548  2.3633
  945MOL0     H30386   8.058   8.486   9.157  2.5026  0.3250  1.1765
  945MOL0     H30387   8.106   8.627   9.069 -4.8906  0.9349 -1.8670
  945MOL0     H30388   8.221   8.433   8.900 -1.8247 -3.5238 -1.4592
  945MOL0     H30389   8.168   8.322   9.006 -1.7241  0.9578 -1.5054
  945MOL0     H30390   7.224   8.934   8.827 -0.7341  1.4853  2.6982
  945MOL0     H30391   7.036   9.058   8.779  0.1875  2.0997  1.3491
  945MOL0     H30392   6.685   9.344   8.912 -0.5325  3.0939  1.2998
  945MOL0     H30393   6.506   9.497   8.850 -1.3163 -1.1596 -0.6962
  945MOL0     H30394   5.427  10.833   8.260  1.0680 -3.2141  0.2167
  945MOL0     H30395   5.316  10.952   8.071  2.2828 -0.2260  1.1668
  945MOL0     H30396   4.795  10.869   7.900  1.2745 -1.1904 -0.7299
  945MOL0     H30397   4.666  10.911   7.694 -1.0998  1.9087  0.3424
  945MOL0     H30398   4.569  10.986   7.500  0.5217  2.4237  0.3016
  945MOL0     H30399   4.627  11.026   7.335  0.6730 -1.7994 -1.4155
  945MOL0     H30400   4.730  10.790   7.496 -1.4564 -1.8537 -0.8446
  945MOL0     H30401   4.753  10.817   7.324  1.0101 -0.1525  2.0815
  945MOL0     H30402   4.578  10.644   7.367  0.1386  0.4082  4.1152
  945MOL0     H30403   4.480  10.786   7.419  0.8018  0.4364  2.0967
  945MOL0     H30404   4.622  10.771   7.146 -0.2029  0.9932  0.9206
  945MOL0     H30405   4.510  10.890   7.183  1.0094  0.4707 -1.6995
  945MOL0     H30406   4.283  10.584   7.019  1.4610 -0.6490 -0.2568
  945MOL0     H30407   4.961  11.183   7.563 -1.0957  0.1000 -0.6142
  945MOL0     H30408   5.201  11.111   7.778 -0.9120 -2.0081  2.6332
  945MOL0     H30409   5.143  11.262   7.714  0.5258  1.1364  0.9129
  945MOL0     H30410   5.117  11.222   7.886 -2.2645 -1.5819 -0.7521
  946MOL0     O30411   0.057   5.283   2.893 -0.5635 -0.6870  0.3066
  946MOL0     C30412  -0.022   5.291   2.799 -0.2890 -0.4181  0.4248
  946MOL0     O30413  -0.133   5.218   2.784 -0.1022 -0.0239  0.1083
  946MOL0     C30414  -0.145   5.109   2.870  0.0102 -0.1280  0.6223
  946MOL0     C30415  -0.073   4.997   2.839 -0.1315  0.5723  0.0421
  946MOL0     C30416  -0.084   4.888   2.925  0.5113  0.1364 -1.1934
  946MOL0     C30417  -0.167   4.893   3.042  0.5574  0.5629  0.9947
  946MOL0     O30418  -0.175   4.796   3.140  0.4245  0.3837  0.4840
  946MOL0     C30419  -0.165   4.655   3.093  0.0315  0.1440  0.5939
  946MOL0     C30420  -0.303   4.606   3.040 -0.3747 -0.5595  0.6767
  946MOL0     C30421  -0.392   4.569   3.164 -0.7581  0.1627  0.5797
  946MOL0     C30422  -0.524   4.637   3.155  0.1905  0.0246 -0.4362
  946MOL0     C30423  -0.619   4.601   3.041 -0.1715  0.1686 -0.1205
  946MOL0     C30424  -0.678   4.465   3.044 -0.1185  0.6988 -0.0527
  946MOL0     C30425  -0.778   4.437   3.157  0.0117  0.0691  0.1865
  946MOL0     C30426  -0.851   4.299   3.139  0.8936 -0.1413  0.6651
  946MOL0     N30427  -0.949   4.306   3.031 -0.2995 -0.6755 -0.0217
  946MOL0     C30428  -1.087   4.327   3.053 -0.6095 -0.5130 -0.3995
  946MOL0     C30429  -1.137   4.331   2.931 -0.3183 -0.9264 -0.0988
  946MOL0     C30430  -1.284   4.323   2.888 -0.3539  0.6456 -0.3245
  946MOL0     C30431  -1.370   4.428   2.951 -0.4124 -0.3717  0.3015
  946MOL0     C30432  -1.378   4.561   2.871  0.6223 -0.2250  0.5857
  946MOL0     C30433  -1.243   4.630   2.852  1.3966  0.3573 -0.3589
  946MOL0     O30434  -1.184   4.631   2.981  0.4406  0.1004 -0.1175
  946MOL0     C30435  -1.095   4.723   3.028 -0.2710 -0.8080 -0.4552
  946MOL0     C30436  -1.037   4.817   2.942 -0.9681  0.2235 -0.1325
  946MOL0     C30437  -0.948   4.914   2.984  0.0329 -0.5489 -0.1318
  946MOL0     C30438  -0.893   5.015   2.887  0.5281 -0.5506 -0.6674
  946MOL0     C30439  -0.907   4.920   3.119  0.6454  0.4071  0.3790
  946MOL0     C30440  -0.817   5.029   3.166 -0.1399  0.1226 -0.2057
  946MOL0     O30441  -0.687   5.016   3.115  0.3972  0.0703  0.1083
  946MOL0     C30442  -0.604   5.117   3.145 -0.2940 -0.3772 -0.3104
  946MOL0     C30443  -0.593   5.237   3.079 -0.0970 -0.2533 -0.1262
  946MOL0     C30444  -0.520   5.340   3.125  0.2106 -0.2296  0.4007
  946MOL0     C30445  -0.442   5.332   3.242  0.1533 -0.1034  0.0505
  946MOL0     O30446  -0.353   5.427   3.276 -0.3123  0.3372  0.8021
  946MOL0     C30447  -0.345   5.461   3.417 -0.1486 -0.3021 -0.2511
  946MOL0     C30448  -0.264   5.579   3.436 -0.2319 -0.4201 -1.0424
  946MOL0     C30449  -0.348   5.697   3.393 -0.0277 -0.0258  0.3777
  946MOL0     C30450  -0.346   5.713   3.236 -0.4485  0.0987 -0.1487
  946MOL0     C30451  -0.398   5.853   3.222  0.2919 -0.3448  0.2869
  946MOL0     C30452  -0.394   5.889   3.074  0.1063 -0.1602 -0.4629
  946MOL0     C30453  -0.428   6.032   3.050 -0.0298  0.2267 -0.5854
  946MOL0     C30454  -0.433   6.075   2.900  1.1751 -0.1453 -0.6093
  946MOL0    Cl30455  -0.276   6.050   2.818  0.2294 -0.5274  0.0838
  946MOL0     C30456  -0.454   5.211   3.318  0.5448  0.6790  0.0110
  946MOL0     C30457  -0.527   5.110   3.266 -0.4650 -0.1858  0.1814
  946MOL0     O30458  -0.859   5.100   3.258 -0.3371 -0.2815  0.4928
  946MOL0     C30459  -0.963   4.830   3.208  0.3930  0.4761  0.8347
  946MOL0     C30460  -1.057   4.734   3.163  0.8463 -0.5150 -0.3893
  946MOL0     N30461  -1.044   4.310   2.837  0.3919  0.4330  0.5988
  946MOL0     N30462  -0.934   4.278   2.898  0.4346 -0.5183 -0.0681
  946MOL0     C30463  -0.233   5.017   3.065 -0.6972  0.6080  0.0928
  946MOL0     C30464  -0.219   5.129   2.985  0.6729  0.6079  0.5182
  946MOL0     C30465  -0.007   5.417   2.720  0.2330 -0.0058  0.2858
  946MOL0     C30466  -0.113   5.440   2.632  0.2937 -0.6563  0.5026
  946MOL0     C30467  -0.113   5.553   2.545  0.4395 -0.4076  0.1643
  946MOL0     C30468  -0.009   5.651   2.545  0.2849  0.1032 -0.1329
  946MOL0     O30469  -0.005   5.773   2.482  0.8017  0.4136  0.4235
  946MOL0     C30470  -0.140   5.838   2.464 -0.1082 -0.3413  0.0821
  946MOL0     C30471  -0.180   5.800   2.321 -0.1036 -1.0267  0.0177
  946MOL0     C30472  -0.298   5.885   2.269 -0.0388  0.7436  1.5987
  946MOL0     C30473  -0.301   5.882   2.117  0.4067 -0.2944  0.2717
  946MOL0     C30474  -0.417   5.948   2.062 -0.6650  0.5270 -1.2067
  946MOL0     C30475  -0.499   6.010   2.016  0.3756  0.0553  0.6307
  946MOL0     C30476   0.098   5.619   2.627 -1.7386  0.4469  0.3295
  946MOL0     C30477   0.098   5.506   2.721  0.0260 -1.3640  0.8224
  946MOL0     C30478   0.221   5.489   2.797 -0.7520  0.9719 -0.0576
  946MOL0     H30479  -0.002   4.994   2.757 -0.3225  2.4237 -0.2220
  946MOL0     H30480  -0.029   4.797   2.902  1.0821  0.0678  0.2768
  946MOL0     H30481  -0.138   4.586   3.174  2.5373 -2.6738 -2.3543
  946MOL0     H30482  -0.088   4.637   3.017 -2.1639 -4.3287 -0.9032
  946MOL0     H30483  -0.346   4.682   2.974  1.1747 -0.1901  0.0265
  946MOL0     H30484  -0.278   4.519   2.979  1.4560 -0.7037  1.5372
  946MOL0     H30485  -0.401   4.460   3.158  2.3850 -0.2781  1.9657
  946MOL0     H30486  -0.338   4.594   3.255 -0.3039 -1.1362  0.6928
  946MOL0     H30487  -0.577   4.636   3.250  1.6366 -0.0035  0.4058
  946MOL0     H30488  -0.504   4.744   3.146 -1.6189  0.4135 -0.1541
  946MOL0     H30489  -0.571   4.621   2.945  1.3065 -0.2667  0.4953
  946MOL0     H30490  -0.701   4.673   3.048  0.9186  1.3311  1.5691
  946MOL0     H30491  -0.729   4.450   2.948 -0.1657 -1.6861  0.2919
  946MOL0     H30492  -0.601   4.387   3.042 -0.7784  0.0468 -1.7173
  946MOL0     H30493  -0.855   4.514   3.159  0.7657  0.8453  1.6489
  946MOL0     H30494  -0.725   4.433   3.253  0.3379 -1.9278 -0.0204
  946MOL0     H30495  -0.781   4.219   3.114 -0.4139 -1.7963  2.0291
  946MOL0     H30496  -0.897   4.270   3.234 -1.5577 -2.4213 -1.0705
  946MOL0     H30497  -1.127   4.342   3.153  0.1144  1.5512 -0.3720
  946MOL0     H30498  -1.320   4.225   2.920  0.3562  0.7172  0.7343
  946MOL0     H30499  -1.296   4.326   2.780  2.2330 -0.7853 -0.7241
  946MOL0     H30500  -1.472   4.389   2.947 -0.2032 -1.1526 -4.8386
  946MOL0     H30501  -1.339   4.454   3.052 -3.3178  0.9372  0.9700
  946MOL0     H30502  -1.426   4.549   2.773  2.4729 -0.7192 -0.3035
  946MOL0     H30503  -1.435   4.630   2.934 -0.6019 -0.3409 -0.3480
  946MOL0     H30504  -1.174   4.581   2.782  0.3626 -2.8714  0.7055
  946MOL0     H30505  -1.267   4.729   2.811 -2.4775 -0.5570 -0.6886
  946MOL0     H30506  -1.052   4.800   2.836 -0.3840 -0.6870 -0.0792
  946MOL0     H30507  -0.830   5.089   2.936 -0.3171 -0.2547 -0.0204
  946MOL0     H30508  -0.981   5.065   2.847  0.4866  0.7791  0.9994
  946MOL0     H30509  -0.827   4.979   2.807  0.1663 -2.7404 -0.0493
  946MOL0     H30510  -0.639   5.261   2.983 -1.1846 -2.0795 -0.0882
  946MOL0     H30511  -0.508   5.437   3.077  1.0661 -0.1482  0.7709
  946MOL0     H30512  -0.444   5.478   3.459 -0.3523  0.4119 -0.9969
  946MOL0     H30513  -0.298   5.383   3.477 -2.0623 -1.5595 -0.3235
  946MOL0     H30514  -0.234   5.591   3.540  2.0135  1.2054 -1.7972
  946MOL0     H30515  -0.173   5.577   3.376 -0.2844 -0.4417 -1.1197
  946MOL0     H30516  -0.303   5.785   3.438  2.2104 -0.5721 -0.6742
  946MOL0     H30517  -0.453   5.694   3.426 -0.9997  0.1710 -2.4150
  946MOL0     H30518  -0.418   5.646   3.187 -1.5654 -0.6169  2.3302
  946MOL0     H30519  -0.243   5.706   3.199 -0.0029 -0.8850  1.2077
  946MOL0     H30520  -0.505   5.857   3.244  0.1519  2.3626 -0.4758
  946MOL0     H30521  -0.344   5.932   3.276 -1.5931  0.0690  1.6869
  946MOL0     H30522  -0.464   5.821   3.025  0.4437 -1.5595  0.9551
  946MOL0     H30523  -0.295   5.873   3.030 -0.0781 -0.5835 -0.7279
  946MOL0     H30524  -0.353   6.096   3.099 -0.3288  3.0330 -3.4898
  946MOL0     H30525  -0.519   6.064   3.100 -0.5682 -2.6024  0.4112
  946MOL0     H30526  -0.471   6.178   2.895 -3.4765 -1.6152 -0.6883
  946MOL0     H30527  -0.506   6.011   2.850 -1.7011  1.1764  1.5489
  946MOL0     H30528  -0.389   5.184   3.401  1.6496 -1.0502 -1.3298
  946MOL0     H30529  -0.540   5.013   3.313  0.3571 -1.2021 -1.5986
  946MOL0     H30530  -0.944   4.838   3.314  1.5091  1.4235  0.5891
  946MOL0     H30531  -1.118   4.678   3.233 -0.3136 -0.2467 -1.1397
  946MOL0     H30532  -0.295   5.025   3.154 -0.7653 -2.2305  0.3627
  946MOL0     H30533  -0.269   5.220   3.015  0.8260  0.0738  2.5119
  946MOL0     H30534  -0.208   5.388   2.635 -0.4981  0.7564  0.6573
  946MOL0     H30535  -0.198   5.563   2.478  0.9323 -0.4152 -0.4635
  946MOL0     H30536  -0.214   5.813   2.540 -1.4975 -2.1706 -1.7737
  946MOL0     H30537  -0.119   5.945   2.471  2.2863 -0.8535  2.2273
  946MOL0     H30538  -0.194   5.692   2.316 -0.5840 -0.9121 -1.6742
  946MOL0     H30539  -0.087   5.807   2.264  0.5948 -3.7527  0.6626
  946MOL0     H30540  -0.387   5.832   2.306  0.6650 -2.7003 -1.1138
  946MOL0     H30541  -0.301   5.991   2.295 -3.6302  1.7206 -1.8338
  946MOL0     H30542  -0.296   5.778   2.086  2.1191 -0.8509  2.1897
  946MOL0     H30543  -0.211   5.939   2.093  0.4458 -0.9044 -1.1287
  946MOL0     H30544  -0.578   6.068   1.971  1.7545  2.0441  0.6286
  946MOL0     H30545   0.181   5.690   2.636 -1.5331  0.1987  0.3883
  946MOL0     H30546   0.197   5.493   2.904  0.3972  1.8316  0.1868
  946MOL0     H30547   0.257   5.390   2.767 -1.3861  0.3569  1.1291
  946MOL0     H30548   0.293   5.569   2.779 -1.3527  1.0635 -2.3787
  947MOL0     O30549  10.823   7.649  10.478 -0.1918  0.0212  0.1642
  947MOL0     C30550  10.724   7.624  10.400  0.3434 -0.4558 -0.4476
  947MOL0     O30551  10.734   7.586  10.271  0.1361  0.0977 -0.3128
  947MOL0     C30552  10.861   7.549  10.227 -0.0060 -0.4367  0.1050
  947MOL0     C30553  10.884   7.422  10.169 -0.5080 -0.0271 -0.3402
  947MOL0     C30554  11.009   7.388  10.117  0.3895 -0.0187 -0.1068
  947MOL0     C30555  11.114   7.483  10.107 -0.4004 -0.5501  0.5167
  947MOL0     O30556  11.236   7.438  10.049  0.5235  0.4776  0.5262
  947MOL0     C30557  11.243   7.325   9.963  0.0625 -0.3069  0.9138
  947MOL0     C30558  11.359   7.330   9.872 -0.2331 -0.3501  0.5064
  947MOL0     C30559  11.325   7.363   9.732 -0.1964 -0.0621 -0.5157
  947MOL0     C30560  11.447   7.403   9.658  0.0683 -0.9297 -0.1258
  947MOL0     C30561  11.418   7.440   9.520  0.3800 -0.1852 -0.1504
  947MOL0     C30562  11.536   7.492   9.440 -0.6428  0.0492 -0.2396
  947MOL0     C30563  11.642   7.379   9.436 -0.2895  0.3377  1.1224
  947MOL0     C30564  11.752   7.423   9.342 -0.3663 -0.2444  0.3248
  947MOL0     N30565  11.836   7.304   9.306  0.6180 -0.7720  0.0720
  947MOL0     C30566  11.929   7.245   9.384  0.2164 -0.3691 -0.5068
  947MOL0     C30567  12.004   7.168   9.301  0.9936  0.1452  0.3697
  947MOL0     C30568  12.115   7.062   9.335  0.7541 -0.8879 -0.5544
  947MOL0     C30569  12.247   7.137   9.328 -0.0093  0.7531  0.5575
  947MOL0     C30570  12.317   7.116   9.186 -0.2100  0.4047  0.8029
  947MOL0     C30571  12.435   7.212   9.149 -0.7842 -0.2351 -0.1772
  947MOL0     O30572  12.534   7.138   9.079  0.3081 -0.9394 -0.4087
  947MOL0     C30573  12.654   7.194   9.091 -0.3757 -0.5878 -0.1919
  947MOL0     C30574  12.681   7.332   9.058  0.3347 -0.8160  0.2813
  947MOL0     C30575  12.809   7.382   9.058  0.0241  0.0566 -0.6127
  947MOL0     C30576  12.830   7.533   9.023  0.1060  0.4303  0.0708
  947MOL0     C30577  12.922   7.299   9.102  0.4914  0.0310 -0.1625
  947MOL0     C30578  13.059   7.350   9.118 -0.6059 -0.3184  0.5844
  947MOL0     O30579  13.075   7.485   9.143  0.4107 -0.3588 -0.0739
  947MOL0     C30580  13.204   7.532   9.135  0.3568  0.2956 -0.2923
  947MOL0     C30581  13.256   7.591   9.259 -0.1640  0.8867  0.2577
  947MOL0     C30582  13.388   7.635   9.255  0.1803  0.5601  0.6520
  947MOL0     C30583  13.473   7.620   9.143  0.1193  0.0228  0.5306
  947MOL0     O30584  13.603   7.659   9.151  0.6332 -0.5275 -0.2414
  947MOL0     C30585  13.692   7.637   9.043 -0.0073 -0.4398 -0.7323
  947MOL0     C30586  13.830   7.642   9.103 -0.2644 -0.2416  0.6351
  947MOL0     C30587  13.932   7.598   8.996 -0.1338 -0.1950  0.5547
  947MOL0     C30588  14.082   7.634   9.028  0.0661 -1.1136  0.1301
  947MOL0     C30589  14.177   7.538   8.962  0.4335  0.1669  0.1543
  947MOL0     C30590  14.192   7.554   8.807 -0.2361 -0.4064  0.4016
  947MOL0     C30591  14.285   7.446   8.739  0.7686  0.0051  0.5939
  947MOL0     C30592  14.310   7.486   8.588  0.9297  0.1519 -1.0402
  947MOL0    Cl30593  14.425   7.624   8.580  0.3365  0.3628 -0.2193
  947MOL0     C30594  13.419   7.560   9.028  0.1538  0.5350 -0.1664
  947MOL0     C30595  13.284   7.524   9.024 -1.4262  0.6438 -0.1719
  947MOL0     O30596  13.146   7.267   9.107  0.2587  0.4401  0.0186
  947MOL0     C30597  12.883   7.165   9.144 -0.1071  0.3389  0.7990
  947MOL0     C30598  12.757   7.110   9.134 -0.7315 -0.7982 -0.1702
  947MOL0     N30599  11.940   7.166   9.177  0.2417  0.4070 -0.4265
  947MOL0     N30600  11.839   7.250   9.184  0.6967  0.0877 -0.6431
  947MOL0     C30601  11.087   7.612  10.162  0.2343  0.0563 -0.3858
  947MOL0     C30602  10.966   7.645  10.227  1.0479  0.3607  0.5270
  947MOL0     C30603  10.589   7.636  10.454 -0.0131  0.2825 -0.0661
  947MOL0     C30604  10.558   7.752  10.537 -0.5037  0.7461  0.6137
  947MOL0     C30605  10.422   7.763  10.581  0.1437 -0.5247  0.5262
  947MOL0     C30606  10.324   7.664  10.558  0.4477  0.5887  1.2443
  947MOL0     O30607  10.203   7.690  10.625  0.2282  0.8726 -0.0778
  947MOL0     C30608  10.097   7.595  10.616  0.3357  0.5077 -0.1548
  947MOL0     C30609   9.971   7.685  10.612  0.4467 -0.2802 -0.0452
  947MOL0     C30610   9.947   7.767  10.742  0.2173  0.4889  0.0381
  947MOL0     C30611   9.915   7.681  10.874  0.1760  0.0978  0.2032
  947MOL0     C30612   9.780   7.617  10.887 -0.1303  0.0151  0.2346
  947MOL0     C30613   9.667   7.586  10.926  0.0359  1.0063  0.6259
  947MOL0     C30614  10.358   7.556  10.476 -1.3752  0.5152  0.1965
  947MOL0     C30615  10.493   7.544  10.426  1.5452  0.4926 -0.0825
  947MOL0     C30616  10.513   7.427  10.339  0.3482  0.3099  0.1205
  947MOL0     H30617  10.798   7.359  10.187 -0.0620 -0.2368  1.1996
  947MOL0     H30618  11.021   7.290  10.072 -1.6555  0.1554 -1.1758
  947MOL0     H30619  11.147   7.318   9.911  0.4123 -1.4639  0.3896
  947MOL0     H30620  11.251   7.233  10.022 -2.7831 -1.7238 -0.6963
  947MOL0     H30621  11.432   7.402   9.911  1.3423 -1.1835 -0.7744
  947MOL0     H30622  11.403   7.230   9.870  0.7111 -0.0320  2.5855
  947MOL0     H30623  11.272   7.278   9.688  1.0519 -1.3495  0.3438
  947MOL0     H30624  11.255   7.446   9.734 -1.2441 -0.9339 -0.0612
  947MOL0     H30625  11.484   7.493   9.708  0.2784 -1.5520  0.8774
  947MOL0     H30626  11.515   7.320   9.679 -0.3892 -0.6635  2.8554
  947MOL0     H30627  11.343   7.520   9.516 -1.5009 -1.9065 -0.7727
  947MOL0     H30628  11.368   7.366   9.458  0.6077  0.9048 -1.7007
  947MOL0     H30629  11.491   7.526   9.347 -0.9757 -1.0989 -0.5238
  947MOL0     H30630  11.581   7.580   9.486 -1.8275 -0.5040  2.1779
  947MOL0     H30631  11.598   7.293   9.384  2.9260  0.7519 -2.8080
  947MOL0     H30632  11.669   7.356   9.539 -3.1438 -0.4086  1.7781
  947MOL0     H30633  11.703   7.469   9.256  1.0954  1.8156  0.5336
  947MOL0     H30634  11.814   7.501   9.388 -1.1746  0.3802  0.3646
  947MOL0     H30635  11.939   7.248   9.492 -0.7786 -1.9370 -0.3397
  947MOL0     H30636  12.106   6.975   9.269 -0.8516  0.6767 -2.5224
  947MOL0     H30637  12.097   7.032   9.439  0.9245  1.2547  0.1402
  947MOL0     H30638  12.229   7.244   9.345  1.3204  1.2051 -0.6729
  947MOL0     H30639  12.315   7.098   9.405 -0.0426  1.4654  0.9640
  947MOL0     H30640  12.343   7.010   9.190  0.0505  0.4347  0.0719
  947MOL0     H30641  12.242   7.130   9.108  0.6458  0.8754  0.0360
  947MOL0     H30642  12.392   7.306   9.114  0.8652  1.3449  1.7995
  947MOL0     H30643  12.477   7.233   9.248 -2.3186 -0.2363  0.4992
  947MOL0     H30644  12.595   7.393   9.031  0.8844 -0.5998 -1.0810
  947MOL0     H30645  12.872   7.587   9.108 -0.0297 -2.7798  2.3398
  947MOL0     H30646  12.737   7.586   9.001  0.4980  0.9077 -0.4887
  947MOL0     H30647  12.891   7.549   8.934  0.5507 -0.6598  0.1668
  947MOL0     H30648  13.202   7.618   9.349  0.1473  4.2879 -0.4416
  947MOL0     H30649  13.425   7.679   9.347  0.5761  0.8422  0.3615
  947MOL0     H30650  13.680   7.538   9.000  1.2029 -1.8776  1.9747
  947MOL0     H30651  13.672   7.716   8.969 -0.1696 -0.2711 -0.5117
  947MOL0     H30652  13.849   7.744   9.141  0.4218  0.2164 -0.8604
  947MOL0     H30653  13.842   7.563   9.177  1.8380 -0.9169 -0.3391
  947MOL0     H30654  13.908   7.642   8.899 -1.9424  1.9468  1.8657
  947MOL0     H30655  13.930   7.490   8.978 -0.6049 -0.3165  1.2917
  947MOL0     H30656  14.099   7.631   9.136 -4.6521  0.4948  1.1422
  947MOL0     H30657  14.108   7.734   8.992 -1.2767 -0.4682  0.8985
  947MOL0     H30658  14.279   7.549   9.000  1.2272  4.2485 -2.4921
  947MOL0     H30659  14.143   7.435   8.973  0.6152 -0.1605 -1.8438
  947MOL0     H30660  14.231   7.653   8.782  1.4498 -0.8419  1.1810
  947MOL0     H30661  14.090   7.546   8.767  0.2040 -3.1720 -0.3973
  947MOL0     H30662  14.240   7.348   8.758 -1.2449  1.1420  2.1563
  947MOL0     H30663  14.386   7.432   8.778  1.6421 -1.1514 -1.8824
  947MOL0     H30664  14.220   7.519   8.536  1.0188  1.9731 -0.1423
  947MOL0     H30665  14.344   7.397   8.535 -1.4197 -0.6182 -1.3728
  947MOL0     H30666  13.472   7.544   8.935 -0.4792 -0.2870 -0.4042
  947MOL0     H30667  13.248   7.489   8.928 -1.4399  1.4322 -0.4580
  947MOL0     H30668  12.962   7.109   9.191 -0.6702  0.0642  1.4331
  947MOL0     H30669  12.734   7.014   9.180  0.3010 -0.3952  1.2527
  947MOL0     H30670  11.166   7.686  10.174 -0.6121  1.0317 -0.7279
  947MOL0     H30671  10.961   7.740  10.279  0.0200 -0.1920  1.4781
  947MOL0     H30672  10.640   7.820  10.557 -0.3392  0.2477  1.7534
  947MOL0     H30673  10.382   7.826  10.659 -2.1396 -1.6599  0.3550
  947MOL0     H30674  10.098   7.538  10.522 -0.3203 -0.8007  0.6023
  947MOL0     H30675  10.107   7.530  10.703 -1.5204  1.6215  0.9577
  947MOL0     H30676   9.890   7.613  10.603 -0.6967  0.6339  2.1272
  947MOL0     H30677   9.966   7.756  10.529 -1.6286  0.5265  0.6969
  947MOL0     H30678  10.036   7.829  10.754  1.8889 -2.0295  1.8402
  947MOL0     H30679   9.860   7.830  10.720 -0.8936 -0.8696  0.3725
  947MOL0     H30680   9.917   7.755  10.955  1.7301  1.6239 -1.1544
  947MOL0     H30681  10.004   7.619  10.889  1.3314  2.2433  3.3987
  947MOL0     H30682   9.567   7.573  10.961  0.5081 -2.1042  1.1131
  947MOL0     H30683  10.279   7.483  10.458 -0.0447 -1.1824  0.9578
  947MOL0     H30684  10.432   7.354  10.355 -0.7712  0.8321 -2.5567
  947MOL0     H30685  10.509   7.449  10.232  3.4863 -2.9419 -0.8636
  947MOL0     H30686  10.605   7.374  10.365  0.7959  0.8691 -0.3232
  948MOL0     O30687  10.671  11.230   2.873  0.7115  0.3087 -0.2561
  948MOL0     C30688  10.638  11.339   2.926 -0.5971 -0.2933  0.2309
  948MOL0     O30689  10.720  11.412   3.006  0.2265 -0.0047 -0.1948
  948MOL0     C30690  10.850  11.380   3.019 -1.1398  0.4341  0.1386
  948MOL0     C30691  10.945  11.457   2.954 -0.0613 -0.4421 -0.1516
  948MOL0     C30692  11.075  11.418   2.942  0.4606 -0.3028 -0.8506
  948MOL0     C30693  11.120  11.298   3.002 -0.0534  0.3999  0.0521
  948MOL0     O30694  11.251  11.255   3.015  0.6320  0.3643  0.4487
  948MOL0     C30695  11.328  11.339   2.946  0.1934  0.4298  0.3593
  948MOL0     C30696  11.476  11.307   2.962 -0.5054  0.1190  0.7193
  948MOL0     C30697  11.576  11.398   2.891 -0.1644 -0.0586  0.2954
  948MOL0     C30698  11.719  11.335   2.872 -0.7592 -0.0223  0.3257
  948MOL0     C30699  11.823  11.437   2.818  0.1098 -0.4120 -0.1887
  948MOL0     C30700  11.959  11.384   2.789  0.2715 -0.3949 -0.4702
  948MOL0     C30701  12.043  11.492   2.708  0.2970 -0.2441 -0.7568
  948MOL0     C30702  12.042  11.634   2.783  0.0067  0.1224 -0.3318
  948MOL0     N30703  12.167  11.699   2.739 -0.0031  0.3186  0.2587
  948MOL0     C30704  12.295  11.654   2.752  0.4322 -0.8861  0.0616
  948MOL0     C30705  12.382  11.758   2.716 -0.9303  0.2641  0.5018
  948MOL0     C30706  12.538  11.759   2.726 -0.0297 -0.4998  1.1748
  948MOL0     C30707  12.598  11.762   2.583 -0.2144  0.5860 -0.3543
  948MOL0     C30708  12.736  11.698   2.577  0.5708 -0.0981  0.4952
  948MOL0     C30709  12.819  11.724   2.453 -0.0254 -0.1635  0.0681
  948MOL0     O30710  12.944  11.650   2.460  0.5155 -0.0942 -0.0912
  948MOL0     C30711  13.059  11.710   2.510  0.3058  0.8559 -0.1430
  948MOL0     C30712  13.164  11.623   2.514 -0.9185  0.0043  0.2965
  948MOL0     C30713  13.295  11.671   2.547  0.5249 -0.6362 -0.2357
  948MOL0     C30714  13.411  11.571   2.525  0.5715 -0.0950 -0.6044
  948MOL0     C30715  13.308  11.807   2.588  0.0812 -0.2088  0.2449
  948MOL0     C30716  13.432  11.871   2.641  0.7328  0.3196  0.6947
  948MOL0     O30717  13.530  11.780   2.687  0.5765 -0.5420 -0.7163
  948MOL0     C30718  13.650  11.831   2.738 -0.3269  1.3505 -0.4071
  948MOL0     C30719  13.666  11.925   2.832 -0.6481 -0.7194 -0.1742
  948MOL0     C30720  13.790  11.968   2.883  0.1267 -0.6162 -0.3896
  948MOL0     C30721  13.908  11.914   2.835  0.4974  0.1264  0.5946
  948MOL0     O30722  14.025  11.975   2.878  0.3790  0.2931  0.5976
  948MOL0     C30723  14.126  12.014   2.785  0.3678 -0.5577 -0.3880
  948MOL0     C30724  14.230  12.097   2.867 -0.6213  0.5187 -0.2183
  948MOL0     C30725  14.360  12.145   2.806 -0.0360  0.3248 -0.6634
  948MOL0     C30726  14.436  12.023   2.759  0.7332  0.0246 -0.2846
  948MOL0     C30727  14.553  12.059   2.669  0.2981  0.2625 -0.4544
  948MOL0     C30728  14.629  11.929   2.610  0.8273 -0.3839  0.1402
  948MOL0     C30729  14.532  11.859   2.514  0.0721  0.4162  0.4848
  948MOL0     C30730  14.581  11.725   2.486  0.0928  0.8638 -0.0171
  948MOL0    Cl30731  14.564  11.602   2.615 -0.5529 -0.4558 -0.0185
  948MOL0     C30732  13.896  11.818   2.731 -0.3855  0.2910 -0.6091
  948MOL0     C30733  13.766  11.781   2.680  0.2695  0.0854 -0.3196
  948MOL0     O30734  13.436  11.996   2.647  0.2359  0.4835 -0.8687
  948MOL0     C30735  13.200  11.887   2.576 -0.0818 -0.6665  0.4898
  948MOL0     C30736  13.073  11.848   2.544 -0.7429 -0.2222  1.0402
  948MOL0     N30737  12.299  11.858   2.675 -0.3130  0.2624  0.2710
  948MOL0     N30738  12.177  11.827   2.691  0.9807 -0.1093  1.0372
  948MOL0     C30739  11.025  11.209   3.063  0.5801 -0.0387 -0.3225
  948MOL0     C30740  10.886  11.253   3.078 -0.9181  0.1825 -0.4888
  948MOL0     C30741  10.496  11.381   2.923 -0.5187 -0.7924 -0.0159
  948MOL0     C30742  10.410  11.294   2.858 -0.1840  0.4530  0.1839
  948MOL0     C30743  10.271  11.327   2.855 -0.3619  0.7485  0.1156
  948MOL0     C30744  10.223  11.433   2.931  0.2734  0.5132 -1.3414
  948MOL0     O30745  10.091  11.471   2.917 -0.0934  0.6705  0.0051
  948MOL0     C30746  10.008  11.557   2.994 -0.2715  0.1772 -0.4289
  948MOL0     C30747   9.862  11.523   2.958  0.0560 -0.0202  0.4883
  948MOL0     C30748   9.801  11.396   3.019  0.3717  0.2952 -0.1517
  948MOL0     C30749   9.647  11.410   2.991  0.2515  1.0092 -1.2745
  948MOL0     C30750   9.589  11.282   2.953  0.3128  0.1576  0.5034
  948MOL0     C30751   9.546  11.167   2.921 -0.9411 -0.6128 -0.2435
  948MOL0     C30752  10.305  11.522   3.003 -0.8841 -0.6513 -1.5152
  948MOL0     C30753  10.449  11.497   2.996 -0.1731 -1.0378 -0.3483
  948MOL0     C30754  10.532  11.594   3.072 -1.3389  0.1466  0.4467
  948MOL0     H30755  10.913  11.546   2.901 -0.0793 -1.9579 -2.8770
  948MOL0     H30756  11.134  11.496   2.895 -0.9145  0.2986 -1.6237
  948MOL0     H30757  11.305  11.440   2.981 -2.9778 -0.1761  0.3303
  948MOL0     H30758  11.312  11.333   2.838  2.7248  0.6748 -0.0902
  948MOL0     H30759  11.506  11.313   3.067 -0.3803 -1.0301  0.7621
  948MOL0     H30760  11.499  11.206   2.926 -0.0651  1.1855 -2.2565
  948MOL0     H30761  11.545  11.438   2.794  0.5413  1.2651  0.5909
  948MOL0     H30762  11.589  11.489   2.951  0.9252  0.1033 -0.1777
  948MOL0     H30763  11.761  11.273   2.952 -0.9301  1.7216  1.8330
  948MOL0     H30764  11.704  11.270   2.786  0.4311  0.7931 -0.5404
  948MOL0     H30765  11.812  11.520   2.889 -3.3405  0.0571 -1.1073
  948MOL0     H30766  11.771  11.466   2.726  0.1407 -1.1570 -0.4495
  948MOL0     H30767  12.001  11.356   2.886 -0.9636  0.3678  0.3110
  948MOL0     H30768  11.945  11.302   2.719 -1.5392 -0.0150 -0.6016
  948MOL0     H30769  11.998  11.524   2.614 -0.9484  2.6695  0.6854
  948MOL0     H30770  12.140  11.447   2.683 -0.7824 -1.3500 -3.2915
  948MOL0     H30771  11.950  11.690   2.765 -0.3874 -0.5724 -0.4900
  948MOL0     H30772  12.056  11.615   2.890  3.8715 -2.5442 -1.0850
  948MOL0     H30773  12.331  11.558   2.786  1.3160 -0.9650 -1.0254
  948MOL0     H30774  12.583  11.672   2.774 -0.7543 -2.1172 -0.8913
  948MOL0     H30775  12.580  11.841   2.785  2.6270  0.8997 -2.3501
  948MOL0     H30776  12.529  11.706   2.520 -3.4241  2.1929  1.4973
  948MOL0     H30777  12.599  11.868   2.555  1.6847  1.4509  2.4752
  948MOL0     H30778  12.806  11.734   2.654  2.4764  0.2638 -1.3108
  948MOL0     H30779  12.722  11.590   2.578  3.5660 -0.5753  0.6403
  948MOL0     H30780  12.757  11.697   2.366 -0.3760 -0.7430  0.4848
  948MOL0     H30781  12.847  11.829   2.442  3.6770 -1.2196 -2.6574
  948MOL0     H30782  13.150  11.522   2.479  1.3377  0.3111 -1.7884
  948MOL0     H30783  13.489  11.625   2.471  0.8272  0.9226  0.7352
  948MOL0     H30784  13.380  11.484   2.466  1.5300 -0.1696 -1.0335
  948MOL0     H30785  13.457  11.533   2.617  1.0231 -0.2193 -0.8777
  948MOL0     H30786  13.570  11.968   2.857  0.3312  1.1482  0.5994
  948MOL0     H30787  13.789  12.042   2.962 -1.6956 -1.6458  0.6155
  948MOL0     H30788  14.170  11.923   2.745  3.1858  1.7010 -2.9050
  948MOL0     H30789  14.079  12.071   2.705 -2.3014 -2.6756 -0.4564
  948MOL0     H30790  14.175  12.186   2.899  1.3639  1.6448  0.1640
  948MOL0     H30791  14.251  12.049   2.963 -0.4470 -1.6156 -1.2615
  948MOL0     H30792  14.422  12.194   2.881 -0.6471 -1.4832  1.1184
  948MOL0     H30793  14.342  12.211   2.721  0.6483  1.1290 -0.1989
  948MOL0     H30794  14.373  11.949   2.710  1.5079 -0.8718  0.0378
  948MOL0     H30795  14.480  11.968   2.843  0.8676 -1.9595 -1.5846
  948MOL0     H30796  14.514  12.115   2.584  1.5210  0.3104 -1.0129
  948MOL0     H30797  14.622  12.127   2.718  1.3150  1.4218 -3.2610
  948MOL0     H30798  14.657  11.863   2.693 -0.4533  0.6108  1.4221
  948MOL0     H30799  14.724  11.955   2.562  0.0904 -0.4056 -1.3977
  948MOL0     H30800  14.519  11.923   2.426 -0.2038  1.5131  1.3105
  948MOL0     H30801  14.429  11.843   2.547 -1.4281  2.1363 -2.8702
  948MOL0     H30802  14.688  11.725   2.464  0.6848  2.2294  2.4768
  948MOL0     H30803  14.519  11.688   2.404 -0.6130 -1.2104  1.3630
  948MOL0     H30804  13.983  11.781   2.678  0.8117  0.8132  0.9117
  948MOL0     H30805  13.754  11.703   2.605 -0.0753  1.6915 -1.9810
  948MOL0     H30806  13.209  11.993   2.598 -1.3094 -0.8070  1.8818
  948MOL0     H30807  12.991  11.917   2.528  1.2094  1.3981 -3.5438
  948MOL0     H30808  11.055  11.118   3.114  2.5457  1.6252  1.7476
  948MOL0     H30809  10.813  11.193   3.131 -1.5452  2.2099  1.0834
  948MOL0     H30810  10.433  11.201   2.806 -1.4740 -1.2663  2.4693
  948MOL0     H30811  10.193  11.271   2.804 -0.6913  0.5647  0.8078
  948MOL0     H30812  10.030  11.527   3.097  4.8193  2.8723 -0.4275
  948MOL0     H30813  10.031  11.660   2.966  2.7227  0.1680  1.5798
  948MOL0     H30814   9.860  11.513   2.849  2.2523 -1.7983  0.5557
  948MOL0     H30815   9.810  11.612   2.998  1.7983  1.8872 -1.2591
  948MOL0     H30816   9.841  11.298   2.992 -0.2911  0.3783 -1.5217
  948MOL0     H30817   9.819  11.396   3.127  1.5868  1.7357 -0.3219
  948MOL0     H30818   9.625  11.479   2.909 -4.0998  0.8661 -0.4456
  948MOL0     H30819   9.609  11.457   3.082 -2.3059 -3.0230 -0.0001
  948MOL0     H30820   9.494  11.079   2.891 -1.7211  0.6484 -2.8475
  948MOL0     H30821  10.268  11.610   3.055 -0.0859 -1.4180  0.4818
  948MOL0     H30822  10.582  11.537   3.151 -1.5619 -0.0363  0.4554
  948MOL0     H30823  10.595  11.663   3.015 -3.3696 -1.1962 -3.8957
  948MOL0     H30824  10.467  11.654   3.136 -1.0581 -0.9235  1.7814
  949MOL0     O30825   4.647   0.212   6.219  0.9994 -0.0429 -0.2206
  949MOL0     C30826   4.593   0.325   6.224 -0.6941  0.3926  0.9132
  949MOL0     O30827   4.608   0.412   6.322  0.3114  0.2148  0.2277
  949MOL0     C30828   4.648   0.364   6.441 -0.3448  0.0743 -0.1612
  949MOL0     C30829   4.565   0.316   6.543  0.0921 -0.2503  0.3612
  949MOL0     C30830   4.619   0.293   6.674  0.5889  0.0839  0.7026
  949MOL0     C30831   4.758   0.334   6.706  0.8073  0.0975  0.0452
  949MOL0     O30832   4.814   0.317   6.828 -0.2677  0.1909 -0.3344
  949MOL0     C30833   4.755   0.206   6.903 -0.9217 -0.0029 -0.5871
  949MOL0     C30834   4.845   0.199   7.036 -0.5488  0.1711  0.6720
  949MOL0     C30835   4.992   0.164   6.991  0.5295  0.4778 -0.0707
  949MOL0     C30836   5.083   0.283   7.018 -0.0294 -0.2444 -0.0831
  949MOL0     C30837   5.230   0.236   7.007  0.3982 -0.8915 -0.3030
  949MOL0     C30838   5.332   0.353   7.016  0.4595  0.1703  0.1335
  949MOL0     C30839   5.482   0.302   7.007  0.0847 -0.5068  0.1937
  949MOL0     C30840   5.581   0.414   7.057 -0.1127 -0.0417  0.2808
  949MOL0     N30841   5.712   0.410   6.986 -0.1903  0.0704 -0.0224
  949MOL0     C30842   5.752   0.497   6.882  0.6370 -0.3880 -0.7898
  949MOL0     C30843   5.881   0.460   6.869  0.3722 -0.8698  0.1565
  949MOL0     C30844   5.981   0.520   6.773  0.8439 -0.4389 -0.3430
  949MOL0     C30845   6.110   0.447   6.750 -0.2447  0.0071  0.1912
  949MOL0     C30846   6.231   0.489   6.832 -0.0185  0.9387 -0.7231
  949MOL0     C30847   6.366   0.468   6.756  0.2693  0.0697 -1.0380
  949MOL0     O30848   6.469   0.483   6.854 -0.0619  0.4914  0.0431
  949MOL0     C30849   6.528   0.378   6.918  0.6519  1.8047  0.3020
  949MOL0     C30850   6.504   0.242   6.915 -0.2535  0.4036  1.2167
  949MOL0     C30851   6.576   0.160   6.999  0.3697  0.2968 -0.5609
  949MOL0     C30852   6.538   0.010   6.973 -0.0973  0.2227 -0.2601
  949MOL0     C30853   6.679   0.209   7.093  0.8295 -0.6198 -0.3396
  949MOL0     C30854   6.757   0.126   7.187 -0.6042  0.3650 -0.2356
  949MOL0     O30855   6.854   0.200   7.258  0.3811 -0.0185 -0.4033
  949MOL0     C30856   6.955   0.129   7.317  0.0274 -0.7328  0.3018
  949MOL0     C30857   6.912   0.087   7.441 -0.5370  0.3249 -0.3044
  949MOL0     C30858   7.005   0.011   7.513 -0.0087 -0.3902 -0.7306
  949MOL0     C30859   7.133  -0.027   7.460  0.9380 -0.5591  0.2360
  949MOL0     O30860   7.221  -0.103   7.529 -0.2389  0.3479 -0.6687
  949MOL0     C30861   7.177  -0.212   7.610  0.2107  0.1975  0.3141
  949MOL0     C30862   7.309  -0.262   7.675  0.1358 -0.3533  0.9839
  949MOL0     C30863   7.299  -0.387   7.761 -0.3122 -0.2013  0.0064
  949MOL0     C30864   7.433  -0.428   7.820 -0.0231  0.6920 -0.3264
  949MOL0     C30865   7.525  -0.497   7.713  0.3365 -0.3864  0.3124
  949MOL0     C30866   7.497  -0.647   7.701 -0.2952 -0.3362 -0.0040
  949MOL0     C30867   7.553  -0.719   7.818  0.0706  0.3840 -1.0678
  949MOL0     C30868   7.584  -0.871   7.804 -0.3835 -1.3157  0.5053
  949MOL0    Cl30869   7.447  -0.973   7.826  0.2105  0.0292  0.0892
  949MOL0     C30870   7.168   0.005   7.326  0.2577 -0.8369  0.1783
  949MOL0     C30871   7.073   0.088   7.262 -0.1223  0.3573 -0.4624
  949MOL0     O30872   6.740   0.003   7.192  0.5279 -0.6667 -0.2112
  949MOL0     C30873   6.703   0.346   7.090  0.2483 -0.1842  0.8395
  949MOL0     C30874   6.626   0.428   7.010  0.0700  0.2733  0.0745
  949MOL0     N30875   5.905   0.350   6.947  0.1776  1.4760 -0.4780
  949MOL0     N30876   5.807   0.327   7.028  0.7645  0.0587  0.7469
  949MOL0     C30877   4.828   0.382   6.601 -0.6191  0.8757  0.2787
  949MOL0     C30878   4.783   0.392   6.474 -0.8447 -0.1389 -0.2512
  949MOL0     C30879   4.513   0.369   6.101  0.4442  0.6256  0.1836
  949MOL0     C30880   4.503   0.503   6.086 -0.7612 -0.2541 -0.6531
  949MOL0     C30881   4.445   0.561   5.979  0.8029  0.7955  0.6965
  949MOL0     C30882   4.380   0.476   5.885 -0.1805 -1.2014  0.5377
  949MOL0     O30883   4.321   0.551   5.781  0.1487  1.1902  0.3437
  949MOL0     C30884   4.320   0.489   5.646 -0.4114  0.2484 -0.1407
  949MOL0     C30885   4.448   0.432   5.591 -0.7093  0.0342  0.4312
  949MOL0     C30886   4.455   0.426   5.432  0.5236 -0.1942  0.4673
  949MOL0     C30887   4.565   0.337   5.371 -0.1604  0.4330 -0.1544
  949MOL0     C30888   4.699   0.406   5.382  0.1211  0.0623  0.3682
  949MOL0     C30889   4.789   0.486   5.386 -0.3138  0.3525  0.0037
  949MOL0     C30890   4.386   0.339   5.900 -0.7318  0.7065 -0.7342
  949MOL0     C30891   4.456   0.278   6.003 -0.3873  0.5275  0.5186
  949MOL0     C30892   4.473   0.132   6.015  0.3650 -0.8822  0.7714
  949MOL0     H30893   4.460   0.290   6.529 -0.3548  1.9753 -0.8118
  949MOL0     H30894   4.566   0.242   6.753  2.4064 -1.3789  1.0810
  949MOL0     H30895   4.748   0.110   6.851 -1.5887 -0.8258  0.9522
  949MOL0     H30896   4.654   0.226   6.941 -0.2847 -2.5310  2.9213
  949MOL0     H30897   4.835   0.299   7.079  0.4030  0.0010  1.3264
  949MOL0     H30898   4.810   0.121   7.105 -2.3476  0.4615  0.1330
  949MOL0     H30899   5.022   0.086   7.062  0.4359  2.8677  2.7418
  949MOL0     H30900   5.005   0.130   6.887 -1.4354 -0.8843  0.0577
  949MOL0     H30901   5.058   0.366   6.951  2.3109  3.9710  3.7343
  949MOL0     H30902   5.071   0.332   7.115  1.7214  2.6457 -1.1873
  949MOL0     H30903   5.246   0.186   6.911 -0.7222  2.5256 -2.4479
  949MOL0     H30904   5.235   0.165   7.090 -2.8855 -0.7260  0.1880
  949MOL0     H30905   5.310   0.437   6.950 -1.0904  0.4552  0.9634
  949MOL0     H30906   5.323   0.400   7.114  2.7911  1.6233 -0.2776
  949MOL0     H30907   5.501   0.255   6.910  0.0739  1.7892 -0.9642
  949MOL0     H30908   5.487   0.224   7.084 -3.3912  0.0563  1.1732
  949MOL0     H30909   5.541   0.516   7.053  1.2804  0.5157  0.2148
  949MOL0     H30910   5.608   0.396   7.161 -0.7025  0.2539  0.4889
  949MOL0     H30911   5.699   0.577   6.833 -1.5234  0.8223  3.0744
  949MOL0     H30912   5.998   0.618   6.818  0.4663 -0.8439  0.7226
  949MOL0     H30913   5.930   0.527   6.677  0.7801 -0.2092 -0.2926
  949MOL0     H30914   6.102   0.338   6.744  3.2845 -0.3155 -1.1583
  949MOL0     H30915   6.136   0.474   6.647  4.2741 -1.3265  0.7617
  949MOL0     H30916   6.226   0.592   6.867 -0.5703  1.0345 -1.0671
  949MOL0     H30917   6.227   0.425   6.921 -0.7194  1.8415 -0.0841
  949MOL0     H30918   6.383   0.369   6.714 -1.9196 -0.8012 -0.0371
  949MOL0     H30919   6.377   0.549   6.683  0.9704  4.2813  3.2343
  949MOL0     H30920   6.443   0.202   6.834  2.7357 -2.5134  0.1953
  949MOL0     H30921   6.543  -0.046   7.067 -0.2257  0.2404 -0.2433
  949MOL0     H30922   6.619  -0.024   6.908  0.7848  1.1691  0.3022
  949MOL0     H30923   6.441   0.001   6.923 -0.3512  0.5058  0.1710
  949MOL0     H30924   6.818   0.112   7.489  0.7936  1.0989  2.1094
  949MOL0     H30925   6.975  -0.016   7.614  0.6077 -3.5815 -1.2676
  949MOL0     H30926   7.110  -0.175   7.689 -0.2630 -0.4527  0.2336
  949MOL0     H30927   7.126  -0.294   7.559  2.2085 -1.3577  0.6863
  949MOL0     H30928   7.385  -0.279   7.599 -0.7808  0.1760 -0.0821
  949MOL0     H30929   7.341  -0.173   7.731 -0.6615 -0.7246  2.0640
  949MOL0     H30930   7.249  -0.471   7.713  0.6755  0.2617 -1.9558
  949MOL0     H30931   7.237  -0.358   7.846  0.4655  1.0640  0.1668
  949MOL0     H30932   7.413  -0.493   7.905  1.1417  1.7945  0.8296
  949MOL0     H30933   7.484  -0.346   7.872 -0.0020 -0.6157  1.8239
  949MOL0     H30934   7.506  -0.453   7.615  1.6461  1.3764  0.8104
  949MOL0     H30935   7.633  -0.488   7.729  0.9659 -2.5695 -1.9017
  949MOL0     H30936   7.539  -0.683   7.606 -1.1278  1.4858 -1.1210
  949MOL0     H30937   7.389  -0.664   7.703 -0.2676 -0.4217  1.0391
  949MOL0     H30938   7.490  -0.708   7.906  0.9367 -3.1978  0.1655
  949MOL0     H30939   7.645  -0.670   7.851 -0.4228 -0.4279  1.7966
  949MOL0     H30940   7.656  -0.891   7.884 -0.0093  1.5132  0.9587
  949MOL0     H30941   7.632  -0.890   7.707  1.4174 -3.8028  1.7748
  949MOL0     H30942   7.269  -0.025   7.303  0.0205 -0.7402 -1.0771
  949MOL0     H30943   7.093   0.104   7.157 -0.7956 -2.6045 -1.1454
  949MOL0     H30944   6.782   0.402   7.141  0.8443  0.9928 -1.2396
  949MOL0     H30945   6.665   0.526   6.985  1.8009 -0.7440 -1.4096
  949MOL0     H30946   4.931   0.411   6.620 -0.7961  0.9906  1.0931
  949MOL0     H30947   4.860   0.421   6.404 -1.0319 -1.1743 -0.8983
  949MOL0     H30948   4.557   0.571   6.151 -1.1650  2.5070 -3.0227
  949MOL0     H30949   4.424   0.666   5.964 -1.7521  0.1909 -0.5458
  949MOL0     H30950   4.245   0.409   5.640 -1.0590  0.7063  1.3440
  949MOL0     H30951   4.287   0.574   5.586 -0.4502  0.9344  0.8205
  949MOL0     H30952   4.449   0.332   5.634  1.5051 -1.1252 -2.0215
  949MOL0     H30953   4.533   0.491   5.626 -0.2238 -0.6220  0.3636
  949MOL0     H30954   4.360   0.397   5.386  0.2829  3.6168 -1.9341
  949MOL0     H30955   4.475   0.526   5.392  1.2594 -0.4333  0.2208
  949MOL0     H30956   4.542   0.308   5.267 -0.6603  0.3346 -0.0187
  949MOL0     H30957   4.568   0.242   5.425 -1.3719  0.4559 -0.0223
  949MOL0     H30958   4.863   0.558   5.415  0.6334 -1.6076  2.9295
  949MOL0     H30959   4.340   0.275   5.825  1.0245 -1.3190 -0.1935
  949MOL0     H30960   4.579   0.105   6.010  0.1487 -1.8212  1.1022
  949MOL0     H30961   4.422   0.099   6.106  1.7293 -2.5257  0.9837
  949MOL0     H30962   4.426   0.100   5.921  0.6485  1.3363 -0.2019
  950MOL0     O30963   0.303   1.008  10.223  0.0939 -0.0636 -0.0740
  950MOL0     C30964   0.269   1.072  10.321 -0.1203 -0.1851 -0.4914
  950MOL0     O30965   0.338   1.180  10.368 -0.0458  0.7257 -0.1877
  950MOL0     C30966   0.472   1.174  10.333 -0.6616 -0.3099 -0.2801
  950MOL0     C30967   0.525   1.246  10.223  0.4990  1.0538  0.1221
  950MOL0     C30968   0.661   1.249  10.191 -0.4051 -0.3977 -0.1752
  950MOL0     C30969   0.745   1.164  10.258  0.5535 -0.5134 -0.6622
  950MOL0     O30970   0.873   1.185  10.231 -0.0709 -0.6414 -0.4449
  950MOL0     C30971   0.964   1.084  10.266  0.0480  0.4985  0.6186
  950MOL0     C30972   1.084   1.106  10.174  0.2310 -0.1138  0.1962
  950MOL0     C30973   1.201   1.031  10.242 -0.0714  0.0036 -0.1570
  950MOL0     C30974   1.205   0.889  10.198 -0.1473  0.1179 -0.1986
  950MOL0     C30975   1.324   0.809  10.260 -0.4400 -0.0955 -0.6518
  950MOL0     C30976   1.342   0.664  10.194  0.4228 -0.1967 -0.0906
  950MOL0     C30977   1.491   0.615  10.214 -0.1751 -0.5765  0.2270
  950MOL0     C30978   1.516   0.490  10.134  0.2451  0.4933 -0.8315
  950MOL0     N30979   1.635   0.417  10.193  0.6683  0.2191  0.3884
  950MOL0     C30980   1.645   0.354  10.318 -0.3541  0.0805 -0.0546
  950MOL0     C30981   1.779   0.326  10.332 -0.1879 -0.8217 -0.3642
  950MOL0     C30982   1.846   0.275  10.464 -0.0491 -0.3383  0.9258
  950MOL0     C30983   1.926   0.384  10.539  0.9827 -0.2481  0.0371
  950MOL0     C30984   1.986   0.340  10.677 -0.1526  0.1650 -0.4148
  950MOL0     C30985   2.091   0.230  10.669  0.5601  0.5083 -0.1283
  950MOL0     O30986   2.149   0.194  10.792 -0.7706 -0.6045  0.6039
  950MOL0     C30987   2.062   0.127  10.878  0.2922 -0.4020 -0.2686
  950MOL0     C30988   2.115   0.086  10.999 -0.3642 -0.4074  0.4761
  950MOL0     C30989   2.050   0.021  11.097 -0.0275  0.8029 -1.0174
  950MOL0     C30990   2.131  -0.003  11.222  0.5333 -0.5895 -0.0961
  950MOL0     C30991   1.915  -0.016  11.077  0.3701  0.6485 -0.8567
  950MOL0     C30992   1.828  -0.080  11.188  0.0099  0.0623 -0.0913
  950MOL0     O30993   1.711  -0.121  11.142  0.2841 -0.1156  0.2335
  950MOL0     C30994   1.609  -0.150  11.229 -0.0589  0.0336 -0.8287
  950MOL0     C30995   1.547  -0.050  11.297  0.3657 -0.7232  0.5794
  950MOL0     C30996   1.442  -0.071  11.393  0.2082  0.0932  0.4771
  950MOL0     C30997   1.391  -0.198  11.417  0.1164 -0.2285  0.3137
  950MOL0     O30998   1.279  -0.220  11.501 -0.7836  0.0017  0.2086
  950MOL0     C30999   1.233  -0.359  11.527  0.0311 -0.5359  0.2286
  950MOL0     C31000   1.109  -0.359  11.604 -0.7884 -0.4970  0.9333
  950MOL0     C31001   1.006  -0.292  11.525  0.9268  0.7399 -0.2473
  950MOL0     C31002   0.877  -0.273  11.618  0.4650  0.7797  0.4855
  950MOL0     C31003   0.750  -0.257  11.538 -0.3046  0.9624  0.4724
  950MOL0     C31004   0.741  -0.128  11.451  0.1545  0.0954  0.7707
  950MOL0     C31005   0.598  -0.082  11.445  1.1271 -0.3041 -0.1466
  950MOL0     C31006   0.580   0.041  11.363  0.3572 -0.3852  0.3552
  950MOL0    Cl31007   0.622   0.017  11.183  0.4336  0.1964 -0.3608
  950MOL0     C31008   1.448  -0.301  11.346 -0.4642  0.6531 -0.3818
  950MOL0     C31009   1.561  -0.280  11.255 -0.1374 -0.0921 -0.7667
  950MOL0     O31010   1.871  -0.096  11.303 -0.5440 -0.2012 -0.3681
  950MOL0     C31011   1.856   0.011  10.954 -0.0695 -0.1559 -0.2313
  950MOL0     C31012   1.934   0.077  10.854 -1.2933  0.4611  0.0909
  950MOL0     N31013   1.844   0.363  10.212  1.0038  0.4212  0.3211
  950MOL0     N31014   1.754   0.410  10.133 -0.4734  0.1665 -0.1141
  950MOL0     C31015   0.702   1.069  10.351  0.1650  0.1458 -0.0212
  950MOL0     C31016   0.567   1.084  10.394  0.2617 -0.2370 -0.9820
  950MOL0     C31017   0.140   1.040  10.387 -1.3982 -0.3802  0.5383
  950MOL0     C31018   0.120   1.095  10.515  0.5115 -0.1309  0.1313
  950MOL0     C31019  -0.007   1.098  10.574 -0.1386 -0.4983  0.4462
  950MOL0     C31020  -0.117   1.026  10.517 -0.4965 -0.9977 -0.4189
  950MOL0     O31021  -0.241   1.028  10.580 -0.5012 -0.1607  0.1670
  950MOL0     C31022  -0.257   1.082  10.705  0.0418 -0.1941 -0.6135
  950MOL0     C31023  -0.403   1.065  10.772  0.1580  0.2027 -0.3373
  950MOL0     C31024  -0.434   0.930  10.836 -0.7209 -0.1346 -0.6400
  950MOL0     C31025  -0.445   0.816  10.739  0.3131  0.5236 -0.7177
  950MOL0     C31026  -0.506   0.700  10.804 -0.0388  0.3857  0.4899
  950MOL0     C31027  -0.545   0.598  10.859  0.7628  0.4527  0.0926
  950MOL0     C31028  -0.107   0.963  10.400 -1.2532  0.4473 -0.7420
  950MOL0     C31029   0.027   0.963  10.331 -0.1523  0.0612 -0.2536
  950MOL0     C31030   0.039   0.886  10.197 -0.4735 -0.3430  0.0938
  950MOL0     H31031   0.461   1.294  10.149  2.6897 -3.3877 -5.3481
  950MOL0     H31032   0.703   1.320  10.120  0.3417  1.2134  1.8029
  950MOL0     H31033   0.922   0.983  10.259 -0.2763  0.6641  0.1450
  950MOL0     H31034   0.979   1.103  10.373 -1.8851  3.6836  0.4331
  950MOL0     H31035   1.071   1.060  10.075  0.7534  2.1712 -1.0213
  950MOL0     H31036   1.104   1.213  10.168 -2.3636  0.3674 -1.8461
  950MOL0     H31037   1.292   1.082  10.209 -2.3361  5.7815  1.2562
  950MOL0     H31038   1.206   1.049  10.350 -1.6505  1.9556 -0.3517
  950MOL0     H31039   1.114   0.835  10.226  1.0475 -1.4269  0.8429
  950MOL0     H31040   1.214   0.886  10.090 -0.7399  2.2309 -0.3449
  950MOL0     H31041   1.321   0.793  10.368 -0.2304  1.6304 -0.3641
  950MOL0     H31042   1.414   0.869  10.239  0.9420 -1.7589  0.2726
  950MOL0     H31043   1.274   0.590  10.237 -1.5578  1.0862 -0.9075
  950MOL0     H31044   1.328   0.670  10.086 -3.0615 -0.4809  0.2301
  950MOL0     H31045   1.505   0.592  10.320 -0.1087 -0.6624  0.2004
  950MOL0     H31046   1.565   0.695  10.205 -2.4965  1.9269  1.9314
  950MOL0     H31047   1.437   0.415  10.146  0.9403  0.1993  3.2253
  950MOL0     H31048   1.529   0.520  10.029 -0.2763 -0.3478 -1.1418
  950MOL0     H31049   1.572   0.332  10.395  1.4761 -1.7203  1.2495
  950MOL0     H31050   1.910   0.189  10.444 -0.8068 -0.3231 -1.9332
  950MOL0     H31051   1.763   0.247  10.530 -1.5362  0.1968 -0.6476
  950MOL0     H31052   2.012   0.419  10.481 -0.2206 -0.0908 -1.7266
  950MOL0     H31053   1.856   0.468  10.543  0.7227 -0.4536 -0.1951
  950MOL0     H31054   2.021   0.426  10.734 -1.2424 -0.4174  1.1910
  950MOL0     H31055   1.913   0.296  10.745 -1.2233 -1.6320 -2.5703
  950MOL0     H31056   2.075   0.141  10.608 -1.7244  1.0684 -0.4208
  950MOL0     H31057   2.170   0.276  10.608 -0.2017  0.5346 -1.1165
  950MOL0     H31058   2.216   0.118  11.021 -0.6652 -0.4651  2.0156
  950MOL0     H31059   2.150  -0.110  11.235 -0.1870 -0.4956  2.1135
  950MOL0     H31060   2.078   0.030  11.312  2.9475  0.7424  0.9112
  950MOL0     H31061   2.225   0.052  11.219  0.7472 -0.9628 -2.9989
  950MOL0     H31062   1.584   0.052  11.292  1.8503 -1.2849 -0.9088
  950MOL0     H31063   1.397   0.014  11.443  0.0881  1.3015 -1.5835
  950MOL0     H31064   1.221  -0.405  11.428 -0.7778  0.7460 -0.2842
  950MOL0     H31065   1.299  -0.411  11.597 -1.7352 -0.8128  1.7933
  950MOL0     H31066   1.088  -0.465  11.617  0.1371 -1.1235 -2.0936
  950MOL0     H31067   1.115  -0.307  11.701  3.9301  1.8361 -0.3056
  950MOL0     H31068   0.982  -0.363  11.445  4.7100 -1.6825  0.5420
  950MOL0     H31069   1.041  -0.195  11.488 -0.7895  2.0001  1.2204
  950MOL0     H31070   0.878  -0.180  11.675 -2.6486  1.5804 -0.5377
  950MOL0     H31071   0.873  -0.360  11.684 -0.4771  0.0015 -0.5497
  950MOL0     H31072   0.733  -0.342  11.472 -0.5257  1.8376 -0.6192
  950MOL0     H31073   0.672  -0.247  11.614 -0.5425 -2.4029  0.7885
  950MOL0     H31074   0.772  -0.138  11.346 -2.2545  2.6071 -0.2789
  950MOL0     H31075   0.796  -0.042  11.491  1.9704 -0.7672  0.2618
  950MOL0     H31076   0.579  -0.051  11.548 -1.5907 -1.7991 -0.0882
  950MOL0     H31077   0.521  -0.158  11.427 -2.6132  2.5415  2.2956
  950MOL0     H31078   0.635   0.127  11.402 -3.0306  1.8346  0.7323
  950MOL0     H31079   0.474   0.068  11.377  0.1504 -2.0467  2.6051
  950MOL0     H31080   1.414  -0.403  11.365 -0.9941  0.2829 -2.8527
  950MOL0     H31081   1.619  -0.358  11.208  1.8645  0.7843  0.1613
  950MOL0     H31082   1.754  -0.015  10.928  0.4400 -0.5187 -2.0320
  950MOL0     H31083   1.875   0.096  10.765 -1.2900  1.9899  0.3860
  950MOL0     H31084   0.770   0.994  10.390 -1.0978 -0.4633  1.1245
  950MOL0     H31085   0.540   1.027  10.482  2.3529 -0.7459 -0.6170
  950MOL0     H31086   0.212   1.140  10.552  1.7152 -0.2048 -2.5665
  950MOL0     H31087  -0.009   1.151  10.669  0.1425 -0.9181  0.6912
  950MOL0     H31088  -0.184   1.039  10.774  2.6605  2.3607 -1.5908
  950MOL0     H31089  -0.236   1.189  10.703 -0.2681 -0.1153  0.0284
  950MOL0     H31090  -0.469   1.086  10.688 -0.9419  1.8573  0.8819
  950MOL0     H31091  -0.421   1.145  10.843 -1.5651  1.2359 -1.8453
  950MOL0     H31092  -0.357   0.897  10.906  1.1094  1.8398 -1.6245
  950MOL0     H31093  -0.521   0.939  10.902  1.7383  0.6206  2.7714
  950MOL0     H31094  -0.346   0.782  10.707 -1.6145 -2.4950 -4.2971
  950MOL0     H31095  -0.506   0.846  10.653  2.3386 -0.7928 -2.7358
  950MOL0     H31096  -0.597   0.517  10.906  1.2075  0.0385 -0.1256
  950MOL0     H31097  -0.188   0.921  10.341 -2.4189  1.1027  0.3275
  950MOL0     H31098   0.081   0.787  10.215  1.9812  0.6312  0.0992
  950MOL0     H31099  -0.058   0.873  10.148 -1.0851  2.0348  0.5488
  950MOL0     H31100   0.110   0.923  10.121 -1.2713  0.2933 -0.3583
  951MOL0     O31101   2.933  11.339   9.705 -0.2627  1.1503  0.0170
  951MOL0     C31102   2.873  11.298   9.801 -0.9067  0.5392 -0.3378
  951MOL0     O31103   2.759  11.225   9.799  0.1824  0.1525  0.4439
  951MOL0     C31104   2.722  11.149   9.687 -0.4628  0.3371 -0.5785
  951MOL0     C31105   2.811  11.082   9.599  0.2863 -0.3901 -0.2704
  951MOL0     C31106   2.760  10.992   9.502 -0.1780  0.4288  0.0726
  951MOL0     C31107   2.630  10.995   9.467 -0.0946 -0.3326 -0.0991
  951MOL0     O31108   2.597  10.932   9.349  0.3554  0.5878  0.1376
  951MOL0     C31109   2.457  10.936   9.303 -0.1912 -0.0691  0.7299
  951MOL0     C31110   2.435  10.874   9.160 -0.7984  0.0241 -0.4840
  951MOL0     C31111   2.464  10.717   9.153  0.3667  0.5737  0.1969
  951MOL0     C31112   2.538  10.695   9.026  0.4254 -1.0143 -0.0554
  951MOL0     C31113   2.560  10.549   8.993  0.7942  0.0893 -0.1920
  951MOL0     C31114   2.601  10.529   8.845  0.1233  0.1847  0.1275
  951MOL0     C31115   2.666  10.394   8.830 -0.8963 -0.1042  0.3132
  951MOL0     C31116   2.687  10.369   8.682  0.4361 -0.7739  0.3409
  951MOL0     N31117   2.716  10.223   8.650  0.9149  0.1438 -0.0387
  951MOL0     C31118   2.842  10.180   8.684  0.6176  0.0881 -0.4465
  951MOL0     C31119   2.835  10.058   8.639 -0.2848  0.6972  0.4966
  951MOL0     C31120   2.949   9.948   8.660  0.5722 -0.3392  0.0177
  951MOL0     C31121   3.080   9.996   8.717 -0.3309 -0.0812 -0.4051
  951MOL0     C31122   3.195   9.886   8.717  0.6708 -0.7369  0.3095
  951MOL0     C31123   3.262   9.865   8.582  0.1264  0.3083  0.2270
  951MOL0     O31124   3.367   9.769   8.573 -0.0247  0.1647  0.1776
  951MOL0     C31125   3.419   9.754   8.449 -0.1483 -0.0441 -0.6837
  951MOL0     C31126   3.516   9.650   8.441 -0.2306 -0.0736  0.0359
  951MOL0     C31127   3.578   9.606   8.327 -0.1401 -0.1119 -0.1072
  951MOL0     C31128   3.693   9.515   8.348 -1.2912  0.0367 -0.6429
  951MOL0     C31129   3.533   9.651   8.200 -0.4319 -0.0336  0.8488
  951MOL0     C31130   3.588   9.612   8.067  0.1911  0.6023  0.2486
  951MOL0     O31131   3.545   9.671   7.950 -0.2159  0.2122 -0.6119
  951MOL0     C31132   3.603   9.652   7.828 -0.3157  0.2220 -0.2811
  951MOL0     C31133   3.516   9.672   7.721  0.2921  0.2188  0.2826
  951MOL0     C31134   3.563   9.671   7.588  0.1489 -0.5205  0.3053
  951MOL0     C31135   3.695   9.643   7.557 -0.1646  0.0038 -0.6674
  951MOL0     O31136   3.757   9.633   7.437 -0.4653 -0.7884 -0.0941
  951MOL0     C31137   3.672   9.667   7.323 -0.3021  0.1247  0.2018
  951MOL0     C31138   3.752   9.664   7.195  0.1040 -0.2058  0.6333
  951MOL0     C31139   3.820   9.537   7.164  0.3227  0.4249  1.1075
  951MOL0     C31140   3.924   9.544   7.049 -0.5252  0.1099  0.1426
  951MOL0     C31141   4.008   9.417   7.058 -0.3611  0.0004 -0.5340
  951MOL0     C31142   4.088   9.401   6.934  0.3116  0.2420  0.3241
  951MOL0     C31143   4.234   9.339   6.948 -0.0182  0.3565 -0.0840
  951MOL0     C31144   4.302   9.313   6.822  0.6522  0.0558  0.3971
  951MOL0    Cl31145   4.207   9.198   6.726  0.3271 -0.1246 -0.3249
  951MOL0     C31146   3.783   9.630   7.667 -0.6117  0.0512  0.4057
  951MOL0     C31147   3.740   9.629   7.800 -0.6132  1.0747 -0.5694
  951MOL0     O31148   3.685   9.535   8.071  0.3530 -0.7701  0.0478
  951MOL0     C31149   3.439   9.753   8.201  0.0992  0.0056 -0.4307
  951MOL0     C31150   3.375   9.803   8.322 -0.9468 -0.3554 -1.0258
  951MOL0     N31151   2.723  10.032   8.559  0.0238  0.5853  0.3053
  951MOL0     N31152   2.655  10.133   8.571  0.2970 -0.1170 -0.5550
  951MOL0     C31153   2.538  11.065   9.549 -0.0942 -0.0709 -0.2738
  951MOL0     C31154   2.583  11.138   9.657 -0.0694 -0.5743  0.7241
  951MOL0     C31155   2.934  11.347   9.935 -0.1951  0.7808 -0.1199
  951MOL0     C31156   2.895  11.279  10.047 -0.3131  0.7168 -0.0770
  951MOL0     C31157   2.932  11.316  10.177  0.6168  0.5521 -0.5130
  951MOL0     C31158   3.019  11.423  10.191 -0.0946  0.8194 -0.1275
  951MOL0     O31159   3.074  11.465  10.312 -0.2280  0.1984  0.9757
  951MOL0     C31160   3.055  11.394  10.430  0.1548 -0.7694  0.4936
  951MOL0     C31161   2.947  11.464  10.514 -0.9328  0.1024  1.4705
  951MOL0     C31162   2.902  11.387  10.632  0.4258  0.0477  0.6050
  951MOL0     C31163   2.817  11.466  10.727  1.1353 -1.2379  0.6555
  951MOL0     C31164   2.690  11.503  10.669  0.3206 -0.2874  0.3877
  951MOL0     C31165   2.577  11.516  10.619  0.5892  0.4229  1.1587
  951MOL0     C31166   3.055  11.496  10.085  0.1970  0.2987  0.5868
  951MOL0     C31167   3.020  11.462   9.956  0.5970 -0.0966 -0.2417
  951MOL0     C31168   3.085  11.554   9.851  0.5584  0.3123  0.2732
  951MOL0     H31169   2.916  11.082   9.627  0.4587  0.6803 -0.8669
  951MOL0     H31170   2.830  10.942   9.437 -1.5170  0.1386 -1.1937
  951MOL0     H31171   2.416  11.036   9.295  0.0764 -0.1092 -4.9702
  951MOL0     H31172   2.387  10.879   9.364  0.6533  1.0792  2.8793
  951MOL0     H31173   2.330  10.899   9.138 -0.4508 -0.2809 -2.6404
  951MOL0     H31174   2.490  10.933   9.086 -2.0935  0.9929 -0.7297
  951MOL0     H31175   2.532  10.694   9.236 -0.7076  1.5261  1.3766
  951MOL0     H31176   2.377  10.651   9.154  1.9060 -1.5418  1.3300
  951MOL0     H31177   2.479  10.743   8.946  0.5444  0.6544  0.8062
  951MOL0     H31178   2.636  10.739   9.047 -0.2044 -0.7422  2.5746
  951MOL0     H31179   2.488  10.480   9.037  2.1791  0.0209  2.1192
  951MOL0     H31180   2.646  10.524   9.055 -1.2798 -0.6465  2.5786
  951MOL0     H31181   2.508  10.527   8.787 -1.4019 -4.0527  2.3114
  951MOL0     H31182   2.669  10.608   8.811 -0.1985  1.3831  2.1304
  951MOL0     H31183   2.593  10.325   8.872 -0.6182 -1.1044 -0.7865
  951MOL0     H31184   2.750  10.376   8.897 -0.3706  0.6431 -0.1239
  951MOL0     H31185   2.598  10.406   8.631  0.2926 -2.1688 -0.4604
  951MOL0     H31186   2.765  10.434   8.642  0.6354  0.3432  2.4150
  951MOL0     H31187   2.916  10.231   8.745 -1.2291  1.3363  0.8815
  951MOL0     H31188   2.977   9.894   8.569  2.7685 -2.2372  1.7032
  951MOL0     H31189   2.898   9.873   8.720 -0.6836  0.0132 -0.5786
  951MOL0     H31190   3.107  10.094   8.678 -1.7304  1.3807  2.0478
  951MOL0     H31191   3.058   9.999   8.824  2.5063 -2.3915  0.3807
  951MOL0     H31192   3.269   9.918   8.792  1.2003  1.7162 -1.1401
  951MOL0     H31193   3.149   9.791   8.745  2.1154 -1.1969  1.2370
  951MOL0     H31194   3.179   9.828   8.522 -1.3676  0.1813  2.2767
  951MOL0     H31195   3.292   9.961   8.540  1.3032  0.3427  1.0799
  951MOL0     H31196   3.542   9.588   8.526 -2.4579 -2.5732 -0.9682
  951MOL0     H31197   3.663   9.413   8.320 -1.8839  1.2490 -5.3449
  951MOL0     H31198   3.720   9.515   8.454 -0.6923 -3.2440 -0.6709
  951MOL0     H31199   3.781   9.553   8.295 -0.1168  1.8626  2.4022
  951MOL0     H31200   3.418   9.717   7.734  0.5686  0.3019  2.4485
  951MOL0     H31201   3.487   9.694   7.514 -0.0835 -0.0022  0.6946
  951MOL0     H31202   3.586   9.600   7.312  1.2717 -2.2011  1.1773
  951MOL0     H31203   3.634   9.768   7.334 -0.0399  0.1251  1.1685
  951MOL0     H31204   3.696   9.694   7.106 -1.3995 -3.3222  0.3962
  951MOL0     H31205   3.834   9.736   7.195  0.9539 -1.0989 -1.3210
  951MOL0     H31206   3.737   9.471   7.137  0.3071  0.2151  1.6625
  951MOL0     H31207   3.871   9.510   7.257  0.3621 -0.2721  0.8923
  951MOL0     H31208   3.990   9.630   7.043  1.7766 -1.6163 -0.9253
  951MOL0     H31209   3.876   9.530   6.952  0.3914  0.5170 -0.3786
  951MOL0     H31210   4.081   9.432   7.138  1.1799  0.6096 -1.9828
  951MOL0     H31211   3.950   9.331   7.092 -1.2788 -0.3680 -2.8610
  951MOL0     H31212   4.105   9.497   6.884  1.5939 -0.1566 -0.0382
  951MOL0     H31213   4.030   9.341   6.864  0.4751 -0.2718  0.6260
  951MOL0     H31214   4.233   9.249   7.011 -1.5869  0.2454 -0.2231
  951MOL0     H31215   4.296   9.409   7.005  3.2975 -3.6470  1.7378
  951MOL0     H31216   4.402   9.272   6.842  0.4160 -1.3069 -0.9856
  951MOL0     H31217   4.320   9.408   6.770 -1.4217 -0.3896 -1.2660
  951MOL0     H31218   3.885   9.600   7.646 -0.9173  0.2190 -1.5174
  951MOL0     H31219   3.798   9.603   7.888  1.1416  1.5069 -1.5689
  951MOL0     H31220   3.390   9.794   8.113 -2.8947 -3.0016 -0.4122
  951MOL0     H31221   3.299   9.879   8.309  1.0217  1.6615 -1.3236
  951MOL0     H31222   2.431  11.062   9.532  0.0999  1.2806 -2.0186
  951MOL0     H31223   2.508  11.188   9.718  0.9249 -2.4455  3.6527
  951MOL0     H31224   2.823  11.198  10.044  0.6658 -0.3477  2.3019
  951MOL0     H31225   2.888  11.251  10.252  0.3282 -1.1963 -2.1432
  951MOL0     H31226   3.029  11.289  10.415  2.1628 -1.2282 -0.1323
  951MOL0     H31227   3.153  11.384  10.478  1.1722 -0.8852 -1.4817
  951MOL0     H31228   2.861  11.474  10.446  0.8146  1.7302 -0.6362
  951MOL0     H31229   2.983  11.557  10.559 -1.7496  0.5028  1.3267
  951MOL0     H31230   2.855  11.291  10.606  0.8119  0.1459 -0.5018
  951MOL0     H31231   2.995  11.373  10.689  2.8376  2.5047 -2.3877
  951MOL0     H31232   2.867  11.554  10.769  0.2651 -0.3392 -0.1482
  951MOL0     H31233   2.800  11.401  10.813  0.6771  0.0553  1.5827
  951MOL0     H31234   2.478  11.531  10.581  0.7399 -1.6926 -0.2327
  951MOL0     H31235   3.138  11.563  10.108  1.3672 -1.2095  0.9447
  951MOL0     H31236   3.041  11.538   9.752  2.7121 -2.7163 -0.3466
  951MOL0     H31237   3.089  11.659   9.882  1.5926  0.7328 -1.1604
  951MOL0     H31238   3.190  11.524   9.839  0.7741  0.9164  0.6247
  952MOL0     O31239   3.851   4.415   0.305  0.0496 -0.4051 -0.6742
  952MOL0     C31240   3.820   4.435   0.421 -0.2883 -0.5073  0.1124
  952MOL0     O31241   3.909   4.415   0.530 -0.0966 -0.5713  0.2386
  952MOL0     C31242   4.029   4.346   0.511 -0.5980  0.1299  0.3531
  952MOL0     C31243   4.143   4.380   0.587 -0.5073  1.2285 -0.4414
  952MOL0     C31244   4.266   4.311   0.563 -0.1665  0.4555  0.1172
  952MOL0     C31245   4.286   4.220   0.453  0.2576  0.2401  0.1274
  952MOL0     O31246   4.413   4.174   0.421  0.0220  0.0399  0.7316
  952MOL0     C31247   4.438   4.152   0.280  0.6833  0.2858  0.0824
  952MOL0     C31248   4.562   4.075   0.240 -0.3246 -0.1865  0.4546
  952MOL0     C31249   4.691   4.151   0.251 -1.0244  0.4790 -0.7072
  952MOL0     C31250   4.813   4.062   0.213  0.1650 -0.5232 -0.0937
  952MOL0     C31251   4.940   4.148   0.207  0.2948  0.2569  0.7238
  952MOL0     C31252   4.974   4.226   0.337  0.1074 -0.0606  1.2000
  952MOL0     C31253   4.990   4.137   0.452 -0.4262  0.0652 -0.0326
  952MOL0     C31254   5.118   4.053   0.452 -0.1366  0.4508 -0.7213
  952MOL0     N31255   5.243   4.132   0.471 -0.9704  0.0815  0.2989
  952MOL0     C31256   5.340   4.156   0.376  0.5575  0.1222 -0.5037
  952MOL0     C31257   5.426   4.251   0.431 -0.6841  0.2670  1.1853
  952MOL0     C31258   5.547   4.314   0.372 -0.0139  0.5336  0.0148
  952MOL0     C31259   5.542   4.325   0.220 -0.0675 -0.1757 -0.4188
  952MOL0     C31260   5.680   4.349   0.163 -0.7267 -0.1805  0.4838
  952MOL0     C31261   5.770   4.457   0.232 -0.0983 -0.1141 -0.3239
  952MOL0     O31262   5.888   4.411   0.292 -0.7591  1.2133  0.2723
  952MOL0     C31263   5.978   4.503   0.335 -0.8969 -0.7072  0.3274
  952MOL0     C31264   5.981   4.639   0.302 -0.1125 -0.0324  0.1438
  952MOL0     C31265   6.084   4.724   0.342 -0.3381 -0.2447  0.4766
  952MOL0     C31266   6.072   4.873   0.303  0.4720 -0.4361  0.1633
  952MOL0     C31267   6.191   4.665   0.423 -0.1188 -0.1755  0.2546
  952MOL0     C31268   6.301   4.751   0.480  0.4000 -0.4242  1.0741
  952MOL0     O31269   6.354   4.712   0.605  0.2453  0.1083  0.4983
  952MOL0     C31270   6.427   4.799   0.673  0.8013 -0.2344  0.3459
  952MOL0     C31271   6.543   4.747   0.732  0.1006  0.0991  1.0181
  952MOL0     C31272   6.618   4.830   0.816 -0.2092 -0.3204 -0.1353
  952MOL0     C31273   6.592   4.963   0.839 -0.1114  0.3449  0.5216
  952MOL0     O31274   6.664   5.036   0.925 -0.0826 -0.3129  0.6873
  952MOL0     C31275   6.785   5.082   0.851 -0.7843 -0.0730 -0.4940
  952MOL0     C31276   6.881   5.164   0.950  1.0295  1.6634  0.0088
  952MOL0     C31277   7.015   5.171   0.886  0.1844 -0.0399 -0.5442
  952MOL0     C31278   7.031   5.288   0.789 -0.5431  0.7482  0.5913
  952MOL0     C31279   7.181   5.319   0.759  0.1817 -0.7062 -0.6446
  952MOL0     C31280   7.216   5.420   0.644 -0.5165  0.6706 -0.5005
  952MOL0     C31281   7.364   5.455   0.634 -0.3036 -0.7043 -0.1910
  952MOL0     C31282   7.416   5.435   0.492 -0.3805  0.6425  0.1540
  952MOL0    Cl31283   7.397   5.255   0.445 -0.5261 -0.6414  0.0005
  952MOL0     C31284   6.484   5.018   0.766  0.4836  0.2644 -0.4285
  952MOL0     C31285   6.395   4.935   0.684 -0.3165  0.3033 -0.1341
  952MOL0     O31286   6.347   4.843   0.410  0.6790 -0.0376  0.9611
  952MOL0     C31287   6.189   4.532   0.450  0.2311 -0.2776 -0.1423
  952MOL0     C31288   6.088   4.451   0.403 -0.5897  0.1721 -0.1653
  952MOL0     N31289   5.377   4.284   0.556 -0.4298 -0.1275  0.1011
  952MOL0     N31290   5.269   4.215   0.575 -0.3081  0.5249 -0.4612
  952MOL0     C31291   4.170   4.178   0.383  0.6515 -0.0404  0.9207
  952MOL0     C31292   4.043   4.236   0.420  0.1031  0.0424 -1.1078
  952MOL0     C31293   3.684   4.479   0.462 -0.5162  0.0657  0.7388
  952MOL0     C31294   3.677   4.568   0.564 -0.1039  0.1031 -0.3446
  952MOL0     C31295   3.553   4.598   0.618 -0.0031  0.1476 -0.6275
  952MOL0     C31296   3.432   4.542   0.572  0.1198  0.1531 -0.9974
  952MOL0     O31297   3.315   4.570   0.643  0.9887  0.3966 -0.6831
  952MOL0     C31298   3.319   4.651   0.758  0.3576 -0.8499 -0.3440
  952MOL0     C31299   3.176   4.663   0.810  0.4858 -1.2650  0.0035
  952MOL0     C31300   3.127   4.529   0.881 -0.1360  0.0259  0.1286
  952MOL0     C31301   2.999   4.554   0.977 -0.2953  0.3720 -0.6273
  952MOL0     C31302   2.876   4.590   0.906  0.7195  0.3437  0.3898
  952MOL0     C31303   2.784   4.617   0.841  0.5019  1.1683  0.4773
  952MOL0     C31304   3.432   4.449   0.467  0.6943  0.1347 -0.0824
  952MOL0     C31305   3.557   4.423   0.409  0.1348 -0.2744  0.4328
  952MOL0     C31306   3.555   4.322   0.291 -1.0022 -1.1921 -0.7008
  952MOL0     H31307   4.136   4.450   0.670 -1.6366  0.3791  0.2122
  952MOL0     H31308   4.354   4.339   0.620 -0.9924 -2.6562  3.3504
  952MOL0     H31309   4.430   4.247   0.227  0.0172  1.1092  1.5817
  952MOL0     H31310   4.364   4.076   0.256  0.2616  0.4371  0.8718
  952MOL0     H31311   4.573   3.987   0.305  2.3729  0.4378  0.9891
  952MOL0     H31312   4.548   4.054   0.133 -0.6590  0.7042  0.3207
  952MOL0     H31313   4.688   4.239   0.186  0.2068 -0.6172 -2.3222
  952MOL0     H31314   4.706   4.194   0.350 -1.3864 -2.8972  0.9387
  952MOL0     H31315   4.830   3.986   0.289 -0.8870 -0.1208  0.5573
  952MOL0     H31316   4.786   4.011   0.120 -1.5378  1.8740 -1.0005
  952MOL0     H31317   4.917   4.227   0.136  1.3065 -0.1722 -0.1109
  952MOL0     H31318   5.029   4.100   0.166  1.6013  0.2679  3.3171
  952MOL0     H31319   5.062   4.290   0.330  0.8664 -1.2036 -0.2959
  952MOL0     H31320   4.894   4.298   0.355 -2.5025 -2.2708 -0.6563
  952MOL0     H31321   4.907   4.070   0.478 -1.9287  2.1371  0.7482
  952MOL0     H31322   5.000   4.203   0.539  0.3579 -0.3454  0.1962
  952MOL0     H31323   5.113   3.980   0.534 -0.1754  0.1470 -0.9939
  952MOL0     H31324   5.126   3.993   0.360  1.4267 -0.4882 -0.0384
  952MOL0     H31325   5.347   4.117   0.275 -2.8972  2.8731 -1.9938
  952MOL0     H31326   5.617   4.237   0.406 -1.5541 -0.8542  0.1088
  952MOL0     H31327   5.577   4.407   0.423  1.6493 -0.5291  1.0785
  952MOL0     H31328   5.507   4.230   0.178  3.2477 -1.3493 -0.8134
  952MOL0     H31329   5.481   4.409   0.186  2.3208  1.4494 -0.8861
  952MOL0     H31330   5.727   4.251   0.150  1.4113  0.5435  2.1945
  952MOL0     H31331   5.668   4.390   0.062  0.1172  0.5151  0.6601
  952MOL0     H31332   5.799   4.524   0.150 -2.4610  0.5642 -0.6671
  952MOL0     H31333   5.714   4.516   0.305 -1.9127  0.3055 -1.9723
  952MOL0     H31334   5.900   4.681   0.244 -3.1864 -1.9581  2.6483
  952MOL0     H31335   6.063   4.947   0.384 -0.7933  1.4624 -1.5931
  952MOL0     H31336   5.979   4.888   0.248  0.1298 -0.1513  0.8110
  952MOL0     H31337   6.160   4.904   0.246 -1.0143  0.0658 -1.9828
  952MOL0     H31338   6.574   4.643   0.727 -0.2723  0.0354 -1.2513
  952MOL0     H31339   6.692   4.778   0.876  0.7817 -0.3321 -1.3364
  952MOL0     H31340   6.845   4.997   0.817  2.4762  1.9809 -0.1779
  952MOL0     H31341   6.750   5.143   0.767 -2.5507  1.0115  0.9540
  952MOL0     H31342   6.834   5.262   0.966 -1.0064  1.0843 -1.8251
  952MOL0     H31343   6.891   5.120   1.050  0.8218  1.1195 -0.2077
  952MOL0     H31344   7.045   5.078   0.836 -1.2581 -1.5079  1.1660
  952MOL0     H31345   7.076   5.187   0.975 -1.4138  1.7331  0.3046
  952MOL0     H31346   6.985   5.379   0.828  0.7744  2.5068 -1.6670
  952MOL0     H31347   6.985   5.269   0.691  1.9846  2.2905 -1.0126
  952MOL0     H31348   7.228   5.369   0.845 -0.5870 -2.0930  0.6169
  952MOL0     H31349   7.246   5.233   0.742  1.8021  0.2578  0.3459
  952MOL0     H31350   7.163   5.515   0.662  1.1177  1.2903  1.4562
  952MOL0     H31351   7.175   5.381   0.551 -2.3647  2.0034 -0.3254
  952MOL0     H31352   7.434   5.402   0.699  0.0016 -2.6304 -1.9734
  952MOL0     H31353   7.379   5.556   0.672  0.1415  0.4225 -3.0986
  952MOL0     H31354   7.521   5.465   0.485 -0.6433  1.6157  0.2501
  952MOL0     H31355   7.351   5.492   0.426  0.4902 -0.0763 -1.3746
  952MOL0     H31356   6.463   5.125   0.774 -3.5299 -0.4629  1.3380
  952MOL0     H31357   6.319   4.982   0.623 -1.0369  1.8900  1.8771
  952MOL0     H31358   6.267   4.484   0.508 -1.2224 -3.0240 -0.3227
  952MOL0     H31359   6.082   4.347   0.433  3.8281 -0.7534 -1.6702
  952MOL0     H31360   4.169   4.089   0.321 -3.0436 -0.3294  1.2300
  952MOL0     H31361   3.955   4.198   0.370 -1.1827  1.3071  0.1176
  952MOL0     H31362   3.760   4.621   0.610  0.4320  0.7446 -1.9956
  952MOL0     H31363   3.562   4.671   0.697  0.8955 -1.1800  0.5425
  952MOL0     H31364   3.385   4.600   0.829  1.1094  0.1846 -0.2784
  952MOL0     H31365   3.357   4.752   0.736 -0.0341 -0.5430  0.3472
  952MOL0     H31366   3.108   4.699   0.732  0.1727 -0.1788  0.7479
  952MOL0     H31367   3.173   4.733   0.894  0.0751  1.0526 -1.8272
  952MOL0     H31368   3.085   4.458   0.809 -2.0319  1.9858 -0.8144
  952MOL0     H31369   3.199   4.484   0.949 -1.1510 -0.9171  0.6202
  952MOL0     H31370   3.022   4.633   1.049  1.4728  0.9066 -1.7390
  952MOL0     H31371   2.971   4.463   1.031 -0.4741  0.4416 -0.6002
  952MOL0     H31372   2.707   4.628   0.767 -0.4346  0.0959  1.2503
  952MOL0     H31373   3.345   4.407   0.417  1.1973 -1.4992  0.3552
  952MOL0     H31374   3.459   4.274   0.272 -1.2658  0.0508 -2.7720
  952MOL0     H31375   3.583   4.382   0.204  1.0393 -0.1885  0.5541
  952MOL0     H31376   3.627   4.240   0.297 -1.1990 -1.4047 -1.1971
  953MOL0     O31377  10.393   9.052   0.916 -0.4980 -0.4830  0.0945
  953MOL0     C31378  10.314   9.018   1.005  0.4651  0.3279 -0.7887
  953MOL0     O31379  10.344   8.928   1.106 -0.8806  0.2665 -0.4874
  953MOL0     C31380  10.469   8.955   1.164  0.2472  0.4731  0.1756
  953MOL0     C31381  10.477   8.985   1.300 -0.1432 -0.3016 -0.1687
  953MOL0     C31382  10.603   8.992   1.356 -0.5042  0.4873  0.4032
  953MOL0     C31383  10.721   8.974   1.290 -1.0214 -0.2190  0.7035
  953MOL0     O31384  10.838   8.996   1.356 -1.1275  0.8052  0.2379
  953MOL0     C31385  10.921   8.880   1.381  0.2777  0.6098 -1.0743
  953MOL0     C31386  10.991   8.897   1.518 -0.2216  0.3987  0.0560
  953MOL0     C31387  11.141   8.865   1.501 -0.0919 -0.5198  0.2552
  953MOL0     C31388  11.211   8.860   1.636  0.9416 -0.0724  0.2183
  953MOL0     C31389  11.357   8.829   1.633 -0.5159 -0.1030 -0.8114
  953MOL0     C31390  11.407   8.785   1.780 -0.3268 -0.4717 -0.2004
  953MOL0     C31391  11.562   8.762   1.784  0.4052 -0.6464  0.7042
  953MOL0     C31392  11.596   8.703   1.920  0.7848 -0.2743  0.2490
  953MOL0     N31393  11.737   8.707   1.951  0.5822 -0.0158 -0.0189
  953MOL0     C31394  11.810   8.614   2.023  0.1989 -0.2471  0.1236
  953MOL0     C31395  11.923   8.683   2.061 -0.3019 -0.6462 -0.4218
  953MOL0     C31396  12.040   8.631   2.133 -0.2394  0.7804 -0.2169
  953MOL0     C31397  12.150   8.592   2.044 -0.0462 -0.3270 -0.8432
  953MOL0     C31398  12.272   8.517   2.103  0.3023  0.1547  0.2728
  953MOL0     C31399  12.396   8.518   2.013 -0.0728 -0.8965  0.3588
  953MOL0     O31400  12.368   8.474   1.882  0.1604 -0.0220  0.4733
  953MOL0     C31401  12.462   8.483   1.784 -0.3482  0.2414  0.6707
  953MOL0     C31402  12.420   8.431   1.657  0.8558 -1.5108 -0.5387
  953MOL0     C31403  12.505   8.414   1.550 -0.0109  0.2845 -0.3642
  953MOL0     C31404  12.443   8.356   1.423  0.1086  0.0968  0.0128
  953MOL0     C31405  12.639   8.443   1.571  0.1293 -0.8289 -1.2519
  953MOL0     C31406  12.739   8.397   1.477 -0.6485  1.3922  0.5464
  953MOL0     O31407  12.716   8.397   1.341 -0.0378 -0.1349  0.3539
  953MOL0     C31408  12.775   8.492   1.260 -0.1757  0.2837 -0.6659
  953MOL0     C31409  12.750   8.474   1.127  0.5571 -0.1134  0.1363
  953MOL0     C31410  12.816   8.556   1.037 -0.4078  0.1630 -0.3312
  953MOL0     C31411  12.892   8.667   1.082 -0.5641 -0.2383  0.0056
  953MOL0     O31412  12.962   8.741   0.990 -0.0436  0.5676 -0.6684
  953MOL0     C31413  13.016   8.874   1.021 -0.5139  0.5608  0.7311
  953MOL0     C31414  13.150   8.875   1.089  0.1625 -0.0951 -0.8295
  953MOL0     C31415  13.182   9.017   1.135  0.3154  0.4580 -0.1638
  953MOL0     C31416  13.286   9.031   1.247 -0.2190 -0.7129 -0.9407
  953MOL0     C31417  13.313   9.185   1.268  0.4550 -0.0326  0.4837
  953MOL0     C31418  13.431   9.243   1.186 -0.3595  0.0073  0.4756
  953MOL0     C31419  13.564   9.193   1.239  0.7440 -0.2618  0.2591
  953MOL0     C31420  13.686   9.221   1.153  0.2332 -0.7185  0.4699
  953MOL0    Cl31421  13.843   9.219   1.236 -0.2582  0.0911  0.5636
  953MOL0     C31422  12.894   8.687   1.224  0.4906 -0.2125  0.4880
  953MOL0     C31423  12.836   8.604   1.310 -0.2535  0.5304  0.3665
  953MOL0     O31424  12.841   8.350   1.526  0.1486  0.2151 -0.3484
  953MOL0     C31425  12.683   8.514   1.692  0.2476  0.1879  0.2825
  953MOL0     C31426  12.592   8.531   1.797 -0.5182  0.0266  0.8203
  953MOL0     N31427  11.921   8.809   2.003 -0.4126  1.0597 -0.4693
  953MOL0     N31428  11.813   8.819   1.938  0.1468  0.1114 -0.4239
  953MOL0     C31429  10.715   8.930   1.155 -0.0677 -0.1542 -0.1021
  953MOL0     C31430  10.586   8.924   1.090 -0.0131  0.0960  0.6796
  953MOL0     C31431  10.173   9.049   0.986 -0.3755  0.3812 -0.2609
  953MOL0     C31432  10.139   9.179   0.963  1.0171  0.0872  1.0708
  953MOL0     C31433  10.002   9.216   0.963 -0.6293  0.2252  1.2705
  953MOL0     C31434   9.905   9.124   0.962  0.3280 -0.5052  0.6290
  953MOL0     O31435   9.780   9.182   0.960 -0.0570 -1.0939  0.0487
  953MOL0     C31436   9.668   9.111   0.909 -0.8234  0.3763  0.0974
  953MOL0     C31437   9.586   9.202   0.808  0.0638 -0.4735 -0.0869
  953MOL0     C31438   9.468   9.127   0.743  0.0557  0.7612  0.7530
  953MOL0     C31439   9.343   9.212   0.736 -0.0233  1.3163  0.0047
  953MOL0     C31440   9.229   9.126   0.681  0.2382 -0.3434 -0.2816
  953MOL0     C31441   9.145   9.063   0.627  0.2598  0.1261 -0.9463
  953MOL0     C31442   9.939   8.989   0.973 -0.2778 -0.1116  0.2963
  953MOL0     C31443  10.073   8.949   0.997  1.0828 -0.4054  1.4279
  953MOL0     C31444  10.087   8.802   0.987 -0.1639  0.8716 -0.4159
  953MOL0     H31445  10.384   8.994   1.357  0.6217 -0.0018  1.0763
  953MOL0     H31446  10.611   9.023   1.460 -0.1675  1.5728  0.0697
  953MOL0     H31447  10.997   8.856   1.306  2.4210  0.2300  1.0905
  953MOL0     H31448  10.862   8.789   1.397 -0.1463  1.2544  1.4842
  953MOL0     H31449  10.997   9.002   1.546  1.0564 -0.2633  2.6606
  953MOL0     H31450  10.949   8.839   1.601 -1.3696  3.1673  1.5339
  953MOL0     H31451  11.150   8.761   1.466 -1.0228 -2.0774  4.0986
  953MOL0     H31452  11.174   8.946   1.436 -0.7018  0.4606  1.1363
  953MOL0     H31453  11.180   8.955   1.683 -2.9816 -0.4827 -1.1504
  953MOL0     H31454  11.162   8.781   1.694  0.4942 -0.5568 -0.7964
  953MOL0     H31455  11.403   8.924   1.606 -2.6361  0.9033 -1.0748
  953MOL0     H31456  11.396   8.755   1.563  1.1945  0.7996 -0.8632
  953MOL0     H31457  11.375   8.855   1.858 -4.2640 -2.5024  0.2725
  953MOL0     H31458  11.350   8.693   1.798 -2.8519  1.1267  0.5012
  953MOL0     H31459  11.621   8.849   1.755 -1.1151  0.3326  0.4016
  953MOL0     H31460  11.592   8.680   1.718 -1.4865 -1.8267  1.2280
  953MOL0     H31461  11.530   8.734   2.002 -2.2271 -1.9474 -1.3679
  953MOL0     H31462  11.580   8.598   1.894  2.1864 -0.2565 -0.8073
  953MOL0     H31463  11.785   8.511   2.047 -1.1724  0.3745  1.5403
  953MOL0     H31464  12.007   8.542   2.188  3.6034 -0.6943  0.0059
  953MOL0     H31465  12.087   8.700   2.203 -0.6832  0.2002  0.6775
  953MOL0     H31466  12.114   8.543   1.953  1.5108  1.7476 -2.7046
  953MOL0     H31467  12.202   8.682   2.010  2.1174 -1.5255 -0.9176
  953MOL0     H31468  12.308   8.558   2.197  2.0487 -2.9587  1.1288
  953MOL0     H31469  12.253   8.410   2.120  4.1730 -1.2403 -2.5510
  953MOL0     H31470  12.446   8.615   2.004 -0.8214 -0.6518 -1.8198
  953MOL0     H31471  12.471   8.449   2.052 -1.5158 -1.5472  2.1360
  953MOL0     H31472  12.317   8.399   1.652  0.0876  0.6384  0.1607
  953MOL0     H31473  12.484   8.419   1.343  1.6509  2.2635  2.3216
  953MOL0     H31474  12.337   8.383   1.422 -0.3019 -1.4446 -0.2839
  953MOL0     H31475  12.464   8.252   1.396  1.3986  0.2843  0.2252
  953MOL0     H31476  12.689   8.393   1.087  0.0343  0.7542 -0.9036
  953MOL0     H31477  12.821   8.524   0.933  2.2629 -0.2377 -0.1484
  953MOL0     H31478  13.028   8.933   0.929  1.5370  2.4857  2.1214
  953MOL0     H31479  12.942   8.927   1.081 -0.5812  1.5237 -0.1828
  953MOL0     H31480  13.157   8.807   1.174  2.2895 -0.9967 -1.6458
  953MOL0     H31481  13.228   8.853   1.016 -0.1044  0.3833 -1.2741
  953MOL0     H31482  13.086   9.048   1.177 -0.7342  0.7205 -2.6237
  953MOL0     H31483  13.220   9.072   1.049  1.5692 -0.3481 -0.1623
  953MOL0     H31484  13.379   8.989   1.208 -0.2408  0.7912 -2.7417
  953MOL0     H31485  13.259   8.981   1.340 -0.1682 -0.5280 -0.8280
  953MOL0     H31486  13.233   9.254   1.238  3.1198  2.0239 -2.6291
  953MOL0     H31487  13.346   9.203   1.371  2.0673 -0.0796  0.0017
  953MOL0     H31488  13.435   9.351   1.175  0.0279 -0.0578 -0.1017
  953MOL0     H31489  13.425   9.199   1.086  2.0980 -0.1684  0.3271
  953MOL0     H31490  13.559   9.086   1.260  2.8761 -0.0327  2.3884
  953MOL0     H31491  13.591   9.231   1.338  1.5957 -0.8904  0.2827
  953MOL0     H31492  13.676   9.316   1.099  1.1006 -0.0557  1.4366
  953MOL0     H31493  13.687   9.150   1.070 -2.7197  1.1778 -1.4050
  953MOL0     H31494  12.958   8.767   1.259  3.7083 -0.8947 -3.1204
  953MOL0     H31495  12.853   8.633   1.413  0.6756  2.0168 -0.1696
  953MOL0     H31496  12.788   8.543   1.700  0.8862 -2.3763  3.1483
  953MOL0     H31497  12.635   8.574   1.887  4.7391 -1.8913 -0.4048
  953MOL0     H31498  10.809   8.903   1.107 -1.4583  0.3471 -3.4101
  953MOL0     H31499  10.585   8.893   0.986  3.5604  2.3355 -0.2410
  953MOL0     H31500  10.212   9.257   0.946  1.1628  0.1196  1.8321
  953MOL0     H31501   9.988   9.323   0.950  2.1726  0.4231 -1.0212
  953MOL0     H31502   9.702   9.025   0.852  0.7312  3.0974 -3.5287
  953MOL0     H31503   9.603   9.073   0.989 -0.5609 -3.7695 -1.4437
  953MOL0     H31504   9.644   9.234   0.721 -0.7065  0.5535 -0.2384
  953MOL0     H31505   9.550   9.292   0.858 -1.1120  0.2644 -2.1133
  953MOL0     H31506   9.494   9.125   0.636  3.2108  0.4692  1.4256
  953MOL0     H31507   9.453   9.029   0.790 -0.4786  0.3295 -0.2787
  953MOL0     H31508   9.342   9.308   0.683  0.0981  1.4143  0.1768
  953MOL0     H31509   9.314   9.235   0.839 -0.2085 -1.2017  0.5909
  953MOL0     H31510   9.068   8.998   0.590 -2.2989  1.9658  0.7966
  953MOL0     H31511   9.860   8.917   0.990 -0.1489 -0.1930  0.5483
  953MOL0     H31512  10.052   8.766   0.890  0.8938 -0.1945 -0.4292
  953MOL0     H31513  10.190   8.765   0.991  0.1353  1.2900 -2.7413
  953MOL0     H31514  10.024   8.762   1.066 -0.1966  1.3839 -0.1786
  954MOL0     O31515   1.455   6.263   9.253  0.0769  0.4775  0.4730
  954MOL0     C31516   1.531   6.279   9.350  0.4570 -0.2593  0.0956
  954MOL0     O31517   1.497   6.325   9.468  0.7024  0.5006 -0.3758
  954MOL0     C31518   1.367   6.306   9.527 -0.2348 -0.0424 -0.3544
  954MOL0     C31519   1.261   6.239   9.476  0.6923  0.3946 -0.7269
  954MOL0     C31520   1.143   6.222   9.550  0.4785 -0.4910  0.2968
  954MOL0     C31521   1.124   6.268   9.681  0.1954 -0.6866  0.3565
  954MOL0     O31522   1.007   6.248   9.743  0.1964  0.4680 -0.6322
  954MOL0     C31523   0.997   6.278   9.884  0.0935 -0.2654 -0.0544
  954MOL0     C31524   0.869   6.229   9.942  0.6510  0.0319  0.1273
  954MOL0     C31525   0.846   6.276  10.089  0.0527 -0.2397  1.3951
  954MOL0     C31526   0.969   6.281  10.183  0.4012  0.2919 -0.6781
  954MOL0     C31527   0.910   6.298  10.323  0.5762  0.4943  1.1617
  954MOL0     C31528   1.010   6.326  10.440  0.7441  0.6320 -0.1314
  954MOL0     C31529   1.062   6.206  10.510 -0.3672  0.2150 -0.1985
  954MOL0     C31530   1.186   6.226  10.602  0.1565 -0.7653 -0.1360
  954MOL0     N31531   1.320   6.226  10.534  0.3659  0.3199 -0.4519
  954MOL0     C31532   1.434   6.175  10.589 -0.4728 -0.2048 -0.5455
  954MOL0     C31533   1.541   6.209  10.513 -1.2426  0.4802  0.1808
  954MOL0     C31534   1.683   6.158  10.545 -0.6799  0.3536 -0.0600
  954MOL0     C31535   1.726   6.028  10.469 -0.6207 -0.2350 -1.0826
  954MOL0     C31536   1.724   6.013  10.318  0.7347  0.0531 -0.0714
  954MOL0     C31537   1.803   6.136  10.262 -0.5053 -0.1163  0.0819
  954MOL0     O31538   1.943   6.134  10.308  0.6434 -0.7248 -0.2257
  954MOL0     C31539   2.018   6.242  10.279 -0.0625 -0.9248 -0.5123
  954MOL0     C31540   2.145   6.244  10.339 -0.0931  0.0606  0.7032
  954MOL0     C31541   2.233   6.361  10.329 -0.1956  0.7383 -0.1748
  954MOL0     C31542   2.369   6.353  10.397 -0.1474 -0.4827 -0.3350
  954MOL0     C31543   2.188   6.477  10.255  0.0176 -0.5293  0.3233
  954MOL0     C31544   2.270   6.607  10.246 -0.4628  0.2836  0.1487
  954MOL0     O31545   2.403   6.602  10.278 -0.1872  0.5166  0.0729
  954MOL0     C31546   2.474   6.721  10.293 -0.9889 -0.3026  0.8870
  954MOL0     C31547   2.573   6.723  10.395 -0.0531 -0.4634  0.2853
  954MOL0     C31548   2.654   6.827  10.416 -0.8313 -0.5806 -0.3119
  954MOL0     C31549   2.643   6.940  10.342  0.7681 -0.1487  0.1664
  954MOL0     O31550   2.729   7.040  10.382 -0.1001 -0.0847 -0.3234
  954MOL0     C31551   2.661   7.110  10.490 -0.1902  0.5679  0.3266
  954MOL0     C31552   2.742   7.237  10.512 -0.6401 -0.4497  1.1431
  954MOL0     C31553   2.888   7.205  10.549 -0.5751  0.5855  0.3193
  954MOL0     C31554   2.999   7.316  10.530  0.8432 -0.7411  0.3124
  954MOL0     C31555   3.135   7.266  10.579  0.0079  0.1073  0.4633
  954MOL0     C31556   3.232   7.377  10.610  0.5005  0.4595  0.2599
  954MOL0     C31557   3.377   7.345  10.582  0.3545 -0.7625  0.8363
  954MOL0     C31558   3.440   7.272  10.700  0.2791 -0.1407 -0.2247
  954MOL0    Cl31559   3.614   7.259  10.667  0.7271  0.3192  0.3697
  954MOL0     C31560   2.550   6.948  10.231 -0.0152  0.6979  0.8863
  954MOL0     C31561   2.475   6.835  10.205 -0.1353  0.3354 -0.5242
  954MOL0     O31562   2.204   6.709  10.214 -0.2094 -0.8629  0.4711
  954MOL0     C31563   2.063   6.473  10.200  0.1945 -0.4639  0.2677
  954MOL0     C31564   1.985   6.358  10.205 -0.0226  0.6711 -0.1615
  954MOL0     N31565   1.483   6.279  10.406 -0.0446  0.5215  0.4029
  954MOL0     N31566   1.354   6.287  10.422  0.6219 -0.1472  0.6523
  954MOL0     C31567   1.227   6.345   9.733  0.6985  0.4578 -0.9078
  954MOL0     C31568   1.345   6.365   9.658 -0.0942 -0.7882  0.4954
  954MOL0     C31569   1.675   6.290   9.318 -0.2716  0.6288 -0.4707
  954MOL0     C31570   1.755   6.375   9.405 -0.1626 -0.2383  0.5613
  954MOL0     C31571   1.892   6.386   9.394 -0.1130 -0.0978 -0.1798
  954MOL0     C31572   1.960   6.303   9.305 -0.2189  0.1807  0.5831
  954MOL0     O31573   2.095   6.322   9.306  0.1954 -0.5117  0.0197
  954MOL0     C31574   2.171   6.257   9.202  0.4604 -0.2220 -0.6617
  954MOL0     C31575   2.312   6.300   9.192  0.4396 -0.0028 -0.3557
  954MOL0     C31576   2.392   6.279   9.310  0.4053 -0.0134  0.3385
  954MOL0     C31577   2.529   6.348   9.289 -0.7732 -0.1886  0.8643
  954MOL0     C31578   2.600   6.354   9.417 -0.5332  0.1929  0.1815
  954MOL0     C31579   2.660   6.385   9.513 -0.9035  0.4198 -0.1468
  954MOL0     C31580   1.891   6.216   9.221  0.0154  1.3134  0.0850
  954MOL0     C31581   1.749   6.215   9.222  0.2610 -0.0601 -0.5285
  954MOL0     C31582   1.682   6.117   9.128  0.4912 -0.6169 -1.4340
  954MOL0     H31583   1.268   6.195   9.378 -3.3323  0.3653 -1.1648
  954MOL0     H31584   1.060   6.163   9.511  0.0704 -1.8138  2.9356
  954MOL0     H31585   1.005   6.387   9.892 -0.5014 -0.2853  1.0301
  954MOL0     H31586   1.082   6.237   9.939  1.0382 -0.6749 -1.7518
  954MOL0     H31587   0.786   6.269   9.883 -0.3927 -1.6482  0.3772
  954MOL0     H31588   0.852   6.121   9.943 -2.3851  0.3281 -3.0059
  954MOL0     H31589   0.798   6.375  10.089  1.5338  0.5205  0.5335
  954MOL0     H31590   0.783   6.198  10.132 -0.6535 -0.3655  0.1853
  954MOL0     H31591   1.012   6.182  10.161 -0.6429  0.1974 -2.5151
  954MOL0     H31592   1.025   6.367  10.148 -0.9076  1.1066 -0.8464
  954MOL0     H31593   0.843   6.219  10.358 -0.9545  1.6558  0.9614
  954MOL0     H31594   0.852   6.389  10.309  1.2619  0.6619 -0.8521
  954MOL0     H31595   1.091   6.398  10.424  0.1141  1.9886  2.3041
  954MOL0     H31596   0.955   6.379  10.518 -0.5980 -0.4495 -0.3183
  954MOL0     H31597   1.092   6.123  10.445  3.0558  0.7666  0.4678
  954MOL0     H31598   0.982   6.168  10.574  0.7722 -1.7604  0.1372
  954MOL0     H31599   1.179   6.316  10.664 -1.5800  0.1018 -1.4955
  954MOL0     H31600   1.193   6.139  10.668 -0.5654  0.2528  1.3302
  954MOL0     H31601   1.427   6.111  10.677 -0.3365 -0.1134 -0.4688
  954MOL0     H31602   1.691   6.141  10.653 -2.4381 -0.8047 -0.0748
  954MOL0     H31603   1.763   6.231  10.531  1.1524 -1.2208  1.5974
  954MOL0     H31604   1.828   5.998  10.497  0.8172  2.2818 -3.1423
  954MOL0     H31605   1.656   5.952  10.505  1.8922 -2.2720 -0.1509
  954MOL0     H31606   1.771   5.917  10.296  0.7272  0.1921 -0.7356
  954MOL0     H31607   1.621   6.009  10.280  0.5923  1.7556  0.0511
  954MOL0     H31608   1.800   6.149  10.153 -1.5272  3.6774  0.4384
  954MOL0     H31609   1.754   6.226  10.300  1.4117  1.1541 -0.2962
  954MOL0     H31610   2.168   6.152  10.391  1.4641  1.1640  2.0698
  954MOL0     H31611   2.393   6.446  10.448  0.4217  0.0978 -1.6124
  954MOL0     H31612   2.447   6.338  10.321  0.0064 -2.9492  0.2133
  954MOL0     H31613   2.373   6.272  10.470 -1.2150  1.5566  2.1009
  954MOL0     H31614   2.585   6.644  10.468  1.0080 -0.9237 -0.3644
  954MOL0     H31615   2.732   6.832  10.491 -0.5593  0.7224 -0.6648
  954MOL0     H31616   2.558   7.131  10.462  0.0928  0.2236 -1.0895
  954MOL0     H31617   2.653   7.052  10.582 -1.2775 -1.0526 -0.7403
  954MOL0     H31618   2.730   7.301  10.424  0.0417 -2.8713 -0.8379
  954MOL0     H31619   2.695   7.291  10.595 -0.9440  2.9615 -1.0966
  954MOL0     H31620   2.918   7.113  10.500 -1.1742  0.6578 -0.1986
  954MOL0     H31621   2.891   7.199  10.658  1.2970 -0.2193  0.2518
  954MOL0     H31622   2.960   7.408  10.576 -2.2486 -0.2437 -2.8835
  954MOL0     H31623   3.002   7.345  10.424 -0.5297 -0.0094  0.4493
  954MOL0     H31624   3.123   7.212  10.673 -1.6785  0.1291  0.3028
  954MOL0     H31625   3.188   7.199  10.511  1.4043 -1.0456  2.5834
  954MOL0     H31626   3.212   7.415  10.711  0.2664 -0.0027  0.3928
  954MOL0     H31627   3.198   7.452  10.538  0.2895  0.4322  0.3281
  954MOL0     H31628   3.433   7.439  10.588  2.3251 -1.8424 -0.0453
  954MOL0     H31629   3.387   7.298  10.484 -0.6677  2.3937 -0.9446
  954MOL0     H31630   3.394   7.174  10.712  1.3792 -0.7259 -0.6959
  954MOL0     H31631   3.418   7.320  10.795  1.3831 -0.6512  0.3066
  954MOL0     H31632   2.549   7.036  10.169 -1.7078  0.8426  1.0591
  954MOL0     H31633   2.412   6.838  10.116 -1.7854 -0.1559  0.5730
  954MOL0     H31634   2.026   6.560  10.146 -0.4477  1.4658  3.5589
  954MOL0     H31635   1.888   6.365  10.156  0.4677  3.1867 -0.8759
  954MOL0     H31636   1.210   6.397   9.827 -2.6380 -3.0503  0.7189
  954MOL0     H31637   1.428   6.411   9.711 -0.9992 -0.3550  1.5792
  954MOL0     H31638   1.709   6.433   9.485  1.5633  2.3731 -0.2098
  954MOL0     H31639   1.956   6.447   9.458  1.6507  0.5025 -2.3645
  954MOL0     H31640   2.168   6.149   9.219 -2.2443 -0.4099 -1.8273
  954MOL0     H31641   2.131   6.272   9.101  2.6964  0.8671 -1.4607
  954MOL0     H31642   2.320   6.404   9.159  0.2302 -0.2359 -1.1757
  954MOL0     H31643   2.361   6.238   9.116  3.7752  2.1837 -0.2441
  954MOL0     H31644   2.341   6.329   9.392 -1.2449  0.1979 -0.7598
  954MOL0     H31645   2.406   6.172   9.326 -2.0425 -1.2729 -4.2520
  954MOL0     H31646   2.524   6.452   9.255  2.4109 -0.9369 -2.6379
  954MOL0     H31647   2.595   6.292   9.221  0.4603  0.8383  1.1888
  954MOL0     H31648   2.742   6.401   9.580 -0.0973 -3.6311  0.0819
  954MOL0     H31649   1.944   6.148   9.154  0.5467  1.9986 -0.1950
  954MOL0     H31650   1.747   6.029   9.120 -0.1807 -1.3513  0.6923
  954MOL0     H31651   1.587   6.081   9.168  2.4624 -0.3483  4.3641
  954MOL0     H31652   1.679   6.168   9.031 -1.7260  2.1441 -0.0664
  955MOL0     O31653   7.162   3.192  10.487  0.3884  0.2235 -0.1217
  955MOL0     C31654   7.105   3.093  10.534 -0.2096  0.2472 -0.2152
  955MOL0     O31655   7.151   2.962  10.535  0.2459  0.7906 -0.1485
  955MOL0     C31656   7.283   2.931  10.513 -0.9983 -0.4584 -0.7681
  955MOL0     C31657   7.361   2.900  10.623  0.1359 -0.0304 -0.7124
  955MOL0     C31658   7.489   2.868  10.601 -1.2232  0.6162  0.2522
  955MOL0     C31659   7.547   2.843  10.471 -0.0258  0.8015 -1.2041
  955MOL0     O31660   7.668   2.777  10.479 -0.4945  0.4866 -0.0028
  955MOL0     C31661   7.743   2.761  10.359 -0.3474  0.1951  0.7191
  955MOL0     C31662   7.849   2.653  10.385 -0.0838 -0.1776 -0.5441
  955MOL0     C31663   7.953   2.727  10.479  0.3099 -0.1034 -0.0615
  955MOL0     C31664   8.075   2.640  10.481  0.0851 -0.5351  0.1103
  955MOL0     C31665   8.169   2.667  10.594 -0.0708  1.0467  0.4766
  955MOL0     C31666   8.243   2.540  10.638  0.4786  0.0362  0.2693
  955MOL0     C31667   8.327   2.582  10.761  0.2945  0.3892 -0.3625
  955MOL0     C31668   8.460   2.633  10.716  0.5361 -0.4357  0.5625
  955MOL0     N31669   8.511   2.727  10.817 -0.8844 -0.3222  0.4143
  955MOL0     C31670   8.559   2.859  10.794 -0.0652  0.4674  0.3134
  955MOL0     C31671   8.608   2.886  10.917 -0.9325  0.4193 -0.4308
  955MOL0     C31672   8.674   3.019  10.950  0.4584  0.7366 -0.4641
  955MOL0     C31673   8.824   2.983  10.968 -0.0064  0.7732 -0.0325
  955MOL0     C31674   8.930   3.097  10.943 -0.7652 -0.5987 -0.0878
  955MOL0     C31675   9.059   3.059  11.022 -1.0196 -0.0539  0.2564
  955MOL0     O31676   9.159   3.158  10.992 -0.0476  0.0620 -0.1816
  955MOL0     C31677   9.290   3.138  11.015  0.7210  0.7063 -0.1847
  955MOL0     C31678   9.329   3.071  11.128  0.0267 -0.4526 -0.1635
  955MOL0     C31679   9.464   3.042  11.152 -0.1245 -0.0007 -0.2239
  955MOL0     C31680   9.502   2.959  11.274  1.0619  0.0981  0.0192
  955MOL0     C31681   9.558   3.100  11.064  0.1869 -0.4473 -0.2434
  955MOL0     C31682   9.701   3.090  11.095 -0.1283  0.1455 -0.0575
  955MOL0     O31683   9.749   3.134  11.211  0.2864  0.6121 -0.5556
  955MOL0     C31684   9.875   3.112  11.247 -1.0486 -0.5697 -0.7810
  955MOL0     C31685   9.953   3.217  11.293  0.1436  1.5641 -0.3616
  955MOL0     C31686  10.088   3.199  11.343 -0.3068  0.5965 -0.8011
  955MOL0     C31687  10.141   3.060  11.342  0.1536  0.1769  0.5156
  955MOL0     O31688  10.271   3.042  11.388 -0.1978 -0.2945 -0.0270
  955MOL0     C31689  10.315   2.913  11.408 -0.3262  0.1973  0.8026
  955MOL0     C31690  10.469   2.913  11.416 -0.5190 -0.1034 -0.3012
  955MOL0     C31691  10.525   2.777  11.441  0.1572  0.2638 -0.0486
  955MOL0     C31692  10.675   2.804  11.461  0.6833  0.2284 -0.0802
  955MOL0     C31693  10.760   2.671  11.457  0.7883 -0.8906  0.3906
  955MOL0     C31694  10.903   2.709  11.464  0.4614 -0.0245  0.8132
  955MOL0     C31695  10.985   2.584  11.455  0.0777 -0.4361 -0.8407
  955MOL0     C31696  11.132   2.629  11.483 -0.2995 -0.0465 -0.3847
  955MOL0    Cl31697  11.248   2.483  11.503 -0.3562 -0.8754  0.1686
  955MOL0     C31698  10.060   2.962  11.289 -0.2810  0.0431 -0.7102
  955MOL0     C31699   9.932   2.987  11.249 -0.1157 -0.3817  0.7032
  955MOL0     O31700   9.764   3.058  10.992  0.8413 -0.3128  1.2097
  955MOL0     C31701   9.517   3.174  10.956 -0.6860  0.3457  0.6059
  955MOL0     C31702   9.378   3.191  10.922 -0.6159  0.7016  0.5963
  955MOL0     N31703   8.584   2.781  11.006 -0.3665 -0.5279  0.2024
  955MOL0     N31704   8.539   2.683  10.937 -0.1198 -0.1275  0.1185
  955MOL0     C31705   7.465   2.857  10.359  0.0172  0.3837  0.0424
  955MOL0     C31706   7.332   2.906  10.377 -0.1340  1.0292  0.3392
  955MOL0     C31707   6.973   3.109  10.601 -0.2083 -0.9592 -0.0500
  955MOL0     C31708   6.890   2.992  10.603 -1.1648 -0.7876 -0.2816
  955MOL0     C31709   6.766   3.004  10.659 -0.1915 -0.7608  0.6701
  955MOL0     C31710   6.706   3.118  10.707  0.6686  0.8676  0.1257
  955MOL0     O31711   6.573   3.111  10.742  0.5043  0.4729 -0.6248
  955MOL0     C31712   6.485   3.206  10.691 -0.2745  0.5692  0.9243
  955MOL0     C31713   6.462   3.208  10.534  0.4663  0.7201 -0.0635
  955MOL0     C31714   6.412   3.078  10.461 -0.1893  0.0351 -1.1068
  955MOL0     C31715   6.296   3.000  10.532 -0.8800  0.9704 -0.4539
  955MOL0     C31716   6.218   2.923  10.440 -1.1410  0.2061 -0.0986
  955MOL0     C31717   6.151   2.836  10.384 -0.1694 -0.0893  0.5765
  955MOL0     C31718   6.774   3.234  10.683 -0.6233  0.3650  0.0673
  955MOL0     C31719   6.909   3.232  10.639 -0.5431  0.6270  0.1139
  955MOL0     C31720   6.971   3.377  10.626  0.2361 -0.1815  0.7253
  955MOL0     H31721   7.320   2.918  10.721  0.8814 -1.5009 -0.1039
  955MOL0     H31722   7.551   2.860  10.690  0.1891 -2.1239 -0.8299
  955MOL0     H31723   7.797   2.848  10.322  3.7460 -2.4985 -0.3218
  955MOL0     H31724   7.676   2.719  10.283 -3.0776  0.6679  2.6775
  955MOL0     H31725   7.812   2.564  10.436 -0.5015  0.3905  0.1692
  955MOL0     H31726   7.904   2.630  10.294  2.0120 -2.3654  1.1220
  955MOL0     H31727   7.984   2.820  10.429  1.1501 -0.0972  0.4437
  955MOL0     H31728   7.914   2.757  10.577 -1.1775  2.1535 -1.2337
  955MOL0     H31729   8.046   2.535  10.475 -0.0447 -0.7295  2.8771
  955MOL0     H31730   8.122   2.658  10.384 -1.4906  0.9008 -0.4362
  955MOL0     H31731   8.100   2.688  10.676 -0.0337 -2.5952  1.6312
  955MOL0     H31732   8.244   2.745  10.582  3.4176 -1.8723  1.5550
  955MOL0     H31733   8.168   2.465  10.662  1.5766 -0.9637  0.6389
  955MOL0     H31734   8.309   2.494  10.563 -3.2237 -1.6246 -2.2890
  955MOL0     H31735   8.341   2.494  10.824 -2.0054  0.0547 -0.2342
  955MOL0     H31736   8.268   2.651  10.822  0.1894  0.9445 -1.0763
  955MOL0     H31737   8.523   2.544  10.713 -1.1489 -1.6523 -1.9367
  955MOL0     H31738   8.452   2.666  10.612 -1.1060 -1.7266  0.2170
  955MOL0     H31739   8.551   2.912  10.700  1.9430  0.0211 -0.1558
  955MOL0     H31740   8.627   3.066  11.037 -2.9707  1.4289 -2.4821
  955MOL0     H31741   8.654   3.090  10.869 -0.2006  0.9010 -0.1634
  955MOL0     H31742   8.840   2.939  11.067 -0.0291  2.5304  0.7975
  955MOL0     H31743   8.853   2.901  10.903  1.2463  0.9185  0.3182
  955MOL0     H31744   8.945   3.100  10.835 -1.0103 -1.2030 -0.1440
  955MOL0     H31745   8.890   3.196  10.969  0.3744 -0.3219  0.6964
  955MOL0     H31746   9.039   3.067  11.129 -1.8935  1.2584  0.0210
  955MOL0     H31747   9.104   2.962  10.998  0.1075 -0.2757  2.8762
  955MOL0     H31748   9.259   3.022  11.196  1.0535 -1.9735 -0.1513
  955MOL0     H31749   9.586   2.891  11.256  1.0073  0.4403 -1.6282
  955MOL0     H31750   9.419   2.913  11.327 -0.2619  3.2594  0.9569
  955MOL0     H31751   9.537   3.037  11.343  3.6172  1.3898 -2.5459
  955MOL0     H31752   9.906   3.312  11.270  1.2534  1.9701 -0.9859
  955MOL0     H31753  10.149   3.280  11.382 -1.7025  1.0257  0.5981
  955MOL0     H31754  10.267   2.862  11.491 -0.4275  0.1103  0.6912
  955MOL0     H31755  10.295   2.852  11.320 -0.4462  0.5899  0.5531
  955MOL0     H31756  10.498   2.941  11.314 -1.5203  2.2859 -0.0114
  955MOL0     H31757  10.508   2.989  11.484 -0.3452  0.1931 -0.7243
  955MOL0     H31758  10.506   2.714  11.353  0.7220  1.1998 -0.8640
  955MOL0     H31759  10.487   2.734  11.534 -1.6212  1.6030 -0.0851
  955MOL0     H31760  10.689   2.856  11.556 -0.3345  1.6611 -0.6802
  955MOL0     H31761  10.705   2.869  11.379  2.0172  0.3570  0.4936
  955MOL0     H31762  10.732   2.608  11.542 -0.9509  3.0901  3.0880
  955MOL0     H31763  10.735   2.627  11.360 -1.2225 -1.7375  1.2340
  955MOL0     H31764  10.922   2.745  11.566  2.7931 -0.8144  0.7134
  955MOL0     H31765  10.931   2.786  11.393 -3.4523  2.0572  1.2384
  955MOL0     H31766  10.988   2.549  11.352  1.8716  2.6796 -1.9964
  955MOL0     H31767  10.963   2.511  11.533 -0.6633  0.8361  0.1814
  955MOL0     H31768  11.130   2.675  11.582 -1.5093 -2.5826  0.8544
  955MOL0     H31769  11.167   2.699  11.407  0.1973  1.2302  0.9719
  955MOL0     H31770  10.099   2.861  11.291 -0.9129 -0.2738  3.1104
  955MOL0     H31771   9.861   2.914  11.212 -1.6752  0.8517  1.1450
  955MOL0     H31772   9.599   3.220  10.900 -0.0032 -3.2726 -1.6542
  955MOL0     H31773   9.345   3.247  10.835  0.5184  2.3507  1.1834
  955MOL0     H31774   7.502   2.831  10.260 -1.8375  0.4136 -0.7009
  955MOL0     H31775   7.277   2.920  10.285 -0.5006  3.4348  0.8590
  955MOL0     H31776   6.923   2.902  10.552  0.8276  0.5140 -1.4555
  955MOL0     H31777   6.702   2.920  10.634  0.2862 -0.4435 -1.7908
  955MOL0     H31778   6.384   3.182  10.726  0.1241 -0.9918  1.0514
  955MOL0     H31779   6.509   3.308  10.725  1.1474  0.2364  0.9809
  955MOL0     H31780   6.558   3.241  10.492  1.4185  0.5173  1.8268
  955MOL0     H31781   6.387   3.286  10.520 -0.6361 -0.2542  0.2856
  955MOL0     H31782   6.389   3.104  10.357  0.7479  0.9369 -1.1001
  955MOL0     H31783   6.496   3.009  10.471 -0.8479 -0.3849  3.7347
  955MOL0     H31784   6.232   3.065  10.592 -1.6319  2.8402 -3.1267
  955MOL0     H31785   6.340   2.922  10.596 -0.8359  0.1083 -1.5118
  955MOL0     H31786   6.089   2.762  10.338  0.3519  0.9429 -1.9525
  955MOL0     H31787   6.731   3.320  10.734 -0.2271 -1.3166  3.5627
  955MOL0     H31788   6.980   3.386  10.518  0.7906 -1.0903  0.6827
  955MOL0     H31789   6.907   3.461  10.655 -1.7670 -1.4790  0.2881
  955MOL0     H31790   7.069   3.373  10.676  0.7974 -2.5572 -0.4070
  956MOL0     O31791   7.265   2.628   5.834 -0.3955  0.0778 -0.2613
  956MOL0     C31792   7.211   2.536   5.891 -0.0139 -0.5116  0.3850
  956MOL0     O31793   7.280   2.454   5.961  0.0784  0.8836 -0.0789
  956MOL0     C31794   7.418   2.442   5.955  0.0317  0.7160  0.7261
  956MOL0     C31795   7.482   2.356   5.863  0.2988 -0.3088  0.0378
  956MOL0     C31796   7.613   2.320   5.875  0.7406 -0.3186  0.6260
  956MOL0     C31797   7.698   2.372   5.976  0.0614 -0.0438 -0.0385
  956MOL0     O31798   7.837   2.357   5.984  0.2441 -0.3727 -0.4710
  956MOL0     C31799   7.903   2.357   5.856  0.2121  1.6649  0.2264
  956MOL0     C31800   7.990   2.480   5.845  0.0598 -0.4802  0.0678
  956MOL0     C31801   8.135   2.466   5.879 -0.3008  0.0837  0.1683
  956MOL0     C31802   8.217   2.592   5.853  0.8914  0.5197 -0.4614
  956MOL0     C31803   8.355   2.588   5.923 -0.0007  0.8695 -0.3057
  956MOL0     C31804   8.346   2.574   6.074 -0.8443  0.2300 -0.2678
  956MOL0     C31805   8.486   2.572   6.139 -0.2105 -0.3384 -0.1039
  956MOL0     C31806   8.522   2.706   6.205  0.1630 -0.0001  0.0751
  956MOL0     N31807   8.563   2.808   6.111  0.6455 -0.1817  0.1392
  956MOL0     C31808   8.687   2.846   6.065 -0.1621 -0.3349 -0.1663
  956MOL0     C31809   8.671   2.953   5.983 -0.2169  0.0628 -0.5991
  956MOL0     C31810   8.768   3.030   5.896  0.3348 -0.0953  0.3247
  956MOL0     C31811   8.912   2.996   5.946 -0.3313  0.0842 -0.1820
  956MOL0     C31812   8.981   3.105   6.008  0.0210  0.5463 -0.2386
  956MOL0     C31813   9.134   3.081   6.007 -0.0860  0.7384 -0.1284
  956MOL0     O31814   9.200   3.185   6.073  0.2798  0.0104  0.1886
  956MOL0     C31815   9.330   3.206   6.068 -0.0474  1.1020 -0.5644
  956MOL0     C31816   9.418   3.090   6.067  0.7370 -0.2963 -0.8322
  956MOL0     C31817   9.558   3.097   6.080  0.7290  0.0034 -1.5454
  956MOL0     C31818   9.638   2.968   6.086  0.5090  0.4837  0.6339
  956MOL0     C31819   9.614   3.226   6.092  0.0533  0.0245  0.6769
  956MOL0     C31820   9.756   3.251   6.115 -0.4117  0.9000 -0.5806
  956MOL0     O31821   9.795   3.376   6.134  0.4292 -0.1021  1.1067
  956MOL0     C31822   9.925   3.419   6.144  0.3445 -0.7882 -0.1429
  956MOL0     C31823  10.012   3.414   6.035 -0.0796  0.8502  0.0169
  956MOL0     C31824  10.148   3.440   6.053  0.0712  0.3309  0.6679
  956MOL0     C31825  10.189   3.488   6.174  0.3729 -0.4344  0.6808
  956MOL0     O31826  10.322   3.515   6.200 -0.0164  0.4732  0.0016
  956MOL0     C31827  10.395   3.395   6.228  1.3073 -0.7951 -1.0763
  956MOL0     C31828  10.544   3.432   6.262  0.4713  0.0159 -0.5339
  956MOL0     C31829  10.620   3.501   6.155  0.0226  0.2971  0.0007
  956MOL0     C31830  10.747   3.579   6.218  0.7642 -0.7519 -0.6526
  956MOL0     C31831  10.862   3.499   6.275  0.0700  0.6507  0.1214
  956MOL0     C31832  10.950   3.454   6.162 -0.1604  0.1473 -0.7959
  956MOL0     C31833  11.051   3.346   6.209 -0.6271 -0.4534 -0.0469
  956MOL0     C31834  11.146   3.309   6.096  0.1457  1.4548 -0.5146
  956MOL0    Cl31835  11.071   3.237   5.946  0.0202 -0.5321  0.1328
  956MOL0     C31836  10.102   3.491   6.289  0.1213 -0.5846  0.4342
  956MOL0     C31837   9.965   3.467   6.266 -1.1131 -0.1937 -0.2403
  956MOL0     O31838   9.836   3.158   6.122 -0.2053  0.1970  0.0890
  956MOL0     C31839   9.527   3.334   6.099 -0.7395  0.0592  0.1995
  956MOL0     C31840   9.385   3.333   6.097 -0.3590  0.0265  0.2430
  956MOL0     N31841   8.537   2.985   5.985 -0.3918 -1.2828 -0.0218
  956MOL0     N31842   8.474   2.899   6.066 -0.2094  0.0879 -0.5052
  956MOL0     C31843   7.636   2.452   6.075  0.0533  0.0816  0.6327
  956MOL0     C31844   7.493   2.481   6.063  0.2090 -0.5870  0.8187
  956MOL0     C31845   7.067   2.525   5.892 -0.7562  0.1706 -0.5976
  956MOL0     C31846   7.020   2.405   5.959 -0.0840  0.6930  0.4364
  956MOL0     C31847   6.882   2.376   5.956 -0.3162 -0.8633  0.6007
  956MOL0     C31848   6.792   2.470   5.895  0.3371  0.0782  0.0658
  956MOL0     O31849   6.663   2.434   5.908 -0.1995 -0.4571 -0.5337
  956MOL0     C31850   6.568   2.537   5.914 -0.2285 -0.4688  0.6151
  956MOL0     C31851   6.440   2.477   5.938  0.3001 -0.2303 -1.2954
  956MOL0     C31852   6.434   2.430   6.083 -0.1323 -0.6012  0.7400
  956MOL0     C31853   6.309   2.347   6.095 -0.7303  0.0511  0.3444
  956MOL0     C31854   6.197   2.444   6.081  0.5711  0.3759 -0.3021
  956MOL0     C31855   6.098   2.514   6.055  0.6293 -1.1961  0.1996
  956MOL0     C31856   6.845   2.591   5.840 -0.6361 -0.3787  0.2680
  956MOL0     C31857   6.978   2.617   5.833 -0.1007 -0.1545 -0.5345
  956MOL0     C31858   7.014   2.731   5.743  0.6705  0.0343  0.4101
  956MOL0     H31859   7.418   2.329   5.780 -1.5621  5.3982 -0.8261
  956MOL0     H31860   7.652   2.251   5.800 -1.8970 -2.2629  0.8643
  956MOL0     H31861   7.826   2.366   5.779  0.4137  0.6023 -0.1109
  956MOL0     H31862   7.968   2.270   5.842 -0.3585  0.6791  3.0233
  956MOL0     H31863   7.979   2.517   5.743 -2.6924  2.2129  1.1872
  956MOL0     H31864   7.950   2.547   5.922 -0.9143 -1.9673  0.9187
  956MOL0     H31865   8.138   2.429   5.982 -1.1146 -3.1133 -0.8280
  956MOL0     H31866   8.176   2.384   5.819 -0.4031  0.7021 -0.7614
  956MOL0     H31867   8.223   2.614   5.745  2.5376  0.4613 -0.4094
  956MOL0     H31868   8.153   2.669   5.897 -1.5491  0.1817 -3.0980
  956MOL0     H31869   8.406   2.683   5.905  1.3821  0.8901  3.0280
  956MOL0     H31870   8.407   2.498   5.888 -4.5351 -3.1202  1.9838
  956MOL0     H31871   8.291   2.661   6.110  1.8910  0.4471  4.1021
  956MOL0     H31872   8.291   2.483   6.101  0.6661 -0.4374  0.7229
  956MOL0     H31873   8.567   2.539   6.074  2.4850  3.4177  1.0407
  956MOL0     H31874   8.482   2.498   6.219 -0.7870  0.7504  0.8997
  956MOL0     H31875   8.435   2.742   6.261 -0.2958  1.1362 -1.2860
  956MOL0     H31876   8.602   2.676   6.272  0.3054  0.2440  0.0180
  956MOL0     H31877   8.776   2.787   6.084 -0.1694 -0.8583 -1.6439
  956MOL0     H31878   8.738   3.136   5.896 -3.5387 -1.0209 -0.7346
  956MOL0     H31879   8.767   3.001   5.790 -2.0366  0.2599  0.1963
  956MOL0     H31880   8.916   2.908   6.011 -3.0898 -0.0226 -0.0546
  956MOL0     H31881   8.970   2.958   5.862 -0.3684  1.6079 -0.9231
  956MOL0     H31882   8.970   3.201   5.957  1.8960 -0.2742 -2.3237
  956MOL0     H31883   8.936   3.121   6.107  1.5265  0.1290  0.5519
  956MOL0     H31884   9.158   2.981   6.045  1.4133  0.6411 -1.2592
  956MOL0     H31885   9.162   3.078   5.902  1.0593 -0.6076  0.1851
  956MOL0     H31886   9.365   2.996   6.054 -0.0561  0.3037 -2.2026
  956MOL0     H31887   9.692   2.961   5.992  1.7800  2.5721  1.1395
  956MOL0     H31888   9.568   2.884   6.089 -1.0477  1.3238 -4.1010
  956MOL0     H31889   9.711   2.958   6.167 -0.5657 -1.7835  1.3997
  956MOL0     H31890   9.977   3.371   5.941  0.4962  1.1504 -0.3447
  956MOL0     H31891  10.215   3.437   5.968 -2.6653 -2.9081 -1.6663
  956MOL0     H31892  10.356   3.358   6.323 -0.5007  0.6682 -1.2029
  956MOL0     H31893  10.379   3.322   6.148 -1.4504 -2.1348  0.5475
  956MOL0     H31894  10.551   3.502   6.345  2.9458 -0.0552 -0.6103
  956MOL0     H31895  10.600   3.345   6.297 -0.2075  0.5979  2.2061
  956MOL0     H31896  10.552   3.580   6.119  0.3613 -0.1811 -1.7755
  956MOL0     H31897  10.656   3.444   6.070  1.9075  0.1049  0.8752
  956MOL0     H31898  10.715   3.637   6.305  0.1194 -0.4283 -1.0883
  956MOL0     H31899  10.785   3.649   6.143  3.3637 -1.1280  0.2316
  956MOL0     H31900  10.930   3.555   6.339  1.6454 -3.0220  1.9949
  956MOL0     H31901  10.824   3.413   6.331 -0.3135  1.5065  1.2043
  956MOL0     H31902  11.015   3.539   6.137  2.2877 -1.1235  0.8356
  956MOL0     H31903  10.904   3.407   6.074  0.6911 -1.4047 -0.4615
  956MOL0     H31904  10.996   3.262   6.252 -0.8728 -0.9823 -1.3673
  956MOL0     H31905  11.114   3.397   6.283  0.2688 -1.5493 -0.0206
  956MOL0     H31906  11.205   3.236   6.152 -1.1484  0.3161 -0.5797
  956MOL0     H31907  11.212   3.393   6.075  0.1350  1.7652  0.6464
  956MOL0     H31908  10.139   3.503   6.391 -1.1156 -3.8245  1.3811
  956MOL0     H31909   9.893   3.454   6.346  0.1747  0.5782  1.0994
  956MOL0     H31910   9.564   3.436   6.101  0.1897 -0.2734  2.0799
  956MOL0     H31911   9.337   3.430   6.112  2.8395  1.5368  1.6761
  956MOL0     H31912   7.693   2.493   6.158  0.7918  4.3508 -1.6724
  956MOL0     H31913   7.441   2.520   6.149  0.2143 -0.0932  0.6038
  956MOL0     H31914   7.081   2.331   6.009  0.4457  1.5818  1.1314
  956MOL0     H31915   6.838   2.286   5.998 -0.5231 -0.9222  0.2635
  956MOL0     H31916   6.597   2.605   5.995  1.7633 -2.2015  1.4563
  956MOL0     H31917   6.571   2.588   5.817 -1.5623  0.8735  1.2452
  956MOL0     H31918   6.411   2.394   5.872 -1.8501 -0.0802 -0.6322
  956MOL0     H31919   6.368   2.560   5.938 -0.5470 -0.9341  0.1160
  956MOL0     H31920   6.520   2.365   6.101 -0.4163 -1.0373  0.5339
  956MOL0     H31921   6.437   2.513   6.154  0.1814  2.4586 -2.5613
  956MOL0     H31922   6.311   2.301   6.194  1.5532 -3.9493 -1.3155
  956MOL0     H31923   6.301   2.260   6.029 -1.7797 -0.0950  0.6365
  956MOL0     H31924   6.015   2.575   6.023  0.4932 -2.1165 -1.3152
  956MOL0     H31925   6.782   2.666   5.793  0.8050 -0.1678 -1.4232
  956MOL0     H31926   6.930   2.791   5.708  1.3203 -0.9239 -3.2558
  956MOL0     H31927   7.083   2.796   5.798 -0.6488  2.7820 -0.9737
  956MOL0     H31928   7.058   2.693   5.650  1.0944  0.3019  0.4958
  957MOL0     O31929   4.579   6.179   7.722  0.3687  0.1001  0.4431
  957MOL0     C31930   4.494   6.138   7.803 -0.3624  0.5874 -0.0028
  957MOL0     O31931   4.511   6.125   7.939 -0.2602  0.2220 -0.4834
  957MOL0     C31932   4.628   6.176   7.998 -0.0432 -0.4294 -0.6296
  957MOL0     C31933   4.735   6.103   8.044  0.1343  0.4552 -0.4466
  957MOL0     C31934   4.842   6.160   8.103 -0.1038 -0.3430 -0.4887
  957MOL0     C31935   4.854   6.298   8.107 -0.0931 -0.4661 -0.1322
  957MOL0     O31936   4.973   6.348   8.140  0.5545 -0.1449 -0.8253
  957MOL0     C31937   5.019   6.477   8.100  0.1371  0.5337  0.7058
  957MOL0     C31938   5.151   6.516   8.171 -0.3020  0.0019 -0.1431
  957MOL0     C31939   5.257   6.404   8.172  0.2263  0.3550 -0.7586
  957MOL0     C31940   5.394   6.465   8.203 -0.3391  0.7538 -0.3214
  957MOL0     C31941   5.511   6.366   8.186  0.2024 -0.7047  0.1790
  957MOL0     C31942   5.652   6.423   8.188 -0.2580 -0.4469  1.1922
  957MOL0     C31943   5.743   6.299   8.170  0.0838 -0.2787 -0.4358
  957MOL0     C31944   5.754   6.200   8.284 -0.3876 -0.1269  0.4290
  957MOL0     N31945   5.761   6.263   8.410  0.6641 -0.2286 -0.4479
  957MOL0     C31946   5.868   6.274   8.491 -0.0932  0.5793  0.0480
  957MOL0     C31947   5.835   6.297   8.622  0.5855  1.1278  0.6472
  957MOL0     C31948   5.935   6.298   8.731 -1.1190 -0.4599  0.2980
  957MOL0     C31949   5.867   6.308   8.864 -0.0293  0.1336  0.5320
  957MOL0     C31950   5.956   6.266   8.979  0.5606  0.3184  0.3097
  957MOL0     C31951   5.916   6.125   9.038  1.1437 -0.2521 -0.4196
  957MOL0     O31952   5.942   6.006   8.956  0.0944  0.5905  0.0408
  957MOL0     C31953   6.074   5.972   8.923  0.2245 -0.7962 -0.2092
  957MOL0     C31954   6.097   5.898   8.806  0.4351 -0.0148 -0.1981
  957MOL0     C31955   6.228   5.865   8.773 -1.4044  0.3370 -0.6074
  957MOL0     C31956   6.260   5.804   8.640 -0.1201 -0.5111  0.6456
  957MOL0     C31957   6.342   5.905   8.859 -0.7369 -0.1798 -0.1854
  957MOL0     C31958   6.486   5.876   8.829  0.1044  1.4121  1.1434
  957MOL0     O31959   6.570   5.851   8.938  0.1567 -0.6046  0.7138
  957MOL0     C31960   6.696   5.820   8.903 -0.6086  0.0948 -0.0580
  957MOL0     C31961   6.754   5.697   8.957  0.1067 -0.1861 -0.6800
  957MOL0     C31962   6.878   5.652   8.920  0.0824 -0.1736  0.4143
  957MOL0     C31963   6.955   5.726   8.840 -0.8067 -0.0860 -0.7453
  957MOL0     O31964   7.084   5.677   8.824  0.5050  0.5645  0.1598
  957MOL0     C31965   7.186   5.775   8.782  0.0169  0.5372  0.3852
  957MOL0     C31966   7.203   5.772   8.625 -0.1464  0.3903 -0.0518
  957MOL0     C31967   7.245   5.624   8.589  0.5528 -0.0704 -0.0892
  957MOL0     C31968   7.250   5.592   8.437 -0.7693 -0.0328 -1.0680
  957MOL0     C31969   7.296   5.445   8.432  0.3782 -0.2673  0.8159
  957MOL0     C31970   7.323   5.396   8.289 -0.2317 -0.5151  0.2094
  957MOL0     C31971   7.376   5.251   8.279 -0.1208 -0.4355 -0.1403
  957MOL0     C31972   7.365   5.189   8.134  0.0854 -0.3660  0.1365
  957MOL0    Cl31973   7.484   5.255   8.021  0.2375  0.2745  0.6602
  957MOL0     C31974   6.910   5.847   8.784  0.0148  0.8279  0.2013
  957MOL0     C31975   6.787   5.901   8.820  0.1999  0.0748  0.3513
  957MOL0     O31976   6.522   5.869   8.713  0.5420  0.3104  0.3354
  957MOL0     C31977   6.317   5.984   8.971  0.2072  0.0244 -0.0416
  957MOL0     C31978   6.183   6.009   9.004  0.5909 -0.1684 -0.1709
  957MOL0     N31979   5.702   6.311   8.614 -0.4075  0.4507  0.7909
  957MOL0     N31980   5.657   6.291   8.500  0.2863  0.7184 -0.0254
  957MOL0     C31981   4.747   6.377   8.058 -0.0529 -0.5257 -0.8532
  957MOL0     C31982   4.635   6.318   8.006 -0.2853  0.2909  0.2347
  957MOL0     C31983   4.365   6.100   7.753  0.1685 -1.0252  0.2480
  957MOL0     C31984   4.322   6.176   7.638 -0.6924  0.8166  0.7661
  957MOL0     C31985   4.196   6.149   7.597 -0.0951 -0.3213 -0.0067
  957MOL0     C31986   4.108   6.058   7.639 -0.4375 -0.1353  0.1522
  957MOL0     O31987   3.986   6.046   7.565  0.1934 -0.4057 -0.3818
  957MOL0     C31988   3.895   5.940   7.580  0.6868 -0.5643  0.0887
  957MOL0     C31989   3.909   5.792   7.520 -0.5459 -0.2208 -0.1425
  957MOL0     C31990   4.052   5.740   7.539 -0.2374 -0.0529  0.0424
  957MOL0     C31991   4.077   5.609   7.462 -0.1191 -0.2209  0.5259
  957MOL0     C31992   3.981   5.514   7.512 -0.0939  0.2531 -0.0702
  957MOL0     C31993   3.899   5.426   7.551  0.2822 -0.9288 -0.6095
  957MOL0     C31994   4.149   5.983   7.750  0.4822  1.5561  1.0843
  957MOL0     C31995   4.275   6.004   7.807  0.2368  0.1859 -0.3508
  957MOL0     C31996   4.315   5.921   7.928 -0.1955  0.8519 -0.1516
  957MOL0     H31997   4.740   5.996   8.028 -4.0428 -0.2840  1.6201
  957MOL0     H31998   4.928   6.099   8.127  1.0663  1.5486  0.3761
  957MOL0     H31999   4.941   6.551   8.123 -2.4271 -1.9274  0.5321
  957MOL0     H32000   5.041   6.484   7.993  0.5718 -1.4267  0.6409
  957MOL0     H32001   5.203   6.602   8.129 -2.0981  0.4116 -1.6486
  957MOL0     H32002   5.135   6.555   8.272 -0.1459  2.0967 -0.8789
  957MOL0     H32003   5.233   6.323   8.241  1.8502  0.2561 -0.2732
  957MOL0     H32004   5.258   6.349   8.077  1.1772 -3.2092  1.1178
  957MOL0     H32005   5.405   6.541   8.125  0.0811  1.4055  0.3558
  957MOL0     H32006   5.396   6.505   8.305  0.6074  0.9404 -0.4070
  957MOL0     H32007   5.494   6.322   8.087 -0.3674  1.2123 -0.6030
  957MOL0     H32008   5.506   6.288   8.262  2.2480  0.2433  1.3829
  957MOL0     H32009   5.669   6.497   8.109 -0.5890 -0.1086  1.4340
  957MOL0     H32010   5.659   6.480   8.281  0.4384 -0.2213  1.0060
  957MOL0     H32011   5.847   6.329   8.155 -0.2049  1.8067  1.3377
  957MOL0     H32012   5.725   6.236   8.082  1.0612 -0.1488 -0.7381
  957MOL0     H32013   5.672   6.129   8.270 -2.4252  2.2509 -0.7361
  957MOL0     H32014   5.842   6.138   8.271  1.4745  2.0594  1.8243
  957MOL0     H32015   5.968   6.245   8.461 -1.2895 -0.2521 -3.7209
  957MOL0     H32016   6.001   6.382   8.707 -3.2933  1.0298 -0.7758
  957MOL0     H32017   5.987   6.201   8.726 -1.3213 -0.5006 -3.3601
  957MOL0     H32018   5.815   6.403   8.883  0.4183  0.0241  2.5405
  957MOL0     H32019   5.786   6.235   8.861  0.2622 -0.2284 -3.1856
  957MOL0     H32020   6.059   6.262   8.943  0.2298  4.0112 -1.5753
  957MOL0     H32021   5.944   6.342   9.058  0.3825 -0.8588  1.4427
  957MOL0     H32022   5.944   6.104   9.141 -1.5058 -3.6109 -0.1997
  957MOL0     H32023   5.807   6.131   9.050  1.1802 -0.9513  0.3430
  957MOL0     H32024   6.015   5.872   8.740  0.4099 -0.0386 -0.1578
  957MOL0     H32025   6.303   5.879   8.574 -2.6269  0.2486 -0.2332
  957MOL0     H32026   6.165   5.779   8.592 -0.0526  1.7421 -0.7980
  957MOL0     H32027   6.324   5.715   8.643  0.1244 -0.3696 -0.2096
  957MOL0     H32028   6.692   5.631   9.016 -0.1473 -0.8968 -1.7249
  957MOL0     H32029   6.909   5.553   8.952 -0.7554 -0.9548 -1.0817
  957MOL0     H32030   7.167   5.875   8.821  2.8753  1.4067 -0.2094
  957MOL0     H32031   7.281   5.744   8.828 -0.4831 -0.8975  0.5133
  957MOL0     H32032   7.104   5.783   8.579 -1.3608 -2.9366  1.5001
  957MOL0     H32033   7.278   5.843   8.588 -0.8039  1.2252  0.1862
  957MOL0     H32034   7.164   5.559   8.623  0.1626 -1.2266 -2.9032
  957MOL0     H32035   7.343   5.605   8.635  0.1405  1.2793  1.4333
  957MOL0     H32036   7.319   5.660   8.385 -1.6071 -0.5306 -2.9167
  957MOL0     H32037   7.146   5.609   8.406 -0.7551  2.0073 -0.1818
  957MOL0     H32038   7.395   5.442   8.480  1.0815 -1.8739 -0.6209
  957MOL0     H32039   7.230   5.379   8.488 -0.8506  1.7334  1.8598
  957MOL0     H32040   7.405   5.456   8.248 -0.1919 -0.4923  0.3205
  957MOL0     H32041   7.230   5.403   8.232  0.0787  1.5229 -0.1217
  957MOL0     H32042   7.311   5.195   8.346 -2.5400  5.2421  2.9592
  957MOL0     H32043   7.480   5.239   8.311  0.3922 -0.0353 -1.5876
  957MOL0     H32044   7.264   5.202   8.095  1.5608  1.1685 -3.6543
  957MOL0     H32045   7.374   5.080   8.139 -1.7702 -0.5000  2.2085
  957MOL0     H32046   6.975   5.902   8.718  1.3525 -2.8782 -1.8407
  957MOL0     H32047   6.758   5.999   8.783 -0.6605  0.1024  1.0622
  957MOL0     H32048   6.399   6.025   9.030 -0.2953 -1.7318  2.0203
  957MOL0     H32049   6.170   6.066   9.095  3.3125  2.9888 -1.5490
  957MOL0     H32050   4.758   6.484   8.064  1.4288 -0.6347 -1.1929
  957MOL0     H32051   4.548   6.380   7.984 -0.2577 -0.5109 -2.4614
  957MOL0     H32052   4.387   6.244   7.584  0.5885 -1.3259 -0.5232
  957MOL0     H32053   4.159   6.203   7.510 -3.3813 -1.4125  0.5716
  957MOL0     H32054   3.876   5.932   7.688  1.0835 -1.4453  0.1042
  957MOL0     H32055   3.799   5.974   7.540  0.9028  0.7680  0.6769
  957MOL0     H32056   3.886   5.804   7.414 -0.1139  2.0287 -0.0377
  957MOL0     H32057   3.832   5.738   7.576 -0.1647  2.3449  3.1553
  957MOL0     H32058   4.118   5.820   7.505 -1.3852  1.2731  0.8491
  957MOL0     H32059   4.064   5.729   7.647  1.7332 -2.0225 -0.3134
  957MOL0     H32060   4.178   5.575   7.487 -0.5314 -2.2610 -0.4235
  957MOL0     H32061   4.059   5.616   7.354 -2.0710  0.1834  0.8441
  957MOL0     H32062   3.830   5.351   7.585  0.6283 -1.2809 -0.6689
  957MOL0     H32063   4.080   5.908   7.787 -1.3139  0.8733 -3.0401
  957MOL0     H32064   4.284   5.965   8.023 -0.3144 -1.2602  0.8605
  957MOL0     H32065   4.262   5.825   7.920 -3.0594  2.3579 -0.4602
  957MOL0     H32066   4.423   5.904   7.934 -0.5688 -3.3487 -1.9992
  958MOL0     O32067   5.573  10.201   7.780 -0.5917  0.0423 -0.0002
  958MOL0     C32068   5.524  10.086   7.777 -0.6032 -0.0920 -0.2074
  958MOL0     O32069   5.412  10.053   7.721  0.0769 -0.4062  0.2924
  958MOL0     C32070   5.318  10.139   7.694 -0.0648  0.8164 -0.6488
  958MOL0     C32071   5.199  10.153   7.771  0.4677 -0.3045  1.0575
  958MOL0     C32072   5.107  10.250   7.749  0.7392  0.4061 -0.8031
  958MOL0     C32073   5.131  10.332   7.643  0.7250 -0.0955  0.3842
  958MOL0     O32074   5.037  10.434   7.609 -0.5917  0.3371 -0.5166
  958MOL0     C32075   4.972  10.510   7.707  0.0187 -0.0680 -0.9775
  958MOL0     C32076   4.943  10.647   7.644  0.1652  0.6997  0.9012
  958MOL0     C32077   5.058  10.728   7.577  0.0322 -0.1947 -0.0687
  958MOL0     C32078   5.046  10.740   7.427  0.0759  1.1321 -0.2531
  958MOL0     C32079   5.162  10.820   7.371  0.3767  0.1140 -0.5070
  958MOL0     C32080   5.161  10.828   7.222 -0.4137  0.3344  0.5285
  958MOL0     C32081   5.281  10.895   7.146  0.3956 -0.2295 -0.4692
  958MOL0     C32082   5.257  10.904   6.987 -0.2419  0.5886 -0.3534
  958MOL0     N32083   5.248  10.776   6.917  0.6631  0.6173  0.3073
  958MOL0     C32084   5.320  10.665   6.942 -0.4487 -0.5579  0.0565
  958MOL0     C32085   5.320  10.589   6.826 -0.8230  0.7208  0.0244
  958MOL0     C32086   5.374  10.452   6.803 -0.5137 -0.3092 -0.4289
  958MOL0     C32087   5.526  10.460   6.762 -0.4803  0.3914 -0.5635
  958MOL0     C32088   5.561  10.312   6.724  0.2237 -0.6475 -0.1458
  958MOL0     C32089   5.612  10.223   6.830 -0.2997 -0.4778  0.7723
  958MOL0     O32090   5.716  10.278   6.903  0.6987  0.2538  0.0043
  958MOL0     C32091   5.848  10.272   6.864 -0.1889 -0.0627  0.0210
  958MOL0     C32092   5.941  10.330   6.957 -0.5771 -0.3726  0.0776
  958MOL0     C32093   6.080  10.313   6.944  0.0247 -1.4581 -1.0915
  958MOL0     C32094   6.178  10.346   7.061 -0.2532  0.0296 -0.9770
  958MOL0     C32095   6.128  10.272   6.815 -0.1745  0.4341 -0.3621
  958MOL0     C32096   6.267  10.249   6.773 -0.6610 -0.2900 -0.4288
  958MOL0     O32097   6.358  10.231   6.878  1.0335  0.0162  0.8989
  958MOL0     C32098   6.488  10.189   6.856  0.2710 -0.9332 -0.2982
  958MOL0     C32099   6.599  10.255   6.900 -0.0269 -0.2096  0.5045
  958MOL0     C32100   6.724  10.216   6.885 -0.3051  0.7583  0.0267
  958MOL0     C32101   6.749  10.089   6.833  0.1809  0.1409 -0.4257
  958MOL0     O32102   6.878  10.042   6.822 -0.0381 -0.0857 -0.0536
  958MOL0     C32103   6.925   9.973   6.711 -0.2235  0.4385  0.0542
  958MOL0     C32104   7.077   9.989   6.713  0.6703  0.5261  0.2109
  958MOL0     C32105   7.146   9.927   6.588 -0.4518 -1.3625 -0.1728
  958MOL0     C32106   7.290   9.987   6.582 -0.0494  0.2961 -0.0854
  958MOL0     C32107   7.402   9.902   6.514 -0.3943 -0.3867 -0.3005
  958MOL0     C32108   7.428   9.921   6.359  0.2563  0.3940 -0.6018
  958MOL0     C32109   7.540   9.847   6.300  0.5995  0.4755 -0.1853
  958MOL0     C32110   7.579   9.888   6.164 -0.8662 -0.4150 -0.5131
  958MOL0    Cl32111   7.646   9.755   6.069 -0.5295  0.1790 -0.1860
  958MOL0     C32112   6.642  10.015   6.784 -0.4215  0.0647  0.1096
  958MOL0     C32113   6.513  10.072   6.791 -1.3330  0.3030  0.0319
  958MOL0     O32114   6.304  10.253   6.653  0.1328  0.0053 -0.8837
  958MOL0     C32115   6.037  10.230   6.716  0.2399 -0.3329 -0.7793
  958MOL0     C32116   5.892  10.214   6.741 -0.1834 -0.1110 -0.2605
  958MOL0     N32117   5.247  10.664   6.737 -1.1719  0.3891  0.1556
  958MOL0     N32118   5.207  10.771   6.789  0.3051  0.0060  0.0208
  958MOL0     C32119   5.229  10.310   7.557 -0.7647 -0.2309 -0.2916
  958MOL0     C32120   5.332  10.217   7.588  0.0217  0.7364  0.1943
  958MOL0     C32121   5.610   9.987   7.835 -0.2737 -1.5099  0.0436
  958MOL0     C32122   5.666  10.028   7.959 -0.1009  0.1498 -0.6660
  958MOL0     C32123   5.733   9.941   8.044 -0.0014  0.0246 -0.5825
  958MOL0     C32124   5.746   9.808   8.008 -0.4353 -0.0123  0.3371
  958MOL0     O32125   5.807   9.719   8.094 -0.7058  0.0548  0.8853
  958MOL0     C32126   5.896   9.769   8.199 -0.7159  0.3382  0.2321
  958MOL0     C32127   5.987   9.659   8.246  0.2536 -0.2680 -0.4323
  958MOL0     C32128   5.912   9.548   8.315 -0.7208  0.5280 -0.0797
  958MOL0     C32129   6.011   9.466   8.395  0.0577  1.0712 -1.0331
  958MOL0     C32130   6.048   9.526   8.522 -0.5808  0.9147 -0.3989
  958MOL0     C32131   6.079   9.570   8.631  0.3142  0.3599  0.8075
  958MOL0     C32132   5.683   9.757   7.886 -1.2807 -0.4846 -0.3581
  958MOL0     C32133   5.621   9.851   7.792 -0.9302 -0.0412 -0.0689
  958MOL0     C32134   5.566   9.800   7.660  0.5866 -0.1593  0.6401
  958MOL0     H32135   5.181  10.067   7.835 -0.9895 -1.7475 -1.1468
  958MOL0     H32136   5.028  10.254   7.823  0.6152 -4.1866 -0.4261
  958MOL0     H32137   5.014  10.534   7.805 -1.9324  4.3402 -0.9562
  958MOL0     H32138   4.874  10.469   7.736  0.2690 -0.0846 -0.1151
  958MOL0     H32139   4.867  10.634   7.566  3.0868  0.5191 -2.1222
  958MOL0     H32140   4.909  10.700   7.733 -0.0337 -0.1252  1.3300
  958MOL0     H32141   5.048  10.829   7.616  2.3008 -0.6864  1.9590
  958MOL0     H32142   5.155  10.685   7.602 -1.0860 -1.7255  1.9719
  958MOL0     H32143   5.059  10.639   7.387  2.2293  0.8758  0.9148
  958MOL0     H32144   4.953  10.785   7.390 -0.7291 -1.1841 -1.2129
  958MOL0     H32145   5.255  10.776   7.408  0.1637 -1.5242 -1.8050
  958MOL0     H32146   5.152  10.923   7.407 -2.4045  0.1181 -1.0893
  958MOL0     H32147   5.141  10.729   7.181 -2.8669  0.7316  0.5824
  958MOL0     H32148   5.074  10.889   7.196 -0.6099 -0.6297 -1.2289
  958MOL0     H32149   5.371  10.838   7.168  1.1403  1.5002  1.3290
  958MOL0     H32150   5.300  10.996   7.184  0.0348 -0.3400  0.0172
  958MOL0     H32151   5.164  10.960   6.971 -0.3003  0.6678  0.2253
  958MOL0     H32152   5.334  10.969   6.946  0.5651  0.0705  0.3093
  958MOL0     H32153   5.373  10.662   7.037  3.2224  1.0123 -1.7017
  958MOL0     H32154   5.325  10.399   6.721 -0.3612  0.8670 -1.3066
  958MOL0     H32155   5.359  10.393   6.894 -0.7203  1.2437  0.5864
  958MOL0     H32156   5.545  10.539   6.689 -1.7829  0.9144 -0.3656
  958MOL0     H32157   5.579  10.488   6.853 -2.6649 -4.5489  2.6964
  958MOL0     H32158   5.476  10.262   6.676 -0.2268  0.2220 -0.2625
  958MOL0     H32159   5.638  10.321   6.647 -1.5654  0.6640 -1.8958
  958MOL0     H32160   5.537  10.193   6.903  0.3805 -2.3359  0.7701
  958MOL0     H32161   5.634  10.126   6.785  0.9339  1.4922 -3.3377
  958MOL0     H32162   5.891  10.377   7.042  1.0167  1.8166 -0.1023
  958MOL0     H32163   6.122  10.387   7.145  3.1556 -0.4616  1.7688
  958MOL0     H32164   6.260  10.416   7.041  0.6108 -1.3587 -2.5994
  958MOL0     H32165   6.222  10.252   7.096  1.3953  1.1551  0.1171
  958MOL0     H32166   6.571  10.352   6.940 -0.6852 -0.7336  1.3515
  958MOL0     H32167   6.803  10.277   6.927 -0.5044  0.3026  1.0929
  958MOL0     H32168   6.906   9.865   6.716 -0.1021  0.4637  2.2212
  958MOL0     H32169   6.891  10.028   6.623  1.8241  3.7640  1.1794
  958MOL0     H32170   7.088  10.098   6.706 -0.0441  0.5372 -1.1959
  958MOL0     H32171   7.121   9.952   6.806  5.9596  2.7278 -1.0399
  958MOL0     H32172   7.094   9.941   6.493 -0.7098  2.6936  0.4105
  958MOL0     H32173   7.138   9.820   6.610 -0.1458 -1.5060 -0.7453
  958MOL0     H32174   7.315  10.004   6.687 -4.3374 -0.9289  1.3045
  958MOL0     H32175   7.276  10.085   6.536  1.7717  0.8282  0.4187
  958MOL0     H32176   7.492   9.928   6.570  0.1461 -0.3224 -1.1875
  958MOL0     H32177   7.373   9.796   6.517 -2.6328 -0.2162 -5.4935
  958MOL0     H32178   7.433  10.028   6.337 -4.1493  0.9774  0.2570
  958MOL0     H32179   7.337   9.893   6.305  1.3795  0.3940 -2.5899
  958MOL0     H32180   7.515   9.740   6.300  0.0301  0.5951 -1.2230
  958MOL0     H32181   7.627   9.860   6.365  0.5065  0.6961 -0.1058
  958MOL0     H32182   7.653   9.968   6.177  0.4370 -1.9500  2.5542
  958MOL0     H32183   7.493   9.929   6.110 -2.1692  2.0495  3.0575
  958MOL0     H32184   6.662   9.914   6.751  0.4059  0.3768 -0.3962
  958MOL0     H32185   6.432  10.026   6.736 -1.6122  0.2197  0.5072
  958MOL0     H32186   6.070  10.187   6.622  2.7462  1.5738 -0.8842
  958MOL0     H32187   5.821  10.172   6.671  1.4435 -3.3141 -0.1948
  958MOL0     H32188   5.238  10.379   7.474 -1.0719  0.3690  0.1672
  958MOL0     H32189   5.417  10.204   7.522 -1.3249  0.7060 -1.6163
  958MOL0     H32190   5.664  10.134   7.983 -0.4788  0.6257 -2.6206
  958MOL0     H32191   5.774   9.985   8.134 -0.9723 -1.1925  0.4932
  958MOL0     H32192   5.967   9.842   8.158  0.1653 -0.6748 -0.0920
  958MOL0     H32193   5.849   9.809   8.290 -1.2444  1.0886 -0.3585
  958MOL0     H32194   6.058   9.701   8.317  0.1209 -1.8508  0.6967
  958MOL0     H32195   6.042   9.610   8.165  2.3412 -1.2466  1.4631
  958MOL0     H32196   5.838   9.586   8.387 -1.3242 -1.9441  0.7112
  958MOL0     H32197   5.857   9.483   8.246 -0.3989 -1.5539  1.5384
  958MOL0     H32198   6.103   9.444   8.340  1.1566 -0.2655  1.1775
  958MOL0     H32199   5.967   9.371   8.425  1.6858  0.6103  0.0587
  958MOL0     H32200   6.115   9.605   8.726 -0.7339  0.6208  1.1167
  958MOL0     H32201   5.699   9.652   7.867 -1.6135 -0.5496 -0.2899
  958MOL0     H32202   5.496   9.870   7.613 -1.8178 -2.6236  0.2853
  958MOL0     H32203   5.646   9.782   7.588 -0.9119  1.4197 -1.5501
  958MOL0     H32204   5.513   9.706   7.677 -2.7845  1.6865  1.3085
  959MOL0     O32205   8.826   1.033   4.002  0.5423  0.0889  0.0876
  959MOL0     C32206   8.763   1.125   4.057  0.5448 -0.1831 -0.3467
  959MOL0     O32207   8.817   1.251   4.077  0.7464  0.0119  0.2502
  959MOL0     C32208   8.953   1.252   4.081 -0.0217 -0.1030  0.7824
  959MOL0     C32209   9.022   1.235   3.961 -0.2158  0.5043 -0.5559
  959MOL0     C32210   9.167   1.228   3.956  0.0525 -0.2961 -0.5275
  959MOL0     C32211   9.237   1.236   4.078 -0.1287 -0.1251 -0.1175
  959MOL0     O32212   9.374   1.231   4.081  0.3561 -0.0616 -0.3299
  959MOL0     C32213   9.438   1.221   3.957  0.7508 -0.0405  0.4004
  959MOL0     C32214   9.589   1.219   3.993 -0.2136 -0.3992 -0.4314
  959MOL0     C32215   9.609   1.097   4.078  0.2375  0.9057  0.2711
  959MOL0     C32216   9.754   1.053   4.079  0.4112 -0.6038 -0.8236
  959MOL0     C32217   9.764   0.940   4.184 -0.4279 -0.0791 -1.1853
  959MOL0     C32218   9.789   1.006   4.323  0.0035  0.6004  0.2032
  959MOL0     C32219   9.794   0.898   4.444  0.2302  0.5512 -0.6413
  959MOL0     C32220   9.929   0.818   4.433 -0.2043 -0.0484 -0.0627
  959MOL0     N32221   9.920   0.674   4.442  0.4869  0.6941 -0.0004
  959MOL0     C32222   9.937   0.576   4.334  0.2042  0.9825 -0.0894
  959MOL0     C32223   9.915   0.452   4.398 -0.3572 -0.5604  0.2380
  959MOL0     C32224   9.936   0.313   4.336  0.7488  0.3705 -0.4032
  959MOL0     C32225   9.809   0.231   4.383 -0.1226  0.5624 -0.0024
  959MOL0     C32226   9.815   0.086   4.352 -0.3273  0.3051 -0.3517
  959MOL0     C32227   9.910   0.013   4.459  0.3278  0.8445 -0.7182
  959MOL0     O32228   9.879  -0.135   4.455 -0.3084 -0.4075  0.2894
  959MOL0     C32229   9.959  -0.215   4.532 -0.2618  0.1734 -0.8173
  959MOL0     C32230  10.093  -0.178   4.580  0.3102  0.1021  0.8848
  959MOL0     C32231  10.177  -0.275   4.633  0.4171 -0.2581  0.3796
  959MOL0     C32232  10.318  -0.226   4.663  0.4190  0.4303  0.1162
  959MOL0     C32233  10.140  -0.410   4.639 -0.0062 -0.0025  0.6388
  959MOL0     C32234  10.231  -0.519   4.681 -0.1285 -0.6641  0.1951
  959MOL0     O32235  10.243  -0.639   4.611  0.1541  0.0063  0.0884
  959MOL0     C32236  10.366  -0.698   4.628 -0.7674  0.3292  0.1633
  959MOL0     C32237  10.377  -0.819   4.696  0.4925  0.2553  0.2864
  959MOL0     C32238  10.499  -0.888   4.708  0.3427  0.5178  0.0353
  959MOL0     C32239  10.614  -0.831   4.655 -0.0992 -0.3032 -0.3103
  959MOL0     O32240  10.744  -0.881   4.641 -0.7053  0.1648  0.6447
  959MOL0     C32241  10.781  -1.007   4.695  0.5835 -0.1478  0.1651
  959MOL0     C32242  10.808  -0.996   4.850 -0.1437 -0.1603  0.0172
  959MOL0     C32243  10.833  -1.133   4.912 -1.0779  0.4652 -0.3365
  959MOL0     C32244  10.965  -1.199   4.878  0.0211 -0.2518 -0.1573
  959MOL0     C32245  11.052  -1.225   5.010  0.1912  0.0703  0.9024
  959MOL0     C32246  10.997  -1.350   5.078  0.6144 -0.5589 -0.0526
  959MOL0     C32247  11.032  -1.355   5.230  0.9848 -0.0143  0.5155
  959MOL0     C32248  10.970  -1.479   5.289  0.0715  0.2218 -0.3954
  959MOL0    Cl32249  11.045  -1.623   5.227  0.2839  0.3193  0.1605
  959MOL0     C32250  10.601  -0.708   4.584  0.0658  0.2360 -1.4996
  959MOL0     C32251  10.481  -0.638   4.574 -0.0654  0.5503  0.2295
  959MOL0     O32252  10.284  -0.499   4.787  0.0737  0.2278 -0.1343
  959MOL0     C32253  10.011  -0.448   4.582  0.2434  0.1140  0.3380
  959MOL0     C32254   9.924  -0.350   4.535 -0.6065  0.4952  0.4065
  959MOL0     N32255   9.875   0.473   4.528 -1.2009 -0.1081 -0.3221
  959MOL0     N32256   9.877   0.604   4.552  0.2439 -0.5234 -0.0930
  959MOL0     C32257   9.164   1.264   4.196 -0.0196 -0.4489 -0.8577
  959MOL0     C32258   9.020   1.268   4.195  0.5748 -0.5751  0.7943
  959MOL0     C32259   8.623   1.108   4.077  0.1586 -0.4193 -0.6244
  959MOL0     C32260   8.581   0.979   4.079 -0.5123  0.2950 -1.4739
  959MOL0     C32261   8.452   0.947   4.098  0.4865 -0.1456  0.5854
  959MOL0     C32262   8.360   1.060   4.098  0.4480  0.4546 -1.2936
  959MOL0     O32263   8.235   1.019   4.104 -0.2195 -0.1134  0.3958
  959MOL0     C32264   8.124   1.093   4.158 -0.4279 -0.2553 -0.1095
  959MOL0     C32265   7.997   0.995   4.171  0.5702  0.4107  0.6311
  959MOL0     C32266   8.024   0.870   4.258  0.1644  0.2483  0.1375
  959MOL0     C32267   7.894   0.789   4.267 -0.1974  0.1741  0.7046
  959MOL0     C32268   7.928   0.655   4.328 -0.0157  0.2100  1.1009
  959MOL0     C32269   7.964   0.545   4.361 -0.2379  0.6080  0.4452
  959MOL0     C32270   8.406   1.190   4.099  0.4026 -0.3418  0.7405
  959MOL0     C32271   8.533   1.218   4.083 -0.0189  0.2577 -0.9675
  959MOL0     C32272   8.573   1.367   4.066  0.0230  0.2872 -0.4269
  959MOL0     H32273   8.951   1.222   3.880 -0.4906 -2.7530  0.0629
  959MOL0     H32274   9.209   1.207   3.859 -2.0944 -0.0190 -1.5764
  959MOL0     H32275   9.417   1.301   3.885  1.2387 -0.4186 -0.1751
  959MOL0     H32276   9.421   1.123   3.910 -0.5707  0.0376  0.6806
  959MOL0     H32277   9.646   1.208   3.900  0.2082 -2.8987  0.0468
  959MOL0     H32278   9.625   1.312   4.037 -0.6391 -0.4626  0.0680
  959MOL0     H32279   9.571   1.103   4.180 -1.1324  0.7533 -0.2149
  959MOL0     H32280   9.554   1.008   4.046  0.0274  0.8878  0.6748
  959MOL0     H32281   9.780   1.010   3.982  0.4437  2.4556 -2.2840
  959MOL0     H32282   9.824   1.137   4.083 -1.0686  0.6494  1.6877
  959MOL0     H32283   9.843   0.873   4.150  0.5498  0.9574 -1.0224
  959MOL0     H32284   9.673   0.881   4.195 -1.7552  2.3457  2.9245
  959MOL0     H32285   9.890   1.049   4.323  0.1219  0.3544 -1.0606
  959MOL0     H32286   9.726   1.088   4.356 -0.8284  0.2902 -0.5750
  959MOL0     H32287   9.703   0.838   4.440  0.0225  0.9086 -2.3782
  959MOL0     H32288   9.797   0.952   4.539 -0.5975  3.4170 -2.1209
  959MOL0     H32289   9.986   0.841   4.342 -0.9977  2.9026  0.0922
  959MOL0     H32290   9.991   0.842   4.520 -0.0865  1.4945 -0.5373
  959MOL0     H32291   9.974   0.593   4.234  0.2750  0.5225 -0.1405
  959MOL0     H32292  10.026   0.262   4.370  0.7422 -1.3041 -2.6835
  959MOL0     H32293   9.946   0.324   4.228 -0.1667  2.2289 -0.3409
  959MOL0     H32294   9.791   0.249   4.489  0.7920  0.0440  0.2458
  959MOL0     H32295   9.725   0.270   4.324 -0.4609 -1.1114 -0.6801
  959MOL0     H32296   9.720   0.031   4.350  0.5561 -1.3367  0.3007
  959MOL0     H32297   9.865   0.050   4.262  2.4630 -0.7507  1.4811
  959MOL0     H32298  10.017   0.028   4.441  1.8515 -2.2185  4.0273
  959MOL0     H32299   9.891   0.053   4.559 -0.6975 -0.6004 -0.3051
  959MOL0     H32300  10.135  -0.078   4.573 -1.6644  1.0678  2.0745
  959MOL0     H32301  10.396  -0.294   4.628  0.9861  0.1445  1.8466
  959MOL0     H32302  10.325  -0.223   4.772  0.1644 -0.7268  0.1775
  959MOL0     H32303  10.346  -0.129   4.620  0.1069  1.9803  3.1075
  959MOL0     H32304  10.287  -0.856   4.745  1.5253 -0.6018  1.6406
  959MOL0     H32305  10.507  -0.981   4.763  1.1524  1.2188  1.1473
  959MOL0     H32306  10.706  -1.083   4.672  1.6636 -1.2652  0.2517
  959MOL0     H32307  10.876  -1.037   4.649  0.5580 -0.3790  0.2637
  959MOL0     H32308  10.897  -0.933   4.866  0.7388 -1.8942  2.4993
  959MOL0     H32309  10.718  -0.954   4.895  0.4059 -0.0007  0.9895
  959MOL0     H32310  10.755  -1.200   4.876 -0.0686 -0.7982 -0.2711
  959MOL0     H32311  10.827  -1.130   5.021  3.6334 -3.4107  0.3918
  959MOL0     H32312  11.012  -1.132   4.805 -5.1426  1.3730 -2.4453
  959MOL0     H32313  10.947  -1.293   4.827 -2.8313  0.0338  0.1685
  959MOL0     H32314  11.158  -1.239   4.985 -0.1712 -1.0385 -0.0893
  959MOL0     H32315  11.043  -1.143   5.081 -1.0928  0.6063  0.1576
  959MOL0     H32316  11.050  -1.434   5.033  2.5362 -0.3584  1.7325
  959MOL0     H32317  10.890  -1.358   5.054  1.0373 -0.2280 -2.3274
  959MOL0     H32318  10.990  -1.264   5.272  0.6693 -0.4188  1.0936
  959MOL0     H32319  11.141  -1.356   5.234  1.2946 -1.8717 -3.3003
  959MOL0     H32320  10.862  -1.472   5.277 -0.3351  0.5350  2.5141
  959MOL0     H32321  10.989  -1.494   5.396 -0.4234 -1.4175 -0.5052
  959MOL0     H32322  10.677  -0.657   4.526  0.6048  1.7696  0.4424
  959MOL0     H32323  10.483  -0.546   4.517  0.1884 -1.1924 -2.7967
  959MOL0     H32324   9.985  -0.553   4.578  0.4755  0.1056 -1.8388
  959MOL0     H32325   9.832  -0.369   4.480 -1.2649  3.8801  0.1416
  959MOL0     H32326   9.211   1.290   4.290 -1.2997 -0.3485 -0.2170
  959MOL0     H32327   8.967   1.301   4.283 -0.1314  1.7784 -0.4432
  959MOL0     H32328   8.659   0.902   4.084 -1.1102 -0.2525  0.6884
  959MOL0     H32329   8.426   0.846   4.128 -0.2791 -1.0348 -2.6473
  959MOL0     H32330   8.139   1.132   4.259  0.1391  0.8842 -0.6125
  959MOL0     H32331   8.096   1.184   4.103 -1.8155  1.0924  2.6050
  959MOL0     H32332   7.955   0.970   4.073  2.8827 -1.5337  0.0285
  959MOL0     H32333   7.925   1.056   4.226 -1.5549 -0.2074 -1.3410
  959MOL0     H32334   8.110   0.819   4.214 -0.2860 -0.0555 -0.4023
  959MOL0     H32335   8.051   0.911   4.356  1.2028  0.4558 -0.2252
  959MOL0     H32336   7.863   0.778   4.162  0.9173 -0.5122  0.4227
  959MOL0     H32337   7.805   0.838   4.307 -0.0992  2.7635 -1.9154
  959MOL0     H32338   7.992   0.444   4.381 -1.5215  0.3099  0.8319
  959MOL0     H32339   8.329   1.267   4.099  1.1914  0.6114  3.8528
  959MOL0     H32340   8.490   1.432   4.037  1.1689  0.9539 -2.4573
  959MOL0     H32341   8.612   1.407   4.160  1.0034 -1.1552 -0.1851
  959MOL0     H32342   8.645   1.371   3.984  2.5426  0.8523  1.6824
  960MOL0     O32343   0.973   1.900   7.262 -0.2481 -0.1750 -0.2781
  960MOL0     C32344   0.972   1.904   7.381 -0.2950 -0.1158  0.3511
  960MOL0     O32345   0.865   1.931   7.454  0.3030 -0.3307 -0.9580
  960MOL0     C32346   0.737   1.908   7.417 -0.4131 -0.5119 -0.0789
  960MOL0     C32347   0.681   1.968   7.310 -0.4124 -0.7109  0.2543
  960MOL0     C32348   0.552   1.931   7.278 -0.2223  0.2926  0.3835
  960MOL0     C32349   0.477   1.839   7.353 -0.4626  0.2225  0.9176
  960MOL0     O32350   0.347   1.811   7.323 -0.1612  0.3355 -0.1485
  960MOL0     C32351   0.278   1.690   7.367  0.2474  1.6923  0.2968
  960MOL0     C32352   0.127   1.708   7.328  0.2719 -0.1463  0.2505
  960MOL0     C32353   0.106   1.720   7.177  0.1057  0.2538  0.3525
  960MOL0     C32354   0.179   1.631   7.085  0.2014  0.5405  1.2036
  960MOL0     C32355   0.124   1.630   6.943 -0.5002  0.0598  0.6598
  960MOL0     C32356   0.219   1.553   6.849 -0.1508  0.0478  0.1203
  960MOL0     C32357   0.151   1.539   6.710 -0.0580  0.2351 -0.1563
  960MOL0     C32358   0.095   1.394   6.704 -0.8854  0.2752  0.7992
  960MOL0     N32359   0.197   1.288   6.711 -0.0414 -0.0267 -0.5991
  960MOL0     C32360   0.301   1.280   6.630  0.1697 -0.2502 -0.2507
  960MOL0     C32361   0.384   1.176   6.670  0.0061  0.1027  0.6644
  960MOL0     C32362   0.512   1.138   6.606  0.1094 -0.7462 -0.3346
  960MOL0     C32363   0.628   1.134   6.710  0.9373 -0.6355 -0.2436
  960MOL0     C32364   0.668   1.271   6.752  0.2115 -0.4474  0.0911
  960MOL0     C32365   0.778   1.277   6.855 -0.1240 -0.0765 -0.5078
  960MOL0     O32366   0.892   1.231   6.799  0.4384  0.3023 -0.3086
  960MOL0     C32367   1.012   1.216   6.874 -0.4320  0.3180  0.6352
  960MOL0     C32368   1.123   1.167   6.793  0.2655  0.4744 -0.4288
  960MOL0     C32369   1.244   1.146   6.852 -0.9721 -0.3763 -0.2806
  960MOL0     C32370   1.344   1.067   6.770  0.0681  0.5717  0.8921
  960MOL0     C32371   1.265   1.174   6.986  0.5175 -0.6510  0.1434
  960MOL0     C32372   1.402   1.154   7.063 -0.2958 -0.2762 -0.4065
  960MOL0     O32373   1.404   1.195   7.191  0.3679  0.4602  0.0391
  960MOL0     C32374   1.511   1.169   7.271  0.1173  0.7740 -0.5203
  960MOL0     C32375   1.489   1.154   7.410 -0.3121  0.0612  0.5083
  960MOL0     C32376   1.591   1.140   7.505  0.0983  0.3512 -0.3221
  960MOL0     C32377   1.723   1.151   7.463 -0.8601  0.0836 -0.3098
  960MOL0     O32378   1.834   1.119   7.543 -0.8500  0.6392  0.5409
  960MOL0     C32379   1.834   1.207   7.654 -0.8299 -0.4597  0.4124
  960MOL0     C32380   1.969   1.226   7.717  0.2206  0.5128 -0.1733
  960MOL0     C32381   2.019   1.112   7.802  0.0498 -0.1078 -0.5195
  960MOL0     C32382   2.163   1.135   7.838 -0.6850 -0.2604  0.0828
  960MOL0     C32383   2.175   1.254   7.928  0.3714 -0.2865  0.1911
  960MOL0     C32384   2.294   1.342   7.890  0.7120 -0.6361 -1.7825
  960MOL0     C32385   2.394   1.337   8.009 -0.4049 -0.0846  0.0014
  960MOL0     C32386   2.386   1.452   8.102  1.0274 -0.2086 -0.9820
  960MOL0    Cl32387   2.455   1.596   8.023 -0.5420  0.3378  0.2094
  960MOL0     C32388   1.753   1.171   7.325  0.0209 -0.2350  0.8045
  960MOL0     C32389   1.647   1.185   7.233  0.5470  0.6178 -0.1980
  960MOL0     O32390   1.488   1.080   7.024 -0.1085 -0.5572  0.7427
  960MOL0     C32391   1.158   1.223   7.073 -0.5381 -0.4957  0.1447
  960MOL0     C32392   1.035   1.243   7.010  0.6099  0.6579 -1.3510
  960MOL0     N32393   0.335   1.134   6.792 -0.1950 -0.5157 -0.8611
  960MOL0     N32394   0.218   1.196   6.805  0.5375 -0.0266 -0.3088
  960MOL0     C32395   0.538   1.785   7.465 -0.1133 -0.5051 -0.7931
  960MOL0     C32396   0.667   1.818   7.496  0.6516  0.6080 -0.3788
  960MOL0     C32397   1.096   1.915   7.444 -0.4786 -0.3762  0.7395
  960MOL0     C32398   1.206   1.959   7.377 -0.7689  0.0634 -0.1807
  960MOL0     C32399   1.329   1.988   7.444  0.0004  1.2178  0.2493
  960MOL0     C32400   1.338   1.965   7.582 -0.3325  0.5105 -0.2289
  960MOL0     O32401   1.458   1.994   7.642  0.9053  0.0519  0.7286
  960MOL0     C32402   1.473   1.973   7.783  0.1100 -0.2923 -0.4500
  960MOL0     C32403   1.614   2.018   7.835  0.0548  0.6892 -0.8818
  960MOL0     C32404   1.722   1.948   7.763 -0.8148  0.1970  0.1984
  960MOL0     C32405   1.858   1.950   7.841  0.6280 -0.4459  0.4451
  960MOL0     C32406   1.950   1.853   7.788  0.6336 -0.0033 -0.0478
  960MOL0     C32407   2.026   1.766   7.747 -0.2412  0.2168  0.5540
  960MOL0     C32408   1.226   1.911   7.652 -0.3523 -0.0497  0.1272
  960MOL0     C32409   1.109   1.885   7.584 -0.5811  0.5708 -0.3081
  960MOL0     C32410   1.004   1.804   7.661 -0.4592  0.9096  0.3374
  960MOL0     H32411   0.727   2.046   7.251  0.9266 -0.3965  1.6383
  960MOL0     H32412   0.499   1.980   7.197 -1.7115  0.5477  1.4716
  960MOL0     H32413   0.284   1.666   7.474  2.1856 -2.1330 -0.4806
  960MOL0     H32414   0.320   1.605   7.313  2.1978  1.9518  1.2995
  960MOL0     H32415   0.059   1.637   7.378 -2.5081  1.5502 -0.8753
  960MOL0     H32416   0.105   1.804   7.375  2.7435 -0.3042  1.9175
  960MOL0     H32417   0.001   1.702   7.154  0.2460 -2.0229  1.2670
  960MOL0     H32418   0.137   1.824   7.161 -0.3650  0.2962 -0.3181
  960MOL0     H32419   0.282   1.668   7.081  0.4616 -0.2973 -0.1125
  960MOL0     H32420   0.193   1.530   7.125  0.4134  0.4717  0.9624
  960MOL0     H32421   0.118   1.736   6.916  1.0298  0.1633  0.6643
  960MOL0     H32422   0.023   1.588   6.935 -1.5087  2.3027  0.7692
  960MOL0     H32423   0.310   1.614   6.835  0.2168 -0.7364 -1.0531
  960MOL0     H32424   0.259   1.460   6.890  0.5726  0.5936  0.6941
  960MOL0     H32425   0.223   1.552   6.629  0.0522  0.0648 -0.0867
  960MOL0     H32426   0.075   1.617   6.702 -0.1443  0.0204 -1.8042
  960MOL0     H32427   0.022   1.385   6.785 -1.2595  0.5784  0.5014
  960MOL0     H32428   0.046   1.380   6.607  0.7258 -2.0796  0.2483
  960MOL0     H32429   0.323   1.346   6.546  2.0818  1.0425  1.1708
  960MOL0     H32430   0.527   1.215   6.530  1.1677 -0.8456 -0.2438
  960MOL0     H32431   0.496   1.040   6.558 -1.3921 -0.0949 -1.2283
  960MOL0     H32432   0.591   1.069   6.789 -0.4701 -0.7648 -0.9809
  960MOL0     H32433   0.717   1.079   6.676  3.8059  1.9118  2.4600
  960MOL0     H32434   0.714   1.330   6.673 -1.6371 -2.1477 -2.3786
  960MOL0     H32435   0.573   1.315   6.785 -1.3032 -1.8159 -2.1973
  960MOL0     H32436   0.802   1.379   6.883  1.5707 -0.9553  1.5449
  960MOL0     H32437   0.755   1.210   6.939  0.7122  1.4531  1.0044
  960MOL0     H32438   1.091   1.136   6.694  0.5191 -0.3874 -0.2557
  960MOL0     H32439   1.445   1.109   6.765  0.5019 -0.5562 -2.8131
  960MOL0     H32440   1.326   1.057   6.662 -0.9424  0.8237  1.0278
  960MOL0     H32441   1.343   0.962   6.799 -2.8852 -0.1643 -1.3563
  960MOL0     H32442   1.386   1.143   7.444  0.4270  0.3088  3.0245
  960MOL0     H32443   1.556   1.125   7.607 -0.0595 -0.2611 -0.4610
  960MOL0     H32444   1.799   1.308   7.629 -1.5134 -0.3170  1.8363
  960MOL0     H32445   1.764   1.175   7.731  0.6613 -1.4709  1.3958
  960MOL0     H32446   2.048   1.245   7.643  2.2566 -2.7940  0.8846
  960MOL0     H32447   1.966   1.307   7.790  0.2161 -0.3661  0.8285
  960MOL0     H32448   2.002   1.019   7.748  2.2187 -0.0328 -1.4089
  960MOL0     H32449   1.956   1.095   7.890 -0.0520  1.5904 -0.2294
  960MOL0     H32450   2.218   1.153   7.745  0.9122 -0.5078  0.9399
  960MOL0     H32451   2.208   1.050   7.891  0.8702  0.6938  0.3401
  960MOL0     H32452   2.092   1.322   7.946 -1.1936 -1.8256 -0.7931
  960MOL0     H32453   2.183   1.212   8.029 -2.8654 -1.5459  0.0492
  960MOL0     H32454   2.238   1.436   7.894 -2.4087 -2.1947  4.4983
  960MOL0     H32455   2.340   1.320   7.794 -0.0195 -1.1106 -2.0265
  960MOL0     H32456   2.499   1.333   7.978  0.7584 -2.7670  3.6115
  960MOL0     H32457   2.395   1.245   8.067  0.7351  0.2323  0.5028
  960MOL0     H32458   2.432   1.425   8.197  0.7446 -1.9815 -1.3279
  960MOL0     H32459   2.281   1.459   8.132  1.2482 -1.1425  0.0529
  960MOL0     H32460   1.849   1.182   7.275 -0.7931  0.1348 -0.7363
  960MOL0     H32461   1.672   1.207   7.130 -0.3679 -0.0461 -0.5737
  960MOL0     H32462   1.172   1.249   7.177  1.4678 -0.2205 -0.1553
  960MOL0     H32463   0.950   1.264   7.073  1.3979  1.1251 -0.4218
  960MOL0     H32464   0.483   1.726   7.538 -0.6246  0.1148 -0.6684
  960MOL0     H32465   0.706   1.791   7.594  1.4933  1.9139 -0.3390
  960MOL0     H32466   1.197   1.969   7.269 -4.2170 -1.0113 -0.1275
  960MOL0     H32467   1.412   2.033   7.391 -0.3342 -0.5707 -1.9858
  960MOL0     H32468   1.400   2.032   7.838  1.7566  2.8369 -1.3455
  960MOL0     H32469   1.458   1.869   7.813 -2.2845 -0.5815 -2.3279
  960MOL0     H32470   1.614   1.995   7.942 -1.0171 -0.1168 -1.0379
  960MOL0     H32471   1.626   2.124   7.815 -0.2914  0.7844 -0.5986
  960MOL0     H32472   1.696   1.843   7.744 -0.1138 -0.3277  1.8845
  960MOL0     H32473   1.728   1.993   7.664  0.9458  0.0421  0.1903
  960MOL0     H32474   1.840   1.937   7.948  0.6440  1.3606  0.7069
  960MOL0     H32475   1.903   2.049   7.824 -0.3299 -0.2649 -1.2211
  960MOL0     H32476   2.085   1.680   7.722 -2.2343 -1.2382  0.6044
  960MOL0     H32477   1.229   1.888   7.758 -3.0120  4.4213  1.4111
  960MOL0     H32478   1.040   1.736   7.739 -0.6096 -1.3776 -1.4888
  960MOL0     H32479   0.926   1.869   7.701 -2.5949  0.2385 -2.4277
  960MOL0     H32480   0.958   1.737   7.588 -1.7350  2.7428 -0.6148
  961MOL0     O32481   2.623   3.184   5.363  0.7688 -0.8793 -0.0171
  961MOL0     C32482   2.545   3.279   5.341  0.4495 -0.0735  0.1114
  961MOL0     O32483   2.572   3.409   5.381  0.1338  0.4805 -0.1529
  961MOL0     C32484   2.706   3.453   5.392  0.2655 -0.5458 -0.1471
  961MOL0     C32485   2.723   3.580   5.454 -0.1337  0.8942  0.8487
  961MOL0     C32486   2.850   3.651   5.460  0.1469  0.2431 -0.5137
  961MOL0     C32487   2.957   3.592   5.393  0.1065  0.0612 -1.0789
  961MOL0     O32488   3.079   3.666   5.402 -0.0771 -0.2024 -0.3766
  961MOL0     C32489   3.183   3.590   5.468  0.3602  0.4242 -0.2951
  961MOL0     C32490   3.266   3.518   5.371 -0.4626  0.6976  0.1979
  961MOL0     C32491   3.427   3.538   5.381 -0.3022  0.2672  0.7327
  961MOL0     C32492   3.496   3.455   5.494 -0.4339  0.4994 -0.3803
  961MOL0     C32493   3.652   3.458   5.482 -0.1411 -0.3097 -0.3094
  961MOL0     C32494   3.700   3.568   5.583  0.4871 -0.1340 -0.0636
  961MOL0     C32495   3.849   3.535   5.610  0.0810  0.0226  0.3171
  961MOL0     C32496   3.901   3.639   5.716 -0.1741 -0.0623  0.5434
  961MOL0     N32497   3.914   3.790   5.687 -0.5871  1.3800 -0.0017
  961MOL0     C32498   4.035   3.840   5.632  0.4203  0.5322 -0.1779
  961MOL0     C32499   4.021   3.969   5.622 -0.8596  0.0544 -0.6208
  961MOL0     C32500   4.110   4.055   5.535  0.6609 -0.0659 -0.6755
  961MOL0     C32501   4.247   4.045   5.576  0.5530 -0.2438  0.7172
  961MOL0     C32502   4.332   4.130   5.480 -0.4442 -0.2756 -0.1334
  961MOL0     C32503   4.478   4.095   5.487 -0.8646 -0.6940  0.2924
  961MOL0     O32504   4.530   4.138   5.623  0.8315  1.1493  0.2239
  961MOL0     C32505   4.665   4.139   5.643  0.5052 -0.0349  0.1463
  961MOL0     C32506   4.721   4.240   5.718 -0.0342 -0.3442 -0.2107
  961MOL0     C32507   4.855   4.247   5.754 -0.0863 -0.1409  0.6207
  961MOL0     C32508   4.906   4.365   5.840  0.0792 -0.3681  0.2096
  961MOL0     C32509   4.940   4.141   5.724  1.4019  1.2523  0.4180
  961MOL0     C32510   5.081   4.127   5.754  0.2480 -0.8854 -0.1588
  961MOL0     O32511   5.161   4.045   5.672  0.4961 -0.4126 -0.2525
  961MOL0     C32512   5.296   4.046   5.679 -0.5935 -0.3560  0.5660
  961MOL0     C32513   5.364   3.932   5.648 -0.6592  0.6560  1.0198
  961MOL0     C32514   5.499   3.940   5.619 -0.3447  0.1356 -0.6948
  961MOL0     C32515   5.574   4.065   5.621  0.5394  0.5974 -0.9077
  961MOL0     O32516   5.708   4.062   5.594  0.3209  0.4518 -0.0765
  961MOL0     C32517   5.769   4.192   5.586  0.1986 -0.5468  0.0251
  961MOL0     C32518   5.903   4.177   5.500  0.1689  0.3453 -0.6002
  961MOL0     C32519   5.878   4.156   5.357 -0.2244  0.6094 -1.2456
  961MOL0     C32520   6.002   4.149   5.281 -0.6185  0.5475  0.0357
  961MOL0     C32521   5.980   4.147   5.132 -0.0304  0.6374 -0.3688
  961MOL0     C32522   6.115   4.114   5.065  0.0742  0.0233  0.5523
  961MOL0     C32523   6.215   4.228   5.056  0.7885 -0.3391  0.1793
  961MOL0     C32524   6.297   4.226   4.925  1.2382  0.0879  0.5817
  961MOL0    Cl32525   6.442   4.334   4.949 -0.2279  0.0763  0.0785
  961MOL0     C32526   5.495   4.177   5.650 -0.0322 -0.3322  0.1903
  961MOL0     C32527   5.357   4.172   5.682 -0.4092 -0.2390  0.6946
  961MOL0     O32528   5.124   4.192   5.848 -0.1249 -0.6783  0.2814
  961MOL0     C32529   4.888   4.041   5.636 -0.8665  0.5537 -0.7766
  961MOL0     C32530   4.755   4.043   5.603  0.1742  0.3965  0.5567
  961MOL0     N32531   3.899   4.000   5.677  1.2515 -0.0436 -0.1277
  961MOL0     N32532   3.834   3.895   5.710 -0.2560 -0.6419 -0.2755
  961MOL0     C32533   2.946   3.463   5.338  0.8844  0.8850 -0.1765
  961MOL0     C32534   2.822   3.399   5.334 -0.0341  0.7609 -0.6627
  961MOL0     C32535   2.410   3.258   5.267  0.0530 -0.4095  0.2631
  961MOL0     C32536   2.338   3.377   5.246  0.3100  0.4055  0.5056
  961MOL0     C32537   2.219   3.371   5.161  0.1173  1.2723 -0.1166
  961MOL0     C32538   2.171   3.258   5.095 -0.3235 -0.9232  0.9599
  961MOL0     O32539   2.075   3.273   4.999 -0.1938  0.2990  0.6969
  961MOL0     C32540   2.075   3.173   4.895 -0.1202  0.2698 -0.2665
  961MOL0     C32541   1.954   3.070   4.905  0.3513 -0.3246 -0.2557
  961MOL0     C32542   1.818   3.144   4.898 -0.6528  0.0883 -0.3892
  961MOL0     C32543   1.711   3.050   4.849 -0.1644  0.1057 -0.5459
  961MOL0     C32544   1.585   3.116   4.865 -0.6936 -0.2553 -0.2617
  961MOL0     C32545   1.478   3.165   4.862 -0.5103  0.0011  0.0618
  961MOL0     C32546   2.247   3.148   5.125 -0.9026  0.0446  0.3174
  961MOL0     C32547   2.362   3.140   5.209 -0.8322  0.5815  0.0145
  961MOL0     C32548   2.423   3.005   5.209 -0.1397  0.6038  0.1601
  961MOL0     H32549   2.641   3.622   5.511 -1.8161 -0.4626 -0.4544
  961MOL0     H32550   2.856   3.751   5.502 -1.5792  0.1346  0.0430
  961MOL0     H32551   3.135   3.522   5.539 -2.1550  0.3395 -1.9732
  961MOL0     H32552   3.255   3.652   5.523  0.9221 -1.3418  1.0499
  961MOL0     H32553   3.240   3.412   5.366 -1.7438  0.9135  1.4507
  961MOL0     H32554   3.244   3.551   5.269 -1.0757 -2.6630 -0.8787
  961MOL0     H32555   3.472   3.527   5.282 -2.0679 -0.9356  0.0213
  961MOL0     H32556   3.439   3.644   5.402 -0.5205  0.0219  2.1997
  961MOL0     H32557   3.470   3.479   5.597  2.1120 -1.0006  0.7002
  961MOL0     H32558   3.460   3.353   5.477 -3.9252  1.7311 -1.2209
  961MOL0     H32559   3.680   3.485   5.380 -2.5618 -3.2803 -1.9487
  961MOL0     H32560   3.689   3.363   5.522  2.4669  1.0424  0.6934
  961MOL0     H32561   3.684   3.666   5.539  0.5806  0.4921  1.2660
  961MOL0     H32562   3.655   3.560   5.683  1.4901  1.3833  0.5383
  961MOL0     H32563   3.898   3.530   5.512 -1.5567 -2.7563 -0.4863
  961MOL0     H32564   3.862   3.432   5.644 -2.3145  0.2417  2.1419
  961MOL0     H32565   3.834   3.639   5.803 -0.9712  1.1140 -0.0529
  961MOL0     H32566   4.001   3.611   5.751  0.6599  0.7254 -1.0791
  961MOL0     H32567   4.116   3.781   5.590 -0.3357 -0.5389 -0.1851
  961MOL0     H32568   4.074   4.158   5.525 -3.9036 -1.4012 -0.2687
  961MOL0     H32569   4.104   4.008   5.437 -3.7304 -2.1703  0.3322
  961MOL0     H32570   4.265   4.095   5.671  2.7662 -0.3614  0.4182
  961MOL0     H32571   4.282   3.944   5.600  1.0457  0.0851  1.3953
  961MOL0     H32572   4.296   4.126   5.376 -2.3857 -1.1719  0.5203
  961MOL0     H32573   4.320   4.236   5.502  1.7636 -0.2441  1.1702
  961MOL0     H32574   4.499   3.989   5.470  0.7328 -0.5632  1.3149
  961MOL0     H32575   4.538   4.144   5.410  0.3072 -1.4626  0.7050
  961MOL0     H32576   4.652   4.319   5.746 -1.3792 -1.2516 -0.8030
  961MOL0     H32577   4.833   4.443   5.861  0.3888  0.2266 -0.8224
  961MOL0     H32578   4.994   4.408   5.792  1.0763 -1.2915  1.1523
  961MOL0     H32579   4.938   4.321   5.935 -2.1779 -3.0955 -0.1475
  961MOL0     H32580   5.313   3.836   5.649  1.2254 -0.4192  2.5126
  961MOL0     H32581   5.553   3.848   5.600  2.2459  0.8294  2.4345
  961MOL0     H32582   5.706   4.268   5.538  1.7383 -0.3438 -1.8001
  961MOL0     H32583   5.792   4.224   5.688 -1.1184  0.3277  0.0665
  961MOL0     H32584   5.965   4.267   5.508 -1.9064  1.6732  3.8466
  961MOL0     H32585   5.957   4.094   5.545  1.3992  1.5704  0.2376
  961MOL0     H32586   5.816   4.238   5.318  0.8127  2.4909  0.7926
  961MOL0     H32587   5.822   4.064   5.344 -0.2669  0.6289 -1.2023
  961MOL0     H32588   6.046   4.054   5.313 -0.2263  0.3997 -0.9322
  961MOL0     H32589   6.060   4.236   5.314 -1.7465  0.9834  0.9483
  961MOL0     H32590   5.908   4.066   5.117  1.0034 -0.4723  0.5301
  961MOL0     H32591   5.946   4.244   5.095  0.0888  1.0578  0.5988
  961MOL0     H32592   6.094   4.087   4.961  2.8349  0.9573 -0.3318
  961MOL0     H32593   6.168   4.036   5.121  0.9476  2.6928  3.7911
  961MOL0     H32594   6.283   4.214   5.140  2.0596 -0.2396 -0.8034
  961MOL0     H32595   6.161   4.323   5.064  0.5157 -0.4562 -0.2134
  961MOL0     H32596   6.239   4.245   4.834 -0.8111 -1.5913  1.4677
  961MOL0     H32597   6.319   4.119   4.913 -3.2240 -0.8685 -1.2682
  961MOL0     H32598   5.535   4.278   5.643 -1.5395  0.6177  3.2519
  961MOL0     H32599   5.298   4.262   5.692  0.4544  0.1268  2.9568
  961MOL0     H32600   4.949   3.956   5.609 -1.2712  0.2110 -0.6203
  961MOL0     H32601   4.729   3.960   5.537  0.7790 -0.4866  1.3906
  961MOL0     H32602   3.033   3.413   5.297  0.9196  1.2049 -0.4971
  961MOL0     H32603   2.817   3.297   5.297  0.4156  0.1235  0.9543
  961MOL0     H32604   2.372   3.476   5.276 -1.0034  1.6733 -1.7963
  961MOL0     H32605   2.162   3.462   5.146 -1.3654  0.4853  0.4968
  961MOL0     H32606   2.060   3.231   4.803 -1.7436  2.5449  1.3258
  961MOL0     H32607   2.170   3.120   4.891 -0.6963 -0.8317  0.1520
  961MOL0     H32608   1.970   3.015   4.998 -2.1385 -1.8304 -0.6280
  961MOL0     H32609   1.962   2.996   4.824  3.4656 -0.5903  0.1986
  961MOL0     H32610   1.792   3.178   4.999 -2.0654  0.0158 -0.7064
  961MOL0     H32611   1.835   3.230   4.833 -0.7652 -0.3125 -0.9506
  961MOL0     H32612   1.714   2.964   4.917  0.5263  0.9375  0.5004
  961MOL0     H32613   1.716   3.019   4.744  1.9149  0.1123 -0.4931
  961MOL0     H32614   1.378   3.198   4.848 -0.4715  0.4084  0.7276
  961MOL0     H32615   2.212   3.055   5.081 -1.1575  1.0973 -1.8642
  961MOL0     H32616   2.425   2.962   5.310  2.9763 -0.0622 -0.0812
  961MOL0     H32617   2.382   2.933   5.138 -0.9477  1.2955 -0.0882
  961MOL0     H32618   2.527   3.013   5.177 -0.5327  0.8829 -1.1176
  962MOL0     O32619   6.708   7.828   7.095  0.6164 -0.2098  0.1891
  962MOL0     C32620   6.650   7.912   7.028  0.5493 -1.1004 -0.1912
  962MOL0     O32621   6.708   7.993   6.944  0.1297  0.0999  0.7324
  962MOL0     C32622   6.845   7.987   6.917  0.2198  0.3347 -0.3440
  962MOL0     C32623   6.885   7.989   6.783  0.0116  0.4332 -0.7647
  962MOL0     C32624   7.020   7.982   6.750 -0.4961 -0.9044  0.2044
  962MOL0     C32625   7.119   7.984   6.850 -0.5474  0.6760  0.1418
  962MOL0     O32626   7.255   7.982   6.824  0.7073 -0.0607  0.0496
  962MOL0     C32627   7.299   7.950   6.696 -0.5804  0.3900  0.2213
  962MOL0     C32628   7.450   7.937   6.717 -0.3524  0.5720 -0.3174
  962MOL0     C32629   7.538   8.063   6.719  0.7271  0.3028  0.7439
  962MOL0     C32630   7.684   8.016   6.747 -0.3251 -0.0707 -0.1605
  962MOL0     C32631   7.783   8.114   6.702  0.1933 -0.3596  0.2273
  962MOL0     C32632   7.918   8.067   6.717  0.3187 -0.3800 -0.2962
  962MOL0     C32633   8.009   8.192   6.685  0.0987  0.1701 -0.7001
  962MOL0     C32634   8.156   8.178   6.713 -0.4614  0.2308  0.1671
  962MOL0     N32635   8.213   8.048   6.657 -0.0270 -0.0970 -0.1955
  962MOL0     C32636   8.225   8.014   6.523  0.5017  0.1542  0.7617
  962MOL0     C32637   8.287   7.891   6.515  0.9623  0.4604 -0.6424
  962MOL0     C32638   8.315   7.807   6.401  1.4299  0.1530  0.1579
  962MOL0     C32639   8.468   7.787   6.385 -0.2859 -0.5080 -0.7389
  962MOL0     C32640   8.511   7.768   6.240  0.6492 -0.2472 -0.1893
  962MOL0     C32641   8.664   7.779   6.231  0.5714 -0.7951 -0.4049
  962MOL0     O32642   8.709   7.909   6.281  0.7434  0.3341 -0.3173
  962MOL0     C32643   8.837   7.948   6.262 -1.0867  0.4693  0.4249
  962MOL0     C32644   8.874   8.072   6.295  0.2189 -1.0381 -0.1590
  962MOL0     C32645   9.010   8.116   6.282 -0.1471  1.2008  0.0339
  962MOL0     C32646   9.040   8.261   6.315  0.2110 -0.1190  0.2632
  962MOL0     C32647   9.116   8.022   6.247  0.5680  0.3162  0.1254
  962MOL0     C32648   9.259   8.058   6.232  0.0893  0.8370 -0.1608
  962MOL0     O32649   9.354   7.959   6.230 -1.6719  0.0369 -0.9537
  962MOL0     C32650   9.485   7.987   6.209 -0.0572  0.0459  0.8729
  962MOL0     C32651   9.584   7.933   6.296 -0.0824 -0.3075  0.2937
  962MOL0     C32652   9.719   7.963   6.269 -0.3481 -0.0828  0.4702
  962MOL0     C32653   9.765   8.034   6.159  0.1628  0.6334 -0.0978
  962MOL0     O32654   9.902   8.049   6.140  0.3886 -0.2231  0.0335
  962MOL0     C32655   9.947   8.145   6.052  0.0784  0.0963 -0.5214
  962MOL0     C32656  10.089   8.198   6.094  0.5325 -0.0970  0.0003
  962MOL0     C32657  10.184   8.075   6.096  0.9663  0.1554 -0.0527
  962MOL0     C32658  10.315   8.115   6.138 -0.7051 -0.0724 -0.3873
  962MOL0     C32659  10.420   8.151   6.028 -0.7326 -0.5589  0.2870
  962MOL0     C32660  10.423   8.055   5.901  0.0416 -0.6599  0.4456
  962MOL0     C32661  10.454   7.905   5.951  0.5007  1.1325  0.0753
  962MOL0     C32662  10.499   7.812   5.830 -0.7795 -0.5525 -0.2863
  962MOL0    Cl32663  10.655   7.847   5.746 -0.1411 -0.3271 -0.1728
  962MOL0     C32664   9.668   8.071   6.062 -0.8029 -0.0510 -0.0938
  962MOL0     C32665   9.538   8.037   6.085  0.7692 -0.4473 -0.4275
  962MOL0     O32666   9.288   8.175   6.223  0.4940  0.7860 -0.5510
  962MOL0     C32667   9.079   7.893   6.230  0.2640 -0.8421 -0.4513
  962MOL0     C32668   8.946   7.858   6.237  0.1994 -0.2166  0.5930
  962MOL0     N32669   8.289   7.844   6.648  0.2375 -0.7966 -0.5856
  962MOL0     N32670   8.255   7.938   6.728  0.5318  0.3301  0.2435
  962MOL0     C32671   7.082   7.990   6.981  0.4399 -0.2369  0.2691
  962MOL0     C32672   6.944   7.991   7.011 -0.0538  0.1737  0.4151
  962MOL0     C32673   6.510   7.918   7.052  0.1782  0.0573  0.7677
  962MOL0     C32674   6.444   8.024   6.991 -0.2364 -0.4772 -0.2632
  962MOL0     C32675   6.306   8.038   6.989 -0.3877  0.2087 -0.0379
  962MOL0     C32676   6.228   7.940   7.054  0.4674  0.2872  1.2987
  962MOL0     O32677   6.086   7.920   7.038  0.0420 -0.2214  1.0130
  962MOL0     C32678   6.068   7.824   6.923 -0.4138  0.1012 -0.2814
  962MOL0     C32679   5.925   7.812   6.889  0.0734 -0.9594 -0.0112
  962MOL0     C32680   5.844   7.724   6.989  0.3430  0.5684  1.0821
  962MOL0     C32681   5.696   7.752   6.962 -0.0586 -0.0586 -1.0398
  962MOL0     C32682   5.617   7.658   7.038  0.1612  0.8062 -0.7245
  962MOL0     C32683   5.542   7.583   7.098 -0.6091 -0.8365  0.7839
  962MOL0     C32684   6.291   7.842   7.127 -0.6796 -0.7530 -0.5786
  962MOL0     C32685   6.432   7.832   7.131 -0.2633 -0.3915  0.8197
  962MOL0     C32686   6.483   7.731   7.219 -0.0004  0.3421  0.1327
  962MOL0     H32687   6.817   7.988   6.698 -0.9843 -2.5496 -0.0474
  962MOL0     H32688   7.058   7.984   6.648 -1.0345  0.6087  0.0135
  962MOL0     H32689   7.284   8.030   6.623 -0.6361  2.9317  2.8394
  962MOL0     H32690   7.253   7.862   6.651 -0.8190  0.3631  0.5179
  962MOL0     H32691   7.467   7.881   6.810 -0.5342  1.6558  0.3806
  962MOL0     H32692   7.478   7.879   6.628 -1.2484  1.5373 -1.2496
  962MOL0     H32693   7.540   8.100   6.616  1.3690  0.7921  0.9264
  962MOL0     H32694   7.497   8.144   6.781 -0.7117  0.3339 -0.2058
  962MOL0     H32695   7.695   7.988   6.853 -1.1405 -1.3512 -0.3819
  962MOL0     H32696   7.696   7.925   6.688 -0.4949  0.4250 -0.9680
  962MOL0     H32697   7.762   8.208   6.753 -0.0361 -0.8806  1.1185
  962MOL0     H32698   7.759   8.126   6.595  1.8849  1.8967  0.0317
  962MOL0     H32699   7.930   8.031   6.819 -2.1744 -0.7976 -0.0878
  962MOL0     H32700   7.917   7.977   6.654  0.0735 -1.2460  0.9093
  962MOL0     H32701   7.974   8.280   6.740  3.0139  0.8070  0.3733
  962MOL0     H32702   8.007   8.215   6.579 -1.1397  1.1259 -0.4803
  962MOL0     H32703   8.201   8.265   6.663 -0.3547  2.1250  3.2833
  962MOL0     H32704   8.160   8.189   6.821 -1.2217 -3.5250  0.7122
  962MOL0     H32705   8.196   8.073   6.437 -2.5790 -0.0805  1.5318
  962MOL0     H32706   8.270   7.858   6.315 -0.9413 -0.8042  0.7370
  962MOL0     H32707   8.269   7.708   6.415 -0.7953  1.4444  3.2282
  962MOL0     H32708   8.511   7.880   6.423 -1.0092  0.8878 -3.1573
  962MOL0     H32709   8.497   7.706   6.453  0.3436  0.9065  0.7541
  962MOL0     H32710   8.479   7.667   6.214 -2.2433  0.8813 -1.4343
  962MOL0     H32711   8.465   7.833   6.165 -1.0880 -1.0025  0.1868
  962MOL0     H32712   8.691   7.701   6.303  0.2887 -0.3189  0.2341
  962MOL0     H32713   8.696   7.755   6.129  2.2363 -1.6053  0.2658
  962MOL0     H32714   8.790   8.138   6.314  0.7024 -1.1071  2.6236
  962MOL0     H32715   9.129   8.284   6.374 -0.2425  0.0200  0.9118
  962MOL0     H32716   8.953   8.299   6.369 -0.0484 -1.4614  0.8264
  962MOL0     H32717   9.047   8.321   6.225 -1.6379 -0.7546 -0.3427
  962MOL0     H32718   9.556   7.880   6.387 -1.1457 -1.9045 -0.9130
  962MOL0     H32719   9.786   7.925   6.345 -0.1826 -0.4466  0.1457
  962MOL0     H32720   9.957   8.099   5.953  1.8209  0.3024 -0.4869
  962MOL0     H32721   9.876   8.228   6.063 -1.3427 -0.9943 -1.2432
  962MOL0     H32722  10.120   8.280   6.029 -1.1004 -0.3528 -1.1516
  962MOL0     H32723  10.080   8.233   6.198  2.7248  2.2591 -0.5061
  962MOL0     H32724  10.186   8.028   5.997  1.1496 -1.3566  0.6426
  962MOL0     H32725  10.147   7.999   6.165 -1.5325 -0.4751 -1.9326
  962MOL0     H32726  10.356   8.038   6.203 -0.4075  1.6779  1.5971
  962MOL0     H32727  10.309   8.212   6.190 -5.7745  0.1853 -0.9105
  962MOL0     H32728  10.398   8.255   6.004  1.8924 -0.0850 -0.4593
  962MOL0     H32729  10.518   8.144   6.077 -0.4766 -2.7952 -0.4385
  962MOL0     H32730  10.505   8.077   5.832 -0.3598 -1.9174 -0.4642
  962MOL0     H32731  10.323   8.057   5.856 -0.4944  1.4028  1.6015
  962MOL0     H32732  10.363   7.870   6.001 -0.2682  3.0205  0.0886
  962MOL0     H32733  10.536   7.919   6.022  0.5774 -0.3506  0.3238
  962MOL0     H32734  10.420   7.809   5.755  0.4300 -2.4125 -1.5731
  962MOL0     H32735  10.511   7.710   5.868  0.8829 -1.2239 -2.3976
  962MOL0     H32736   9.693   8.123   5.970  1.0777  0.5534  0.6946
  962MOL0     H32737   9.466   8.087   6.020  0.0107 -1.4076 -0.3494
  962MOL0     H32738   9.154   7.819   6.204  1.9017  1.3107 -2.1284
  962MOL0     H32739   8.914   7.756   6.219  2.1629 -0.5651 -1.4478
  962MOL0     H32740   7.154   8.004   7.061 -1.6375  0.2327  2.1591
  962MOL0     H32741   6.904   8.004   7.111  0.9873 -0.0039  0.8698
  962MOL0     H32742   6.500   8.090   6.925  0.9558 -0.0307  1.1410
  962MOL0     H32743   6.276   8.117   6.920 -2.8307 -0.5199  0.0856
  962MOL0     H32744   6.122   7.866   6.838  2.3897  3.4653  2.8174
  962MOL0     H32745   6.113   7.726   6.945 -0.7209  0.0494  0.1280
  962MOL0     H32746   5.913   7.776   6.787  0.9771 -2.5639  0.4131
  962MOL0     H32747   5.887   7.915   6.895 -1.8393 -1.6910  2.3008
  962MOL0     H32748   5.857   7.616   6.976 -2.3757  0.1131  1.3996
  962MOL0     H32749   5.865   7.764   7.088  2.7812 -0.9098  1.2444
  962MOL0     H32750   5.671   7.756   6.855  2.3542  1.2387 -1.6372
  962MOL0     H32751   5.675   7.847   7.011 -0.9075 -0.6798 -0.1837
  962MOL0     H32752   5.474   7.525   7.158  0.0779  0.6855  3.1553
  962MOL0     H32753   6.227   7.769   7.177 -2.0049  0.3877 -0.5220
  962MOL0     H32754   6.505   7.638   7.165 -1.4058  0.8051 -1.2941
  962MOL0     H32755   6.578   7.761   7.265 -1.2902  4.1971  0.5620
  962MOL0     H32756   6.412   7.707   7.298 -0.1817  2.3932  0.6461
  963MOL0     O32757   9.668   3.147   6.530 -0.6404 -0.1276  0.3051
  963MOL0     C32758   9.672   3.032   6.487 -0.1628 -0.2838  0.4377
  963MOL0     O32759   9.778   2.957   6.473 -0.1655  0.2224 -0.5707
  963MOL0     C32760   9.904   3.007   6.490 -0.3660 -0.0792 -0.3040
  963MOL0     C32761   9.950   3.139   6.475  0.1531  0.1277  0.0857
  963MOL0     C32762  10.083   3.181   6.495 -0.0143 -0.1611  0.6022
  963MOL0     C32763  10.180   3.096   6.531 -0.1406 -0.1905 -0.6169
  963MOL0     O32764  10.297   3.155   6.563 -0.4796 -0.1566 -0.8047
  963MOL0     C32765  10.359   3.095   6.668  0.2289  0.6646  0.0222
  963MOL0     C32766  10.463   3.198   6.720 -0.2536 -0.1595  0.6258
  963MOL0     C32767  10.604   3.188   6.654 -0.1774 -0.2223 -0.0835
  963MOL0     C32768  10.713   3.268   6.734 -0.3664 -0.5475  0.3681
  963MOL0     C32769  10.836   3.264   6.638 -0.1917 -0.0167 -0.2013
  963MOL0     C32770  10.957   3.331   6.707 -0.5767  0.0962 -0.4487
  963MOL0     C32771  11.076   3.358   6.602 -1.0376 -0.5528  0.2319
  963MOL0     C32772  11.204   3.350   6.682  0.4325 -0.3619  0.6223
  963MOL0     N32773  11.239   3.219   6.731  0.1729 -0.6225  0.7352
  963MOL0     C32774  11.290   3.121   6.651  0.0270 -0.4632  0.4739
  963MOL0     C32775  11.279   3.015   6.727  0.2439 -0.9503  0.2327
  963MOL0     C32776  11.303   2.871   6.681  0.4510  1.0388  1.1605
  963MOL0     C32777  11.450   2.862   6.619 -0.1863 -0.3849  0.7628
  963MOL0     C32778  11.496   2.721   6.584  0.0623 -0.4726 -0.7332
  963MOL0     C32779  11.639   2.723   6.523  0.2445  0.2955  0.2993
  963MOL0     O32780  11.671   2.844   6.455 -0.2891  0.0699 -0.4366
  963MOL0     C32781  11.731   2.844   6.325  0.5999  0.2168  1.1000
  963MOL0     C32782  11.748   2.727   6.243 -1.3505 -0.2551  0.5105
  963MOL0     C32783  11.808   2.730   6.115 -1.2655  0.1143 -0.0029
  963MOL0     C32784  11.801   2.601   6.035 -0.4895 -1.3127  0.3105
  963MOL0     C32785  11.868   2.847   6.068  0.4612 -0.3129  0.5316
  963MOL0     C32786  11.938   2.866   5.942 -0.5700  0.3191  0.2090
  963MOL0     O32787  12.022   2.972   5.949  0.4849 -0.1515 -0.3885
  963MOL0     C32788  12.119   2.985   5.858 -0.8585 -0.4627  0.5046
  963MOL0     C32789  12.198   2.888   5.801  0.7370  1.6338  0.4231
  963MOL0     C32790  12.301   2.934   5.712 -0.3579  0.9167  0.2138
  963MOL0     C32791  12.319   3.064   5.688 -0.4541 -0.0720 -0.1331
  963MOL0     O32792  12.405   3.106   5.593 -0.4039 -0.7818  0.7744
  963MOL0     C32793  12.546   3.080   5.609 -1.0602  0.0156  0.2210
  963MOL0     C32794  12.609   3.156   5.724  0.3070  0.5399  0.9419
  963MOL0     C32795  12.763   3.147   5.704 -0.2358 -0.3445  0.4578
  963MOL0     C32796  12.824   3.281   5.655 -0.5280 -0.0568  0.1240
  963MOL0     C32797  12.975   3.278   5.634 -0.0647  0.0143 -0.4923
  963MOL0     C32798  13.032   3.417   5.602 -0.3143  0.7160  0.1866
  963MOL0     C32799  13.181   3.397   5.577  0.1043  0.0215  0.5725
  963MOL0     C32800  13.260   3.528   5.579  0.3721 -0.0877 -0.7627
  963MOL0    Cl32801  13.419   3.523   5.520  0.8391  0.1415  0.5750
  963MOL0     C32802  12.246   3.166   5.750 -0.6545 -0.0328  0.2593
  963MOL0     C32803  12.148   3.120   5.836 -0.8406 -0.7928 -0.0471
  963MOL0     O32804  11.922   2.792   5.846 -0.0373  0.6821 -0.5228
  963MOL0     C32805  11.852   2.961   6.150 -0.6304  0.0897 -0.4908
  963MOL0     C32806  11.789   2.957   6.278  0.2205 -0.6130  0.2244
  963MOL0     N32807  11.251   3.046   6.862  0.2414 -1.0104  0.0488
  963MOL0     N32808  11.232   3.179   6.867  0.1167 -0.5505 -0.0067
  963MOL0     C32809  10.141   2.960   6.550  0.1932  0.1745  0.2205
  963MOL0     C32810  10.013   2.918   6.535  0.9030  0.4660  1.0838
  963MOL0     C32811   9.550   2.954   6.448 -0.6420  0.9310 -0.0079
  963MOL0     C32812   9.560   2.818   6.420  0.9798  0.6075 -0.1363
  963MOL0     C32813   9.458   2.748   6.356  0.0872  0.3774  0.3518
  963MOL0     C32814   9.340   2.805   6.311  0.0253  0.1739 -0.4069
  963MOL0     O32815   9.251   2.757   6.217  0.4035  0.3690  1.0480
  963MOL0     C32816   9.268   2.620   6.176 -0.1726  0.4027 -0.0567
  963MOL0     C32817   9.188   2.536   6.274 -0.7837  0.3267  0.5284
  963MOL0     C32818   9.046   2.579   6.285  0.2957  0.6016  0.1183
  963MOL0     C32819   8.993   2.539   6.427 -0.0988  0.2431  0.1752
  963MOL0     C32820   8.863   2.605   6.443 -0.3632  0.4636 -0.1468
  963MOL0     C32821   8.759   2.648   6.493  0.4084  0.1366  0.3048
  963MOL0     C32822   9.329   2.942   6.351 -0.7364  0.8169 -0.5401
  963MOL0     C32823   9.432   3.021   6.416  0.1642  0.4602 -0.2381
  963MOL0     C32824   9.407   3.170   6.428  0.3081 -0.3572 -0.9742
  963MOL0     H32825   9.889   3.223   6.443  2.3420  1.6657 -0.3023
  963MOL0     H32826  10.112   3.283   6.474  0.0831 -0.4555 -0.8004
  963MOL0     H32827  10.407   2.997   6.660  0.5797  0.2308  4.7355
  963MOL0     H32828  10.278   3.102   6.740 -0.1325  2.2414 -0.4795
  963MOL0     H32829  10.427   3.298   6.698 -0.2474 -0.0536  1.0960
  963MOL0     H32830  10.463   3.197   6.830 -1.7248  1.5039  0.6883
  963MOL0     H32831  10.641   3.086   6.655  0.7550 -0.2640  6.7155
  963MOL0     H32832  10.605   3.227   6.551  0.4239  1.6502  0.5856
  963MOL0     H32833  10.689   3.374   6.744 -0.3695 -0.6564  1.7172
  963MOL0     H32834  10.738   3.221   6.830  1.0222 -0.4451  0.0824
  963MOL0     H32835  10.817   3.314   6.542  0.0736  1.6762  0.5859
  963MOL0     H32836  10.862   3.160   6.619 -2.1011 -0.7444  0.8659
  963MOL0     H32837  10.924   3.431   6.737 -0.1629 -0.3578  1.6428
  963MOL0     H32838  10.993   3.281   6.798 -0.3239 -0.8381 -1.0474
  963MOL0     H32839  11.062   3.458   6.559 -2.5391 -0.6764  0.3603
  963MOL0     H32840  11.081   3.293   6.515  1.3152 -0.6255  0.3711
  963MOL0     H32841  11.284   3.391   6.619 -1.1746  0.6406 -0.8284
  963MOL0     H32842  11.203   3.424   6.763  1.6718 -0.5556  0.8325
  963MOL0     H32843  11.310   3.114   6.545 -0.6773 -1.1854  0.3790
  963MOL0     H32844  11.221   2.832   6.621  0.1614 -2.6852  3.6553
  963MOL0     H32845  11.303   2.804   6.768  1.6042 -0.6287 -0.0802
  963MOL0     H32846  11.442   2.915   6.525  0.0192  2.4220  2.2321
  963MOL0     H32847  11.525   2.914   6.680  0.6927 -1.0032  0.2395
  963MOL0     H32848  11.502   2.671   6.681  2.1748  0.5118 -0.3004
  963MOL0     H32849  11.413   2.672   6.533 -2.1673  0.4777  1.7399
  963MOL0     H32850  11.711   2.710   6.605 -0.0144 -1.4953  0.2805
  963MOL0     H32851  11.652   2.630   6.467 -3.3212 -1.6579  2.3601
  963MOL0     H32852  11.720   2.627   6.277  1.7604 -0.2364  3.6818
  963MOL0     H32853  11.733   2.588   5.950 -0.1288 -2.3825  0.1773
  963MOL0     H32854  11.786   2.524   6.112  0.5753  1.2863  3.3360
  963MOL0     H32855  11.902   2.593   5.995 -0.0031  0.8164  0.9746
  963MOL0     H32856  12.185   2.781   5.811  3.4278  1.2138  0.3053
  963MOL0     H32857  12.368   2.868   5.657  0.3595  2.1060 -0.3841
  963MOL0     H32858  12.570   2.974   5.618  0.7247  0.3324 -0.3838
  963MOL0     H32859  12.587   3.118   5.516  0.9145 -0.0918  1.0065
  963MOL0     H32860  12.571   3.258   5.712  1.9169  1.0642  0.0062
  963MOL0     H32861  12.586   3.111   5.821 -0.4058 -2.1256 -0.3687
  963MOL0     H32862  12.782   3.060   5.640 -2.5991 -0.0918 -0.7050
  963MOL0     H32863  12.806   3.117   5.800 -0.6226 -1.3578  0.3289
  963MOL0     H32864  12.785   3.362   5.717 -2.8155  0.6562 -2.0679
  963MOL0     H32865  12.798   3.308   5.552  0.7065 -0.5993 -0.3458
  963MOL0     H32866  13.009   3.235   5.729 -1.5734 -0.2251 -0.0305
  963MOL0     H32867  12.990   3.219   5.543  0.5760  3.1065 -2.5057
  963MOL0     H32868  13.020   3.486   5.686  2.6901 -0.7886  2.0123
  963MOL0     H32869  12.986   3.477   5.524 -0.6624  2.1462  1.4343
  963MOL0     H32870  13.200   3.348   5.481  0.2046  1.1254  0.0022
  963MOL0     H32871  13.212   3.340   5.665 -1.9832 -0.2286  1.1794
  963MOL0     H32872  13.250   3.573   5.678  0.7722  3.7467 -2.2758
  963MOL0     H32873  13.210   3.605   5.520  0.6097  0.5628 -0.1249
  963MOL0     H32874  12.249   3.273   5.730 -1.6918  0.0648  0.5930
  963MOL0     H32875  12.095   3.196   5.892  1.3667 -0.1119  1.2500
  963MOL0     H32876  11.885   3.061   6.124  1.7542 -0.5252 -0.0877
  963MOL0     H32877  11.782   3.052   6.330  0.1150 -0.3699 -0.2242
  963MOL0     H32878  10.224   2.898   6.580  1.6635  0.4949 -2.7718
  963MOL0     H32879   9.993   2.811   6.543  0.4416  0.4489 -0.1356
  963MOL0     H32880   9.650   2.759   6.433 -0.9264 -2.1633  1.6001
  963MOL0     H32881   9.483   2.643   6.339 -0.4496 -0.2206  2.8758
  963MOL0     H32882   9.240   2.591   6.074  3.2619 -1.0007 -0.7115
  963MOL0     H32883   9.374   2.593   6.180  0.3183  1.5288 -3.0507
  963MOL0     H32884   9.234   2.539   6.373  3.4653  5.0294 -1.1643
  963MOL0     H32885   9.192   2.431   6.243 -2.4393 -0.4723  2.7829
  963MOL0     H32886   9.040   2.688   6.272  0.3258  0.7236  1.0651
  963MOL0     H32887   8.981   2.537   6.208  1.3517  1.4649 -1.2887
  963MOL0     H32888   9.061   2.579   6.503 -1.2772 -2.2714  2.7683
  963MOL0     H32889   8.979   2.431   6.441 -1.0081  0.1832 -1.0766
  963MOL0     H32890   8.677   2.697   6.542  1.4016  1.5698  0.5908
  963MOL0     H32891   9.240   2.991   6.313 -2.0775 -1.3463 -0.3497
  963MOL0     H32892   9.439   3.206   6.527 -0.0612  2.0774 -1.6639
  963MOL0     H32893   9.481   3.224   6.369  0.6552  3.3173  2.3456
  963MOL0     H32894   9.303   3.203   6.418  0.6406  1.8382  1.6418
  964MOL0     O32895   9.039  10.507   9.865 -0.4031 -0.4691  0.4016
  964MOL0     C32896   8.965  10.546   9.951  0.3444 -0.2762 -0.0099
  964MOL0     O32897   8.983  10.666  10.021  0.4843 -0.2122 -0.4582
  964MOL0     C32898   9.091  10.749  10.016 -0.9360  0.4863 -0.0940
  964MOL0     C32899   9.065  10.884  10.027  0.4487 -0.7610  0.7378
  964MOL0     C32900   9.168  10.981  10.020  0.3510 -0.1091 -0.3309
  964MOL0     C32901   9.299  10.939   9.990  0.1460 -0.1589 -0.5108
  964MOL0     O32902   9.408  11.016   9.989 -0.1125 -0.0184  0.1959
  964MOL0     C32903   9.394  11.162   9.994  0.3270 -0.4218 -0.1776
  964MOL0     C32904   9.530  11.230   9.983  0.4339 -0.1506  0.6385
  964MOL0     C32905   9.542  11.383   9.995 -0.2561 -0.2777 -0.1411
  964MOL0     C32906   9.464  11.454  10.106  0.1389 -0.3859 -0.0747
  964MOL0     C32907   9.465  11.611  10.081 -0.4562 -0.0323  0.9436
  964MOL0     C32908   9.606  11.676  10.108  0.5182 -0.7423 -0.1036
  964MOL0     C32909   9.598  11.827  10.082  0.0212 -2.0977 -0.1720
  964MOL0     C32910   9.728  11.887  10.130  0.1062 -0.6118  0.1219
  964MOL0     N32911   9.843  11.860  10.042  0.5863  0.0262 -0.2851
  964MOL0     C32912   9.877  11.933   9.930  0.0355  0.0843  0.2968
  964MOL0     C32913   9.992  11.866   9.897 -0.1156 -0.3387 -0.5444
  964MOL0     C32914  10.071  11.874   9.773  0.8918 -0.1440 -0.5370
  964MOL0     C32915  10.189  11.969   9.797 -0.5098 -0.6472 -0.4354
  964MOL0     C32916  10.279  11.972   9.670  0.4901  0.7401  0.1625
  964MOL0     C32917  10.425  12.014   9.710  0.2665 -0.6258 -1.0494
  964MOL0     O32918  10.481  12.060   9.584  0.0303  0.2686 -0.6475
  964MOL0     C32919  10.605  12.121   9.581  0.0770  0.8501  0.6697
  964MOL0     C32920  10.660  12.137   9.449 -0.0623  0.6777 -0.5819
  964MOL0     C32921  10.795  12.186   9.437  1.2696 -0.2731  0.6872
  964MOL0     C32922  10.844  12.201   9.288  0.6174 -0.3353 -0.2016
  964MOL0     C32923  10.854  12.243   9.550 -0.1962 -0.2255 -0.5740
  964MOL0     C32924  10.983  12.313   9.539 -0.2090 -0.7674  0.2796
  964MOL0     O32925  11.019  12.395   9.646  0.0996  0.5380 -1.1240
  964MOL0     C32926  11.153  12.433   9.644 -0.3760  0.3664 -0.3906
  964MOL0     C32927  11.240  12.357   9.726  0.5170  0.4928 -0.1313
  964MOL0     C32928  11.377  12.384   9.747  0.7154 -0.4030  0.6384
  964MOL0     C32929  11.433  12.484   9.667  0.1349 -0.4215 -0.3973
  964MOL0     O32930  11.567  12.510   9.666  0.1056 -0.3852 -0.2861
  964MOL0     C32931  11.606  12.625   9.744 -0.9107  0.4223  0.4686
  964MOL0     C32932  11.738  12.686   9.696  0.5491 -0.0058 -0.6581
  964MOL0     C32933  11.854  12.584   9.684 -0.2383  0.4898 -0.4081
  964MOL0     C32934  11.879  12.515   9.819 -0.3066  0.8360 -0.1886
  964MOL0     C32935  11.993  12.418   9.816  0.7628 -0.0465  0.2572
  964MOL0     C32936  12.063  12.383   9.944  0.2085 -0.8132  0.1464
  964MOL0     C32937  11.968  12.289  10.020  0.0554 -0.4353  0.6612
  964MOL0     C32938  12.035  12.246  10.147  0.7234 -0.6466 -0.3550
  964MOL0    Cl32939  12.120  12.086  10.115  1.1701  0.1723 -0.1068
  964MOL0     C32940  11.340  12.562   9.591 -0.3989  0.2128 -0.0645
  964MOL0     C32941  11.204  12.539   9.578  0.1908 -0.2014 -0.3660
  964MOL0     O32942  11.062  12.293   9.442  0.0595 -0.4201 -0.2120
  964MOL0     C32943  10.789  12.243   9.677  0.3929 -0.0283 -0.0512
  964MOL0     C32944  10.670  12.171   9.696 -0.4101  0.7189  0.0638
  964MOL0     N32945  10.020  11.761   9.984 -0.3808  1.1117  0.1909
  964MOL0     N32946   9.929  11.767  10.073 -0.1754 -0.3432  0.5507
  964MOL0     C32947   9.323  10.806   9.974 -0.1866 -0.0066  0.7535
  964MOL0     C32948   9.227  10.706   9.996 -0.0930  0.3776  1.1452
  964MOL0     C32949   8.846  10.469   9.982  0.4792  0.2598  0.2890
  964MOL0     C32950   8.774  10.507  10.098 -0.3871  0.5368 -0.0435
  964MOL0     C32951   8.650  10.441  10.126 -0.7445 -0.0000 -0.2178
  964MOL0     C32952   8.595  10.334  10.049 -0.2044  0.2348  0.2422
  964MOL0     O32953   8.482  10.267  10.069  0.2915  0.1757 -0.7292
  964MOL0     C32954   8.392  10.308  10.178  1.5972 -0.4068  0.4563
  964MOL0     C32955   8.410  10.209  10.288 -0.1671  0.0640  0.8754
  964MOL0     C32956   8.322  10.085  10.280  0.1217  0.0366 -0.4846
  964MOL0     C32957   8.321  10.009  10.415 -0.0761 -0.7304 -0.5132
  964MOL0     C32958   8.223   9.907  10.405  0.7944  0.7747  0.0613
  964MOL0     C32959   8.133   9.824  10.381  0.0476  0.8470  0.3984
  964MOL0     C32960   8.669  10.296   9.942 -0.1963 -0.0232 -0.0978
  964MOL0     C32961   8.791  10.360   9.907  0.0552  0.0782  0.1718
  964MOL0     C32962   8.850  10.314   9.785 -0.3284 -0.1244 -1.4157
  964MOL0     H32963   8.964  10.915  10.052  1.5544  0.4478  4.2851
  964MOL0     H32964   9.130  11.081  10.035 -2.3701 -0.7779 -2.1023
  964MOL0     H32965   9.346  11.189  10.089  2.1943  4.2637 -0.3083
  964MOL0     H32966   9.336  11.201   9.910  1.7940 -1.9711 -2.0080
  964MOL0     H32967   9.608  11.190  10.048  1.5531  1.4149  0.3517
  964MOL0     H32968   9.563  11.204   9.881 -0.7132 -1.1108  0.4953
  964MOL0     H32969   9.647  11.413   9.991 -0.3280 -0.0294 -0.2085
  964MOL0     H32970   9.513  11.425   9.898  1.8137  1.2142 -0.1844
  964MOL0     H32971   9.358  11.426  10.106  0.2466 -0.8007  0.4689
  964MOL0     H32972   9.514  11.442  10.202  4.1440  1.4422 -1.7104
  964MOL0     H32973   9.401  11.645  10.162 -0.6705  0.2855  0.6430
  964MOL0     H32974   9.425  11.635   9.982 -1.2029 -0.3536  1.1652
  964MOL0     H32975   9.631  11.659  10.213 -0.4281 -1.4184  0.0232
  964MOL0     H32976   9.687  11.635  10.047  2.0390 -0.0129  1.3512
  964MOL0     H32977   9.507  11.875  10.118 -1.6104 -1.4663 -4.5009
  964MOL0     H32978   9.585  11.855   9.977  2.6885 -0.2302 -0.0905
  964MOL0     H32979   9.716  11.994  10.149 -0.8820 -0.7490  0.2818
  964MOL0     H32980   9.744  11.861  10.235 -2.6628 -1.4110  0.4142
  964MOL0     H32981   9.821  12.012   9.883  2.2941  0.4672 -1.9588
  964MOL0     H32982  10.007  11.916   9.694 -0.2832  1.3897  1.1364
  964MOL0     H32983  10.110  11.777   9.741 -0.6758 -0.2822 -2.2075
  964MOL0     H32984  10.157  12.071   9.817  0.7396  0.0788 -1.9852
  964MOL0     H32985  10.246  11.931   9.883 -2.4706 -0.5673  0.9726
  964MOL0     H32986  10.297  11.867   9.643 -0.9887  0.5359 -0.1097
  964MOL0     H32987  10.238  12.023   9.582  0.4731 -1.1743 -0.9996
  964MOL0     H32988  10.413  12.099   9.777  2.5354  0.2712 -1.6885
  964MOL0     H32989  10.481  11.930   9.753  1.6924 -0.1206 -1.8699
  964MOL0     H32990  10.609  12.110   9.357 -1.0323  2.0806 -0.4911
  964MOL0     H32991  10.926  12.129   9.276 -0.2818 -1.6483  1.1932
  964MOL0     H32992  10.875  12.304   9.266 -5.0669  0.9821 -4.3158
  964MOL0     H32993  10.764  12.179   9.218 -1.2926  2.7398  0.8115
  964MOL0     H32994  11.192  12.277   9.782  2.1163 -0.1893  0.3174
  964MOL0     H32995  11.445  12.335   9.815 -0.2485  0.9942  2.7294
  964MOL0     H32996  11.535  12.706   9.723 -0.0919  0.7456 -1.2118
  964MOL0     H32997  11.605  12.597   9.849  2.9892 -0.2611  0.4508
  964MOL0     H32998  11.723  12.724   9.595  0.0959 -3.6124 -2.0934
  964MOL0     H32999  11.775  12.769   9.757  1.6780 -0.0598 -1.2359
  964MOL0     H33000  11.945  12.640   9.659  0.9142 -0.5726  1.2242
  964MOL0     H33001  11.838  12.508   9.608  1.5646  1.4668 -1.8414
  964MOL0     H33002  11.791  12.454   9.841  0.3958  0.6782  2.4974
  964MOL0     H33003  11.910  12.579   9.902  2.8289 -2.2512  1.2835
  964MOL0     H33004  11.964  12.325   9.765  0.5133 -0.7409  1.6190
  964MOL0     H33005  12.070  12.461   9.751 -0.3499 -1.7527 -2.3857
  964MOL0     H33006  12.070  12.468  10.011  1.2021 -1.8458  1.4058
  964MOL0     H33007  12.164  12.344   9.931  0.3812 -0.2679 -0.1470
  964MOL0     H33008  11.946  12.204   9.956 -1.4892  1.0168 -0.8607
  964MOL0     H33009  11.873  12.340  10.039  1.0015  0.6825  2.6780
  964MOL0     H33010  11.962  12.242  10.228 -0.1039  1.0279 -0.9519
  964MOL0     H33011  12.110  12.320  10.174  1.1103 -0.5475 -1.6397
  964MOL0     H33012  11.392  12.636   9.530  1.0105 -2.4167 -2.2655
  964MOL0     H33013  11.140  12.586   9.504 -0.3608 -4.1828 -2.6728
  964MOL0     H33014  10.835  12.300   9.757  0.5988 -2.2784  1.5377
  964MOL0     H33015  10.614  12.169   9.789 -4.9440 -1.8081 -2.3323
  964MOL0     H33016   9.422  10.780   9.938  0.4214  4.0146 -1.1071
  964MOL0     H33017   9.253  10.601   9.986  0.7888  0.7155 -0.4387
  964MOL0     H33018   8.786  10.598  10.156 -1.2918  0.9854 -0.5386
  964MOL0     H33019   8.617  10.499  10.212  0.3019  0.6543 -0.2365
  964MOL0     H33020   8.398  10.413  10.208  0.3604  0.0977 -0.9187
  964MOL0     H33021   8.289  10.298  10.141  1.9258 -0.2428 -0.5458
  964MOL0     H33022   8.395  10.266  10.380  1.1844  3.5197 -0.8522
  964MOL0     H33023   8.510  10.166  10.280 -0.6285 -0.7587 -1.0083
  964MOL0     H33024   8.218  10.096  10.248 -0.0840 -2.2957 -0.7889
  964MOL0     H33025   8.369  10.023  10.204  1.8316  2.7712 -1.8097
  964MOL0     H33026   8.299  10.077  10.497 -0.8971 -0.8353 -0.6361
  964MOL0     H33027   8.416   9.957  10.433  0.5127  0.9306  1.5410
  964MOL0     H33028   8.056   9.753  10.358  0.5629 -0.0237  1.3155
  964MOL0     H33029   8.618  10.222   9.882 -0.5954  0.5192 -0.4277
  964MOL0     H33030   8.878  10.401   9.726  3.0831  2.4618  3.3176
  964MOL0     H33031   8.938  10.252   9.805  0.4625  1.2974 -0.2598
  964MOL0     H33032   8.784  10.243   9.733 -0.1202 -0.7727 -0.8097
  965MOL0     O33033   5.901   4.386   8.974 -0.1514 -0.2118 -0.9895
  965MOL0     C33034   5.827   4.317   8.902 -0.7492  0.8249  0.3440
  965MOL0     O33035   5.850   4.184   8.866 -0.5056 -0.8151 -0.0769
  965MOL0     C33036   5.965   4.120   8.899 -0.1381 -0.1493  0.6430
  965MOL0     C33037   5.940   3.981   8.903 -0.6073  0.0647  1.0794
  965MOL0     C33038   6.051   3.895   8.933  0.3412 -0.0395  0.4609
  965MOL0     C33039   6.181   3.945   8.944 -0.2044 -0.0957 -0.2505
  965MOL0     O33040   6.295   3.872   8.964  0.0075  0.3385  0.5498
  965MOL0     C33041   6.278   3.732   9.004  0.0735  0.8551  0.1411
  965MOL0     C33042   6.414   3.675   9.054  0.4313  1.2434  0.2570
  965MOL0     C33043   6.536   3.673   8.961 -0.8080 -0.1298  0.0944
  965MOL0     C33044   6.649   3.618   9.039  0.0556 -0.9170 -0.7609
  965MOL0     C33045   6.757   3.566   8.941 -0.4630 -1.1184  0.0239
  965MOL0     C33046   6.701   3.436   8.877 -0.0738  0.4807  0.8375
  965MOL0     C33047   6.815   3.331   8.863  0.8274 -0.5451 -0.7028
  965MOL0     C33048   6.943   3.382   8.801 -0.8024  1.0508  0.9514
  965MOL0     N33049   7.039   3.275   8.780 -0.0622 -0.4566 -0.4576
  965MOL0     C33050   7.138   3.271   8.689  0.1643  0.7359 -0.0854
  965MOL0     C33051   7.190   3.144   8.707  0.0046  0.4492 -0.2426
  965MOL0     C33052   7.315   3.099   8.630 -0.1019 -0.0257 -0.4829
  965MOL0     C33053   7.451   3.133   8.707  0.1350  0.9125 -0.7293
  965MOL0     C33054   7.543   3.017   8.718 -0.1017 -0.2057  0.8539
  965MOL0     C33055   7.593   2.977   8.575 -0.4189  0.0378 -0.1561
  965MOL0     O33056   7.704   2.885   8.596  0.1093  0.2929  0.3909
  965MOL0     C33057   7.789   2.869   8.485 -0.9084  0.5118  0.1016
  965MOL0     C33058   7.763   2.872   8.347 -0.1245  0.0141  0.9633
  965MOL0     C33059   7.862   2.836   8.251 -0.0757  0.7779  0.2170
  965MOL0     C33060   7.814   2.824   8.109 -0.6018 -0.3792  0.9212
  965MOL0     C33061   7.997   2.817   8.293 -0.4906 -1.1387  0.3546
  965MOL0     C33062   8.110   2.808   8.207  0.7312  0.2222 -0.6851
  965MOL0     O33063   8.237   2.821   8.266  0.0194  0.1219  0.1431
  965MOL0     C33064   8.354   2.809   8.188  0.6560 -0.6829 -0.0862
  965MOL0     C33065   8.448   2.719   8.219 -1.2191  0.5231 -0.2256
  965MOL0     C33066   8.576   2.720   8.159  0.3981  0.0434  0.5058
  965MOL0     C33067   8.603   2.809   8.052 -0.9486  0.1515  0.1847
  965MOL0     O33068   8.730   2.820   8.000  0.0419  0.4815 -0.2536
  965MOL0     C33069   8.787   2.703   7.949 -0.1549  0.6137  0.7101
  965MOL0     C33070   8.929   2.718   7.894  0.0624 -0.2338 -0.3827
  965MOL0     C33071   8.942   2.824   7.777 -0.1638 -0.0496 -0.3548
  965MOL0     C33072   9.082   2.833   7.723  0.3772  0.0716 -0.7330
  965MOL0     C33073   9.110   2.920   7.596  0.0391  0.0505 -0.3512
  965MOL0     C33074   9.251   2.898   7.534 -0.0521 -0.2509 -0.5881
  965MOL0     C33075   9.352   2.911   7.648 -0.4354 -0.3607 -0.4070
  965MOL0     C33076   9.495   2.918   7.585  0.0150  0.4181  0.2455
  965MOL0    Cl33077   9.615   2.934   7.718 -0.1842 -0.1932  0.1581
  965MOL0     C33078   8.502   2.896   8.007 -0.5856  0.6878  0.8532
  965MOL0     C33079   8.383   2.902   8.085  1.2763 -0.0840  0.3037
  965MOL0     O33080   8.096   2.782   8.088 -1.0618  0.1551 -0.8798
  965MOL0     C33081   8.017   2.810   8.427  0.1043 -0.1335 -0.1454
  965MOL0     C33082   7.916   2.827   8.522  0.1220  0.1603 -0.1514
  965MOL0     N33083   7.113   3.076   8.801 -1.0549 -0.3082  0.0138
  965MOL0     N33084   7.030   3.157   8.847 -0.0733  0.1381 -0.4697
  965MOL0     C33085   6.198   4.079   8.934  0.8986 -0.7611 -0.6136
  965MOL0     C33086   6.092   4.165   8.909 -0.5149 -0.3826  0.3323
  965MOL0     C33087   5.710   4.380   8.844  0.1596 -0.2723  0.1470
  965MOL0     C33088   5.670   4.327   8.714  0.6064 -0.7798 -0.1579
  965MOL0     C33089   5.561   4.386   8.647 -0.1849 -0.6114  0.6513
  965MOL0     C33090   5.494   4.498   8.701  0.1173 -0.6585  0.2421
  965MOL0     O33091   5.388   4.561   8.641  1.0568 -0.0958 -0.1830
  965MOL0     C33092   5.303   4.497   8.552 -0.1320 -0.4737  1.0763
  965MOL0     C33093   5.186   4.438   8.630  0.2925  0.4489 -0.5834
  965MOL0     C33094   5.087   4.366   8.544 -0.4689 -0.3565 -0.5902
  965MOL0     C33095   5.139   4.241   8.468  0.1554 -0.4336 -0.0833
  965MOL0     C33096   5.028   4.211   8.377 -0.9616  0.4489 -0.6986
  965MOL0     C33097   4.930   4.209   8.305  0.3549 -0.1969 -0.5762
  965MOL0     C33098   5.534   4.542   8.825 -0.1990 -1.7932  0.1054
  965MOL0     C33099   5.634   4.484   8.907 -0.3045 -0.0980  0.4624
  965MOL0     C33100   5.633   4.527   9.040  0.2885  0.1376  0.1790
  965MOL0     H33101   5.846   3.928   8.895 -1.4647  1.4770  1.4550
  965MOL0     H33102   6.012   3.794   8.944 -1.2980  0.5708  0.5147
  965MOL0     H33103   6.235   3.672   8.923  1.3827  1.0750 -0.7644
  965MOL0     H33104   6.209   3.738   9.088  0.2375  0.0770  0.3349
  965MOL0     H33105   6.445   3.735   9.140 -0.7038  0.9467  0.9040
  965MOL0     H33106   6.383   3.572   9.076 -0.1203  0.6679 -2.7433
  965MOL0     H33107   6.510   3.622   8.868  0.2649  1.1960 -0.9870
  965MOL0     H33108   6.569   3.772   8.928  0.9906  0.2775  2.7255
  965MOL0     H33109   6.689   3.703   9.095  0.7306 -1.0061 -1.0971
  965MOL0     H33110   6.626   3.536   9.108  0.3171  1.0933  1.8687
  965MOL0     H33111   6.844   3.544   9.002 -0.9095 -1.1719  0.6556
  965MOL0     H33112   6.779   3.648   8.872 -5.4045  1.0016  0.4596
  965MOL0     H33113   6.624   3.395   8.943 -1.3269  2.8358  0.9695
  965MOL0     H33114   6.654   3.452   8.779  0.5148  1.3697  0.6840
  965MOL0     H33115   6.789   3.251   8.793  2.9297 -0.6257 -1.4896
  965MOL0     H33116   6.835   3.290   8.962 -0.6598 -1.5105 -0.7648
  965MOL0     H33117   6.915   3.420   8.703  1.1352 -2.2382 -1.0954
  965MOL0     H33118   7.001   3.463   8.846  2.0212  0.7683 -1.7555
  965MOL0     H33119   7.171   3.361   8.639  3.7874  1.2388  2.7599
  965MOL0     H33120   7.309   3.162   8.541  2.1230  0.4313 -0.3600
  965MOL0     H33121   7.304   2.997   8.593 -2.5250  0.8192 -2.3868
  965MOL0     H33122   7.500   3.214   8.654  0.4782  0.8601 -0.4954
  965MOL0     H33123   7.437   3.168   8.810  3.6845  1.7637 -0.4279
  965MOL0     H33124   7.620   3.037   8.793 -0.2218  2.5737  0.3480
  965MOL0     H33125   7.486   2.933   8.758 -0.5858  0.4449  1.5608
  965MOL0     H33126   7.512   2.933   8.516 -1.0703  2.6471 -1.3938
  965MOL0     H33127   7.620   3.067   8.518  1.6075 -2.1397 -2.9179
  965MOL0     H33128   7.660   2.893   8.321  0.3385  2.3267  0.8614
  965MOL0     H33129   7.827   2.918   8.055  0.8660 -0.6105  0.8512
  965MOL0     H33130   7.706   2.805   8.111 -0.2896 -2.2504  1.8525
  965MOL0     H33131   7.859   2.733   8.070  0.7960  0.4460  0.5626
  965MOL0     H33132   8.436   2.652   8.305 -2.5346  2.2834  1.0293
  965MOL0     H33133   8.644   2.639   8.183  1.0650  0.2808 -0.5151
  965MOL0     H33134   8.788   2.623   8.023  3.2875  1.6146  1.9384
  965MOL0     H33135   8.722   2.682   7.863 -1.1474 -1.6977  1.9513
  965MOL0     H33136   8.991   2.762   7.972 -2.1154 -3.6777  3.7469
  965MOL0     H33137   8.969   2.624   7.855 -0.7179 -0.8068  0.1589
  965MOL0     H33138   8.906   2.925   7.799 -2.4651 -0.5329 -1.5621
  965MOL0     H33139   8.884   2.786   7.693  0.9793  2.3253 -2.3468
  965MOL0     H33140   9.123   2.733   7.706  2.5099  0.9059 -0.7799
  965MOL0     H33141   9.134   2.888   7.802  0.2788  0.0491 -0.6524
  965MOL0     H33142   9.045   2.881   7.517 -1.8105  2.9509 -0.3831
  965MOL0     H33143   9.093   3.025   7.618  0.2162 -0.5979  3.6592
  965MOL0     H33144   9.279   2.967   7.454  1.2754  1.4251  1.2224
  965MOL0     H33145   9.252   2.795   7.498 -0.7574 -0.9236  1.1939
  965MOL0     H33146   9.353   2.825   7.715  1.9933 -0.8073 -0.9563
  965MOL0     H33147   9.338   3.006   7.701  0.4541 -0.5928  0.2615
  965MOL0     H33148   9.489   3.004   7.517 -0.3486  0.4416  0.3042
  965MOL0     H33149   9.511   2.831   7.521 -3.3984  1.0452 -1.7364
  965MOL0     H33150   8.539   2.972   7.938  1.2190 -1.5573 -0.8073
  965MOL0     H33151   8.312   2.984   8.075  1.1546 -0.2173  0.0756
  965MOL0     H33152   8.115   2.793   8.471  0.7772 -0.5781 -1.7429
  965MOL0     H33153   7.929   2.820   8.629 -0.6939  0.9546  0.0067
  965MOL0     H33154   6.302   4.105   8.917  1.0876 -1.0704  0.0004
  965MOL0     H33155   6.110   4.269   8.885 -5.5307  0.8565  0.8242
  965MOL0     H33156   5.730   4.260   8.654 -1.0234 -0.3496 -2.3891
  965MOL0     H33157   5.539   4.345   8.549 -2.1269  0.8755  0.4077
  965MOL0     H33158   5.265   4.582   8.493 -2.0199 -1.4941  0.7546
  965MOL0     H33159   5.356   4.432   8.482 -0.2500 -0.6571  1.1574
  965MOL0     H33160   5.134   4.516   8.686  2.3400  1.3995  0.0741
  965MOL0     H33161   5.222   4.373   8.710 -2.5115  4.8305  4.9237
  965MOL0     H33162   5.000   4.330   8.599  0.5270 -2.1802 -0.0916
  965MOL0     H33163   5.062   4.440   8.468  3.3597 -0.3356 -2.1131
  965MOL0     H33164   5.148   4.160   8.541  0.3865 -2.5169 -2.3014
  965MOL0     H33165   5.230   4.254   8.408 -0.0323 -1.6180 -0.6632
  965MOL0     H33166   4.841   4.233   8.250  0.7672 -0.4972 -1.3721
  965MOL0     H33167   5.477   4.627   8.861 -2.5829 -2.4102 -1.8995
  965MOL0     H33168   5.689   4.621   9.042  0.7993 -0.1102 -1.2820
  965MOL0     H33169   5.531   4.536   9.079 -0.0963 -1.5029 -0.3858
  965MOL0     H33170   5.684   4.460   9.111 -1.7107 -0.5579  1.0157
  966MOL0     O33171  10.350   8.709   8.084 -0.1233  0.3404  0.0151
  966MOL0     C33172  10.376   8.638   8.176  0.0357  0.6303 -0.0626
  966MOL0     O33173  10.445   8.670   8.286  0.1099  1.0248  0.4541
  966MOL0     C33174  10.486   8.801   8.298  0.6899 -0.4918  0.5671
  966MOL0     C33175  10.399   8.892   8.360  0.1336 -0.4159 -0.0429
  966MOL0     C33176  10.420   9.031   8.351 -0.7763  0.3160  0.3512
  966MOL0     C33177  10.538   9.077   8.288  0.2983 -0.8189  0.5490
  966MOL0     O33178  10.550   9.215   8.265  0.3586 -0.2980 -0.2895
  966MOL0     C33179  10.619   9.257   8.137  0.5487  1.3396 -1.1591
  966MOL0     C33180  10.586   9.395   8.112  0.8383 -0.1859  0.0221
  966MOL0     C33181  10.434   9.431   8.107 -0.1954  0.3501 -0.7285
  966MOL0     C33182  10.416   9.578   8.102 -0.7913 -0.1439 -0.1843
  966MOL0     C33183  10.276   9.624   8.144  0.1765 -0.4844 -0.5463
  966MOL0     C33184  10.257   9.614   8.293  0.7892 -0.2606  0.2226
  966MOL0     C33185  10.120   9.660   8.341 -0.3043 -0.1876 -0.1343
  966MOL0     C33186  10.092   9.811   8.331 -0.2764  0.0826  1.7625
  966MOL0     N33187   9.968   9.859   8.379 -0.9941  0.4347 -0.1371
  966MOL0     C33188   9.847   9.863   8.311 -0.6792  0.0861  0.1078
  966MOL0     C33189   9.762   9.932   8.384 -0.0568 -0.0845 -0.6117
  966MOL0     C33190   9.621   9.960   8.333 -0.4867 -0.1302 -1.5610
  966MOL0     C33191   9.550  10.049   8.431  0.5933 -0.2722  0.0464
  966MOL0     C33192   9.604  10.191   8.436  0.5464  0.8333  0.7739
  966MOL0     C33193   9.525  10.280   8.529  1.0875 -0.0429 -0.1877
  966MOL0     O33194   9.394  10.297   8.486 -0.0950  0.2086  0.0276
  966MOL0     C33195   9.309  10.378   8.564 -0.2748  1.3348  0.4470
  966MOL0     C33196   9.341  10.507   8.604  0.4987  0.8260  0.2185
  966MOL0     C33197   9.250  10.588   8.678  0.8195  0.1075  0.1392
  966MOL0     C33198   9.299  10.725   8.713 -0.5603 -0.3129  0.3651
  966MOL0     C33199   9.119  10.528   8.715 -0.1836  0.1241 -0.8565
  966MOL0     C33200   9.011  10.590   8.802  0.2426  0.9472 -0.5032
  966MOL0     O33201   9.032  10.709   8.860  0.3856 -0.0118  0.6068
  966MOL0     C33202   8.951  10.750   8.967 -0.1286 -1.1548  0.2378
  966MOL0     C33203   8.812  10.762   8.958 -0.3927 -0.6790  0.3530
  966MOL0     C33204   8.728  10.801   9.065 -1.2612  0.3723 -0.8627
  966MOL0     C33205   8.777  10.816   9.189 -0.0138 -0.2347  0.2863
  966MOL0     O33206   8.688  10.846   9.288 -0.3118  0.2647  1.1021
  966MOL0     C33207   8.725  10.950   9.386 -1.0392  0.0848  0.3487
  966MOL0     C33208   8.787  10.888   9.519  0.0781  0.0528 -0.0792
  966MOL0     C33209   8.702  10.780   9.588 -0.3999  0.2451  0.6367
  966MOL0     C33210   8.699  10.815   9.732 -0.3027  0.4717 -0.1260
  966MOL0     C33211   8.626  10.708   9.820  0.2562  0.6472 -0.2682
  966MOL0     C33212   8.478  10.686   9.786  0.8881 -0.1386  0.1494
  966MOL0     C33213   8.397  10.593   9.880  0.2451  0.0852 -0.1917
  966MOL0     C33214   8.258  10.544   9.829  0.5588 -0.4658 -0.5354
  966MOL0    Cl33215   8.155  10.679   9.774  0.4847 -0.1716  0.2868
  966MOL0     C33216   8.914  10.826   9.204  0.4598  0.4316  1.1061
  966MOL0     C33217   9.000  10.780   9.097 -0.5351 -0.7358 -1.0784
  966MOL0     O33218   8.920  10.512   8.832  0.0385  0.1237 -0.0103
  966MOL0     C33219   9.098  10.394   8.683 -0.0709 -0.0179  0.5586
  966MOL0     C33220   9.191  10.318   8.605 -0.0828  0.0427  0.6148
  966MOL0     N33221   9.823   9.963   8.508 -0.7189 -0.1151 -0.7015
  966MOL0     N33222   9.949   9.926   8.492 -0.2231  0.3185  0.1395
  966MOL0     C33223  10.636   8.984   8.236  0.4685  0.7866  0.0724
  966MOL0     C33224  10.603   8.852   8.232  0.4092  1.5712 -0.0963
  966MOL0     C33225  10.295   8.515   8.193  0.6730  0.1462  0.2805
  966MOL0     C33226  10.181   8.521   8.275  0.3737 -0.5443  0.0739
  966MOL0     C33227  10.109   8.407   8.306  0.2293 -0.0075 -1.0059
  966MOL0     C33228  10.143   8.284   8.249  0.6923 -0.9637  0.8315
  966MOL0     O33229  10.069   8.168   8.271  0.1809 -0.8354 -0.0821
  966MOL0     C33230   9.950   8.168   8.359  0.1200  0.5224  0.7685
  966MOL0     C33231   9.899   8.018   8.396 -0.6675 -0.4807 -0.1604
  966MOL0     C33232   9.865   7.933   8.265 -0.8251  0.3861 -0.6244
  966MOL0     C33233   9.718   7.928   8.224 -0.1417 -0.8611  0.1297
  966MOL0     C33234   9.634   7.839   8.299  0.3108  0.1884  0.2549
  966MOL0     C33235   9.561   7.757   8.349 -0.0384  0.1128 -0.3829
  966MOL0     C33236  10.248   8.276   8.161 -0.7484  0.2675  0.1995
  966MOL0     C33237  10.331   8.386   8.138 -0.3638  0.1915  0.2541
  966MOL0     C33238  10.448   8.375   8.031 -0.8275  0.1908 -0.7876
  966MOL0     H33239  10.312   8.845   8.405 -1.0425 -0.0800 -1.8762
  966MOL0     H33240  10.341   9.095   8.387 -0.8374 -1.0619  2.8758
  966MOL0     H33241  10.589   9.185   8.060 -2.7929  1.5309 -0.2148
  966MOL0     H33242  10.725   9.264   8.162  0.2138  1.1812  0.4196
  966MOL0     H33243  10.637   9.462   8.182  1.8441 -2.9833  2.1573
  966MOL0     H33244  10.631   9.420   8.016  1.2526 -0.3700  0.1630
  966MOL0     H33245  10.391   9.376   8.023 -0.5603 -0.7605  0.1522
  966MOL0     H33246  10.382   9.398   8.198 -0.7230 -1.7480 -1.7451
  966MOL0     H33247  10.491   9.638   8.154  0.0531 -2.0660  0.9485
  966MOL0     H33248  10.422   9.607   7.997  0.6331  0.1580 -0.0388
  966MOL0     H33249  10.192   9.584   8.086 -1.1546  0.3667  0.7212
  966MOL0     H33250  10.265   9.729   8.116  1.8920 -0.2353 -0.4205
  966MOL0     H33251  10.263   9.513   8.336 -0.0234  0.2955  1.6958
  966MOL0     H33252  10.332   9.675   8.344 -0.3685 -0.5390  2.4200
  966MOL0     H33253  10.106   9.624   8.443  1.0187 -1.0593 -0.2343
  966MOL0     H33254  10.037   9.612   8.289 -2.6105  2.5944  0.7152
  966MOL0     H33255  10.180   9.859   8.376  0.5237  1.1391 -0.7780
  966MOL0     H33256  10.081   9.832   8.225 -0.6687 -0.1936  1.7473
  966MOL0     H33257   9.836   9.808   8.218  0.9928 -1.4888  0.7653
  966MOL0     H33258   9.569   9.864   8.325 -1.7085  0.4729 -1.0453
  966MOL0     H33259   9.629  10.012   8.237 -2.8005  0.6325 -1.3858
  966MOL0     H33260   9.442  10.049   8.410  0.6944  0.4771 -0.5421
  966MOL0     H33261   9.572  10.019   8.534  1.0725 -2.5686 -0.6660
  966MOL0     H33262   9.702  10.184   8.485 -0.1101 -2.3353  1.8943
  966MOL0     H33263   9.608  10.241   8.339  0.4247 -1.6694 -0.6124
  966MOL0     H33264   9.532  10.233   8.628 -0.8232  1.1714  0.5858
  966MOL0     H33265   9.576  10.376   8.540  1.9086 -0.4401 -0.4385
  966MOL0     H33266   9.440  10.544   8.580  2.0137 -2.3391  1.0925
  966MOL0     H33267   9.386  10.757   8.653  0.0544  0.3624  1.5828
  966MOL0     H33268   9.329  10.748   8.815  1.5430  1.6033 -0.5891
  966MOL0     H33269   9.227  10.804   8.691  0.6568  0.7089 -0.1080
  966MOL0     H33270   8.759  10.739   8.866  1.9706  0.9056 -1.5175
  966MOL0     H33271   8.622  10.800   9.044 -1.1355 -3.7015 -2.0656
  966MOL0     H33272   8.807  11.015   9.353  1.8882 -4.6128 -2.7240
  966MOL0     H33273   8.638  11.014   9.405 -0.1887  1.6070 -0.6555
  966MOL0     H33274   8.891  10.861   9.497  0.0017 -0.0477 -0.3244
  966MOL0     H33275   8.796  10.969   9.592  0.7644 -1.1833  1.2547
  966MOL0     H33276   8.730  10.676   9.568  2.9854  1.2019 -0.2219
  966MOL0     H33277   8.599  10.786   9.552 -1.1490 -3.2279  1.7693
  966MOL0     H33278   8.648  10.911   9.739 -1.6354 -0.2842  1.0857
  966MOL0     H33279   8.795  10.824   9.783 -0.1720 -0.5039 -0.1715
  966MOL0     H33280   8.680  10.616   9.800  1.5097  1.7074 -2.0829
  966MOL0     H33281   8.638  10.743   9.923 -0.5930  1.0537 -0.2947
  966MOL0     H33282   8.475  10.639   9.687  0.4771 -2.0407  1.0259
  966MOL0     H33283   8.439  10.788   9.775  1.3460 -0.1614 -2.3043
  966MOL0     H33284   8.380  10.648   9.974 -1.4938  1.9172 -1.4842
  966MOL0     H33285   8.451  10.499   9.896 -1.5882 -1.4834 -2.5606
  966MOL0     H33286   8.210  10.499   9.917 -2.5755  1.0093 -1.3375
  966MOL0     H33287   8.271  10.478   9.743  0.0372  1.6851 -2.3597
  966MOL0     H33288   8.965  10.859   9.294 -0.7415  0.3341  1.8343
  966MOL0     H33289   9.106  10.767   9.115 -0.7098 -0.0491  0.6482
  966MOL0     H33290   9.013  10.331   8.709 -1.0141  0.3341 -1.4447
  966MOL0     H33291   9.155  10.218   8.582  2.5959 -1.0920  0.9821
  966MOL0     H33292  10.727   9.018   8.187  0.4893 -0.2484 -0.6405
  966MOL0     H33293  10.664   8.781   8.176 -0.0018  0.1785  1.1507
  966MOL0     H33294  10.153   8.624   8.297 -0.5226 -0.7519 -0.0812
  966MOL0     H33295  10.022   8.418   8.370 -2.5016 -1.6817 -4.0613
  966MOL0     H33296   9.980   8.225   8.447  3.5860  0.1176  0.0324
  966MOL0     H33297   9.864   8.211   8.307  1.0371  2.5123  0.8150
  966MOL0     H33298   9.816   8.018   8.467 -0.5251 -2.6283  0.0954
  966MOL0     H33299   9.986   7.972   8.444  0.7808 -2.2163 -3.9598
  966MOL0     H33300   9.934   7.983   8.196  4.9773 -3.6162  1.5153
  966MOL0     H33301   9.909   7.834   8.280  0.2805  1.2000  2.0866
  966MOL0     H33302   9.720   7.904   8.118  0.2595 -0.0731 -0.0510
  966MOL0     H33303   9.671   8.027   8.224 -1.6729 -1.5233 -2.1193
  966MOL0     H33304   9.485   7.687   8.374 -0.8164  0.5055 -1.5700
  966MOL0     H33305  10.262   8.180   8.112 -2.5662  1.0861 -2.0699
  966MOL0     H33306  10.409   8.367   7.929 -2.0330  0.6684 -0.3846
  966MOL0     H33307  10.515   8.462   8.031  0.0065 -0.4225 -2.0624
  966MOL0     H33308  10.499   8.280   8.049  1.0445  1.6157  2.1349
  967MOL0     O33309   7.300   4.747   8.099  0.2116 -0.3634 -0.0912
  967MOL0     C33310   7.211   4.824   8.058 -0.1872  0.0265  1.0406
  967MOL0     O33311   7.165   4.823   7.933  0.2299  0.4422 -0.4664
  967MOL0     C33312   7.234   4.746   7.844 -0.4095 -0.6905  0.4098
  967MOL0     C33313   7.361   4.795   7.803  0.1530  1.1015 -0.1636
  967MOL0     C33314   7.438   4.722   7.716  0.8370  0.1894  0.1653
  967MOL0     C33315   7.395   4.598   7.658 -0.5123 -0.8146 -0.0672
  967MOL0     O33316   7.479   4.510   7.587  0.3127 -0.0401  0.5294
  967MOL0     C33317   7.601   4.567   7.524 -0.1476  0.8179 -0.7931
  967MOL0     C33318   7.718   4.553   7.627  0.8882  0.2804  0.2451
  967MOL0     C33319   7.773   4.412   7.649  0.0978  0.1491 -0.3690
  967MOL0     C33320   7.777   4.309   7.532 -0.3777 -0.1183  0.3414
  967MOL0     C33321   7.845   4.177   7.579  0.0563 -0.3501 -0.1584
  967MOL0     C33322   7.754   4.084   7.669 -0.4831 -0.7961  0.1561
  967MOL0     C33323   7.839   4.044   7.792  0.2600  0.2337  0.4859
  967MOL0     C33324   7.751   3.981   7.902  0.0687 -0.5851 -0.1494
  967MOL0     N33325   7.758   3.829   7.919 -0.4139 -0.1432 -0.0627
  967MOL0     C33326   7.674   3.741   7.855 -0.1027  0.0943  0.1287
  967MOL0     C33327   7.711   3.622   7.908  0.3336  0.3368 -0.4708
  967MOL0     C33328   7.643   3.490   7.891  0.4910 -0.1872 -0.0210
  967MOL0     C33329   7.507   3.485   7.946 -0.5367 -0.0362  0.2603
  967MOL0     C33330   7.397   3.540   7.860 -1.2461  0.3200  0.6551
  967MOL0     C33331   7.265   3.526   7.937  0.7030  0.1609 -0.1840
  967MOL0     O33332   7.241   3.625   8.040 -0.6184 -0.4085 -0.7653
  967MOL0     C33333   7.152   3.735   8.021 -0.0702  1.0209  0.2809
  967MOL0     C33334   7.058   3.746   7.921 -0.5916 -0.7916 -0.0063
  967MOL0     C33335   6.984   3.859   7.903 -0.8719  0.2203  0.7761
  967MOL0     C33336   6.891   3.847   7.781 -0.2973  0.0666  0.9457
  967MOL0     C33337   6.995   3.970   7.989 -0.2547 -0.2574 -0.3102
  967MOL0     C33338   6.916   4.098   7.976  0.7710  0.3850  0.8529
  967MOL0     O33339   6.967   4.214   8.031 -0.1764 -0.4481  0.5518
  967MOL0     C33340   6.907   4.335   7.988 -0.3813  0.8160 -0.4298
  967MOL0     C33341   6.848   4.353   7.862  0.0271 -0.2163 -0.8087
  967MOL0     C33342   6.790   4.485   7.833  0.4577  0.0970 -0.7318
  967MOL0     C33343   6.819   4.594   7.913 -0.6468  0.3094  0.6965
  967MOL0     O33344   6.782   4.722   7.899 -0.8705  0.0700  0.2922
  967MOL0     C33345   6.769   4.777   7.766 -0.8146  0.1577  0.4287
  967MOL0     C33346   6.796   4.924   7.777  0.0778 -1.0012 -0.0425
  967MOL0     C33347   6.685   4.984   7.861  0.3389 -0.1493  0.0798
  967MOL0     C33348   6.550   4.996   7.786  0.0325 -0.5289  0.8196
  967MOL0     C33349   6.445   5.079   7.861 -0.4585  0.4042  1.0456
  967MOL0     C33350   6.331   5.121   7.770  0.4271  0.4764  0.0786
  967MOL0     C33351   6.233   5.230   7.836 -0.1087 -0.1032 -0.2984
  967MOL0     C33352   6.228   5.368   7.769  0.6816  0.5803 -0.0116
  967MOL0    Cl33353   6.384   5.431   7.723  0.3013 -0.0696 -0.3393
  967MOL0     C33354   6.888   4.573   8.036 -0.7822  0.0228 -0.2740
  967MOL0     C33355   6.926   4.445   8.076 -0.4038  0.0695 -0.4224
  967MOL0     O33356   6.803   4.085   7.926 -0.7870  0.2812  0.2491
  967MOL0     C33357   7.095   3.957   8.090 -0.3852 -0.1987 -0.7500
  967MOL0     C33358   7.171   3.844   8.108  0.1906  0.0434  0.3985
  967MOL0     N33359   7.803   3.648   8.009  0.5097  0.5545 -0.5665
  967MOL0     N33360   7.833   3.769   8.010 -0.5918  0.2618  0.1179
  967MOL0     C33361   7.262   4.554   7.692 -0.5971  0.3312  0.3145
  967MOL0     C33362   7.186   4.627   7.781  0.2287  0.2777 -0.3908
  967MOL0     C33363   7.135   4.913   8.159  0.0705 -0.5343 -0.0739
  967MOL0     C33364   7.042   5.001   8.109  0.1791 -0.0654 -0.3128
  967MOL0     C33365   6.993   5.106   8.187  0.3067  0.5286 -0.8364
  967MOL0     C33366   7.003   5.103   8.320  0.0641  0.4538 -0.3024
  967MOL0     O33367   6.923   5.196   8.380  0.0685 -0.9052 -0.2500
  967MOL0     C33368   6.964   5.237   8.515  0.2944 -0.5931 -1.0588
  967MOL0     C33369   6.896   5.376   8.535 -0.7469  0.2533 -0.6674
  967MOL0     C33370   6.746   5.367   8.550  0.5032 -0.0831  0.2966
  967MOL0     C33371   6.680   5.505   8.581 -0.7135  0.5941  0.1168
  967MOL0     C33372   6.599   5.561   8.474 -0.3152 -0.1502  0.6542
  967MOL0     C33373   6.528   5.594   8.395  0.4428  0.0587  0.9208
  967MOL0     C33374   7.093   5.011   8.374  0.1240 -0.2700  0.2879
  967MOL0     C33375   7.168   4.919   8.298 -0.2667 -0.5876 -0.6276
  967MOL0     C33376   7.270   4.837   8.377  0.2682 -0.5507  0.3200
  967MOL0     H33377   7.404   4.885   7.845 -0.1114  1.1109  0.0958
  967MOL0     H33378   7.539   4.763   7.706 -0.0391  2.2048 -1.0159
  967MOL0     H33379   7.577   4.672   7.507 -1.3390  0.1836 -3.6664
  967MOL0     H33380   7.635   4.512   7.435  0.1102 -1.0559  0.4143
  967MOL0     H33381   7.796   4.615   7.581  0.5524 -0.9758 -2.1862
  967MOL0     H33382   7.692   4.608   7.718  0.0114  0.7355 -0.2634
  967MOL0     H33383   7.873   4.416   7.695 -0.1192 -0.0830  0.1370
  967MOL0     H33384   7.707   4.377   7.729 -0.0761  1.7197  0.2149
  967MOL0     H33385   7.678   4.283   7.493 -0.8654  1.2585  0.6042
  967MOL0     H33386   7.830   4.348   7.445 -1.2839  0.6983  0.1448
  967MOL0     H33387   7.937   4.205   7.632  0.1317  0.6770 -0.7894
  967MOL0     H33388   7.874   4.121   7.490 -0.1086 -0.8057  0.0724
  967MOL0     H33389   7.667   4.141   7.702  0.7890  3.0655 -2.4898
  967MOL0     H33390   7.732   3.992   7.613 -1.0335  0.4327 -1.7479
  967MOL0     H33391   7.890   4.132   7.833 -0.9084  2.2769 -2.0979
  967MOL0     H33392   7.902   3.963   7.757 -1.1224 -0.3155 -0.8662
  967MOL0     H33393   7.779   4.021   8.000 -0.0402 -2.1614  0.5640
  967MOL0     H33394   7.646   4.006   7.883 -0.0617 -1.5938 -0.8456
  967MOL0     H33395   7.594   3.762   7.785 -0.0235 -0.4338 -0.1280
  967MOL0     H33396   7.711   3.413   7.930  1.3512 -0.8420 -2.5883
  967MOL0     H33397   7.645   3.466   7.785  1.7724  2.4194 -0.6743
  967MOL0     H33398   7.486   3.378   7.957  0.3352 -0.0750  1.7366
  967MOL0     H33399   7.513   3.538   8.041  0.5183  1.8930 -0.8307
  967MOL0     H33400   7.419   3.644   7.833  0.9585 -0.4084 -0.6129
  967MOL0     H33401   7.399   3.476   7.771  0.8296  0.1361  0.8079
  967MOL0     H33402   7.186   3.530   7.862 -0.1495  0.2872  0.6953
  967MOL0     H33403   7.261   3.433   7.995  1.3413  0.6200  0.6214
  967MOL0     H33404   7.032   3.667   7.851 -3.7939  1.7378 -1.9713
  967MOL0     H33405   6.885   3.940   7.723 -0.4419  0.5638  1.7557
  967MOL0     H33406   6.791   3.840   7.825  0.1049 -0.1077  1.8440
  967MOL0     H33407   6.914   3.768   7.709  0.2783  0.3529  0.8092
  967MOL0     H33408   6.846   4.272   7.790 -1.7689 -1.3618  0.4367
  967MOL0     H33409   6.727   4.498   7.746  0.9021 -0.3398 -1.1281
  967MOL0     H33410   6.852   4.743   7.703 -0.4358  1.6933  0.0639
  967MOL0     H33411   6.671   4.748   7.726 -1.2407  0.7170  1.0427
  967MOL0     H33412   6.888   4.929   7.836 -0.9742 -0.9167  1.6420
  967MOL0     H33413   6.799   4.977   7.682 -0.9477  1.1305  1.0583
  967MOL0     H33414   6.711   5.089   7.879  3.6214 -0.6118 -1.2182
  967MOL0     H33415   6.666   4.945   7.961 -2.4743  1.0891  0.1316
  967MOL0     H33416   6.515   4.896   7.761  0.7025 -0.8373  1.1031
  967MOL0     H33417   6.571   5.057   7.697 -3.5394 -0.9062 -0.4673
  967MOL0     H33418   6.400   5.023   7.944 -0.8347 -0.7266  0.1031
  967MOL0     H33419   6.497   5.167   7.900  0.4824  1.4386 -2.2607
  967MOL0     H33420   6.259   5.040   7.753  0.4333 -0.0007  1.9852
  967MOL0     H33421   6.368   5.162   7.676  0.3351  0.1206 -0.1145
  967MOL0     H33422   6.265   5.233   7.941  1.3377 -2.5374 -0.5782
  967MOL0     H33423   6.132   5.187   7.836 -0.8236  1.4944 -0.0017
  967MOL0     H33424   6.166   5.440   7.825  1.8794  2.0248 -0.4860
  967MOL0     H33425   6.181   5.357   7.671  0.4693  2.1815 -0.1169
  967MOL0     H33426   6.905   4.661   8.097  0.7712 -0.1122 -0.4861
  967MOL0     H33427   6.979   4.438   8.171  1.0407 -0.2269 -1.2165
  967MOL0     H33428   7.113   4.035   8.164  0.2364 -1.8334  0.8898
  967MOL0     H33429   7.239   3.852   8.193  0.7450  1.1856 -0.1305
  967MOL0     H33430   7.231   4.455   7.661 -2.5591  0.8406  0.4920
  967MOL0     H33431   7.092   4.588   7.819 -0.4372  1.0955 -1.1515
  967MOL0     H33432   7.010   4.999   8.005 -0.7167  1.0825 -0.0881
  967MOL0     H33433   6.947   5.193   8.142  1.6116  0.7789 -1.7439
  967MOL0     H33434   6.926   5.164   8.587  2.0056 -1.8285 -1.3423
  967MOL0     H33435   7.071   5.243   8.535  0.0200  0.1709  0.3436
  967MOL0     H33436   6.924   5.446   8.456  0.4475  0.8265  0.2396
  967MOL0     H33437   6.934   5.417   8.629 -0.7733 -0.3116 -0.4031
  967MOL0     H33438   6.696   5.327   8.461  0.0980  2.3458 -0.6450
  967MOL0     H33439   6.715   5.293   8.624 -0.5148 -0.7754 -0.7800
  967MOL0     H33440   6.753   5.581   8.608  0.1432  0.2837 -1.2244
  967MOL0     H33441   6.623   5.493   8.674 -2.7881  1.1393 -1.0284
  967MOL0     H33442   6.456   5.632   8.325  2.0835  1.3605 -0.1422
  967MOL0     H33443   7.108   5.011   8.482 -1.1269  1.4112  0.4987
  967MOL0     H33444   7.246   4.731   8.362  0.3464 -0.9180  2.5434
  967MOL0     H33445   7.365   4.861   8.330  0.0909 -0.2627  0.1021
  967MOL0     H33446   7.276   4.856   8.484  1.2295 -0.4971  0.2583
  968MOL0     O33447   0.212   8.045   5.573 -0.0592  0.8857  0.3145
  968MOL0     C33448   0.223   7.953   5.656  0.0196  0.4007  0.8077
  968MOL0     O33449   0.338   7.878   5.673  0.0631 -0.1479  0.2156
  968MOL0     C33450   0.458   7.909   5.619  0.1103 -0.3982  0.2349
  968MOL0     C33451   0.552   7.802   5.621 -0.3671  1.0063  0.2271
  968MOL0     C33452   0.681   7.824   5.576  0.1362 -0.5795 -0.0133
  968MOL0     C33453   0.722   7.950   5.525  1.3110 -0.3350  0.2883
  968MOL0     O33454   0.860   7.966   5.491  0.2378  0.6409 -0.2484
  968MOL0     C33455   0.918   8.092   5.506  1.2591 -0.1619 -0.3058
  968MOL0     C33456   1.072   8.087   5.492 -0.0517 -0.1715 -0.0454
  968MOL0     C33457   1.125   8.224   5.502  0.3106 -0.9656  0.1857
  968MOL0     C33458   1.277   8.237   5.508 -0.6113 -0.5095 -0.2530
  968MOL0     C33459   1.333   8.192   5.633  0.1549  0.5086 -0.3127
  968MOL0     C33460   1.457   8.265   5.675  0.1215  0.0413 -0.4498
  968MOL0     C33461   1.582   8.253   5.583  0.4709 -0.0525  0.1073
  968MOL0     C33462   1.630   8.100   5.561  0.1142 -0.1727  0.1047
  968MOL0     N33463   1.747   8.101   5.471 -0.0768  1.0809  0.8005
  968MOL0     C33464   1.875   8.129   5.507 -0.4838 -0.4090 -0.9367
  968MOL0     C33465   1.937   8.124   5.386 -0.8702  0.5585  0.0718
  968MOL0     C33466   2.075   8.172   5.353  0.9347 -0.0481  0.3270
  968MOL0     C33467   2.109   8.307   5.421 -0.9286 -0.2312 -0.6970
  968MOL0     C33468   2.197   8.404   5.348  0.5161 -0.1892  0.4337
  968MOL0     C33469   2.341   8.353   5.324 -0.4654  0.4406 -0.7232
  968MOL0     O33470   2.389   8.274   5.439 -0.4735  0.2341 -0.4116
  968MOL0     C33471   2.532   8.249   5.430 -0.0955  0.2996  1.1453
  968MOL0     C33472   2.614   8.253   5.542  0.0946 -0.4573  0.4896
  968MOL0     C33473   2.757   8.253   5.535  0.4148 -0.0262  0.1065
  968MOL0     C33474   2.838   8.281   5.656 -0.0216  0.2089  0.3469
  968MOL0     C33475   2.812   8.234   5.405 -0.6606  0.2469 -0.6256
  968MOL0     C33476   2.968   8.237   5.390  0.9049 -0.2126  0.0957
  968MOL0     O33477   3.010   8.201   5.261 -0.4701 -0.3528 -1.1200
  968MOL0     C33478   3.143   8.210   5.236 -0.3874 -0.1729 -0.3696
  968MOL0     C33479   3.198   8.328   5.180  0.3579 -0.0836  0.8559
  968MOL0     C33480   3.334   8.350   5.144 -0.5573  0.3427 -0.3505
  968MOL0     C33481   3.422   8.241   5.165 -0.4802 -0.3147  0.5894
  968MOL0     O33482   3.555   8.259   5.136 -0.7476  0.6982  0.6041
  968MOL0     C33483   3.653   8.164   5.177  0.1853  0.0168  0.3412
  968MOL0     C33484   3.692   8.072   5.059 -0.5450 -0.4060  0.8900
  968MOL0     C33485   3.796   7.968   5.089  0.4051  0.3259 -0.3975
  968MOL0     C33486   3.734   7.826   5.142  1.4570  0.1147  0.0090
  968MOL0     C33487   3.844   7.723   5.180  0.6769 -0.0666 -0.6276
  968MOL0     C33488   3.945   7.691   5.078 -0.4420  0.9331 -0.2635
  968MOL0     C33489   4.052   7.597   5.133 -0.6587  0.1631  0.3050
  968MOL0     C33490   4.143   7.540   5.035  0.2724 -0.5925  0.4117
  968MOL0    Cl33491   4.287   7.477   5.123 -0.0510 -0.4293  0.0468
  968MOL0     C33492   3.371   8.122   5.216  0.3111 -0.0644 -1.2398
  968MOL0     C33493   3.238   8.105   5.247  1.0313  0.1559 -0.1262
  968MOL0     O33494   3.046   8.254   5.482 -0.1393  0.0740 -0.6836
  968MOL0     C33495   2.732   8.229   5.290  0.1690  0.0460 -1.2371
  968MOL0     C33496   2.598   8.235   5.301  0.6744  1.0095 -0.7777
  968MOL0     N33497   1.858   8.096   5.279 -0.0571 -0.3609  0.7905
  968MOL0     N33498   1.738   8.093   5.332 -0.4782  0.7150  0.2661
  968MOL0     C33499   0.634   8.056   5.526  0.5186  0.0114 -0.3355
  968MOL0     C33500   0.502   8.032   5.570 -0.3081 -0.1708  0.2341
  968MOL0     C33501   0.107   7.915   5.749 -0.3544 -0.6522  0.6035
  968MOL0     C33502   0.145   7.865   5.876 -0.1092  0.1511 -0.3097
  968MOL0     C33503   0.041   7.836   5.966  0.0079  0.2997  0.4410
  968MOL0     C33504  -0.094   7.857   5.936  1.0170 -0.3239  0.1155
  968MOL0     O33505  -0.180   7.810   6.037  0.4868 -0.0564  0.0395
  968MOL0     C33506  -0.311   7.778   5.994 -0.7500  0.3994  0.4824
  968MOL0     C33507  -0.368   7.672   6.090 -0.6354  0.3001 -0.3080
  968MOL0     C33508  -0.511   7.630   6.039  0.8254 -0.1663 -0.2773
  968MOL0     C33509  -0.623   7.732   6.043 -0.2177 -0.7386 -0.4862
  968MOL0     C33510  -0.628   7.807   6.173 -0.4852  1.1098  0.1767
  968MOL0     C33511  -0.637   7.860   6.280  1.0494 -0.3748  0.0502
  968MOL0     C33512  -0.125   7.908   5.809 -0.4149  0.2579 -0.1900
  968MOL0     C33513  -0.027   7.938   5.718  0.2604 -0.4591  1.4012
  968MOL0     C33514  -0.074   7.996   5.583  0.2852 -0.4311  0.2949
  968MOL0     H33515   0.501   7.714   5.658 -0.2729  1.1267  0.6548
  968MOL0     H33516   0.763   7.754   5.581  1.2875  0.7194 -0.0427
  968MOL0     H33517   0.886   8.138   5.599  2.4284 -1.8487  0.9879
  968MOL0     H33518   0.871   8.142   5.420  1.1115 -0.0725 -0.1731
  968MOL0     H33519   1.115   8.032   5.577 -0.2852  5.7495  4.5467
  968MOL0     H33520   1.105   8.053   5.394  3.6525  0.2901  0.8834
  968MOL0     H33521   1.090   8.292   5.424  2.8416 -0.3747 -0.5035
  968MOL0     H33522   1.093   8.259   5.601  1.5682 -0.5181  0.4465
  968MOL0     H33523   1.323   8.190   5.420 -3.0507 -2.8804 -0.3821
  968MOL0     H33524   1.291   8.344   5.491  0.3352 -1.1414 -5.0269
  968MOL0     H33525   1.355   8.086   5.617 -4.1329 -0.6208 -0.0093
  968MOL0     H33526   1.257   8.203   5.712 -0.9216  0.1519 -1.2765
  968MOL0     H33527   1.440   8.372   5.691  1.1581  0.1346  0.1025
  968MOL0     H33528   1.489   8.228   5.773  0.6962 -1.4319 -1.1767
  968MOL0     H33529   1.665   8.309   5.627  0.4135  1.0144 -1.1004
  968MOL0     H33530   1.557   8.304   5.490  2.8180  0.8401 -0.0900
  968MOL0     H33531   1.637   8.041   5.653  3.0115  2.9460  2.1229
  968MOL0     H33532   1.553   8.041   5.511  0.6511 -1.1859  0.4555
  968MOL0     H33533   1.916   8.151   5.605 -1.7952 -0.0723 -0.4401
  968MOL0     H33534   2.075   8.195   5.246 -1.8335  1.6996  0.5999
  968MOL0     H33535   2.149   8.095   5.376 -0.0967 -1.2239 -0.1698
  968MOL0     H33536   2.015   8.351   5.455 -0.7881  0.1167 -0.7520
  968MOL0     H33537   2.167   8.288   5.512  1.0603  0.9369 -1.6511
  968MOL0     H33538   2.148   8.430   5.254  0.6132 -0.0530  0.4207
  968MOL0     H33539   2.207   8.494   5.409 -0.8828  2.1238 -2.4434
  968MOL0     H33540   2.349   8.303   5.227 -0.7859 -0.6348 -0.2112
  968MOL0     H33541   2.405   8.440   5.308 -0.3164  0.2414 -1.2296
  968MOL0     H33542   2.568   8.270   5.639  0.3024  1.7099  0.2558
  968MOL0     H33543   2.770   8.300   5.740  0.4400  0.9925  0.5669
  968MOL0     H33544   2.902   8.369   5.641  0.2363  0.1539  1.0389
  968MOL0     H33545   2.900   8.197   5.689  0.7429  0.6520  0.0826
  968MOL0     H33546   3.127   8.410   5.170 -1.2665 -0.8769  4.1004
  968MOL0     H33547   3.381   8.443   5.112 -1.3512  2.6969  4.5027
  968MOL0     H33548   3.737   8.214   5.224  2.1344 -1.6412 -1.1892
  968MOL0     H33549   3.622   8.112   5.268  2.6864 -2.1281  0.0896
  968MOL0     H33550   3.600   8.037   5.012 -1.6026  0.5273  2.1586
  968MOL0     H33551   3.737   8.137   4.984 -0.7646  0.1038  1.1946
  968MOL0     H33552   3.862   7.995   5.172 -1.6624 -2.1905  2.2789
  968MOL0     H33553   3.848   7.942   4.996 -0.0237 -1.4457 -0.1755
  968MOL0     H33554   3.664   7.780   5.071  0.9212  2.3801 -1.0371
  968MOL0     H33555   3.669   7.837   5.229 -0.7937 -0.3886 -1.5152
  968MOL0     H33556   3.894   7.753   5.273 -1.4458 -2.4841  1.4336
  968MOL0     H33557   3.795   7.630   5.209  0.3928  0.6317  1.2876
  968MOL0     H33558   3.995   7.783   5.045 -0.3182  0.3522 -1.8127
  968MOL0     H33559   3.894   7.645   4.993  1.7294 -0.1247 -1.0881
  968MOL0     H33560   4.014   7.500   5.162  1.6424 -0.6901  0.7074
  968MOL0     H33561   4.110   7.646   5.212  3.2949 -1.4256 -1.3285
  968MOL0     H33562   4.169   7.626   4.973  0.7070 -0.2509  1.0571
  968MOL0     H33563   4.096   7.459   4.979 -0.4808  0.0906  0.0300
  968MOL0     H33564   3.426   8.029   5.229 -3.5616 -2.2732  1.0803
  968MOL0     H33565   3.202   8.007   5.278 -1.0697  0.4374 -1.5310
  968MOL0     H33566   2.781   8.220   5.194 -1.3600 -1.0565 -1.9628
  968MOL0     H33567   2.536   8.227   5.212  1.3740  0.1112 -1.2008
  968MOL0     H33568   0.654   8.155   5.485 -3.9197  0.4686 -1.8754
  968MOL0     H33569   0.438   8.119   5.573 -1.1407 -0.7915  2.7465
  968MOL0     H33570   0.250   7.857   5.902 -0.3826  1.8489  1.5615
  968MOL0     H33571   0.061   7.807   6.068  2.5507  0.4033  0.0400
  968MOL0     H33572  -0.374   7.867   5.996  0.4636  1.3291 -0.8202
  968MOL0     H33573  -0.301   7.750   5.889 -1.6138  0.5878  0.3441
  968MOL0     H33574  -0.370   7.714   6.192  0.3196 -0.1972 -0.0672
  968MOL0     H33575  -0.298   7.588   6.082  0.3666  1.1298 -0.3818
  968MOL0     H33576  -0.501   7.578   5.943 -0.7624 -0.1944 -0.4586
  968MOL0     H33577  -0.539   7.554   6.112  1.5433  0.9798  1.2456
  968MOL0     H33578  -0.718   7.685   6.016  0.6800 -1.8921 -1.7928
  968MOL0     H33579  -0.599   7.804   5.964  2.0887  0.0927  0.8866
  968MOL0     H33580  -0.641   7.921   6.368  2.8277  0.0021 -0.0915
  968MOL0     H33581  -0.231   7.922   5.793 -1.0566 -0.2009  3.0376
  968MOL0     H33582  -0.184   7.995   5.581  0.2500  1.0618 -0.5503
  968MOL0     H33583  -0.049   8.101   5.567  0.0294 -0.2898  0.7896
  968MOL0     H33584  -0.027   7.943   5.500  1.1479 -3.4127  2.5230
  969MOL0     O33585   8.361   2.254   1.039 -0.8294 -0.4383  0.1486
  969MOL0     C33586   8.445   2.173   0.992 -0.4940 -0.2099 -0.2924
  969MOL0     O33587   8.587   2.188   0.985  0.1518  0.3603  0.3282
  969MOL0     C33588   8.645   2.306   1.016  0.1436 -0.6304  0.1600
  969MOL0     C33589   8.598   2.421   1.072  0.4781 -0.6147  0.0315
  969MOL0     C33590   8.675   2.537   1.096 -0.3559  0.1798  0.1792
  969MOL0     C33591   8.811   2.534   1.050  1.5502 -0.2388 -0.6087
  969MOL0     O33592   8.883   2.652   1.055 -0.5272  0.3162 -0.1381
  969MOL0     C33593   8.923   2.696   1.186  0.0370 -0.3011  0.2698
  969MOL0     C33594   8.975   2.841   1.164 -0.0489 -0.4726  0.0527
  969MOL0     C33595   9.130   2.858   1.178  0.0589  0.3693  0.5219
  969MOL0     C33596   9.198   2.781   1.067  1.0778 -0.3293 -0.4236
  969MOL0     C33597   9.347   2.767   1.086 -0.5353  0.1549  0.4230
  969MOL0     C33598   9.416   2.704   0.961  0.9453  0.5539 -0.0022
  969MOL0     C33599   9.358   2.562   0.927  0.0099 -1.2047  0.0011
  969MOL0     C33600   9.364   2.458   1.046  0.6178 -0.0123 -0.1839
  969MOL0     N33601   9.346   2.326   0.978  0.6959  0.3883 -0.4227
  969MOL0     C33602   9.451   2.242   0.952 -0.3876  0.1753  0.1661
  969MOL0     C33603   9.392   2.119   0.926 -0.7328  0.8408  0.0665
  969MOL0     C33604   9.465   1.999   0.889  0.1007 -0.1024 -0.3126
  969MOL0     C33605   9.519   1.928   1.022 -0.2325 -0.2572  0.6526
  969MOL0     C33606   9.615   1.809   0.977 -0.5567  0.0205 -0.9827
  969MOL0     C33607   9.662   1.723   1.094 -0.2658 -0.6460 -0.4800
  969MOL0     O33608   9.671   1.585   1.041 -0.1348 -0.2258 -1.4203
  969MOL0     C33609   9.723   1.489   1.123 -0.8959 -0.4487 -0.0960
  969MOL0     C33610   9.734   1.366   1.064  0.7257  0.8493 -1.1084
  969MOL0     C33611   9.787   1.257   1.134  1.2757 -0.7655  0.1258
  969MOL0     C33612   9.814   1.136   1.054  0.4466  0.6949 -0.1042
  969MOL0     C33613   9.821   1.284   1.272 -0.2667 -0.0902 -0.1011
  969MOL0     C33614   9.908   1.182   1.355  0.6989  0.6096 -0.4969
  969MOL0     O33615   9.930   1.216   1.484 -0.2434 -0.1400 -0.1928
  969MOL0     C33616  10.012   1.145   1.567 -0.1449  0.5244 -0.0461
  969MOL0     C33617  10.139   1.095   1.535 -0.3988 -0.0278 -0.5630
  969MOL0     C33618  10.222   1.020   1.626 -0.2211  0.3781  0.2317
  969MOL0     C33619  10.179   1.004   1.761 -0.3146 -0.5572 -0.1413
  969MOL0     O33620  10.247   0.940   1.864 -0.0947 -1.4907 -0.2890
  969MOL0     C33621  10.363   0.869   1.818 -0.3089 -0.0878 -0.7716
  969MOL0     C33622  10.450   0.827   1.938  0.1075  0.0061 -0.1921
  969MOL0     C33623  10.575   0.755   1.898  0.0464  0.7879 -0.7401
  969MOL0     C33624  10.687   0.854   1.900 -1.2213 -0.0943 -0.6581
  969MOL0     C33625  10.822   0.788   1.868 -0.3269  0.3426  0.0688
  969MOL0     C33626  10.873   0.701   1.983 -0.3323  0.4674  0.3830
  969MOL0     C33627  11.022   0.675   1.949  0.3686 -0.2611 -0.3543
  969MOL0     C33628  11.112   0.785   1.979 -0.7358  0.5049 -0.6777
  969MOL0    Cl33629  11.083   0.871   2.135 -0.0159 -0.7079 -0.1451
  969MOL0     C33630  10.052   1.059   1.796 -0.5686 -0.4030 -0.8923
  969MOL0     C33631   9.976   1.124   1.698  0.0791  0.5867  0.1833
  969MOL0     O33632   9.944   1.074   1.308  0.0067 -0.5581 -0.0893
  969MOL0     C33633   9.785   1.406   1.333  0.6489  0.6727  0.6231
  969MOL0     C33634   9.748   1.509   1.260 -0.5115  0.5031  0.7508
  969MOL0     N33635   9.262   2.135   0.963  0.2297  0.6645 -0.1122
  969MOL0     N33636   9.233   2.254   0.989  0.3171  0.5526  0.6895
  969MOL0     C33637   8.859   2.420   0.984  0.3417  0.6083 -0.0643
  969MOL0     C33638   8.774   2.308   0.961 -0.4699  0.0815 -0.3291
  969MOL0     C33639   8.379   2.049   0.947  0.1598  0.0799 -0.9686
  969MOL0     C33640   8.453   1.932   0.965  0.6672 -0.0542 -0.1098
  969MOL0     C33641   8.407   1.803   0.924  0.7947  0.0851  0.3632
  969MOL0     C33642   8.285   1.789   0.858  1.1303 -0.0956  0.5030
  969MOL0     O33643   8.236   1.672   0.825  0.6863  1.0623 -0.3428
  969MOL0     C33644   8.314   1.593   0.736 -0.3828 -0.4377 -0.2174
  969MOL0     C33645   8.233   1.489   0.655 -0.6601  0.0849 -0.0775
  969MOL0     C33646   8.320   1.389   0.574 -0.8029  0.8572  0.1206
  969MOL0     C33647   8.251   1.316   0.455 -0.8393 -0.6321  0.5656
  969MOL0     C33648   8.132   1.256   0.497 -0.0046  1.1699  0.0256
  969MOL0     C33649   8.027   1.209   0.539  0.2908 -0.0775  0.0156
  969MOL0     C33650   8.208   1.903   0.858  0.5329 -0.2308  0.3569
  969MOL0     C33651   8.252   2.031   0.889  0.0843  0.1949  0.6391
  969MOL0     C33652   8.161   2.143   0.846  0.6264  0.2241  0.2280
  969MOL0     H33653   8.496   2.443   1.101 -0.2102 -0.3763 -2.3884
  969MOL0     H33654   8.639   2.621   1.154 -0.4595  0.6468 -0.5434
  969MOL0     H33655   8.993   2.635   1.245 -1.0405 -1.7405  0.1052
  969MOL0     H33656   8.831   2.706   1.244 -0.8081  1.7414 -1.3003
  969MOL0     H33657   8.941   2.872   1.065  3.2548 -2.8936 -2.0377
  969MOL0     H33658   8.925   2.910   1.234  0.0692  1.9094 -2.0651
  969MOL0     H33659   9.152   2.964   1.165 -1.5672  0.5724 -0.9838
  969MOL0     H33660   9.157   2.819   1.277 -0.6058  1.2296  1.0638
  969MOL0     H33661   9.150   2.683   1.058  2.2125 -0.9465  0.0026
  969MOL0     H33662   9.179   2.840   0.977  1.5531 -1.1690 -1.0912
  969MOL0     H33663   9.361   2.704   1.174 -0.9544 -1.5498 -0.6835
  969MOL0     H33664   9.403   2.860   1.103  2.5087 -0.9995 -2.1963
  969MOL0     H33665   9.381   2.759   0.873 -0.3651 -1.7496 -1.0377
  969MOL0     H33666   9.525   2.698   0.967  0.9794  0.6301 -0.4929
  969MOL0     H33667   9.417   2.525   0.843 -1.7411 -2.8124 -0.6032
  969MOL0     H33668   9.258   2.572   0.884 -0.1928 -1.5087  0.4043
  969MOL0     H33669   9.457   2.464   1.104 -0.8079  1.4980  2.1231
  969MOL0     H33670   9.286   2.474   1.121  1.7199 -3.0358  1.8367
  969MOL0     H33671   9.554   2.273   0.957 -1.0967  2.4888  2.4415
  969MOL0     H33672   9.544   2.031   0.821 -1.9919  1.8654 -1.9836
  969MOL0     H33673   9.405   1.928   0.831 -1.3339  0.1836  0.7726
  969MOL0     H33674   9.571   1.998   1.089  1.4215 -0.1139 -0.6917
  969MOL0     H33675   9.437   1.882   1.077 -1.7423 -0.2662 -1.4751
  969MOL0     H33676   9.562   1.742   0.908 -0.3900 -1.6713  0.4566
  969MOL0     H33677   9.701   1.845   0.918  1.1025 -1.8102  0.1680
  969MOL0     H33678   9.761   1.752   1.131 -0.3582 -0.7496 -0.1465
  969MOL0     H33679   9.592   1.731   1.177  1.6049  0.2258  1.0874
  969MOL0     H33680   9.676   1.366   0.972  0.2086 -0.8785 -0.7961
  969MOL0     H33681   9.918   1.103   1.045  0.0514 -0.3589 -1.0320
  969MOL0     H33682   9.777   1.137   0.951 -0.5775 -0.6377  0.2351
  969MOL0     H33683   9.755   1.063   1.110  1.8718  0.3511  1.0015
  969MOL0     H33684  10.165   1.098   1.430 -0.4227  0.5193 -0.5563
  969MOL0     H33685  10.321   0.994   1.590 -0.1237  1.7663 -0.5874
  969MOL0     H33686  10.322   0.783   1.763 -0.1377  0.2621 -1.4496
  969MOL0     H33687  10.423   0.946   1.770 -0.9785  0.9611  0.0175
  969MOL0     H33688  10.474   0.919   1.993  2.0278 -0.5515 -0.0561
  969MOL0     H33689  10.394   0.761   2.005 -0.7415 -0.7612 -1.6001
  969MOL0     H33690  10.571   0.703   1.802  0.1044  0.5644 -0.6231
  969MOL0     H33691  10.603   0.688   1.980 -0.8292  0.7282 -0.4701
  969MOL0     H33692  10.698   0.906   1.995 -0.1183  0.3687 -1.0277
  969MOL0     H33693  10.683   0.942   1.835 -1.4751  0.6957  0.3908
  969MOL0     H33694  10.797   0.719   1.787  0.2381  0.1845  0.0239
  969MOL0     H33695  10.902   0.855   1.833  0.3535  0.7333  2.2040
  969MOL0     H33696  10.833   0.600   1.975  1.8230 -0.3734 -0.4789
  969MOL0     H33697  10.857   0.740   2.084 -1.9942  0.9230 -0.0354
  969MOL0     H33698  11.033   0.642   1.845 -0.8629 -1.0565 -0.2485
  969MOL0     H33699  11.054   0.596   2.018 -1.3573 -0.1525  0.5924
  969MOL0     H33700  11.113   0.860   1.899  1.3359  0.9386 -0.3066
  969MOL0     H33701  11.211   0.741   1.990 -1.2993 -0.3957  1.1670
  969MOL0     H33702  10.013   1.036   1.894  0.4333 -2.0378 -0.8409
  969MOL0     H33703   9.877   1.162   1.722  0.3817  1.4073  0.1655
  969MOL0     H33704   9.811   1.418   1.438 -3.6605  0.5634  1.9022
  969MOL0     H33705   9.747   1.612   1.293  0.9847  1.2364 -1.2951
  969MOL0     H33706   8.961   2.408   0.949  0.3094 -1.0044  0.3006
  969MOL0     H33707   8.820   2.229   0.902  0.7884 -1.3690  2.4465
  969MOL0     H33708   8.549   1.946   1.015  1.1663 -1.0498 -0.7686
  969MOL0     H33709   8.470   1.715   0.937  0.6216  0.0766  1.1562
  969MOL0     H33710   8.363   1.666   0.672  0.1048  2.0770  2.7847
  969MOL0     H33711   8.390   1.544   0.798  2.9039  3.6604 -0.5918
  969MOL0     H33712   8.177   1.551   0.584  1.1281  1.6951 -0.1501
  969MOL0     H33713   8.168   1.432   0.722 -0.0109 -1.2801 -0.5806
  969MOL0     H33714   8.405   1.451   0.542 -0.9086  1.3799  0.8437
  969MOL0     H33715   8.347   1.311   0.645  1.2225 -0.4648 -1.9493
  969MOL0     H33716   8.309   1.238   0.405  0.5332  1.4041 -1.1465
  969MOL0     H33717   8.222   1.395   0.386 -0.9733 -2.0786 -1.0873
  969MOL0     H33718   7.935   1.164   0.573  0.8992  0.1229  2.0107
  969MOL0     H33719   8.114   1.883   0.808  0.1001 -0.2514  1.1685
  969MOL0     H33720   8.113   2.194   0.929 -0.0570  0.2953 -0.2074
  969MOL0     H33721   8.221   2.209   0.783 -1.5101  1.0542 -1.0395
  969MOL0     H33722   8.071   2.108   0.795 -1.2324  0.6470  3.0086
  970MOL0     O33723   2.430   5.873   0.967 -0.3563  0.1618 -0.2953
  970MOL0     C33724   2.451   5.754   0.995  0.7793  0.3655 -0.0801
  970MOL0     O33725   2.568   5.695   0.954  0.2759  0.2556 -0.0119
  970MOL0     C33726   2.666   5.773   0.889 -0.0263 -1.2494 -0.2060
  970MOL0     C33727   2.766   5.851   0.948  1.3303  0.7143  0.4277
  970MOL0     C33728   2.850   5.930   0.876  0.0069 -0.5098  0.4129
  970MOL0     C33729   2.838   5.932   0.733  0.3433 -0.1425  0.1185
  970MOL0     O33730   2.922   6.014   0.664 -0.0996 -0.7381  1.0538
  970MOL0     C33731   3.045   6.052   0.715 -0.0326 -0.6982  0.3447
  970MOL0     C33732   3.139   6.088   0.601  0.2351  0.9733 -0.5827
  970MOL0     C33733   3.154   5.978   0.492  0.0037  0.1206  0.1566
  970MOL0     C33734   3.190   5.841   0.544 -0.6436  0.2156  0.3769
  970MOL0     C33735   3.245   5.758   0.424 -0.1378 -0.5039 -0.4485
  970MOL0     C33736   3.278   5.614   0.457  0.3354 -0.5065 -0.2331
  970MOL0     C33737   3.375   5.552   0.351  0.5639  0.8374 -0.7404
  970MOL0     C33738   3.310   5.525   0.212 -0.9059 -0.8818 -0.4526
  970MOL0     N33739   3.251   5.394   0.192 -0.2046  0.2181 -1.0078
  970MOL0     C33740   3.323   5.281   0.226 -0.4909 -0.3861  0.3800
  970MOL0     C33741   3.257   5.172   0.173  0.4575  0.1159  0.4434
  970MOL0     C33742   3.303   5.034   0.173  0.3332  1.1573 -0.2065
  970MOL0     C33743   3.454   5.016   0.153 -0.2491 -0.3348  0.5392
  970MOL0     C33744   3.493   4.877   0.110  0.0960 -0.6911 -0.2190
  970MOL0     C33745   3.497   4.779   0.227 -0.1553  0.8744 -0.0549
  970MOL0     O33746   3.586   4.829   0.324  0.7762  0.9129  0.1697
  970MOL0     C33747   3.719   4.809   0.309  0.6450  0.0792  0.0153
  970MOL0     C33748   3.795   4.846   0.422 -0.6086  0.0971 -0.4075
  970MOL0     C33749   3.928   4.801   0.428 -0.5569  0.2386  0.5243
  970MOL0     C33750   3.995   4.817   0.563  0.4178 -0.8682 -0.1695
  970MOL0     C33751   4.004   4.745   0.320 -0.7086 -0.2006 -0.2999
  970MOL0     C33752   4.146   4.726   0.316  0.4541  0.1586 -0.4442
  970MOL0     O33753   4.193   4.628   0.228  0.1866  0.3322 -0.1132
  970MOL0     C33754   4.328   4.600   0.213 -0.1599  0.4073 -0.0797
  970MOL0     C33755   4.365   4.585   0.078 -0.0066 -0.2190 -0.3487
  970MOL0     C33756   4.494   4.545   0.036 -0.6680  0.0639 -0.0133
  970MOL0     C33757   4.592   4.534   0.134 -0.4199 -0.1428 -0.2405
  970MOL0     O33758   4.725   4.506   0.096 -0.2689  0.5453 -0.7999
  970MOL0     C33759   4.809   4.624   0.104  0.4168  0.3134  0.7212
  970MOL0     C33760   4.957   4.580   0.106  0.1554  0.2356  0.0354
  970MOL0     C33761   4.993   4.487  -0.015  0.0191  0.8228  0.3447
  970MOL0     C33762   5.138   4.461  -0.011 -0.4847 -0.7215 -0.7492
  970MOL0     C33763   5.185   4.396  -0.133 -0.5842 -0.0688 -0.2733
  970MOL0     C33764   5.332   4.377  -0.136  0.6063  0.0895  0.6903
  970MOL0     C33765   5.384   4.340  -0.279  0.6966 -0.2495 -0.4356
  970MOL0     C33766   5.384   4.452  -0.377 -0.6936 -0.2302  0.0084
  970MOL0    Cl33767   5.237   4.464  -0.475  0.2944  0.4078  0.0136
  970MOL0     C33768   4.556   4.537   0.268 -0.7854 -0.8422 -0.5858
  970MOL0     C33769   4.426   4.576   0.308  0.6452  0.7107 -0.1124
  970MOL0     O33770   4.220   4.813   0.372  0.7463  0.3239  0.4371
  970MOL0     C33771   3.926   4.718   0.205 -1.1192  0.0970 -0.9005
  970MOL0     C33772   3.790   4.743   0.200  0.4545 -0.5689 -0.4231
  970MOL0     N33773   3.126   5.221   0.135 -0.6607 -0.4152 -0.2458
  970MOL0     N33774   3.127   5.351   0.161  0.1756 -0.0506 -0.2347
  970MOL0     C33775   2.753   5.839   0.671 -0.4524 -0.0051  0.0121
  970MOL0     C33776   2.662   5.767   0.746  0.1780 -0.0623  0.0204
  970MOL0     C33777   2.355   5.658   1.061 -1.4521 -0.9379  0.3426
  970MOL0     C33778   2.407   5.528   1.080  0.1878  0.0166 -0.1875
  970MOL0     C33779   2.326   5.418   1.121  0.9588  0.1853  0.2267
  970MOL0     C33780   2.194   5.447   1.162  0.1304 -0.3710  0.4703
  970MOL0     O33781   2.103   5.358   1.205 -0.0185 -0.4974 -0.1346
  970MOL0     C33782   2.106   5.326   1.342 -0.7209 -0.7646  0.3101
  970MOL0     C33783   2.121   5.175   1.362 -1.4378  0.1678  0.2637
  970MOL0     C33784   2.008   5.087   1.332  0.0888  0.0675 -0.5034
  970MOL0     C33785   2.043   4.937   1.339 -0.6869  0.0247 -0.3109
  970MOL0     C33786   1.936   4.854   1.295 -0.2890  0.7023  0.8716
  970MOL0     C33787   1.854   4.784   1.239  0.9076 -0.1456 -0.0631
  970MOL0     C33788   2.147   5.582   1.162 -0.5290  0.1407 -0.0181
  970MOL0     C33789   2.219   5.685   1.095  0.4166 -0.2440  0.1432
  970MOL0     C33790   2.145   5.823   1.058  0.4694 -0.7290  1.2084
  970MOL0     H33791   2.774   5.837   1.056 -3.3011 -0.7574  0.8235
  970MOL0     H33792   2.922   5.989   0.931 -0.5203 -0.5779  1.1812
  970MOL0     H33793   3.095   5.967   0.763  0.3787 -0.3383  0.5653
  970MOL0     H33794   3.026   6.140   0.777 -0.2023 -1.7320  1.8056
  970MOL0     H33795   3.098   6.179   0.556 -0.4903  0.6954 -0.5080
  970MOL0     H33796   3.237   6.103   0.646 -0.2718  0.2267  0.8318
  970MOL0     H33797   3.058   5.981   0.440  0.5342  0.9129 -0.8380
  970MOL0     H33798   3.218   6.032   0.421  2.8973 -0.2077  2.3371
  970MOL0     H33799   3.260   5.850   0.627  0.6984 -0.5460 -0.6201
  970MOL0     H33800   3.116   5.778   0.594  2.5497 -1.8515  2.9196
  970MOL0     H33801   3.336   5.813   0.399 -0.3364 -0.2429 -0.5931
  970MOL0     H33802   3.170   5.759   0.344 -0.9658 -3.7950  0.1147
  970MOL0     H33803   3.331   5.613   0.553 -1.4454 -0.2298  0.8067
  970MOL0     H33804   3.195   5.547   0.485  0.0621 -1.0835 -2.2904
  970MOL0     H33805   3.406   5.460   0.400  0.0069 -0.5640 -2.9135
  970MOL0     H33806   3.459   5.620   0.332  2.7625 -0.9203  1.8804
  970MOL0     H33807   3.244   5.605   0.178 -2.1523 -0.7024  2.1237
  970MOL0     H33808   3.395   5.530   0.143  0.7396 -3.4824  1.2018
  970MOL0     H33809   3.419   5.273   0.276  0.0662 -2.5866 -0.9161
  970MOL0     H33810   3.241   4.976   0.104  0.9788  1.7578 -1.3283
  970MOL0     H33811   3.279   4.998   0.273  0.4991  1.3010 -0.1143
  970MOL0     H33812   3.485   5.083   0.073 -0.7736 -1.6547 -0.8125
  970MOL0     H33813   3.491   5.043   0.252  1.1230  0.5944 -0.2052
  970MOL0     H33814   3.419   4.859   0.032 -0.2944  2.0780 -0.5858
  970MOL0     H33815   3.593   4.894   0.068  0.9900  2.1112  2.5738
  970MOL0     H33816   3.393   4.773   0.260 -1.3985  2.0165 -3.3187
  970MOL0     H33817   3.529   4.681   0.190  2.5590  1.0708  1.5100
  970MOL0     H33818   3.745   4.888   0.510  0.7721  1.0957 -0.0600
  970MOL0     H33819   4.086   4.877   0.560  1.9934 -3.1543 -2.1642
  970MOL0     H33820   4.025   4.725   0.615  2.0222 -1.6412 -2.3315
  970MOL0     H33821   3.925   4.871   0.628  1.0161  0.0806 -0.2966
  970MOL0     H33822   4.281   4.589   0.009 -1.5131 -0.1368  1.4092
  970MOL0     H33823   4.522   4.522  -0.066  0.4682 -0.9415  0.5068
  970MOL0     H33824   4.772   4.681   0.018  2.5774  3.9872  1.9748
  970MOL0     H33825   4.796   4.681   0.197  2.9418 -0.8383  1.8608
  970MOL0     H33826   5.009   4.676   0.095 -2.1674  2.1839  3.7961
  970MOL0     H33827   4.987   4.543   0.205 -0.6784 -0.3584  0.0672
  970MOL0     H33828   4.967   4.535  -0.110  0.5833  0.9342  0.2426
  970MOL0     H33829   4.924   4.403  -0.005 -0.7655  1.1601 -1.7187
  970MOL0     H33830   5.163   4.413   0.084  2.4769  2.1598  0.1120
  970MOL0     H33831   5.191   4.557  -0.011 -1.5679 -0.1099  0.2186
  970MOL0     H33832   5.140   4.297  -0.143  2.1912 -1.5700  1.0659
  970MOL0     H33833   5.150   4.454  -0.219 -3.3841  0.0629  0.8429
  970MOL0     H33834   5.363   4.305  -0.060 -1.5468 -0.2626  1.3195
  970MOL0     H33835   5.389   4.469  -0.120  0.5968  0.2181  0.0049
  970MOL0     H33836   5.329   4.258  -0.326  1.3633 -1.7629  1.2480
  970MOL0     H33837   5.488   4.308  -0.262  0.0535 -2.0432  0.4327
  970MOL0     H33838   5.466   4.446  -0.450 -0.0622 -0.2358  0.7042
  970MOL0     H33839   5.413   4.546  -0.328 -0.9493 -0.9350  1.5786
  970MOL0     H33840   4.630   4.511   0.343 -0.9072 -1.5196 -0.6891
  970MOL0     H33841   4.395   4.566   0.412 -0.1602  1.0045 -0.3203
  970MOL0     H33842   3.977   4.684   0.115 -2.1798  1.1741 -1.9371
  970MOL0     H33843   3.732   4.719   0.112 -0.9867  1.4179 -0.0801
  970MOL0     H33844   2.766   5.810   0.567 -1.6086  0.2208 -0.2092
  970MOL0     H33845   2.587   5.694   0.714  2.4481 -3.6557  2.1703
  970MOL0     H33846   2.509   5.501   1.053 -0.4244 -1.0031 -1.6821
  970MOL0     H33847   2.364   5.317   1.117 -0.2864 -0.3167  0.6059
  970MOL0     H33848   2.189   5.387   1.378 -1.0600 -0.3905  0.4720
  970MOL0     H33849   2.008   5.354   1.383 -2.1225  0.3074 -3.3266
  970MOL0     H33850   2.163   5.160   1.461  2.7790 -0.7929 -1.4634
  970MOL0     H33851   2.207   5.149   1.300 -1.8658 -0.3427 -0.1233
  970MOL0     H33852   1.943   5.096   1.420  2.8522 -1.5859  1.8917
  970MOL0     H33853   1.962   5.119   1.238  0.3370 -1.4002 -1.1469
  970MOL0     H33854   2.047   4.914   1.446 -0.2031 -0.4731 -0.4290
  970MOL0     H33855   2.134   4.919   1.280 -1.2857 -2.4745 -0.5700
  970MOL0     H33856   1.767   4.745   1.190  1.6658 -1.2036 -0.6148
  970MOL0     H33857   2.043   5.597   1.188 -1.5104 -1.8463 -2.3484
  970MOL0     H33858   2.040   5.797   1.073  0.6753 -2.7050 -0.2282
  970MOL0     H33859   2.175   5.905   1.123  1.6381 -2.2327  2.6456
  970MOL0     H33860   2.152   5.851   0.953  0.6835 -1.8604  0.8984
  971MOL0     O33861   3.633  11.368   1.322 -0.4895 -0.9363  0.5488
  971MOL0     C33862   3.647  11.459   1.240  0.1410  0.3694  0.8767
  971MOL0     O33863   3.764  11.529   1.215  0.0452 -0.7035 -0.6689
  971MOL0     C33864   3.889  11.500   1.270 -0.3129 -0.1354  0.3729
  971MOL0     C33865   3.925  11.372   1.318  0.1795  0.0969  0.4464
  971MOL0     C33866   4.042  11.362   1.388  0.5747  0.1591  0.2494
  971MOL0     C33867   4.118  11.473   1.423  0.3165 -0.2373  0.7314
  971MOL0     O33868   4.238  11.434   1.492  0.2805  0.2441 -0.0691
  971MOL0     C33869   4.310  11.544   1.544 -0.6487 -0.4654 -0.4376
  971MOL0     C33870   4.418  11.516   1.651  0.5254  0.0266 -0.0035
  971MOL0     C33871   4.545  11.462   1.581  0.4938  0.0071  0.3245
  971MOL0     C33872   4.667  11.432   1.661  0.1955  0.2116 -0.5514
  971MOL0     C33873   4.776  11.385   1.571 -0.7351  0.7083  0.4164
  971MOL0     C33874   4.898  11.357   1.659 -0.1995 -0.5719 -0.7751
  971MOL0     C33875   4.954  11.493   1.718  0.2776 -0.2350  1.7591
  971MOL0     C33876   5.084  11.470   1.800 -0.1303  0.3208  0.1101
  971MOL0     N33877   5.138  11.600   1.839 -0.0532  0.0050 -0.0095
  971MOL0     C33878   5.165  11.630   1.972  0.1645 -0.9113 -1.6425
  971MOL0     C33879   5.227  11.757   1.961 -0.6515 -0.2205 -0.2669
  971MOL0     C33880   5.273  11.830   2.081 -0.2651  0.7419  0.5759
  971MOL0     C33881   5.420  11.842   2.065 -0.4382 -0.2279 -0.0067
  971MOL0     C33882   5.492  11.902   2.189 -0.6043  0.4059 -0.3334
  971MOL0     C33883   5.645  11.918   2.167 -0.3211  0.3058  0.0163
  971MOL0     O33884   5.691  12.026   2.251  0.4251 -0.3046  0.1900
  971MOL0     C33885   5.823  12.034   2.257  0.3730  0.2761 -0.6834
  971MOL0     C33886   5.875  12.124   2.338  0.5288 -0.8386  0.0867
  971MOL0     C33887   6.012  12.131   2.358 -1.1974 -0.0382 -1.5024
  971MOL0     C33888   6.052  12.233   2.464 -0.9171  0.6902 -0.4208
  971MOL0     C33889   6.104  12.043   2.291 -0.2416  0.4929 -0.5190
  971MOL0     C33890   6.251  12.039   2.318 -0.0039 -0.0229 -0.1840
  971MOL0     O33891   6.328  11.948   2.245 -0.1172 -0.0411  0.6143
  971MOL0     C33892   6.460  11.972   2.252 -0.6477  0.3368 -1.4607
  971MOL0     C33893   6.527  11.934   2.367  0.4224  0.3854  0.2837
  971MOL0     C33894   6.659  11.975   2.394  0.8734  0.3463 -0.0787
  971MOL0     C33895   6.728  12.054   2.303  0.1436 -0.0047  0.2458
  971MOL0     O33896   6.848  12.122   2.335  0.8811 -0.0337  0.5720
  971MOL0     C33897   6.833  12.219   2.435 -0.0173  0.7348 -0.0358
  971MOL0     C33898   6.962  12.204   2.523  0.3610  0.6493 -0.7614
  971MOL0     C33899   7.083  12.220   2.438 -0.6450  0.6348  1.0046
  971MOL0     C33900   7.207  12.223   2.521  0.3563  0.5005 -0.4818
  971MOL0     C33901   7.317  12.268   2.432  0.0196  0.1815  0.6816
  971MOL0     C33902   7.437  12.318   2.501  0.2512 -0.3994 -0.6570
  971MOL0     C33903   7.540  12.374   2.401 -0.2546  0.5858  0.4473
  971MOL0     C33904   7.649  12.454   2.481  1.0726  0.8881  0.0871
  971MOL0    Cl33905   7.575  12.602   2.538  0.2127  0.2168  0.2805
  971MOL0     C33906   6.666  12.085   2.182 -0.2096 -0.1029  0.2254
  971MOL0     C33907   6.536  12.038   2.154  0.8087 -1.1204 -0.4232
  971MOL0     O33908   6.295  12.116   2.401 -0.6971  0.1211  0.0341
  971MOL0     C33909   6.058  11.947   2.194 -0.2413  0.0355 -0.1399
  971MOL0     C33910   5.916  11.957   2.179 -0.3291  1.2762 -0.6669
  971MOL0     N33911   5.228  11.794   1.828 -0.0129  0.2660 -0.0353
  971MOL0     N33912   5.173  11.701   1.756 -0.2645 -0.0614  0.7117
  971MOL0     C33913   4.086  11.603   1.361  0.2124  0.0412  0.9626
  971MOL0     C33914   3.969  11.610   1.278  0.9303  0.0669  0.5682
  971MOL0     C33915   3.534  11.485   1.144  0.6952 -0.3625  0.1563
  971MOL0     C33916   3.561  11.574   1.038  0.6042 -0.5456  1.0786
  971MOL0     C33917   3.470  11.583   0.928 -0.2573  0.0664 -0.6556
  971MOL0     C33918   3.342  11.529   0.935  0.0796  0.4436 -1.0726
  971MOL0     O33919   3.243  11.556   0.836 -0.6673  0.7528  0.3917
  971MOL0     C33920   3.266  11.656   0.736 -0.0984 -0.2625 -0.2846
  971MOL0     C33921   3.345  11.602   0.616  0.0192 -0.0336 -0.0601
  971MOL0     C33922   3.299  11.476   0.547 -0.3323 -0.1570  0.2993
  971MOL0     C33923   3.142  11.465   0.531 -0.7503  0.8719 -0.1079
  971MOL0     C33924   3.083  11.578   0.442  0.3472  0.2919 -0.2952
  971MOL0     C33925   3.025  11.667   0.381  0.3664 -0.3399  0.3998
  971MOL0     C33926   3.319  11.451   1.051  0.8155 -0.1196 -0.0075
  971MOL0     C33927   3.404  11.429   1.154 -0.5649  0.7412  0.9485
  971MOL0     C33928   3.358  11.340   1.256  0.2766 -0.1430  0.1741
  971MOL0     H33929   3.859  11.287   1.305  1.3863 -0.7568 -0.2519
  971MOL0     H33930   4.074  11.266   1.428 -4.4189 -2.6794 -1.6197
  971MOL0     H33931   4.235  11.605   1.596 -2.5132 -2.2276 -0.9110
  971MOL0     H33932   4.370  11.601   1.473 -0.6953  1.2005  0.7898
  971MOL0     H33933   4.437  11.617   1.688 -0.2323 -1.2271  4.5328
  971MOL0     H33934   4.386  11.443   1.726  1.9206 -0.6082  0.0068
  971MOL0     H33935   4.521  11.375   1.519 -3.7865  1.3399 -0.2251
  971MOL0     H33936   4.577  11.544   1.515 -0.9530  0.4970  0.1890
  971MOL0     H33937   4.683  11.525   1.715 -2.3876 -0.3792  1.4139
  971MOL0     H33938   4.640  11.352   1.730  0.9323 -1.8611 -2.5192
  971MOL0     H33939   4.804  11.468   1.505 -0.3269  1.4082  1.4418
  971MOL0     H33940   4.744  11.292   1.525  0.2054  0.8438 -0.5451
  971MOL0     H33941   4.874  11.286   1.738 -1.8654  0.1738 -0.5755
  971MOL0     H33942   4.979  11.309   1.602 -0.1710 -1.6176  0.1174
  971MOL0     H33943   4.881  11.555   1.770  0.5327  1.7360 -0.0726
  971MOL0     H33944   4.972  11.551   1.627 -1.8310 -0.5691  1.0708
  971MOL0     H33945   5.053  11.405   1.882 -2.0497 -1.0178 -1.5960
  971MOL0     H33946   5.155  11.410   1.743 -0.7595 -2.2826  1.9000
  971MOL0     H33947   5.142  11.575   2.062 -1.0207  0.8281 -0.8337
  971MOL0     H33948   5.251  11.771   2.170 -0.2509 -0.0480  0.0578
  971MOL0     H33949   5.225  11.928   2.084 -2.3175 -0.2155  0.2856
  971MOL0     H33950   5.473  11.747   2.050  0.7921  0.6238 -1.3254
  971MOL0     H33951   5.441  11.902   1.976  0.1633  1.6025  1.3122
  971MOL0     H33952   5.433  11.988   2.220 -2.6053 -1.0388  0.0886
  971MOL0     H33953   5.495  11.825   2.267  2.4024  0.1576 -0.5708
  971MOL0     H33954   5.694  11.821   2.181 -0.5821 -0.2520 -2.4771
  971MOL0     H33955   5.663  11.944   2.062 -0.9151  1.1037  0.1062
  971MOL0     H33956   5.805  12.191   2.386  0.6138  2.2095 -3.5787
  971MOL0     H33957   5.962  12.278   2.508  0.0397  2.4249 -0.1533
  971MOL0     H33958   6.120  12.311   2.428 -0.2076  0.4758  0.4218
  971MOL0     H33959   6.091  12.174   2.547 -1.4008 -1.5128 -1.6751
  971MOL0     H33960   6.466  11.889   2.445  0.8443 -1.4867 -0.4112
  971MOL0     H33961   6.700  11.944   2.490 -0.3432  1.7223  0.9364
  971MOL0     H33962   6.814  12.319   2.396  0.3203  1.5438  1.7414
  971MOL0     H33963   6.748  12.190   2.497 -0.0498  2.1866  0.6267
  971MOL0     H33964   6.954  12.281   2.601  1.1429  1.0688 -1.0902
  971MOL0     H33965   6.953  12.109   2.575  0.7610  0.5089 -0.9479
  971MOL0     H33966   7.067  12.309   2.376 -0.1416  0.9052  1.2629
  971MOL0     H33967   7.089  12.144   2.360 -0.6448  0.9087  0.7345
  971MOL0     H33968   7.232  12.123   2.558 -1.5958  0.2545  0.2747
  971MOL0     H33969   7.202  12.284   2.612  1.2272 -1.9153  1.2935
  971MOL0     H33970   7.338  12.184   2.365  0.8052  0.1702  0.9367
  971MOL0     H33971   7.279  12.352   2.372  2.1118  0.6010 -0.1403
  971MOL0     H33972   7.480  12.241   2.567  1.3385  0.9766  0.3010
  971MOL0     H33973   7.419  12.403   2.567  1.8784  0.0528 -0.7512
  971MOL0     H33974   7.480  12.423   2.324  2.0298 -0.1487 -1.9694
  971MOL0     H33975   7.587  12.295   2.342 -1.1809  1.8875 -2.1866
  971MOL0     H33976   7.735  12.479   2.418 -0.5266  5.8735 -0.5259
  971MOL0     H33977   7.678  12.393   2.568 -2.5986  0.5256  1.2253
  971MOL0     H33978   6.717  12.149   2.111 -1.5532  0.2415 -0.4797
  971MOL0     H33979   6.481  12.071   2.066 -1.9952 -1.6997  0.9728
  971MOL0     H33980   6.117  11.877   2.137  1.9862  0.9802  0.8604
  971MOL0     H33981   5.885  11.881   2.108  0.4546  1.8373 -1.6438
  971MOL0     H33982   4.140  11.696   1.377  0.0010 -0.0728  2.5597
  971MOL0     H33983   3.935  11.693   1.216 -0.1668 -2.4443 -2.4390
  971MOL0     H33984   3.660  11.616   1.026  0.5243 -0.5586  0.3434
  971MOL0     H33985   3.516  11.651   0.858  2.6516  0.6052  1.6018
  971MOL0     H33986   3.172  11.696   0.697  1.6739  0.9535 -3.7170
  971MOL0     H33987   3.306  11.748   0.781 -0.4441  0.1489 -0.8167
  971MOL0     H33988   3.449  11.587   0.646 -0.2643  0.1672  1.0629
  971MOL0     H33989   3.347  11.677   0.537  0.1022 -0.0817 -0.1045
  971MOL0     H33990   3.350  11.469   0.450  0.8775  0.9322  0.8339
  971MOL0     H33991   3.334  11.397   0.613 -0.7656  1.1186  2.1258
  971MOL0     H33992   3.097  11.442   0.628 -0.5439 -1.2486 -0.4826
  971MOL0     H33993   3.128  11.369   0.482 -3.6542 -0.9040  3.6379
  971MOL0     H33994   2.986  11.752   0.329 -0.1924 -0.7569  0.1361
  971MOL0     H33995   3.225  11.397   1.060  2.0817 -2.7665 -1.4434
  971MOL0     H33996   3.250  11.329   1.250  0.2494  0.1392  0.1209
  971MOL0     H33997   3.408  11.243   1.253 -0.9681 -0.8091 -2.9105
  971MOL0     H33998   3.389  11.381   1.353  0.4698  0.1056  0.0094
  972MOL0     O33999   1.343   7.226   1.465  0.9250 -0.3142  0.3847
  972MOL0     C34000   1.317   7.137   1.542 -0.5122 -0.1805 -1.1597
  972MOL0     O34001   1.413   7.083   1.629 -0.5835  0.6252 -0.1321
  972MOL0     C34002   1.540   7.124   1.599  0.6335 -0.9071  0.7390
  972MOL0     C34003   1.602   7.220   1.678 -0.0660  0.4222  1.1306
  972MOL0     C34004   1.730   7.268   1.637  0.2060 -0.8438 -0.5616
  972MOL0     C34005   1.797   7.223   1.526 -0.5708  0.1681 -0.6026
  972MOL0     O34006   1.921   7.270   1.487  0.5925 -0.1066  0.0289
  972MOL0     C34007   1.995   7.320   1.594  0.0744 -0.0700  0.1952
  972MOL0     C34008   2.133   7.314   1.540 -0.4077  0.2077  0.2607
  972MOL0     C34009   2.237   7.398   1.623 -0.2514  0.3009 -0.2219
  972MOL0     C34010   2.348   7.319   1.702 -0.1478  0.1374 -0.1407
  972MOL0     C34011   2.448   7.427   1.757  0.5397 -0.0150 -0.0224
  972MOL0     C34012   2.538   7.489   1.644  0.2855 -0.2524 -0.4820
  972MOL0     C34013   2.663   7.577   1.672 -0.2374  0.0867 -0.0717
  972MOL0     C34014   2.770   7.523   1.768  0.2398 -0.4124  0.1873
  972MOL0     N34015   2.870   7.615   1.812 -0.7088 -0.0646 -0.1776
  972MOL0     C34016   2.892   7.743   1.775  0.4047  0.1254  0.1362
  972MOL0     C34017   3.012   7.779   1.818 -0.2680 -1.0632 -0.3755
  972MOL0     C34018   3.068   7.916   1.780  0.3711 -0.6130 -1.3845
  972MOL0     C34019   3.204   7.882   1.726 -0.3611  0.2269 -0.2670
  972MOL0     C34020   3.273   8.016   1.669 -0.3163  0.5355 -0.1392
  972MOL0     C34021   3.425   7.992   1.638  0.2963  0.3188  0.2408
  972MOL0     O34022   3.499   7.984   1.761 -0.3428  0.5844 -0.1826
  972MOL0     C34023   3.636   7.966   1.753  0.8528  0.0106  0.7964
  972MOL0     C34024   3.701   7.937   1.873  0.5472 -1.1439 -0.0587
  972MOL0     C34025   3.841   7.918   1.880  0.0178 -0.3662  0.6318
  972MOL0     C34026   3.891   7.898   2.019 -0.1108  0.0884  0.1067
  972MOL0     C34027   3.919   7.918   1.759  0.2582  0.2980  0.5031
  972MOL0     C34028   4.059   7.881   1.755  0.2862  0.2260 -0.4322
  972MOL0     O34029   4.122   7.903   1.639 -0.4925 -0.4954  0.1788
  972MOL0     C34030   4.257   7.871   1.624 -0.8303 -0.6696  0.7592
  972MOL0     C34031   4.364   7.894   1.711  0.0234  0.3646 -0.3597
  972MOL0     C34032   4.498   7.877   1.678  0.0295  0.3434  0.0037
  972MOL0     C34033   4.535   7.834   1.546  0.5369 -0.4060 -1.1951
  972MOL0     O34034   4.666   7.826   1.501 -0.2439  0.1103 -0.3931
  972MOL0     C34035   4.770   7.867   1.592  0.1208  0.9557 -0.0665
  972MOL0     C34036   4.902   7.843   1.516 -0.1489 -0.2515  0.7860
  972MOL0     C34037   5.026   7.882   1.595  0.1314 -0.1562  0.1110
  972MOL0     C34038   5.149   7.893   1.503  0.3555 -0.2655 -1.1887
  972MOL0     C34039   5.277   7.877   1.580  0.2129 -0.3493  0.0277
  972MOL0     C34040   5.399   7.911   1.487 -0.0177  0.5260  0.1579
  972MOL0     C34041   5.531   7.853   1.549 -0.0360 -0.2481  0.1477
  972MOL0     C34042   5.652   7.864   1.448  0.1785  1.0506  0.2564
  972MOL0    Cl34043   5.808   7.791   1.497 -0.0317 -0.5768 -0.0671
  972MOL0     C34044   4.427   7.789   1.468 -0.6026  0.4740 -0.4590
  972MOL0     C34045   4.294   7.811   1.506  0.4600 -0.8346  0.2210
  972MOL0     O34046   4.101   7.812   1.852  0.1085  0.0031  0.7019
  972MOL0     C34047   3.848   7.968   1.648  0.0368 -0.3704 -0.1104
  972MOL0     C34048   3.707   7.988   1.639 -0.4795  0.4728  0.1459
  972MOL0     N34049   3.062   7.683   1.908  0.1375  0.2965  0.5382
  972MOL0     N34050   2.977   7.578   1.892  0.2098 -0.1801  0.3859
  972MOL0     C34051   1.734   7.127   1.449  0.4111 -0.2210  0.7793
  972MOL0     C34052   1.606   7.088   1.480  0.6975  0.5538 -0.4615
  972MOL0     C34053   1.194   7.068   1.532  0.5085 -0.4170 -0.2702
  972MOL0     C34054   1.187   6.935   1.574  0.5576 -0.0844 -0.3887
  972MOL0     C34055   1.056   6.883   1.595  0.0154  0.5085  0.8917
  972MOL0     C34056   0.934   6.950   1.577  0.3474  0.0354  1.3350
  972MOL0     O34057   0.805   6.902   1.606 -0.6186 -0.1660  0.0652
  972MOL0     C34058   0.797   6.777   1.670 -0.5596 -0.9391  0.2689
  972MOL0     C34059   0.655   6.730   1.702  0.0383 -0.3080  0.0000
  972MOL0     C34060   0.655   6.587   1.703 -0.0079 -0.7586  0.3219
  972MOL0     C34061   0.524   6.522   1.747 -0.4859  0.0196 -0.5128
  972MOL0     C34062   0.485   6.551   1.891 -1.0183  0.4710  0.3122
  972MOL0     C34063   0.438   6.565   2.004 -0.5172 -0.3718  0.5473
  972MOL0     C34064   0.953   7.084   1.528 -0.0738  0.7662  0.4447
  972MOL0     C34065   1.077   7.141   1.512  0.4341  0.3427 -0.9270
  972MOL0     C34066   1.073   7.287   1.468 -1.2444  0.7877  0.1487
  972MOL0     H34067   1.565   7.262   1.771  1.6012 -0.3812  2.2200
  972MOL0     H34068   1.765   7.357   1.689  0.7688 -0.4713 -1.5620
  972MOL0     H34069   1.986   7.267   1.689  0.2485  0.4567  0.5078
  972MOL0     H34070   1.961   7.423   1.610 -2.2480 -0.7879  0.2306
  972MOL0     H34071   2.165   7.211   1.557  0.4852  0.6642  1.4863
  972MOL0     H34072   2.146   7.328   1.433  0.1159 -2.8942 -0.1817
  972MOL0     H34073   2.297   7.458   1.553  0.5147 -1.0082 -0.7159
  972MOL0     H34074   2.195   7.480   1.683  1.4606  2.6195 -1.9866
  972MOL0     H34075   2.289   7.262   1.775 -0.4866  1.2521  0.5002
  972MOL0     H34076   2.399   7.237   1.651 -0.8386 -0.3571 -0.0504
  972MOL0     H34077   2.517   7.379   1.826  2.5620  2.2250 -0.3639
  972MOL0     H34078   2.399   7.505   1.816  1.3248 -1.4056  2.6174
  972MOL0     H34079   2.578   7.396   1.602  1.2810 -0.1719  0.2673
  972MOL0     H34080   2.484   7.536   1.561  1.6146 -0.6836 -1.6234
  972MOL0     H34081   2.612   7.666   1.712 -2.7721  0.4354 -3.6200
  972MOL0     H34082   2.706   7.619   1.581 -1.2594  2.2574  0.3755
  972MOL0     H34083   2.703   7.495   1.850 -3.1723  1.3162 -1.7735
  972MOL0     H34084   2.816   7.433   1.727  2.2219  0.8583 -0.4963
  972MOL0     H34085   2.822   7.796   1.712 -1.7949 -1.1650  1.3725
  972MOL0     H34086   3.083   7.976   1.871  2.4736 -1.8543 -0.8290
  972MOL0     H34087   2.994   7.954   1.710 -1.2028 -2.5207 -0.8616
  972MOL0     H34088   3.258   7.848   1.815 -0.7035  0.0854 -0.1130
  972MOL0     H34089   3.207   7.799   1.654 -0.5101  1.5247 -1.8144
  972MOL0     H34090   3.218   8.034   1.576  1.0454 -0.6877 -1.2364
  972MOL0     H34091   3.275   8.103   1.735  0.8954  1.4156 -1.2727
  972MOL0     H34092   3.420   7.896   1.585  0.9793 -0.3071  1.2697
  972MOL0     H34093   3.455   8.078   1.578 -0.1668  1.6707  1.8778
  972MOL0     H34094   3.638   7.926   1.961 -0.3963  0.6948 -0.4546
  972MOL0     H34095   3.977   7.965   2.026 -0.9401  1.1943 -0.0424
  972MOL0     H34096   3.917   7.794   2.041 -3.3011 -1.5824 -3.0520
  972MOL0     H34097   3.812   7.925   2.089 -1.5631 -1.2261 -0.9694
  972MOL0     H34098   4.344   7.945   1.805  1.5336  1.0693 -0.3940
  972MOL0     H34099   4.571   7.922   1.744  0.9834  1.3035 -1.6209
  972MOL0     H34100   4.755   7.969   1.628 -4.3143  0.9601 -1.2534
  972MOL0     H34101   4.765   7.798   1.677 -2.2830 -2.4310 -2.6419
  972MOL0     H34102   4.906   7.752   1.455  1.1856 -0.1551  0.6885
  972MOL0     H34103   4.902   7.920   1.438  2.6860 -0.0038  0.9195
  972MOL0     H34104   5.032   7.797   1.664 -0.6298  0.3986  0.8885
  972MOL0     H34105   5.015   7.969   1.661  0.6562 -0.5694  0.7636
  972MOL0     H34106   5.144   7.990   1.454  1.5348  0.2717 -0.3055
  972MOL0     H34107   5.149   7.808   1.434  1.3481 -1.7653  0.5519
  972MOL0     H34108   5.266   7.945   1.665 -2.0349  0.7562 -1.0613
  972MOL0     H34109   5.276   7.773   1.615 -3.9051  0.1683  1.9318
  972MOL0     H34110   5.390   8.019   1.478 -0.8698  0.3936 -0.8826
  972MOL0     H34111   5.385   7.872   1.386 -0.8497  0.6646  0.2119
  972MOL0     H34112   5.510   7.748   1.573 -2.4976  0.3457  0.8439
  972MOL0     H34113   5.551   7.912   1.638 -1.8510  1.6543 -0.6343
  972MOL0     H34114   5.676   7.968   1.426 -1.1759  1.8365  2.2467
  972MOL0     H34115   5.625   7.805   1.360  1.3587 -1.4228  1.4242
  972MOL0     H34116   4.450   7.749   1.370 -1.2265  1.7324 -1.1493
  972MOL0     H34117   4.210   7.800   1.437  0.9437  1.4334 -0.8247
  972MOL0     H34118   3.911   7.983   1.561  3.6404 -2.7217  1.8257
  972MOL0     H34119   3.660   8.019   1.547 -1.0855  0.6623  0.5127
  972MOL0     H34120   1.783   7.096   1.357 -1.5516  1.2538 -0.8625
  972MOL0     H34121   1.546   7.022   1.417  1.2192  1.4856 -1.9851
  972MOL0     H34122   1.277   6.878   1.595  1.5455  2.1547  1.9448
  972MOL0     H34123   1.060   6.779   1.624 -2.2935 -0.7219 -2.6269
  972MOL0     H34124   0.851   6.698   1.617 -1.1062 -0.7539 -0.5859
  972MOL0     H34125   0.841   6.799   1.768  2.2745  1.6609 -1.3912
  972MOL0     H34126   0.581   6.781   1.640  1.4960  3.5571  1.1383
  972MOL0     H34127   0.634   6.765   1.804 -0.2703 -0.7849  0.1011
  972MOL0     H34128   0.670   6.549   1.601  1.7574  1.9434 -0.5325
  972MOL0     H34129   0.740   6.563   1.768 -0.6267 -1.6890  0.8106
  972MOL0     H34130   0.528   6.413   1.738 -2.0830 -0.2257  1.1096
  972MOL0     H34131   0.445   6.546   1.676 -2.7754 -2.3131  1.0674
  972MOL0     H34132   0.404   6.586   2.103  0.8076 -0.0091  0.9420
  972MOL0     H34133   0.861   7.140   1.515 -1.3110 -1.3303 -0.4177
  972MOL0     H34134   1.116   7.306   1.370 -1.9656  3.2705  0.2451
  972MOL0     H34135   0.968   7.317   1.458 -0.8089  2.5694  0.5598
  972MOL0     H34136   1.121   7.343   1.548  1.3081  1.6172 -1.8393
  973MOL0     O34137   9.034   7.982   3.759  0.1703  0.5209  0.1540
  973MOL0     C34138   8.923   7.942   3.725 -0.0387 -0.0234 -0.9259
  973MOL0     O34139   8.893   7.822   3.653 -0.9619 -0.1834  0.1085
  973MOL0     C34140   9.004   7.751   3.602 -0.3507 -0.5469  0.6343
  973MOL0     C34141   9.039   7.624   3.650 -0.0488 -0.5133 -0.7610
  973MOL0     C34142   9.149   7.559   3.590 -0.0456  1.0456 -0.1579
  973MOL0     C34143   9.219   7.617   3.484  0.3530 -0.9477 -0.4715
  973MOL0     O34144   9.333   7.566   3.431 -0.6384  0.1560 -0.6344
  973MOL0     C34145   9.430   7.528   3.528 -0.1855 -0.0895  0.8652
  973MOL0     C34146   9.461   7.377   3.534  0.3471 -0.4430  0.3808
  973MOL0     C34147   9.520   7.327   3.401  0.6877  0.3687 -0.3456
  973MOL0     C34148   9.674   7.364   3.400  1.0639 -0.5215  0.3786
  973MOL0     C34149   9.763   7.238   3.454 -0.6640 -0.3777 -0.6215
  973MOL0     C34150   9.913   7.269   3.439 -0.3348  0.8219  0.2732
  973MOL0     C34151   9.990   7.161   3.515  0.0222  0.2246  1.2405
  973MOL0     C34152  10.127   7.141   3.458 -0.4677 -0.4881  0.0748
  973MOL0     N34153  10.202   7.262   3.460 -0.2505  0.2116 -0.7546
  973MOL0     C34154  10.216   7.341   3.569  0.4840 -0.7992 -0.3791
  973MOL0     C34155  10.289   7.449   3.531 -0.0882  0.2654  0.0598
  973MOL0     C34156  10.341   7.565   3.607 -0.2814  0.2704  0.0883
  973MOL0     C34157  10.442   7.537   3.723  0.4199 -0.7072 -0.1336
  973MOL0     C34158  10.583   7.501   3.666  0.6177  0.6724 -0.7741
  973MOL0     C34159  10.664   7.607   3.606 -0.3632 -0.0268 -0.7622
  973MOL0     O34160  10.686   7.712   3.705 -0.5865 -0.4021  0.4929
  973MOL0     C34161  10.800   7.721   3.772 -0.7314  0.1740 -0.0459
  973MOL0     C34162  10.817   7.835   3.852  0.0202  0.0859  1.0102
  973MOL0     C34163  10.935   7.862   3.918 -0.1940 -0.8240 -0.4415
  973MOL0     C34164  10.928   7.989   3.996  0.3178 -0.6679 -0.0135
  973MOL0     C34165  11.043   7.776   3.917  0.1852 -0.7085  0.6348
  973MOL0     C34166  11.174   7.800   3.989  0.6306 -0.3270  0.6948
  973MOL0     O34167  11.228   7.699   4.057  0.1976  0.3494  0.0138
  973MOL0     C34168  11.350   7.728   4.113  0.2124 -0.2526 -0.3186
  973MOL0     C34169  11.357   7.751   4.249  0.1144  0.0786 -0.2686
  973MOL0     C34170  11.471   7.789   4.312  0.2785 -0.4944  0.2738
  973MOL0     C34171  11.592   7.789   4.239 -0.3510 -0.3028 -0.0953
  973MOL0     O34172  11.715   7.844   4.284  0.4201  0.2156  0.0959
  973MOL0     C34173  11.739   7.828   4.427  0.2266  0.2256 -0.0446
  973MOL0     C34174  11.892   7.833   4.446 -0.5828  0.4684 -0.0830
  973MOL0     C34175  11.952   7.964   4.378 -0.5205 -0.8475 -0.4100
  973MOL0     C34176  12.107   7.967   4.404  1.3167 -0.6358 -1.3018
  973MOL0     C34177  12.165   8.107   4.404 -0.4365 -0.2093 -0.0835
  973MOL0     C34178  12.164   8.166   4.263  0.6774 -0.5837 -0.1786
  973MOL0     C34179  12.244   8.295   4.255 -0.1350  0.0719  0.0663
  973MOL0     C34180  12.390   8.259   4.212  0.5454 -0.6306  0.4685
  973MOL0    Cl34181  12.378   8.225   4.042 -0.2740 -0.0645  0.2199
  973MOL0     C34182  11.586   7.767   4.098  0.5274 -0.9931  0.1561
  973MOL0     C34183  11.462   7.744   4.038 -0.3653  0.3558  0.8137
  973MOL0     O34184  11.212   7.917   3.989 -0.2081  0.3422 -0.3871
  973MOL0     C34185  11.024   7.655   3.842  0.3815  0.0830 -0.5822
  973MOL0     C34186  10.908   7.629   3.769 -0.5883  0.8096 -0.4692
  973MOL0     N34187  10.325   7.428   3.405 -0.1957 -0.4530 -0.2350
  973MOL0     N34188  10.272   7.320   3.363 -0.3615  0.3024  0.3552
  973MOL0     C34189   9.187   7.742   3.439  0.0017  0.3530 -0.1674
  973MOL0     C34190   9.073   7.808   3.494 -0.1003  0.9312  1.3098
  973MOL0     C34191   8.805   8.022   3.764  0.6239  0.0954  0.0783
  973MOL0     C34192   8.707   8.024   3.663  0.7585  0.5504 -0.3215
  973MOL0     C34193   8.591   8.105   3.678  0.2501  0.2475 -0.2578
  973MOL0     C34194   8.579   8.192   3.779  0.6037  0.0928  0.1781
  973MOL0     O34195   8.464   8.265   3.802 -0.3534 -0.8324 -0.2775
  973MOL0     C34196   8.373   8.286   3.698 -1.0473 -0.1506  0.0803
  973MOL0     C34197   8.267   8.382   3.737  0.2064 -0.0870 -0.4721
  973MOL0     C34198   8.202   8.430   3.609 -0.2220  0.4191  0.3408
  973MOL0     C34199   8.080   8.521   3.646  0.5320 -0.6842 -0.8471
  973MOL0     C34200   8.037   8.616   3.536  0.0098  0.1242 -0.3162
  973MOL0     C34201   8.025   8.674   3.431 -0.8235 -0.5320  0.6193
  973MOL0     C34202   8.684   8.198   3.882 -0.2621 -1.4317 -0.4069
  973MOL0     C34203   8.789   8.108   3.873  0.5281 -0.4025  0.0293
  973MOL0     C34204   8.888   8.134   3.982  0.1132  0.6287 -0.1959
  973MOL0     H34205   8.986   7.573   3.729 -1.2147  0.1600 -1.0833
  973MOL0     H34206   9.190   7.465   3.625 -0.8761  1.1016  1.0518
  973MOL0     H34207   9.407   7.553   3.632 -0.0551 -0.8510  1.0789
  973MOL0     H34208   9.521   7.575   3.490 -0.1742  0.0617  1.0766
  973MOL0     H34209   9.531   7.354   3.615  3.6196 -1.3646 -2.4421
  973MOL0     H34210   9.371   7.318   3.552 -0.2893  1.0946  2.5837
  973MOL0     H34211   9.497   7.222   3.379  1.3856  0.3054 -0.8063
  973MOL0     H34212   9.483   7.377   3.311  0.4064 -1.3898 -1.2705
  973MOL0     H34213   9.703   7.376   3.295  1.5837 -0.2382  0.5521
  973MOL0     H34214   9.692   7.463   3.444 -1.3295  0.9816 -1.7234
  973MOL0     H34215   9.745   7.141   3.406 -0.0284 -0.8754  0.1256
  973MOL0     H34216   9.733   7.216   3.557  1.7351 -2.0403 -0.1936
  973MOL0     H34217   9.943   7.263   3.334  0.0148  0.0637  0.4128
  973MOL0     H34218   9.927   7.369   3.482  0.1870  1.3457 -1.0696
  973MOL0     H34219   9.939   7.068   3.491  1.5599 -0.3342 -0.0404
  973MOL0     H34220   9.987   7.177   3.623  2.3895  0.5917  1.3078
  973MOL0     H34221  10.180   7.069   3.520 -0.0447 -0.6065 -0.4192
  973MOL0     H34222  10.122   7.089   3.362 -1.0398  1.2592 -0.8972
  973MOL0     H34223  10.172   7.328   3.668 -0.4879 -1.0988 -0.8351
  973MOL0     H34224  10.254   7.617   3.648 -0.6073  0.2432 -0.5395
  973MOL0     H34225  10.370   7.642   3.534 -2.6131 -0.0904 -1.3201
  973MOL0     H34226  10.459   7.632   3.775 -0.4338 -0.1017 -0.9211
  973MOL0     H34227  10.406   7.467   3.798 -1.0797  0.7439  0.5760
  973MOL0     H34228  10.638   7.445   3.742  1.2260  1.8453 -0.3368
  973MOL0     H34229  10.557   7.425   3.591 -1.3622 -0.5844  1.0633
  973MOL0     H34230  10.763   7.571   3.576  0.6159 -0.0433  2.1751
  973MOL0     H34231  10.617   7.644   3.515  0.3525 -0.4327 -1.3082
  973MOL0     H34232  10.735   7.906   3.854  1.6093  1.9928  2.6989
  973MOL0     H34233  10.846   7.990   4.069 -0.7451 -3.0808 -1.0690
  973MOL0     H34234  10.897   8.075   3.936 -1.5293 -1.0581  0.3333
  973MOL0     H34235  11.009   8.009   4.066  0.6978 -2.6402  0.1708
  973MOL0     H34236  11.266   7.735   4.306  0.3662 -2.1490 -0.4000
  973MOL0     H34237  11.467   7.825   4.414  4.6607  1.5425 -0.0250
  973MOL0     H34238  11.696   7.921   4.467 -3.6221 -1.2408 -0.3915
  973MOL0     H34239  11.698   7.736   4.471  0.7591 -1.0668 -2.1287
  973MOL0     H34240  11.930   7.830   4.549  0.0735 -3.2136 -0.2897
  973MOL0     H34241  11.928   7.740   4.402  0.4442  0.3087  1.0509
  973MOL0     H34242  11.901   8.049   4.423 -1.3295 -0.9379 -1.1439
  973MOL0     H34243  11.935   7.974   4.270  0.8406  2.6443 -0.4211
  973MOL0     H34244  12.158   7.899   4.335  1.0885  0.3668 -2.4844
  973MOL0     H34245  12.128   7.920   4.501 -1.1176 -0.1280 -0.4743
  973MOL0     H34246  12.113   8.170   4.476 -0.2047 -2.3935  2.1335
  973MOL0     H34247  12.269   8.104   4.439 -0.3026  2.9347  0.1010
  973MOL0     H34248  12.060   8.185   4.234  0.8605 -2.0889 -2.0580
  973MOL0     H34249  12.189   8.086   4.192 -0.9829 -2.9788  1.7968
  973MOL0     H34250  12.253   8.347   4.351 -2.3685  1.6229 -0.4918
  973MOL0     H34251  12.192   8.362   4.186 -0.8116 -1.2531 -0.7395
  973MOL0     H34252  12.433   8.173   4.265 -2.1077 -1.7735  0.8858
  973MOL0     H34253  12.449   8.348   4.235 -0.6316  0.5831 -1.0113
  973MOL0     H34254  11.667   7.776   4.027  1.7059 -2.5743  1.2435
  973MOL0     H34255  11.445   7.742   3.931 -1.2126  0.9335  0.9358
  973MOL0     H34256  11.096   7.574   3.843 -1.8259 -2.0210 -2.0604
  973MOL0     H34257  10.903   7.537   3.712 -1.2370  0.3601  0.2764
  973MOL0     H34258   9.242   7.787   3.356 -0.7315  0.0772 -0.8183
  973MOL0     H34259   9.051   7.906   3.454 -1.5371 -0.3791 -1.3223
  973MOL0     H34260   8.712   7.962   3.575 -0.1790 -1.3968  0.9192
  973MOL0     H34261   8.500   8.099   3.619 -2.4153  0.3029  3.5042
  973MOL0     H34262   8.422   8.322   3.607 -0.7498 -0.8149 -0.0305
  973MOL0     H34263   8.329   8.192   3.664 -0.5037  0.1746 -1.6605
  973MOL0     H34264   8.302   8.460   3.806 -3.3599  0.0562  1.4225
  973MOL0     H34265   8.195   8.328   3.799  0.8346 -0.8752 -0.4115
  973MOL0     H34266   8.282   8.479   3.554 -0.6313 -1.4160 -2.1069
  973MOL0     H34267   8.169   8.346   3.546  1.8438 -1.5241  1.6680
  973MOL0     H34268   8.107   8.590   3.727 -0.6522  2.5565 -2.9875
  973MOL0     H34269   7.994   8.462   3.677 -2.5937  4.3704  1.2886
  973MOL0     H34270   8.022   8.704   3.328  0.1438 -0.9543  0.4458
  973MOL0     H34271   8.673   8.263   3.968 -1.8374 -0.9758 -0.9231
  973MOL0     H34272   8.856   8.200   4.063 -4.1910  1.3656 -2.2479
  973MOL0     H34273   8.924   8.039   4.023  0.2508 -1.3052 -4.2700
  973MOL0     H34274   8.975   8.183   3.937 -0.0162  2.5941  1.5764
  974MOL0     O34275   4.895   7.961   6.944 -0.1953 -0.7248 -0.0975
  974MOL0     C34276   4.913   7.885   6.854 -0.7039  0.2176  0.2264
  974MOL0     O34277   5.043   7.846   6.809 -0.1064 -0.5833 -0.6100
  974MOL0     C34278   5.156   7.857   6.889  0.0149  1.1982 -0.1038
  974MOL0     C34279   5.157   7.824   7.027  1.2143  0.0247  0.4397
  974MOL0     C34280   5.273   7.849   7.094 -0.3521  0.2018 -0.0423
  974MOL0     C34281   5.387   7.909   7.035 -0.4757  0.5803  0.9716
  974MOL0     O34282   5.497   7.952   7.104  0.1871 -0.0418  0.1071
  974MOL0     C34283   5.498   7.944   7.249 -0.7985  1.1498  0.3477
  974MOL0     C34284   5.605   8.037   7.324  0.0587  0.6893  0.6874
  974MOL0     C34285   5.566   8.183   7.311  0.4403  0.1636  0.8156
  974MOL0     C34286   5.638   8.280   7.404  0.5962  0.6629  0.1924
  974MOL0     C34287   5.791   8.286   7.387  0.7406  0.5621  0.7119
  974MOL0     C34288   5.857   8.402   7.457  0.3196  0.4020 -0.4145
  974MOL0     C34289   5.979   8.453   7.381  0.0983  0.1017  0.6520
  974MOL0     C34290   6.060   8.567   7.431  0.2253 -0.8196 -0.0172
  974MOL0     N34291   6.045   8.697   7.356  0.5912  0.7294  0.1875
  974MOL0     C34292   5.938   8.734   7.286 -0.0019 -0.0673  0.3956
  974MOL0     C34293   5.975   8.837   7.209  0.9963 -0.0654 -0.1700
  974MOL0     C34294   5.884   8.906   7.106 -0.8301 -0.3303  0.5520
  974MOL0     C34295   5.909   8.860   6.965 -0.6019 -0.3010  0.0390
  974MOL0     C34296   5.847   8.955   6.865  0.2581 -0.2971  0.2383
  974MOL0     C34297   5.858   8.917   6.718  0.1651  0.4482  0.1529
  974MOL0     O34298   5.776   8.802   6.696  0.0707  0.6909  0.1252
  974MOL0     C34299   5.645   8.814   6.662  1.0693  0.2810 -0.5594
  974MOL0     C34300   5.574   8.933   6.650 -0.3544  0.2097  0.0344
  974MOL0     C34301   5.443   8.936   6.602 -0.3354 -0.1034 -0.0516
  974MOL0     C34302   5.384   9.062   6.559 -0.4454  1.1751 -0.9622
  974MOL0     C34303   5.378   8.806   6.585  0.7150  0.1013 -0.2523
  974MOL0     C34304   5.234   8.790   6.543  0.3522 -0.6098 -0.3258
  974MOL0     O34305   5.155   8.899   6.527  0.0405  0.5740  0.2876
  974MOL0     C34306   5.024   8.867   6.491  0.6623  0.3691  0.3932
  974MOL0     C34307   4.934   8.845   6.592  0.3227 -0.0885  0.3544
  974MOL0     C34308   4.799   8.809   6.580 -0.4591  0.8639  0.4541
  974MOL0     C34309   4.758   8.778   6.453  0.9889  0.0841  0.5157
  974MOL0     O34310   4.621   8.760   6.434  0.1943  0.9490 -0.0499
  974MOL0     C34311   4.549   8.846   6.343 -0.0431 -0.8351 -0.3166
  974MOL0     C34312   4.398   8.803   6.361 -0.2794 -0.6144 -0.2172
  974MOL0     C34313   4.342   8.826   6.502 -0.0186 -0.0788 -0.3823
  974MOL0     C34314   4.188   8.823   6.481  0.2926  0.3066 -0.3299
  974MOL0     C34315   4.118   8.836   6.623  0.4114  1.1001  1.2936
  974MOL0     C34316   4.086   8.702   6.692 -0.1563  0.6945  0.1748
  974MOL0     C34317   4.002   8.730   6.816 -0.3953  0.2679  0.2774
  974MOL0     C34318   3.963   8.598   6.889  0.1207  0.0071  0.8128
  974MOL0    Cl34319   4.105   8.492   6.928  0.1855  0.1947  0.0210
  974MOL0     C34320   4.843   8.805   6.339 -0.2209 -1.1745  0.1353
  974MOL0     C34321   4.979   8.840   6.366 -0.1758  0.4557  0.5906
  974MOL0     O34322   5.194   8.677   6.531 -0.2581  0.6037  1.3764
  974MOL0     C34323   5.453   8.689   6.608 -0.1931  0.2801 -0.1282
  974MOL0     C34324   5.586   8.696   6.622 -0.1684  0.3738 -0.4105
  974MOL0     N34325   6.105   8.868   7.236 -0.3840 -0.3065  0.1428
  974MOL0     N34326   6.139   8.790   7.337 -0.4131 -0.5573 -0.3475
  974MOL0     C34327   5.388   7.922   6.896  0.1295  0.2910  0.0750
  974MOL0     C34328   5.269   7.896   6.824 -0.4774  0.0917  0.1140
  974MOL0     C34329   4.806   7.860   6.768 -0.0361  0.3111  0.3572
  974MOL0     C34330   4.746   7.965   6.695 -0.2863 -0.1598 -0.0358
  974MOL0     C34331   4.625   7.946   6.625  0.3048 -0.1883 -1.1166
  974MOL0     C34332   4.572   7.817   6.617  0.3040  0.0622  0.0811
  974MOL0     O34333   4.455   7.795   6.553  0.8896  0.4203  0.1256
  974MOL0     C34334   4.343   7.878   6.582 -0.3783 -0.8478  0.5162
  974MOL0     C34335   4.213   7.817   6.555 -1.6492 -0.8373  0.1040
  974MOL0     C34336   4.211   7.759   6.416 -0.4834  0.4708 -0.5426
  974MOL0     C34337   4.087   7.795   6.336 -0.0494  0.0967  0.2887
  974MOL0     C34338   4.057   7.698   6.235 -0.4075  0.5066  0.0986
  974MOL0     C34339   4.037   7.603   6.161 -0.5744  0.2808 -0.8854
  974MOL0     C34340   4.636   7.706   6.678  0.2218  0.3747 -0.5882
  974MOL0     C34341   4.756   7.726   6.752  0.1806 -0.6007 -0.2578
  974MOL0     C34342   4.796   7.612   6.833  0.2985  0.5782 -0.9776
  974MOL0     H34343   5.070   7.796   7.085  2.5420  2.2525  3.8609
  974MOL0     H34344   5.286   7.830   7.200  2.5589 -0.9739 -0.5079
  974MOL0     H34345   5.507   7.842   7.287  0.0779  1.8983  2.2886
  974MOL0     H34346   5.398   7.969   7.286 -0.3847  1.0927  1.5641
  974MOL0     H34347   5.607   8.005   7.429  1.9413 -1.8878 -0.0338
  974MOL0     H34348   5.704   8.003   7.291 -1.1015 -1.9702 -0.3575
  974MOL0     H34349   5.573   8.209   7.205  1.4809  0.6695  0.9906
  974MOL0     H34350   5.460   8.195   7.337  0.0118 -1.8481  0.1715
  974MOL0     H34351   5.588   8.377   7.392  0.6784  0.5938 -0.8027
  974MOL0     H34352   5.606   8.244   7.502  1.8320  1.9544  1.1114
  974MOL0     H34353   5.813   8.269   7.281  1.4445  1.2017  0.7451
  974MOL0     H34354   5.827   8.189   7.423 -4.4049 -1.8401  0.3674
  974MOL0     H34355   5.782   8.482   7.463 -1.6748 -1.3381 -0.8193
  974MOL0     H34356   5.896   8.373   7.554  1.5169 -2.3237 -1.6124
  974MOL0     H34357   5.949   8.478   7.279 -0.4208  1.7021  1.1692
  974MOL0     H34358   6.041   8.363   7.373 -0.3492 -0.0430 -4.1511
  974MOL0     H34359   6.035   8.581   7.537 -3.7180  0.8470 -0.9801
  974MOL0     H34360   6.162   8.529   7.433  0.4397 -0.5277 -2.5222
  974MOL0     H34361   5.838   8.692   7.279  0.7772 -2.7088  3.1421
  974MOL0     H34362   5.896   9.015   7.108  0.4833 -0.4328 -0.5514
  974MOL0     H34363   5.778   8.886   7.125 -0.9971 -0.0338 -0.0360
  974MOL0     H34364   6.017   8.854   6.948 -0.3405 -0.0534  1.5133
  974MOL0     H34365   5.859   8.764   6.949 -1.2870  0.1377 -0.5309
  974MOL0     H34366   5.742   8.975   6.890  0.2920  1.1692 -0.6517
  974MOL0     H34367   5.892   9.055   6.871 -1.7520  0.8558 -1.9200
  974MOL0     H34368   5.829   8.999   6.651 -1.6806  0.1844  0.5938
  974MOL0     H34369   5.962   8.887   6.704  0.3904  0.3690  1.8269
  974MOL0     H34370   5.630   9.026   6.653 -2.6164  1.7280 -1.4376
  974MOL0     H34371   5.306   9.088   6.632 -1.0124  0.9760 -1.4872
  974MOL0     H34372   5.321   9.062   6.470 -1.1900  0.2373 -0.4622
  974MOL0     H34373   5.462   9.138   6.549  1.4071 -0.3253  1.2628
  974MOL0     H34374   4.970   8.864   6.693 -1.4794 -0.6477  1.1479
  974MOL0     H34375   4.727   8.796   6.660 -0.6308  0.1217  0.1915
  974MOL0     H34376   4.564   8.950   6.375  2.3837 -1.4631  0.8734
  974MOL0     H34377   4.571   8.843   6.236 -0.3051  0.3195 -0.4198
  974MOL0     H34378   4.338   8.871   6.299 -0.4500  1.6059  2.2411
  974MOL0     H34379   4.385   8.700   6.326 -1.1002 -0.8023  0.5952
  974MOL0     H34380   4.373   8.917   6.555  0.1579 -2.5242  4.1713
  974MOL0     H34381   4.384   8.752   6.570  0.6780  1.1765  0.6139
  974MOL0     H34382   4.147   8.740   6.422 -0.9802 -0.7915  1.9868
  974MOL0     H34383   4.160   8.918   6.436  3.3469  1.8422  0.7662
  974MOL0     H34384   4.175   8.910   6.680 -0.4151  0.9986  2.2847
  974MOL0     H34385   4.025   8.892   6.610  0.9063  1.9743  1.4346
  974MOL0     H34386   4.184   8.664   6.722 -1.4178 -1.9472  1.1712
  974MOL0     H34387   4.035   8.633   6.625 -0.6775  1.4928 -0.2650
  974MOL0     H34388   3.911   8.776   6.777  1.1689  1.9449 -1.6697
  974MOL0     H34389   4.055   8.797   6.885  0.4069 -0.0955  0.0297
  974MOL0     H34390   3.900   8.542   6.820 -0.3381  0.5077  0.8222
  974MOL0     H34391   3.891   8.618   6.969 -1.4250  2.6226 -1.0761
  974MOL0     H34392   4.818   8.795   6.234  2.3137  4.0546 -1.3077
  974MOL0     H34393   5.053   8.853   6.287 -0.7806 -0.3748 -0.1339
  974MOL0     H34394   5.404   8.592   6.604 -0.5626  0.5023 -1.2169
  974MOL0     H34395   5.658   8.615   6.625  1.8171  2.0252 -1.1678
  974MOL0     H34396   5.473   7.959   6.841  0.8249 -0.1163  0.8487
  974MOL0     H34397   5.279   7.900   6.716 -0.7683 -1.3010  0.0152
  974MOL0     H34398   4.786   8.066   6.698 -1.4692  0.3466 -0.3992
  974MOL0     H34399   4.586   8.033   6.573  0.2160 -0.5887 -1.7193
  974MOL0     H34400   4.348   7.922   6.682  0.4409  0.6937 -0.1652
  974MOL0     H34401   4.359   7.968   6.521  1.7378 -0.2292  1.8999
  974MOL0     H34402   4.136   7.893   6.569 -2.0675 -1.3758  0.7835
  974MOL0     H34403   4.202   7.743   6.635  1.8775  0.4131  1.9743
  974MOL0     H34404   4.294   7.790   6.352  3.8044 -1.9101  3.2859
  974MOL0     H34405   4.206   7.650   6.429 -1.2362  0.5844  0.2054
  974MOL0     H34406   4.088   7.890   6.281  0.5685 -1.1138 -1.9087
  974MOL0     H34407   4.001   7.801   6.403 -1.8839 -0.2533 -1.9070
  974MOL0     H34408   4.003   7.522   6.100  0.1119  0.0659 -0.9928
  974MOL0     H34409   4.579   7.614   6.673  0.6162  0.1868 -2.2623
  974MOL0     H34410   4.854   7.537   6.778  0.6718 -3.0887  3.7001
  974MOL0     H34411   4.855   7.640   6.921 -1.1309 -1.0721  0.5773
  974MOL0     H34412   4.709   7.560   6.875  0.0926  0.9846 -0.8942
  975MOL0     O34413   5.158   8.043   8.167 -0.0349 -0.6738  1.0280
  975MOL0     C34414   5.215   8.154   8.184  0.4594 -0.8987 -0.4639
  975MOL0     O34415   5.351   8.164   8.195  1.1194 -0.8509 -0.0860
  975MOL0     C34416   5.428   8.066   8.144 -0.0474  0.9057 -0.4945
  975MOL0     C34417   5.425   8.015   8.007 -0.7467  0.3521  0.0780
  975MOL0     C34418   5.511   7.905   7.981 -0.2992 -0.1014  1.1702
  975MOL0     C34419   5.588   7.838   8.087  0.7642  0.3775  0.3250
  975MOL0     O34420   5.664   7.731   8.063 -0.0895 -0.3596  0.6715
  975MOL0     C34421   5.779   7.757   7.983  0.9672 -0.3249  0.0978
  975MOL0     C34422   5.867   7.639   8.024 -0.6685  0.8805  0.5187
  975MOL0     C34423   5.991   7.641   7.931  1.1831  0.3658 -0.5665
  975MOL0     C34424   6.073   7.770   7.929 -0.8278  0.2689 -0.2485
  975MOL0     C34425   6.214   7.738   7.879 -0.5247 -0.8042 -0.5558
  975MOL0     C34426   6.315   7.831   7.951  0.0277  0.6679  0.3063
  975MOL0     C34427   6.451   7.803   7.877 -0.4212 -0.0447 -0.3604
  975MOL0     C34428   6.566   7.879   7.940 -0.1677 -0.4647 -0.7827
  975MOL0     N34429   6.698   7.847   7.900 -0.7551  0.5050  0.1624
  975MOL0     C34430   6.794   7.783   7.976  0.6440  0.6056 -0.2794
  975MOL0     C34431   6.904   7.772   7.896 -0.2033  0.1040 -0.6896
  975MOL0     C34432   7.044   7.724   7.932  0.3436 -0.3380  0.0595
  975MOL0     C34433   7.153   7.842   7.907  0.4129 -0.9544  0.0621
  975MOL0     C34434   7.302   7.789   7.927  0.2588  0.2367  0.1017
  975MOL0     C34435   7.358   7.810   8.073  0.0762 -0.2181  0.6636
  975MOL0     O34436   7.298   7.741   8.187 -0.2643 -0.2649 -0.1523
  975MOL0     C34437   7.313   7.606   8.180  0.4513 -0.9469 -0.5611
  975MOL0     C34438   7.435   7.548   8.171 -0.6111  0.4116  0.2216
  975MOL0     C34439   7.457   7.407   8.173 -0.1690 -0.5464 -0.2678
  975MOL0     C34440   7.599   7.362   8.158  0.6506  0.2423  0.1556
  975MOL0     C34441   7.341   7.328   8.185  0.1806 -0.1060  0.1962
  975MOL0     C34442   7.350   7.186   8.168  0.4394 -0.1010  0.4004
  975MOL0     O34443   7.252   7.113   8.236 -0.1255  0.0267  0.1930
  975MOL0     C34444   7.292   7.022   8.331 -0.4723  0.2422 -0.4260
  975MOL0     C34445   7.202   6.992   8.434 -0.2697  0.1216  0.2201
  975MOL0     C34446   7.247   6.913   8.539  1.6799  0.0102 -0.4645
  975MOL0     C34447   7.367   6.850   8.547  0.8933  0.5054  0.4504
  975MOL0     O34448   7.384   6.775   8.661 -0.7490  0.0871  0.0671
  975MOL0     C34449   7.509   6.747   8.708  0.1712  0.4019 -0.5066
  975MOL0     C34450   7.567   6.614   8.657  0.5428 -0.4579  0.1583
  975MOL0     C34451   7.719   6.624   8.680 -0.0709  0.2434  0.3519
  975MOL0     C34452   7.786   6.489   8.645  0.5283 -0.0114  0.6788
  975MOL0     C34453   7.932   6.488   8.691 -0.0278  0.4948 -0.4674
  975MOL0     C34454   8.015   6.376   8.623 -0.0824 -0.2335  0.1743
  975MOL0     C34455   8.169   6.418   8.649  0.1391  0.4949 -0.5280
  975MOL0     C34456   8.257   6.296   8.653  0.4795 -0.2074  0.1870
  975MOL0    Cl34457   8.205   6.190   8.788  0.1777 -0.5189 -0.5746
  975MOL0     C34458   7.460   6.878   8.443  0.6789  1.2962  0.0231
  975MOL0     C34459   7.427   6.967   8.340 -0.1862 -0.0192 -0.6014
  975MOL0     O34460   7.432   7.137   8.087  0.1792 -0.3824 -0.4900
  975MOL0     C34461   7.213   7.394   8.200  0.3701  0.7911 -0.6206
  975MOL0     C34462   7.203   7.529   8.197  0.4952  0.0678  0.7453
  975MOL0     N34463   6.875   7.828   7.771 -0.3548 -0.2400  0.3116
  975MOL0     N34464   6.750   7.872   7.772 -0.0000 -0.7110 -0.2281
  975MOL0     C34465   5.579   7.895   8.215 -0.3844 -0.9213  0.0323
  975MOL0     C34466   5.499   8.002   8.242 -0.1811  0.3763  0.0339
  975MOL0     C34467   5.130   8.273   8.217  0.9114  0.0812 -0.3084
  975MOL0     C34468   4.999   8.247   8.270 -0.7044  0.5913  0.5900
  975MOL0     C34469   4.907   8.350   8.301 -0.3437 -0.3827  0.2618
  975MOL0     C34470   4.948   8.477   8.285  1.0588 -0.1757 -0.3350
  975MOL0     O34471   4.842   8.564   8.303 -0.3885 -0.5045  0.6920
  975MOL0     C34472   4.861   8.696   8.345  0.1837 -0.1786 -0.0423
  975MOL0     C34473   4.788   8.732   8.472  0.5388 -0.8133  0.0583
  975MOL0     C34474   4.809   8.873   8.519 -0.4627 -0.6423  0.5322
  975MOL0     C34475   4.743   8.973   8.432  0.1374  0.2963  0.6343
  975MOL0     C34476   4.614   9.022   8.486 -0.1032  0.2170  0.1828
  975MOL0     C34477   4.516   9.069   8.533  0.3162 -0.9337  0.2226
  975MOL0     C34478   5.075   8.510   8.243  0.3360 -0.3974  0.1438
  975MOL0     C34479   5.171   8.410   8.228 -0.7159 -0.2741  0.2133
  975MOL0     C34480   5.306   8.451   8.189  0.3691 -0.2313  0.6296
  975MOL0     H34481   5.376   8.078   7.934  0.6793  0.7128 -0.5963
  975MOL0     H34482   5.513   7.867   7.880  0.2971  0.0447  1.1256
  975MOL0     H34483   5.824   7.854   8.006  1.8000 -0.0650 -2.3078
  975MOL0     H34484   5.757   7.755   7.876 -1.9619  0.5434  0.6024
  975MOL0     H34485   5.875   7.635   8.133 -2.8418  0.1621  0.7030
  975MOL0     H34486   5.821   7.541   8.004  2.4435 -0.9846  1.6862
  975MOL0     H34487   6.057   7.580   7.993  2.7650  2.4198 -0.1072
  975MOL0     H34488   5.962   7.613   7.829 -1.8240 -0.8943  0.5370
  975MOL0     H34489   6.020   7.838   7.862  0.9911 -1.5392 -3.8562
  975MOL0     H34490   6.072   7.817   8.027  1.1710  5.4030 -2.3420
  975MOL0     H34491   6.214   7.760   7.772 -3.0538 -0.3799 -0.5381
  975MOL0     H34492   6.248   7.639   7.912 -0.6018  0.0464  2.4191
  975MOL0     H34493   6.288   7.936   7.938 -2.2998 -0.0885 -1.8320
  975MOL0     H34494   6.315   7.803   8.057 -1.4979 -0.7375 -0.0103
  975MOL0     H34495   6.446   7.839   7.773 -1.3212 -0.6170 -0.5220
  975MOL0     H34496   6.483   7.699   7.886  2.5933  0.9173  1.7265
  975MOL0     H34497   6.544   7.986   7.936  1.8162  0.1550  1.8945
  975MOL0     H34498   6.566   7.847   8.045  1.5669 -1.4817 -1.0476
  975MOL0     H34499   6.783   7.729   8.069  1.2043  0.9945  0.0204
  975MOL0     H34500   7.071   7.634   7.878  2.0704  0.1506  0.0435
  975MOL0     H34501   7.048   7.701   8.039 -0.5298  0.5505  0.2947
  975MOL0     H34502   7.152   7.867   7.801  1.0825 -0.7563  0.0939
  975MOL0     H34503   7.143   7.936   7.963  0.2092  0.0611 -1.6187
  975MOL0     H34504   7.313   7.683   7.901 -0.1081  0.8902 -3.0626
  975MOL0     H34505   7.374   7.846   7.868  1.4257 -1.2024  0.0678
  975MOL0     H34506   7.467   7.800   8.074  0.1081  0.1182  0.7939
  975MOL0     H34507   7.341   7.917   8.088 -2.1184 -0.6509  1.7556
  975MOL0     H34508   7.514   7.619   8.150 -1.1480  0.6976 -0.9182
  975MOL0     H34509   7.671   7.414   8.222  0.4165 -0.7040  1.2199
  975MOL0     H34510   7.630   7.370   8.053  2.0898 -2.7938  0.2183
  975MOL0     H34511   7.611   7.256   8.182  0.2202 -0.7092 -3.3015
  975MOL0     H34512   7.094   7.005   8.429 -0.2630 -0.3722 -1.8047
  975MOL0     H34513   7.177   6.884   8.617  1.5586 -0.3831 -0.7187
  975MOL0     H34514   7.574   6.832   8.685 -0.0305  0.9339  0.7816
  975MOL0     H34515   7.511   6.736   8.817 -0.2777 -0.5288 -0.5931
  975MOL0     H34516   7.522   6.521   8.693  0.4896 -0.5115 -0.0411
  975MOL0     H34517   7.546   6.613   8.549  0.6868  2.4747  0.0071
  975MOL0     H34518   7.732   6.646   8.786  0.9321 -0.4995  0.3948
  975MOL0     H34519   7.757   6.696   8.608 -2.4045 -0.4857 -1.7726
  975MOL0     H34520   7.779   6.472   8.537  0.3405 -1.5361  0.9066
  975MOL0     H34521   7.733   6.413   8.703 -0.0419  1.8498  2.7155
  975MOL0     H34522   7.971   6.588   8.670  0.3179  0.2568 -0.9929
  975MOL0     H34523   7.944   6.476   8.799  2.3238  0.7654 -0.6523
  975MOL0     H34524   8.000   6.370   8.515 -0.1248  1.9328  0.0221
  975MOL0     H34525   7.994   6.278   8.667 -0.7345 -0.0987  0.1832
  975MOL0     H34526   8.177   6.484   8.736  1.2571 -0.1167 -0.1450
  975MOL0     H34527   8.209   6.472   8.562  0.7319 -1.4692 -1.5223
  975MOL0     H34528   8.362   6.323   8.670  0.3162  1.2632 -0.9571
  975MOL0     H34529   8.246   6.233   8.564 -0.6926 -0.6289  0.6172
  975MOL0     H34530   7.562   6.846   8.462  0.3656  1.1222  1.6098
  975MOL0     H34531   7.504   6.985   8.266 -0.0871  0.6867 -0.3333
  975MOL0     H34532   7.121   7.341   8.220  1.1150 -0.2566  0.1470
  975MOL0     H34533   7.107   7.572   8.225  0.5061 -0.6253  1.9132
  975MOL0     H34534   5.642   7.865   8.298 -0.8914 -0.9784  0.4016
  975MOL0     H34535   5.504   8.044   8.342  1.3545  1.6810 -0.5392
  975MOL0     H34536   4.973   8.142   8.279 -0.7160  0.5540  0.1588
  975MOL0     H34537   4.805   8.338   8.336 -0.1122 -0.7240  0.8333
  975MOL0     H34538   4.965   8.732   8.347  1.0533 -2.5786  0.9394
  975MOL0     H34539   4.820   8.758   8.265  1.6551  0.6646 -0.1859
  975MOL0     H34540   4.825   8.663   8.549  0.8437 -2.0748 -1.1816
  975MOL0     H34541   4.685   8.722   8.439  0.8229  0.1104 -1.1868
  975MOL0     H34542   4.768   8.878   8.621  2.0574  0.8408  1.5544
  975MOL0     H34543   4.917   8.888   8.527 -0.8633  2.5921  0.9412
  975MOL0     H34544   4.724   8.927   8.335  1.2045  0.8088  0.1622
  975MOL0     H34545   4.804   9.060   8.405  0.5926 -0.2920 -0.2698
  975MOL0     H34546   4.427   9.122   8.561  0.4779  0.7128 -2.1028
  975MOL0     H34547   5.101   8.615   8.230 -5.3540  1.1276 -2.0463
  975MOL0     H34548   5.388   8.387   8.223  0.2024 -2.2371 -2.3312
  975MOL0     H34549   5.324   8.466   8.082  0.6400 -0.2328  0.6733
  975MOL0     H34550   5.323   8.546   8.240 -0.5162 -0.3573  1.1778
  976MOL0     O34551   6.670   3.648   1.086 -0.3331  0.5361 -0.0596
  976MOL0     C34552   6.581   3.568   1.120  0.2194 -0.1338 -0.3175
  976MOL0     O34553   6.609   3.438   1.174  0.1187  0.7060  0.6364
  976MOL0     C34554   6.733   3.409   1.232 -0.0687  0.6104  0.5022
  976MOL0     C34555   6.813   3.495   1.310  0.4884 -0.0724  0.0345
  976MOL0     C34556   6.939   3.449   1.355  0.3015 -0.7078  0.1742
  976MOL0     C34557   6.988   3.319   1.328 -0.0650 -0.1174  0.9722
  976MOL0     O34558   7.110   3.274   1.381 -0.3587 -0.4299  0.3463
  976MOL0     C34559   7.145   3.132   1.371 -0.3398 -0.4456 -0.1216
  976MOL0     C34560   7.253   3.103   1.476  0.3718  1.1466 -1.3030
  976MOL0     C34561   7.374   3.189   1.436 -0.1984  0.0173 -0.1569
  976MOL0     C34562   7.501   3.161   1.521  0.4733  0.2315  0.3540
  976MOL0     C34563   7.606   3.272   1.500  0.2220 -0.9829  0.1502
  976MOL0     C34564   7.591   3.391   1.594 -0.8273  0.1430  0.2787
  976MOL0     C34565   7.675   3.508   1.550 -0.0674 -0.2609 -0.4753
  976MOL0     C34566   7.821   3.479   1.573  0.3238 -1.0284  0.3364
  976MOL0     N34567   7.890   3.611   1.561  0.3753 -0.1727  0.4074
  976MOL0     C34568   7.903   3.691   1.452 -1.2912 -0.0340 -0.0371
  976MOL0     C34569   7.961   3.803   1.496  0.5916  1.0275 -0.7858
  976MOL0     C34570   8.026   3.904   1.407 -0.4014 -0.0122  0.1154
  976MOL0     C34571   8.158   3.948   1.473 -0.9779 -0.1004  0.2712
  976MOL0     C34572   8.238   4.022   1.373 -0.4542 -0.3696  0.0399
  976MOL0     C34573   8.368   4.075   1.445  0.1905 -0.2359 -0.0491
  976MOL0     O34574   8.386   4.206   1.383  0.2928 -0.0049  0.1429
  976MOL0     C34575   8.479   4.221   1.285 -0.3785 -1.0462  0.2526
  976MOL0     C34576   8.566   4.129   1.236 -0.1163  0.0017 -0.6533
  976MOL0     C34577   8.655   4.156   1.137 -0.9740 -0.0640 -0.2288
  976MOL0     C34578   8.759   4.049   1.110  0.2350 -1.1009 -0.5092
  976MOL0     C34579   8.655   4.287   1.072 -0.3741  0.2308 -0.0175
  976MOL0     C34580   8.750   4.327   0.961  0.5011 -0.2770  0.1414
  976MOL0     O34581   8.832   4.233   0.901 -0.2414  0.8188 -0.4387
  976MOL0     C34582   8.905   4.259   0.789 -0.2449 -0.2541 -0.3975
  976MOL0     C34583   8.853   4.316   0.677  0.1207  0.1903  0.1484
  976MOL0     C34584   8.920   4.319   0.555 -0.6612  0.5674  0.0798
  976MOL0     C34585   9.053   4.263   0.547  0.4360 -0.0326  0.9244
  976MOL0     O34586   9.113   4.278   0.425  0.6455  0.0552  0.2876
  976MOL0     C34587   9.213   4.176   0.390 -0.6828 -0.6500 -0.7118
  976MOL0     C34588   9.158   4.034   0.373 -0.4522  0.6241  0.0802
  976MOL0     C34589   9.069   4.031   0.250 -0.0898 -0.5855 -0.2578
  976MOL0     C34590   9.133   4.077   0.122 -0.5513 -0.7023 -0.1021
  976MOL0     C34591   9.049   4.038   0.002 -0.4565 -0.4746 -0.8233
  976MOL0     C34592   9.104   4.107  -0.131 -0.1749 -0.5186  0.0161
  976MOL0     C34593   9.031   4.067  -0.262  0.9109  0.0475  0.3803
  976MOL0     C34594   8.895   4.131  -0.272 -0.9072  0.0369 -0.2394
  976MOL0    Cl34595   8.823   4.080  -0.427  0.2606  0.1369 -0.0555
  976MOL0     C34596   9.097   4.198   0.658 -0.1164 -0.0073 -0.0744
  976MOL0     C34597   9.026   4.192   0.777  0.1998  0.0285  0.3546
  976MOL0     O34598   8.745   4.446   0.927 -0.0734  0.3962  0.0774
  976MOL0     C34599   8.564   4.383   1.112  0.7076 -0.1415  1.1308
  976MOL0     C34600   8.485   4.348   1.220  0.9607 -0.0347 -0.1565
  976MOL0     N34601   7.969   3.788   1.632 -0.3558 -0.7580 -0.4428
  976MOL0     N34602   7.928   3.676   1.672  0.4233  0.3397 -0.8341
  976MOL0     C34603   6.894   3.229   1.256  0.1547  0.1722  0.3196
  976MOL0     C34604   6.773   3.277   1.218  0.6052  1.1215  0.4712
  976MOL0     C34605   6.441   3.620   1.130 -0.0675  0.2392  0.1549
  976MOL0     C34606   6.415   3.737   1.058 -0.7108  0.4319  0.7721
  976MOL0     C34607   6.278   3.783   1.057  0.3266 -0.3214  0.1554
  976MOL0     C34608   6.173   3.717   1.115 -0.0146  1.2768 -0.8161
  976MOL0     O34609   6.038   3.744   1.108 -0.2729  0.4180  0.2315
  976MOL0     C34610   5.990   3.813   0.992  1.4732 -0.3592 -0.5372
  976MOL0     C34611   5.832   3.798   0.969 -0.3840 -0.3186 -1.2906
  976MOL0     C34612   5.758   3.911   1.052 -0.8320 -0.6537  0.5886
  976MOL0     C34613   5.607   3.903   1.052  0.9280 -0.4173 -0.1227
  976MOL0     C34614   5.553   3.922   0.919  0.2261 -0.7976 -0.7667
  976MOL0     C34615   5.520   3.949   0.805 -0.5518 -0.6868  0.0022
  976MOL0     C34616   6.198   3.608   1.196  0.6082  0.0889 -0.3359
  976MOL0     C34617   6.337   3.562   1.208  0.0730 -0.2166  0.7397
  976MOL0     C34618   6.355   3.445   1.298  0.1037  0.1329  0.1780
  976MOL0     H34619   6.797   3.598   1.338 -3.3733 -0.2405 -0.9747
  976MOL0     H34620   7.004   3.520   1.406  0.8066  0.2048 -1.6721
  976MOL0     H34621   7.173   3.107   1.268  1.6043 -1.3888  0.5772
  976MOL0     H34622   7.057   3.069   1.386 -0.8826  0.3715  0.2306
  976MOL0     H34623   7.216   3.134   1.574  2.1154 -0.3447 -0.0918
  976MOL0     H34624   7.269   2.995   1.491  1.0506  1.3383 -0.5230
  976MOL0     H34625   7.396   3.151   1.336  3.4011 -0.6560  0.7738
  976MOL0     H34626   7.359   3.296   1.416  1.8393  0.0557 -1.8076
  976MOL0     H34627   7.473   3.162   1.627 -1.3835  0.5022 -0.1035
  976MOL0     H34628   7.532   3.058   1.503 -0.3612 -0.1681  1.1137
  976MOL0     H34629   7.594   3.319   1.402 -0.3140 -2.2920 -0.4356
  976MOL0     H34630   7.706   3.229   1.509 -0.1046 -1.7180  0.3597
  976MOL0     H34631   7.488   3.426   1.601 -0.6063  0.6282  1.3736
  976MOL0     H34632   7.614   3.348   1.692  0.1598 -1.1327 -0.4863
  976MOL0     H34633   7.646   3.584   1.623  1.5580 -0.9904  1.0256
  976MOL0     H34634   7.648   3.538   1.449 -1.9238 -0.2524 -0.0101
  976MOL0     H34635   7.831   3.444   1.676  1.0230  1.4460  1.1854
  976MOL0     H34636   7.853   3.402   1.503  2.0496  0.0350 -0.1080
  976MOL0     H34637   7.889   3.671   1.346  1.4459 -0.5324 -0.3966
  976MOL0     H34638   7.971   3.996   1.386  1.2320  1.4049  1.7440
  976MOL0     H34639   8.043   3.858   1.309  0.4079  2.6043 -1.0420
  976MOL0     H34640   8.137   4.019   1.554  2.3219  1.7080 -0.3173
  976MOL0     H34641   8.218   3.869   1.519  0.7014  0.9544 -0.0615
  976MOL0     H34642   8.265   3.947   1.298  0.3333 -0.5897  0.5358
  976MOL0     H34643   8.187   4.103   1.321  2.8865  0.8828 -1.5352
  976MOL0     H34644   8.354   4.095   1.552  0.4185 -0.3721  0.0086
  976MOL0     H34645   8.451   4.005   1.433  0.5844 -0.0273  1.2804
  976MOL0     H34646   8.583   4.039   1.294  1.2956  1.5844  1.4999
  976MOL0     H34647   8.752   4.032   1.002  2.2225  2.1868 -1.2932
  976MOL0     H34648   8.753   3.955   1.165  0.0518 -0.5713  0.3863
  976MOL0     H34649   8.856   4.082   1.146 -1.4457  2.1808  1.4873
  976MOL0     H34650   8.754   4.360   0.681 -0.3885 -0.8929 -0.0703
  976MOL0     H34651   8.869   4.363   0.470 -3.3195 -0.6854  0.9172
  976MOL0     H34652   9.267   4.209   0.301 -1.2514  4.7879  0.5747
  976MOL0     H34653   9.300   4.171   0.457 -0.8461  1.8046 -0.2118
  976MOL0     H34654   9.229   3.954   0.352 -0.4924  0.3582  0.9120
  976MOL0     H34655   9.104   4.000   0.462 -1.1908 -1.5935 -1.1415
  976MOL0     H34656   8.980   4.087   0.280  0.8837  0.3766  0.9423
  976MOL0     H34657   9.036   3.928   0.237 -1.5441 -0.3342  1.1559
  976MOL0     H34658   9.237   4.044   0.117  0.4812  2.3665 -1.1583
  976MOL0     H34659   9.139   4.186   0.126  0.9169 -0.7570 -0.2983
  976MOL0     H34660   9.058   3.931  -0.014  2.7230 -0.4018 -0.1833
  976MOL0     H34661   8.944   4.061   0.025  0.2362 -1.1879  4.3650
  976MOL0     H34662   9.210   4.080  -0.135 -0.1536 -1.4544  3.6984
  976MOL0     H34663   9.098   4.216  -0.125 -1.0241 -0.6335  2.3674
  976MOL0     H34664   9.018   3.959  -0.262 -1.0656  0.1157 -3.1032
  976MOL0     H34665   9.094   4.100  -0.345 -0.8396  1.2679 -0.5462
  976MOL0     H34666   8.905   4.239  -0.258 -3.6365  0.4262 -0.8200
  976MOL0     H34667   8.822   4.093  -0.199 -1.2620 -0.4194 -0.8231
  976MOL0     H34668   9.193   4.147   0.651  0.3167  0.9855 -2.3084
  976MOL0     H34669   9.063   4.136   0.862 -2.2782 -0.7683  0.9830
  976MOL0     H34670   8.556   4.483   1.069 -1.0142 -0.1942  1.2956
  976MOL0     H34671   8.414   4.425   1.251 -1.0161 -1.6605 -0.4309
  976MOL0     H34672   6.912   3.126   1.226  0.1493  0.7657 -1.8872
  976MOL0     H34673   6.709   3.209   1.163  0.8473  0.0452  1.4579
  976MOL0     H34674   6.486   3.791   0.996 -0.1420 -1.3598 -0.2011
  976MOL0     H34675   6.243   3.871   1.005 -3.6633 -1.4428  0.6623
  976MOL0     H34676   6.016   3.919   0.995  0.5074 -0.1286 -0.1113
  976MOL0     H34677   6.033   3.775   0.899 -2.0181  0.2410 -2.5549
  976MOL0     H34678   5.797   3.696   0.989 -0.0438 -0.0302  1.1116
  976MOL0     H34679   5.818   3.821   0.863 -0.5077  0.2677 -1.1517
  976MOL0     H34680   5.798   3.901   1.153  0.2691 -0.7127  0.1674
  976MOL0     H34681   5.784   4.012   1.019  1.7462 -0.7096  2.1704
  976MOL0     H34682   5.550   3.975   1.111  1.1073 -0.5527  0.2184
  976MOL0     H34683   5.577   3.801   1.080 -0.7239 -0.1913 -0.9188
  976MOL0     H34684   5.486   3.984   0.710 -2.6241  1.0312  1.2925
  976MOL0     H34685   6.127   3.541   1.243  0.1445  1.5788  1.1818
  976MOL0     H34686   6.265   3.400   1.342  0.3234 -2.0695 -1.4744
  976MOL0     H34687   6.390   3.361   1.237 -1.3554  0.7833 -1.6930
  976MOL0     H34688   6.427   3.464   1.377  1.0043 -0.8017 -0.3949
  977MOL0     O34689   1.923   9.849   1.556 -0.3783  0.2365  0.0565
  977MOL0     C34690   1.890   9.918   1.653  0.4510 -0.1008 -0.6142
  977MOL0     O34691   1.773   9.983   1.664  0.7531 -0.3169 -0.0167
  977MOL0     C34692   1.681   9.984   1.562  0.4652 -0.0070 -0.2438
  977MOL0     C34693   1.563   9.909   1.581 -0.4790 -0.0595  0.3360
  977MOL0     C34694   1.464   9.902   1.485  0.4237 -1.5621 -1.1926
  977MOL0     C34695   1.484   9.967   1.360 -0.2602  0.5133  1.2230
  977MOL0     O34696   1.382   9.955   1.266 -0.0051 -0.1722  0.4804
  977MOL0     C34697   1.413   9.985   1.132 -0.3213 -0.5117 -0.6560
  977MOL0     C34698   1.301   9.942   1.032  0.1504  0.2110 -0.5746
  977MOL0     C34699   1.287   9.796   1.031 -0.5825 -0.0932  0.1384
  977MOL0     C34700   1.394   9.712   0.956  0.1582 -0.6801  0.3138
  977MOL0     C34701   1.373   9.560   0.967 -1.0314  1.0361 -0.1829
  977MOL0     C34702   1.436   9.480   0.850  0.4917 -0.4809  0.7045
  977MOL0     C34703   1.429   9.332   0.889 -0.9261  0.4581 -0.3237
  977MOL0     C34704   1.527   9.273   0.992 -0.7716 -0.0019 -0.1394
  977MOL0     N34705   1.665   9.312   0.945  0.2773 -0.8425 -0.7420
  977MOL0     C34706   1.732   9.277   0.837 -0.2606 -0.3911  0.1106
  977MOL0     C34707   1.839   9.357   0.828  0.1004  0.1877 -0.2809
  977MOL0     C34708   1.942   9.339   0.721 -0.3534 -0.0830  0.0337
  977MOL0     C34709   2.072   9.298   0.790  0.2102  0.1354 -0.5369
  977MOL0     C34710   2.180   9.276   0.681  0.2676 -0.6812 -0.6141
  977MOL0     C34711   2.296   9.202   0.743 -0.7652  0.9182  0.1507
  977MOL0     O34712   2.370   9.299   0.825 -0.5862 -0.1049  0.1162
  977MOL0     C34713   2.475   9.256   0.904 -0.1399  0.0105  0.2624
  977MOL0     C34714   2.559   9.351   0.964  0.1200 -1.0579 -0.4496
  977MOL0     C34715   2.686   9.326   1.019 -0.3189  0.7224 -0.2313
  977MOL0     C34716   2.755   9.436   1.081 -0.3196 -0.3849  0.7321
  977MOL0     C34717   2.732   9.194   1.008  0.5224  0.3692  0.4591
  977MOL0     C34718   2.863   9.147   1.054 -0.5935  0.7944 -0.0411
  977MOL0     O34719   2.901   9.012   1.049  0.0231 -0.0171  0.1522
  977MOL0     C34720   3.018   8.973   1.102 -0.5816  0.0796  0.7894
  977MOL0     C34721   3.137   9.000   1.035  0.2069 -0.6629  0.6833
  977MOL0     C34722   3.255   8.950   1.083 -0.3608 -0.3946  0.7036
  977MOL0     C34723   3.262   8.870   1.194  0.4317 -0.0695 -0.2263
  977MOL0     O34724   3.378   8.824   1.233 -0.4284  0.0721  0.2422
  977MOL0     C34725   3.470   8.930   1.275 -0.3773  0.1580  0.5140
  977MOL0     C34726   3.597   8.859   1.319  0.0056 -0.1728 -0.5891
  977MOL0     C34727   3.673   8.801   1.193 -0.4566 -0.3407 -0.4857
  977MOL0     C34728   3.758   8.674   1.220 -0.4406 -0.1467 -0.2559
  977MOL0     C34729   3.839   8.640   1.094  0.7052  1.1894  0.8259
  977MOL0     C34730   3.865   8.487   1.099 -0.3510  0.0553 -0.6842
  977MOL0     C34731   3.981   8.447   1.007 -0.3361  0.3163 -0.1116
  977MOL0     C34732   3.970   8.300   0.987 -0.1646  0.2243  0.1672
  977MOL0    Cl34733   3.821   8.271   0.874  0.5053  0.4421 -0.5584
  977MOL0     C34734   3.153   8.850   1.268  0.3431 -0.1825 -0.8142
  977MOL0     C34735   3.029   8.903   1.224  0.1925 -0.1299 -0.4316
  977MOL0     O34736   2.943   9.229   1.094 -0.1536 -0.5433 -1.0944
  977MOL0     C34737   2.650   9.098   0.946 -0.6503 -0.0424 -0.2464
  977MOL0     C34738   2.524   9.126   0.901 -0.1235  1.0691  0.7531
  977MOL0     N34739   1.845   9.427   0.945 -0.7089  0.2203 -0.1565
  977MOL0     N34740   1.740   9.407   1.014 -0.5272  0.0123  0.9223
  977MOL0     C34741   1.610  10.039   1.341 -0.3828  0.5247 -0.0275
  977MOL0     C34742   1.701  10.047   1.444 -0.4464  0.5057  0.1536
  977MOL0     C34743   2.003   9.963   1.739  0.0157  0.4619  0.5408
  977MOL0     C34744   2.134   9.974   1.686  0.4957 -0.3691  0.5090
  977MOL0     C34745   2.236  10.025   1.765  0.0247  0.1696  0.2064
  977MOL0     C34746   2.211  10.056   1.902 -0.4367  0.4314  0.1237
  977MOL0     O34747   2.320  10.106   1.970 -0.3097 -0.5362 -0.0684
  977MOL0     C34748   2.306  10.209   2.065  0.4887 -0.1042  0.6160
  977MOL0     C34749   2.281  10.347   2.001  0.4415  0.0185  0.7632
  977MOL0     C34750   2.385  10.387   1.900  0.0589  0.1479  0.1364
  977MOL0     C34751   2.407  10.539   1.881 -0.2305  0.5563 -0.2927
  977MOL0     C34752   2.289  10.597   1.826  0.0743 -0.3757  0.1886
  977MOL0     C34753   2.186  10.646   1.787 -0.3274 -0.5891 -0.8355
  977MOL0     C34754   2.087  10.041   1.957 -0.0007 -1.0662  0.4450
  977MOL0     C34755   1.981   9.999   1.878 -0.0796 -0.9123  0.0915
  977MOL0     C34756   1.843   9.991   1.937 -0.7199 -0.3385  0.0665
  977MOL0     H34757   1.563   9.840   1.664  2.8335 -0.4903  0.1045
  977MOL0     H34758   1.374   9.847   1.508 -0.1095 -0.6043 -0.9064
  977MOL0     H34759   1.508   9.938   1.105 -0.0636 -0.8961  0.7973
  977MOL0     H34760   1.416  10.094   1.140 -0.8756 -0.5434  0.0934
  977MOL0     H34761   1.204   9.970   1.074 -0.9631 -3.3180 -0.5189
  977MOL0     H34762   1.321   9.981   0.931 -1.2647  3.8957  0.4054
  977MOL0     H34763   1.291   9.767   1.136  2.9895  0.1352  0.1884
  977MOL0     H34764   1.191   9.771   0.984 -0.1780 -0.1476 -0.6853
  977MOL0     H34765   1.388   9.739   0.850  1.8237  0.9081  0.5770
  977MOL0     H34766   1.499   9.737   0.974  1.3822  0.6456 -6.1905
  977MOL0     H34767   1.270   9.524   0.968  0.1282 -2.7517  1.0723
  977MOL0     H34768   1.410   9.518   1.061  0.3241 -0.7644 -1.4420
  977MOL0     H34769   1.383   9.506   0.758  0.1186  0.7456  1.2467
  977MOL0     H34770   1.538   9.505   0.819  0.6024 -1.9082 -0.1947
  977MOL0     H34771   1.437   9.272   0.798 -1.2428  2.1064 -1.4806
  977MOL0     H34772   1.325   9.307   0.914 -1.2757 -0.3996 -2.3724
  977MOL0     H34773   1.512   9.297   1.098 -0.4038  0.2907 -0.1500
  977MOL0     H34774   1.523   9.164   0.982 -0.8000  0.1907 -3.1739
  977MOL0     H34775   1.711   9.191   0.774 -1.7653  1.1869 -1.6544
  977MOL0     H34776   1.951   9.437   0.673  0.5886  0.0374  0.4249
  977MOL0     H34777   1.913   9.261   0.650 -1.1772 -0.5043  0.8203
  977MOL0     H34778   2.098   9.370   0.868 -1.1490 -0.0417  0.1073
  977MOL0     H34779   2.066   9.202   0.841  1.5549 -0.3185 -1.1917
  977MOL0     H34780   2.137   9.220   0.597 -1.8640 -1.6697  1.0489
  977MOL0     H34781   2.216   9.376   0.654 -0.4094 -0.3415 -0.2850
  977MOL0     H34782   2.260   9.118   0.803  0.3613  0.2439 -0.0964
  977MOL0     H34783   2.359   9.164   0.662 -3.6146 -3.1649 -0.4308
  977MOL0     H34784   2.515   9.450   0.958 -1.9206 -1.8705  0.3570
  977MOL0     H34785   2.688   9.522   1.087 -1.6018 -1.0488 -2.2948
  977MOL0     H34786   2.848   9.456   1.029 -0.4041 -0.8208  0.4073
  977MOL0     H34787   2.783   9.410   1.184 -0.3307 -3.3152  0.0704
  977MOL0     H34788   3.134   9.057   0.943  3.1514  0.8558  1.3931
  977MOL0     H34789   3.344   8.981   1.029  0.5027  0.1441  2.3700
  977MOL0     H34790   3.498   8.993   1.189  1.2202 -0.3390  0.6405
  977MOL0     H34791   3.427   8.979   1.363  0.0520 -0.0705  0.8536
  977MOL0     H34792   3.665   8.922   1.377  0.9494  0.1479 -1.9749
  977MOL0     H34793   3.571   8.778   1.387 -0.2422 -0.9107 -1.5410
  977MOL0     H34794   3.737   8.872   1.139 -0.2779  0.1294  0.3234
  977MOL0     H34795   3.607   8.773   1.110  1.0493  1.2154 -2.3319
  977MOL0     H34796   3.684   8.601   1.253 -0.9183  0.2921 -0.3362
  977MOL0     H34797   3.812   8.700   1.312 -2.7840 -1.0442  1.4517
  977MOL0     H34798   3.771   8.653   1.010  2.6497 -1.7924 -1.4046
  977MOL0     H34799   3.936   8.691   1.085  2.2348 -1.0273  3.0642
  977MOL0     H34800   3.773   8.440   1.063 -0.9178 -0.1268  0.9386
  977MOL0     H34801   3.885   8.464   1.204 -0.5492  1.1340 -0.3985
  977MOL0     H34802   4.074   8.474   1.058 -0.4265  2.9387 -1.2066
  977MOL0     H34803   3.977   8.495   0.909 -0.3995 -1.6856 -1.1335
  977MOL0     H34804   3.943   8.260   1.085 -2.3923  2.3991  0.5416
  977MOL0     H34805   4.052   8.247   0.937 -2.8333  0.1565 -4.7958
  977MOL0     H34806   3.168   8.801   1.364  2.9204  2.0073  0.0174
  977MOL0     H34807   2.936   8.885   1.277  2.3156 -0.6000  3.4402
  977MOL0     H34808   2.684   8.996   0.955  2.0797  0.8686  0.9629
  977MOL0     H34809   2.467   9.049   0.850 -1.5593  1.5057  1.6531
  977MOL0     H34810   1.631  10.090   1.248  1.5786  1.7687  1.0156
  977MOL0     H34811   1.802  10.088   1.445  1.0091 -1.9657  6.7375
  977MOL0     H34812   2.161   9.955   1.583  2.4610 -3.2030  1.4487
  977MOL0     H34813   2.335  10.038   1.722 -0.4672  0.9358 -0.7582
  977MOL0     H34814   2.228  10.184   2.138  0.6455 -1.0327  0.4843
  977MOL0     H34815   2.401  10.216   2.119  2.3855 -1.3424 -2.3374
  977MOL0     H34816   2.281  10.434   2.067 -0.3046  1.5472 -1.1645
  977MOL0     H34817   2.184  10.343   1.951 -0.0151  1.0025  1.5311
  977MOL0     H34818   2.481  10.346   1.934 -0.1535 -1.3815 -0.9953
  977MOL0     H34819   2.344  10.340   1.810 -2.1910 -1.8843  2.0582
  977MOL0     H34820   2.484  10.554   1.805 -0.1259 -0.2985 -0.3666
  977MOL0     H34821   2.430  10.589   1.975 -1.2969 -0.9267  0.8199
  977MOL0     H34822   2.090  10.680   1.755 -0.5474 -1.7952 -1.5236
  977MOL0     H34823   2.068  10.072   2.059  2.2488  3.0696 -0.1895
  977MOL0     H34824   1.777  10.077   1.924 -3.2705 -2.1806  0.0780
  977MOL0     H34825   1.796   9.902   1.894  1.8566 -1.0852 -1.4735
  977MOL0     H34826   1.859   9.963   2.041  0.9245 -2.2431 -0.6071
  978MOL0     O34827   8.906   6.329   8.315 -0.1821 -0.8991  0.3107
  978MOL0     C34828   8.922   6.221   8.270 -0.0992  0.0434  0.1904
  978MOL0     O34829   8.903   6.102   8.332 -0.4667  0.4120  0.0115
  978MOL0     C34830   8.932   6.100   8.472  0.7008 -0.2511  0.7130
  978MOL0     C34831   9.032   6.179   8.530  0.0019 -1.5882 -0.5338
  978MOL0     C34832   9.056   6.186   8.670 -0.6201  0.8175 -0.0743
  978MOL0     C34833   8.988   6.096   8.754  0.3300  0.4903 -0.2058
  978MOL0     O34834   9.008   6.112   8.888 -0.7160  0.3526  0.6289
  978MOL0     C34835   8.891   6.076   8.966 -0.7855 -1.1489  0.1750
  978MOL0     C34836   8.917   6.121   9.106  0.9836 -0.4052 -0.1115
  978MOL0     C34837   9.045   6.050   9.166  0.1156 -0.5812  0.4584
  978MOL0     C34838   9.077   6.118   9.300  1.1939 -1.3023 -0.2633
  978MOL0     C34839   9.187   6.037   9.361 -0.4965 -0.4315  0.7344
  978MOL0     C34840   9.233   6.091   9.498  0.2030  0.7617  0.2202
  978MOL0     C34841   9.330   5.981   9.569  0.1007 -0.2126 -0.3916
  978MOL0     C34842   9.447   5.920   9.486  0.1359  0.0393 -0.0943
  978MOL0     N34843   9.532   5.835   9.570 -0.3199 -0.4673  0.6044
  978MOL0     C34844   9.646   5.861   9.645 -0.2576  0.5467 -0.3432
  978MOL0     C34845   9.691   5.744   9.689  0.2436  0.1522  0.0734
  978MOL0     C34846   9.817   5.731   9.774 -0.7404 -0.4449  0.9201
  978MOL0     C34847   9.804   5.614   9.868 -0.3780  0.6711  0.3621
  978MOL0     C34848   9.925   5.594   9.962  1.0023 -0.2548 -0.1375
  978MOL0     C34849   9.888   5.505  10.079 -0.8088  0.4297  0.7886
  978MOL0     O34850   9.975   5.386  10.087  0.5794  0.4042 -0.0672
  978MOL0     C34851  10.110   5.388  10.131  0.9177  0.2435 -0.2518
  978MOL0     C34852  10.172   5.266  10.142  0.5040  0.3716  0.3913
  978MOL0     C34853  10.300   5.240  10.184 -0.2242 -0.0401  0.3635
  978MOL0     C34854  10.347   5.092  10.199  0.0310  0.1887  0.8758
  978MOL0     C34855  10.377   5.354  10.214  0.2212 -1.0994 -0.2589
  978MOL0     C34856  10.509   5.341  10.277  0.3389  0.5590 -0.0071
  978MOL0     O34857  10.543   5.442  10.369  0.0049  0.0373  0.8300
  978MOL0     C34858  10.679   5.453  10.406 -0.8197  0.3492  0.9592
  978MOL0     C34859  10.707   5.403  10.534 -0.4723  0.3047 -0.2107
  978MOL0     C34860  10.843   5.392  10.582  0.4550  0.5791  0.2604
  978MOL0     C34861  10.947   5.429  10.500 -0.2613  0.1665 -0.1289
  978MOL0     O34862  11.071   5.406  10.564  0.0637  0.2885  0.6251
  978MOL0     C34863  11.189   5.431  10.483  0.3081  0.1666  0.2680
  978MOL0     C34864  11.310   5.389  10.558  0.2062 -0.4149  0.3515
  978MOL0     C34865  11.424   5.479  10.519  0.6380 -0.5571 -0.5028
  978MOL0     C34866  11.552   5.445  10.601 -0.1200 -0.0433  0.7811
  978MOL0     C34867  11.675   5.529  10.557  0.7621  0.4231  0.6493
  978MOL0     C34868  11.790   5.454  10.630 -0.4521  0.0822  0.0926
  978MOL0     C34869  11.916   5.511  10.601 -0.0300 -0.9414  0.4739
  978MOL0     C34870  11.964   5.522  10.446 -0.5223 -0.4219  0.1916
  978MOL0    Cl34871  11.879   5.637  10.338  0.1407  0.4027 -0.1027
  978MOL0     C34872  10.922   5.477  10.371 -0.2520 -0.2899 -0.6824
  978MOL0     C34873  10.789   5.489  10.322  0.6039 -0.0731  0.1127
  978MOL0     O34874  10.592   5.263  10.220 -0.1375 -0.3645  0.4095
  978MOL0     C34875  10.317   5.480  10.198  0.6366  0.1183 -1.1105
  978MOL0     C34876  10.179   5.496  10.160 -0.5035  0.2806 -0.0614
  978MOL0     N34877   9.613   5.644   9.630 -0.0323 -0.2950 -0.6426
  978MOL0     N34878   9.517   5.697   9.574 -0.4050  0.1897  0.4974
  978MOL0     C34879   8.888   6.025   8.691 -0.3911  0.3850 -0.6483
  978MOL0     C34880   8.863   6.019   8.556 -0.8680  1.0175  0.2455
  978MOL0     C34881   8.929   6.210   8.127  0.0184  0.4544  0.4918
  978MOL0     C34882   8.845   6.125   8.055  0.7665  0.5463 -0.9842
  978MOL0     C34883   8.871   6.090   7.924 -0.0375 -0.2722  0.5003
  978MOL0     C34884   8.967   6.164   7.852  0.2744  0.1165 -0.0009
  978MOL0     O34885   8.981   6.137   7.720  0.0588 -0.2202  0.6578
  978MOL0     C34886   9.016   6.244   7.631  1.0446 -0.2245  0.4090
  978MOL0     C34887   8.909   6.358   7.644 -0.5781 -0.6205 -0.3432
  978MOL0     C34888   8.761   6.319   7.632 -0.4506 -0.4051  0.9514
  978MOL0     C34889   8.711   6.336   7.484 -0.0622 -0.3788 -0.5055
  978MOL0     C34890   8.678   6.475   7.435  0.0825  0.0706 -0.4565
  978MOL0     C34891   8.669   6.588   7.387 -1.0303 -0.9916 -1.4012
  978MOL0     C34892   9.031   6.268   7.918  0.8937  0.9871  0.8778
  978MOL0     C34893   9.024   6.286   8.052  0.0207  0.0645 -0.2417
  978MOL0     C34894   9.120   6.387   8.106  0.4428  0.4543  0.3388
  978MOL0     H34895   9.090   6.253   8.475 -1.8507  1.5888  1.4713
  978MOL0     H34896   9.132   6.251   8.712  1.0508 -1.5376  0.7947
  978MOL0     H34897   8.878   5.967   8.964  1.7923 -1.5179 -0.8520
  978MOL0     H34898   8.805   6.135   8.931 -0.2865  2.1344  3.8717
  978MOL0     H34899   8.936   6.228   9.118  0.3682 -0.3567  0.5144
  978MOL0     H34900   8.833   6.094   9.170  0.5628  3.2230  1.1032
  978MOL0     H34901   9.033   5.943   9.184  2.9595 -1.2363 -1.0572
  978MOL0     H34902   9.130   6.050   9.097 -1.4866 -0.7803 -1.6327
  978MOL0     H34903   9.108   6.222   9.294 -0.1669 -0.8283  0.5113
  978MOL0     H34904   8.988   6.114   9.364 -0.6612 -0.7973 -2.6838
  978MOL0     H34905   9.274   6.029   9.295  2.0320  2.0979  3.4104
  978MOL0     H34906   9.138   5.941   9.381 -2.4884  0.4652  0.3444
  978MOL0     H34907   9.296   6.174   9.466  1.3694 -0.0471  0.3249
  978MOL0     H34908   9.152   6.137   9.555  0.7087  2.4834 -0.3864
  978MOL0     H34909   9.273   5.900   9.614  1.0254 -0.3948  0.4838
  978MOL0     H34910   9.373   6.037   9.653  0.2919 -0.9123 -0.0147
  978MOL0     H34911   9.410   5.854   9.407  0.0498  1.1092 -0.9581
  978MOL0     H34912   9.505   5.996   9.434  3.2886 -3.1205 -1.5870
  978MOL0     H34913   9.695   5.955   9.666 -1.4369  0.7265  1.9884
  978MOL0     H34914   9.834   5.821   9.834 -0.0793  0.9086 -1.2043
  978MOL0     H34915   9.897   5.729   9.700 -2.5487  1.0869 -1.2217
  978MOL0     H34916   9.715   5.622   9.930  0.1205  1.0806  1.0358
  978MOL0     H34917   9.799   5.518   9.814 -0.7303  0.5228  0.6580
  978MOL0     H34918  10.006   5.549   9.905  1.3161 -0.0283  0.1302
  978MOL0     H34919   9.961   5.686  10.008  0.8938 -0.0091 -0.5353
  978MOL0     H34920   9.890   5.555  10.176 -0.2450  2.2818 -0.1179
  978MOL0     H34921   9.784   5.476  10.063 -0.0927 -2.1485  0.3339
  978MOL0     H34922  10.095   5.191  10.127 -0.7345  1.1478  2.4540
  978MOL0     H34923  10.313   5.060  10.298 -1.4972  1.4262  0.7782
  978MOL0     H34924  10.453   5.073  10.181 -0.3630 -0.8061 -0.4977
  978MOL0     H34925  10.292   5.035  10.124  0.6754 -1.5538  1.6598
  978MOL0     H34926  10.627   5.390  10.605 -1.0167  0.7955 -0.7319
  978MOL0     H34927  10.857   5.353  10.682  1.7943  5.9224  2.4489
  978MOL0     H34928  11.185   5.379  10.387  1.5116 -0.0678  0.3299
  978MOL0     H34929  11.192   5.535  10.450  1.5689  0.8588  2.3867
  978MOL0     H34930  11.296   5.401  10.666  0.9309 -0.5973  0.4706
  978MOL0     H34931  11.331   5.283  10.542  0.9170 -0.5203  1.8464
  978MOL0     H34932  11.396   5.583  10.538 -0.7217 -0.9748 -0.1241
  978MOL0     H34933  11.446   5.472  10.412 -2.3859 -0.1212 -1.2448
  978MOL0     H34934  11.576   5.340  10.580 -1.5814 -0.2498  0.0445
  978MOL0     H34935  11.535   5.449  10.709  1.9926 -0.7244  1.1922
  978MOL0     H34936  11.683   5.501  10.451 -1.0830 -1.0457  0.8435
  978MOL0     H34937  11.673   5.637  10.573 -4.8448  0.8924 -1.2515
  978MOL0     H34938  11.790   5.347  10.606  1.5919  0.0351  0.1113
  978MOL0     H34939  11.773   5.465  10.737 -3.0960 -2.6581  0.0817
  978MOL0     H34940  11.995   5.459  10.656  0.9289  0.6667  0.6921
  978MOL0     H34941  11.906   5.608  10.650  0.9394 -0.5419 -0.0818
  978MOL0     H34942  11.948   5.423  10.402  0.3184 -0.4662 -0.0285
  978MOL0     H34943  12.070   5.549  10.455 -0.0321 -2.2080  0.1757
  978MOL0     H34944  11.008   5.514  10.315  0.4564  1.6525  1.5286
  978MOL0     H34945  10.770   5.525  10.222  1.3616 -0.3012 -0.1166
  978MOL0     H34946  10.367   5.572  10.226  2.1752 -0.4195 -2.0028
  978MOL0     H34947  10.131   5.592  10.174  1.6680  1.2422  1.3537
  978MOL0     H34948   8.829   5.963   8.757  0.7628  0.0971  0.1548
  978MOL0     H34949   8.785   5.948   8.532 -0.0805  0.1966  0.0295
  978MOL0     H34950   8.768   6.077   8.115  2.9477 -1.7045  0.2433
  978MOL0     H34951   8.816   6.016   7.868  3.2050 -1.4965 -1.3864
  978MOL0     H34952   9.118   6.278   7.651  0.7426 -0.0004  1.6618
  978MOL0     H34953   9.003   6.205   7.529 -0.0747  0.0235  0.4492
  978MOL0     H34954   8.933   6.422   7.559  0.8777  0.8715  1.1173
  978MOL0     H34955   8.919   6.414   7.737 -1.8465 -2.0134  0.6754
  978MOL0     H34956   8.751   6.214   7.659  1.6019 -1.5209 -2.1486
  978MOL0     H34957   8.706   6.383   7.702 -1.7240  1.6648 -1.7261
  978MOL0     H34958   8.618   6.278   7.487 -0.2052 -0.1674 -0.8057
  978MOL0     H34959   8.770   6.282   7.409 -1.9673 -2.6932 -0.4460
  978MOL0     H34960   8.656   6.686   7.347 -1.1587 -0.8865 -1.1077
  978MOL0     H34961   9.097   6.335   7.864  2.3871 -0.8630  0.3141
  978MOL0     H34962   9.209   6.397   8.043 -1.4376 -0.5375 -2.7426
  978MOL0     H34963   9.078   6.488   8.114  0.9438  0.5832  1.4723
  978MOL0     H34964   9.155   6.358   8.205 -1.4712  4.2192  2.3106
  979MOL0     O34965   7.159   5.904   4.550  0.4142  0.0541 -0.1753
  979MOL0     C34966   7.108   5.814   4.494  0.3904  0.1374  0.4747
  979MOL0     O34967   7.163   5.754   4.388  0.3838 -0.2646 -0.0333
  979MOL0     C34968   7.286   5.781   4.345 -0.4239  0.1728 -0.0465
  979MOL0     C34969   7.372   5.670   4.335 -0.3163 -0.0049 -0.2736
  979MOL0     C34970   7.501   5.680   4.286 -0.4899 -0.4465  1.2439
  979MOL0     C34971   7.560   5.807   4.250 -0.2564  0.2164  0.4930
  979MOL0     O34972   7.687   5.808   4.200 -0.5151 -0.3763  0.3186
  979MOL0     C34973   7.738   5.936   4.162 -0.3768  0.3831  0.2516
  979MOL0     C34974   7.851   5.913   4.067  0.7490 -0.5557 -0.0736
  979MOL0     C34975   7.941   6.035   4.042  0.6249  0.1679  0.1349
  979MOL0     C34976   8.025   6.082   4.162  0.9948 -0.7969 -0.0921
  979MOL0     C34977   8.127   6.184   4.095 -0.7523  0.5015  0.5579
  979MOL0     C34978   8.209   6.241   4.206  0.2266 -0.8228  1.4297
  979MOL0     C34979   8.296   6.158   4.299 -0.1085 -0.5072  0.1751
  979MOL0     C34980   8.377   6.246   4.398  0.5069  0.0793  0.6525
  979MOL0     N34981   8.497   6.315   4.334  0.5108 -0.4678 -0.7197
  979MOL0     C34982   8.617   6.255   4.319 -0.3856 -0.3213  0.1183
  979MOL0     C34983   8.697   6.344   4.266  0.2295  0.2788 -0.4124
  979MOL0     C34984   8.849   6.335   4.241 -0.2462 -0.7632 -0.1532
  979MOL0     C34985   8.929   6.474   4.218  0.2376  1.1398  0.3695
  979MOL0     C34986   9.070   6.447   4.196 -0.2735 -0.1754 -0.5399
  979MOL0     C34987   9.147   6.567   4.155 -0.8962 -0.1643  1.1402
  979MOL0     O34988   9.292   6.562   4.146  0.4931  0.0716 -0.1112
  979MOL0     C34989   9.361   6.582   4.266 -0.3563  0.2093 -0.6565
  979MOL0     C34990   9.399   6.477   4.348  0.4801  0.5465  1.0493
  979MOL0     C34991   9.458   6.500   4.473 -0.0898 -0.0065 -0.5076
  979MOL0     C34992   9.484   6.378   4.561  0.3959 -0.5728  0.6374
  979MOL0     C34993   9.473   6.634   4.520  0.3832  0.2191  0.7931
  979MOL0     C34994   9.517   6.669   4.654  0.0626  0.2064  0.2897
  979MOL0     O34995   9.483   6.795   4.699 -0.4043  0.5064 -0.2265
  979MOL0     C34996   9.521   6.836   4.824  0.0560  0.5538  0.1224
  979MOL0     C34997   9.418   6.857   4.915 -0.0067 -0.2935 -0.2221
  979MOL0     C34998   9.440   6.896   5.045 -0.1554 -1.2534  0.2756
  979MOL0     C34999   9.579   6.916   5.085  0.0647 -0.2184  0.6946
  979MOL0     O35000   9.615   6.980   5.208 -0.3712 -0.1688 -0.7419
  979MOL0     C35001   9.512   7.054   5.274  0.7120 -0.2676  0.0542
  979MOL0     C35002   9.573   7.162   5.368 -0.5141 -0.1877 -0.0425
  979MOL0     C35003   9.668   7.098   5.466  0.7768  0.5280 -0.0037
  979MOL0     C35004   9.656   7.174   5.603  0.0872  0.7169 -0.0026
  979MOL0     C35005   9.743   7.116   5.708  0.0781 -0.5136  0.6614
  979MOL0     C35006   9.722   7.181   5.847 -0.3196  0.5934 -0.4961
  979MOL0     C35007   9.772   7.090   5.969 -0.1481 -1.2047  0.2249
  979MOL0     C35008   9.806   7.181   6.096 -0.0885  0.7261  0.0731
  979MOL0    Cl35009   9.943   7.275   6.064 -0.1426  0.1444 -0.1754
  979MOL0     C35010   9.681   6.896   4.985  0.4444  0.5807  0.3071
  979MOL0     C35011   9.654   6.851   4.852  0.9432 -0.1080 -0.3058
  979MOL0     O35012   9.592   6.592   4.715  0.2094  0.2626  0.3793
  979MOL0     C35013   9.437   6.737   4.428  0.3612 -0.7898 -1.2878
  979MOL0     C35014   9.389   6.711   4.308  0.5655 -0.0128  0.0701
  979MOL0     N35015   8.628   6.461   4.240  0.1855  0.2490 -0.7173
  979MOL0     N35016   8.509   6.444   4.281  0.3880  0.8430 -0.0919
  979MOL0     C35017   7.480   5.920   4.279  0.1468 -0.1688 -0.0041
  979MOL0     C35018   7.342   5.908   4.322 -0.1627  0.3216  0.6090
  979MOL0     C35019   6.974   5.765   4.542 -0.4110 -0.1335 -0.0300
  979MOL0     C35020   6.877   5.859   4.589 -0.2339 -0.3109 -0.0161
  979MOL0     C35021   6.759   5.823   4.646 -0.4633  0.4328  0.2583
  979MOL0     C35022   6.731   5.681   4.648  0.1193 -0.6464  0.2601
  979MOL0     O35023   6.606   5.627   4.686 -0.2593 -1.0856  0.9034
  979MOL0     C35024   6.492   5.711   4.655 -0.5386  0.0084  0.2095
  979MOL0     C35025   6.359   5.636   4.634 -0.4992 -0.1125  0.3548
  979MOL0     C35026   6.393   5.542   4.519  0.8493 -0.4154  0.3747
  979MOL0     C35027   6.277   5.477   4.447  0.8394 -0.3517  0.7285
  979MOL0     C35028   6.163   5.425   4.531 -0.9813 -1.4237 -0.7020
  979MOL0     C35029   6.072   5.393   4.598  0.4236  1.2339  0.4368
  979MOL0     C35030   6.822   5.583   4.609 -0.2806 -0.1559  0.1478
  979MOL0     C35031   6.947   5.629   4.563 -0.4835  1.3409  0.0389
  979MOL0     C35032   7.040   5.529   4.514 -0.0773  0.3299  0.6342
  979MOL0     H35033   7.324   5.577   4.365 -0.8291 -0.6662 -2.8950
  979MOL0     H35034   7.552   5.584   4.289 -0.2906 -0.3418  1.2723
  979MOL0     H35035   7.781   5.984   4.250 -0.6457  0.1242  0.5261
  979MOL0     H35036   7.659   5.995   4.115 -0.1206 -0.5257 -1.3845
  979MOL0     H35037   7.919   5.835   4.102 -0.0419 -1.7826 -1.1768
  979MOL0     H35038   7.804   5.879   3.974 -0.8165 -1.4964  1.0147
  979MOL0     H35039   8.004   6.010   3.956 -1.6484 -0.4803 -1.4162
  979MOL0     H35040   7.880   6.122   4.016  0.2522  0.0556  0.6199
  979MOL0     H35041   7.957   6.135   4.230  0.6506  1.3208 -1.9448
  979MOL0     H35042   8.069   5.993   4.207 -1.5805 -1.2787  1.6867
  979MOL0     H35043   8.086   6.271   4.043 -1.8412 -0.3871 -0.1116
  979MOL0     H35044   8.192   6.120   4.035  3.1660  1.1097  3.7892
  979MOL0     H35045   8.278   6.313   4.162 -1.3197  0.7293  1.4335
  979MOL0     H35046   8.139   6.308   4.257  0.2441 -1.4128  2.2532
  979MOL0     H35047   8.375   6.106   4.243  1.2630  0.8885  0.7422
  979MOL0     H35048   8.240   6.084   4.357 -3.0269 -0.2311 -2.0773
  979MOL0     H35049   8.307   6.322   4.435  1.3052  0.6407  1.0542
  979MOL0     H35050   8.425   6.194   4.481  3.3265 -1.2792 -1.6286
  979MOL0     H35051   8.638   6.151   4.339 -3.7060 -1.8577 -3.0588
  979MOL0     H35052   8.865   6.270   4.154 -1.3210 -0.7397 -0.3840
  979MOL0     H35053   8.901   6.285   4.323  1.5423  1.2622  0.0320
  979MOL0     H35054   8.893   6.531   4.132  1.3615  0.1383 -0.8006
  979MOL0     H35055   8.914   6.529   4.312  1.2979  2.2885 -0.0966
  979MOL0     H35056   9.105   6.403   4.290 -3.5229  1.7085  1.7811
  979MOL0     H35057   9.077   6.369   4.120 -1.3056  0.7099 -1.5907
  979MOL0     H35058   9.137   6.595   4.050  1.5125  0.0202  0.8999
  979MOL0     H35059   9.123   6.651   4.221  1.0646  1.7327 -0.4081
  979MOL0     H35060   9.369   6.376   4.323 -3.2917  2.0990 -1.5676
  979MOL0     H35061   9.429   6.295   4.515 -4.3117  2.0828  0.8708
  979MOL0     H35062   9.440   6.390   4.661  0.8332 -2.7332  1.1392
  979MOL0     H35063   9.591   6.361   4.573  0.8221  1.6393  0.3354
  979MOL0     H35064   9.319   6.840   4.874 -0.5826  3.0271 -0.5141
  979MOL0     H35065   9.356   6.916   5.110 -3.0952 -1.5924 -3.0854
  979MOL0     H35066   9.440   7.108   5.212 -0.4228  0.6056  2.0461
  979MOL0     H35067   9.451   6.989   5.337  0.4947  0.0259  0.1471
  979MOL0     H35068   9.640   7.234   5.322  0.7983 -1.4573 -0.1766
  979MOL0     H35069   9.492   7.217   5.417  1.1085  1.0395  1.3944
  979MOL0     H35070   9.772   7.100   5.434  1.1915  0.6268  1.2700
  979MOL0     H35071   9.636   6.999   5.500  0.1332  0.9014  0.5177
  979MOL0     H35072   9.552   7.186   5.635 -0.1031 -0.5051 -0.1305
  979MOL0     H35073   9.694   7.275   5.583 -0.9957  1.8965  3.2927
  979MOL0     H35074   9.720   7.009   5.715 -0.7494 -0.2795  1.7701
  979MOL0     H35075   9.848   7.123   5.677  0.0580  3.8398  1.0418
  979MOL0     H35076   9.619   7.211   5.865 -0.1518  0.3501  1.0539
  979MOL0     H35077   9.784   7.270   5.830  2.1746 -0.6931  1.1644
  979MOL0     H35078   9.852   7.025   5.931 -0.5490 -0.6536 -1.6194
  979MOL0     H35079   9.691   7.024   6.001 -0.8761 -0.4891 -0.1377
  979MOL0     H35080   9.836   7.122   6.183 -1.1122  1.3723  0.8792
  979MOL0     H35081   9.719   7.239   6.126 -0.0267  1.1236 -0.4922
  979MOL0     H35082   9.780   6.924   5.018 -0.0732  1.6298  1.0388
  979MOL0     H35083   9.729   6.831   4.776 -1.7839  0.1071 -3.2909
  979MOL0     H35084   9.459   6.841   4.452 -1.6278  0.0669 -2.8811
  979MOL0     H35085   9.374   6.796   4.243 -2.3234  0.5250  1.2689
  979MOL0     H35086   7.514   6.023   4.285 -2.1184  0.7946 -1.7971
  979MOL0     H35087   7.278   5.995   4.330  0.9635  1.8423 -3.9056
  979MOL0     H35088   6.885   5.965   4.569  0.0501 -0.3049  0.1304
  979MOL0     H35089   6.682   5.893   4.676 -0.0982  1.4627 -1.0662
  979MOL0     H35090   6.474   5.780   4.738 -0.9556 -0.3112  0.3891
  979MOL0     H35091   6.507   5.767   4.563  0.5589  3.4448  2.2730
  979MOL0     H35092   6.283   5.700   4.589  0.1310 -0.7434 -1.7139
  979MOL0     H35093   6.319   5.595   4.727 -3.4261  0.9802 -0.3041
  979MOL0     H35094   6.464   5.579   4.444  0.7207  0.5545  0.7260
  979MOL0     H35095   6.446   5.457   4.564 -0.0895 -0.7425  0.8819
  979MOL0     H35096   6.327   5.396   4.393  1.4315  0.0674  0.6445
  979MOL0     H35097   6.243   5.558   4.382 -0.7809 -1.6128 -0.0555
  979MOL0     H35098   5.991   5.335   4.638  2.4479 -1.0167  1.5677
  979MOL0     H35099   6.791   5.479   4.608 -1.8993  0.2892  0.9590
  979MOL0     H35100   7.147   5.549   4.500 -0.0421  0.1932  0.7093
  979MOL0     H35101   7.024   5.442   4.578  2.7965 -0.4994  0.3511
  979MOL0     H35102   7.012   5.513   4.410 -2.6120  1.2596  1.1085
  980MOL0     O35103   4.368   8.775   9.953 -1.1761 -0.4427  0.0362
  980MOL0     C35104   4.387   8.897   9.975  0.2982  0.0386 -0.1881
  980MOL0     O35105   4.306   9.000   9.934 -0.5888  0.1853  0.0086
  980MOL0     C35106   4.207   8.966   9.846  0.2341 -0.0964 -0.4216
  980MOL0     C35107   4.236   8.995   9.719 -0.8507 -0.9634  0.2729
  980MOL0     C35108   4.142   8.987   9.620  0.3475  0.2132 -0.8443
  980MOL0     C35109   4.020   8.945   9.653  0.1905  0.3577 -0.0416
  980MOL0     O35110   3.933   8.909   9.549 -0.7968  0.6388  0.5092
  980MOL0     C35111   3.845   8.792   9.567  0.4686 -0.2925  0.0360
  980MOL0     C35112   3.702   8.826   9.555  0.2817 -0.7258  0.2162
  980MOL0     C35113   3.664   8.868   9.409 -0.6201  0.0952 -1.2016
  980MOL0     C35114   3.623   8.752   9.318 -0.5106 -0.3479  0.0103
  980MOL0     C35115   3.558   8.790   9.189 -0.3721  0.0114  0.2829
  980MOL0     C35116   3.568   8.678   9.090 -0.2974  0.8161  0.4893
  980MOL0     C35117   3.548   8.725   8.948  0.0765  0.0909  1.0692
  980MOL0     C35118   3.661   8.798   8.874 -0.5010 -0.1774 -0.5377
  980MOL0     N35119   3.796   8.758   8.912 -0.1580 -0.8449 -0.2301
  980MOL0     C35120   3.873   8.792   9.022  0.5598  0.0601  0.3337
  980MOL0     C35121   4.000   8.739   9.001  0.6709 -0.0974 -0.8199
  980MOL0     C35122   4.133   8.753   9.072 -1.0737 -0.9114  0.7256
  980MOL0     C35123   4.106   8.729   9.218 -0.2525 -0.0650 -0.3502
  980MOL0     C35124   4.246   8.720   9.286 -0.5166  0.1753  1.4211
  980MOL0     C35125   4.229   8.682   9.434 -0.4537 -0.4873 -0.6594
  980MOL0     O35126   4.168   8.557   9.457  0.2866  0.7180 -0.3040
  980MOL0     C35127   4.121   8.534   9.583 -0.5568 -0.6230 -0.3027
  980MOL0     C35128   4.043   8.413   9.599  0.0612  0.2306 -0.0594
  980MOL0     C35129   3.994   8.375   9.723  0.3041 -0.7636  0.3181
  980MOL0     C35130   3.909   8.250   9.724  0.1518 -0.1925  0.7212
  980MOL0     C35131   4.023   8.450   9.841  0.0247  0.7180 -0.3600
  980MOL0     C35132   3.971   8.420   9.976  0.4857 -0.0968 -0.0555
  980MOL0     O35133   3.983   8.289  10.022 -0.1198  0.8674  0.4705
  980MOL0     C35134   3.923   8.250  10.134  0.5922 -0.2208 -0.6151
  980MOL0     C35135   3.932   8.321  10.256  0.0259 -0.3194  0.0334
  980MOL0     C35136   3.865   8.278  10.369  0.9047  0.2403  0.4264
  980MOL0     C35137   3.788   8.163  10.365 -0.1340  0.2523  0.1332
  980MOL0     O35138   3.729   8.126  10.487  0.3249 -0.0016 -0.0471
  980MOL0     C35139   3.755   7.993  10.538 -0.0713  0.6965 -0.5217
  980MOL0     C35140   3.681   7.961  10.670  0.2322 -0.9557 -0.0432
  980MOL0     C35141   3.541   7.895  10.644  0.5546 -0.0966  0.0515
  980MOL0     C35142   3.468   7.885  10.781 -0.0554 -0.0486 -0.5525
  980MOL0     C35143   3.342   7.793  10.755  0.5581 -0.5906 -0.7565
  980MOL0     C35144   3.230   7.869  10.690  0.6964 -0.7641  0.4302
  980MOL0     C35145   3.128   7.775  10.628  0.3762 -0.1137 -0.0339
  980MOL0     C35146   3.017   7.729  10.731  0.0767  0.0033  0.6211
  980MOL0    Cl35147   3.091   7.634  10.856 -0.0195 -0.0512  0.0932
  980MOL0     C35148   3.778   8.100  10.243  0.0336  0.7041  0.1222
  980MOL0     C35149   3.833   8.149  10.127 -0.3580  0.1122  0.0132
  980MOL0     O35150   3.923   8.516  10.038  0.5576  0.0833  0.3269
  980MOL0     C35151   4.107   8.566   9.823  0.3590  0.0311 -0.8985
  980MOL0     C35152   4.152   8.612   9.698 -0.4814  0.2390 -0.0423
  980MOL0     N35153   3.994   8.687   8.876  0.2858  0.3508  1.5689
  980MOL0     N35154   3.881   8.696   8.819  0.2874 -0.3998 -0.3450
  980MOL0     C35155   3.983   8.927   9.789 -0.1416  0.1491 -0.0172
  980MOL0     C35156   4.077   8.927   9.887 -0.2944  0.9971 -0.0425
  980MOL0     C35157   4.499   8.942  10.056 -0.7370  0.6538  0.0690
  980MOL0     C35158   4.533   9.076  10.058 -0.1665 -0.6511  0.5013
  980MOL0     C35159   4.650   9.117  10.121 -0.4885  0.4657 -0.6817
  980MOL0     C35160   4.733   9.035  10.196  0.6125 -0.3930 -0.5736
  980MOL0     O35161   4.848   9.079  10.254 -0.0353  0.6065 -0.2011
  980MOL0     C35162   4.914   9.210  10.234  0.7175 -0.0292 -0.6003
  980MOL0     C35163   5.055   9.187  10.291 -0.0599 -0.4689  0.1699
  980MOL0     C35164   5.038   9.172  10.440  0.5657 -0.6804  0.0412
  980MOL0     C35165   5.164   9.170  10.523  0.1846  0.2788  0.9151
  980MOL0     C35166   5.129   9.124  10.663 -0.8032  0.0066  0.1564
  980MOL0     C35167   5.114   9.089  10.778 -0.4699 -0.2381 -0.5885
  980MOL0     C35168   4.684   8.907  10.211  0.2895  0.1409  0.5068
  980MOL0     C35169   4.578   8.853  10.136 -0.7619  0.5443  0.8708
  980MOL0     C35170   4.542   8.706  10.162 -0.0513  0.4197  0.5360
  980MOL0     H35171   4.330   9.034   9.680  0.2459 -0.6931  2.9818
  980MOL0     H35172   4.168   9.005   9.516 -0.9185 -2.7676 -1.7676
  980MOL0     H35173   3.855   8.735   9.660 -2.2928 -0.3448  0.3855
  980MOL0     H35174   3.872   8.723   9.486  0.0475 -0.3380 -0.0695
  980MOL0     H35175   3.627   8.750   9.576  0.5327 -0.7107  1.2100
  980MOL0     H35176   3.687   8.912   9.621  0.2725 -0.5883  0.0348
  980MOL0     H35177   3.574   8.929   9.421 -0.3221  0.3099  0.1711
  980MOL0     H35178   3.737   8.934   9.360 -0.6508 -0.3699 -1.8752
  980MOL0     H35179   3.721   8.717   9.284 -1.1542 -0.2910 -1.9799
  980MOL0     H35180   3.563   8.678   9.371  0.1218 -0.9124 -0.0569
  980MOL0     H35181   3.623   8.874   9.163 -0.3996  0.2162  0.8460
  980MOL0     H35182   3.460   8.838   9.199 -1.0051 -1.3894  1.0491
  980MOL0     H35183   3.665   8.630   9.109  0.1663  1.8603  0.7986
  980MOL0     H35184   3.491   8.601   9.097  0.2854 -0.1427 -2.3616
  980MOL0     H35185   3.455   8.783   8.944 -0.1651 -0.1373  2.7356
  980MOL0     H35186   3.533   8.641   8.879  1.7010  1.0437 -0.5599
  980MOL0     H35187   3.648   8.790   8.765 -0.5117  0.9367 -0.6290
  980MOL0     H35188   3.637   8.903   8.891 -2.1406 -0.5245 -0.5244
  980MOL0     H35189   3.848   8.858   9.104 -1.6248 -1.0791  0.6635
  980MOL0     H35190   4.170   8.853   9.048 -3.0504 -0.6279 -1.6060
  980MOL0     H35191   4.205   8.682   9.032 -1.6045 -0.1040 -1.8523
  980MOL0     H35192   4.040   8.801   9.267 -0.4502 -0.3506 -0.1900
  980MOL0     H35193   4.064   8.630   9.240  1.0973  0.1901  4.2431
  980MOL0     H35194   4.303   8.644   9.232  0.8547  2.9700 -1.3309
  980MOL0     H35195   4.306   8.809   9.268 -0.7089  0.1508  0.6227
  980MOL0     H35196   4.325   8.690   9.486 -1.4856  3.3087  0.9882
  980MOL0     H35197   4.167   8.756   9.485 -0.9941 -2.0079  1.0105
  980MOL0     H35198   4.035   8.342   9.517  1.4948  1.5684 -1.4417
  980MOL0     H35199   3.843   8.257   9.811  0.0614  4.8164  0.5208
  980MOL0     H35200   3.983   8.169   9.723 -0.1220 -0.4426 -0.2524
  980MOL0     H35201   3.848   8.251   9.633 -2.2659 -0.4743  2.2679
  980MOL0     H35202   3.988   8.414  10.252 -0.2960 -0.1027  0.5336
  980MOL0     H35203   3.880   8.334  10.460  1.4737  2.0137 -0.7196
  980MOL0     H35204   3.731   7.919  10.461  2.3556 -1.5421  0.7026
  980MOL0     H35205   3.860   7.975  10.563 -0.4646 -0.0972  0.6601
  980MOL0     H35206   3.750   7.892  10.720  1.7393 -0.2247 -1.0237
  980MOL0     H35207   3.668   8.054  10.726 -3.1779 -1.6699  0.5447
  980MOL0     H35208   3.549   7.801  10.589  0.4543  1.2778 -2.4989
  980MOL0     H35209   3.481   7.957  10.577 -1.2149 -0.3299  1.3460
  980MOL0     H35210   3.434   7.982  10.819 -2.8728 -0.9785 -0.4693
  980MOL0     H35211   3.542   7.839  10.847  0.6002 -0.2417 -1.3998
  980MOL0     H35212   3.348   7.703  10.694  0.4943 -1.1425  0.0340
  980MOL0     H35213   3.306   7.773  10.856 -1.7980 -1.9185 -1.7689
  980MOL0     H35214   3.264   7.939  10.613 -0.3984  0.7393  1.2420
  980MOL0     H35215   3.179   7.928  10.767 -2.2542 -1.3946 -0.9013
  980MOL0     H35216   3.167   7.683  10.585  0.1822 -1.8149  3.1359
  980MOL0     H35217   3.086   7.831  10.544 -1.2869  0.7313  1.2755
  980MOL0     H35218   2.927   7.687  10.685 -1.2916  3.6155 -0.3495
  980MOL0     H35219   2.982   7.820  10.781 -0.1700  0.5362 -0.4987
  980MOL0     H35220   3.726   8.005  10.235  1.7400 -0.2250 -0.4813
  980MOL0     H35221   3.814   8.104  10.030 -0.9774  0.4900 -0.0465
  980MOL0     H35222   4.119   8.620   9.916 -1.4032  1.6827 -1.5605
  980MOL0     H35223   4.216   8.700   9.697 -0.2282  0.0997 -2.6579
  980MOL0     H35224   3.880   8.901   9.810  0.6853 -3.4065  0.2397
  980MOL0     H35225   4.049   8.907   9.990 -2.1675  2.0027 -0.3052
  980MOL0     H35226   4.489   9.147   9.988  0.2090 -1.0368 -0.1342
  980MOL0     H35227   4.672   9.223  10.116 -1.1637  0.7859  2.0660
  980MOL0     H35228   4.914   9.252  10.133 -0.3038  1.9068  0.1542
  980MOL0     H35229   4.861   9.273  10.306 -0.9598 -1.6380 -0.3450
  980MOL0     H35230   5.122   9.271  10.271 -0.3654 -0.7901 -2.6058
  980MOL0     H35231   5.102   9.102  10.240  1.4713  0.8904 -0.7906
  980MOL0     H35232   4.972   9.256  10.464 -1.5410 -1.2364 -3.1114
  980MOL0     H35233   4.988   9.076  10.453 -0.1079 -0.4727 -0.8568
  980MOL0     H35234   5.194   9.275  10.523  2.2668 -0.2706  1.7425
  980MOL0     H35235   5.229   9.096  10.476 -2.3541 -0.1787 -2.2188
  980MOL0     H35236   5.107   9.029  10.867  2.2708  0.1753  0.0155
  980MOL0     H35237   4.733   8.830  10.270 -1.0118 -2.1767 -1.3081
  980MOL0     H35238   4.443   8.699  10.209 -0.4691  1.8806 -0.0515
  980MOL0     H35239   4.533   8.647  10.071 -1.9302  0.4507  0.6456
  980MOL0     H35240   4.609   8.659  10.235  5.1270  3.5109 -1.6538
  981MOL0     O35241   4.788   8.523  11.403 -0.0336  0.4840 -0.5099
  981MOL0     C35242   4.718   8.418  11.394  0.3325 -0.8546 -0.5877
  981MOL0     O35243   4.763   8.303  11.357 -0.1839  0.1082  1.1145
  981MOL0     C35244   4.893   8.282  11.300  0.2793 -0.0752 -0.2939
  981MOL0     C35245   4.950   8.152  11.318 -0.9496 -0.0050 -0.3645
  981MOL0     C35246   5.081   8.124  11.267  0.5221 -0.5915  0.0713
  981MOL0     C35247   5.145   8.219  11.197  0.2337 -1.1369 -0.4598
  981MOL0     O35248   5.269   8.191  11.144 -0.5679  0.1393 -0.0104
  981MOL0     C35249   5.286   8.085  11.047 -0.5907 -0.4949  0.2691
  981MOL0     C35250   5.413   8.110  10.952 -0.3968  0.5366 -0.6989
  981MOL0     C35251   5.490   7.980  10.927  0.0667  0.2846  0.1414
  981MOL0     C35252   5.610   7.957  11.028 -0.0278  0.7974  0.2883
  981MOL0     C35253   5.704   7.857  10.965 -0.1234 -0.3761  0.6685
  981MOL0     C35254   5.802   7.802  11.064 -0.7486 -0.2629 -0.6475
  981MOL0     C35255   5.897   7.923  11.097 -0.6039  1.3112 -0.3143
  981MOL0     C35256   6.016   7.870  11.189  0.0663 -0.1682  0.6235
  981MOL0     N35257   5.974   7.875  11.334 -0.3588  0.0429 -0.5223
  981MOL0     C35258   5.872   7.812  11.401 -0.8304  0.3379 -0.9923
  981MOL0     C35259   5.876   7.856  11.530 -0.0852  0.1730  0.1488
  981MOL0     C35260   5.776   7.826  11.645 -0.3725  0.2414  0.7910
  981MOL0     C35261   5.849   7.782  11.778 -0.0134 -0.7249  0.5289
  981MOL0     C35262   5.920   7.649  11.772 -0.4995  0.2112 -0.9352
  981MOL0     C35263   5.840   7.518  11.789  0.4053 -0.0451 -0.3544
  981MOL0     O35264   5.752   7.507  11.672  0.0093 -0.0216 -0.1433
  981MOL0     C35265   5.663   7.405  11.668 -0.1648  0.2806 -0.2133
  981MOL0     C35266   5.548   7.428  11.600  0.4787 -0.0391 -0.9618
  981MOL0     C35267   5.442   7.334  11.591  0.5744  0.1575  0.5181
  981MOL0     C35268   5.316   7.381  11.525  0.7799  0.0627 -0.3514
  981MOL0     C35269   5.460   7.202  11.642 -0.0443 -0.4882  0.0809
  981MOL0     C35270   5.358   7.099  11.639  0.0997  1.1809 -0.4825
  981MOL0     O35271   5.407   6.975  11.676 -0.4030  0.1636  0.1195
  981MOL0     C35272   5.320   6.870  11.706 -0.2565  0.5853  0.3829
  981MOL0     C35273   5.292   6.851  11.845  0.1697  0.3251 -0.2184
  981MOL0     C35274   5.194   6.755  11.877  0.2875 -0.5529 -0.5281
  981MOL0     C35275   5.137   6.669  11.781 -0.8273  0.4672 -0.9304
  981MOL0     O35276   5.043   6.565  11.799  0.1450  0.2749 -0.0634
  981MOL0     C35277   5.013   6.532  11.939 -0.3798  0.9902 -1.2301
  981MOL0     C35278   4.928   6.409  11.933 -0.1923  0.7174  0.9828
  981MOL0     C35279   5.002   6.293  11.858 -0.5689 -0.9994  0.1031
  981MOL0     C35280   4.936   6.157  11.896  0.0203 -0.5384  0.1483
  981MOL0     C35281   5.006   6.032  11.845 -0.2207 -0.2123 -0.7011
  981MOL0     C35282   5.023   6.019  11.698 -0.0630  0.7985  0.0086
  981MOL0     C35283   5.099   5.883  11.678 -0.5526 -0.2164  0.1345
  981MOL0     C35284   5.110   5.847  11.530  0.7749  0.6270 -0.1141
  981MOL0    Cl35285   5.222   5.967  11.455 -0.0414  0.1204 -0.2673
  981MOL0     C35286   5.177   6.694  11.649  0.6637  0.4065  0.8949
  981MOL0     C35287   5.251   6.794  11.605  0.5778  0.5977 -0.4311
  981MOL0     O35288   5.243   7.118  11.613  0.2437  0.9248 -0.2576
  981MOL0     C35289   5.582   7.178  11.711 -0.0681 -0.2007  0.4751
  981MOL0     C35290   5.682   7.281  11.725  0.4846  0.4636  0.0643
  981MOL0     N35291   5.976   7.953  11.531 -1.0577 -0.9864 -0.3103
  981MOL0     N35292   6.033   7.968  11.415  0.0570  0.9339  0.2439
  981MOL0     C35293   5.090   8.347  11.174  0.1265 -0.2342 -0.0390
  981MOL0     C35294   4.964   8.368  11.220 -0.9517  0.0682 -0.5703
  981MOL0     C35295   4.579   8.420  11.463 -0.2359 -0.2043 -0.1907
  981MOL0     C35296   4.497   8.302  11.463 -0.2403  0.0895 -0.1414
  981MOL0     C35297   4.364   8.300  11.511  0.2465 -0.4349 -0.4877
  981MOL0     C35298   4.305   8.412  11.565  0.3619  0.5339  0.3980
  981MOL0     O35299   4.169   8.405  11.595 -0.1436 -0.4973 -0.0856
  981MOL0     C35300   4.105   8.532  11.628 -0.4405  1.2684  0.4301
  981MOL0     C35301   3.956   8.487  11.645  0.4662 -0.1964  0.1970
  981MOL0     C35302   3.865   8.606  11.670  0.3389 -0.7763 -0.2053
  981MOL0     C35303   3.715   8.565  11.666 -0.6073  1.0039 -0.0087
  981MOL0     C35304   3.647   8.690  11.688 -0.0693  0.1145  0.6749
  981MOL0     C35305   3.581   8.792  11.700  0.0532  0.1023 -0.8176
  981MOL0     C35306   4.381   8.532  11.563  0.3751  0.6212 -0.8638
  981MOL0     C35307   4.511   8.541  11.510  0.0294  0.4628  0.0586
  981MOL0     C35308   4.572   8.677  11.512  0.1047 -0.1522 -0.6866
  981MOL0     H35309   4.895   8.081  11.380 -0.4394 -0.2991 -0.2375
  981MOL0     H35310   5.124   8.026  11.283 -1.0330 -1.6672 -1.9053
  981MOL0     H35311   5.199   8.071  10.982 -0.5678  0.3041  0.0617
  981MOL0     H35312   5.305   7.991  11.099  3.4172 -0.4532 -0.7969
  981MOL0     H35313   5.395   8.173  10.864 -1.1421  1.8199  0.3467
  981MOL0     H35314   5.480   8.172  11.011  0.2370  2.0405 -2.8508
  981MOL0     H35315   5.422   7.895  10.924  0.4104 -0.0781  1.6796
  981MOL0     H35316   5.528   7.996  10.825 -2.2608  3.6506 -0.3666
  981MOL0     H35317   5.657   8.052  11.051 -3.0781  2.3434  0.7057
  981MOL0     H35318   5.572   7.910  11.119 -0.0280  0.7546  0.2660
  981MOL0     H35319   5.751   7.903  10.878 -0.7731 -1.1485 -0.1252
  981MOL0     H35320   5.644   7.780  10.915  1.2410 -1.1348  0.1630
  981MOL0     H35321   5.762   7.785  11.164 -1.6440  2.9644 -0.3465
  981MOL0     H35322   5.849   7.713  11.020  0.8482  0.6513 -0.8743
  981MOL0     H35323   5.842   7.988  11.166  0.0381  1.2409  0.2843
  981MOL0     H35324   5.940   7.973  11.009  2.0653 -1.3927 -0.7282
  981MOL0     H35325   6.051   7.773  11.152  1.5450  0.9464 -1.1011
  981MOL0     H35326   6.097   7.943  11.178  0.5694 -0.8561 -0.4393
  981MOL0     H35327   5.807   7.736  11.360  0.8990 -0.8613 -1.6568
  981MOL0     H35328   5.705   7.748  11.619 -0.1080  0.1700  0.2792
  981MOL0     H35329   5.715   7.915  11.667  1.1817  1.1328  1.6883
  981MOL0     H35330   5.923   7.860  11.803  0.8900 -0.8911 -1.4598
  981MOL0     H35331   5.781   7.782  11.864  3.4154 -1.4448  3.4994
  981MOL0     H35332   5.983   7.645  11.682  2.9228  0.8222  1.2684
  981MOL0     H35333   5.990   7.645  11.855 -1.3526 -1.8614 -0.2491
  981MOL0     H35334   5.904   7.430  11.796 -1.2798 -1.2061  2.1023
  981MOL0     H35335   5.773   7.518  11.876 -2.3721 -0.4232 -2.3366
  981MOL0     H35336   5.533   7.529  11.562  2.2815  0.3094 -0.8301
  981MOL0     H35337   5.329   7.477  11.474 -0.3467  0.4618  0.0837
  981MOL0     H35338   5.238   7.387  11.602  1.5921  1.1157  0.4244
  981MOL0     H35339   5.290   7.300  11.457 -2.6413  0.9095 -0.2342
  981MOL0     H35340   5.342   6.912  11.919 -0.8867 -0.5196  1.2520
  981MOL0     H35341   5.177   6.737  11.983  2.6882  0.6309  0.1550
  981MOL0     H35342   5.109   6.518  11.990  1.0986  2.1039 -3.5538
  981MOL0     H35343   4.952   6.603  11.996  1.3404  0.3616  1.5772
  981MOL0     H35344   4.918   6.382  12.038  2.2639 -1.9673  0.6520
  981MOL0     H35345   4.843   6.433  11.868  2.6549 -0.8216 -3.9093
  981MOL0     H35346   5.106   6.290  11.892 -0.3636  3.0093  0.3051
  981MOL0     H35347   4.993   6.310  11.750 -4.8394 -1.7464  0.1405
  981MOL0     H35348   4.829   6.147  11.875  0.2524  0.3615 -1.5841
  981MOL0     H35349   4.938   6.153  12.006  0.2146 -0.4668  0.1470
  981MOL0     H35350   5.100   6.028  11.902 -1.5275 -0.7421  1.5375
  981MOL0     H35351   4.952   5.952  11.898 -0.0158  1.4265  2.2190
  981MOL0     H35352   5.081   6.103  11.660  0.6610  0.4537  0.3376
  981MOL0     H35353   4.926   6.016  11.648 -0.4337  0.6211  0.7167
  981MOL0     H35354   5.043   5.810  11.737  2.0881 -0.9123  1.9486
  981MOL0     H35355   5.204   5.891  11.708  0.4246  1.0108 -3.1550
  981MOL0     H35356   5.013   5.850  11.480  0.3315 -1.4545  0.5026
  981MOL0     H35357   5.146   5.744  11.521  0.2268 -0.1153  4.0377
  981MOL0     H35358   5.149   6.627  11.569  0.7242  0.1864  1.0569
  981MOL0     H35359   5.270   6.810  11.500  1.3655  1.3120 -0.1946
  981MOL0     H35360   5.600   7.091  11.773  0.2726  0.3480  1.1622
  981MOL0     H35361   5.779   7.271  11.773  0.3719  1.8606  0.6354
  981MOL0     H35362   5.146   8.422  11.119  2.2338 -2.8137 -1.6540
  981MOL0     H35363   4.932   8.471  11.208 -0.2505  0.2583 -0.9221
  981MOL0     H35364   4.538   8.209  11.425  2.9790  1.0738  0.6544
  981MOL0     H35365   4.303   8.211  11.518  1.7684 -1.4015  2.0584
  981MOL0     H35366   4.158   8.575  11.714  0.2686  1.4991 -0.1224
  981MOL0     H35367   4.104   8.601  11.543  0.0647  0.5113 -0.1953
  981MOL0     H35368   3.954   8.421  11.731 -0.1985 -0.7259 -0.2127
  981MOL0     H35369   3.914   8.434  11.558 -1.9771 -1.6279  2.1141
  981MOL0     H35370   3.891   8.644  11.769 -0.6800 -2.8609  0.9363
  981MOL0     H35371   3.884   8.682  11.594 -0.6702 -1.1537 -0.8548
  981MOL0     H35372   3.688   8.495  11.745 -0.5796  0.2212 -0.6796
  981MOL0     H35373   3.687   8.518  11.571 -0.0447 -2.2274  1.3047
  981MOL0     H35374   3.534   8.889  11.701 -2.2099 -0.9422 -0.4625
  981MOL0     H35375   4.338   8.619  11.613  2.3339  0.3164  1.5157
  981MOL0     H35376   4.497   8.754  11.531  1.8164  1.6815 -1.0532
  981MOL0     H35377   4.644   8.685  11.595 -1.9732  4.3667  0.9707
  981MOL0     H35378   4.621   8.708  11.419 -0.3449  0.6981 -0.6499
  982MOL0     O35379   3.806   3.931   8.714  0.6356  0.0330 -0.4552
  982MOL0     C35380   3.729   4.014   8.773 -0.2633 -0.6615  0.0620
  982MOL0     O35381   3.772   4.105   8.865 -0.2786 -0.1875 -0.2001
  982MOL0     C35382   3.904   4.136   8.879 -0.3029 -0.8031  0.2443
  982MOL0     C35383   3.954   4.164   9.008  0.4230  0.1575 -0.3517
  982MOL0     C35384   4.087   4.206   9.018 -0.0871 -0.3608  0.3480
  982MOL0     C35385   4.161   4.242   8.903 -0.6296 -0.4756  0.9560
  982MOL0     O35386   4.292   4.287   8.905  0.6159 -0.2422 -0.8876
  982MOL0     C35387   4.378   4.257   9.016 -0.2396 -0.1562  0.7977
  982MOL0     C35388   4.391   4.375   9.122  0.3358  0.2486  0.3190
  982MOL0     C35389   4.415   4.518   9.061 -1.0342 -0.2432 -0.5361
  982MOL0     C35390   4.535   4.534   8.961 -0.3497  0.2033 -0.6030
  982MOL0     C35391   4.581   4.678   8.952  0.1463  0.0183  0.5582
  982MOL0     C35392   4.477   4.785   8.895  0.3596  0.2310 -0.5412
  982MOL0     C35393   4.535   4.927   8.880 -0.2029 -0.5254 -0.2603
  982MOL0     C35394   4.440   5.038   8.857 -0.2729 -0.3043 -0.2380
  982MOL0     N35395   4.352   5.085   8.967 -0.6739 -0.6738  1.0199
  982MOL0     C35396   4.271   5.018   9.049 -0.0916 -0.1529  0.1412
  982MOL0     C35397   4.233   5.117   9.135 -0.0074 -0.9559 -0.2710
  982MOL0     C35398   4.127   5.100   9.245  0.1562 -0.1060 -0.4072
  982MOL0     C35399   4.001   5.020   9.202 -0.6953  0.0171  0.8274
  982MOL0     C35400   3.873   5.030   9.284 -0.3234 -0.1093 -0.5062
  982MOL0     C35401   3.748   4.973   9.209  0.9011  0.1779 -0.4731
  982MOL0     O35402   3.692   5.069   9.124 -0.4907 -0.0661  0.5962
  982MOL0     C35403   3.572   5.041   9.078 -0.1360  0.5115  0.0037
  982MOL0     C35404   3.542   4.948   8.981 -0.2171  0.2716  0.2031
  982MOL0     C35405   3.410   4.929   8.935  1.0557 -0.1746 -0.4601
  982MOL0     C35406   3.396   4.818   8.834 -0.2297  0.2356 -0.4128
  982MOL0     C35407   3.307   5.008   8.988 -0.7147 -0.5392 -0.5166
  982MOL0     C35408   3.162   4.974   8.951  0.1790 -0.2671  0.6330
  982MOL0     O35409   3.134   4.843   8.921 -0.0509  0.0082  0.0568
  982MOL0     C35410   3.010   4.814   8.880 -0.3003  0.3196  0.1950
  982MOL0     C35411   2.895   4.837   8.959 -0.3146 -0.0762  0.0382
  982MOL0     C35412   2.774   4.786   8.906 -0.7551 -0.4709  1.1850
  982MOL0     C35413   2.754   4.720   8.791 -0.4191 -0.7082 -0.1394
  982MOL0     O35414   2.638   4.673   8.741  0.4079  0.2301  0.6700
  982MOL0     C35415   2.510   4.683   8.808  0.1218  0.1846  0.5181
  982MOL0     C35416   2.395   4.670   8.710 -0.3172  0.0003  0.7353
  982MOL0     C35417   2.269   4.707   8.786 -1.0126  0.4644 -0.6403
  982MOL0     C35418   2.147   4.676   8.698 -0.2266 -1.0788  0.0694
  982MOL0     C35419   2.020   4.749   8.731 -0.9422  0.4232 -0.4504
  982MOL0     C35420   1.909   4.684   8.634 -0.8878  0.2096 -0.1505
  982MOL0     C35421   1.777   4.755   8.649 -0.0188 -0.2572  0.7020
  982MOL0     C35422   1.782   4.891   8.584 -0.0899 -0.6099  0.4397
  982MOL0    Cl35423   1.630   4.986   8.637 -0.4077 -0.4333 -0.2300
  982MOL0     C35424   2.871   4.691   8.724 -0.5892  0.2693 -0.3878
  982MOL0     C35425   2.997   4.731   8.775 -0.0241  0.4002 -0.1212
  982MOL0     O35426   3.080   5.067   8.961  0.0285 -0.5292 -0.9455
  982MOL0     C35427   3.342   5.109   9.081  0.1930  0.3641  0.0940
  982MOL0     C35428   3.471   5.125   9.125 -0.3833  0.0568 -0.2122
  982MOL0     N35429   4.288   5.236   9.101 -0.3441 -0.2696 -0.0142
  982MOL0     N35430   4.358   5.214   8.998  0.1603 -0.0359 -0.2235
  982MOL0     C35431   4.104   4.227   8.774 -0.6379 -0.1455  0.1044
  982MOL0     C35432   3.979   4.175   8.763 -0.5576  0.5545 -0.9694
  982MOL0     C35433   3.578   4.000   8.766 -0.4052 -0.0460 -0.3969
  982MOL0     C35434   3.505   4.072   8.861  0.4378 -0.2224  0.0040
  982MOL0     C35435   3.372   4.062   8.869  0.1730 -0.0003  0.3928
  982MOL0     C35436   3.299   3.970   8.791 -0.2507 -0.8602 -0.3644
  982MOL0     O35437   3.167   3.961   8.820  0.6087 -0.0288  0.8586
  982MOL0     C35438   3.093   3.859   8.757 -0.0669  0.3878  0.7667
  982MOL0     C35439   2.955   3.849   8.823 -0.2631  0.0921 -0.6801
  982MOL0     C35440   2.868   3.735   8.773 -0.1890 -0.2242  0.6967
  982MOL0     C35441   2.787   3.787   8.643  0.4425  0.5224 -0.1749
  982MOL0     C35442   2.692   3.884   8.687  0.1291 -0.8186 -0.4280
  982MOL0     C35443   2.623   3.977   8.742 -1.0829 -0.3801  1.0203
  982MOL0     C35444   3.367   3.896   8.695 -0.1775 -0.4893  0.0987
  982MOL0     C35445   3.505   3.915   8.680  0.1722  0.1146 -0.1121
  982MOL0     C35446   3.568   3.834   8.569  0.0616 -0.5435 -0.4469
  982MOL0     H35447   3.899   4.137   9.097  1.5127 -2.2170 -0.3306
  982MOL0     H35448   4.119   4.220   9.121 -3.9818  3.2098  1.3390
  982MOL0     H35449   4.474   4.219   8.981  0.2302 -1.2995  3.1090
  982MOL0     H35450   4.334   4.175   9.074 -0.4283 -0.6973 -0.0978
  982MOL0     H35451   4.290   4.368   9.164 -0.7348  2.9512 -1.4851
  982MOL0     H35452   4.455   4.342   9.204  1.4232 -0.2455 -0.7078
  982MOL0     H35453   4.322   4.557   9.018  0.1315  0.4003 -2.6058
  982MOL0     H35454   4.433   4.594   9.137  1.2883  1.5401 -2.7220
  982MOL0     H35455   4.621   4.475   8.996  0.1924  1.1173 -0.3648
  982MOL0     H35456   4.519   4.488   8.863 -1.7226  1.1363 -0.8404
  982MOL0     H35457   4.672   4.696   8.894  0.9300  1.0019  2.0436
  982MOL0     H35458   4.602   4.709   9.054 -2.4501  0.2167  1.1049
  982MOL0     H35459   4.443   4.739   8.802  3.5810  1.6338 -2.5681
  982MOL0     H35460   4.396   4.781   8.969  3.7846 -1.1678  3.5559
  982MOL0     H35461   4.599   4.918   8.793 -2.0057  2.3498 -2.0842
  982MOL0     H35462   4.594   4.942   8.971  1.2528  0.0731 -1.2724
  982MOL0     H35463   4.507   5.121   8.834  0.2196 -0.9430 -1.1980
  982MOL0     H35464   4.394   5.024   8.758  1.3376 -0.4622 -1.0027
  982MOL0     H35465   4.241   4.914   9.053 -2.4144  0.4557  0.1758
  982MOL0     H35466   4.088   5.201   9.267  0.4015  0.4629 -2.4186
  982MOL0     H35467   4.158   5.063   9.343 -1.6076  2.8307  1.4222
  982MOL0     H35468   3.982   5.054   9.100 -0.8403 -0.7738  0.5842
  982MOL0     H35469   4.031   4.915   9.199 -1.4537 -0.1931  0.4201
  982MOL0     H35470   3.889   4.967   9.372  2.1918 -0.2077 -0.9776
  982MOL0     H35471   3.851   5.129   9.324 -0.1372 -0.8662  1.5559
  982MOL0     H35472   3.777   4.884   9.151 -1.7000 -0.2148 -1.2871
  982MOL0     H35473   3.674   4.946   9.284  2.0418 -0.4798  0.4489
  982MOL0     H35474   3.627   4.889   8.947 -0.2927 -0.0886  0.6364
  982MOL0     H35475   3.326   4.850   8.757 -0.7671 -0.1448 -0.0876
  982MOL0     H35476   3.363   4.731   8.892  0.3905  0.7682  0.7765
  982MOL0     H35477   3.495   4.799   8.790  0.2073  0.1164  0.5780
  982MOL0     H35478   2.917   4.884   9.054  1.4402 -0.7320 -0.0121
  982MOL0     H35479   2.682   4.793   8.962 -1.6292 -0.4454 -0.2133
  982MOL0     H35480   2.484   4.610   8.885 -0.7675 -0.1339 -0.0675
  982MOL0     H35481   2.513   4.774   8.867 -0.8770 -0.9769  2.4582
  982MOL0     H35482   2.408   4.738   8.625  1.1847 -0.9128  0.1940
  982MOL0     H35483   2.395   4.569   8.668  0.5236 -0.3246  1.4810
  982MOL0     H35484   2.270   4.816   8.794  0.4736  0.5536 -1.7534
  982MOL0     H35485   2.271   4.661   8.885  1.3771  2.7283  0.4687
  982MOL0     H35486   2.133   4.568   8.694 -0.5325 -1.1869  2.4699
  982MOL0     H35487   2.171   4.706   8.596 -0.9667 -2.0071 -0.3960
  982MOL0     H35488   2.008   4.716   8.834  2.9076 -2.7220 -0.7654
  982MOL0     H35489   2.027   4.858   8.725  0.6412  0.3084 -1.1228
  982MOL0     H35490   1.901   4.580   8.667  0.1699  0.0493 -0.3673
  982MOL0     H35491   1.946   4.679   8.532 -1.4583 -0.8622 -0.3248
  982MOL0     H35492   1.756   4.768   8.755  0.3714  0.4249  0.7037
  982MOL0     H35493   1.696   4.702   8.599  1.1881 -0.9708 -0.5687
  982MOL0     H35494   1.778   4.876   8.476  1.6541 -1.9874  0.5173
  982MOL0     H35495   1.876   4.946   8.599 -0.1120 -0.5141  0.2406
  982MOL0     H35496   2.864   4.630   8.635 -1.9506 -0.4984  0.1976
  982MOL0     H35497   3.077   4.716   8.703  0.5013  2.2880  0.0260
  982MOL0     H35498   3.260   5.172   9.114  1.3005  0.8538  2.0352
  982MOL0     H35499   3.491   5.208   9.191 -3.1123  1.2303 -0.6978
  982MOL0     H35500   4.151   4.261   8.683 -1.3407  0.3479 -0.0743
  982MOL0     H35501   3.927   4.154   8.670  0.3029 -2.2702 -0.9036
  982MOL0     H35502   3.560   4.109   8.947 -1.4711 -0.9593  1.6315
  982MOL0     H35503   3.312   4.105   8.949 -0.7420 -1.6762  0.6718
  982MOL0     H35504   3.092   3.873   8.649  0.9483 -0.2640  0.6660
  982MOL0     H35505   3.139   3.760   8.762 -0.6865 -0.1132 -1.9737
  982MOL0     H35506   2.906   3.947   8.833 -1.8375 -0.8029  0.9723
  982MOL0     H35507   2.981   3.822   8.925 -0.0430 -0.4796 -0.8858
  982MOL0     H35508   2.944   3.662   8.746  1.4274  1.2390  1.1139
  982MOL0     H35509   2.803   3.690   8.849 -1.0121  1.5344  1.1082
  982MOL0     H35510   2.756   3.702   8.581  1.0320  1.4462 -1.8028
  982MOL0     H35511   2.859   3.827   8.571  1.2408 -3.1571 -1.6577
  982MOL0     H35512   2.560   4.052   8.784 -2.1447  1.3271 -3.1426
  982MOL0     H35513   3.313   3.818   8.641  2.3413 -0.2957 -2.9648
  982MOL0     H35514   3.628   3.902   8.507 -2.0758  2.0951  0.1283
  982MOL0     H35515   3.644   3.766   8.607  0.6795  0.7741  0.7577
  982MOL0     H35516   3.493   3.782   8.508 -0.3412 -0.7488  0.2159
  983MOL0     O35517   2.424  11.386   6.662 -0.1342  0.3928  0.1202
  983MOL0     C35518   2.448  11.484   6.590 -0.1933 -0.3290  0.0928
  983MOL0     O35519   2.360  11.531   6.507  0.5700  0.0060 -0.3942
  983MOL0     C35520   2.258  11.451   6.449  0.1770 -0.7354 -0.2631
  983MOL0     C35521   2.158  11.521   6.384  0.2062 -0.2154  0.5890
  983MOL0     C35522   2.061  11.456   6.314 -0.0963  0.5649  0.0766
  983MOL0     C35523   2.050  11.324   6.309  0.5307 -0.0168  0.2436
  983MOL0     O35524   1.939  11.271   6.246  0.2416  0.4894 -0.7753
  983MOL0     C35525   1.921  11.130   6.237  0.5645  0.0560  0.1314
  983MOL0     C35526   1.854  11.082   6.362  0.3728 -0.6594 -0.8653
  983MOL0     C35527   1.712  11.139   6.374 -0.8760 -0.1724  0.2507
  983MOL0     C35528   1.659  11.085   6.504 -0.0427 -0.4921 -0.1678
  983MOL0     C35529   1.504  11.131   6.516 -0.4328 -0.3055 -0.4354
  983MOL0     C35530   1.412  11.034   6.447  0.9040 -0.3835 -0.1427
  983MOL0     C35531   1.277  11.098   6.444 -0.0740  0.6768  0.3325
  983MOL0     C35532   1.167  11.000   6.400 -0.1219  0.4007 -0.4483
  983MOL0     N35533   1.042  11.062   6.390 -0.2111  0.6108  0.2954
  983MOL0     C35534   0.984  11.131   6.493 -0.5502 -0.0839  0.3475
  983MOL0     C35535   0.877  11.182   6.430  0.4495  0.1414 -0.4439
  983MOL0     C35536   0.788  11.283   6.494 -0.4307  0.8376 -0.0378
  983MOL0     C35537   0.681  11.205   6.586  0.7802  0.1980 -0.1518
  983MOL0     C35538   0.572  11.303   6.629  0.0902  0.2151 -0.2832
  983MOL0     C35539   0.468  11.226   6.716  0.1512  1.0542 -0.4189
  983MOL0     O35540   0.544  11.175   6.823  0.5109 -0.1809  0.1507
  983MOL0     C35541   0.476  11.105   6.924  0.1299  0.3532  0.4551
  983MOL0     C35542   0.544  11.027   7.014 -0.1560  0.0285 -0.2398
  983MOL0     C35543   0.493  10.957   7.121  0.7294 -0.5259 -0.7965
  983MOL0     C35544   0.584  10.876   7.211  0.2036 -0.7369 -0.2282
  983MOL0     C35545   0.353  10.969   7.142  0.3056 -0.0298  0.0273
  983MOL0     C35546   0.279  10.907   7.253 -0.0395  0.1207 -0.3796
  983MOL0     O35547   0.152  10.857   7.220 -0.1908 -0.5442 -0.0683
  983MOL0     C35548   0.067  10.820   7.319  0.1917 -0.4755  1.3842
  983MOL0     C35549   0.015  10.919   7.409  0.1211 -0.0326  0.5377
  983MOL0     C35550  -0.079  10.877   7.510 -0.3031  0.1386 -0.2994
  983MOL0     C35551  -0.098  10.737   7.526 -0.1379 -0.6648 -0.6487
  983MOL0     O35552  -0.166  10.680   7.630 -0.2935  0.8615  1.1333
  983MOL0     C35553  -0.213  10.775   7.730 -0.0843  0.5336  0.0312
  983MOL0     C35554  -0.302  10.704   7.829 -0.3843 -0.1680 -0.2291
  983MOL0     C35555  -0.231  10.581   7.893 -0.3512  0.0075  0.0314
  983MOL0     C35556  -0.320  10.520   8.000 -0.3665  0.7378  0.4448
  983MOL0     C35557  -0.240  10.410   8.088 -0.5636 -0.7061  0.1406
  983MOL0     C35558  -0.334  10.347   8.191  1.4996  0.7631  0.3144
  983MOL0     C35559  -0.265  10.272   8.311 -0.2630  0.2571  1.6538
  983MOL0     C35560  -0.352  10.171   8.381  0.0778  0.2519 -0.7787
  983MOL0    Cl35561  -0.269  10.072   8.502 -0.1943  0.1357  0.3778
  983MOL0     C35562  -0.040  10.648   7.447 -0.3857  0.5402 -0.0095
  983MOL0     C35563   0.047  10.687   7.349  0.2398  0.3278  0.0709
  983MOL0     O35564   0.327  10.897   7.365 -0.1889 -0.3201 -0.7127
  983MOL0     C35565   0.276  11.044   7.052 -0.3952 -0.6090 -0.1521
  983MOL0     C35566   0.332  11.111   6.944 -0.4339 -0.3033  0.0883
  983MOL0     N35567   0.866  11.130   6.301 -0.0249  0.1668  0.1020
  983MOL0     N35568   0.969  11.062   6.275 -0.1756 -0.6439  0.5330
  983MOL0     C35569   2.145  11.249   6.373 -0.2223 -0.2758 -0.0339
  983MOL0     C35570   2.251  11.314   6.440 -0.4884  0.6847  0.0135
  983MOL0     C35571   2.582  11.551   6.592 -0.0350  0.7508 -1.1903
  983MOL0     C35572   2.628  11.613   6.469 -1.3025 -0.4566  0.6496
  983MOL0     C35573   2.767  11.655   6.458  0.5035  0.6482  0.1475
  983MOL0     C35574   2.852  11.648   6.566 -0.6341  0.0578 -0.8004
  983MOL0     O35575   2.980  11.689   6.540 -0.0967  0.3185 -0.1788
  983MOL0     C35576   3.065  11.719   6.656  0.1544 -0.3668  0.3516
  983MOL0     C35577   3.203  11.738   6.600 -0.7697  0.6244 -0.1021
  983MOL0     C35578   3.227  11.867   6.521  0.1096  0.0531 -0.5438
  983MOL0     C35579   3.342  11.948   6.579 -0.5131 -0.0137 -0.4993
  983MOL0     C35580   3.475  11.897   6.546  0.0158  0.3651 -0.3041
  983MOL0     C35581   3.590  11.862   6.513  0.0488  0.2602 -0.3069
  983MOL0     C35582   2.802  11.610   6.686  0.6744 -0.1284  0.0179
  983MOL0     C35583   2.673  11.558   6.700 -0.6021  0.7313  1.5661
  983MOL0     C35584   2.618  11.528   6.833 -0.0385  0.5349 -0.0665
  983MOL0     H35585   2.165  11.628   6.366 -1.2505 -0.6220 -3.2210
  983MOL0     H35586   1.999  11.524   6.256  0.4770  0.8210 -0.2471
  983MOL0     H35587   2.010  11.070   6.218  2.6919  3.8570 -3.5777
  983MOL0     H35588   1.846  11.108   6.160 -0.4029  2.2681  0.3715
  983MOL0     H35589   1.851  10.973   6.367 -2.3700 -0.6619 -1.0006
  983MOL0     H35590   1.916  11.118   6.445 -1.1614 -0.5081  0.2696
  983MOL0     H35591   1.711  11.248   6.362 -1.3577 -0.4116 -2.4397
  983MOL0     H35592   1.647  11.101   6.295 -2.5224  1.0971  0.9455
  983MOL0     H35593   1.657  10.978   6.527 -2.5569  0.0268  2.7300
  983MOL0     H35594   1.715  11.136   6.582 -0.7821  1.3627 -0.7945
  983MOL0     H35595   1.479  11.225   6.466  1.5828 -1.1656 -3.2911
  983MOL0     H35596   1.473  11.133   6.621 -4.1431 -1.6829 -1.3223
  983MOL0     H35597   1.444  11.016   6.344  2.5392  0.7754  0.1156
  983MOL0     H35598   1.408  10.936   6.495 -1.4156 -1.3138 -2.0187
  983MOL0     H35599   1.273  11.178   6.370 -3.1088 -0.9406 -1.4773
  983MOL0     H35600   1.246  11.152   6.534  0.1243  2.9395 -0.8853
  983MOL0     H35601   1.197  10.961   6.303  1.1810  2.5162 -0.9462
  983MOL0     H35602   1.159  10.916   6.470 -3.0863 -1.1780 -2.4632
  983MOL0     H35603   1.022  11.143   6.594 -2.9111  0.4104  1.2321
  983MOL0     H35604   0.753  11.338   6.407  3.8999  2.4796 -0.9862
  983MOL0     H35605   0.833  11.354   6.565  2.0084 -1.3564  0.7385
  983MOL0     H35606   0.633  11.127   6.526 -1.5512  1.8415 -0.5486
  983MOL0     H35607   0.720  11.144   6.668 -2.1664 -0.8591  0.5692
  983MOL0     H35608   0.609  11.385   6.692  0.9633 -1.0375  0.8948
  983MOL0     H35609   0.514  11.338   6.543  1.7417 -3.5891 -3.2310
  983MOL0     H35610   0.385  11.288   6.754 -0.5215 -0.2277  0.2743
  983MOL0     H35611   0.427  11.147   6.653 -0.2322  0.7252  0.2260
  983MOL0     H35612   0.647  11.030   6.978  0.4997  2.6992  1.4973
  983MOL0     H35613   0.544  10.868   7.313  1.3037 -0.1830  0.2611
  983MOL0     H35614   0.682  10.921   7.229 -0.6877  1.6024 -0.9626
  983MOL0     H35615   0.609  10.777   7.169  2.1930 -0.5186  0.3357
  983MOL0     H35616   0.030  11.026   7.403 -1.9756  0.3069  0.4886
  983MOL0     H35617  -0.130  10.954   7.568 -0.1205 -1.9335  2.8411
  983MOL0     H35618  -0.123  10.818   7.776 -0.5775  0.5722  0.9802
  983MOL0     H35619  -0.270  10.850   7.676  0.8518  1.1116 -0.1802
  983MOL0     H35620  -0.327  10.770   7.912 -2.2568 -0.1643 -0.7339
  983MOL0     H35621  -0.393  10.679   7.773 -2.0909  1.1667  1.7631
  983MOL0     H35622  -0.138  10.614   7.941 -1.0622  1.8920  0.2165
  983MOL0     H35623  -0.213  10.509   7.813 -1.6279 -1.8119  1.3204
  983MOL0     H35624  -0.405  10.473   7.950  1.0768  0.1899 -1.6545
  983MOL0     H35625  -0.340  10.597   8.075  3.4841 -1.2641  3.9814
  983MOL0     H35626  -0.203  10.335   8.018 -0.3919 -0.9805  0.5200
  983MOL0     H35627  -0.155  10.456   8.139 -2.0125  0.2146  1.8773
  983MOL0     H35628  -0.392  10.274   8.133 -0.4147 -0.0771  3.0487
  983MOL0     H35629  -0.403  10.422   8.230  1.2597  3.4774 -4.6021
  983MOL0     H35630  -0.228  10.351   8.377  0.7169  0.4934  0.8371
  983MOL0     H35631  -0.172  10.230   8.273 -0.5362  0.3973  0.8071
  983MOL0     H35632  -0.391  10.106   8.302  0.9501 -1.3433  0.0591
  983MOL0     H35633  -0.441  10.214   8.428  0.4640 -1.5871  1.8630
  983MOL0     H35634  -0.050  10.542   7.471  1.2393  0.2804 -0.3578
  983MOL0     H35635   0.104  10.611   7.297 -0.2117 -0.9009  1.3095
  983MOL0     H35636   0.168  11.041   7.061 -0.1789 -2.5154  3.5495
  983MOL0     H35637   0.268  11.170   6.879  1.0825 -0.5397 -1.7047
  983MOL0     H35638   2.125  11.143   6.381  1.4551 -0.5336  1.6413
  983MOL0     H35639   2.329  11.254   6.485  1.7574  2.3111 -1.4839
  983MOL0     H35640   2.563  11.625   6.383 -3.1135 -1.4499  1.8177
  983MOL0     H35641   2.807  11.693   6.365  4.5600  1.7970  2.1553
  983MOL0     H35642   3.019  11.811   6.694  0.5080 -0.5920  1.3484
  983MOL0     H35643   3.061  11.637   6.729 -2.1244 -0.6586 -0.0255
  983MOL0     H35644   3.221  11.647   6.542 -2.4612 -1.7012  2.7311
  983MOL0     H35645   3.274  11.734   6.683 -1.3018  0.4497  0.3540
  983MOL0     H35646   3.262  11.845   6.419  1.8497 -0.9244  0.2335
  983MOL0     H35647   3.145  11.940   6.517  1.7865  2.0759  0.4823
  983MOL0     H35648   3.330  11.939   6.687  0.2305 -0.3495 -0.4362
  983MOL0     H35649   3.351  12.052   6.546  2.9263 -0.0120  0.0103
  983MOL0     H35650   3.688  11.837   6.480 -0.3774 -1.3903 -0.3994
  983MOL0     H35651   2.864  11.606   6.775 -0.6106  2.1290  1.1083
  983MOL0     H35652   2.511  11.552   6.845  0.1104  0.6562  1.1189
  983MOL0     H35653   2.630  11.420   6.840  0.6233  0.5714 -0.5459
  983MOL0     H35654   2.671  11.579   6.913  0.4394  0.2136 -0.1784
  984MOL0     O35655   0.294   4.050   2.492 -0.1597  0.0922 -0.1317
  984MOL0     C35656   0.298   4.055   2.368 -0.1446  0.1021  0.5113
  984MOL0     O35657   0.398   4.117   2.298  0.3511 -0.0774  0.8504
  984MOL0     C35658   0.465   4.213   2.379 -0.0453 -0.0806 -1.0388
  984MOL0     C35659   0.582   4.188   2.448 -0.1902  0.8893  0.2768
  984MOL0     C35660   0.654   4.286   2.521  0.0863 -0.3725  0.3919
  984MOL0     C35661   0.603   4.410   2.524 -1.4070  0.6907  0.5458
  984MOL0     O35662   0.660   4.520   2.584  0.2414  0.3607  0.1617
  984MOL0     C35663   0.793   4.508   2.645 -0.1542  0.1410 -0.2592
  984MOL0     C35664   0.836   4.647   2.686 -1.1817  0.4638  0.2499
  984MOL0     C35665   0.838   4.752   2.573  0.2320 -0.1665 -0.4651
  984MOL0     C35666   0.975   4.748   2.514 -1.3006 -0.1403  0.3415
  984MOL0     C35667   1.002   4.857   2.407  0.7092  0.2739 -0.2645
  984MOL0     C35668   1.159   4.874   2.391 -0.3853 -0.3056 -0.7171
  984MOL0     C35669   1.181   4.970   2.277  0.1168  0.1207 -0.5903
  984MOL0     C35670   1.331   5.000   2.249  0.5319 -0.1278  0.2596
  984MOL0     N35671   1.397   4.878   2.193  0.0127 -0.3404 -0.6416
  984MOL0     C35672   1.476   4.793   2.270  0.1553 -0.0094  0.3595
  984MOL0     C35673   1.510   4.694   2.181 -0.4798 -0.3121 -0.2215
  984MOL0     C35674   1.588   4.572   2.214  0.1115  0.4639 -0.1660
  984MOL0     C35675   1.734   4.584   2.161  0.7970 -0.1746  0.0893
  984MOL0     C35676   1.731   4.569   2.012  0.6094  0.5992 -0.2331
  984MOL0     C35677   1.870   4.533   1.963  0.2277 -0.1824 -0.7058
  984MOL0     O35678   1.962   4.636   2.007  0.3673  0.0502 -0.0514
  984MOL0     C35679   2.095   4.621   1.985 -0.5566 -0.6953  1.3478
  984MOL0     C35680   2.165   4.722   2.044 -0.1580  0.0194  0.2914
  984MOL0     C35681   2.305   4.725   2.034 -0.5418  0.4867  0.3372
  984MOL0     C35682   2.366   4.840   2.108 -0.4031 -0.1810 -0.1280
  984MOL0     C35683   2.379   4.634   1.946 -0.8919  0.4491  0.8739
  984MOL0     C35684   2.529   4.637   1.929  0.2786 -0.7222  0.6604
  984MOL0     O35685   2.570   4.599   1.805  0.0323 -0.1529 -0.4241
  984MOL0     C35686   2.707   4.578   1.785 -0.5370  0.6483  0.5567
  984MOL0     C35687   2.753   4.452   1.761 -0.8109 -0.2163  0.2108
  984MOL0     C35688   2.882   4.435   1.712 -0.2681  0.5141  0.1063
  984MOL0     C35689   2.963   4.545   1.695 -0.2481 -0.2755 -0.8456
  984MOL0     O35690   3.091   4.539   1.651 -0.3465 -0.6654  1.0951
  984MOL0     C35691   3.144   4.412   1.606 -0.2721  0.3834  0.1214
  984MOL0     C35692   3.285   4.431   1.536  1.0355  0.0176 -0.4564
  984MOL0     C35693   3.266   4.512   1.403  0.5098 -0.3825  0.3521
  984MOL0     C35694   3.359   4.636   1.403 -0.8495  0.5662  0.1834
  984MOL0     C35695   3.336   4.716   1.270  0.2876 -0.5268  0.1485
  984MOL0     C35696   3.464   4.783   1.225  0.0710  0.1335 -0.1911
  984MOL0     C35697   3.423   4.893   1.125 -0.5234 -0.3313 -1.0301
  984MOL0     C35698   3.550   4.965   1.055  0.7768 -0.2935  0.6309
  984MOL0    Cl35699   3.642   4.838   0.958  0.0880  0.0549 -0.2072
  984MOL0     C35700   2.930   4.673   1.730 -0.7340  0.2600  0.1317
  984MOL0     C35701   2.794   4.687   1.775 -0.0133  0.6729  0.2450
  984MOL0     O35702   2.603   4.681   2.017  0.0706  0.0501 -0.4979
  984MOL0     C35703   2.304   4.547   1.876 -0.8787  0.5147  0.2582
  984MOL0     C35704   2.157   4.543   1.884  0.0350  0.1016  0.0015
  984MOL0     N35705   1.463   4.737   2.050 -0.3252  0.3000 -0.3088
  984MOL0     N35706   1.387   4.841   2.063 -0.5456  0.0009 -0.1974
  984MOL0     C35707   0.488   4.437   2.456  0.7369 -0.0245 -0.1100
  984MOL0     C35708   0.421   4.344   2.381 -0.1565  0.0536 -0.5138
  984MOL0     C35709   0.201   3.971   2.284 -0.0775  0.4640  0.1061
  984MOL0     C35710   0.248   3.941   2.155  0.2634 -0.7189 -0.0089
  984MOL0     C35711   0.174   3.861   2.072  0.4717  0.3857 -0.1008
  984MOL0     C35712   0.047   3.816   2.113 -0.2783  0.0518  0.1810
  984MOL0     O35713  -0.020   3.727   2.035  0.2291  0.4126  0.1237
  984MOL0     C35714  -0.134   3.796   1.980 -0.0476  0.5589  0.5143
  984MOL0     C35715  -0.226   3.689   1.923 -0.3388 -0.4609  0.3303
  984MOL0     C35716  -0.311   3.736   1.803 -0.7491  0.1710  0.2028
  984MOL0     C35717  -0.374   3.618   1.724  0.0412 -0.1760 -0.0751
  984MOL0     C35718  -0.439   3.666   1.591 -0.3038  1.0844 -0.8972
  984MOL0     C35719  -0.454   3.704   1.481  0.5568  0.2061  0.1366
  984MOL0     C35720   0.001   3.849   2.236 -0.7914 -0.6091 -0.2962
  984MOL0     C35721   0.073   3.929   2.325 -0.8120 -0.0785  0.8501
  984MOL0     C35722   0.020   3.964   2.464  0.7254  0.8504  0.8188
  984MOL0     H35723   0.626   4.089   2.449  0.8054  1.3257  0.8323
  984MOL0     H35724   0.750   4.255   2.561 -1.4836 -1.7721  3.4286
  984MOL0     H35725   0.866   4.452   2.586  0.6970  0.1094  0.7910
  984MOL0     H35726   0.788   4.438   2.729 -0.6250 -0.1445 -0.5202
  984MOL0     H35727   0.772   4.679   2.768  0.7201  1.6088  1.3609
  984MOL0     H35728   0.938   4.644   2.726  0.4784  5.6990 -2.5452
  984MOL0     H35729   0.762   4.731   2.497 -1.0018 -0.5900  0.8321
  984MOL0     H35730   0.815   4.845   2.626 -0.7361  0.4161 -1.8462
  984MOL0     H35731   1.050   4.767   2.592  0.1766 -0.2850 -0.9782
  984MOL0     H35732   0.999   4.648   2.476 -0.5416  0.8767 -2.0959
  984MOL0     H35733   0.962   4.955   2.431  0.3672  0.5597 -1.8970
  984MOL0     H35734   0.962   4.820   2.312 -2.0706 -0.3670  1.0435
  984MOL0     H35735   1.199   4.923   2.480 -1.7818 -1.4729  0.6264
  984MOL0     H35736   1.206   4.776   2.378  2.0614  0.7792 -0.4587
  984MOL0     H35737   1.123   5.059   2.302  1.3397  0.1423  2.6334
  984MOL0     H35738   1.145   4.937   2.179 -1.0676  1.7356 -0.7384
  984MOL0     H35739   1.346   5.079   2.175 -1.2182  0.0084  0.0045
  984MOL0     H35740   1.374   5.031   2.345 -0.2998  1.7090  0.0863
  984MOL0     H35741   1.508   4.793   2.374  2.9011 -0.2221 -0.4111
  984MOL0     H35742   1.530   4.486   2.179 -0.7998  0.5557  1.0633
  984MOL0     H35743   1.594   4.577   2.323  2.4584  3.1225 -0.3040
  984MOL0     H35744   1.785   4.678   2.186  0.9272 -0.4838  1.0379
  984MOL0     H35745   1.775   4.490   2.199  0.4164 -0.7253 -0.8230
  984MOL0     H35746   1.667   4.483   1.988  0.3700  1.0591 -1.3312
  984MOL0     H35747   1.705   4.658   1.953  0.8185  1.9536  1.6233
  984MOL0     H35748   1.898   4.439   2.012 -1.2523 -0.1564  0.2473
  984MOL0     H35749   1.866   4.529   1.854 -0.7362  2.7375 -0.8446
  984MOL0     H35750   2.121   4.795   2.112  3.4652  1.5169  1.2338
  984MOL0     H35751   2.403   4.803   2.204  0.0721 -0.0412 -0.2543
  984MOL0     H35752   2.300   4.926   2.123 -0.4481  0.1271 -1.8716
  984MOL0     H35753   2.458   4.881   2.065 -0.8001  2.1619  1.1042
  984MOL0     H35754   2.703   4.358   1.782 -0.2090 -0.7744 -0.7395
  984MOL0     H35755   2.920   4.334   1.697  0.0293  0.7256 -0.6014
  984MOL0     H35756   3.157   4.351   1.696  0.9471 -1.0538 -0.9800
  984MOL0     H35757   3.077   4.355   1.541 -0.2592  3.2148 -2.5956
  984MOL0     H35758   3.342   4.478   1.617  1.1762  0.3643 -0.7576
  984MOL0     H35759   3.328   4.332   1.515  0.1572 -0.4834  0.0140
  984MOL0     H35760   3.160   4.536   1.395  0.5135 -0.2703  0.6425
  984MOL0     H35761   3.293   4.448   1.318 -1.4686  0.2895 -0.8594
  984MOL0     H35762   3.459   4.592   1.413 -1.9607 -1.6928  3.2011
  984MOL0     H35763   3.348   4.693   1.496 -0.0097  3.5496 -1.4336
  984MOL0     H35764   3.289   4.648   1.199  1.7933  1.6331 -3.1233
  984MOL0     H35765   3.259   4.788   1.300 -2.5995 -3.1019 -0.5528
  984MOL0     H35766   3.530   4.708   1.180 -2.8222 -1.8514 -1.4533
  984MOL0     H35767   3.508   4.842   1.306 -1.9854  0.0642  1.0480
  984MOL0     H35768   3.371   4.976   1.173 -0.4380  0.9068 -2.9679
  984MOL0     H35769   3.353   4.846   1.056 -2.8373  3.1118 -1.2630
  984MOL0     H35770   3.624   5.004   1.125 -0.1046  1.8131  0.4771
  984MOL0     H35771   3.512   5.052   1.001  2.7876 -1.1632 -2.4399
  984MOL0     H35772   2.995   4.759   1.714  0.4274 -0.1024  2.5181
  984MOL0     H35773   2.749   4.785   1.786  0.3357  0.8730 -0.1046
  984MOL0     H35774   2.344   4.471   1.810  0.9069  1.8662 -0.2782
  984MOL0     H35775   2.093   4.484   1.819  0.3416  0.3195 -0.5103
  984MOL0     H35776   0.446   4.536   2.465  1.2612  0.3203 -1.2844
  984MOL0     H35777   0.333   4.379   2.328 -0.9628  0.7221  1.1862
  984MOL0     H35778   0.339   3.963   2.100 -0.8133  1.4206 -1.0535
  984MOL0     H35779   0.214   3.815   1.983  1.3640  1.2060 -0.1396
  984MOL0     H35780  -0.183   3.852   2.060 -0.5590  1.9880 -0.7362
  984MOL0     H35781  -0.104   3.867   1.902  0.1048 -1.6056 -1.5246
  984MOL0     H35782  -0.283   3.645   2.005  2.6657 -2.3481  1.5972
  984MOL0     H35783  -0.164   3.602   1.900  1.1625 -0.2809  3.2594
  984MOL0     H35784  -0.388   3.809   1.827  0.7185  2.1283 -0.6996
  984MOL0     H35785  -0.234   3.771   1.734  1.6051 -3.4179  0.6861
  984MOL0     H35786  -0.447   3.564   1.784  0.8967 -1.3110 -0.0171
  984MOL0     H35787  -0.292   3.555   1.688  2.5874  1.3687  2.5947
  984MOL0     H35788  -0.454   3.747   1.382 -0.4240 -0.3390 -0.1149
  984MOL0     H35789  -0.105   3.837   2.258 -1.3023  0.9015 -1.7538
  984MOL0     H35790   0.037   4.067   2.497 -1.9017  2.2280 -1.6808
  984MOL0     H35791  -0.089   3.957   2.467  0.7674 -0.2493  0.0262
  984MOL0     H35792   0.064   3.887   2.527  2.1059 -1.0512 -2.2491
  985MOL0     O35793  10.765   8.401   1.973  0.0976 -0.8152  0.3938
  985MOL0     C35794  10.718   8.508   2.007 -0.4122 -0.4692  0.0319
  985MOL0     O35795  10.793   8.620   2.031  0.5278  0.5666 -0.3284
  985MOL0     C35796  10.923   8.610   2.068 -0.9936 -0.8485 -1.0260
  985MOL0     C35797  10.975   8.512   2.156 -0.1072  0.4272 -0.0209
  985MOL0     C35798  11.104   8.502   2.211  0.1726 -0.5543  1.0339
  985MOL0     C35799  11.198   8.600   2.175  0.0543 -0.1116  0.5652
  985MOL0     O35800  11.328   8.609   2.211 -0.8647  0.1708  0.7569
  985MOL0     C35801  11.379   8.544   2.325  0.1458  0.3129 -0.3042
  985MOL0     C35802  11.525   8.568   2.315 -0.4668  0.5579 -0.3928
  985MOL0     C35803  11.574   8.702   2.378 -0.6251  0.8192  0.5281
  985MOL0     C35804  11.713   8.738   2.342  0.2723  1.1542  1.1777
  985MOL0     C35805  11.762   8.856   2.414 -0.2557  0.1615 -0.0699
  985MOL0     C35806  11.910   8.871   2.390  0.1755  0.7094  0.1414
  985MOL0     C35807  11.961   8.997   2.458 -0.2380  0.1620 -0.7463
  985MOL0     C35808  12.108   9.032   2.403 -0.1385  0.2933 -0.3158
  985MOL0     N35809  12.207   8.961   2.487  0.2251  1.2509 -0.2544
  985MOL0     C35810  12.251   8.991   2.616  0.5561  0.0621  1.0232
  985MOL0     C35811  12.367   8.923   2.638  0.7802 -0.9038 -0.1437
  985MOL0     C35812  12.469   8.962   2.748 -0.4036  0.1958  0.3341
  985MOL0     C35813  12.613   8.891   2.736  1.0038  0.0013  0.6119
  985MOL0     C35814  12.686   8.955   2.616  0.1269 -0.0543  0.4227
  985MOL0     C35815  12.732   9.106   2.632  0.1569 -0.2591 -1.2900
  985MOL0     O35816  12.856   9.123   2.557  0.8289  0.6159 -0.4596
  985MOL0     C35817  12.986   9.121   2.607  0.7047  0.0415 -0.2969
  985MOL0     C35818  13.016   9.172   2.732  0.4018  0.1721  0.1345
  985MOL0     C35819  13.145   9.177   2.777 -0.1462  0.0386 -0.2954
  985MOL0     C35820  13.154   9.221   2.918  0.8179  0.6791 -0.5828
  985MOL0     C35821  13.253   9.139   2.701 -0.1960 -0.3409 -0.3836
  985MOL0     C35822  13.394   9.158   2.737 -0.4612  1.3846 -0.1868
  985MOL0     O35823  13.466   9.053   2.701 -0.7926  0.1818  0.2531
  985MOL0     C35824  13.608   9.051   2.690  0.6772  0.6326  0.4029
  985MOL0     C35825  13.689   9.102   2.786  0.9823  0.7611  0.1447
  985MOL0     C35826  13.827   9.103   2.772  0.1377 -0.9063 -0.0638
  985MOL0     C35827  13.890   9.051   2.657 -0.2272  0.0555 -0.9660
  985MOL0     O35828  14.027   9.060   2.656  0.6482 -0.1321  1.0791
  985MOL0     C35829  14.093   8.973   2.563  0.1446 -0.3656  0.6647
  985MOL0     C35830  14.233   8.945   2.604 -0.2544  1.1460 -0.8159
  985MOL0     C35831  14.312   9.056   2.680  1.3086 -0.2921  0.1960
  985MOL0     C35832  14.436   8.993   2.742  1.0616  0.4367 -1.0293
  985MOL0     C35833  14.502   9.098   2.826  0.4566 -0.7208  0.4996
  985MOL0     C35834  14.491   9.073   2.977  0.2531  0.8870  0.2510
  985MOL0     C35835  14.584   8.976   3.045  0.6354  0.2426 -0.9529
  985MOL0     C35836  14.526   8.895   3.162  0.3571 -0.1979 -0.1991
  985MOL0    Cl35837  14.657   8.801   3.238  0.3700  0.2160 -0.0761
  985MOL0     C35838  13.804   8.983   2.561  0.5204 -0.2366  0.4962
  985MOL0     C35839  13.662   8.981   2.582 -0.5726  0.4155 -0.2787
  985MOL0     O35840  13.438   9.258   2.798 -0.2853 -0.7121 -0.0535
  985MOL0     C35841  13.224   9.086   2.571  0.2003 -0.7395 -0.4453
  985MOL0     C35842  13.089   9.080   2.526 -0.8815  1.2682  0.5661
  985MOL0     N35843  12.396   8.854   2.521  0.6760  1.5548 -0.8764
  985MOL0     N35844  12.291   8.858   2.448  0.1094 -0.3626 -0.4037
  985MOL0     C35845  11.149   8.707   2.093 -0.6290 -0.0195  1.3625
  985MOL0     C35846  11.018   8.714   2.045  0.9596  0.0115  0.2241
  985MOL0     C35847  10.565   8.523   2.003 -0.5744  0.7577  1.0725
  985MOL0     C35848  10.503   8.641   2.040 -0.7438 -1.4797 -1.4198
  985MOL0     C35849  10.367   8.672   2.022 -0.4145  0.3451  0.4998
  985MOL0     C35850  10.285   8.567   1.976  0.2005 -0.8618 -0.8302
  985MOL0     O35851  10.155   8.572   1.955  0.6037  0.3671 -0.7758
  985MOL0     C35852  10.077   8.685   1.994 -0.5760 -0.4258  0.8601
  985MOL0     C35853   9.971   8.699   1.883 -0.2528 -0.1776  0.9645
  985MOL0     C35854  10.029   8.729   1.736  0.3810  0.1417 -0.1586
  985MOL0     C35855   9.917   8.742   1.635 -0.7005  0.2164  0.3157
  985MOL0     C35856   9.969   8.757   1.498  0.2880 -0.1347 -0.7774
  985MOL0     C35857  10.010   8.775   1.385  0.8865  0.3778  0.0737
  985MOL0     C35858  10.345   8.446   1.964  0.3043  0.3140 -0.0493
  985MOL0     C35859  10.477   8.419   1.962  0.2349 -0.3303  0.5171
  985MOL0     C35860  10.515   8.282   1.910  0.3034  0.3432  0.2009
  985MOL0     H35861  10.909   8.436   2.197 -0.3988 -0.0914 -1.3984
  985MOL0     H35862  11.119   8.434   2.294 -1.4019 -3.3829 -0.8470
  985MOL0     H35863  11.360   8.437   2.314 -0.1775  0.3515 -0.1266
  985MOL0     H35864  11.347   8.580   2.424 -1.9710 -0.4190 -0.6619
  985MOL0     H35865  11.582   8.495   2.373  0.8344  1.1712 -0.8457
  985MOL0     H35866  11.555   8.553   2.211 -1.5126  2.7184 -1.0593
  985MOL0     H35867  11.513   8.784   2.340 -0.0584  0.0829 -2.1771
  985MOL0     H35868  11.556   8.698   2.486 -0.0637 -0.0480  0.6004
  985MOL0     H35869  11.767   8.647   2.366  0.5743  0.6761 -1.0881
  985MOL0     H35870  11.716   8.760   2.235 -2.1862 -2.9840  0.0214
  985MOL0     H35871  11.747   8.844   2.522  0.2803  0.0477 -0.0044
  985MOL0     H35872  11.707   8.938   2.368 -2.4532 -1.6988 -0.9814
  985MOL0     H35873  11.969   8.783   2.417 -0.8579  0.5554  2.0841
  985MOL0     H35874  11.924   8.904   2.287 -0.3476  3.1495  0.8036
  985MOL0     H35875  11.959   8.988   2.567  2.7899 -2.6045 -0.7590
  985MOL0     H35876  11.892   9.079   2.438 -0.5541 -0.1215 -0.8098
  985MOL0     H35877  12.110   8.999   2.299 -0.9035  2.1460 -0.9631
  985MOL0     H35878  12.120   9.140   2.414 -1.5328  0.5269 -0.9090
  985MOL0     H35879  12.204   9.072   2.672 -1.5970  0.0998 -0.7329
  985MOL0     H35880  12.425   8.956   2.848  0.0374 -0.0325  0.5147
  985MOL0     H35881  12.495   9.067   2.729  0.1909 -0.4788 -3.2504
  985MOL0     H35882  12.678   8.905   2.822 -2.1117  0.6190  3.0457
  985MOL0     H35883  12.603   8.783   2.722  1.2023  0.2874 -2.3912
  985MOL0     H35884  12.784   8.911   2.598  0.2517  0.1553  0.5900
  985MOL0     H35885  12.625   8.956   2.526 -0.1444 -1.3264  0.5690
  985MOL0     H35886  12.657   9.172   2.587  1.8286  0.4499 -3.2035
  985MOL0     H35887  12.747   9.134   2.736  1.3718 -0.1278 -1.4881
  985MOL0     H35888  12.939   9.210   2.798  1.4503  4.8204 -0.9343
  985MOL0     H35889  13.075   9.179   2.981  0.8289  3.0011  1.1116
  985MOL0     H35890  13.143   9.330   2.922  0.4253  0.6404  3.3184
  985MOL0     H35891  13.245   9.185   2.966  0.3041  1.8442  1.4134
  985MOL0     H35892  13.639   9.135   2.877 -0.3357  0.4708 -0.4437
  985MOL0     H35893  13.895   9.156   2.838  0.2816  0.3667 -1.1922
  985MOL0     H35894  14.046   8.876   2.551 -1.7251  0.7652 -2.0434
  985MOL0     H35895  14.090   9.021   2.465  1.0273  0.7917  1.1674
  985MOL0     H35896  14.233   8.855   2.665  2.4509  0.8635 -1.1246
  985MOL0     H35897  14.293   8.911   2.519  0.3487  1.2154 -0.4269
  985MOL0     H35898  14.253   9.096   2.763  0.1464 -2.0340  0.2548
  985MOL0     H35899  14.330   9.142   2.615  0.9881  1.0314  1.7808
  985MOL0     H35900  14.500   8.948   2.666  1.6108 -1.8663  0.6766
  985MOL0     H35901  14.419   8.903   2.801  2.9874  1.2723  0.9245
  985MOL0     H35902  14.608   9.102   2.802  1.1559  1.5756  3.4303
  985MOL0     H35903  14.469   9.201   2.808  0.2573 -0.3232  2.8848
  985MOL0     H35904  14.389   9.043   3.001 -0.1038  1.5164 -0.4149
  985MOL0     H35905  14.514   9.169   3.024 -1.9224  0.0913  3.1992
  985MOL0     H35906  14.669   9.035   3.080  1.3919 -1.2617 -0.1462
  985MOL0     H35907  14.606   8.902   2.967 -1.6059  0.8651 -2.2785
  985MOL0     H35908  14.451   8.823   3.129  0.6554  0.3205 -2.1291
  985MOL0     H35909  14.485   8.965   3.235 -1.1187  1.0533 -2.1383
  985MOL0     H35910  13.852   8.946   2.471  3.6219  2.3556  0.8772
  985MOL0     H35911  13.598   8.945   2.503 -0.0591  1.9837 -1.4466
  985MOL0     H35912  13.300   9.069   2.494 -0.6197  2.6493 -2.1929
  985MOL0     H35913  13.057   9.048   2.427 -2.9716  1.3035  1.1785
  985MOL0     H35914  11.207   8.793   2.063 -6.0046  3.0579 -1.9076
  985MOL0     H35915  10.981   8.797   1.986  1.2544  1.3663  1.8655
  985MOL0     H35916  10.563   8.720   2.083  0.2579 -2.7149 -0.4449
  985MOL0     H35917  10.343   8.775   2.045 -2.4019  0.6445 -2.3164
  985MOL0     H35918  10.041   8.675   2.097 -0.9556 -1.8625  0.6161
  985MOL0     H35919  10.132   8.779   1.990 -0.3090 -0.5882 -2.7475
  985MOL0     H35920   9.905   8.783   1.908  0.9866  1.9643 -2.2955
  985MOL0     H35921   9.910   8.608   1.872  1.4936 -1.4330  1.1965
  985MOL0     H35922  10.086   8.821   1.751  0.0989 -0.0659  2.5774
  985MOL0     H35923  10.102   8.654   1.705  1.6814  0.7283  1.3370
  985MOL0     H35924   9.865   8.835   1.659 -4.3351 -1.6748  0.5514
  985MOL0     H35925   9.844   8.661   1.648  0.6234 -1.0006  0.4003
  985MOL0     H35926  10.043   8.781   1.283  0.2078 -0.4283 -0.2058
  985MOL0     H35927  10.274   8.368   1.940 -1.0906  1.2299  0.9152
  985MOL0     H35928  10.439   8.223   1.858  2.3034 -2.5341  0.2992
  985MOL0     H35929  10.595   8.287   1.836 -0.4055  2.1296 -0.5059
  985MOL0     H35930  10.553   8.227   1.997  3.2958  3.7005  1.2334
  986MOL0     O35931   4.064   3.924  11.165 -0.3800  0.2117  0.0721
  986MOL0     C35932   4.013   3.878  11.067 -0.6169 -0.1035 -0.1300
  986MOL0     O35933   4.077   3.793  10.981 -0.2656 -0.4469  0.3259
  986MOL0     C35934   4.213   3.776  10.997  0.3785 -0.4477 -0.3163
  986MOL0     C35935   4.270   3.745  11.120 -0.3261  0.1951  0.3370
  986MOL0     C35936   4.409   3.730  11.129 -0.3787  0.0319 -0.0435
  986MOL0     C35937   4.488   3.728  11.020 -0.2066  0.9169  0.4726
  986MOL0     O35938   4.618   3.709  11.024 -0.0314 -0.7206  0.0356
  986MOL0     C35939   4.706   3.815  10.972  0.7375  0.4990 -0.6596
  986MOL0     C35940   4.844   3.752  10.966 -0.1575 -0.2063 -0.4823
  986MOL0     C35941   4.894   3.692  11.098 -0.3790  0.1532 -0.1116
  986MOL0     C35942   5.008   3.594  11.071 -0.4150  0.2799 -0.1983
  986MOL0     C35943   5.068   3.527  11.194  0.2862 -0.1044 -0.8552
  986MOL0     C35944   5.189   3.444  11.150 -0.9190 -0.6266 -0.2719
  986MOL0     C35945   5.245   3.372  11.270  0.6894 -0.4353  0.2146
  986MOL0     C35946   5.360   3.286  11.226 -0.3916  0.2501  0.0845
  986MOL0     N35947   5.487   3.370  11.212 -0.1825  0.5285  0.3365
  986MOL0     C35948   5.527   3.443  11.102  0.8364  0.5011 -0.0070
  986MOL0     C35949   5.650   3.494  11.131  0.3703 -0.2248  0.1180
  986MOL0     C35950   5.726   3.599  11.050  0.5871  0.0802 -1.1456
  986MOL0     C35951   5.873   3.553  11.048  0.5588 -0.8755 -1.0686
  986MOL0     C35952   5.945   3.647  10.951  0.3766  0.3670  0.1637
  986MOL0     C35953   6.093   3.626  10.984  0.2533 -0.0489 -0.3466
  986MOL0     O35954   6.124   3.711  11.097  0.4264 -0.4769 -0.7473
  986MOL0     C35955   6.257   3.713  11.139 -0.0056  0.9709 -0.3830
  986MOL0     C35956   6.280   3.778  11.261 -0.2952  0.3524 -0.2310
  986MOL0     C35957   6.411   3.775  11.318  0.0213 -0.1366 -0.4491
  986MOL0     C35958   6.439   3.856  11.441 -0.8656 -0.1507 -0.3913
  986MOL0     C35959   6.518   3.700  11.257  0.3737 -0.1812 -0.0130
  986MOL0     C35960   6.648   3.682  11.323  0.7701  0.3325 -0.1957
  986MOL0     O35961   6.760   3.687  11.237 -0.0217  0.5989 -0.5912
  986MOL0     C35962   6.891   3.670  11.284  0.3460  0.5083 -0.3921
  986MOL0     C35963   6.989   3.720  11.200  0.2363 -0.4503 -0.1152
  986MOL0     C35964   7.129   3.721  11.225  0.2411  0.0275 -0.1988
  986MOL0     C35965   7.174   3.658  11.335  0.2372  1.4634  0.3515
  986MOL0     O35966   7.309   3.658  11.367  0.4978 -0.3355 -0.1037
  986MOL0     C35967   7.357   3.604  11.493 -0.3013  0.1979 -0.2463
  986MOL0     C35968   7.511   3.629  11.494 -0.8806  0.7460 -0.3363
  986MOL0     C35969   7.551   3.771  11.504  0.1049  0.1784 -0.1633
  986MOL0     C35970   7.706   3.794  11.522  0.7109  0.4477  0.2944
  986MOL0     C35971   7.730   3.944  11.535 -1.1549 -0.1379  0.0370
  986MOL0     C35972   7.883   3.961  11.503 -0.7123 -1.1339  0.1303
  986MOL0     C35973   7.907   4.111  11.478 -0.1876 -0.3154  0.6255
  986MOL0     C35974   8.055   4.140  11.454 -0.0845 -0.1409 -0.1436
  986MOL0    Cl35975   8.116   4.062  11.307  0.6686  0.3665  0.6157
  986MOL0     C35976   7.076   3.584  11.417  0.0055 -0.0710 -0.1462
  986MOL0     C35977   6.935   3.593  11.399 -0.3593 -0.0222 -0.0180
  986MOL0     O35978   6.647   3.656  11.445 -0.0025 -0.2560  0.5581
  986MOL0     C35979   6.493   3.642  11.136 -0.2857  0.4380  0.4858
  986MOL0     C35980   6.365   3.641  11.078  0.6660  0.3116  0.1217
  986MOL0     N35981   5.684   3.452  11.260 -0.1307  0.0992 -0.4135
  986MOL0     N35982   5.589   3.375  11.302  0.1888  0.3027  0.3361
  986MOL0     C35983   4.435   3.747  10.894  0.4284  0.2774 -0.3498
  986MOL0     C35984   4.295   3.775  10.885 -0.0866  0.4250 -0.1290
  986MOL0     C35985   3.874   3.919  11.033 -0.3777  0.4009 -0.1065
  986MOL0     C35986   3.787   3.932  11.134 -0.8237 -0.5786 -0.2178
  986MOL0     C35987   3.663   3.992  11.122  0.2903  0.3675 -0.0091
  986MOL0     C35988   3.623   4.047  10.997  0.1051  0.1031  0.0780
  986MOL0     O35989   3.510   4.114  10.974 -0.6990 -0.7521 -0.2712
  986MOL0     C35990   3.407   4.130  11.070  0.2629  0.3521  0.0914
  986MOL0     C35991   3.286   4.192  10.987 -1.5511  0.2857  0.0991
  986MOL0     C35992   3.168   4.234  11.072  1.3797  0.3042 -0.2527
  986MOL0     C35993   3.082   4.331  10.991  0.0343 -0.5713  0.6309
  986MOL0     C35994   3.020   4.270  10.871 -0.3944  0.3363 -0.7388
  986MOL0     C35995   2.986   4.217  10.767  0.9798 -0.3497 -0.6212
  986MOL0     C35996   3.711   4.039  10.899 -0.4931 -0.2169  0.4248
  986MOL0     C35997   3.839   3.983  10.909  0.6893  0.3027 -0.8027
  986MOL0     C35998   3.934   3.998  10.792 -0.0201 -0.1421 -0.0742
  986MOL0     H35999   4.208   3.744  11.209  1.3096 -0.3568  1.5174
  986MOL0     H36000   4.452   3.706  11.225 -2.5460  0.1535  1.0074
  986MOL0     H36001   4.708   3.895  11.047 -1.1170 -0.0621  0.0576
  986MOL0     H36002   4.672   3.874  10.886  1.0367  4.6137  1.7574
  986MOL0     H36003   4.830   3.680  10.885  0.2533  0.8362 -1.4963
  986MOL0     H36004   4.911   3.832  10.934 -1.6340  1.3498  0.1434
  986MOL0     H36005   4.925   3.770  11.168 -1.9777  0.4205  0.3387
  986MOL0     H36006   4.813   3.643  11.153  1.5057 -1.5065  1.2994
  986MOL0     H36007   4.969   3.522  10.999  1.4503 -0.7935 -0.2189
  986MOL0     H36008   5.081   3.644  11.007  0.7140 -1.3010 -0.2169
  986MOL0     H36009   4.999   3.464  11.250 -0.3022  2.0989  1.0339
  986MOL0     H36010   5.098   3.611  11.259 -2.0044  1.5391 -1.7940
  986MOL0     H36011   5.160   3.385  11.063 -0.0695 -1.0897 -0.2471
  986MOL0     H36012   5.265   3.510  11.108 -2.1164 -0.0072 -1.5656
  986MOL0     H36013   5.175   3.298  11.311  2.1869 -2.9985 -1.5979
  986MOL0     H36014   5.274   3.449  11.342  0.6591  0.3451 -0.5942
  986MOL0     H36015   5.376   3.218  11.310 -1.2151  0.6782  0.6015
  986MOL0     H36016   5.340   3.238  11.130  3.5810  2.5542 -2.1452
  986MOL0     H36017   5.467   3.484  11.021 -1.1776  0.4898  1.3907
  986MOL0     H36018   5.713   3.696  11.097  0.4336 -0.0801 -0.8556
  986MOL0     H36019   5.683   3.593  10.950 -2.7034 -1.3644  0.2311
  986MOL0     H36020   5.919   3.549  11.147 -0.3491 -1.4069 -0.6675
  986MOL0     H36021   5.889   3.451  11.012  0.9608 -0.4497 -2.1584
  986MOL0     H36022   5.925   3.616  10.848  0.7540  3.8799 -1.0925
  986MOL0     H36023   5.920   3.753  10.962  2.9482  0.8558  2.6054
  986MOL0     H36024   6.105   3.518  11.000  0.8562 -0.6185 -3.7731
  986MOL0     H36025   6.150   3.661  10.897 -0.1215  1.4895  0.0015
  986MOL0     H36026   6.195   3.822  11.314  0.1547 -0.3667  1.1447
  986MOL0     H36027   6.439   3.794  11.532  1.0743 -0.9900 -0.8986
  986MOL0     H36028   6.360   3.929  11.457  1.2156  1.8101  1.8418
  986MOL0     H36029   6.534   3.908  11.428 -0.5699 -0.9962 -1.8788
  986MOL0     H36030   6.952   3.781  11.119  1.4846  2.0996  1.1254
  986MOL0     H36031   7.187   3.782  11.158 -1.2336  2.2100  0.3994
  986MOL0     H36032   7.306   3.654  11.576 -2.8471 -0.6535 -1.2022
  986MOL0     H36033   7.336   3.498  11.508 -1.0331  0.4024  0.2576
  986MOL0     H36034   7.550   3.584  11.586 -1.3505  0.6585 -0.1785
  986MOL0     H36035   7.559   3.581  11.408 -0.9226 -0.1912  0.1507
  986MOL0     H36036   7.503   3.812  11.594  1.4782 -1.6534  1.5060
  986MOL0     H36037   7.520   3.829  11.417  1.2853  2.3981  0.7984
  986MOL0     H36038   7.755   3.755  11.431 -3.0160  1.5190 -2.4161
  986MOL0     H36039   7.756   3.745  11.606  0.8035  0.2796  0.1440
  986MOL0     H36040   7.675   3.992  11.453 -2.7951  0.7421  1.5942
  986MOL0     H36041   7.699   3.994  11.627 -1.8452  0.1709 -0.3567
  986MOL0     H36042   7.904   3.906  11.411  3.4145 -0.5200  0.4989
  986MOL0     H36043   7.937   3.918  11.588 -0.3529  0.1306  0.5631
  986MOL0     H36044   7.876   4.171  11.563 -1.4733  1.7955 -1.2363
  986MOL0     H36045   7.845   4.148  11.396 -0.6736  1.4538  1.7437
  986MOL0     H36046   8.121   4.091  11.526 -1.1009  0.3205  1.1205
  986MOL0     H36047   8.066   4.249  11.458 -2.7708  0.1782 -0.1885
  986MOL0     H36048   7.111   3.532  11.506 -0.3800 -0.2236 -0.0807
  986MOL0     H36049   6.863   3.532  11.453 -1.7289  1.8103  0.3118
  986MOL0     H36050   6.579   3.595  11.090  1.0246 -0.1585  3.3314
  986MOL0     H36051   6.355   3.597  10.979 -0.1379 -1.4065  0.9287
  986MOL0     H36052   4.488   3.736  10.801  1.6894  0.3531  0.3418
  986MOL0     H36053   4.248   3.787  10.788  1.4427  1.3955 -0.7933
  986MOL0     H36054   3.824   3.887  11.226  0.5143 -0.3301 -0.6136
  986MOL0     H36055   3.598   4.000  11.209  1.2512  5.4682  0.5608
  986MOL0     H36056   3.373   4.033  11.104 -1.0333 -0.2029 -2.5004
  986MOL0     H36057   3.438   4.185  11.159  0.4574  0.9615 -0.3389
  986MOL0     H36058   3.249   4.113  10.921 -1.0029  0.1038  0.0059
  986MOL0     H36059   3.327   4.272  10.924 -4.1322  0.3854 -1.6148
  986MOL0     H36060   3.109   4.151  11.113  1.1891  0.2318 -0.6608
  986MOL0     H36061   3.204   4.290  11.159  0.2795  1.3583 -0.4488
  986MOL0     H36062   3.145   4.414  10.957 -2.7609  0.6011 -2.2433
  986MOL0     H36063   2.993   4.377  11.035 -0.7376  1.3147 -2.5653
  986MOL0     H36064   2.987   4.169  10.672  2.2560  1.3997 -1.5366
  986MOL0     H36065   3.690   4.091  10.805  1.8573  2.8477  1.4385
  986MOL0     H36066   4.039   4.007  10.822 -0.3326  3.3847  0.4129
  986MOL0     H36067   3.911   3.907  10.736  1.8984 -0.9497  0.3770
  986MOL0     H36068   3.907   4.085  10.732  0.0033  0.9694  1.4632
  987MOL0     O36069   8.640  10.310   4.358  0.8539  0.3553  0.3046
  987MOL0     C36070   8.626  10.432   4.353 -0.0548 -0.4986  0.1089
  987MOL0     O36071   8.685  10.510   4.271 -0.3904  0.0292 -0.0123
  987MOL0     C36072   8.765  10.457   4.169  0.8308 -0.0323 -0.4313
  987MOL0     C36073   8.905  10.477   4.170 -0.7347  0.1436  0.2293
  987MOL0     C36074   8.984  10.416   4.071 -0.3800 -0.7406  1.1418
  987MOL0     C36075   8.923  10.356   3.952 -0.7077  1.0087  0.0827
  987MOL0     O36076   8.986  10.341   3.833 -0.1830 -0.1942  0.6315
  987MOL0     C36077   9.109  10.399   3.830 -0.3825 -0.2790  0.6213
  987MOL0     C36078   9.166  10.373   3.689  0.2523 -0.9287  0.8142
  987MOL0     C36079   9.328  10.380   3.698  0.0690 -0.0618 -0.5737
  987MOL0     C36080   9.377  10.378   3.559 -0.7367  0.2689 -0.4704
  987MOL0     C36081   9.528  10.385   3.563  0.0479  0.4846 -0.0353
  987MOL0     C36082   9.574  10.429   3.424 -0.3280  0.3966  0.2020
  987MOL0     C36083   9.727  10.443   3.412  0.0265 -0.3080 -1.3112
  987MOL0     C36084   9.769  10.482   3.262 -0.3330  0.2375 -0.9213
  987MOL0     N36085   9.789  10.363   3.172 -0.4813  0.0306 -0.0659
  987MOL0     C36086   9.691  10.279   3.117  0.7891  0.2348  0.4770
  987MOL0     C36087   9.765  10.201   3.039  0.1692  0.6223  0.0022
  987MOL0     C36088   9.718  10.098   2.943  0.1701  0.2896  0.0034
  987MOL0     C36089   9.766  10.120   2.800 -0.0935  0.1303  0.0673
  987MOL0     C36090   9.704  10.236   2.718  0.3539  0.3075  0.3448
  987MOL0     C36091   9.805  10.333   2.658  0.0574  0.4261  0.3703
  987MOL0     O36092   9.861  10.264   2.546  0.1779  0.1732 -0.3119
  987MOL0     C36093   9.978  10.312   2.489 -0.0272 -0.4244  1.0746
  987MOL0     C36094  10.083  10.216   2.457  1.0081 -0.2155 -0.5098
  987MOL0     C36095  10.210  10.252   2.415  0.3558  1.0655 -0.0770
  987MOL0     C36096  10.311  10.142   2.379  0.4490 -1.1975  0.1701
  987MOL0     C36097  10.233  10.391   2.397 -0.4613  0.5393 -0.0479
  987MOL0     C36098  10.362  10.438   2.355  0.4360  0.2735 -1.0538
  987MOL0     O36099  10.354  10.563   2.293  0.4502  0.3106 -0.1215
  987MOL0     C36100  10.466  10.637   2.275 -0.0977 -1.6563 -0.9519
  987MOL0     C36101  10.561  10.594   2.180  0.3654 -0.5788  0.4551
  987MOL0     C36102  10.671  10.678   2.151  0.1933  0.0718  0.4662
  987MOL0     C36103  10.686  10.797   2.228  0.1555 -0.4085  0.4117
  987MOL0     O36104  10.788  10.879   2.202  0.8477 -0.0527 -0.3315
  987MOL0     C36105  10.894  10.827   2.125 -0.6750  0.3990 -0.1689
  987MOL0     C36106  11.022  10.897   2.165 -0.3992 -0.4851 -0.0987
  987MOL0     C36107  11.038  11.042   2.137  0.7438 -0.2149  0.5059
  987MOL0     C36108  11.169  11.090   2.206  0.2782 -0.5838  0.0479
  987MOL0     C36109  11.281  11.091   2.106 -0.1010  0.8367  0.6764
  987MOL0     C36110  11.410  11.117   2.184 -0.5073 -0.1520  0.1331
  987MOL0     C36111  11.523  11.090   2.090  0.2054 -0.3428 -0.3679
  987MOL0     C36112  11.548  11.207   1.992 -0.2565  0.0148 -0.2025
  987MOL0    Cl36113  11.583  11.360   2.084 -0.5641  0.1050 -0.0962
  987MOL0     C36114  10.587  10.834   2.322  0.2847 -1.0379  0.9415
  987MOL0     C36115  10.474  10.763   2.345 -0.3329  0.0528 -0.4655
  987MOL0     O36116  10.470  10.376   2.378  0.7249  0.2360  0.8929
  987MOL0     C36117  10.138  10.489   2.433 -0.4086 -0.0295 -1.5006
  987MOL0     C36118  10.015  10.445   2.488 -1.0186  1.1183 -0.6378
  987MOL0     N36119   9.901  10.228   3.053 -0.5812 -0.4697 -0.0721
  987MOL0     N36120   9.913  10.327   3.137  0.4018 -0.4820  0.2036
  987MOL0     C36121   8.783  10.329   3.958  0.4837  0.9354  0.5871
  987MOL0     C36122   8.709  10.388   4.062  0.1502 -0.9161 -0.0349
  987MOL0     C36123   8.521  10.499   4.445 -0.1415 -0.8416  1.0671
  987MOL0     C36124   8.419  10.421   4.493 -0.0325  1.4848  0.5175
  987MOL0     C36125   8.314  10.470   4.572 -1.2280 -0.5597 -0.5204
  987MOL0     C36126   8.316  10.605   4.605  0.4871 -1.0294 -0.6042
  987MOL0     O36127   8.218  10.670   4.667 -0.0723  0.0086  0.0880
  987MOL0     C36128   8.095  10.590   4.693 -0.9937 -0.3390 -0.5151
  987MOL0     C36129   8.018  10.575   4.559  1.3367  0.6301 -0.0485
  987MOL0     C36130   7.875  10.531   4.586 -0.1814  0.4162 -0.2703
  987MOL0     C36131   7.856  10.380   4.641  0.5454  0.5144  0.2482
  987MOL0     C36132   7.926  10.280   4.561 -0.9386  0.3708 -1.0904
  987MOL0     C36133   7.994  10.216   4.483 -0.2716  0.1516 -0.0814
  987MOL0     C36134   8.421  10.685   4.567 -0.0964 -0.7179 -0.1133
  987MOL0     C36135   8.521  10.635   4.487  0.2200  1.0496  0.7901
  987MOL0     C36136   8.637  10.724   4.455 -0.5106  0.2631  0.0104
  987MOL0     H36137   8.954  10.519   4.257 -0.8855 -2.4408  1.6690
  987MOL0     H36138   9.091  10.433   4.078  0.0017 -1.5719 -1.6161
  987MOL0     H36139   9.174  10.351   3.903  1.7621  0.8039 -0.4717
  987MOL0     H36140   9.094  10.505   3.848 -3.8758 -0.7375  1.1305
  987MOL0     H36141   9.128  10.277   3.651 -1.3340  0.9458 -2.8109
  987MOL0     H36142   9.129  10.452   3.624  0.6882 -0.5586  1.0138
  987MOL0     H36143   9.351  10.476   3.744 -1.3295  0.5952 -1.1983
  987MOL0     H36144   9.355  10.293   3.758  1.9179  1.3708  0.7984
  987MOL0     H36145   9.343  10.288   3.508  0.9572 -1.0395  0.6191
  987MOL0     H36146   9.341  10.466   3.506 -0.4677  1.8611  1.8237
  987MOL0     H36147   9.552  10.281   3.586 -3.1232 -0.1298  0.9341
  987MOL0     H36148   9.570  10.445   3.644  1.8076  0.6227 -0.9981
  987MOL0     H36149   9.537  10.350   3.358  2.5618 -1.4919  0.6799
  987MOL0     H36150   9.518  10.520   3.399 -3.5105 -1.1172  1.2520
  987MOL0     H36151   9.782  10.354   3.444  0.0866 -0.4485 -1.8007
  987MOL0     H36152   9.750  10.528   3.477 -2.7655  0.2057 -0.8898
  987MOL0     H36153   9.688  10.546   3.226 -0.6650 -0.0459 -0.6864
  987MOL0     H36154   9.861  10.539   3.268 -1.8243  2.6477  2.5603
  987MOL0     H36155   9.583  10.287   3.123  0.0499 -5.2187 -0.4256
  987MOL0     H36156   9.609  10.102   2.948  0.2452  1.3938  1.8827
  987MOL0     H36157   9.758  10.009   2.991  2.7522  1.8937  1.0207
  987MOL0     H36158   9.875  10.131   2.803 -0.2700  3.4214 -1.4023
  987MOL0     H36159   9.741  10.027   2.749  0.8571 -0.2350  0.2445
  987MOL0     H36160   9.644  10.188   2.641 -0.7481  2.0766  0.0379
  987MOL0     H36161   9.640  10.296   2.784 -0.3392 -0.1147  0.0587
  987MOL0     H36162   9.756  10.409   2.596  2.2591  2.3021  0.7758
  987MOL0     H36163   9.871  10.373   2.735  1.8861 -0.8439 -0.4643
  987MOL0     H36164  10.049  10.118   2.488  1.9762 -0.5544 -0.4728
  987MOL0     H36165  10.273  10.042   2.356  0.4121 -0.9063 -1.1249
  987MOL0     H36166  10.386  10.133   2.458  1.8722 -0.6521 -1.0522
  987MOL0     H36167  10.358  10.177   2.286 -0.8365  0.9513  0.2838
  987MOL0     H36168  10.535  10.501   2.129 -2.4312  0.1987  0.2817
  987MOL0     H36169  10.731  10.636   2.071  0.0358 -0.6604  0.7230
  987MOL0     H36170  10.911  10.723   2.154  0.6735 -0.0695 -2.4388
  987MOL0     H36171  10.872  10.831   2.018  0.2813 -1.5202 -0.4753
  987MOL0     H36172  11.039  10.880   2.272  1.0359 -1.9051 -0.5054
  987MOL0     H36173  11.105  10.845   2.116  1.6497  1.9824  0.4899
  987MOL0     H36174  10.951  11.098   2.172  1.8422  1.9725 -0.0968
  987MOL0     H36175  11.032  11.071   2.032 -1.3712 -0.3071  0.5521
  987MOL0     H36176  11.191  11.019   2.286 -1.4177 -2.6139 -1.1756
  987MOL0     H36177  11.143  11.193   2.231 -2.8738 -1.8015  2.5205
  987MOL0     H36178  11.302  10.992   2.064  0.2414  0.4570  1.7063
  987MOL0     H36179  11.277  11.158   2.019  2.0335 -2.1380 -1.9742
  987MOL0     H36180  11.411  11.050   2.271 -0.2832 -0.0036  0.2455
  987MOL0     H36181  11.420  11.220   2.219 -0.8768 -0.5312  1.4068
  987MOL0     H36182  11.502  10.998   2.035 -0.6615 -0.9963  0.9924
  987MOL0     H36183  11.616  11.071   2.144 -1.3407 -1.7064  2.0039
  987MOL0     H36184  11.465  11.226   1.924  0.0925 -1.3876 -1.0649
  987MOL0     H36185  11.628  11.183   1.922  1.2082  3.4953  0.0548
  987MOL0     H36186  10.607  10.925   2.378 -0.9580 -0.5141  0.5508
  987MOL0     H36187  10.399  10.808   2.409  2.0176  0.6313  2.0829
  987MOL0     H36188  10.141  10.597   2.419  0.8407  0.2038  0.1772
  987MOL0     H36189   9.939  10.517   2.517 -0.9814 -0.0956  3.0438
  987MOL0     H36190   8.739  10.291   3.866  0.5501  0.1803  0.8600
  987MOL0     H36191   8.602  10.378   4.080  0.4379 -0.9315  1.9606
  987MOL0     H36192   8.413  10.315   4.471 -0.9803  1.5841  0.2550
  987MOL0     H36193   8.229  10.407   4.596  0.4579 -2.6953  0.1116
  987MOL0     H36194   8.120  10.496   4.743  0.0466 -0.2879 -0.9184
  987MOL0     H36195   8.035  10.652   4.761 -1.4081  0.6607 -1.7543
  987MOL0     H36196   8.066  10.522   4.477 -1.8450 -2.0404 -0.3665
  987MOL0     H36197   7.999  10.676   4.520 -1.3393  0.3216  0.2265
  987MOL0     H36198   7.832  10.599   4.659 -0.5310 -0.9035  0.8019
  987MOL0     H36199   7.826  10.553   4.491 -0.1867 -0.0922 -0.3902
  987MOL0     H36200   7.753  10.349   4.658  1.1005 -1.2778  0.5042
  987MOL0     H36201   7.890  10.383   4.745 -1.1522 -0.1408  0.8482
  987MOL0     H36202   8.062  10.145   4.439  3.0095  2.4413  0.9731
  987MOL0     H36203   8.419  10.787   4.602 -1.8810 -0.8338  0.2268
  987MOL0     H36204   8.631  10.811   4.521  0.0448  0.7277 -0.5471
  987MOL0     H36205   8.735  10.685   4.483 -0.3172  1.9296  1.9073
  987MOL0     H36206   8.633  10.759   4.352 -1.3172  1.6292  0.4734
  988MOL0     O36207   1.024   6.078   9.214  0.0416 -0.2402 -0.2066
  988MOL0     C36208   0.950   6.022   9.138 -0.4624 -0.4876  0.5848
  988MOL0     O36209   0.993   5.925   9.051  0.3864 -0.6312 -0.4207
  988MOL0     C36210   1.128   5.911   9.027  0.1543  0.3388  0.0564
  988MOL0     C36211   1.202   6.020   8.994  0.8559  0.0630 -0.1173
  988MOL0     C36212   1.335   6.009   8.973 -0.0508 -0.4929 -0.2576
  988MOL0     C36213   1.407   5.899   9.003  0.0243 -0.2969  0.3735
  988MOL0     O36214   1.547   5.892   8.984 -0.0546  0.9355 -0.1889
  988MOL0     C36215   1.578   5.846   8.853  0.5267  0.4530  0.3070
  988MOL0     C36216   1.730   5.853   8.834  0.3861  0.0435  0.3710
  988MOL0     C36217   1.775   5.777   8.700 -0.2476 -0.2120 -0.1106
  988MOL0     C36218   1.924   5.748   8.673 -0.3326 -0.1671  0.5006
  988MOL0     C36219   2.010   5.872   8.691 -0.7350  0.5029  1.0484
  988MOL0     C36220   2.154   5.836   8.688 -0.9819 -0.5865  0.3432
  988MOL0     C36221   2.236   5.959   8.670  0.2944 -0.2536  1.0994
  988MOL0     C36222   2.377   5.928   8.668 -0.4135 -0.1655 -0.5586
  988MOL0     N36223   2.462   6.053   8.665  0.5208 -0.7696  0.5841
  988MOL0     C36224   2.525   6.120   8.772 -0.2126  0.1658 -0.9582
  988MOL0     C36225   2.578   6.231   8.725 -0.1323 -0.7252 -0.0310
  988MOL0     C36226   2.651   6.325   8.818 -0.0870 -0.1779  0.4621
  988MOL0     C36227   2.552   6.434   8.862 -0.6545 -0.5615 -0.5437
  988MOL0     C36228   2.640   6.564   8.904 -0.7621  0.6245 -0.2080
  988MOL0     C36229   2.687   6.566   9.047  0.6895 -0.7523 -0.2764
  988MOL0     O36230   2.805   6.653   9.052  1.5875  0.2298 -0.2722
  988MOL0     C36231   2.852   6.688   9.173  0.1211 -0.0516 -0.0468
  988MOL0     C36232   2.867   6.593   9.278  0.2746 -1.0659 -0.6921
  988MOL0     C36233   2.958   6.619   9.381  0.1805  0.2216 -1.7256
  988MOL0     C36234   3.009   6.503   9.473  0.0062  0.5646  0.3989
  988MOL0     C36235   3.010   6.748   9.401  0.7821 -0.9459  0.1144
  988MOL0     C36236   3.076   6.799   9.521  0.1607  0.2758 -0.4405
  988MOL0     O36237   3.204   6.848   9.505  0.3323 -0.2699 -0.1802
  988MOL0     C36238   3.299   6.835   9.607 -0.0962 -0.9856 -0.2404
  988MOL0     C36239   3.295   6.734   9.703  0.0977  0.4477 -0.6642
  988MOL0     C36240   3.399   6.719   9.800 -0.4296 -0.0992 -0.8106
  988MOL0     C36241   3.511   6.805   9.793  1.0035  0.3776 -0.3961
  988MOL0     O36242   3.611   6.809   9.878 -0.0327 -0.2904  0.0320
  988MOL0     C36243   3.740   6.789   9.826  0.6169  0.1315  0.1950
  988MOL0     C36244   3.807   6.669   9.896 -1.3508 -0.0241 -0.9693
  988MOL0     C36245   3.942   6.628   9.836  0.4576 -0.2421 -1.2589
  988MOL0     C36246   4.030   6.573   9.947 -0.5288  0.1248 -0.2830
  988MOL0     C36247   4.156   6.527   9.871  0.0538  0.3425 -0.9877
  988MOL0     C36248   4.251   6.442   9.956 -0.5714 -0.5199 -0.2695
  988MOL0     C36249   4.364   6.372   9.882  0.1911  0.0413  0.4030
  988MOL0     C36250   4.441   6.267   9.960  0.4854 -1.0990 -0.1423
  988MOL0    Cl36251   4.545   6.333  10.080  0.3350  0.9290 -0.0923
  988MOL0     C36252   3.512   6.903   9.700 -0.1803 -0.1110  0.0229
  988MOL0     C36253   3.412   6.922   9.612  0.4448  0.3546 -0.5160
  988MOL0     O36254   3.015   6.794   9.629  0.3215 -0.6042  0.4219
  988MOL0     C36255   2.978   6.848   9.304  0.2808  0.0037 -0.5447
  988MOL0     C36256   2.910   6.816   9.193  0.0455  0.3302 -0.1809
  988MOL0     N36257   2.548   6.241   8.592  1.0323  0.1567 -0.0603
  988MOL0     N36258   2.477   6.136   8.550  0.2044 -0.6145 -0.5112
  988MOL0     C36259   1.333   5.780   9.030 -0.6995 -1.3990 -1.0278
  988MOL0     C36260   1.195   5.790   9.046 -0.7009 -0.2347 -0.5292
  988MOL0     C36261   0.806   6.059   9.144  0.0662  0.5768 -0.8416
  988MOL0     C36262   0.718   6.000   9.051 -0.2789  0.3617  0.6211
  988MOL0     C36263   0.575   6.009   9.061 -0.0320  0.5752 -1.2129
  988MOL0     C36264   0.524   6.081   9.173 -0.1796  0.9854  0.4402
  988MOL0     O36265   0.389   6.094   9.175 -0.2401 -0.5621  0.0992
  988MOL0     C36266   0.325   6.150   9.290 -0.3630  0.3155  0.7042
  988MOL0     C36267   0.173   6.157   9.268  0.6837 -0.1259  0.5744
  988MOL0     C36268   0.117   6.229   9.397  0.1915 -0.2927 -0.1123
  988MOL0     C36269  -0.021   6.295   9.369 -0.4046  0.2916 -1.0096
  988MOL0     C36270   0.002   6.421   9.290 -0.0344 -0.4603 -0.2447
  988MOL0     C36271   0.012   6.538   9.241  1.0059 -0.3718 -0.1434
  988MOL0     C36272   0.606   6.149   9.255 -0.1349 -0.2856 -0.6253
  988MOL0     C36273   0.742   6.150   9.240 -0.7028 -0.4588  0.0459
  988MOL0     C36274   0.816   6.246   9.333 -1.0241 -1.1720 -0.4698
  988MOL0     H36275   1.153   6.114   8.969  0.9812 -0.6404 -3.3540
  988MOL0     H36276   1.388   6.098   8.938  0.0724 -0.2609  0.5164
  988MOL0     H36277   1.535   5.906   8.772  0.8276 -0.0179 -0.2084
  988MOL0     H36278   1.553   5.741   8.840 -0.1900  0.5993  0.4579
  988MOL0     H36279   1.764   5.957   8.841 -1.3656  0.6076  1.1897
  988MOL0     H36280   1.787   5.800   8.912  3.3414  2.2682 -0.1012
  988MOL0     H36281   1.723   5.681   8.699 -0.2993 -0.1859 -0.5225
  988MOL0     H36282   1.737   5.840   8.618 -0.7631  0.5019  0.6673
  988MOL0     H36283   1.960   5.668   8.739 -1.3316 -1.2406 -0.2323
  988MOL0     H36284   1.921   5.717   8.568  0.1025  1.9923 -0.1959
  988MOL0     H36285   1.987   5.925   8.784 -0.8711  1.9938  0.2038
  988MOL0     H36286   1.986   5.937   8.606  0.7799 -0.0045  0.2018
  988MOL0     H36287   2.170   5.794   8.788  1.0298  1.5931  1.0098
  988MOL0     H36288   2.176   5.774   8.600 -0.2906  0.1574 -0.0175
  988MOL0     H36289   2.217   6.038   8.742  1.3988  3.3871 -2.2570
  988MOL0     H36290   2.209   6.005   8.575 -0.8715 -0.4708  1.3072
  988MOL0     H36291   2.398   5.870   8.758 -3.8421 -0.8893 -0.0959
  988MOL0     H36292   2.409   5.867   8.583  1.5865 -0.9321  0.6959
  988MOL0     H36293   2.530   6.083   8.874  3.7637 -0.3687 -1.1653
  988MOL0     H36294   2.728   6.382   8.765  0.4308  1.9828  3.2570
  988MOL0     H36295   2.689   6.267   8.903  0.1128 -0.6456  0.0563
  988MOL0     H36296   2.474   6.458   8.789 -3.7285  2.1651  3.2839
  988MOL0     H36297   2.497   6.393   8.947 -0.8118  1.7569  0.5381
  988MOL0     H36298   2.715   6.592   8.830 -1.6593  4.0202 -0.0004
  988MOL0     H36299   2.569   6.647   8.901 -0.0076  1.3327  0.8821
  988MOL0     H36300   2.609   6.619   9.101  2.7820  2.6477 -0.3473
  988MOL0     H36301   2.693   6.462   9.082  0.9113  0.1612  2.6206
  988MOL0     H36302   2.816   6.499   9.262 -3.0531  0.3437  0.6320
  988MOL0     H36303   3.020   6.408   9.419  2.0055  1.6901 -1.3306
  988MOL0     H36304   2.960   6.496   9.571  2.1939  0.5519  1.5474
  988MOL0     H36305   3.114   6.521   9.495 -0.2335 -0.6560  2.9730
  988MOL0     H36306   3.215   6.660   9.703  0.9629 -0.5216 -1.7762
  988MOL0     H36307   3.405   6.648   9.882 -0.0626  0.1815 -0.5930
  988MOL0     H36308   3.728   6.772   9.719 -0.5995  2.9906 -0.2214
  988MOL0     H36309   3.805   6.875   9.849 -0.7241  1.7029 -1.5797
  988MOL0     H36310   3.828   6.715   9.993  1.2563  0.2415 -1.5814
  988MOL0     H36311   3.749   6.576   9.895 -0.4825 -0.5999 -0.1254
  988MOL0     H36312   3.985   6.717   9.788 -3.9896  3.1958  0.4391
  988MOL0     H36313   3.930   6.559   9.752 -0.0549 -0.7024 -0.8108
  988MOL0     H36314   3.988   6.482   9.991  2.4740 -0.7849  0.9144
  988MOL0     H36315   4.052   6.647  10.024  2.2388  0.1500 -1.0155
  988MOL0     H36316   4.146   6.462   9.783  3.0769  2.1885 -2.8875
  988MOL0     H36317   4.214   6.615   9.842  0.8531  0.0737 -0.2432
  988MOL0     H36318   4.200   6.364  10.013  0.6762 -0.5717  0.8438
  988MOL0     H36319   4.301   6.508  10.027  1.4763 -0.3539 -1.7942
  988MOL0     H36320   4.445   6.439   9.856  0.2569  0.0904  0.7310
  988MOL0     H36321   4.312   6.320   9.800 -0.1257 -0.1042  0.6899
  988MOL0     H36322   4.514   6.235   9.885  2.8742  1.2569  0.9792
  988MOL0     H36323   4.383   6.180   9.994  1.5854 -1.1338  1.8253
  988MOL0     H36324   3.590   6.977   9.691  0.7367 -0.9158  1.0241
  988MOL0     H36325   3.404   7.009   9.548  0.6297  1.6698  1.1728
  988MOL0     H36326   3.017   6.948   9.317 -2.0699  1.0472 -0.9881
  988MOL0     H36327   2.900   6.890   9.114  0.3578 -1.1126 -1.6275
  988MOL0     H36328   1.389   5.687   9.037  0.9747 -0.6069 -2.8825
  988MOL0     H36329   1.137   5.707   9.084 -0.4966 -0.4103 -0.5973
  988MOL0     H36330   0.757   5.931   8.976 -0.9575  2.0910 -1.4169
  988MOL0     H36331   0.500   5.962   8.998 -0.7492 -0.4252  0.3107
  988MOL0     H36332   0.342   6.090   9.380 -1.6020 -2.7179 -0.9453
  988MOL0     H36333   0.353   6.255   9.306  0.4428 -0.0513  1.8629
  988MOL0     H36334   0.125   6.060   9.252  1.9768 -0.6580 -0.2548
  988MOL0     H36335   0.159   6.216   9.177  0.9948 -1.6883 -0.5360
  988MOL0     H36336   0.117   6.159   9.482  0.7817  0.8163  0.8326
  988MOL0     H36337   0.180   6.312   9.430  1.9188 -2.0254  1.1865
  988MOL0     H36338  -0.072   6.325   9.462 -1.7603 -0.6638 -1.4203
  988MOL0     H36339  -0.082   6.225   9.312  0.4748 -0.8996 -0.5401
  988MOL0     H36340   0.023   6.637   9.201  4.1422  0.2707  1.9656
  988MOL0     H36341   0.571   6.215   9.334 -0.4127 -0.9824 -0.1635
  988MOL0     H36342   0.915   6.280   9.301 -2.8644  2.6259 -2.9094
  988MOL0     H36343   0.757   6.338   9.341 -0.2093 -0.6290 -0.5592
  988MOL0     H36344   0.827   6.186   9.424  3.4416 -2.6940 -1.7656
  989MOL0     O36345   0.651   5.317   1.807 -0.5133  0.1501 -0.3670
  989MOL0     C36346   0.583   5.331   1.909 -0.1153  0.0677 -0.3792
  989MOL0     O36347   0.612   5.432   2.001  0.5649  0.1795 -0.5010
  989MOL0     C36348   0.731   5.496   1.985 -0.0274 -0.6942 -0.2077
  989MOL0     C36349   0.715   5.635   1.991 -0.1282  0.1651 -0.3269
  989MOL0     C36350   0.827   5.717   1.982 -0.0030  0.2469  0.0749
  989MOL0     C36351   0.952   5.649   1.966 -1.3026 -0.0860 -0.5770
  989MOL0     O36352   1.070   5.718   1.941 -0.1234  0.2244 -0.8058
  989MOL0     C36353   1.061   5.848   1.892 -0.0244  0.3998  0.5959
  989MOL0     C36354   1.195   5.884   1.826  0.0619  0.0486 -0.6997
  989MOL0     C36355   1.327   5.821   1.891 -0.1712 -0.2918 -0.5737
  989MOL0     C36356   1.456   5.903   1.864 -0.0055  1.0270 -0.4912
  989MOL0     C36357   1.474   6.038   1.923 -0.7419 -0.7202 -0.0865
  989MOL0     C36358   1.612   6.065   1.991  0.1541  0.2200  0.2707
  989MOL0     C36359   1.649   6.196   2.041  0.4391 -0.6579 -0.3057
  989MOL0     C36360   1.536   6.275   2.106 -0.1518  0.0656 -0.3166
  989MOL0     N36361   1.511   6.256   2.247 -0.0447  0.2472  0.7105
  989MOL0     C36362   1.497   6.142   2.322 -0.6350  0.0984 -0.2123
  989MOL0     C36363   1.464   6.181   2.443  1.0241  0.9133 -0.1590
  989MOL0     C36364   1.452   6.087   2.558 -0.2204  0.1587  0.2687
  989MOL0     C36365   1.478   6.172   2.691  0.4589  0.2661 -0.3275
  989MOL0     C36366   1.472   6.084   2.815  0.2401  0.0482  0.0298
  989MOL0     C36367   1.596   5.991   2.829  0.7731 -0.8815 -0.3650
  989MOL0     O36368   1.715   6.067   2.810 -0.6798 -1.2912 -0.4658
  989MOL0     C36369   1.833   6.010   2.844 -0.3141  0.0652  0.1111
  989MOL0     C36370   1.850   5.884   2.889  0.3644 -0.1043 -0.2504
  989MOL0     C36371   1.970   5.839   2.935 -0.5316  0.2576  0.1304
  989MOL0     C36372   1.970   5.693   2.974 -0.5020  0.2194  0.0140
  989MOL0     C36373   2.080   5.924   2.936  0.2982 -0.2331 -0.5706
  989MOL0     C36374   2.220   5.880   2.968 -1.2259  0.1073 -0.7403
  989MOL0     O36375   2.312   5.982   2.988 -0.7737  0.1302  0.7681
  989MOL0     C36376   2.446   5.940   2.987  0.4594  0.1910  0.1776
  989MOL0     C36377   2.524   5.957   3.106 -0.3335 -0.0093  0.1721
  989MOL0     C36378   2.665   5.926   3.115  0.8168 -0.6847  0.1862
  989MOL0     C36379   2.729   5.859   3.004 -0.2079  0.4032  0.5615
  989MOL0     O36380   2.859   5.822   2.990  0.6341  0.4338  0.3128
  989MOL0     C36381   2.939   5.821   3.115 -0.3590  0.3761  0.1435
  989MOL0     C36382   3.082   5.777   3.083  0.3477 -0.1940 -0.1613
  989MOL0     C36383   3.176   5.766   3.209  0.8366  1.0516 -0.4526
  989MOL0     C36384   3.157   5.889   3.303 -0.0571 -0.5522 -0.8225
  989MOL0     C36385   3.251   5.875   3.414  0.1720  0.2787  0.1162
  989MOL0     C36386   3.384   5.933   3.368 -0.4404 -0.3482  0.3601
  989MOL0     C36387   3.505   5.912   3.463 -0.4074  0.8021  0.5024
  989MOL0     C36388   3.633   5.946   3.385 -0.6735 -0.5358  0.0510
  989MOL0    Cl36389   3.774   5.914   3.494 -0.1180  0.2844  0.0761
  989MOL0     C36390   2.655   5.843   2.889 -0.6379  0.3805  0.1386
  989MOL0     C36391   2.522   5.883   2.875  0.0958  0.0844  0.2667
  989MOL0     O36392   2.240   5.763   2.986 -0.1103 -0.4540 -0.8234
  989MOL0     C36393   2.063   6.054   2.886 -0.2547  1.2827  0.3241
  989MOL0     C36394   1.937   6.102   2.839 -0.2768  0.4006 -0.9875
  989MOL0     N36395   1.445   6.314   2.438 -0.7626 -0.0791 -0.9156
  989MOL0     N36396   1.483   6.359   2.329 -0.0022 -0.2896  0.6332
  989MOL0     C36397   0.974   5.506   1.957  0.2473 -0.2797  0.0507
  989MOL0     C36398   0.860   5.433   1.961  0.7357  0.1971  0.1735
  989MOL0     C36399   0.464   5.253   1.940  0.1879 -0.5030 -0.1900
  989MOL0     C36400   0.372   5.314   2.034  0.1558 -0.9371  0.9851
  989MOL0     C36401   0.260   5.249   2.067  0.0942  0.4962  0.1517
  989MOL0     C36402   0.228   5.121   2.018  0.1221  0.7402 -0.2513
  989MOL0     O36403   0.109   5.064   2.058  0.5408 -0.5272 -0.6829
  989MOL0     C36404   0.082   4.925   2.038  0.0328 -0.1053  0.1048
  989MOL0     C36405   0.150   4.848   2.147 -0.5256 -0.2900 -0.0700
  989MOL0     C36406   0.128   4.695   2.146 -0.7593  0.5134 -0.8993
  989MOL0     C36407   0.047   4.650   2.268  0.7504  0.4707  0.1323
  989MOL0     C36408   0.051   4.501   2.292 -0.1880 -1.1527 -0.1116
  989MOL0     C36409   0.051   4.380   2.302 -0.0117  0.2130 -0.0137
  989MOL0     C36410   0.327   5.059   1.943  0.5717 -0.5059 -0.3022
  989MOL0     C36411   0.444   5.118   1.900 -0.2354 -0.5627 -0.2738
  989MOL0     C36412   0.537   5.052   1.794  1.1405  0.2655 -0.1670
  989MOL0     H36413   0.610   5.661   2.007 -0.8759 -2.1550 -1.0258
  989MOL0     H36414   0.826   5.822   2.008  0.0599 -0.1464  1.7439
  989MOL0     H36415   1.054   5.904   1.986 -0.8411 -2.8238  2.6126
  989MOL0     H36416   0.977   5.883   1.830 -1.3297  0.5526  2.3688
  989MOL0     H36417   1.199   5.865   1.718 -1.4149 -1.7434 -0.4846
  989MOL0     H36418   1.201   5.992   1.841  1.4557  0.0935 -1.4254
  989MOL0     H36419   1.320   5.807   1.999 -1.4649  2.9358 -0.1325
  989MOL0     H36420   1.342   5.722   1.846  2.4834 -0.8321  1.2344
  989MOL0     H36421   1.540   5.842   1.897 -0.1730  0.4780 -1.0523
  989MOL0     H36422   1.458   5.923   1.757 -2.6679 -2.7315 -1.4704
  989MOL0     H36423   1.402   6.045   2.005  2.3755 -0.7387  2.8842
  989MOL0     H36424   1.462   6.120   1.852  0.9346 -0.0355  0.3534
  989MOL0     H36425   1.628   5.992   2.070  1.2299 -2.1521 -1.9834
  989MOL0     H36426   1.686   6.038   1.914  1.4270  1.7506  0.8979
  989MOL0     H36427   1.678   6.249   1.950 -0.1397  0.1567 -0.0381
  989MOL0     H36428   1.735   6.201   2.107  1.6016 -0.0481 -1.8081
  989MOL0     H36429   1.580   6.374   2.097  0.0032 -0.0129 -0.4266
  989MOL0     H36430   1.443   6.275   2.048 -0.2297  0.8764 -0.2044
  989MOL0     H36431   1.524   6.046   2.278 -1.8500  1.0159 -3.2913
  989MOL0     H36432   1.523   6.006   2.538 -0.5808 -0.4542  1.3286
  989MOL0     H36433   1.357   6.031   2.561  0.9983 -2.2591  5.5359
  989MOL0     H36434   1.577   6.217   2.691  0.5629  0.0937  1.1094
  989MOL0     H36435   1.392   6.239   2.689 -0.3577 -0.4770  3.0466
  989MOL0     H36436   1.451   6.135   2.910  0.6628  2.6338 -1.1787
  989MOL0     H36437   1.386   6.017   2.809  0.7759 -0.6827  0.2835
  989MOL0     H36438   1.588   5.948   2.929 -1.9785  1.5247  0.6103
  989MOL0     H36439   1.592   5.919   2.747  0.6061  0.2726 -1.3984
  989MOL0     H36440   1.762   5.822   2.898  1.4211 -1.5196  0.8023
  989MOL0     H36441   2.045   5.633   2.924  0.7710  1.1216  0.7860
  989MOL0     H36442   1.872   5.652   2.945 -0.3114  1.2297 -2.2510
  989MOL0     H36443   1.985   5.681   3.082 -1.1559 -0.0475  0.0848
  989MOL0     H36444   2.489   6.012   3.194 -3.1576  2.1520 -2.0818
  989MOL0     H36445   2.723   5.953   3.202  0.1727  2.5215 -0.2627
  989MOL0     H36446   2.945   5.922   3.156  0.7329 -0.3662  1.9576
  989MOL0     H36447   2.894   5.747   3.182  0.7992 -3.3555 -2.8698
  989MOL0     H36448   3.081   5.686   3.023  0.0947  0.5588 -1.3237
  989MOL0     H36449   3.135   5.854   3.027  2.0137  1.5568  3.4889
  989MOL0     H36450   3.274   5.754   3.162  2.1315  0.3344  2.2668
  989MOL0     H36451   3.141   5.672   3.254  0.5721  1.2292 -0.2811
  989MOL0     H36452   3.058   5.882   3.351  0.5124 -2.2956  0.1824
  989MOL0     H36453   3.182   5.982   3.251 -2.1759  1.2442  1.1688
  989MOL0     H36454   3.223   5.927   3.506 -0.2122 -1.7107  1.1789
  989MOL0     H36455   3.255   5.769   3.438 -1.3662 -0.2827 -1.8134
  989MOL0     H36456   3.375   6.042   3.367  2.7794  0.0245 -0.0306
  989MOL0     H36457   3.413   5.888   3.272 -0.6122 -3.2481  1.5834
  989MOL0     H36458   3.504   5.810   3.503 -1.6958 -0.2928 -2.0812
  989MOL0     H36459   3.490   5.981   3.546  0.2908 -0.4398  1.7100
  989MOL0     H36460   3.643   6.047   3.346  0.7758 -0.6131  0.1434
  989MOL0     H36461   3.644   5.883   3.296 -0.3875  1.6353 -1.5288
  989MOL0     H36462   2.705   5.801   2.802  0.6195  1.0898  0.4994
  989MOL0     H36463   2.464   5.855   2.788  0.2984  0.0821  0.1303
  989MOL0     H36464   2.147   6.121   2.876  2.9615 -2.7086 -3.7511
  989MOL0     H36465   1.911   6.206   2.823 -1.2699  0.9287  2.8904
  989MOL0     H36466   1.076   5.474   1.942 -0.1471 -1.7081  0.3142
  989MOL0     H36467   0.871   5.327   1.940 -1.5201  0.4099 -2.7750
  989MOL0     H36468   0.389   5.416   2.069 -1.0880  0.0758 -1.1691
  989MOL0     H36469   0.196   5.312   2.128  0.6346 -0.2284  1.5043
  989MOL0     H36470  -0.026   4.907   2.040  0.1751 -1.2526 -1.2935
  989MOL0     H36471   0.116   4.897   1.938  0.8609 -0.3261  0.4452
  989MOL0     H36472   0.113   4.897   2.238 -1.0784 -2.1423  0.7481
  989MOL0     H36473   0.257   4.869   2.154 -0.9320  2.6352 -1.1033
  989MOL0     H36474   0.072   4.676   2.054 -0.2047 -1.2827 -0.9095
  989MOL0     H36475   0.209   4.622   2.139 -2.3390 -1.2778 -1.4375
  989MOL0     H36476  -0.057   4.676   2.248 -0.7620 -1.3861  4.4120
  989MOL0     H36477   0.079   4.705   2.356 -2.9881  1.9426  0.7486
  989MOL0     H36478   0.054   4.273   2.294  3.2399  0.0700  1.5668
  989MOL0     H36479   0.306   4.966   1.891 -0.7149  0.1579 -1.0284
  989MOL0     H36480   0.641   5.052   1.830  0.1455 -1.0638  3.0357
  989MOL0     H36481   0.502   4.949   1.783 -1.4118  0.9015  1.4244
  989MOL0     H36482   0.533   5.106   1.698  0.7436  0.8919  0.2012
  990MOL0     O36483  11.006   2.238   3.931  0.1552  0.3450 -0.4614
  990MOL0     C36484  10.945   2.312   4.012 -0.6659 -0.0333  0.1910
  990MOL0     O36485  10.991   2.354   4.131  0.4576 -0.3136  0.9903
  990MOL0     C36486  11.121   2.333   4.166  0.8106  0.1178 -0.1509
  990MOL0     C36487  11.213   2.435   4.159 -0.3664 -0.2728  0.0042
  990MOL0     C36488  11.352   2.416   4.183 -1.0127  0.7139 -0.0922
  990MOL0     C36489  11.403   2.289   4.218 -0.1259 -0.8658 -0.1936
  990MOL0     O36490  11.538   2.271   4.254 -0.1912 -0.2565  0.1860
  990MOL0     C36491  11.584   2.141   4.301  0.0838  0.1838  0.7696
  990MOL0     C36492  11.538   2.115   4.445 -0.0375  0.1189 -1.0218
  990MOL0     C36493  11.598   1.991   4.502 -0.4070  0.0190 -0.0711
  990MOL0     C36494  11.601   1.987   4.655 -0.6652 -0.5444  0.1545
  990MOL0     C36495  11.684   1.872   4.718  0.0526 -0.4123  0.6839
  990MOL0     C36496  11.841   1.900   4.704 -0.0169 -0.4891 -0.8224
  990MOL0     C36497  11.910   1.757   4.718  0.6270  0.2319  0.6776
  990MOL0     C36498  12.063   1.757   4.729 -0.2233  1.0243  0.2485
  990MOL0     N36499  12.132   1.751   4.856  0.4400  0.6241 -1.3204
  990MOL0     C36500  12.130   1.861   4.939 -0.4064 -0.3630 -0.1441
  990MOL0     C36501  12.177   1.813   5.055  0.3649 -0.8013  0.0864
  990MOL0     C36502  12.196   1.899   5.179 -0.1910  0.1215  0.1718
  990MOL0     C36503  12.335   1.963   5.184  0.1436  0.1992 -0.4845
  990MOL0     C36504  12.359   2.054   5.303 -0.7514 -0.7923 -0.0345
  990MOL0     C36505  12.498   2.117   5.302  0.5603 -0.1933  0.0866
  990MOL0     O36506  12.599   2.015   5.294  0.4620 -0.3294  0.6530
  990MOL0     C36507  12.726   2.068   5.304  0.1755  0.6941  0.1002
  990MOL0     C36508  12.770   2.205   5.305 -0.7260 -0.3535  0.3073
  990MOL0     C36509  12.910   2.227   5.302 -0.0871 -0.9057 -0.1053
  990MOL0     C36510  12.953   2.371   5.282  0.0150  0.3167 -0.2625
  990MOL0     C36511  13.005   2.119   5.322 -0.2575  0.4155 -0.7827
  990MOL0     C36512  13.157   2.129   5.316 -0.4538 -0.4101 -0.5265
  990MOL0     O36513  13.229   2.020   5.365  0.1779 -0.0380 -0.0213
  990MOL0     C36514  13.362   2.041   5.392  0.1359 -0.4270  0.8883
  990MOL0     C36515  13.409   2.161   5.443 -0.1540 -0.1301  0.4947
  990MOL0     C36516  13.550   2.178   5.455  0.3027 -0.0846  0.2843
  990MOL0     C36517  13.635   2.075   5.430  0.1678  0.2270  0.4060
  990MOL0     O36518  13.772   2.104   5.440 -0.0076 -0.1049 -0.4682
  990MOL0     C36519  13.856   1.987   5.453 -0.4754  0.3025 -0.0328
  990MOL0     C36520  14.000   2.022   5.494 -0.1255 -0.4848  0.3921
  990MOL0     C36521  14.110   1.919   5.457 -0.0883  1.0477 -0.7176
  990MOL0     C36522  14.250   1.946   5.518  0.5942 -0.2753  0.4666
  990MOL0     C36523  14.338   1.827   5.494  0.5243 -0.3987  0.3303
  990MOL0     C36524  14.481   1.854   5.533 -0.2008  0.0436 -0.0293
  990MOL0     C36525  14.592   1.772   5.469  0.0630 -1.4556 -0.2125
  990MOL0     C36526  14.587   1.763   5.318  0.2040  1.0500 -0.2608
  990MOL0    Cl36527  14.742   1.768   5.222 -0.3624  0.0969 -0.3608
  990MOL0     C36528  13.578   1.951   5.377 -0.6031  0.3685  0.3733
  990MOL0     C36529  13.446   1.937   5.356  0.2501 -0.2475 -0.2255
  990MOL0     O36530  13.204   2.223   5.259  0.7719 -0.0993  0.1554
  990MOL0     C36531  12.954   1.989   5.345  0.5066 -0.3204  0.2305
  990MOL0     C36532  12.823   1.964   5.334 -0.4348  0.4521 -0.3152
  990MOL0     N36533  12.213   1.682   5.049 -0.0596 -0.9207  1.1774
  990MOL0     N36534  12.188   1.646   4.925 -0.1681  0.5052 -0.2906
  990MOL0     C36535  11.306   2.186   4.219  0.1644 -0.0287  0.2116
  990MOL0     C36536  11.167   2.205   4.188  0.1010 -0.0228  0.5260
  990MOL0     C36537  10.805   2.348   3.997 -0.1286 -0.5575 -0.8387
  990MOL0     C36538  10.759   2.462   4.068 -0.2260  0.1284  0.3576
  990MOL0     C36539  10.627   2.498   4.070 -1.2035 -0.2871  1.0554
  990MOL0     C36540  10.533   2.426   3.989  0.1717  0.1939  0.7071
  990MOL0     O36541  10.401   2.461   4.003  0.3531  0.0994  0.6443
  990MOL0     C36542  10.297   2.383   3.936 -0.0556  0.3396 -0.3869
  990MOL0     C36543  10.162   2.438   3.979 -0.8271  0.3410 -0.0104
  990MOL0     C36544  10.046   2.386   3.891 -0.4379 -0.5533 -0.1214
  990MOL0     C36545  10.070   2.408   3.741  0.1496  0.2012  0.0302
  990MOL0     C36546   9.939   2.439   3.680  0.6096  0.2764  0.7812
  990MOL0     C36547   9.819   2.466   3.657 -0.0725 -0.1780  0.3801
  990MOL0     C36548  10.576   2.311   3.916 -0.5042 -0.1106 -0.0828
  990MOL0     C36549  10.711   2.271   3.926 -1.2619  0.1205 -0.2231
  990MOL0     C36550  10.732   2.129   3.861 -0.3018 -0.1598  0.0687
  990MOL0     H36551  11.184   2.536   4.133  1.5003  0.4793  0.7126
  990MOL0     H36552  11.415   2.505   4.179 -0.7376  0.4731 -2.5729
  990MOL0     H36553  11.693   2.139   4.290  0.0876  0.6851  0.7012
  990MOL0     H36554  11.538   2.066   4.235  0.2359 -0.9074  1.8724
  990MOL0     H36555  11.578   2.198   4.504  1.8934 -2.1675  1.1243
  990MOL0     H36556  11.430   2.105   4.457  0.3765 -2.8823  1.0687
  990MOL0     H36557  11.563   1.897   4.457  1.0083 -0.7025  0.2569
  990MOL0     H36558  11.700   1.984   4.462 -0.5053 -0.3889 -0.2586
  990MOL0     H36559  11.643   2.080   4.695  0.9981 -1.5706  0.8868
  990MOL0     H36560  11.496   1.989   4.684 -1.6158 -0.6373 -2.9705
  990MOL0     H36561  11.654   1.783   4.662  0.5733 -0.5876  0.6797
  990MOL0     H36562  11.668   1.863   4.825 -0.0154 -1.9782  0.5611
  990MOL0     H36563  11.860   1.950   4.609 -3.5480  0.7872 -0.9827
  990MOL0     H36564  11.857   1.963   4.792  1.9627 -0.3398 -1.2379
  990MOL0     H36565  11.879   1.706   4.626 -1.2971  3.0054 -0.3297
  990MOL0     H36566  11.864   1.700   4.799 -1.2308 -2.1820 -1.8625
  990MOL0     H36567  12.098   1.677   4.663 -1.8255  0.0956  0.4701
  990MOL0     H36568  12.099   1.850   4.684  4.4765  0.5696  2.4897
  990MOL0     H36569  12.097   1.961   4.912 -0.5933 -0.4506 -0.2370
  990MOL0     H36570  12.177   1.842   5.270  0.7280  2.3620  1.8867
  990MOL0     H36571  12.128   1.984   5.174  1.6500  1.5837 -2.2805
  990MOL0     H36572  12.404   1.880   5.204  1.3400  0.7611 -2.0544
  990MOL0     H36573  12.353   2.003   5.084  2.8946 -3.7183 -1.7983
  990MOL0     H36574  12.296   2.139   5.277  3.1621  1.4434 -3.4217
  990MOL0     H36575  12.337   2.015   5.403  4.7921 -2.1007  1.0160
  990MOL0     H36576  12.495   2.178   5.210  0.8263  0.1071  0.2716
  990MOL0     H36577  12.514   2.185   5.386  1.1723  1.6431 -1.4129
  990MOL0     H36578  12.703   2.291   5.308 -2.2385 -1.4345 -0.6238
  990MOL0     H36579  13.054   2.392   5.316 -0.0847 -0.0658  0.2940
  990MOL0     H36580  12.894   2.438   5.346  1.1250  0.4057  0.6858
  990MOL0     H36581  12.943   2.397   5.177 -0.8139  3.5693  0.5086
  990MOL0     H36582  13.343   2.238   5.482  0.8002  0.5923  0.7192
  990MOL0     H36583  13.595   2.269   5.492 -1.3020  0.3035  1.3254
  990MOL0     H36584  13.807   1.917   5.522 -1.9468 -1.2627 -2.5269
  990MOL0     H36585  13.850   1.954   5.349  0.5951  1.1009 -0.3661
  990MOL0     H36586  14.020   2.112   5.436 -1.9027  0.1171  0.6632
  990MOL0     H36587  14.011   2.042   5.601  1.3626 -2.5083  0.6812
  990MOL0     H36588  14.120   1.910   5.348  1.1792 -1.0787 -0.4984
  990MOL0     H36589  14.077   1.822   5.495  2.3556  1.5811  3.4427
  990MOL0     H36590  14.252   1.972   5.624 -2.3380  3.6236 -0.2056
  990MOL0     H36591  14.280   2.035   5.462 -1.0148  0.4602  0.7380
  990MOL0     H36592  14.308   1.758   5.574  0.9458 -1.4311 -0.3789
  990MOL0     H36593  14.319   1.786   5.395  1.2577 -0.8530  0.3689
  990MOL0     H36594  14.499   1.860   5.641 -2.6627  0.2649  0.4334
  990MOL0     H36595  14.488   1.958   5.500  1.3381 -0.3684 -1.1136
  990MOL0     H36596  14.582   1.670   5.507 -1.7510 -1.8876 -1.6946
  990MOL0     H36597  14.686   1.820   5.500 -1.1708 -1.7607  4.8604
  990MOL0     H36598  14.541   1.858   5.290 -4.2200 -0.2742  1.5397
  990MOL0     H36599  14.516   1.687   5.283  2.8695 -2.2528  0.9971
  990MOL0     H36600  13.625   1.862   5.337 -1.1451  0.1605  0.1885
  990MOL0     H36601  13.409   1.848   5.306 -1.3142  1.2635 -1.8992
  990MOL0     H36602  13.013   1.905   5.378 -0.0506 -1.9695 -2.6190
  990MOL0     H36603  12.799   1.859   5.346 -1.1135  0.7966  1.7342
  990MOL0     H36604  11.331   2.086   4.251 -1.1977  0.3769  2.8155
  990MOL0     H36605  11.094   2.126   4.186  1.2562 -1.1251  0.1234
  990MOL0     H36606  10.834   2.532   4.102 -0.9742  1.6492 -0.9962
  990MOL0     H36607  10.575   2.583   4.114 -3.2055 -2.2675  2.7317
  990MOL0     H36608  10.306   2.383   3.827 -0.3843  0.2133 -0.4131
  990MOL0     H36609  10.291   2.279   3.966 -3.5898  0.1895 -1.1928
  990MOL0     H36610  10.162   2.547   3.980 -3.1149  0.3981 -1.2233
  990MOL0     H36611  10.151   2.399   4.081 -2.0152 -0.9225 -0.5919
  990MOL0     H36612  10.029   2.281   3.917 -1.4695 -0.1406  1.0007
  990MOL0     H36613   9.961   2.447   3.922 -0.6840 -0.6176 -0.6603
  990MOL0     H36614  10.111   2.320   3.690  2.8619  1.4457 -0.1266
  990MOL0     H36615  10.143   2.489   3.727 -2.1352  2.6198  1.2930
  990MOL0     H36616   9.719   2.501   3.642 -0.0819 -0.6696 -0.7978
  990MOL0     H36617  10.508   2.253   3.854 -0.5453 -0.7084  0.5125
  990MOL0     H36618  10.804   2.148   3.781 -0.3579  0.0371  0.0649
  990MOL0     H36619  10.777   2.058   3.932  1.2250 -0.1847 -0.8752
  990MOL0     H36620  10.637   2.096   3.818 -0.4531  3.1728 -2.5521
  991MOL0     O36621   8.892   6.442  11.431  0.5712 -0.4238  0.4353
  991MOL0     C36622   8.889   6.451  11.307 -0.4727 -0.7235 -1.2371
  991MOL0     O36623   8.994   6.431  11.229 -0.2979 -0.2743 -0.1314
  991MOL0     C36624   9.097   6.350  11.274 -0.2582  0.8730  0.0789
  991MOL0     C36625   9.228   6.414  11.290 -0.2616 -0.4855  0.0836
  991MOL0     C36626   9.337   6.328  11.335 -0.1828 -0.3211 -0.3658
  991MOL0     C36627   9.316   6.189  11.360 -0.6105 -0.1350  0.2289
  991MOL0     O36628   9.424   6.124  11.421 -0.2940  0.3797  0.3296
  991MOL0     C36629   9.438   5.987  11.367  0.3427 -0.3854  0.1830
  991MOL0     C36630   9.581   5.942  11.377 -0.8164  0.2968 -0.1443
  991MOL0     C36631   9.672   6.044  11.302 -0.1560  0.6476 -0.3524
  991MOL0     C36632   9.807   5.967  11.270  0.3793  1.0108  0.1539
  991MOL0     C36633   9.913   6.064  11.203  0.2719  0.4892 -1.7723
  991MOL0     C36634  10.054   6.002  11.202  0.1347 -0.0421 -0.3663
  991MOL0     C36635  10.113   5.992  11.343  0.1846 -0.4105  0.5926
  991MOL0     C36636  10.253   5.994  11.336  0.6832  0.5577  0.0442
  991MOL0     N36637  10.299   5.976  11.474 -0.1250 -0.3252 -0.1286
  991MOL0     C36638  10.304   5.857  11.539 -0.7164  0.9647 -1.2348
  991MOL0     C36639  10.351   5.880  11.668 -0.2001 -0.2260  0.2165
  991MOL0     C36640  10.382   5.784  11.774  0.4458  0.5232 -0.3627
  991MOL0     C36641  10.509   5.824  11.851  0.1362  0.0820 -0.6831
  991MOL0     C36642  10.625   5.804  11.754 -0.0043  0.2193  0.1282
  991MOL0     C36643  10.743   5.860  11.826  0.2662  0.2476 -0.2405
  991MOL0     O36644  10.856   5.853  11.742 -0.7187 -0.8202 -0.4161
  991MOL0     C36645  10.980   5.863  11.800  0.6033 -0.1671  0.2437
  991MOL0     C36646  11.076   5.900  11.703 -0.3727  0.6782  0.3684
  991MOL0     C36647  11.217   5.911  11.736 -0.6687 -0.2720  0.3094
  991MOL0     C36648  11.312   5.948  11.625  1.2249  0.2667  0.4662
  991MOL0     C36649  11.255   5.915  11.873 -0.2017 -0.1074  0.0637
  991MOL0     C36650  11.401   5.924  11.919  0.0243 -0.5611 -0.0203
  991MOL0     O36651  11.487   5.989  11.837 -0.6151  0.4722 -0.7690
  991MOL0     C36652  11.620   5.968  11.858  0.3494  0.0136 -0.1559
  991MOL0     C36653  11.694   5.926  11.746 -0.4874  0.0071  0.3778
  991MOL0     C36654  11.827   5.904  11.748  0.6494 -0.1771 -0.5569
  991MOL0     C36655  11.902   5.928  11.865  0.8575 -0.8017 -0.7534
  991MOL0     O36656  12.036   5.910  11.886  0.3996 -0.0418  0.6615
  991MOL0     C36657  12.098   5.816  11.801 -0.1195 -0.6284 -0.7836
  991MOL0     C36658  12.208   5.749  11.880 -0.5011 -0.2378  0.7622
  991MOL0     C36659  12.332   5.843  11.903 -0.0191  0.0080 -0.3040
  991MOL0     C36660  12.434   5.834  11.784 -0.0815  0.4560  0.8410
  991MOL0     C36661  12.542   5.929  11.794  0.2755 -1.1258  0.1487
  991MOL0     C36662  12.670   5.889  11.721  0.4256 -0.0711  0.0002
  991MOL0     C36663  12.756   6.010  11.702 -0.0711  0.2500  0.6444
  991MOL0     C36664  12.887   5.968  11.638  0.4037  0.3085 -0.0296
  991MOL0    Cl36665  12.988   6.112  11.656 -0.0871  0.8180  0.0224
  991MOL0     C36666  11.832   5.978  11.985  0.1389 -0.4845  0.7098
  991MOL0     C36667  11.690   5.993  11.979 -0.7659  0.2866 -0.4155
  991MOL0     O36668  11.428   5.866  12.019  0.1350  0.1228 -0.1420
  991MOL0     C36669  11.159   5.884  11.970 -0.1285 -0.1180 -0.1720
  991MOL0     C36670  11.024   5.858  11.936  0.0912  1.2890  0.8236
  991MOL0     N36671  10.378   6.019  11.670 -0.8109  0.9992 -0.9571
  991MOL0     N36672  10.363   6.069  11.554 -0.5099  0.6948  0.5855
  991MOL0     C36673   9.189   6.129  11.340  0.1640 -0.3977 -0.4393
  991MOL0     C36674   9.081   6.210  11.306 -0.5496 -0.8941  0.1316
  991MOL0     C36675   8.767   6.512  11.257  0.3925 -0.2735 -0.1596
  991MOL0     C36676   8.724   6.636  11.311  0.5107 -0.3469  0.0684
  991MOL0     C36677   8.639   6.713  11.236  0.3334 -0.9866  1.0606
  991MOL0     C36678   8.588   6.670  11.111 -0.4728  0.5468  0.3052
  991MOL0     O36679   8.519   6.753  11.027 -0.3789 -0.2106 -0.3683
  991MOL0     C36680   8.383   6.745  11.065  0.2560 -0.2640  0.1014
  991MOL0     C36681   8.294   6.818  10.969 -0.3536 -0.5793  0.3337
  991MOL0     C36682   8.277   6.755  10.832  0.2902 -0.4679  0.6109
  991MOL0     C36683   8.406   6.721  10.753 -0.2185  0.4914 -0.5165
  991MOL0     C36684   8.384   6.696  10.605  0.0015 -0.2541 -0.0484
  991MOL0     C36685   8.368   6.688  10.488  0.1380  0.0242  0.6627
  991MOL0     C36686   8.616   6.539  11.074  0.2759  0.6577 -0.4341
  991MOL0     C36687   8.712   6.461  11.138 -0.1561 -0.4959 -0.0629
  991MOL0     C36688   8.734   6.318  11.096  0.1570  0.3352  0.8213
  991MOL0     H36689   9.249   6.519  11.277  1.0688 -0.5481  1.4963
  991MOL0     H36690   9.438   6.365  11.346 -0.3893  0.1017  0.1921
  991MOL0     H36691   9.397   5.973  11.267 -1.7658 -0.7430  1.0567
  991MOL0     H36692   9.379   5.923  11.433 -0.0946  0.4321  0.5930
  991MOL0     H36693   9.611   5.934  11.482  0.7799 -1.2631 -0.6784
  991MOL0     H36694   9.593   5.850  11.320  1.9221  0.6703 -0.2738
  991MOL0     H36695   9.632   6.084  11.208 -1.0098 -3.8465 -2.1953
  991MOL0     H36696   9.702   6.123  11.371  1.7273 -0.8126  0.5978
  991MOL0     H36697   9.845   5.930  11.366 -3.2403 -3.9350  0.0853
  991MOL0     H36698   9.788   5.880  11.206 -0.4161 -0.6054  2.4523
  991MOL0     H36699   9.911   6.161  11.254 -0.0126 -0.0858 -0.6713
  991MOL0     H36700   9.879   6.093  11.103 -2.3171 -1.2993 -1.5109
  991MOL0     H36701  10.057   5.904  11.154 -0.1180  0.0836 -0.6422
  991MOL0     H36702  10.120   6.062  11.139  1.9274 -0.4081  1.0742
  991MOL0     H36703  10.087   5.894  11.385 -1.0963 -0.0363  0.7062
  991MOL0     H36704  10.068   6.072  11.402  0.0456 -0.5843  0.7224
  991MOL0     H36705  10.305   5.919  11.277  1.6786  2.5581 -1.7531
  991MOL0     H36706  10.291   6.087  11.294 -0.0562  0.3980 -1.0011
  991MOL0     H36707  10.267   5.761  11.504  0.5851 -0.2484  0.5541
  991MOL0     H36708  10.394   5.692  11.717 -2.3120  0.4281 -0.9159
  991MOL0     H36709  10.299   5.764  11.842  0.8129 -0.3366 -0.1469
  991MOL0     H36710  10.500   5.925  11.891  0.0184 -0.3447  0.3918
  991MOL0     H36711  10.542   5.761  11.934  4.1224  0.7951 -1.5216
  991MOL0     H36712  10.648   5.698  11.737  3.0780  0.6822  0.8584
  991MOL0     H36713  10.608   5.855  11.659  2.2626  2.3532  0.7797
  991MOL0     H36714  10.723   5.962  11.861  0.8459 -0.4091  2.1957
  991MOL0     H36715  10.762   5.794  11.910  2.8089  1.5838  0.3438
  991MOL0     H36716  11.041   5.913  11.601  0.0977 -0.0838  0.1024
  991MOL0     H36717  11.387   5.868  11.625  0.7695 -0.2293  2.7740
  991MOL0     H36718  11.355   6.046  11.647  0.4343  1.1638 -1.6604
  991MOL0     H36719  11.265   5.952  11.526  2.9771 -1.9582 -0.5400
  991MOL0     H36720  11.641   5.914  11.651 -3.6478 -1.2949  2.1405
  991MOL0     H36721  11.884   5.859  11.666 -0.9850 -2.3148 -0.6075
  991MOL0     H36722  12.045   5.732  11.756  1.8077 -1.6469 -1.2883
  991MOL0     H36723  12.139   5.868  11.714  2.1957 -5.3462 -2.8234
  991MOL0     H36724  12.170   5.700  11.970 -1.2552 -0.9624  0.0709
  991MOL0     H36725  12.237   5.654  11.835  0.2708 -0.5857  1.9555
  991MOL0     H36726  12.383   5.807  11.992  0.6085 -0.4961 -0.8628
  991MOL0     H36727  12.302   5.945  11.931  0.6716 -0.7141  3.6591
  991MOL0     H36728  12.389   5.837  11.684  0.9364  1.1405  0.3824
  991MOL0     H36729  12.477   5.734  11.792 -1.6963 -0.4599 -1.0638
  991MOL0     H36730  12.506   6.026  11.757 -0.5728 -0.5367  2.3511
  991MOL0     H36731  12.555   5.950  11.901 -1.1773 -3.2180  0.7987
  991MOL0     H36732  12.653   5.851  11.620 -1.1484  3.2225 -1.1235
  991MOL0     H36733  12.725   5.811  11.774  0.8161  0.6253  0.6570
  991MOL0     H36734  12.793   6.049  11.797  1.5950  0.5729 -0.0937
  991MOL0     H36735  12.709   6.092  11.647 -1.7584  0.3099  2.1293
  991MOL0     H36736  12.871   5.957  11.531  0.3445  2.5741 -0.3093
  991MOL0     H36737  12.922   5.874  11.681 -1.0477  0.0149  0.5820
  991MOL0     H36738  11.879   5.997  12.081 -0.5933  0.3364  0.9090
  991MOL0     H36739  11.635   6.019  12.069 -2.8767 -1.3846 -1.1319
  991MOL0     H36740  11.192   5.877  12.073 -3.2124  0.0291  0.9562
  991MOL0     H36741  10.968   5.821  12.021 -0.4126 -2.1363 -0.8313
  991MOL0     H36742   9.175   6.024  11.361 -1.9424  0.3839  2.7618
  991MOL0     H36743   8.981   6.172  11.285 -0.9192 -0.2743  0.7545
  991MOL0     H36744   8.765   6.683  11.399  3.3948  0.8864 -1.7803
  991MOL0     H36745   8.617   6.815  11.267 -0.7081 -0.7344 -0.3625
  991MOL0     H36746   8.342   6.645  11.078 -0.3689 -0.6785 -3.8823
  991MOL0     H36747   8.376   6.804  11.157 -0.6376  2.9544 -1.8547
  991MOL0     H36748   8.337   6.917  10.950 -1.1263 -0.2018  0.5247
  991MOL0     H36749   8.197   6.839  11.013 -0.0461  1.2128  0.2340
  991MOL0     H36750   8.214   6.666  10.833  0.8884 -0.9117  2.0853
  991MOL0     H36751   8.224   6.827  10.770  0.6022 -2.2228 -1.8392
  991MOL0     H36752   8.455   6.638  10.805 -0.7966  1.0613  1.0095
  991MOL0     H36753   8.476   6.805  10.763 -0.5395  0.9875 -2.1421
  991MOL0     H36754   8.356   6.668  10.384  0.7115 -1.8370  0.9129
  991MOL0     H36755   8.568   6.489  10.990  2.0370 -1.4716 -0.2675
  991MOL0     H36756   8.841   6.296  11.095  0.0036 -0.5859 -1.8427
  991MOL0     H36757   8.676   6.255  11.165 -1.3236 -0.7206 -1.2789
  991MOL0     H36758   8.688   6.301  10.998  0.1473 -0.2941  0.9334
  992MOL0     O36759   7.374   3.699   1.669  0.6749 -0.2812 -0.2825
  992MOL0     C36760   7.308   3.784   1.727  0.5393  0.3957 -0.6678
  992MOL0     O36761   7.344   3.913   1.752 -1.0125  0.2565 -0.3982
  992MOL0     C36762   7.473   3.944   1.796 -0.3344  0.7141  0.4567
  992MOL0     C36763   7.559   3.850   1.853 -0.6735  0.3793  0.9139
  992MOL0     C36764   7.673   3.903   1.912 -0.2031 -0.1950 -0.1353
  992MOL0     C36765   7.716   4.035   1.889 -0.5947  0.1280 -0.9762
  992MOL0     O36766   7.836   4.073   1.951  0.8630  0.3703 -0.4511
  992MOL0     C36767   7.950   4.001   1.902 -0.2820 -0.3878  0.1921
  992MOL0     C36768   8.067   3.996   2.002  0.4729 -0.3123  0.4383
  992MOL0     C36769   8.179   3.895   1.988 -0.3182 -0.0600  0.5614
  992MOL0     C36770   8.270   3.934   1.872  0.5147 -0.1846 -0.3507
  992MOL0     C36771   8.393   3.851   1.870  0.2817  0.0939  0.1870
  992MOL0     C36772   8.509   3.911   1.796 -0.3138 -0.0378  0.0123
  992MOL0     C36773   8.646   3.852   1.820 -0.3332  0.4617  0.6421
  992MOL0     C36774   8.646   3.705   1.774  0.4777 -0.0686  0.8258
  992MOL0     N36775   8.780   3.640   1.787  0.2086 -0.2895  0.0029
  992MOL0     C36776   8.824   3.574   1.891  0.5625  0.7644 -0.0863
  992MOL0     C36777   8.937   3.516   1.847  0.0170 -0.1349 -0.0388
  992MOL0     C36778   9.024   3.411   1.918 -0.3610  0.5892  0.3539
  992MOL0     C36779   9.100   3.460   2.038  0.4138 -0.1457  0.8649
  992MOL0     C36780   9.198   3.356   2.098  0.0377 -0.0605  0.0815
  992MOL0     C36781   9.275   3.260   2.002  0.6673 -0.1505  0.2553
  992MOL0     O36782   9.363   3.335   1.910 -0.2555  0.0908 -0.2511
  992MOL0     C36783   9.458   3.262   1.834  0.7731  0.6414  0.6405
  992MOL0     C36784   9.525   3.333   1.737  0.5309 -0.2496  1.7970
  992MOL0     C36785   9.633   3.278   1.673 -0.3408 -0.6780  0.0053
  992MOL0     C36786   9.711   3.387   1.603 -0.0804 -0.2997  0.2020
  992MOL0     C36787   9.661   3.142   1.671  0.2853  0.3150 -0.6388
  992MOL0     C36788   9.768   3.069   1.594  0.0645 -0.1893  0.3815
  992MOL0     O36789   9.783   2.932   1.616  0.3273  0.5057 -0.1380
  992MOL0     C36790   9.870   2.847   1.556 -0.6133  0.5071  0.3115
  992MOL0     C36791   9.869   2.716   1.611  0.5791  0.3458  0.5033
  992MOL0     C36792   9.934   2.616   1.555 -0.1381  0.2469  0.0675
  992MOL0     C36793  10.042   2.644   1.465 -0.0797 -0.0902  0.1365
  992MOL0     O36794  10.123   2.544   1.432 -0.8007 -0.8470  0.1825
  992MOL0     C36795  10.065   2.407   1.421 -0.2224 -0.0879 -0.3891
  992MOL0     C36796  10.124   2.316   1.322  0.0116  0.3103  0.0798
  992MOL0     C36797  10.279   2.289   1.343 -0.1339 -0.0255  0.2673
  992MOL0     C36798  10.336   2.190   1.238  1.7166 -0.5811  0.4166
  992MOL0     C36799  10.482   2.156   1.244  0.1313 -0.1753 -0.7072
  992MOL0     C36800  10.524   2.025   1.165 -0.4292 -0.2920 -0.2109
  992MOL0     C36801  10.669   1.996   1.192  0.3133 -0.6257  0.0763
  992MOL0     C36802  10.704   1.864   1.129 -0.0404  0.9827 -0.0345
  992MOL0    Cl36803  10.880   1.825   1.161  0.2342  0.2154 -0.3433
  992MOL0     C36804  10.048   2.771   1.410  0.8960 -0.6031  0.4583
  992MOL0     C36805   9.961   2.876   1.459  0.1287  0.6841 -1.2408
  992MOL0     O36806   9.843   3.133   1.518 -0.0497 -0.2694 -0.6455
  992MOL0     C36807   9.574   3.068   1.752  0.1760  0.8391  0.4810
  992MOL0     C36808   9.480   3.121   1.831  0.6936 -0.8309 -0.1286
  992MOL0     N36809   8.954   3.540   1.712  0.2546 -0.3236 -0.1848
  992MOL0     N36810   8.851   3.616   1.679 -0.1393 -0.4950  0.3818
  992MOL0     C36811   7.635   4.122   1.817 -0.4305  0.4645  0.5851
  992MOL0     C36812   7.507   4.078   1.765 -1.1551  0.6293 -0.3858
  992MOL0     C36813   7.168   3.741   1.774  0.6815 -0.8963  0.1329
  992MOL0     C36814   7.110   3.817   1.876  0.3169  0.5801  1.6001
  992MOL0     C36815   6.982   3.788   1.928 -0.3132 -1.2258 -0.4299
  992MOL0     C36816   6.924   3.661   1.909 -0.9266  0.0700 -0.9040
  992MOL0     O36817   6.811   3.610   1.977  0.0057 -0.1475 -0.2187
  992MOL0     C36818   6.728   3.711   2.052 -0.3646 -0.4898 -0.2022
  992MOL0     C36819   6.598   3.646   2.096 -0.5756 -0.2008 -1.1686
  992MOL0     C36820   6.535   3.736   2.209  0.7954  0.0612  0.7387
  992MOL0     C36821   6.430   3.649   2.278 -0.3127  0.7157 -1.0692
  992MOL0     C36822   6.318   3.598   2.196  0.3776 -0.4321 -0.3765
  992MOL0     C36823   6.213   3.574   2.133 -0.5802  0.1328 -0.2178
  992MOL0     C36824   6.994   3.587   1.821 -1.0877  1.0135  1.1565
  992MOL0     C36825   7.113   3.618   1.750 -0.2220 -0.2825  0.5989
  992MOL0     C36826   7.151   3.527   1.635 -0.7277  0.6902 -0.1120
  992MOL0     H36827   7.518   3.751   1.863 -0.3564 -0.3734 -3.4113
  992MOL0     H36828   7.722   3.846   1.990  2.0387  1.5723 -0.1739
  992MOL0     H36829   7.985   4.049   1.810 -2.9117 -2.6153 -2.1584
  992MOL0     H36830   7.931   3.897   1.876 -1.1156 -0.7582  2.1364
  992MOL0     H36831   8.105   4.097   2.023 -0.7561  0.3012 -0.1417
  992MOL0     H36832   8.027   3.959   2.097 -1.3582 -0.4272 -0.3308
  992MOL0     H36833   8.232   3.889   2.084 -1.4891  1.0575  1.3088
  992MOL0     H36834   8.154   3.791   1.964  1.6069 -0.1154 -1.5424
  992MOL0     H36835   8.216   3.930   1.776  2.8098 -1.3811 -1.6670
  992MOL0     H36836   8.295   4.039   1.891  1.1969 -0.8947  3.3359
  992MOL0     H36837   8.373   3.754   1.823  5.0677 -0.1696 -1.8165
  992MOL0     H36838   8.422   3.837   1.975  1.7314 -0.3810 -0.2619
  992MOL0     H36839   8.495   3.907   1.688  2.4065 -1.5206 -0.3853
  992MOL0     H36840   8.523   4.014   1.829  0.4097 -0.5813  1.5112
  992MOL0     H36841   8.678   3.855   1.924  2.3773  1.2876 -0.1327
  992MOL0     H36842   8.723   3.898   1.757  0.1800 -1.9624 -0.6404
  992MOL0     H36843   8.573   3.642   1.826 -0.0029  0.3390  0.6583
  992MOL0     H36844   8.609   3.706   1.671 -2.3369 -0.4195  1.7482
  992MOL0     H36845   8.784   3.573   1.992 -1.4318 -0.9584 -0.8214
  992MOL0     H36846   9.092   3.361   1.847 -0.0568  0.8275  0.4745
  992MOL0     H36847   8.957   3.331   1.950  1.5303 -0.6894  1.3085
  992MOL0     H36848   9.161   3.544   2.004  1.4305 -1.8678 -1.8802
  992MOL0     H36849   9.031   3.488   2.119  0.7979  0.2943  1.0449
  992MOL0     H36850   9.263   3.407   2.169 -0.0024 -1.0761  0.8675
  992MOL0     H36851   9.136   3.291   2.160 -1.6096  1.3293 -0.0353
  992MOL0     H36852   9.338   3.189   2.057 -1.0590 -1.9271  0.0389
  992MOL0     H36853   9.207   3.195   1.947  0.7775  0.1211 -0.2083
  992MOL0     H36854   9.506   3.439   1.728 -0.1751 -0.4424  0.9300
  992MOL0     H36855   9.672   3.390   1.501 -1.1789 -3.5094  0.3982
  992MOL0     H36856   9.818   3.365   1.609 -0.1760 -0.4356  2.9052
  992MOL0     H36857   9.702   3.484   1.653 -0.7934 -1.1099  1.7551
  992MOL0     H36858   9.795   2.685   1.683 -2.6186  0.6934 -2.3341
  992MOL0     H36859   9.914   2.515   1.591  1.0279  0.3733  1.1697
  992MOL0     H36860  10.080   2.356   1.516 -1.4508 -3.9774 -2.1028
  992MOL0     H36861   9.960   2.408   1.390 -0.2861  1.7010 -0.2376
  992MOL0     H36862  10.075   2.218   1.323 -1.6087  1.0539 -0.7484
  992MOL0     H36863  10.104   2.352   1.220 -0.9170 -0.5529 -0.0591
  992MOL0     H36864  10.304   2.250   1.442  2.4589 -1.4530 -0.8801
  992MOL0     H36865  10.333   2.384   1.333 -0.6843  0.2023 -0.6258
  992MOL0     H36866  10.315   2.235   1.140 -0.5221 -1.0542  0.6161
  992MOL0     H36867  10.269   2.104   1.249  1.0662  0.0227  1.2866
  992MOL0     H36868  10.535   2.240   1.198 -0.9421  0.2346 -1.2210
  992MOL0     H36869  10.517   2.152   1.348  1.0560  2.5704 -0.8447
  992MOL0     H36870  10.516   2.048   1.059  1.5476 -1.3994 -0.6408
  992MOL0     H36871  10.461   1.940   1.192 -1.4794  0.0175 -1.5546
  992MOL0     H36872  10.687   2.004   1.299 -0.5644  4.2483  0.0761
  992MOL0     H36873  10.733   2.066   1.137  1.0768 -1.5354 -0.2257
  992MOL0     H36874  10.701   1.876   1.021  0.9332 -2.6690 -0.6103
  992MOL0     H36875  10.638   1.780   1.155  2.6027 -0.9901  0.7782
  992MOL0     H36876  10.124   2.798   1.337  0.1761  0.6717  0.1469
  992MOL0     H36877   9.959   2.969   1.403  0.2119 -0.6921 -3.6993
  992MOL0     H36878   9.596   2.963   1.766  2.8972  1.3713  0.6244
  992MOL0     H36879   9.421   3.074   1.909  1.6091  1.0190  1.7747
  992MOL0     H36880   7.668   4.222   1.792  0.1060  0.3647  0.8852
  992MOL0     H36881   7.441   4.148   1.713 -1.4034  0.3439 -0.4556
  992MOL0     H36882   7.163   3.902   1.919  0.4944  1.1903  0.2127
  992MOL0     H36883   6.940   3.857   2.000  0.8690  0.5259 -1.3273
  992MOL0     H36884   6.791   3.734   2.138  3.0511  0.0414 -2.6415
  992MOL0     H36885   6.711   3.803   1.996  0.3902  1.5983  2.7915
  992MOL0     H36886   6.629   3.548   2.135 -1.0549 -0.0827 -0.4682
  992MOL0     H36887   6.526   3.631   2.016 -0.9591  2.0022 -1.2922
  992MOL0     H36888   6.607   3.770   2.284  1.7285  0.6481 -0.3899
  992MOL0     H36889   6.491   3.824   2.162 -1.7482 -1.9505 -0.9230
  992MOL0     H36890   6.398   3.712   2.361  2.2215  1.0015 -0.2418
  992MOL0     H36891   6.489   3.564   2.314  2.0595  2.0533 -1.5933
  992MOL0     H36892   6.126   3.572   2.071 -3.2522  1.5542  3.1416
  992MOL0     H36893   6.965   3.486   1.794  0.7754  0.4063  1.2739
  992MOL0     H36894   7.245   3.478   1.661 -0.0202  0.2612 -3.1158
  992MOL0     H36895   7.079   3.447   1.616 -2.0445  1.1034  2.6953
  992MOL0     H36896   7.169   3.583   1.543  0.6509  0.3329 -0.0844
  993MOL0     O36897   5.590   0.049   1.138 -0.9292 -0.6684 -0.5311
  993MOL0     C36898   5.632  -0.003   1.035  0.2667  0.2371  0.8895
  993MOL0     O36899   5.765  -0.033   1.021  0.1299  0.5188 -0.3530
  993MOL0     C36900   5.863   0.030   1.089  0.9927 -1.0025 -0.8588
  993MOL0     C36901   5.898  -0.016   1.208 -0.4774  0.4423 -0.2274
  993MOL0     C36902   6.016   0.026   1.272  1.1049  0.0745 -0.4957
  993MOL0     C36903   6.095   0.125   1.222 -0.7660 -0.1453  0.6687
  993MOL0     O36904   6.209   0.175   1.292 -0.2142 -0.3959  0.0768
  993MOL0     C36905   6.184   0.290   1.365 -0.0607  0.1739 -0.8699
  993MOL0     C36906   6.306   0.328   1.445  0.5193 -0.1434 -0.6400
  993MOL0     C36907   6.421   0.392   1.355  0.1313  0.8422 -0.1438
  993MOL0     C36908   6.565   0.409   1.419  0.3649  0.0605 -0.1465
  993MOL0     C36909   6.671   0.424   1.314  0.3291 -0.2123 -0.3690
  993MOL0     C36910   6.819   0.430   1.360  0.1009  0.1295  0.0148
  993MOL0     C36911   6.866   0.313   1.438 -0.1102  0.2378  1.0243
  993MOL0     C36912   6.862   0.183   1.346  0.6153 -0.0602  0.3023
  993MOL0     N36913   6.925   0.080   1.418 -0.3486 -0.5286 -0.0277
  993MOL0     C36914   7.007  -0.014   1.367  0.6976  0.7916  0.2765
  993MOL0     C36915   7.004  -0.121   1.456 -0.9473  0.0457 -0.0482
  993MOL0     C36916   7.075  -0.248   1.427 -0.8057 -0.7607  1.0939
  993MOL0     C36917   7.134  -0.314   1.547  0.5207 -0.2541 -1.0099
  993MOL0     C36918   7.268  -0.251   1.581  0.1247  0.3807  0.2778
  993MOL0     C36919   7.314  -0.300   1.724  0.3987  1.0211 -0.6869
  993MOL0     O36920   7.348  -0.442   1.725 -0.3944 -0.1696 -0.5943
  993MOL0     C36921   7.477  -0.475   1.711 -0.0642  0.2969 -0.4530
  993MOL0     C36922   7.527  -0.582   1.794  0.1225 -0.6448 -0.9018
  993MOL0     C36923   7.652  -0.626   1.785  0.9680 -0.9307  0.0039
  993MOL0     C36924   7.704  -0.724   1.890 -0.2089  0.0792 -0.2693
  993MOL0     C36925   7.741  -0.566   1.692 -0.8805 -0.6106 -0.6801
  993MOL0     C36926   7.889  -0.605   1.680 -0.0600  0.6168 -0.3558
  993MOL0     O36927   7.974  -0.517   1.623  1.0579 -0.6637 -0.1562
  993MOL0     C36928   8.100  -0.546   1.591 -0.8546 -0.1944  0.4014
  993MOL0     C36929   8.195  -0.585   1.682 -0.1064 -0.1209 -0.2257
  993MOL0     C36930   8.329  -0.578   1.643  0.6913 -0.3687 -0.5612
  993MOL0     C36931   8.367  -0.572   1.509 -0.0378 -0.1751 -0.3003
  993MOL0     O36932   8.501  -0.598   1.480 -0.1999  0.0559  0.1774
  993MOL0     C36933   8.548  -0.632   1.346 -0.3494  0.3551  0.1064
  993MOL0     C36934   8.698  -0.674   1.354  0.0215 -0.6687 -0.8005
  993MOL0     C36935   8.777  -0.602   1.245  0.3039 -0.8666 -0.3187
  993MOL0     C36936   8.937  -0.624   1.239 -0.1334  0.2605  0.0100
  993MOL0     C36937   8.991  -0.555   1.115 -0.6625  0.0340  0.5052
  993MOL0     C36938   9.142  -0.562   1.116  0.2148  0.2706  0.1065
  993MOL0     C36939   9.201  -0.471   1.002  0.4232  1.0260  0.0099
  993MOL0     C36940   9.163  -0.524   0.861 -0.0656 -0.0538 -0.6320
  993MOL0    Cl36941   9.246  -0.683   0.804  0.0961  0.1991  0.1469
  993MOL0     C36942   8.268  -0.553   1.414 -0.1679  0.7565 -0.0784
  993MOL0     C36943   8.137  -0.540   1.455  0.1647  0.3241  0.0021
  993MOL0     O36944   7.923  -0.713   1.728  0.3117  0.3920  0.0815
  993MOL0     C36945   7.694  -0.463   1.611  0.1229  0.4458 -0.4315
  993MOL0     C36946   7.564  -0.423   1.615  0.0713 -0.3694  0.4500
  993MOL0     N36947   6.926  -0.083   1.565  0.1035 -0.5963  0.3214
  993MOL0     N36948   6.873   0.028   1.533 -0.6288  0.9233  0.0190
  993MOL0     C36949   6.047   0.194   1.106  0.1760  0.4996 -0.9103
  993MOL0     C36950   5.926   0.144   1.038  0.4034  0.7600  0.6470
  993MOL0     C36951   5.542  -0.047   0.924  0.2467 -0.9392 -0.3189
  993MOL0     C36952   5.583  -0.154   0.847  0.6467  0.0914  0.0139
  993MOL0     C36953   5.500  -0.213   0.752 -0.3856  0.1890 -0.4720
  993MOL0     C36954   5.371  -0.147   0.728  0.1423 -0.0416 -0.6572
  993MOL0     O36955   5.289  -0.178   0.618  0.1350 -0.3434 -0.1104
  993MOL0     C36956   5.324  -0.270   0.516 -0.9196  0.5854 -0.3802
  993MOL0     C36957   5.239  -0.407   0.533 -0.3885 -0.0371  0.8092
  993MOL0     C36958   5.088  -0.367   0.504 -0.7015 -0.6431  0.4309
  993MOL0     C36959   4.972  -0.464   0.523 -0.1620  1.1391  0.0955
  993MOL0     C36960   4.852  -0.398   0.482  0.8368  1.0292  0.7118
  993MOL0     C36961   4.750  -0.332   0.448  0.0071 -0.5016 -0.7558
  993MOL0     C36962   5.335  -0.036   0.803  0.0162 -0.1852  0.2518
  993MOL0     C36963   5.410   0.011   0.914 -0.6438  0.1858  0.9774
  993MOL0     C36964   5.355   0.138   0.985  0.0930 -0.9786  0.3574
  993MOL0     H36965   5.849  -0.109   1.235 -1.1496  0.8502 -0.0150
  993MOL0     H36966   6.046  -0.018   1.367 -2.4284 -3.3634 -0.6820
  993MOL0     H36967   6.100   0.274   1.434 -1.1682  1.0072 -1.9726
  993MOL0     H36968   6.156   0.368   1.293  0.8499 -0.6884 -2.1944
  993MOL0     H36969   6.284   0.393   1.530  1.7906 -1.5624  0.8407
  993MOL0     H36970   6.348   0.237   1.487 -1.7957 -0.1605  1.9264
  993MOL0     H36971   6.428   0.328   1.267 -0.6705  0.1308  0.2948
  993MOL0     H36972   6.392   0.493   1.326  5.1274  2.0526 -1.9577
  993MOL0     H36973   6.566   0.487   1.496  2.0167  0.1435 -0.2216
  993MOL0     H36974   6.594   0.314   1.464  1.4199  0.4269 -0.0275
  993MOL0     H36975   6.650   0.518   1.262  2.9432 -0.9763 -3.0634
  993MOL0     H36976   6.662   0.345   1.239 -0.8713  0.6490 -1.1557
  993MOL0     H36977   6.873   0.436   1.265  1.2486  1.1101  0.6971
  993MOL0     H36978   6.832   0.517   1.425 -0.2324  0.9128 -0.9249
  993MOL0     H36979   6.803   0.302   1.526  1.2714  0.6242  2.1032
  993MOL0     H36980   6.970   0.329   1.470 -0.1433  0.0204  1.2417
  993MOL0     H36981   6.758   0.156   1.326 -0.5999  2.1077  3.0081
  993MOL0     H36982   6.909   0.205   1.249  2.4973  2.2485  1.6318
  993MOL0     H36983   7.056  -0.024   1.271  3.0612  1.0220  1.3999
  993MOL0     H36984   7.154  -0.224   1.355 -0.3205 -2.4222  1.0393
  993MOL0     H36985   6.999  -0.306   1.373  0.6194  1.2769 -3.6689
  993MOL0     H36986   7.071  -0.312   1.637 -0.6486 -1.8126 -1.7298
  993MOL0     H36987   7.156  -0.419   1.526 -1.0672 -1.0262  0.8312
  993MOL0     H36988   7.338  -0.274   1.500 -0.7382  0.2300 -0.4411
  993MOL0     H36989   7.250  -0.145   1.601 -0.2060  0.4229 -0.2499
  993MOL0     H36990   7.394  -0.240   1.766  1.0382 -0.6850  0.6659
  993MOL0     H36991   7.229  -0.287   1.793  0.3073 -2.9464  0.1855
  993MOL0     H36992   7.465  -0.617   1.876  0.6442  1.1545  0.3173
  993MOL0     H36993   7.788  -0.688   1.949 -0.6503  1.7588 -0.6149
  993MOL0     H36994   7.739  -0.820   1.852  1.4455 -0.9521  3.4187
  993MOL0     H36995   7.631  -0.764   1.961  2.4720 -2.9391  1.0192
  993MOL0     H36996   8.174  -0.628   1.779 -2.0543 -0.8854 -0.9433
  993MOL0     H36997   8.411  -0.599   1.711 -0.5087 -0.0201  1.0685
  993MOL0     H36998   8.483  -0.706   1.299 -0.9516  2.0298 -1.8332
  993MOL0     H36999   8.545  -0.548   1.277  3.1620  1.7474  1.4245
  993MOL0     H37000   8.744  -0.642   1.448  0.3366  0.1936 -1.2327
  993MOL0     H37001   8.692  -0.783   1.344 -1.6335 -0.6506 -0.1679
  993MOL0     H37002   8.764  -0.494   1.253 -0.0608 -0.9081 -0.3589
  993MOL0     H37003   8.732  -0.651   1.159 -0.1999 -1.8212  0.4685
  993MOL0     H37004   8.965  -0.730   1.234 -1.7869 -0.3451  2.0870
  993MOL0     H37005   8.986  -0.578   1.325  0.5005 -0.1269 -0.1386
  993MOL0     H37006   8.958  -0.607   1.024 -0.4796 -0.5789  0.7820
  993MOL0     H37007   8.959  -0.451   1.107 -2.1617 -0.4423 -0.0088
  993MOL0     H37008   9.195  -0.657   1.106 -1.2370 -0.5213 -0.2085
  993MOL0     H37009   9.178  -0.524   1.212  0.3981 -0.1909  0.2217
  993MOL0     H37010   9.310  -0.479   1.000  0.3305 -1.2901 -2.3478
  993MOL0     H37011   9.173  -0.365   1.005 -0.6699  0.7526 -0.0163
  993MOL0     H37012   9.185  -0.449   0.784 -0.3115  0.7427  0.0548
  993MOL0     H37013   9.055  -0.541   0.867 -0.1901  1.2483  2.6936
  993MOL0     H37014   8.289  -0.555   1.308 -1.1548  3.3734 -0.3983
  993MOL0     H37015   8.059  -0.524   1.382 -0.7074 -2.4017  0.2269
  993MOL0     H37016   7.769  -0.422   1.544  1.7715  1.7022  2.0258
  993MOL0     H37017   7.546  -0.329   1.563  2.8794  0.0456  0.0627
  993MOL0     H37018   6.105   0.278   1.069  1.2417 -0.6146 -1.8757
  993MOL0     H37019   5.892   0.182   0.942 -2.0836  1.0345  1.5753
  993MOL0     H37020   5.674  -0.206   0.876  0.1675 -0.5797  0.3492
  993MOL0     H37021   5.528  -0.308   0.708 -2.7499 -1.4600  1.3406
  993MOL0     H37022   5.305  -0.215   0.423  3.3483  1.5790 -0.8699
  993MOL0     H37023   5.431  -0.288   0.507 -0.4383  2.7808  0.3753
  993MOL0     H37024   5.237  -0.447   0.635 -0.2836  3.4218  2.3281
  993MOL0     H37025   5.272  -0.476   0.456  2.5555  1.7991  0.2377
  993MOL0     H37026   5.067  -0.286   0.574 -0.6663 -1.3860  1.3133
  993MOL0     H37027   5.076  -0.319   0.406 -0.2336 -4.0520 -1.4261
  993MOL0     H37028   4.962  -0.510   0.622 -0.8770 -2.0407 -1.3279
  993MOL0     H37029   4.977  -0.542   0.446 -0.2093  0.9113  0.3185
  993MOL0     H37030   4.667  -0.271   0.417  0.9964 -0.5155 -3.6857
  993MOL0     H37031   5.246   0.018   0.773  0.2583 -0.7156 -1.5602
  993MOL0     H37032   5.296   0.100   1.069 -0.6264 -0.1740  0.2305
  993MOL0     H37033   5.433   0.210   1.012 -0.2607 -0.6489  0.5153
  993MOL0     H37034   5.285   0.201   0.931 -0.6512  0.4318  2.7956
  994MOL0     O37035   3.023  11.279   6.418 -0.2957 -0.6174 -0.0518
  994MOL0     C37036   2.990  11.292   6.303 -0.2689 -0.9551 -0.3610
  994MOL0     O37037   3.073  11.340   6.214  0.5832  0.0802  0.2103
  994MOL0     C37038   3.207  11.348   6.239 -0.8115 -0.7011  0.1615
  994MOL0     C37039   3.303  11.248   6.215  0.5788  0.1288 -0.0860
  994MOL0     C37040   3.438  11.269   6.237  0.1530  0.1942  0.1081
  994MOL0     C37041   3.483  11.390   6.283 -0.7161 -1.0735  0.0464
  994MOL0     O37042   3.615  11.420   6.298  0.0156 -0.1495 -0.2066
  994MOL0     C37043   3.711  11.315   6.284  0.6009  0.3946  0.5903
  994MOL0     C37044   3.847  11.376   6.263 -0.8154  0.4730 -0.3488
  994MOL0     C37045   3.943  11.271   6.220 -0.5237 -0.0904 -0.3515
  994MOL0     C37046   4.085  11.333   6.205  0.1998  0.5262  0.5581
  994MOL0     C37047   4.194  11.235   6.155 -0.3941 -0.2346 -0.8991
  994MOL0     C37048   4.211  11.111   6.246 -0.8704 -0.2090 -0.4861
  994MOL0     C37049   4.224  11.154   6.394  0.1151  0.3917  0.3718
  994MOL0     C37050   4.366  11.203   6.421  0.3372  1.0480 -1.2535
  994MOL0     N37051   4.392  11.214   6.567  0.4441 -0.7101 -0.7585
  994MOL0     C37052   4.394  11.106   6.649  0.3572 -0.2479  0.6949
  994MOL0     C37053   4.435  11.158   6.770 -0.5125  0.4963  0.2062
  994MOL0     C37054   4.455  11.084   6.894 -0.0776  0.0921 -0.1494
  994MOL0     C37055   4.605  11.092   6.949  0.5882  0.6538 -0.3513
  994MOL0     C37056   4.621  11.224   7.030  0.1547  0.3957  0.9964
  994MOL0     C37057   4.758  11.229   7.094  0.9566 -0.8239 -1.1166
  994MOL0     O37058   4.867  11.227   7.001 -0.0271  0.3575  0.1346
  994MOL0     C37059   4.995  11.247   7.043  0.3643 -0.1182  0.8350
  994MOL0     C37060   5.035  11.224   7.173  0.3004  0.1345 -0.2227
  994MOL0     C37061   5.170  11.244   7.229  0.5017 -0.4565  0.0159
  994MOL0     C37062   5.189  11.202   7.374 -0.5744 -0.3705  0.0078
  994MOL0     C37063   5.270  11.281   7.138  1.1334  0.7696  0.3102
  994MOL0     C37064   5.416  11.305   7.168 -0.4916  0.4894  0.2217
  994MOL0     O37065   5.496  11.286   7.061  0.6273 -0.1879  0.4505
  994MOL0     C37066   5.635  11.291   7.080 -0.5168 -0.3643 -0.4404
  994MOL0     C37067   5.702  11.183   7.148 -0.1916  0.2112  0.1489
  994MOL0     C37068   5.842  11.184   7.147 -0.4721  0.3981 -0.1554
  994MOL0     C37069   5.912  11.280   7.079 -0.8927  0.3769 -0.9528
  994MOL0     O37070   6.052  11.267   7.098 -0.4660 -0.3255 -0.0466
  994MOL0     C37071   6.112  11.397   7.126  0.0110  0.0730 -0.6659
  994MOL0     C37072   6.257  11.382   7.164 -0.3950 -0.1558  0.1498
  994MOL0     C37073   6.279  11.322   7.296 -0.8604  0.1379 -0.4472
  994MOL0     C37074   6.417  11.357   7.351 -0.1834 -0.0724  0.5979
  994MOL0     C37075   6.454  11.286   7.490 -0.2578  0.2833  0.2715
  994MOL0     C37076   6.587  11.331   7.553  0.4905  0.0191  0.6335
  994MOL0     C37077   6.620  11.247   7.677  0.7927  0.4121 -0.0609
  994MOL0     C37078   6.766  11.268   7.728 -0.1502 -0.0141 -0.1521
  994MOL0    Cl37079   6.805  11.412   7.825 -0.0909  0.7039 -0.0158
  994MOL0     C37080   5.842  11.391   7.030 -0.0788  0.0912 -0.0570
  994MOL0     C37081   5.705  11.405   7.031 -0.9258 -0.0013  0.0923
  994MOL0     O37082   5.451  11.340   7.276 -0.4365  1.0816  0.1786
  994MOL0     C37083   5.231  11.294   6.995 -0.4699 -0.5244  1.2524
  994MOL0     C37084   5.095  11.282   6.949  0.1298  0.2608 -0.6839
  994MOL0     N37085   4.464  11.291   6.753  0.3844  0.1909 -0.0621
  994MOL0     N37086   4.437  11.326   6.634 -0.5179 -0.3765  0.1019
  994MOL0     C37087   3.385  11.489   6.314 -1.1283  0.9760  0.3036
  994MOL0     C37088   3.253  11.472   6.294 -0.2578  0.0662 -0.8867
  994MOL0     C37089   2.841  11.284   6.259 -0.4548  0.1070 -0.3023
  994MOL0     C37090   2.817  11.297   6.117 -0.1941 -0.1076  0.5309
  994MOL0     C37091   2.681  11.294   6.073  0.1214  0.1149 -0.2672
  994MOL0     C37092   2.579  11.279   6.161  0.2219  0.2707  0.2978
  994MOL0     O37093   2.445  11.312   6.131 -0.0176  0.2154 -0.0432
  994MOL0     C37094   2.416  11.389   6.014  1.2341 -1.2344 -0.9924
  994MOL0     C37095   2.266  11.419   6.010 -0.3972 -0.5429 -0.9402
  994MOL0     C37096   2.229  11.485   5.878 -0.0432 -0.0999 -0.4590
  994MOL0     C37097   2.075  11.499   5.865 -0.1869  0.2028 -0.2522
  994MOL0     C37098   2.028  11.601   5.959  0.8793  0.1556  0.8836
  994MOL0     C37099   1.982  11.688   6.031  0.0156 -0.2085  0.0519
  994MOL0     C37100   2.610  11.243   6.294  0.2371 -0.5067 -0.1336
  994MOL0     C37101   2.737  11.248   6.350 -0.7240  0.1966  1.1069
  994MOL0     C37102   2.759  11.251   6.497  0.7754  0.2096 -0.1697
  994MOL0     H37103   3.276  11.148   6.182  1.6507  0.3767 -1.8343
  994MOL0     H37104   3.498  11.185   6.203 -2.5653 -1.9467  0.2246
  994MOL0     H37105   3.690  11.260   6.192 -0.6657 -1.6184  1.9984
  994MOL0     H37106   3.716  11.256   6.377 -1.3797 -0.9576 -0.0920
  994MOL0     H37107   3.846  11.447   6.180 -1.5008 -0.8222 -1.5066
  994MOL0     H37108   3.875  11.418   6.360  1.1784 -1.8885  0.2140
  994MOL0     H37109   3.939  11.198   6.300 -2.1070 -0.5979 -0.8648
  994MOL0     H37110   3.907  11.235   6.123 -0.4791  0.0139 -0.4076
  994MOL0     H37111   4.086  11.411   6.128 -0.0077  1.2869  1.3146
  994MOL0     H37112   4.115  11.381   6.299 -1.0860 -1.1280  1.8734
  994MOL0     H37113   4.283  11.298   6.151 -0.3036 -0.1007  1.5060
  994MOL0     H37114   4.169  11.204   6.053 -0.0197 -1.1623 -0.7243
  994MOL0     H37115   4.127  11.043   6.233 -2.2547  1.6048 -1.6986
  994MOL0     H37116   4.307  11.068   6.217 -0.7993  0.4225 -1.2236
  994MOL0     H37117   4.197  11.068   6.457  0.8309  0.3194  0.5837
  994MOL0     H37118   4.155  11.232   6.429  1.4853  1.8450 -0.0315
  994MOL0     H37119   4.442  11.135   6.382  1.2710  2.8086 -2.6159
  994MOL0     H37120   4.384  11.296   6.366 -1.5613  1.5015 -1.1983
  994MOL0     H37121   4.359  11.005   6.627  0.4751  0.0247 -0.8227
  994MOL0     H37122   4.441  10.977   6.878  3.2899 -0.5142  0.1277
  994MOL0     H37123   4.389  11.128   6.969  1.5629  0.8617  0.9141
  994MOL0     H37124   4.621  11.007   7.016  2.8577  0.2158 -1.3541
  994MOL0     H37125   4.674  11.076   6.866 -0.8599 -2.5059 -1.0815
  994MOL0     H37126   4.616  11.307   6.959 -3.2287  0.6504  1.3993
  994MOL0     H37127   4.545  11.233   7.108  0.3111 -0.1820  1.2211
  994MOL0     H37128   4.763  11.327   7.143 -0.1313  0.7804 -3.9669
  994MOL0     H37129   4.749  11.142   7.161 -1.8378 -0.3478 -0.7490
  994MOL0     H37130   4.962  11.192   7.247  1.1066  0.0705  0.5602
  994MOL0     H37131   5.101  11.153   7.418 -1.5811  1.4103  0.0777
  994MOL0     H37132   5.208  11.294   7.429  2.2105 -1.0830  0.3695
  994MOL0     H37133   5.278  11.138   7.374 -0.3133 -0.0161  0.6174
  994MOL0     H37134   5.648  11.098   7.188 -0.8896 -0.4957 -2.1029
  994MOL0     H37135   5.892  11.103   7.198  0.8442  0.3948 -1.3778
  994MOL0     H37136   6.094  11.451   7.033 -2.6862 -0.6537 -0.6514
  994MOL0     H37137   6.054  11.439   7.209  0.8983  1.9982 -0.9657
  994MOL0     H37138   6.304  11.320   7.087 -0.6920 -0.7715  0.4630
  994MOL0     H37139   6.298  11.483   7.156  0.9590 -0.7749 -1.4644
  994MOL0     H37140   6.261  11.214   7.302  1.2225 -0.1963  1.0822
  994MOL0     H37141   6.200  11.362   7.360  0.0096  0.7587  0.2524
  994MOL0     H37142   6.412  11.464   7.373 -0.8816  0.1998 -0.7861
  994MOL0     H37143   6.501  11.331   7.286  0.3997 -1.1889  1.7261
  994MOL0     H37144   6.377  11.319   7.560  0.4400 -1.1410  1.7806
  994MOL0     H37145   6.454  11.178   7.472 -0.7558  0.5243 -1.3221
  994MOL0     H37146   6.566  11.434   7.582 -1.3129  0.0951 -0.7782
  994MOL0     H37147   6.674  11.320   7.486  0.8668 -0.4767  1.1925
  994MOL0     H37148   6.610  11.142   7.647 -0.7874  0.3589  0.5561
  994MOL0     H37149   6.552  11.265   7.761  0.3765 -2.5443  0.3415
  994MOL0     H37150   6.842  11.261   7.650  0.4408 -1.1447  0.4991
  994MOL0     H37151   6.796  11.182   7.788  1.9477  0.5753 -0.2891
  994MOL0     H37152   5.898  11.467   6.976  3.3783 -1.7476  0.6052
  994MOL0     H37153   5.653  11.486   6.980 -1.1782 -0.1497  0.1150
  994MOL0     H37154   5.313  11.311   6.926  2.0164 -0.8129  3.9096
  994MOL0     H37155   5.072  11.294   6.844 -0.3751 -2.9862 -1.0642
  994MOL0     H37156   3.413  11.589   6.346  0.4981  0.0867  1.8043
  994MOL0     H37157   3.183  11.552   6.319  2.7273  3.0162 -1.3181
  994MOL0     H37158   2.897  11.301   6.044  0.3636  1.1142  1.1801
  994MOL0     H37159   2.656  11.308   5.968  0.8903 -0.6326 -0.5583
  994MOL0     H37160   2.466  11.487   6.018 -2.4142  0.7886  2.3809
  994MOL0     H37161   2.444  11.332   5.925 -0.7603  0.4960 -2.8275
  994MOL0     H37162   2.228  11.484   6.089 -3.8514 -2.2555 -0.9794
  994MOL0     H37163   2.209  11.328   6.030  0.6508 -0.8572  0.7995
  994MOL0     H37164   2.283  11.580   5.871  2.8291 -1.5767 -0.0048
  994MOL0     H37165   2.272  11.408   5.813  1.1935  0.3651 -0.2151
  994MOL0     H37166   2.024  11.407   5.894  0.7706 -0.1651  0.3386
  994MOL0     H37167   2.045  11.533   5.766 -2.6233  0.6084  0.5765
  994MOL0     H37168   1.915  11.749   6.089  1.7370  1.0764  0.7649
  994MOL0     H37169   2.516  11.234   6.347 -0.1269  1.5131 -0.3445
  994MOL0     H37170   2.810  11.344   6.522  0.6432  1.0941 -2.8401
  994MOL0     H37171   2.658  11.258   6.540 -0.0626  0.8114 -2.1191
  994MOL0     H37172   2.811  11.169   6.546 -3.4678 -2.2478  0.6889
  995MOL0     O37173  10.173   2.626  11.305  0.5050 -0.9245  0.3752
  995MOL0     C37174  10.151   2.567  11.412  0.6585  0.5909  0.8448
  995MOL0     O37175  10.249   2.504  11.487 -0.1145 -0.4580  0.1731
  995MOL0     C37176  10.373   2.461  11.436 -0.8984  0.4632  0.5986
  995MOL0     C37177  10.392   2.419  11.301  0.0458 -0.1127  0.5754
  995MOL0     C37178  10.504   2.357  11.261 -0.7072  0.8080  0.4816
  995MOL0     C37179  10.611   2.329  11.346  0.5154 -0.5403  0.0726
  995MOL0     O37180  10.725   2.288  11.287 -0.0402 -0.8721  0.1279
  995MOL0     C37181  10.844   2.259  11.363  0.2768 -0.1764 -0.5180
  995MOL0     C37182  10.947   2.204  11.266 -0.7624 -0.2586  0.6041
  995MOL0     C37183  11.087   2.187  11.317  0.3839 -0.1883  0.1441
  995MOL0     C37184  11.121   2.078  11.421  0.1279 -0.3390  0.2118
  995MOL0     C37185  11.232   2.102  11.516  0.7096 -0.9490 -0.1466
  995MOL0     C37186  11.360   2.117  11.435 -1.1547 -0.3498 -0.5983
  995MOL0     C37187  11.491   2.148  11.508  0.1882  0.7916 -0.2818
  995MOL0     C37188  11.474   2.262  11.610 -0.2360 -0.3493 -0.0034
  995MOL0     N37189  11.602   2.279  11.678 -0.0178 -0.4215  0.6637
  995MOL0     C37190  11.703   2.345  11.627 -0.3282 -0.0434  0.6849
  995MOL0     C37191  11.794   2.351  11.725 -0.6574 -0.6769  0.5347
  995MOL0     C37192  11.915   2.432  11.731  0.2368  0.5467  0.1258
  995MOL0     C37193  11.892   2.577  11.719  0.9244  0.8883 -0.5351
  995MOL0     C37194  12.011   2.657  11.682 -0.7890  0.3029  1.0431
  995MOL0     C37195  12.022   2.788  11.746 -0.0943 -1.1215 -1.0979
  995MOL0     O37196  12.114   2.881  11.672 -0.1896  0.3249 -0.2579
  995MOL0     C37197  12.242   2.843  11.639 -0.1946 -0.1721  0.2649
  995MOL0     C37198  12.310   2.758  11.726 -0.5327 -0.4575  1.3281
  995MOL0     C37199  12.445   2.715  11.698  0.3550  0.1320 -1.1590
  995MOL0     C37200  12.493   2.611  11.801 -0.6885  0.5318  0.0386
  995MOL0     C37201  12.508   2.765  11.587  0.1509 -0.1902  0.1402
  995MOL0     C37202  12.654   2.732  11.568 -0.2668 -0.2375 -0.1285
  995MOL0     O37203  12.700   2.756  11.442 -0.0169 -0.2912  0.3166
  995MOL0     C37204  12.819   2.700  11.407  1.0676  0.2332 -0.5528
  995MOL0     C37205  12.935   2.722  11.479  0.0062  0.1738  0.3210
  995MOL0     C37206  13.057   2.669  11.425  0.1759 -0.2999 -0.2971
  995MOL0     C37207  13.054   2.603  11.302 -0.3959  0.4111 -0.0946
  995MOL0     O37208  13.176   2.546  11.266  0.1036  0.8753  0.3005
  995MOL0     C37209  13.194   2.506  11.133  0.9635 -0.3672  0.4570
  995MOL0     C37210  13.345   2.487  11.116 -0.3709 -0.5500  0.2437
  995MOL0     C37211  13.390   2.429  10.980  0.8199  0.7908 -0.7160
  995MOL0     C37212  13.542   2.431  10.976  0.3730  0.1440  0.3230
  995MOL0     C37213  13.580   2.363  10.846  0.0349 -0.4074  0.5317
  995MOL0     C37214  13.734   2.341  10.823  0.2497  0.4575 -0.6573
  995MOL0     C37215  13.804   2.250  10.920  0.1467 -0.3116 -0.2310
  995MOL0     C37216  13.956   2.238  10.895 -1.0898 -0.1653  0.0029
  995MOL0    Cl37217  14.002   2.123  10.780 -0.0654  0.0636 -0.2265
  995MOL0     C37218  12.935   2.584  11.234  0.0043 -0.2759 -0.9177
  995MOL0     C37219  12.822   2.634  11.282  0.7167  0.3109  0.6782
  995MOL0     O37220  12.718   2.683  11.663  0.0553 -0.7733 -0.1295
  995MOL0     C37221  12.435   2.849  11.491 -0.2998 -0.0262 -1.0444
  995MOL0     C37222  12.304   2.894  11.519  0.1322 -0.0475  1.3800
  995MOL0     N37223  11.733   2.310  11.838  0.2425  0.7143 -0.6109
  995MOL0     N37224  11.616   2.265  11.814  0.3668  0.0456  0.0790
  995MOL0     C37225  10.600   2.369  11.479  0.0232 -0.5649 -0.3381
  995MOL0     C37226  10.481   2.441  11.526  0.5959  0.5050  0.0487
  995MOL0     C37227  10.022   2.587  11.481  0.8860 -0.5216  0.0728
  995MOL0     C37228  10.033   2.595  11.622  0.2774  0.0082  0.6757
  995MOL0     C37229   9.924   2.630  11.700 -0.6866 -0.3718  1.3095
  995MOL0     C37230   9.796   2.647  11.645  0.2535  0.0385  0.0425
  995MOL0     O37231   9.700   2.691  11.733 -0.4841 -0.2660 -0.0354
  995MOL0     C37232   9.561   2.682  11.703  0.6699 -0.2263  0.1580
  995MOL0     C37233   9.513   2.810  11.640  0.3502 -0.3801  0.3100
  995MOL0     C37234   9.362   2.820  11.609 -0.1310  0.2642  0.0905
  995MOL0     C37235   9.262   2.774  11.721 -0.2314 -0.5329  0.5809
  995MOL0     C37236   9.286   2.822  11.855 -1.1226 -1.2877 -0.8079
  995MOL0     C37237   9.305   2.864  11.966 -0.3453 -0.1086 -0.7166
  995MOL0     C37238   9.786   2.632  11.501  0.5694 -0.8121 -0.1471
  995MOL0     C37239   9.893   2.611  11.419  0.1633 -0.9684 -0.2451
  995MOL0     C37240   9.869   2.598  11.275 -0.5941  0.4902  0.2201
  995MOL0     H37241  10.309   2.431  11.232 -0.9082  0.6696  1.8035
  995MOL0     H37242  10.501   2.330  11.156 -1.9994 -0.7715  0.8719
  995MOL0     H37243  10.821   2.186  11.442  1.1400 -0.8915 -0.9026
  995MOL0     H37244  10.883   2.347  11.415  0.5771 -1.7786  2.1888
  995MOL0     H37245  10.905   2.110  11.229 -0.2882 -0.3171  0.2070
  995MOL0     H37246  10.950   2.263  11.174 -0.3619 -5.3124 -3.0117
  995MOL0     H37247  11.142   2.155  11.227 -0.4339 -1.5172  0.0924
  995MOL0     H37248  11.121   2.285  11.351  2.4760 -1.8587  3.3691
  995MOL0     H37249  11.034   2.049  11.481  0.9671 -1.7466  0.7869
  995MOL0     H37250  11.143   1.985  11.369  1.8163  0.2650 -0.1948
  995MOL0     H37251  11.237   2.013  11.580  0.8472 -1.2211 -0.5360
  995MOL0     H37252  11.211   2.194  11.570 -1.8977 -2.3114  1.3568
  995MOL0     H37253  11.385   2.024  11.383  1.5290  0.9237 -1.7956
  995MOL0     H37254  11.333   2.180  11.350 -2.0137 -4.1425 -3.4039
  995MOL0     H37255  11.570   2.172  11.435  0.0022  2.1586 -0.0611
  995MOL0     H37256  11.526   2.060  11.563  0.0097  1.0558  0.2640
  995MOL0     H37257  11.439   2.357  11.568  1.2047  0.5160  0.6584
  995MOL0     H37258  11.392   2.226  11.673  0.1408 -1.0665  0.0875
  995MOL0     H37259  11.717   2.387  11.528  2.1375  0.0823  1.0172
  995MOL0     H37260  11.959   2.396  11.638 -0.2629 -0.6744  0.3502
  995MOL0     H37261  11.978   2.403  11.815 -1.0953  0.6880  1.2125
  995MOL0     H37262  11.809   2.591  11.648  0.7173 -0.3844 -0.5702
  995MOL0     H37263  11.850   2.609  11.814 -3.1253 -1.3232 -1.3378
  995MOL0     H37264  12.096   2.591  11.702 -0.8609 -0.4356 -0.8783
  995MOL0     H37265  12.015   2.668  11.573  2.7823  0.7136  1.0852
  995MOL0     H37266  11.922   2.831  11.739  0.4592  0.5165  0.4009
  995MOL0     H37267  12.049   2.778  11.852 -1.9948 -1.8547 -0.6462
  995MOL0     H37268  12.246   2.729  11.809  0.4509  0.2757  2.3719
  995MOL0     H37269  12.562   2.661  11.868  1.8134  2.5768 -3.6896
  995MOL0     H37270  12.556   2.531  11.760 -0.6868 -1.1999  3.1335
  995MOL0     H37271  12.408   2.551  11.834 -1.2990  0.6709 -1.2229
  995MOL0     H37272  12.950   2.773  11.574  2.5754 -2.2526  1.3575
  995MOL0     H37273  13.147   2.673  11.484 -1.6419  0.3685  2.6246
  995MOL0     H37274  13.137   2.414  11.118 -1.9806  1.3465  0.4987
  995MOL0     H37275  13.167   2.588  11.066 -1.7154 -0.7175  1.0171
  995MOL0     H37276  13.400   2.578  11.143 -0.8238 -1.0408  3.2140
  995MOL0     H37277  13.382   2.416  11.190  2.8880 -1.1628 -1.7729
  995MOL0     H37278  13.345   2.475  10.892 -0.0079  1.2041 -0.0906
  995MOL0     H37279  13.346   2.330  10.998 -1.5712  2.3740  3.3801
  995MOL0     H37280  13.582   2.371  11.058 -3.0559 -0.6869  1.5585
  995MOL0     H37281  13.581   2.533  10.983  0.9706 -0.1860  2.4882
  995MOL0     H37282  13.547   2.259  10.850  0.1071 -0.5642 -1.6755
  995MOL0     H37283  13.535   2.418  10.763  0.1826  0.3984  0.9785
  995MOL0     H37284  13.781   2.440  10.824  1.9912 -0.3182 -0.0877
  995MOL0     H37285  13.751   2.303  10.722  2.4557  0.2971 -0.2888
  995MOL0     H37286  13.768   2.147  10.923  0.5664 -0.4519  2.2659
  995MOL0     H37287  13.793   2.300  11.016 -0.2110 -2.2257  0.7685
  995MOL0     H37288  14.006   2.204  10.986  1.7034 -2.4474 -2.1632
  995MOL0     H37289  13.990   2.340  10.878  2.2824 -1.2288 -0.3186
  995MOL0     H37290  12.941   2.508  11.156 -1.3404 -1.7051  0.3055
  995MOL0     H37291  12.733   2.625  11.221  1.9061  0.1928 -1.1143
  995MOL0     H37292  12.492   2.878  11.403  2.5116 -1.9697 -0.0261
  995MOL0     H37293  12.250   2.966  11.458 -2.4191 -0.1404  3.3426
  995MOL0     H37294  10.671   2.353  11.559 -0.2643  0.4389  0.1326
  995MOL0     H37295  10.477   2.497  11.619 -2.3442 -0.6949  0.7636
  995MOL0     H37296  10.124   2.569  11.675  1.0264  1.1031 -0.0341
  995MOL0     H37297   9.928   2.642  11.807  0.7478  0.2642  1.2138
  995MOL0     H37298   9.548   2.598  11.634 -1.7931  1.4874 -1.6182
  995MOL0     H37299   9.510   2.674  11.800  0.6549  3.5873  0.5926
  995MOL0     H37300   9.574   2.834  11.552  1.0340  2.8006  1.5558
  995MOL0     H37301   9.541   2.882  11.717  1.0598 -2.7094  2.3651
  995MOL0     H37302   9.350   2.929  11.600  0.3495  0.3117  0.0360
  995MOL0     H37303   9.339   2.776  11.511 -2.5111  0.2010  0.6095
  995MOL0     H37304   9.257   2.665  11.731 -0.2355 -0.5180  0.7520
  995MOL0     H37305   9.160   2.809  11.701 -0.4158 -1.6849 -0.5791
  995MOL0     H37306   9.329   2.895  12.066 -1.2655 -0.1083 -0.4925
  995MOL0     H37307   9.689   2.634  11.454  0.3648  1.7017  0.2451
  995MOL0     H37308   9.901   2.502  11.235  2.4240  2.2562 -2.0042
  995MOL0     H37309   9.765   2.625  11.257 -0.6125  3.3132  3.4448
  995MOL0     H37310   9.927   2.679  11.229  2.5862 -1.6978  0.0374
  996MOL0     O37311   4.012   2.127   7.951 -0.4270  0.3764  0.6536
  996MOL0     C37312   3.969   2.222   8.018 -0.5813 -0.9779  0.2860
  996MOL0     O37313   4.015   2.352   8.008 -0.1409  0.3724  0.0525
  996MOL0     C37314   4.054   2.410   7.888  0.8411 -0.7875 -0.5946
  996MOL0     C37315   4.125   2.526   7.904  0.0100 -0.5432 -0.3298
  996MOL0     C37316   4.177   2.594   7.789  0.7294 -0.3717 -0.6372
  996MOL0     C37317   4.153   2.539   7.663  0.1339  0.4612  0.2739
  996MOL0     O37318   4.183   2.581   7.535  0.0858 -0.8200 -0.5533
  996MOL0     C37319   4.116   2.709   7.519 -0.0341 -0.4717 -0.1898
  996MOL0     C37320   4.093   2.746   7.369  0.1723  0.5112 -0.5892
  996MOL0     C37321   4.053   2.622   7.291  0.2160 -0.8660 -0.3429
  996MOL0     C37322   3.916   2.561   7.324  0.1859 -0.0923  0.2787
  996MOL0     C37323   3.890   2.422   7.263  0.2594  0.6540  0.1851
  996MOL0     C37324   3.894   2.404   7.111  0.3978  1.0424  0.5906
  996MOL0     C37325   3.849   2.260   7.068  0.3296  0.0730 -0.3170
  996MOL0     C37326   3.871   2.237   6.912  0.3628 -0.0005 -0.6859
  996MOL0     N37327   4.008   2.217   6.870 -0.5448 -0.0562 -0.4198
  996MOL0     C37328   4.087   2.311   6.821 -0.6241 -0.2641  1.3760
  996MOL0     C37329   4.190   2.242   6.755  0.5795  0.4042 -1.1591
  996MOL0     C37330   4.295   2.292   6.666 -0.5715 -0.6549  0.3955
  996MOL0     C37331   4.422   2.292   6.737  0.1220  0.1399 -0.9348
  996MOL0     C37332   4.540   2.324   6.641 -0.0856  0.2071  0.4058
  996MOL0     C37333   4.670   2.321   6.709 -0.1488  0.4235  0.0380
  996MOL0     O37334   4.689   2.445   6.786  0.4585 -0.0582 -0.0349
  996MOL0     C37335   4.822   2.461   6.830  0.5968  0.7054 -0.9509
  996MOL0     C37336   4.916   2.538   6.768  0.0704  0.6063  0.0677
  996MOL0     C37337   5.044   2.572   6.826 -0.2482 -1.0744  0.3861
  996MOL0     C37338   5.131   2.684   6.759 -0.1803 -0.0898  0.6110
  996MOL0     C37339   5.063   2.523   6.955  0.0004  0.3229 -0.2709
  996MOL0     C37340   5.186   2.552   7.030  0.3777 -0.4178 -0.8728
  996MOL0     O37341   5.175   2.524   7.168 -0.0011 -0.6009 -0.3207
  996MOL0     C37342   5.285   2.546   7.253  0.2395  0.3901  0.4542
  996MOL0     C37343   5.386   2.449   7.273 -0.0929 -0.2528  0.6124
  996MOL0     C37344   5.494   2.487   7.358  0.4653  0.2328 -0.5001
  996MOL0     C37345   5.502   2.604   7.424  0.3383 -0.4840  0.1725
  996MOL0     O37346   5.606   2.639   7.508  0.1585  0.6987  0.0077
  996MOL0     C37347   5.651   2.776   7.493  0.0042  0.1053  1.0364
  996MOL0     C37348   5.795   2.799   7.545  0.4541 -0.2910  1.1058
  996MOL0     C37349   5.819   2.764   7.694  0.2755 -0.7781  0.1141
  996MOL0     C37350   5.970   2.757   7.731 -0.5822  0.2330 -0.3168
  996MOL0     C37351   5.982   2.650   7.850  0.2544  0.4804 -0.3038
  996MOL0     C37352   6.126   2.660   7.909  0.2933 -1.1668 -0.0569
  996MOL0     C37353   6.160   2.551   7.998  0.8716  0.4262 -0.4980
  996MOL0     C37354   6.159   2.411   7.924  0.9496 -0.2108 -0.8177
  996MOL0    Cl37355   6.276   2.400   7.795 -0.4505 -0.5579  0.2121
  996MOL0     C37356   5.399   2.697   7.403 -0.2488 -0.6253 -0.2367
  996MOL0     C37357   5.296   2.674   7.316 -0.5233  0.6298  0.3894
  996MOL0     O37358   5.292   2.580   6.975  0.3743 -0.0281  0.3234
  996MOL0     C37359   4.973   2.440   7.019  0.6233  0.2211 -0.2375
  996MOL0     C37360   4.853   2.402   6.956  0.3404 -1.0551  0.6228
  996MOL0     N37361   4.171   2.107   6.780 -0.3312  0.2998 -0.0414
  996MOL0     N37362   4.068   2.095   6.852  0.4237 -0.0133  0.1339
  996MOL0     C37363   4.083   2.415   7.653 -0.3781  0.0725  0.3971
  996MOL0     C37364   4.034   2.356   7.766  0.0254  0.0865 -0.0860
  996MOL0     C37365   3.884   2.195   8.140 -0.3446  0.1682  0.2930
  996MOL0     C37366   3.886   2.286   8.253  0.5762  0.3116  0.0434
  996MOL0     C37367   3.821   2.256   8.369 -0.1687  0.7525 -0.2104
  996MOL0     C37368   3.738   2.147   8.378  0.4373  0.0805 -0.1136
  996MOL0     O37369   3.656   2.119   8.484 -0.5570 -0.5572 -0.1978
  996MOL0     C37370   3.588   2.240   8.530  0.7528 -0.0611  0.3915
  996MOL0     C37371   3.438   2.207   8.556  0.2492 -0.7994  0.1178
  996MOL0     C37372   3.357   2.158   8.432 -1.1962  0.6504  0.7035
  996MOL0     C37373   3.239   2.079   8.460 -0.3642 -0.6763 -0.1565
  996MOL0     C37374   3.275   1.944   8.502  0.0388  0.3087 -0.3796
  996MOL0     C37375   3.286   1.822   8.505  0.6638 -0.3672  0.2349
  996MOL0     C37376   3.726   2.062   8.260  0.4897 -0.2097  0.4460
  996MOL0     C37377   3.796   2.086   8.142 -0.2042  0.1871 -0.1475
  996MOL0     C37378   3.757   1.985   8.030 -0.5594 -0.8397  0.4372
  996MOL0     H37379   4.154   2.573   7.997 -1.2719 -0.6713  0.1606
  996MOL0     H37380   4.242   2.681   7.791 -3.0422  2.7492  1.0800
  996MOL0     H37381   4.167   2.785   7.578 -0.2474 -0.4859  0.0160
  996MOL0     H37382   4.017   2.697   7.564  0.3766 -0.7026  0.6558
  996MOL0     H37383   4.015   2.822   7.359  1.4753  1.7003 -2.1409
  996MOL0     H37384   4.186   2.800   7.349  1.0105 -0.4988  0.4322
  996MOL0     H37385   4.060   2.655   7.187  1.5462 -0.7236 -0.2212
  996MOL0     H37386   4.124   2.542   7.311 -0.3588 -1.2599  0.1465
  996MOL0     H37387   3.900   2.561   7.432  1.3937  3.1069  0.5753
  996MOL0     H37388   3.836   2.627   7.290  1.2682  0.0777 -2.1138
  996MOL0     H37389   3.788   2.393   7.292 -0.2005  1.5740 -0.4529
  996MOL0     H37390   3.965   2.355   7.307  3.9816  2.2686 -3.1301
  996MOL0     H37391   3.829   2.481   7.068 -0.5823  0.3420  0.7717
  996MOL0     H37392   3.992   2.428   7.069  0.4328 -1.0670 -0.6788
  996MOL0     H37393   3.744   2.246   7.092 -0.1306  1.6589 -1.2086
  996MOL0     H37394   3.909   2.185   7.120 -2.4771 -3.1302 -1.3622
  996MOL0     H37395   3.811   2.150   6.884  0.2774 -0.8657  1.9035
  996MOL0     H37396   3.830   2.327   6.864 -0.4255 -0.4994 -0.9739
  996MOL0     H37397   4.062   2.416   6.814 -4.0324 -0.9939  1.1786
  996MOL0     H37398   4.285   2.398   6.638 -4.1544 -1.1900 -0.9975
  996MOL0     H37399   4.314   2.229   6.578  2.0433 -0.2997  0.6204
  996MOL0     H37400   4.417   2.363   6.820  1.0739 -1.2921  0.4017
  996MOL0     H37401   4.435   2.198   6.791  0.9763  1.9345  2.1987
  996MOL0     H37402   4.539   2.254   6.557  2.0552  0.8974 -0.2629
  996MOL0     H37403   4.535   2.421   6.590  2.6204  0.3565  0.2833
  996MOL0     H37404   4.676   2.231   6.771 -2.7782  0.5161  0.5532
  996MOL0     H37405   4.743   2.316   6.629  0.1499  0.9127  0.2795
  996MOL0     H37406   4.885   2.571   6.669  0.5125  3.5069  0.8151
  996MOL0     H37407   5.121   2.777   6.817  1.5763 -1.0420  2.5906
  996MOL0     H37408   5.097   2.701   6.657  0.8635  0.0903  0.2802
  996MOL0     H37409   5.236   2.656   6.751 -0.2217 -1.3816  3.4361
  996MOL0     H37410   5.383   2.348   7.234  2.0172 -1.2355  2.6981
  996MOL0     H37411   5.576   2.416   7.364 -0.1731 -0.4569  0.4837
  996MOL0     H37412   5.644   2.814   7.390  1.2132 -0.3375  0.7673
  996MOL0     H37413   5.574   2.838   7.540  0.5845  0.4870  1.4967
  996MOL0     H37414   5.859   2.751   7.470 -2.4608  0.3966 -2.0511
  996MOL0     H37415   5.817   2.905   7.530  0.6521 -0.6087 -1.1612
  996MOL0     H37416   5.765   2.670   7.706 -1.2428  0.1015  0.3629
  996MOL0     H37417   5.762   2.835   7.754  1.3305 -0.5668  0.8986
  996MOL0     H37418   6.006   2.856   7.760 -3.1094  1.2698 -0.4489
  996MOL0     H37419   6.038   2.726   7.652  0.9036  2.9925 -0.2329
  996MOL0     H37420   5.908   2.661   7.930  0.0857  1.6135 -0.5994
  996MOL0     H37421   5.952   2.550   7.815 -0.7743  0.6315  0.1140
  996MOL0     H37422   6.134   2.756   7.960  3.1326 -2.1312  1.5640
  996MOL0     H37423   6.196   2.659   7.825  0.4026 -0.9958  0.0313
  996MOL0     H37424   6.108   2.551   8.095 -1.2059 -2.6122 -1.4616
  996MOL0     H37425   6.265   2.555   8.030  0.7045 -1.3305  0.3756
  996MOL0     H37426   6.060   2.400   7.880  0.3419  2.1991 -0.2224
  996MOL0     H37427   6.166   2.328   7.995 -3.7417 -0.0073  0.1903
  996MOL0     H37428   5.410   2.801   7.432  0.1488 -0.4731 -0.8942
  996MOL0     H37429   5.221   2.747   7.286  0.9229  1.2052 -2.0830
  996MOL0     H37430   4.970   2.393   7.117 -4.0913 -1.3589 -0.8993
  996MOL0     H37431   4.785   2.339   7.012 -0.3114  2.0243  3.6678
  996MOL0     H37432   4.073   2.370   7.555 -5.1322 -0.0313  0.6726
  996MOL0     H37433   3.987   2.259   7.755 -0.5332  0.0047  2.5450
  996MOL0     H37434   3.955   2.370   8.261 -0.3974  1.0069  1.7001
  996MOL0     H37435   3.839   2.324   8.452  0.1306  2.2092 -1.4292
  996MOL0     H37436   3.642   2.275   8.618 -2.0968  5.6108  0.3138
  996MOL0     H37437   3.589   2.322   8.458 -2.1243  0.6736  1.0539
  996MOL0     H37438   3.410   2.306   8.594  0.4020 -1.5767  2.4671
  996MOL0     H37439   3.432   2.133   8.636 -0.9563 -3.3548 -2.2031
  996MOL0     H37440   3.321   2.246   8.377 -0.1738  1.6285  1.5388
  996MOL0     H37441   3.430   2.096   8.378  0.4322  2.4350  0.7213
  996MOL0     H37442   3.180   2.080   8.368 -2.8048  4.3832  1.0703
  996MOL0     H37443   3.186   2.131   8.540  1.5094  1.6387 -0.3121
  996MOL0     H37444   3.282   1.716   8.512  1.0506 -0.3713  0.3849
  996MOL0     H37445   3.653   1.982   8.260  0.3192 -0.1154 -1.8633
  996MOL0     H37446   3.774   2.026   7.930  1.3720 -1.9496  0.2418
  996MOL0     H37447   3.813   1.891   8.040 -0.3351 -0.8226 -0.5321
  996MOL0     H37448   3.650   1.966   8.033 -1.6077  2.9223 -3.5526
  997MOL0     O37449   0.630   4.070  10.876 -0.5107 -0.2581 -0.8450
  997MOL0     C37450   0.629   3.960  10.825 -0.5685 -0.5059 -0.8624
  997MOL0     O37451   0.733   3.905  10.753 -0.2291  0.0265 -0.0328
  997MOL0     C37452   0.843   3.995  10.738  0.7583  0.0192 -0.2884
  997MOL0     C37453   0.873   4.065  10.623 -0.4650  0.4501  0.3246
  997MOL0     C37454   0.976   4.153  10.616 -0.4496 -1.2843  0.2649
  997MOL0     C37455   1.068   4.170  10.722  0.5329 -0.0032  0.1951
  997MOL0     O37456   1.175   4.256  10.724  0.3281  0.2223 -0.1902
  997MOL0     C37457   1.158   4.392  10.668  0.4225 -0.6642 -0.4393
  997MOL0     C37458   1.289   4.463  10.692 -0.4020  0.6196 -0.2667
  997MOL0     C37459   1.261   4.612  10.699 -0.3069 -0.2582  0.2798
  997MOL0     C37460   1.392   4.683  10.705 -0.4121  1.1187 -0.1630
  997MOL0     C37461   1.384   4.830  10.728  0.2324  0.4875  0.1438
  997MOL0     C37462   1.496   4.915  10.655  1.1418  0.3450  0.6245
  997MOL0     C37463   1.464   5.062  10.670  0.0345 -0.3510  0.0475
  997MOL0     C37464   1.525   5.119  10.812  0.0790 -0.4857  0.1378
  997MOL0     N37465   1.671   5.097  10.800  0.3604  0.3279 -0.7695
  997MOL0     C37466   1.747   4.999  10.860 -0.6053 -0.0601 -0.3640
  997MOL0     C37467   1.874   5.040  10.862 -0.5132 -0.5118 -0.2990
  997MOL0     C37468   1.988   4.958  10.926 -0.6088  0.2501 -0.6143
  997MOL0     C37469   2.095   4.910  10.825  0.8103 -0.5140  0.3224
  997MOL0     C37470   2.218   4.852  10.904 -0.0845 -0.4915  0.0137
  997MOL0     C37471   2.314   4.760  10.837 -0.0832  0.2201  0.1842
  997MOL0     O37472   2.424   4.745  10.928 -0.0172 -0.6042 -0.2202
  997MOL0     C37473   2.543   4.703  10.873 -0.0440 -0.2651 -0.5139
  997MOL0     C37474   2.553   4.608  10.766  0.4425 -0.3421  0.4185
  997MOL0     C37475   2.680   4.583  10.713  0.6340  0.4846  0.5009
  997MOL0     C37476   2.685   4.466  10.617  0.4347 -0.2103 -0.2096
  997MOL0     C37477   2.798   4.644  10.768  0.0248 -0.0811  0.4425
  997MOL0     C37478   2.934   4.608  10.728 -0.2117 -0.8376  0.3333
  997MOL0     O37479   2.966   4.576  10.600 -0.6956  0.6581  0.5268
  997MOL0     C37480   3.082   4.503  10.571  0.6987  0.0278  0.6890
  997MOL0     C37481   3.067   4.393  10.482  0.1820  0.5766  0.0170
  997MOL0     C37482   3.177   4.326  10.436 -0.5611  0.3333  0.2006
  997MOL0     C37483   3.303   4.380  10.475  0.6173 -0.0968  0.6422
  997MOL0     O37484   3.411   4.311  10.417 -0.5172 -0.8467 -0.2293
  997MOL0     C37485   3.517   4.286  10.505  0.5178 -0.3923 -0.4422
  997MOL0     C37486   3.633   4.242  10.430 -0.3555  0.5013 -0.4232
  997MOL0     C37487   3.777   4.249  10.505  0.5096 -0.4078 -0.5177
  997MOL0     C37488   3.816   4.390  10.521 -0.8437  0.0200  0.0362
  997MOL0     C37489   3.966   4.403  10.578  0.9970  0.1224  0.0575
  997MOL0     C37490   4.019   4.546  10.604 -0.2181 -0.2180  0.2233
  997MOL0     C37491   4.044   4.623  10.473  0.3717 -0.4548  0.6842
  997MOL0     C37492   4.109   4.753  10.483 -0.3096 -0.2494 -0.4519
  997MOL0    Cl37493   4.167   4.831  10.323  0.3467 -0.3649 -0.1269
  997MOL0     C37494   3.320   4.487  10.563 -0.3089  0.3285 -0.7820
  997MOL0     C37495   3.206   4.556  10.606 -0.3059 -0.2954  0.3068
  997MOL0     O37496   3.010   4.626  10.821  0.6516  0.2937  0.7175
  997MOL0     C37497   2.780   4.741  10.867  0.1792 -1.0377  0.4835
  997MOL0     C37498   2.652   4.772  10.915  0.6380  0.5014  0.0418
  997MOL0     N37499   1.875   5.159  10.800  0.1315 -0.0479  0.0861
  997MOL0     N37500   1.762   5.191  10.755 -0.0044 -1.1651 -0.3785
  997MOL0     C37501   1.043   4.094  10.845  0.2555 -0.1466  0.4682
  997MOL0     C37502   0.930   4.001  10.849 -0.4403 -0.0511  0.1051
  997MOL0     C37503   0.497   3.885  10.824  0.4663  0.1923  0.0983
  997MOL0     C37504   0.489   3.767  10.751  0.6031  0.6629  0.4285
  997MOL0     C37505   0.380   3.681  10.757 -0.0504  0.1502 -0.7710
  997MOL0     C37506   0.267   3.721  10.840  0.2485 -0.1923 -0.2843
  997MOL0     O37507   0.154   3.641  10.852  0.3306 -0.3428  0.4598
  997MOL0     C37508   0.089   3.585  10.734  0.1768 -0.8285 -0.2043
  997MOL0     C37509  -0.059   3.625  10.738 -0.2442  0.3653  0.2593
  997MOL0     C37510  -0.132   3.520  10.826 -0.7581 -0.1615 -0.1805
  997MOL0     C37511  -0.107   3.555  10.973  0.7013 -0.0171  0.6924
  997MOL0     C37512  -0.211   3.497  11.065 -0.9814 -0.4353  0.4333
  997MOL0     C37513  -0.288   3.444  11.145  0.2448  0.3096  0.1441
  997MOL0     C37514   0.271   3.841  10.914 -0.1349  0.5555 -0.0853
  997MOL0     C37515   0.390   3.923  10.908  0.5028  0.7174 -0.5532
  997MOL0     C37516   0.381   4.050  10.993 -1.0122 -0.3868  0.1379
  997MOL0     H37517   0.807   4.057  10.536 -0.4542  1.9761  0.1484
  997MOL0     H37518   1.000   4.215  10.530 -1.6372  0.7700  1.3361
  997MOL0     H37519   1.087   4.457  10.720  1.4307 -0.3883  0.6276
  997MOL0     H37520   1.130   4.394  10.562 -3.8661 -0.1491  0.4905
  997MOL0     H37521   1.326   4.433  10.791 -1.7691  0.7214  0.3084
  997MOL0     H37522   1.356   4.428  10.614 -0.0354 -2.3160  1.2113
  997MOL0     H37523   1.223   4.639  10.599  0.8312 -0.3473 -0.1859
  997MOL0     H37524   1.189   4.638  10.777 -0.8232 -3.4631  1.0102
  997MOL0     H37525   1.449   4.643  10.789 -1.2915 -3.7360 -1.5821
  997MOL0     H37526   1.455   4.663  10.618  0.2842  2.0992  0.0934
  997MOL0     H37527   1.396   4.860  10.832  1.6898  3.4721 -0.7447
  997MOL0     H37528   1.284   4.858  10.693 -0.1209 -1.1537 -0.2306
  997MOL0     H37529   1.595   4.890  10.693  1.6094 -1.7891 -1.7604
  997MOL0     H37530   1.502   4.896  10.547 -0.1320 -0.0113  0.5983
  997MOL0     H37531   1.355   5.074  10.669  0.1968  1.4462  0.7733
  997MOL0     H37532   1.503   5.126  10.590  0.6953 -0.4005  0.3290
  997MOL0     H37533   1.494   5.222  10.827 -0.0241 -0.1557 -2.0202
  997MOL0     H37534   1.484   5.066  10.899 -0.0679 -2.2535 -0.9609
  997MOL0     H37535   1.710   4.906  10.901  1.7452 -0.6511  0.6166
  997MOL0     H37536   1.941   4.877  10.982 -1.6572  2.5813  2.1083
  997MOL0     H37537   2.030   5.025  11.003 -1.8276  0.7075 -0.3308
  997MOL0     H37538   2.047   4.831  10.766 -2.3006  1.4611 -0.0852
  997MOL0     H37539   2.130   4.990  10.759 -0.3313 -0.3486 -0.1126
  997MOL0     H37540   2.273   4.937  10.944 -0.2929 -1.2686  2.0866
  997MOL0     H37541   2.176   4.801  10.991  0.2420 -1.9464 -0.6414
  997MOL0     H37542   2.270   4.663  10.814  0.4245 -0.1527  0.7916
  997MOL0     H37543   2.360   4.808  10.750 -0.4170 -0.2189 -0.2357
  997MOL0     H37544   2.459   4.568  10.729 -0.0932  1.4056 -0.1871
  997MOL0     H37545   2.758   4.466  10.535 -1.2611 -1.3616 -1.7964
  997MOL0     H37546   2.588   4.437  10.576  2.2227 -1.7378 -3.8929
  997MOL0     H37547   2.721   4.383  10.679  1.2138 -1.6920 -2.5122
  997MOL0     H37548   2.973   4.354  10.443 -2.0788  2.3955  3.1417
  997MOL0     H37549   3.169   4.243  10.367 -1.0469 -0.6534  1.4103
  997MOL0     H37550   3.545   4.378  10.557  1.3539 -0.7373 -0.2806
  997MOL0     H37551   3.480   4.201  10.563 -0.5537 -1.1575 -2.1651
  997MOL0     H37552   3.606   4.146  10.384  0.8941 -0.1836  0.2014
  997MOL0     H37553   3.652   4.308  10.345  0.9719 -0.5882 -1.0176
  997MOL0     H37554   3.846   4.196  10.439  1.2077  0.4337 -0.4658
  997MOL0     H37555   3.772   4.202  10.603  0.1973 -1.4364 -1.0066
  997MOL0     H37556   3.746   4.446  10.584 -1.5356  0.3353 -0.9724
  997MOL0     H37557   3.819   4.438  10.423  1.3245 -1.3595 -0.6355
  997MOL0     H37558   3.962   4.367  10.681 -2.2034 -0.1862 -0.0802
  997MOL0     H37559   4.035   4.337  10.523  0.5339  0.4320 -0.9210
  997MOL0     H37560   4.113   4.540  10.659  0.7314 -3.4532 -1.4567
  997MOL0     H37561   3.930   4.586  10.654 -2.7073 -3.8347 -0.8244
  997MOL0     H37562   3.951   4.638  10.417 -0.7151 -1.3436  2.1940
  997MOL0     H37563   4.102   4.553  10.413 -2.0614 -2.8049  0.8877
  997MOL0     H37564   4.192   4.744  10.553  1.1358  0.2565 -2.0370
  997MOL0     H37565   4.044   4.828  10.528 -0.1444  0.9553 -2.1291
  997MOL0     H37566   3.414   4.531  10.596  0.9309 -1.7315 -1.3748
  997MOL0     H37567   3.226   4.639  10.672 -1.2483  0.0915  0.1233
  997MOL0     H37568   2.867   4.779  10.920 -0.6193  2.7478 -0.6335
  997MOL0     H37569   2.644   4.842  10.997  2.3047  0.3956  0.3269
  997MOL0     H37570   1.121   4.084  10.919  1.1983  0.7201 -0.3868
  997MOL0     H37571   0.911   3.942  10.938  1.6227 -1.1653 -0.1225
  997MOL0     H37572   0.575   3.752  10.687 -2.4039 -0.6845 -3.7133
  997MOL0     H37573   0.390   3.582  10.714  1.2219 -1.2124  2.3407
  997MOL0     H37574   0.143   3.619  10.645 -0.0904  0.7175  0.1993
  997MOL0     H37575   0.101   3.476  10.739  0.8460 -0.7625 -0.2961
  997MOL0     H37576  -0.105   3.617  10.639 -2.2308 -3.8454  1.3265
  997MOL0     H37577  -0.067   3.726  10.778 -1.4488  0.7098 -0.7875
  997MOL0     H37578  -0.239   3.511  10.809 -0.4499 -1.5041 -1.6840
  997MOL0     H37579  -0.091   3.419  10.814  0.3395  0.3352 -0.7660
  997MOL0     H37580  -0.107   3.665  10.977  1.2394  0.0055  0.3265
  997MOL0     H37581  -0.008   3.511  10.988  0.8493  0.1780  0.3105
  997MOL0     H37582  -0.363   3.396  11.204 -1.6432  2.1422 -0.6265
  997MOL0     H37583   0.185   3.880  10.967 -3.0909 -1.8614 -2.7062
  997MOL0     H37584   0.376   4.133  10.923  1.0912 -3.3818 -4.0163
  997MOL0     H37585   0.298   4.046  11.064 -2.3773 -1.6574 -1.4568
  997MOL0     H37586   0.475   4.067  11.047  0.9680  3.8201 -3.9262
  998MOL0     O37587  10.749   9.019   7.081  0.5018  0.8700 -0.1018
  998MOL0     C37588  10.676   9.029   7.180 -0.4976  0.6921 -0.1796
  998MOL0     O37589  10.722   9.057   7.311  0.0742 -0.5611 -0.1233
  998MOL0     C37590  10.855   9.054   7.326 -0.1120  0.4125  0.7949
  998MOL0     C37591  10.926   8.951   7.406 -0.0305  0.0693  0.1746
  998MOL0     C37592  11.064   8.961   7.421 -0.0781 -0.2249 -0.1043
  998MOL0     C37593  11.138   9.054   7.353 -0.8140  0.4753 -0.0933
  998MOL0     O37594  11.273   9.043   7.375  0.5459  0.0286  0.0125
  998MOL0     C37595  11.315   9.093   7.504 -0.8715 -0.1320  0.3271
  998MOL0     C37596  11.464   9.130   7.506  0.2466 -0.4424  0.6488
  998MOL0     C37597  11.492   9.252   7.408  0.9485  0.0563  0.0327
  998MOL0     C37598  11.467   9.385   7.468 -0.2961 -0.0675  0.1374
  998MOL0     C37599  11.473   9.504   7.370 -0.1424 -0.8074 -0.6422
  998MOL0     C37600  11.548   9.625   7.428 -0.0820  0.1470 -0.2048
  998MOL0     C37601  11.532   9.727   7.309  0.0278  0.4358 -0.3692
  998MOL0     C37602  11.612   9.855   7.332  0.1417 -0.7036  0.3716
  998MOL0     N37603  11.752   9.856   7.286 -0.6285  0.3089  0.2445
  998MOL0     C37604  11.845   9.951   7.313 -1.3101  0.3842  0.4027
  998MOL0     C37605  11.943   9.930   7.220  0.0727 -0.4761 -0.1216
  998MOL0     C37606  12.061  10.019   7.191  0.4933  0.1082  0.2240
  998MOL0     C37607  12.191   9.954   7.244  0.3611 -0.4112 -0.5211
  998MOL0     C37608  12.226   9.977   7.397  0.3459  0.5115  1.0114
  998MOL0     C37609  12.340   9.880   7.432  0.3247 -1.7900  0.1425
  998MOL0     O37610  12.301   9.743   7.422  0.0255 -0.4372 -0.0770
  998MOL0     C37611  12.386   9.654   7.479 -0.3918 -0.3180 -0.3043
  998MOL0     C37612  12.340   9.563   7.574  0.0985  0.2952  0.2605
  998MOL0     C37613  12.424   9.467   7.635  0.3574  0.0505  0.0712
  998MOL0     C37614  12.365   9.375   7.736  0.1808 -0.0089  0.2051
  998MOL0     C37615  12.566   9.480   7.600  0.8022  0.5759  0.0890
  998MOL0     C37616  12.666   9.396   7.670  1.0899  0.5028  0.5859
  998MOL0     O37617  12.784   9.373   7.609  0.5586  0.7119 -0.0344
  998MOL0     C37618  12.860   9.271   7.662  0.5479 -0.6255  0.2679
  998MOL0     C37619  12.796   9.157   7.702 -0.4440  0.2403  0.0749
  998MOL0     C37620  12.886   9.056   7.754 -0.4070  0.4774  1.5381
  998MOL0     C37621  13.017   9.062   7.757  0.2547 -0.1834  0.2427
  998MOL0     O37622  13.091   8.962   7.810 -0.5736 -0.5989  0.1329
  998MOL0     C37623  13.236   8.971   7.798 -0.2891 -0.4254  0.3159
  998MOL0     C37624  13.296   8.865   7.884 -0.6698 -0.3061  0.5144
  998MOL0     C37625  13.259   8.726   7.833  0.4220 -0.4364 -0.1049
  998MOL0     C37626  13.277   8.615   7.936 -0.0998 -0.6928 -0.7428
  998MOL0     C37627  13.424   8.578   7.959 -0.3813  0.0607  0.6106
  998MOL0     C37628  13.448   8.476   8.076 -0.4322  0.4599  0.0573
  998MOL0     C37629  13.605   8.454   8.093  1.0549  0.1923 -0.2029
  998MOL0     C37630  13.645   8.370   8.206  0.5711  0.0724 -0.9325
  998MOL0    Cl37631  13.822   8.342   8.194 -0.1857 -0.2099 -0.1416
  998MOL0     C37632  13.075   9.186   7.719  0.2236  0.9967 -0.2863
  998MOL0     C37633  12.999   9.288   7.664  0.0778  0.5422  0.4540
  998MOL0     O37634  12.638   9.378   7.790  0.0230 -0.7722 -0.4031
  998MOL0     C37635  12.611   9.569   7.500 -0.2600  1.2126  0.5251
  998MOL0     C37636  12.527   9.657   7.445 -0.1579 -0.2202 -0.1239
  998MOL0     N37637  11.911   9.816   7.145  0.0733 -0.1782  0.4345
  998MOL0     N37638  11.799   9.774   7.178  0.0843  0.5783 -0.3129
  998MOL0     C37639  11.078   9.147   7.272 -0.4453  0.3032 -0.4937
  998MOL0     C37640  10.936   9.149   7.256  0.1276  0.0294 -1.0964
  998MOL0     C37641  10.538   9.015   7.146  1.0066  0.2280 -1.2636
  998MOL0     C37642  10.494   9.043   7.015  0.1884 -0.5436  0.2580
  998MOL0     C37643  10.362   9.023   6.972  0.1753  0.9090  0.2223
  998MOL0     C37644  10.266   8.969   7.060 -0.4885 -0.3183  0.6548
  998MOL0     O37645  10.129   8.947   7.030 -0.5491  0.5725  0.0597
  998MOL0     C37646  10.083   8.953   6.895  0.6773  0.5094 -0.7980
  998MOL0     C37647   9.939   8.902   6.875 -0.4304 -0.8879 -0.1736
  998MOL0     C37648   9.908   8.864   6.731  0.5570  1.1801  0.0160
  998MOL0     C37649   9.905   8.977   6.621  0.1260 -0.9355  0.3163
  998MOL0     C37650   9.905   8.907   6.493  0.1802 -0.4821 -0.2238
  998MOL0     C37651   9.919   8.845   6.390  0.2181 -0.7815 -0.3530
  998MOL0     C37652  10.306   8.957   7.198  0.5502 -0.0093  0.0386
  998MOL0     C37653  10.435   8.984   7.245  1.0399  1.1356 -0.6210
  998MOL0     C37654  10.456   8.978   7.394 -0.2054 -0.2763 -0.3077
  998MOL0     H37655  10.871   8.879   7.465  0.5221 -1.3789 -1.0165
  998MOL0     H37656  11.128   8.888   7.470  1.0420  0.9861  0.3203
  998MOL0     H37657  11.307   9.017   7.582  2.1558 -2.4458 -1.4185
  998MOL0     H37658  11.266   9.183   7.542  1.3818  0.7891  1.1797
  998MOL0     H37659  11.499   9.159   7.606 -3.1013  0.1271  1.7668
  998MOL0     H37660  11.526   9.045   7.475  0.5084 -0.7978  2.0644
  998MOL0     H37661  11.596   9.260   7.375  0.5353 -1.3777 -1.7988
  998MOL0     H37662  11.424   9.234   7.324 -0.8384  0.8570  1.2516
  998MOL0     H37663  11.369   9.394   7.517 -1.9024 -1.5301 -2.5713
  998MOL0     H37664  11.539   9.405   7.548 -2.5507  1.5193  1.9469
  998MOL0     H37665  11.374   9.536   7.336  1.0077  2.2009 -1.4314
  998MOL0     H37666  11.516   9.472   7.275 -1.8170  2.3230 -2.5912
  998MOL0     H37667  11.511   9.660   7.525 -2.6851 -3.0291  0.1052
  998MOL0     H37668  11.651   9.596   7.451 -0.7899 -1.2414  1.4382
  998MOL0     H37669  11.426   9.749   7.292 -0.0972 -0.0718 -0.2865
  998MOL0     H37670  11.565   9.691   7.211 -0.9822 -1.4455 -0.0830
  998MOL0     H37671  11.569   9.940   7.278  0.1645  0.2635  1.8186
  998MOL0     H37672  11.615   9.875   7.440  4.8405 -1.2080  0.5716
  998MOL0     H37673  11.851  10.028   7.389  1.0262  0.4712  0.2041
  998MOL0     H37674  12.059  10.119   7.235 -1.8642  0.4358 -0.5160
  998MOL0     H37675  12.053  10.019   7.082  0.2153 -2.4613  0.1683
  998MOL0     H37676  12.172   9.849   7.221 -3.1654 -0.1135  0.3929
  998MOL0     H37677  12.273   9.988   7.181  0.1776 -0.8880 -1.0242
  998MOL0     H37678  12.255  10.083   7.406 -0.4780  1.0175 -1.5751
  998MOL0     H37679  12.146   9.958   7.469  0.0943  0.1562  0.6370
  998MOL0     H37680  12.430   9.890   7.370 -0.1065 -0.6205 -0.3185
  998MOL0     H37681  12.378   9.912   7.529 -1.9654 -1.0142  0.8472
  998MOL0     H37682  12.233   9.549   7.585  0.1456 -0.4760 -0.1734
  998MOL0     H37683  12.363   9.421   7.835 -1.0292 -0.9672  0.6535
  998MOL0     H37684  12.424   9.283   7.734  1.5471  0.6990 -4.0300
  998MOL0     H37685  12.263   9.341   7.716  0.2827  0.3303 -0.9626
  998MOL0     H37686  12.688   9.142   7.703 -0.6478  1.5229  1.1423
  998MOL0     H37687  12.838   8.961   7.777 -0.7827  0.1211 -0.5454
  998MOL0     H37688  13.286   8.969   7.700  0.3397 -0.7890  0.6377
  998MOL0     H37689  13.257   9.065   7.850 -0.1804  0.8912 -1.9702
  998MOL0     H37690  13.404   8.874   7.878 -0.6991 -0.8173 -1.2541
  998MOL0     H37691  13.268   8.871   7.990  0.7208 -2.4492  1.0712
  998MOL0     H37692  13.302   8.699   7.736 -3.6359 -0.2155 -2.2028
  998MOL0     H37693  13.153   8.729   7.805 -0.0175 -3.9294  0.7962
  998MOL0     H37694  13.238   8.522   7.893 -1.5097 -0.0453 -0.9269
  998MOL0     H37695  13.221   8.644   8.025 -2.0943 -3.0351 -1.1362
  998MOL0     H37696  13.462   8.537   7.864 -2.5984 -4.3668  1.3470
  998MOL0     H37697  13.479   8.670   7.980  0.4623  0.1268 -1.5974
  998MOL0     H37698  13.386   8.387   8.067 -1.6161  1.0524  1.7149
  998MOL0     H37699  13.429   8.539   8.163 -1.1188  3.4184 -2.0847
  998MOL0     H37700  13.651   8.553   8.095 -0.6841  1.0240  0.9400
  998MOL0     H37701  13.640   8.410   8.000  2.4542  1.7984 -0.4838
  998MOL0     H37702  13.591   8.275   8.205  1.4092 -0.4510  0.8677
  998MOL0     H37703  13.622   8.418   8.302 -1.1776  1.3259 -1.9148
  998MOL0     H37704  13.182   9.200   7.713  0.6248 -1.4155  0.3184
  998MOL0     H37705  13.038   9.380   7.622 -0.2800  0.1236 -0.8498
  998MOL0     H37706  12.718   9.568   7.483  0.1244  1.0743  2.6454
  998MOL0     H37707  12.559   9.729   7.371 -1.2035 -0.4477 -0.8117
  998MOL0     H37708  11.134   9.222   7.219  0.9336  0.3174  0.9245
  998MOL0     H37709  10.886   9.217   7.188  2.7679  4.6110  1.1353
  998MOL0     H37710  10.565   9.089   6.947 -1.3081 -0.8037 -1.5724
  998MOL0     H37711  10.345   9.036   6.865 -0.5838 -0.8472  0.1061
  998MOL0     H37712  10.084   9.057   6.860 -2.7630  1.3667  1.1869
  998MOL0     H37713  10.151   8.897   6.830  1.5885  0.7409 -0.0726
  998MOL0     H37714   9.874   8.980   6.915 -1.8211 -1.1911 -1.7850
  998MOL0     H37715   9.915   8.815   6.937  1.2379 -0.5248  1.0688
  998MOL0     H37716   9.981   8.790   6.699 -0.8018  0.7098 -2.2119
  998MOL0     H37717   9.815   8.806   6.729  1.6490 -0.6664 -1.8829
  998MOL0     H37718   9.995   9.039   6.624  0.3398 -1.1004 -1.4684
  998MOL0     H37719   9.811   9.033   6.627  0.3385 -0.2339 -1.8222
  998MOL0     H37720   9.937   8.783   6.304 -2.6026 -2.2235 -0.0106
  998MOL0     H37721  10.232   8.919   7.267 -0.2559  1.3891 -0.0158
  998MOL0     H37722  10.360   8.966   7.444  0.9790  0.7115  2.4338
  998MOL0     H37723  10.534   8.907   7.425  1.6031  1.6990 -0.0581
  998MOL0     H37724  10.491   9.080   7.416  0.5961  0.2328 -3.4215
  999MOL0     O37725   5.370  10.536   4.165 -0.3607 -0.6278  0.6700
  999MOL0     C37726   5.457  10.572   4.072  0.3165  0.1895 -0.0833
  999MOL0     O37727   5.423  10.639   3.955 -0.2423  0.2993  0.4041
  999MOL0     C37728   5.288  10.664   3.929 -0.8662 -0.1369 -0.0022
  999MOL0     C37729   5.224  10.588   3.836  0.5815 -0.0550 -0.6559
  999MOL0     C37730   5.090  10.627   3.788 -0.3027  0.4842 -0.9778
  999MOL0     C37731   5.020  10.726   3.856 -0.4154  0.0677 -0.7074
  999MOL0     O37732   4.888  10.760   3.820  0.1260 -0.3356 -0.5088
  999MOL0     C37733   4.814  10.863   3.888  0.2418 -0.4780 -0.1889
  999MOL0     C37734   4.673  10.863   3.812  0.1484 -0.2048 -0.0773
  999MOL0     C37735   4.597  10.732   3.804  0.5663 -0.0137  0.3917
  999MOL0     C37736   4.465  10.764   3.740 -0.9125 -0.6611  0.3927
  999MOL0     C37737   4.368  10.649   3.770 -0.1115  0.3966  0.0171
  999MOL0     C37738   4.235  10.650   3.694 -0.6143 -0.2076 -0.3299
  999MOL0     C37739   4.159  10.785   3.701 -0.3354 -0.4145 -0.0736
  999MOL0     C37740   4.025  10.749   3.651 -0.1387  1.0278  0.9648
  999MOL0     N37741   3.920  10.847   3.676  0.1362  0.3553  0.5296
  999MOL0     C37742   3.929  10.979   3.637  0.1524  0.6121 -0.2454
  999MOL0     C37743   3.836  11.050   3.704  0.4157  0.3325 -0.1463
  999MOL0     C37744   3.829  11.206   3.692  0.7939 -0.1986 -0.0623
  999MOL0     C37745   3.965  11.274   3.715  0.6531 -0.3718 -0.1594
  999MOL0     C37746   4.031  11.262   3.860 -0.1393 -0.6282 -0.5073
  999MOL0     C37747   4.104  11.133   3.879 -0.7231 -0.3139  0.1331
  999MOL0     O37748   4.200  11.104   3.775 -0.5741 -0.8986  0.9058
  999MOL0     C37749   4.335  11.151   3.782  0.2310  0.0209  0.0543
  999MOL0     C37750   4.394  11.202   3.889 -0.4434  0.1743 -0.5284
  999MOL0     C37751   4.531  11.242   3.889 -0.0215  0.0275 -0.4095
  999MOL0     C37752   4.589  11.271   4.025  0.0242 -0.4051  0.5439
  999MOL0     C37753   4.603  11.240   3.766 -0.5547 -0.0286 -0.0462
  999MOL0     C37754   4.742  11.291   3.750 -0.5041 -0.3936 -0.3427
  999MOL0     O37755   4.792  11.374   3.844  0.0075 -0.4607  0.1672
  999MOL0     C37756   4.921  11.417   3.844  0.0968  1.0627  0.3876
  999MOL0     C37757   5.010  11.317   3.873 -0.2418  0.4231 -0.2897
  999MOL0     C37758   5.149  11.339   3.859 -0.8902 -0.5591  0.6904
  999MOL0     C37759   5.191  11.472   3.845 -0.0688  0.3754  0.4404
  999MOL0     O37760   5.328  11.484   3.841 -0.1559 -0.1074 -1.0904
  999MOL0     C37761   5.377  11.612   3.792 -0.4432 -0.3563 -0.0268
  999MOL0     C37762   5.528  11.589   3.745 -0.7543 -0.0709  0.3300
  999MOL0     C37763   5.541  11.476   3.633  0.5530  0.1883 -0.6773
  999MOL0     C37764   5.687  11.456   3.587 -0.8568  0.7861  0.1287
  999MOL0     C37765   5.708  11.355   3.473 -0.1438  0.3579  0.2929
  999MOL0     C37766   5.742  11.216   3.509  0.2273  0.0666 -0.2140
  999MOL0     C37767   5.752  11.120   3.395 -0.2501 -0.8670  0.8528
  999MOL0     C37768   5.881  11.136   3.301 -0.4340  0.1319  0.0147
  999MOL0    Cl37769   6.032  11.160   3.388  0.0856 -0.1278  0.1114
  999MOL0     C37770   5.093  11.573   3.821  0.2973 -0.3146 -0.7964
  999MOL0     C37771   4.963  11.549   3.833 -0.3381  0.1770 -0.0791
  999MOL0     O37772   4.813  11.238   3.666  0.2421  0.5553 -0.0422
  999MOL0     C37773   4.535  11.194   3.647  0.0537 -0.3575  0.3084
  999MOL0     C37774   4.411  11.150   3.665 -0.0157  0.4722 -0.6799
  999MOL0     N37775   3.779  10.963   3.791 -0.6923  0.1209 -0.1653
  999MOL0     N37776   3.819  10.840   3.767 -0.4907 -0.1985 -0.1655
  999MOL0     C37777   5.094  10.790   3.957  0.5050  0.3597  1.0374
  999MOL0     C37778   5.224  10.768   3.996  0.1292  0.3398  0.1798
  999MOL0     C37779   5.598  10.534   4.088 -0.2659  0.0190 -0.2246
  999MOL0     C37780   5.684  10.516   3.967  0.3643  0.2800 -0.3545
  999MOL0     C37781   5.822  10.498   3.975  0.0458 -0.4759  0.2808
  999MOL0     C37782   5.881  10.476   4.099 -0.5307  0.4423 -0.3100
  999MOL0     O37783   6.022  10.475   4.108  0.3247 -0.1794 -0.4309
  999MOL0     C37784   6.100  10.414   4.006  0.1560 -0.5049 -1.1326
  999MOL0     C37785   6.228  10.367   4.068  0.4691  0.3479 -1.0263
  999MOL0     C37786   6.223  10.321   4.214 -0.3065  0.4218  0.5141
  999MOL0     C37787   6.366  10.276   4.252 -0.1866 -0.4594  0.2285
  999MOL0     C37788   6.383  10.147   4.193 -0.6118  0.3039  0.3305
  999MOL0     C37789   6.395  10.040   4.138 -0.0509  0.2106  0.0811
  999MOL0     C37790   5.801  10.469   4.211 -1.0636  0.2048  0.4711
  999MOL0     C37791   5.662  10.492   4.205 -0.4673 -0.1277  0.3779
  999MOL0     C37792   5.585  10.474   4.334 -0.0361 -0.7626  0.1901
  999MOL0     H37793   5.281  10.510   3.786 -0.2291 -0.5609 -0.8253
  999MOL0     H37794   5.044  10.562   3.714 -0.3487 -2.6989  1.6545
  999MOL0     H37795   4.855  10.963   3.906 -1.6883  0.5237 -1.0821
  999MOL0     H37796   4.800  10.830   3.992 -0.0041  1.5185  0.4551
  999MOL0     H37797   4.616  10.944   3.858  1.0812  0.1595  0.4555
  999MOL0     H37798   4.697  10.893   3.709 -1.3694  1.8928  0.1122
  999MOL0     H37799   4.652  10.654   3.750 -0.8087 -0.2396 -0.7430
  999MOL0     H37800   4.594  10.710   3.911 -2.8656  2.1638  0.9122
  999MOL0     H37801   4.435  10.858   3.788 -2.8279 -0.5458 -0.9376
  999MOL0     H37802   4.478  10.786   3.633 -0.9778 -0.2194  0.4733
  999MOL0     H37803   4.351  10.651   3.878 -3.2465  1.1844 -0.4104
  999MOL0     H37804   4.409  10.554   3.735 -1.8478 -0.7623  1.0122
  999MOL0     H37805   4.259  10.622   3.591  1.4122 -1.0464  0.3162
  999MOL0     H37806   4.182  10.561   3.728 -0.7489 -0.0594 -0.1490
  999MOL0     H37807   4.215  10.859   3.642 -1.9054  0.2558 -0.7936
  999MOL0     H37808   4.163  10.818   3.805  1.3939  2.4554 -0.9327
  999MOL0     H37809   4.036  10.734   3.543  0.5550  1.7600  0.9244
  999MOL0     H37810   4.004  10.652   3.697  0.4823 -0.6755 -2.1078
  999MOL0     H37811   4.005  11.022   3.572  0.5228 -0.6165 -0.6486
  999MOL0     H37812   3.751  11.232   3.764  0.0387  2.1988 -1.6383
  999MOL0     H37813   3.787  11.228   3.594 -0.7030 -0.9244  0.3738
  999MOL0     H37814   4.036  11.248   3.636  0.4170  0.2639 -0.5908
  999MOL0     H37815   3.938  11.380   3.710 -2.5376 -0.9852  1.4764
  999MOL0     H37816   4.096  11.347   3.880 -0.0678 -0.7340 -0.2906
  999MOL0     H37817   3.939  11.263   3.919 -1.0523 -4.2504 -1.5799
  999MOL0     H37818   4.153  11.139   3.976  1.1868  1.4479 -0.8737
  999MOL0     H37819   4.032  11.050   3.882  0.9162 -1.8214 -0.5348
  999MOL0     H37820   4.349  11.199   3.988 -0.8808 -2.3720 -0.7305
  999MOL0     H37821   4.673  11.203   4.042 -1.2832 -2.1472  0.4265
  999MOL0     H37822   4.512  11.249   4.100  1.2413 -3.5322  1.0057
  999MOL0     H37823   4.620  11.375   4.036  1.7569 -0.7834 -0.3948
  999MOL0     H37824   4.970  11.217   3.890 -1.3045  0.8720 -0.1014
  999MOL0     H37825   5.225  11.262   3.867  1.1318  1.0597 -1.5150
  999MOL0     H37826   5.327  11.644   3.700  0.8375  0.0268 -0.6018
  999MOL0     H37827   5.375  11.683   3.875 -0.5249  0.5647 -0.8067
  999MOL0     H37828   5.566  11.688   3.718 -4.2728  1.6002  0.8650
  999MOL0     H37829   5.591  11.550   3.825 -0.4860 -1.0010 -0.3166
  999MOL0     H37830   5.470  11.490   3.551 -0.0441 -0.0576 -0.2092
  999MOL0     H37831   5.507  11.381   3.675  0.5893  0.1008 -0.8451
  999MOL0     H37832   5.756  11.430   3.668  1.4209  2.8439 -1.0385
  999MOL0     H37833   5.724  11.549   3.544 -1.8858  1.9907  1.7232
  999MOL0     H37834   5.622  11.345   3.406  1.1349  0.4095 -1.4249
  999MOL0     H37835   5.790  11.394   3.411  3.3193 -1.0365  3.6230
  999MOL0     H37836   5.655  11.178   3.564  1.8624 -1.8120  1.1904
  999MOL0     H37837   5.827  11.204   3.576 -0.9574  0.8230  1.5012
  999MOL0     H37838   5.659  11.113   3.339  0.8570 -1.9858 -0.9350
  999MOL0     H37839   5.766  11.022   3.443  1.5205 -0.7009  0.7670
  999MOL0     H37840   5.872  11.209   3.220  1.7100 -0.7909 -1.1573
  999MOL0     H37841   5.894  11.039   3.251  3.3849 -1.3887  3.4109
  999MOL0     H37842   5.135  11.671   3.800 -1.2042  0.6789  0.6131
  999MOL0     H37843   4.886  11.625   3.828  0.2347  0.8676  1.2351
  999MOL0     H37844   4.601  11.175   3.562 -0.4795 -1.5611  0.1466
  999MOL0     H37845   4.346  11.109   3.589 -0.7307 -2.7203  1.4863
  999MOL0     H37846   5.047  10.878   4.002 -0.9876 -0.0232  0.2996
  999MOL0     H37847   5.283  10.831   4.062 -1.4118  0.4663  1.5018
  999MOL0     H37848   5.645  10.529   3.867  0.4843  1.3071 -0.2803
  999MOL0     H37849   5.880  10.497   3.884  1.1235 -1.1692  0.9568
  999MOL0     H37850   6.050  10.330   3.957 -1.6367  1.1233 -2.2203
  999MOL0     H37851   6.116  10.491   3.929 -0.6756  2.8118  1.7508
  999MOL0     H37852   6.293  10.455   4.067 -0.2254  0.9016  0.6710
  999MOL0     H37853   6.263  10.281   4.009 -2.4750 -0.4318 -1.7752
  999MOL0     H37854   6.200  10.411   4.273  0.3617  0.5893  0.5202
  999MOL0     H37855   6.152  10.239   4.225  2.6461 -2.3079  0.5258
  999MOL0     H37856   6.389  10.274   4.359  1.4146 -2.1936 -0.1016
  999MOL0     H37857   6.435  10.352   4.216 -0.7411  0.6449  1.4091
  999MOL0     H37858   6.419   9.950   4.085  2.1498 -0.3804  1.9439
  999MOL0     H37859   5.844  10.447   4.308 -2.1511  1.1607  1.1973
  999MOL0     H37860   5.515  10.390   4.342 -3.3180  1.9226  3.9513
  999MOL0     H37861   5.664  10.455   4.407  0.8013  3.6105  0.6817
  999MOL0     H37862   5.525  10.560   4.366 -1.2481 -2.0012  1.4087
 1000MOL0     O37863   5.408   2.181   1.279  0.1958  0.2296  0.5943
 1000MOL0     C37864   5.358   2.287   1.224 -0.2815  0.0677 -0.2201
 1000MOL0     O37865   5.429   2.393   1.170  0.2381 -0.0399 -0.5136
 1000MOL0     C37866   5.561   2.406   1.200  0.7636  0.3063 -0.4286
 1000MOL0     C37867   5.617   2.533   1.224 -0.4178 -0.1209 -0.0470
 1000MOL0     C37868   5.756   2.556   1.224 -0.4171 -0.2637  0.5649
 1000MOL0     C37869   5.845   2.449   1.221 -0.7379  0.8378 -0.0206
 1000MOL0     O37870   5.981   2.447   1.219  0.6363 -0.0108 -0.4513
 1000MOL0     C37871   6.044   2.575   1.249 -0.0760 -0.6584  0.3664
 1000MOL0     C37872   6.191   2.536   1.281  0.0105 -0.0885 -0.2354
 1000MOL0     C37873   6.280   2.513   1.157 -0.5987 -0.0395  0.3853
 1000MOL0     C37874   6.261   2.361   1.103 -0.6887 -0.0533  0.6084
 1000MOL0     C37875   6.329   2.334   0.967  0.7142 -0.6163  0.4708
 1000MOL0     C37876   6.295   2.429   0.845  0.9448 -0.4041  0.3455
 1000MOL0     C37877   6.372   2.371   0.724  0.3887 -1.1022 -0.2757
 1000MOL0     C37878   6.328   2.435   0.591  0.6519  0.2481  0.0001
 1000MOL0     N37879   6.377   2.574   0.582 -0.2996 -0.0845  0.2631
 1000MOL0     C37880   6.511   2.602   0.582 -0.0929  0.1275 -0.3060
 1000MOL0     C37881   6.521   2.719   0.517  0.0306 -0.1490  0.1395
 1000MOL0     C37882   6.643   2.782   0.467  1.2349 -0.2168 -0.1262
 1000MOL0     C37883   6.714   2.856   0.565 -0.1852 -0.1597 -0.7206
 1000MOL0     C37884   6.846   2.910   0.515 -0.1213 -0.1127 -0.3217
 1000MOL0     C37885   6.894   3.031   0.589 -0.1483  0.9253  0.2958
 1000MOL0     O37886   6.934   2.984   0.722  0.5331 -0.2272  0.4332
 1000MOL0     C37887   7.010   3.067   0.792  0.0397 -0.0887  0.1387
 1000MOL0     C37888   6.955   3.191   0.833 -0.6291 -1.0292  0.2570
 1000MOL0     C37889   7.027   3.283   0.919  0.4336 -0.2026  0.3062
 1000MOL0     C37890   6.963   3.414   0.954  1.6438 -0.4638 -0.3959
 1000MOL0     C37891   7.160   3.245   0.955  0.3151 -1.0735 -0.2346
 1000MOL0     C37892   7.259   3.342   1.016  0.1080 -0.2524  0.1688
 1000MOL0     O37893   7.226   3.474   1.023  1.1406  0.5239 -0.0516
 1000MOL0     C37894   7.310   3.559   1.083 -0.0568  0.4622  0.5236
 1000MOL0     C37895   7.343   3.681   1.011  0.8603 -0.3006 -0.4784
 1000MOL0     C37896   7.412   3.782   1.084 -0.2453 -1.1383  0.7617
 1000MOL0     C37897   7.448   3.773   1.219  0.2232  0.5184 -0.0102
 1000MOL0     O37898   7.515   3.871   1.279  0.5178 -0.3510  0.4695
 1000MOL0     C37899   7.556   3.872   1.414  0.7789 -0.3422 -0.3672
 1000MOL0     C37900   7.667   3.968   1.443 -0.6971 -0.2731 -0.6757
 1000MOL0     C37901   7.626   4.115   1.413 -0.1926 -0.0833 -0.3449
 1000MOL0     C37902   7.740   4.210   1.463  0.9201 -0.1753  0.2564
 1000MOL0     C37903   7.705   4.359   1.454  0.4179  0.1431 -0.4087
 1000MOL0     C37904   7.696   4.423   1.315  0.6122 -0.0057 -0.5295
 1000MOL0     C37905   7.642   4.567   1.332 -0.5467 -0.2837 -0.3585
 1000MOL0     C37906   7.635   4.648   1.208 -0.6727 -1.3163 -0.7614
 1000MOL0    Cl37907   7.590   4.570   1.060 -0.3645  0.3019  0.3421
 1000MOL0     C37908   7.417   3.648   1.289 -0.3927  0.0669  0.3732
 1000MOL0     C37909   7.347   3.545   1.220  0.0324  0.2276 -1.1684
 1000MOL0     O37910   7.351   3.291   1.081  0.3976  0.6597  0.6182
 1000MOL0     C37911   7.206   3.112   0.930 -0.7884  0.4525 -0.4288
 1000MOL0     C37912   7.136   3.026   0.841 -0.0184 -1.1122  0.8530
 1000MOL0     N37913   6.392   2.773   0.498 -0.3225 -0.3428 -0.9071
 1000MOL0     N37914   6.307   2.682   0.536 -0.3284  0.4203 -0.1523
 1000MOL0     C37915   5.789   2.321   1.212  0.0587 -0.4046  1.5688
 1000MOL0     C37916   5.653   2.293   1.201 -0.6050  0.4000  0.0781
 1000MOL0     C37917   5.213   2.286   1.220 -0.1831  0.2593 -0.2649
 1000MOL0     C37918   5.146   2.181   1.155 -0.1312 -0.3875 -0.3384
 1000MOL0     C37919   5.010   2.169   1.162  0.3752  0.0235  1.1296
 1000MOL0     C37920   4.934   2.278   1.204  0.5391  0.6396  0.9704
 1000MOL0     O37921   4.794   2.284   1.207 -0.5658 -0.1206  0.3481
 1000MOL0     C37922   4.718   2.162   1.203 -0.6644  0.3754 -0.3142
 1000MOL0     C37923   4.588   2.182   1.135  0.2147  0.6307 -0.5121
 1000MOL0     C37924   4.487   2.256   1.231  0.2029  0.4260  0.8224
 1000MOL0     C37925   4.329   2.235   1.208  0.4963 -0.0498  0.1572
 1000MOL0     C37926   4.274   2.331   1.112  0.1782 -0.3828 -0.2700
 1000MOL0     C37927   4.238   2.391   1.014  1.3945  0.6997  0.1992
 1000MOL0     C37928   4.996   2.394   1.256 -0.8290 -0.2788  0.3138
 1000MOL0     C37929   5.141   2.402   1.262 -0.4325  0.5572 -0.3631
 1000MOL0     C37930   5.215   2.519   1.322 -0.5147  0.0192 -0.8053
 1000MOL0     H37931   5.541   2.610   1.230  2.4787  2.9868 -0.2872
 1000MOL0     H37932   5.774   2.663   1.219 -1.9757  0.0037 -0.3096
 1000MOL0     H37933   6.004   2.637   1.330 -0.4303  1.0524 -1.0538
 1000MOL0     H37934   6.034   2.637   1.159 -1.2779 -2.9222 -1.1541
 1000MOL0     H37935   6.241   2.609   1.346  0.5784  1.2039 -2.0393
 1000MOL0     H37936   6.196   2.443   1.338 -0.5686  0.4072  0.6507
 1000MOL0     H37937   6.245   2.581   1.080 -2.4700  0.1025  1.2942
 1000MOL0     H37938   6.386   2.527   1.178 -0.4213  1.8609 -1.5472
 1000MOL0     H37939   6.297   2.289   1.177 -0.1396 -1.6354 -1.1153
 1000MOL0     H37940   6.155   2.345   1.083 -0.9557  1.5316  0.6415
 1000MOL0     H37941   6.308   2.230   0.940  0.2241 -0.7284  1.2862
 1000MOL0     H37942   6.438   2.336   0.975  0.7261  0.6946  0.1343
 1000MOL0     H37943   6.187   2.435   0.825  1.4409  0.7953 -2.4848
 1000MOL0     H37944   6.314   2.535   0.865 -1.9703  0.2565  0.1078
 1000MOL0     H37945   6.345   2.265   0.724  1.6914 -1.4779  1.0022
 1000MOL0     H37946   6.480   2.386   0.735  0.0554  0.3873  1.6849
 1000MOL0     H37947   6.358   2.376   0.504  0.1203  1.9614 -1.3988
 1000MOL0     H37948   6.219   2.438   0.592  0.6704  1.0522  0.8449
 1000MOL0     H37949   6.593   2.533   0.597  0.9785  1.7326  1.7447
 1000MOL0     H37950   6.613   2.841   0.380 -1.8056  1.6268  1.9941
 1000MOL0     H37951   6.717   2.710   0.430  0.6392 -1.2779  0.7022
 1000MOL0     H37952   6.656   2.935   0.614 -1.4023 -1.3367 -0.2048
 1000MOL0     H37953   6.743   2.786   0.643  1.5123 -0.4245 -1.5601
 1000MOL0     H37954   6.930   2.841   0.515 -0.1235 -0.1547  1.2457
 1000MOL0     H37955   6.826   2.938   0.411 -0.5718 -0.2520 -0.2768
 1000MOL0     H37956   6.976   3.073   0.530  1.2426  0.7296  2.0173
 1000MOL0     H37957   6.809   3.099   0.595 -1.3135 -0.0944 -2.7784
 1000MOL0     H37958   6.858   3.225   0.797  0.3923 -0.4199 -2.1364
 1000MOL0     H37959   6.866   3.422   0.906  1.4276 -0.4730  0.0311
 1000MOL0     H37960   7.027   3.499   0.926  2.2907 -0.6782  0.3834
 1000MOL0     H37961   6.951   3.407   1.063  1.3281 -1.3399 -0.4790
 1000MOL0     H37962   7.312   3.700   0.909  0.4703  0.5741 -0.2047
 1000MOL0     H37963   7.434   3.868   1.021 -0.0925 -0.9267  1.1020
 1000MOL0     H37964   7.464   3.889   1.471  1.2583  0.8236  0.0881
 1000MOL0     H37965   7.592   3.775   1.451 -0.8761  0.2950  3.4420
 1000MOL0     H37966   7.695   3.963   1.549  1.2320  0.7866 -1.0807
 1000MOL0     H37967   7.752   3.932   1.384  0.2056  0.6415  0.0338
 1000MOL0     H37968   7.533   4.136   1.467  0.2949  0.0581  0.4520
 1000MOL0     H37969   7.609   4.112   1.304  0.0481 -1.9503 -0.3739
 1000MOL0     H37970   7.832   4.203   1.404  0.3880  3.4149 -1.2506
 1000MOL0     H37971   7.754   4.192   1.570 -1.8377  0.8358  0.8782
 1000MOL0     H37972   7.611   4.383   1.504  2.1578  4.2942  1.3269
 1000MOL0     H37973   7.781   4.401   1.519  0.0337 -0.6067  0.5478
 1000MOL0     H37974   7.632   4.374   1.240  1.4955  4.1898 -4.4667
 1000MOL0     H37975   7.794   4.434   1.268  0.7349  0.5713 -0.1527
 1000MOL0     H37976   7.705   4.606   1.412  0.0116 -2.2302  0.1935
 1000MOL0     H37977   7.538   4.547   1.358 -0.4368 -0.8334 -0.3364
 1000MOL0     H37978   7.729   4.703   1.195 -0.6754  0.2990  3.9942
 1000MOL0     H37979   7.566   4.731   1.229 -0.8881 -1.8640  0.8533
 1000MOL0     H37980   7.454   3.630   1.390  1.6404 -0.3702 -0.4045
 1000MOL0     H37981   7.319   3.457   1.277  1.3550 -0.5722 -1.7155
 1000MOL0     H37982   7.299   3.074   0.970 -1.6917 -1.5190 -0.0348
 1000MOL0     H37983   7.173   2.928   0.815  0.7021 -0.7501  0.5022
 1000MOL0     H37984   5.861   2.242   1.190  2.2189  1.2191  2.3711
 1000MOL0     H37985   5.622   2.191   1.181 -1.6950  0.4027  1.5866
 1000MOL0     H37986   5.200   2.096   1.115  0.2029 -0.2987 -0.0774
 1000MOL0     H37987   4.970   2.084   1.108 -0.5650 -0.6822  2.8823
 1000MOL0     H37988   4.774   2.086   1.148  1.2132  0.8412  0.8384
 1000MOL0     H37989   4.700   2.140   1.309  2.7611  0.1547  0.3397
 1000MOL0     H37990   4.550   2.081   1.115 -1.2123  0.4135  2.6669
 1000MOL0     H37991   4.608   2.239   1.044  0.6900  0.2416 -0.6540
 1000MOL0     H37992   4.514   2.232   1.334  1.2726  0.3073  0.5221
 1000MOL0     H37993   4.509   2.361   1.209 -1.4957  0.9872  1.6348
 1000MOL0     H37994   4.294   2.262   1.308  0.9169  0.1176  0.2606
 1000MOL0     H37995   4.315   2.128   1.188 -1.2855  0.4003 -1.2495
 1000MOL0     H37996   4.209   2.442   0.925  0.4430 -0.2847 -0.0694
 1000MOL0     H37997   4.940   2.484   1.281 -0.1988 -0.2980  1.9150
 1000MOL0     H37998   5.142   2.574   1.383  0.5488 -0.2903  0.7775
 1000MOL0     H37999   5.303   2.489   1.379 -0.4809 -1.3288 -1.5463
 1000MOL0     H38000   5.253   2.595   1.253 -1.1892  0.1414 -1.0579
 1001MOL0     O38001   5.281   7.191   5.227 -0.3975  0.1707  0.6759
 1001MOL0     C38002   5.282   7.207   5.344 -0.0876 -0.1253 -0.2827
 1001MOL0     O38003   5.391   7.261   5.407 -0.4009 -0.3716  0.3474
 1001MOL0     C38004   5.512   7.264   5.336  0.4235  0.2361  0.9069
 1001MOL0     C38005   5.563   7.386   5.318 -0.2723  0.1593  1.3279
 1001MOL0     C38006   5.665   7.415   5.229  0.5207 -0.3551  0.0168
 1001MOL0     C38007   5.718   7.311   5.152  0.1527 -0.6514  0.1715
 1001MOL0     O38008   5.810   7.334   5.055  0.5947  0.0638  0.6401
 1001MOL0     C38009   5.759   7.358   4.923 -0.0796 -0.8138  0.5680
 1001MOL0     C38010   5.801   7.490   4.864  0.2810  0.0479  0.1326
 1001MOL0     C38011   5.951   7.520   4.862 -0.6680  0.1357  0.4535
 1001MOL0     C38012   6.040   7.439   4.768  0.0143 -0.4183 -0.2279
 1001MOL0     C38013   6.188   7.459   4.794  0.2231 -0.5781  0.5465
 1001MOL0     C38014   6.235   7.381   4.921 -0.5927 -0.7145  0.1962
 1001MOL0     C38015   6.374   7.439   4.966  0.6407  0.3520  0.3234
 1001MOL0     C38016   6.479   7.460   4.855 -0.7001 -0.4648  0.9326
 1001MOL0     N38017   6.585   7.545   4.907  0.4207 -0.1762  0.1310
 1001MOL0     C38018   6.616   7.667   4.857  0.2590 -0.1434  0.2241
 1001MOL0     C38019   6.723   7.702   4.919 -0.1619 -0.0297  0.8437
 1001MOL0     C38020   6.787   7.838   4.900  0.2119  0.4153 -1.1586
 1001MOL0     C38021   6.926   7.828   4.842 -0.0448 -0.2719 -0.5948
 1001MOL0     C38022   7.010   7.957   4.851 -0.4917  0.4624  0.4859
 1001MOL0     C38023   7.156   7.935   4.913 -0.1009  0.0771  0.3848
 1001MOL0     O38024   7.136   7.935   5.059 -0.2381  0.3050  0.1889
 1001MOL0     C38025   7.228   7.870   5.133 -0.7246 -0.7962  0.6524
 1001MOL0     C38026   7.192   7.849   5.263 -0.2327 -0.2737  0.1717
 1001MOL0     C38027   7.281   7.803   5.359  0.4753  0.4560  0.7131
 1001MOL0     C38028   7.224   7.780   5.501 -0.1238  0.1992  0.2582
 1001MOL0     C38029   7.417   7.770   5.317  0.8018 -1.0352 -0.2509
 1001MOL0     C38030   7.530   7.720   5.393 -0.4224  1.1809 -0.6049
 1001MOL0     O38031   7.620   7.642   5.331 -0.6569 -0.5497 -0.0148
 1001MOL0     C38032   7.732   7.585   5.382 -0.4714  0.3855 -0.4834
 1001MOL0     C38033   7.734   7.523   5.513  0.0069 -0.4590  0.3979
 1001MOL0     C38034   7.854   7.471   5.557  0.2100  0.2967 -0.1018
 1001MOL0     C38035   7.969   7.482   5.488  0.5941  0.7152  0.4581
 1001MOL0     O38036   8.092   7.421   5.530  0.7802 -0.6012 -0.4050
 1001MOL0     C38037   8.090   7.322   5.628 -0.4434 -0.5439  0.2436
 1001MOL0     C38038   8.049   7.178   5.577 -0.0502  0.3897 -0.6687
 1001MOL0     C38039   7.900   7.147   5.559 -0.1157  0.1065 -0.5270
 1001MOL0     C38040   7.863   7.000   5.523 -0.1223 -0.0977  0.3083
 1001MOL0     C38041   7.712   6.987   5.544 -0.0087  0.3171  0.3912
 1001MOL0     C38042   7.631   7.009   5.412 -0.1211 -1.1249  1.2160
 1001MOL0     C38043   7.484   6.969   5.425 -0.6427 -0.2000 -0.6020
 1001MOL0     C38044   7.411   7.022   5.306  0.3228 -0.3196 -0.5656
 1001MOL0    Cl38045   7.476   6.959   5.155  0.0969  0.1162  0.6935
 1001MOL0     C38046   7.969   7.537   5.362 -0.1205 -0.3260  0.0193
 1001MOL0     C38047   7.852   7.593   5.311 -0.0712 -0.3393  1.0455
 1001MOL0     O38048   7.535   7.753   5.511  0.4962 -0.8066 -0.1875
 1001MOL0     C38049   7.441   7.779   5.178 -0.3710 -0.2394  0.3973
 1001MOL0     C38050   7.348   7.816   5.086 -0.2727  0.2786  0.6215
 1001MOL0     N38051   6.757   7.607   5.015 -0.1027 -0.5177  0.1786
 1001MOL0     N38052   6.668   7.510   5.007  0.1334 -0.7282  0.1722
 1001MOL0     C38053   5.674   7.185   5.168  0.5046  0.0947 -0.1656
 1001MOL0     C38054   5.571   7.154   5.270 -0.5521  0.1824  1.4897
 1001MOL0     C38055   5.158   7.175   5.417  0.0082 -0.0528 -0.7228
 1001MOL0     C38056   5.153   7.225   5.550 -0.3184 -0.6655 -0.4726
 1001MOL0     C38057   5.047   7.207   5.640  0.6910 -0.0027  0.0137
 1001MOL0     C38058   4.944   7.123   5.597 -0.8298  0.7229  0.2617
 1001MOL0     O38059   4.838   7.096   5.678  0.1218  0.1419  0.1410
 1001MOL0     C38060   4.824   7.156   5.807  0.1063  1.2408  0.7999
 1001MOL0     C38061   4.901   7.064   5.899  0.2811  0.4760 -0.8847
 1001MOL0     C38062   4.928   7.119   6.037  0.6836  0.7379  0.0635
 1001MOL0     C38063   4.808   7.125   6.121 -0.0440 -0.0075  0.6673
 1001MOL0     C38064   4.842   7.118   6.264 -0.2175 -0.5903 -0.4530
 1001MOL0     C38065   4.881   7.122   6.375  0.6428 -0.7006  0.1319
 1001MOL0     C38066   4.963   7.054   5.474  0.1408 -0.3125  0.0317
 1001MOL0     C38067   5.054   7.084   5.381  0.0621 -0.2156 -0.2429
 1001MOL0     C38068   5.061   6.996   5.256 -0.0641 -0.5272 -0.0358
 1001MOL0     H38069   5.520   7.462   5.382  2.2100 -0.0092  3.3451
 1001MOL0     H38070   5.698   7.518   5.215 -0.6544  0.0648  0.2130
 1001MOL0     H38071   5.650   7.354   4.911  0.1022 -0.4436 -1.7566
 1001MOL0     H38072   5.807   7.282   4.861  0.8242 -1.1972  1.7096
 1001MOL0     H38073   5.769   7.488   4.760  2.1662 -0.9493 -0.4683
 1001MOL0     H38074   5.758   7.569   4.927  3.7585 -0.4040  3.4888
 1001MOL0     H38075   5.960   7.623   4.829 -1.4177 -0.3375 -1.3303
 1001MOL0     H38076   5.995   7.519   4.963 -0.3710 -1.2638  0.3365
 1001MOL0     H38077   6.016   7.334   4.785  0.6469 -0.2228  2.2727
 1001MOL0     H38078   6.016   7.475   4.668  0.2272  0.3697 -0.0016
 1001MOL0     H38079   6.204   7.567   4.806 -3.9667  0.0568  2.1486
 1001MOL0     H38080   6.231   7.417   4.703 -1.0750  1.6124 -1.1955
 1001MOL0     H38081   6.165   7.390   5.005  0.9006  0.8256  1.3517
 1001MOL0     H38082   6.261   7.277   4.900  0.7375  0.0100 -2.0892
 1001MOL0     H38083   6.415   7.366   5.036  2.1359  1.9142  1.1559
 1001MOL0     H38084   6.364   7.533   5.021 -0.9390 -1.3586  3.1794
 1001MOL0     H38085   6.516   7.365   4.816  1.0059  0.9987 -1.2666
 1001MOL0     H38086   6.440   7.526   4.777 -1.2541 -3.9459 -2.0293
 1001MOL0     H38087   6.562   7.717   4.777  2.1737 -0.5133 -1.3789
 1001MOL0     H38088   6.801   7.876   5.001 -0.5845  3.1311 -1.9796
 1001MOL0     H38089   6.713   7.904   4.854 -1.8762 -0.1382  1.1611
 1001MOL0     H38090   6.985   7.745   4.882 -0.1756  0.5349  1.3800
 1001MOL0     H38091   6.916   7.815   4.734  0.6813  0.4850 -0.7601
 1001MOL0     H38092   7.020   7.994   4.748  1.1519 -0.7163  0.1829
 1001MOL0     H38093   6.957   8.035   4.907 -0.8576  1.4745 -1.1984
 1001MOL0     H38094   7.196   7.842   4.872  0.7494  0.2386  0.8204
 1001MOL0     H38095   7.204   8.029   4.885 -1.6059  0.0302 -2.7338
 1001MOL0     H38096   7.088   7.870   5.288 -0.5030 -1.5889  0.2325
 1001MOL0     H38097   7.246   7.689   5.556 -1.3500  0.2942  0.9371
 1001MOL0     H38098   7.116   7.794   5.491 -0.3937 -1.8172  0.0064
 1001MOL0     H38099   7.260   7.861   5.565 -2.0829 -0.5020  2.3648
 1001MOL0     H38100   7.646   7.520   5.576 -0.4876  0.0311 -0.2491
 1001MOL0     H38101   7.846   7.421   5.653  1.4123  3.0799  1.5464
 1001MOL0     H38102   8.197   7.309   5.647 -0.5670 -2.5769 -0.2300
 1001MOL0     H38103   8.043   7.352   5.723  0.1624  0.5781  0.2020
 1001MOL0     H38104   8.091   7.153   5.480  1.5564 -0.2092  0.1558
 1001MOL0     H38105   8.083   7.100   5.645 -2.2267 -2.0505 -2.1644
 1001MOL0     H38106   7.860   7.216   5.485 -0.8135 -1.4333 -1.6370
 1001MOL0     H38107   7.850   7.164   5.655 -0.6992 -0.7724 -0.6642
 1001MOL0     H38108   7.915   6.929   5.588 -2.7484 -2.0409  0.4450
 1001MOL0     H38109   7.898   6.982   5.421 -3.9338  0.9260 -1.3636
 1001MOL0     H38110   7.701   6.886   5.585  1.1251 -0.2773 -0.6592
 1001MOL0     H38111   7.673   7.062   5.613 -3.4050 -1.9324  1.1625
 1001MOL0     H38112   7.676   6.955   5.329  0.7529  0.3685  0.6759
 1001MOL0     H38113   7.628   7.118   5.403  2.0613 -1.1479 -0.8012
 1001MOL0     H38114   7.440   7.019   5.512 -1.9574  0.7390 -1.7537
 1001MOL0     H38115   7.475   6.860   5.429 -0.2124 -0.3055 -1.9092
 1001MOL0     H38116   7.416   7.131   5.303 -2.4671 -0.1235 -2.2615
 1001MOL0     H38117   7.305   6.998   5.319  0.5773 -0.3780  1.8233
 1001MOL0     H38118   8.064   7.554   5.312 -1.3887  0.4437 -2.3194
 1001MOL0     H38119   7.849   7.641   5.213 -2.3376  1.0606  1.7058
 1001MOL0     H38120   7.536   7.746   5.136 -0.4499  0.5552 -0.4246
 1001MOL0     H38121   7.387   7.807   4.985  0.4426 -0.4404  0.9529
 1001MOL0     H38122   5.716   7.104   5.110 -0.4436 -1.9100  1.7709
 1001MOL0     H38123   5.529   7.054   5.275  2.1347 -1.1028  0.7235
 1001MOL0     H38124   5.242   7.280   5.580  1.0147 -1.9494 -1.8640
 1001MOL0     H38125   5.061   7.250   5.738 -0.7200 -0.2915  0.3712
 1001MOL0     H38126   4.859   7.259   5.819 -0.4581  1.9528 -2.5559
 1001MOL0     H38127   4.716   7.160   5.828 -0.3904 -0.4057 -1.1044
 1001MOL0     H38128   4.999   7.034   5.860  0.4662  0.1558 -0.1918
 1001MOL0     H38129   4.838   6.974   5.909 -0.4403  0.8700 -1.7198
 1001MOL0     H38130   5.004   7.050   6.073  1.6085  2.7709  2.3113
 1001MOL0     H38131   4.978   7.217   6.038  0.3820  0.8949 -0.0622
 1001MOL0     H38132   4.737   7.045   6.101  1.2143 -0.8168 -0.6863
 1001MOL0     H38133   4.754   7.216   6.091 -0.8070 -1.1593 -1.6382
 1001MOL0     H38134   4.911   7.146   6.475 -1.0500  2.1065  0.0650
 1001MOL0     H38135   4.890   6.977   5.451 -1.8056  1.1893  0.8789
 1001MOL0     H38136   4.994   6.910   5.265 -1.6537  0.7598  1.1905
 1001MOL0     H38137   5.022   7.061   5.177  1.8850  0.7674 -0.0231
 1001MOL0     H38138   5.164   6.971   5.230 -1.0498 -0.4357 -4.9340
 1002MOL0     O38139   5.214   0.189  10.433  0.2383  0.3769  0.3130
 1002MOL0     C38140   5.332   0.216  10.427  0.3044  1.2060 -0.1740
 1002MOL0     O38141   5.418   0.234  10.538  0.2502  0.0972  0.2174
 1002MOL0     C38142   5.372   0.214  10.653  0.6301 -0.5518 -0.5670
 1002MOL0     C38143   5.396   0.089  10.716 -0.4460 -0.5410 -0.1614
 1002MOL0     C38144   5.364   0.077  10.852  0.1657  0.3658  0.5095
 1002MOL0     C38145   5.303   0.178  10.925 -0.8177  0.7252  0.0576
 1002MOL0     O38146   5.262   0.153  11.057  0.0358 -0.2268  0.4123
 1002MOL0     C38147   5.191   0.259  11.126  0.0848  0.5466 -0.2176
 1002MOL0     C38148   5.170   0.207  11.265  0.4631 -0.7531 -0.6094
 1002MOL0     C38149   5.299   0.168  11.345 -0.5192  0.2960 -0.3344
 1002MOL0     C38150   5.266   0.076  11.463 -0.3482  0.5900 -0.3171
 1002MOL0     C38151   5.197   0.148  11.581  0.7654  0.2137 -0.1893
 1002MOL0     C38152   5.164   0.051  11.693  0.5311  0.4937 -0.4535
 1002MOL0     C38153   5.061  -0.059  11.669 -0.3392 -0.6518 -0.1621
 1002MOL0     C38154   4.937  -0.007  11.609  0.3225 -0.5089 -0.3687
 1002MOL0     N38155   4.835  -0.107  11.574 -0.1554 -0.3766  0.6930
 1002MOL0     C38156   4.860  -0.215  11.488  0.7054 -0.9871 -0.2084
 1002MOL0     C38157   4.744  -0.272  11.469 -1.0386  0.0898 -0.9856
 1002MOL0     C38158   4.712  -0.375  11.366  0.8362 -0.7903 -0.3992
 1002MOL0     C38159   4.613  -0.311  11.271  0.2174 -0.1759  0.1599
 1002MOL0     C38160   4.607  -0.366  11.123  0.3296  0.0170  0.3025
 1002MOL0     C38161   4.733  -0.336  11.040  0.3973  0.0076  0.2181
 1002MOL0     O38162   4.717  -0.393  10.905  1.1337  0.0891 -0.1120
 1002MOL0     C38163   4.631  -0.330  10.814 -1.1240  0.4048  0.3107
 1002MOL0     C38164   4.563  -0.408  10.723  0.2798 -0.3849  0.3400
 1002MOL0     C38165   4.466  -0.352  10.632 -0.1191 -0.2155  0.6894
 1002MOL0     C38166   4.406  -0.461  10.535 -0.4029  0.0978  0.1128
 1002MOL0     C38167   4.464  -0.206  10.621 -0.0422 -0.2920  0.8156
 1002MOL0     C38168   4.391  -0.134  10.520  1.1511 -0.1822 -0.2035
 1002MOL0     O38169   4.333  -0.207  10.417  0.1067  0.2167 -0.2260
 1002MOL0     C38170   4.251  -0.152  10.321  0.2974  0.3180 -0.2522
 1002MOL0     C38171   4.265  -0.025  10.268  0.6050  1.0530 -0.3534
 1002MOL0     C38172   4.175   0.024  10.171 -0.3147  0.7996 -0.5755
 1002MOL0     C38173   4.067  -0.057  10.134 -0.2966 -0.1410  0.1524
 1002MOL0     O38174   3.964  -0.010  10.059  0.1236  0.1827 -0.6024
 1002MOL0     C38175   3.970  -0.052   9.927 -0.3016 -0.3937  0.2100
 1002MOL0     C38176   4.055   0.033   9.834  0.3769 -0.2203 -0.7218
 1002MOL0     C38177   3.966   0.158   9.817  0.6732  0.1405  0.9051
 1002MOL0     C38178   4.032   0.251   9.707 -0.0925 -0.1164  0.5853
 1002MOL0     C38179   3.985   0.396   9.722  0.3030  0.3589 -0.3482
 1002MOL0     C38180   4.038   0.484   9.601 -0.6223  0.0682  0.3262
 1002MOL0     C38181   4.067   0.632   9.635 -0.2348  0.1628  0.5397
 1002MOL0     C38182   3.967   0.718   9.713  0.4164  0.2683 -0.0751
 1002MOL0    Cl38183   3.820   0.752   9.608  0.1435  0.2925  0.4180
 1002MOL0     C38184   4.055  -0.184  10.191  0.4241 -0.0864 -0.0085
 1002MOL0     C38185   4.144  -0.226  10.282 -0.2881 -0.1793 -0.4762
 1002MOL0     O38186   4.363  -0.016  10.541 -0.5032  0.0740 -0.5726
 1002MOL0     C38187   4.547  -0.130  10.704  0.3611 -0.3727  0.0734
 1002MOL0     C38188   4.622  -0.192  10.808  0.3396  1.3193 -0.5738
 1002MOL0     N38189   4.651  -0.209  11.554  0.2245 -0.4464  0.1435
 1002MOL0     N38190   4.706  -0.108  11.619 -0.1691  0.4698  0.4432
 1002MOL0     C38191   5.289   0.301  10.856  0.5328 -0.0883 -0.7690
 1002MOL0     C38192   5.328   0.319  10.726  0.1343  0.1589  0.1569
 1002MOL0     C38193   5.394   0.242  10.290 -0.2553 -0.0616 -0.5617
 1002MOL0     C38194   5.512   0.320  10.286 -0.5765 -0.7259  0.5404
 1002MOL0     C38195   5.582   0.328  10.166  0.2219 -0.5520  1.4189
 1002MOL0     C38196   5.529   0.284  10.050  0.0453 -1.0496 -0.1192
 1002MOL0     O38197   5.611   0.301   9.936  0.1642 -0.5111 -0.6541
 1002MOL0     C38198   5.567   0.264   9.808 -0.2778  0.0586  0.3081
 1002MOL0     C38199   5.575   0.111   9.770 -0.0834  0.0693  0.9791
 1002MOL0     C38200   5.711   0.042   9.758  0.7910  0.7397  0.0103
 1002MOL0     C38201   5.791   0.096   9.646  0.8817  0.6684  1.1435
 1002MOL0     C38202   5.930   0.061   9.656  0.7062 -0.7413 -0.8566
 1002MOL0     C38203   6.037   0.010   9.670  0.0083  0.1407 -0.1311
 1002MOL0     C38204   5.401   0.223  10.051  0.3789 -0.3101  0.4348
 1002MOL0     C38205   5.331   0.201  10.169  1.0715  1.0452  0.3051
 1002MOL0     C38206   5.206   0.120  10.158  0.0275  0.4775  1.1114
 1002MOL0     H38207   5.442   0.009  10.660 -1.2172 -1.0287 -0.1072
 1002MOL0     H38208   5.394  -0.016  10.899  0.1162 -1.1902 -2.3078
 1002MOL0     H38209   5.096   0.256  11.073  0.6348 -3.2227 -1.2874
 1002MOL0     H38210   5.244   0.354  11.131  3.8432 -1.3857  0.7862
 1002MOL0     H38211   5.111   0.276  11.326 -2.1740 -1.5634 -2.0632
 1002MOL0     H38212   5.106   0.120  11.248 -0.2321 -0.2640 -0.5516
 1002MOL0     H38213   5.370   0.119  11.279  0.4727 -3.3846  3.1185
 1002MOL0     H38214   5.343   0.260  11.384 -0.4398  0.7876 -1.5399
 1002MOL0     H38215   5.202  -0.006  11.429 -1.8626  0.4846  2.5041
 1002MOL0     H38216   5.355   0.037  11.511 -1.6216 -3.0372 -0.5988
 1002MOL0     H38217   5.115   0.211  11.545  2.1718  1.4868 -1.3307
 1002MOL0     H38218   5.266   0.224  11.618 -0.8865  0.6756  2.1459
 1002MOL0     H38219   5.254   0.002  11.731  0.0443  1.3660  1.9607
 1002MOL0     H38220   5.116   0.105  11.774 -1.2046 -1.6492  0.0361
 1002MOL0     H38221   5.033  -0.114  11.759  2.9547 -1.3587  0.5574
 1002MOL0     H38222   5.117  -0.124  11.601  1.0876  3.7051 -3.7064
 1002MOL0     H38223   4.880   0.056  11.679  0.4835 -1.5979  0.7659
 1002MOL0     H38224   4.943   0.045  11.513 -3.8386 -0.5711 -0.8820
 1002MOL0     H38225   4.952  -0.246  11.439  0.1663 -2.5023 -0.3211
 1002MOL0     H38226   4.659  -0.460  11.412 -0.5107  0.1894 -0.0719
 1002MOL0     H38227   4.798  -0.415  11.313 -1.5412 -1.0301 -4.4991
 1002MOL0     H38228   4.517  -0.312  11.322  0.1178  0.8590  0.0155
 1002MOL0     H38229   4.647  -0.208  11.256  1.6616 -0.6270  0.1833
 1002MOL0     H38230   4.592  -0.474  11.127  1.7365 -0.2479 -0.4937
 1002MOL0     H38231   4.518  -0.330  11.071 -1.6120 -3.2946  0.9987
 1002MOL0     H38232   4.748  -0.229  11.024 -0.5487  0.1416  0.1730
 1002MOL0     H38233   4.827  -0.357  11.093  0.6549 -0.1958 -0.3133
 1002MOL0     H38234   4.581  -0.515  10.717 -0.3214 -0.5578  1.4182
 1002MOL0     H38235   4.408  -0.555  10.591 -0.5472  0.8777  1.4700
 1002MOL0     H38236   4.456  -0.475  10.439 -1.8001  0.1524 -0.6433
 1002MOL0     H38237   4.305  -0.423  10.514  0.2340  0.9540 -1.6079
 1002MOL0     H38238   4.340   0.035  10.319 -0.0093  0.9907  0.6476
 1002MOL0     H38239   4.183   0.123  10.129 -0.4984  1.1896  0.2752
 1002MOL0     H38240   4.016  -0.152   9.924  4.3068  1.3925  1.7310
 1002MOL0     H38241   3.871  -0.082   9.893 -0.7616 -0.6432  1.6962
 1002MOL0     H38242   4.146   0.063   9.887 -1.2392 -0.2853  2.2526
 1002MOL0     H38243   4.068  -0.020   9.738  0.9387 -0.8540 -0.3059
 1002MOL0     H38244   3.956   0.207   9.915  0.9490 -2.1728  2.1527
 1002MOL0     H38245   3.868   0.128   9.780  0.3180 -2.1961  3.4622
 1002MOL0     H38246   4.015   0.213   9.606  0.9273  2.1925 -0.5414
 1002MOL0     H38247   4.141   0.257   9.718 -0.1040  1.8547 -0.0804
 1002MOL0     H38248   3.877   0.386   9.727  0.5460 -3.5078  0.3044
 1002MOL0     H38249   4.024   0.425   9.820  1.8951  0.5021 -0.9872
 1002MOL0     H38250   3.956   0.479   9.528  0.3753 -0.1829 -0.7996
 1002MOL0     H38251   4.129   0.442   9.559  0.1267  2.3903 -0.4896
 1002MOL0     H38252   4.081   0.683   9.539  0.7275  0.9653  1.0858
 1002MOL0     H38253   4.162   0.641   9.688 -0.2876  0.4095  0.5958
 1002MOL0     H38254   4.009   0.812   9.751 -1.9495  0.9892  0.9166
 1002MOL0     H38255   3.933   0.666   9.803  3.2813  0.2065  1.0775
 1002MOL0     H38256   3.972  -0.246  10.157 -0.5165  0.6204  0.9355
 1002MOL0     H38257   4.125  -0.324  10.324 -0.9692 -0.8803 -2.3131
 1002MOL0     H38258   4.554  -0.023  10.687 -2.0426  0.0854  1.4804
 1002MOL0     H38259   4.676  -0.131  10.879  0.7280 -0.0409  0.3431
 1002MOL0     H38260   5.260   0.389  10.914  1.8352  0.2118 -0.5400
 1002MOL0     H38261   5.317   0.416  10.677  1.8959  0.4517  0.2895
 1002MOL0     H38262   5.567   0.333  10.378  0.8266  1.6175 -0.5460
 1002MOL0     H38263   5.684   0.364  10.167  1.3863 -3.6067  1.8219
 1002MOL0     H38264   5.466   0.304   9.804  0.2427  1.4424  0.3483
 1002MOL0     H38265   5.632   0.328   9.748  1.0995  1.3881  3.0017
 1002MOL0     H38266   5.516   0.108   9.678 -0.5853  5.0796  0.8609
 1002MOL0     H38267   5.519   0.046   9.839  3.0865 -3.3347  0.6591
 1002MOL0     H38268   5.763   0.062   9.853  1.0600  0.8159 -0.1534
 1002MOL0     H38269   5.698  -0.066   9.746 -2.1796  0.9512  0.4699
 1002MOL0     H38270   5.784   0.204   9.630 -0.0121  0.5756  0.8718
 1002MOL0     H38271   5.760   0.051   9.551 -0.1785  2.3757  0.6255
 1002MOL0     H38272   6.123  -0.053   9.687 -0.0393 -0.1084 -0.7988
 1002MOL0     H38273   5.361   0.200   9.953 -0.3350  2.2590  0.0553
 1002MOL0     H38274   5.196   0.067  10.063 -0.6945  1.1278  0.8210
 1002MOL0     H38275   5.199   0.047  10.239  0.8892 -0.6934  0.1642
 1002MOL0     H38276   5.127   0.196  10.161  0.8172  1.3193  1.0363
 1003MOL0     O38277   2.479   1.878   3.130  0.2985  0.0906  0.3514
 1003MOL0     C38278   2.411   1.908   3.229 -0.1635  0.4866 -0.1089
 1003MOL0     O38279   2.444   2.010   3.316 -0.3911  0.5090 -0.4129
 1003MOL0     C38280   2.541   2.091   3.280  0.2272  0.3408  0.2617
 1003MOL0     C38281   2.503   2.224   3.250 -0.0927  0.1982 -0.0363
 1003MOL0     C38282   2.598   2.327   3.221 -0.4862 -0.8296 -0.2142
 1003MOL0     C38283   2.735   2.292   3.229 -0.3008 -0.0724 -0.3606
 1003MOL0     O38284   2.832   2.382   3.183  0.0296 -0.2598 -0.4761
 1003MOL0     C38285   2.815   2.453   3.057 -0.0226  0.3477 -0.3221
 1003MOL0     C38286   2.827   2.365   2.929 -0.5055 -0.0131 -0.4928
 1003MOL0     C38287   2.694   2.286   2.913 -0.8384 -0.1859 -0.0082
 1003MOL0     C38288   2.697   2.216   2.779  1.1935  0.0354 -0.2806
 1003MOL0     C38289   2.588   2.106   2.763  0.2387  0.0271  0.2069
 1003MOL0     C38290   2.453   2.170   2.765  0.9093  0.6518  0.1372
 1003MOL0     C38291   2.341   2.062   2.776  0.7112  0.3850  0.3229
 1003MOL0     C38292   2.337   1.966   2.660  0.1554  1.0019  0.3284
 1003MOL0     N38293   2.317   2.030   2.526  0.5738  0.3849  0.0266
 1003MOL0     C38294   2.263   2.155   2.504 -0.6587  0.6293 -0.5412
 1003MOL0     C38295   2.237   2.166   2.371  0.0976  0.4928  0.4968
 1003MOL0     C38296   2.164   2.283   2.305 -0.0550 -0.1253 -0.2744
 1003MOL0     C38297   2.264   2.401   2.255  0.4481  0.3000 -0.2715
 1003MOL0     C38298   2.321   2.465   2.387  0.2164 -0.1038  0.4183
 1003MOL0     C38299   2.391   2.598   2.346 -0.2203 -0.2381 -0.1113
 1003MOL0     O38300   2.506   2.574   2.264  0.2156 -0.2896  0.1967
 1003MOL0     C38301   2.585   2.674   2.223 -0.3115  0.4329 -0.2967
 1003MOL0     C38302   2.576   2.807   2.233  0.2227  0.7971 -0.8424
 1003MOL0     C38303   2.687   2.898   2.209  0.1228  0.7520 -0.0307
 1003MOL0     C38304   2.658   3.045   2.230 -0.3345  0.5480  0.1474
 1003MOL0     C38305   2.810   2.849   2.168  0.0674  0.0148 -0.2353
 1003MOL0     C38306   2.915   2.943   2.159 -0.3062  0.2004  0.2667
 1003MOL0     O38307   2.963   2.999   2.267 -0.0247 -0.3162 -0.6804
 1003MOL0     C38308   3.066   3.081   2.249  0.2730  0.9346  0.2980
 1003MOL0     C38309   3.055   3.203   2.183 -1.2857  0.6130 -0.0395
 1003MOL0     C38310   3.166   3.290   2.164 -0.1084  0.3636  0.3261
 1003MOL0     C38311   3.293   3.240   2.197 -0.4956  0.0101  0.1493
 1003MOL0     O38312   3.404   3.316   2.161 -0.0684 -0.5395  0.0009
 1003MOL0     C38313   3.434   3.416   2.256 -0.6571 -0.4974 -0.5030
 1003MOL0     C38314   3.522   3.357   2.367 -0.1940  0.0417  0.3262
 1003MOL0     C38315   3.636   3.286   2.302  0.6513  0.0763  0.4903
 1003MOL0     C38316   3.774   3.287   2.370 -0.5847 -0.0890 -0.3416
 1003MOL0     C38317   3.840   3.431   2.367  0.2383 -0.1499  0.2706
 1003MOL0     C38318   3.969   3.450   2.441  0.3695 -0.7467 -0.1002
 1003MOL0     C38319   4.078   3.336   2.421 -0.6918 -0.4375  0.2646
 1003MOL0     C38320   4.221   3.378   2.453  0.2391  0.5059  0.1435
 1003MOL0    Cl38321   4.266   3.368   2.623 -0.3549  0.2998 -0.0941
 1003MOL0     C38322   3.308   3.117   2.260  0.0548  0.3986 -0.5818
 1003MOL0     C38323   3.201   3.043   2.294  0.1612 -0.1311  0.4325
 1003MOL0     O38324   2.948   2.972   2.043 -1.0509 -0.3669 -0.9370
 1003MOL0     C38325   2.815   2.714   2.138  1.1698 -0.0656 -0.0115
 1003MOL0     C38326   2.700   2.630   2.150  0.2648  0.3463 -0.1689
 1003MOL0     N38327   2.280   2.049   2.310 -0.3308 -0.1780  0.5754
 1003MOL0     N38328   2.342   1.973   2.401 -0.9890  1.0816  0.3327
 1003MOL0     C38329   2.769   2.163   3.261  0.8441  0.3856 -0.0050
 1003MOL0     C38330   2.675   2.068   3.294 -0.1690  1.2053 -0.6205
 1003MOL0     C38331   2.299   1.818   3.274  0.2968 -0.2485  0.3223
 1003MOL0     C38332   2.257   1.808   3.409 -0.2085  0.7159  0.1377
 1003MOL0     C38333   2.155   1.724   3.455 -0.5789  0.4948  0.0179
 1003MOL0     C38334   2.078   1.663   3.355 -0.9075 -0.0770  0.8341
 1003MOL0     O38335   1.984   1.575   3.390  0.5234 -0.6512 -0.6131
 1003MOL0     C38336   1.968   1.533   3.534  0.1842  0.5414  0.9762
 1003MOL0     C38337   1.836   1.454   3.530 -0.2967  0.4626  0.9813
 1003MOL0     C38338   1.722   1.536   3.483  0.1830  0.2482  0.0074
 1003MOL0     C38339   1.701   1.661   3.571  0.0204 -0.4523 -0.6180
 1003MOL0     C38340   1.602   1.735   3.496 -0.6848  0.6144 -0.2714
 1003MOL0     C38341   1.519   1.788   3.427  0.2188 -0.1690  0.1604
 1003MOL0     C38342   2.097   1.686   3.215  0.5698 -0.3877 -1.3098
 1003MOL0     C38343   2.214   1.751   3.177  0.1301 -0.4861 -0.2909
 1003MOL0     C38344   2.216   1.777   3.027 -0.0739 -0.5499 -0.9497
 1003MOL0     H38345   2.397   2.247   3.262 -0.5953 -1.8108 -0.2657
 1003MOL0     H38346   2.560   2.427   3.206 -2.0071 -1.4494 -0.7057
 1003MOL0     H38347   2.893   2.529   3.044 -0.6088  1.1069  0.4641
 1003MOL0     H38348   2.721   2.508   3.052 -0.8735 -1.0825 -0.4790
 1003MOL0     H38349   2.830   2.430   2.841 -0.6965 -1.4799 -1.6159
 1003MOL0     H38350   2.911   2.294   2.933 -0.5316 -0.0824 -1.1256
 1003MOL0     H38351   2.698   2.206   2.987  0.3421  1.5849  1.9626
 1003MOL0     H38352   2.604   2.344   2.934 -0.5608 -0.4767  2.1648
 1003MOL0     H38353   2.691   2.286   2.695  1.9137 -4.0797 -4.1454
 1003MOL0     H38354   2.780   2.148   2.759 -0.7480 -1.8869 -2.4053
 1003MOL0     H38355   2.607   2.038   2.847 -0.6853 -1.8198 -1.0217
 1003MOL0     H38356   2.601   2.053   2.669  1.2428  1.7859 -0.7019
 1003MOL0     H38357   2.443   2.228   2.857  3.2824  1.1685  0.1337
 1003MOL0     H38358   2.446   2.234   2.677 -1.1899  0.1436 -0.1221
 1003MOL0     H38359   2.244   2.114   2.780  0.0002 -0.9585  1.2344
 1003MOL0     H38360   2.357   2.013   2.872 -3.2121 -1.5435  0.2126
 1003MOL0     H38361   2.422   1.898   2.667 -0.4090  0.2709  0.1222
 1003MOL0     H38362   2.256   1.893   2.663 -0.5717  1.6801 -1.4880
 1003MOL0     H38363   2.233   2.229   2.578 -0.7198 -1.5880  1.7835
 1003MOL0     H38364   2.097   2.327   2.379 -1.7178 -2.3359 -0.3531
 1003MOL0     H38365   2.108   2.249   2.217 -0.6573 -0.8061  0.3552
 1003MOL0     H38366   2.339   2.351   2.193 -1.1842 -0.8723 -1.4200
 1003MOL0     H38367   2.201   2.472   2.201  1.1665  2.3537  1.4938
 1003MOL0     H38368   2.244   2.494   2.459  0.5049 -1.8109  1.4753
 1003MOL0     H38369   2.391   2.398   2.438 -1.8486 -3.2330 -0.5157
 1003MOL0     H38370   2.330   2.684   2.314  3.0330  1.8276 -1.2004
 1003MOL0     H38371   2.431   2.633   2.442 -0.1118 -1.1394  0.1806
 1003MOL0     H38372   2.488   2.858   2.271  0.8372  2.1039 -1.0951
 1003MOL0     H38373   2.551   3.064   2.242 -0.9060  1.0565 -4.1261
 1003MOL0     H38374   2.692   3.107   2.147  1.2008  1.4759  1.3976
 1003MOL0     H38375   2.699   3.076   2.326 -3.2045  0.2481  1.5741
 1003MOL0     H38376   2.959   3.234   2.145 -0.8535  0.1059 -1.6107
 1003MOL0     H38377   3.158   3.374   2.096  1.1183  0.1792 -0.0614
 1003MOL0     H38378   3.491   3.496   2.207 -1.0420  0.0130 -0.1284
 1003MOL0     H38379   3.345   3.469   2.292 -1.0019 -1.0893 -0.4825
 1003MOL0     H38380   3.555   3.436   2.436  1.2173  1.1753 -1.5659
 1003MOL0     H38381   3.453   3.291   2.421 -1.7917  0.9874 -0.4932
 1003MOL0     H38382   3.653   3.318   2.199 -0.2620 -0.8618  0.0288
 1003MOL0     H38383   3.613   3.180   2.296  2.8903 -0.3931 -3.0221
 1003MOL0     H38384   3.838   3.222   2.309 -0.2093  0.4798 -0.5608
 1003MOL0     H38385   3.751   3.260   2.473 -1.9578  1.6986 -0.1302
 1003MOL0     H38386   3.861   3.465   2.265 -2.0519 -0.5900 -0.4002
 1003MOL0     H38387   3.774   3.506   2.412 -2.4492 -3.0630  1.5411
 1003MOL0     H38388   3.945   3.457   2.547  1.3187 -0.3063  0.1006
 1003MOL0     H38389   4.019   3.543   2.411  1.8408 -1.9688 -1.6402
 1003MOL0     H38390   4.068   3.314   2.314 -2.5824  1.0582  0.0755
 1003MOL0     H38391   4.054   3.246   2.479 -3.9315  0.6232  0.7864
 1003MOL0     H38392   4.222   3.478   2.407 -0.6829  0.4669  0.0074
 1003MOL0     H38393   4.277   3.303   2.397 -1.5201  0.1008 -1.1682
 1003MOL0     H38394   3.409   3.079   2.276 -1.2436 -2.8180  0.6025
 1003MOL0     H38395   3.221   2.952   2.350  0.4824 -0.3589 -0.0461
 1003MOL0     H38396   2.909   2.697   2.087  2.1301  4.0890  0.0031
 1003MOL0     H38397   2.705   2.522   2.138  1.2323  0.2030  1.3283
 1003MOL0     H38398   2.873   2.138   3.242  1.2366  0.0105  2.3994
 1003MOL0     H38399   2.707   1.967   3.320 -0.5713  1.3784  0.5955
 1003MOL0     H38400   2.315   1.857   3.487  1.9047  0.2229 -1.0401
 1003MOL0     H38401   2.138   1.716   3.562 -1.7125  0.4305 -0.1521
 1003MOL0     H38402   2.053   1.474   3.569 -1.2150 -1.1911  1.5701
 1003MOL0     H38403   1.960   1.613   3.608  1.9671  1.3781  0.3302
 1003MOL0     H38404   1.820   1.405   3.627 -0.0767 -1.0790  0.2701
 1003MOL0     H38405   1.840   1.372   3.458 -1.3944 -0.1240  1.5734
 1003MOL0     H38406   1.731   1.555   3.376  1.4935  1.4847  0.3034
 1003MOL0     H38407   1.638   1.469   3.504 -0.1968  0.9777  0.8948
 1003MOL0     H38408   1.791   1.724   3.571  1.3611 -2.2160  1.5428
 1003MOL0     H38409   1.666   1.634   3.671 -2.1394 -3.5803 -2.0834
 1003MOL0     H38410   1.436   1.836   3.378 -0.3304 -1.2186  0.0321
 1003MOL0     H38411   2.022   1.644   3.149  0.0367 -0.5138 -0.6312
 1003MOL0     H38412   2.114   1.763   2.991 -1.0794  0.3205  1.4152
 1003MOL0     H38413   2.236   1.883   3.007  0.7655 -0.2962  1.0322
 1003MOL0     H38414   2.297   1.726   2.974  0.8835  0.8273 -0.8710
 1004MOL0     O38415   2.889   4.005   8.250 -0.1799 -0.9017 -0.2384
 1004MOL0     C38416   2.888   3.893   8.294  0.9954 -0.2267  0.3276
 1004MOL0     O38417   2.990   3.825   8.342 -0.9019  0.6460  0.5105
 1004MOL0     C38418   3.107   3.888   8.335  0.0457  1.0243  0.3275
 1004MOL0     C38419   3.128   3.999   8.416  0.1781  0.4030  0.5889
 1004MOL0     C38420   3.250   4.070   8.403 -1.1729  0.5666  0.3203
 1004MOL0     C38421   3.357   4.036   8.318 -0.7103 -0.5226 -0.0964
 1004MOL0     O38422   3.471   4.113   8.313 -0.2101  0.8881 -0.2082
 1004MOL0     C38423   3.571   4.108   8.210  0.5367  0.0779  0.5211
 1004MOL0     C38424   3.585   4.248   8.159  0.3647 -0.4571 -0.3495
 1004MOL0     C38425   3.693   4.253   8.043 -0.1196  0.4347  0.5942
 1004MOL0     C38426   3.705   4.400   7.980  0.3625  0.0893 -0.6609
 1004MOL0     C38427   3.819   4.413   7.889 -1.2125 -0.3707 -0.7888
 1004MOL0     C38428   3.822   4.556   7.828 -0.7775 -1.1418  0.0055
 1004MOL0     C38429   3.942   4.557   7.736  0.9349 -0.1803 -0.4268
 1004MOL0     C38430   3.974   4.707   7.709 -0.3644  0.4347  0.0342
 1004MOL0     N38431   4.100   4.710   7.639 -0.5608  0.0006 -0.4853
 1004MOL0     C38432   4.229   4.686   7.688  0.3485  0.1398  0.0878
 1004MOL0     C38433   4.312   4.721   7.588 -0.2797 -0.6728  0.3036
 1004MOL0     C38434   4.465   4.714   7.586  0.0136  0.9917  0.2939
 1004MOL0     C38435   4.513   4.825   7.682 -0.4288 -0.8012  0.5610
 1004MOL0     C38436   4.665   4.830   7.681 -0.2171 -0.6297  0.4094
 1004MOL0     C38437   4.727   4.734   7.786 -0.0144  0.0286 -1.3037
 1004MOL0     O38438   4.849   4.787   7.835 -0.4864  0.0769  0.1916
 1004MOL0     C38439   4.965   4.748   7.777  0.4010  0.5567  0.3932
 1004MOL0     C38440   4.977   4.655   7.680  0.1084  0.1723 -0.3011
 1004MOL0     C38441   5.094   4.610   7.627  0.0680  0.3589 -0.5319
 1004MOL0     C38442   5.088   4.516   7.514 -0.3852  0.2411  0.1118
 1004MOL0     C38443   5.216   4.672   7.668  0.0142 -0.4935 -0.3879
 1004MOL0     C38444   5.353   4.638   7.630 -0.3954  1.1146  0.2584
 1004MOL0     O38445   5.382   4.532   7.548 -0.9387  0.3764 -0.0983
 1004MOL0     C38446   5.511   4.502   7.509 -1.1144  0.3753  0.1938
 1004MOL0     C38447   5.597   4.442   7.591 -0.3451 -1.0113  0.0025
 1004MOL0     C38448   5.731   4.420   7.556  0.7868  0.0938  0.0187
 1004MOL0     C38449   5.780   4.446   7.423  0.6309  0.3031  0.5182
 1004MOL0     O38450   5.903   4.397   7.406  0.3008 -0.3105 -0.0959
 1004MOL0     C38451   5.956   4.385   7.284 -0.4053 -0.4515  0.4175
 1004MOL0     C38452   6.105   4.340   7.299  0.3490 -0.0349  0.1658
 1004MOL0     C38453   6.154   4.244   7.191  0.1767  1.2445  0.2371
 1004MOL0     C38454   6.292   4.180   7.235  0.3595 -0.5669 -0.2216
 1004MOL0     C38455   6.360   4.117   7.104 -0.3674 -0.8541 -0.5129
 1004MOL0     C38456   6.495   4.056   7.146 -0.1436  0.0981  0.1503
 1004MOL0     C38457   6.536   3.970   7.023  0.0528 -0.9748  0.6631
 1004MOL0     C38458   6.678   3.913   7.053 -0.1056 -0.7126  0.0096
 1004MOL0    Cl38459   6.793   4.037   7.030 -0.2622 -0.3521 -0.5386
 1004MOL0     C38460   5.686   4.506   7.333 -0.0405 -0.5368  0.8544
 1004MOL0     C38461   5.554   4.537   7.374  0.4862 -0.0283 -0.0768
 1004MOL0     O38462   5.438   4.710   7.671 -0.2876 -0.0396  0.6145
 1004MOL0     C38463   5.205   4.771   7.766 -0.2524  0.5817 -0.7338
 1004MOL0     C38464   5.085   4.811   7.824  0.1763  0.4155 -1.1802
 1004MOL0     N38465   4.237   4.778   7.483  0.3379  0.0551 -0.0181
 1004MOL0     N38466   4.111   4.753   7.508  0.4565  0.2646 -0.2805
 1004MOL0     C38467   3.332   3.919   8.244  0.8507 -0.1873  0.5878
 1004MOL0     C38468   3.212   3.845   8.251  0.1960 -0.6638  0.3075
 1004MOL0     C38469   2.760   3.814   8.290  0.0807  0.6227 -0.3957
 1004MOL0     C38470   2.770   3.673   8.287 -0.1248 -0.0654  0.3539
 1004MOL0     C38471   2.654   3.590   8.281  0.2273 -0.2418 -0.4257
 1004MOL0     C38472   2.528   3.645   8.277  0.6316 -0.5309 -0.8929
 1004MOL0     O38473   2.432   3.550   8.273 -0.1235 -0.9053 -0.3017
 1004MOL0     C38474   2.306   3.592   8.320 -0.8163  0.9890  0.0240
 1004MOL0     C38475   2.215   3.474   8.357  0.3276 -0.0415  0.6463
 1004MOL0     C38476   2.209   3.387   8.234 -0.0001 -0.1682  0.9656
 1004MOL0     C38477   2.116   3.268   8.256  0.6310  0.0023  0.3643
 1004MOL0     C38478   2.162   3.171   8.356  0.9710  0.9628  0.5290
 1004MOL0     C38479   2.204   3.091   8.438  0.0785  0.1253  0.8571
 1004MOL0     C38480   2.520   3.783   8.293 -0.5765  0.2103  0.0512
 1004MOL0     C38481   2.629   3.869   8.296  0.4408 -0.3939  0.1663
 1004MOL0     C38482   2.604   4.021   8.328 -0.0696 -0.5517  0.0342
 1004MOL0     H38483   3.053   4.040   8.482 -1.0067 -0.3005 -0.2890
 1004MOL0     H38484   3.265   4.162   8.459  0.4865  1.0690 -0.8838
 1004MOL0     H38485   3.546   4.040   8.127  2.0095 -0.4941  0.5024
 1004MOL0     H38486   3.671   4.077   8.243  0.1615 -0.2902  1.3346
 1004MOL0     H38487   3.488   4.289   8.127  0.1949 -1.3956 -1.0550
 1004MOL0     H38488   3.619   4.309   8.243  0.8753 -0.2059 -0.7359
 1004MOL0     H38489   3.790   4.227   8.086  0.1762 -1.7912 -1.2213
 1004MOL0     H38490   3.651   4.190   7.965  2.0506  0.2873 -0.5396
 1004MOL0     H38491   3.608   4.415   7.932 -1.4378 -0.6089  2.4622
 1004MOL0     H38492   3.716   4.480   8.054  0.7159  2.0678 -2.7454
 1004MOL0     H38493   3.833   4.344   7.804  1.0964  1.1437 -1.7648
 1004MOL0     H38494   3.914   4.400   7.942 -2.0704 -0.8208  0.6790
 1004MOL0     H38495   3.735   4.565   7.763  0.1346 -1.9776 -1.3918
 1004MOL0     H38496   3.818   4.634   7.904  1.1269 -0.4342 -0.5574
 1004MOL0     H38497   3.918   4.521   7.636 -1.5558  0.3113 -0.0709
 1004MOL0     H38498   4.031   4.502   7.771  0.4843  0.0150  1.1052
 1004MOL0     H38499   3.895   4.744   7.641  0.1873 -1.0601 -1.4840
 1004MOL0     H38500   3.979   4.761   7.804  2.4653 -2.8695  1.9991
 1004MOL0     H38501   4.251   4.648   7.788 -1.0286 -0.9783 -0.0054
 1004MOL0     H38502   4.506   4.720   7.485 -0.6975 -1.3365 -0.1881
 1004MOL0     H38503   4.491   4.617   7.630 -1.0043  0.1259 -0.9460
 1004MOL0     H38504   4.469   4.914   7.637 -0.6922 -1.2295 -0.0496
 1004MOL0     H38505   4.480   4.815   7.786  0.4484  1.3411  1.0828
 1004MOL0     H38506   4.698   4.807   7.580 -1.5734  2.1750 -0.7846
 1004MOL0     H38507   4.696   4.933   7.701  1.2308 -1.2650  1.6615
 1004MOL0     H38508   4.660   4.725   7.872  0.9203 -1.2779 -0.6702
 1004MOL0     H38509   4.721   4.630   7.753 -1.2148 -0.2750 -0.1856
 1004MOL0     H38510   4.887   4.601   7.653 -0.8237  1.3428  0.3984
 1004MOL0     H38511   5.163   4.543   7.439 -0.5409 -1.2523 -0.6093
 1004MOL0     H38512   4.986   4.518   7.474 -0.2179  0.3817 -0.3095
 1004MOL0     H38513   5.108   4.417   7.557  1.2419  1.5878  2.7491
 1004MOL0     H38514   5.571   4.443   7.697 -0.0716  1.5575  0.1185
 1004MOL0     H38515   5.792   4.368   7.628 -1.3157 -0.5147  1.4786
 1004MOL0     H38516   5.898   4.307   7.233 -0.6030 -0.2001  0.2534
 1004MOL0     H38517   5.953   4.471   7.216  1.6342 -0.9385 -0.3570
 1004MOL0     H38518   6.163   4.432   7.297  0.9930 -0.4448 -1.2935
 1004MOL0     H38519   6.104   4.289   7.395  1.6740 -0.1060  0.1582
 1004MOL0     H38520   6.159   4.290   7.092  0.6815  0.3746 -0.1575
 1004MOL0     H38521   6.086   4.160   7.174 -0.4069  0.9133  3.5683
 1004MOL0     H38522   6.273   4.112   7.319  0.6860  0.8705  1.0657
 1004MOL0     H38523   6.355   4.253   7.287  1.1149 -2.0218  0.9707
 1004MOL0     H38524   6.291   4.048   7.056  3.6192 -2.3707 -4.8022
 1004MOL0     H38525   6.378   4.205   7.041 -3.7629 -0.0124 -0.5031
 1004MOL0     H38526   6.483   3.989   7.231  0.9460 -0.0450  0.2056
 1004MOL0     H38527   6.560   4.140   7.175 -0.3504  0.2936  0.0542
 1004MOL0     H38528   6.530   4.023   6.928 -0.0176 -0.6976  0.8231
 1004MOL0     H38529   6.463   3.888   7.019  0.5590 -1.3980 -0.1043
 1004MOL0     H38530   6.701   3.838   6.977 -1.0232  0.7134 -1.7534
 1004MOL0     H38531   6.678   3.870   7.153  2.9327  0.8348  0.7899
 1004MOL0     H38532   5.721   4.532   7.234  0.8270 -6.4984 -0.8275
 1004MOL0     H38533   5.484   4.571   7.298  0.0778 -1.9315 -0.6077
 1004MOL0     H38534   5.291   4.816   7.814  0.6262 -1.5865 -0.1487
 1004MOL0     H38535   5.067   4.887   7.899 -3.0492 -2.4884  1.3316
 1004MOL0     H38536   3.402   3.890   8.166  0.6812  0.5558  0.1531
 1004MOL0     H38537   3.205   3.754   8.192 -1.6585 -1.4074  1.5704
 1004MOL0     H38538   2.868   3.626   8.285 -0.1268 -0.0527 -1.1011
 1004MOL0     H38539   2.661   3.482   8.288 -2.3154 -0.3798  1.0186
 1004MOL0     H38540   2.318   3.649   8.412 -1.4526  0.4130  0.4703
 1004MOL0     H38541   2.244   3.648   8.249 -3.6766 -0.6294  1.0932
 1004MOL0     H38542   2.113   3.496   8.388 -0.4305  0.2973 -1.8697
 1004MOL0     H38543   2.254   3.408   8.435 -1.6510 -2.5279 -0.3526
 1004MOL0     H38544   2.160   3.444   8.154 -0.1404 -0.7098  0.6568
 1004MOL0     H38545   2.307   3.364   8.194 -0.3880 -1.5928  0.7893
 1004MOL0     H38546   2.100   3.218   8.160  1.5956  0.0610  0.1606
 1004MOL0     H38547   2.025   3.312   8.297  0.1755  1.0378 -1.6590
 1004MOL0     H38548   2.237   3.022   8.514  0.9370  1.3201  1.5981
 1004MOL0     H38549   2.430   3.844   8.295 -0.1040  0.9409 -0.3745
 1004MOL0     H38550   2.679   4.079   8.274  2.2523 -4.0896 -0.8922
 1004MOL0     H38551   2.504   4.052   8.298  0.8589  2.1535 -0.5381
 1004MOL0     H38552   2.613   4.041   8.435 -2.1148  1.8672 -0.1477
 1005MOL0     O38553   5.314   7.489   8.610  0.2859 -0.0160 -0.3341
 1005MOL0     C38554   5.274   7.378   8.569 -0.1256 -0.4448  0.7331
 1005MOL0     O38555   5.344   7.285   8.501 -0.0363  0.0461  0.4463
 1005MOL0     C38556   5.476   7.313   8.487  0.5202 -1.4500  0.0676
 1005MOL0     C38557   5.559   7.305   8.600  0.1715 -0.0933  0.3224
 1005MOL0     C38558   5.696   7.320   8.588 -0.4590 -0.6156  0.2925
 1005MOL0     C38559   5.756   7.334   8.463  0.7666 -0.4878 -0.0120
 1005MOL0     O38560   5.889   7.350   8.435 -0.3158  1.0485 -0.9475
 1005MOL0     C38561   5.943   7.228   8.381  0.3853  0.0297 -0.7118
 1005MOL0     C38562   6.094   7.236   8.360  0.5154  0.3674 -0.0279
 1005MOL0     C38563   6.145   7.353   8.265 -0.2268 -0.3572 -0.6913
 1005MOL0     C38564   6.301   7.346   8.258 -0.5893  0.4466  0.0707
 1005MOL0     C38565   6.351   7.478   8.193 -0.0580  0.2111  0.0349
 1005MOL0     C38566   6.500   7.485   8.168 -0.2168 -0.1068  0.5673
 1005MOL0     C38567   6.547   7.388   8.056 -0.7366 -0.7178 -1.1402
 1005MOL0     C38568   6.700   7.391   8.043 -0.6275 -0.3733  0.5920
 1005MOL0     N38569   6.765   7.380   8.182  0.3880  0.5163  0.3570
 1005MOL0     C38570   6.758   7.269   8.254  0.2530  0.1651 -0.2756
 1005MOL0     C38571   6.829   7.304   8.359  0.2009 -0.0091  0.2502
 1005MOL0     C38572   6.840   7.223   8.482 -1.6549  0.5844  0.1719
 1005MOL0     C38573   6.707   7.210   8.562 -1.0304  0.5988  1.2278
 1005MOL0     C38574   6.671   7.335   8.644  0.0176  0.7440  0.1911
 1005MOL0     C38575   6.528   7.315   8.716 -1.0624  0.2487 -0.4285
 1005MOL0     O38576   6.422   7.283   8.633 -0.1367  0.5617  0.5296
 1005MOL0     C38577   6.326   7.380   8.634  0.0169  0.0558  0.9538
 1005MOL0     C38578   6.340   7.501   8.571 -0.0942 -0.9243 -0.5479
 1005MOL0     C38579   6.251   7.610   8.566  1.1233 -0.0434  0.6611
 1005MOL0     C38580   6.288   7.746   8.512 -0.6880  0.2875 -1.2687
 1005MOL0     C38581   6.123   7.584   8.618 -0.0348  0.5972  0.1938
 1005MOL0     C38582   6.007   7.681   8.598 -0.0712 -0.6305 -0.4765
 1005MOL0     O38583   5.902   7.667   8.691  0.0231  0.4645  0.5978
 1005MOL0     C38584   5.785   7.715   8.650  0.6332 -0.3533  0.5517
 1005MOL0     C38585   5.714   7.658   8.547  0.1139 -0.3435  0.5504
 1005MOL0     C38586   5.586   7.705   8.508 -0.2992 -0.0400  0.4040
 1005MOL0     C38587   5.519   7.807   8.590  0.1035  0.8317  0.9956
 1005MOL0     O38588   5.401   7.863   8.563  0.4723  0.1628 -0.8619
 1005MOL0     C38589   5.295   7.779   8.515  0.5117  0.5207  0.0476
 1005MOL0     C38590   5.170   7.861   8.450 -0.2274  0.1454 -0.1487
 1005MOL0     C38591   5.063   7.761   8.408 -0.2480 -0.0900 -0.5208
 1005MOL0     C38592   5.094   7.667   8.297 -1.2715  0.5630 -0.1556
 1005MOL0     C38593   5.099   7.735   8.159 -1.0829 -0.1650  0.3176
 1005MOL0     C38594   5.125   7.639   8.039 -0.7716  0.3383 -0.1119
 1005MOL0     C38595   5.268   7.589   8.030 -0.2491 -0.3022 -0.0123
 1005MOL0     C38596   5.282   7.441   7.999  0.5714  0.3630  0.5450
 1005MOL0    Cl38597   5.203   7.348   8.131 -0.0776  0.1855 -0.2336
 1005MOL0     C38598   5.588   7.855   8.701 -0.2017  0.5152  0.3873
 1005MOL0     C38599   5.723   7.808   8.725 -0.3375  0.7144 -0.2904
 1005MOL0     O38600   6.000   7.750   8.500  0.2458  0.7688 -0.2218
 1005MOL0     C38601   6.104   7.460   8.678 -0.1238 -0.1060 -0.6534
 1005MOL0     C38602   6.206   7.359   8.684  0.2026  0.0157 -0.0585
 1005MOL0     N38603   6.893   7.426   8.341  0.4362 -0.5886 -0.0905
 1005MOL0     N38604   6.858   7.476   8.231 -0.0437 -0.3833 -0.3605
 1005MOL0     C38605   5.668   7.355   8.353 -0.4276 -0.9623  0.4870
 1005MOL0     C38606   5.532   7.352   8.366  0.3354 -0.1413 -0.8222
 1005MOL0     C38607   5.122   7.360   8.583 -0.2682 -0.3028  0.1167
 1005MOL0     C38608   5.045   7.319   8.473 -0.2915 -0.2212 -0.0839
 1005MOL0     C38609   4.912   7.300   8.481  0.3354  0.7677  0.8096
 1005MOL0     C38610   4.837   7.342   8.590 -0.4583  0.0407  1.0704
 1005MOL0     O38611   4.705   7.314   8.576  0.5622 -0.1360 -0.3068
 1005MOL0     C38612   4.614   7.367   8.679  0.3944  0.8972  0.6016
 1005MOL0     C38613   4.477   7.376   8.613  0.6126  0.4739 -0.3803
 1005MOL0     C38614   4.373   7.415   8.715  0.5726  0.1953  0.4135
 1005MOL0     C38615   4.241   7.423   8.649  0.4002  0.8225  1.1186
 1005MOL0     C38616   4.135   7.472   8.734 -0.3046 -0.7167 -0.3807
 1005MOL0     C38617   4.047   7.512   8.809 -0.9797  0.0204  0.0634
 1005MOL0     C38618   4.905   7.394   8.699  0.3471 -0.0030  0.7264
 1005MOL0     C38619   5.050   7.390   8.700  0.1297  0.0307  0.5606
 1005MOL0     C38620   5.117   7.400   8.831  0.0766  0.2440  0.3108
 1005MOL0     H38621   5.520   7.287   8.700  0.2652  0.5268  0.4777
 1005MOL0     H38622   5.761   7.331   8.674  1.7815  0.7222 -1.4627
 1005MOL0     H38623   5.905   7.197   8.284  0.9326  2.8073 -1.8932
 1005MOL0     H38624   5.933   7.154   8.462  2.2392  1.0311  0.5283
 1005MOL0     H38625   6.156   7.244   8.451  0.6517 -0.3902 -0.0485
 1005MOL0     H38626   6.124   7.141   8.317  2.7049  0.5764  0.8905
 1005MOL0     H38627   6.114   7.343   8.161  3.2862  3.2882 -2.3501
 1005MOL0     H38628   6.110   7.443   8.316  1.8535  0.7696 -1.1674
 1005MOL0     H38629   6.344   7.328   8.357 -2.8379  0.8853  1.1898
 1005MOL0     H38630   6.320   7.257   8.198 -1.4388  1.2186 -1.3828
 1005MOL0     H38631   6.327   7.572   8.243  1.9778  1.3819 -1.0620
 1005MOL0     H38632   6.306   7.483   8.093  4.2605 -2.8836 -2.4475
 1005MOL0     H38633   6.525   7.590   8.152 -1.2310 -0.2568 -2.9539
 1005MOL0     H38634   6.543   7.464   8.266  0.0373 -0.5350  0.3637
 1005MOL0     H38635   6.485   7.417   7.971 -2.7022  1.8695  0.9799
 1005MOL0     H38636   6.516   7.291   8.095  2.3400 -1.6915 -0.8406
 1005MOL0     H38637   6.741   7.314   7.976  0.1358  0.3653  0.1749
 1005MOL0     H38638   6.723   7.493   8.011  0.6826 -0.4979  1.0751
 1005MOL0     H38639   6.693   7.183   8.244  1.4875 -0.7297 -0.7655
 1005MOL0     H38640   6.904   7.271   8.557 -2.8140  0.6114  1.1756
 1005MOL0     H38641   6.879   7.129   8.442 -0.1445  2.2777 -2.6280
 1005MOL0     H38642   6.626   7.181   8.495  1.2774 -1.0322 -1.0995
 1005MOL0     H38643   6.725   7.132   8.636  0.9215 -0.1160  0.1070
 1005MOL0     H38644   6.752   7.368   8.710  0.5565  0.6942 -0.4328
 1005MOL0     H38645   6.654   7.413   8.569 -0.6686 -0.3515 -0.8261
 1005MOL0     H38646   6.519   7.233   8.787 -3.1563 -1.7261 -2.8054
 1005MOL0     H38647   6.508   7.405   8.776  2.2637  2.5033 -2.3834
 1005MOL0     H38648   6.440   7.513   8.529  0.7943  0.6453  1.8451
 1005MOL0     H38649   6.391   7.771   8.538 -1.2625  1.4575 -0.0120
 1005MOL0     H38650   6.225   7.819   8.563  0.2397  0.5612 -0.4955
 1005MOL0     H38651   6.274   7.751   8.403 -1.5100 -0.3935 -1.2110
 1005MOL0     H38652   5.756   7.590   8.474 -1.3620  1.6391 -2.3752
 1005MOL0     H38653   5.549   7.665   8.414  1.7282 -0.0251 -0.4706
 1005MOL0     H38654   5.327   7.711   8.436 -0.9640  1.1768 -1.1675
 1005MOL0     H38655   5.257   7.717   8.598  1.0707  0.3780  0.2011
 1005MOL0     H38656   5.108   7.925   8.513 -0.4548 -0.7802  0.6025
 1005MOL0     H38657   5.202   7.926   8.369  2.0902  1.6263  1.7968
 1005MOL0     H38658   4.980   7.827   8.380  0.9594  0.9758 -1.7403
 1005MOL0     H38659   5.031   7.711   8.499 -0.6183 -1.5479 -1.4103
 1005MOL0     H38660   5.017   7.591   8.309 -0.9330  0.6631  3.5941
 1005MOL0     H38661   5.184   7.608   8.316 -1.9189 -0.2726  0.3355
 1005MOL0     H38662   5.010   7.795   8.138 -0.4122  0.0298 -2.2564
 1005MOL0     H38663   5.179   7.809   8.148  0.8748 -2.4462 -1.6987
 1005MOL0     H38664   5.091   7.682   7.945 -0.1305 -0.1379 -0.5695
 1005MOL0     H38665   5.057   7.554   8.044 -0.5989  0.1245 -1.1940
 1005MOL0     H38666   5.318   7.615   8.124 -0.1931 -0.1706 -0.0770
 1005MOL0     H38667   5.319   7.653   7.958  0.7088 -1.3657 -0.2902
 1005MOL0     H38668   5.386   7.416   7.974  0.0398  0.8947 -2.6737
 1005MOL0     H38669   5.231   7.424   7.903 -0.1207  3.6292  0.1888
 1005MOL0     H38670   5.533   7.934   8.752  0.0683 -0.6533  2.6035
 1005MOL0     H38671   5.782   7.835   8.812 -0.5391  0.4637 -0.0735
 1005MOL0     H38672   6.009   7.433   8.723 -1.8363  2.6499 -2.3476
 1005MOL0     H38673   6.177   7.271   8.741 -0.6745  0.3959  0.1092
 1005MOL0     H38674   5.692   7.393   8.254  2.2472  2.6793  2.2640
 1005MOL0     H38675   5.458   7.366   8.288  0.3106  1.2117 -0.5847
 1005MOL0     H38676   5.084   7.285   8.378 -0.9380  0.4232 -0.5995
 1005MOL0     H38677   4.858   7.258   8.397 -0.5380  1.2181  1.1263
 1005MOL0     H38678   4.610   7.300   8.765 -1.2310 -0.7212 -0.6295
 1005MOL0     H38679   4.650   7.467   8.704  2.2985  0.9988 -2.0602
 1005MOL0     H38680   4.450   7.284   8.560 -0.3424  0.4696  0.0828
 1005MOL0     H38681   4.487   7.469   8.555  0.5889  1.7291  1.5583
 1005MOL0     H38682   4.373   7.336   8.791  1.0556 -0.3197 -0.1072
 1005MOL0     H38683   4.394   7.508   8.770  1.0722  0.1367  0.3340
 1005MOL0     H38684   4.203   7.326   8.614  0.1764  1.3899 -0.2672
 1005MOL0     H38685   4.246   7.483   8.557 -1.1652  1.1280  1.1997
 1005MOL0     H38686   3.961   7.545   8.864 -0.5749  0.3910  0.4829
 1005MOL0     H38687   4.843   7.417   8.785 -1.0834 -0.7884 -0.0507
 1005MOL0     H38688   5.168   7.305   8.849  0.5615 -0.3880 -3.6249
 1005MOL0     H38689   5.192   7.480   8.827 -0.4592  0.7113 -0.6506
 1005MOL0     H38690   5.045   7.419   8.912  0.3951 -0.2000  0.7041
 1006MOL0     O38691   2.943   2.567   1.747 -0.0119 -0.0618 -0.3246
 1006MOL0     C38692   2.857   2.543   1.823  0.0391 -0.1760  0.1800
 1006MOL0     O38693   2.880   2.463   1.935  0.7678 -0.3359 -0.5909
 1006MOL0     C38694   2.994   2.391   1.965 -0.6167 -0.2661  0.4183
 1006MOL0     C38695   3.009   2.341   2.100 -0.3053 -0.9179  0.1494
 1006MOL0     C38696   3.127   2.291   2.148 -0.4362  0.6485  0.2963
 1006MOL0     C38697   3.235   2.273   2.065 -1.0382  0.2565 -0.6382
 1006MOL0     O38698   3.349   2.231   2.128  0.0089  0.1603 -0.6938
 1006MOL0     C38699   3.470   2.223   2.059  0.0151 -0.3052 -0.0362
 1006MOL0     C38700   3.577   2.168   2.149 -0.0265  0.3227  0.0177
 1006MOL0     C38701   3.692   2.129   2.057  0.8143  1.0540  0.2966
 1006MOL0     C38702   3.827   2.111   2.127 -0.8630 -0.1492 -0.5483
 1006MOL0     C38703   3.925   2.237   2.135  0.0672 -0.1910 -0.7962
 1006MOL0     C38704   4.009   2.268   2.004 -0.2447  0.4008  0.3766
 1006MOL0     C38705   4.140   2.185   1.996  0.8055 -0.4802 -0.8346
 1006MOL0     C38706   4.247   2.236   2.102  0.7921  0.6166  0.7695
 1006MOL0     N38707   4.370   2.162   2.102 -1.0998 -0.6254  0.1613
 1006MOL0     C38708   4.479   2.199   2.026 -0.0515  0.1167 -0.2518
 1006MOL0     C38709   4.577   2.122   2.072  0.2772  0.2992 -0.0762
 1006MOL0     C38710   4.720   2.115   2.020  0.2088  0.3292  0.7898
 1006MOL0     C38711   4.824   2.183   2.111 -0.7016  0.6782 -1.1255
 1006MOL0     C38712   4.874   2.314   2.066 -0.9547 -0.9807 -1.0398
 1006MOL0     C38713   4.766   2.413   2.067  0.3737  0.2648 -1.0541
 1006MOL0     O38714   4.814   2.536   2.029 -0.3960  0.3117  0.1020
 1006MOL0     C38715   4.881   2.618   2.112  0.0387  0.3759  0.3467
 1006MOL0     C38716   4.940   2.736   2.051 -0.3390 -0.1925  0.1425
 1006MOL0     C38717   5.024   2.823   2.120  1.3963 -0.1473 -0.1485
 1006MOL0     C38718   5.072   2.950   2.054  0.1394 -0.2537 -0.3687
 1006MOL0     C38719   5.049   2.795   2.259  0.7633 -0.7331  0.0130
 1006MOL0     C38720   5.137   2.868   2.340 -0.3198  0.1914  0.1745
 1006MOL0     O38721   5.219   2.793   2.426  0.3456 -0.1161 -0.0139
 1006MOL0     C38722   5.340   2.836   2.482 -0.4318 -0.6300 -0.2522
 1006MOL0     C38723   5.425   2.940   2.446 -0.5746  0.4353  0.3512
 1006MOL0     C38724   5.546   2.968   2.508 -0.5278  0.4585  0.0829
 1006MOL0     C38725   5.583   2.893   2.621  0.0261 -0.6057  0.2568
 1006MOL0     O38726   5.691   2.918   2.702 -0.6093 -0.2977  0.3844
 1006MOL0     C38727   5.659   2.975   2.825 -0.2557 -0.2759  0.5775
 1006MOL0     C38728   5.718   2.902   2.931  0.2062 -0.1020 -1.3155
 1006MOL0     C38729   5.694   2.998   3.057 -0.6431  0.6459  0.4957
 1006MOL0     C38730   5.778   2.959   3.183  0.4193 -0.2776 -0.3045
 1006MOL0     C38731   5.777   2.806   3.223 -0.5078  0.5197  0.6600
 1006MOL0     C38732   5.843   2.776   3.361 -0.3737 -0.4636  0.7259
 1006MOL0     C38733   5.986   2.827   3.363  0.2182 -0.1982 -0.0431
 1006MOL0     C38734   6.064   2.758   3.474  0.3875 -0.2172 -0.2207
 1006MOL0    Cl38735   6.093   2.588   3.432  0.1343  0.1177  0.2313
 1006MOL0     C38736   5.504   2.789   2.660 -0.1965 -0.0524 -0.0008
 1006MOL0     C38737   5.389   2.755   2.587  0.6163 -0.0118  0.3074
 1006MOL0     O38738   5.150   2.990   2.318  0.2164  0.6861 -0.3994
 1006MOL0     C38739   4.990   2.682   2.322  0.2247  0.2583  0.0461
 1006MOL0     C38740   4.911   2.592   2.251 -0.1622 -0.2150  0.3436
 1006MOL0     N38741   4.535   2.052   2.187 -0.3712 -0.8038  0.2283
 1006MOL0     N38742   4.411   2.073   2.199 -0.6480  0.2350  0.0473
 1006MOL0     C38743   3.229   2.307   1.928 -0.1666  0.2973 -0.9075
 1006MOL0     C38744   3.108   2.366   1.882 -0.1854  0.0632 -0.8527
 1006MOL0     C38745   2.717   2.591   1.817  0.3698  0.1822 -0.3306
 1006MOL0     C38746   2.614   2.497   1.840 -0.4876  0.2423 -1.6432
 1006MOL0     C38747   2.479   2.542   1.843 -0.1361  0.0965  0.0658
 1006MOL0     C38748   2.446   2.668   1.796  0.0693 -0.4286  0.4472
 1006MOL0     O38749   2.317   2.723   1.800  0.4950 -0.2324  0.2118
 1006MOL0     C38750   2.278   2.757   1.934 -0.5024 -0.0640 -0.1454
 1006MOL0     C38751   2.342   2.880   1.992  0.0643 -1.5052  0.3727
 1006MOL0     C38752   2.295   3.002   1.901  0.2370 -0.7642  0.3283
 1006MOL0     C38753   2.366   3.131   1.947  1.2752 -0.5667 -0.1924
 1006MOL0     C38754   2.501   3.146   1.903 -0.7429 -0.8474  0.3912
 1006MOL0     C38755   2.617   3.141   1.872 -0.1294  0.4251 -0.3878
 1006MOL0     C38756   2.552   2.759   1.754  0.3798  0.1586 -0.3660
 1006MOL0     C38757   2.683   2.721   1.776  0.3989  0.1364  0.5737
 1006MOL0     C38758   2.792   2.819   1.718  0.2858  0.3861  0.3865
 1006MOL0     H38759   2.924   2.338   2.168  0.0914  1.4804  0.8413
 1006MOL0     H38760   3.125   2.261   2.252 -3.8946  0.3753  0.2722
 1006MOL0     H38761   3.499   2.317   2.012 -4.0289  1.1544 -0.0106
 1006MOL0     H38762   3.459   2.150   1.978  0.6229 -0.9904  0.4801
 1006MOL0     H38763   3.620   2.243   2.216  2.7618  0.8031 -2.1467
 1006MOL0     H38764   3.536   2.076   2.193 -0.2870  0.3195 -0.2313
 1006MOL0     H38765   3.668   2.044   1.993  0.6243  0.6421  0.9194
 1006MOL0     H38766   3.707   2.212   1.987  0.7007 -0.1224 -1.1747
 1006MOL0     H38767   3.791   2.081   2.226 -1.9870  0.5477 -0.7308
 1006MOL0     H38768   3.885   2.033   2.076 -2.1089  0.4127 -2.9633
 1006MOL0     H38769   3.986   2.231   2.226 -0.8539 -3.4111 -0.2519
 1006MOL0     H38770   3.860   2.323   2.150  2.9583  2.5708 -2.8793
 1006MOL0     H38771   3.949   2.242   1.916 -0.9437  2.6120  0.1438
 1006MOL0     H38772   4.029   2.375   2.005 -0.5580  0.4602  1.3389
 1006MOL0     H38773   4.172   2.208   1.894 -0.8119  0.4744 -1.1568
 1006MOL0     H38774   4.127   2.079   2.021  2.0500  0.0374  2.4547
 1006MOL0     H38775   4.269   2.342   2.087  1.5050  0.2341 -1.0629
 1006MOL0     H38776   4.206   2.229   2.203 -4.1612  1.3168 -0.9226
 1006MOL0     H38777   4.494   2.270   1.945 -1.5807  1.3080  0.4696
 1006MOL0     H38778   4.731   2.156   1.920  3.5493  2.4856  1.8384
 1006MOL0     H38779   4.747   2.009   2.015  1.6958  0.6062  1.9482
 1006MOL0     H38780   4.779   2.208   2.208  0.7833 -0.1488 -0.1770
 1006MOL0     H38781   4.904   2.110   2.132 -2.2425 -0.0759  3.1424
 1006MOL0     H38782   4.948   2.344   2.141 -2.5035  0.8900 -0.1735
 1006MOL0     H38783   4.909   2.302   1.963 -2.3308  0.8558 -1.7860
 1006MOL0     H38784   4.686   2.381   1.999  1.1345  0.0063 -1.8536
 1006MOL0     H38785   4.721   2.420   2.166  0.3872  0.0268 -1.0297
 1006MOL0     H38786   4.905   2.751   1.949 -2.2536 -3.2072  0.2384
 1006MOL0     H38787   5.050   2.953   1.947 -0.8935  0.3261 -0.1524
 1006MOL0     H38788   5.181   2.961   2.052  0.1703 -0.5625 -1.7492
 1006MOL0     H38789   5.027   3.039   2.098  1.9724  0.7796 -0.4899
 1006MOL0     H38790   5.403   2.993   2.354  0.1399 -0.1293 -0.1515
 1006MOL0     H38791   5.617   3.044   2.477 -0.8088  0.7816  0.2140
 1006MOL0     H38792   5.698   3.077   2.830 -0.5313 -0.1576  0.3101
 1006MOL0     H38793   5.553   2.992   2.840 -0.1857  0.6790  0.0450
 1006MOL0     H38794   5.668   2.805   2.942 -1.3984  0.8347  0.1605
 1006MOL0     H38795   5.825   2.897   2.910  0.3576 -0.6917 -0.4544
 1006MOL0     H38796   5.589   2.995   3.088 -0.3125  1.9452  1.8663
 1006MOL0     H38797   5.716   3.103   3.034  1.3146  0.2400  0.3383
 1006MOL0     H38798   5.737   3.013   3.268  2.4177  0.0010  0.5511
 1006MOL0     H38799   5.884   2.988   3.172  0.3646  0.5678  1.0908
 1006MOL0     H38800   5.676   2.763   3.227  0.0246 -0.7604  0.9854
 1006MOL0     H38801   5.840   2.760   3.146 -0.0033  2.9644 -0.4961
 1006MOL0     H38802   5.855   2.669   3.377  1.0270 -0.4266  0.1261
 1006MOL0     H38803   5.791   2.835   3.436 -1.0455 -2.7983  2.1754
 1006MOL0     H38804   5.989   2.936   3.373 -0.4258 -0.0696 -1.0948
 1006MOL0     H38805   6.042   2.797   3.274  1.0093 -0.7324  0.6264
 1006MOL0     H38806   6.024   2.787   3.572 -2.1355  0.5215 -1.3870
 1006MOL0     H38807   6.163   2.804   3.479  0.1896  0.5156 -2.1639
 1006MOL0     H38808   5.529   2.743   2.755 -1.3009 -3.0707 -1.0669
 1006MOL0     H38809   5.320   2.681   2.626 -0.6001  0.9746  0.1069
 1006MOL0     H38810   5.011   2.662   2.427 -1.2066 -0.1717  0.2771
 1006MOL0     H38811   4.865   2.501   2.289  0.4625 -1.8933 -2.5827
 1006MOL0     H38812   3.314   2.297   1.863  0.5904 -1.8968  0.3379
 1006MOL0     H38813   3.102   2.408   1.782  1.0361  1.3206 -0.4170
 1006MOL0     H38814   2.645   2.397   1.868 -0.4903  0.4855 -0.7547
 1006MOL0     H38815   2.405   2.471   1.881  1.2362 -1.5944 -0.2758
 1006MOL0     H38816   2.169   2.764   1.942 -0.8457 -3.3190 -0.4436
 1006MOL0     H38817   2.304   2.674   2.001  2.4572  2.3724  1.9760
 1006MOL0     H38818   2.451   2.875   1.984 -0.0525 -0.8776 -2.7215
 1006MOL0     H38819   2.326   2.903   2.098 -1.1524  0.7055 -0.2315
 1006MOL0     H38820   2.322   2.979   1.798 -0.7274 -0.8159  0.0710
 1006MOL0     H38821   2.188   3.021   1.919  0.9138  1.2044  2.9539
 1006MOL0     H38822   2.362   3.152   2.055 -1.9697  2.3559 -0.6964
 1006MOL0     H38823   2.320   3.220   1.903  2.4154  0.8953  1.4431
 1006MOL0     H38824   2.716   3.116   1.837 -1.2648 -2.1283 -2.1445
 1006MOL0     H38825   2.525   2.854   1.710 -0.8717 -0.6556 -1.4234
 1006MOL0     H38826   2.743   2.914   1.737 -1.4460  0.1422 -2.3718
 1006MOL0     H38827   2.888   2.817   1.772  0.8969  0.6860 -0.6715
 1006MOL0     H38828   2.805   2.800   1.611 -0.3281  0.9812  0.2044
 1007MOL0     O38829   4.645   7.687   3.291 -0.2007  0.3152 -0.5024
 1007MOL0     C38830   4.601   7.782   3.350 -0.1801  0.2584 -0.0938
 1007MOL0     O38831   4.663   7.905   3.353  0.5396 -0.2868 -0.0793
 1007MOL0     C38832   4.755   7.953   3.266 -0.0629  1.2929 -0.4529
 1007MOL0     C38833   4.725   7.967   3.126 -0.9100  0.2255  1.4087
 1007MOL0     C38834   4.827   8.014   3.046 -0.2132  0.2674  0.1343
 1007MOL0     C38835   4.960   8.036   3.095 -0.0880 -0.3781  0.5208
 1007MOL0     O38836   5.083   8.061   3.024 -0.6425  0.3651 -0.2773
 1007MOL0     C38837   5.074   8.093   2.886 -0.2166 -1.4546  0.3352
 1007MOL0     C38838   5.218   8.112   2.838  1.2872  0.2240 -0.3911
 1007MOL0     C38839   5.294   8.222   2.913 -0.2959 -0.1189  0.2967
 1007MOL0     C38840   5.436   8.228   2.849 -0.6779 -0.4570  0.4116
 1007MOL0     C38841   5.535   8.326   2.900 -1.0985  0.0396  0.0903
 1007MOL0     C38842   5.488   8.470   2.942  0.1993 -0.0021 -0.2600
 1007MOL0     C38843   5.596   8.569   2.959 -0.1322 -0.8850 -0.2059
 1007MOL0     C38844   5.536   8.706   2.981 -0.1040 -0.0810 -0.1566
 1007MOL0     N38845   5.652   8.790   3.034 -0.0648 -0.6428  1.4265
 1007MOL0     C38846   5.707   8.792   3.162 -0.0128  0.1809  0.2694
 1007MOL0     C38847   5.832   8.856   3.158  0.9955  0.1750 -0.4737
 1007MOL0     C38848   5.919   8.876   3.280 -0.5436  0.1598  0.7597
 1007MOL0     C38849   6.063   8.836   3.253 -1.3009  0.5249  0.0925
 1007MOL0     C38850   6.062   8.693   3.197 -0.3089  0.2878 -0.0584
 1007MOL0     C38851   6.196   8.634   3.159 -0.0315  0.0989 -0.5510
 1007MOL0     O38852   6.257   8.707   3.056 -0.5169  0.0380  0.1000
 1007MOL0     C38853   6.386   8.667   3.028 -0.4345 -0.0659  0.7476
 1007MOL0     C38854   6.457   8.564   3.074 -0.7917  0.5577  0.9489
 1007MOL0     C38855   6.591   8.542   3.029  0.5508  0.8813 -0.3531
 1007MOL0     C38856   6.656   8.409   3.074  0.0432 -0.3091 -0.1671
 1007MOL0     C38857   6.656   8.632   2.941 -0.4109 -0.8309  0.4526
 1007MOL0     C38858   6.799   8.620   2.898  0.1781 -0.4716  0.3349
 1007MOL0     O38859   6.873   8.552   2.983 -0.5682  0.4293 -0.0249
 1007MOL0     C38860   7.006   8.534   2.939  0.4413  0.0404  0.0544
 1007MOL0     C38861   7.091   8.637   2.920  0.5913  0.1390  0.0273
 1007MOL0     C38862   7.213   8.617   2.858 -0.0325  0.3578  0.1396
 1007MOL0     C38863   7.259   8.485   2.836 -0.1362 -0.6836 -0.1009
 1007MOL0     O38864   7.392   8.470   2.785  1.4303 -0.5350 -0.3666
 1007MOL0     C38865   7.470   8.358   2.823  0.5355  1.2991  0.2953
 1007MOL0     C38866   7.613   8.364   2.767 -0.7296 -0.4746 -0.0624
 1007MOL0     C38867   7.618   8.419   2.622  0.9233  0.4293 -0.7901
 1007MOL0     C38868   7.747   8.392   2.559 -0.6145 -0.7422 -0.1905
 1007MOL0     C38869   7.737   8.425   2.411 -0.3333  0.5962  0.5278
 1007MOL0     C38870   7.881   8.433   2.343  0.3688 -0.0016  0.4366
 1007MOL0     C38871   7.989   8.332   2.405  0.5092  0.3455  0.2694
 1007MOL0     C38872   8.103   8.342   2.309 -0.2722  0.6384 -0.0214
 1007MOL0    Cl38873   8.242   8.249   2.369 -0.0913  0.1489  0.4970
 1007MOL0     C38874   7.175   8.379   2.865  0.1495  0.1660  0.6621
 1007MOL0     C38875   7.047   8.404   2.917  0.3605 -0.0057  0.0703
 1007MOL0     O38876   6.836   8.685   2.795  0.6201 -0.6760  0.8322
 1007MOL0     C38877   6.580   8.746   2.898 -0.0199 -0.5422  0.7702
 1007MOL0     C38878   6.453   8.758   2.940 -0.7222 -0.0925  0.0623
 1007MOL0     N38879   5.847   8.902   3.024 -0.1233 -0.5675 -0.6606
 1007MOL0     N38880   5.747   8.848   2.950 -0.4177 -0.4293 -0.0839
 1007MOL0     C38881   4.982   8.021   3.233 -0.4044 -0.1990  0.8922
 1007MOL0     C38882   4.877   7.983   3.317 -0.0457  0.9129  0.0423
 1007MOL0     C38883   4.469   7.755   3.405  0.5270 -0.1865  0.5253
 1007MOL0     C38884   4.409   7.871   3.477 -0.3547  0.8074 -0.0357
 1007MOL0     C38885   4.280   7.860   3.529  0.3143  1.2050 -0.2907
 1007MOL0     C38886   4.200   7.741   3.516  0.4800 -0.4222 -0.0072
 1007MOL0     O38887   4.073   7.746   3.560  0.2449  0.2608 -0.6742
 1007MOL0     C38888   4.025   7.619   3.602  0.3705  0.3997  0.0129
 1007MOL0     C38889   3.877   7.628   3.664 -0.8217  0.0744  0.5624
 1007MOL0     C38890   3.842   7.500   3.738  0.3002 -0.1088  0.8321
 1007MOL0     C38891   3.712   7.519   3.819 -0.2994 -0.4247  2.0114
 1007MOL0     C38892   3.735   7.592   3.942 -0.1190  0.0739 -0.5827
 1007MOL0     C38893   3.731   7.671   4.040  0.5520  0.3972 -0.5387
 1007MOL0     C38894   4.263   7.627   3.444  0.5613  0.4508  0.2047
 1007MOL0     C38895   4.390   7.633   3.388  0.5283 -0.0306 -0.3731
 1007MOL0     C38896   4.444   7.511   3.316  0.0911 -0.3641 -0.3469
 1007MOL0     H38897   4.624   7.958   3.087 -1.1419  0.0198  2.0433
 1007MOL0     H38898   4.816   8.020   2.938 -1.5218 -0.1015  0.2303
 1007MOL0     H38899   5.012   8.183   2.882 -2.0193 -2.6587 -0.1511
 1007MOL0     H38900   5.015   8.022   2.825 -2.3902 -0.4532  1.1574
 1007MOL0     H38901   5.269   8.017   2.856 -2.1406 -1.8058 -0.4076
 1007MOL0     H38902   5.210   8.140   2.732 -2.3459  1.4459  0.0636
 1007MOL0     H38903   5.248   8.320   2.923  1.4113  0.4351  4.2798
 1007MOL0     H38904   5.301   8.182   3.015 -1.3101  2.6670  1.5386
 1007MOL0     H38905   5.489   8.133   2.861 -0.1594 -0.0317  1.5484
 1007MOL0     H38906   5.438   8.243   2.740  2.5270  3.7649  0.8190
 1007MOL0     H38907   5.619   8.334   2.830 -0.1869 -2.0098  0.8843
 1007MOL0     H38908   5.567   8.283   2.996 -0.2350  0.3256 -0.0625
 1007MOL0     H38909   5.423   8.507   2.861  0.5801  1.3771  0.0418
 1007MOL0     H38910   5.436   8.475   3.038 -0.1737  1.3474 -0.5084
 1007MOL0     H38911   5.650   8.585   2.866 -0.6757  0.8925 -0.2570
 1007MOL0     H38912   5.673   8.534   3.029 -0.2969 -0.3710  0.2426
 1007MOL0     H38913   5.495   8.747   2.889  1.8776 -1.9374 -1.9598
 1007MOL0     H38914   5.462   8.709   3.062 -0.0002  0.8690 -0.0837
 1007MOL0     H38915   5.663   8.765   3.257  0.2634 -2.4786 -0.2766
 1007MOL0     H38916   5.887   8.810   3.361  0.6408 -1.2281  0.1412
 1007MOL0     H38917   5.924   8.979   3.316  2.5963  0.8416 -1.2199
 1007MOL0     H38918   6.126   8.904   3.195 -1.8420  1.1191  0.1821
 1007MOL0     H38919   6.113   8.830   3.351 -1.0065  0.2588 -0.0721
 1007MOL0     H38920   6.013   8.630   3.272  0.1059  0.5669  0.4507
 1007MOL0     H38921   5.998   8.679   3.109 -2.7816 -1.5553  1.8951
 1007MOL0     H38922   6.260   8.638   3.247  0.4230  0.4886 -0.8945
 1007MOL0     H38923   6.188   8.529   3.129  0.0533 -0.0493 -0.0658
 1007MOL0     H38924   6.416   8.493   3.146 -0.1342 -0.0893  0.6956
 1007MOL0     H38925   6.702   8.361   2.987 -0.2177  3.0746 -2.3386
 1007MOL0     H38926   6.580   8.348   3.125 -0.9364  0.2566 -0.9052
 1007MOL0     H38927   6.731   8.435   3.149  2.5450 -4.2849 -1.0082
 1007MOL0     H38928   7.075   8.736   2.961  1.6799 -0.2085  1.3595
 1007MOL0     H38929   7.280   8.700   2.839  0.0811 -0.4125 -3.5372
 1007MOL0     H38930   7.465   8.346   2.932 -0.2260  2.2117  0.3792
 1007MOL0     H38931   7.435   8.265   2.779 -2.6010  0.8223  3.3105
 1007MOL0     H38932   7.674   8.422   2.837 -0.2044 -2.7346  1.4734
 1007MOL0     H38933   7.656   8.263   2.767 -0.1859 -0.3038  2.0081
 1007MOL0     H38934   7.594   8.525   2.628  1.2973  0.4904  4.9026
 1007MOL0     H38935   7.545   8.357   2.569 -0.0431  1.0441 -0.2032
 1007MOL0     H38936   7.756   8.284   2.574 -0.4441 -0.8123 -0.7560
 1007MOL0     H38937   7.833   8.444   2.604 -1.4578  1.4123 -0.9184
 1007MOL0     H38938   7.670   8.358   2.357  1.1928 -0.1764 -0.4979
 1007MOL0     H38939   7.699   8.527   2.398  0.5965  0.6553 -2.8253
 1007MOL0     H38940   7.917   8.536   2.346  1.9059 -0.3799 -2.3025
 1007MOL0     H38941   7.871   8.416   2.236  0.0269  1.8500  0.1386
 1007MOL0     H38942   7.946   8.231   2.409 -1.7973  1.1722 -1.7972
 1007MOL0     H38943   8.031   8.370   2.499  0.5814  0.2505  0.2757
 1007MOL0     H38944   8.128   8.448   2.296 -1.2442  0.7851 -0.7302
 1007MOL0     H38945   8.070   8.297   2.215  3.9526  0.6453 -1.7556
 1007MOL0     H38946   7.205   8.275   2.856  2.1954  0.7769 -0.1023
 1007MOL0     H38947   6.981   8.322   2.941 -1.6006  2.2402  3.1365
 1007MOL0     H38948   6.607   8.831   2.837 -3.9871  1.2639  1.2136
 1007MOL0     H38949   6.402   8.846   2.902  1.9337  1.5336  0.0091
 1007MOL0     H38950   5.082   8.036   3.273  1.3095  0.7804 -3.2653
 1007MOL0     H38951   4.897   7.979   3.424  2.7765 -0.6253 -0.4712
 1007MOL0     H38952   4.457   7.966   3.492  0.1166  0.6009 -0.2189
 1007MOL0     H38953   4.227   7.943   3.574  0.3589  1.0896 -0.0229
 1007MOL0     H38954   4.024   7.550   3.517 -0.0181  0.0825  0.2661
 1007MOL0     H38955   4.094   7.572   3.673  1.2707  1.1753 -0.3361
 1007MOL0     H38956   3.806   7.655   3.586 -2.2733 -1.5174  1.2726
 1007MOL0     H38957   3.891   7.709   3.736  0.6581  0.0416  0.3501
 1007MOL0     H38958   3.819   7.422   3.665 -3.6665  1.7109 -0.1185
 1007MOL0     H38959   3.918   7.465   3.809 -0.2216  0.4752  1.6967
 1007MOL0     H38960   3.667   7.422   3.844 -1.9885  0.0692  1.0562
 1007MOL0     H38961   3.633   7.564   3.758 -1.1320 -4.2489 -0.0794
 1007MOL0     H38962   3.730   7.743   4.120  2.3244  2.0020 -1.8868
 1007MOL0     H38963   4.214   7.533   3.423  1.6176 -0.2537  0.8425
 1007MOL0     H38964   4.468   7.548   3.216 -0.9149 -1.9893 -1.2306
 1007MOL0     H38965   4.541   7.491   3.363  0.3454  1.8951  0.1745
 1007MOL0     H38966   4.379   7.423   3.312 -0.5934 -0.0310  1.9852
 1008MOL0     O38967   3.103   8.088   7.885 -0.1409  0.3785  0.2849
 1008MOL0     C38968   3.154   7.978   7.908  0.2792  0.4235  0.0576
 1008MOL0     O38969   3.272   7.936   7.854 -0.5002 -0.1369  0.0014
 1008MOL0     C38970   3.342   8.021   7.774 -0.6899  0.3535 -0.6434
 1008MOL0     C38971   3.441   8.087   7.840 -0.7473  0.1461  0.3015
 1008MOL0     C38972   3.517   8.180   7.779 -0.1473  0.0063  0.6849
 1008MOL0     C38973   3.503   8.206   7.640 -0.0843 -0.6595  0.2535
 1008MOL0     O38974   3.582   8.304   7.584 -0.1714 -0.0889 -0.8667
 1008MOL0     C38975   3.686   8.273   7.491 -0.5809 -0.0536 -0.0146
 1008MOL0     C38976   3.775   8.401   7.494  0.3082 -0.4869  0.0919
 1008MOL0     C38977   3.919   8.385   7.444  0.4670  0.4241  0.0523
 1008MOL0     C38978   3.948   8.413   7.292 -0.1079 -0.1223  0.3109
 1008MOL0     C38979   4.049   8.308   7.235 -0.6771 -0.8420 -1.0154
 1008MOL0     C38980   4.189   8.366   7.266 -0.6658  0.2036 -0.0575
 1008MOL0     C38981   4.297   8.254   7.260 -0.3451  0.1321 -0.1052
 1008MOL0     C38982   4.333   8.177   7.387 -0.0913  0.2078  0.0692
 1008MOL0     N38983   4.454   8.090   7.363  0.1457 -0.0391 -0.6538
 1008MOL0     C38984   4.583   8.128   7.385 -0.4481 -0.5660  0.1943
 1008MOL0     C38985   4.649   8.014   7.365  0.1839 -0.0128 -0.6527
 1008MOL0     C38986   4.795   8.003   7.399 -0.2532  1.0953 -0.1889
 1008MOL0     C38987   4.874   8.071   7.286 -0.4632 -0.0754 -0.4297
 1008MOL0     C38988   5.024   8.072   7.318 -0.4117 -0.3327  0.9182
 1008MOL0     C38989   5.100   8.148   7.206  0.1100  0.5910  0.2122
 1008MOL0     O38990   5.074   8.291   7.219  0.2575  0.3663  0.1387
 1008MOL0     C38991   5.182   8.366   7.238 -0.2761 -0.8663  0.0210
 1008MOL0     C38992   5.184   8.465   7.335  0.5679 -1.3430  0.0220
 1008MOL0     C38993   5.293   8.552   7.353 -0.1907 -0.1167 -0.3501
 1008MOL0     C38994   5.282   8.658   7.457 -0.5135 -0.3854 -0.2288
 1008MOL0     C38995   5.404   8.541   7.268 -0.4845 -0.1771  0.1343
 1008MOL0     C38996   5.529   8.624   7.281  0.8840 -0.4246 -0.7304
 1008MOL0     O38997   5.572   8.652   7.402  0.0377  0.1951  0.0498
 1008MOL0     C38998   5.634   8.771   7.438 -0.1528 -0.3328  0.4300
 1008MOL0     C38999   5.703   8.778   7.557 -0.4225 -0.7999 -0.4750
 1008MOL0     C39000   5.766   8.900   7.590  0.5936  0.1281 -0.0590
 1008MOL0     C39001   5.760   9.010   7.505 -0.4384  0.4062  0.3404
 1008MOL0     O39002   5.839   9.117   7.518 -0.1991  0.0559  0.1700
 1008MOL0     C39003   5.957   9.116   7.440 -0.3585  0.2700 -0.3030
 1008MOL0     C39004   6.048   9.225   7.490 -0.0242  0.4193  0.1787
 1008MOL0     C39005   6.134   9.283   7.379 -0.2033  0.2342 -0.3224
 1008MOL0     C39006   6.255   9.190   7.351 -0.2056 -0.1558  0.0016
 1008MOL0     C39007   6.354   9.244   7.242 -0.6522 -0.0705  0.5370
 1008MOL0     C39008   6.292   9.252   7.103  0.7570  0.8173 -0.1918
 1008MOL0     C39009   6.244   9.123   7.031 -0.5717 -0.0774 -0.6583
 1008MOL0     C39010   6.345   9.003   7.029 -1.0050 -0.3394  0.7301
 1008MOL0    Cl39011   6.485   9.062   6.919 -0.1027 -0.3866 -0.0825
 1008MOL0     C39012   5.679   9.007   7.403 -0.4556 -0.0501  0.9790
 1008MOL0     C39013   5.615   8.890   7.365 -0.3634 -0.6357  0.1746
 1008MOL0     O39014   5.591   8.652   7.180 -0.0752  0.4104  0.0747
 1008MOL0     C39015   5.396   8.443   7.167 -0.2449  0.3729  0.3712
 1008MOL0     C39016   5.299   8.348   7.162  0.0127 -0.3725  0.4393
 1008MOL0     N39017   4.563   7.919   7.327 -0.2018  0.4294  0.0586
 1008MOL0     N39018   4.445   7.964   7.323  0.3419 -0.2075 -0.4659
 1008MOL0     C39019   3.408   8.127   7.577 -0.1516  1.0268 -0.4672
 1008MOL0     C39020   3.331   8.032   7.639 -0.1178 -0.5914 -0.1248
 1008MOL0     C39021   3.084   7.893   8.008  0.3939 -0.0348 -0.6247
 1008MOL0     C39022   2.946   7.930   8.042  0.3070  0.7152  0.6157
 1008MOL0     C39023   2.862   7.839   8.117 -0.2140 -0.0747 -0.5112
 1008MOL0     C39024   2.912   7.716   8.160  1.1471  0.0577 -0.7466
 1008MOL0     O39025   2.834   7.632   8.230  0.5473  0.5943  0.3435
 1008MOL0     C39026   2.695   7.631   8.194  0.2512 -0.6771  0.3239
 1008MOL0     C39027   2.635   7.486   8.217 -0.3180  0.7107 -0.0847
 1008MOL0     C39028   2.680   7.387   8.109  0.4830  0.1872 -0.4773
 1008MOL0     C39029   2.829   7.374   8.084 -0.1314  0.8254 -0.5254
 1008MOL0     C39030   2.902   7.317   8.200  0.3453 -0.3159  0.9578
 1008MOL0     C39031   2.954   7.268   8.292  0.5400 -0.3713 -0.0046
 1008MOL0     C39032   3.040   7.690   8.145  0.8934 -0.9102  0.3133
 1008MOL0     C39033   3.130   7.775   8.067  0.5125 -0.1785 -0.7150
 1008MOL0     C39034   3.265   7.711   8.044 -0.1474 -0.6041 -0.4651
 1008MOL0     H39035   3.457   8.075   7.947 -2.0235 -7.4765  0.2397
 1008MOL0     H39036   3.595   8.228   7.838 -0.0166 -1.1672  1.4975
 1008MOL0     H39037   3.645   8.253   7.392 -3.6047  1.5877  0.7946
 1008MOL0     H39038   3.751   8.188   7.516 -1.4415 -0.1721  1.9652
 1008MOL0     H39039   3.727   8.482   7.437  1.4851  1.2979  1.5180
 1008MOL0     H39040   3.783   8.433   7.598 -3.3424  3.3002 -0.4980
 1008MOL0     H39041   3.989   8.447   7.501 -1.2953  1.3306  1.3290
 1008MOL0     H39042   3.936   8.281   7.473 -1.9434 -0.9227 -2.7196
 1008MOL0     H39043   3.847   8.395   7.254 -0.7003 -0.3103  1.8975
 1008MOL0     H39044   3.979   8.515   7.269 -0.7995  0.8110  3.1010
 1008MOL0     H39045   4.034   8.290   7.129 -1.4533  5.4412 -2.3938
 1008MOL0     H39046   4.037   8.216   7.294 -3.3591  1.5605  2.6939
 1008MOL0     H39047   4.211   8.444   7.193  2.3314 -0.0569  0.4302
 1008MOL0     H39048   4.190   8.414   7.364  0.6220 -2.3614  1.2862
 1008MOL0     H39049   4.385   8.307   7.223 -0.5852  0.7040  0.1318
 1008MOL0     H39050   4.275   8.178   7.184 -0.1161  1.2879 -1.3531
 1008MOL0     H39051   4.364   8.247   7.465 -0.4330  2.0124 -1.3495
 1008MOL0     H39052   4.242   8.125   7.417 -1.3532  2.5231  0.4255
 1008MOL0     H39053   4.618   8.214   7.441  0.5674 -2.3440  2.4765
 1008MOL0     H39054   4.824   7.898   7.407 -2.9721  0.4397  2.5244
 1008MOL0     H39055   4.815   8.053   7.494  0.9662  0.9181 -0.3372
 1008MOL0     H39056   4.866   8.026   7.187  1.2634  0.2977 -0.7663
 1008MOL0     H39057   4.844   8.176   7.282  2.7462  1.0885  1.6128
 1008MOL0     H39058   5.048   8.114   7.416  0.3390 -0.9376  0.9994
 1008MOL0     H39059   5.054   7.967   7.306 -0.6434 -0.1344 -2.3016
 1008MOL0     H39060   5.202   8.112   7.222 -0.8231 -1.7311  1.3896
 1008MOL0     H39061   5.061   8.112   7.111 -0.3531 -1.7312  1.2118
 1008MOL0     H39062   5.091   8.484   7.388  0.2714 -0.8654 -0.6531
 1008MOL0     H39063   5.320   8.748   7.408  4.5725 -3.1990 -2.1941
 1008MOL0     H39064   5.341   8.635   7.546 -1.6171  1.5942  1.0852
 1008MOL0     H39065   5.181   8.668   7.499  0.2557 -0.3800  1.7495
 1008MOL0     H39066   5.709   8.691   7.622  2.1041 -0.1900  0.2304
 1008MOL0     H39067   5.835   8.909   7.674  1.8806 -0.3106 -1.0253
 1008MOL0     H39068   5.998   9.016   7.456  1.1450  1.1568  1.9959
 1008MOL0     H39069   5.939   9.118   7.332 -1.1127 -1.1267 -0.2338
 1008MOL0     H39070   5.989   9.308   7.531  0.7383  0.7577  0.6042
 1008MOL0     H39071   6.102   9.192   7.579  1.4589 -2.9782 -1.8204
 1008MOL0     H39072   6.176   9.378   7.414  0.8134  0.1818 -1.3238
 1008MOL0     H39073   6.075   9.302   7.288 -0.6465 -0.3898 -0.1730
 1008MOL0     H39074   6.217   9.090   7.327 -3.6550  1.2654 -1.0216
 1008MOL0     H39075   6.315   9.178   7.442 -0.5600  3.1218  0.7694
 1008MOL0     H39076   6.396   9.342   7.266  2.4141 -0.6603 -1.9208
 1008MOL0     H39077   6.442   9.180   7.247 -2.4356 -2.7276  0.5170
 1008MOL0     H39078   6.376   9.290   7.044 -0.1740  2.2264 -0.6749
 1008MOL0     H39079   6.206   9.318   7.089 -0.6610 -0.9608 -0.1949
 1008MOL0     H39080   6.228   9.163   6.931 -0.4566  0.8668 -0.3080
 1008MOL0     H39081   6.147   9.081   7.062 -1.6941  1.9065 -1.2867
 1008MOL0     H39082   6.302   8.916   6.978  0.8983 -1.2380  0.5746
 1008MOL0     H39083   6.370   8.972   7.131  1.6539  0.2755  0.3294
 1008MOL0     H39084   5.677   9.092   7.336  2.7246 -0.5534  0.0597
 1008MOL0     H39085   5.534   8.888   7.292 -0.0305  1.0447 -0.2835
 1008MOL0     H39086   5.479   8.452   7.097 -0.7395 -1.1790 -0.4728
 1008MOL0     H39087   5.301   8.264   7.094  0.8276 -0.6006  0.7280
 1008MOL0     H39088   3.404   8.148   7.470  1.4309 -1.6314 -1.1683
 1008MOL0     H39089   3.261   7.964   7.590  0.6694 -0.6452 -1.2164
 1008MOL0     H39090   2.905   8.024   8.007 -1.8730 -1.1441 -2.3508
 1008MOL0     H39091   2.761   7.879   8.124 -1.3440 -2.4313 -1.9534
 1008MOL0     H39092   2.647   7.708   8.255  0.2605  1.7784 -2.5173
 1008MOL0     H39093   2.689   7.654   8.087 -0.2335 -1.2254  0.2281
 1008MOL0     H39094   2.527   7.500   8.232 -0.4355  1.2098 -1.2877
 1008MOL0     H39095   2.671   7.454   8.315 -3.0801  2.6981  1.7602
 1008MOL0     H39096   2.646   7.285   8.133  1.1613 -0.1066 -0.7576
 1008MOL0     H39097   2.633   7.424   8.017  0.2193  4.7615  1.2390
 1008MOL0     H39098   2.878   7.465   8.048  3.1760 -0.1543  1.1640
 1008MOL0     H39099   2.836   7.297   8.007  0.1360  0.6725 -0.3461
 1008MOL0     H39100   2.995   7.220   8.378 -1.1536 -0.3985  0.8370
 1008MOL0     H39101   3.070   7.595   8.188 -1.4810 -0.0733  4.3512
 1008MOL0     H39102   3.344   7.782   8.017 -1.6150  0.7795 -1.2505
 1008MOL0     H39103   3.303   7.656   8.131  2.6407  1.2164 -0.3896
 1008MOL0     H39104   3.259   7.642   7.959  1.6664  0.6249 -1.6831
 1009MOL0     O39105   1.643   3.263   5.245  0.1449 -0.4050 -0.4149
 1009MOL0     C39106   1.542   3.324   5.211 -0.2187  0.0815  0.9935
 1009MOL0     O39107   1.537   3.448   5.162 -0.3679  0.2656 -0.1175
 1009MOL0     C39108   1.655   3.521   5.156  0.4935  0.0622  0.3727
 1009MOL0     C39109   1.759   3.480   5.078  0.6150  0.2044 -0.1284
 1009MOL0     C39110   1.881   3.552   5.074  0.6477 -0.2415 -0.3933
 1009MOL0     C39111   1.896   3.667   5.156  0.3694 -0.1109  0.0075
 1009MOL0     O39112   2.012   3.736   5.152 -0.4918  0.3750 -0.1027
 1009MOL0     C39113   2.044   3.828   5.261  0.0069  0.3368 -0.4479
 1009MOL0     C39114   2.185   3.870   5.256 -0.8190 -0.0469  1.0128
 1009MOL0     C39115   2.289   3.754   5.235 -0.3485  0.4301 -0.8790
 1009MOL0     C39116   2.429   3.824   5.246  0.7459  0.0752 -0.2969
 1009MOL0     C39117   2.546   3.735   5.188  0.1697  0.7754  0.1212
 1009MOL0     C39118   2.674   3.810   5.189 -0.1696  0.5598 -0.2160
 1009MOL0     C39119   2.777   3.733   5.106 -0.2555 -0.0648  0.3251
 1009MOL0     C39120   2.913   3.808   5.113  1.0210 -0.6954 -0.2544
 1009MOL0     N39121   3.011   3.723   5.043  0.8721  0.4330 -0.1438
 1009MOL0     C39122   3.147   3.744   5.057 -0.3993 -0.6610  0.2077
 1009MOL0     C39123   3.195   3.623   5.010  0.3535  0.0694  0.4686
 1009MOL0     C39124   3.331   3.585   4.979 -0.4061 -0.3652 -0.4139
 1009MOL0     C39125   3.360   3.626   4.833  0.2419  0.7522  0.4252
 1009MOL0     C39126   3.510   3.644   4.818  0.6370 -1.1092 -0.5203
 1009MOL0     C39127   3.598   3.515   4.858 -0.9536 -0.1766  0.3397
 1009MOL0     O39128   3.614   3.505   4.998 -0.4498 -0.0315 -0.4216
 1009MOL0     C39129   3.736   3.555   5.046  0.4593 -0.0690 -0.9319
 1009MOL0     C39130   3.728   3.655   5.134 -0.1980 -0.2772 -0.8364
 1009MOL0     C39131   3.841   3.706   5.193 -0.2605  0.4733  0.7060
 1009MOL0     C39132   3.814   3.821   5.297 -0.8100 -0.1165 -0.2865
 1009MOL0     C39133   3.969   3.665   5.150 -0.4571 -0.2653  0.6260
 1009MOL0     C39134   4.095   3.725   5.203 -0.2183  0.0706  0.0441
 1009MOL0     O39135   4.209   3.708   5.124  0.0324 -0.0338 -0.2374
 1009MOL0     C39136   4.315   3.784   5.145 -0.6124 -0.0865 -1.2646
 1009MOL0     C39137   4.435   3.720   5.132  0.9678  1.0682 -0.2623
 1009MOL0     C39138   4.552   3.797   5.132 -0.0651  0.2019  0.6827
 1009MOL0     C39139   4.549   3.936   5.127 -0.4568 -0.1091  1.2182
 1009MOL0     O39140   4.671   3.999   5.126 -0.8054  0.8102  0.4110
 1009MOL0     C39141   4.668   4.142   5.110  0.3759 -0.1004 -0.2045
 1009MOL0     C39142   4.802   4.202   5.103  0.7034  0.4351 -0.2154
 1009MOL0     C39143   4.876   4.179   5.237 -0.6271  0.3200  0.0686
 1009MOL0     C39144   5.032   4.212   5.223 -0.2557 -0.9393  0.7214
 1009MOL0     C39145   5.106   4.146   5.338 -0.3737  0.5685 -0.3467
 1009MOL0     C39146   5.259   4.155   5.319 -0.6363 -0.3249  0.3702
 1009MOL0     C39147   5.312   4.288   5.274  0.2405 -0.1242  0.3192
 1009MOL0     C39148   5.458   4.279   5.280 -1.0584 -0.0775  0.0056
 1009MOL0    Cl39149   5.530   4.437   5.243  0.0456 -0.0616 -0.0486
 1009MOL0     C39150   4.422   3.997   5.129 -1.2199  0.7298 -0.4823
 1009MOL0     C39151   4.304   3.922   5.148 -0.1018 -0.6221  0.8433
 1009MOL0     O39152   4.093   3.778   5.320 -0.9560  0.0109  0.0904
 1009MOL0     C39153   3.976   3.553   5.061 -0.0138 -0.5248 -0.1704
 1009MOL0     C39154   3.857   3.501   5.016 -0.9097  0.7697  0.2388
 1009MOL0     N39155   3.102   3.539   4.979 -0.4282 -0.2378 -0.3413
 1009MOL0     N39156   2.991   3.595   5.001 -0.2260  0.0660  0.8064
 1009MOL0     C39157   1.782   3.714   5.222 -0.3857  0.1306 -0.3410
 1009MOL0     C39158   1.661   3.645   5.223 -0.0396  0.0185  0.3759
 1009MOL0     C39159   1.408   3.255   5.223 -0.3030  0.1953 -0.7553
 1009MOL0     C39160   1.297   3.340   5.240  0.7149  0.6274 -0.2178
 1009MOL0     C39161   1.165   3.290   5.235 -0.6842  1.4172 -0.0942
 1009MOL0     C39162   1.137   3.154   5.206  0.4448  0.0273 -0.2763
 1009MOL0     O39163   1.008   3.107   5.175  0.3597  0.0448  0.4480
 1009MOL0     C39164   0.987   2.965   5.155 -0.2954 -0.1942  0.1255
 1009MOL0     C39165   0.843   2.937   5.140 -0.0720 -0.3172  0.2542
 1009MOL0     C39166   0.770   2.949   5.280  0.3155  0.1378 -0.0003
 1009MOL0     C39167   0.620   2.905   5.264  0.7304  0.0109 -0.4092
 1009MOL0     C39168   0.565   2.892   5.395 -0.7196  0.4999 -1.7408
 1009MOL0     C39169   0.525   2.874   5.513 -0.5415 -0.2242  0.7798
 1009MOL0     C39170   1.249   3.073   5.216 -0.2580  0.0315 -0.3558
 1009MOL0     C39171   1.384   3.119   5.214 -0.4965  0.8136 -0.5186
 1009MOL0     C39172   1.471   2.996   5.198 -0.1671  0.2285  0.7720
 1009MOL0     H39173   1.736   3.397   5.013 -1.5196 -1.5946  2.6794
 1009MOL0     H39174   1.956   3.527   5.000  0.3336 -0.8512 -0.5171
 1009MOL0     H39175   2.026   3.778   5.357 -1.2245 -0.9568 -1.3208
 1009MOL0     H39176   1.986   3.920   5.259  0.6560  0.8448  1.4761
 1009MOL0     H39177   2.193   3.934   5.168  1.2399 -1.9915 -0.2949
 1009MOL0     H39178   2.212   3.926   5.346  0.9484 -1.2020  1.2439
 1009MOL0     H39179   2.285   3.667   5.302  1.6109  0.9936  0.0523
 1009MOL0     H39180   2.279   3.725   5.130 -0.6597 -0.0696 -0.7163
 1009MOL0     H39181   2.410   3.911   5.182 -3.1690 -1.2157 -1.1647
 1009MOL0     H39182   2.462   3.842   5.349  0.2773  0.2055 -0.1651
 1009MOL0     H39183   2.528   3.695   5.088 -2.3788  1.0222  0.4221
 1009MOL0     H39184   2.548   3.650   5.257  0.8895 -0.7101 -1.6335
 1009MOL0     H39185   2.662   3.907   5.141 -2.3137 -0.5772 -2.1974
 1009MOL0     H39186   2.714   3.835   5.288 -2.2388 -0.5114  0.9418
 1009MOL0     H39187   2.739   3.719   5.005 -2.7634  1.1939  1.0303
 1009MOL0     H39188   2.771   3.632   5.148 -0.4733 -0.3329 -0.3394
 1009MOL0     H39189   2.906   3.908   5.068 -2.4155 -1.4394 -1.6812
 1009MOL0     H39190   2.944   3.822   5.217 -1.0572  0.0672  0.3167
 1009MOL0     H39191   3.206   3.832   5.079 -1.0616  0.5463 -2.4052
 1009MOL0     H39192   3.349   3.479   5.001 -2.4332 -0.7069 -0.1543
 1009MOL0     H39193   3.392   3.649   5.043 -2.2037  0.0387  0.9876
 1009MOL0     H39194   3.326   3.551   4.762 -0.7359  1.4861  0.0971
 1009MOL0     H39195   3.298   3.713   4.812 -0.9967 -0.4557 -1.1316
 1009MOL0     H39196   3.525   3.662   4.711  0.0866  1.0765 -0.2871
 1009MOL0     H39197   3.539   3.733   4.875  0.1799 -0.4713 -1.2577
 1009MOL0     H39198   3.543   3.436   4.807 -4.2776  2.4860 -0.6036
 1009MOL0     H39199   3.697   3.526   4.814 -0.4290 -2.0947  0.9684
 1009MOL0     H39200   3.626   3.679   5.162  0.7334  3.2928 -0.0092
 1009MOL0     H39201   3.859   3.913   5.258  1.5647 -1.4922 -1.0195
 1009MOL0     H39202   3.863   3.812   5.395  0.1587  0.6477 -0.6883
 1009MOL0     H39203   3.709   3.847   5.310 -1.8058 -2.8625 -2.1901
 1009MOL0     H39204   4.422   3.613   5.119  0.7355  0.9589  0.7611
 1009MOL0     H39205   4.648   3.748   5.131  0.3097  0.8597  2.0965
 1009MOL0     H39206   4.629   4.161   5.009 -0.3633  0.4168  0.1706
 1009MOL0     H39207   4.616   4.196   5.189  1.1212 -0.5911  0.6317
 1009MOL0     H39208   4.853   4.154   5.019  0.2546  1.7280 -1.2443
 1009MOL0     H39209   4.807   4.306   5.073  0.4730  0.0720 -1.5627
 1009MOL0     H39210   4.861   4.073   5.259  1.5507 -0.5929 -2.3670
 1009MOL0     H39211   4.836   4.240   5.318 -1.2720  0.3245 -0.2468
 1009MOL0     H39212   5.034   4.321   5.225  0.5412 -0.9649  1.6673
 1009MOL0     H39213   5.058   4.177   5.122 -1.5811  1.6208 -0.6298
 1009MOL0     H39214   5.077   4.197   5.431  0.8685 -0.5437  0.6822
 1009MOL0     H39215   5.075   4.044   5.360  0.8636  0.5709  1.6005
 1009MOL0     H39216   5.287   4.088   5.238  1.8855 -1.7980  2.3239
 1009MOL0     H39217   5.309   4.102   5.400  1.0649 -0.1240 -0.5139
 1009MOL0     H39218   5.266   4.362   5.340 -2.0807  1.5345 -2.8522
 1009MOL0     H39219   5.273   4.303   5.173 -2.8183 -0.7615  1.2922
 1009MOL0     H39220   5.495   4.199   5.215 -4.1626 -1.6403 -0.0341
 1009MOL0     H39221   5.490   4.237   5.376  2.6884 -2.6918 -2.1081
 1009MOL0     H39222   4.429   4.105   5.138  0.1844  0.6044  0.1933
 1009MOL0     H39223   4.217   3.986   5.153  1.6668  2.1449 -0.8263
 1009MOL0     H39224   4.074   3.516   5.032  1.3263 -1.0216  4.1851
 1009MOL0     H39225   3.845   3.404   4.968  1.2635  0.7072 -0.2826
 1009MOL0     H39226   1.779   3.810   5.274 -4.9190  1.4507 -2.5664
 1009MOL0     H39227   1.575   3.697   5.263 -0.0557  0.5638 -0.3452
 1009MOL0     H39228   1.305   3.445   5.265  0.8437 -0.1100  3.3726
 1009MOL0     H39229   1.082   3.359   5.243 -1.7285  0.0729  1.0198
 1009MOL0     H39230   1.048   2.941   5.067  2.6442  1.2165  1.6342
 1009MOL0     H39231   1.018   2.899   5.237  0.7011 -1.2633 -1.0609
 1009MOL0     H39232   0.812   2.836   5.114 -2.9643  0.7599 -1.0003
 1009MOL0     H39233   0.795   3.005   5.068 -0.4610 -0.3754  0.4530
 1009MOL0     H39234   0.826   2.884   5.348  0.4818  0.6793  0.3804
 1009MOL0     H39235   0.781   3.049   5.322  1.1449 -0.5532  1.4886
 1009MOL0     H39236   0.607   2.809   5.214 -0.1103 -0.5838  0.9150
 1009MOL0     H39237   0.555   2.981   5.220  0.0149 -0.5438 -0.3215
 1009MOL0     H39238   0.491   2.867   5.614 -2.6585 -2.0812  0.0208
 1009MOL0     H39239   1.235   2.966   5.214  1.8497 -0.3255  0.6821
 1009MOL0     H39240   1.479   2.953   5.298  0.2746 -0.6621  0.3608
 1009MOL0     H39241   1.417   2.924   5.137 -2.5129  4.0421 -2.1219
 1009MOL0     H39242   1.573   3.011   5.159  0.0266  0.5444  1.3858
 1010MOL0     O39243   1.742  11.416  10.336  0.0899 -0.2881  1.4401
 1010MOL0     C39244   1.695  11.306  10.357  0.1001  0.2488  0.1238
 1010MOL0     O39245   1.743  11.226  10.451 -0.1375 -0.1763 -0.0283
 1010MOL0     C39246   1.863  11.251  10.515  0.2985  0.1252  0.3987
 1010MOL0     C39247   1.981  11.303  10.456 -0.4050 -0.0285 -0.1059
 1010MOL0     C39248   2.101  11.316  10.526 -0.8195 -0.1018 -0.1192
 1010MOL0     C39249   2.106  11.287  10.664 -0.1337  0.2182 -0.1799
 1010MOL0     O39250   2.222  11.312  10.735  0.2531  0.9846  0.6664
 1010MOL0     C39251   2.246  11.215  10.837 -0.3891 -0.2487  0.1436
 1010MOL0     C39252   2.403  11.190  10.829 -0.1289 -0.2074  0.3589
 1010MOL0     C39253   2.448  11.128  10.695  0.3764  0.3640 -0.9326
 1010MOL0     C39254   2.590  11.074  10.701  1.1451 -0.7214  0.1469
 1010MOL0     C39255   2.650  11.030  10.565 -0.1500  0.0774  0.5510
 1010MOL0     C39256   2.624  11.114  10.441  0.2755  0.2807  0.3009
 1010MOL0     C39257   2.670  11.041  10.309  0.0785  0.4498  0.6201
 1010MOL0     C39258   2.805  10.979  10.311 -0.6030  0.0864  0.4428
 1010MOL0     N39259   2.852  10.923  10.178  0.0411  0.0780  0.0979
 1010MOL0     C39260   2.762  10.858  10.088 -0.0073  0.1077  1.4106
 1010MOL0     C39261   2.836  10.839   9.978  0.3836 -0.0086  0.9212
 1010MOL0     C39262   2.786  10.781   9.846 -0.0664 -0.2500 -0.1407
 1010MOL0     C39263   2.773  10.627   9.846 -0.4704  0.2998  0.1385
 1010MOL0     C39264   2.897  10.551   9.786 -0.1210  0.1342  1.3905
 1010MOL0     C39265   2.929  10.583   9.639  0.1794  0.0543 -0.3220
 1010MOL0     O39266   2.820  10.557   9.543  0.1154 -0.2474 -0.3755
 1010MOL0     C39267   2.854  10.502   9.419  0.4975  1.2111  1.4255
 1010MOL0     C39268   2.909  10.371   9.410 -0.4913 -0.1758 -0.4438
 1010MOL0     C39269   2.952  10.314   9.300 -0.2769 -0.1118 -0.5495
 1010MOL0     C39270   3.017  10.174   9.316 -0.1183  0.6572  0.6381
 1010MOL0     C39271   2.940  10.389   9.182 -0.1069  0.1747 -0.1863
 1010MOL0     C39272   3.009  10.350   9.058 -0.9965 -0.3178 -0.2191
 1010MOL0     O39273   3.026  10.448   8.953  0.0391 -0.0136 -0.1964
 1010MOL0     C39274   3.097  10.426   8.838  0.6541 -0.2933  0.1493
 1010MOL0     C39275   3.192  10.333   8.804 -1.0136  0.0719  0.7300
 1010MOL0     C39276   3.255  10.319   8.679  0.4415 -0.2802  0.4927
 1010MOL0     C39277   3.225  10.407   8.574  0.2946  0.2468 -0.4173
 1010MOL0     O39278   3.288  10.399   8.455 -0.4394 -0.1946 -0.3494
 1010MOL0     C39279   3.247  10.498   8.354  0.7493  0.6954  0.5875
 1010MOL0     C39280   3.285  10.441   8.212  1.0063 -0.1843 -0.4349
 1010MOL0     C39281   3.217  10.519   8.106  0.3244 -0.2352  0.6770
 1010MOL0     C39282   3.161  10.439   7.991  0.0644  0.5627  0.2923
 1010MOL0     C39283   3.099  10.528   7.887  0.6803  1.3410 -0.7074
 1010MOL0     C39284   3.032  10.440   7.779 -0.2644  0.0771  0.0539
 1010MOL0     C39285   3.008  10.524   7.652  0.4384  0.8025 -0.4409
 1010MOL0     C39286   2.918  10.645   7.690  0.1532 -0.0321  0.1091
 1010MOL0    Cl39287   2.760  10.617   7.778  0.3318  0.3178 -0.1163
 1010MOL0     C39288   3.137  10.513   8.611  0.3524  0.8168  0.3517
 1010MOL0     C39289   3.072  10.521   8.740 -0.6190  0.3389  0.0834
 1010MOL0     O39290   3.055  10.233   9.044 -0.4435 -0.0955 -0.2878
 1010MOL0     C39291   2.872  10.510   9.183  0.0265 -0.2175  0.3531
 1010MOL0     C39292   2.825  10.570   9.300  0.2445 -0.0444  0.7430
 1010MOL0     N39293   2.960  10.891   9.998 -0.3039  0.2955  0.3550
 1010MOL0     N39294   2.970  10.959  10.106  0.4494  0.0969  0.4944
 1010MOL0     C39295   1.987  11.228  10.718 -0.1194  0.3041 -0.5959
 1010MOL0     C39296   1.865  11.216  10.657 -0.0292 -0.0507 -0.1018
 1010MOL0     C39297   1.568  11.248  10.277 -0.6333 -0.4883 -1.1323
 1010MOL0     C39298   1.528  11.113  10.316 -0.0917 -0.5652 -0.3968
 1010MOL0     C39299   1.417  11.048  10.257  0.4796 -0.0890  0.8261
 1010MOL0     C39300   1.356  11.124  10.152 -0.2300  0.1644 -0.0119
 1010MOL0     O39301   1.250  11.065  10.090  0.0608  0.0447  0.2896
 1010MOL0     C39302   1.133  11.035  10.162 -0.9824 -0.5302  0.1878
 1010MOL0     C39303   1.020  11.129  10.119  0.7467 -0.2360  0.3460
 1010MOL0     C39304   0.887  11.101  10.199 -0.0800  0.1410  0.4838
 1010MOL0     C39305   0.779  11.183  10.144 -0.1165  0.3519  0.5145
 1010MOL0     C39306   0.674  11.180  10.243  0.4011 -0.2435 -0.2661
 1010MOL0     C39307   0.588  11.177  10.329 -0.4389 -0.7112 -0.1813
 1010MOL0     C39308   1.394  11.248  10.120  0.9946  0.1538 -0.5499
 1010MOL0     C39309   1.498  11.320  10.185 -0.1286  1.0831  0.1048
 1010MOL0     C39310   1.517  11.467  10.150  0.6440 -0.6803  0.1106
 1010MOL0     H39311   1.982  11.338  10.354 -1.4791 -2.3039 -0.9748
 1010MOL0     H39312   2.189  11.344  10.469  0.5622 -3.3980  0.1706
 1010MOL0     H39313   2.196  11.120  10.816 -4.3005  1.9558 -1.5450
 1010MOL0     H39314   2.200  11.257  10.927 -2.7087 -1.3123 -0.4821
 1010MOL0     H39315   2.455  11.286  10.837  0.6983 -0.3749 -2.1935
 1010MOL0     H39316   2.434  11.118  10.905 -0.6565 -0.9003 -0.0669
 1010MOL0     H39317   2.386  11.042  10.669  1.0588 -0.3301 -0.3049
 1010MOL0     H39318   2.445  11.201  10.614  0.3932  0.1162 -1.1559
 1010MOL0     H39319   2.656  11.157  10.725  1.8094 -1.1069 -0.3121
 1010MOL0     H39320   2.606  10.998  10.779 -2.1265  0.4974  2.2047
 1010MOL0     H39321   2.598  10.937  10.539  0.8486  0.0797 -1.6422
 1010MOL0     H39322   2.754  11.000  10.579 -0.5872 -1.4318  0.8141
 1010MOL0     H39323   2.518  11.137  10.431  0.4321  0.0382 -3.0720
 1010MOL0     H39324   2.671  11.213  10.437  1.0178 -0.0604  0.4138
 1010MOL0     H39325   2.647  11.104  10.222  2.9185  2.0149  0.8741
 1010MOL0     H39326   2.604  10.954  10.304  0.9638 -0.2895  1.4128
 1010MOL0     H39327   2.881  11.051  10.341  0.3909  0.8171 -3.3359
 1010MOL0     H39328   2.794  10.886  10.368 -0.4563  0.3382  0.8864
 1010MOL0     H39329   2.655  10.846  10.106  0.0532 -1.7219  0.7688
 1010MOL0     H39330   2.846  10.819   9.762  2.0421 -2.2567  0.3555
 1010MOL0     H39331   2.683  10.815   9.833 -0.8214 -1.7554  1.5595
 1010MOL0     H39332   2.757  10.594   9.949 -1.0869 -3.1165 -0.9361
 1010MOL0     H39333   2.678  10.592   9.804 -0.9145 -1.0364  2.1140
 1010MOL0     H39334   2.986  10.577   9.843 -1.3889  1.2945  2.9230
 1010MOL0     H39335   2.878  10.443   9.791 -3.1231  0.4786 -0.2805
 1010MOL0     H39336   2.962  10.687   9.637 -0.4502  0.2863  0.9122
 1010MOL0     H39337   3.021  10.529   9.615  1.6057  1.9900  0.5268
 1010MOL0     H39338   2.930  10.317   9.502 -0.5630 -2.0072 -1.4438
 1010MOL0     H39339   3.030  10.140   9.419  3.9682  0.7525  0.3111
 1010MOL0     H39340   3.114  10.161   9.267 -2.6058  1.3511 -5.4174
 1010MOL0     H39341   2.963  10.098   9.258  0.1550 -0.2845  1.5806
 1010MOL0     H39342   3.217  10.249   8.868 -0.4050 -1.5706 -1.5653
 1010MOL0     H39343   3.337  10.251   8.661  1.2906  0.3895  1.7633
 1010MOL0     H39344   3.137  10.502   8.358  0.6189  0.1379 -1.2185
 1010MOL0     H39345   3.295  10.596   8.367  1.5682  0.5899 -1.2901
 1010MOL0     H39346   3.393  10.444   8.197  1.1902 -0.9370  0.6038
 1010MOL0     H39347   3.248  10.338   8.210 -1.5390  0.6669 -1.6295
 1010MOL0     H39348   3.294  10.588   8.068  0.0770  0.3347  1.1974
 1010MOL0     H39349   3.127  10.566   8.147 -0.4945 -0.8209 -0.3910
 1010MOL0     H39350   3.087  10.368   8.030  2.1545 -0.3121  2.9650
 1010MOL0     H39351   3.233  10.370   7.946 -1.2838  1.5887 -3.8641
 1010MOL0     H39352   3.028  10.592   7.941 -0.3096 -3.2700  4.4052
 1010MOL0     H39353   3.181  10.588   7.846 -0.3644  1.3174 -2.9243
 1010MOL0     H39354   2.938  10.397   7.814 -0.3001 -0.0525 -0.2003
 1010MOL0     H39355   3.100  10.360   7.748 -0.8152  0.4493 -2.2961
 1010MOL0     H39356   2.950  10.466   7.580 -0.8698  0.3402  0.9229
 1010MOL0     H39357   3.106  10.554   7.614  0.6987 -0.2837 -0.6596
 1010MOL0     H39358   2.893  10.693   7.595  3.3118  0.4914 -0.5852
 1010MOL0     H39359   2.980  10.716   7.745  2.1530  1.1653 -3.3235
 1010MOL0     H39360   3.112  10.593   8.542  1.1702  1.1198  0.3952
 1010MOL0     H39361   2.999  10.600   8.756 -0.3083  1.0093 -1.5523
 1010MOL0     H39362   2.858  10.559   9.087 -0.6415 -1.6868 -0.3239
 1010MOL0     H39363   2.779  10.668   9.303 -0.2006 -0.2598  1.3756
 1010MOL0     H39364   1.980  11.191  10.820 -0.7959  0.6180 -0.5220
 1010MOL0     H39365   1.774  11.184  10.706 -0.2877 -1.1382 -1.2290
 1010MOL0     H39366   1.591  11.055  10.384 -0.1035  0.0140  0.1189
 1010MOL0     H39367   1.399  10.941  10.260  0.2155 -0.3322 -3.3283
 1010MOL0     H39368   1.113  10.928  10.146  0.5212 -0.9721  1.0586
 1010MOL0     H39369   1.140  11.044  10.271  0.0565  0.4640  0.0554
 1010MOL0     H39370   1.012  11.117  10.011 -3.1158 -0.5307  0.5194
 1010MOL0     H39371   1.053  11.231  10.143 -1.0401 -0.1246  2.6010
 1010MOL0     H39372   0.866  10.998  10.168  0.4673  0.4678 -1.0382
 1010MOL0     H39373   0.897  11.102  10.308  0.9895  1.1601  0.4014
 1010MOL0     H39374   0.750  11.140  10.048  1.0704  0.4542  0.0888
 1010MOL0     H39375   0.808  11.288  10.132 -2.0041  0.9469  0.8522
 1010MOL0     H39376   0.521  11.186  10.412 -0.0871  0.0869  0.0258
 1010MOL0     H39377   1.334  11.296  10.044 -0.1387  0.1672  0.3193
 1010MOL0     H39378   1.606  11.468  10.087  0.9545 -2.1269  0.5000
 1010MOL0     H39379   1.436  11.516  10.094  0.2301 -2.1209 -0.6179
 1010MOL0     H39380   1.531  11.528  10.240  1.5227 -0.4784 -0.1585
 1011MOL0     O39381   1.083   5.078   5.460 -0.2781 -0.1279  0.4129
 1011MOL0     C39382   1.104   4.996   5.371 -0.1291 -0.3257  0.4034
 1011MOL0     O39383   1.209   4.904   5.366  0.4969  0.0348 -0.3699
 1011MOL0     C39384   1.324   4.933   5.433 -0.1378 -0.3263  0.0445
 1011MOL0     C39385   1.420   5.006   5.363 -0.2239  0.2631  1.2100
 1011MOL0     C39386   1.541   5.043   5.425  0.0248 -0.4864  0.2214
 1011MOL0     C39387   1.557   5.012   5.561  0.1631 -0.8226  0.4881
 1011MOL0     O39388   1.672   5.047   5.630 -0.8092  0.0830  0.0545
 1011MOL0     C39389   1.784   5.123   5.599  0.5317  0.2363 -0.3684
 1011MOL0     C39390   1.881   5.134   5.714  0.1711  0.0777  0.3533
 1011MOL0     C39391   1.965   5.008   5.726  0.7181  0.4927 -0.2080
 1011MOL0     C39392   2.071   5.011   5.844 -0.2433 -0.0324  0.8809
 1011MOL0     C39393   2.142   4.877   5.863  0.4586 -0.0219  0.4874
 1011MOL0     C39394   2.275   4.878   5.921 -0.3246  0.2926 -0.0064
 1011MOL0     C39395   2.320   4.743   5.987  1.0292 -0.5150 -0.0341
 1011MOL0     C39396   2.448   4.761   6.046 -0.5363  0.7005  0.1595
 1011MOL0     N39397   2.558   4.821   5.966  0.3058 -0.1659 -0.4988
 1011MOL0     C39398   2.573   4.957   5.948 -1.2164  0.4406 -1.2111
 1011MOL0     C39399   2.676   4.971   5.866 -0.1558 -0.3287  0.2588
 1011MOL0     C39400   2.734   5.092   5.804  0.8231 -0.5042 -0.0596
 1011MOL0     C39401   2.801   5.193   5.900  0.2544 -0.0217  1.7688
 1011MOL0     C39402   2.819   5.327   5.840  0.4553  0.1848  0.3918
 1011MOL0     C39403   2.918   5.424   5.912  1.3396  0.4331  0.7467
 1011MOL0     O39404   3.044   5.385   5.862  0.3257 -0.1767  0.5652
 1011MOL0     C39405   3.149   5.451   5.919 -0.1444 -0.2489 -0.6061
 1011MOL0     C39406   3.277   5.388   5.911 -0.9879  0.2685 -0.6814
 1011MOL0     C39407   3.402   5.438   5.966 -0.2667  0.1279 -0.6552
 1011MOL0     C39408   3.527   5.344   5.977 -0.4901  0.1375 -0.2124
 1011MOL0     C39409   3.393   5.562   6.032  0.6400 -0.1129  0.3786
 1011MOL0     C39410   3.509   5.625   6.085  0.7014 -0.2861  0.6728
 1011MOL0     O39411   3.630   5.594   6.034 -0.3734 -0.3244 -0.1994
 1011MOL0     C39412   3.753   5.639   6.094  0.8979  0.5255  0.0434
 1011MOL0     C39413   3.859   5.665   6.007  0.2696  0.5713  0.2621
 1011MOL0     C39414   3.970   5.736   6.047 -0.1401 -0.3908 -0.3889
 1011MOL0     C39415   3.982   5.787   6.178 -0.3392 -0.5706  0.5341
 1011MOL0     O39416   4.089   5.871   6.222 -0.4175 -0.1224 -0.0194
 1011MOL0     C39417   4.168   5.949   6.130  0.2695 -0.1392 -0.2594
 1011MOL0     C39418   4.237   6.085   6.183 -0.1528  0.6263 -0.8174
 1011MOL0     C39419   4.145   6.177   6.264 -0.2801  0.1780 -0.2253
 1011MOL0     C39420   4.223   6.294   6.311 -0.3537  0.0172  0.4683
 1011MOL0     C39421   4.143   6.388   6.391  0.5217  0.1993 -0.2427
 1011MOL0     C39422   4.206   6.528   6.411  0.7642  0.3253  0.4570
 1011MOL0     C39423   4.144   6.619   6.513  0.3377  1.1603 -0.6482
 1011MOL0     C39424   4.203   6.618   6.650  0.0428 -0.0024  0.5597
 1011MOL0    Cl39425   4.233   6.463   6.724 -0.1108 -0.1145 -0.1401
 1011MOL0     C39426   3.891   5.739   6.271 -0.1862 -0.5813  0.1292
 1011MOL0     C39427   3.775   5.670   6.225  0.5330  0.5288  1.1596
 1011MOL0     O39428   3.491   5.700   6.178  0.7061 -0.0885  0.1305
 1011MOL0     C39429   3.272   5.630   6.034 -0.7519 -0.2811  0.0962
 1011MOL0     C39430   3.150   5.577   5.977 -0.2919 -0.0283 -0.6623
 1011MOL0     N39431   2.713   4.843   5.823  0.2777  0.2927 -0.1426
 1011MOL0     N39432   2.645   4.753   5.888 -0.4383 -0.2410 -0.4612
 1011MOL0     C39433   1.459   4.943   5.631  0.1195  0.2361  0.1272
 1011MOL0     C39434   1.340   4.897   5.569 -0.6196 -0.9353 -0.0100
 1011MOL0     C39435   0.992   4.993   5.269 -0.2023 -0.0542  0.0228
 1011MOL0     C39436   0.866   5.062   5.299 -0.8746 -0.9476 -0.4594
 1011MOL0     C39437   0.761   5.043   5.212 -0.0077 -0.6158  0.1329
 1011MOL0     C39438   0.772   4.989   5.087  0.3631 -0.9656  0.5760
 1011MOL0     O39439   0.671   4.996   4.989 -0.2865 -0.4558  0.2047
 1011MOL0     C39440   0.555   4.909   5.015  0.0946  0.0631  0.5149
 1011MOL0     C39441   0.426   4.993   4.996 -0.8029 -0.3436  0.3995
 1011MOL0     C39442   0.426   5.054   4.861 -0.0340 -0.0699  0.0444
 1011MOL0     C39443   0.282   5.097   4.818 -0.3937  0.0320  0.3065
 1011MOL0     C39444   0.291   5.183   4.702 -0.1952  0.5046 -0.0113
 1011MOL0     C39445   0.302   5.246   4.599 -0.5063 -0.0783  0.5321
 1011MOL0     C39446   0.891   4.927   5.056  0.0169 -0.2212 -0.7910
 1011MOL0     C39447   1.001   4.928   5.139 -0.3827  0.9194 -1.1151
 1011MOL0     C39448   1.138   4.856   5.099  0.6691 -0.3370  0.3675
 1011MOL0     H39449   1.411   5.043   5.261  0.1037 -0.6618  0.8319
 1011MOL0     H39450   1.611   5.100   5.364  0.0414  2.8446  3.0933
 1011MOL0     H39451   1.754   5.227   5.582  0.0524  0.3459  1.0447
 1011MOL0     H39452   1.846   5.094   5.514 -2.8224 -0.3507 -2.7931
 1011MOL0     H39453   1.950   5.218   5.699  0.5865  0.1665  2.4463
 1011MOL0     H39454   1.817   5.140   5.803  0.8866 -1.4209  1.0034
 1011MOL0     H39455   1.882   4.940   5.748 -0.5423  1.8524 -0.5162
 1011MOL0     H39456   2.011   4.974   5.634  1.7456  0.0441  0.4591
 1011MOL0     H39457   2.131   5.096   5.811 -2.9792  0.8829 -2.2456
 1011MOL0     H39458   2.027   5.047   5.937  0.8123 -0.0586  1.4082
 1011MOL0     H39459   2.141   4.818   5.771 -1.0442  0.9990 -0.2076
 1011MOL0     H39460   2.083   4.815   5.933  0.0313 -0.4881 -0.2678
 1011MOL0     H39461   2.337   4.915   5.839  1.3358  1.0616  1.5418
 1011MOL0     H39462   2.275   4.953   6.001  0.1425  0.1720  0.1043
 1011MOL0     H39463   2.327   4.670   5.906  4.7295 -0.4609  0.0818
 1011MOL0     H39464   2.255   4.702   6.065 -1.2703  0.7198 -1.1765
 1011MOL0     H39465   2.440   4.819   6.138  1.2011  0.9307  0.1881
 1011MOL0     H39466   2.479   4.662   6.081 -1.6113  0.1625 -0.3395
 1011MOL0     H39467   2.523   5.039   6.000  0.3525 -0.2976  1.6338
 1011MOL0     H39468   2.650   5.143   5.756 -0.5055  0.7645  3.3496
 1011MOL0     H39469   2.813   5.069   5.731  1.9754  1.7424  0.4086
 1011MOL0     H39470   2.747   5.193   5.995 -1.2272 -1.4099  0.9762
 1011MOL0     H39471   2.900   5.156   5.929  0.6331 -1.5939 -1.1690
 1011MOL0     H39472   2.862   5.310   5.741 -0.8683 -1.4228  0.0549
 1011MOL0     H39473   2.722   5.374   5.824 -0.1665 -0.7141  1.3920
 1011MOL0     H39474   2.890   5.527   5.888  0.4791  0.6577  2.5030
 1011MOL0     H39475   2.918   5.417   6.022 -1.6639 -0.4898  0.7771
 1011MOL0     H39476   3.284   5.287   5.873  2.2784  0.2806 -0.4399
 1011MOL0     H39477   3.561   5.357   6.081  0.6280  0.2830 -0.5775
 1011MOL0     H39478   3.602   5.373   5.903 -3.1081  0.5653 -2.8295
 1011MOL0     H39479   3.511   5.236   5.968  0.2268  0.0698 -0.7985
 1011MOL0     H39480   3.843   5.650   5.901  1.9521  0.1212  0.0499
 1011MOL0     H39481   4.053   5.747   5.978  0.2107 -0.3550  0.0285
 1011MOL0     H39482   4.250   5.891   6.089 -1.5457 -3.9351  0.9991
 1011MOL0     H39483   4.100   5.970   6.047  0.9114  1.6356 -0.3762
 1011MOL0     H39484   4.320   6.059   6.248  0.0766 -1.4338 -1.8707
 1011MOL0     H39485   4.267   6.132   6.088 -0.1923 -1.5561 -1.9667
 1011MOL0     H39486   4.106   6.116   6.346 -0.9713  2.8280  1.5340
 1011MOL0     H39487   4.060   6.203   6.200 -0.1248  0.3167 -0.3757
 1011MOL0     H39488   4.255   6.341   6.217 -1.4314  1.7478  0.9179
 1011MOL0     H39489   4.303   6.257   6.377 -1.6481  1.1791  2.8150
 1011MOL0     H39490   4.045   6.395   6.345  0.8960  1.0063 -0.9465
 1011MOL0     H39491   4.120   6.345   6.489 -1.2901 -0.9993 -1.1438
 1011MOL0     H39492   4.208   6.586   6.318 -0.5490 -0.1194  0.1331
 1011MOL0     H39493   4.310   6.510   6.439  1.1511  0.4429 -0.8672
 1011MOL0     H39494   4.037   6.595   6.513  0.6128 -0.1917 -1.9082
 1011MOL0     H39495   4.144   6.721   6.473  0.7246  1.6623  0.5621
 1011MOL0     H39496   4.132   6.675   6.711 -0.3037  1.0935 -0.8215
 1011MOL0     H39497   4.292   6.680   6.645 -1.9952  3.1977  0.9744
 1011MOL0     H39498   3.908   5.769   6.374 -0.1513  1.8253 -0.5166
 1011MOL0     H39499   3.698   5.635   6.293 -0.1336 -0.1729  0.0777
 1011MOL0     H39500   3.272   5.731   6.073 -2.1318 -0.8522  1.7091
 1011MOL0     H39501   3.058   5.636   5.974  0.6900  1.5389 -2.1325
 1011MOL0     H39502   1.463   4.909   5.733 -2.7353 -2.1667 -0.4164
 1011MOL0     H39503   1.269   4.839   5.627 -1.4014  0.8888  0.9315
 1011MOL0     H39504   0.845   5.126   5.383 -0.8991  1.9075 -2.4984
 1011MOL0     H39505   0.663   5.083   5.236  0.5150  2.3729 -2.1248
 1011MOL0     H39506   0.554   4.825   4.944 -2.2678  2.6834 -2.9385
 1011MOL0     H39507   0.560   4.861   5.113 -4.0092  2.8721  2.3931
 1011MOL0     H39508   0.429   5.067   5.077 -1.2476  0.0178  0.0954
 1011MOL0     H39509   0.337   4.932   5.011  0.3134 -1.8120  1.2514
 1011MOL0     H39510   0.495   5.139   4.864  0.4435 -0.4604  0.3459
 1011MOL0     H39511   0.468   4.987   4.785 -1.2865 -1.1422  0.2610
 1011MOL0     H39512   0.237   5.154   4.901 -0.5438 -1.1353  1.0542
 1011MOL0     H39513   0.220   5.008   4.803  1.4330 -0.8704 -2.7746
 1011MOL0     H39514   0.320   5.306   4.513 -2.8469  0.0719  0.0767
 1011MOL0     H39515   0.908   4.884   4.958  0.2693 -0.7650 -0.5084
 1011MOL0     H39516   1.128   4.809   5.001 -0.1337 -0.0782  0.3184
 1011MOL0     H39517   1.216   4.933   5.102  2.3808 -1.9960  0.1257
 1011MOL0     H39518   1.150   4.781   5.178 -0.0431  1.9068  2.7641
 1012MOL0     O39519  10.853   2.600   7.118  0.3391 -0.4749  0.5484
 1012MOL0     C39520  10.862   2.660   7.007 -0.2608  0.1165  0.2406
 1012MOL0     O39521  10.979   2.682   6.945  0.0359 -0.2913 -0.4535
 1012MOL0     C39522  11.098   2.656   6.993 -0.2542 -0.1163  0.0746
 1012MOL0     C39523  11.146   2.532   6.997 -0.7736  0.5343 -0.3436
 1012MOL0     C39524  11.280   2.511   7.034  0.3112  0.3388  0.1062
 1012MOL0     C39525  11.368   2.615   7.058 -0.4968 -0.3624  0.0848
 1012MOL0     O39526  11.499   2.577   7.083  0.1017 -0.4938  0.4552
 1012MOL0     C39527  11.595   2.681   7.106  0.0854  0.3279  0.6699
 1012MOL0     C39528  11.640   2.741   6.981  0.7863 -0.6976  0.4788
 1012MOL0     C39529  11.730   2.653   6.894  0.1170 -0.5430 -0.0598
 1012MOL0     C39530  11.848   2.725   6.840 -1.5656 -0.6077 -0.2448
 1012MOL0     C39531  11.957   2.631   6.771 -1.0790 -0.4662  0.0862
 1012MOL0     C39532  12.070   2.605   6.873 -0.5912 -0.0049  1.0211
 1012MOL0     C39533  12.183   2.514   6.818  0.4817 -0.0159 -0.2095
 1012MOL0     C39534  12.144   2.376   6.765 -0.7209  0.2915  0.5073
 1012MOL0     N39535  12.266   2.303   6.733 -0.9866  0.4619  0.2159
 1012MOL0     C39536  12.270   2.158   6.716  0.5257  0.4261 -0.3368
 1012MOL0     C39537  12.386   2.130   6.655  0.5389  0.5150 -0.2729
 1012MOL0     C39538  12.443   1.999   6.631  0.0731  0.2846 -0.9504
 1012MOL0     C39539  12.461   1.910   6.756 -0.0325 -0.9971 -1.3000
 1012MOL0     C39540  12.561   1.966   6.858 -0.0929  0.5506 -0.1921
 1012MOL0     C39541  12.700   1.977   6.799  0.2640 -0.5145 -0.4244
 1012MOL0     O39542  12.782   2.007   6.917 -0.0122  0.3824 -0.3766
 1012MOL0     C39543  12.913   2.047   6.901 -0.5392  0.0317  0.4974
 1012MOL0     C39544  12.990   2.045   6.779 -0.1070  0.3236 -1.1780
 1012MOL0     C39545  13.127   2.100   6.787 -0.0894  0.9653  0.6464
 1012MOL0     C39546  13.213   2.077   6.664 -0.0006  0.3160  0.2659
 1012MOL0     C39547  13.183   2.166   6.903 -0.5819  0.3495 -0.0520
 1012MOL0     C39548  13.317   2.233   6.917  0.4759  0.2130 -0.1025
 1012MOL0     O39549  13.375   2.238   7.038  0.3550  0.0904  1.0444
 1012MOL0     C39550  13.506   2.271   7.053  0.0668 -0.4031  1.1847
 1012MOL0     C39551  13.531   2.388   7.114  0.2169  0.2107  0.0497
 1012MOL0     C39552  13.657   2.442   7.131  0.9515  0.8705 -0.4060
 1012MOL0     C39553  13.767   2.370   7.075  0.2470 -1.2006  0.0804
 1012MOL0     O39554  13.885   2.437   7.097 -0.3917 -0.6311 -0.9149
 1012MOL0     C39555  14.010   2.379   7.042 -1.0670 -0.0359 -0.2279
 1012MOL0     C39556  14.121   2.474   7.066  0.1703 -0.5087 -0.1897
 1012MOL0     C39557  14.106   2.601   6.983 -0.2762 -0.4903  0.1849
 1012MOL0     C39558  14.224   2.698   6.998  0.4024  0.1481  0.2953
 1012MOL0     C39559  14.187   2.842   6.968  0.1768 -0.3672  0.3033
 1012MOL0     C39560  14.196   2.872   6.816 -0.5692  0.4368 -0.3795
 1012MOL0     C39561  14.152   3.008   6.791  0.0521 -0.6144  0.6521
 1012MOL0     C39562  14.116   3.033   6.643  0.0569  0.2167  0.1472
 1012MOL0    Cl39563  14.166   3.205   6.598  0.1542 -0.0683  0.4050
 1012MOL0     C39564  13.743   2.252   7.001  0.5015 -0.8807  0.3904
 1012MOL0     C39565  13.613   2.207   6.990  0.0369  0.6018 -0.1479
 1012MOL0     O39566  13.361   2.275   6.811 -0.3161  0.0090  0.8716
 1012MOL0     C39567  13.108   2.147   7.019  0.1298  0.6068  1.1894
 1012MOL0     C39568  12.975   2.097   7.014  0.0184 -0.5648  0.0518
 1012MOL0     N39569  12.449   2.250   6.635 -0.7704  0.5641  0.1515
 1012MOL0     N39570  12.367   2.352   6.663  0.2216 -0.2360  0.3294
 1012MOL0     C39571  11.316   2.747   7.051 -0.3542  0.5080  0.4464
 1012MOL0     C39572  11.179   2.762   7.025  0.2409 -0.0908  0.2883
 1012MOL0     C39573  10.738   2.681   6.930  0.0202 -0.0742 -0.0085
 1012MOL0     C39574  10.624   2.604   6.960 -0.3250 -0.1013  0.1971
 1012MOL0     C39575  10.512   2.608   6.888  0.1953  0.8952 -0.3030
 1012MOL0     C39576  10.499   2.691   6.776  0.2984 -0.0794 -0.8738
 1012MOL0     O39577  10.395   2.693   6.687 -0.0615  0.1031  0.3332
 1012MOL0     C39578  10.332   2.574   6.672  0.7384  0.1797 -1.3433
 1012MOL0     C39579  10.222   2.578   6.563 -0.2818 -0.3411 -0.3346
 1012MOL0     C39580  10.264   2.650   6.432 -0.3439 -0.8065  0.3102
 1012MOL0     C39581  10.209   2.569   6.307  0.5688  0.1625  0.0934
 1012MOL0     C39582  10.279   2.599   6.180  0.5391  0.4463 -0.0303
 1012MOL0     C39583  10.349   2.634   6.083 -0.2044  1.1935 -0.1138
 1012MOL0     C39584  10.605   2.779   6.754  0.3285  0.5764 -0.5420
 1012MOL0     C39585  10.727   2.774   6.825  0.9550  0.4792  0.9426
 1012MOL0     C39586  10.832   2.869   6.790 -0.3264 -0.5580  0.3533
 1012MOL0     H39587  11.077   2.455   6.964  0.2555  0.6419 -2.9998
 1012MOL0     H39588  11.320   2.411   7.020  2.4620  1.1612 -0.0753
 1012MOL0     H39589  11.686   2.638   7.150  1.7209  1.7671 -1.0852
 1012MOL0     H39590  11.571   2.754   7.185 -0.6570 -0.1751  0.9209
 1012MOL0     H39591  11.543   2.754   6.932  0.6557  0.2890  0.9846
 1012MOL0     H39592  11.668   2.847   6.978 -1.3900 -0.0156 -3.4695
 1012MOL0     H39593  11.775   2.579   6.960  0.4478  0.5092  0.9374
 1012MOL0     H39594  11.682   2.609   6.806  2.8642 -1.1444 -1.3432
 1012MOL0     H39595  11.806   2.796   6.767 -2.1394  0.7212  1.3069
 1012MOL0     H39596  11.893   2.783   6.921  0.2487 -0.0970 -1.5454
 1012MOL0     H39597  12.013   2.690   6.698  1.7713 -0.8867  1.7974
 1012MOL0     H39598  11.917   2.539   6.727  2.2959 -1.9415 -0.2179
 1012MOL0     H39599  12.114   2.694   6.917  2.6405 -1.6963  1.4730
 1012MOL0     H39600  12.033   2.551   6.960  1.5824  0.4911  2.3020
 1012MOL0     H39601  12.260   2.496   6.894  1.4165 -0.3394 -1.2132
 1012MOL0     H39602  12.220   2.581   6.740  0.3033  0.7065  0.3154
 1012MOL0     H39603  12.094   2.331   6.851 -2.5214  0.2925 -0.4927
 1012MOL0     H39604  12.070   2.384   6.685  0.7283 -0.3071 -0.9545
 1012MOL0     H39605  12.188   2.090   6.739 -0.2609  0.5653 -2.5252
 1012MOL0     H39606  12.543   1.997   6.586  0.9774  1.2014  0.9058
 1012MOL0     H39607  12.374   1.952   6.560 -0.5695  2.3061 -1.7448
 1012MOL0     H39608  12.363   1.891   6.800  0.7378 -0.8704  0.5838
 1012MOL0     H39609  12.498   1.815   6.717  0.1327 -1.1022 -0.8928
 1012MOL0     H39610  12.523   2.064   6.889  1.1387  1.1018 -0.3806
 1012MOL0     H39611  12.580   1.901   6.944  0.1583 -0.6619 -1.1347
 1012MOL0     H39612  12.721   1.885   6.745  1.9637 -0.6087  0.3073
 1012MOL0     H39613  12.706   2.056   6.724 -1.4011 -0.4623 -0.5377
 1012MOL0     H39614  12.952   1.990   6.693  1.4929 -0.8616 -1.1820
 1012MOL0     H39615  13.256   2.171   6.628  0.8901 -0.4708 -0.8097
 1012MOL0     H39616  13.154   2.019   6.593 -1.9064  1.8794  0.4989
 1012MOL0     H39617  13.299   2.015   6.692 -0.8488 -1.1929 -0.3610
 1012MOL0     H39618  13.446   2.437   7.160  1.2800  0.4174  1.8998
 1012MOL0     H39619  13.664   2.532   7.190  1.2036  1.0624 -0.7301
 1012MOL0     H39620  14.036   2.280   7.079 -0.9850 -0.2020 -0.7291
 1012MOL0     H39621  13.993   2.363   6.935  3.9703  2.0279 -1.6451
 1012MOL0     H39622  14.134   2.492   7.173  0.6197 -0.8161 -0.1906
 1012MOL0     H39623  14.218   2.431   7.039  0.6080 -0.1888  0.8263
 1012MOL0     H39624  14.017   2.655   7.018  0.7326  0.5441  1.2289
 1012MOL0     H39625  14.111   2.576   6.877  1.5376 -0.2063  0.1750
 1012MOL0     H39626  14.303   2.661   6.932  2.2486  1.3836  1.7017
 1012MOL0     H39627  14.255   2.684   7.102 -3.5138 -0.9440  1.4679
 1012MOL0     H39628  14.082   2.856   6.996 -0.5004 -2.1073 -1.1748
 1012MOL0     H39629  14.243   2.917   7.024 -0.0829  0.6005 -0.6830
 1012MOL0     H39630  14.136   2.792   6.772  3.0285 -2.6440 -0.2069
 1012MOL0     H39631  14.299   2.868   6.778 -0.9066  0.6205 -1.3297
 1012MOL0     H39632  14.231   3.077   6.821 -1.2858  0.2354  2.4615
 1012MOL0     H39633  14.065   3.031   6.853 -0.2405 -0.2962  0.1368
 1012MOL0     H39634  14.008   3.017   6.640 -0.0751  1.1485 -0.1551
 1012MOL0     H39635  14.158   2.959   6.574  0.3557  0.7774 -0.2736
 1012MOL0     H39636  13.821   2.190   6.957  1.4458  1.4782 -1.4866
 1012MOL0     H39637  13.601   2.119   6.928  0.6620  2.3603 -2.9714
 1012MOL0     H39638  13.155   2.188   7.108  1.6314 -0.0487  0.7218
 1012MOL0     H39639  12.914   2.102   7.104 -0.4785  0.1150 -0.3162
 1012MOL0     H39640  11.379   2.832   7.076 -0.5027 -0.0915  3.1899
 1012MOL0     H39641  11.136   2.862   7.033 -3.8736 -1.5315 -1.0535
 1012MOL0     H39642  10.637   2.534   7.042  0.7915  0.8710  0.8763
 1012MOL0     H39643  10.445   2.536   6.933  1.6137  0.6924  1.6372
 1012MOL0     H39644  10.411   2.500   6.660  1.5517  0.8398 -0.2975
 1012MOL0     H39645  10.289   2.543   6.768  0.7265 -2.2444 -2.0678
 1012MOL0     H39646  10.131   2.616   6.611  0.8255 -1.2893  2.7576
 1012MOL0     H39647  10.209   2.470   6.551 -2.9878 -0.4645  2.4637
 1012MOL0     H39648  10.221   2.749   6.422 -2.6888 -2.0210 -3.8639
 1012MOL0     H39649  10.372   2.648   6.418 -0.0958 -0.5629  1.9647
 1012MOL0     H39650  10.105   2.601   6.297  0.2719  0.0443  2.4240
 1012MOL0     H39651  10.212   2.460   6.321 -1.4752 -0.7893 -4.6619
 1012MOL0     H39652  10.409   2.673   6.003 -1.9272  1.8243 -1.1307
 1012MOL0     H39653  10.584   2.855   6.680 -0.3693  0.7613 -0.1637
 1012MOL0     H39654  10.794   2.961   6.746  0.2359 -0.6845 -0.4238
 1012MOL0     H39655  10.898   2.899   6.872  3.1242 -3.2556 -1.1710
 1012MOL0     H39656  10.898   2.821   6.717  1.2929  2.3031 -0.2334
 1013MOL0     O39657   0.066   1.848   1.479 -0.2246  0.1616 -0.1261
 1013MOL0     C39658   0.049   1.746   1.543  1.4264 -0.4296  0.3292
 1013MOL0     O39659   0.147   1.668   1.591  0.2816 -0.1599  0.6522
 1013MOL0     C39660   0.275   1.693   1.547  0.3345 -0.3390  0.6082
 1013MOL0     C39661   0.336   1.602   1.464 -0.8524 -0.2749 -0.0600
 1013MOL0     C39662   0.464   1.641   1.418  0.1802 -0.4115  0.2740
 1013MOL0     C39663   0.537   1.746   1.483  0.0131  0.0906  0.2729
 1013MOL0     O39664   0.662   1.789   1.455 -0.2311 -0.0347  0.5077
 1013MOL0     C39665   0.730   1.725   1.343 -0.3209  0.4609 -0.0390
 1013MOL0     C39666   0.860   1.794   1.326  0.0022  0.4825  0.0134
 1013MOL0     C39667   0.932   1.750   1.198  0.2372 -0.4110  0.4169
 1013MOL0     C39668   1.062   1.828   1.189 -0.1784  0.2215  0.7848
 1013MOL0     C39669   1.121   1.816   1.047 -0.3738  0.2535  0.4052
 1013MOL0     C39670   1.273   1.850   1.034  0.2914  0.2004 -0.9998
 1013MOL0     C39671   1.369   1.745   1.083 -0.0646  0.1039 -0.6372
 1013MOL0     C39672   1.512   1.792   1.068  0.3983  0.8076  0.4485
 1013MOL0     N39673   1.588   1.674   1.033  0.6872  0.1776 -0.8685
 1013MOL0     C39674   1.616   1.578   1.131  0.1275  0.1980 -0.7789
 1013MOL0     C39675   1.688   1.484   1.062 -0.5009 -0.8374 -0.3414
 1013MOL0     C39676   1.762   1.375   1.131 -0.3260 -0.0437  0.0326
 1013MOL0     C39677   1.913   1.409   1.126 -0.8737  0.2065  0.3555
 1013MOL0     C39678   2.009   1.333   1.221  0.1175 -0.0033 -0.2985
 1013MOL0     C39679   2.144   1.412   1.233  0.3284  0.6988  0.6092
 1013MOL0     O39680   2.237   1.314   1.278  0.7774  0.3600  0.4847
 1013MOL0     C39681   2.368   1.330   1.235  0.6345  0.2761  0.3505
 1013MOL0     C39682   2.432   1.216   1.185  0.3979 -0.6903 -0.4120
 1013MOL0     C39683   2.573   1.224   1.161 -0.4210  0.3821  0.9425
 1013MOL0     C39684   2.646   1.096   1.109 -0.8486  0.5098 -0.1633
 1013MOL0     C39685   2.636   1.343   1.169 -0.3911 -0.6713 -0.2252
 1013MOL0     C39686   2.780   1.367   1.157 -1.3691 -0.6243  0.8960
 1013MOL0     O39687   2.820   1.481   1.082  0.2741  0.0608 -0.6983
 1013MOL0     C39688   2.952   1.491   1.044  0.5841 -0.0132 -0.3624
 1013MOL0     C39689   3.031   1.595   1.088  0.1666 -0.2652 -0.3198
 1013MOL0     C39690   3.165   1.605   1.045 -1.1761 -0.4869 -0.5238
 1013MOL0     C39691   3.226   1.507   0.962  0.6814 -0.2829  0.1102
 1013MOL0     O39692   3.363   1.516   0.951 -0.2805 -0.1301 -0.3571
 1013MOL0     C39693   3.438   1.410   0.881  0.0479  0.6691  0.4631
 1013MOL0     C39694   3.568   1.477   0.835  0.6545 -0.5993 -0.1124
 1013MOL0     C39695   3.651   1.536   0.949  0.1135  0.2851 -0.1962
 1013MOL0     C39696   3.802   1.505   0.917 -0.8584 -1.1387  0.4347
 1013MOL0     C39697   3.882   1.589   1.019  0.4137  0.4614  0.2448
 1013MOL0     C39698   4.016   1.623   0.965  0.8117 -0.0300 -0.0809
 1013MOL0     C39699   4.006   1.717   0.844  0.3658 -0.3452  0.0535
 1013MOL0     C39700   4.139   1.803   0.848 -0.7111 -0.5900 -0.7472
 1013MOL0    Cl39701   4.118   1.959   0.758 -0.3105 -0.1015 -0.0733
 1013MOL0     C39702   3.146   1.401   0.927 -0.8555 -0.4044  0.3844
 1013MOL0     C39703   3.013   1.393   0.965 -0.5520 -0.3332  1.1090
 1013MOL0     O39704   2.861   1.288   1.203 -0.7840  1.0542 -0.1231
 1013MOL0     C39705   2.560   1.451   1.212 -0.7967 -0.4584  1.0140
 1013MOL0     C39706   2.431   1.450   1.248  0.6172  0.7212 -0.2108
 1013MOL0     N39707   1.705   1.524   0.935  0.2672 -0.1644  0.7063
 1013MOL0     N39708   1.624   1.626   0.910 -0.3788  0.3031  0.0002
 1013MOL0     C39709   0.476   1.820   1.588 -0.0409 -0.3298 -0.6331
 1013MOL0     C39710   0.344   1.797   1.608  0.6788 -0.6346  0.0373
 1013MOL0     C39711  -0.097   1.706   1.555  0.1241 -0.2384 -0.5013
 1013MOL0     C39712  -0.133   1.648   1.674 -0.2026 -0.3431 -0.8636
 1013MOL0     C39713  -0.260   1.614   1.701 -0.4364 -0.7480  0.0279
 1013MOL0     C39714  -0.361   1.638   1.612  0.1291 -0.3497  0.0506
 1013MOL0     O39715  -0.497   1.600   1.626 -0.1179 -0.3777 -0.1171
 1013MOL0     C39716  -0.542   1.535   1.744 -0.3318  0.5876 -0.3920
 1013MOL0     C39717  -0.692   1.516   1.729  0.1188  0.4243  0.5205
 1013MOL0     C39718  -0.777   1.637   1.685 -0.1978  0.6548  0.1640
 1013MOL0     C39719  -0.787   1.650   1.528 -0.1138  0.0301 -0.1404
 1013MOL0     C39720  -0.882   1.743   1.481 -0.2031  0.5592 -0.2450
 1013MOL0     C39721  -0.968   1.828   1.446 -0.1576  0.8630 -0.3376
 1013MOL0     C39722  -0.323   1.683   1.488  0.0751 -0.5380  0.2088
 1013MOL0     C39723  -0.195   1.732   1.456  0.0311  0.6104  0.3554
 1013MOL0     C39724  -0.176   1.793   1.317  0.3833  0.1868 -0.7559
 1013MOL0     H39725   0.277   1.523   1.419  2.4910 -2.9490 -0.1218
 1013MOL0     H39726   0.498   1.574   1.340  1.7449  0.6876 -0.0341
 1013MOL0     H39727   0.673   1.737   1.250 -0.0114  0.8961 -0.1770
 1013MOL0     H39728   0.747   1.617   1.349 -3.4660 -0.1605 -0.4923
 1013MOL0     H39729   0.849   1.903   1.323  2.4351  0.8534  1.5509
 1013MOL0     H39730   0.914   1.775   1.420  0.0971 -1.3971 -0.3866
 1013MOL0     H39731   0.966   1.646   1.197  3.7547  0.5747  1.3522
 1013MOL0     H39732   0.872   1.773   1.110  2.0393  0.4529 -0.6585
 1013MOL0     H39733   1.051   1.933   1.218 -0.4174  0.6611 -0.8047
 1013MOL0     H39734   1.135   1.785   1.258  0.8727 -0.8116 -0.9040
 1013MOL0     H39735   1.060   1.877   0.980  0.2775 -0.0086 -0.4335
 1013MOL0     H39736   1.108   1.713   1.012  0.2297  0.1652  0.4220
 1013MOL0     H39737   1.290   1.871   0.928  1.7472  0.0393 -0.8164
 1013MOL0     H39738   1.290   1.934   1.102  4.1725 -1.5726  0.5003
 1013MOL0     H39739   1.350   1.649   1.034 -1.0450  0.1759 -0.4135
 1013MOL0     H39740   1.355   1.732   1.191 -1.0491 -1.7933 -0.9513
 1013MOL0     H39741   1.517   1.851   0.976  2.5562 -1.2657 -0.8725
 1013MOL0     H39742   1.545   1.862   1.146 -1.5316  2.4981 -0.1350
 1013MOL0     H39743   1.594   1.556   1.235  1.7501  0.4264 -0.3648
 1013MOL0     H39744   1.752   1.279   1.080 -1.0035 -0.6156  1.2090
 1013MOL0     H39745   1.732   1.358   1.235  0.9230  0.4253  0.4876
 1013MOL0     H39746   1.938   1.395   1.021 -4.1907 -0.7875 -0.4306
 1013MOL0     H39747   1.925   1.514   1.154  2.2362 -0.4149  1.8113
 1013MOL0     H39748   1.961   1.308   1.316  1.2129 -0.6847  0.0921
 1013MOL0     H39749   2.026   1.233   1.181  2.4070 -0.5730  1.8525
 1013MOL0     H39750   2.173   1.451   1.135  1.6988  0.4470  0.8996
 1013MOL0     H39751   2.134   1.490   1.310  2.5765  0.4680  1.1924
 1013MOL0     H39752   2.376   1.123   1.176  0.7350 -1.0092  0.6482
 1013MOL0     H39753   2.579   1.013   1.083  0.6080  0.1457 -3.1850
 1013MOL0     H39754   2.724   1.060   1.177 -0.9616 -0.7419 -0.6550
 1013MOL0     H39755   2.703   1.118   1.018  0.8071 -1.5438  0.2684
 1013MOL0     H39756   2.978   1.670   1.146  0.5439  0.3311 -0.7401
 1013MOL0     H39757   3.224   1.692   1.074 -0.9452 -0.1687 -1.9021
 1013MOL0     H39758   3.465   1.330   0.951  1.6210 -0.9099 -1.8253
 1013MOL0     H39759   3.392   1.378   0.787  1.2387  0.4410 -0.0573
 1013MOL0     H39760   3.617   1.399   0.776  0.0867  0.0750 -1.5451
 1013MOL0     H39761   3.548   1.555   0.760  0.5692  0.3013  0.8240
 1013MOL0     H39762   3.628   1.485   1.043  0.6674  0.1303 -0.1396
 1013MOL0     H39763   3.635   1.643   0.962 -0.6888  0.2688 -0.9678
 1013MOL0     H39764   3.833   1.535   0.816 -1.2338  0.3249  0.7274
 1013MOL0     H39765   3.825   1.398   0.922  1.9488 -0.5614  4.8192
 1013MOL0     H39766   3.821   1.675   1.048 -0.5368  0.0357 -0.4364
 1013MOL0     H39767   3.894   1.535   1.113 -3.9058  0.2038  0.8420
 1013MOL0     H39768   4.076   1.536   0.935  0.5366 -0.5096  0.7160
 1013MOL0     H39769   4.074   1.668   1.047  0.4314 -2.0081  1.3566
 1013MOL0     H39770   3.915   1.778   0.844 -0.9022 -2.1709 -0.1759
 1013MOL0     H39771   3.991   1.659   0.752 -0.3033  1.6318 -1.1426
 1013MOL0     H39772   4.225   1.746   0.812  1.3896  0.6634  1.8973
 1013MOL0     H39773   4.160   1.837   0.950 -1.9697  3.1973 -1.6089
 1013MOL0     H39774   3.186   1.312   0.878  1.0843  0.7032 -0.1489
 1013MOL0     H39775   2.962   1.302   0.935 -0.0272 -0.0909 -0.6126
 1013MOL0     H39776   2.616   1.544   1.205  1.6753 -1.9734 -2.2449
 1013MOL0     H39777   2.365   1.529   1.282 -1.8263 -0.8118 -1.1173
 1013MOL0     H39778   0.537   1.887   1.648  1.7279 -0.0292 -2.6617
 1013MOL0     H39779   0.292   1.853   1.685 -0.0642 -0.3030 -0.6888
 1013MOL0     H39780  -0.069   1.648   1.761 -1.1582 -1.9416 -0.1133
 1013MOL0     H39781  -0.302   1.591   1.799 -4.2560  0.7604 -1.0638
 1013MOL0     H39782  -0.492   1.438   1.756 -0.6733  0.2240 -1.6532
 1013MOL0     H39783  -0.506   1.589   1.832 -0.0944 -1.7854  1.0769
 1013MOL0     H39784  -0.733   1.473   1.821  0.5194  0.9637  0.9525
 1013MOL0     H39785  -0.715   1.442   1.652  0.2866  1.4771 -0.5545
 1013MOL0     H39786  -0.877   1.626   1.726 -0.2312 -1.5295 -0.3738
 1013MOL0     H39787  -0.725   1.725   1.727  0.1713  0.9376 -0.8536
 1013MOL0     H39788  -0.794   1.551   1.483 -1.2968  0.7846 -1.6676
 1013MOL0     H39789  -0.693   1.698   1.497 -0.1632 -0.4487 -1.0404
 1013MOL0     H39790  -1.041   1.900   1.415  1.9643  2.6307 -1.5329
 1013MOL0     H39791  -0.409   1.694   1.424  0.5049 -0.0017 -0.2847
 1013MOL0     H39792  -0.163   1.900   1.336 -2.2780  0.6647 -1.1406
 1013MOL0     H39793  -0.084   1.761   1.267  0.4949 -1.0960  0.2344
 1013MOL0     H39794  -0.257   1.761   1.250  0.0776  1.5257 -1.0614
 1014MOL0     O39795   8.357   1.239   5.094 -0.4785  0.4651  0.2202
 1014MOL0     C39796   8.319   1.141   5.155  0.1214  0.6286  0.3992
 1014MOL0     O39797   8.197   1.111   5.182  0.7539 -0.2251 -0.4642
 1014MOL0     C39798   8.096   1.185   5.123  0.7360  0.3613 -0.1155
 1014MOL0     C39799   8.054   1.127   4.999  0.4331  0.5960  0.0919
 1014MOL0     C39800   7.961   1.200   4.923  0.4615 -0.9587  0.3419
 1014MOL0     C39801   7.903   1.324   4.978  0.3174 -0.5570  0.2905
 1014MOL0     O39802   7.793   1.383   4.913  0.2090  0.2398  0.5156
 1014MOL0     C39803   7.842   1.498   4.840  0.2217  0.9156 -0.1799
 1014MOL0     C39804   7.883   1.461   4.696  0.2776 -0.1120  0.7301
 1014MOL0     C39805   8.022   1.518   4.648 -0.5597 -0.0729 -0.0098
 1014MOL0     C39806   8.060   1.457   4.516  0.5753 -0.1853 -0.1089
 1014MOL0     C39807   8.174   1.534   4.444  0.4192  0.2806 -0.4571
 1014MOL0     C39808   8.146   1.680   4.408  0.2517  0.1916 -0.9007
 1014MOL0     C39809   8.251   1.744   4.320 -0.0442  0.1578 -0.1165
 1014MOL0     C39810   8.370   1.778   4.409 -0.1654  0.0776  0.1606
 1014MOL0     N39811   8.497   1.806   4.339 -0.3125 -0.1130 -0.4714
 1014MOL0     C39812   8.583   1.714   4.287 -0.0746  0.6267 -0.2253
 1014MOL0     C39813   8.691   1.782   4.245 -0.5141 -0.7646 -0.6113
 1014MOL0     C39814   8.812   1.741   4.167  0.4528 -0.2117  0.7760
 1014MOL0     C39815   8.941   1.719   4.243  0.1528 -0.6241 -0.4888
 1014MOL0     C39816   9.066   1.700   4.146  0.1357 -0.1282  0.3912
 1014MOL0     C39817   9.181   1.621   4.200  0.4007  0.3136 -0.0479
 1014MOL0     O39818   9.260   1.684   4.306  0.0677 -0.1145 -0.6431
 1014MOL0     C39819   9.386   1.630   4.327 -0.5327  1.5610  0.1862
 1014MOL0     C39820   9.464   1.682   4.430 -0.7857 -0.1602  0.5732
 1014MOL0     C39821   9.594   1.645   4.459 -0.7548 -0.9347 -0.0913
 1014MOL0     C39822   9.667   1.721   4.557 -0.1000 -0.1535 -0.5355
 1014MOL0     C39823   9.652   1.528   4.401 -0.5112  0.1387  0.3116
 1014MOL0     C39824   9.783   1.471   4.435  0.5853  0.3198 -0.2816
 1014MOL0     O39825   9.803   1.340   4.421 -0.4514  0.2757 -1.4383
 1014MOL0     C39826   9.933   1.300   4.452  0.3586 -0.2137  0.1273
 1014MOL0     C39827   9.959   1.239   4.573 -0.3832 -0.6142 -0.5554
 1014MOL0     C39828  10.090   1.210   4.626 -0.5147 -0.7284  0.0617
 1014MOL0     C39829  10.187   1.237   4.528  0.2260  1.3442 -0.1531
 1014MOL0     O39830  10.312   1.207   4.566 -0.3711  0.6655 -0.1604
 1014MOL0     C39831  10.416   1.179   4.471  1.0591 -0.1854  0.2256
 1014MOL0     C39832  10.515   1.084   4.542  0.1303 -0.0089  0.3606
 1014MOL0     C39833  10.634   1.048   4.458 -0.0122  0.1467  0.7766
 1014MOL0     C39834  10.586   0.998   4.309 -0.5497 -0.2287 -0.5085
 1014MOL0     C39835  10.698   0.920   4.236  0.6399 -0.2181 -0.0431
 1014MOL0     C39836  10.819   1.004   4.195  0.0961 -0.6286  0.8887
 1014MOL0     C39837  10.943   0.922   4.155  0.2353  0.5712 -0.0320
 1014MOL0     C39838  11.064   1.001   4.105 -0.0077  0.0995  0.0738
 1014MOL0    Cl39839  11.183   0.899   4.011  0.1161 -0.1447 -0.2109
 1014MOL0     C39840  10.157   1.290   4.401 -0.1173 -0.5615  0.6479
 1014MOL0     C39841  10.028   1.331   4.360 -0.1743  0.2721 -0.1228
 1014MOL0     O39842   9.866   1.555   4.459  0.6859 -0.2151 -0.0694
 1014MOL0     C39843   9.566   1.465   4.308  0.2765 -0.5039  0.3040
 1014MOL0     C39844   9.440   1.513   4.267 -0.8228 -0.6314  1.2662
 1014MOL0     N39845   8.674   1.920   4.280  0.0723 -0.0677  0.3147
 1014MOL0     N39846   8.554   1.928   4.329 -0.0859 -0.3317 -0.3421
 1014MOL0     C39847   7.947   1.368   5.102 -0.8845 -0.0084 -0.1221
 1014MOL0     C39848   8.054   1.310   5.168 -1.4868 -0.8705 -1.1842
 1014MOL0     C39849   8.421   1.057   5.213  0.3848 -0.1771 -0.0350
 1014MOL0     C39850   8.410   1.004   5.339  0.2763  0.2451 -0.0032
 1014MOL0     C39851   8.512   0.924   5.393 -0.3316 -0.9619  0.7007
 1014MOL0     C39852   8.634   0.900   5.318  0.2238 -0.4328  0.5028
 1014MOL0     O39853   8.735   0.823   5.358  0.6910 -0.2476 -0.0748
 1014MOL0     C39854   8.793   0.867   5.489 -0.2176 -0.9045  0.9805
 1014MOL0     C39855   8.845   1.017   5.491  0.5113  0.6273  0.0535
 1014MOL0     C39856   8.897   1.069   5.617  0.5307 -0.0622  0.1852
 1014MOL0     C39857   8.922   1.216   5.602  0.9675  0.2207  0.3809
 1014MOL0     C39858   8.970   1.261   5.737  0.4489 -0.3893 -0.0052
 1014MOL0     C39859   9.002   1.289   5.848 -0.4014  0.1812 -0.0503
 1014MOL0     C39860   8.650   0.960   5.193  0.4958 -0.4895  0.0662
 1014MOL0     C39861   8.542   1.028   5.138  0.6744 -0.2387 -0.4504
 1014MOL0     C39862   8.562   1.057   4.993 -0.1700  0.6308 -0.8107
 1014MOL0     H39863   8.094   1.032   4.963 -2.3969 -0.6873  0.0804
 1014MOL0     H39864   7.922   1.172   4.826  0.0184 -1.7137  0.7325
 1014MOL0     H39865   7.917   1.554   4.897 -2.6426  3.1372  1.7383
 1014MOL0     H39866   7.766   1.577   4.837 -1.0106 -0.2680 -2.2758
 1014MOL0     H39867   7.886   1.352   4.685  2.1648  0.0249 -0.5939
 1014MOL0     H39868   7.805   1.494   4.628 -0.1154 -1.0386  0.7187
 1014MOL0     H39869   8.020   1.627   4.646  0.8194 -0.0275 -0.1526
 1014MOL0     H39870   8.097   1.490   4.723  0.4929  2.2221 -0.1065
 1014MOL0     H39871   8.083   1.351   4.533 -1.7794 -0.4037  2.3007
 1014MOL0     H39872   7.969   1.457   4.457  0.6794 -1.9395 -0.3134
 1014MOL0     H39873   8.218   1.482   4.358 -0.5907  0.9311 -1.3912
 1014MOL0     H39874   8.256   1.520   4.515  0.9976 -2.1220 -1.4898
 1014MOL0     H39875   8.049   1.677   4.358 -0.6478  2.1203  0.5729
 1014MOL0     H39876   8.125   1.750   4.490  1.3669  0.7160 -1.0469
 1014MOL0     H39877   8.212   1.833   4.271 -0.6167 -0.6942 -1.2636
 1014MOL0     H39878   8.277   1.676   4.238  1.8232  1.4640 -0.6717
 1014MOL0     H39879   8.352   1.873   4.459 -0.7254  0.2821 -0.4137
 1014MOL0     H39880   8.376   1.701   4.486 -0.3131 -0.2569 -0.1609
 1014MOL0     H39881   8.573   1.606   4.278  1.0281  0.6310 -1.9658
 1014MOL0     H39882   8.833   1.812   4.086  3.1127 -0.9378  0.7169
 1014MOL0     H39883   8.793   1.644   4.120 -1.2153 -0.2379  1.4651
 1014MOL0     H39884   8.953   1.808   4.307 -0.8606  0.4740 -1.7763
 1014MOL0     H39885   8.924   1.638   4.314 -1.3390  2.1277  2.5474
 1014MOL0     H39886   9.031   1.641   4.060  0.9201  0.5325 -0.3901
 1014MOL0     H39887   9.100   1.797   4.110  0.3199 -0.4022 -0.1946
 1014MOL0     H39888   9.146   1.523   4.233 -0.2046 -0.1470 -1.9137
 1014MOL0     H39889   9.250   1.601   4.117  0.2835  2.5359 -0.7605
 1014MOL0     H39890   9.437   1.770   4.487  0.7349  1.7382 -1.4777
 1014MOL0     H39891   9.736   1.786   4.501 -0.8718 -0.6267 -2.1035
 1014MOL0     H39892   9.722   1.653   4.623 -0.1634 -0.9727 -1.3097
 1014MOL0     H39893   9.597   1.780   4.617  1.1949 -1.4217  2.4388
 1014MOL0     H39894   9.881   1.222   4.646  0.4007  0.9254  0.7188
 1014MOL0     H39895  10.108   1.169   4.725  0.7919 -0.6505 -0.1224
 1014MOL0     H39896  10.369   1.133   4.384 -0.4134  1.0738  0.3038
 1014MOL0     H39897  10.468   1.266   4.430  1.1687 -0.9006 -1.1942
 1014MOL0     H39898  10.550   1.135   4.632  1.1112  2.2085 -1.2013
 1014MOL0     H39899  10.468   0.985   4.547 -0.7672  0.1789 -2.6178
 1014MOL0     H39900  10.700   0.978   4.510  3.4352  0.9044 -2.1182
 1014MOL0     H39901  10.696   1.136   4.437  1.0602 -0.8038 -0.1849
 1014MOL0     H39902  10.551   1.085   4.253 -2.4470 -2.3115 -2.7551
 1014MOL0     H39903  10.506   0.925   4.324 -1.6875  0.5852 -2.4099
 1014MOL0     H39904  10.733   0.838   4.300 -0.3546 -0.3040  0.4051
 1014MOL0     H39905  10.651   0.874   4.149 -0.8103  0.9242  0.1045
 1014MOL0     H39906  10.845   1.068   4.280  0.0171 -0.2073  0.5987
 1014MOL0     H39907  10.796   1.080   4.119  2.0220 -0.9991 -0.1162
 1014MOL0     H39908  10.915   0.858   4.071 -0.2265 -0.2514  0.7361
 1014MOL0     H39909  10.970   0.852   4.235 -2.8078 -0.1604  0.4667
 1014MOL0     H39910  11.117   1.042   4.192  0.2559 -3.5923  1.8597
 1014MOL0     H39911  11.029   1.085   4.046 -0.2615 -0.1734 -0.1668
 1014MOL0     H39912  10.240   1.309   4.334 -1.0326  1.5349 -0.0025
 1014MOL0     H39913  10.004   1.369   4.261 -0.7646  1.3469  0.4124
 1014MOL0     H39914   9.591   1.365   4.275 -1.7559 -0.6331 -1.0067
 1014MOL0     H39915   9.381   1.462   4.191 -1.3448  2.6938 -0.7591
 1014MOL0     H39916   7.908   1.459   5.147 -1.8393  0.4971 -1.8826
 1014MOL0     H39917   8.096   1.345   5.262  0.7200 -2.5849 -1.4597
 1014MOL0     H39918   8.315   1.023   5.387  0.6841 -0.1223  0.9647
 1014MOL0     H39919   8.507   0.880   5.492  0.3799  2.0848  2.2447
 1014MOL0     H39920   8.709   0.851   5.558 -0.7062 -1.7573  0.2099
 1014MOL0     H39921   8.882   0.807   5.512  2.2062  1.9611 -0.3116
 1014MOL0     H39922   8.761   1.080   5.462 -1.6188 -1.7894  0.5248
 1014MOL0     H39923   8.921   1.018   5.413 -0.8126 -2.2070 -1.4302
 1014MOL0     H39924   8.823   1.054   5.696 -0.2865  0.6481 -0.4318
 1014MOL0     H39925   8.987   1.017   5.653 -0.2570 -1.4963  0.1319
 1014MOL0     H39926   8.835   1.274   5.569 -0.0091 -0.8997  0.9232
 1014MOL0     H39927   9.001   1.233   5.529  0.5838 -2.2398 -0.6978
 1014MOL0     H39928   9.038   1.309   5.947  1.3544  0.8766 -0.7944
 1014MOL0     H39929   8.734   0.933   5.129 -0.3128  0.7712 -1.6105
 1014MOL0     H39930   8.607   1.155   4.974 -1.6550  1.1168 -2.0938
 1014MOL0     H39931   8.633   0.983   4.954  0.7519 -0.0272  1.9283
 1014MOL0     H39932   8.464   1.060   4.944 -0.8267  0.6300  0.4745
 1015MOL0     O39933   6.416   8.734   2.043  0.0722  0.6729 -0.2968
 1015MOL0     C39934   6.351   8.649   2.108 -0.6826  0.1520 -0.3007
 1015MOL0     O39935   6.399   8.570   2.209  0.4581  0.0642  0.1659
 1015MOL0     C39936   6.521   8.584   2.257 -0.2765  0.2696  0.2398
 1015MOL0     C39937   6.539   8.655   2.369 -0.3874  0.1983 -0.1055
 1015MOL0     C39938   6.662   8.652   2.431  0.0244 -0.3270 -0.7404
 1015MOL0     C39939   6.774   8.586   2.386 -0.1295  0.1820  0.2330
 1015MOL0     O39940   6.890   8.594   2.457  0.4844  0.0575 -0.1428
 1015MOL0     C39941   6.949   8.475   2.507  0.0217  0.2295 -0.4221
 1015MOL0     C39942   7.080   8.438   2.446 -0.0865  0.0788  0.2795
 1015MOL0     C39943   7.179   8.559   2.412  0.1494 -0.3166  0.3008
 1015MOL0     C39944   7.300   8.508   2.340 -0.1985  1.0075 -0.2003
 1015MOL0     C39945   7.382   8.621   2.275  0.2335 -0.0503  0.1479
 1015MOL0     C39946   7.431   8.733   2.366  0.2796 -0.4788 -0.0978
 1015MOL0     C39947   7.408   8.878   2.308 -1.1694  0.2140  0.6528
 1015MOL0     C39948   7.516   8.895   2.203 -0.0992 -0.2684 -0.1680
 1015MOL0     N39949   7.488   8.990   2.094  0.4127  0.0994  0.4793
 1015MOL0     C39950   7.389   8.986   1.994  0.2810  0.0765  0.2516
 1015MOL0     C39951   7.422   9.103   1.926  0.0339  0.6398  0.8731
 1015MOL0     C39952   7.366   9.144   1.785 -0.0401  0.3061  0.2719
 1015MOL0     C39953   7.220   9.129   1.777  0.3238 -0.5686 -0.3103
 1015MOL0     C39954   7.138   9.182   1.895 -0.0690  0.3031  0.0772
 1015MOL0     C39955   6.990   9.212   1.856 -0.3280  0.7534  0.3518
 1015MOL0     O39956   6.980   9.293   1.737 -1.2096  0.7124  0.8241
 1015MOL0     C39957   6.864   9.303   1.668  1.2190  0.3767 -0.6614
 1015MOL0     C39958   6.865   9.343   1.535  0.4034 -0.1346 -0.4745
 1015MOL0     C39959   6.746   9.365   1.466 -0.2306  0.3520 -0.4187
 1015MOL0     C39960   6.762   9.387   1.323 -0.8878  0.2046  0.3622
 1015MOL0     C39961   6.624   9.365   1.529 -0.3169  0.7843 -0.1043
 1015MOL0     C39962   6.499   9.410   1.470  0.7261  0.5251 -0.6616
 1015MOL0     O39963   6.388   9.397   1.558 -0.4192  0.1933  0.7521
 1015MOL0     C39964   6.270   9.412   1.507  0.7218 -1.0110  1.0232
 1015MOL0     C39965   6.221   9.545   1.497  0.0051 -0.0586 -0.7703
 1015MOL0     C39966   6.088   9.562   1.452  0.0741  0.2654  0.4835
 1015MOL0     C39967   6.014   9.454   1.396 -0.2671  0.3545 -0.1091
 1015MOL0     O39968   5.894   9.469   1.338 -0.5800  1.5826  0.4411
 1015MOL0     C39969   5.787   9.491   1.432 -0.2536 -0.8297 -0.6700
 1015MOL0     C39970   5.650   9.464   1.369 -0.0601  0.2283  0.0407
 1015MOL0     C39971   5.531   9.490   1.451  0.2534 -0.1138  0.4917
 1015MOL0     C39972   5.404   9.409   1.392 -0.3367 -0.0234  0.0289
 1015MOL0     C39973   5.267   9.475   1.440 -0.4335 -0.0122  0.0260
 1015MOL0     C39974   5.147   9.403   1.391  0.2192 -0.3475  0.1191
 1015MOL0     C39975   5.101   9.459   1.257 -0.7185 -0.3035  0.3221
 1015MOL0     C39976   4.996   9.374   1.208  0.7523 -0.6184 -0.9877
 1015MOL0    Cl39977   4.855   9.388   1.319 -0.0096 -0.1158 -0.1674
 1015MOL0     C39978   6.068   9.317   1.405  0.1788  0.6642 -0.5490
 1015MOL0     C39979   6.193   9.302   1.466 -0.0296 -0.1956 -0.0021
 1015MOL0     O39980   6.487   9.437   1.355  0.3274 -0.1042 -0.4328
 1015MOL0     C39981   6.622   9.314   1.662 -0.0933  0.8455 -0.8618
 1015MOL0     C39982   6.737   9.277   1.723  0.6752  0.8227 -0.9775
 1015MOL0     N39983   7.523   9.167   1.984  0.4842  0.2610  0.3768
 1015MOL0     N39984   7.562   9.103   2.082 -0.3693 -0.1782 -0.3223
 1015MOL0     C39985   6.752   8.511   2.266 -1.2361  0.6867 -0.4885
 1015MOL0     C39986   6.628   8.510   2.196  0.5858  0.3808  0.4803
 1015MOL0     C39987   6.219   8.604   2.066  0.0099  0.0937  0.1176
 1015MOL0     C39988   6.192   8.602   1.927 -0.6644 -0.0590  0.2071
 1015MOL0     C39989   6.066   8.563   1.885 -0.5557 -0.1169 -0.2572
 1015MOL0     C39990   5.973   8.507   1.973  0.1743 -0.5916 -0.3686
 1015MOL0     O39991   5.850   8.473   1.926 -0.3062  0.1533  0.0594
 1015MOL0     C39992   5.852   8.383   1.811 -0.1545 -0.2662 -0.4912
 1015MOL0     C39993   5.784   8.237   1.835 -0.4787 -0.0071  0.1112
 1015MOL0     C39994   5.625   8.255   1.836 -0.2508 -0.3614 -0.0694
 1015MOL0     C39995   5.556   8.116   1.812  0.5539 -0.0368  0.0362
 1015MOL0     C39996   5.415   8.112   1.852  0.0836  0.7201 -0.2145
 1015MOL0     C39997   5.292   8.103   1.873  0.1534  0.7586  0.4794
 1015MOL0     C39998   6.005   8.509   2.107  0.9822  0.4058  0.2507
 1015MOL0     C39999   6.124   8.560   2.154 -0.6975 -0.1020 -0.2992
 1015MOL0     C40000   6.123   8.582   2.303 -0.3781  0.0956  0.3378
 1015MOL0     H40001   6.450   8.700   2.412 -1.0326 -1.4956  0.4161
 1015MOL0     H40002   6.665   8.704   2.526  0.2088 -0.4661 -0.6688
 1015MOL0     H40003   6.889   8.384   2.502 -0.8109  0.7803 -0.5453
 1015MOL0     H40004   6.957   8.493   2.614 -0.8776 -0.9760 -0.1319
 1015MOL0     H40005   7.131   8.372   2.516  3.3054 -0.3831 -2.3356
 1015MOL0     H40006   7.067   8.376   2.357 -2.8512 -2.8926  2.4958
 1015MOL0     H40007   7.121   8.627   2.347  1.7014  0.5599 -0.2180
 1015MOL0     H40008   7.210   8.612   2.502 -1.3445  2.3218 -0.5817
 1015MOL0     H40009   7.366   8.454   2.408 -1.6288  0.6315  0.9542
 1015MOL0     H40010   7.272   8.438   2.261  1.8186 -0.2567  0.1379
 1015MOL0     H40011   7.311   8.663   2.204  0.3223  0.9707  0.6448
 1015MOL0     H40012   7.474   8.584   2.227  1.0660  1.1496  0.7640
 1015MOL0     H40013   7.361   8.731   2.450 -0.2565 -0.5522 -0.5440
 1015MOL0     H40014   7.534   8.725   2.402 -0.1843  2.4945  2.3108
 1015MOL0     H40015   7.413   8.963   2.377  1.6802  0.4401  0.3057
 1015MOL0     H40016   7.313   8.878   2.254 -1.2558 -3.8474  0.5163
 1015MOL0     H40017   7.610   8.913   2.257  0.7717 -0.1399 -1.6503
 1015MOL0     H40018   7.527   8.796   2.157  3.6552 -0.0967 -0.0117
 1015MOL0     H40019   7.308   8.915   1.981  0.4935  0.1525 -1.7383
 1015MOL0     H40020   7.420   9.087   1.709 -0.2237 -0.5313  0.7508
 1015MOL0     H40021   7.393   9.250   1.778 -1.8788  0.6792 -2.8862
 1015MOL0     H40022   7.188   9.179   1.685  0.3904  2.3121  1.1457
 1015MOL0     H40023   7.200   9.022   1.765 -2.0933 -0.0086 -1.9444
 1015MOL0     H40024   7.132   9.111   1.978  0.7639  2.4493  2.0841
 1015MOL0     H40025   7.176   9.280   1.927  0.0082  1.2861 -2.7565
 1015MOL0     H40026   6.936   9.118   1.842  1.1217 -0.4555  2.2388
 1015MOL0     H40027   6.934   9.266   1.933  0.6522  2.4442 -0.0778
 1015MOL0     H40028   6.953   9.355   1.472 -1.1928  0.9052 -2.6584
 1015MOL0     H40029   6.868   9.402   1.299 -0.0920 -3.2100  1.2684
 1015MOL0     H40030   6.716   9.479   1.285  2.0151  0.7123 -2.4258
 1015MOL0     H40031   6.722   9.309   1.258 -2.2131  0.7416  0.5023
 1015MOL0     H40032   6.291   9.622   1.528  1.6511 -1.9001  0.4054
 1015MOL0     H40033   6.064   9.667   1.457  0.7499  0.4269  0.4428
 1015MOL0     H40034   5.796   9.428   1.521 -0.4339 -2.6471 -1.8910
 1015MOL0     H40035   5.795   9.595   1.466  2.7343 -1.2772  0.2775
 1015MOL0     H40036   5.633   9.535   1.287  1.7548  0.1866 -0.4188
 1015MOL0     H40037   5.651   9.363   1.327 -1.1930  0.3333 -0.2714
 1015MOL0     H40038   5.509   9.597   1.453 -2.2085 -0.5671  1.7397
 1015MOL0     H40039   5.543   9.446   1.551 -1.8990 -0.4725  0.6380
 1015MOL0     H40040   5.405   9.303   1.419 -2.5046  0.2445  1.3239
 1015MOL0     H40041   5.405   9.411   1.282  1.3796 -3.0416 -0.1245
 1015MOL0     H40042   5.287   9.454   1.546 -1.3262 -2.1674 -0.1854
 1015MOL0     H40043   5.261   9.584   1.428 -1.5622 -0.1240 -0.5477
 1015MOL0     H40044   5.069   9.430   1.462  0.3943 -1.3066  0.6861
 1015MOL0     H40045   5.160   9.294   1.392 -1.4326 -0.6148  3.4488
 1015MOL0     H40046   5.180   9.454   1.182 -0.0048 -0.5963  1.0735
 1015MOL0     H40047   5.077   9.565   1.269 -1.4582 -0.5503  1.1189
 1015MOL0     H40048   5.025   9.268   1.207  1.1559 -0.5503  0.4822
 1015MOL0     H40049   4.962   9.404   1.109  1.2593  0.5439 -0.8250
 1015MOL0     H40050   6.012   9.238   1.358  1.3690 -0.0056 -0.8941
 1015MOL0     H40051   6.220   9.197   1.478 -2.0178 -0.5028  2.4916
 1015MOL0     H40052   6.530   9.322   1.719  1.5993  1.4969  1.9975
 1015MOL0     H40053   6.727   9.242   1.825 -3.2609  0.8015 -1.2282
 1015MOL0     H40054   6.836   8.458   2.221 -0.5786  1.9004 -0.7357
 1015MOL0     H40055   6.622   8.462   2.099 -0.0155 -0.2355  0.8136
 1015MOL0     H40056   6.265   8.644   1.859 -0.4353  2.1130  1.6896
 1015MOL0     H40057   6.036   8.566   1.781  4.7960  0.9981 -2.0877
 1015MOL0     H40058   5.791   8.439   1.739  2.1019  1.0259 -1.5023
 1015MOL0     H40059   5.950   8.377   1.764  0.5418  1.3076  0.6552
 1015MOL0     H40060   5.812   8.195   1.932  0.6404  0.7201  0.1171
 1015MOL0     H40061   5.825   8.171   1.758 -0.6895  0.0966 -0.0914
 1015MOL0     H40062   5.597   8.294   1.934  1.9991 -1.1915  0.9743
 1015MOL0     H40063   5.590   8.327   1.762 -1.8725  1.0238  1.9646
 1015MOL0     H40064   5.611   8.037   1.864  0.1774  0.1685  0.7635
 1015MOL0     H40065   5.572   8.096   1.706  1.6274 -2.7181  0.6246
 1015MOL0     H40066   5.188   8.107   1.897  0.3371  0.0847  1.4857
 1015MOL0     H40067   5.925   8.482   2.175 -0.6349  2.1650 -0.8656
 1015MOL0     H40068   6.195   8.657   2.337  0.3459 -0.7786  0.7634
 1015MOL0     H40069   6.022   8.618   2.324 -0.3722  1.4212 -1.6102
 1015MOL0     H40070   6.150   8.494   2.362  5.2218  0.9967 -0.3521
 1016MOL0     O40071   9.993  10.411   5.240  0.2902  0.1006  0.4322
 1016MOL0     C40072   9.947  10.494   5.316 -1.0435 -0.1779  0.3383
 1016MOL0     O40073  10.028  10.587   5.371  0.1745  0.2575 -0.2165
 1016MOL0     C40074  10.148  10.614   5.308 -1.1266  0.1860  0.7007
 1016MOL0     C40075  10.153  10.648   5.175 -0.7550  0.0366 -0.3066
 1016MOL0     C40076  10.267  10.685   5.105 -0.1771  0.3585 -0.1096
 1016MOL0     C40077  10.390  10.679   5.182  0.0506 -1.0530  0.7241
 1016MOL0     O40078  10.511  10.707   5.131  0.9374  0.8744  0.5719
 1016MOL0     C40079  10.513  10.813   5.033 -0.7230 -0.2407  0.0536
 1016MOL0     C40080  10.663  10.836   5.004 -0.2720  0.5468 -0.2191
 1016MOL0     C40081  10.701  10.937   4.897  0.1461  0.1001  1.0297
 1016MOL0     C40082  10.851  10.916   4.861 -0.1953 -0.0523 -0.3078
 1016MOL0     C40083  10.904  11.034   4.789 -0.3686  1.0960  0.3360
 1016MOL0     C40084  10.854  11.019   4.641 -0.2546 -0.3838  0.5216
 1016MOL0     C40085  10.913  11.132   4.559  0.0878 -0.2001  0.1021
 1016MOL0     C40086  10.874  11.275   4.610  0.8649 -0.5808 -0.1239
 1016MOL0     N40087  10.901  11.390   4.519  0.1082 -0.5047  0.2358
 1016MOL0     C40088  11.006  11.390   4.425  0.2948 -0.9484  0.0179
 1016MOL0     C40089  11.028  11.520   4.396  0.2528  0.3328 -0.1317
 1016MOL0     C40090  11.130  11.563   4.302  0.5920 -0.0851 -0.1299
 1016MOL0     C40091  11.272  11.529   4.352 -0.0639  1.6432 -0.1825
 1016MOL0     C40092  11.384  11.607   4.289  0.8052  0.4681 -0.7330
 1016MOL0     C40093  11.524  11.556   4.330  0.2047 -0.5855 -0.1023
 1016MOL0     O40094  11.561  11.449   4.244 -0.0606  0.4074 -0.2475
 1016MOL0     C40095  11.692  11.431   4.230 -0.0987  0.8334  0.2724
 1016MOL0     C40096  11.746  11.419   4.102  0.1156 -0.1858 -0.4680
 1016MOL0     C40097  11.886  11.423   4.082  0.2198 -0.4169  0.8780
 1016MOL0     C40098  11.932  11.415   3.939 -0.5870  0.3138 -0.3098
 1016MOL0     C40099  11.982  11.417   4.190 -0.1868  0.5411  0.0588
 1016MOL0     C40100  12.132  11.403   4.191 -0.4018 -0.8124 -0.7598
 1016MOL0     O40101  12.198  11.438   4.308  0.2085  0.2587 -0.0776
 1016MOL0     C40102  12.320  11.381   4.318 -0.3775 -0.7049  0.7646
 1016MOL0     C40103  12.335  11.251   4.373 -0.1830  0.3368  0.3322
 1016MOL0     C40104  12.464  11.198   4.386 -0.5092  0.1178  0.4149
 1016MOL0     C40105  12.576  11.261   4.328  0.9148 -0.4113  0.3364
 1016MOL0     O40106  12.690  11.209   4.364 -0.0288  0.1287 -0.0042
 1016MOL0     C40107  12.786  11.187   4.256 -0.2356  0.3682 -0.7301
 1016MOL0     C40108  12.924  11.197   4.321  1.0656  0.4163  0.1057
 1016MOL0     C40109  13.038  11.162   4.221 -0.5020 -0.6711  0.1789
 1016MOL0     C40110  13.180  11.163   4.284 -0.4946  0.1546 -0.7091
 1016MOL0     C40111  13.287  11.079   4.202 -0.5445 -0.6066  0.1816
 1016MOL0     C40112  13.307  11.136   4.057  0.6743  0.7901  0.2377
 1016MOL0     C40113  13.447  11.104   3.998  0.5739  0.1499 -1.3772
 1016MOL0     C40114  13.446  11.148   3.858 -0.6687 -0.0529  0.3628
 1016MOL0    Cl40115  13.404  11.028   3.736 -0.1608  0.1201 -0.2751
 1016MOL0     C40116  12.555  11.390   4.281  0.1647 -0.7743 -0.8742
 1016MOL0     C40117  12.424  11.453   4.277 -0.6416  0.5358  0.2204
 1016MOL0     O40118  12.188  11.381   4.083  0.5809 -0.2387 -0.5076
 1016MOL0     C40119  11.925  11.445   4.317 -0.2000 -0.8345  0.3958
 1016MOL0     C40120  11.787  11.451   4.338 -0.0086 -0.1667  0.1718
 1016MOL0     N40121  10.939  11.598   4.473  0.4228 -0.1344  0.3603
 1016MOL0     N40122  10.860  11.515   4.537 -0.1207 -0.2706  0.2466
 1016MOL0     C40123  10.385  10.657   5.318  0.3426  0.9719 -0.6680
 1016MOL0     C40124  10.266  10.627   5.384 -0.3939 -0.2160  0.7064
 1016MOL0     C40125   9.796  10.484   5.343  0.6964  0.1543 -0.0524
 1016MOL0     C40126   9.746  10.585   5.437 -0.0017  0.3047  0.3261
 1016MOL0     C40127   9.621  10.573   5.481  0.3836 -0.5327 -0.1563
 1016MOL0     C40128   9.526  10.476   5.434 -0.4330 -0.2754 -0.2735
 1016MOL0     O40129   9.393  10.490   5.475  0.3517  0.4403  0.5209
 1016MOL0     C40130   9.287  10.407   5.421 -0.2037 -0.2666 -0.3039
 1016MOL0     C40131   9.291  10.271   5.482  0.2082 -0.6874  0.1950
 1016MOL0     C40132   9.175  10.185   5.432  0.3096  0.9292  0.1184
 1016MOL0     C40133   9.137  10.182   5.283 -1.2311 -0.0334 -0.1087
 1016MOL0     C40134   9.255  10.133   5.217 -0.1267  0.6076  0.4958
 1016MOL0     C40135   9.352  10.089   5.160 -0.1721  0.6867  0.3098
 1016MOL0     C40136   9.578  10.377   5.349 -0.0007  0.0779 -0.4273
 1016MOL0     C40137   9.709  10.384   5.300  0.0759 -0.4885 -0.1429
 1016MOL0     C40138   9.747  10.267   5.208 -1.3293 -0.0159  0.7568
 1016MOL0     H40139  10.058  10.660   5.124  0.1009  2.2761 -1.5120
 1016MOL0     H40140  10.266  10.722   5.003  2.2349  2.4310  0.4934
 1016MOL0     H40141  10.461  10.898   5.079  0.8591  0.5402  0.4561
 1016MOL0     H40142  10.470  10.812   4.932 -1.6523  3.8391  0.2332
 1016MOL0     H40143  10.702  10.866   5.101  0.6556  1.9698 -0.9929
 1016MOL0     H40144  10.708  10.737   4.996 -1.4917 -0.0583  0.0978
 1016MOL0     H40145  10.643  10.913   4.808  1.5755  0.3883  0.0043
 1016MOL0     H40146  10.680  11.032   4.949 -1.3324  0.5386 -0.2988
 1016MOL0     H40147  10.904  10.931   4.956 -1.5934  1.3454  0.3029
 1016MOL0     H40148  10.879  10.818   4.821  2.9180  0.6800 -0.1998
 1016MOL0     H40149  11.012  11.048   4.795 -0.4147  1.5934  0.0635
 1016MOL0     H40150  10.868  11.123   4.841  2.2297  1.6689  1.2558
 1016MOL0     H40151  10.870  10.925   4.589  0.4058  0.2408 -0.4435
 1016MOL0     H40152  10.747  11.041   4.644 -0.5349 -1.0081 -2.1879
 1016MOL0     H40153  10.879  11.117   4.456 -0.6166 -0.2413  0.3319
 1016MOL0     H40154  11.022  11.128   4.560  0.0583 -1.1915  0.1697
 1016MOL0     H40155  10.768  11.269   4.637  0.8589 -0.8766 -0.2109
 1016MOL0     H40156  10.927  11.305   4.701  0.4013  4.7912 -1.2709
 1016MOL0     H40157  11.056  11.300   4.391 -2.5393 -1.5883 -2.9786
 1016MOL0     H40158  11.117  11.669   4.279  0.8385 -0.0905 -0.2938
 1016MOL0     H40159  11.106  11.514   4.207  1.1917 -0.7053  0.0311
 1016MOL0     H40160  11.279  11.536   4.461  1.2143 -0.9246 -0.0272
 1016MOL0     H40161  11.292  11.422   4.344  0.0480  1.4889  1.7242
 1016MOL0     H40162  11.377  11.623   4.181 -0.0647  3.2834 -0.3509
 1016MOL0     H40163  11.361  11.702   4.338  1.2256  0.0605  0.2644
 1016MOL0     H40164  11.599  11.636   4.324  1.1442 -1.5504 -2.0707
 1016MOL0     H40165  11.513  11.519   4.433 -3.1158  2.5454  0.8727
 1016MOL0     H40166  11.672  11.403   4.024  0.4180 -1.5009 -0.5059
 1016MOL0     H40167  11.977  11.323   3.901  1.7516  2.2108 -2.4636
 1016MOL0     H40168  12.004  11.497   3.932  0.9409 -0.5901  2.8158
 1016MOL0     H40169  11.842  11.432   3.879 -0.7364  0.9894  0.0911
 1016MOL0     H40170  12.253  11.188   4.407 -2.2288  1.2263 -2.5906
 1016MOL0     H40171  12.469  11.108   4.446  1.6849  0.6117  1.0896
 1016MOL0     H40172  12.775  11.087   4.213 -2.4270 -0.5932  1.7926
 1016MOL0     H40173  12.782  11.253   4.169  0.7940  0.8136 -0.4585
 1016MOL0     H40174  12.944  11.302   4.345  0.5402  1.6583 -4.0338
 1016MOL0     H40175  12.917  11.133   4.409  0.7905 -3.1804 -2.3213
 1016MOL0     H40176  13.027  11.233   4.138  1.7529  0.8079  1.0621
 1016MOL0     H40177  13.015  11.062   4.183  0.4739 -0.6879 -0.4019
 1016MOL0     H40178  13.173  11.120   4.384 -0.3566  0.3052 -0.6336
 1016MOL0     H40179  13.222  11.264   4.294  0.4909 -0.4212  1.5151
 1016MOL0     H40180  13.386  11.081   4.250  0.5617 -0.8416 -1.9770
 1016MOL0     H40181  13.251  10.976   4.199  0.7093 -1.1042  1.0983
 1016MOL0     H40182  13.308  11.245   4.070  2.6650  0.6623  1.6548
 1016MOL0     H40183  13.226  11.089   4.000  0.7963 -1.2571  1.6569
 1016MOL0     H40184  13.460  10.998   4.020 -2.8640 -0.3165 -1.0634
 1016MOL0     H40185  13.520  11.162   4.056  1.1254 -0.6596 -1.2414
 1016MOL0     H40186  13.550  11.182   3.850  0.0988 -2.0938  1.2401
 1016MOL0     H40187  13.390  11.240   3.836  0.8342  0.4176 -1.9576
 1016MOL0     H40188  12.636  11.458   4.257  0.6122 -0.8403  0.3476
 1016MOL0     H40189  12.413  11.552   4.234 -2.5114  0.0036 -0.6417
 1016MOL0     H40190  11.982  11.481   4.402 -1.5989 -2.1680  1.9932
 1016MOL0     H40191  11.745  11.479   4.435 -0.8319 -2.6221  0.6015
 1016MOL0     H40192  10.466  10.643   5.389 -1.1651 -1.0258  0.7805
 1016MOL0     H40193  10.259  10.582   5.483 -1.9947 -1.7268 -0.0490
 1016MOL0     H40194   9.799  10.672   5.474  0.2496  0.6241 -0.7441
 1016MOL0     H40195   9.592  10.642   5.559  1.2457  1.5815 -1.6220
 1016MOL0     H40196   9.193  10.455   5.452  1.7685  2.5008  1.9063
 1016MOL0     H40197   9.299  10.401   5.312 -0.6081  3.3329 -0.6629
 1016MOL0     H40198   9.287  10.271   5.591 -0.7054 -1.0011  0.1763
 1016MOL0     H40199   9.382  10.219   5.449  0.6414  0.0228  0.2659
 1016MOL0     H40200   9.200  10.082   5.460 -0.6906  0.1620 -1.6147
 1016MOL0     H40201   9.090  10.210   5.495  2.0554  2.4910  1.9812
 1016MOL0     H40202   9.110  10.284   5.256  1.0304  0.5212 -0.4356
 1016MOL0     H40203   9.061  10.106   5.258 -1.2531 -0.1107  0.1986
 1016MOL0     H40204   9.440  10.040   5.123  0.7843  2.8762 -0.4507
 1016MOL0     H40205   9.514  10.296   5.314  1.1986 -1.5322  0.9623
 1016MOL0     H40206   9.660  10.205   5.185 -0.6827  0.7690 -5.9871
 1016MOL0     H40207   9.781  10.301   5.109 -2.5492  1.0569  0.6769
 1016MOL0     H40208   9.828  10.208   5.251  3.6698  1.7018 -4.8490
 1017MOL0     O40209   3.195   6.579   4.913  0.2694  0.5855 -0.3659
 1017MOL0     C40210   3.121   6.632   4.832  0.0638 -0.4339 -0.4878
 1017MOL0     O40211   3.149   6.712   4.724  0.0023  0.2032  0.2210
 1017MOL0     C40212   3.278   6.754   4.685  0.9771 -0.6346 -0.0983
 1017MOL0     C40213   3.282   6.874   4.624 -0.4831  0.1747  0.7870
 1017MOL0     C40214   3.410   6.933   4.595  0.1720  0.2611  0.4307
 1017MOL0     C40215   3.524   6.863   4.633  0.0599  0.3617  0.4179
 1017MOL0     O40216   3.641   6.919   4.590  0.4353 -0.6819 -0.1276
 1017MOL0     C40217   3.745   6.828   4.560 -0.4015 -0.4301  0.5998
 1017MOL0     C40218   3.808   6.850   4.420  0.0776 -0.0502 -0.0516
 1017MOL0     C40219   3.876   6.993   4.412  0.0486  1.1775 -0.0590
 1017MOL0     C40220   4.004   6.979   4.332  0.5958 -0.0198  0.1103
 1017MOL0     C40221   4.079   7.107   4.320  0.7512 -0.1872 -0.6431
 1017MOL0     C40222   4.163   7.146   4.449 -0.2569  0.0689  0.5685
 1017MOL0     C40223   4.250   7.033   4.503  0.5207 -0.5952 -1.0010
 1017MOL0     C40224   4.338   6.967   4.405 -0.4187 -0.1628 -0.0809
 1017MOL0     N40225   4.440   7.067   4.355 -0.0341 -0.3858  0.0139
 1017MOL0     C40226   4.438   7.130   4.230 -0.2371 -0.6708  0.0518
 1017MOL0     C40227   4.551   7.204   4.231 -0.1594 -0.0026  0.0221
 1017MOL0     C40228   4.602   7.291   4.128  0.6721 -0.1067  0.6767
 1017MOL0     C40229   4.700   7.224   4.036 -0.0016 -0.3116 -0.7152
 1017MOL0     C40230   4.816   7.307   3.986 -0.6807  0.2054 -0.2748
 1017MOL0     C40231   4.920   7.237   3.899 -0.4787  0.6746  0.8809
 1017MOL0     O40232   4.984   7.121   3.946  0.3622  0.3967 -0.3732
 1017MOL0     C40233   5.119   7.099   3.932  0.3157 -0.8796  0.2125
 1017MOL0     C40234   5.207   7.197   3.899 -1.6394 -0.2941 -0.3981
 1017MOL0     C40235   5.347   7.171   3.871  0.2147 -0.6016 -0.2173
 1017MOL0     C40236   5.421   7.286   3.808 -0.8687 -0.4560  0.3307
 1017MOL0     C40237   5.391   7.039   3.888  0.3812 -1.0617 -0.3378
 1017MOL0     C40238   5.521   6.991   3.847 -0.7100  0.1467 -0.5254
 1017MOL0     O40239   5.551   6.861   3.862  0.2235  0.3180 -0.0330
 1017MOL0     C40240   5.665   6.811   3.807  0.1719  0.1471  0.7038
 1017MOL0     C40241   5.767   6.793   3.889  0.4666 -0.2575 -0.4862
 1017MOL0     C40242   5.887   6.734   3.851  0.3006 -0.1691 -0.3504
 1017MOL0     C40243   5.903   6.703   3.711 -0.8491  0.5754  0.0435
 1017MOL0     O40244   6.019   6.644   3.662 -0.2033  1.0941 -0.0221
 1017MOL0     C40245   6.148   6.682   3.721 -0.6637  0.3192 -0.0566
 1017MOL0     C40246   6.260   6.632   3.625 -0.5014  0.2276 -0.3471
 1017MOL0     C40247   6.393   6.617   3.704  0.2496  0.3910 -0.2187
 1017MOL0     C40248   6.505   6.543   3.623 -0.1274  0.5163  0.2463
 1017MOL0     C40249   6.650   6.579   3.661  0.1469 -0.5169 -0.9387
 1017MOL0     C40250   6.752   6.470   3.615 -0.0274 -0.1084  0.5034
 1017MOL0     C40251   6.903   6.495   3.675  0.5289 -0.0665 -0.0572
 1017MOL0     C40252   7.003   6.391   3.623 -0.3850 -0.0810  0.4048
 1017MOL0    Cl40253   7.023   6.406   3.445  0.2761 -0.1145  0.3920
 1017MOL0     C40254   5.798   6.727   3.624  0.8951  0.2699  1.6604
 1017MOL0     C40255   5.675   6.777   3.671  0.3891 -0.2589  0.5398
 1017MOL0     O40256   5.603   7.080   3.813  0.1682  0.3145 -0.6706
 1017MOL0     C40257   5.307   6.944   3.946  0.4444  0.6145  0.5764
 1017MOL0     C40258   5.177   6.976   3.969 -0.0828  0.0230  0.0419
 1017MOL0     N40259   4.609   7.198   4.356 -0.0460 -0.1795 -0.1855
 1017MOL0     N40260   4.553   7.107   4.427 -0.9889  0.3167 -0.8821
 1017MOL0     C40261   3.506   6.743   4.709 -0.3294 -0.2419 -0.1430
 1017MOL0     C40262   3.387   6.688   4.727  0.9789 -0.3943 -0.2632
 1017MOL0     C40263   2.977   6.603   4.850 -0.0198  0.2955 -0.5263
 1017MOL0     C40264   2.903   6.553   4.742  0.4065 -1.4337 -0.3333
 1017MOL0     C40265   2.762   6.545   4.750  0.1950  1.3105  0.8191
 1017MOL0     C40266   2.700   6.532   4.868  0.3948 -0.0075 -0.0959
 1017MOL0     O40267   2.565   6.504   4.869  0.9549  0.1245  0.2801
 1017MOL0     C40268   2.478   6.572   4.959 -0.2686  0.4153  0.4722
 1017MOL0     C40269   2.336   6.554   4.916  0.4024  0.0093  0.4170
 1017MOL0     C40270   2.241   6.613   5.012  0.6435  0.3751 -0.1967
 1017MOL0     C40271   2.246   6.767   5.013  0.4413  0.0407  0.7301
 1017MOL0     C40272   2.195   6.834   5.139 -0.3804  0.2137 -0.2836
 1017MOL0     C40273   2.164   6.874   5.253  0.5472 -0.2782  0.2211
 1017MOL0     C40274   2.774   6.566   4.983  0.3722  0.2832  0.9495
 1017MOL0     C40275   2.906   6.602   4.975  0.2935 -0.4741 -0.2980
 1017MOL0     C40276   2.972   6.652   5.102 -0.0001  0.3710 -0.0495
 1017MOL0     H40277   3.192   6.923   4.587  0.4638  0.8479 -0.7224
 1017MOL0     H40278   3.422   7.024   4.536 -0.6686 -0.1129 -0.3313
 1017MOL0     H40279   3.715   6.723   4.569  4.2330 -1.8744  2.0349
 1017MOL0     H40280   3.828   6.836   4.631  1.3482  1.4154 -1.5120
 1017MOL0     H40281   3.883   6.770   4.409  1.5480  1.2791 -0.1529
 1017MOL0     H40282   3.735   6.843   4.339 -1.3476 -0.1411  1.2183
 1017MOL0     H40283   3.808   7.066   4.368  0.0025 -0.5827 -3.2146
 1017MOL0     H40284   3.902   7.018   4.515 -0.6974 -1.9789  1.0220
 1017MOL0     H40285   4.067   6.896   4.363 -2.2004 -1.4355  2.3826
 1017MOL0     H40286   3.968   6.950   4.233  1.2780 -1.0846  0.1647
 1017MOL0     H40287   4.010   7.189   4.297  0.8867  0.2302  0.3837
 1017MOL0     H40288   4.146   7.103   4.234 -1.8741 -1.3060 -2.7698
 1017MOL0     H40289   4.233   7.228   4.430  0.8432 -0.8680  0.4504
 1017MOL0     H40290   4.101   7.180   4.533 -1.1444 -0.8741  0.3105
 1017MOL0     H40291   4.200   6.955   4.561  0.8579  1.8348  2.8412
 1017MOL0     H40292   4.314   7.067   4.584 -1.1024  0.4702 -0.1159
 1017MOL0     H40293   4.399   6.890   4.452  2.7406  2.4393  0.4385
 1017MOL0     H40294   4.280   6.918   4.326 -1.8149 -1.5646  1.7129
 1017MOL0     H40295   4.362   7.119   4.154 -0.9780  2.4681  0.1811
 1017MOL0     H40296   4.657   7.367   4.183  0.7001 -0.9664  1.8807
 1017MOL0     H40297   4.525   7.343   4.070 -0.5012 -2.4063  0.0218
 1017MOL0     H40298   4.735   7.130   4.081 -0.1739 -0.1648 -0.2645
 1017MOL0     H40299   4.648   7.205   3.942  1.0214  1.4742 -1.6903
 1017MOL0     H40300   4.783   7.386   3.917 -3.1866 -2.1151 -1.9174
 1017MOL0     H40301   4.866   7.359   4.069  2.1893 -2.7874  0.0794
 1017MOL0     H40302   4.875   7.212   3.802  0.1924  1.2374  0.4200
 1017MOL0     H40303   4.988   7.320   3.879 -0.2930  1.4444  4.1860
 1017MOL0     H40304   5.175   7.298   3.876 -0.9798 -0.3798 -1.8308
 1017MOL0     H40305   5.446   7.272   3.703 -1.5752  0.6544 -0.0105
 1017MOL0     H40306   5.515   7.302   3.862 -0.0546 -0.7584 -0.9797
 1017MOL0     H40307   5.369   7.382   3.815  0.5010  0.4712 -1.4630
 1017MOL0     H40308   5.755   6.831   3.990 -0.1094 -0.1763 -0.5856
 1017MOL0     H40309   5.964   6.719   3.926  0.4847  1.4373 -0.1758
 1017MOL0     H40310   6.158   6.790   3.738 -2.5818  0.8212 -1.6822
 1017MOL0     H40311   6.158   6.644   3.823  1.2608  0.9065  0.0171
 1017MOL0     H40312   6.228   6.531   3.597  3.5746 -1.9021  1.8471
 1017MOL0     H40313   6.263   6.694   3.535  0.2418 -1.0539 -1.2306
 1017MOL0     H40314   6.377   6.554   3.791  1.7331 -0.8212 -0.7870
 1017MOL0     H40315   6.419   6.719   3.733  0.3716  0.8562 -1.8225
 1017MOL0     H40316   6.494   6.572   3.518 -0.4398  2.3900  0.7484
 1017MOL0     H40317   6.483   6.436   3.616  0.1733  0.5032 -0.6399
 1017MOL0     H40318   6.671   6.675   3.613 -1.1778  0.1265 -0.2617
 1017MOL0     H40319   6.672   6.589   3.767 -3.9532 -0.9096  0.0862
 1017MOL0     H40320   6.761   6.479   3.506  3.4565  4.6856  0.8618
 1017MOL0     H40321   6.708   6.373   3.639 -0.3094  0.2025  1.2514
 1017MOL0     H40322   6.899   6.479   3.783  0.5408  0.0226 -0.0437
 1017MOL0     H40323   6.929   6.598   3.649 -0.6313 -0.0616 -1.3293
 1017MOL0     H40324   6.974   6.290   3.654 -5.9718  0.5745 -1.5239
 1017MOL0     H40325   7.098   6.413   3.673  0.9451 -1.5704 -1.3386
 1017MOL0     H40326   5.820   6.710   3.519  1.6548  1.1381  1.6629
 1017MOL0     H40327   5.585   6.795   3.613  0.5122 -0.1510  0.3813
 1017MOL0     H40328   5.337   6.846   3.982  0.0181  0.2002 -0.1662
 1017MOL0     H40329   5.113   6.902   4.016  1.6652 -0.3427  1.9801
 1017MOL0     H40330   3.592   6.681   4.734 -1.7351 -2.4978 -0.6096
 1017MOL0     H40331   3.385   6.588   4.768  1.0267 -0.9990 -1.6717
 1017MOL0     H40332   2.941   6.546   4.641 -0.4392 -0.1024 -0.7758
 1017MOL0     H40333   2.692   6.532   4.668 -1.8692  1.2213  2.5158
 1017MOL0     H40334   2.488   6.525   5.057 -0.3902  2.0849  1.3318
 1017MOL0     H40335   2.504   6.678   4.974  0.9649 -0.0041  1.4973
 1017MOL0     H40336   2.314   6.448   4.897  0.5450  0.2953 -1.5488
 1017MOL0     H40337   2.320   6.598   4.818  0.9445 -1.3297 -0.3060
 1017MOL0     H40338   2.140   6.586   4.977  1.6378 -0.3085 -2.7474
 1017MOL0     H40339   2.266   6.562   5.106  1.6911  0.3194 -0.5026
 1017MOL0     H40340   2.166   6.790   4.942 -3.2944 -1.1498  4.1907
 1017MOL0     H40341   2.344   6.811   4.991 -0.3927  2.4356  1.4658
 1017MOL0     H40342   2.135   6.903   5.352  0.3925  0.5855 -0.0663
 1017MOL0     H40343   2.711   6.586   5.069  2.5138 -0.0673  2.6909
 1017MOL0     H40344   3.061   6.589   5.113 -1.0251 -0.9610  1.0635
 1017MOL0     H40345   3.000   6.757   5.095  4.3850 -0.6503 -0.6263
 1017MOL0     H40346   2.905   6.655   5.189  1.3899  2.3718  1.0312
 1018MOL0     O40347   2.737   5.173   9.677 -0.0868  0.2421  0.2614
 1018MOL0     C40348   2.810   5.074   9.675  0.2088  0.0463 -0.1721
 1018MOL0     O40349   2.894   5.031   9.771  0.4839  0.5464  0.3846
 1018MOL0     C40350   2.933   5.123   9.869  0.5724  0.6600 -0.8110
 1018MOL0     C40351   2.955   5.261   9.859 -0.0520 -0.5716 -0.5162
 1018MOL0     C40352   3.012   5.334   9.967  0.6248  0.0301 -0.1435
 1018MOL0     C40353   3.045   5.263  10.085  0.8494 -0.5595 -0.0730
 1018MOL0     O40354   3.115   5.325  10.192  0.1589  0.2073 -0.4388
 1018MOL0     C40355   3.252   5.343  10.148 -0.2870 -0.1776  0.0986
 1018MOL0     C40356   3.341   5.302  10.262 -0.2951 -0.0476 -0.5795
 1018MOL0     C40357   3.490   5.309  10.213 -0.7142 -0.7321  0.0528
 1018MOL0     C40358   3.594   5.249  10.312  0.3870  0.4725  0.0118
 1018MOL0     C40359   3.731   5.261  10.254  0.2048  0.2746  0.3138
 1018MOL0     C40360   3.840   5.188  10.337 -0.2856  0.9787  0.0721
 1018MOL0     C40361   3.965   5.145  10.259  0.2921  0.3845  0.1030
 1018MOL0     C40362   4.069   5.255  10.226  0.5840  0.4257  0.0082
 1018MOL0     N40363   4.186   5.196  10.158  0.0777 -0.7305 -0.8966
 1018MOL0     C40364   4.287   5.137  10.230 -0.1005  0.4027 -0.7494
 1018MOL0     C40365   4.358   5.072  10.135 -0.3894  0.0473 -0.9324
 1018MOL0     C40366   4.469   4.979  10.176  1.0404  0.7365 -0.6966
 1018MOL0     C40367   4.588   4.965  10.094  1.0376  0.2239 -0.9756
 1018MOL0     C40368   4.702   4.872  10.156  0.1462 -0.4672  0.3855
 1018MOL0     C40369   4.807   4.956  10.238  0.0516 -0.0233  0.7831
 1018MOL0     O40370   4.751   5.042  10.332 -0.3668  0.3785 -1.2413
 1018MOL0     C40371   4.836   5.124  10.407  0.6866 -0.1304  0.8011
 1018MOL0     C40372   4.970   5.159  10.378 -0.0243 -1.0021 -0.3584
 1018MOL0     C40373   5.033   5.262  10.453 -0.4417  0.6566  0.2864
 1018MOL0     C40374   5.173   5.287  10.394 -0.4198 -0.0937 -0.1853
 1018MOL0     C40375   4.963   5.330  10.558  0.1952  0.5629  0.0571
 1018MOL0     C40376   5.034   5.436  10.638 -0.3760 -0.5860  0.4331
 1018MOL0     O40377   5.159   5.473  10.603  0.6266 -0.6033 -0.3524
 1018MOL0     C40378   5.254   5.549  10.679 -0.6845 -0.8068 -0.0078
 1018MOL0     C40379   5.375   5.587  10.624 -0.7021  0.6472  0.1614
 1018MOL0     C40380   5.471   5.666  10.687 -0.2381 -0.3945  0.4161
 1018MOL0     C40381   5.448   5.702  10.818  0.4618 -0.1448 -0.6626
 1018MOL0     O40382   5.532   5.783  10.893  0.6436 -0.3231  0.1419
 1018MOL0     C40383   5.657   5.838  10.838  0.1220 -0.6282 -0.1742
 1018MOL0     C40384   5.746   5.871  10.959 -0.0537  0.1825 -0.5594
 1018MOL0     C40385   5.885   5.917  10.930  0.3047 -0.1578  0.0889
 1018MOL0     C40386   5.968   5.850  10.821  1.4549  0.2946 -0.6986
 1018MOL0     C40387   6.097   5.935  10.797 -0.0753  0.5371  0.7005
 1018MOL0     C40388   6.222   5.880  10.873 -0.8769 -0.9703  0.3687
 1018MOL0     C40389   6.351   5.933  10.810 -0.1505  0.0969  0.7235
 1018MOL0     C40390   6.412   6.030  10.909  0.0192  0.1334  0.5173
 1018MOL0    Cl40391   6.310   6.181  10.930 -0.1719 -0.1561  0.2015
 1018MOL0     C40392   5.329   5.667  10.886 -0.4271  0.2344  0.2874
 1018MOL0     C40393   5.240   5.594  10.810  0.2630 -0.6232  0.3113
 1018MOL0     O40394   4.970   5.486  10.730  0.4955 -0.6240  0.4970
 1018MOL0     C40395   4.835   5.285  10.589 -0.0286  0.3951  0.9937
 1018MOL0     C40396   4.769   5.190  10.515  0.6781  0.4967  0.1724
 1018MOL0     N40397   4.296   5.091  10.018  0.7419  0.0680  0.4086
 1018MOL0     N40398   4.199   5.173  10.026  0.1158  0.3958  0.6445
 1018MOL0     C40399   3.018   5.130  10.095  1.3244 -0.1620  0.5510
 1018MOL0     C40400   2.964   5.065   9.990 -0.4032 -0.4029  1.1943
 1018MOL0     C40401   2.778   4.978   9.568 -0.3302 -0.3346  0.1883
 1018MOL0     C40402   2.865   4.966   9.454 -0.1417 -0.1917 -0.1221
 1018MOL0     C40403   2.854   4.860   9.361  0.1838  0.5781 -0.5068
 1018MOL0     C40404   2.747   4.759   9.376  0.0643 -0.5456  0.7356
 1018MOL0     O40405   2.737   4.646   9.300  0.9683  0.3881 -0.3562
 1018MOL0     C40406   2.628   4.654   9.206 -0.7282  0.2467 -0.2239
 1018MOL0     C40407   2.501   4.589   9.243 -0.3330  0.2871  0.0450
 1018MOL0     C40408   2.515   4.434   9.277  0.0844 -0.4737  0.1177
 1018MOL0     C40409   2.608   4.348   9.197 -0.0444  0.3767 -0.7900
 1018MOL0     C40410   2.568   4.353   9.053 -0.1879 -0.2850 -0.5760
 1018MOL0     C40411   2.539   4.356   8.937  0.1255  0.7493  0.0795
 1018MOL0     C40412   2.649   4.793   9.476  0.3858  0.5524 -0.3084
 1018MOL0     C40413   2.665   4.893   9.577 -0.0225  0.6994  0.3471
 1018MOL0     C40414   2.544   4.919   9.659 -0.5341  0.1157 -0.5982
 1018MOL0     H40415   2.957   5.311   9.763  3.1967  0.5299  0.0065
 1018MOL0     H40416   3.038   5.439   9.958 -1.3350  0.6352  0.6510
 1018MOL0     H40417   3.265   5.447  10.114  0.2741 -0.7745 -1.5939
 1018MOL0     H40418   3.271   5.274  10.066  0.6381  0.9101 -0.6310
 1018MOL0     H40419   3.327   5.367  10.348  0.4601 -2.7960  1.7713
 1018MOL0     H40420   3.324   5.199  10.295 -0.0669 -0.4225 -1.5682
 1018MOL0     H40421   3.522   5.263  10.118  4.3175 -3.1320  2.5105
 1018MOL0     H40422   3.522   5.413  10.201 -1.1462 -0.6650 -0.6288
 1018MOL0     H40423   3.591   5.296  10.411  2.6612  1.1166 -0.1768
 1018MOL0     H40424   3.575   5.141  10.317  0.2024  0.4285 -1.2317
 1018MOL0     H40425   3.770   5.360  10.229  0.7377 -0.0936 -0.3447
 1018MOL0     H40426   3.734   5.217  10.154  0.6978  1.6435 -0.3016
 1018MOL0     H40427   3.882   5.257  10.411  3.0633 -1.4077  0.6474
 1018MOL0     H40428   3.798   5.107  10.397 -1.0209  3.3346  2.9743
 1018MOL0     H40429   3.929   5.101  10.166  2.2089 -1.5914  0.1877
 1018MOL0     H40430   4.009   5.060  10.313 -0.3414  0.1267  0.2176
 1018MOL0     H40431   4.018   5.319  10.154 -1.5093 -0.2296  0.8504
 1018MOL0     H40432   4.089   5.315  10.315 -2.4906 -0.3268  1.3346
 1018MOL0     H40433   4.301   5.136  10.337 -0.8734  0.0201 -0.6441
 1018MOL0     H40434   4.419   4.886  10.206 -0.6950  1.9026  0.1937
 1018MOL0     H40435   4.506   5.017  10.272  0.0086 -0.8720  0.3985
 1018MOL0     H40436   4.550   4.917  10.004 -2.7489 -0.3238  0.7056
 1018MOL0     H40437   4.624   5.062  10.061 -1.1556  1.3923 -0.1535
 1018MOL0     H40438   4.661   4.786  10.210 -0.8219 -0.6279 -0.5579
 1018MOL0     H40439   4.755   4.837  10.066 -1.0654  1.1921 -1.0310
 1018MOL0     H40440   4.885   4.893  10.282  2.0366  1.0849 -0.9331
 1018MOL0     H40441   4.848   5.029  10.167  0.7166 -2.0800 -1.0630
 1018MOL0     H40442   5.024   5.104  10.301 -1.2830 -1.2453 -1.0927
 1018MOL0     H40443   5.185   5.386  10.350  1.7732  0.5733  1.7252
 1018MOL0     H40444   5.202   5.223  10.309  3.5248 -0.0307  0.9087
 1018MOL0     H40445   5.253   5.255  10.461 -0.7406 -1.8235 -0.5577
 1018MOL0     H40446   5.383   5.562  10.518 -0.4587  1.7623 -0.0972
 1018MOL0     H40447   5.554   5.711  10.633 -1.4640  1.6625  0.1227
 1018MOL0     H40448   5.702   5.763  10.773 -0.0162 -2.8607  2.1692
 1018MOL0     H40449   5.624   5.931  10.792 -0.4118  0.5429  2.3789
 1018MOL0     H40450   5.691   5.948  11.014  0.0003  0.4851 -0.9262
 1018MOL0     H40451   5.744   5.793  11.036  3.1917  1.4425  0.9839
 1018MOL0     H40452   5.932   5.910  11.028 -0.3813  2.6077  0.7282
 1018MOL0     H40453   5.877   6.023  10.904 -0.5738 -0.1051  0.5401
 1018MOL0     H40454   5.916   5.830  10.728  2.4740  2.0970 -1.7156
 1018MOL0     H40455   5.995   5.748  10.852  2.6520  0.4556 -1.1566
 1018MOL0     H40456   6.118   5.937  10.689  2.6827 -1.5825  1.0823
 1018MOL0     H40457   6.076   6.038  10.825 -1.8682 -0.1761  2.1663
 1018MOL0     H40458   6.225   5.772  10.851 -2.2218 -0.6548 -1.6479
 1018MOL0     H40459   6.212   5.900  10.980 -0.7769  0.0550  0.1934
 1018MOL0     H40460   6.336   5.981  10.713  2.7942 -0.4631 -0.1233
 1018MOL0     H40461   6.420   5.852  10.784  0.3714  0.1822  1.8119
 1018MOL0     H40462   6.511   6.057  10.872 -0.4039  2.3484  0.9186
 1018MOL0     H40463   6.430   5.973  11.001 -1.3170  0.1298  0.7873
 1018MOL0     H40464   5.300   5.693  10.987 -3.4580 -1.6777  0.0447
 1018MOL0     H40465   5.156   5.550  10.863  0.4322 -0.0329  1.0844
 1018MOL0     H40466   4.783   5.341  10.667 -1.4100 -0.3186  0.6166
 1018MOL0     H40467   4.670   5.160  10.547  1.8358  0.5434  4.2670
 1018MOL0     H40468   3.043   5.076  10.185 -0.4428 -0.0728  1.1314
 1018MOL0     H40469   2.953   4.958  10.005  0.6367 -0.6191  0.4891
 1018MOL0     H40470   2.954   5.028   9.447 -0.2822  0.1737  1.0732
 1018MOL0     H40471   2.927   4.848   9.281 -0.0221 -2.3855 -0.3743
 1018MOL0     H40472   2.608   4.759   9.181  0.4178  0.0946 -2.0285
 1018MOL0     H40473   2.673   4.603   9.120 -1.6188 -1.0598  0.0694
 1018MOL0     H40474   2.441   4.596   9.152 -0.5128  0.0848  0.1461
 1018MOL0     H40475   2.459   4.647   9.326 -1.7484 -1.3025  0.5066
 1018MOL0     H40476   2.552   4.436   9.380  1.9518 -1.0353 -0.5045
 1018MOL0     H40477   2.413   4.396   9.279 -0.8148  1.6562  3.0939
 1018MOL0     H40478   2.583   4.248   9.234 -3.1943  1.9655  1.9722
 1018MOL0     H40479   2.714   4.372   9.211  0.1958 -2.0485  3.0993
 1018MOL0     H40480   2.498   4.351   8.838  0.9195 -1.1615 -0.1979
 1018MOL0     H40481   2.560   4.733   9.491 -0.4772  1.4761 -1.5652
 1018MOL0     H40482   2.508   4.824   9.700 -1.4809  0.4968 -0.5328
 1018MOL0     H40483   2.571   4.990   9.738 -0.9104  0.8120 -1.0888
 1018MOL0     H40484   2.460   4.958   9.601  0.6003  0.3204 -2.1668
 1019MOL0     O40485   5.445  11.085   1.755  0.4250  0.6337  0.5957
 1019MOL0     C40486   5.349  11.135   1.813 -0.0915 -0.0696  0.7055
 1019MOL0     O40487   5.369  11.231   1.911  0.0274  0.0814 -0.2528
 1019MOL0     C40488   5.492  11.289   1.939  0.1588 -0.5972  0.7164
 1019MOL0     C40489   5.600  11.213   1.968 -0.3829  0.7434  0.1157
 1019MOL0     C40490   5.720  11.271   2.021  0.1609  0.6803  0.2003
 1019MOL0     C40491   5.721  11.411   2.035  0.0309  0.2508 -0.0367
 1019MOL0     O40492   5.839  11.464   2.080  0.1490  0.2518 -0.0996
 1019MOL0     C40493   5.873  11.458   2.220 -0.2331  0.2235 -0.2043
 1019MOL0     C40494   5.909  11.593   2.278  0.1308  0.6121 -0.5369
 1019MOL0     C40495   5.949  11.593   2.428  0.8061  0.0884  0.2923
 1019MOL0     C40496   5.835  11.543   2.510 -1.0757 -1.2109  0.3534
 1019MOL0     C40497   5.866  11.558   2.660  0.9264 -0.2807  0.0715
 1019MOL0     C40498   5.982  11.470   2.705  0.5412 -0.4221 -0.5681
 1019MOL0     C40499   6.042  11.507   2.848  1.0454  0.6690 -0.3945
 1019MOL0     C40500   6.136  11.402   2.910  0.3601  0.0536  0.2953
 1019MOL0     N40501   6.202  11.449   3.034 -0.4284 -1.0139  0.9194
 1019MOL0     C40502   6.158  11.425   3.160 -0.1626 -0.5485  0.2828
 1019MOL0     C40503   6.239  11.500   3.233 -0.4838  0.3724  0.0024
 1019MOL0     C40504   6.233  11.515   3.379  0.1013  0.8130  0.2061
 1019MOL0     C40505   6.094  11.556   3.424 -0.1750 -1.9061  0.2255
 1019MOL0     C40506   6.067  11.712   3.429  0.2654 -0.4133 -0.3371
 1019MOL0     C40507   6.048  11.776   3.291 -0.0161  1.2554  0.0917
 1019MOL0     O40508   5.951  11.706   3.214 -0.2784  0.3426 -0.0343
 1019MOL0     C40509   5.819  11.697   3.245 -0.0702  0.3876  0.8534
 1019MOL0     C40510   5.742  11.617   3.165 -0.3272  1.0459  0.3383
 1019MOL0     C40511   5.606  11.595   3.174  0.7604  0.9086  0.1363
 1019MOL0     C40512   5.540  11.490   3.089  0.2726  0.0797  0.2608
 1019MOL0     C40513   5.539  11.654   3.286  0.8544 -0.5479 -0.6822
 1019MOL0     C40514   5.392  11.643   3.312  0.1830 -0.3629  0.1557
 1019MOL0     O40515   5.352  11.659   3.439  0.2297  0.5889  0.3339
 1019MOL0     C40516   5.223  11.639   3.459  0.1180 -0.2186 -0.1771
 1019MOL0     C40517   5.168  11.509   3.465  0.5698 -0.0923 -0.4729
 1019MOL0     C40518   5.036  11.487   3.495  0.7527 -0.4864  0.4468
 1019MOL0     C40519   4.952  11.595   3.510  0.7182 -0.6351 -0.3170
 1019MOL0     O40520   4.818  11.561   3.543  0.5586  0.0005 -0.0122
 1019MOL0     C40521   4.722  11.669   3.557  0.7100 -0.1794 -0.3777
 1019MOL0     C40522   4.578  11.623   3.602 -0.6732 -0.0223 -0.1748
 1019MOL0     C40523   4.523  11.521   3.507 -0.0060 -0.0619  0.0897
 1019MOL0     C40524   4.379  11.480   3.539  0.3808  0.2756 -0.1065
 1019MOL0     C40525   4.279  11.589   3.505 -0.5099  0.4817  0.0041
 1019MOL0     C40526   4.130  11.534   3.523  1.0263 -0.1870 -0.1723
 1019MOL0     C40527   4.017  11.641   3.500  0.1010  0.3719  0.2654
 1019MOL0     C40528   3.872  11.580   3.490 -0.6483  0.2110 -0.0611
 1019MOL0    Cl40529   3.861  11.475   3.349  0.0417 -0.3532  0.2020
 1019MOL0     C40530   5.004  11.722   3.510  0.3802 -0.0270  0.6211
 1019MOL0     C40531   5.140  11.748   3.493  0.8631 -0.2807  0.1837
 1019MOL0     O40532   5.320  11.652   3.215  0.4343 -0.1431  0.2753
 1019MOL0     C40533   5.615  11.730   3.383 -0.6917 -0.0820 -0.2281
 1019MOL0     C40534   5.749  11.745   3.357  0.8778  0.2004 -0.0242
 1019MOL0     N40535   6.338  11.568   3.156  0.8591  0.3125  0.2003
 1019MOL0     N40536   6.310  11.531   3.036  0.1344 -0.3925  0.0945
 1019MOL0     C40537   5.615  11.490   1.998 -0.3598 -0.4944  0.3890
 1019MOL0     C40538   5.500  11.439   1.944 -0.4460  0.6846  0.3616
 1019MOL0     C40539   5.207  11.099   1.772 -0.1728  1.0400 -0.0002
 1019MOL0     C40540   5.103  11.099   1.875 -1.2607  0.1697 -0.4123
 1019MOL0     C40541   4.974  11.061   1.848  0.2465  0.3837  0.4848
 1019MOL0     C40542   4.938  11.022   1.721  0.1659  0.2776  0.2800
 1019MOL0     O40543   4.802  11.015   1.704  0.2606 -0.2022 -0.3215
 1019MOL0     C40544   4.747  10.974   1.585  0.7343  0.4978  0.3057
 1019MOL0     C40545   4.591  10.965   1.613  0.8657 -0.0311 -0.1053
 1019MOL0     C40546   4.538  11.102   1.647 -0.6266 -0.0790 -0.0466
 1019MOL0     C40547   4.388  11.129   1.658  0.3319 -0.0861  0.1408
 1019MOL0     C40548   4.332  11.052   1.767 -0.0479  0.4413 -1.1005
 1019MOL0     C40549   4.303  10.984   1.862 -0.8400  0.6696 -0.1788
 1019MOL0     C40550   5.040  11.018   1.623  0.2288 -0.0963 -0.6513
 1019MOL0     C40551   5.174  11.060   1.641  0.0064  0.0633  0.3569
 1019MOL0     C40552   5.274  11.081   1.527  1.1773  0.0304  0.9262
 1019MOL0     H40553   5.590  11.105   1.972 -0.4262  0.5151 -3.2360
 1019MOL0     H40554   5.805  11.207   2.045 -0.0884 -0.5853 -2.0226
 1019MOL0     H40555   5.963  11.398   2.241  1.1256  3.0488  2.8034
 1019MOL0     H40556   5.794  11.402   2.270 -0.8666 -2.1275 -3.4584
 1019MOL0     H40557   5.986  11.650   2.225  1.9835 -0.8361  0.5057
 1019MOL0     H40558   5.812  11.638   2.257  0.3233  1.7454  0.8833
 1019MOL0     H40559   6.043  11.538   2.432  1.4097  0.8791 -1.5998
 1019MOL0     H40560   5.964  11.697   2.458 -1.8986  0.1544  1.7067
 1019MOL0     H40561   5.746  11.603   2.490  1.1540  1.8520 -1.2011
 1019MOL0     H40562   5.817  11.436   2.498  2.9864 -2.1581  1.1833
 1019MOL0     H40563   5.783  11.530   2.724  2.1236 -1.4224  1.1757
 1019MOL0     H40564   5.896  11.660   2.688 -0.4577 -0.0424  0.7496
 1019MOL0     H40565   5.952  11.365   2.719 -0.1216 -0.0004  1.6906
 1019MOL0     H40566   6.062  11.476   2.631 -1.5244  0.3637 -2.8532
 1019MOL0     H40567   5.952  11.528   2.908 -0.4387  2.4805 -3.0456
 1019MOL0     H40568   6.089  11.605   2.839  0.9952  0.7467  0.1401
 1019MOL0     H40569   6.086  11.311   2.945 -0.6848 -1.2678 -4.0477
 1019MOL0     H40570   6.202  11.358   2.834 -1.6112 -0.1990 -1.3488
 1019MOL0     H40571   6.066  11.374   3.183 -0.4143 -0.2649 -0.0781
 1019MOL0     H40572   6.319  11.576   3.408  3.6297 -3.5302 -0.0413
 1019MOL0     H40573   6.246  11.421   3.433 -1.7998  1.0426  1.1301
 1019MOL0     H40574   6.020  11.507   3.361 -0.5264  1.9712 -2.7642
 1019MOL0     H40575   6.090  11.511   3.524  2.4765 -0.2984  1.1789
 1019MOL0     H40576   5.980  11.726   3.494  0.8134  1.1563  0.0877
 1019MOL0     H40577   6.153  11.757   3.478  0.5102 -2.0015  0.7863
 1019MOL0     H40578   6.023  11.882   3.298 -2.3363  0.7053  1.2146
 1019MOL0     H40579   6.142  11.778   3.235 -1.0071 -0.8978 -1.7675
 1019MOL0     H40580   5.792  11.566   3.083 -0.5981  0.8448  0.2976
 1019MOL0     H40581   5.455  11.535   3.035  0.4726 -0.8464 -0.8737
 1019MOL0     H40582   5.502  11.405   3.146  0.5478 -0.3800 -0.2381
 1019MOL0     H40583   5.602  11.444   3.011 -1.1855 -2.4689  0.4965
 1019MOL0     H40584   5.240  11.428   3.459  0.3292 -0.3198 -0.2592
 1019MOL0     H40585   4.979  11.397   3.518 -5.3338  3.1138  1.5672
 1019MOL0     H40586   4.755  11.740   3.634 -0.2911 -1.6930  1.5181
 1019MOL0     H40587   4.714  11.728   3.464  0.4500  1.2231  0.4996
 1019MOL0     H40588   4.587  11.586   3.704  0.3334  2.1037  0.5731
 1019MOL0     H40589   4.511  11.708   3.615  0.4911  0.8800  0.1161
 1019MOL0     H40590   4.581  11.431   3.528 -1.8900 -1.2048  0.6753
 1019MOL0     H40591   4.535  11.550   3.402 -1.4567  1.1182  0.2210
 1019MOL0     H40592   4.384  11.457   3.646  0.9243  0.7611 -0.0271
 1019MOL0     H40593   4.353  11.389   3.483  0.6873  0.0067  0.1804
 1019MOL0     H40594   4.296  11.676   3.570 -4.0095 -0.2739  2.1678
 1019MOL0     H40595   4.285  11.623   3.401 -2.9457 -1.6297 -0.9388
 1019MOL0     H40596   4.117  11.505   3.628  0.4798  0.3174 -0.0912
 1019MOL0     H40597   4.107  11.455   3.451  1.4458  1.0065 -1.6799
 1019MOL0     H40598   4.041  11.683   3.402 -2.7015 -0.7156 -1.0015
 1019MOL0     H40599   4.016  11.721   3.574  0.3383  0.5424  0.0844
 1019MOL0     H40600   3.800  11.661   3.480  1.8390  2.4697 -0.7514
 1019MOL0     H40601   3.842  11.525   3.579  4.0641  0.2000  1.8116
 1019MOL0     H40602   4.938  11.806   3.531 -2.2831 -1.4685 -1.4066
 1019MOL0     H40603   5.177  11.850   3.500  1.0285 -0.4311  2.8370
 1019MOL0     H40604   5.565  11.756   3.476 -1.0658  0.9809 -0.7095
 1019MOL0     H40605   5.801  11.792   3.441  1.6483 -2.7316  1.2516
 1019MOL0     H40606   5.632  11.597   2.004 -0.2403 -0.4627 -0.3970
 1019MOL0     H40607   5.421  11.508   1.917 -1.4222 -0.2618  0.7426
 1019MOL0     H40608   5.129  11.144   1.971 -0.3114 -1.4443  0.1319
 1019MOL0     H40609   4.903  11.081   1.927  0.5913  2.0643  0.4192
 1019MOL0     H40610   4.783  11.021   1.493  1.7534 -0.7493  0.0384
 1019MOL0     H40611   4.773  10.868   1.584 -0.0214  0.1854  3.2850
 1019MOL0     H40612   4.555  10.902   1.695  0.7034  1.0315  0.6567
 1019MOL0     H40613   4.549  10.917   1.524  3.1464 -0.6283 -0.9301
 1019MOL0     H40614   4.590  11.137   1.736 -0.6278 -3.5441  1.5033
 1019MOL0     H40615   4.567  11.161   1.560  2.0345 -1.6648 -0.3374
 1019MOL0     H40616   4.342  11.104   1.562 -0.5745 -0.2230  0.6028
 1019MOL0     H40617   4.368  11.235   1.678  1.5199  0.5020 -1.5213
 1019MOL0     H40618   4.300  10.906   1.935  1.5125  1.6403  1.0528
 1019MOL0     H40619   5.001  10.983   1.528  1.8511 -0.3915 -1.2577
 1019MOL0     H40620   5.358  11.148   1.546  1.6648 -0.3662  0.2049
 1019MOL0     H40621   5.318  10.985   1.498  1.5771  0.4355  0.1354
 1019MOL0     H40622   5.221  11.118   1.438  3.0253 -3.6489 -1.9826
 1020MOL0     O40623   2.529   7.871   8.043 -0.3109  0.2817  0.2083
 1020MOL0     C40624   2.433   7.839   7.975 -0.3426 -0.8911 -0.4379
 1020MOL0     O40625   2.431   7.759   7.858 -0.2922 -0.3604 -0.2548
 1020MOL0     C40626   2.552   7.712   7.812  0.3522 -0.0656  0.1652
 1020MOL0     C40627   2.667   7.789   7.798  0.1054  0.1826  0.7264
 1020MOL0     C40628   2.783   7.728   7.744  0.3815  0.2713  0.2051
 1020MOL0     C40629   2.784   7.599   7.699  0.1036 -0.8431 -0.6769
 1020MOL0     O40630   2.896   7.551   7.641 -0.8160  0.0458  0.8100
 1020MOL0     C40631   2.949   7.423   7.696  0.1789 -0.0566  0.0422
 1020MOL0     C40632   3.102   7.449   7.737 -0.7427  0.1401  0.6250
 1020MOL0     C40633   3.186   7.515   7.620  0.2161 -0.0605 -0.2671
 1020MOL0     C40634   3.319   7.568   7.658 -1.7062  0.0004  0.6196
 1020MOL0     C40635   3.398   7.604   7.530  0.9422  0.5932 -0.9255
 1020MOL0     C40636   3.526   7.682   7.567 -0.2929  0.1785 -0.0106
 1020MOL0     C40637   3.588   7.735   7.449  1.1403  0.8824 -0.5135
 1020MOL0     C40638   3.703   7.834   7.491  0.4629 -0.4739  0.5117
 1020MOL0     N40639   3.790   7.872   7.378  0.9182 -0.1757  0.0760
 1020MOL0     C40640   3.856   7.796   7.281  0.1699  0.7047 -0.4491
 1020MOL0     C40641   3.930   7.880   7.207  0.1469  0.1095 -0.0743
 1020MOL0     C40642   4.012   7.851   7.087 -0.4961  0.2108 -0.1107
 1020MOL0     C40643   4.152   7.900   7.083 -0.0974 -0.0190  0.5839
 1020MOL0     C40644   4.250   7.860   6.965  1.2403 -0.6590  0.1858
 1020MOL0     C40645   4.387   7.927   6.978  0.3087 -0.4591 -0.4358
 1020MOL0     O40646   4.363   8.061   6.932 -0.2588  0.9627 -0.9387
 1020MOL0     C40647   4.452   8.161   6.951 -0.2265 -0.4586  0.2966
 1020MOL0     C40648   4.412   8.286   6.907  0.8436  0.0452  0.1494
 1020MOL0     C40649   4.498   8.396   6.902  0.5338  0.2498  0.1662
 1020MOL0     C40650   4.450   8.525   6.842 -0.0176 -0.5268  0.0813
 1020MOL0     C40651   4.637   8.374   6.942 -0.0791  0.3664  0.9628
 1020MOL0     C40652   4.738   8.489   6.963  0.6226  0.4475 -0.3928
 1020MOL0     O40653   4.870   8.448   6.961  0.5438 -0.6587 -0.6430
 1020MOL0     C40654   4.970   8.539   6.995 -0.3016 -0.1529 -0.5541
 1020MOL0     C40655   5.041   8.591   6.894 -0.5717 -0.0960 -0.3268
 1020MOL0     C40656   5.141   8.685   6.908  0.5527 -0.6318 -0.1465
 1020MOL0     C40657   5.162   8.738   7.032 -0.3232 -1.0525 -0.9941
 1020MOL0     O40658   5.256   8.832   7.061 -0.0128  0.0313  0.2381
 1020MOL0     C40659   5.354   8.856   6.957  0.3502 -0.8464  0.4521
 1020MOL0     C40660   5.452   8.964   6.997 -0.5264 -0.0589 -0.4694
 1020MOL0     C40661   5.388   9.098   6.983  0.2758 -0.7102 -1.0918
 1020MOL0     C40662   5.482   9.205   7.057  0.2779 -0.3775  0.0711
 1020MOL0     C40663   5.634   9.197   7.016 -0.2312  0.2267 -1.1460
 1020MOL0     C40664   5.703   9.320   7.081  0.8833  0.0818  0.1556
 1020MOL0     C40665   5.851   9.326   7.053 -0.7477  0.1661  0.2825
 1020MOL0     C40666   5.892   9.469   7.008 -0.2718 -0.5161  0.4932
 1020MOL0    Cl40667   5.861   9.592   7.149  0.4775 -0.7105  0.1979
 1020MOL0     C40668   5.078   8.700   7.140  0.5887  0.1724  0.1784
 1020MOL0     C40669   4.981   8.594   7.121 -0.2395  0.3644 -0.8929
 1020MOL0     O40670   4.696   8.606   6.964  0.6177  0.1313 -0.6526
 1020MOL0     C40671   4.679   8.240   6.978  0.5484 -0.3584  0.4997
 1020MOL0     C40672   4.583   8.141   6.991 -0.6299 -0.3601 -1.0109
 1020MOL0     N40673   3.917   8.004   7.270 -0.2491  0.7782 -0.5788
 1020MOL0     N40674   3.818   8.000   7.357  0.5046 -0.1279  0.6397
 1020MOL0     C40675   2.670   7.528   7.708 -0.3715 -0.2559 -0.1113
 1020MOL0     C40676   2.548   7.584   7.757 -0.0055 -1.3108 -0.6529
 1020MOL0     C40677   2.307   7.909   8.002  0.6599  0.3489 -0.5547
 1020MOL0     C40678   2.221   7.918   7.899  0.3619  0.4715  0.0235
 1020MOL0     C40679   2.090   7.971   7.907  0.0874  0.2524 -0.4135
 1020MOL0     C40680   2.045   8.029   8.028 -0.1806  0.5071  0.6210
 1020MOL0     O40681   1.912   8.062   8.029 -0.5298 -0.3518 -0.7973
 1020MOL0     C40682   1.857   8.115   8.157 -0.0537  0.2191 -0.1348
 1020MOL0     C40683   1.707   8.148   8.136 -0.9032 -0.3131  0.4895
 1020MOL0     C40684   1.689   8.277   8.048  0.5807  0.2789 -0.2539
 1020MOL0     C40685   1.539   8.303   8.015  0.4024  0.7285 -0.7644
 1020MOL0     C40686   1.520   8.441   7.951 -0.0733 -0.2693  0.3354
 1020MOL0     C40687   1.496   8.552   7.902 -0.6002  0.5835 -0.2667
 1020MOL0     C40688   2.129   8.026   8.139  0.0483 -0.5347  0.2416
 1020MOL0     C40689   2.252   7.965   8.127 -0.6464  0.2316  0.0754
 1020MOL0     C40690   2.339   7.940   8.257  0.3945 -0.4375  0.1098
 1020MOL0     H40691   2.661   7.894   7.822  0.1398  0.2342  0.5133
 1020MOL0     H40692   2.867   7.797   7.741  0.6690  0.1554  3.0507
 1020MOL0     H40693   2.937   7.358   7.609  2.0281 -0.6333  0.1807
 1020MOL0     H40694   2.897   7.387   7.785  1.5554 -0.9405  0.5178
 1020MOL0     H40695   3.103   7.503   7.832 -0.3287 -1.8657  1.8155
 1020MOL0     H40696   3.145   7.354   7.769 -1.5552 -1.0769 -1.6371
 1020MOL0     H40697   3.208   7.447   7.537  2.3022 -0.5624  0.6287
 1020MOL0     H40698   3.132   7.599   7.576  2.3771  1.2744 -0.5291
 1020MOL0     H40699   3.301   7.660   7.715 -1.6665 -0.1846  0.9306
 1020MOL0     H40700   3.370   7.488   7.711 -2.5072 -0.3031  0.9475
 1020MOL0     H40701   3.331   7.657   7.462  1.8770 -0.4327 -2.7308
 1020MOL0     H40702   3.424   7.513   7.474 -1.3928  1.3964 -3.5567
 1020MOL0     H40703   3.491   7.765   7.630 -1.6868 -1.5922  1.6992
 1020MOL0     H40704   3.591   7.627   7.635 -1.2898  0.4044  1.1673
 1020MOL0     H40705   3.511   7.772   7.381 -1.4250  1.2924  2.4493
 1020MOL0     H40706   3.636   7.649   7.400 -3.0730 -1.5455 -0.8986
 1020MOL0     H40707   3.651   7.912   7.547 -2.1301 -0.9762 -1.0101
 1020MOL0     H40708   3.764   7.791   7.570  3.3336  3.2983  0.6380
 1020MOL0     H40709   3.847   7.690   7.260 -1.7438  0.5051  1.1100
 1020MOL0     H40710   3.971   7.897   6.996 -0.8491  1.6845  0.7553
 1020MOL0     H40711   4.029   7.743   7.083 -0.6631  0.0575  2.0233
 1020MOL0     H40712   4.135   8.008   7.077  0.8731  0.2494  2.1408
 1020MOL0     H40713   4.198   7.878   7.179  0.2367  0.8019  0.6239
 1020MOL0     H40714   4.266   7.752   6.969 -0.9341 -1.0922 -0.8669
 1020MOL0     H40715   4.205   7.891   6.870  1.1054  1.5271  0.8901
 1020MOL0     H40716   4.424   7.911   7.080 -1.4679 -1.0126  0.1529
 1020MOL0     H40717   4.465   7.887   6.912 -1.3166  0.4954 -3.1239
 1020MOL0     H40718   4.312   8.294   6.865  0.1557  0.8124  1.8405
 1020MOL0     H40719   4.410   8.588   6.922 -2.1420 -1.9671  0.2241
 1020MOL0     H40720   4.365   8.515   6.774 -0.7822 -2.2200  1.2216
 1020MOL0     H40721   4.527   8.577   6.784 -0.6067 -1.3212 -1.4698
 1020MOL0     H40722   5.014   8.561   6.793 -1.1798  1.8122 -0.7727
 1020MOL0     H40723   5.192   8.725   6.821  0.6017  0.0321  0.1808
 1020MOL0     H40724   5.414   8.765   6.945  1.3329 -0.3962  1.6724
 1020MOL0     H40725   5.312   8.889   6.862 -2.9198 -2.7133  1.0968
 1020MOL0     H40726   5.476   8.939   7.101 -0.0741 -0.9930 -0.7832
 1020MOL0     H40727   5.547   8.946   6.947  0.2889 -4.4374  2.0567
 1020MOL0     H40728   5.288   9.121   7.020  0.6338  0.6627 -0.9215
 1020MOL0     H40729   5.388   9.124   6.877  1.6731 -1.0839 -1.2133
 1020MOL0     H40730   5.471   9.183   7.163 -0.5035  1.5102  0.4166
 1020MOL0     H40731   5.443   9.305   7.039  0.7776 -0.4224 -1.4451
 1020MOL0     H40732   5.684   9.113   7.064  0.1501  1.3233  0.4622
 1020MOL0     H40733   5.639   9.197   6.906 -1.2992  2.8239 -1.2721
 1020MOL0     H40734   5.675   9.315   7.187  0.2738 -0.6772 -0.0321
 1020MOL0     H40735   5.658   9.409   7.035  1.9234 -0.4767 -2.0580
 1020MOL0     H40736   5.886   9.253   6.979 -1.0468  0.5213 -0.2182
 1020MOL0     H40737   5.899   9.301   7.148  1.2463  0.8913 -0.4952
 1020MOL0     H40738   5.827   9.490   6.922 -1.2752  0.0571  1.3739
 1020MOL0     H40739   6.000   9.455   7.000 -0.3809 -3.5892  2.5749
 1020MOL0     H40740   5.105   8.736   7.238  1.4295  1.4098 -0.4888
 1020MOL0     H40741   4.926   8.558   7.207 -0.4852  2.6771  0.0038
 1020MOL0     H40742   4.781   8.227   7.013  1.1458  0.1304 -0.9953
 1020MOL0     H40743   4.623   8.048   7.030  0.3357  1.2716  2.3027
 1020MOL0     H40744   2.669   7.430   7.663 -0.2897 -0.2500 -0.1270
 1020MOL0     H40745   2.460   7.521   7.765  1.1526 -2.7234  2.0622
 1020MOL0     H40746   2.228   7.870   7.802 -0.4994  1.6516 -0.6414
 1020MOL0     H40747   2.024   7.970   7.821 -0.1405  0.0892 -0.2393
 1020MOL0     H40748   1.877   8.048   8.241 -2.1198 -1.5890 -0.9940
 1020MOL0     H40749   1.916   8.202   8.186 -0.8034  1.7209 -2.8193
 1020MOL0     H40750   1.661   8.168   8.233  0.1783  0.3030  0.8880
 1020MOL0     H40751   1.676   8.059   8.079  1.7436 -1.4977  0.7562
 1020MOL0     H40752   1.719   8.362   8.110 -0.5634 -0.4479  1.3756
 1020MOL0     H40753   1.742   8.284   7.952 -3.1846  3.8664 -2.4585
 1020MOL0     H40754   1.474   8.298   8.103 -1.6807  2.7420 -2.0818
 1020MOL0     H40755   1.505   8.223   7.949 -0.1181  0.9360 -0.7501
 1020MOL0     H40756   1.486   8.646   7.851 -0.1318  0.2468 -0.9885
 1020MOL0     H40757   2.080   8.050   8.233 -0.9887 -0.2260 -0.3547
 1020MOL0     H40758   2.337   7.837   8.294  1.2958 -0.1931  0.8858
 1020MOL0     H40759   2.437   7.980   8.230  1.1521 -2.3618 -0.1153
 1020MOL0     H40760   2.290   8.000   8.335 -0.7496  0.6323 -1.3876
 1021MOL0     O40761   9.394   0.300   0.163  0.1289 -0.3815 -0.6315
 1021MOL0     C40762   9.519   0.290   0.184 -0.3609 -0.0581  0.3942
 1021MOL0     O40763   9.601   0.393   0.214  0.2350 -0.2697  0.2254
 1021MOL0     C40764   9.558   0.515   0.179  0.6632  0.2460 -0.1518
 1021MOL0     C40765   9.566   0.568   0.050  0.2604 -0.0797  0.0542
 1021MOL0     C40766   9.535   0.698   0.027  0.5417  0.0556  0.1294
 1021MOL0     C40767   9.481   0.771   0.128  0.2457  0.2405 -0.0866
 1021MOL0     O40768   9.426   0.893   0.092 -0.6705  0.7403  0.9447
 1021MOL0     C40769   9.412   0.999   0.182 -0.4818 -0.5702  0.7266
 1021MOL0     C40770   9.513   1.102   0.164 -0.5198 -0.2049  0.2077
 1021MOL0     C40771   9.656   1.046   0.180 -0.2832 -0.1153  0.1830
 1021MOL0     C40772   9.768   1.157   0.190  1.3230  0.2884  0.1236
 1021MOL0     C40773   9.904   1.096   0.217  0.1005  1.4669 -0.1508
 1021MOL0     C40774  10.010   1.209   0.241  0.5956 -0.1354  1.1382
 1021MOL0     C40775  10.148   1.141   0.254 -0.4821 -0.3069  1.0892
 1021MOL0     C40776  10.264   1.237   0.214  0.3855 -0.2583 -0.0744
 1021MOL0     N40777  10.403   1.186   0.244 -0.0985 -0.1781  0.1156
 1021MOL0     C40778  10.471   1.093   0.178 -0.4678 -0.7585 -0.6268
 1021MOL0     C40779  10.575   1.069   0.271 -0.2720  1.0051 -0.1693
 1021MOL0     C40780  10.680   0.968   0.244  0.1123 -0.1083 -0.6327
 1021MOL0     C40781  10.774   1.000   0.134  0.4398  0.0335  0.4715
 1021MOL0     C40782  10.843   1.139   0.143 -0.0983  0.1492 -1.0134
 1021MOL0     C40783  10.928   1.163   0.270  0.1522 -0.0773  0.3071
 1021MOL0     O40784  11.023   1.270   0.251 -0.4406 -0.1110  0.5379
 1021MOL0     C40785  10.962   1.398   0.246 -0.8834  0.3697 -0.0678
 1021MOL0     C40786  11.043   1.506   0.205 -0.1207  0.7619  1.2091
 1021MOL0     C40787  11.002   1.639   0.182  0.2682  0.2526 -0.0190
 1021MOL0     C40788  11.103   1.740   0.137 -0.0993 -0.4716  0.2259
 1021MOL0     C40789  10.863   1.669   0.215  0.7408  0.6770  1.4225
 1021MOL0     C40790  10.791   1.807   0.193 -0.7518 -0.1997  0.2252
 1021MOL0     O40791  10.657   1.815   0.229  0.1310 -0.2957  0.4490
 1021MOL0     C40792  10.565   1.905   0.172 -0.4197  0.2120 -0.4304
 1021MOL0     C40793  10.458   1.951   0.247  0.5660  0.3590  0.5168
 1021MOL0     C40794  10.363   2.041   0.189  0.1765  0.1853  0.4585
 1021MOL0     C40795  10.362   2.068   0.056 -0.5158 -1.3462  1.2276
 1021MOL0     O40796  10.270   2.151   0.000 -0.4548  0.1983 -0.0335
 1021MOL0     C40797  10.155   2.087  -0.051  0.4425  0.3470 -0.4138
 1021MOL0     C40798  10.109   2.172  -0.176 -0.4798  1.1421  0.2989
 1021MOL0     C40799   9.985   2.108  -0.233  0.6341 -0.6824 -0.2662
 1021MOL0     C40800   9.935   2.189  -0.356  0.5647  0.3273 -0.4238
 1021MOL0     C40801   9.816   2.125  -0.431 -0.0380 -0.2534 -0.4168
 1021MOL0     C40802   9.834   1.975  -0.467 -0.6472 -0.8948 -0.5988
 1021MOL0     C40803   9.745   1.929  -0.580 -0.2119 -0.0740 -0.0415
 1021MOL0     C40804   9.601   1.940  -0.536 -0.9347 -0.0056 -0.4994
 1021MOL0    Cl40805   9.574   1.846  -0.385 -0.3172  0.1847 -0.0083
 1021MOL0     C40806  10.482   2.029  -0.015 -0.3198  0.5903  0.6624
 1021MOL0     C40807  10.581   1.954   0.044  0.3646  0.6219  0.9220
 1021MOL0     O40808  10.855   1.892   0.133  0.0023  0.2161  0.3259
 1021MOL0     C40809  10.780   1.565   0.267  0.0689 -0.5327 -0.3270
 1021MOL0     C40810  10.834   1.437   0.281  0.6985  0.0961 -0.2841
 1021MOL0     N40811  10.566   1.160   0.375  0.0375  0.1914  0.6140
 1021MOL0     N40812  10.460   1.231   0.352  0.5090 -0.1383 -0.5780
 1021MOL0     C40813   9.453   0.712   0.256 -0.6731  0.3548  0.5440
 1021MOL0     C40814   9.495   0.587   0.287 -0.4396 -0.6212 -0.4810
 1021MOL0     C40815   9.570   0.147   0.177 -0.4283  0.2389 -0.4485
 1021MOL0     C40816   9.487   0.047   0.231  0.0340 -0.9206 -1.0220
 1021MOL0     C40817   9.515  -0.085   0.212  0.7440 -0.7877  0.8266
 1021MOL0     C40818   9.625  -0.126   0.144  0.2657  0.0320  0.5165
 1021MOL0     O40819   9.632  -0.261   0.141  0.6050  0.4240 -0.1736
 1021MOL0     C40820   9.703  -0.329   0.032 -0.6133  0.2966 -0.6547
 1021MOL0     C40821   9.685  -0.476   0.067  0.1851 -0.4998 -0.0415
 1021MOL0     C40822   9.542  -0.522   0.062 -0.2419  0.1522 -0.5497
 1021MOL0     C40823   9.526  -0.666   0.064 -0.5023  0.2582 -0.8223
 1021MOL0     C40824   9.601  -0.752  -0.030 -0.8379 -0.7241 -0.2307
 1021MOL0     C40825   9.665  -0.807  -0.116  0.5900 -0.4666  0.5487
 1021MOL0     C40826   9.712  -0.032   0.090 -0.8349  0.3375 -0.4926
 1021MOL0     C40827   9.691   0.104   0.118  0.5792 -0.1476  0.1026
 1021MOL0     C40828   9.786   0.205   0.047  0.0088  0.5761 -0.5351
 1021MOL0     H40829   9.627   0.508  -0.016 -0.4279  0.4090 -1.0537
 1021MOL0     H40830   9.547   0.739  -0.073 -2.2686 -1.1035 -0.7816
 1021MOL0     H40831   9.405   0.970   0.288  1.2592 -3.8995  0.0731
 1021MOL0     H40832   9.309   1.034   0.173  0.2059  1.3330 -0.1946
 1021MOL0     H40833   9.511   1.159   0.070 -0.1985  0.2128  0.4511
 1021MOL0     H40834   9.503   1.182   0.237  0.5707  0.5797 -0.4762
 1021MOL0     H40835   9.664   0.987   0.272  0.5481  0.4042  0.4495
 1021MOL0     H40836   9.675   0.984   0.092 -0.4197 -0.1601  0.1845
 1021MOL0     H40837   9.774   1.215   0.098 -0.4620 -0.9048 -0.8129
 1021MOL0     H40838   9.736   1.227   0.268  2.2508 -1.9877  2.7295
 1021MOL0     H40839   9.931   1.033   0.132  0.4942  1.4871 -0.0425
 1021MOL0     H40840   9.896   1.031   0.305 -1.1193  1.1412 -0.4738
 1021MOL0     H40841  10.007   1.276   0.155 -2.2971  0.2329  1.4308
 1021MOL0     H40842   9.996   1.280   0.323 -1.1824 -0.6853  1.3407
 1021MOL0     H40843  10.157   1.050   0.193  2.4413 -1.5373  3.0988
 1021MOL0     H40844  10.157   1.113   0.360 -0.1436  1.8402  1.6715
 1021MOL0     H40845  10.258   1.257   0.107 -1.1383  0.7620  0.1728
 1021MOL0     H40846  10.258   1.334   0.264  2.0780 -0.3121  0.2868
 1021MOL0     H40847  10.471   1.048   0.079 -1.3544  3.2990 -2.6583
 1021MOL0     H40848  10.631   0.876   0.211  1.4099 -0.7788 -0.7540
 1021MOL0     H40849  10.739   0.950   0.334 -0.4302  0.4691 -0.1462
 1021MOL0     H40850  10.850   0.922   0.122 -0.3198 -0.3333 -3.8003
 1021MOL0     H40851  10.711   1.001   0.044 -1.4460 -0.3555  1.7459
 1021MOL0     H40852  10.923   1.139   0.068  0.9879  1.4112  0.0748
 1021MOL0     H40853  10.766   1.212   0.118  0.5099  0.2008 -2.8737
 1021MOL0     H40854  10.861   1.175   0.356  3.0919 -2.1802  3.1222
 1021MOL0     H40855  10.983   1.071   0.291  0.4589  0.4085  1.7466
 1021MOL0     H40856  11.145   1.478   0.183 -0.4680  1.3530 -1.5224
 1021MOL0     H40857  11.124   1.804   0.224  1.7764 -2.9386  1.6849
 1021MOL0     H40858  11.073   1.811   0.059 -1.5469  1.1376  2.1030
 1021MOL0     H40859  11.196   1.689   0.112 -0.1296 -0.6243  0.4294
 1021MOL0     H40860  10.435   1.914   0.346  1.3077  1.5597  1.1716
 1021MOL0     H40861  10.277   2.084   0.241  1.5175  1.6978  1.5316
 1021MOL0     H40862  10.183   1.989  -0.089 -0.1634 -1.5705  3.6086
 1021MOL0     H40863  10.082   2.073   0.029  1.0382 -2.7208 -0.2902
 1021MOL0     H40864  10.082   2.267  -0.129 -1.1353  0.4622  1.3536
 1021MOL0     H40865  10.194   2.173  -0.245  2.5576 -2.5389  3.5101
 1021MOL0     H40866   9.903   2.110  -0.161 -0.9159 -1.9785 -1.9074
 1021MOL0     H40867  10.006   2.003  -0.253 -0.3413 -0.4117 -3.3055
 1021MOL0     H40868  10.019   2.175  -0.424  0.0073 -3.6538 -0.5579
 1021MOL0     H40869   9.920   2.295  -0.336  3.0083  0.9699 -1.6474
 1021MOL0     H40870   9.722   2.134  -0.376 -1.4530  0.1243 -2.7813
 1021MOL0     H40871   9.799   2.186  -0.520  0.8292  0.1266 -0.3364
 1021MOL0     H40872   9.827   1.909  -0.380 -1.4359  0.6111  0.5170
 1021MOL0     H40873   9.934   1.965  -0.510  0.2266 -2.0632  1.5512
 1021MOL0     H40874   9.778   1.826  -0.589 -0.4763 -0.3828  1.9410
 1021MOL0     H40875   9.753   1.983  -0.675  2.0439  0.4695  0.4110
 1021MOL0     H40876   9.540   1.909  -0.621 -1.8136  2.2834 -0.7688
 1021MOL0     H40877   9.585   2.046  -0.514 -2.7511  0.1888 -2.4488
 1021MOL0     H40878  10.494   2.046  -0.122 -1.8675  0.8558  0.5043
 1021MOL0     H40879  10.659   1.915  -0.021 -1.5759 -1.7928 -0.0936
 1021MOL0     H40880  10.680   1.593   0.300  0.4333 -1.0258  1.2870
 1021MOL0     H40881  10.765   1.366   0.326  1.5940  0.1800  1.3088
 1021MOL0     H40882   9.403   0.757   0.341  0.8532 -1.4738  2.5297
 1021MOL0     H40883   9.466   0.544   0.383 -0.7722  0.1168 -0.2428
 1021MOL0     H40884   9.398   0.066   0.290  0.8192  2.7928 -0.8016
 1021MOL0     H40885   9.463  -0.165   0.264  3.6748 -2.9552  0.6773
 1021MOL0     H40886   9.660  -0.297  -0.063 -1.0585 -2.0146 -1.2928
 1021MOL0     H40887   9.809  -0.302   0.024 -0.9348  2.5546  1.5166
 1021MOL0     H40888   9.735  -0.499   0.162  1.4808 -0.3093 -0.6582
 1021MOL0     H40889   9.732  -0.531  -0.015 -1.1707  1.6926 -2.3957
 1021MOL0     H40890   9.501  -0.483   0.156  0.8992  2.3245 -0.8824
 1021MOL0     H40891   9.489  -0.479  -0.023 -0.9340 -0.1595 -0.2815
 1021MOL0     H40892   9.421  -0.693   0.049 -1.6329  3.2522  0.8837
 1021MOL0     H40893   9.555  -0.700   0.164 -1.3200  0.5302 -0.4792
 1021MOL0     H40894   9.716  -0.843  -0.203  1.9852 -1.4148  1.7077
 1021MOL0     H40895   9.801  -0.069   0.039  0.0943  0.7830  0.7349
 1021MOL0     H40896   9.843   0.251   0.128 -0.8471 -1.0817  1.0698
 1021MOL0     H40897   9.854   0.158  -0.025  1.7431 -0.5427  1.7180
 1021MOL0     H40898   9.737   0.291   0.001  0.4744 -0.1234 -2.4282
 1022MOL0     O40899   5.704   4.652   6.593  0.3121 -0.2030 -0.3816
 1022MOL0     C40900   5.712   4.544   6.547  0.4843 -0.2321  0.8659
 1022MOL0     O40901   5.830   4.484   6.522 -0.3856  0.0906 -0.0999
 1022MOL0     C40902   5.963   4.531   6.544  0.1255  0.2239 -0.4215
 1022MOL0     C40903   6.070   4.451   6.491 -0.2542 -0.1266 -0.2122
 1022MOL0     C40904   6.205   4.485   6.521  0.5731  0.2396 -0.9992
 1022MOL0     C40905   6.237   4.604   6.596 -0.6078  0.6792  0.5712
 1022MOL0     O40906   6.360   4.645   6.632  0.3328 -0.2792 -0.3391
 1022MOL0     C40907   6.462   4.636   6.531 -0.4043 -0.0832  0.1708
 1022MOL0     C40908   6.488   4.772   6.471  0.0415  0.0215 -0.7313
 1022MOL0     C40909   6.585   4.769   6.351 -0.4061  1.0312 -0.5882
 1022MOL0     C40910   6.630   4.909   6.309 -0.3665 -0.3975  0.4747
 1022MOL0     C40911   6.772   4.910   6.235 -0.1934 -0.9704  0.2937
 1022MOL0     C40912   6.801   5.059   6.213 -0.4282  0.1058  0.9585
 1022MOL0     C40913   6.939   5.097   6.169  0.4567 -0.9995 -0.7613
 1022MOL0     C40914   7.048   5.107   6.287 -0.1694  1.1027  0.0151
 1022MOL0     N40915   7.174   5.150   6.238 -0.3636  0.0866 -0.2186
 1022MOL0     C40916   7.193   5.275   6.176 -0.3039  0.2859  0.0134
 1022MOL0     C40917   7.329   5.281   6.156  0.0406  0.2900  0.5062
 1022MOL0     C40918   7.407   5.404   6.115  0.0434 -0.2968  0.4638
 1022MOL0     C40919   7.394   5.530   6.209 -0.2972 -0.1558 -0.2106
 1022MOL0     C40920   7.445   5.662   6.143  0.3963  0.5874 -0.8755
 1022MOL0     C40921   7.579   5.643   6.092 -0.8947  0.0973 -0.6288
 1022MOL0     O40922   7.609   5.764   6.020 -0.0559 -0.3757  0.3408
 1022MOL0     C40923   7.740   5.802   6.007 -0.6249 -0.6780  0.0868
 1022MOL0     C40924   7.769   5.942   6.020  0.2003 -1.1005 -0.1083
 1022MOL0     C40925   7.893   5.994   5.989 -0.8184  1.5819 -0.2784
 1022MOL0     C40926   7.916   6.142   5.987  0.2578 -0.3217  0.9366
 1022MOL0     C40927   7.996   5.897   5.952 -0.2361 -0.1267 -0.0833
 1022MOL0     C40928   8.129   5.927   5.904  0.3398  0.0997 -0.1660
 1022MOL0     O40929   8.186   5.847   5.815 -0.7135  0.7139  0.0430
 1022MOL0     C40930   8.321   5.849   5.830 -0.8437 -0.6780  0.2340
 1022MOL0     C40931   8.393   5.772   5.919  0.7127 -0.1861 -0.4694
 1022MOL0     C40932   8.533   5.763   5.919  0.1015 -0.4446 -0.2434
 1022MOL0     C40933   8.606   5.833   5.821  1.1696 -0.1701 -0.5847
 1022MOL0     O40934   8.737   5.842   5.809  0.6298 -1.0818 -0.3998
 1022MOL0     C40935   8.805   5.848   5.937 -1.0301 -0.2092 -0.8773
 1022MOL0     C40936   8.955   5.902   5.913 -0.2157  0.4353 -0.2994
 1022MOL0     C40937   9.025   5.823   5.801  0.7346  0.1996  0.0329
 1022MOL0     C40938   9.173   5.868   5.801 -0.6148  0.5002 -0.0269
 1022MOL0     C40939   9.250   5.824   5.671 -0.2388  0.2607  0.7148
 1022MOL0     C40940   9.208   5.894   5.548 -0.2122 -0.0683  0.0979
 1022MOL0     C40941   9.288   5.820   5.437  0.2689  0.4280 -0.4015
 1022MOL0     C40942   9.228   5.873   5.305 -0.5138 -0.9617  0.4725
 1022MOL0    Cl40943   9.283   6.040   5.283 -0.0863  0.1205 -0.3128
 1022MOL0     C40944   8.534   5.904   5.725  0.0641  0.7793  0.2105
 1022MOL0     C40945   8.397   5.910   5.723 -0.0641 -0.1306  0.0360
 1022MOL0     O40946   8.180   6.019   5.958 -0.0093  0.3104 -0.0443
 1022MOL0     C40947   7.968   5.764   5.950 -0.3431 -0.5535 -0.2142
 1022MOL0     C40948   7.844   5.717   5.990  0.1663  0.6941  0.2471
 1022MOL0     N40949   7.379   5.160   6.194 -0.6326  0.0613  0.5884
 1022MOL0     N40950   7.291   5.082   6.240  0.3783  0.7944 -1.0961
 1022MOL0     C40951   6.135   4.672   6.651  0.1329 -0.6327  0.1429
 1022MOL0     C40952   6.001   4.647   6.625  0.3610  1.2326  0.0454
 1022MOL0     C40953   5.589   4.475   6.500 -1.1029  0.5432  0.0218
 1022MOL0     C40954   5.608   4.350   6.434 -0.2919 -0.8416 -0.0676
 1022MOL0     C40955   5.498   4.284   6.386  0.4372 -0.5717 -0.6546
 1022MOL0     C40956   5.371   4.327   6.404  0.9420 -0.6398  0.7779
 1022MOL0     O40957   5.269   4.240   6.370  0.3117 -0.5339  0.1991
 1022MOL0     C40958   5.140   4.288   6.329  0.5450  0.3533 -0.6716
 1022MOL0     C40959   5.066   4.180   6.241 -0.6778 -1.0988  0.0953
 1022MOL0     C40960   4.917   4.203   6.228  0.1861 -0.7410 -0.6451
 1022MOL0     C40961   4.856   4.115   6.127 -0.4353  0.0047  0.5210
 1022MOL0     C40962   4.711   4.107   6.127 -0.4324 -0.5311  0.9280
 1022MOL0     C40963   4.589   4.102   6.114  0.6032  0.2670 -0.3795
 1022MOL0     C40964   5.349   4.452   6.466  0.6185  1.2081  0.2272
 1022MOL0     C40965   5.457   4.527   6.515  0.0639  0.1622  0.6699
 1022MOL0     C40966   5.422   4.657   6.579 -0.1733  0.2199  0.3361
 1022MOL0     H40967   6.061   4.367   6.422  0.9843  1.0306 -1.8824
 1022MOL0     H40968   6.279   4.424   6.470  0.0541 -0.5541 -0.8254
 1022MOL0     H40969   6.453   4.565   6.448  0.2527 -0.8299  0.7273
 1022MOL0     H40970   6.557   4.613   6.579 -1.1423 -2.1358  0.7267
 1022MOL0     H40971   6.393   4.805   6.428  0.8260  1.4976 -1.3935
 1022MOL0     H40972   6.512   4.838   6.555  1.9010 -0.3233 -0.9520
 1022MOL0     H40973   6.673   4.709   6.372  1.6255  3.9090 -0.3045
 1022MOL0     H40974   6.531   4.723   6.268 -0.4475 -0.0505  0.0126
 1022MOL0     H40975   6.541   4.939   6.253 -1.0626 -1.8762  0.7168
 1022MOL0     H40976   6.629   4.969   6.401 -0.9250 -1.9406  1.5187
 1022MOL0     H40977   6.740   4.856   6.145  0.0756  1.2415 -1.1995
 1022MOL0     H40978   6.842   4.858   6.301 -1.9813 -1.4917  1.8641
 1022MOL0     H40979   6.728   5.082   6.136 -0.2091 -2.2351 -0.0354
 1022MOL0     H40980   6.783   5.107   6.310  0.3891 -1.2312  1.7999
 1022MOL0     H40981   6.938   5.191   6.113 -0.1487 -1.0963 -0.9240
 1022MOL0     H40982   6.963   5.018   6.097 -0.5822 -1.0744 -1.0454
 1022MOL0     H40983   7.010   5.172   6.367 -0.0273  2.0862 -0.6987
 1022MOL0     H40984   7.043   5.011   6.340  3.5220  0.6341 -0.2672
 1022MOL0     H40985   7.135   5.367   6.175  1.9086  1.7497 -0.2425
 1022MOL0     H40986   7.361   5.436   6.021  3.0544  2.2091 -0.3461
 1022MOL0     H40987   7.508   5.380   6.080 -0.5038 -3.5853  0.8221
 1022MOL0     H40988   7.295   5.545   6.253 -0.1542  1.9626 -0.4850
 1022MOL0     H40989   7.463   5.521   6.293 -2.1709  2.1238  1.7484
 1022MOL0     H40990   7.370   5.691   6.069 -0.3791  2.1481  0.4600
 1022MOL0     H40991   7.441   5.749   6.209  4.2013 -0.5801  1.1694
 1022MOL0     H40992   7.653   5.650   6.172 -1.7754 -0.5659  0.2621
 1022MOL0     H40993   7.598   5.561   6.022  1.0511  0.9348 -1.1610
 1022MOL0     H40994   7.697   6.016   6.053 -1.1229 -2.0696 -0.7750
 1022MOL0     H40995   7.828   6.200   5.958  0.6868 -0.2200 -0.2167
 1022MOL0     H40996   8.001   6.169   5.923  0.4903  0.5453  1.6066
 1022MOL0     H40997   7.954   6.178   6.083 -3.4949  3.6668  1.1997
 1022MOL0     H40998   8.339   5.724   6.000  2.6810  1.0612  1.6785
 1022MOL0     H40999   8.595   5.699   5.982  1.4627  1.2443  0.2066
 1022MOL0     H41000   8.753   5.913   6.008  1.0137  2.4510 -1.6244
 1022MOL0     H41001   8.814   5.747   5.978 -1.3051  0.3178  0.5113
 1022MOL0     H41002   8.953   6.010   5.896  1.0721  0.6439  0.7137
 1022MOL0     H41003   9.011   5.886   6.005 -0.7008 -0.5728 -0.1667
 1022MOL0     H41004   8.971   5.841   5.708 -1.1940  1.0631  1.2565
 1022MOL0     H41005   9.017   5.716   5.823 -3.1332  0.1833 -0.7229
 1022MOL0     H41006   9.218   5.820   5.888 -0.5333 -1.9797 -1.3608
 1022MOL0     H41007   9.195   5.975   5.807  4.2086 -0.1697 -1.3183
 1022MOL0     H41008   9.357   5.833   5.692 -0.3032 -1.0447  1.7835
 1022MOL0     H41009   9.227   5.718   5.655 -2.2668  0.7262  0.2942
 1022MOL0     H41010   9.243   5.997   5.550 -4.4460  1.5327  0.0429
 1022MOL0     H41011   9.099   5.894   5.537 -0.2667  0.4587  0.6476
 1022MOL0     H41012   9.268   5.712   5.438 -2.1418  0.8127  0.2455
 1022MOL0     H41013   9.393   5.851   5.437  0.6681 -0.8311 -1.7267
 1022MOL0     H41014   9.119   5.862   5.301 -0.4232 -2.7303  1.4685
 1022MOL0     H41015   9.269   5.809   5.226  1.1741  1.7017 -0.9358
 1022MOL0     H41016   8.586   5.956   5.646 -1.3407  2.0920  0.0954
 1022MOL0     H41017   8.333   5.963   5.653 -1.7680 -0.7760  1.0177
 1022MOL0     H41018   8.042   5.689   5.921 -1.1540 -1.1017 -0.9158
 1022MOL0     H41019   7.824   5.611   5.997 -0.8351  0.7723 -1.0659
 1022MOL0     H41020   6.157   4.746   6.727 -1.1979 -0.7684  0.6851
 1022MOL0     H41021   5.929   4.706   6.680 -0.0360  0.6687  0.1456
 1022MOL0     H41022   5.701   4.296   6.422  0.7601  0.6734  0.8431
 1022MOL0     H41023   5.516   4.182   6.352  3.3348 -0.2766 -0.2488
 1022MOL0     H41024   5.085   4.307   6.422 -0.1314 -1.9094 -0.5383
 1022MOL0     H41025   5.161   4.377   6.270 -0.6761  0.0041 -1.6678
 1022MOL0     H41026   5.088   4.083   6.289 -1.6336 -1.7803 -0.8086
 1022MOL0     H41027   5.123   4.176   6.148  1.4932 -0.6700  1.3161
 1022MOL0     H41028   4.878   4.179   6.327 -2.8760  1.6563 -1.1258
 1022MOL0     H41029   4.882   4.303   6.203 -1.9855 -0.9069  1.4015
 1022MOL0     H41030   4.889   4.013   6.148  4.2514  0.3631 -3.2395
 1022MOL0     H41031   4.889   4.136   6.025 -0.3374 -0.5439  0.4395
 1022MOL0     H41032   4.482   4.097   6.113  0.6451 -1.5642  0.7003
 1022MOL0     H41033   5.248   4.488   6.480  0.4912  0.7364  0.5574
 1022MOL0     H41034   5.315   4.681   6.573  0.3244  2.7680  0.4161
 1022MOL0     H41035   5.456   4.675   6.681 -0.3088  0.7466  0.2922
 1022MOL0     H41036   5.467   4.737   6.519 -0.8395  2.1846  2.3089
 1023MOL0     O41037   7.821   4.941   6.933 -0.2935 -0.0529 -1.3424
 1023MOL0     C41038   7.827   4.868   6.833  0.2170 -0.1619 -0.1194
 1023MOL0     O41039   7.884   4.896   6.714  0.7108 -0.1207  0.3961
 1023MOL0     C41040   7.959   5.018   6.693  0.4079 -0.2093  0.2377
 1023MOL0     C41041   8.046   5.014   6.588  0.7145 -0.4274  0.0540
 1023MOL0     C41042   8.123   5.129   6.550  0.2554 -0.2069 -0.2473
 1023MOL0     C41043   8.095   5.250   6.619 -1.0848 -0.3253 -0.6072
 1023MOL0     O41044   8.178   5.347   6.572  0.4919 -0.0566 -0.6291
 1023MOL0     C41045   8.183   5.477   6.639  0.0546  0.3882 -0.1260
 1023MOL0     C41046   8.295   5.557   6.578 -0.2040  0.6844 -0.0483
 1023MOL0     C41047   8.430   5.557   6.658 -0.0561  0.6233  0.1847
 1023MOL0     C41048   8.474   5.408   6.691 -1.0951 -0.5231 -0.2125
 1023MOL0     C41049   8.607   5.419   6.778  0.1439  0.2403 -0.1250
 1023MOL0     C41050   8.709   5.513   6.714 -1.1953 -0.3453 -0.5313
 1023MOL0     C41051   8.845   5.513   6.778  0.4741  0.1511 -0.3693
 1023MOL0     C41052   8.856   5.559   6.927  0.4562  0.0115 -0.6552
 1023MOL0     N41053   8.998   5.601   6.954  0.0217 -0.2200 -0.5110
 1023MOL0     C41054   9.108   5.523   6.937 -0.0185  0.2315  0.2173
 1023MOL0     C41055   9.210   5.605   6.957  0.0812 -0.6715  0.4025
 1023MOL0     C41056   9.360   5.583   6.921 -0.0830 -0.6925  0.2604
 1023MOL0     C41057   9.450   5.554   7.040 -0.6791  0.9203 -0.1060
 1023MOL0     C41058   9.468   5.410   7.074  1.2359  0.5629  0.9914
 1023MOL0     C41059   9.576   5.368   7.170  0.2979 -0.0852 -0.6045
 1023MOL0     O41060   9.710   5.420   7.139  0.3189  0.1526  0.2017
 1023MOL0     C41061   9.820   5.341   7.149 -0.2987 -0.3590  0.0631
 1023MOL0     C41062   9.825   5.217   7.204 -0.3821 -0.6096  0.1789
 1023MOL0     C41063   9.940   5.135   7.195 -0.4932 -0.3766 -0.3990
 1023MOL0     C41064   9.946   5.008   7.274 -0.0664  0.7629 -0.8046
 1023MOL0     C41065  10.057   5.193   7.140  0.0240 -0.8678  0.2295
 1023MOL0     C41066  10.183   5.124   7.119  0.7735  0.5583 -0.3325
 1023MOL0     O41067  10.302   5.196   7.098 -0.2927 -0.5926 -0.4269
 1023MOL0     C41068  10.414   5.128   7.061  0.6442  0.7208 -0.3644
 1023MOL0     C41069  10.452   5.004   7.123 -0.2844 -0.5134  0.3224
 1023MOL0     C41070  10.567   4.940   7.087 -0.3069 -0.7698  0.4179
 1023MOL0     C41071  10.638   4.986   6.978 -0.1764  0.3098 -0.1260
 1023MOL0     O41072  10.746   4.917   6.940  0.4849  0.9452  0.3469
 1023MOL0     C41073  10.818   4.953   6.828 -0.2286 -0.8555  0.3322
 1023MOL0     C41074  10.913   4.848   6.789 -0.8334  0.9031  0.2406
 1023MOL0     C41075  11.026   4.822   6.891  0.4435  0.4675  0.4935
 1023MOL0     C41076  11.107   4.696   6.858  0.1972  0.5051 -0.6739
 1023MOL0     C41077  11.215   4.668   6.966  0.3612  0.2484 -0.5302
 1023MOL0     C41078  11.325   4.780   6.956 -0.3190 -0.1008  0.3065
 1023MOL0     C41079  11.301   4.903   7.055 -0.8130  0.4552  0.3740
 1023MOL0     C41080  11.375   4.864   7.187  0.2818  0.2741 -0.4907
 1023MOL0    Cl41081  11.548   4.881   7.175 -0.6455 -0.2433  0.1453
 1023MOL0     C41082  10.609   5.107   6.915  0.2284 -1.2996  0.4813
 1023MOL0     C41083  10.495   5.182   6.958  0.7249  0.4728 -0.2845
 1023MOL0     O41084  10.175   5.006   7.118  0.7774 -0.2863  0.2442
 1023MOL0     C41085  10.058   5.329   7.101  0.4109 -0.4538  0.0871
 1023MOL0     C41086   9.934   5.394   7.095 -0.4469  0.8429  0.3577
 1023MOL0     N41087   9.162   5.735   6.969 -0.2858  0.3525  0.7365
 1023MOL0     N41088   9.032   5.733   6.956 -0.2136  0.2406  0.7750
 1023MOL0     C41089   7.992   5.259   6.711  0.8908 -0.3010 -0.4241
 1023MOL0     C41090   7.924   5.142   6.746 -0.5660  0.4682 -0.9945
 1023MOL0     C41091   7.759   4.739   6.837 -0.7816  0.1089  0.4814
 1023MOL0     C41092   7.801   4.652   6.735 -0.4746  0.4088 -0.3024
 1023MOL0     C41093   7.748   4.533   6.723 -0.1933 -0.1089  0.6440
 1023MOL0     C41094   7.649   4.480   6.802  0.7536  0.1877  0.0429
 1023MOL0     O41095   7.598   4.354   6.796  0.5238  0.3021  0.0537
 1023MOL0     C41096   7.674   4.245   6.733 -0.1791 -0.0418 -0.4786
 1023MOL0     C41097   7.594   4.119   6.731  0.4170  0.2444  0.4805
 1023MOL0     C41098   7.528   4.085   6.865  0.0639 -0.3573 -0.1862
 1023MOL0     C41099   7.447   3.951   6.863 -1.0482  0.9394  0.7287
 1023MOL0     C41100   7.546   3.841   6.875 -0.1009  0.5934 -0.9813
 1023MOL0     C41101   7.625   3.761   6.932 -0.1323  1.1314  0.9445
 1023MOL0     C41102   7.609   4.565   6.910  0.2144 -0.6491  0.0147
 1023MOL0     C41103   7.671   4.686   6.935  0.3003 -0.1944 -0.0035
 1023MOL0     C41104   7.617   4.769   7.051  0.1840  1.3698 -0.7538
 1023MOL0     H41105   8.066   4.920   6.539  0.9950  1.1040 -2.9880
 1023MOL0     H41106   8.201   5.118   6.475 -1.3328 -0.1080 -1.9859
 1023MOL0     H41107   8.181   5.466   6.748 -0.3337 -0.4014 -0.1998
 1023MOL0     H41108   8.098   5.540   6.612  1.3916  2.1824 -0.2526
 1023MOL0     H41109   8.326   5.518   6.481 -0.7338  0.7242 -0.2382
 1023MOL0     H41110   8.258   5.657   6.552  1.6193  1.1903 -0.8608
 1023MOL0     H41111   8.499   5.623   6.604  0.2911  0.8800  0.9181
 1023MOL0     H41112   8.423   5.609   6.754 -0.6152  1.1179 -0.1181
 1023MOL0     H41113   8.406   5.343   6.748  0.8337 -1.0167  1.6747
 1023MOL0     H41114   8.486   5.360   6.594  0.1632 -0.8713  0.0956
 1023MOL0     H41115   8.660   5.323   6.783  1.0193  0.6436 -1.3148
 1023MOL0     H41116   8.572   5.440   6.880 -0.6464 -1.9992  0.1247
 1023MOL0     H41117   8.722   5.488   6.608 -1.5062  0.7855 -0.8548
 1023MOL0     H41118   8.667   5.612   6.736  1.0976 -0.1117  3.9444
 1023MOL0     H41119   8.904   5.586   6.722  0.5777 -0.1185 -0.6129
 1023MOL0     H41120   8.891   5.414   6.779 -2.1005 -1.1532 -0.6350
 1023MOL0     H41121   8.779   5.633   6.950  0.9977 -0.1333  1.9594
 1023MOL0     H41122   8.835   5.479   6.998 -1.9962  2.5788  1.7714
 1023MOL0     H41123   9.109   5.419   6.906  0.1819 -0.9900  3.8617
 1023MOL0     H41124   9.391   5.678   6.875  0.1171  0.6615  2.9831
 1023MOL0     H41125   9.373   5.503   6.848  1.3152  1.1252 -1.6050
 1023MOL0     H41126   9.550   5.581   7.004 -0.8813  0.3051 -1.1672
 1023MOL0     H41127   9.426   5.607   7.132  2.5573 -1.9164  2.6720
 1023MOL0     H41128   9.375   5.387   7.125  0.8264  2.1840  1.0202
 1023MOL0     H41129   9.477   5.359   6.977 -1.3724  1.1095  0.3965
 1023MOL0     H41130   9.541   5.389   7.272 -1.5935 -2.3386 -0.6871
 1023MOL0     H41131   9.580   5.258   7.172  0.9239 -0.0718 -0.7768
 1023MOL0     H41132   9.746   5.174   7.265 -1.4361  0.0274 -0.6948
 1023MOL0     H41133  10.025   5.020   7.348 -0.4975  2.3064 -0.5668
 1023MOL0     H41134   9.960   4.918   7.214  0.5816  1.7407 -2.1654
 1023MOL0     H41135   9.851   4.988   7.325  1.6181  0.2477  2.3563
 1023MOL0     H41136  10.408   4.956   7.209  1.1541  0.8930  1.9222
 1023MOL0     H41137  10.601   4.846   7.129 -0.2329 -1.4676 -1.1445
 1023MOL0     H41138  10.747   4.968   6.745 -0.5260  0.3175  0.7784
 1023MOL0     H41139  10.869   5.048   6.845 -1.8773 -0.1229  1.4020
 1023MOL0     H41140  10.856   4.756   6.772  1.7804 -1.0435  1.3599
 1023MOL0     H41141  10.955   4.876   6.692  0.9779 -0.4123  0.5882
 1023MOL0     H41142  10.989   4.813   6.994 -1.4165 -1.2753 -0.2644
 1023MOL0     H41143  11.097   4.905   6.888 -0.3428  1.5426  4.9677
 1023MOL0     H41144  11.149   4.727   6.762  0.4361  2.1136 -0.0812
 1023MOL0     H41145  11.043   4.610   6.838  1.6699 -0.1664 -2.8472
 1023MOL0     H41146  11.168   4.675   7.065 -0.5154 -3.2015 -0.5470
 1023MOL0     H41147  11.262   4.571   6.944  1.8302  1.3357 -2.3785
 1023MOL0     H41148  11.331   4.818   6.854  0.0660  0.7968  0.6548
 1023MOL0     H41149  11.421   4.733   6.981 -1.4519 -2.0933  1.1472
 1023MOL0     H41150  11.194   4.917   7.072 -1.5399 -2.8873 -0.5693
 1023MOL0     H41151  11.348   4.996   7.023  2.5567 -1.3117 -0.2751
 1023MOL0     H41152  11.356   4.761   7.217 -2.1843  1.1125  1.1158
 1023MOL0     H41153  11.332   4.918   7.272  0.4625 -2.1611  1.2660
 1023MOL0     H41154  10.667   5.150   6.834  0.6462  0.7005  1.7701
 1023MOL0     H41155  10.457   5.265   6.901  1.1959  0.9587  0.0955
 1023MOL0     H41156  10.144   5.392   7.084  0.0103  0.1113  0.1210
 1023MOL0     H41157   9.922   5.492   7.050 -1.4533 -0.8838 -3.5152
 1023MOL0     H41158   7.970   5.355   6.755  3.2522  1.0252 -1.8822
 1023MOL0     H41159   7.847   5.134   6.823 -0.6116 -0.4876 -1.1220
 1023MOL0     H41160   7.873   4.668   6.656  1.1543 -0.8421  0.8516
 1023MOL0     H41161   7.792   4.469   6.647  0.3919 -0.8178  1.5510
 1023MOL0     H41162   7.701   4.259   6.628 -1.1034 -0.5337 -0.7985
 1023MOL0     H41163   7.764   4.234   6.794 -1.0648  1.8221  1.2656
 1023MOL0     H41164   7.666   4.040   6.707  3.3894  2.9506 -0.2889
 1023MOL0     H41165   7.526   4.130   6.646  2.2927 -1.5688 -1.3872
 1023MOL0     H41166   7.606   4.075   6.941  1.3888 -2.9518 -1.7432
 1023MOL0     H41167   7.454   4.162   6.889 -2.2775 -2.3620 -0.5798
 1023MOL0     H41168   7.393   3.927   6.771  0.5512 -2.0316  0.4557
 1023MOL0     H41169   7.377   3.941   6.947 -1.4343 -0.8688  0.2227
 1023MOL0     H41170   7.701   3.695   6.969 -0.8590 -0.4567 -0.2657
 1023MOL0     H41171   7.537   4.532   6.984  1.1487  0.5628  1.5107
 1023MOL0     H41172   7.702   4.797   7.113  0.6478  2.1998 -1.7376
 1023MOL0     H41173   7.564   4.858   7.015 -3.6659  0.2066  1.4655
 1023MOL0     H41174   7.552   4.712   7.117  1.2328  2.5322  1.3865
 1024MOL0     O41175   1.963   3.794   9.835 -0.2678 -0.2666 -0.0718
 1024MOL0     C41176   1.865   3.831   9.900 -0.9779 -0.9253  0.6872
 1024MOL0     O41177   1.841   3.947   9.966 -0.4060 -0.7604  0.6204
 1024MOL0     C41178   1.940   4.032   9.987 -0.2303  0.7059 -0.0476
 1024MOL0     C41179   2.011   4.017  10.102 -0.5536  0.3283  0.2938
 1024MOL0     C41180   2.115   4.108  10.119  0.3795  0.3770  0.0111
 1024MOL0     C41181   2.164   4.200  10.027  0.3086  0.7656  0.4643
 1024MOL0     O41182   2.287   4.254  10.056  0.4118 -0.6591  0.3502
 1024MOL0     C41183   2.340   4.347   9.960  0.8845  0.2963 -0.6593
 1024MOL0     C41184   2.492   4.358   9.966 -1.8879  0.5270 -0.5276
 1024MOL0     C41185   2.543   4.487   9.912  0.7023 -0.4673  0.5548
 1024MOL0     C41186   2.691   4.501   9.905 -0.5674 -0.8054 -0.0859
 1024MOL0     C41187   2.753   4.524  10.044  0.1856 -0.5348 -0.5385
 1024MOL0     C41188   2.908   4.524  10.028  0.6958  0.2652 -0.4100
 1024MOL0     C41189   2.973   4.540  10.166 -1.1783 -0.3595 -1.0450
 1024MOL0     C41190   3.124   4.570  10.142 -0.2645  0.3931 -0.3060
 1024MOL0     N41191   3.146   4.713  10.128  0.5327 -0.0700  0.5375
 1024MOL0     C41192   3.197   4.766  10.014  0.1525 -0.5213 -0.4459
 1024MOL0     C41193   3.280   4.871  10.052  0.7175  0.1766 -0.2640
 1024MOL0     C41194   3.366   4.965   9.968 -0.2075  0.3930 -0.4620
 1024MOL0     C41195   3.521   4.944   9.988 -0.1272 -0.2907  1.1227
 1024MOL0     C41196   3.607   5.041   9.908  0.3751 -0.7608 -1.2616
 1024MOL0     C41197   3.755   5.000   9.919 -0.6743 -0.0652 -0.8430
 1024MOL0     O41198   3.777   4.865   9.860  0.2761 -0.7950 -0.0216
 1024MOL0     C41199   3.903   4.807   9.887  0.6893  0.1994  0.4679
 1024MOL0     C41200   3.907   4.672   9.857 -0.1209  0.4047  0.1936
 1024MOL0     C41201   4.019   4.595   9.878  0.2015  0.5044 -0.0741
 1024MOL0     C41202   4.019   4.454   9.829  0.4108  0.5407  0.4893
 1024MOL0     C41203   4.142   4.652   9.937  0.2680  0.3209  0.5892
 1024MOL0     C41204   4.268   4.578   9.977  0.2766 -0.6118 -0.6033
 1024MOL0     O41205   4.360   4.653  10.048 -0.2609 -0.4658 -0.4192
 1024MOL0     C41206   4.477   4.599  10.063 -0.6360  0.9220 -0.3362
 1024MOL0     C41207   4.576   4.604   9.957  1.6807  0.0518  0.2957
 1024MOL0     C41208   4.709   4.565   9.978 -0.5147 -0.1731  0.6875
 1024MOL0     C41209   4.742   4.514  10.098  0.0670 -0.5911  0.4560
 1024MOL0     O41210   4.864   4.455  10.118 -0.9714 -0.3419 -0.2116
 1024MOL0     C41211   4.978   4.497  10.046  0.2301 -0.2906 -0.3107
 1024MOL0     C41212   5.101   4.467  10.131 -1.6753 -0.4763  1.4655
 1024MOL0     C41213   5.235   4.479  10.051  0.3909  0.1327  0.8573
 1024MOL0     C41214   5.351   4.480  10.156 -0.2963 -0.2786 -0.5476
 1024MOL0     C41215   5.490   4.478  10.096  0.0436 -0.5906  0.0783
 1024MOL0     C41216   5.527   4.342  10.033 -0.3549  0.0275 -0.4510
 1024MOL0     C41217   5.663   4.350   9.973 -1.3953 -0.1071  0.2797
 1024MOL0     C41218   5.704   4.205   9.936  0.4360 -0.2400 -0.4037
 1024MOL0    Cl41219   5.852   4.225   9.842  0.6232  0.5143 -0.2161
 1024MOL0     C41220   4.647   4.503  10.195 -0.8203 -0.2843 -0.1320
 1024MOL0     C41221   4.517   4.541  10.184 -0.2885 -0.8111  0.2074
 1024MOL0     O41222   4.274   4.461   9.968  1.2997  0.5112 -0.1678
 1024MOL0     C41223   4.135   4.787   9.973 -0.5053  0.5508  0.7843
 1024MOL0     C41224   4.020   4.868   9.941  0.1788  0.6999  0.7247
 1024MOL0     N41225   3.266   4.870  10.188  0.1917 -0.4085 -0.3075
 1024MOL0     N41226   3.184   4.784  10.230 -0.1562  0.5481  1.3165
 1024MOL0     C41227   2.089   4.211   9.917 -0.1178  0.5911  0.3218
 1024MOL0     C41228   1.972   4.133   9.899  0.5025 -0.6039  0.0162
 1024MOL0     C41229   1.743   3.736   9.901  0.5062 -0.1192 -0.5002
 1024MOL0     C41230   1.665   3.739  10.017 -0.7344 -0.2495 -0.4374
 1024MOL0     C41231   1.546   3.660  10.027 -0.3212 -0.6425 -0.4978
 1024MOL0     C41232   1.516   3.564   9.936  0.0501  0.7362 -0.4144
 1024MOL0     O41233   1.398   3.497   9.938 -0.0626  0.3841  0.7338
 1024MOL0     C41234   1.307   3.505  10.046  0.6117 -0.3020 -0.1136
 1024MOL0     C41235   1.353   3.403  10.155  0.1485  0.0916  0.1532
 1024MOL0     C41236   1.266   3.419  10.280  0.5938 -0.1521 -0.1667
 1024MOL0     C41237   1.282   3.300  10.370  0.0091 -0.4195  0.0182
 1024MOL0     C41238   1.420   3.304  10.434  0.1452 -0.3334  0.5546
 1024MOL0     C41239   1.527   3.309  10.497  0.5137  0.5728  0.5144
 1024MOL0     C41240   1.594   3.555   9.822 -0.7598 -0.0146  0.5302
 1024MOL0     C41241   1.709   3.634   9.813  0.3665  0.2633 -0.1412
 1024MOL0     C41242   1.794   3.606   9.697 -0.0951  0.6475 -0.2318
 1024MOL0     H41243   1.983   3.942  10.176  1.6368 -1.3315 -0.4572
 1024MOL0     H41244   2.161   4.100  10.217 -3.1701  1.7373  1.9923
 1024MOL0     H41245   2.298   4.447   9.976  1.1571  0.2179  0.7166
 1024MOL0     H41246   2.310   4.324   9.858 -0.7864  0.9723 -0.3579
 1024MOL0     H41247   2.525   4.344  10.070  1.4926  0.0847 -1.5209
 1024MOL0     H41248   2.544   4.284   9.904 -1.0505 -0.5968  1.3937
 1024MOL0     H41249   2.500   4.514   9.815 -2.4552 -2.0825  1.3663
 1024MOL0     H41250   2.494   4.567   9.969  1.5582  1.1072 -0.8194
 1024MOL0     H41251   2.719   4.403   9.866 -1.3016 -0.2728 -2.0881
 1024MOL0     H41252   2.706   4.576   9.827 -3.0947 -0.7942 -0.6575
 1024MOL0     H41253   2.734   4.444  10.117  1.4269 -0.2105  0.1689
 1024MOL0     H41254   2.716   4.620  10.080 -2.4497 -1.1814 -1.2781
 1024MOL0     H41255   2.947   4.431   9.986  1.6661  0.0722  0.8494
 1024MOL0     H41256   2.935   4.603   9.957 -0.4813 -0.1661 -1.3545
 1024MOL0     H41257   2.969   4.447  10.224  0.5444  1.0302  1.4439
 1024MOL0     H41258   2.915   4.608  10.228 -0.4404 -2.0331  1.6554
 1024MOL0     H41259   3.178   4.539  10.232 -0.5476  0.7215 -0.0206
 1024MOL0     H41260   3.163   4.516  10.055 -1.2832  0.3348 -0.7403
 1024MOL0     H41261   3.189   4.720   9.916  0.9862 -1.4766 -0.0765
 1024MOL0     H41262   3.334   5.068   9.989 -0.4380  1.3121 -4.5705
 1024MOL0     H41263   3.345   4.953   9.862 -3.3331 -0.9933  0.1977
 1024MOL0     H41264   3.541   4.947  10.096 -2.6682 -3.6972  1.8538
 1024MOL0     H41265   3.549   4.845   9.952 -1.0459 -0.3301  0.4631
 1024MOL0     H41266   3.579   5.049   9.803  2.1872 -0.0705 -1.7097
 1024MOL0     H41267   3.585   5.137   9.955 -1.6423 -0.6072 -2.3896
 1024MOL0     H41268   3.822   5.075   9.877  0.2545  0.0374  0.7316
 1024MOL0     H41269   3.787   4.989  10.023 -0.8703 -1.5574 -0.9186
 1024MOL0     H41270   3.813   4.631   9.822 -2.1274  0.8417  4.3475
 1024MOL0     H41271   3.950   4.437   9.746  2.3439  0.7961 -1.2647
 1024MOL0     H41272   3.999   4.384   9.911 -1.9992 -0.7677 -1.0746
 1024MOL0     H41273   4.118   4.433   9.787  0.7125  1.6964  0.5947
 1024MOL0     H41274   4.542   4.639   9.860  0.1595 -1.7387  0.1041
 1024MOL0     H41275   4.773   4.562   9.890 -3.0595 -0.2927 -1.2776
 1024MOL0     H41276   4.984   4.436   9.956 -0.3329 -1.9393  0.7278
 1024MOL0     H41277   4.976   4.601  10.014  0.8968 -0.0625  0.3422
 1024MOL0     H41278   5.104   4.542  10.212  1.6393  1.8666 -0.5352
 1024MOL0     H41279   5.077   4.369  10.172 -2.4355 -0.8252  0.2113
 1024MOL0     H41280   5.239   4.565   9.985  0.0326 -2.3014 -2.6289
 1024MOL0     H41281   5.247   4.389   9.988  0.1716  0.4808  0.3125
 1024MOL0     H41282   5.351   4.388  10.216  1.4015 -0.9012 -1.4336
 1024MOL0     H41283   5.337   4.567  10.221  1.8777  0.3904 -0.9003
 1024MOL0     H41284   5.495   4.551  10.014  1.0506 -2.3190 -1.4742
 1024MOL0     H41285   5.562   4.506  10.174 -1.3856  0.4198  1.0905
 1024MOL0     H41286   5.465   4.323   9.945  2.0604  0.4326 -2.3481
 1024MOL0     H41287   5.528   4.260  10.105  0.4109  1.1093  0.8056
 1024MOL0     H41288   5.734   4.393  10.044  0.0412  0.8640 -1.6639
 1024MOL0     H41289   5.661   4.404   9.878 -2.1488 -1.0576 -0.2556
 1024MOL0     H41290   5.623   4.165   9.875  0.1392 -0.0744 -0.1205
 1024MOL0     H41291   5.707   4.149  10.030 -0.1642  1.7602  0.8756
 1024MOL0     H41292   4.684   4.458  10.286  2.6627  2.0404 -0.2203
 1024MOL0     H41293   4.442   4.516  10.257  2.2247 -0.0531  3.2873
 1024MOL0     H41294   4.218   4.820  10.036  3.4414 -2.4934 -2.2367
 1024MOL0     H41295   4.020   4.974   9.964 -1.4852  1.3021 -1.6829
 1024MOL0     H41296   2.103   4.278   9.832  0.6886  0.3422  0.2468
 1024MOL0     H41297   1.900   4.161   9.823  0.3173 -0.9710  0.0538
 1024MOL0     H41298   1.700   3.803  10.098  2.2519  0.6749 -2.2791
 1024MOL0     H41299   1.484   3.676  10.115 -1.0078 -0.7840 -0.9520
 1024MOL0     H41300   1.297   3.608  10.082 -0.0783 -0.7672  1.0851
 1024MOL0     H41301   1.218   3.463   9.999  2.8941 -3.0857 -2.3656
 1024MOL0     H41302   1.459   3.414  10.177 -0.4809  0.8888  3.2556
 1024MOL0     H41303   1.329   3.304  10.116 -1.1156  0.7003 -0.6959
 1024MOL0     H41304   1.288   3.518  10.323 -1.5368  2.2944 -4.1124
 1024MOL0     H41305   1.163   3.433  10.246  0.3079  0.6315  0.9317
 1024MOL0     H41306   1.245   3.202  10.337 -1.9741 -0.7371  2.7442
 1024MOL0     H41307   1.217   3.320  10.456  1.7254  3.3783  0.6104
 1024MOL0     H41308   1.622   3.315  10.546  2.0695 -0.1591 -2.2523
 1024MOL0     H41309   1.563   3.495   9.738 -1.7294  1.2740 -0.0768
 1024MOL0     H41310   1.885   3.571   9.745 -1.0968  0.8049  1.9197
 1024MOL0     H41311   1.751   3.537   9.624 -0.2882  0.5618 -0.0389
 1024MOL0     H41312   1.816   3.693   9.634  1.0118  0.3424 -0.2846
  11.44051  11.44051  11.44051
